<LesHouchesEvents version="3.0">
<header>
<!--
#*********************************************************************
#                                                                    *
#                        MadGraph5_aMC@NLO                           *
#                                                                    *
#                           Going Beyond                             *
#                                                                    *
#                   http://madgraph.hep.uiuc.edu                     *
#                   http://madgraph.phys.ucl.ac.be                   *
#                   http://amcatnlo.cern.ch                          *
#                                                                    *
#                     The MadGraph5_aMC@NLO team                     *
#                                                                    *
#....................................................................*
#                                                                    *
# This file contains all the information necessary to reproduce      *
# the events generated:                                              *
#                                                                    *
# 1. software version                                                *
# 2. proc_card          : code generation info including model       *
# 3. param_card         : model primary parameters in the LH format  *
# 4. run_card           : running parameters (collider and cuts)     *
# 5. pythia_card        : present only if pythia has been run        *
# 6. pgs_card           : present only if pgs has been run           *
# 7. delphes_cards      : present only if delphes has been run       *
#                                                                    *
#                                                                    *
#*********************************************************************
-->
<MGVersion>
2.6.4
</MGVersion>
<MG5ProcCard>
<![CDATA[
#************************************************************
#*                     MadGraph5_aMC@NLO                    *
#*                                                          *
#*                *                       *                 *
#*                  *        * *        *                   *
#*                    * * * * 5 * * * *                     *
#*                  *        * *        *                   *
#*                *                       *                 *
#*                                                          *
#*                                                          *
#*         VERSION 2.6.4                 2018-11-09         *
#*                                                          *
#*    The MadGraph5_aMC@NLO Development Team - Find us at   *
#*    https://server06.fynu.ucl.ac.be/projects/madgraph     *
#*                                                          *
#************************************************************
#*                                                          *
#*               Command File for MadGraph5_aMC@NLO         *
#*                                                          *
#*     run as ./bin/mg5_aMC  filename                       *
#*                                                          *
#************************************************************
set default_unset_couplings 99
set group_subprocesses Auto
set ignore_six_quark_processes False
set loop_optimized_output True
set loop_color_flows False
set gauge unitary
set complex_mass_scheme False
set max_npoint_for_channel 0
import model SM4fLL_UFO
define p = g u c d s u~ c~ d~ s~
define j = g u c d s u~ c~ d~ s~
define l+ = e+ mu+
define l- = e- mu-
define vl = ve vm vt
define vl~ = ve~ vm~ vt~
generate u u~ > mu+ mu- NP=2 QED=99 QCD=0
output /Users/dpappadopulo/Projects/~Physics/madminer/examples/example\
4_systematics_DY/data/mg_processes/DY_sys/
]]>
</MG5ProcCard>
<MGProcCard>
#*********************************************************************
#                        MadGraph/MadEvent                           *
#                   http://madgraph.hep.uiuc.edu                     *
#                                                                    *
#                          proc_card.dat                             *
#*********************************************************************
#                                                                    *
#            This Files is generated by MADGRAPH 5                   *
#                                                                    *
# WARNING: This Files is generated for MADEVENT (compatibility issue)*
#          This files is NOT a valid MG4 proc_card.dat               *
#          Running this in MG4 will NEVER reproduce the result of MG5*
#                                                                    *
#*********************************************************************
#*********************************************************************
# Process(es) requested : mg2 input                                  *
#*********************************************************************
# Begin PROCESS # This is TAG. Do not modify this line
u u~ > mu+ mu-           #Process
# Be carefull the coupling are here in MG5 convention
NP=2
QED=99
QCD=0
          
end_coup           # End the couplings input

done               # this tells MG there are no more procs
# End PROCESS  # This is TAG. Do not modify this line
#*********************************************************************
# Model information                                                  *
#*********************************************************************
# Begin MODEL  # This is TAG. Do not modify this line
SM4fLL_UFO
# End   MODEL  # This is TAG. Do not modify this line
#*********************************************************************
# Start multiparticle definitions                                    *
#*********************************************************************
# Begin MULTIPARTICLES # This is TAG. Do not modify this line

# End  MULTIPARTICLES # This is TAG. Do not modify this line
</MGProcCard>
<MGRunCard>
<![CDATA[
#*********************************************************************
#                       MadGraph5_aMC@NLO                            *
#                                                                    *
#                     run_card.dat MadEvent                          *
#                                                                    *
#  This file is used to set the parameters of the run.               *
#                                                                    *
#  Some notation/conventions:                                        *
#                                                                    *
#   Lines starting with a '# ' are info or comments                  *
#                                                                    *
#   mind the format:   value    = variable     ! comment             *
#*********************************************************************
#
#*******************                                                 
# Running parameters
#*******************                                                 
#                                                                    
#*********************************************************************
# Tag name for the run (one word)                                    *
#*********************************************************************
  tag_1     = run_tag ! name of the run 
#*********************************************************************
# Run to generate the grid pack                                      *
#*********************************************************************
  False     = gridpack  !True = setting up the grid pack
#*********************************************************************
# Number of events and rnd seed                                      *
# Warning: Do not generate more than 1M events in a single run       *
# If you want to run Pythia, avoid more than 50k events in a run.    *
#*********************************************************************
  1000 = nevents ! Number of unweighted events requested
 129 = iseed   ! rnd seed (0=assigned automatically=default))
#*********************************************************************
# Collider type and energy                                           *
# lpp: 0=No PDF, 1=proton, -1=antiproton, 2=photon from proton,      *
#                                         3=photon from electron     *
#*********************************************************************
     1        = lpp1    ! beam 1 type 
     1        = lpp2    ! beam 2 type
     6500.0     = ebeam1  ! beam 1 total energy in GeV
     6500.0     = ebeam2  ! beam 2 total energy in GeV
#*********************************************************************
# Beam polarization from -100 (left-handed) to 100 (right-handed)    *
#*********************************************************************
     0.0     = polbeam1 ! beam polarization for beam 1
     0.0     = polbeam2 ! beam polarization for beam 2
#*********************************************************************
# PDF CHOICE: this automatically fixes also alpha_s and its evol.    *
#*********************************************************************
     lhapdf    = pdlabel     ! PDF set
     90900   = lhaid     ! if pdlabel=lhapdf, this is the lhapdf number
#*********************************************************************
# Renormalization and factorization scales                           *
#*********************************************************************
 False = fixed_ren_scale  ! if .true. use fixed ren scale
 False        = fixed_fac_scale  ! if .true. use fixed fac scale
 91.188  = scale            ! fixed ren scale
 91.188  = dsqrt_q2fact1    ! fixed fact scale for pdf1
 91.188  = dsqrt_q2fact2    ! fixed fact scale for pdf2
 -1 = dynamical_scale_choice ! Choose one of the preselected dynamical choices
 1.0  = scalefact        ! scale factor for event-by-event scales
#*********************************************************************
# Type and output format
#*********************************************************************
  False     = gridpack  !True = setting up the grid pack
  -1.0 = time_of_flight ! threshold (in mm) below which the invariant livetime is not written (-1 means not written)
  3.0 = lhe_version       ! Change the way clustering information pass to shower.        
  True = clusinfo         ! include clustering tag in output
  sum =  event_norm       ! average/sum. Normalization of the weight in the LHEF
#*********************************************************************
# Matching - Warning! ickkw > 1 is still beta
#*********************************************************************
 0 = ickkw            ! 0 no matching, 1 MLM, 2 CKKW matching
 1 = highestmult      ! for ickkw=2, highest mult group
 1 = ktscheme         ! for ickkw=1, 1 Durham kT, 2 Pythia pTE
 1.0 = alpsfact         ! scale factor for QCD emission vx
 False = chcluster        ! cluster only according to channel diag
 True = pdfwgt           ! for ickkw=1, perform pdf reweighting
 4 = asrwgtflavor     ! highest quark flavor for a_s reweight    
#*********************************************************************
#**********************************************************
#
#**********************************************************
# Automatic ptj and mjj cuts if xqcut > 0
# (turn off for VBF and single top processes)
#**********************************************************
   False  = auto_ptj_mjj  ! Automatic setting of ptj and mjj
#**********************************************************
#                                                                    
#**********************************
# BW cutoff (M+/-bwcutoff*Gamma)
#**********************************
  15.0  = bwcutoff      ! (M+/-bwcutoff*Gamma)
#**********************************************************
# Apply pt/E/eta/dr/mij/kt_durham cuts on decay products or not
# (note that etmiss/ptll/ptheavy/ht/sorted cuts always apply)
#*************************************************************
   False  = cut_decays    ! Cut decay products 
#*************************************************************
# Number of helicities to sum per event (0 = all helicities)
# 0 gives more stable result, but longer run time (needed for
# long decay chains e.g.).
# Use >=2 if most helicities contribute, e.g. pure QCD.
#*************************************************************
   0  = nhel          ! Number of helicities used per event
#*******************                                                 
# Standard Cuts
#*******************                                                 
#                                                                    
#*********************************************************************
# Minimum and maximum pt's (for max, -1 means no cut)                *
#*********************************************************************
 15.0  = ptj       ! minimum pt for the jets
 0.0  = ptb       ! minimum pt for the b 
 0.0 = pta       ! minimum pt for the photons
 25.0  = ptl       ! minimum pt for the charged leptons
 0.0  = misset    ! minimum missing Et (sum of neutrino's momenta)
 0.0  = ptheavy   ! minimum pt for one heavy final state
 -1.0  = ptjmax    ! maximum pt for the jets
 -1.0  = ptbmax    ! maximum pt for the b
 -1.0 = ptamax       ! maximum pt for the photons
 -1.0  = ptlmax    ! maximum pt for the charged leptons
 -1.0  = missetmax ! maximum missing Et (sum of neutrino's momenta)
#*********************************************************************
# Minimum and maximum E's (in the center of mass frame)              *
#*********************************************************************
  0.0  = ej     ! minimum E for the jets 
  0.0  = eb     ! minimum E for the b 
  0.0  = ea     ! minimum E for the photons 
  0.0  = el     ! minimum E for the charged leptons 
  -1.0   = ejmax ! maximum E for the jets
 -1.0   = ebmax ! maximum E for the b
 -1.0   = eamax ! maximum E for the photons
 -1.0   = elmax ! maximum E for the charged leptons
#*********************************************************************
# Maximum and minimum absolute rapidity (for max, -1 means no cut)   *
#*********************************************************************
 2.5 = etaj    ! max rap for the jets
  -1.0  = etab    ! max rap for the b
 3.0  = etaa    ! max rap for the photons
 2.5  = etal    ! max rap for the charged leptons
 0.0  = etajmin ! min rap for the jets
 0.0  = etabmin ! min rap for the b
 0.0  = etaamin ! min rap for the photons
 0.0  = etalmin ! main rap for the charged leptons
#*********************************************************************
# Minimum and maximum DeltaR distance                                *
#*********************************************************************
 0.0 = drjj    ! min distance between jets
 0.0 = drbb    ! min distance between b's
 0.0 = drll    ! min distance between leptons
 0.0 = draa    ! min distance between gammas
 0.0 = drbj    ! min distance between b and jet
 0.0 = draj    ! min distance between gamma and jet
 0.0 = drjl    ! min distance between jet and lepton
 0.0 = drab    ! min distance between gamma and b
 0.0 = drbl    ! min distance between b and lepton
 0.0 = dral    ! min distance between gamma and lepton
 -1.0  = drjjmax ! max distance between jets
 -1.0  = drbbmax ! max distance between b's
 -1.0  = drllmax ! max distance between leptons
 -1.0  = draamax ! max distance between gammas
 -1.0  = drbjmax ! max distance between b and jet
 -1.0  = drajmax ! max distance between gamma and jet
 -1.0  = drjlmax ! max distance between jet and lepton
 -1.0  = drabmax ! max distance between gamma and b
 -1.0  = drblmax ! max distance between b and lepton
 -1.0  = dralmax ! maxdistance between gamma and lepton
#*********************************************************************
# Minimum and maximum invariant mass for pairs                       *
# WARNING: for four lepton final state mmll cut require to have      *
#          different lepton masses for each flavor!                  *           
#*********************************************************************
 0.0   = mmjj    ! min invariant mass of a jet pair 
 0.0   = mmbb    ! min invariant mass of a b pair 
 0.0   = mmaa    ! min invariant mass of gamma gamma pair
 2670   = mmll    ! min invariant mass of l+l- (same flavour) lepton pair
 -1.0  = mmjjmax ! max invariant mass of a jet pair
 -1.0  = mmbbmax ! max invariant mass of a b pair
 -1.0  = mmaamax ! max invariant mass of gamma gamma pair
 3210  = mmllmax ! max invariant mass of l+l- (same flavour) lepton pair
#*********************************************************************
# Minimum and maximum invariant mass for all letpons                 *
#*********************************************************************
 0.0   = mmnl    ! min invariant mass for all letpons (l+- and vl) 
 -1.0  = mmnlmax ! max invariant mass for all letpons (l+- and vl) 
#*********************************************************************
# Minimum and maximum pt for 4-momenta sum of leptons                *
#*********************************************************************
 0.0   = ptllmin  ! Minimum pt for 4-momenta sum of leptons(l and vl)
 -1.0  = ptllmax  ! Maximum pt for 4-momenta sum of leptons(l and vl)
#*********************************************************************
# Inclusive cuts                                                     *
#*********************************************************************
 0.0  = xptj ! minimum pt for at least one jet  
 0.0  = xptb ! minimum pt for at least one b 
 0.0  = xpta ! minimum pt for at least one photon 
 0.0  = xptl ! minimum pt for at least one charged lepton 
#*********************************************************************
# Control the pt's of the jets sorted by pt                          *
#*********************************************************************
 0.0   = ptj1min ! minimum pt for the leading jet in pt
 0.0   = ptj2min ! minimum pt for the second jet in pt
 0.0   = ptj3min ! minimum pt for the third jet in pt
 0.0   = ptj4min ! minimum pt for the fourth jet in pt
 -1.0  = ptj1max ! maximum pt for the leading jet in pt 
 -1.0  = ptj2max ! maximum pt for the second jet in pt
 -1.0  = ptj3max ! maximum pt for the third jet in pt
 -1.0  = ptj4max ! maximum pt for the fourth jet in pt
 0   = cutuse  ! reject event if fails any (0) / all (1) jet pt cuts
#*********************************************************************
# Control the pt's of leptons sorted by pt                           *
#*********************************************************************
 0.0   = ptl1min ! minimum pt for the leading lepton in pt
 0.0   = ptl2min ! minimum pt for the second lepton in pt
 0.0   = ptl3min ! minimum pt for the third lepton in pt
 0.0   = ptl4min ! minimum pt for the fourth lepton in pt
 -1.0  = ptl1max ! maximum pt for the leading lepton in pt 
 -1.0  = ptl2max ! maximum pt for the second lepton in pt
 -1.0  = ptl3max ! maximum pt for the third lepton in pt
 -1.0  = ptl4max ! maximum pt for the fourth lepton in pt
#*********************************************************************
# Control the Ht(k)=Sum of k leading jets                            *
#*********************************************************************
 0.0   = htjmin ! minimum jet HT=Sum(jet pt)
 -1.0  = htjmax ! maximum jet HT=Sum(jet pt)
 0.0   = ihtmin  !inclusive Ht for all partons (including b)
 -1.0  = ihtmax  !inclusive Ht for all partons (including b)
 0.0   = ht2min ! minimum Ht for the two leading jets
 0.0   = ht3min ! minimum Ht for the three leading jets
 0.0   = ht4min ! minimum Ht for the four leading jets
 -1.0  = ht2max ! maximum Ht for the two leading jets
 -1.0  = ht3max ! maximum Ht for the three leading jets
 -1.0  = ht4max ! maximum Ht for the four leading jets
#***********************************************************************
# Photon-isolation cuts, according to hep-ph/9801442                   *
# When ptgmin=0, all the other parameters are ignored                  *
# When ptgmin>0, pta and draj are not going to be used                 *
#***********************************************************************
 0.0 = ptgmin ! Min photon transverse momentum
 0.4 = R0gamma ! Radius of isolation code
 1.0 = xn ! n parameter of eq.(3.4) in hep-ph/9801442
 1.0 = epsgamma ! epsilon_gamma parameter of eq.(3.4) in hep-ph/9801442
 True = isoEM ! isolate photons from EM energy (photons and leptons)
#*********************************************************************
# WBF cuts                                                           *
#*********************************************************************
 0.0   = xetamin ! minimum rapidity for two jets in the WBF case  
 0.0   = deltaeta ! minimum rapidity for two jets in the WBF case 
#*********************************************************************
# KT DURHAM CUT                                                      *
#*********************************************************************
 -1.0    =  ktdurham        
 0.4  =  dparameter 
#*********************************************************************
# maximal pdg code for quark to be considered as a light jet         *
# (otherwise b cuts are applied)                                     *
#*********************************************************************
 4 = maxjetflavor    ! Maximum jet pdg code
#*********************************************************************
# Jet measure cuts                                                   *
#*********************************************************************
 0.0   = xqcut   ! minimum kt jet measure between partons
#*********************************************************************
#
#*********************************************************************
# Store info for systematics studies                                 *
# WARNING: If use_syst is T, matched Pythia output is                *
#          meaningful ONLY if plotted taking matchscale              *
#          reweighting into account!                                 *
#*********************************************************************
#    False  = use_syst      ! Enable systematics studies # Commented out by MadMiner
#
#**************************************
# Parameter of the systematics study
#  will be used by SysCalc (if installed)
#**************************************                                  
#
0.5 1 2 = sys_scalefact  # factorization/renormalization scale factor
None = sys_alpsfact  # \alpha_s emission scale factors
30 50 = sys_matchscale # variation of merging scale
# PDF sets and number of members (0 or none for all members).
NNPDF23_lo_as_0130_qed = sys_pdf # matching scales
# MSTW2008nlo68cl.LHgrid 1  = sys_pdf


#*********************************************************************
# MadMiner systematics setup                                         *
#*********************************************************************
True = use_syst
systematics = systematics_program
['--pdf=90900'] = systematics_arguments
]]>
</MGRunCard>
<slha>
######################################################################
## PARAM_CARD AUTOMATICALY GENERATED BY MG5 FOLLOWING UFO MODEL   ####
######################################################################
##                                                                  ##
##  Width set on Auto will be computed following the information    ##
##        present in the decay.py files of the model.               ##
##        See  arXiv:1402.1178 for more details.                    ##
##                                                                  ##
######################################################################

###################################
## INFORMATION FOR CKMBLOCK
###################################
Block ckmblock 
    1 2.277360e-01 # cabi 

###################################
## INFORMATION FOR MASS
###################################
Block mass 
    5 4.700000e+00 # MB 
    6 1.720000e+02 # MT 
   15 1.777000e+00 # MTA 
   23 9.118760e+01 # MZ 
   25 1.250000e+02 # MH 
## Dependent parameters, given by model restrictions.
## Those values should be edited following the 
## analytical expression. MG5 ignores those values 
## but they are important for interfacing the output of MG5
## to external program such as Pythia.
  1 0.000000 # d : 0.0 
  2 0.000000 # u : 0.0 
  3 0.000000 # s : 0.0 
  4 0.000000 # c : 0.0 
  11 0.000000 # e- : 0.0 
  12 0.000000 # ve : 0.0 
  13 0.000000 # mu- : 0.0 
  14 0.000000 # vm : 0.0 
  16 0.000000 # vt : 0.0 
  21 0.000000 # g : 0.0 
  22 0.000000 # a : 0.0 
  24 79.824360 # w+ : cmath.sqrt(MZ__exp__2/2. + cmath.sqrt(MZ__exp__4/4. - (aEW*cmath.pi*MZ__exp__2)/(Gf*sqrt__2))) 

###################################
## INFORMATION FOR OBLIQUE
###################################
Block oblique 
    1    0.0    # MadMiner
    2    0.0    # MadMiner

###################################
## INFORMATION FOR SMINPUTS
###################################
Block sminputs 
    1 1.279000e+02 # aEWM1 
    2 1.166370e-05 # Gf 
    3 1.184000e-01 # aS 

###################################
## INFORMATION FOR YUKAWA
###################################
Block yukawa 
    5 4.700000e+00 # ymb 
    6 1.720000e+02 # ymt 
   15 1.777000e+00 # ymtau 

###################################
## INFORMATION FOR DECAY
###################################
DECAY   6 1.508336e+00 # WT 
DECAY  23 2.495200e+00 # WZ 
DECAY  24 2.085000e+00 # WW 
DECAY  25 4.070000e-03 # WH 
## Dependent parameters, given by model restrictions.
## Those values should be edited following the 
## analytical expression. MG5 ignores those values 
## but they are important for interfacing the output of MG5
## to external program such as Pythia.
DECAY  1 0.000000 # d : 0.0 
DECAY  2 0.000000 # u : 0.0 
DECAY  3 0.000000 # s : 0.0 
DECAY  4 0.000000 # c : 0.0 
DECAY  5 0.000000 # b : 0.0 
DECAY  11 0.000000 # e- : 0.0 
DECAY  12 0.000000 # ve : 0.0 
DECAY  13 0.000000 # mu- : 0.0 
DECAY  14 0.000000 # vm : 0.0 
DECAY  15 0.000000 # ta- : 0.0 
DECAY  16 0.000000 # vt : 0.0 
DECAY  21 0.000000 # g : 0.0 
DECAY  22 0.000000 # a : 0.0
</slha>
<initrwgt>
<weightgroup name='mg_reweighting' weight_name_strategy='includeIdInWeightName'>
<weight id='morphing_basis_vector_1'>set param_card oblique 1 -0.06391685 # orig: 0.0
set param_card oblique 2 -0.08653588 # orig: 0.0
</weight>
<weight id='morphing_basis_vector_2'>set param_card oblique 1 0.0342439 # orig: 0.0
set param_card oblique 2 -0.09831893 # orig: 0.0
</weight>
<weight id='morphing_basis_vector_3'>set param_card oblique 1 -0.08145691 # orig: 0.0
set param_card oblique 2 0.09700122 # orig: 0.0
</weight>
<weight id='morphing_basis_vector_4'>set param_card oblique 1 0.09132942 # orig: 0.0
set param_card oblique 2 -0.005442744 # orig: 0.0
</weight>
<weight id='morphing_basis_vector_5'>set param_card oblique 1 0.08535809 # orig: 0.0
set param_card oblique 2 0.08156918 # orig: 0.0
</weight>
</weightgroup>
</initrwgt>
<MGGenerationInfo>
#  Number of Events        :       1000
#  Integrated weight (pb)  :       7.3133e-06
</MGGenerationInfo>
</header>
<init>
2212 2212 6.500000e+03 6.500000e+03 0 0 90900 90900 -3 1
7.313300e-06 3.064981e-08 7.313300e-09 1
<generator name='MadGraph5_aMC@NLO' version='2.6.4'>please cite 1405.0301 </generator>
</init>
<event>
 4      1 +7.3133000e-09 2.84560600e+03 7.81860800e-03 7.79240300e-02
        2 -1    0    0  501    0 +0.0000000000e+00 +0.0000000000e+00 +1.9010934483e+03 1.9010934483e+03 0.0000000000e+00 0.0000e+00 -1.0000e+00
       -2 -1    0    0    0  501 -0.0000000000e+00 -0.0000000000e+00 -1.0648439482e+03 1.0648439482e+03 0.0000000000e+00 0.0000e+00 1.0000e+00
      -13  1    1    2    0    0 +1.2337825797e+02 -1.4147016240e+03 +5.0997011988e+02 1.5088646072e+03 0.0000000000e+00 0.0000e+00 1.0000e+00
       13  1    1    2    0    0 -1.2337825797e+02 +1.4147016240e+03 +3.2627938027e+02 1.4570727894e+03 0.0000000000e+00 0.0000e+00 -1.0000e+00
<mgrwt>
<rscale>  0 0.28456056E+04</rscale>
<asrwt>0</asrwt>
<pdfrwt beam="1">  1        2 0.29247592E+00 0.28456056E+04</pdfrwt>
<pdfrwt beam="2">  1       -2 0.16382215E+00 0.28456056E+04</pdfrwt>
<totfact> 0.18445158E+00</totfact>
</mgrwt>
<rwgt>
<wgt id='morphing_basis_vector_1'> +6.8833286e-05 </wgt>
<wgt id='morphing_basis_vector_2'> +5.3205501e-05 </wgt>
<wgt id='morphing_basis_vector_3'> +7.6271857e-05 </wgt>
<wgt id='morphing_basis_vector_4'> +4.4793717e-05 </wgt>
<wgt id='morphing_basis_vector_5'> +8.0838314e-05 </wgt>
</rwgt>
</event>
<event>
 4      1 +7.3133000e-09 2.90525700e+03 7.81860800e-03 7.77657000e-02
        2 -1    0    0  501    0 +0.0000000000e+00 +0.0000000000e+00 +2.7431096625e+03 2.7431096625e+03 0.0000000000e+00 0.0000e+00 -1.0000e+00
       -2 -1    0    0    0  501 -0.0000000000e+00 -0.0000000000e+00 -7.6924725493e+02 7.6924725493e+02 0.0000000000e+00 0.0000e+00 1.0000e+00
      -13  1    1    2    0    0 +1.0212962129e+03 -9.5476313566e+02 +5.1017691358e+02 1.4882537024e+03 0.0000000000e+00 0.0000e+00 1.0000e+00
       13  1    1    2    0    0 -1.0212962129e+03 +9.5476313566e+02 +1.4636854940e+03 2.0241032150e+03 0.0000000000e+00 0.0000e+00 -1.0000e+00
<mgrwt>
<rscale>  0 0.29052570E+04</rscale>
<asrwt>0</asrwt>
<pdfrwt beam="1">  1        2 0.42201687E+00 0.29052570E+04</pdfrwt>
<pdfrwt beam="2">  1       -2 0.11834573E+00 0.29052570E+04</pdfrwt>
<totfact> 0.14528768E+00</totfact>
</mgrwt>
<rwgt>
<wgt id='morphing_basis_vector_1'> +7.2379937e-05 </wgt>
<wgt id='morphing_basis_vector_2'> +5.0866662e-05 </wgt>
<wgt id='morphing_basis_vector_3'> +7.9214496e-05 </wgt>
<wgt id='morphing_basis_vector_4'> +5.3583837e-05 </wgt>
<wgt id='morphing_basis_vector_5'> +8.8302319e-05 </wgt>
</rwgt>
</event>
<event>
 4      1 +7.3133000e-09 3.02699700e+03 7.81860800e-03 7.74542600e-02
        2 -1    0    0  501    0 +0.0000000000e+00 +0.0000000000e+00 +4.0281591533e+03 4.0281591533e+03 0.0000000000e+00 0.0000e+00 1.0000e+00
       -2 -1    0    0    0  501 -0.0000000000e+00 -0.0000000000e+00 -5.6866628489e+02 5.6866628489e+02 0.0000000000e+00 0.0000e+00 -1.0000e+00
      -13  1    1    2    0    0 +1.3571201312e+03 +5.4979604690e+02 +1.1482410175e+03 1.8607816041e+03 0.0000000000e+00 0.0000e+00 -1.0000e+00
       13  1    1    2    0    0 -1.3571201312e+03 -5.4979604690e+02 +2.3112518510e+03 2.7360438342e+03 0.0000000000e+00 0.0000e+00 1.0000e+00
<mgrwt>
<rscale>  0 0.30269974E+04</rscale>
<asrwt>0</asrwt>
<pdfrwt beam="1">  1        2 0.61971677E+00 0.30269974E+04</pdfrwt>
<pdfrwt beam="2">  1       -2 0.87487124E-01 0.30269974E+04</pdfrwt>
<totfact> 0.35681329E-01</totfact>
</mgrwt>
<rwgt>
<wgt id='morphing_basis_vector_1'> +8.5252518e-05 </wgt>
<wgt id='morphing_basis_vector_2'> +6.0157870e-05 </wgt>
<wgt id='morphing_basis_vector_3'> +9.3481076e-05 </wgt>
<wgt id='morphing_basis_vector_4'> +6.3056716e-05 </wgt>
<wgt id='morphing_basis_vector_5'> +1.0419936e-04 </wgt>
</rwgt>
</event>
<event>
 4      1 +7.3133000e-09 2.72325000e+03 7.81860800e-03 7.82614600e-02
        2 -1    0    0  501    0 +0.0000000000e+00 +0.0000000000e+00 +2.4000032445e+03 2.4000032445e+03 0.0000000000e+00 0.0000e+00 1.0000e+00
       -2 -1    0    0    0  501 -0.0000000000e+00 -0.0000000000e+00 -7.7250824355e+02 7.7250824355e+02 0.0000000000e+00 0.0000e+00 -1.0000e+00
      -13  1    1    2    0    0 +7.7544918864e+02 -9.5832485127e+01 -4.8534953662e+02 9.1982035315e+02 0.0000000000e+00 0.0000e+00 -1.0000e+00
       13  1    1    2    0    0 -7.7544918864e+02 +9.5832485127e+01 +2.1128445375e+03 2.2526911349e+03 0.0000000000e+00 0.0000e+00 1.0000e+00
<mgrwt>
<rscale>  0 0.27232497E+04</rscale>
<asrwt>0</asrwt>
<pdfrwt beam="1">  1        2 0.36923126E+00 0.27232497E+04</pdfrwt>
<pdfrwt beam="2">  1       -2 0.11884742E+00 0.27232497E+04</pdfrwt>
<totfact> 0.23519855E+00</totfact>
</mgrwt>
<rwgt>
<wgt id='morphing_basis_vector_1'> +5.5334019e-05 </wgt>
<wgt id='morphing_basis_vector_2'> +3.7275774e-05 </wgt>
<wgt id='morphing_basis_vector_3'> +6.0088414e-05 </wgt>
<wgt id='morphing_basis_vector_4'> +4.2690990e-05 </wgt>
<wgt id='morphing_basis_vector_5'> +6.8107872e-05 </wgt>
</rwgt>
</event>
<event>
 4      1 +7.3133000e-09 3.12429000e+03 7.81860800e-03 7.72160300e-02
        2 -1    0    0  501    0 +0.0000000000e+00 +0.0000000000e+00 +1.4461676331e+03 1.4461676331e+03 0.0000000000e+00 0.0000e+00 -1.0000e+00
       -2 -1    0    0    0  501 -0.0000000000e+00 -0.0000000000e+00 -1.6874234657e+03 1.6874234657e+03 0.0000000000e+00 0.0000e+00 1.0000e+00
      -13  1    1    2    0    0 -8.0720530680e+02 -1.2712179439e+03 -5.3746318674e+02 1.5988877838e+03 0.0000000000e+00 0.0000e+00 1.0000e+00
       13  1    1    2    0    0 +8.0720530680e+02 +1.2712179439e+03 +2.9620735422e+02 1.5347033149e+03 0.0000000000e+00 0.0000e+00 -1.0000e+00
<mgrwt>
<rscale>  0 0.31242901E+04</rscale>
<asrwt>0</asrwt>
<pdfrwt beam="1">  1        2 0.22248733E+00 0.31242901E+04</pdfrwt>
<pdfrwt beam="2">  1       -2 0.25960361E+00 0.31242901E+04</pdfrwt>
<totfact> 0.65333836E-01</totfact>
</mgrwt>
<rwgt>
<wgt id='morphing_basis_vector_1'> +9.6577786e-05 </wgt>
<wgt id='morphing_basis_vector_2'> +6.8035062e-05 </wgt>
<wgt id='morphing_basis_vector_3'> +1.0597900e-04 </wgt>
<wgt id='morphing_basis_vector_4'> +7.1782287e-05 </wgt>
<wgt id='morphing_basis_vector_5'> +1.1839347e-04 </wgt>
</rwgt>
</event>
<event>
 4      1 +7.3133000e-09 2.89987000e+03 7.81860800e-03 7.77798400e-02
        2 -1    0    0  501    0 +0.0000000000e+00 +0.0000000000e+00 +2.4399149507e+03 2.4399149507e+03 0.0000000000e+00 0.0000e+00 1.0000e+00
       -2 -1    0    0    0  501 -0.0000000000e+00 -0.0000000000e+00 -8.6163335236e+02 8.6163335236e+02 0.0000000000e+00 0.0000e+00 -1.0000e+00
      -13  1    1    2    0    0 -5.7913351966e+02 -1.0859285047e+02 -7.1917741207e+02 9.2973339770e+02 0.0000000000e+00 0.0000e+00 -1.0000e+00
       13  1    1    2    0    0 +5.7913351966e+02 +1.0859285047e+02 +2.2974590104e+03 2.3718149053e+03 0.0000000000e+00 0.0000e+00 1.0000e+00
<mgrwt>
<rscale>  0 0.28998704E+04</rscale>
<asrwt>0</asrwt>
<pdfrwt beam="1">  1        2 0.37537153E+00 0.28998704E+04</pdfrwt>
<pdfrwt beam="2">  1       -2 0.13255898E+00 0.28998704E+04</pdfrwt>
<totfact> 0.16454332E+00</totfact>
</mgrwt>
<rwgt>
<wgt id='morphing_basis_vector_1'> +7.0939650e-05 </wgt>
<wgt id='morphing_basis_vector_2'> +4.7810757e-05 </wgt>
<wgt id='morphing_basis_vector_3'> +7.7209959e-05 </wgt>
<wgt id='morphing_basis_vector_4'> +5.5074104e-05 </wgt>
<wgt id='morphing_basis_vector_5'> +8.7798116e-05 </wgt>
</rwgt>
</event>
<event>
 4      1 +7.3133000e-09 2.82162200e+03 7.81860800e-03 7.79888000e-02
        2 -1    0    0  501    0 +0.0000000000e+00 +0.0000000000e+00 +3.4822219788e+03 3.4822219788e+03 0.0000000000e+00 0.0000e+00 1.0000e+00
       -2 -1    0    0    0  501 -0.0000000000e+00 -0.0000000000e+00 -5.7158560896e+02 5.7158560896e+02 0.0000000000e+00 0.0000e+00 -1.0000e+00
      -13  1    1    2    0    0 -1.1013807059e+03 +5.7960666070e+02 +2.4098330771e+03 2.7122460803e+03 0.0000000000e+00 0.0000e+00 1.0000e+00
       13  1    1    2    0    0 +1.1013807059e+03 -5.7960666070e+02 +5.0080329273e+02 1.3415615075e+03 0.0000000000e+00 0.0000e+00 -1.0000e+00
<mgrwt>
<rscale>  0 0.28216222E+04</rscale>
<asrwt>0</asrwt>
<pdfrwt beam="1">  1        2 0.53572644E+00 0.28216222E+04</pdfrwt>
<pdfrwt beam="2">  1       -2 0.87936250E-01 0.28216222E+04</pdfrwt>
<totfact> 0.96705673E-01</totfact>
</mgrwt>
<rwgt>
<wgt id='morphing_basis_vector_1'> +7.4487986e-05 </wgt>
<wgt id='morphing_basis_vector_2'> +7.4792114e-05 </wgt>
<wgt id='morphing_basis_vector_3'> +8.6040686e-05 </wgt>
<wgt id='morphing_basis_vector_4'> +2.6869437e-05 </wgt>
<wgt id='morphing_basis_vector_5'> +7.6777428e-05 </wgt>
</rwgt>
</event>
<event>
 4      1 +7.3133000e-09 3.09333600e+03 7.81860800e-03 7.72908400e-02
        2 -1    0    0  501    0 +0.0000000000e+00 +0.0000000000e+00 +2.4266412957e+03 2.4266412957e+03 0.0000000000e+00 0.0000e+00 -1.0000e+00
       -2 -1    0    0    0  501 -0.0000000000e+00 -0.0000000000e+00 -9.8579985296e+02 9.8579985296e+02 0.0000000000e+00 0.0000e+00 1.0000e+00
      -13  1    1    2    0    0 +2.9661704199e+02 -8.6906452684e+02 -6.5252572350e+02 1.1265188153e+03 0.0000000000e+00 0.0000e+00 1.0000e+00
       13  1    1    2    0    0 -2.9661704199e+02 +8.6906452684e+02 +2.0933671662e+03 2.2859223333e+03 0.0000000000e+00 0.0000e+00 -1.0000e+00
<mgrwt>
<rscale>  0 0.30933365E+04</rscale>
<asrwt>0</asrwt>
<pdfrwt beam="1">  1        2 0.37332943E+00 0.30933365E+04</pdfrwt>
<pdfrwt beam="2">  1       -2 0.15166152E+00 0.30933365E+04</pdfrwt>
<totfact> 0.11326551E+00</totfact>
</mgrwt>
<rwgt>
<wgt id='morphing_basis_vector_1'> +9.1671006e-05 </wgt>
<wgt id='morphing_basis_vector_2'> +6.1951840e-05 </wgt>
<wgt id='morphing_basis_vector_3'> +1.0000905e-04 </wgt>
<wgt id='morphing_basis_vector_4'> +7.1392978e-05 </wgt>
<wgt id='morphing_basis_vector_5'> +1.1393414e-04 </wgt>
</rwgt>
</event>
<event>
 4      1 +7.3133000e-09 3.15393300e+03 7.81860800e-03 7.71452300e-02
        2 -1    0    0  501    0 +0.0000000000e+00 +0.0000000000e+00 +2.1299258712e+03 2.1299258712e+03 0.0000000000e+00 0.0000e+00 -1.0000e+00
       -2 -1    0    0    0  501 -0.0000000000e+00 -0.0000000000e+00 -1.1675631799e+03 1.1675631799e+03 0.0000000000e+00 0.0000e+00 1.0000e+00
      -13  1    1    2    0    0 +3.6427096422e+02 -1.2212540471e+03 -4.8989378405e+02 1.3653390431e+03 0.0000000000e+00 0.0000e+00 1.0000e+00
       13  1    1    2    0    0 -3.6427096422e+02 +1.2212540471e+03 +1.4522564754e+03 1.9321500080e+03 0.0000000000e+00 0.0000e+00 -1.0000e+00
<mgrwt>
<rscale>  0 0.31539328E+04</rscale>
<asrwt>0</asrwt>
<pdfrwt beam="1">  1        2 0.32768090E+00 0.31539328E+04</pdfrwt>
<pdfrwt beam="2">  1       -2 0.17962511E+00 0.31539328E+04</pdfrwt>
<totfact> 0.10068993E+00</totfact>
</mgrwt>
<rwgt>
<wgt id='morphing_basis_vector_1'> +9.9224355e-05 </wgt>
<wgt id='morphing_basis_vector_2'> +6.7583277e-05 </wgt>
<wgt id='morphing_basis_vector_3'> +1.0842130e-04 </wgt>
<wgt id='morphing_basis_vector_4'> +7.6739965e-05 </wgt>
<wgt id='morphing_basis_vector_5'> +1.2316750e-04 </wgt>
</rwgt>
</event>
<event>
 4      1 +7.3133000e-09 2.92916000e+03 7.81860800e-03 7.77033400e-02
        2 -1    0    0  501    0 +0.0000000000e+00 +0.0000000000e+00 +1.1780047229e+03 1.1780047229e+03 0.0000000000e+00 0.0000e+00 -1.0000e+00
       -2 -1    0    0    0  501 -0.0000000000e+00 -0.0000000000e+00 -1.8208713022e+03 1.8208713022e+03 0.0000000000e+00 0.0000e+00 1.0000e+00
      -13  1    1    2    0    0 -1.7429722046e+02 -9.4202062865e+02 -1.4555957782e+03 1.7425674895e+03 0.0000000000e+00 0.0000e+00 1.0000e+00
       13  1    1    2    0    0 +1.7429722046e+02 +9.4202062865e+02 +8.1272919895e+02 1.2563085356e+03 0.0000000000e+00 0.0000e+00 -1.0000e+00
<mgrwt>
<rscale>  0 0.29291603E+04</rscale>
<asrwt>0</asrwt>
<pdfrwt beam="1">  1        2 0.18123150E+00 0.29291603E+04</pdfrwt>
<pdfrwt beam="2">  1       -2 0.28013405E+00 0.29291603E+04</pdfrwt>
<totfact> 0.68429569E-01</totfact>
</mgrwt>
<rwgt>
<wgt id='morphing_basis_vector_1'> +7.3872548e-05 </wgt>
<wgt id='morphing_basis_vector_2'> +4.9916201e-05 </wgt>
<wgt id='morphing_basis_vector_3'> +8.0455260e-05 </wgt>
<wgt id='morphing_basis_vector_4'> +5.7246883e-05 </wgt>
<wgt id='morphing_basis_vector_5'> +9.1425118e-05 </wgt>
</rwgt>
</event>
<event>
 4      1 +7.3133000e-09 2.71015300e+03 7.81860800e-03 7.82986400e-02
        2 -1    0    0  501    0 +0.0000000000e+00 +0.0000000000e+00 +1.5287416402e+03 1.5287416402e+03 0.0000000000e+00 0.0000e+00 -1.0000e+00
       -2 -1    0    0    0  501 -0.0000000000e+00 -0.0000000000e+00 -1.2011395080e+03 1.2011395080e+03 0.0000000000e+00 0.0000e+00 1.0000e+00
      -13  1    1    2    0    0 -1.0495095666e+03 +2.6567508678e+02 -6.5710288091e+02 1.2664271705e+03 0.0000000000e+00 0.0000e+00 1.0000e+00
       13  1    1    2    0    0 +1.0495095666e+03 -2.6567508678e+02 +9.8470501309e+02 1.4634539777e+03 0.0000000000e+00 0.0000e+00 -1.0000e+00
<mgrwt>
<rscale>  0 0.27101527E+04</rscale>
<asrwt>0</asrwt>
<pdfrwt beam="1">  1        2 0.23519102E+00 0.27101527E+04</pdfrwt>
<pdfrwt beam="2">  1       -2 0.18479069E+00 0.27101527E+04</pdfrwt>
<totfact> 0.20740630E+00</totfact>
</mgrwt>
<rwgt>
<wgt id='morphing_basis_vector_1'> +5.4402889e-05 </wgt>
<wgt id='morphing_basis_vector_2'> +3.6903467e-05 </wgt>
<wgt id='morphing_basis_vector_3'> +5.9118066e-05 </wgt>
<wgt id='morphing_basis_vector_4'> +4.1631441e-05 </wgt>
<wgt id='morphing_basis_vector_5'> +6.6773906e-05 </wgt>
</rwgt>
</event>
<event>
 4      1 +7.3133000e-09 2.94061200e+03 7.81860800e-03 7.76736700e-02
        2 -1    0    0  501    0 +0.0000000000e+00 +0.0000000000e+00 +3.2467656868e+03 3.2467656868e+03 0.0000000000e+00 0.0000e+00 -1.0000e+00
       -2 -1    0    0    0  501 -0.0000000000e+00 -0.0000000000e+00 -6.6583176480e+02 6.6583176480e+02 0.0000000000e+00 0.0000e+00 1.0000e+00
      -13  1    1    2    0    0 -1.3038913185e+03 +1.6459701040e+02 +4.1334536703e+02 1.3777079294e+03 0.0000000000e+00 0.0000e+00 1.0000e+00
       13  1    1    2    0    0 +1.3038913185e+03 -1.6459701040e+02 +2.1675885550e+03 2.5348895222e+03 0.0000000000e+00 0.0000e+00 -1.0000e+00
<mgrwt>
<rscale>  0 0.29406120E+04</rscale>
<asrwt>0</asrwt>
<pdfrwt beam="1">  1        2 0.49950240E+00 0.29406120E+04</pdfrwt>
<pdfrwt beam="2">  1       -2 0.10243566E+00 0.29406120E+04</pdfrwt>
<totfact> 0.97732737E-01</totfact>
</mgrwt>
<rwgt>
<wgt id='morphing_basis_vector_1'> +7.5401104e-05 </wgt>
<wgt id='morphing_basis_vector_2'> +5.1810715e-05 </wgt>
<wgt id='morphing_basis_vector_3'> +8.2309669e-05 </wgt>
<wgt id='morphing_basis_vector_4'> +5.7370474e-05 </wgt>
<wgt id='morphing_basis_vector_5'> +9.2812231e-05 </wgt>
</rwgt>
</event>
<event>
 4      1 +7.3133000e-09 3.02558300e+03 7.81860800e-03 7.74577900e-02
        2 -1    0    0  501    0 +0.0000000000e+00 +0.0000000000e+00 +2.8278122813e+03 2.8278122813e+03 0.0000000000e+00 0.0000e+00 1.0000e+00
       -2 -1    0    0    0  501 -0.0000000000e+00 -0.0000000000e+00 -8.0929636522e+02 8.0929636522e+02 0.0000000000e+00 0.0000e+00 -1.0000e+00
      -13  1    1    2    0    0 +1.0978182880e+03 +1.6332689197e+02 -2.2644567203e+02 1.1327657788e+03 0.0000000000e+00 0.0000e+00 -1.0000e+00
       13  1    1    2    0    0 -1.0978182880e+03 -1.6332689197e+02 +2.2449615881e+03 2.5043428678e+03 0.0000000000e+00 0.0000e+00 1.0000e+00
<mgrwt>
<rscale>  0 0.30255831E+04</rscale>
<asrwt>0</asrwt>
<pdfrwt beam="1">  1        2 0.43504804E+00 0.30255831E+04</pdfrwt>
<pdfrwt beam="2">  1       -2 0.12450713E+00 0.30255831E+04</pdfrwt>
<totfact> 0.11149163E+00</totfact>
</mgrwt>
<rwgt>
<wgt id='morphing_basis_vector_1'> +8.4048550e-05 </wgt>
<wgt id='morphing_basis_vector_2'> +5.6965111e-05 </wgt>
<wgt id='morphing_basis_vector_3'> +9.1667499e-05 </wgt>
<wgt id='morphing_basis_vector_4'> +6.5117468e-05 </wgt>
<wgt id='morphing_basis_vector_5'> +1.0418228e-04 </wgt>
</rwgt>
</event>
<event>
 4      1 +7.3133000e-09 2.81598700e+03 7.81860800e-03 7.80041100e-02
        2 -1    0    0  501    0 +0.0000000000e+00 +0.0000000000e+00 +2.4315774401e+03 2.4315774401e+03 0.0000000000e+00 0.0000e+00 -1.0000e+00
       -2 -1    0    0    0  501 -0.0000000000e+00 -0.0000000000e+00 -8.1529212731e+02 8.1529212731e+02 0.0000000000e+00 0.0000e+00 1.0000e+00
      -13  1    1    2    0    0 -8.0224125506e+02 -8.1627029529e+02 -1.3743880743e+02 1.1527261826e+03 0.0000000000e+00 0.0000e+00 1.0000e+00
       13  1    1    2    0    0 +8.0224125506e+02 +8.1627029529e+02 +1.7537241203e+03 2.0941433848e+03 0.0000000000e+00 0.0000e+00 -1.0000e+00
<mgrwt>
<rscale>  0 0.28159872E+04</rscale>
<asrwt>0</asrwt>
<pdfrwt beam="1">  1        2 0.37408883E+00 0.28159872E+04</pdfrwt>
<pdfrwt beam="2">  1       -2 0.12542956E+00 0.28159872E+04</pdfrwt>
<totfact> 0.19416609E+00</totfact>
</mgrwt>
<rwgt>
<wgt id='morphing_basis_vector_1'> +6.3327452e-05 </wgt>
<wgt id='morphing_basis_vector_2'> +4.3042828e-05 </wgt>
<wgt id='morphing_basis_vector_3'> +6.8930453e-05 </wgt>
<wgt id='morphing_basis_vector_4'> +4.8560721e-05 </wgt>
<wgt id='morphing_basis_vector_5'> +7.7952873e-05 </wgt>
</rwgt>
</event>
<event>
 4      1 +7.3133000e-09 2.83352400e+03 7.81860800e-03 7.79565700e-02
        2 -1    0    0  501    0 +0.0000000000e+00 +0.0000000000e+00 +1.1228825690e+03 1.1228825690e+03 0.0000000000e+00 0.0000e+00 -1.0000e+00
       -2 -1    0    0    0  501 -0.0000000000e+00 -0.0000000000e+00 -1.7875553864e+03 1.7875553864e+03 0.0000000000e+00 0.0000e+00 1.0000e+00
      -13  1    1    2    0    0 +4.1915450905e+02 +8.1377465212e+02 -1.4430280170e+03 1.7088737650e+03 0.0000000000e+00 0.0000e+00 1.0000e+00
       13  1    1    2    0    0 -4.1915450905e+02 -8.1377465212e+02 +7.7835519962e+02 1.2015641904e+03 0.0000000000e+00 0.0000e+00 -1.0000e+00
<mgrwt>
<rscale>  0 0.28335242E+04</rscale>
<asrwt>0</asrwt>
<pdfrwt beam="1">  1        2 0.17275116E+00 0.28335242E+04</pdfrwt>
<pdfrwt beam="2">  1       -2 0.27500852E+00 0.28335242E+04</pdfrwt>
<totfact> 0.80587978E-01</totfact>
</mgrwt>
<rwgt>
<wgt id='morphing_basis_vector_1'> +6.4768542e-05 </wgt>
<wgt id='morphing_basis_vector_2'> +4.3723406e-05 </wgt>
<wgt id='morphing_basis_vector_3'> +7.0453026e-05 </wgt>
<wgt id='morphing_basis_vector_4'> +5.0073107e-05 </wgt>
<wgt id='morphing_basis_vector_5'> +7.9955654e-05 </wgt>
</rwgt>
</event>
<event>
 4      1 +7.3133000e-09 2.75286700e+03 7.81860800e-03 7.81781500e-02
        2 -1    0    0  501    0 +0.0000000000e+00 +0.0000000000e+00 +3.4883294869e+03 3.4883294869e+03 0.0000000000e+00 0.0000e+00 -1.0000e+00
       -2 -1    0    0    0  501 -0.0000000000e+00 -0.0000000000e+00 -5.4311658725e+02 5.4311658725e+02 0.0000000000e+00 0.0000e+00 1.0000e+00
      -13  1    1    2    0    0 -1.2580612828e+03 +2.3135515414e+02 +2.2169266584e+03 2.5594935451e+03 0.0000000000e+00 0.0000e+00 1.0000e+00
       13  1    1    2    0    0 +1.2580612828e+03 -2.3135515414e+02 +7.2828624121e+02 1.4719525290e+03 0.0000000000e+00 0.0000e+00 -1.0000e+00
<mgrwt>
<rscale>  0 0.27528673E+04</rscale>
<asrwt>0</asrwt>
<pdfrwt beam="1">  1        2 0.53666606E+00 0.27528673E+04</pdfrwt>
<pdfrwt beam="2">  1       -2 0.83556400E-01 0.27528673E+04</pdfrwt>
<totfact> 0.10839147E+00</totfact>
</mgrwt>
<rwgt>
<wgt id='morphing_basis_vector_1'> +6.5030892e-05 </wgt>
<wgt id='morphing_basis_vector_2'> +6.0366741e-05 </wgt>
<wgt id='morphing_basis_vector_3'> +7.4012265e-05 </wgt>
<wgt id='morphing_basis_vector_4'> +2.9549308e-05 </wgt>
<wgt id='morphing_basis_vector_5'> +6.9922754e-05 </wgt>
</rwgt>
</event>
<event>
 4      1 +7.3133000e-09 2.88798000e+03 7.81860800e-03 7.78111600e-02
        2 -1    0    0  501    0 +0.0000000000e+00 +0.0000000000e+00 +2.2922506373e+03 2.2922506373e+03 0.0000000000e+00 0.0000e+00 -1.0000e+00
       -2 -1    0    0    0  501 -0.0000000000e+00 -0.0000000000e+00 -9.0963316067e+02 9.0963316067e+02 0.0000000000e+00 0.0000e+00 1.0000e+00
      -13  1    1    2    0    0 -6.1371424744e+02 -9.3238145284e+02 -3.2429708943e+02 1.1623893295e+03 0.0000000000e+00 0.0000e+00 1.0000e+00
       13  1    1    2    0    0 +6.1371424744e+02 +9.3238145284e+02 +1.7069145660e+03 2.0394944684e+03 0.0000000000e+00 0.0000e+00 -1.0000e+00
<mgrwt>
<rscale>  0 0.28879800E+04</rscale>
<asrwt>0</asrwt>
<pdfrwt beam="1">  1        2 0.35265394E+00 0.28879800E+04</pdfrwt>
<pdfrwt beam="2">  1       -2 0.13994356E+00 0.28879800E+04</pdfrwt>
<totfact> 0.17320955E+00</totfact>
</mgrwt>
<rwgt>
<wgt id='morphing_basis_vector_1'> +6.9930240e-05 </wgt>
<wgt id='morphing_basis_vector_2'> +4.7434451e-05 </wgt>
<wgt id='morphing_basis_vector_3'> +7.6163836e-05 </wgt>
<wgt id='morphing_basis_vector_4'> +5.3886229e-05 </wgt>
<wgt id='morphing_basis_vector_5'> +8.6330321e-05 </wgt>
</rwgt>
</event>
<event>
 4      1 +7.3133000e-09 2.87659900e+03 7.81860800e-03 7.78412800e-02
        2 -1    0    0  501    0 +0.0000000000e+00 +0.0000000000e+00 +2.1294562039e+03 2.1294562039e+03 0.0000000000e+00 0.0000e+00 1.0000e+00
       -2 -1    0    0    0  501 -0.0000000000e+00 -0.0000000000e+00 -9.7147102058e+02 9.7147102058e+02 0.0000000000e+00 0.0000e+00 -1.0000e+00
      -13  1    1    2    0    0 -1.2756710305e+03 +6.5326727731e+02 +7.0929172785e+02 1.5991214678e+03 0.0000000000e+00 0.0000e+00 1.0000e+00
       13  1    1    2    0    0 +1.2756710305e+03 -6.5326727731e+02 +4.4869345550e+02 1.5018057567e+03 0.0000000000e+00 0.0000e+00 -1.0000e+00
<mgrwt>
<rscale>  0 0.28765987E+04</rscale>
<asrwt>0</asrwt>
<pdfrwt beam="1">  1        2 0.32760865E+00 0.28765987E+04</pdfrwt>
<pdfrwt beam="2">  1       -2 0.14945708E+00 0.28765987E+04</pdfrwt>
<totfact> 0.17879098E+00</totfact>
</mgrwt>
<rwgt>
<wgt id='morphing_basis_vector_1'> +7.2104004e-05 </wgt>
<wgt id='morphing_basis_vector_2'> +5.6295780e-05 </wgt>
<wgt id='morphing_basis_vector_3'> +8.0046545e-05 </wgt>
<wgt id='morphing_basis_vector_4'> +4.6270065e-05 </wgt>
<wgt id='morphing_basis_vector_5'> +8.4410212e-05 </wgt>
</rwgt>
</event>
<event>
 4      1 +7.3133000e-09 2.99316100e+03 7.81860800e-03 7.75392800e-02
        2 -1    0    0  501    0 +0.0000000000e+00 +0.0000000000e+00 +1.4071990351e+03 1.4071990351e+03 0.0000000000e+00 0.0000e+00 -1.0000e+00
       -2 -1    0    0    0  501 -0.0000000000e+00 -0.0000000000e+00 -1.5916397307e+03 1.5916397307e+03 0.0000000000e+00 0.0000e+00 1.0000e+00
      -13  1    1    2    0    0 +4.6137961029e+02 +3.4166318832e+02 -1.4769232259e+03 1.5845842024e+03 0.0000000000e+00 0.0000e+00 1.0000e+00
       13  1    1    2    0    0 -4.6137961029e+02 -3.4166318832e+02 +1.2924825304e+03 1.4142545635e+03 0.0000000000e+00 0.0000e+00 -1.0000e+00
<mgrwt>
<rscale>  0 0.29931615E+04</rscale>
<asrwt>0</asrwt>
<pdfrwt beam="1">  1        2 0.21649216E+00 0.29931615E+04</pdfrwt>
<pdfrwt beam="2">  1       -2 0.24486765E+00 0.29931615E+04</pdfrwt>
<totfact> 0.87833636E-01</totfact>
</mgrwt>
<rwgt>
<wgt id='morphing_basis_vector_1'> +8.0421030e-05 </wgt>
<wgt id='morphing_basis_vector_2'> +5.4236074e-05 </wgt>
<wgt id='morphing_basis_vector_3'> +8.7625419e-05 </wgt>
<wgt id='morphing_basis_vector_4'> +6.2584572e-05 </wgt>
<wgt id='morphing_basis_vector_5'> +9.9769568e-05 </wgt>
</rwgt>
</event>
<event>
 4      1 +7.3133000e-09 3.03588000e+03 7.81860800e-03 7.74321200e-02
        2 -1    0    0  501    0 +0.0000000000e+00 +0.0000000000e+00 +2.3798073466e+03 2.3798073466e+03 0.0000000000e+00 0.0000e+00 -1.0000e+00
       -2 -1    0    0    0  501 -0.0000000000e+00 -0.0000000000e+00 -9.6820545201e+02 9.6820545201e+02 0.0000000000e+00 0.0000e+00 1.0000e+00
      -13  1    1    2    0    0 -1.1936252284e+03 -9.3425105072e+02 +7.9523257815e+02 1.7117129038e+03 0.0000000000e+00 0.0000e+00 1.0000e+00
       13  1    1    2    0    0 +1.1936252284e+03 +9.3425105072e+02 +6.1636931642e+02 1.6362998948e+03 0.0000000000e+00 0.0000e+00 -1.0000e+00
<mgrwt>
<rscale>  0 0.30358804E+04</rscale>
<asrwt>0</asrwt>
<pdfrwt beam="1">  1        2 0.36612421E+00 0.30358804E+04</pdfrwt>
<pdfrwt beam="2">  1       -2 0.14895469E+00 0.30358804E+04</pdfrwt>
<totfact> 0.12768073E+00</totfact>
</mgrwt>
<rwgt>
<wgt id='morphing_basis_vector_1'> +8.8842564e-05 </wgt>
<wgt id='morphing_basis_vector_2'> +6.8502832e-05 </wgt>
<wgt id='morphing_basis_vector_3'> +9.8648349e-05 </wgt>
<wgt id='morphing_basis_vector_4'> +5.8401208e-05 </wgt>
<wgt id='morphing_basis_vector_5'> +1.0499401e-04 </wgt>
</rwgt>
</event>
<event>
 4      1 +7.3133000e-09 2.98062800e+03 7.81860800e-03 7.75710800e-02
        2 -1    0    0  501    0 +0.0000000000e+00 +0.0000000000e+00 +1.1327520073e+03 1.1327520073e+03 0.0000000000e+00 0.0000e+00 1.0000e+00
       -2 -1    0    0    0  501 -0.0000000000e+00 -0.0000000000e+00 -1.9607432015e+03 1.9607432015e+03 0.0000000000e+00 0.0000e+00 -1.0000e+00
      -13  1    1    2    0    0 +1.0836127725e+03 -1.0130531199e+03 -5.6274960188e+02 1.5865624409e+03 0.0000000000e+00 0.0000e+00 -1.0000e+00
       13  1    1    2    0    0 -1.0836127725e+03 +1.0130531199e+03 -2.6524159227e+02 1.5069327679e+03 0.0000000000e+00 0.0000e+00 1.0000e+00
<mgrwt>
<rscale>  0 0.29806280E+04</rscale>
<asrwt>0</asrwt>
<pdfrwt beam="1">  1        2 0.17426954E+00 0.29806280E+04</pdfrwt>
<pdfrwt beam="2">  1       -2 0.30165280E+00 0.29806280E+04</pdfrwt>
<totfact> 0.51788941E-01</totfact>
</mgrwt>
<rwgt>
<wgt id='morphing_basis_vector_1'> +8.1128823e-05 </wgt>
<wgt id='morphing_basis_vector_2'> +5.9327987e-05 </wgt>
<wgt id='morphing_basis_vector_3'> +8.9349489e-05 </wgt>
<wgt id='morphing_basis_vector_4'> +5.7300508e-05 </wgt>
<wgt id='morphing_basis_vector_5'> +9.7746450e-05 </wgt>
</rwgt>
</event>
<event>
 4      1 +7.3133000e-09 2.81013500e+03 7.81860800e-03 7.80200500e-02
        2 -1    0    0  501    0 +0.0000000000e+00 +0.0000000000e+00 +3.2567735850e+03 3.2567735850e+03 0.0000000000e+00 0.0000e+00 1.0000e+00
       -2 -1    0    0    0  501 -0.0000000000e+00 -0.0000000000e+00 -6.0618713013e+02 6.0618713013e+02 0.0000000000e+00 0.0000e+00 -1.0000e+00
      -13  1    1    2    0    0 -3.6452798761e+02 +5.7683036808e+02 -3.6312585652e+02 7.7296462724e+02 0.0000000000e+00 0.0000e+00 -1.0000e+00
       13  1    1    2    0    0 +3.6452798761e+02 -5.7683036808e+02 +3.0137123114e+03 3.0899960879e+03 0.0000000000e+00 0.0000e+00 1.0000e+00
<mgrwt>
<rscale>  0 0.28101347E+04</rscale>
<asrwt>0</asrwt>
<pdfrwt beam="1">  1        2 0.50104208E+00 0.28101347E+04</pdfrwt>
<pdfrwt beam="2">  1       -2 0.93259560E-01 0.28101347E+04</pdfrwt>
<totfact> 0.12177445E+00</totfact>
</mgrwt>
<rwgt>
<wgt id='morphing_basis_vector_1'> +6.2643208e-05 </wgt>
<wgt id='morphing_basis_vector_2'> +4.2201933e-05 </wgt>
<wgt id='morphing_basis_vector_3'> +6.8103665e-05 </wgt>
<wgt id='morphing_basis_vector_4'> +4.8495778e-05 </wgt>
<wgt id='morphing_basis_vector_5'> +7.7328301e-05 </wgt>
</rwgt>
</event>
<event>
 4      1 +7.3133000e-09 2.82989100e+03 7.81860800e-03 7.79663900e-02
        2 -1    0    0  501    0 +0.0000000000e+00 +0.0000000000e+00 +2.7230683250e+03 2.7230683250e+03 0.0000000000e+00 0.0000e+00 -1.0000e+00
       -2 -1    0    0    0  501 -0.0000000000e+00 -0.0000000000e+00 -7.3522587225e+02 7.3522587225e+02 0.0000000000e+00 0.0000e+00 1.0000e+00
      -13  1    1    2    0    0 +6.3632649046e+02 -8.0956184442e+02 -1.9202326185e+02 1.0474610807e+03 0.0000000000e+00 0.0000e+00 1.0000e+00
       13  1    1    2    0    0 -6.3632649046e+02 +8.0956184442e+02 +2.1798657146e+03 2.4108331166e+03 0.0000000000e+00 0.0000e+00 -1.0000e+00
<mgrwt>
<rscale>  0 0.28298907E+04</rscale>
<asrwt>0</asrwt>
<pdfrwt beam="1">  1        2 0.41893358E+00 0.28298907E+04</pdfrwt>
<pdfrwt beam="2">  1       -2 0.11311167E+00 0.28298907E+04</pdfrwt>
<totfact> 0.16894271E+00</totfact>
</mgrwt>
<rwgt>
<wgt id='morphing_basis_vector_1'> +6.4483879e-05 </wgt>
<wgt id='morphing_basis_vector_2'> +4.3628819e-05 </wgt>
<wgt id='morphing_basis_vector_3'> +7.0160293e-05 </wgt>
<wgt id='morphing_basis_vector_4'> +4.9724016e-05 </wgt>
<wgt id='morphing_basis_vector_5'> +7.9534872e-05 </wgt>
</rwgt>
</event>
<event>
 4      1 +7.3133000e-09 2.92236700e+03 7.81860800e-03 7.77210000e-02
        2 -1    0    0  501    0 +0.0000000000e+00 +0.0000000000e+00 +1.1672754112e+03 1.1672754112e+03 0.0000000000e+00 0.0000e+00 -1.0000e+00
       -2 -1    0    0    0  501 -0.0000000000e+00 -0.0000000000e+00 -1.8290942518e+03 1.8290942518e+03 0.0000000000e+00 0.0000e+00 1.0000e+00
      -13  1    1    2    0    0 +4.4285296155e+02 +2.9407842089e+02 -1.7264247818e+03 1.8064172802e+03 0.0000000000e+00 0.0000e+00 1.0000e+00
       13  1    1    2    0    0 -4.4285296155e+02 -2.9407842089e+02 +1.0646059412e+03 1.1899523828e+03 0.0000000000e+00 0.0000e+00 -1.0000e+00
<mgrwt>
<rscale>  0 0.29223667E+04</rscale>
<asrwt>0</asrwt>
<pdfrwt beam="1">  1        2 0.17958083E+00 0.29223667E+04</pdfrwt>
<pdfrwt beam="2">  1       -2 0.28139911E+00 0.29223667E+04</pdfrwt>
<totfact> 0.68107298E-01</totfact>
</mgrwt>
<rwgt>
<wgt id='morphing_basis_vector_1'> +7.3142611e-05 </wgt>
<wgt id='morphing_basis_vector_2'> +4.9298986e-05 </wgt>
<wgt id='morphing_basis_vector_3'> +7.9628517e-05 </wgt>
<wgt id='morphing_basis_vector_4'> +5.6823974e-05 </wgt>
<wgt id='morphing_basis_vector_5'> +9.0581172e-05 </wgt>
</rwgt>
</event>
<event>
 4      1 +7.3133000e-09 3.18435500e+03 7.81860800e-03 7.70734000e-02
        2 -1    0    0  501    0 +0.0000000000e+00 +0.0000000000e+00 +2.3871696416e+03 2.3871696416e+03 0.0000000000e+00 0.0000e+00 1.0000e+00
       -2 -1    0    0    0  501 -0.0000000000e+00 -0.0000000000e+00 -1.0619392200e+03 1.0619392200e+03 0.0000000000e+00 0.0000e+00 -1.0000e+00
      -13  1    1    2    0    0 +9.4690166104e+02 -1.2471479389e+03 +3.5051174891e+02 1.6046367886e+03 0.0000000000e+00 0.0000e+00 -1.0000e+00
       13  1    1    2    0    0 -9.4690166104e+02 +1.2471479389e+03 +9.7471867265e+02 1.8444720730e+03 0.0000000000e+00 0.0000e+00 1.0000e+00
<mgrwt>
<rscale>  0 0.31843549E+04</rscale>
<asrwt>0</asrwt>
<pdfrwt beam="1">  1        2 0.36725687E+00 0.31843549E+04</pdfrwt>
<pdfrwt beam="2">  1       -2 0.16337527E+00 0.31843549E+04</pdfrwt>
<totfact> 0.95365438E-01</totfact>
</mgrwt>
<rwgt>
<wgt id='morphing_basis_vector_1'> +1.0471282e-04 </wgt>
<wgt id='morphing_basis_vector_2'> +7.5037299e-05 </wgt>
<wgt id='morphing_basis_vector_3'> +1.1524120e-04 </wgt>
<wgt id='morphing_basis_vector_4'> +7.6346292e-05 </wgt>
<wgt id='morphing_basis_vector_5'> +1.2774567e-04 </wgt>
</rwgt>
</event>
<event>
 4      1 +7.3133000e-09 2.95990500e+03 7.81860800e-03 7.76240000e-02
        2 -1    0    0  501    0 +0.0000000000e+00 +0.0000000000e+00 +2.8476420161e+03 2.8476420161e+03 0.0000000000e+00 0.0000e+00 1.0000e+00
       -2 -1    0    0    0  501 -0.0000000000e+00 -0.0000000000e+00 -7.6914858874e+02 7.6914858874e+02 0.0000000000e+00 0.0000e+00 -1.0000e+00
      -13  1    1    2    0    0 +6.2751466673e+02 +9.6849318912e+02 -9.2937901152e+01 1.1577526367e+03 0.0000000000e+00 0.0000e+00 -1.0000e+00
       13  1    1    2    0    0 -6.2751466673e+02 -9.6849318912e+02 +2.1714313285e+03 2.4590379682e+03 0.0000000000e+00 0.0000e+00 1.0000e+00
<mgrwt>
<rscale>  0 0.29599053E+04</rscale>
<asrwt>0</asrwt>
<pdfrwt beam="1">  1        2 0.43809877E+00 0.29599053E+04</pdfrwt>
<pdfrwt beam="2">  1       -2 0.11833055E+00 0.29599053E+04</pdfrwt>
<totfact> 0.12440121E+00</totfact>
</mgrwt>
<rwgt>
<wgt id='morphing_basis_vector_1'> +7.7097619e-05 </wgt>
<wgt id='morphing_basis_vector_2'> +5.2345155e-05 </wgt>
<wgt id='morphing_basis_vector_3'> +8.4047943e-05 </wgt>
<wgt id='morphing_basis_vector_4'> +5.9493095e-05 </wgt>
<wgt id='morphing_basis_vector_5'> +9.5343187e-05 </wgt>
</rwgt>
</event>
<event>
 4      1 +7.3133000e-09 2.99901300e+03 7.81860800e-03 7.75245000e-02
        2 -1    0    0  501    0 +0.0000000000e+00 +0.0000000000e+00 +3.1257847224e+03 3.1257847224e+03 0.0000000000e+00 0.0000e+00 -1.0000e+00
       -2 -1    0    0    0  501 -0.0000000000e+00 -0.0000000000e+00 -7.1934588662e+02 7.1934588662e+02 0.0000000000e+00 0.0000e+00 1.0000e+00
      -13  1    1    2    0    0 -1.3979052744e+03 +9.3025468202e+01 +5.1787528654e+02 1.4936491242e+03 0.0000000000e+00 0.0000e+00 1.0000e+00
       13  1    1    2    0    0 +1.3979052744e+03 -9.3025468202e+01 +1.8885635493e+03 2.3514814848e+03 0.0000000000e+00 0.0000e+00 -1.0000e+00
<mgrwt>
<rscale>  0 0.29990134E+04</rscale>
<asrwt>0</asrwt>
<pdfrwt beam="1">  1        2 0.48088995E+00 0.29990134E+04</pdfrwt>
<pdfrwt beam="2">  1       -2 0.11066860E+00 0.29990134E+04</pdfrwt>
<totfact> 0.96977250E-01</totfact>
</mgrwt>
<rwgt>
<wgt id='morphing_basis_vector_1'> +8.1766388e-05 </wgt>
<wgt id='morphing_basis_vector_2'> +5.6781418e-05 </wgt>
<wgt id='morphing_basis_vector_3'> +8.9439688e-05 </wgt>
<wgt id='morphing_basis_vector_4'> +6.1579935e-05 </wgt>
<wgt id='morphing_basis_vector_5'> +1.0043582e-04 </wgt>
</rwgt>
</event>
<event>
 4      1 +7.3133000e-09 3.14593900e+03 7.81860800e-03 7.71642500e-02
        2 -1    0    0  501    0 +0.0000000000e+00 +0.0000000000e+00 +2.6139068775e+03 2.6139068775e+03 0.0000000000e+00 0.0000e+00 -1.0000e+00
       -2 -1    0    0    0  501 -0.0000000000e+00 -0.0000000000e+00 -9.4656495319e+02 9.4656495319e+02 0.0000000000e+00 0.0000e+00 1.0000e+00
      -13  1    1    2    0    0 -1.2408089166e+03 +2.2281191598e+01 -2.6018671214e+02 1.2679906719e+03 0.0000000000e+00 0.0000e+00 1.0000e+00
       13  1    1    2    0    0 +1.2408089166e+03 -2.2281191598e+01 +1.9275286364e+03 2.2924811587e+03 0.0000000000e+00 0.0000e+00 -1.0000e+00
<mgrwt>
<rscale>  0 0.31459387E+04</rscale>
<asrwt>0</asrwt>
<pdfrwt beam="1">  1        2 0.40213952E+00 0.31459387E+04</pdfrwt>
<pdfrwt beam="2">  1       -2 0.14562538E+00 0.31459387E+04</pdfrwt>
<totfact> 0.97746329E-01</totfact>
</mgrwt>
<rwgt>
<wgt id='morphing_basis_vector_1'> +9.8191471e-05 </wgt>
<wgt id='morphing_basis_vector_2'> +6.6788372e-05 </wgt>
<wgt id='morphing_basis_vector_3'> +1.0726557e-04 </wgt>
<wgt id='morphing_basis_vector_4'> +7.6040179e-05 </wgt>
<wgt id='morphing_basis_vector_5'> +1.2192028e-04 </wgt>
</rwgt>
</event>
<event>
 4      1 +7.3133000e-09 2.97490800e+03 7.81860800e-03 7.75856400e-02
        2 -1    0    0  501    0 +0.0000000000e+00 +0.0000000000e+00 +3.1755584142e+03 3.1755584142e+03 0.0000000000e+00 0.0000e+00 1.0000e+00
       -2 -1    0    0    0  501 -0.0000000000e+00 -0.0000000000e+00 -6.9673417866e+02 6.9673417866e+02 0.0000000000e+00 0.0000e+00 -1.0000e+00
      -13  1    1    2    0    0 -7.3134243433e+02 -1.2004692028e+03 +6.0635990705e+02 1.5309018257e+03 0.0000000000e+00 0.0000e+00 -1.0000e+00
       13  1    1    2    0    0 +7.3134243433e+02 +1.2004692028e+03 +1.8724643285e+03 2.3413907672e+03 0.0000000000e+00 0.0000e+00 1.0000e+00
<mgrwt>
<rscale>  0 0.29749085E+04</rscale>
<asrwt>0</asrwt>
<pdfrwt beam="1">  1        2 0.48854744E+00 0.29749085E+04</pdfrwt>
<pdfrwt beam="2">  1       -2 0.10718988E+00 0.29749085E+04</pdfrwt>
<totfact> 0.97445378E-01</totfact>
</mgrwt>
<rwgt>
<wgt id='morphing_basis_vector_1'> +7.9290163e-05 </wgt>
<wgt id='morphing_basis_vector_2'> +5.5272511e-05 </wgt>
<wgt id='morphing_basis_vector_3'> +8.6752536e-05 </wgt>
<wgt id='morphing_basis_vector_4'> +5.9403865e-05 </wgt>
<wgt id='morphing_basis_vector_5'> +9.7200793e-05 </wgt>
</rwgt>
</event>
<event>
 4      1 +7.3133000e-09 2.76114800e+03 7.81860800e-03 7.81550500e-02
        2 -1    0    0  501    0 +0.0000000000e+00 +0.0000000000e+00 +1.4526231889e+03 1.4526231889e+03 0.0000000000e+00 0.0000e+00 -1.0000e+00
       -2 -1    0    0    0  501 -0.0000000000e+00 -0.0000000000e+00 -1.3120986701e+03 1.3120986701e+03 0.0000000000e+00 0.0000e+00 1.0000e+00
      -13  1    1    2    0    0 +5.1560131359e+02 -8.2491618882e+02 -9.1062466932e+02 1.3325046797e+03 0.0000000000e+00 0.0000e+00 1.0000e+00
       13  1    1    2    0    0 -5.1560131359e+02 +8.2491618882e+02 +1.0511491881e+03 1.4322171794e+03 0.0000000000e+00 0.0000e+00 -1.0000e+00
<mgrwt>
<rscale>  0 0.27611483E+04</rscale>
<asrwt>0</asrwt>
<pdfrwt beam="1">  1        2 0.22348049E+00 0.27611483E+04</pdfrwt>
<pdfrwt beam="2">  1       -2 0.20186134E+00 0.27611483E+04</pdfrwt>
<totfact> 0.17034369E+00</totfact>
</mgrwt>
<rwgt>
<wgt id='morphing_basis_vector_1'> +5.8489046e-05 </wgt>
<wgt id='morphing_basis_vector_2'> +3.9517311e-05 </wgt>
<wgt id='morphing_basis_vector_3'> +6.3570588e-05 </wgt>
<wgt id='morphing_basis_vector_4'> +4.5050383e-05 </wgt>
<wgt id='morphing_basis_vector_5'> +7.2013777e-05 </wgt>
</rwgt>
</event>
<event>
 4      1 +7.3133000e-09 2.79640400e+03 7.81860800e-03 7.80576100e-02
        2 -1    0    0  501    0 +0.0000000000e+00 +0.0000000000e+00 +1.0671960156e+03 1.0671960156e+03 0.0000000000e+00 0.0000e+00 -1.0000e+00
       -2 -1    0    0    0  501 -0.0000000000e+00 -0.0000000000e+00 -1.8318736210e+03 1.8318736210e+03 0.0000000000e+00 0.0000e+00 1.0000e+00
      -13  1    1    2    0    0 -7.5307938257e+02 -9.6554557102e+02 +3.1739405892e+02 1.2649686932e+03 0.0000000000e+00 0.0000e+00 1.0000e+00
       13  1    1    2    0    0 +7.5307938257e+02 +9.6554557102e+02 -1.0820716643e+03 1.6341009433e+03 0.0000000000e+00 0.0000e+00 -1.0000e+00
<mgrwt>
<rscale>  0 0.27964036E+04</rscale>
<asrwt>0</asrwt>
<pdfrwt beam="1">  1        2 0.16418400E+00 0.27964036E+04</pdfrwt>
<pdfrwt beam="2">  1       -2 0.28182671E+00 0.27964036E+04</pdfrwt>
<totfact> 0.78462523E-01</totfact>
</mgrwt>
<rwgt>
<wgt id='morphing_basis_vector_1'> +7.2232924e-05 </wgt>
<wgt id='morphing_basis_vector_2'> +7.3193236e-05 </wgt>
<wgt id='morphing_basis_vector_3'> +8.3531057e-05 </wgt>
<wgt id='morphing_basis_vector_4'> +2.5196875e-05 </wgt>
<wgt id='morphing_basis_vector_5'> +7.3984865e-05 </wgt>
</rwgt>
</event>
<event>
 4      1 +7.3133000e-09 3.11238800e+03 7.81860800e-03 7.72446900e-02
        2 -1    0    0  501    0 +0.0000000000e+00 +0.0000000000e+00 +1.9475769288e+03 1.9475769288e+03 0.0000000000e+00 0.0000e+00 -1.0000e+00
       -2 -1    0    0    0  501 -0.0000000000e+00 -0.0000000000e+00 -1.2434631439e+03 1.2434631439e+03 0.0000000000e+00 0.0000e+00 1.0000e+00
      -13  1    1    2    0    0 +1.7706062802e+02 +2.8852096026e+02 -1.2052563201e+03 1.2518936087e+03 0.0000000000e+00 0.0000e+00 1.0000e+00
       13  1    1    2    0    0 -1.7706062802e+02 -2.8852096026e+02 +1.9093701051e+03 1.9391464639e+03 0.0000000000e+00 0.0000e+00 -1.0000e+00
<mgrwt>
<rscale>  0 0.31123882E+04</rscale>
<asrwt>0</asrwt>
<pdfrwt beam="1">  1        2 0.29962722E+00 0.31123882E+04</pdfrwt>
<pdfrwt beam="2">  1       -2 0.19130202E+00 0.31123882E+04</pdfrwt>
<totfact> 0.10467529E+00</totfact>
</mgrwt>
<rwgt>
<wgt id='morphing_basis_vector_1'> +9.3886535e-05 </wgt>
<wgt id='morphing_basis_vector_2'> +6.3356688e-05 </wgt>
<wgt id='morphing_basis_vector_3'> +1.0242470e-04 </wgt>
<wgt id='morphing_basis_vector_4'> +7.3274932e-05 </wgt>
<wgt id='morphing_basis_vector_5'> +1.1679839e-04 </wgt>
</rwgt>
</event>
<event>
 4      1 +7.3133000e-09 3.09713800e+03 7.81860800e-03 7.72816000e-02
        2 -1    0    0  501    0 +0.0000000000e+00 +0.0000000000e+00 +1.7886773756e+03 1.7886773756e+03 0.0000000000e+00 0.0000e+00 1.0000e+00
       -2 -1    0    0    0  501 -0.0000000000e+00 -0.0000000000e+00 -1.3406926770e+03 1.3406926770e+03 0.0000000000e+00 0.0000e+00 -1.0000e+00
      -13  1    1    2    0    0 +4.8484790098e+02 +9.4665023188e+02 -9.1326202273e+02 1.4018814753e+03 0.0000000000e+00 0.0000e+00 -1.0000e+00
       13  1    1    2    0    0 -4.8484790098e+02 -9.4665023188e+02 +1.3612467213e+03 1.7274885774e+03 0.0000000000e+00 0.0000e+00 1.0000e+00
<mgrwt>
<rscale>  0 0.30971385E+04</rscale>
<asrwt>0</asrwt>
<pdfrwt beam="1">  1        2 0.27518114E+00 0.30971385E+04</pdfrwt>
<pdfrwt beam="2">  1       -2 0.20626041E+00 0.30971385E+04</pdfrwt>
<totfact> 0.99926851E-01</totfact>
</mgrwt>
<rwgt>
<wgt id='morphing_basis_vector_1'> +9.2168433e-05 </wgt>
<wgt id='morphing_basis_vector_2'> +6.2402467e-05 </wgt>
<wgt id='morphing_basis_vector_3'> +1.0057952e-04 </wgt>
<wgt id='morphing_basis_vector_4'> +7.1643619e-05 </wgt>
<wgt id='morphing_basis_vector_5'> +1.1449144e-04 </wgt>
</rwgt>
</event>
<event>
 4      1 +7.3133000e-09 2.76318100e+03 7.81860800e-03 7.81493900e-02
        2 -1    0    0  501    0 +0.0000000000e+00 +0.0000000000e+00 +2.7460744094e+03 2.7460744094e+03 0.0000000000e+00 0.0000e+00 -1.0000e+00
       -2 -1    0    0    0  501 -0.0000000000e+00 -0.0000000000e+00 -6.9509831582e+02 6.9509831582e+02 0.0000000000e+00 0.0000e+00 1.0000e+00
      -13  1    1    2    0    0 +6.5750545555e+02 +5.2030587986e+02 -3.4201296257e+02 9.0554099811e+02 0.0000000000e+00 0.0000e+00 1.0000e+00
       13  1    1    2    0    0 -6.5750545555e+02 -5.2030587986e+02 +2.3929890562e+03 2.5356317271e+03 0.0000000000e+00 0.0000e+00 -1.0000e+00
<mgrwt>
<rscale>  0 0.27631806E+04</rscale>
<asrwt>0</asrwt>
<pdfrwt beam="1">  1        2 0.42247298E+00 0.27631806E+04</pdfrwt>
<pdfrwt beam="2">  1       -2 0.10693820E+00 0.27631806E+04</pdfrwt>
<totfact> 0.18926600E+00</totfact>
</mgrwt>
<rwgt>
<wgt id='morphing_basis_vector_1'> +5.8622081e-05 </wgt>
<wgt id='morphing_basis_vector_2'> +3.9522720e-05 </wgt>
<wgt id='morphing_basis_vector_3'> +6.3699700e-05 </wgt>
<wgt id='morphing_basis_vector_4'> +4.5262107e-05 </wgt>
<wgt id='morphing_basis_vector_5'> +7.2234593e-05 </wgt>
</rwgt>
</event>
<event>
 4      1 +7.3133000e-09 3.02203300e+03 7.81860800e-03 7.74666600e-02
        2 -1    0    0  501    0 +0.0000000000e+00 +0.0000000000e+00 +8.8642904555e+02 8.8642904555e+02 0.0000000000e+00 0.0000e+00 1.0000e+00
       -2 -1    0    0    0  501 -0.0000000000e+00 -0.0000000000e+00 -2.5756950834e+03 2.5756950834e+03 0.0000000000e+00 0.0000e+00 -1.0000e+00
      -13  1    1    2    0    0 +4.2023972714e+02 +1.4511244937e+03 -8.1208409113e+02 1.7151805431e+03 0.0000000000e+00 0.0000e+00 -1.0000e+00
       13  1    1    2    0    0 -4.2023972714e+02 -1.4511244937e+03 -8.7718194670e+02 1.7469435858e+03 0.0000000000e+00 0.0000e+00 1.0000e+00
<mgrwt>
<rscale>  0 0.30220330E+04</rscale>
<asrwt>0</asrwt>
<pdfrwt beam="1">  1        2 0.13637370E+00 0.30220330E+04</pdfrwt>
<pdfrwt beam="2">  1       -2 0.39626077E+00 0.30220330E+04</pdfrwt>
<totfact> 0.17680945E-01</totfact>
</mgrwt>
<rwgt>
<wgt id='morphing_basis_vector_1'> +8.6817068e-05 </wgt>
<wgt id='morphing_basis_vector_2'> +6.6001595e-05 </wgt>
<wgt id='morphing_basis_vector_3'> +9.6186519e-05 </wgt>
<wgt id='morphing_basis_vector_4'> +5.8229543e-05 </wgt>
<wgt id='morphing_basis_vector_5'> +1.0314889e-04 </wgt>
</rwgt>
</event>
<event>
 4      1 +7.3133000e-09 2.78165200e+03 7.81860800e-03 7.80982000e-02
        2 -1    0    0  501    0 +0.0000000000e+00 +0.0000000000e+00 +2.5259032811e+03 2.5259032811e+03 0.0000000000e+00 0.0000e+00 1.0000e+00
       -2 -1    0    0    0  501 -0.0000000000e+00 -0.0000000000e+00 -7.6582375287e+02 7.6582375287e+02 0.0000000000e+00 0.0000e+00 -1.0000e+00
      -13  1    1    2    0    0 -7.8639880255e+02 -2.9750390982e+02 +2.1911089680e+03 2.3468894654e+03 0.0000000000e+00 0.0000e+00 1.0000e+00
       13  1    1    2    0    0 +7.8639880255e+02 +2.9750390982e+02 -4.3102943980e+02 9.4483756857e+02 0.0000000000e+00 0.0000e+00 -1.0000e+00
<mgrwt>
<rscale>  0 0.27816518E+04</rscale>
<asrwt>0</asrwt>
<pdfrwt beam="1">  1        2 0.38860050E+00 0.27816518E+04</pdfrwt>
<pdfrwt beam="2">  1       -2 0.11781904E+00 0.27816518E+04</pdfrwt>
<totfact> 0.20150250E+00</totfact>
</mgrwt>
<rwgt>
<wgt id='morphing_basis_vector_1'> +8.0119951e-05 </wgt>
<wgt id='morphing_basis_vector_2'> +9.9328523e-05 </wgt>
<wgt id='morphing_basis_vector_3'> +9.6326490e-05 </wgt>
<wgt id='morphing_basis_vector_4'> +5.2421962e-06 </wgt>
<wgt id='morphing_basis_vector_5'> +7.0832991e-05 </wgt>
</rwgt>
</event>
<event>
 4      1 +7.3133000e-09 2.76781800e+03 7.81860800e-03 7.81365000e-02
        2 -1    0    0  501    0 +0.0000000000e+00 +0.0000000000e+00 +2.9215214355e+03 2.9215214355e+03 0.0000000000e+00 0.0000e+00 -1.0000e+00
       -2 -1    0    0    0  501 -0.0000000000e+00 -0.0000000000e+00 -6.5555017862e+02 6.5555017862e+02 0.0000000000e+00 0.0000e+00 1.0000e+00
      -13  1    1    2    0    0 -4.2784667053e+02 +6.1412947810e+02 -3.7139992698e+02 8.3555113256e+02 0.0000000000e+00 0.0000e+00 1.0000e+00
       13  1    1    2    0    0 +4.2784667053e+02 -6.1412947810e+02 +2.6373711839e+03 2.7415204816e+03 0.0000000000e+00 0.0000e+00 -1.0000e+00
<mgrwt>
<rscale>  0 0.27678178E+04</rscale>
<asrwt>0</asrwt>
<pdfrwt beam="1">  1        2 0.44946483E+00 0.27678178E+04</pdfrwt>
<pdfrwt beam="2">  1       -2 0.10085388E+00 0.27678178E+04</pdfrwt>
<totfact> 0.16927886E+00</totfact>
</mgrwt>
<rwgt>
<wgt id='morphing_basis_vector_1'> +5.8998889e-05 </wgt>
<wgt id='morphing_basis_vector_2'> +3.9747786e-05 </wgt>
<wgt id='morphing_basis_vector_3'> +6.4107151e-05 </wgt>
<wgt id='morphing_basis_vector_4'> +4.5597731e-05 </wgt>
<wgt id='morphing_basis_vector_5'> +7.2728097e-05 </wgt>
</rwgt>
</event>
<event>
 4      1 +7.3133000e-09 2.98639200e+03 7.81860800e-03 7.75564400e-02
        2 -1    0    0  501    0 +0.0000000000e+00 +0.0000000000e+00 +1.3136372425e+03 1.3136372425e+03 0.0000000000e+00 0.0000e+00 -1.0000e+00
       -2 -1    0    0    0  501 -0.0000000000e+00 -0.0000000000e+00 -1.6972978733e+03 1.6972978733e+03 0.0000000000e+00 0.0000e+00 1.0000e+00
      -13  1    1    2    0    0 +3.5611203459e+02 -4.4922894839e+02 -1.5819333358e+03 1.6825978451e+03 0.0000000000e+00 0.0000e+00 1.0000e+00
       13  1    1    2    0    0 -3.5611203459e+02 +4.4922894839e+02 +1.1982727050e+03 1.3283372708e+03 0.0000000000e+00 0.0000e+00 -1.0000e+00
<mgrwt>
<rscale>  0 0.29863916E+04</rscale>
<asrwt>0</asrwt>
<pdfrwt beam="1">  1        2 0.20209804E+00 0.29863916E+04</pdfrwt>
<pdfrwt beam="2">  1       -2 0.26112275E+00 0.29863916E+04</pdfrwt>
<totfact> 0.76693749E-01</totfact>
</mgrwt>
<rwgt>
<wgt id='morphing_basis_vector_1'> +7.9702531e-05 </wgt>
<wgt id='morphing_basis_vector_2'> +5.3748899e-05 </wgt>
<wgt id='morphing_basis_vector_3'> +8.6835900e-05 </wgt>
<wgt id='morphing_basis_vector_4'> +6.2015364e-05 </wgt>
<wgt id='morphing_basis_vector_5'> +9.8862008e-05 </wgt>
</rwgt>
</event>
<event>
 4      1 +7.3133000e-09 2.86504800e+03 7.81860800e-03 7.78720000e-02
        2 -1    0    0  501    0 +0.0000000000e+00 +0.0000000000e+00 +1.3862293745e+03 1.3862293745e+03 0.0000000000e+00 0.0000e+00 -1.0000e+00
       -2 -1    0    0    0  501 -0.0000000000e+00 -0.0000000000e+00 -1.4803651331e+03 1.4803651331e+03 0.0000000000e+00 0.0000e+00 1.0000e+00
      -13  1    1    2    0    0 +1.3851013151e+03 -1.9544945595e+02 -3.5613502470e+02 1.4434466733e+03 0.0000000000e+00 0.0000e+00 1.0000e+00
       13  1    1    2    0    0 -1.3851013151e+03 +1.9544945595e+02 +2.6199926605e+02 1.4231478343e+03 0.0000000000e+00 0.0000e+00 -1.0000e+00
<mgrwt>
<rscale>  0 0.28650484E+04</rscale>
<asrwt>0</asrwt>
<pdfrwt beam="1">  1        2 0.21326606E+00 0.28650484E+04</pdfrwt>
<pdfrwt beam="2">  1       -2 0.22774848E+00 0.28650484E+04</pdfrwt>
<totfact> 0.12017280E+00</totfact>
</mgrwt>
<rwgt>
<wgt id='morphing_basis_vector_1'> +6.8716608e-05 </wgt>
<wgt id='morphing_basis_vector_2'> +4.8779660e-05 </wgt>
<wgt id='morphing_basis_vector_3'> +7.5269074e-05 </wgt>
<wgt id='morphing_basis_vector_4'> +5.0187909e-05 </wgt>
<wgt id='morphing_basis_vector_5'> +8.3431957e-05 </wgt>
</rwgt>
</event>
<event>
 4      1 +7.3133000e-09 2.88669300e+03 7.81860800e-03 7.78145600e-02
        2 -1    0    0  501    0 +0.0000000000e+00 +0.0000000000e+00 +1.8524274605e+03 1.8524274605e+03 0.0000000000e+00 0.0000e+00 -1.0000e+00
       -2 -1    0    0    0  501 -0.0000000000e+00 -0.0000000000e+00 -1.1246047219e+03 1.1246047219e+03 0.0000000000e+00 0.0000e+00 1.0000e+00
      -13  1    1    2    0    0 +2.1046754027e+02 -1.3753390456e+03 -3.2023502529e+01 1.3917182116e+03 0.0000000000e+00 0.0000e+00 1.0000e+00
       13  1    1    2    0    0 -2.1046754027e+02 +1.3753390456e+03 +7.5984624120e+02 1.5853139708e+03 0.0000000000e+00 0.0000e+00 -1.0000e+00
<mgrwt>
<rscale>  0 0.28866927E+04</rscale>
<asrwt>0</asrwt>
<pdfrwt beam="1">  1        2 0.28498884E+00 0.28866927E+04</pdfrwt>
<pdfrwt beam="2">  1       -2 0.17301611E+00 0.28866927E+04</pdfrwt>
<totfact> 0.16583904E+00</totfact>
</mgrwt>
<rwgt>
<wgt id='morphing_basis_vector_1'> +7.0585896e-05 </wgt>
<wgt id='morphing_basis_vector_2'> +4.9645455e-05 </wgt>
<wgt id='morphing_basis_vector_3'> +7.7242019e-05 </wgt>
<wgt id='morphing_basis_vector_4'> +5.2171980e-05 </wgt>
<wgt id='morphing_basis_vector_5'> +8.6042436e-05 </wgt>
</rwgt>
</event>
<event>
 4      1 +7.3133000e-09 2.79029500e+03 7.81860800e-03 7.80743900e-02
        2 -1    0    0  501    0 +0.0000000000e+00 +0.0000000000e+00 +1.0567856852e+03 1.0567856852e+03 0.0000000000e+00 0.0000e+00 -1.0000e+00
       -2 -1    0    0    0  501 -0.0000000000e+00 -0.0000000000e+00 -1.8418455730e+03 1.8418455730e+03 0.0000000000e+00 0.0000e+00 1.0000e+00
      -13  1    1    2    0    0 -9.4458886719e+02 -2.3863429245e+02 -1.4299224273e+03 1.7302810759e+03 0.0000000000e+00 0.0000e+00 1.0000e+00
       13  1    1    2    0    0 +9.4458886719e+02 +2.3863429245e+02 +6.4486253950e+02 1.1683501823e+03 0.0000000000e+00 0.0000e+00 -1.0000e+00
<mgrwt>
<rscale>  0 0.27902946E+04</rscale>
<asrwt>0</asrwt>
<pdfrwt beam="1">  1        2 0.16258241E+00 0.27902946E+04</pdfrwt>
<pdfrwt beam="2">  1       -2 0.28336085E+00 0.27902946E+04</pdfrwt>
<totfact> 0.77763850E-01</totfact>
</mgrwt>
<rwgt>
<wgt id='morphing_basis_vector_1'> +6.0967423e-05 </wgt>
<wgt id='morphing_basis_vector_2'> +4.1194677e-05 </wgt>
<wgt id='morphing_basis_vector_3'> +6.6290043e-05 </wgt>
<wgt id='morphing_basis_vector_4'> +4.7010041e-05 </wgt>
<wgt id='morphing_basis_vector_5'> +7.5136225e-05 </wgt>
</rwgt>
</event>
<event>
 4      1 +7.3133000e-09 2.76115600e+03 7.81860800e-03 7.81550300e-02
        2 -1    0    0  501    0 +0.0000000000e+00 +0.0000000000e+00 +2.1492859529e+03 2.1492859529e+03 0.0000000000e+00 0.0000e+00 1.0000e+00
       -2 -1    0    0    0  501 -0.0000000000e+00 -0.0000000000e+00 -8.8680432933e+02 8.8680432933e+02 0.0000000000e+00 0.0000e+00 -1.0000e+00
      -13  1    1    2    0    0 +1.5110223311e+02 +4.5675196086e+02 -7.9165036536e+02 9.2637170703e+02 0.0000000000e+00 0.0000e+00 -1.0000e+00
       13  1    1    2    0    0 -1.5110223311e+02 -4.5675196086e+02 +2.0541319890e+03 2.1097185752e+03 0.0000000000e+00 0.0000e+00 1.0000e+00
<mgrwt>
<rscale>  0 0.27611563E+04</rscale>
<asrwt>0</asrwt>
<pdfrwt beam="1">  1        2 0.33065938E+00 0.27611563E+04</pdfrwt>
<pdfrwt beam="2">  1       -2 0.13643144E+00 0.27611563E+04</pdfrwt>
<totfact> 0.22688754E+00</totfact>
</mgrwt>
<rwgt>
<wgt id='morphing_basis_vector_1'> +5.8423745e-05 </wgt>
<wgt id='morphing_basis_vector_2'> +3.9323306e-05 </wgt>
<wgt id='morphing_basis_vector_3'> +6.3469122e-05 </wgt>
<wgt id='morphing_basis_vector_4'> +4.5187390e-05 </wgt>
<wgt id='morphing_basis_vector_5'> +7.2025780e-05 </wgt>
</rwgt>
</event>
<event>
 4      1 +7.3133000e-09 2.98015800e+03 7.81860800e-03 7.75722700e-02
        2 -1    0    0  501    0 +0.0000000000e+00 +0.0000000000e+00 +3.0906971598e+03 3.0906971598e+03 0.0000000000e+00 0.0000e+00 -1.0000e+00
       -2 -1    0    0    0  501 -0.0000000000e+00 -0.0000000000e+00 -7.1839309710e+02 7.1839309710e+02 0.0000000000e+00 0.0000e+00 1.0000e+00
      -13  1    1    2    0    0 +2.6302573661e+02 +1.2883349239e+03 +2.9021864948e+02 1.3465571948e+03 0.0000000000e+00 0.0000e+00 1.0000e+00
       13  1    1    2    0    0 -2.6302573661e+02 -1.2883349239e+03 +2.0820854133e+03 2.4625330622e+03 0.0000000000e+00 0.0000e+00 -1.0000e+00
<mgrwt>
<rscale>  0 0.29801581E+04</rscale>
<asrwt>0</asrwt>
<pdfrwt beam="1">  1        2 0.47549186E+00 0.29801581E+04</pdfrwt>
<pdfrwt beam="2">  1       -2 0.11052202E+00 0.29801581E+04</pdfrwt>
<totfact> 0.10284324E+00</totfact>
</mgrwt>
<rwgt>
<wgt id='morphing_basis_vector_1'> +7.9452149e-05 </wgt>
<wgt id='morphing_basis_vector_2'> +5.4501720e-05 </wgt>
<wgt id='morphing_basis_vector_3'> +8.6750080e-05 </wgt>
<wgt id='morphing_basis_vector_4'> +6.0647863e-05 </wgt>
<wgt id='morphing_basis_vector_5'> +9.7962252e-05 </wgt>
</rwgt>
</event>
<event>
 4      1 +7.3133000e-09 2.92161800e+03 7.81860800e-03 7.77229500e-02
        2 -1    0    0  501    0 +0.0000000000e+00 +0.0000000000e+00 +3.1038402249e+03 3.1038402249e+03 0.0000000000e+00 0.0000e+00 -1.0000e+00
       -2 -1    0    0    0  501 -0.0000000000e+00 -0.0000000000e+00 -6.8752348120e+02 6.8752348120e+02 0.0000000000e+00 0.0000e+00 1.0000e+00
      -13  1    1    2    0    0 +9.8300318200e+02 +6.6553862549e+02 +1.0342121059e+02 1.1916093591e+03 0.0000000000e+00 0.0000e+00 1.0000e+00
       13  1    1    2    0    0 -9.8300318200e+02 -6.6553862549e+02 +2.3128955331e+03 2.5997543470e+03 0.0000000000e+00 0.0000e+00 -1.0000e+00
<mgrwt>
<rscale>  0 0.29216181E+04</rscale>
<asrwt>0</asrwt>
<pdfrwt beam="1">  1        2 0.47751387E+00 0.29216181E+04</pdfrwt>
<pdfrwt beam="2">  1       -2 0.10577285E+00 0.29216181E+04</pdfrwt>
<totfact> 0.11301766E+00</totfact>
</mgrwt>
<rwgt>
<wgt id='morphing_basis_vector_1'> +7.3270028e-05 </wgt>
<wgt id='morphing_basis_vector_2'> +4.9842619e-05 </wgt>
<wgt id='morphing_basis_vector_3'> +7.9861611e-05 </wgt>
<wgt id='morphing_basis_vector_4'> +5.6346283e-05 </wgt>
<wgt id='morphing_basis_vector_5'> +9.0453153e-05 </wgt>
</rwgt>
</event>
<event>
 4      1 +7.3133000e-09 2.75372400e+03 7.81860800e-03 7.81757600e-02
        2 -1    0    0  501    0 +0.0000000000e+00 +0.0000000000e+00 +1.8795665951e+03 1.8795665951e+03 0.0000000000e+00 0.0000e+00 1.0000e+00
       -2 -1    0    0    0  501 -0.0000000000e+00 -0.0000000000e+00 -1.0086097689e+03 1.0086097689e+03 0.0000000000e+00 0.0000e+00 -1.0000e+00
      -13  1    1    2    0    0 +5.7399365015e+02 +4.8617116140e+02 -7.7404901605e+02 1.0793437765e+03 0.0000000000e+00 0.0000e+00 -1.0000e+00
       13  1    1    2    0    0 -5.7399365015e+02 -4.8617116140e+02 +1.6450058422e+03 1.8088325875e+03 0.0000000000e+00 0.0000e+00 1.0000e+00
<mgrwt>
<rscale>  0 0.27537242E+04</rscale>
<asrwt>0</asrwt>
<pdfrwt beam="1">  1        2 0.28916409E+00 0.27537242E+04</pdfrwt>
<pdfrwt beam="2">  1       -2 0.15517073E+00 0.27537242E+04</pdfrwt>
<totfact> 0.22425967E+00</totfact>
</mgrwt>
<rwgt>
<wgt id='morphing_basis_vector_1'> +5.7819850e-05 </wgt>
<wgt id='morphing_basis_vector_2'> +3.8950369e-05 </wgt>
<wgt id='morphing_basis_vector_3'> +6.2813714e-05 </wgt>
<wgt id='morphing_basis_vector_4'> +4.4664988e-05 </wgt>
<wgt id='morphing_basis_vector_5'> +7.1242665e-05 </wgt>
</rwgt>
</event>
<event>
 4      1 +7.3133000e-09 3.14026500e+03 7.81860800e-03 7.71777800e-02
        2 -1    0    0  501    0 +0.0000000000e+00 +0.0000000000e+00 +2.9012113631e+03 2.9012113631e+03 0.0000000000e+00 0.0000e+00 1.0000e+00
       -2 -1    0    0    0  501 -0.0000000000e+00 -0.0000000000e+00 -8.4975381634e+02 8.4975381634e+02 0.0000000000e+00 0.0000e+00 -1.0000e+00
      -13  1    1    2    0    0 -1.1320270331e+03 +1.0033001178e+03 +5.2288618793e+02 1.6004706482e+03 0.0000000000e+00 0.0000e+00 1.0000e+00
       13  1    1    2    0    0 +1.1320270331e+03 -1.0033001178e+03 +1.5285713589e+03 2.1504945313e+03 0.0000000000e+00 0.0000e+00 -1.0000e+00
<mgrwt>
<rscale>  0 0.31402646E+04</rscale>
<asrwt>0</asrwt>
<pdfrwt beam="1">  1        2 0.44634020E+00 0.31402646E+04</pdfrwt>
<pdfrwt beam="2">  1       -2 0.13073136E+00 0.31402646E+04</pdfrwt>
<totfact> 0.87164558E-01</totfact>
</mgrwt>
<rwgt>
<wgt id='morphing_basis_vector_1'> +9.8540471e-05 </wgt>
<wgt id='morphing_basis_vector_2'> +6.9399658e-05 </wgt>
<wgt id='morphing_basis_vector_3'> +1.0814533e-04 </wgt>
<wgt id='morphing_basis_vector_4'> +7.3296388e-05 </wgt>
<wgt id='morphing_basis_vector_5'> +1.2085533e-04 </wgt>
</rwgt>
</event>
<event>
 4      1 +7.3133000e-09 2.74213100e+03 7.81860800e-03 7.82082300e-02
        2 -1    0    0  501    0 +0.0000000000e+00 +0.0000000000e+00 +1.9545489116e+03 1.9545489116e+03 0.0000000000e+00 0.0000e+00 -1.0000e+00
       -2 -1    0    0    0  501 -0.0000000000e+00 -0.0000000000e+00 -9.6176669309e+02 9.6176669309e+02 0.0000000000e+00 0.0000e+00 1.0000e+00
      -13  1    1    2    0    0 +8.8521097417e+02 -2.0718143227e+02 -5.9510426636e+02 1.0865871813e+03 0.0000000000e+00 0.0000e+00 1.0000e+00
       13  1    1    2    0    0 -8.8521097417e+02 +2.0718143227e+02 +1.5878864849e+03 1.8297284235e+03 0.0000000000e+00 0.0000e+00 -1.0000e+00
<mgrwt>
<rscale>  0 0.27421306E+04</rscale>
<asrwt>0</asrwt>
<pdfrwt beam="1">  1        2 0.30069983E+00 0.27421306E+04</pdfrwt>
<pdfrwt beam="2">  1       -2 0.14796411E+00 0.27421306E+04</pdfrwt>
<totfact> 0.23361256E+00</totfact>
</mgrwt>
<rwgt>
<wgt id='morphing_basis_vector_1'> +5.6892326e-05 </wgt>
<wgt id='morphing_basis_vector_2'> +3.8388941e-05 </wgt>
<wgt id='morphing_basis_vector_3'> +6.1809359e-05 </wgt>
<wgt id='morphing_basis_vector_4'> +4.3848509e-05 </wgt>
<wgt id='morphing_basis_vector_5'> +7.0032932e-05 </wgt>
</rwgt>
</event>
<event>
 4      1 +7.3133000e-09 2.80496600e+03 7.81860800e-03 7.80341600e-02
        2 -1    0    0  501    0 +0.0000000000e+00 +0.0000000000e+00 +4.3543872739e+03 4.3543872739e+03 0.0000000000e+00 0.0000e+00 1.0000e+00
       -2 -1    0    0    0  501 -0.0000000000e+00 -0.0000000000e+00 -4.5171867589e+02 4.5171867589e+02 0.0000000000e+00 0.0000e+00 -1.0000e+00
      -13  1    1    2    0    0 -8.5241843801e+02 -1.0119452125e+03 +2.7482306398e+03 3.0501511366e+03 0.0000000000e+00 0.0000e+00 1.0000e+00
       13  1    1    2    0    0 +8.5241843801e+02 +1.0119452125e+03 +1.1544379582e+03 1.7559548132e+03 0.0000000000e+00 0.0000e+00 -1.0000e+00
<mgrwt>
<rscale>  0 0.28049656E+04</rscale>
<asrwt>0</asrwt>
<pdfrwt beam="1">  1        2 0.66990571E+00 0.28049656E+04</pdfrwt>
<pdfrwt beam="2">  1       -2 0.69495184E-01 0.28049656E+04</pdfrwt>
<totfact> 0.30779751E-01</totfact>
</mgrwt>
<rwgt>
<wgt id='morphing_basis_vector_1'> +6.9177186e-05 </wgt>
<wgt id='morphing_basis_vector_2'> +6.2489675e-05 </wgt>
<wgt id='morphing_basis_vector_3'> +7.8453860e-05 </wgt>
<wgt id='morphing_basis_vector_4'> +3.3660624e-05 </wgt>
<wgt id='morphing_basis_vector_5'> +7.5570885e-05 </wgt>
</rwgt>
</event>
<event>
 4      1 +7.3133000e-09 3.03836100e+03 7.81860800e-03 7.74259600e-02
        2 -1    0    0  501    0 +0.0000000000e+00 +0.0000000000e+00 +4.9692555576e+03 4.9692555576e+03 0.0000000000e+00 0.0000e+00 -1.0000e+00
       -2 -1    0    0    0  501 -0.0000000000e+00 -0.0000000000e+00 -4.6443752852e+02 4.6443752852e+02 0.0000000000e+00 0.0000e+00 1.0000e+00
      -13  1    1    2    0    0 +5.1546510877e+02 +6.8282397944e+02 +7.3496937021e+00 8.5557400805e+02 0.0000000000e+00 0.0000e+00 1.0000e+00
       13  1    1    2    0    0 -5.1546510877e+02 -6.8282397944e+02 +4.4974683354e+03 4.5781190781e+03 0.0000000000e+00 0.0000e+00 -1.0000e+00
<mgrwt>
<rscale>  0 0.30383606E+04</rscale>
<asrwt>0</asrwt>
<pdfrwt beam="1">  1        2 0.76450082E+00 0.30383606E+04</pdfrwt>
<pdfrwt beam="2">  1       -2 0.71451931E-01 0.30383606E+04</pdfrwt>
<totfact> 0.58271678E-02</totfact>
</mgrwt>
<rwgt>
<wgt id='morphing_basis_vector_1'> +8.5369798e-05 </wgt>
<wgt id='morphing_basis_vector_2'> +5.7650906e-05 </wgt>
<wgt id='morphing_basis_vector_3'> +9.3076346e-05 </wgt>
<wgt id='morphing_basis_vector_4'> +6.6431386e-05 </wgt>
<wgt id='morphing_basis_vector_5'> +1.0598511e-04 </wgt>
</rwgt>
</event>
<event>
 4      1 +7.3133000e-09 3.13424800e+03 7.81860800e-03 7.71921600e-02
        2 -1    0    0  501    0 +0.0000000000e+00 +0.0000000000e+00 +2.0343231412e+03 2.0343231412e+03 0.0000000000e+00 0.0000e+00 1.0000e+00
       -2 -1    0    0    0  501 -0.0000000000e+00 -0.0000000000e+00 -1.2072206334e+03 1.2072206334e+03 0.0000000000e+00 0.0000e+00 -1.0000e+00
      -13  1    1    2    0    0 -6.9540902904e+02 +9.5330736970e+02 -6.5300788384e+02 1.3486318827e+03 0.0000000000e+00 0.0000e+00 -1.0000e+00
       13  1    1    2    0    0 +6.9540902904e+02 -9.5330736970e+02 +1.4801103917e+03 1.8929118919e+03 0.0000000000e+00 0.0000e+00 1.0000e+00
<mgrwt>
<rscale>  0 0.31342475E+04</rscale>
<asrwt>0</asrwt>
<pdfrwt beam="1">  1        2 0.31297279E+00 0.31342475E+04</pdfrwt>
<pdfrwt beam="2">  1       -2 0.18572625E+00 0.31342475E+04</pdfrwt>
<totfact> 0.10276596E+00</totfact>
</mgrwt>
<rwgt>
<wgt id='morphing_basis_vector_1'> +9.6695436e-05 </wgt>
<wgt id='morphing_basis_vector_2'> +6.5638162e-05 </wgt>
<wgt id='morphing_basis_vector_3'> +1.0559196e-04 </wgt>
<wgt id='morphing_basis_vector_4'> +7.5025256e-05 </wgt>
<wgt id='morphing_basis_vector_5'> +1.2011326e-04 </wgt>
</rwgt>
</event>
<event>
 4      1 +7.3133000e-09 2.89542100e+03 7.81860800e-03 7.77915500e-02
        2 -1    0    0  501    0 +0.0000000000e+00 +0.0000000000e+00 +2.2365098192e+03 2.2365098192e+03 0.0000000000e+00 0.0000e+00 -1.0000e+00
       -2 -1    0    0    0  501 -0.0000000000e+00 -0.0000000000e+00 -9.3711419715e+02 9.3711419715e+02 0.0000000000e+00 0.0000e+00 1.0000e+00
      -13  1    1    2    0    0 +1.0335573428e+03 +2.7393824457e+02 +1.7194791973e+03 2.0248189185e+03 0.0000000000e+00 0.0000e+00 -1.0000e+00
       13  1    1    2    0    0 -1.0335573428e+03 -2.7393824457e+02 -4.2008357530e+02 1.1488050978e+03 0.0000000000e+00 0.0000e+00 1.0000e+00
<mgrwt>
<rscale>  0 0.28954206E+04</rscale>
<asrwt>0</asrwt>
<pdfrwt beam="1">  1        2 0.34407843E+00 0.28954206E+04</pdfrwt>
<pdfrwt beam="2">  1       -2 0.14417142E+00 0.28954206E+04</pdfrwt>
<totfact> 0.17160549E+00</totfact>
</mgrwt>
<rwgt>
<wgt id='morphing_basis_vector_1'> +8.9938351e-05 </wgt>
<wgt id='morphing_basis_vector_2'> +1.0475815e-04 </wgt>
<wgt id='morphing_basis_vector_3'> +1.0702039e-04 </wgt>
<wgt id='morphing_basis_vector_4'> +1.4388751e-05 </wgt>
<wgt id='morphing_basis_vector_5'> +8.3947289e-05 </wgt>
</rwgt>
</event>
<event>
 4      1 +7.3133000e-09 2.97565100e+03 7.81860800e-03 7.75837500e-02
        2 -1    0    0  501    0 +0.0000000000e+00 +0.0000000000e+00 +4.0064924276e+03 4.0064924276e+03 0.0000000000e+00 0.0000e+00 -1.0000e+00
       -2 -1    0    0    0  501 -0.0000000000e+00 -0.0000000000e+00 -5.5250929708e+02 5.5250929708e+02 0.0000000000e+00 0.0000e+00 1.0000e+00
      -13  1    1    2    0    0 -1.4675599869e+03 +2.4082275342e+02 +1.6602720455e+03 2.2289529333e+03 0.0000000000e+00 0.0000e+00 1.0000e+00
       13  1    1    2    0    0 +1.4675599869e+03 -2.4082275342e+02 +1.7937110850e+03 2.3300487914e+03 0.0000000000e+00 0.0000e+00 -1.0000e+00
<mgrwt>
<rscale>  0 0.29756507E+04</rscale>
<asrwt>0</asrwt>
<pdfrwt beam="1">  1        2 0.61638343E+00 0.29756507E+04</pdfrwt>
<pdfrwt beam="2">  1       -2 0.85001433E-01 0.29756507E+04</pdfrwt>
<totfact> 0.39991832E-01</totfact>
</mgrwt>
<rwgt>
<wgt id='morphing_basis_vector_1'> +8.1162227e-05 </wgt>
<wgt id='morphing_basis_vector_2'> +6.0610318e-05 </wgt>
<wgt id='morphing_basis_vector_3'> +8.9643887e-05 </wgt>
<wgt id='morphing_basis_vector_4'> +5.5731444e-05 </wgt>
<wgt id='morphing_basis_vector_5'> +9.6992136e-05 </wgt>
</rwgt>
</event>
<event>
 4      1 +7.3133000e-09 3.04502800e+03 7.81860800e-03 7.74094100e-02
        2 -1    0    0  501    0 +0.0000000000e+00 +0.0000000000e+00 +8.1708452250e+02 8.1708452250e+02 0.0000000000e+00 0.0000e+00 -1.0000e+00
       -2 -1    0    0    0  501 -0.0000000000e+00 -0.0000000000e+00 -2.8369762688e+03 2.8369762688e+03 0.0000000000e+00 0.0000e+00 1.0000e+00
      -13  1    1    2    0    0 +9.6276080279e+02 -3.7721316637e+02 -2.3509798701e+03 2.5683271766e+03 0.0000000000e+00 0.0000e+00 1.0000e+00
       13  1    1    2    0    0 -9.6276080279e+02 +3.7721316637e+02 +3.3108812386e+02 1.0857336147e+03 0.0000000000e+00 0.0000e+00 -1.0000e+00
<mgrwt>
<rscale>  0 0.30450283E+04</rscale>
<asrwt>0</asrwt>
<pdfrwt beam="1">  1        2 0.12570531E+00 0.30450283E+04</pdfrwt>
<pdfrwt beam="2">  1       -2 0.43645789E+00 0.30450283E+04</pdfrwt>
<totfact> 0.10626578E-01</totfact>
</mgrwt>
<rwgt>
<wgt id='morphing_basis_vector_1'> +8.6165664e-05 </wgt>
<wgt id='morphing_basis_vector_2'> +5.8306065e-05 </wgt>
<wgt id='morphing_basis_vector_3'> +9.3975009e-05 </wgt>
<wgt id='morphing_basis_vector_4'> +6.6915747e-05 </wgt>
<wgt id='morphing_basis_vector_5'> +1.0691791e-04 </wgt>
</rwgt>
</event>
<event>
 4      1 +7.3133000e-09 3.04757600e+03 7.81860800e-03 7.74031000e-02
        2 -1    0    0  501    0 +0.0000000000e+00 +0.0000000000e+00 +1.5521040276e+03 1.5521040276e+03 0.0000000000e+00 0.0000e+00 -1.0000e+00
       -2 -1    0    0    0  501 -0.0000000000e+00 -0.0000000000e+00 -1.4959887332e+03 1.4959887332e+03 0.0000000000e+00 0.0000e+00 1.0000e+00
      -13  1    1    2    0    0 -2.0633749227e+02 +1.2800336461e+03 -7.7262089227e+02 1.5093059130e+03 0.0000000000e+00 0.0000e+00 1.0000e+00
       13  1    1    2    0    0 +2.0633749227e+02 -1.2800336461e+03 +8.2873618661e+02 1.5387868478e+03 0.0000000000e+00 0.0000e+00 -1.0000e+00
<mgrwt>
<rscale>  0 0.30475762E+04</rscale>
<asrwt>0</asrwt>
<pdfrwt beam="1">  1        2 0.23878523E+00 0.30475762E+04</pdfrwt>
<pdfrwt beam="2">  1       -2 0.23015211E+00 0.30475762E+04</pdfrwt>
<totfact> 0.91853218E-01</totfact>
</mgrwt>
<rwgt>
<wgt id='morphing_basis_vector_1'> +8.6706556e-05 </wgt>
<wgt id='morphing_basis_vector_2'> +5.9250749e-05 </wgt>
<wgt id='morphing_basis_vector_3'> +9.4689079e-05 </wgt>
<wgt id='morphing_basis_vector_4'> +6.6610987e-05 </wgt>
<wgt id='morphing_basis_vector_5'> +1.0723561e-04 </wgt>
</rwgt>
</event>
<event>
 4      1 +7.3133000e-09 2.70730300e+03 7.81860800e-03 7.83067600e-02
        2 -1    0    0  501    0 +0.0000000000e+00 +0.0000000000e+00 +2.1339150180e+03 2.1339150180e+03 0.0000000000e+00 0.0000e+00 -1.0000e+00
       -2 -1    0    0    0  501 -0.0000000000e+00 -0.0000000000e+00 -8.5869072921e+02 8.5869072921e+02 0.0000000000e+00 0.0000e+00 1.0000e+00
      -13  1    1    2    0    0 -3.4193982864e+02 +2.4601498275e+02 -7.8439559717e+02 8.9034974645e+02 0.0000000000e+00 0.0000e+00 1.0000e+00
       13  1    1    2    0    0 +3.4193982864e+02 -2.4601498275e+02 +2.0596198859e+03 2.1022560007e+03 0.0000000000e+00 0.0000e+00 -1.0000e+00
<mgrwt>
<rscale>  0 0.27073035E+04</rscale>
<asrwt>0</asrwt>
<pdfrwt beam="1">  1        2 0.32829462E+00 0.27073035E+04</pdfrwt>
<pdfrwt beam="2">  1       -2 0.13210627E+00 0.27073035E+04</pdfrwt>
<totfact> 0.25397636E+00</totfact>
</mgrwt>
<rwgt>
<wgt id='morphing_basis_vector_1'> +5.4042994e-05 </wgt>
<wgt id='morphing_basis_vector_2'> +3.6354174e-05 </wgt>
<wgt id='morphing_basis_vector_3'> +5.8663000e-05 </wgt>
<wgt id='morphing_basis_vector_4'> +4.1731518e-05 </wgt>
<wgt id='morphing_basis_vector_5'> +6.6513077e-05 </wgt>
</rwgt>
</event>
<event>
 4      1 +7.3133000e-09 2.75547100e+03 7.81860800e-03 7.81708800e-02
        2 -1    0    0  501    0 +0.0000000000e+00 +0.0000000000e+00 +1.0094949472e+03 1.0094949472e+03 0.0000000000e+00 0.0000e+00 -1.0000e+00
       -2 -1    0    0    0  501 -0.0000000000e+00 -0.0000000000e+00 -1.8803019019e+03 1.8803019019e+03 0.0000000000e+00 0.0000e+00 1.0000e+00
      -13  1    1    2    0    0 -1.1255200101e+03 -6.5083294177e+02 +4.2642446291e+01 1.3008447984e+03 0.0000000000e+00 0.0000e+00 1.0000e+00
       13  1    1    2    0    0 +1.1255200101e+03 +6.5083294177e+02 -9.1344940100e+02 1.5889520507e+03 0.0000000000e+00 0.0000e+00 -1.0000e+00
<mgrwt>
<rscale>  0 0.27554711E+04</rscale>
<asrwt>0</asrwt>
<pdfrwt beam="1">  1        2 0.15530691E+00 0.27554711E+04</pdfrwt>
<pdfrwt beam="2">  1       -2 0.28927722E+00 0.27554711E+04</pdfrwt>
<totfact> 0.76012073E-01</totfact>
</mgrwt>
<rwgt>
<wgt id='morphing_basis_vector_1'> +6.4454270e-05 </wgt>
<wgt id='morphing_basis_vector_2'> +5.8175713e-05 </wgt>
<wgt id='morphing_basis_vector_3'> +7.3022985e-05 </wgt>
<wgt id='morphing_basis_vector_4'> +3.1359014e-05 </wgt>
<wgt id='morphing_basis_vector_5'> +7.0329004e-05 </wgt>
</rwgt>
</event>
<event>
 4      1 +7.3133000e-09 3.03014800e+03 7.81860800e-03 7.74464000e-02
        2 -1    0    0  501    0 +0.0000000000e+00 +0.0000000000e+00 +3.2078592216e+03 3.2078592216e+03 0.0000000000e+00 0.0000e+00 1.0000e+00
       -2 -1    0    0    0  501 -0.0000000000e+00 -0.0000000000e+00 -7.1557057032e+02 7.1557057032e+02 0.0000000000e+00 0.0000e+00 -1.0000e+00
      -13  1    1    2    0    0 -8.5590050700e+02 +8.8579061013e+02 +2.3884019655e+03 2.6873136460e+03 0.0000000000e+00 0.0000e+00 1.0000e+00
       13  1    1    2    0    0 +8.5590050700e+02 -8.8579061013e+02 +1.0388668579e+02 1.2361161460e+03 0.0000000000e+00 0.0000e+00 -1.0000e+00
<mgrwt>
<rscale>  0 0.30301483E+04</rscale>
<asrwt>0</asrwt>
<pdfrwt beam="1">  1        2 0.49351679E+00 0.30301483E+04</pdfrwt>
<pdfrwt beam="2">  1       -2 0.11008778E+00 0.30301483E+04</pdfrwt>
<totfact> 0.86272502E-01</totfact>
</mgrwt>
<rwgt>
<wgt id='morphing_basis_vector_1'> +1.0358289e-04 </wgt>
<wgt id='morphing_basis_vector_2'> +1.1335061e-04 </wgt>
<wgt id='morphing_basis_vector_3'> +1.2204182e-04 </wgt>
<wgt id='morphing_basis_vector_4'> +2.5863570e-05 </wgt>
<wgt id='morphing_basis_vector_5'> +1.0155723e-04 </wgt>
</rwgt>
</event>
<event>
 4      1 +7.3133000e-09 2.79439200e+03 7.81860800e-03 7.80631300e-02
        2 -1    0    0  501    0 +0.0000000000e+00 +0.0000000000e+00 +1.6935489136e+03 1.6935489136e+03 0.0000000000e+00 0.0000e+00 -1.0000e+00
       -2 -1    0    0    0  501 -0.0000000000e+00 -0.0000000000e+00 -1.1527019224e+03 1.1527019224e+03 0.0000000000e+00 0.0000e+00 1.0000e+00
      -13  1    1    2    0    0 -7.4005683294e+02 -2.9593362942e+02 -8.9843402773e+02 1.2010181228e+03 0.0000000000e+00 0.0000e+00 1.0000e+00
       13  1    1    2    0    0 +7.4005683294e+02 +2.9593362942e+02 +1.4392810190e+03 1.6452327132e+03 0.0000000000e+00 0.0000e+00 -1.0000e+00
<mgrwt>
<rscale>  0 0.27943923E+04</rscale>
<asrwt>0</asrwt>
<pdfrwt beam="1">  1        2 0.26054599E+00 0.27943923E+04</pdfrwt>
<pdfrwt beam="2">  1       -2 0.17733876E+00 0.27943923E+04</pdfrwt>
<totfact> 0.18980160E+00</totfact>
</mgrwt>
<rwgt>
<wgt id='morphing_basis_vector_1'> +6.1278297e-05 </wgt>
<wgt id='morphing_basis_vector_2'> +4.1305651e-05 </wgt>
<wgt id='morphing_basis_vector_3'> +6.6611299e-05 </wgt>
<wgt id='morphing_basis_vector_4'> +4.7381253e-05 </wgt>
<wgt id='morphing_basis_vector_5'> +7.5590603e-05 </wgt>
</rwgt>
</event>
<event>
 4      1 +7.3133000e-09 2.77095900e+03 7.81860800e-03 7.81277900e-02
        2 -1    0    0  501    0 +0.0000000000e+00 +0.0000000000e+00 +1.9774481451e+03 1.9774481451e+03 0.0000000000e+00 0.0000e+00 -1.0000e+00
       -2 -1    0    0    0  501 -0.0000000000e+00 -0.0000000000e+00 -9.7072232485e+02 9.7072232485e+02 0.0000000000e+00 0.0000e+00 1.0000e+00
      -13  1    1    2    0    0 -1.2256895084e+03 -3.5771533003e+02 -6.8879792058e+01 1.2786787924e+03 0.0000000000e+00 0.0000e+00 1.0000e+00
       13  1    1    2    0    0 +1.2256895084e+03 +3.5771533003e+02 +1.0756056123e+03 1.6694916775e+03 0.0000000000e+00 0.0000e+00 -1.0000e+00
<mgrwt>
<rscale>  0 0.27709587E+04</rscale>
<asrwt>0</asrwt>
<pdfrwt beam="1">  1        2 0.30422279E+00 0.27709587E+04</pdfrwt>
<pdfrwt beam="2">  1       -2 0.14934190E+00 0.27709587E+04</pdfrwt>
<totfact> 0.22036105E+00</totfact>
</mgrwt>
<rwgt>
<wgt id='morphing_basis_vector_1'> +5.9705328e-05 </wgt>
<wgt id='morphing_basis_vector_2'> +4.1227622e-05 </wgt>
<wgt id='morphing_basis_vector_3'> +6.5081968e-05 </wgt>
<wgt id='morphing_basis_vector_4'> +4.4894591e-05 </wgt>
<wgt id='morphing_basis_vector_5'> +7.2987642e-05 </wgt>
</rwgt>
</event>
<event>
 4      1 +7.3133000e-09 2.70113400e+03 7.81860800e-03 7.83243700e-02
        2 -1    0    0  501    0 +0.0000000000e+00 +0.0000000000e+00 +1.6966728399e+03 1.6966728399e+03 0.0000000000e+00 0.0000e+00 -1.0000e+00
       -2 -1    0    0    0  501 -0.0000000000e+00 -0.0000000000e+00 -1.0750633912e+03 1.0750633912e+03 0.0000000000e+00 0.0000e+00 1.0000e+00
      -13  1    1    2    0    0 +4.7914997607e+02 -1.4166631788e+02 -9.7673357043e+02 1.0971155421e+03 0.0000000000e+00 0.0000e+00 1.0000e+00
       13  1    1    2    0    0 -4.7914997607e+02 +1.4166631788e+02 +1.5983430191e+03 1.6746206890e+03 0.0000000000e+00 0.0000e+00 -1.0000e+00
<mgrwt>
<rscale>  0 0.27011337E+04</rscale>
<asrwt>0</asrwt>
<pdfrwt beam="1">  1        2 0.26102659E+00 0.27011337E+04</pdfrwt>
<pdfrwt beam="2">  1       -2 0.16539437E+00 0.27011337E+04</pdfrwt>
<totfact> 0.23592195E+00</totfact>
</mgrwt>
<rwgt>
<wgt id='morphing_basis_vector_1'> +5.3559021e-05 </wgt>
<wgt id='morphing_basis_vector_2'> +3.6029930e-05 </wgt>
<wgt id='morphing_basis_vector_3'> +5.8132889e-05 </wgt>
<wgt id='morphing_basis_vector_4'> +4.1345220e-05 </wgt>
<wgt id='morphing_basis_vector_5'> +6.5902001e-05 </wgt>
</rwgt>
</event>
<event>
 4      1 +7.3133000e-09 2.73132200e+03 7.81860800e-03 7.82386400e-02
        2 -1    0    0  501    0 +0.0000000000e+00 +0.0000000000e+00 +1.1435459006e+03 1.1435459006e+03 0.0000000000e+00 0.0000e+00 -1.0000e+00
       -2 -1    0    0    0  501 -0.0000000000e+00 -0.0000000000e+00 -1.6309188706e+03 1.6309188706e+03 0.0000000000e+00 0.0000e+00 1.0000e+00
      -13  1    1    2    0    0 +1.1707944625e+03 -2.5132764326e+02 -9.1064364027e+02 1.5043926008e+03 0.0000000000e+00 0.0000e+00 1.0000e+00
       13  1    1    2    0    0 -1.1707944625e+03 +2.5132764326e+02 +4.2327067021e+02 1.2700721704e+03 0.0000000000e+00 0.0000e+00 -1.0000e+00
<mgrwt>
<rscale>  0 0.27313225E+04</rscale>
<asrwt>0</asrwt>
<pdfrwt beam="1">  1        2 0.17593014E+00 0.27313225E+04</pdfrwt>
<pdfrwt beam="2">  1       -2 0.25091060E+00 0.27313225E+04</pdfrwt>
<totfact> 0.11569237E+00</totfact>
</mgrwt>
<rwgt>
<wgt id='morphing_basis_vector_1'> +5.6239774e-05 </wgt>
<wgt id='morphing_basis_vector_2'> +3.8466419e-05 </wgt>
<wgt id='morphing_basis_vector_3'> +6.1196367e-05 </wgt>
<wgt id='morphing_basis_vector_4'> +4.2679929e-05 </wgt>
<wgt id='morphing_basis_vector_5'> +6.8884966e-05 </wgt>
</rwgt>
</event>
<event>
 4      1 +7.3133000e-09 2.87684300e+03 7.81860800e-03 7.78406400e-02
        2 -1    0    0  501    0 +0.0000000000e+00 +0.0000000000e+00 +1.5791270413e+03 1.5791270413e+03 0.0000000000e+00 0.0000e+00 -1.0000e+00
       -2 -1    0    0    0  501 -0.0000000000e+00 -0.0000000000e+00 -1.3102532172e+03 1.3102532172e+03 0.0000000000e+00 0.0000e+00 1.0000e+00
      -13  1    1    2    0    0 +3.5458117781e+02 +1.3814422962e+03 -5.3315340799e+01 1.4272186780e+03 0.0000000000e+00 0.0000e+00 1.0000e+00
       13  1    1    2    0    0 -3.5458117781e+02 -1.3814422962e+03 +3.2218916496e+02 1.4621615805e+03 0.0000000000e+00 0.0000e+00 -1.0000e+00
<mgrwt>
<rscale>  0 0.28768429E+04</rscale>
<asrwt>0</asrwt>
<pdfrwt beam="1">  1        2 0.24294262E+00 0.28768429E+04</pdfrwt>
<pdfrwt beam="2">  1       -2 0.20157742E+00 0.28768429E+04</pdfrwt>
<totfact> 0.14399908E+00</totfact>
</mgrwt>
<rwgt>
<wgt id='morphing_basis_vector_1'> +7.0287681e-05 </wgt>
<wgt id='morphing_basis_vector_2'> +5.0892003e-05 </wgt>
<wgt id='morphing_basis_vector_3'> +7.7207220e-05 </wgt>
<wgt id='morphing_basis_vector_4'> +5.0106033e-05 </wgt>
<wgt id='morphing_basis_vector_5'> +8.4752246e-05 </wgt>
</rwgt>
</event>
<event>
 4      1 +7.3133000e-09 2.67099800e+03 7.81860800e-03 7.84110900e-02
        2 -1    0    0  501    0 +0.0000000000e+00 +0.0000000000e+00 +1.5693681813e+03 1.5693681813e+03 0.0000000000e+00 0.0000e+00 1.0000e+00
       -2 -1    0    0    0  501 -0.0000000000e+00 -0.0000000000e+00 -1.1364808746e+03 1.1364808746e+03 0.0000000000e+00 0.0000e+00 -1.0000e+00
      -13  1    1    2    0    0 -5.3953015931e+02 +5.3170090525e+02 +1.3306852933e+03 1.5311832011e+03 0.0000000000e+00 0.0000e+00 1.0000e+00
       13  1    1    2    0    0 +5.3953015931e+02 -5.3170090525e+02 -8.9779798665e+02 1.1746658547e+03 0.0000000000e+00 0.0000e+00 -1.0000e+00
<mgrwt>
<rscale>  0 0.26709975E+04</rscale>
<asrwt>0</asrwt>
<pdfrwt beam="1">  1        2 0.24144126E+00 0.26709975E+04</pdfrwt>
<pdfrwt beam="2">  1       -2 0.17484321E+00 0.26709975E+04</pdfrwt>
<totfact> 0.23506086E+00</totfact>
</mgrwt>
<rwgt>
<wgt id='morphing_basis_vector_1'> +6.8723808e-05 </wgt>
<wgt id='morphing_basis_vector_2'> +8.6022914e-05 </wgt>
<wgt id='morphing_basis_vector_3'> +8.2551817e-05 </wgt>
<wgt id='morphing_basis_vector_4'> +3.4404982e-06 </wgt>
<wgt id='morphing_basis_vector_5'> +6.0038468e-05 </wgt>
</rwgt>
</event>
<event>
 4      1 +7.3133000e-09 2.91990600e+03 7.81860800e-03 7.77274100e-02
        2 -1    0    0  501    0 +0.0000000000e+00 +0.0000000000e+00 +1.4354174722e+03 1.4354174722e+03 0.0000000000e+00 0.0000e+00 -1.0000e+00
       -2 -1    0    0    0  501 -0.0000000000e+00 -0.0000000000e+00 -1.4849082846e+03 1.4849082846e+03 0.0000000000e+00 0.0000e+00 1.0000e+00
      -13  1    1    2    0    0 -7.2487617979e+02 +1.5970346462e+01 -1.2921143652e+03 1.4816410027e+03 0.0000000000e+00 0.0000e+00 1.0000e+00
       13  1    1    2    0    0 +7.2487617979e+02 -1.5970346462e+01 +1.2426235528e+03 1.4386847542e+03 0.0000000000e+00 0.0000e+00 -1.0000e+00
<mgrwt>
<rscale>  0 0.29199064E+04</rscale>
<asrwt>0</asrwt>
<pdfrwt beam="1">  1        2 0.22083346E+00 0.29199064E+04</pdfrwt>
<pdfrwt beam="2">  1       -2 0.22844743E+00 0.29199064E+04</pdfrwt>
<totfact> 0.11094737E+00</totfact>
</mgrwt>
<rwgt>
<wgt id='morphing_basis_vector_1'> +7.2910056e-05 </wgt>
<wgt id='morphing_basis_vector_2'> +4.9166505e-05 </wgt>
<wgt id='morphing_basis_vector_3'> +7.9378203e-05 </wgt>
<wgt id='morphing_basis_vector_4'> +5.6608065e-05 </wgt>
<wgt id='morphing_basis_vector_5'> +9.0271785e-05 </wgt>
</rwgt>
</event>
<event>
 4      1 +7.3133000e-09 2.74188000e+03 7.81860800e-03 7.82089300e-02
        2 -1    0    0  501    0 +0.0000000000e+00 +0.0000000000e+00 +2.2807640570e+03 2.2807640570e+03 0.0000000000e+00 0.0000e+00 -1.0000e+00
       -2 -1    0    0    0  501 -0.0000000000e+00 -0.0000000000e+00 -8.2405542587e+02 8.2405542587e+02 0.0000000000e+00 0.0000e+00 1.0000e+00
      -13  1    1    2    0    0 +2.7263879427e+02 -3.4677142790e+02 -7.4149974239e+02 8.6278862029e+02 0.0000000000e+00 0.0000e+00 1.0000e+00
       13  1    1    2    0    0 -2.7263879427e+02 +3.4677142790e+02 +2.1982083735e+03 2.2420308626e+03 0.0000000000e+00 0.0000e+00 -1.0000e+00
<mgrwt>
<rscale>  0 0.27418796E+04</rscale>
<asrwt>0</asrwt>
<pdfrwt beam="1">  1        2 0.35088678E+00 0.27418796E+04</pdfrwt>
<pdfrwt beam="2">  1       -2 0.12677776E+00 0.27418796E+04</pdfrwt>
<totfact> 0.23273701E+00</totfact>
</mgrwt>
<rwgt>
<wgt id='morphing_basis_vector_1'> +5.6825693e-05 </wgt>
<wgt id='morphing_basis_vector_2'> +3.8239255e-05 </wgt>
<wgt id='morphing_basis_vector_3'> +6.1715506e-05 </wgt>
<wgt id='morphing_basis_vector_4'> +4.3927463e-05 </wgt>
<wgt id='morphing_basis_vector_5'> +7.0014800e-05 </wgt>
</rwgt>
</event>
<event>
 4      1 +7.3133000e-09 2.80237300e+03 7.81860800e-03 7.80412500e-02
        2 -1    0    0  501    0 +0.0000000000e+00 +0.0000000000e+00 +7.4985745825e+02 7.4985745825e+02 0.0000000000e+00 0.0000e+00 -1.0000e+00
       -2 -1    0    0    0  501 -0.0000000000e+00 -0.0000000000e+00 -2.6182633129e+03 2.6182633129e+03 0.0000000000e+00 0.0000e+00 1.0000e+00
      -13  1    1    2    0    0 +3.5246720852e+02 +1.2650901261e+03 -1.5213292409e+03 2.0097583983e+03 0.0000000000e+00 0.0000e+00 1.0000e+00
       13  1    1    2    0    0 -3.5246720852e+02 -1.2650901261e+03 -3.4707661371e+02 1.3583623728e+03 0.0000000000e+00 0.0000e+00 -1.0000e+00
<mgrwt>
<rscale>  0 0.28023735E+04</rscale>
<asrwt>0</asrwt>
<pdfrwt beam="1">  1        2 0.11536269E+00 0.28023735E+04</pdfrwt>
<pdfrwt beam="2">  1       -2 0.40280974E+00 0.28023735E+04</pdfrwt>
<totfact> 0.20272998E-01</totfact>
</mgrwt>
<rwgt>
<wgt id='morphing_basis_vector_1'> +6.2523800e-05 </wgt>
<wgt id='morphing_basis_vector_2'> +4.3397789e-05 </wgt>
<wgt id='morphing_basis_vector_3'> +6.8228368e-05 </wgt>
<wgt id='morphing_basis_vector_4'> +4.6791641e-05 </wgt>
<wgt id='morphing_basis_vector_5'> +7.6373642e-05 </wgt>
</rwgt>
</event>
<event>
 4      1 +7.3133000e-09 3.00554300e+03 7.81860800e-03 7.75080300e-02
        2 -1    0    0  501    0 +0.0000000000e+00 +0.0000000000e+00 +2.1404904155e+03 2.1404904155e+03 0.0000000000e+00 0.0000e+00 1.0000e+00
       -2 -1    0    0    0  501 -0.0000000000e+00 -0.0000000000e+00 -1.0550492569e+03 1.0550492569e+03 0.0000000000e+00 0.0000e+00 -1.0000e+00
      -13  1    1    2    0    0 -4.9178780703e+02 +1.6143444428e+02 +2.0427234713e+03 2.1072815444e+03 0.0000000000e+00 0.0000e+00 1.0000e+00
       13  1    1    2    0    0 +4.9178780703e+02 -1.6143444428e+02 -9.5728231275e+02 1.0882581280e+03 0.0000000000e+00 0.0000e+00 -1.0000e+00
<mgrwt>
<rscale>  0 0.30055434E+04</rscale>
<asrwt>0</asrwt>
<pdfrwt beam="1">  1        2 0.32930622E+00 0.30055434E+04</pdfrwt>
<pdfrwt beam="2">  1       -2 0.16231527E+00 0.30055434E+04</pdfrwt>
<totfact> 0.13705445E+00</totfact>
</mgrwt>
<rwgt>
<wgt id='morphing_basis_vector_1'> +1.1176824e-04 </wgt>
<wgt id='morphing_basis_vector_2'> +1.4354830e-04 </wgt>
<wgt id='morphing_basis_vector_3'> +1.3608139e-04 </wgt>
<wgt id='morphing_basis_vector_4'> +1.1225840e-06 </wgt>
<wgt id='morphing_basis_vector_5'> +9.6307330e-05 </wgt>
</rwgt>
</event>
<event>
 4      1 +7.3133000e-09 2.82827000e+03 7.81860800e-03 7.79707800e-02
        2 -1    0    0  501    0 +0.0000000000e+00 +0.0000000000e+00 +3.3351530191e+03 3.3351530191e+03 0.0000000000e+00 0.0000e+00 1.0000e+00
       -2 -1    0    0    0  501 -0.0000000000e+00 -0.0000000000e+00 -5.9960586703e+02 5.9960586703e+02 0.0000000000e+00 0.0000e+00 -1.0000e+00
      -13  1    1    2    0    0 +1.5041754891e+02 +1.2934628795e+03 +2.1349752830e+03 2.5007581088e+03 0.0000000000e+00 0.0000e+00 -1.0000e+00
       13  1    1    2    0    0 -1.5041754891e+02 -1.2934628795e+03 +6.0057186905e+02 1.4340007773e+03 0.0000000000e+00 0.0000e+00 1.0000e+00
<mgrwt>
<rscale>  0 0.28282697E+04</rscale>
<asrwt>0</asrwt>
<pdfrwt beam="1">  1        2 0.51310045E+00 0.28282697E+04</pdfrwt>
<pdfrwt beam="2">  1       -2 0.92247058E-01 0.28282697E+04</pdfrwt>
<totfact> 0.11004226E+00</totfact>
</mgrwt>
<rwgt>
<wgt id='morphing_basis_vector_1'> +7.2898990e-05 </wgt>
<wgt id='morphing_basis_vector_2'> +6.8757081e-05 </wgt>
<wgt id='morphing_basis_vector_3'> +8.3304502e-05 </wgt>
<wgt id='morphing_basis_vector_4'> +3.1864452e-05 </wgt>
<wgt id='morphing_basis_vector_5'> +7.7898390e-05 </wgt>
</rwgt>
</event>
<event>
 4      1 +7.3133000e-09 2.84990600e+03 7.81860800e-03 7.79124800e-02
        2 -1    0    0  501    0 +0.0000000000e+00 +0.0000000000e+00 +1.9140742808e+03 1.9140742808e+03 0.0000000000e+00 0.0000e+00 -1.0000e+00
       -2 -1    0    0    0  501 -0.0000000000e+00 -0.0000000000e+00 -1.0608213559e+03 1.0608213559e+03 0.0000000000e+00 0.0000e+00 1.0000e+00
      -13  1    1    2    0    0 -7.3614008378e+02 -3.4839571514e+01 -8.4644105072e+02 1.1223094364e+03 0.0000000000e+00 0.0000e+00 1.0000e+00
       13  1    1    2    0    0 +7.3614008378e+02 +3.4839571514e+01 +1.6996939756e+03 1.8525862003e+03 0.0000000000e+00 0.0000e+00 -1.0000e+00
<mgrwt>
<rscale>  0 0.28499059E+04</rscale>
<asrwt>0</asrwt>
<pdfrwt beam="1">  1        2 0.29447297E+00 0.28499059E+04</pdfrwt>
<pdfrwt beam="2">  1       -2 0.16320329E+00 0.28499059E+04</pdfrwt>
<totfact> 0.18338021E+00</totfact>
</mgrwt>
<rwgt>
<wgt id='morphing_basis_vector_1'> +6.6231662e-05 </wgt>
<wgt id='morphing_basis_vector_2'> +4.4643970e-05 </wgt>
<wgt id='morphing_basis_vector_3'> +7.2045045e-05 </wgt>
<wgt id='morphing_basis_vector_4'> +5.1319481e-05 </wgt>
<wgt id='morphing_basis_vector_5'> +8.1844903e-05 </wgt>
</rwgt>
</event>
<event>
 4      1 +7.3133000e-09 3.00624600e+03 7.81860800e-03 7.75062700e-02
        2 -1    0    0  501    0 +0.0000000000e+00 +0.0000000000e+00 +3.2604103364e+03 3.2604103364e+03 0.0000000000e+00 0.0000e+00 1.0000e+00
       -2 -1    0    0    0  501 -0.0000000000e+00 -0.0000000000e+00 -6.9297380892e+02 6.9297380892e+02 0.0000000000e+00 0.0000e+00 -1.0000e+00
      -13  1    1    2    0    0 -5.8717787252e+02 +8.5954753233e+02 -1.4224178443e+02 1.0506343510e+03 0.0000000000e+00 0.0000e+00 -1.0000e+00
       13  1    1    2    0    0 +5.8717787252e+02 -8.5954753233e+02 +2.7096783119e+03 2.9027497943e+03 0.0000000000e+00 0.0000e+00 1.0000e+00
<mgrwt>
<rscale>  0 0.30062461E+04</rscale>
<asrwt>0</asrwt>
<pdfrwt beam="1">  1        2 0.50160158E+00 0.30062461E+04</pdfrwt>
<pdfrwt beam="2">  1       -2 0.10661136E+00 0.30062461E+04</pdfrwt>
<totfact> 0.86198952E-01</totfact>
</mgrwt>
<rwgt>
<wgt id='morphing_basis_vector_1'> +8.1905413e-05 </wgt>
<wgt id='morphing_basis_vector_2'> +5.5428218e-05 </wgt>
<wgt id='morphing_basis_vector_3'> +8.9294831e-05 </wgt>
<wgt id='morphing_basis_vector_4'> +6.3525279e-05 </wgt>
<wgt id='morphing_basis_vector_5'> +1.0152731e-04 </wgt>
</rwgt>
</event>
<event>
 4      1 +7.3133000e-09 2.69616900e+03 7.81860800e-03 7.83385800e-02
        2 -1    0    0  501    0 +0.0000000000e+00 +0.0000000000e+00 +1.2300582863e+03 1.2300582863e+03 0.0000000000e+00 0.0000e+00 -1.0000e+00
       -2 -1    0    0    0  501 -0.0000000000e+00 -0.0000000000e+00 -1.4774352809e+03 1.4774352809e+03 0.0000000000e+00 0.0000e+00 1.0000e+00
      -13  1    1    2    0    0 -5.4857803337e+02 +1.1100995037e+03 -6.5891195782e+02 1.4026488281e+03 0.0000000000e+00 0.0000e+00 1.0000e+00
       13  1    1    2    0    0 +5.4857803337e+02 -1.1100995037e+03 +4.1153496324e+02 1.3048447390e+03 0.0000000000e+00 0.0000e+00 -1.0000e+00
<mgrwt>
<rscale>  0 0.26961688E+04</rscale>
<asrwt>0</asrwt>
<pdfrwt beam="1">  1        2 0.18923974E+00 0.26961688E+04</pdfrwt>
<pdfrwt beam="2">  1       -2 0.22729773E+00 0.26961688E+04</pdfrwt>
<totfact> 0.15084651E+00</totfact>
</mgrwt>
<rwgt>
<wgt id='morphing_basis_vector_1'> +5.3566145e-05 </wgt>
<wgt id='morphing_basis_vector_2'> +3.6932804e-05 </wgt>
<wgt id='morphing_basis_vector_3'> +5.8317597e-05 </wgt>
<wgt id='morphing_basis_vector_4'> +4.0222557e-05 </wgt>
<wgt id='morphing_basis_vector_5'> +6.5346932e-05 </wgt>
</rwgt>
</event>
<event>
 4      1 +7.3133000e-09 2.90779600e+03 7.81860800e-03 7.77590500e-02
        2 -1    0    0  501    0 +0.0000000000e+00 +0.0000000000e+00 +2.6733809829e+03 2.6733809829e+03 0.0000000000e+00 0.0000e+00 1.0000e+00
       -2 -1    0    0    0  501 -0.0000000000e+00 -0.0000000000e+00 -7.9069135470e+02 7.9069135470e+02 0.0000000000e+00 0.0000e+00 -1.0000e+00
      -13  1    1    2    0    0 -1.2255056977e+03 +3.8369406366e+02 +1.2921547074e+02 1.2906517685e+03 0.0000000000e+00 0.0000e+00 -1.0000e+00
       13  1    1    2    0    0 +1.2255056977e+03 -3.8369406366e+02 +1.7534741575e+03 2.1734205692e+03 0.0000000000e+00 0.0000e+00 1.0000e+00
<mgrwt>
<rscale>  0 0.29077959E+04</rscale>
<asrwt>0</asrwt>
<pdfrwt beam="1">  1        2 0.41128938E+00 0.29077959E+04</pdfrwt>
<pdfrwt beam="2">  1       -2 0.12164483E+00 0.29077959E+04</pdfrwt>
<totfact> 0.14932471E+00</totfact>
</mgrwt>
<rwgt>
<wgt id='morphing_basis_vector_1'> +7.2081481e-05 </wgt>
<wgt id='morphing_basis_vector_2'> +4.9425590e-05 </wgt>
<wgt id='morphing_basis_vector_3'> +7.8634988e-05 </wgt>
<wgt id='morphing_basis_vector_4'> +5.4914223e-05 </wgt>
<wgt id='morphing_basis_vector_5'> +8.8707896e-05 </wgt>
</rwgt>
</event>
<event>
 4      1 +7.3133000e-09 2.72568700e+03 7.81860800e-03 7.82545600e-02
        2 -1    0    0  501    0 +0.0000000000e+00 +0.0000000000e+00 +2.4409085760e+03 2.4409085760e+03 0.0000000000e+00 0.0000e+00 -1.0000e+00
       -2 -1    0    0    0  501 -0.0000000000e+00 -0.0000000000e+00 -7.6092267336e+02 7.6092267336e+02 0.0000000000e+00 0.0000e+00 1.0000e+00
      -13  1    1    2    0    0 +5.0109291239e+02 +4.6713302434e+02 -5.4396431810e+02 8.7475970908e+02 0.0000000000e+00 0.0000e+00 1.0000e+00
       13  1    1    2    0    0 -5.0109291239e+02 -4.6713302434e+02 +2.2239502207e+03 2.3270715403e+03 0.0000000000e+00 0.0000e+00 -1.0000e+00
<mgrwt>
<rscale>  0 0.27256872E+04</rscale>
<asrwt>0</asrwt>
<pdfrwt beam="1">  1        2 0.37552440E+00 0.27256872E+04</pdfrwt>
<pdfrwt beam="2">  1       -2 0.11706503E+00 0.27256872E+04</pdfrwt>
<totfact> 0.23128960E+00</totfact>
</mgrwt>
<rwgt>
<wgt id='morphing_basis_vector_1'> +5.5519779e-05 </wgt>
<wgt id='morphing_basis_vector_2'> +3.7378058e-05 </wgt>
<wgt id='morphing_basis_vector_3'> +6.0287526e-05 </wgt>
<wgt id='morphing_basis_vector_4'> +4.2867198e-05 </wgt>
<wgt id='morphing_basis_vector_5'> +6.8356433e-05 </wgt>
</rwgt>
</event>
<event>
 4      1 +7.3133000e-09 2.90174400e+03 7.81860800e-03 7.77749200e-02
        2 -1    0    0  501    0 +0.0000000000e+00 +0.0000000000e+00 +1.1390761674e+03 1.1390761674e+03 0.0000000000e+00 0.0000e+00 -1.0000e+00
       -2 -1    0    0    0  501 -0.0000000000e+00 -0.0000000000e+00 -1.8480145481e+03 1.8480145481e+03 0.0000000000e+00 0.0000e+00 1.0000e+00
      -13  1    1    2    0    0 +5.6456805485e+02 -1.2149760366e+03 -9.2773766414e+02 1.6296014947e+03 0.0000000000e+00 0.0000e+00 1.0000e+00
       13  1    1    2    0    0 -5.6456805485e+02 +1.2149760366e+03 +2.1879928349e+02 1.3574892208e+03 0.0000000000e+00 0.0000e+00 -1.0000e+00
<mgrwt>
<rscale>  0 0.29017438E+04</rscale>
<asrwt>0</asrwt>
<pdfrwt beam="1">  1        2 0.17524249E+00 0.29017438E+04</pdfrwt>
<pdfrwt beam="2">  1       -2 0.28430993E+00 0.29017438E+04</pdfrwt>
<totfact> 0.67734133E-01</totfact>
</mgrwt>
<rwgt>
<wgt id='morphing_basis_vector_1'> +7.1677825e-05 </wgt>
<wgt id='morphing_basis_vector_2'> +4.9573282e-05 </wgt>
<wgt id='morphing_basis_vector_3'> +7.8277092e-05 </wgt>
<wgt id='morphing_basis_vector_4'> +5.4062170e-05 </wgt>
<wgt id='morphing_basis_vector_5'> +8.7932601e-05 </wgt>
</rwgt>
</event>
<event>
 4      1 +7.3133000e-09 2.75842100e+03 7.81860800e-03 7.81626500e-02
        2 -1    0    0  501    0 +0.0000000000e+00 +0.0000000000e+00 +1.6917796334e+03 1.6917796334e+03 0.0000000000e+00 0.0000e+00 1.0000e+00
       -2 -1    0    0    0  501 -0.0000000000e+00 -0.0000000000e+00 -1.1243909306e+03 1.1243909306e+03 0.0000000000e+00 0.0000e+00 -1.0000e+00
      -13  1    1    2    0    0 -9.3380599433e+02 +8.9154502412e+02 -2.1161785891e+02 1.3082921246e+03 0.0000000000e+00 0.0000e+00 -1.0000e+00
       13  1    1    2    0    0 +9.3380599433e+02 -8.9154502412e+02 +7.7900656171e+02 1.5078784395e+03 0.0000000000e+00 0.0000e+00 1.0000e+00
<mgrwt>
<rscale>  0 0.27584211E+04</rscale>
<asrwt>0</asrwt>
<pdfrwt beam="1">  1        2 0.26027379E+00 0.27584211E+04</pdfrwt>
<pdfrwt beam="2">  1       -2 0.17298322E+00 0.27584211E+04</pdfrwt>
<totfact> 0.20613475E+00</totfact>
</mgrwt>
<rwgt>
<wgt id='morphing_basis_vector_1'> +5.8724295e-05 </wgt>
<wgt id='morphing_basis_vector_2'> +4.0728321e-05 </wgt>
<wgt id='morphing_basis_vector_3'> +6.4037963e-05 </wgt>
<wgt id='morphing_basis_vector_4'> +4.3912123e-05 </wgt>
<wgt id='morphing_basis_vector_5'> +7.1648371e-05 </wgt>
</rwgt>
</event>
<event>
 4      1 +7.3133000e-09 3.07734200e+03 7.81860800e-03 7.73298500e-02
        2 -1    0    0  501    0 +0.0000000000e+00 +0.0000000000e+00 +1.8431482879e+03 1.8431482879e+03 0.0000000000e+00 0.0000e+00 1.0000e+00
       -2 -1    0    0    0  501 -0.0000000000e+00 -0.0000000000e+00 -1.2844912592e+03 1.2844912592e+03 0.0000000000e+00 0.0000e+00 -1.0000e+00
      -13  1    1    2    0    0 -2.0424126481e+02 +2.8873892314e+02 -1.2426193463e+03 1.2919703943e+03 0.0000000000e+00 0.0000e+00 -1.0000e+00
       13  1    1    2    0    0 +2.0424126481e+02 -2.8873892314e+02 +1.8012763749e+03 1.8356691529e+03 0.0000000000e+00 0.0000e+00 1.0000e+00
<mgrwt>
<rscale>  0 0.30773416E+04</rscale>
<asrwt>0</asrwt>
<pdfrwt beam="1">  1        2 0.28356128E+00 0.30773416E+04</pdfrwt>
<pdfrwt beam="2">  1       -2 0.19761404E+00 0.30773416E+04</pdfrwt>
<totfact> 0.10787638E+00</totfact>
</mgrwt>
<rwgt>
<wgt id='morphing_basis_vector_1'> +8.9763474e-05 </wgt>
<wgt id='morphing_basis_vector_2'> +6.0560653e-05 </wgt>
<wgt id='morphing_basis_vector_3'> +9.7891644e-05 </wgt>
<wgt id='morphing_basis_vector_4'> +7.0003857e-05 </wgt>
<wgt id='morphing_basis_vector_5'> +1.1158372e-04 </wgt>
</rwgt>
</event>
<event>
 4      1 +7.3133000e-09 2.97083400e+03 7.81860800e-03 7.75960300e-02
        2 -1    0    0  501    0 +0.0000000000e+00 +0.0000000000e+00 +2.8253221969e+03 2.8253221969e+03 0.0000000000e+00 0.0000e+00 -1.0000e+00
       -2 -1    0    0    0  501 -0.0000000000e+00 -0.0000000000e+00 -7.8096023027e+02 7.8096023027e+02 0.0000000000e+00 0.0000e+00 1.0000e+00
      -13  1    1    2    0    0 -1.0366607561e+03 +3.2793684925e+02 -2.0634850451e+02 1.1067013172e+03 0.0000000000e+00 0.0000e+00 1.0000e+00
       13  1    1    2    0    0 +1.0366607561e+03 -3.2793684925e+02 +2.2507104711e+03 2.4995811099e+03 0.0000000000e+00 0.0000e+00 -1.0000e+00
<mgrwt>
<rscale>  0 0.29708344E+04</rscale>
<asrwt>0</asrwt>
<pdfrwt beam="1">  1        2 0.43466495E+00 0.29708344E+04</pdfrwt>
<pdfrwt beam="2">  1       -2 0.12014773E+00 0.29708344E+04</pdfrwt>
<totfact> 0.12341066E+00</totfact>
</mgrwt>
<rwgt>
<wgt id='morphing_basis_vector_1'> +7.8178495e-05 </wgt>
<wgt id='morphing_basis_vector_2'> +5.2962204e-05 </wgt>
<wgt id='morphing_basis_vector_3'> +8.5211872e-05 </wgt>
<wgt id='morphing_basis_vector_4'> +6.0495686e-05 </wgt>
<wgt id='morphing_basis_vector_5'> +9.6781244e-05 </wgt>
</rwgt>
</event>
<event>
 4      1 +7.3133000e-09 2.95551800e+03 7.81860800e-03 7.76352600e-02
        2 -1    0    0  501    0 +0.0000000000e+00 +0.0000000000e+00 +2.5069960303e+03 2.5069960303e+03 0.0000000000e+00 0.0000e+00 -1.0000e+00
       -2 -1    0    0    0  501 -0.0000000000e+00 -0.0000000000e+00 -8.7107086501e+02 8.7107086501e+02 0.0000000000e+00 0.0000e+00 1.0000e+00
      -13  1    1    2    0    0 +1.0963125397e+03 +9.7509789652e+02 +6.1654646795e+02 1.5914919540e+03 0.0000000000e+00 0.0000e+00 1.0000e+00
       13  1    1    2    0    0 -1.0963125397e+03 -9.7509789652e+02 +1.0193786974e+03 1.7865749414e+03 0.0000000000e+00 0.0000e+00 -1.0000e+00
<mgrwt>
<rscale>  0 0.29555177E+04</rscale>
<asrwt>0</asrwt>
<pdfrwt beam="1">  1        2 0.38569169E+00 0.29555177E+04</pdfrwt>
<pdfrwt beam="2">  1       -2 0.13401090E+00 0.29555177E+04</pdfrwt>
<totfact> 0.14504026E+00</totfact>
</mgrwt>
<rwgt>
<wgt id='morphing_basis_vector_1'> +7.8289167e-05 </wgt>
<wgt id='morphing_basis_vector_2'> +5.6877396e-05 </wgt>
<wgt id='morphing_basis_vector_3'> +8.6118862e-05 </wgt>
<wgt id='morphing_basis_vector_4'> +5.5720021e-05 </wgt>
<wgt id='morphing_basis_vector_5'> +9.4493352e-05 </wgt>
</rwgt>
</event>
<event>
 4      1 +7.3133000e-09 2.81051800e+03 7.81860800e-03 7.80190100e-02
        2 -1    0    0  501    0 +0.0000000000e+00 +0.0000000000e+00 +1.4913781032e+03 1.4913781032e+03 0.0000000000e+00 0.0000e+00 1.0000e+00
       -2 -1    0    0    0  501 -0.0000000000e+00 -0.0000000000e+00 -1.3241125187e+03 1.3241125187e+03 0.0000000000e+00 0.0000e+00 -1.0000e+00
      -13  1    1    2    0    0 -4.4504052163e+02 +1.0422386493e+03 -7.4875858582e+02 1.3582937414e+03 0.0000000000e+00 0.0000e+00 -1.0000e+00
       13  1    1    2    0    0 +4.4504052163e+02 -1.0422386493e+03 +9.1602417031e+02 1.4571968805e+03 0.0000000000e+00 0.0000e+00 1.0000e+00
<mgrwt>
<rscale>  0 0.28105177E+04</rscale>
<asrwt>0</asrwt>
<pdfrwt beam="1">  1        2 0.22944279E+00 0.28105177E+04</pdfrwt>
<pdfrwt beam="2">  1       -2 0.20370962E+00 0.28105177E+04</pdfrwt>
<totfact> 0.15644022E+00</totfact>
</mgrwt>
<rwgt>
<wgt id='morphing_basis_vector_1'> +6.2832723e-05 </wgt>
<wgt id='morphing_basis_vector_2'> +4.2683713e-05 </wgt>
<wgt id='morphing_basis_vector_3'> +6.8382558e-05 </wgt>
<wgt id='morphing_basis_vector_4'> +4.8199914e-05 </wgt>
<wgt id='morphing_basis_vector_5'> +7.7344500e-05 </wgt>
</rwgt>
</event>
<event>
 4      1 +7.3133000e-09 2.72753300e+03 7.81860800e-03 7.82493400e-02
        2 -1    0    0  501    0 +0.0000000000e+00 +0.0000000000e+00 +1.1400921956e+03 1.1400921956e+03 0.0000000000e+00 0.0000e+00 -1.0000e+00
       -2 -1    0    0    0  501 -0.0000000000e+00 -0.0000000000e+00 -1.6313228224e+03 1.6313228224e+03 0.0000000000e+00 0.0000e+00 1.0000e+00
      -13  1    1    2    0    0 +2.0225338240e+02 -1.0121614562e+03 -1.1512925105e+03 1.5462379147e+03 0.0000000000e+00 0.0000e+00 1.0000e+00
       13  1    1    2    0    0 -2.0225338240e+02 +1.0121614562e+03 +6.6006188371e+02 1.2251771033e+03 0.0000000000e+00 0.0000e+00 -1.0000e+00
<mgrwt>
<rscale>  0 0.27275325E+04</rscale>
<asrwt>0</asrwt>
<pdfrwt beam="1">  1        2 0.17539880E+00 0.27275325E+04</pdfrwt>
<pdfrwt beam="2">  1       -2 0.25097274E+00 0.27275325E+04</pdfrwt>
<totfact> 0.11616128E+00</totfact>
</mgrwt>
<rwgt>
<wgt id='morphing_basis_vector_1'> +5.5755677e-05 </wgt>
<wgt id='morphing_basis_vector_2'> +3.7735535e-05 </wgt>
<wgt id='morphing_basis_vector_3'> +6.0585445e-05 </wgt>
<wgt id='morphing_basis_vector_4'> +4.2804747e-05 </wgt>
<wgt id='morphing_basis_vector_5'> +6.8529042e-05 </wgt>
</rwgt>
</event>
<event>
 4      1 +7.3133000e-09 2.76650400e+03 7.81860800e-03 7.81401500e-02
        2 -1    0    0  501    0 +0.0000000000e+00 +0.0000000000e+00 +3.4075794156e+03 3.4075794156e+03 0.0000000000e+00 0.0000e+00 1.0000e+00
       -2 -1    0    0    0  501 -0.0000000000e+00 -0.0000000000e+00 -5.6150907919e+02 5.6150907919e+02 0.0000000000e+00 0.0000e+00 -1.0000e+00
      -13  1    1    2    0    0 +7.6709638469e+02 +9.3915733660e+02 +4.6819952253e+02 1.2998708240e+03 0.0000000000e+00 0.0000e+00 -1.0000e+00
       13  1    1    2    0    0 -7.6709638469e+02 -9.3915733660e+02 +2.3778708139e+03 2.6692176707e+03 0.0000000000e+00 0.0000e+00 1.0000e+00
<mgrwt>
<rscale>  0 0.27665045E+04</rscale>
<asrwt>0</asrwt>
<pdfrwt beam="1">  1        2 0.52424297E+00 0.27665045E+04</pdfrwt>
<pdfrwt beam="2">  1       -2 0.86386015E-01 0.27665045E+04</pdfrwt>
<totfact> 0.11461879E+00</totfact>
</mgrwt>
<rwgt>
<wgt id='morphing_basis_vector_1'> +5.9160737e-05 </wgt>
<wgt id='morphing_basis_vector_2'> +4.0476059e-05 </wgt>
<wgt id='morphing_basis_vector_3'> +6.4408000e-05 </wgt>
<wgt id='morphing_basis_vector_4'> +4.4946484e-05 </wgt>
<wgt id='morphing_basis_vector_5'> +7.2542633e-05 </wgt>
</rwgt>
</event>
<event>
 4      1 +7.3133000e-09 3.10420300e+03 7.81860800e-03 7.72644800e-02
        2 -1    0    0  501    0 +0.0000000000e+00 +0.0000000000e+00 +1.5209518763e+03 1.5209518763e+03 0.0000000000e+00 0.0000e+00 -1.0000e+00
       -2 -1    0    0    0  501 -0.0000000000e+00 -0.0000000000e+00 -1.5838887659e+03 1.5838887659e+03 0.0000000000e+00 0.0000e+00 1.0000e+00
      -13  1    1    2    0    0 +1.9336873699e+02 -3.5075274522e+02 -1.5313097545e+03 1.5828229594e+03 0.0000000000e+00 0.0000e+00 1.0000e+00
       13  1    1    2    0    0 -1.9336873699e+02 +3.5075274522e+02 +1.4683728648e+03 1.5220176828e+03 0.0000000000e+00 0.0000e+00 -1.0000e+00
<mgrwt>
<rscale>  0 0.31042027E+04</rscale>
<asrwt>0</asrwt>
<pdfrwt beam="1">  1        2 0.23399260E+00 0.31042027E+04</pdfrwt>
<pdfrwt beam="2">  1       -2 0.24367519E+00 0.31042027E+04</pdfrwt>
<totfact> 0.76565528E-01</totfact>
</mgrwt>
<rwgt>
<wgt id='morphing_basis_vector_1'> +9.2911592e-05 </wgt>
<wgt id='morphing_basis_vector_2'> +6.2696719e-05 </wgt>
<wgt id='morphing_basis_vector_3'> +1.0135299e-04 </wgt>
<wgt id='morphing_basis_vector_4'> +7.2499797e-05 </wgt>
<wgt id='morphing_basis_vector_5'> +1.1556437e-04 </wgt>
</rwgt>
</event>
<event>
 4      1 +7.3133000e-09 3.15498300e+03 7.81860800e-03 7.71427400e-02
        2 -1    0    0  501    0 +0.0000000000e+00 +0.0000000000e+00 +2.3051089868e+03 2.3051089868e+03 0.0000000000e+00 0.0000e+00 1.0000e+00
       -2 -1    0    0    0  501 -0.0000000000e+00 -0.0000000000e+00 -1.0795494388e+03 1.0795494388e+03 0.0000000000e+00 0.0000e+00 -1.0000e+00
      -13  1    1    2    0    0 -3.4528383102e+02 +2.4330817245e+02 -1.0177525684e+03 1.1019256242e+03 0.0000000000e+00 0.0000e+00 -1.0000e+00
       13  1    1    2    0    0 +3.4528383102e+02 -2.4330817245e+02 +2.2433121164e+03 2.2827328014e+03 0.0000000000e+00 0.0000e+00 1.0000e+00
<mgrwt>
<rscale>  0 0.31549828E+04</rscale>
<asrwt>0</asrwt>
<pdfrwt beam="1">  1        2 0.35463215E+00 0.31549828E+04</pdfrwt>
<pdfrwt beam="2">  1       -2 0.16608453E+00 0.31549828E+04</pdfrwt>
<totfact> 0.10162910E+00</totfact>
</mgrwt>
<rwgt>
<wgt id='morphing_basis_vector_1'> +9.9088476e-05 </wgt>
<wgt id='morphing_basis_vector_2'> +6.6887026e-05 </wgt>
<wgt id='morphing_basis_vector_3'> +1.0814550e-04 </wgt>
<wgt id='morphing_basis_vector_4'> +7.7400830e-05 </wgt>
<wgt id='morphing_basis_vector_5'> +1.2337890e-04 </wgt>
</rwgt>
</event>
<event>
 4      1 +7.3133000e-09 2.67973000e+03 7.81860800e-03 7.83858400e-02
        2 -1    0    0  501    0 +0.0000000000e+00 +0.0000000000e+00 +1.9893789229e+03 1.9893789229e+03 0.0000000000e+00 0.0000e+00 -1.0000e+00
       -2 -1    0    0    0  501 -0.0000000000e+00 -0.0000000000e+00 -9.0241122584e+02 9.0241122584e+02 0.0000000000e+00 0.0000e+00 1.0000e+00
      -13  1    1    2    0    0 -1.0339744552e+03 +3.4623761514e+02 -2.9675578304e+02 1.1300653321e+03 0.0000000000e+00 0.0000e+00 1.0000e+00
       13  1    1    2    0    0 +1.0339744552e+03 -3.4623761514e+02 +1.3837234801e+03 1.7617248166e+03 0.0000000000e+00 0.0000e+00 -1.0000e+00
<mgrwt>
<rscale>  0 0.26797297E+04</rscale>
<asrwt>0</asrwt>
<pdfrwt beam="1">  1        2 0.30605829E+00 0.26797297E+04</pdfrwt>
<pdfrwt beam="2">  1       -2 0.13883250E+00 0.26797297E+04</pdfrwt>
<totfact> 0.26823953E+00</totfact>
</mgrwt>
<rwgt>
<wgt id='morphing_basis_vector_1'> +5.2044417e-05 </wgt>
<wgt id='morphing_basis_vector_2'> +3.5332099e-05 </wgt>
<wgt id='morphing_basis_vector_3'> +5.6536289e-05 </wgt>
<wgt id='morphing_basis_vector_4'> +3.9738735e-05 </wgt>
<wgt id='morphing_basis_vector_5'> +6.3791145e-05 </wgt>
</rwgt>
</event>
<event>
 4      1 +7.3133000e-09 3.10806700e+03 7.81860800e-03 7.72551300e-02
        2 -1    0    0  501    0 +0.0000000000e+00 +0.0000000000e+00 +3.8121547515e+03 3.8121547515e+03 0.0000000000e+00 0.0000e+00 1.0000e+00
       -2 -1    0    0    0  501 -0.0000000000e+00 -0.0000000000e+00 -6.3350527177e+02 6.3350527177e+02 0.0000000000e+00 0.0000e+00 -1.0000e+00
      -13  1    1    2    0    0 +5.2848625264e+02 +1.3767989512e+03 +8.8837882044e+02 1.7216532751e+03 0.0000000000e+00 0.0000e+00 -1.0000e+00
       13  1    1    2    0    0 -5.2848625264e+02 -1.3767989512e+03 +2.2902706593e+03 2.7240067482e+03 0.0000000000e+00 0.0000e+00 1.0000e+00
<mgrwt>
<rscale>  0 0.31080670E+04</rscale>
<asrwt>0</asrwt>
<pdfrwt beam="1">  1        2 0.58648533E+00 0.31080670E+04</pdfrwt>
<pdfrwt beam="2">  1       -2 0.97462352E-01 0.31080670E+04</pdfrwt>
<totfact> 0.41481419E-01</totfact>
</mgrwt>
<rwgt>
<wgt id='morphing_basis_vector_1'> +9.4371710e-05 </wgt>
<wgt id='morphing_basis_vector_2'> +6.5954259e-05 </wgt>
<wgt id='morphing_basis_vector_3'> +1.0343045e-04 </wgt>
<wgt id='morphing_basis_vector_4'> +7.0776051e-05 </wgt>
<wgt id='morphing_basis_vector_5'> +1.1597367e-04 </wgt>
</rwgt>
</event>
<event>
 4      1 +7.3133000e-09 2.87621400e+03 7.81860800e-03 7.78423100e-02
        2 -1    0    0  501    0 +0.0000000000e+00 +0.0000000000e+00 +3.1461563437e+03 3.1461563437e+03 0.0000000000e+00 0.0000e+00 1.0000e+00
       -2 -1    0    0    0  501 -0.0000000000e+00 -0.0000000000e+00 -6.5735804926e+02 6.5735804926e+02 0.0000000000e+00 0.0000e+00 -1.0000e+00
      -13  1    1    2    0    0 +1.0481448775e+03 +4.5263703750e+01 -5.6334051811e+01 1.0506331483e+03 0.0000000000e+00 0.0000e+00 -1.0000e+00
       13  1    1    2    0    0 -1.0481448775e+03 -4.5263703750e+01 +2.5451323462e+03 2.7528812446e+03 0.0000000000e+00 0.0000e+00 1.0000e+00
<mgrwt>
<rscale>  0 0.28762136E+04</rscale>
<asrwt>0</asrwt>
<pdfrwt beam="1">  1        2 0.48402405E+00 0.28762136E+04</pdfrwt>
<pdfrwt beam="2">  1       -2 0.10113201E+00 0.28762136E+04</pdfrwt>
<totfact> 0.11866602E+00</totfact>
</mgrwt>
<rwgt>
<wgt id='morphing_basis_vector_1'> +6.8767470e-05 </wgt>
<wgt id='morphing_basis_vector_2'> +4.6548112e-05 </wgt>
<wgt id='morphing_basis_vector_3'> +7.4866960e-05 </wgt>
<wgt id='morphing_basis_vector_4'> +5.3090595e-05 </wgt>
<wgt id='morphing_basis_vector_5'> +8.4925636e-05 </wgt>
</rwgt>
</event>
<event>
 4      1 +7.3133000e-09 2.90183400e+03 7.81860800e-03 7.77746900e-02
        2 -1    0    0  501    0 +0.0000000000e+00 +0.0000000000e+00 +1.1232439443e+03 1.1232439443e+03 0.0000000000e+00 0.0000e+00 1.0000e+00
       -2 -1    0    0    0  501 -0.0000000000e+00 -0.0000000000e+00 -1.8741790837e+03 1.8741790837e+03 0.0000000000e+00 0.0000e+00 -1.0000e+00
      -13  1    1    2    0    0 -1.1809332098e+03 +8.2819073724e+02 -5.3766613643e+02 1.5393466203e+03 0.0000000000e+00 0.0000e+00 -1.0000e+00
       13  1    1    2    0    0 +1.1809332098e+03 -8.2819073724e+02 -2.1326900293e+02 1.4580764077e+03 0.0000000000e+00 0.0000e+00 1.0000e+00
<mgrwt>
<rscale>  0 0.29018341E+04</rscale>
<asrwt>0</asrwt>
<pdfrwt beam="1">  1        2 0.17280676E+00 0.29018341E+04</pdfrwt>
<pdfrwt beam="2">  1       -2 0.28833524E+00 0.29018341E+04</pdfrwt>
<totfact> 0.64989179E-01</totfact>
</mgrwt>
<rwgt>
<wgt id='morphing_basis_vector_1'> +7.2876405e-05 </wgt>
<wgt id='morphing_basis_vector_2'> +5.3084436e-05 </wgt>
<wgt id='morphing_basis_vector_3'> +8.0141731e-05 </wgt>
<wgt id='morphing_basis_vector_4'> +5.1597976e-05 </wgt>
<wgt id='morphing_basis_vector_5'> +8.7741009e-05 </wgt>
</rwgt>
</event>
<event>
 4      1 +7.3133000e-09 2.75338200e+03 7.81860800e-03 7.81767100e-02
        2 -1    0    0  501    0 +0.0000000000e+00 +0.0000000000e+00 +2.5565661398e+03 2.5565661398e+03 0.0000000000e+00 0.0000e+00 1.0000e+00
       -2 -1    0    0    0  501 -0.0000000000e+00 -0.0000000000e+00 -7.4133721282e+02 7.4133721282e+02 0.0000000000e+00 0.0000e+00 -1.0000e+00
      -13  1    1    2    0    0 -3.4390493045e+02 +1.1542714353e+03 +1.7063218962e+03 2.0885754861e+03 0.0000000000e+00 0.0000e+00 -1.0000e+00
       13  1    1    2    0    0 +3.4390493045e+02 -1.1542714353e+03 +1.0890703076e+02 1.2093278666e+03 0.0000000000e+00 0.0000e+00 1.0000e+00
<mgrwt>
<rscale>  0 0.27533816E+04</rscale>
<asrwt>0</asrwt>
<pdfrwt beam="1">  1        2 0.39331786E+00 0.27533816E+04</pdfrwt>
<pdfrwt beam="2">  1       -2 0.11405188E+00 0.27533816E+04</pdfrwt>
<totfact> 0.21041416E+00</totfact>
</mgrwt>
<rwgt>
<wgt id='morphing_basis_vector_1'> +6.7978789e-05 </wgt>
<wgt id='morphing_basis_vector_2'> +6.8958817e-05 </wgt>
<wgt id='morphing_basis_vector_3'> +7.8558272e-05 </wgt>
<wgt id='morphing_basis_vector_4'> +2.3574745e-05 </wgt>
<wgt id='morphing_basis_vector_5'> +6.9485615e-05 </wgt>
</rwgt>
</event>
<event>
 4      1 +7.3133000e-09 3.20760300e+03 7.81860800e-03 7.70190600e-02
        2 -1    0    0  501    0 +0.0000000000e+00 +0.0000000000e+00 +2.5744461125e+03 2.5744461125e+03 0.0000000000e+00 0.0000e+00 1.0000e+00
       -2 -1    0    0    0  501 -0.0000000000e+00 -0.0000000000e+00 -9.9911927034e+02 9.9911927034e+02 0.0000000000e+00 0.0000e+00 -1.0000e+00
      -13  1    1    2    0    0 +1.1644260711e+03 -7.5483578088e+02 -1.0813438708e+02 1.3918901454e+03 0.0000000000e+00 0.0000e+00 -1.0000e+00
       13  1    1    2    0    0 -1.1644260711e+03 +7.5483578088e+02 +1.6834612293e+03 2.1816752375e+03 0.0000000000e+00 0.0000e+00 1.0000e+00
<mgrwt>
<rscale>  0 0.32076027E+04</rscale>
<asrwt>0</asrwt>
<pdfrwt beam="1">  1        2 0.39606863E+00 0.32076027E+04</pdfrwt>
<pdfrwt beam="2">  1       -2 0.15371066E+00 0.32076027E+04</pdfrwt>
<totfact> 0.88073385E-01</totfact>
</mgrwt>
<rwgt>
<wgt id='morphing_basis_vector_1'> +1.0627847e-04 </wgt>
<wgt id='morphing_basis_vector_2'> +7.2826874e-05 </wgt>
<wgt id='morphing_basis_vector_3'> +1.1627738e-04 </wgt>
<wgt id='morphing_basis_vector_4'> +8.1756524e-05 </wgt>
<wgt id='morphing_basis_vector_5'> +1.3180591e-04 </wgt>
</rwgt>
</event>
<event>
 4      1 +7.3133000e-09 2.87378000e+03 7.81860800e-03 7.78487700e-02
        2 -1    0    0  501    0 +0.0000000000e+00 +0.0000000000e+00 +3.1065642757e+03 3.1065642757e+03 0.0000000000e+00 0.0000e+00 -1.0000e+00
       -2 -1    0    0    0  501 -0.0000000000e+00 -0.0000000000e+00 -6.6460957391e+02 6.6460957391e+02 0.0000000000e+00 0.0000e+00 1.0000e+00
      -13  1    1    2    0    0 +8.8468141462e+02 -1.1322240946e+03 +1.2311212782e+03 1.8921554395e+03 0.0000000000e+00 0.0000e+00 1.0000e+00
       13  1    1    2    0    0 -8.8468141462e+02 +1.1322240946e+03 +1.2108334235e+03 1.8790184100e+03 0.0000000000e+00 0.0000e+00 -1.0000e+00
<mgrwt>
<rscale>  0 0.28737796E+04</rscale>
<asrwt>0</asrwt>
<pdfrwt beam="1">  1        2 0.47793296E+00 0.28737796E+04</pdfrwt>
<pdfrwt beam="2">  1       -2 0.10224763E+00 0.28737796E+04</pdfrwt>
<totfact> 0.12282087E+00</totfact>
</mgrwt>
<rwgt>
<wgt id='morphing_basis_vector_1'> +7.1001270e-05 </wgt>
<wgt id='morphing_basis_vector_2'> +5.3650995e-05 </wgt>
<wgt id='morphing_basis_vector_3'> +7.8450976e-05 </wgt>
<wgt id='morphing_basis_vector_4'> +4.7795852e-05 </wgt>
<wgt id='morphing_basis_vector_5'> +8.4216692e-05 </wgt>
</rwgt>
</event>
<event>
 4      1 +7.3133000e-09 3.19111700e+03 7.81860800e-03 7.70575400e-02
        2 -1    0    0  501    0 +0.0000000000e+00 +0.0000000000e+00 +1.5089835897e+03 1.5089835897e+03 0.0000000000e+00 0.0000e+00 1.0000e+00
       -2 -1    0    0    0  501 -0.0000000000e+00 -0.0000000000e+00 -1.6871008774e+03 1.6871008774e+03 0.0000000000e+00 0.0000e+00 -1.0000e+00
      -13  1    1    2    0    0 +6.8171231352e+02 -1.4073139771e+03 -4.0663772279e+02 1.6157408660e+03 0.0000000000e+00 0.0000e+00 -1.0000e+00
       13  1    1    2    0    0 -6.8171231352e+02 +1.4073139771e+03 +2.2852043513e+02 1.5803436011e+03 0.0000000000e+00 0.0000e+00 1.0000e+00
<mgrwt>
<rscale>  0 0.31911174E+04</rscale>
<asrwt>0</asrwt>
<pdfrwt beam="1">  1        2 0.23215132E+00 0.31911174E+04</pdfrwt>
<pdfrwt beam="2">  1       -2 0.25955398E+00 0.31911174E+04</pdfrwt>
<totfact> 0.59958612E-01</totfact>
</mgrwt>
<rwgt>
<wgt id='morphing_basis_vector_1'> +1.0546723e-04 </wgt>
<wgt id='morphing_basis_vector_2'> +7.5289582e-05 </wgt>
<wgt id='morphing_basis_vector_3'> +1.1601719e-04 </wgt>
<wgt id='morphing_basis_vector_4'> +7.7275169e-05 </wgt>
<wgt id='morphing_basis_vector_5'> +1.2886536e-04 </wgt>
</rwgt>
</event>
<event>
 4      1 +7.3133000e-09 2.76745500e+03 7.81860800e-03 7.81375100e-02
        2 -1    0    0  501    0 +0.0000000000e+00 +0.0000000000e+00 +9.5448172418e+02 9.5448172418e+02 0.0000000000e+00 0.0000e+00 -1.0000e+00
       -2 -1    0    0    0  501 -0.0000000000e+00 -0.0000000000e+00 -2.0060124812e+03 2.0060124812e+03 0.0000000000e+00 0.0000e+00 1.0000e+00
      -13  1    1    2    0    0 +1.2023311891e+02 -1.0114244211e+03 -1.5277232575e+03 1.8361300918e+03 0.0000000000e+00 0.0000e+00 1.0000e+00
       13  1    1    2    0    0 -1.2023311891e+02 +1.0114244211e+03 +4.7619250047e+02 1.1243641136e+03 0.0000000000e+00 0.0000e+00 -1.0000e+00
<mgrwt>
<rscale>  0 0.27674553E+04</rscale>
<asrwt>0</asrwt>
<pdfrwt beam="1">  1        2 0.14684334E+00 0.27674553E+04</pdfrwt>
<pdfrwt beam="2">  1       -2 0.30861730E+00 0.27674553E+04</pdfrwt>
<totfact> 0.60886576E-01</totfact>
</mgrwt>
<rwgt>
<wgt id='morphing_basis_vector_1'> +5.9039251e-05 </wgt>
<wgt id='morphing_basis_vector_2'> +3.9936131e-05 </wgt>
<wgt id='morphing_basis_vector_3'> +6.4183522e-05 </wgt>
<wgt id='morphing_basis_vector_4'> +4.5426844e-05 </wgt>
<wgt id='morphing_basis_vector_5'> +7.2677611e-05 </wgt>
</rwgt>
</event>
<event>
 4      1 +7.3133000e-09 2.79086500e+03 7.81860800e-03 7.80728200e-02
        2 -1    0    0  501    0 +0.0000000000e+00 +0.0000000000e+00 +2.8665279791e+03 2.8665279791e+03 0.0000000000e+00 0.0000e+00 1.0000e+00
       -2 -1    0    0    0  501 -0.0000000000e+00 -0.0000000000e+00 -6.7930000413e+02 6.7930000413e+02 0.0000000000e+00 0.0000e+00 -1.0000e+00
      -13  1    1    2    0    0 -4.9902409295e+02 +1.2026594559e+02 +2.7422194540e+03 2.7898488269e+03 0.0000000000e+00 0.0000e+00 1.0000e+00
       13  1    1    2    0    0 +4.9902409295e+02 -1.2026594559e+02 -5.5499147903e+02 7.5597915633e+02 0.0000000000e+00 0.0000e+00 -1.0000e+00
<mgrwt>
<rscale>  0 0.27908654E+04</rscale>
<asrwt>0</asrwt>
<pdfrwt beam="1">  1        2 0.44100430E+00 0.27908654E+04</pdfrwt>
<pdfrwt beam="2">  1       -2 0.10450769E+00 0.27908654E+04</pdfrwt>
<totfact> 0.16790707E+00</totfact>
</mgrwt>
<rwgt>
<wgt id='morphing_basis_vector_1'> +8.3266232e-05 </wgt>
<wgt id='morphing_basis_vector_2'> +1.0680025e-04 </wgt>
<wgt id='morphing_basis_vector_3'> +1.0086134e-04 </wgt>
<wgt id='morphing_basis_vector_4'> +9.8374013e-07 </wgt>
<wgt id='morphing_basis_vector_5'> +7.1431052e-05 </wgt>
</rwgt>
</event>
<event>
 4      1 +7.3133000e-09 2.81423800e+03 7.81860800e-03 7.80088700e-02
        2 -1    0    0  501    0 +0.0000000000e+00 +0.0000000000e+00 +1.2875223323e+03 1.2875223323e+03 0.0000000000e+00 0.0000e+00 -1.0000e+00
       -2 -1    0    0    0  501 -0.0000000000e+00 -0.0000000000e+00 -1.5378246307e+03 1.5378246307e+03 0.0000000000e+00 0.0000e+00 1.0000e+00
      -13  1    1    2    0    0 -9.7921390695e+02 +9.5697530235e+02 -4.5096567866e+02 1.4415379455e+03 0.0000000000e+00 0.0000e+00 1.0000e+00
       13  1    1    2    0    0 +9.7921390695e+02 -9.5697530235e+02 +2.0066338033e+02 1.3838090176e+03 0.0000000000e+00 0.0000e+00 -1.0000e+00
<mgrwt>
<rscale>  0 0.28142378E+04</rscale>
<asrwt>0</asrwt>
<pdfrwt beam="1">  1        2 0.19808036E+00 0.28142378E+04</pdfrwt>
<pdfrwt beam="2">  1       -2 0.23658840E+00 0.28142378E+04</pdfrwt>
<totfact> 0.11909565E+00</totfact>
</mgrwt>
<rwgt>
<wgt id='morphing_basis_vector_1'> +6.3956349e-05 </wgt>
<wgt id='morphing_basis_vector_2'> +4.5248254e-05 </wgt>
<wgt id='morphing_basis_vector_3'> +6.9977818e-05 </wgt>
<wgt id='morphing_basis_vector_4'> +4.6813632e-05 </wgt>
<wgt id='morphing_basis_vector_5'> +7.7624393e-05 </wgt>
</rwgt>
</event>
<event>
 4      1 +7.3133000e-09 2.96188800e+03 7.81860800e-03 7.76189200e-02
        2 -1    0    0  501    0 +0.0000000000e+00 +0.0000000000e+00 +1.5172750242e+03 1.5172750242e+03 0.0000000000e+00 0.0000e+00 1.0000e+00
       -2 -1    0    0    0  501 -0.0000000000e+00 -0.0000000000e+00 -1.4454827185e+03 1.4454827185e+03 0.0000000000e+00 0.0000e+00 -1.0000e+00
      -13  1    1    2    0    0 -1.7943034340e+02 -7.8423753744e+02 -1.2078398898e+03 1.4512411800e+03 0.0000000000e+00 0.0000e+00 -1.0000e+00
       13  1    1    2    0    0 +1.7943034340e+02 +7.8423753744e+02 +1.2796321956e+03 1.5115165627e+03 0.0000000000e+00 0.0000e+00 1.0000e+00
<mgrwt>
<rscale>  0 0.29618878E+04</rscale>
<asrwt>0</asrwt>
<pdfrwt beam="1">  1        2 0.23342692E+00 0.29618878E+04</pdfrwt>
<pdfrwt beam="2">  1       -2 0.22238196E+00 0.29618878E+04</pdfrwt>
<totfact> 0.10978127E+00</totfact>
</mgrwt>
<rwgt>
<wgt id='morphing_basis_vector_1'> +7.7161039e-05 </wgt>
<wgt id='morphing_basis_vector_2'> +5.2068467e-05 </wgt>
<wgt id='morphing_basis_vector_3'> +8.4052189e-05 </wgt>
<wgt id='morphing_basis_vector_4'> +5.9948221e-05 </wgt>
<wgt id='morphing_basis_vector_5'> +9.5625365e-05 </wgt>
</rwgt>
</event>
<event>
 4      1 +7.3133000e-09 2.70821400e+03 7.81860800e-03 7.83041600e-02
        2 -1    0    0  501    0 +0.0000000000e+00 +0.0000000000e+00 +1.1253029073e+03 1.1253029073e+03 0.0000000000e+00 0.0000e+00 -1.0000e+00
       -2 -1    0    0    0  501 -0.0000000000e+00 -0.0000000000e+00 -1.6294326893e+03 1.6294326893e+03 0.0000000000e+00 0.0000e+00 1.0000e+00
      -13  1    1    2    0    0 -1.1886185501e+03 -6.4373954214e+02 -1.7074987441e+02 1.3624867615e+03 0.0000000000e+00 0.0000e+00 1.0000e+00
       13  1    1    2    0    0 +1.1886185501e+03 +6.4373954214e+02 -3.3337990758e+02 1.3922488350e+03 0.0000000000e+00 0.0000e+00 -1.0000e+00
<mgrwt>
<rscale>  0 0.27082137E+04</rscale>
<asrwt>0</asrwt>
<pdfrwt beam="1">  1        2 0.17312353E+00 0.27082137E+04</pdfrwt>
<pdfrwt beam="2">  1       -2 0.25068195E+00 0.27082137E+04</pdfrwt>
<totfact> 0.11928068E+00</totfact>
</mgrwt>
<rwgt>
<wgt id='morphing_basis_vector_1'> +5.6564157e-05 </wgt>
<wgt id='morphing_basis_vector_2'> +4.3623403e-05 </wgt>
<wgt id='morphing_basis_vector_3'> +6.2526016e-05 </wgt>
<wgt id='morphing_basis_vector_4'> +3.6730450e-05 </wgt>
<wgt id='morphing_basis_vector_5'> +6.6190848e-05 </wgt>
</rwgt>
</event>
<event>
 4      1 +7.3133000e-09 3.18868900e+03 7.81860800e-03 7.70632300e-02
        2 -1    0    0  501    0 +0.0000000000e+00 +0.0000000000e+00 +1.9373506321e+03 1.9373506321e+03 0.0000000000e+00 0.0000e+00 -1.0000e+00
       -2 -1    0    0    0  501 -0.0000000000e+00 -0.0000000000e+00 -1.3120669681e+03 1.3120669681e+03 0.0000000000e+00 0.0000e+00 1.0000e+00
      -13  1    1    2    0    0 -7.6159501824e+02 +8.4203208107e+02 -8.2800100121e+02 1.4052155192e+03 0.0000000000e+00 0.0000e+00 1.0000e+00
       13  1    1    2    0    0 +7.6159501824e+02 -8.4203208107e+02 +1.4532846652e+03 1.8442020810e+03 0.0000000000e+00 0.0000e+00 -1.0000e+00
<mgrwt>
<rscale>  0 0.31886886E+04</rscale>
<asrwt>0</asrwt>
<pdfrwt beam="1">  1        2 0.29805394E+00 0.31886886E+04</pdfrwt>
<pdfrwt beam="2">  1       -2 0.20185646E+00 0.31886886E+04</pdfrwt>
<totfact> 0.88150786E-01</totfact>
</mgrwt>
<rwgt>
<wgt id='morphing_basis_vector_1'> +1.0348275e-04 </wgt>
<wgt id='morphing_basis_vector_2'> +7.0156417e-05 </wgt>
<wgt id='morphing_basis_vector_3'> +1.1303920e-04 </wgt>
<wgt id='morphing_basis_vector_4'> +8.0522241e-05 </wgt>
<wgt id='morphing_basis_vector_5'> +1.2875779e-04 </wgt>
</rwgt>
</event>
<event>
 4      1 +7.3133000e-09 2.80435400e+03 7.81860800e-03 7.80358400e-02
        2 -1    0    0  501    0 +0.0000000000e+00 +0.0000000000e+00 +2.3730407162e+03 2.3730407162e+03 0.0000000000e+00 0.0000e+00 -1.0000e+00
       -2 -1    0    0    0  501 -0.0000000000e+00 -0.0000000000e+00 -8.2851492251e+02 8.2851492251e+02 0.0000000000e+00 0.0000e+00 1.0000e+00
      -13  1    1    2    0    0 -1.3433191724e+03 -4.0169103682e+02 +7.8985882937e+02 1.6092666213e+03 0.0000000000e+00 0.0000e+00 1.0000e+00
       13  1    1    2    0    0 +1.3433191724e+03 +4.0169103682e+02 +7.5466696437e+02 1.5922890175e+03 0.0000000000e+00 0.0000e+00 -1.0000e+00
<mgrwt>
<rscale>  0 0.28043535E+04</rscale>
<asrwt>0</asrwt>
<pdfrwt beam="1">  1        2 0.36508318E+00 0.28043535E+04</pdfrwt>
<pdfrwt beam="2">  1       -2 0.12746384E+00 0.28043535E+04</pdfrwt>
<totfact> 0.20165892E+00</totfact>
</mgrwt>
<rwgt>
<wgt id='morphing_basis_vector_1'> +6.4495518e-05 </wgt>
<wgt id='morphing_basis_vector_2'> +4.8814761e-05 </wgt>
<wgt id='morphing_basis_vector_3'> +7.1210367e-05 </wgt>
<wgt id='morphing_basis_vector_4'> +4.3204033e-05 </wgt>
<wgt id='morphing_basis_vector_5'> +7.6287470e-05 </wgt>
</rwgt>
</event>
<event>
 4      1 +7.3133000e-09 2.93036500e+03 7.81860800e-03 7.77002100e-02
        2 -1    0    0  501    0 +0.0000000000e+00 +0.0000000000e+00 +2.9164795534e+03 2.9164795534e+03 0.0000000000e+00 0.0000e+00 1.0000e+00
       -2 -1    0    0    0  501 -0.0000000000e+00 -0.0000000000e+00 -7.3607916228e+02 7.3607916228e+02 0.0000000000e+00 0.0000e+00 -1.0000e+00
      -13  1    1    2    0    0 +1.3165553746e+02 -1.3172175530e+03 +3.0744776888e+02 1.3590141254e+03 0.0000000000e+00 0.0000e+00 -1.0000e+00
       13  1    1    2    0    0 -1.3165553746e+02 +1.3172175530e+03 +1.8729526222e+03 2.2935445903e+03 0.0000000000e+00 0.0000e+00 1.0000e+00
<mgrwt>
<rscale>  0 0.29303650E+04</rscale>
<asrwt>0</asrwt>
<pdfrwt beam="1">  1        2 0.44868916E+00 0.29303650E+04</pdfrwt>
<pdfrwt beam="2">  1       -2 0.11324295E+00 0.29303650E+04</pdfrwt>
<totfact> 0.12616957E+00</totfact>
</mgrwt>
<rwgt>
<wgt id='morphing_basis_vector_1'> +7.4408889e-05 </wgt>
<wgt id='morphing_basis_vector_2'> +5.1223157e-05 </wgt>
<wgt id='morphing_basis_vector_3'> +8.1236784e-05 </wgt>
<wgt id='morphing_basis_vector_4'> +5.6477573e-05 </wgt>
<wgt id='morphing_basis_vector_5'> +9.1506089e-05 </wgt>
</rwgt>
</event>
<event>
 4      1 +7.3133000e-09 2.75288800e+03 7.81860800e-03 7.81780900e-02
        2 -1    0    0  501    0 +0.0000000000e+00 +0.0000000000e+00 +1.7276376403e+03 1.7276376403e+03 0.0000000000e+00 0.0000e+00 -1.0000e+00
       -2 -1    0    0    0  501 -0.0000000000e+00 -0.0000000000e+00 -1.0966405227e+03 1.0966405227e+03 0.0000000000e+00 0.0000e+00 1.0000e+00
      -13  1    1    2    0    0 -1.2737210530e+03 -1.8950662131e+02 +8.1423218866e+02 1.5235656000e+03 0.0000000000e+00 0.0000e+00 1.0000e+00
       13  1    1    2    0    0 +1.2737210530e+03 +1.8950662131e+02 -1.8323507100e+02 1.3007125630e+03 0.0000000000e+00 0.0000e+00 -1.0000e+00
<mgrwt>
<rscale>  0 0.27528875E+04</rscale>
<asrwt>0</asrwt>
<pdfrwt beam="1">  1        2 0.26579041E+00 0.27528875E+04</pdfrwt>
<pdfrwt beam="2">  1       -2 0.16871393E+00 0.27528875E+04</pdfrwt>
<totfact> 0.21261917E+00</totfact>
</mgrwt>
<rwgt>
<wgt id='morphing_basis_vector_1'> +6.4681289e-05 </wgt>
<wgt id='morphing_basis_vector_2'> +5.9332458e-05 </wgt>
<wgt id='morphing_basis_vector_3'> +7.3470151e-05 </wgt>
<wgt id='morphing_basis_vector_4'> +3.0277071e-05 </wgt>
<wgt id='morphing_basis_vector_5'> +6.9984215e-05 </wgt>
</rwgt>
</event>
<event>
 4      1 +7.3133000e-09 2.73269300e+03 7.81860800e-03 7.82347800e-02
        2 -1    0    0  501    0 +0.0000000000e+00 +0.0000000000e+00 +1.4634454543e+03 1.4634454543e+03 0.0000000000e+00 0.0000e+00 1.0000e+00
       -2 -1    0    0    0  501 -0.0000000000e+00 -0.0000000000e+00 -1.2756902359e+03 1.2756902359e+03 0.0000000000e+00 0.0000e+00 -1.0000e+00
      -13  1    1    2    0    0 -1.1681790885e+03 -2.4624825217e+02 -5.7223592460e+02 1.3239088102e+03 0.0000000000e+00 0.0000e+00 -1.0000e+00
       13  1    1    2    0    0 +1.1681790885e+03 +2.4624825217e+02 +7.5999114293e+02 1.4152268799e+03 0.0000000000e+00 0.0000e+00 1.0000e+00
<mgrwt>
<rscale>  0 0.27326932E+04</rscale>
<asrwt>0</asrwt>
<pdfrwt beam="1">  1        2 0.22514545E+00 0.27326932E+04</pdfrwt>
<pdfrwt beam="2">  1       -2 0.19626004E+00 0.27326932E+04</pdfrwt>
<totfact> 0.18503146E+00</totfact>
</mgrwt>
<rwgt>
<wgt id='morphing_basis_vector_1'> +5.6343666e-05 </wgt>
<wgt id='morphing_basis_vector_2'> +3.8520175e-05 </wgt>
<wgt id='morphing_basis_vector_3'> +6.1307074e-05 </wgt>
<wgt id='morphing_basis_vector_4'> +4.2782808e-05 </wgt>
<wgt id='morphing_basis_vector_5'> +6.9026163e-05 </wgt>
</rwgt>
</event>
<event>
 4      1 +7.3133000e-09 3.07235500e+03 7.81860800e-03 7.73420600e-02
        2 -1    0    0  501    0 +0.0000000000e+00 +0.0000000000e+00 +2.3495930971e+03 2.3495930971e+03 0.0000000000e+00 0.0000e+00 -1.0000e+00
       -2 -1    0    0    0  501 -0.0000000000e+00 -0.0000000000e+00 -1.0043616829e+03 1.0043616829e+03 0.0000000000e+00 0.0000e+00 1.0000e+00
      -13  1    1    2    0    0 -6.5749031783e+02 -1.3343538341e+03 +1.0912307085e+03 1.8448788935e+03 0.0000000000e+00 0.0000e+00 1.0000e+00
       13  1    1    2    0    0 +6.5749031783e+02 +1.3343538341e+03 +2.5400070570e+02 1.5090758864e+03 0.0000000000e+00 0.0000e+00 -1.0000e+00
<mgrwt>
<rscale>  0 0.30723550E+04</rscale>
<asrwt>0</asrwt>
<pdfrwt beam="1">  1        2 0.36147586E+00 0.30723550E+04</pdfrwt>
<pdfrwt beam="2">  1       -2 0.15451718E+00 0.30723550E+04</pdfrwt>
<totfact> 0.11932005E+00</totfact>
</mgrwt>
<rwgt>
<wgt id='morphing_basis_vector_1'> +9.6914900e-05 </wgt>
<wgt id='morphing_basis_vector_2'> +8.2922233e-05 </wgt>
<wgt id='morphing_basis_vector_3'> +1.0938524e-04 </wgt>
<wgt id='morphing_basis_vector_4'> +5.3432595e-05 </wgt>
<wgt id='morphing_basis_vector_5'> +1.0952981e-04 </wgt>
</rwgt>
</event>
<event>
 4      1 +7.3133000e-09 2.99091900e+03 7.81860800e-03 7.75449600e-02
        2 -1    0    0  501    0 +0.0000000000e+00 +0.0000000000e+00 +2.6439574177e+03 2.6439574177e+03 0.0000000000e+00 0.0000e+00 1.0000e+00
       -2 -1    0    0    0  501 -0.0000000000e+00 -0.0000000000e+00 -8.4585320631e+02 8.4585320631e+02 0.0000000000e+00 0.0000e+00 -1.0000e+00
      -13  1    1    2    0    0 -1.1010231113e+03 -5.0304955965e+02 -1.2553626199e+02 1.2169922367e+03 0.0000000000e+00 0.0000e+00 -1.0000e+00
       13  1    1    2    0    0 +1.1010231113e+03 +5.0304955965e+02 +1.9236404734e+03 2.2728183873e+03 0.0000000000e+00 0.0000e+00 1.0000e+00
<mgrwt>
<rscale>  0 0.29909195E+04</rscale>
<asrwt>0</asrwt>
<pdfrwt beam="1">  1        2 0.40676267E+00 0.29909195E+04</pdfrwt>
<pdfrwt beam="2">  1       -2 0.13013126E+00 0.29909195E+04</pdfrwt>
<totfact> 0.12937397E+00</totfact>
</mgrwt>
<rwgt>
<wgt id='morphing_basis_vector_1'> +8.0396833e-05 </wgt>
<wgt id='morphing_basis_vector_2'> +5.4705484e-05 </wgt>
<wgt id='morphing_basis_vector_3'> +8.7698645e-05 </wgt>
<wgt id='morphing_basis_vector_4'> +6.1949578e-05 </wgt>
<wgt id='morphing_basis_vector_5'> +9.9431673e-05 </wgt>
</rwgt>
</event>
<event>
 4      1 +7.3133000e-09 3.08795300e+03 7.81860800e-03 7.73039400e-02
        2 -1    0    0  501    0 +0.0000000000e+00 +0.0000000000e+00 +1.3983636726e+03 1.3983636726e+03 0.0000000000e+00 0.0000e+00 1.0000e+00
       -2 -1    0    0    0  501 -0.0000000000e+00 -0.0000000000e+00 -1.7047519050e+03 1.7047519050e+03 0.0000000000e+00 0.0000e+00 -1.0000e+00
      -13  1    1    2    0    0 +9.7134074450e+02 +3.4212136661e+02 -1.3091962340e+03 1.6656964461e+03 0.0000000000e+00 0.0000e+00 -1.0000e+00
       13  1    1    2    0    0 -9.7134074450e+02 -3.4212136661e+02 +1.0028080017e+03 1.4374191315e+03 0.0000000000e+00 0.0000e+00 1.0000e+00
<mgrwt>
<rscale>  0 0.30879528E+04</rscale>
<asrwt>0</asrwt>
<pdfrwt beam="1">  1        2 0.21513287E+00 0.30879528E+04</pdfrwt>
<pdfrwt beam="2">  1       -2 0.26226952E+00 0.30879528E+04</pdfrwt>
<totfact> 0.66849081E-01</totfact>
</mgrwt>
<rwgt>
<wgt id='morphing_basis_vector_1'> +9.1075512e-05 </wgt>
<wgt id='morphing_basis_vector_2'> +6.1627959e-05 </wgt>
<wgt id='morphing_basis_vector_3'> +9.9370954e-05 </wgt>
<wgt id='morphing_basis_vector_4'> +7.0818989e-05 </wgt>
<wgt id='morphing_basis_vector_5'> +1.1313035e-04 </wgt>
</rwgt>
</event>
<event>
 4      1 +7.3133000e-09 3.01672100e+03 7.81860800e-03 7.74799600e-02
        2 -1    0    0  501    0 +0.0000000000e+00 +0.0000000000e+00 +2.9309401850e+03 2.9309401850e+03 0.0000000000e+00 0.0000e+00 -1.0000e+00
       -2 -1    0    0    0  501 -0.0000000000e+00 -0.0000000000e+00 -7.7625334668e+02 7.7625334668e+02 0.0000000000e+00 0.0000e+00 1.0000e+00
      -13  1    1    2    0    0 +9.5986237767e+02 +9.5823404224e+02 +2.6627796436e+02 1.3821910932e+03 0.0000000000e+00 0.0000e+00 1.0000e+00
       13  1    1    2    0    0 -9.5986237767e+02 -9.5823404224e+02 +1.8884088739e+03 2.3250024385e+03 0.0000000000e+00 0.0000e+00 -1.0000e+00
<mgrwt>
<rscale>  0 0.30167215E+04</rscale>
<asrwt>0</asrwt>
<pdfrwt beam="1">  1        2 0.45091387E+00 0.30167215E+04</pdfrwt>
<pdfrwt beam="2">  1       -2 0.11942359E+00 0.30167215E+04</pdfrwt>
<totfact> 0.10696956E+00</totfact>
</mgrwt>
<rwgt>
<wgt id='morphing_basis_vector_1'> +8.3463337e-05 </wgt>
<wgt id='morphing_basis_vector_2'> +5.7441059e-05 </wgt>
<wgt id='morphing_basis_vector_3'> +9.1204128e-05 </wgt>
<wgt id='morphing_basis_vector_4'> +6.3546638e-05 </wgt>
<wgt id='morphing_basis_vector_5'> +1.0289036e-04 </wgt>
</rwgt>
</event>
<event>
 4      1 +7.3133000e-09 2.88501000e+03 7.81860800e-03 7.78190100e-02
        2 -1    0    0  501    0 +0.0000000000e+00 +0.0000000000e+00 +1.2706989728e+03 1.2706989728e+03 0.0000000000e+00 0.0000e+00 -1.0000e+00
       -2 -1    0    0    0  501 -0.0000000000e+00 -0.0000000000e+00 -1.6375404333e+03 1.6375404333e+03 0.0000000000e+00 0.0000e+00 1.0000e+00
      -13  1    1    2    0    0 +1.3061318590e+03 -3.7103578125e+02 -6.7434600587e+02 1.5160443660e+03 0.0000000000e+00 0.0000e+00 1.0000e+00
       13  1    1    2    0    0 -1.3061318590e+03 +3.7103578125e+02 +3.0750454541e+02 1.3921950401e+03 0.0000000000e+00 0.0000e+00 -1.0000e+00
<mgrwt>
<rscale>  0 0.28850102E+04</rscale>
<asrwt>0</asrwt>
<pdfrwt beam="1">  1        2 0.19549215E+00 0.28850102E+04</pdfrwt>
<pdfrwt beam="2">  1       -2 0.25192930E+00 0.28850102E+04</pdfrwt>
<totfact> 0.94716186E-01</totfact>
</mgrwt>
<rwgt>
<wgt id='morphing_basis_vector_1'> +7.0181235e-05 </wgt>
<wgt id='morphing_basis_vector_2'> +4.8817784e-05 </wgt>
<wgt id='morphing_basis_vector_3'> +7.6685357e-05 </wgt>
<wgt id='morphing_basis_vector_4'> +5.2551398e-05 </wgt>
<wgt id='morphing_basis_vector_5'> +8.5881258e-05 </wgt>
</rwgt>
</event>
<event>
 4      1 +7.3133000e-09 2.68759800e+03 7.81860800e-03 7.83631800e-02
        2 -1    0    0  501    0 +0.0000000000e+00 +0.0000000000e+00 +2.3962483093e+03 2.3962483093e+03 0.0000000000e+00 0.0000e+00 1.0000e+00
       -2 -1    0    0    0  501 -0.0000000000e+00 -0.0000000000e+00 -7.5359296670e+02 7.5359296670e+02 0.0000000000e+00 0.0000e+00 -1.0000e+00
      -13  1    1    2    0    0 +3.5243852667e+00 -1.1779456993e+03 +6.3395089192e+01 1.1796556401e+03 0.0000000000e+00 0.0000e+00 -1.0000e+00
       13  1    1    2    0    0 -3.5243852667e+00 +1.1779456993e+03 +1.5792602534e+03 1.9701856359e+03 0.0000000000e+00 0.0000e+00 1.0000e+00
<mgrwt>
<rscale>  0 0.26875981E+04</rscale>
<asrwt>0</asrwt>
<pdfrwt beam="1">  1        2 0.36865358E+00 0.26875981E+04</pdfrwt>
<pdfrwt beam="2">  1       -2 0.11593738E+00 0.26875981E+04</pdfrwt>
<totfact> 0.25275578E+00</totfact>
</mgrwt>
<rwgt>
<wgt id='morphing_basis_vector_1'> +5.2761230e-05 </wgt>
<wgt id='morphing_basis_vector_2'> +3.6070781e-05 </wgt>
<wgt id='morphing_basis_vector_3'> +5.7372258e-05 </wgt>
<wgt id='morphing_basis_vector_4'> +3.9985936e-05 </wgt>
<wgt id='morphing_basis_vector_5'> +6.4533587e-05 </wgt>
</rwgt>
</event>
<event>
 4      1 +7.3133000e-09 2.70827200e+03 7.81860800e-03 7.83040000e-02
        2 -1    0    0  501    0 +0.0000000000e+00 +0.0000000000e+00 +3.3728420159e+03 3.3728420159e+03 0.0000000000e+00 0.0000e+00 -1.0000e+00
       -2 -1    0    0    0  501 -0.0000000000e+00 -0.0000000000e+00 -5.4366145569e+02 5.4366145569e+02 0.0000000000e+00 0.0000e+00 1.0000e+00
      -13  1    1    2    0    0 -1.0851688736e+03 +7.8335085840e+02 +1.1166245509e+03 1.7430090187e+03 0.0000000000e+00 0.0000e+00 1.0000e+00
       13  1    1    2    0    0 +1.0851688736e+03 -7.8335085840e+02 +1.7125560092e+03 2.1734944528e+03 0.0000000000e+00 0.0000e+00 -1.0000e+00
<mgrwt>
<rscale>  0 0.27082719E+04</rscale>
<asrwt>0</asrwt>
<pdfrwt beam="1">  1        2 0.51889876E+00 0.27082719E+04</pdfrwt>
<pdfrwt beam="2">  1       -2 0.83640226E-01 0.27082719E+04</pdfrwt>
<totfact> 0.13138570E+00</totfact>
</mgrwt>
<rwgt>
<wgt id='morphing_basis_vector_1'> +5.5244643e-05 </wgt>
<wgt id='morphing_basis_vector_2'> +3.9722957e-05 </wgt>
<wgt id='morphing_basis_vector_3'> +6.0485283e-05 </wgt>
<wgt id='morphing_basis_vector_4'> +3.9468430e-05 </wgt>
<wgt id='morphing_basis_vector_5'> +6.6419751e-05 </wgt>
</rwgt>
</event>
<event>
 4      1 +7.3133000e-09 3.08738200e+03 7.81860800e-03 7.73053300e-02
        2 -1    0    0  501    0 +0.0000000000e+00 +0.0000000000e+00 +1.5789031396e+03 1.5789031396e+03 0.0000000000e+00 0.0000e+00 1.0000e+00
       -2 -1    0    0    0  501 -0.0000000000e+00 -0.0000000000e+00 -1.5092643806e+03 1.5092643806e+03 0.0000000000e+00 0.0000e+00 -1.0000e+00
      -13  1    1    2    0    0 +1.5146425939e+03 +2.9626232429e+02 +6.7518930015e+01 1.5448211411e+03 0.0000000000e+00 0.0000e+00 1.0000e+00
       13  1    1    2    0    0 -1.5146425939e+03 -2.9626232429e+02 +2.1198289482e+00 1.5433463791e+03 0.0000000000e+00 0.0000e+00 -1.0000e+00
<mgrwt>
<rscale>  0 0.30873822E+04</rscale>
<asrwt>0</asrwt>
<pdfrwt beam="1">  1        2 0.24290818E+00 0.30873822E+04</pdfrwt>
<pdfrwt beam="2">  1       -2 0.23219452E+00 0.30873822E+04</pdfrwt>
<totfact> 0.85578079E-01</totfact>
</mgrwt>
<rwgt>
<wgt id='morphing_basis_vector_1'> +9.4533702e-05 </wgt>
<wgt id='morphing_basis_vector_2'> +7.1961311e-05 </wgt>
<wgt id='morphing_basis_vector_3'> +1.0483233e-04 </wgt>
<wgt id='morphing_basis_vector_4'> +6.3412310e-05 </wgt>
<wgt id='morphing_basis_vector_5'> +1.1244062e-04 </wgt>
</rwgt>
</event>
<event>
 4      1 +7.3133000e-09 2.88173800e+03 7.81860800e-03 7.78276600e-02
        2 -1    0    0  501    0 +0.0000000000e+00 +0.0000000000e+00 +3.4197147410e+03 3.4197147410e+03 0.0000000000e+00 0.0000e+00 -1.0000e+00
       -2 -1    0    0    0  501 -0.0000000000e+00 -0.0000000000e+00 -6.0709847206e+02 6.0709847206e+02 0.0000000000e+00 0.0000e+00 1.0000e+00
      -13  1    1    2    0    0 +4.7810395405e+02 -1.3442307443e+03 +1.1248739288e+03 1.8168326947e+03 0.0000000000e+00 0.0000e+00 1.0000e+00
       13  1    1    2    0    0 -4.7810395405e+02 +1.3442307443e+03 +1.6877423402e+03 2.2099805184e+03 0.0000000000e+00 0.0000e+00 -1.0000e+00
<mgrwt>
<rscale>  0 0.28817381E+04</rscale>
<asrwt>0</asrwt>
<pdfrwt beam="1">  1        2 0.52610995E+00 0.28817381E+04</pdfrwt>
<pdfrwt beam="2">  1       -2 0.93399767E-01 0.28817381E+04</pdfrwt>
<totfact> 0.92673701E-01</totfact>
</mgrwt>
<rwgt>
<wgt id='morphing_basis_vector_1'> +7.0704663e-05 </wgt>
<wgt id='morphing_basis_vector_2'> +5.1067042e-05 </wgt>
<wgt id='morphing_basis_vector_3'> +7.7643842e-05 </wgt>
<wgt id='morphing_basis_vector_4'> +5.0571336e-05 </wgt>
<wgt id='morphing_basis_vector_5'> +8.5345976e-05 </wgt>
</rwgt>
</event>
<event>
 4      1 +7.3133000e-09 3.02909900e+03 7.81860800e-03 7.74490100e-02
        2 -1    0    0  501    0 +0.0000000000e+00 +0.0000000000e+00 +2.3105239553e+03 2.3105239553e+03 0.0000000000e+00 0.0000e+00 -1.0000e+00
       -2 -1    0    0    0  501 -0.0000000000e+00 -0.0000000000e+00 -9.9278777301e+02 9.9278777301e+02 0.0000000000e+00 0.0000e+00 1.0000e+00
      -13  1    1    2    0    0 -1.2863656205e+03 -2.1272504355e+02 -1.8152476106e+02 1.3164116729e+03 0.0000000000e+00 0.0000e+00 1.0000e+00
       13  1    1    2    0    0 +1.2863656205e+03 +2.1272504355e+02 +1.4992609433e+03 1.9869000553e+03 0.0000000000e+00 0.0000e+00 -1.0000e+00
<mgrwt>
<rscale>  0 0.30290988E+04</rscale>
<asrwt>0</asrwt>
<pdfrwt beam="1">  1        2 0.35546522E+00 0.30290988E+04</pdfrwt>
<pdfrwt beam="2">  1       -2 0.15273658E+00 0.30290988E+04</pdfrwt>
<totfact> 0.13050518E+00</totfact>
</mgrwt>
<rwgt>
<wgt id='morphing_basis_vector_1'> +8.4671793e-05 </wgt>
<wgt id='morphing_basis_vector_2'> +5.7922593e-05 </wgt>
<wgt id='morphing_basis_vector_3'> +9.2462901e-05 </wgt>
<wgt id='morphing_basis_vector_4'> +6.4932793e-05 </wgt>
<wgt id='morphing_basis_vector_5'> +1.0463127e-04 </wgt>
</rwgt>
</event>
<event>
 4      1 +7.3133000e-09 3.15100400e+03 7.81860800e-03 7.71521900e-02
        2 -1    0    0  501    0 +0.0000000000e+00 +0.0000000000e+00 +1.8764858304e+03 1.8764858304e+03 0.0000000000e+00 0.0000e+00 -1.0000e+00
       -2 -1    0    0    0  501 -0.0000000000e+00 -0.0000000000e+00 -1.3227951446e+03 1.3227951446e+03 0.0000000000e+00 0.0000e+00 1.0000e+00
      -13  1    1    2    0    0 -1.1304296007e+03 -6.8051778812e+02 -5.9729301227e+02 1.4483557866e+03 0.0000000000e+00 0.0000e+00 1.0000e+00
       13  1    1    2    0    0 +1.1304296007e+03 +6.8051778812e+02 +1.1509836980e+03 1.7509251884e+03 0.0000000000e+00 0.0000e+00 -1.0000e+00
<mgrwt>
<rscale>  0 0.31510039E+04</rscale>
<asrwt>0</asrwt>
<pdfrwt beam="1">  1        2 0.28869013E+00 0.31510039E+04</pdfrwt>
<pdfrwt beam="2">  1       -2 0.20350695E+00 0.31510039E+04</pdfrwt>
<totfact> 0.93041086E-01</totfact>
</mgrwt>
<rwgt>
<wgt id='morphing_basis_vector_1'> +9.8934827e-05 </wgt>
<wgt id='morphing_basis_vector_2'> +6.7555744e-05 </wgt>
<wgt id='morphing_basis_vector_3'> +1.0813816e-04 </wgt>
<wgt id='morphing_basis_vector_4'> +7.6295314e-05 </wgt>
<wgt id='morphing_basis_vector_5'> +1.2269396e-04 </wgt>
</rwgt>
</event>
<event>
 4      1 +7.3133000e-09 3.06827900e+03 7.81860800e-03 7.73520600e-02
        2 -1    0    0  501    0 +0.0000000000e+00 +0.0000000000e+00 +2.2150017259e+03 2.2150017259e+03 0.0000000000e+00 0.0000e+00 1.0000e+00
       -2 -1    0    0    0  501 -0.0000000000e+00 -0.0000000000e+00 -1.0625654340e+03 1.0625654340e+03 0.0000000000e+00 0.0000e+00 -1.0000e+00
      -13  1    1    2    0    0 -1.2836073371e+03 +4.9466187151e+02 -1.4925791172e+02 1.3836965300e+03 0.0000000000e+00 0.0000e+00 -1.0000e+00
       13  1    1    2    0    0 +1.2836073371e+03 -4.9466187151e+02 +1.3016942037e+03 1.8938706299e+03 0.0000000000e+00 0.0000e+00 1.0000e+00
<mgrwt>
<rscale>  0 0.30682792E+04</rscale>
<asrwt>0</asrwt>
<pdfrwt beam="1">  1        2 0.34076949E+00 0.30682792E+04</pdfrwt>
<pdfrwt beam="2">  1       -2 0.16347161E+00 0.30682792E+04</pdfrwt>
<totfact> 0.12101000E+00</totfact>
</mgrwt>
<rwgt>
<wgt id='morphing_basis_vector_1'> +8.9250218e-05 </wgt>
<wgt id='morphing_basis_vector_2'> +6.1414663e-05 </wgt>
<wgt id='morphing_basis_vector_3'> +9.7576590e-05 </wgt>
<wgt id='morphing_basis_vector_4'> +6.8070077e-05 </wgt>
<wgt id='morphing_basis_vector_5'> +1.1017310e-04 </wgt>
</rwgt>
</event>
<event>
 4      1 +7.3133000e-09 2.67704300e+03 7.81860800e-03 7.83936000e-02
        2 -1    0    0  501    0 +0.0000000000e+00 +0.0000000000e+00 +2.1181304748e+03 2.1181304748e+03 0.0000000000e+00 0.0000e+00 -1.0000e+00
       -2 -1    0    0    0  501 -0.0000000000e+00 -0.0000000000e+00 -8.4585902005e+02 8.4585902005e+02 0.0000000000e+00 0.0000e+00 1.0000e+00
      -13  1    1    2    0    0 -5.7518536895e+02 -8.9368388400e+02 -2.6479867644e+02 1.0952750487e+03 0.0000000000e+00 0.0000e+00 1.0000e+00
       13  1    1    2    0    0 +5.7518536895e+02 +8.9368388400e+02 +1.5370701312e+03 1.8687144462e+03 0.0000000000e+00 0.0000e+00 -1.0000e+00
<mgrwt>
<rscale>  0 0.26770430E+04</rscale>
<asrwt>0</asrwt>
<pdfrwt beam="1">  1        2 0.32586622E+00 0.26770430E+04</pdfrwt>
<pdfrwt beam="2">  1       -2 0.13013216E+00 0.26770430E+04</pdfrwt>
<totfact> 0.27066859E+00</totfact>
</mgrwt>
<rwgt>
<wgt id='morphing_basis_vector_1'> +5.1816106e-05 </wgt>
<wgt id='morphing_basis_vector_2'> +3.5125636e-05 </wgt>
<wgt id='morphing_basis_vector_3'> +5.6275720e-05 </wgt>
<wgt id='morphing_basis_vector_4'> +3.9623810e-05 </wgt>
<wgt id='morphing_basis_vector_5'> +6.3536601e-05 </wgt>
</rwgt>
</event>
<event>
 4      1 +7.3133000e-09 3.14179000e+03 7.81860800e-03 7.71741400e-02
        2 -1    0    0  501    0 +0.0000000000e+00 +0.0000000000e+00 +9.2995538152e+02 9.2995538152e+02 0.0000000000e+00 0.0000e+00 -1.0000e+00
       -2 -1    0    0    0  501 -0.0000000000e+00 -0.0000000000e+00 -2.6535799539e+03 2.6535799539e+03 0.0000000000e+00 0.0000e+00 1.0000e+00
      -13  1    1    2    0    0 -6.6561738313e+02 +2.7423571423e+02 -2.4543569795e+03 2.5577568122e+03 0.0000000000e+00 0.0000e+00 1.0000e+00
       13  1    1    2    0    0 +6.6561738313e+02 -2.7423571423e+02 +7.3073240716e+02 1.0257785232e+03 0.0000000000e+00 0.0000e+00 -1.0000e+00
<mgrwt>
<rscale>  0 0.31417899E+04</rscale>
<asrwt>0</asrwt>
<pdfrwt beam="1">  1        2 0.14307006E+00 0.31417899E+04</pdfrwt>
<pdfrwt beam="2">  1       -2 0.40824306E+00 0.31417899E+04</pdfrwt>
<totfact> 0.13690843E-01</totfact>
</mgrwt>
<rwgt>
<wgt id='morphing_basis_vector_1'> +9.7467313e-05 </wgt>
<wgt id='morphing_basis_vector_2'> +6.5815371e-05 </wgt>
<wgt id='morphing_basis_vector_3'> +1.0636848e-04 </wgt>
<wgt id='morphing_basis_vector_4'> +7.6078416e-05 </wgt>
<wgt id='morphing_basis_vector_5'> +1.2130964e-04 </wgt>
</rwgt>
</event>
<event>
 4      1 +7.3133000e-09 2.78341900e+03 7.81860800e-03 7.80933300e-02
        2 -1    0    0  501    0 +0.0000000000e+00 +0.0000000000e+00 +2.5959882265e+03 2.5959882265e+03 0.0000000000e+00 0.0000e+00 -1.0000e+00
       -2 -1    0    0    0  501 -0.0000000000e+00 -0.0000000000e+00 -7.4609545272e+02 7.4609545272e+02 0.0000000000e+00 0.0000e+00 1.0000e+00
      -13  1    1    2    0    0 -3.9517308997e+02 -4.1919310101e+02 -5.9620444614e+02 8.2906234299e+02 0.0000000000e+00 0.0000e+00 1.0000e+00
       13  1    1    2    0    0 +3.9517308997e+02 +4.1919310101e+02 +2.4460972200e+03 2.5130213363e+03 0.0000000000e+00 0.0000e+00 -1.0000e+00
<mgrwt>
<rscale>  0 0.27834188E+04</rscale>
<asrwt>0</asrwt>
<pdfrwt beam="1">  1        2 0.39938280E+00 0.27834188E+04</pdfrwt>
<pdfrwt beam="2">  1       -2 0.11478392E+00 0.27834188E+04</pdfrwt>
<totfact> 0.19546373E+00</totfact>
</mgrwt>
<rwgt>
<wgt id='morphing_basis_vector_1'> +6.0313151e-05 </wgt>
<wgt id='morphing_basis_vector_2'> +4.0609712e-05 </wgt>
<wgt id='morphing_basis_vector_3'> +6.5543685e-05 </wgt>
<wgt id='morphing_basis_vector_4'> +4.6671712e-05 </wgt>
<wgt id='morphing_basis_vector_5'> +7.4401267e-05 </wgt>
</rwgt>
</event>
<event>
 4      1 +7.3133000e-09 3.10569300e+03 7.81860800e-03 7.72608700e-02
        2 -1    0    0  501    0 +0.0000000000e+00 +0.0000000000e+00 +2.4658283801e+03 2.4658283801e+03 0.0000000000e+00 0.0000e+00 -1.0000e+00
       -2 -1    0    0    0  501 -0.0000000000e+00 -0.0000000000e+00 -9.7789935395e+02 9.7789935395e+02 0.0000000000e+00 0.0000e+00 1.0000e+00
      -13  1    1    2    0    0 -4.2070156704e+02 +5.2292896127e+02 -8.0876799529e+02 1.0509758214e+03 0.0000000000e+00 0.0000e+00 1.0000e+00
       13  1    1    2    0    0 +4.2070156704e+02 -5.2292896127e+02 +2.2966970215e+03 2.3927519126e+03 0.0000000000e+00 0.0000e+00 -1.0000e+00
<mgrwt>
<rscale>  0 0.31056928E+04</rscale>
<asrwt>0</asrwt>
<pdfrwt beam="1">  1        2 0.37935821E+00 0.31056928E+04</pdfrwt>
<pdfrwt beam="2">  1       -2 0.15044606E+00 0.31056928E+04</pdfrwt>
<totfact> 0.10976382E+00</totfact>
</mgrwt>
<rwgt>
<wgt id='morphing_basis_vector_1'> +9.3097605e-05 </wgt>
<wgt id='morphing_basis_vector_2'> +6.2843269e-05 </wgt>
<wgt id='morphing_basis_vector_3'> +1.0156175e-04 </wgt>
<wgt id='morphing_basis_vector_4'> +7.2621454e-05 </wgt>
<wgt id='morphing_basis_vector_5'> +1.1578673e-04 </wgt>
</rwgt>
</event>
<event>
 4      1 +7.3133000e-09 2.70342500e+03 7.81860800e-03 7.83178200e-02
        2 -1    0    0  501    0 +0.0000000000e+00 +0.0000000000e+00 +3.4554771389e+03 3.4554771389e+03 0.0000000000e+00 0.0000e+00 -1.0000e+00
       -2 -1    0    0    0  501 -0.0000000000e+00 -0.0000000000e+00 -5.2876234022e+02 5.2876234022e+02 0.0000000000e+00 0.0000e+00 1.0000e+00
      -13  1    1    2    0    0 -7.2937032365e+02 +2.3859631026e+02 -1.7658854908e+02 7.8745970307e+02 0.0000000000e+00 0.0000e+00 1.0000e+00
       13  1    1    2    0    0 +7.2937032365e+02 -2.3859631026e+02 +3.1033033478e+03 3.1967797761e+03 0.0000000000e+00 0.0000e+00 -1.0000e+00
<mgrwt>
<rscale>  0 0.27034246E+04</rscale>
<asrwt>0</asrwt>
<pdfrwt beam="1">  1        2 0.53161185E+00 0.27034246E+04</pdfrwt>
<pdfrwt beam="2">  1       -2 0.81348055E-01 0.27034246E+04</pdfrwt>
<totfact> 0.12225645E+00</totfact>
</mgrwt>
<rwgt>
<wgt id='morphing_basis_vector_1'> +5.3756512e-05 </wgt>
<wgt id='morphing_basis_vector_2'> +3.6203635e-05 </wgt>
<wgt id='morphing_basis_vector_3'> +5.8357368e-05 </wgt>
<wgt id='morphing_basis_vector_4'> +4.1450829e-05 </wgt>
<wgt id='morphing_basis_vector_5'> +6.6125348e-05 </wgt>
</rwgt>
</event>
<event>
 4      1 +7.3133000e-09 2.71984100e+03 7.81860800e-03 7.82711100e-02
        2 -1    0    0  501    0 +0.0000000000e+00 +0.0000000000e+00 +1.8009790777e+03 1.8009790777e+03 0.0000000000e+00 0.0000e+00 -1.0000e+00
       -2 -1    0    0    0  501 -0.0000000000e+00 -0.0000000000e+00 -1.0268771997e+03 1.0268771997e+03 0.0000000000e+00 0.0000e+00 1.0000e+00
      -13  1    1    2    0    0 -1.2099418770e+03 +2.0287263584e+02 -2.2299408242e+02 1.2469334436e+03 0.0000000000e+00 0.0000e+00 1.0000e+00
       13  1    1    2    0    0 +1.2099418770e+03 -2.0287263584e+02 +9.9709596047e+02 1.5809228338e+03 0.0000000000e+00 0.0000e+00 -1.0000e+00
<mgrwt>
<rscale>  0 0.27198414E+04</rscale>
<asrwt>0</asrwt>
<pdfrwt beam="1">  1        2 0.27707371E+00 0.27198414E+04</pdfrwt>
<pdfrwt beam="2">  1       -2 0.15798111E+00 0.27198414E+04</pdfrwt>
<totfact> 0.23608394E+00</totfact>
</mgrwt>
<rwgt>
<wgt id='morphing_basis_vector_1'> +5.5386007e-05 </wgt>
<wgt id='morphing_basis_vector_2'> +3.8049737e-05 </wgt>
<wgt id='morphing_basis_vector_3'> +6.0291530e-05 </wgt>
<wgt id='morphing_basis_vector_4'> +4.1803120e-05 </wgt>
<wgt id='morphing_basis_vector_5'> +6.7709009e-05 </wgt>
</rwgt>
</event>
<event>
 4      1 +7.3133000e-09 2.70040200e+03 7.81860800e-03 7.83264600e-02
        2 -1    0    0  501    0 +0.0000000000e+00 +0.0000000000e+00 +1.5332622619e+03 1.5332622619e+03 0.0000000000e+00 0.0000e+00 -1.0000e+00
       -2 -1    0    0    0  501 -0.0000000000e+00 -0.0000000000e+00 -1.1889963092e+03 1.1889963092e+03 0.0000000000e+00 0.0000e+00 1.0000e+00
      -13  1    1    2    0    0 -2.5939071832e+02 -6.9672587840e+02 -9.6407971594e+02 1.2174400162e+03 0.0000000000e+00 0.0000e+00 1.0000e+00
       13  1    1    2    0    0 +2.5939071832e+02 +6.9672587840e+02 +1.3083456686e+03 1.5048185548e+03 0.0000000000e+00 0.0000e+00 -1.0000e+00
<mgrwt>
<rscale>  0 0.27004023E+04</rscale>
<asrwt>0</asrwt>
<pdfrwt beam="1">  1        2 0.23588650E+00 0.27004023E+04</pdfrwt>
<pdfrwt beam="2">  1       -2 0.18292251E+00 0.27004023E+04</pdfrwt>
<totfact> 0.21316425E+00</totfact>
</mgrwt>
<rwgt>
<wgt id='morphing_basis_vector_1'> +5.3516393e-05 </wgt>
<wgt id='morphing_basis_vector_2'> +3.6034468e-05 </wgt>
<wgt id='morphing_basis_vector_3'> +5.8092723e-05 </wgt>
<wgt id='morphing_basis_vector_4'> +4.1269608e-05 </wgt>
<wgt id='morphing_basis_vector_5'> +6.5827392e-05 </wgt>
</rwgt>
</event>
<event>
 4      1 +7.3133000e-09 2.73172900e+03 7.81860800e-03 7.82375000e-02
        2 -1    0    0  501    0 +0.0000000000e+00 +0.0000000000e+00 +2.8042558363e+03 2.8042558363e+03 0.0000000000e+00 0.0000e+00 -1.0000e+00
       -2 -1    0    0    0  501 -0.0000000000e+00 -0.0000000000e+00 -6.6526928401e+02 6.6526928401e+02 0.0000000000e+00 0.0000e+00 1.0000e+00
      -13  1    1    2    0    0 -5.0212425692e+02 +8.1840070475e+02 -1.6430490293e+02 9.7411733587e+02 0.0000000000e+00 0.0000e+00 1.0000e+00
       13  1    1    2    0    0 +5.0212425692e+02 -8.1840070475e+02 +2.3032914552e+03 2.4954077844e+03 0.0000000000e+00 0.0000e+00 -1.0000e+00
<mgrwt>
<rscale>  0 0.27317286E+04</rscale>
<asrwt>0</asrwt>
<pdfrwt beam="1">  1        2 0.43142397E+00 0.27317286E+04</pdfrwt>
<pdfrwt beam="2">  1       -2 0.10234912E+00 0.27317286E+04</pdfrwt>
<totfact> 0.19444516E+00</totfact>
</mgrwt>
<rwgt>
<wgt id='morphing_basis_vector_1'> +5.6060928e-05 </wgt>
<wgt id='morphing_basis_vector_2'> +3.7864449e-05 </wgt>
<wgt id='morphing_basis_vector_3'> +6.0904906e-05 </wgt>
<wgt id='morphing_basis_vector_4'> +4.3143579e-05 </wgt>
<wgt id='morphing_basis_vector_5'> +6.8962147e-05 </wgt>
</rwgt>
</event>
<event>
 4      1 +7.3133000e-09 3.07068400e+03 7.81860800e-03 7.73461600e-02
        2 -1    0    0  501    0 +0.0000000000e+00 +0.0000000000e+00 +2.9337543700e+03 2.9337543700e+03 0.0000000000e+00 0.0000e+00 -1.0000e+00
       -2 -1    0    0    0  501 -0.0000000000e+00 -0.0000000000e+00 -8.0350107970e+02 8.0350107970e+02 0.0000000000e+00 0.0000e+00 1.0000e+00
      -13  1    1    2    0    0 -6.2096962502e+02 +8.8755616113e+02 -2.5914795945e+02 1.1137849340e+03 0.0000000000e+00 0.0000e+00 1.0000e+00
       13  1    1    2    0    0 +6.2096962502e+02 -8.8755616113e+02 +2.3894012497e+03 2.6234705157e+03 0.0000000000e+00 0.0000e+00 -1.0000e+00
<mgrwt>
<rscale>  0 0.30706838E+04</rscale>
<asrwt>0</asrwt>
<pdfrwt beam="1">  1        2 0.45134682E+00 0.30706838E+04</pdfrwt>
<pdfrwt beam="2">  1       -2 0.12361555E+00 0.30706838E+04</pdfrwt>
<totfact> 0.96898900E-01</totfact>
</mgrwt>
<rwgt>
<wgt id='morphing_basis_vector_1'> +8.9100314e-05 </wgt>
<wgt id='morphing_basis_vector_2'> +6.0347664e-05 </wgt>
<wgt id='morphing_basis_vector_3'> +9.7211699e-05 </wgt>
<wgt id='morphing_basis_vector_4'> +6.9177214e-05 </wgt>
<wgt id='morphing_basis_vector_5'> +1.1059520e-04 </wgt>
</rwgt>
</event>
<event>
 4      1 +7.3133000e-09 2.68552500e+03 7.81860800e-03 7.83691400e-02
        2 -1    0    0  501    0 +0.0000000000e+00 +0.0000000000e+00 +2.7667461137e+03 2.7667461137e+03 0.0000000000e+00 0.0000e+00 1.0000e+00
       -2 -1    0    0    0  501 -0.0000000000e+00 -0.0000000000e+00 -6.5167199906e+02 6.5167199906e+02 0.0000000000e+00 0.0000e+00 -1.0000e+00
      -13  1    1    2    0    0 +2.4267817485e+02 +9.3549759421e+02 -1.2904157798e+02 9.7503855010e+02 0.0000000000e+00 0.0000e+00 -1.0000e+00
       13  1    1    2    0    0 -2.4267817485e+02 -9.3549759421e+02 +2.2441156926e+03 2.4433795626e+03 0.0000000000e+00 0.0000e+00 1.0000e+00
<mgrwt>
<rscale>  0 0.26855249E+04</rscale>
<asrwt>0</asrwt>
<pdfrwt beam="1">  1        2 0.42565324E+00 0.26855249E+04</pdfrwt>
<pdfrwt beam="2">  1       -2 0.10025723E+00 0.26855249E+04</pdfrwt>
<totfact> 0.21666269E+00</totfact>
</mgrwt>
<rwgt>
<wgt id='morphing_basis_vector_1'> +5.2411662e-05 </wgt>
<wgt id='morphing_basis_vector_2'> +3.5403526e-05 </wgt>
<wgt id='morphing_basis_vector_3'> +5.6904218e-05 </wgt>
<wgt id='morphing_basis_vector_4'> +4.0250941e-05 </wgt>
<wgt id='morphing_basis_vector_5'> +6.4364263e-05 </wgt>
</rwgt>
</event>
<event>
 4      1 +7.3133000e-09 3.20442300e+03 7.81860800e-03 7.70264600e-02
        2 -1    0    0  501    0 +0.0000000000e+00 +0.0000000000e+00 +2.0493953019e+03 2.0493953019e+03 0.0000000000e+00 0.0000e+00 -1.0000e+00
       -2 -1    0    0    0  501 -0.0000000000e+00 -0.0000000000e+00 -1.2526044398e+03 1.2526044398e+03 0.0000000000e+00 0.0000e+00 1.0000e+00
      -13  1    1    2    0    0 -1.6638488314e+02 +6.9594245334e+02 -1.0788057420e+03 1.2945430301e+03 0.0000000000e+00 0.0000e+00 1.0000e+00
       13  1    1    2    0    0 +1.6638488314e+02 -6.9594245334e+02 +1.8755966042e+03 2.0074567117e+03 0.0000000000e+00 0.0000e+00 -1.0000e+00
<mgrwt>
<rscale>  0 0.32044230E+04</rscale>
<asrwt>0</asrwt>
<pdfrwt beam="1">  1        2 0.31529159E+00 0.32044230E+04</pdfrwt>
<pdfrwt beam="2">  1       -2 0.19270837E+00 0.32044230E+04</pdfrwt>
<totfact> 0.88867038E-01</totfact>
</mgrwt>
<rwgt>
<wgt id='morphing_basis_vector_1'> +1.0540581e-04 </wgt>
<wgt id='morphing_basis_vector_2'> +7.1199537e-05 </wgt>
<wgt id='morphing_basis_vector_3'> +1.1509968e-04 </wgt>
<wgt id='morphing_basis_vector_4'> +8.2382426e-05 </wgt>
<wgt id='morphing_basis_vector_5'> +1.3135856e-04 </wgt>
</rwgt>
</event>
<event>
 4      1 +7.3133000e-09 2.67238500e+03 7.81860800e-03 7.84070700e-02
        2 -1    0    0  501    0 +0.0000000000e+00 +0.0000000000e+00 +2.1208674013e+03 2.1208674013e+03 0.0000000000e+00 0.0000e+00 -1.0000e+00
       -2 -1    0    0    0  501 -0.0000000000e+00 -0.0000000000e+00 -8.4183003564e+02 8.4183003564e+02 0.0000000000e+00 0.0000e+00 1.0000e+00
      -13  1    1    2    0    0 +4.3066612183e+02 -6.9509327407e+02 -5.3206286997e+02 9.7556079552e+02 0.0000000000e+00 0.0000e+00 1.0000e+00
       13  1    1    2    0    0 -4.3066612183e+02 +6.9509327407e+02 +1.8111002356e+03 1.9871366414e+03 0.0000000000e+00 0.0000e+00 -1.0000e+00
<mgrwt>
<rscale>  0 0.26723846E+04</rscale>
<asrwt>0</asrwt>
<pdfrwt beam="1">  1        2 0.32628729E+00 0.26723846E+04</pdfrwt>
<pdfrwt beam="2">  1       -2 0.12951231E+00 0.26723846E+04</pdfrwt>
<totfact> 0.27326340E+00</totfact>
</mgrwt>
<rwgt>
<wgt id='morphing_basis_vector_1'> +5.1365420e-05 </wgt>
<wgt id='morphing_basis_vector_2'> +3.4602689e-05 </wgt>
<wgt id='morphing_basis_vector_3'> +5.5738769e-05 </wgt>
<wgt id='morphing_basis_vector_4'> +3.9541792e-05 </wgt>
<wgt id='morphing_basis_vector_5'> +6.3106582e-05 </wgt>
</rwgt>
</event>
<event>
 4      1 +7.3133000e-09 2.78899500e+03 7.81860800e-03 7.80779600e-02
        2 -1    0    0  501    0 +0.0000000000e+00 +0.0000000000e+00 +2.2650855866e+03 2.2650855866e+03 0.0000000000e+00 0.0000e+00 1.0000e+00
       -2 -1    0    0    0  501 -0.0000000000e+00 -0.0000000000e+00 -8.5852070218e+02 8.5852070218e+02 0.0000000000e+00 0.0000e+00 -1.0000e+00
      -13  1    1    2    0    0 +1.2892101371e+03 +2.4271077506e+02 +1.7362561528e+02 1.3232978320e+03 0.0000000000e+00 0.0000e+00 -1.0000e+00
       13  1    1    2    0    0 -1.2892101371e+03 -2.4271077506e+02 +1.2329392692e+03 1.8003084568e+03 0.0000000000e+00 0.0000e+00 1.0000e+00
<mgrwt>
<rscale>  0 0.27889947E+04</rscale>
<asrwt>0</asrwt>
<pdfrwt beam="1">  1        2 0.34847471E+00 0.27889947E+04</pdfrwt>
<pdfrwt beam="2">  1       -2 0.13208011E+00 0.27889947E+04</pdfrwt>
<totfact> 0.21222884E+00</totfact>
</mgrwt>
<rwgt>
<wgt id='morphing_basis_vector_1'> +6.1374756e-05 </wgt>
<wgt id='morphing_basis_vector_2'> +4.2649862e-05 </wgt>
<wgt id='morphing_basis_vector_3'> +6.6972830e-05 </wgt>
<wgt id='morphing_basis_vector_4'> +4.5845747e-05 </wgt>
<wgt id='morphing_basis_vector_5'> +7.4906890e-05 </wgt>
</rwgt>
</event>
<event>
 4      1 +7.3133000e-09 2.97204700e+03 7.81860800e-03 7.75929400e-02
        2 -1    0    0  501    0 +0.0000000000e+00 +0.0000000000e+00 +1.3157781330e+03 1.3157781330e+03 0.0000000000e+00 0.0000e+00 -1.0000e+00
       -2 -1    0    0    0  501 -0.0000000000e+00 -0.0000000000e+00 -1.6782962942e+03 1.6782962942e+03 0.0000000000e+00 0.0000e+00 1.0000e+00
      -13  1    1    2    0    0 -8.3332033155e+02 +7.3828477673e+02 -1.1728194596e+03 1.6170938969e+03 0.0000000000e+00 0.0000e+00 1.0000e+00
       13  1    1    2    0    0 +8.3332033155e+02 -7.3828477673e+02 +8.1030129849e+02 1.3769805303e+03 0.0000000000e+00 0.0000e+00 -1.0000e+00
<mgrwt>
<rscale>  0 0.29720468E+04</rscale>
<asrwt>0</asrwt>
<pdfrwt beam="1">  1        2 0.20242740E+00 0.29720468E+04</pdfrwt>
<pdfrwt beam="2">  1       -2 0.25819943E+00 0.29720468E+04</pdfrwt>
<totfact> 0.80195069E-01</totfact>
</mgrwt>
<rwgt>
<wgt id='morphing_basis_vector_1'> +7.8321863e-05 </wgt>
<wgt id='morphing_basis_vector_2'> +5.3098024e-05 </wgt>
<wgt id='morphing_basis_vector_3'> +8.5377319e-05 </wgt>
<wgt id='morphing_basis_vector_4'> +6.0560304e-05 </wgt>
<wgt id='morphing_basis_vector_5'> +9.6937875e-05 </wgt>
</rwgt>
</event>
<event>
 4      1 +7.3133000e-09 2.68302400e+03 7.81860800e-03 7.83763500e-02
        2 -1    0    0  501    0 +0.0000000000e+00 +0.0000000000e+00 +2.3334963505e+03 2.3334963505e+03 0.0000000000e+00 0.0000e+00 -1.0000e+00
       -2 -1    0    0    0  501 -0.0000000000e+00 -0.0000000000e+00 -7.7122640005e+02 7.7122640005e+02 0.0000000000e+00 0.0000e+00 1.0000e+00
      -13  1    1    2    0    0 +5.9980731443e+02 -2.3850446793e+01 +2.1694129969e+03 2.2509310095e+03 0.0000000000e+00 0.0000e+00 -1.0000e+00
       13  1    1    2    0    0 -5.9980731443e+02 +2.3850446793e+01 -6.0714304646e+02 8.5379174107e+02 0.0000000000e+00 0.0000e+00 1.0000e+00
<mgrwt>
<rscale>  0 0.26830237E+04</rscale>
<asrwt>0</asrwt>
<pdfrwt beam="1">  1        2 0.35899944E+00 0.26830237E+04</pdfrwt>
<pdfrwt beam="2">  1       -2 0.11865022E+00 0.26830237E+04</pdfrwt>
<totfact> 0.25925720E+00</totfact>
</mgrwt>
<rwgt>
<wgt id='morphing_basis_vector_1'> +7.0939816e-05 </wgt>
<wgt id='morphing_basis_vector_2'> +9.0468257e-05 </wgt>
<wgt id='morphing_basis_vector_3'> +8.5578543e-05 </wgt>
<wgt id='morphing_basis_vector_4'> +1.4724952e-06 </wgt>
<wgt id='morphing_basis_vector_5'> +6.0972668e-05 </wgt>
</rwgt>
</event>
<event>
 4      1 +7.3133000e-09 2.73290500e+03 7.81860800e-03 7.82341800e-02
        2 -1    0    0  501    0 +0.0000000000e+00 +0.0000000000e+00 +3.3364721346e+03 3.3364721346e+03 0.0000000000e+00 0.0000e+00 -1.0000e+00
       -2 -1    0    0    0  501 -0.0000000000e+00 -0.0000000000e+00 -5.5963075428e+02 5.5963075428e+02 0.0000000000e+00 0.0000e+00 1.0000e+00
      -13  1    1    2    0    0 -1.3278224674e+03 +2.2259410021e+02 +1.0555077192e+03 1.7107767779e+03 0.0000000000e+00 0.0000e+00 1.0000e+00
       13  1    1    2    0    0 +1.3278224674e+03 -2.2259410021e+02 +1.7213336612e+03 2.1853261110e+03 0.0000000000e+00 0.0000e+00 -1.0000e+00
<mgrwt>
<rscale>  0 0.27329050E+04</rscale>
<asrwt>0</asrwt>
<pdfrwt beam="1">  1        2 0.51330339E+00 0.27329050E+04</pdfrwt>
<pdfrwt beam="2">  1       -2 0.86097041E-01 0.27329050E+04</pdfrwt>
<totfact> 0.13007528E+00</totfact>
</mgrwt>
<rwgt>
<wgt id='morphing_basis_vector_1'> +5.7177406e-05 </wgt>
<wgt id='morphing_basis_vector_2'> +4.0938808e-05 </wgt>
<wgt id='morphing_basis_vector_3'> +6.2589117e-05 </wgt>
<wgt id='morphing_basis_vector_4'> +4.1108830e-05 </wgt>
<wgt id='morphing_basis_vector_5'> +6.8910009e-05 </wgt>
</rwgt>
</event>
<event>
 4      1 +7.3133000e-09 2.94479100e+03 7.81860800e-03 7.76628800e-02
        2 -1    0    0  501    0 +0.0000000000e+00 +0.0000000000e+00 +1.5842463095e+03 1.5842463095e+03 0.0000000000e+00 0.0000e+00 1.0000e+00
       -2 -1    0    0    0  501 -0.0000000000e+00 -0.0000000000e+00 -1.3684419876e+03 1.3684419876e+03 0.0000000000e+00 0.0000e+00 -1.0000e+00
      -13  1    1    2    0    0 +7.5512162341e+02 +8.7273773524e+02 +1.0247224388e+03 1.5433521624e+03 0.0000000000e+00 0.0000e+00 -1.0000e+00
       13  1    1    2    0    0 -7.5512162341e+02 -8.7273773524e+02 -8.0891811689e+02 1.4093361347e+03 0.0000000000e+00 0.0000e+00 1.0000e+00
<mgrwt>
<rscale>  0 0.29447914E+04</rscale>
<asrwt>0</asrwt>
<pdfrwt beam="1">  1        2 0.24373020E+00 0.29447914E+04</pdfrwt>
<pdfrwt beam="2">  1       -2 0.21052954E+00 0.29447914E+04</pdfrwt>
<totfact> 0.12253165E+00</totfact>
</mgrwt>
<rwgt>
<wgt id='morphing_basis_vector_1'> +9.4051670e-05 </wgt>
<wgt id='morphing_basis_vector_2'> +1.0578866e-04 </wgt>
<wgt id='morphing_basis_vector_3'> +1.1124279e-04 </wgt>
<wgt id='morphing_basis_vector_4'> +1.9806291e-05 </wgt>
<wgt id='morphing_basis_vector_5'> +9.0235277e-05 </wgt>
</rwgt>
</event>
<event>
 4      1 +7.3133000e-09 3.02131100e+03 7.81860800e-03 7.74684700e-02
        2 -1    0    0  501    0 +0.0000000000e+00 +0.0000000000e+00 +4.0325962337e+03 4.0325962337e+03 0.0000000000e+00 0.0000e+00 1.0000e+00
       -2 -1    0    0    0  501 -0.0000000000e+00 -0.0000000000e+00 -5.6590821803e+02 5.6590821803e+02 0.0000000000e+00 0.0000e+00 -1.0000e+00
      -13  1    1    2    0    0 +7.1576160324e+01 -1.5054612386e+03 +1.5770665402e+03 2.1814388738e+03 0.0000000000e+00 0.0000e+00 -1.0000e+00
       13  1    1    2    0    0 -7.1576160324e+01 +1.5054612386e+03 +1.8896214755e+03 2.4170655780e+03 0.0000000000e+00 0.0000e+00 1.0000e+00
<mgrwt>
<rscale>  0 0.30213105E+04</rscale>
<asrwt>0</asrwt>
<pdfrwt beam="1">  1        2 0.62039940E+00 0.30213105E+04</pdfrwt>
<pdfrwt beam="2">  1       -2 0.87062805E-01 0.30213105E+04</pdfrwt>
<totfact> 0.35790244E-01</totfact>
</mgrwt>
<rwgt>
<wgt id='morphing_basis_vector_1'> +8.5846582e-05 </wgt>
<wgt id='morphing_basis_vector_2'> +6.3323000e-05 </wgt>
<wgt id='morphing_basis_vector_3'> +9.4703151e-05 </wgt>
<wgt id='morphing_basis_vector_4'> +6.0023713e-05 </wgt>
<wgt id='morphing_basis_vector_5'> +1.0320156e-04 </wgt>
</rwgt>
</event>
<event>
 4      1 +7.3133000e-09 2.93539200e+03 7.81860800e-03 7.76871800e-02
        2 -1    0    0  501    0 +0.0000000000e+00 +0.0000000000e+00 +9.7946356162e+02 9.7946356162e+02 0.0000000000e+00 0.0000e+00 -1.0000e+00
       -2 -1    0    0    0  501 -0.0000000000e+00 -0.0000000000e+00 -2.1992970844e+03 2.1992970844e+03 0.0000000000e+00 0.0000e+00 1.0000e+00
      -13  1    1    2    0    0 +4.5894135237e+02 -3.6025979482e+02 -2.0683162761e+03 2.1490338534e+03 0.0000000000e+00 0.0000e+00 1.0000e+00
       13  1    1    2    0    0 -4.5894135237e+02 +3.6025979482e+02 +8.4848275339e+02 1.0297267926e+03 0.0000000000e+00 0.0000e+00 -1.0000e+00
<mgrwt>
<rscale>  0 0.29353919E+04</rscale>
<asrwt>0</asrwt>
<pdfrwt beam="1">  1        2 0.15068670E+00 0.29353919E+04</pdfrwt>
<pdfrwt beam="2">  1       -2 0.33835339E+00 0.29353919E+04</pdfrwt>
<totfact> 0.36721457E-01</totfact>
</mgrwt>
<rwgt>
<wgt id='morphing_basis_vector_1'> +7.4444538e-05 </wgt>
<wgt id='morphing_basis_vector_2'> +5.0185623e-05 </wgt>
<wgt id='morphing_basis_vector_3'> +8.1059451e-05 </wgt>
<wgt id='morphing_basis_vector_4'> +5.7849451e-05 </wgt>
<wgt id='morphing_basis_vector_5'> +9.2221857e-05 </wgt>
</rwgt>
</event>
<event>
 4      1 +7.3133000e-09 2.94513400e+03 7.81860800e-03 7.76619900e-02
        2 -1    0    0  501    0 +0.0000000000e+00 +0.0000000000e+00 +3.6556324967e+03 3.6556324967e+03 0.0000000000e+00 0.0000e+00 1.0000e+00
       -2 -1    0    0    0  501 -0.0000000000e+00 -0.0000000000e+00 -5.9318135669e+02 5.9318135669e+02 0.0000000000e+00 0.0000e+00 -1.0000e+00
      -13  1    1    2    0    0 -3.5298202273e+02 +1.4291402151e+03 +1.5854928463e+03 2.1635215803e+03 0.0000000000e+00 0.0000e+00 1.0000e+00
       13  1    1    2    0    0 +3.5298202273e+02 -1.4291402151e+03 +1.4769582938e+03 2.0852922731e+03 0.0000000000e+00 0.0000e+00 -1.0000e+00
<mgrwt>
<rscale>  0 0.29451336E+04</rscale>
<asrwt>0</asrwt>
<pdfrwt beam="1">  1        2 0.56240499E+00 0.29451336E+04</pdfrwt>
<pdfrwt beam="2">  1       -2 0.91258673E-01 0.29451336E+04</pdfrwt>
<totfact> 0.65129497E-01</totfact>
</mgrwt>
<rwgt>
<wgt id='morphing_basis_vector_1'> +7.8457848e-05 </wgt>
<wgt id='morphing_basis_vector_2'> +5.9776546e-05 </wgt>
<wgt id='morphing_basis_vector_3'> +8.6871873e-05 </wgt>
<wgt id='morphing_basis_vector_4'> +5.2328979e-05 </wgt>
<wgt id='morphing_basis_vector_5'> +9.2946542e-05 </wgt>
</rwgt>
</event>
<event>
 4      1 +7.3133000e-09 2.71182300e+03 7.81860800e-03 7.82938900e-02
        2 -1    0    0  501    0 +0.0000000000e+00 +0.0000000000e+00 +9.8514466255e+02 9.8514466255e+02 0.0000000000e+00 0.0000e+00 1.0000e+00
       -2 -1    0    0    0  501 -0.0000000000e+00 -0.0000000000e+00 -1.8662193776e+03 1.8662193776e+03 0.0000000000e+00 0.0000e+00 -1.0000e+00
      -13  1    1    2    0    0 -1.3941665687e+02 +7.3403073372e+02 -1.6302444738e+03 1.7933028653e+03 0.0000000000e+00 0.0000e+00 -1.0000e+00
       13  1    1    2    0    0 +1.3941665687e+02 -7.3403073372e+02 +7.4916975877e+02 1.0580611748e+03 0.0000000000e+00 0.0000e+00 1.0000e+00
<mgrwt>
<rscale>  0 0.27118230E+04</rscale>
<asrwt>0</asrwt>
<pdfrwt beam="1">  1        2 0.15156072E+00 0.27118230E+04</pdfrwt>
<pdfrwt beam="2">  1       -2 0.28711067E+00 0.27118230E+04</pdfrwt>
<totfact> 0.81729633E-01</totfact>
</mgrwt>
<rwgt>
<wgt id='morphing_basis_vector_1'> +5.4417330e-05 </wgt>
<wgt id='morphing_basis_vector_2'> +3.6645335e-05 </wgt>
<wgt id='morphing_basis_vector_3'> +5.9081009e-05 </wgt>
<wgt id='morphing_basis_vector_4'> +4.1979595e-05 </wgt>
<wgt id='morphing_basis_vector_5'> +6.6960404e-05 </wgt>
</rwgt>
</event>
<event>
 4      1 +7.3133000e-09 2.70669300e+03 7.81860800e-03 7.83085000e-02
        2 -1    0    0  501    0 +0.0000000000e+00 +0.0000000000e+00 +3.1631888819e+03 3.1631888819e+03 0.0000000000e+00 0.0000e+00 1.0000e+00
       -2 -1    0    0    0  501 -0.0000000000e+00 -0.0000000000e+00 -5.7901894512e+02 5.7901894512e+02 0.0000000000e+00 0.0000e+00 -1.0000e+00
      -13  1    1    2    0    0 -6.4451460546e+02 -3.4990163877e+02 -2.8047943794e+02 7.8517447015e+02 0.0000000000e+00 0.0000e+00 -1.0000e+00
       13  1    1    2    0    0 +6.4451460546e+02 +3.4990163877e+02 +2.8646493748e+03 2.9570333569e+03 0.0000000000e+00 0.0000e+00 1.0000e+00
<mgrwt>
<rscale>  0 0.27066927E+04</rscale>
<asrwt>0</asrwt>
<pdfrwt beam="1">  1        2 0.48664443E+00 0.27066927E+04</pdfrwt>
<pdfrwt beam="2">  1       -2 0.89079839E-01 0.27066927E+04</pdfrwt>
<totfact> 0.15844020E+00</totfact>
</mgrwt>
<rwgt>
<wgt id='morphing_basis_vector_1'> +5.4009869e-05 </wgt>
<wgt id='morphing_basis_vector_2'> +3.6366008e-05 </wgt>
<wgt id='morphing_basis_vector_3'> +5.8633431e-05 </wgt>
<wgt id='morphing_basis_vector_4'> +4.1662311e-05 </wgt>
<wgt id='morphing_basis_vector_5'> +6.6449874e-05 </wgt>
</rwgt>
</event>
<event>
 4      1 +7.3133000e-09 2.74863400e+03 7.81860800e-03 7.81899900e-02
        2 -1    0    0  501    0 +0.0000000000e+00 +0.0000000000e+00 +1.4858330087e+03 1.4858330087e+03 0.0000000000e+00 0.0000e+00 1.0000e+00
       -2 -1    0    0    0  501 -0.0000000000e+00 -0.0000000000e+00 -1.2711702998e+03 1.2711702998e+03 0.0000000000e+00 0.0000e+00 -1.0000e+00
      -13  1    1    2    0    0 +1.2046521006e+03 -5.5750615866e+02 -2.4976815222e+02 1.3506975718e+03 0.0000000000e+00 0.0000e+00 -1.0000e+00
       13  1    1    2    0    0 -1.2046521006e+03 +5.5750615866e+02 +4.6443086113e+02 1.4063057368e+03 0.0000000000e+00 0.0000e+00 1.0000e+00
<mgrwt>
<rscale>  0 0.27486337E+04</rscale>
<asrwt>0</asrwt>
<pdfrwt beam="1">  1        2 0.22858969E+00 0.27486337E+04</pdfrwt>
<pdfrwt beam="2">  1       -2 0.19556466E+00 0.27486337E+04</pdfrwt>
<totfact> 0.18164644E+00</totfact>
</mgrwt>
<rwgt>
<wgt id='morphing_basis_vector_1'> +5.8159663e-05 </wgt>
<wgt id='morphing_basis_vector_2'> +4.0909268e-05 </wgt>
<wgt id='morphing_basis_vector_3'> +6.3529995e-05 </wgt>
<wgt id='morphing_basis_vector_4'> +4.2757508e-05 </wgt>
<wgt id='morphing_basis_vector_5'> +7.0583167e-05 </wgt>
</rwgt>
</event>
<event>
 4      1 +7.3133000e-09 2.89368700e+03 7.81860800e-03 7.77961100e-02
        2 -1    0    0  501    0 +0.0000000000e+00 +0.0000000000e+00 +1.7374333056e+03 1.7374333056e+03 0.0000000000e+00 0.0000e+00 -1.0000e+00
       -2 -1    0    0    0  501 -0.0000000000e+00 -0.0000000000e+00 -1.2048556203e+03 1.2048556203e+03 0.0000000000e+00 0.0000e+00 1.0000e+00
      -13  1    1    2    0    0 +2.0125405252e+02 -1.3642775594e+03 -1.7878421633e+02 1.3905827012e+03 0.0000000000e+00 0.0000e+00 1.0000e+00
       13  1    1    2    0    0 -2.0125405252e+02 +1.3642775594e+03 +7.1136190165e+02 1.5517062248e+03 0.0000000000e+00 0.0000e+00 -1.0000e+00
<mgrwt>
<rscale>  0 0.28936871E+04</rscale>
<asrwt>0</asrwt>
<pdfrwt beam="1">  1        2 0.26729743E+00 0.28936871E+04</pdfrwt>
<pdfrwt beam="2">  1       -2 0.18536240E+00 0.28936871E+04</pdfrwt>
<totfact> 0.15470398E+00</totfact>
</mgrwt>
<rwgt>
<wgt id='morphing_basis_vector_1'> +7.1133318e-05 </wgt>
<wgt id='morphing_basis_vector_2'> +4.9736053e-05 </wgt>
<wgt id='morphing_basis_vector_3'> +7.7786714e-05 </wgt>
<wgt id='morphing_basis_vector_4'> +5.2959211e-05 </wgt>
<wgt id='morphing_basis_vector_5'> +8.6909947e-05 </wgt>
</rwgt>
</event>
<event>
 4      1 +7.3133000e-09 2.70669600e+03 7.81860800e-03 7.83084900e-02
        2 -1    0    0  501    0 +0.0000000000e+00 +0.0000000000e+00 +1.2354716087e+03 1.2354716087e+03 0.0000000000e+00 0.0000e+00 -1.0000e+00
       -2 -1    0    0    0  501 -0.0000000000e+00 -0.0000000000e+00 -1.4824708058e+03 1.4824708058e+03 0.0000000000e+00 0.0000e+00 1.0000e+00
      -13  1    1    2    0    0 -7.2731711648e+02 -5.6577580989e+02 -1.1188083496e+03 1.4494221532e+03 0.0000000000e+00 0.0000e+00 1.0000e+00
       13  1    1    2    0    0 +7.2731711648e+02 +5.6577580989e+02 +8.7180915247e+02 1.2685202613e+03 0.0000000000e+00 0.0000e+00 -1.0000e+00
<mgrwt>
<rscale>  0 0.27066958E+04</rscale>
<asrwt>0</asrwt>
<pdfrwt beam="1">  1        2 0.19007256E+00 0.27066958E+04</pdfrwt>
<pdfrwt beam="2">  1       -2 0.22807243E+00 0.27066958E+04</pdfrwt>
<totfact> 0.14775649E+00</totfact>
</mgrwt>
<rwgt>
<wgt id='morphing_basis_vector_1'> +5.4045942e-05 </wgt>
<wgt id='morphing_basis_vector_2'> +3.6471785e-05 </wgt>
<wgt id='morphing_basis_vector_3'> +5.8689048e-05 </wgt>
<wgt id='morphing_basis_vector_4'> +4.1588538e-05 </wgt>
<wgt id='morphing_basis_vector_5'> +6.6444154e-05 </wgt>
</rwgt>
</event>
<event>
 4      1 +7.3133000e-09 2.90727500e+03 7.81860800e-03 7.77604200e-02
        2 -1    0    0  501    0 +0.0000000000e+00 +0.0000000000e+00 +3.1151638757e+03 3.1151638757e+03 0.0000000000e+00 0.0000e+00 1.0000e+00
       -2 -1    0    0    0  501 -0.0000000000e+00 -0.0000000000e+00 -6.7831499705e+02 6.7831499705e+02 0.0000000000e+00 0.0000e+00 -1.0000e+00
      -13  1    1    2    0    0 +2.9978245836e+02 -4.3833747739e+02 -5.4721485678e+02 7.6253089505e+02 0.0000000000e+00 0.0000e+00 -1.0000e+00
       13  1    1    2    0    0 -2.9978245836e+02 +4.3833747739e+02 +2.9840637354e+03 3.0309479777e+03 0.0000000000e+00 0.0000e+00 1.0000e+00
<mgrwt>
<rscale>  0 0.29072753E+04</rscale>
<asrwt>0</asrwt>
<pdfrwt beam="1">  1        2 0.47925597E+00 0.29072753E+04</pdfrwt>
<pdfrwt beam="2">  1       -2 0.10435616E+00 0.29072753E+04</pdfrwt>
<totfact> 0.11496879E+00</totfact>
</mgrwt>
<rwgt>
<wgt id='morphing_basis_vector_1'> +7.1657737e-05 </wgt>
<wgt id='morphing_basis_vector_2'> +4.8292578e-05 </wgt>
<wgt id='morphing_basis_vector_3'> +7.7997621e-05 </wgt>
<wgt id='morphing_basis_vector_4'> +5.5648582e-05 </wgt>
<wgt id='morphing_basis_vector_5'> +8.8707270e-05 </wgt>
</rwgt>
</event>
<event>
 4      1 +7.3133000e-09 2.79228000e+03 7.81860800e-03 7.80689300e-02
        2 -1    0    0  501    0 +0.0000000000e+00 +0.0000000000e+00 +1.4707907858e+03 1.4707907858e+03 0.0000000000e+00 0.0000e+00 1.0000e+00
       -2 -1    0    0    0  501 -0.0000000000e+00 -0.0000000000e+00 -1.3252777998e+03 1.3252777998e+03 0.0000000000e+00 0.0000e+00 -1.0000e+00
      -13  1    1    2    0    0 +8.7089272535e+00 +2.5989408946e+02 -1.3008138406e+03 1.3265509531e+03 0.0000000000e+00 0.0000e+00 -1.0000e+00
       13  1    1    2    0    0 -8.7089272535e+00 -2.5989408946e+02 +1.4463268266e+03 1.4695176326e+03 0.0000000000e+00 0.0000e+00 1.0000e+00
<mgrwt>
<rscale>  0 0.27922796E+04</rscale>
<asrwt>0</asrwt>
<pdfrwt beam="1">  1        2 0.22627551E+00 0.27922796E+04</pdfrwt>
<pdfrwt beam="2">  1       -2 0.20388889E+00 0.27922796E+04</pdfrwt>
<totfact> 0.16041816E+00</totfact>
</mgrwt>
<rwgt>
<wgt id='morphing_basis_vector_1'> +6.1071398e-05 </wgt>
<wgt id='morphing_basis_vector_2'> +4.1111486e-05 </wgt>
<wgt id='morphing_basis_vector_3'> +6.6373429e-05 </wgt>
<wgt id='morphing_basis_vector_4'> +4.7285825e-05 </wgt>
<wgt id='morphing_basis_vector_5'> +7.5363948e-05 </wgt>
</rwgt>
</event>
<event>
 4      1 +7.3133000e-09 3.09235900e+03 7.81860800e-03 7.72932200e-02
        2 -1    0    0  501    0 +0.0000000000e+00 +0.0000000000e+00 +1.7400961049e+03 1.7400961049e+03 0.0000000000e+00 0.0000e+00 1.0000e+00
       -2 -1    0    0    0  501 -0.0000000000e+00 -0.0000000000e+00 -1.3738729169e+03 1.3738729169e+03 0.0000000000e+00 0.0000e+00 -1.0000e+00
      -13  1    1    2    0    0 -4.2773695105e+02 -2.3251060748e+02 -1.2946760800e+03 1.3831869845e+03 0.0000000000e+00 0.0000e+00 -1.0000e+00
       13  1    1    2    0    0 +4.2773695105e+02 +2.3251060748e+02 +1.6608992681e+03 1.7307820373e+03 0.0000000000e+00 0.0000e+00 1.0000e+00
<mgrwt>
<rscale>  0 0.30923589E+04</rscale>
<asrwt>0</asrwt>
<pdfrwt beam="1">  1        2 0.26770709E+00 0.30923589E+04</pdfrwt>
<pdfrwt beam="2">  1       -2 0.21136506E+00 0.30923589E+04</pdfrwt>
<totfact> 0.97745156E-01</totfact>
</mgrwt>
<rwgt>
<wgt id='morphing_basis_vector_1'> +9.1515055e-05 </wgt>
<wgt id='morphing_basis_vector_2'> +6.1752778e-05 </wgt>
<wgt id='morphing_basis_vector_3'> +9.9818202e-05 </wgt>
<wgt id='morphing_basis_vector_4'> +7.1387829e-05 </wgt>
<wgt id='morphing_basis_vector_5'> +1.1379605e-04 </wgt>
</rwgt>
</event>
<event>
 4      1 +7.3133000e-09 2.97809900e+03 7.81860800e-03 7.75775100e-02
        2 -1    0    0  501    0 +0.0000000000e+00 +0.0000000000e+00 +4.3296703524e+03 4.3296703524e+03 0.0000000000e+00 0.0000e+00 1.0000e+00
       -2 -1    0    0    0  501 -0.0000000000e+00 -0.0000000000e+00 -5.1211027609e+02 5.1211027609e+02 0.0000000000e+00 0.0000e+00 -1.0000e+00
      -13  1    1    2    0    0 -5.5788100676e+02 +5.7123439064e+02 -1.3463794167e+02 8.0973287082e+02 0.0000000000e+00 0.0000e+00 -1.0000e+00
       13  1    1    2    0    0 +5.5788100676e+02 -5.7123439064e+02 +3.9521980180e+03 4.0320477577e+03 0.0000000000e+00 0.0000e+00 1.0000e+00
<mgrwt>
<rscale>  0 0.29780992E+04</rscale>
<asrwt>0</asrwt>
<pdfrwt beam="1">  1        2 0.66610311E+00 0.29780992E+04</pdfrwt>
<pdfrwt beam="2">  1       -2 0.78786199E-01 0.29780992E+04</pdfrwt>
<totfact> 0.24291227E-01</totfact>
</mgrwt>
<rwgt>
<wgt id='morphing_basis_vector_1'> +7.8846866e-05 </wgt>
<wgt id='morphing_basis_vector_2'> +5.3209166e-05 </wgt>
<wgt id='morphing_basis_vector_3'> +8.5903991e-05 </wgt>
<wgt id='morphing_basis_vector_4'> +6.1286318e-05 </wgt>
<wgt id='morphing_basis_vector_5'> +9.7755716e-05 </wgt>
</rwgt>
</event>
<event>
 4      1 +7.3133000e-09 2.84798200e+03 7.81860800e-03 7.79176500e-02
        2 -1    0    0  501    0 +0.0000000000e+00 +0.0000000000e+00 +1.4897497775e+03 1.4897497775e+03 0.0000000000e+00 0.0000e+00 1.0000e+00
       -2 -1    0    0    0  501 -0.0000000000e+00 -0.0000000000e+00 -1.3611351689e+03 1.3611351689e+03 0.0000000000e+00 0.0000e+00 -1.0000e+00
      -13  1    1    2    0    0 +4.0944029176e+02 +4.7807462682e+02 +1.3429321644e+03 1.4831262588e+03 0.0000000000e+00 0.0000e+00 1.0000e+00
       13  1    1    2    0    0 -4.0944029176e+02 -4.7807462682e+02 -1.2143175558e+03 1.3677586877e+03 0.0000000000e+00 0.0000e+00 -1.0000e+00
<mgrwt>
<rscale>  0 0.28479823E+04</rscale>
<asrwt>0</asrwt>
<pdfrwt beam="1">  1        2 0.22919227E+00 0.28479823E+04</pdfrwt>
<pdfrwt beam="2">  1       -2 0.20940541E+00 0.28479823E+04</pdfrwt>
<totfact> 0.14213697E+00</totfact>
</mgrwt>
<rwgt>
<wgt id='morphing_basis_vector_1'> +8.9872606e-05 </wgt>
<wgt id='morphing_basis_vector_2'> +1.1470412e-04 </wgt>
<wgt id='morphing_basis_vector_3'> +1.0889812e-04 </wgt>
<wgt id='morphing_basis_vector_4'> +1.7855482e-06 </wgt>
<wgt id='morphing_basis_vector_5'> +7.7576551e-05 </wgt>
</rwgt>
</event>
<event>
 4      1 +7.3133000e-09 2.69758900e+03 7.81860800e-03 7.83345100e-02
        2 -1    0    0  501    0 +0.0000000000e+00 +0.0000000000e+00 +6.7499174347e+02 6.7499174347e+02 0.0000000000e+00 0.0000e+00 1.0000e+00
       -2 -1    0    0    0  501 -0.0000000000e+00 -0.0000000000e+00 -2.6952141124e+03 2.6952141124e+03 0.0000000000e+00 0.0000e+00 -1.0000e+00
      -13  1    1    2    0    0 +2.1913933351e+02 +5.9652962808e+02 -2.4964462723e+03 2.5760655340e+03 0.0000000000e+00 0.0000e+00 -1.0000e+00
       13  1    1    2    0    0 -2.1913933351e+02 -5.9652962808e+02 +4.7622390341e+02 7.9414032189e+02 0.0000000000e+00 0.0000e+00 1.0000e+00
<mgrwt>
<rscale>  0 0.26975895E+04</rscale>
<asrwt>0</asrwt>
<pdfrwt beam="1">  1        2 0.10384488E+00 0.26975895E+04</pdfrwt>
<pdfrwt beam="2">  1       -2 0.41464832E+00 0.26975895E+04</pdfrwt>
<totfact> 0.19456446E-01</totfact>
</mgrwt>
<rwgt>
<wgt id='morphing_basis_vector_1'> +5.3287184e-05 </wgt>
<wgt id='morphing_basis_vector_2'> +3.5858519e-05 </wgt>
<wgt id='morphing_basis_vector_3'> +5.7837258e-05 </wgt>
<wgt id='morphing_basis_vector_4'> +4.1114812e-05 </wgt>
<wgt id='morphing_basis_vector_5'> +6.5552078e-05 </wgt>
</rwgt>
</event>
<event>
 4      1 +7.3133000e-09 2.69896000e+03 7.81860800e-03 7.83305900e-02
        2 -1    0    0  501    0 +0.0000000000e+00 +0.0000000000e+00 +1.0691613031e+03 1.0691613031e+03 0.0000000000e+00 0.0000e+00 -1.0000e+00
       -2 -1    0    0    0  501 -0.0000000000e+00 -0.0000000000e+00 -1.7032943716e+03 1.7032943716e+03 0.0000000000e+00 0.0000e+00 1.0000e+00
      -13  1    1    2    0    0 -1.3224761244e+02 -1.1371252460e+03 -1.0510539846e+03 1.5541099494e+03 0.0000000000e+00 0.0000e+00 1.0000e+00
       13  1    1    2    0    0 +1.3224761244e+02 +1.1371252460e+03 +4.1692091617e+02 1.2183457254e+03 0.0000000000e+00 0.0000e+00 -1.0000e+00
<mgrwt>
<rscale>  0 0.26989601E+04</rscale>
<asrwt>0</asrwt>
<pdfrwt beam="1">  1        2 0.16448636E+00 0.26989601E+04</pdfrwt>
<pdfrwt beam="2">  1       -2 0.26204528E+00 0.26989601E+04</pdfrwt>
<totfact> 0.10772949E+00</totfact>
</mgrwt>
<rwgt>
<wgt id='morphing_basis_vector_1'> +5.3589469e-05 </wgt>
<wgt id='morphing_basis_vector_2'> +3.6506360e-05 </wgt>
<wgt id='morphing_basis_vector_3'> +5.8256112e-05 </wgt>
<wgt id='morphing_basis_vector_4'> +4.0796526e-05 </wgt>
<wgt id='morphing_basis_vector_5'> +6.5654012e-05 </wgt>
</rwgt>
</event>
<event>
 4      1 +7.3133000e-09 2.70760100e+03 7.81860800e-03 7.83059100e-02
        2 -1    0    0  501    0 +0.0000000000e+00 +0.0000000000e+00 +1.8287604900e+03 1.8287604900e+03 0.0000000000e+00 0.0000e+00 -1.0000e+00
       -2 -1    0    0    0  501 -0.0000000000e+00 -0.0000000000e+00 -1.0021959632e+03 1.0021959632e+03 0.0000000000e+00 0.0000e+00 1.0000e+00
      -13  1    1    2    0    0 +2.6343673717e+02 +7.8281265362e+02 -7.0823821128e+02 1.0880238642e+03 0.0000000000e+00 0.0000e+00 1.0000e+00
       13  1    1    2    0    0 -2.6343673717e+02 -7.8281265362e+02 +1.5348027380e+03 1.7429325890e+03 0.0000000000e+00 0.0000e+00 -1.0000e+00
<mgrwt>
<rscale>  0 0.27076014E+04</rscale>
<asrwt>0</asrwt>
<pdfrwt beam="1">  1        2 0.28134777E+00 0.27076014E+04</pdfrwt>
<pdfrwt beam="2">  1       -2 0.15418399E+00 0.27076014E+04</pdfrwt>
<totfact> 0.24483063E+00</totfact>
</mgrwt>
<rwgt>
<wgt id='morphing_basis_vector_1'> +5.4094618e-05 </wgt>
<wgt id='morphing_basis_vector_2'> +3.6452930e-05 </wgt>
<wgt id='morphing_basis_vector_3'> +5.8732211e-05 </wgt>
<wgt id='morphing_basis_vector_4'> +4.1692073e-05 </wgt>
<wgt id='morphing_basis_vector_5'> +6.6537948e-05 </wgt>
</rwgt>
</event>
<event>
 4      1 +7.3133000e-09 2.67097900e+03 7.81860800e-03 7.84111400e-02
        2 -1    0    0  501    0 +0.0000000000e+00 +0.0000000000e+00 +1.3399621317e+03 1.3399621317e+03 0.0000000000e+00 0.0000e+00 -1.0000e+00
       -2 -1    0    0    0  501 -0.0000000000e+00 -0.0000000000e+00 -1.3310317167e+03 1.3310317167e+03 0.0000000000e+00 0.0000e+00 1.0000e+00
      -13  1    1    2    0    0 +7.0901441615e+02 -9.2024651366e+01 -1.1235313977e+03 1.3317254899e+03 0.0000000000e+00 0.0000e+00 1.0000e+00
       13  1    1    2    0    0 -7.0901441615e+02 +9.2024651366e+01 +1.1324618127e+03 1.3392683585e+03 0.0000000000e+00 0.0000e+00 -1.0000e+00
<mgrwt>
<rscale>  0 0.26709789E+04</rscale>
<asrwt>0</asrwt>
<pdfrwt beam="1">  1        2 0.20614802E+00 0.26709789E+04</pdfrwt>
<pdfrwt beam="2">  1       -2 0.20477411E+00 0.26709789E+04</pdfrwt>
<totfact> 0.18931094E+00</totfact>
</mgrwt>
<rwgt>
<wgt id='morphing_basis_vector_1'> +5.1245050e-05 </wgt>
<wgt id='morphing_basis_vector_2'> +3.4490145e-05 </wgt>
<wgt id='morphing_basis_vector_3'> +5.5600695e-05 </wgt>
<wgt id='morphing_basis_vector_4'> +3.9485832e-05 </wgt>
<wgt id='morphing_basis_vector_5'> +6.2974713e-05 </wgt>
</rwgt>
</event>
<event>
 4      1 +7.3133000e-09 3.00996200e+03 7.81860800e-03 7.74969200e-02
        2 -1    0    0  501    0 +0.0000000000e+00 +0.0000000000e+00 +3.4298494307e+03 3.4298494307e+03 0.0000000000e+00 0.0000e+00 -1.0000e+00
       -2 -1    0    0    0  501 -0.0000000000e+00 -0.0000000000e+00 -6.6036954301e+02 6.6036954301e+02 0.0000000000e+00 0.0000e+00 1.0000e+00
      -13  1    1    2    0    0 +5.6677090581e+02 -5.6527063791e+02 -3.4709434456e+02 8.7248761469e+02 0.0000000000e+00 0.0000e+00 1.0000e+00
       13  1    1    2    0    0 -5.6677090581e+02 +5.6527063791e+02 +3.1165742323e+03 3.2177313590e+03 0.0000000000e+00 0.0000e+00 -1.0000e+00
<mgrwt>
<rscale>  0 0.30099622E+04</rscale>
<asrwt>0</asrwt>
<pdfrwt beam="1">  1        2 0.52766913E+00 0.30099622E+04</pdfrwt>
<pdfrwt beam="2">  1       -2 0.10159532E+00 0.30099622E+04</pdfrwt>
<totfact> 0.73724350E-01</totfact>
</mgrwt>
<rwgt>
<wgt id='morphing_basis_vector_1'> +8.2242958e-05 </wgt>
<wgt id='morphing_basis_vector_2'> +5.5511793e-05 </wgt>
<wgt id='morphing_basis_vector_3'> +8.9635873e-05 </wgt>
<wgt id='morphing_basis_vector_4'> +6.3977012e-05 </wgt>
<wgt id='morphing_basis_vector_5'> +1.0204572e-04 </wgt>
</rwgt>
</event>
<event>
 4      1 +7.3133000e-09 2.86639400e+03 7.81860800e-03 7.78684100e-02
        2 -1    0    0  501    0 +0.0000000000e+00 +0.0000000000e+00 +2.2803304169e+03 2.2803304169e+03 0.0000000000e+00 0.0000e+00 1.0000e+00
       -2 -1    0    0    0  501 -0.0000000000e+00 -0.0000000000e+00 -9.0077019439e+02 9.0077019439e+02 0.0000000000e+00 0.0000e+00 -1.0000e+00
      -13  1    1    2    0    0 +1.2650484496e+03 +3.6892290114e+02 +6.4343758637e+01 1.3193149003e+03 0.0000000000e+00 0.0000e+00 -1.0000e+00
       13  1    1    2    0    0 -1.2650484496e+03 -3.6892290114e+02 +1.3152164638e+03 1.8617857110e+03 0.0000000000e+00 0.0000e+00 1.0000e+00
<mgrwt>
<rscale>  0 0.28663940E+04</rscale>
<asrwt>0</asrwt>
<pdfrwt beam="1">  1        2 0.35082006E+00 0.28663940E+04</pdfrwt>
<pdfrwt beam="2">  1       -2 0.13858003E+00 0.28663940E+04</pdfrwt>
<totfact> 0.18113910E+00</totfact>
</mgrwt>
<rwgt>
<wgt id='morphing_basis_vector_1'> +6.8258434e-05 </wgt>
<wgt id='morphing_basis_vector_2'> +4.7144163e-05 </wgt>
<wgt id='morphing_basis_vector_3'> +7.4498198e-05 </wgt>
<wgt id='morphing_basis_vector_4'> +5.1499196e-05 </wgt>
<wgt id='morphing_basis_vector_5'> +8.3689965e-05 </wgt>
</rwgt>
</event>
<event>
 4      1 +7.3133000e-09 3.18093600e+03 7.81860800e-03 7.70814300e-02
        2 -1    0    0  501    0 +0.0000000000e+00 +0.0000000000e+00 +2.9478394512e+03 2.9478394512e+03 0.0000000000e+00 0.0000e+00 -1.0000e+00
       -2 -1    0    0    0  501 -0.0000000000e+00 -0.0000000000e+00 -8.5811589597e+02 8.5811589597e+02 0.0000000000e+00 0.0000e+00 1.0000e+00
      -13  1    1    2    0    0 +7.2473395121e+02 +1.0173477182e+03 -1.3314993620e+02 1.2561706036e+03 0.0000000000e+00 0.0000e+00 1.0000e+00
       13  1    1    2    0    0 -7.2473395121e+02 -1.0173477182e+03 +2.2228734915e+03 2.5497847436e+03 0.0000000000e+00 0.0000e+00 -1.0000e+00
<mgrwt>
<rscale>  0 0.31809356E+04</rscale>
<asrwt>0</asrwt>
<pdfrwt beam="1">  1        2 0.45351376E+00 0.31809356E+04</pdfrwt>
<pdfrwt beam="2">  1       -2 0.13201783E+00 0.31809356E+04</pdfrwt>
<totfact> 0.78976889E-01</totfact>
</mgrwt>
<rwgt>
<wgt id='morphing_basis_vector_1'> +1.0259028e-04 </wgt>
<wgt id='morphing_basis_vector_2'> +6.9779778e-05 </wgt>
<wgt id='morphing_basis_vector_3'> +1.1210547e-04 </wgt>
<wgt id='morphing_basis_vector_4'> +7.9522289e-05 </wgt>
<wgt id='morphing_basis_vector_5'> +1.2748273e-04 </wgt>
</rwgt>
</event>
<event>
 4      1 +7.3133000e-09 2.78755700e+03 7.81860800e-03 7.80819200e-02
        2 -1    0    0  501    0 +0.0000000000e+00 +0.0000000000e+00 +1.2944643330e+03 1.2944643330e+03 0.0000000000e+00 0.0000e+00 -1.0000e+00
       -2 -1    0    0    0  501 -0.0000000000e+00 -0.0000000000e+00 -1.5007121964e+03 1.5007121964e+03 0.0000000000e+00 0.0000e+00 1.0000e+00
      -13  1    1    2    0    0 +1.2819582015e+03 -5.4403191500e+02 -1.6011993265e+02 1.4017938321e+03 0.0000000000e+00 0.0000e+00 1.0000e+00
       13  1    1    2    0    0 -1.2819582015e+03 +5.4403191500e+02 -4.6127930764e+01 1.3933826972e+03 0.0000000000e+00 0.0000e+00 -1.0000e+00
<mgrwt>
<rscale>  0 0.27875569E+04</rscale>
<asrwt>0</asrwt>
<pdfrwt beam="1">  1        2 0.19914836E+00 0.27875569E+04</pdfrwt>
<pdfrwt beam="2">  1       -2 0.23087880E+00 0.27875569E+04</pdfrwt>
<totfact> 0.12967213E+00</totfact>
</mgrwt>
<rwgt>
<wgt id='morphing_basis_vector_1'> +6.2583391e-05 </wgt>
<wgt id='morphing_basis_vector_2'> +4.6493232e-05 </wgt>
<wgt id='morphing_basis_vector_3'> +6.8903744e-05 </wgt>
<wgt id='morphing_basis_vector_4'> +4.2989180e-05 </wgt>
<wgt id='morphing_basis_vector_5'> +7.4525172e-05 </wgt>
</rwgt>
</event>
<event>
 4      1 +7.3133000e-09 2.91518000e+03 7.81860800e-03 7.77397400e-02
        2 -1    0    0  501    0 +0.0000000000e+00 +0.0000000000e+00 +3.9546025162e+03 3.9546025162e+03 0.0000000000e+00 0.0000e+00 -1.0000e+00
       -2 -1    0    0    0  501 -0.0000000000e+00 -0.0000000000e+00 -5.3723962345e+02 5.3723962345e+02 0.0000000000e+00 0.0000e+00 1.0000e+00
      -13  1    1    2    0    0 -1.9173499413e+02 -1.4235065677e+03 +2.0905995113e+03 2.5364817312e+03 0.0000000000e+00 0.0000e+00 1.0000e+00
       13  1    1    2    0    0 +1.9173499413e+02 +1.4235065677e+03 +1.3267633815e+03 1.9553604084e+03 0.0000000000e+00 0.0000e+00 -1.0000e+00
<mgrwt>
<rscale>  0 0.29151804E+04</rscale>
<asrwt>0</asrwt>
<pdfrwt beam="1">  1        2 0.60840037E+00 0.29151804E+04</pdfrwt>
<pdfrwt beam="2">  1       -2 0.82652252E-01 0.29151804E+04</pdfrwt>
<totfact> 0.47433682E-01</totfact>
</mgrwt>
<rwgt>
<wgt id='morphing_basis_vector_1'> +7.7243544e-05 </wgt>
<wgt id='morphing_basis_vector_2'> +6.2990075e-05 </wgt>
<wgt id='morphing_basis_vector_3'> +8.6353426e-05 </wgt>
<wgt id='morphing_basis_vector_4'> +4.6266768e-05 </wgt>
<wgt id='morphing_basis_vector_5'> +8.8865266e-05 </wgt>
</rwgt>
</event>
<event>
 4      1 +7.3133000e-09 2.68093900e+03 7.81860800e-03 7.83823500e-02
        2 -1    0    0  501    0 +0.0000000000e+00 +0.0000000000e+00 +2.1641448671e+03 2.1641448671e+03 0.0000000000e+00 0.0000e+00 -1.0000e+00
       -2 -1    0    0    0  501 -0.0000000000e+00 -0.0000000000e+00 -8.3028580642e+02 8.3028580642e+02 0.0000000000e+00 0.0000e+00 1.0000e+00
      -13  1    1    2    0    0 +9.7222582520e+02 -1.0504523350e+02 -3.5712315605e+02 1.0410545158e+03 0.0000000000e+00 0.0000e+00 1.0000e+00
       13  1    1    2    0    0 -9.7222582520e+02 +1.0504523350e+02 +1.6909822168e+03 1.9533761578e+03 0.0000000000e+00 0.0000e+00 -1.0000e+00
<mgrwt>
<rscale>  0 0.26809392E+04</rscale>
<asrwt>0</asrwt>
<pdfrwt beam="1">  1        2 0.33294536E+00 0.26809392E+04</pdfrwt>
<pdfrwt beam="2">  1       -2 0.12773628E+00 0.26809392E+04</pdfrwt>
<totfact> 0.26761488E+00</totfact>
</mgrwt>
<rwgt>
<wgt id='morphing_basis_vector_1'> +5.2064186e-05 </wgt>
<wgt id='morphing_basis_vector_2'> +3.5179847e-05 </wgt>
<wgt id='morphing_basis_vector_3'> +5.6525438e-05 </wgt>
<wgt id='morphing_basis_vector_4'> +3.9962299e-05 </wgt>
<wgt id='morphing_basis_vector_5'> +6.3919983e-05 </wgt>
</rwgt>
</event>
<event>
 4      1 +7.3133000e-09 3.19494000e+03 7.81860800e-03 7.70486000e-02
        2 -1    0    0  501    0 +0.0000000000e+00 +0.0000000000e+00 +1.4481266705e+03 1.4481266705e+03 0.0000000000e+00 0.0000e+00 -1.0000e+00
       -2 -1    0    0    0  501 -0.0000000000e+00 -0.0000000000e+00 -1.7622150629e+03 1.7622150629e+03 0.0000000000e+00 0.0000e+00 1.0000e+00
      -13  1    1    2    0    0 +1.5831993511e+03 -3.6278927308e+01 -3.6799499781e+02 1.6258095412e+03 0.0000000000e+00 0.0000e+00 1.0000e+00
       13  1    1    2    0    0 -1.5831993511e+03 +3.6278927308e+01 +5.3906605314e+01 1.5845321922e+03 0.0000000000e+00 0.0000e+00 -1.0000e+00
<mgrwt>
<rscale>  0 0.31949401E+04</rscale>
<asrwt>0</asrwt>
<pdfrwt beam="1">  1        2 0.22278872E+00 0.31949401E+04</pdfrwt>
<pdfrwt beam="2">  1       -2 0.27111001E+00 0.31949401E+04</pdfrwt>
<totfact> 0.54020101E-01</totfact>
</mgrwt>
<rwgt>
<wgt id='morphing_basis_vector_1'> +1.0651148e-04 </wgt>
<wgt id='morphing_basis_vector_2'> +7.7245192e-05 </wgt>
<wgt id='morphing_basis_vector_3'> +1.1742816e-04 </wgt>
<wgt id='morphing_basis_vector_4'> +7.6515551e-05 </wgt>
<wgt id='morphing_basis_vector_5'> +1.2939529e-04 </wgt>
</rwgt>
</event>
<event>
 4      1 +7.3133000e-09 2.79146100e+03 7.81860800e-03 7.80711800e-02
        2 -1    0    0  501    0 +0.0000000000e+00 +0.0000000000e+00 +1.8342311891e+03 1.8342311891e+03 0.0000000000e+00 0.0000e+00 1.0000e+00
       -2 -1    0    0    0  501 -0.0000000000e+00 -0.0000000000e+00 -1.0620603114e+03 1.0620603114e+03 0.0000000000e+00 0.0000e+00 -1.0000e+00
      -13  1    1    2    0    0 +6.6202313790e+02 -2.3431007851e+02 -8.6539905486e+02 1.1144915308e+03 0.0000000000e+00 0.0000e+00 -1.0000e+00
       13  1    1    2    0    0 -6.6202313790e+02 +2.3431007851e+02 +1.6375699326e+03 1.7817999697e+03 0.0000000000e+00 0.0000e+00 1.0000e+00
<mgrwt>
<rscale>  0 0.27914614E+04</rscale>
<asrwt>0</asrwt>
<pdfrwt beam="1">  1        2 0.28218941E+00 0.27914614E+04</pdfrwt>
<pdfrwt beam="2">  1       -2 0.16339389E+00 0.27914614E+04</pdfrwt>
<totfact> 0.20352293E+00</totfact>
</mgrwt>
<rwgt>
<wgt id='morphing_basis_vector_1'> +6.1013580e-05 </wgt>
<wgt id='morphing_basis_vector_2'> +4.1101797e-05 </wgt>
<wgt id='morphing_basis_vector_3'> +6.6315872e-05 </wgt>
<wgt id='morphing_basis_vector_4'> +4.7202981e-05 </wgt>
<wgt id='morphing_basis_vector_5'> +7.5272545e-05 </wgt>
</rwgt>
</event>
<event>
 4      1 +7.3133000e-09 3.19936900e+03 7.81860800e-03 7.70382500e-02
        2 -1    0    0  501    0 +0.0000000000e+00 +0.0000000000e+00 +3.0661294352e+03 3.0661294352e+03 0.0000000000e+00 0.0000e+00 -1.0000e+00
       -2 -1    0    0    0  501 -0.0000000000e+00 -0.0000000000e+00 -8.3459987099e+02 8.3459987099e+02 0.0000000000e+00 0.0000e+00 1.0000e+00
      -13  1    1    2    0    0 +6.2424359555e+02 +1.4481846690e+03 +1.4430796222e+03 2.1376149556e+03 0.0000000000e+00 0.0000e+00 1.0000e+00
       13  1    1    2    0    0 -6.2424359555e+02 -1.4481846690e+03 +7.8844994199e+02 1.7631143506e+03 0.0000000000e+00 0.0000e+00 -1.0000e+00
<mgrwt>
<rscale>  0 0.31993695E+04</rscale>
<asrwt>0</asrwt>
<pdfrwt beam="1">  1        2 0.47171221E+00 0.31993695E+04</pdfrwt>
<pdfrwt beam="2">  1       -2 0.12839998E+00 0.31993695E+04</pdfrwt>
<totfact> 0.71098680E-01</totfact>
</mgrwt>
<rwgt>
<wgt id='morphing_basis_vector_1'> +1.1164849e-04 </wgt>
<wgt id='morphing_basis_vector_2'> +9.1065615e-05 </wgt>
<wgt id='morphing_basis_vector_3'> +1.2525126e-04 </wgt>
<wgt id='morphing_basis_vector_4'> +6.7429373e-05 </wgt>
<wgt id='morphing_basis_vector_5'> +1.2933499e-04 </wgt>
</rwgt>
</event>
<event>
 4      1 +7.3133000e-09 2.83762600e+03 7.81860800e-03 7.79455100e-02
        2 -1    0    0  501    0 +0.0000000000e+00 +0.0000000000e+00 +1.2051252044e+03 1.2051252044e+03 0.0000000000e+00 0.0000e+00 1.0000e+00
       -2 -1    0    0    0  501 -0.0000000000e+00 -0.0000000000e+00 -1.6703909803e+03 1.6703909803e+03 0.0000000000e+00 0.0000e+00 -1.0000e+00
      -13  1    1    2    0    0 -9.4653651183e+02 +9.1482218991e+01 -1.2996553182e+03 1.6104050145e+03 0.0000000000e+00 0.0000e+00 -1.0000e+00
       13  1    1    2    0    0 +9.4653651183e+02 -9.1482218991e+01 +8.3438954234e+02 1.2651111702e+03 0.0000000000e+00 0.0000e+00 1.0000e+00
<mgrwt>
<rscale>  0 0.28376260E+04</rscale>
<asrwt>0</asrwt>
<pdfrwt beam="1">  1        2 0.18540388E+00 0.28376260E+04</pdfrwt>
<pdfrwt beam="2">  1       -2 0.25698323E+00 0.28376260E+04</pdfrwt>
<totfact> 0.95776770E-01</totfact>
</mgrwt>
<rwgt>
<wgt id='morphing_basis_vector_1'> +6.5150810e-05 </wgt>
<wgt id='morphing_basis_vector_2'> +4.4006264e-05 </wgt>
<wgt id='morphing_basis_vector_3'> +7.0877488e-05 </wgt>
<wgt id='morphing_basis_vector_4'> +5.0345260e-05 </wgt>
<wgt id='morphing_basis_vector_5'> +8.0422515e-05 </wgt>
</rwgt>
</event>
<event>
 4      1 +7.3133000e-09 2.80037100e+03 7.81860800e-03 7.80467300e-02
        2 -1    0    0  501    0 +0.0000000000e+00 +0.0000000000e+00 +1.6333128682e+03 1.6333128682e+03 0.0000000000e+00 0.0000e+00 -1.0000e+00
       -2 -1    0    0    0  501 -0.0000000000e+00 -0.0000000000e+00 -1.2003328505e+03 1.2003328505e+03 0.0000000000e+00 0.0000e+00 1.0000e+00
      -13  1    1    2    0    0 +5.0574606771e+02 +7.4509269579e+02 -8.6843327023e+02 1.2510469836e+03 0.0000000000e+00 0.0000e+00 1.0000e+00
       13  1    1    2    0    0 -5.0574606771e+02 -7.4509269579e+02 +1.3014132880e+03 1.5825987351e+03 0.0000000000e+00 0.0000e+00 -1.0000e+00
<mgrwt>
<rscale>  0 0.28003708E+04</rscale>
<asrwt>0</asrwt>
<pdfrwt beam="1">  1        2 0.25127890E+00 0.28003708E+04</pdfrwt>
<pdfrwt beam="2">  1       -2 0.18466659E+00 0.28003708E+04</pdfrwt>
<totfact> 0.18034337E+00</totfact>
</mgrwt>
<rwgt>
<wgt id='morphing_basis_vector_1'> +6.1818899e-05 </wgt>
<wgt id='morphing_basis_vector_2'> +4.1717759e-05 </wgt>
<wgt id='morphing_basis_vector_3'> +6.7213806e-05 </wgt>
<wgt id='morphing_basis_vector_4'> +4.7750632e-05 </wgt>
<wgt id='morphing_basis_vector_5'> +7.6242829e-05 </wgt>
</rwgt>
</event>
<event>
 4      1 +7.3133000e-09 3.00386000e+03 7.81860800e-03 7.75122700e-02
        2 -1    0    0  501    0 +0.0000000000e+00 +0.0000000000e+00 +1.5185758903e+03 1.5185758903e+03 0.0000000000e+00 0.0000e+00 1.0000e+00
       -2 -1    0    0    0  501 -0.0000000000e+00 -0.0000000000e+00 -1.4854664887e+03 1.4854664887e+03 0.0000000000e+00 0.0000e+00 -1.0000e+00
      -13  1    1    2    0    0 +1.2765275361e+03 -2.8102343992e+02 -7.2328539202e+02 1.4938669561e+03 0.0000000000e+00 0.0000e+00 -1.0000e+00
       13  1    1    2    0    0 -1.2765275361e+03 +2.8102343992e+02 +7.5639479360e+02 1.5101754229e+03 0.0000000000e+00 0.0000e+00 1.0000e+00
<mgrwt>
<rscale>  0 0.30038599E+04</rscale>
<asrwt>0</asrwt>
<pdfrwt beam="1">  1        2 0.23362706E+00 0.30038599E+04</pdfrwt>
<pdfrwt beam="2">  1       -2 0.22853330E+00 0.30038599E+04</pdfrwt>
<totfact> 0.98813808E-01</totfact>
</mgrwt>
<rwgt>
<wgt id='morphing_basis_vector_1'> +8.1940645e-05 </wgt>
<wgt id='morphing_basis_vector_2'> +5.6114903e-05 </wgt>
<wgt id='morphing_basis_vector_3'> +8.9469923e-05 </wgt>
<wgt id='morphing_basis_vector_4'> +6.2712765e-05 </wgt>
<wgt id='morphing_basis_vector_5'> +1.0115242e-04 </wgt>
</rwgt>
</event>
<event>
 4      1 +7.3133000e-09 2.94958700e+03 7.81860800e-03 7.76505200e-02
        2 -1    0    0  501    0 +0.0000000000e+00 +0.0000000000e+00 +3.0981565054e+03 3.0981565054e+03 0.0000000000e+00 0.0000e+00 -1.0000e+00
       -2 -1    0    0    0  501 -0.0000000000e+00 -0.0000000000e+00 -7.0203551865e+02 7.0203551865e+02 0.0000000000e+00 0.0000e+00 1.0000e+00
      -13  1    1    2    0    0 -7.0202644529e+02 -9.9422799155e+02 +2.2711245044e+03 2.5766910843e+03 0.0000000000e+00 0.0000e+00 1.0000e+00
       13  1    1    2    0    0 +7.0202644529e+02 +9.9422799155e+02 +1.2499648231e+02 1.2235009398e+03 0.0000000000e+00 0.0000e+00 -1.0000e+00
<mgrwt>
<rscale>  0 0.29495870E+04</rscale>
<asrwt>0</asrwt>
<pdfrwt beam="1">  1        2 0.47663945E+00 0.29495870E+04</pdfrwt>
<pdfrwt beam="2">  1       -2 0.10800547E+00 0.29495870E+04</pdfrwt>
<totfact> 0.10798759E+00</totfact>
</mgrwt>
<rwgt>
<wgt id='morphing_basis_vector_1'> +9.2382817e-05 </wgt>
<wgt id='morphing_basis_vector_2'> +9.9766301e-05 </wgt>
<wgt id='morphing_basis_vector_3'> +1.0841537e-04 </wgt>
<wgt id='morphing_basis_vector_4'> +2.4672094e-05 </wgt>
<wgt id='morphing_basis_vector_5'> +9.1218348e-05 </wgt>
</rwgt>
</event>
<event>
 4      1 +7.3133000e-09 2.83056200e+03 7.81860800e-03 7.79645800e-02
        2 -1    0    0  501    0 +0.0000000000e+00 +0.0000000000e+00 +2.8821790500e+03 2.8821790500e+03 0.0000000000e+00 0.0000e+00 -1.0000e+00
       -2 -1    0    0    0  501 -0.0000000000e+00 -0.0000000000e+00 -6.9496755566e+02 6.9496755566e+02 0.0000000000e+00 0.0000e+00 1.0000e+00
      -13  1    1    2    0    0 +1.2456304809e+03 -2.2322000137e+02 +2.9273944077e+02 1.2988913904e+03 0.0000000000e+00 0.0000e+00 1.0000e+00
       13  1    1    2    0    0 -1.2456304809e+03 +2.2322000137e+02 +1.8944720535e+03 2.2782552152e+03 0.0000000000e+00 0.0000e+00 -1.0000e+00
<mgrwt>
<rscale>  0 0.28305624E+04</rscale>
<asrwt>0</asrwt>
<pdfrwt beam="1">  1        2 0.44341216E+00 0.28305624E+04</pdfrwt>
<pdfrwt beam="2">  1       -2 0.10691809E+00 0.28305624E+04</pdfrwt>
<totfact> 0.15458406E+00</totfact>
</mgrwt>
<rwgt>
<wgt id='morphing_basis_vector_1'> +6.4829750e-05 </wgt>
<wgt id='morphing_basis_vector_2'> +4.4510619e-05 </wgt>
<wgt id='morphing_basis_vector_3'> +7.0670223e-05 </wgt>
<wgt id='morphing_basis_vector_4'> +4.9180452e-05 </wgt>
<wgt id='morphing_basis_vector_5'> +7.9562771e-05 </wgt>
</rwgt>
</event>
<event>
 4      1 +7.3133000e-09 3.09109800e+03 7.81860800e-03 7.72962800e-02
        2 -1    0    0  501    0 +0.0000000000e+00 +0.0000000000e+00 +2.1676331255e+03 2.1676331255e+03 0.0000000000e+00 0.0000e+00 1.0000e+00
       -2 -1    0    0    0  501 -0.0000000000e+00 -0.0000000000e+00 -1.1019953704e+03 1.1019953704e+03 0.0000000000e+00 0.0000e+00 -1.0000e+00
      -13  1    1    2    0    0 +4.5449784922e+02 -3.0388206719e+02 +2.0619296350e+03 2.1331822298e+03 0.0000000000e+00 0.0000e+00 1.0000e+00
       13  1    1    2    0    0 -4.5449784922e+02 +3.0388206719e+02 -9.9629187998e+02 1.1364462661e+03 0.0000000000e+00 0.0000e+00 -1.0000e+00
<mgrwt>
<rscale>  0 0.30910980E+04</rscale>
<asrwt>0</asrwt>
<pdfrwt beam="1">  1        2 0.33348202E+00 0.30910980E+04</pdfrwt>
<pdfrwt beam="2">  1       -2 0.16953775E+00 0.30910980E+04</pdfrwt>
<totfact> 0.11521201E+00</totfact>
</mgrwt>
<rwgt>
<wgt id='morphing_basis_vector_1'> +1.2489120e-04 </wgt>
<wgt id='morphing_basis_vector_2'> +1.6035957e-04 </wgt>
<wgt id='morphing_basis_vector_3'> +1.5230129e-04 </wgt>
<wgt id='morphing_basis_vector_4'> +1.3244373e-06 </wgt>
<wgt id='morphing_basis_vector_5'> +1.0784998e-04 </wgt>
</rwgt>
</event>
<event>
 4      1 +7.3133000e-09 2.68626500e+03 7.81860800e-03 7.83670100e-02
        2 -1    0    0  501    0 +0.0000000000e+00 +0.0000000000e+00 +1.5177498536e+03 1.5177498536e+03 0.0000000000e+00 0.0000e+00 -1.0000e+00
       -2 -1    0    0    0  501 -0.0000000000e+00 -0.0000000000e+00 -1.1886051142e+03 1.1886051142e+03 0.0000000000e+00 0.0000e+00 1.0000e+00
      -13  1    1    2    0    0 +6.0033704905e+02 -1.1298521536e+03 -2.4718304217e+02 1.3031001181e+03 0.0000000000e+00 0.0000e+00 1.0000e+00
       13  1    1    2    0    0 -6.0033704905e+02 +1.1298521536e+03 +5.7632778152e+02 1.4032548497e+03 0.0000000000e+00 0.0000e+00 -1.0000e+00
<mgrwt>
<rscale>  0 0.26862652E+04</rscale>
<asrwt>0</asrwt>
<pdfrwt beam="1">  1        2 0.23349998E+00 0.26862652E+04</pdfrwt>
<pdfrwt beam="2">  1       -2 0.18286232E+00 0.26862652E+04</pdfrwt>
<totfact> 0.21795617E+00</totfact>
</mgrwt>
<rwgt>
<wgt id='morphing_basis_vector_1'> +5.2988348e-05 </wgt>
<wgt id='morphing_basis_vector_2'> +3.6974104e-05 </wgt>
<wgt id='morphing_basis_vector_3'> +5.7768685e-05 </wgt>
<wgt id='morphing_basis_vector_4'> +3.9223779e-05 </wgt>
<wgt id='morphing_basis_vector_5'> +6.4348638e-05 </wgt>
</rwgt>
</event>
<event>
 4      1 +7.3133000e-09 2.69519700e+03 7.81860800e-03 7.83413600e-02
        2 -1    0    0  501    0 +0.0000000000e+00 +0.0000000000e+00 +3.5888125075e+03 3.5888125075e+03 0.0000000000e+00 0.0000e+00 -1.0000e+00
       -2 -1    0    0    0  501 -0.0000000000e+00 -0.0000000000e+00 -5.0602290145e+02 5.0602290145e+02 0.0000000000e+00 0.0000e+00 1.0000e+00
      -13  1    1    2    0    0 -1.0586438987e+03 -5.1457848510e+02 +5.4453456341e+02 1.2969332336e+03 0.0000000000e+00 0.0000e+00 1.0000e+00
       13  1    1    2    0    0 +1.0586438987e+03 +5.1457848510e+02 +2.5382550426e+03 2.7979021754e+03 0.0000000000e+00 0.0000e+00 -1.0000e+00
<mgrwt>
<rscale>  0 0.26951967E+04</rscale>
<asrwt>0</asrwt>
<pdfrwt beam="1">  1        2 0.55212499E+00 0.26951967E+04</pdfrwt>
<pdfrwt beam="2">  1       -2 0.77849679E-01 0.26951967E+04</pdfrwt>
<totfact> 0.10782779E+00</totfact>
</mgrwt>
<rwgt>
<wgt id='morphing_basis_vector_1'> +5.3346182e-05 </wgt>
<wgt id='morphing_basis_vector_2'> +3.6456407e-05 </wgt>
<wgt id='morphing_basis_vector_3'> +5.8011845e-05 </wgt>
<wgt id='morphing_basis_vector_4'> +4.0460416e-05 </wgt>
<wgt id='morphing_basis_vector_5'> +6.5275891e-05 </wgt>
</rwgt>
</event>
<event>
 4      1 +7.3133000e-09 2.93243500e+03 7.81860800e-03 7.76948400e-02
        2 -1    0    0  501    0 +0.0000000000e+00 +0.0000000000e+00 +1.8412845946e+03 1.8412845946e+03 0.0000000000e+00 0.0000e+00 -1.0000e+00
       -2 -1    0    0    0  501 -0.0000000000e+00 -0.0000000000e+00 -1.1675512535e+03 1.1675512535e+03 0.0000000000e+00 0.0000e+00 1.0000e+00
      -13  1    1    2    0    0 +5.7859840471e+02 +1.3409629263e+03 +2.0373071453e+02 1.4746063501e+03 0.0000000000e+00 0.0000e+00 1.0000e+00
       13  1    1    2    0    0 -5.7859840471e+02 -1.3409629263e+03 +4.7000262652e+02 1.5342294980e+03 0.0000000000e+00 0.0000e+00 -1.0000e+00
<mgrwt>
<rscale>  0 0.29324353E+04</rscale>
<asrwt>0</asrwt>
<pdfrwt beam="1">  1        2 0.28327455E+00 0.29324353E+04</pdfrwt>
<pdfrwt beam="2">  1       -2 0.17962327E+00 0.29324353E+04</pdfrwt>
<totfact> 0.14911999E+00</totfact>
</mgrwt>
<rwgt>
<wgt id='morphing_basis_vector_1'> +7.6109652e-05 </wgt>
<wgt id='morphing_basis_vector_2'> +5.5763303e-05 </wgt>
<wgt id='morphing_basis_vector_3'> +8.3795987e-05 </wgt>
<wgt id='morphing_basis_vector_4'> +5.3536996e-05 </wgt>
<wgt id='morphing_basis_vector_5'> +9.1512804e-05 </wgt>
</rwgt>
</event>
<event>
 4      1 +7.3133000e-09 2.97710900e+03 7.81860800e-03 7.75800300e-02
        2 -1    0    0  501    0 +0.0000000000e+00 +0.0000000000e+00 +1.3813323490e+03 1.3813323490e+03 0.0000000000e+00 0.0000e+00 -1.0000e+00
       -2 -1    0    0    0  501 -0.0000000000e+00 -0.0000000000e+00 -1.6040997450e+03 1.6040997450e+03 0.0000000000e+00 0.0000e+00 1.0000e+00
      -13  1    1    2    0    0 +1.1828108741e+03 +2.7538197087e+02 -9.7455604840e+02 1.5571243641e+03 0.0000000000e+00 0.0000e+00 1.0000e+00
       13  1    1    2    0    0 -1.1828108741e+03 -2.7538197087e+02 +7.5178865236e+02 1.4283077300e+03 0.0000000000e+00 0.0000e+00 -1.0000e+00
<mgrwt>
<rscale>  0 0.29771092E+04</rscale>
<asrwt>0</asrwt>
<pdfrwt beam="1">  1        2 0.21251267E+00 0.29771092E+04</pdfrwt>
<pdfrwt beam="2">  1       -2 0.24678458E+00 0.29771092E+04</pdfrwt>
<totfact> 0.88219727E-01</totfact>
</mgrwt>
<rwgt>
<wgt id='morphing_basis_vector_1'> +7.8947473e-05 </wgt>
<wgt id='morphing_basis_vector_2'> +5.3740818e-05 </wgt>
<wgt id='morphing_basis_vector_3'> +8.6109593e-05 </wgt>
<wgt id='morphing_basis_vector_4'> +6.0778766e-05 </wgt>
<wgt id='morphing_basis_vector_5'> +9.7589692e-05 </wgt>
</rwgt>
</event>
<event>
 4      1 +7.3133000e-09 2.67793800e+03 7.81860800e-03 7.83910200e-02
        2 -1    0    0  501    0 +0.0000000000e+00 +0.0000000000e+00 +1.2291169623e+03 1.2291169623e+03 0.0000000000e+00 0.0000e+00 1.0000e+00
       -2 -1    0    0    0  501 -0.0000000000e+00 -0.0000000000e+00 -1.4586392139e+03 1.4586392139e+03 0.0000000000e+00 0.0000e+00 -1.0000e+00
      -13  1    1    2    0    0 -7.9708582601e+02 +6.7510730788e+02 -9.5552109949e+02 1.4156751968e+03 0.0000000000e+00 0.0000e+00 -1.0000e+00
       13  1    1    2    0    0 +7.9708582601e+02 -6.7510730788e+02 +7.2599884789e+02 1.2720809795e+03 0.0000000000e+00 0.0000e+00 1.0000e+00
<mgrwt>
<rscale>  0 0.26779382E+04</rscale>
<asrwt>0</asrwt>
<pdfrwt beam="1">  1        2 0.18909492E+00 0.26779382E+04</pdfrwt>
<pdfrwt beam="2">  1       -2 0.22440603E+00 0.26779382E+04</pdfrwt>
<totfact> 0.15855515E+00</totfact>
</mgrwt>
<rwgt>
<wgt id='morphing_basis_vector_1'> +5.1871288e-05 </wgt>
<wgt id='morphing_basis_vector_2'> +3.5132996e-05 </wgt>
<wgt id='morphing_basis_vector_3'> +5.6330347e-05 </wgt>
<wgt id='morphing_basis_vector_4'> +3.9704997e-05 </wgt>
<wgt id='morphing_basis_vector_5'> +6.3624826e-05 </wgt>
</rwgt>
</event>
<event>
 4      1 +7.3133000e-09 3.01790900e+03 7.81860800e-03 7.74769800e-02
        2 -1    0    0  501    0 +0.0000000000e+00 +0.0000000000e+00 +2.8060484848e+03 2.8060484848e+03 0.0000000000e+00 0.0000e+00 1.0000e+00
       -2 -1    0    0    0  501 -0.0000000000e+00 -0.0000000000e+00 -8.1144112017e+02 8.1144112017e+02 0.0000000000e+00 0.0000e+00 -1.0000e+00
      -13  1    1    2    0    0 -3.8777827736e+02 -1.0104962938e+03 +2.2576049291e+03 2.5036482917e+03 0.0000000000e+00 0.0000e+00 1.0000e+00
       13  1    1    2    0    0 +3.8777827736e+02 +1.0104962938e+03 -2.6299756454e+02 1.1138413133e+03 0.0000000000e+00 0.0000e+00 -1.0000e+00
<mgrwt>
<rscale>  0 0.30179086E+04</rscale>
<asrwt>0</asrwt>
<pdfrwt beam="1">  1        2 0.43169976E+00 0.30179086E+04</pdfrwt>
<pdfrwt beam="2">  1       -2 0.12483710E+00 0.30179086E+04</pdfrwt>
<totfact> 0.11434008E+00</totfact>
</mgrwt>
<rwgt>
<wgt id='morphing_basis_vector_1'> +1.0694953e-04 </wgt>
<wgt id='morphing_basis_vector_2'> +1.2631365e-04 </wgt>
<wgt id='morphing_basis_vector_3'> +1.2792911e-04 </wgt>
<wgt id='morphing_basis_vector_4'> +1.4998081e-05 </wgt>
<wgt id='morphing_basis_vector_5'> +9.9054079e-05 </wgt>
</rwgt>
</event>
<event>
 4      1 +7.3133000e-09 2.94739000e+03 7.81860800e-03 7.76561800e-02
        2 -1    0    0  501    0 +0.0000000000e+00 +0.0000000000e+00 +2.1281356680e+03 2.1281356680e+03 0.0000000000e+00 0.0000e+00 -1.0000e+00
       -2 -1    0    0    0  501 -0.0000000000e+00 -0.0000000000e+00 -1.0205067710e+03 1.0205067710e+03 0.0000000000e+00 0.0000e+00 1.0000e+00
      -13  1    1    2    0    0 -5.7965323872e+02 +1.3318538233e+03 +8.1969507066e+02 1.6678526591e+03 0.0000000000e+00 0.0000e+00 1.0000e+00
       13  1    1    2    0    0 +5.7965323872e+02 -1.3318538233e+03 +2.8793382638e+02 1.4807897799e+03 0.0000000000e+00 0.0000e+00 -1.0000e+00
<mgrwt>
<rscale>  0 0.29473899E+04</rscale>
<asrwt>0</asrwt>
<pdfrwt beam="1">  1        2 0.32740549E+00 0.29473899E+04</pdfrwt>
<pdfrwt beam="2">  1       -2 0.15700104E+00 0.29473899E+04</pdfrwt>
<totfact> 0.15441811E+00</totfact>
</mgrwt>
<rwgt>
<wgt id='morphing_basis_vector_1'> +8.0661286e-05 </wgt>
<wgt id='morphing_basis_vector_2'> +6.5747111e-05 </wgt>
<wgt id='morphing_basis_vector_3'> +9.0207828e-05 </wgt>
<wgt id='morphing_basis_vector_4'> +4.8405004e-05 </wgt>
<wgt id='morphing_basis_vector_5'> +9.2898873e-05 </wgt>
</rwgt>
</event>
<event>
 4      1 +7.3133000e-09 2.95696200e+03 7.81860800e-03 7.76315500e-02
        2 -1    0    0  501    0 +0.0000000000e+00 +0.0000000000e+00 +1.6306319136e+03 1.6306319136e+03 0.0000000000e+00 0.0000e+00 -1.0000e+00
       -2 -1    0    0    0  501 -0.0000000000e+00 -0.0000000000e+00 -1.3405266374e+03 1.3405266374e+03 0.0000000000e+00 0.0000e+00 1.0000e+00
      -13  1    1    2    0    0 +4.6248975396e+02 +5.7695562049e+02 -1.1413797488e+03 1.3599714304e+03 0.0000000000e+00 0.0000e+00 1.0000e+00
       13  1    1    2    0    0 -4.6248975396e+02 -5.7695562049e+02 +1.4314850251e+03 1.6111871206e+03 0.0000000000e+00 0.0000e+00 -1.0000e+00
<mgrwt>
<rscale>  0 0.29569616E+04</rscale>
<asrwt>0</asrwt>
<pdfrwt beam="1">  1        2 0.25086645E+00 0.29569616E+04</pdfrwt>
<pdfrwt beam="2">  1       -2 0.20623487E+00 0.29569616E+04</pdfrwt>
<totfact> 0.12386323E+00</totfact>
</mgrwt>
<rwgt>
<wgt id='morphing_basis_vector_1'> +7.6646124e-05 </wgt>
<wgt id='morphing_basis_vector_2'> +5.1701780e-05 </wgt>
<wgt id='morphing_basis_vector_3'> +8.3482872e-05 </wgt>
<wgt id='morphing_basis_vector_4'> +5.9562731e-05 </wgt>
<wgt id='morphing_basis_vector_5'> +9.4986322e-05 </wgt>
</rwgt>
</event>
<event>
 4      1 +7.3133000e-09 3.15366200e+03 7.81860800e-03 7.71458700e-02
        2 -1    0    0  501    0 +0.0000000000e+00 +0.0000000000e+00 +5.3337822088e+03 5.3337822088e+03 0.0000000000e+00 0.0000e+00 -1.0000e+00
       -2 -1    0    0    0  501 -0.0000000000e+00 -0.0000000000e+00 -4.6615994736e+02 4.6615994736e+02 0.0000000000e+00 0.0000e+00 1.0000e+00
      -13  1    1    2    0    0 -8.9298084951e+02 +6.2733079908e+02 +3.4058242446e+02 1.1432213770e+03 0.0000000000e+00 0.0000e+00 1.0000e+00
       13  1    1    2    0    0 +8.9298084951e+02 -6.2733079908e+02 +4.5270398370e+03 4.6567207791e+03 0.0000000000e+00 0.0000e+00 -1.0000e+00
<mgrwt>
<rscale>  0 0.31536618E+04</rscale>
<asrwt>0</asrwt>
<pdfrwt beam="1">  1        2 0.82058184E+00 0.31536618E+04</pdfrwt>
<pdfrwt beam="2">  1       -2 0.71716919E-01 0.31536618E+04</pdfrwt>
<totfact> 0.16744670E-02</totfact>
</mgrwt>
<rwgt>
<wgt id='morphing_basis_vector_1'> +9.9027592e-05 </wgt>
<wgt id='morphing_basis_vector_2'> +6.7080449e-05 </wgt>
<wgt id='morphing_basis_vector_3'> +1.0812764e-04 </wgt>
<wgt id='morphing_basis_vector_4'> +7.7053805e-05 </wgt>
<wgt id='morphing_basis_vector_5'> +1.2315289e-04 </wgt>
</rwgt>
</event>
<event>
 4      1 +7.3133000e-09 3.03219800e+03 7.81860800e-03 7.74412900e-02
        2 -1    0    0  501    0 +0.0000000000e+00 +0.0000000000e+00 +1.6076678064e+03 1.6076678064e+03 0.0000000000e+00 0.0000e+00 -1.0000e+00
       -2 -1    0    0    0  501 -0.0000000000e+00 -0.0000000000e+00 -1.4297453607e+03 1.4297453607e+03 0.0000000000e+00 0.0000e+00 1.0000e+00
      -13  1    1    2    0    0 -1.4319810780e+03 +4.8211924921e+02 -3.5940091482e+01 1.5113902436e+03 0.0000000000e+00 0.0000e+00 1.0000e+00
       13  1    1    2    0    0 +1.4319810780e+03 -4.8211924921e+02 +2.1386253723e+02 1.5260229235e+03 0.0000000000e+00 0.0000e+00 -1.0000e+00
<mgrwt>
<rscale>  0 0.30321976E+04</rscale>
<asrwt>0</asrwt>
<pdfrwt beam="1">  1        2 0.24733351E+00 0.30321976E+04</pdfrwt>
<pdfrwt beam="2">  1       -2 0.21996083E+00 0.30321976E+04</pdfrwt>
<totfact> 0.10107569E+00</totfact>
</mgrwt>
<rwgt>
<wgt id='morphing_basis_vector_1'> +8.6954124e-05 </wgt>
<wgt id='morphing_basis_vector_2'> +6.3867429e-05 </wgt>
<wgt id='morphing_basis_vector_3'> +9.5879304e-05 </wgt>
<wgt id='morphing_basis_vector_4'> +6.1162162e-05 </wgt>
<wgt id='morphing_basis_vector_5'> +1.0473164e-04 </wgt>
</rwgt>
</event>
<event>
 4      1 +7.3133000e-09 3.11596300e+03 7.81860800e-03 7.72360700e-02
        2 -1    0    0  501    0 +0.0000000000e+00 +0.0000000000e+00 +3.1675464437e+03 3.1675464437e+03 0.0000000000e+00 0.0000e+00 -1.0000e+00
       -2 -1    0    0    0  501 -0.0000000000e+00 -0.0000000000e+00 -7.6630503482e+02 7.6630503482e+02 0.0000000000e+00 0.0000e+00 1.0000e+00
      -13  1    1    2    0    0 -2.8375659711e+02 -1.3340500669e+03 +2.4989502946e+02 1.3865983243e+03 0.0000000000e+00 0.0000e+00 1.0000e+00
       13  1    1    2    0    0 +2.8375659711e+02 +1.3340500669e+03 +2.1513463794e+03 2.5472531542e+03 0.0000000000e+00 0.0000e+00 -1.0000e+00
<mgrwt>
<rscale>  0 0.31159633E+04</rscale>
<asrwt>0</asrwt>
<pdfrwt beam="1">  1        2 0.48731483E+00 0.31159633E+04</pdfrwt>
<pdfrwt beam="2">  1       -2 0.11789308E+00 0.31159633E+04</pdfrwt>
<totfact> 0.76622499E-01</totfact>
</mgrwt>
<rwgt>
<wgt id='morphing_basis_vector_1'> +9.4774816e-05 </wgt>
<wgt id='morphing_basis_vector_2'> +6.5001079e-05 </wgt>
<wgt id='morphing_basis_vector_3'> +1.0361852e-04 </wgt>
<wgt id='morphing_basis_vector_4'> +7.2654987e-05 </wgt>
<wgt id='morphing_basis_vector_5'> +1.1726131e-04 </wgt>
</rwgt>
</event>
<event>
 4      1 +7.3133000e-09 2.69342100e+03 7.81860800e-03 7.83464500e-02
        2 -1    0    0  501    0 +0.0000000000e+00 +0.0000000000e+00 +1.3463496533e+03 1.3463496533e+03 0.0000000000e+00 0.0000e+00 1.0000e+00
       -2 -1    0    0    0  501 -0.0000000000e+00 -0.0000000000e+00 -1.3470714606e+03 1.3470714606e+03 0.0000000000e+00 0.0000e+00 -1.0000e+00
      -13  1    1    2    0    0 +2.7892056621e+02 +4.5196667582e+02 -1.2379225165e+03 1.3470422098e+03 0.0000000000e+00 0.0000e+00 -1.0000e+00
       13  1    1    2    0    0 -2.7892056621e+02 -4.5196667582e+02 +1.2372007092e+03 1.3463789040e+03 0.0000000000e+00 0.0000e+00 1.0000e+00
<mgrwt>
<rscale>  0 0.26934210E+04</rscale>
<asrwt>0</asrwt>
<pdfrwt beam="1">  1        2 0.20713072E+00 0.26934210E+04</pdfrwt>
<pdfrwt beam="2">  1       -2 0.20724176E+00 0.26934210E+04</pdfrwt>
<totfact> 0.17983036E+00</totfact>
</mgrwt>
<rwgt>
<wgt id='morphing_basis_vector_1'> +5.2957630e-05 </wgt>
<wgt id='morphing_basis_vector_2'> +3.5624769e-05 </wgt>
<wgt id='morphing_basis_vector_3'> +5.7473756e-05 </wgt>
<wgt id='morphing_basis_vector_4'> +4.0868104e-05 </wgt>
<wgt id='morphing_basis_vector_5'> +6.5144182e-05 </wgt>
</rwgt>
</event>
<event>
 4      1 +7.3133000e-09 2.74777400e+03 7.81860800e-03 7.81924000e-02
        2 -1    0    0  501    0 +0.0000000000e+00 +0.0000000000e+00 +1.9952361732e+03 1.9952361732e+03 0.0000000000e+00 0.0000e+00 -1.0000e+00
       -2 -1    0    0    0  501 -0.0000000000e+00 -0.0000000000e+00 -9.4603622548e+02 9.4603622548e+02 0.0000000000e+00 0.0000e+00 1.0000e+00
      -13  1    1    2    0    0 +8.7355288146e+02 +8.9928068039e+02 -7.6901129556e+01 1.2560709226e+03 0.0000000000e+00 0.0000e+00 1.0000e+00
       13  1    1    2    0    0 -8.7355288146e+02 -8.9928068039e+02 +1.1261010773e+03 1.6852014761e+03 0.0000000000e+00 0.0000e+00 -1.0000e+00
<mgrwt>
<rscale>  0 0.27477742E+04</rscale>
<asrwt>0</asrwt>
<pdfrwt beam="1">  1        2 0.30695941E+00 0.27477742E+04</pdfrwt>
<pdfrwt beam="2">  1       -2 0.14554404E+00 0.27477742E+04</pdfrwt>
<totfact> 0.23207372E+00</totfact>
</mgrwt>
<rwgt>
<wgt id='morphing_basis_vector_1'> +5.7711778e-05 </wgt>
<wgt id='morphing_basis_vector_2'> +3.9750207e-05 </wgt>
<wgt id='morphing_basis_vector_3'> +6.2868568e-05 </wgt>
<wgt id='morphing_basis_vector_4'> +4.3480848e-05 </wgt>
<wgt id='morphing_basis_vector_5'> +7.0557489e-05 </wgt>
</rwgt>
</event>
<event>
 4      1 +7.3133000e-09 2.68925200e+03 7.81860800e-03 7.83584200e-02
        2 -1    0    0  501    0 +0.0000000000e+00 +0.0000000000e+00 +2.4604030996e+03 2.4604030996e+03 0.0000000000e+00 0.0000e+00 -1.0000e+00
       -2 -1    0    0    0  501 -0.0000000000e+00 -0.0000000000e+00 -7.3484688545e+02 7.3484688545e+02 0.0000000000e+00 0.0000e+00 1.0000e+00
      -13  1    1    2    0    0 +9.4770609123e+02 +1.4300062412e+02 -2.5776248629e+02 9.9249056075e+02 0.0000000000e+00 0.0000e+00 1.0000e+00
       13  1    1    2    0    0 -9.4770609123e+02 -1.4300062412e+02 +1.9833187004e+03 2.2027594243e+03 0.0000000000e+00 0.0000e+00 -1.0000e+00
<mgrwt>
<rscale>  0 0.26892524E+04</rscale>
<asrwt>0</asrwt>
<pdfrwt beam="1">  1        2 0.37852355E+00 0.26892524E+04</pdfrwt>
<pdfrwt beam="2">  1       -2 0.11305337E+00 0.26892524E+04</pdfrwt>
<totfact> 0.24696701E+00</totfact>
</mgrwt>
<rwgt>
<wgt id='morphing_basis_vector_1'> +5.2696195e-05 </wgt>
<wgt id='morphing_basis_vector_2'> +3.5588494e-05 </wgt>
<wgt id='morphing_basis_vector_3'> +5.7214746e-05 </wgt>
<wgt id='morphing_basis_vector_4'> +4.0485053e-05 </wgt>
<wgt id='morphing_basis_vector_5'> +6.4726960e-05 </wgt>
</rwgt>
</event>
<event>
 4      1 +7.3133000e-09 3.06271600e+03 7.81860800e-03 7.73657400e-02
        2 -1    0    0  501    0 +0.0000000000e+00 +0.0000000000e+00 +4.8528482028e+03 4.8528482028e+03 0.0000000000e+00 0.0000e+00 1.0000e+00
       -2 -1    0    0    0  501 -0.0000000000e+00 -0.0000000000e+00 -4.8323312216e+02 4.8323312216e+02 0.0000000000e+00 0.0000e+00 -1.0000e+00
      -13  1    1    2    0    0 -1.6286278285e+02 +7.7831826385e+02 -9.5341107608e+01 8.0087048434e+02 0.0000000000e+00 0.0000e+00 -1.0000e+00
       13  1    1    2    0    0 +1.6286278285e+02 -7.7831826385e+02 +4.4649561883e+03 4.5352108407e+03 0.0000000000e+00 0.0000e+00 1.0000e+00
<mgrwt>
<rscale>  0 0.30627158E+04</rscale>
<asrwt>0</asrwt>
<pdfrwt beam="1">  1        2 0.74659200E+00 0.30627158E+04</pdfrwt>
<pdfrwt beam="2">  1       -2 0.74343560E-01 0.30627158E+04</pdfrwt>
<totfact> 0.74789333E-02</totfact>
</mgrwt>
<rwgt>
<wgt id='morphing_basis_vector_1'> +8.8105054e-05 </wgt>
<wgt id='morphing_basis_vector_2'> +5.9484452e-05 </wgt>
<wgt id='morphing_basis_vector_3'> +9.6078567e-05 </wgt>
<wgt id='morphing_basis_vector_4'> +6.8627084e-05 </wgt>
<wgt id='morphing_basis_vector_5'> +1.0945617e-04 </wgt>
</rwgt>
</event>
<event>
 4      1 +7.3133000e-09 2.72755500e+03 7.81860800e-03 7.82492800e-02
        2 -1    0    0  501    0 +0.0000000000e+00 +0.0000000000e+00 +1.1568107381e+03 1.1568107381e+03 0.0000000000e+00 0.0000e+00 -1.0000e+00
       -2 -1    0    0    0  501 -0.0000000000e+00 -0.0000000000e+00 -1.6077725830e+03 1.6077725830e+03 0.0000000000e+00 0.0000e+00 1.0000e+00
      -13  1    1    2    0    0 +1.1801925076e+03 +5.0059235614e+02 -6.9702958465e+02 1.4592111924e+03 0.0000000000e+00 0.0000e+00 1.0000e+00
       13  1    1    2    0    0 -1.1801925076e+03 -5.0059235614e+02 +2.4606773978e+02 1.3053721288e+03 0.0000000000e+00 0.0000e+00 -1.0000e+00
<mgrwt>
<rscale>  0 0.27275546E+04</rscale>
<asrwt>0</asrwt>
<pdfrwt beam="1">  1        2 0.17797088E+00 0.27275546E+04</pdfrwt>
<pdfrwt beam="2">  1       -2 0.24734963E+00 0.27275546E+04</pdfrwt>
<totfact> 0.12029594E+00</totfact>
</mgrwt>
<rwgt>
<wgt id='morphing_basis_vector_1'> +5.6191481e-05 </wgt>
<wgt id='morphing_basis_vector_2'> +3.9016153e-05 </wgt>
<wgt id='morphing_basis_vector_3'> +6.1258636e-05 </wgt>
<wgt id='morphing_basis_vector_4'> +4.1909331e-05 </wgt>
<wgt id='morphing_basis_vector_5'> +6.8458072e-05 </wgt>
</rwgt>
</event>
<event>
 4      1 +7.3133000e-09 2.71201400e+03 7.81860800e-03 7.82933400e-02
        2 -1    0    0  501    0 +0.0000000000e+00 +0.0000000000e+00 +1.6339964627e+03 1.6339964627e+03 0.0000000000e+00 0.0000e+00 1.0000e+00
       -2 -1    0    0    0  501 -0.0000000000e+00 -0.0000000000e+00 -1.1253115302e+03 1.1253115302e+03 0.0000000000e+00 0.0000e+00 -1.0000e+00
      -13  1    1    2    0    0 -8.9142839044e+02 +9.0336323461e+02 +7.4021109004e+02 1.4692250225e+03 0.0000000000e+00 0.0000e+00 1.0000e+00
       13  1    1    2    0    0 +8.9142839044e+02 -9.0336323461e+02 -2.3152615750e+02 1.2900829704e+03 0.0000000000e+00 0.0000e+00 -1.0000e+00
<mgrwt>
<rscale>  0 0.27120141E+04</rscale>
<asrwt>0</asrwt>
<pdfrwt beam="1">  1        2 0.25138407E+00 0.27120141E+04</pdfrwt>
<pdfrwt beam="2">  1       -2 0.17312485E+00 0.27120141E+04</pdfrwt>
<totfact> 0.22229498E+00</totfact>
</mgrwt>
<rwgt>
<wgt id='morphing_basis_vector_1'> +6.0943347e-05 </wgt>
<wgt id='morphing_basis_vector_2'> +5.5849655e-05 </wgt>
<wgt id='morphing_basis_vector_3'> +6.9159024e-05 </wgt>
<wgt id='morphing_basis_vector_4'> +2.8544708e-05 </wgt>
<wgt id='morphing_basis_vector_5'> +6.5882148e-05 </wgt>
</rwgt>
</event>
<event>
 4      1 +7.3133000e-09 2.86565000e+03 7.81860800e-03 7.78703900e-02
        2 -1    0    0  501    0 +0.0000000000e+00 +0.0000000000e+00 +3.0645529706e+03 3.0645529706e+03 0.0000000000e+00 0.0000e+00 -1.0000e+00
       -2 -1    0    0    0  501 -0.0000000000e+00 -0.0000000000e+00 -6.6991427141e+02 6.6991427141e+02 0.0000000000e+00 0.0000e+00 1.0000e+00
      -13  1    1    2    0    0 -6.3739648320e+02 -6.2446147497e+02 -2.6361899243e+02 9.3044149934e+02 0.0000000000e+00 0.0000e+00 1.0000e+00
       13  1    1    2    0    0 +6.3739648320e+02 +6.2446147497e+02 +2.6582576916e+03 2.8040257427e+03 0.0000000000e+00 0.0000e+00 -1.0000e+00
<mgrwt>
<rscale>  0 0.28656502E+04</rscale>
<asrwt>0</asrwt>
<pdfrwt beam="1">  1        2 0.47146968E+00 0.28656502E+04</pdfrwt>
<pdfrwt beam="2">  1       -2 0.10306374E+00 0.28656502E+04</pdfrwt>
<totfact> 0.12852321E+00</totfact>
</mgrwt>
<rwgt>
<wgt id='morphing_basis_vector_1'> +6.7716925e-05 </wgt>
<wgt id='morphing_basis_vector_2'> +4.5706576e-05 </wgt>
<wgt id='morphing_basis_vector_3'> +7.3687149e-05 </wgt>
<wgt id='morphing_basis_vector_4'> +5.2423320e-05 </wgt>
<wgt id='morphing_basis_vector_5'> +8.3682427e-05 </wgt>
</rwgt>
</event>
<event>
 4      1 +7.3133000e-09 2.75072600e+03 7.81860800e-03 7.81841400e-02
        2 -1    0    0  501    0 +0.0000000000e+00 +0.0000000000e+00 +1.0684394364e+03 1.0684394364e+03 0.0000000000e+00 0.0000e+00 -1.0000e+00
       -2 -1    0    0    0  501 -0.0000000000e+00 -0.0000000000e+00 -1.7704542548e+03 1.7704542548e+03 0.0000000000e+00 0.0000e+00 1.0000e+00
      -13  1    1    2    0    0 -8.9366856148e+02 +3.5686003082e+02 -1.3651693926e+03 1.6702335315e+03 0.0000000000e+00 0.0000e+00 1.0000e+00
       13  1    1    2    0    0 +8.9366856148e+02 -3.5686003082e+02 +6.6315457429e+02 1.1686601597e+03 0.0000000000e+00 0.0000e+00 -1.0000e+00
<mgrwt>
<rscale>  0 0.27507258E+04</rscale>
<asrwt>0</asrwt>
<pdfrwt beam="1">  1        2 0.16437530E+00 0.27507258E+04</pdfrwt>
<pdfrwt beam="2">  1       -2 0.27237757E+00 0.27507258E+04</pdfrwt>
<totfact> 0.91204185E-01</totfact>
</mgrwt>
<rwgt>
<wgt id='morphing_basis_vector_1'> +5.7617659e-05 </wgt>
<wgt id='morphing_basis_vector_2'> +3.8918872e-05 </wgt>
<wgt id='morphing_basis_vector_3'> +6.2612836e-05 </wgt>
<wgt id='morphing_basis_vector_4'> +4.4372583e-05 </wgt>
<wgt id='morphing_basis_vector_5'> +7.0921766e-05 </wgt>
</rwgt>
</event>
<event>
 4      1 +7.3133000e-09 3.04658300e+03 7.81860800e-03 7.74055600e-02
        2 -1    0    0  501    0 +0.0000000000e+00 +0.0000000000e+00 +1.4988096489e+03 1.4988096489e+03 0.0000000000e+00 0.0000e+00 1.0000e+00
       -2 -1    0    0    0  501 -0.0000000000e+00 -0.0000000000e+00 -1.5481736461e+03 1.5481736461e+03 0.0000000000e+00 0.0000e+00 -1.0000e+00
      -13  1    1    2    0    0 +2.1357824390e+02 +1.0803620113e+03 -1.0772553457e+03 1.5405443264e+03 0.0000000000e+00 0.0000e+00 -1.0000e+00
       13  1    1    2    0    0 -2.1357824390e+02 -1.0803620113e+03 +1.0278913486e+03 1.5064389686e+03 0.0000000000e+00 0.0000e+00 1.0000e+00
<mgrwt>
<rscale>  0 0.30465834E+04</rscale>
<asrwt>0</asrwt>
<pdfrwt beam="1">  1        2 0.23058610E+00 0.30465834E+04</pdfrwt>
<pdfrwt beam="2">  1       -2 0.23818056E+00 0.30465834E+04</pdfrwt>
<totfact> 0.86450742E-01</totfact>
</mgrwt>
<rwgt>
<wgt id='morphing_basis_vector_1'> +8.6374805e-05 </wgt>
<wgt id='morphing_basis_vector_2'> +5.8526561e-05 </wgt>
<wgt id='morphing_basis_vector_3'> +9.4221168e-05 </wgt>
<wgt id='morphing_basis_vector_4'> +6.6981685e-05 </wgt>
<wgt id='morphing_basis_vector_5'> +1.0713244e-04 </wgt>
</rwgt>
</event>
<event>
 4      1 +7.3133000e-09 2.86389800e+03 7.81860800e-03 7.78750600e-02
        2 -1    0    0  501    0 +0.0000000000e+00 +0.0000000000e+00 +2.2035114257e+03 2.2035114257e+03 0.0000000000e+00 0.0000e+00 -1.0000e+00
       -2 -1    0    0    0  501 -0.0000000000e+00 -0.0000000000e+00 -9.3055048910e+02 9.3055048910e+02 0.0000000000e+00 0.0000e+00 1.0000e+00
      -13  1    1    2    0    0 -1.9310466834e+02 +1.1488899089e+03 -2.7467426248e+02 1.1969475286e+03 0.0000000000e+00 0.0000e+00 1.0000e+00
       13  1    1    2    0    0 +1.9310466834e+02 -1.1488899089e+03 +1.5476351991e+03 1.9371143862e+03 0.0000000000e+00 0.0000e+00 -1.0000e+00
<mgrwt>
<rscale>  0 0.28638985E+04</rscale>
<asrwt>0</asrwt>
<pdfrwt beam="1">  1        2 0.33900176E+00 0.28638985E+04</pdfrwt>
<pdfrwt beam="2">  1       -2 0.14316161E+00 0.28638985E+04</pdfrwt>
<totfact> 0.18330793E+00</totfact>
</mgrwt>
<rwgt>
<wgt id='morphing_basis_vector_1'> +6.7703442e-05 </wgt>
<wgt id='morphing_basis_vector_2'> +4.6038205e-05 </wgt>
<wgt id='morphing_basis_vector_3'> +7.3741213e-05 </wgt>
<wgt id='morphing_basis_vector_4'> +5.1982214e-05 </wgt>
<wgt id='morphing_basis_vector_5'> +8.3450466e-05 </wgt>
</rwgt>
</event>
<event>
 4      1 +7.3133000e-09 2.92823300e+03 7.81860800e-03 7.77057400e-02
        2 -1    0    0  501    0 +0.0000000000e+00 +0.0000000000e+00 +1.2259586691e+03 1.2259586691e+03 0.0000000000e+00 0.0000e+00 -1.0000e+00
       -2 -1    0    0    0  501 -0.0000000000e+00 -0.0000000000e+00 -1.7485397861e+03 1.7485397861e+03 0.0000000000e+00 0.0000e+00 1.0000e+00
      -13  1    1    2    0    0 -5.6900929387e+02 -3.9298984547e+02 -1.5721937078e+03 1.7175580485e+03 0.0000000000e+00 0.0000e+00 1.0000e+00
       13  1    1    2    0    0 +5.6900929387e+02 +3.9298984547e+02 +1.0496125908e+03 1.2569404067e+03 0.0000000000e+00 0.0000e+00 -1.0000e+00
<mgrwt>
<rscale>  0 0.29282333E+04</rscale>
<asrwt>0</asrwt>
<pdfrwt beam="1">  1        2 0.18860903E+00 0.29282333E+04</pdfrwt>
<pdfrwt beam="2">  1       -2 0.26900612E+00 0.29282333E+04</pdfrwt>
<totfact> 0.76430581E-01</totfact>
</mgrwt>
<rwgt>
<wgt id='morphing_basis_vector_1'> +7.3734213e-05 </wgt>
<wgt id='morphing_basis_vector_2'> +4.9718511e-05 </wgt>
<wgt id='morphing_basis_vector_3'> +8.0282119e-05 </wgt>
<wgt id='morphing_basis_vector_4'> +5.7268880e-05 </wgt>
<wgt id='morphing_basis_vector_5'> +9.1316163e-05 </wgt>
</rwgt>
</event>
<event>
 4      1 +7.3133000e-09 2.90500400e+03 7.81860800e-03 7.77663700e-02
        2 -1    0    0  501    0 +0.0000000000e+00 +0.0000000000e+00 +1.4434671556e+03 1.4434671556e+03 0.0000000000e+00 0.0000e+00 1.0000e+00
       -2 -1    0    0    0  501 -0.0000000000e+00 -0.0000000000e+00 -1.4615932050e+03 1.4615932050e+03 0.0000000000e+00 0.0000e+00 -1.0000e+00
      -13  1    1    2    0    0 -8.2128642541e+01 -1.0983925675e+03 -9.5594493125e+02 1.4584382256e+03 0.0000000000e+00 0.0000e+00 -1.0000e+00
       13  1    1    2    0    0 +8.2128642541e+01 +1.0983925675e+03 +9.3781888182e+02 1.4466221350e+03 0.0000000000e+00 0.0000e+00 1.0000e+00
<mgrwt>
<rscale>  0 0.29050038E+04</rscale>
<asrwt>0</asrwt>
<pdfrwt beam="1">  1        2 0.22207187E+00 0.29050038E+04</pdfrwt>
<pdfrwt beam="2">  1       -2 0.22486049E+00 0.29050038E+04</pdfrwt>
<totfact> 0.11653291E+00</totfact>
</mgrwt>
<rwgt>
<wgt id='morphing_basis_vector_1'> +7.1561144e-05 </wgt>
<wgt id='morphing_basis_vector_2'> +4.8510464e-05 </wgt>
<wgt id='morphing_basis_vector_3'> +7.7949124e-05 </wgt>
<wgt id='morphing_basis_vector_4'> +5.5213785e-05 </wgt>
<wgt id='morphing_basis_vector_5'> +8.8406472e-05 </wgt>
</rwgt>
</event>
<event>
 4      1 +7.3133000e-09 3.02282000e+03 7.81860800e-03 7.74646900e-02
        2 -1    0    0  501    0 +0.0000000000e+00 +0.0000000000e+00 +2.3374730545e+03 2.3374730545e+03 0.0000000000e+00 0.0000e+00 1.0000e+00
       -2 -1    0    0    0  501 -0.0000000000e+00 -0.0000000000e+00 -9.7727749686e+02 9.7727749686e+02 0.0000000000e+00 0.0000e+00 -1.0000e+00
      -13  1    1    2    0    0 -2.1252478671e+02 -1.1008411993e+03 -4.3136789584e+02 1.2012894708e+03 0.0000000000e+00 0.0000e+00 -1.0000e+00
       13  1    1    2    0    0 +2.1252478671e+02 +1.1008411993e+03 +1.7915634535e+03 2.1134610806e+03 0.0000000000e+00 0.0000e+00 1.0000e+00
<mgrwt>
<rscale>  0 0.30228198E+04</rscale>
<asrwt>0</asrwt>
<pdfrwt beam="1">  1        2 0.35961124E+00 0.30228198E+04</pdfrwt>
<pdfrwt beam="2">  1       -2 0.15035038E+00 0.30228198E+04</pdfrwt>
<totfact> 0.13176979E+00</totfact>
</mgrwt>
<rwgt>
<wgt id='morphing_basis_vector_1'> +8.3752957e-05 </wgt>
<wgt id='morphing_basis_vector_2'> +5.6782493e-05 </wgt>
<wgt id='morphing_basis_vector_3'> +9.1346284e-05 </wgt>
<wgt id='morphing_basis_vector_4'> +6.4860596e-05 </wgt>
<wgt id='morphing_basis_vector_5'> +1.0379747e-04 </wgt>
</rwgt>
</event>
<event>
 4      1 +7.3133000e-09 2.86767000e+03 7.81860800e-03 7.78650100e-02
        2 -1    0    0  501    0 +0.0000000000e+00 +0.0000000000e+00 +3.5614657915e+03 3.5614657915e+03 0.0000000000e+00 0.0000e+00 1.0000e+00
       -2 -1    0    0    0  501 -0.0000000000e+00 -0.0000000000e+00 -5.7725735768e+02 5.7725735768e+02 0.0000000000e+00 0.0000e+00 -1.0000e+00
      -13  1    1    2    0    0 +4.4156864521e+02 -6.0224070034e+02 -2.7443369277e+02 7.9560705207e+02 0.0000000000e+00 0.0000e+00 -1.0000e+00
       13  1    1    2    0    0 -4.4156864521e+02 +6.0224070034e+02 +3.2586421266e+03 3.3431160971e+03 0.0000000000e+00 0.0000e+00 1.0000e+00
<mgrwt>
<rscale>  0 0.28676697E+04</rscale>
<asrwt>0</asrwt>
<pdfrwt beam="1">  1        2 0.54791780E+00 0.28676697E+04</pdfrwt>
<pdfrwt beam="2">  1       -2 0.88808826E-01 0.28676697E+04</pdfrwt>
<totfact> 0.82302129E-01</totfact>
</mgrwt>
<rwgt>
<wgt id='morphing_basis_vector_1'> +6.7882188e-05 </wgt>
<wgt id='morphing_basis_vector_2'> +4.5764545e-05 </wgt>
<wgt id='morphing_basis_vector_3'> +7.3857690e-05 </wgt>
<wgt id='morphing_basis_vector_4'> +5.2622291e-05 </wgt>
<wgt id='morphing_basis_vector_5'> +8.3924929e-05 </wgt>
</rwgt>
</event>
<event>
 4      1 +7.3133000e-09 2.87278200e+03 7.81860800e-03 7.78514200e-02
        2 -1    0    0  501    0 +0.0000000000e+00 +0.0000000000e+00 +3.0742368256e+03 3.0742368256e+03 0.0000000000e+00 0.0000e+00 -1.0000e+00
       -2 -1    0    0    0  501 -0.0000000000e+00 -0.0000000000e+00 -6.7113198739e+02 6.7113198739e+02 0.0000000000e+00 0.0000e+00 1.0000e+00
      -13  1    1    2    0    0 -1.9369337031e+02 -1.2996723389e+03 +4.4520917806e+02 1.3873991936e+03 0.0000000000e+00 0.0000e+00 1.0000e+00
       13  1    1    2    0    0 +1.9369337031e+02 +1.2996723389e+03 +1.9578956602e+03 2.3579696194e+03 0.0000000000e+00 0.0000e+00 -1.0000e+00
<mgrwt>
<rscale>  0 0.28727817E+04</rscale>
<asrwt>0</asrwt>
<pdfrwt beam="1">  1        2 0.47295950E+00 0.28727817E+04</pdfrwt>
<pdfrwt beam="2">  1       -2 0.10325108E+00 0.28727817E+04</pdfrwt>
<totfact> 0.12600479E+00</totfact>
</mgrwt>
<rwgt>
<wgt id='morphing_basis_vector_1'> +6.8837762e-05 </wgt>
<wgt id='morphing_basis_vector_2'> +4.7490115e-05 </wgt>
<wgt id='morphing_basis_vector_3'> +7.5125107e-05 </wgt>
<wgt id='morphing_basis_vector_4'> +5.2016193e-05 </wgt>
<wgt id='morphing_basis_vector_5'> +8.4450003e-05 </wgt>
</rwgt>
</event>
<event>
 4      1 +7.3133000e-09 2.80383800e+03 7.81860800e-03 7.80372500e-02
        2 -1    0    0  501    0 +0.0000000000e+00 +0.0000000000e+00 +2.5272221416e+03 2.5272221416e+03 0.0000000000e+00 0.0000e+00 -1.0000e+00
       -2 -1    0    0    0  501 -0.0000000000e+00 -0.0000000000e+00 -7.7768286103e+02 7.7768286103e+02 0.0000000000e+00 0.0000e+00 1.0000e+00
      -13  1    1    2    0    0 +8.5844778615e+02 -1.7445522878e+02 -4.1536861984e+02 9.6948353196e+02 0.0000000000e+00 0.0000e+00 1.0000e+00
       13  1    1    2    0    0 -8.5844778615e+02 +1.7445522878e+02 +2.1649079004e+03 2.3354214706e+03 0.0000000000e+00 0.0000e+00 -1.0000e+00
<mgrwt>
<rscale>  0 0.28038383E+04</rscale>
<asrwt>0</asrwt>
<pdfrwt beam="1">  1        2 0.38880340E+00 0.28038383E+04</pdfrwt>
<pdfrwt beam="2">  1       -2 0.11964352E+00 0.28038383E+04</pdfrwt>
<totfact> 0.19292695E+00</totfact>
</mgrwt>
<rwgt>
<wgt id='morphing_basis_vector_1'> +6.2116314e-05 </wgt>
<wgt id='morphing_basis_vector_2'> +4.1905773e-05 </wgt>
<wgt id='morphing_basis_vector_3'> +6.7537539e-05 </wgt>
<wgt id='morphing_basis_vector_4'> +4.8002668e-05 </wgt>
<wgt id='morphing_basis_vector_5'> +7.6626061e-05 </wgt>
</rwgt>
</event>
<event>
 4      1 +7.3133000e-09 2.73699000e+03 7.81860800e-03 7.82226800e-02
        2 -1    0    0  501    0 +0.0000000000e+00 +0.0000000000e+00 +1.3890803357e+03 1.3890803357e+03 0.0000000000e+00 0.0000e+00 1.0000e+00
       -2 -1    0    0    0  501 -0.0000000000e+00 -0.0000000000e+00 -1.3482152044e+03 1.3482152044e+03 0.0000000000e+00 0.0000e+00 -1.0000e+00
      -13  1    1    2    0    0 -4.4040838470e+01 +1.0436084586e+03 +9.0468099448e+02 1.3818487298e+03 0.0000000000e+00 0.0000e+00 1.0000e+00
       13  1    1    2    0    0 +4.4040838470e+01 -1.0436084586e+03 -8.6381586309e+02 1.3554468103e+03 0.0000000000e+00 0.0000e+00 -1.0000e+00
<mgrwt>
<rscale>  0 0.27369905E+04</rscale>
<asrwt>0</asrwt>
<pdfrwt beam="1">  1        2 0.21370467E+00 0.27369905E+04</pdfrwt>
<pdfrwt beam="2">  1       -2 0.20741772E+00 0.27369905E+04</pdfrwt>
<totfact> 0.16895418E+00</totfact>
</mgrwt>
<rwgt>
<wgt id='morphing_basis_vector_1'> +7.1142073e-05 </wgt>
<wgt id='morphing_basis_vector_2'> +8.1347794e-05 </wgt>
<wgt id='morphing_basis_vector_3'> +8.4047195e-05 </wgt>
<wgt id='morphing_basis_vector_4'> +1.3193916e-05 </wgt>
<wgt id='morphing_basis_vector_5'> +6.7027462e-05 </wgt>
</rwgt>
</event>
<event>
 4      1 +7.3133000e-09 2.91961600e+03 7.81860800e-03 7.77281700e-02
        2 -1    0    0  501    0 +0.0000000000e+00 +0.0000000000e+00 +1.2586420631e+03 1.2586420631e+03 0.0000000000e+00 0.0000e+00 1.0000e+00
       -2 -1    0    0    0  501 -0.0000000000e+00 -0.0000000000e+00 -1.6931255164e+03 1.6931255164e+03 0.0000000000e+00 0.0000e+00 -1.0000e+00
      -13  1    1    2    0    0 +1.3189715487e+03 +4.4017508227e+02 -6.6665797896e+02 1.5420353142e+03 0.0000000000e+00 0.0000e+00 -1.0000e+00
       13  1    1    2    0    0 -1.3189715487e+03 -4.4017508227e+02 +2.3217452572e+02 1.4097322653e+03 0.0000000000e+00 0.0000e+00 1.0000e+00
<mgrwt>
<rscale>  0 0.29196157E+04</rscale>
<asrwt>0</asrwt>
<pdfrwt beam="1">  1        2 0.19363724E+00 0.29196157E+04</pdfrwt>
<pdfrwt beam="2">  1       -2 0.26048085E+00 0.29196157E+04</pdfrwt>
<totfact> 0.83786562E-01</totfact>
</mgrwt>
<rwgt>
<wgt id='morphing_basis_vector_1'> +7.3685041e-05 </wgt>
<wgt id='morphing_basis_vector_2'> +5.1514680e-05 </wgt>
<wgt id='morphing_basis_vector_3'> +8.0600632e-05 </wgt>
<wgt id='morphing_basis_vector_4'> +5.4915269e-05 </wgt>
<wgt id='morphing_basis_vector_5'> +9.0098499e-05 </wgt>
</rwgt>
</event>
<event>
 4      1 +7.3133000e-09 3.00839800e+03 7.81860800e-03 7.75008500e-02
        2 -1    0    0  501    0 +0.0000000000e+00 +0.0000000000e+00 +1.3597332092e+03 1.3597332092e+03 0.0000000000e+00 0.0000e+00 1.0000e+00
       -2 -1    0    0    0  501 -0.0000000000e+00 -0.0000000000e+00 -1.6640135346e+03 1.6640135346e+03 0.0000000000e+00 0.0000e+00 -1.0000e+00
      -13  1    1    2    0    0 -6.7171720748e+01 -1.4057889576e+03 +3.8147324282e+02 1.4581757330e+03 0.0000000000e+00 0.0000e+00 1.0000e+00
       13  1    1    2    0    0 +6.7171720748e+01 +1.4057889576e+03 -6.8575356823e+02 1.5655710108e+03 0.0000000000e+00 0.0000e+00 -1.0000e+00
<mgrwt>
<rscale>  0 0.30083979E+04</rscale>
<asrwt>0</asrwt>
<pdfrwt beam="1">  1        2 0.20918973E+00 0.30083979E+04</pdfrwt>
<pdfrwt beam="2">  1       -2 0.25600208E+00 0.30083979E+04</pdfrwt>
<totfact> 0.78150506E-01</totfact>
</mgrwt>
<rwgt>
<wgt id='morphing_basis_vector_1'> +9.1925942e-05 </wgt>
<wgt id='morphing_basis_vector_2'> +8.4412365e-05 </wgt>
<wgt id='morphing_basis_vector_3'> +1.0487552e-04 </wgt>
<wgt id='morphing_basis_vector_4'> +4.3325693e-05 </wgt>
<wgt id='morphing_basis_vector_5'> +1.0014537e-04 </wgt>
</rwgt>
</event>
<event>
 4      1 +7.3133000e-09 2.69475300e+03 7.81860800e-03 7.83426300e-02
        2 -1    0    0  501    0 +0.0000000000e+00 +0.0000000000e+00 +2.5438879459e+03 2.5438879459e+03 0.0000000000e+00 0.0000e+00 1.0000e+00
       -2 -1    0    0    0  501 -0.0000000000e+00 -0.0000000000e+00 -7.1364138062e+02 7.1364138062e+02 0.0000000000e+00 0.0000e+00 -1.0000e+00
      -13  1    1    2    0    0 +3.6932995780e+02 -8.4775582450e+02 +2.0997441903e+03 2.2943452705e+03 0.0000000000e+00 0.0000e+00 1.0000e+00
       13  1    1    2    0    0 -3.6932995780e+02 +8.4775582450e+02 -2.6949762507e+02 9.6318405594e+02 0.0000000000e+00 0.0000e+00 -1.0000e+00
<mgrwt>
<rscale>  0 0.26947532E+04</rscale>
<asrwt>0</asrwt>
<pdfrwt beam="1">  1        2 0.39136737E+00 0.26947532E+04</pdfrwt>
<pdfrwt beam="2">  1       -2 0.10979098E+00 0.26947532E+04</pdfrwt>
<totfact> 0.23692475E+00</totfact>
</mgrwt>
<rwgt>
<wgt id='morphing_basis_vector_1'> +6.9082802e-05 </wgt>
<wgt id='morphing_basis_vector_2'> +8.2929698e-05 </wgt>
<wgt id='morphing_basis_vector_3'> +8.2323554e-05 </wgt>
<wgt id='morphing_basis_vector_4'> +7.8795765e-06 </wgt>
<wgt id='morphing_basis_vector_5'> +6.2577233e-05 </wgt>
</rwgt>
</event>
<event>
 4      1 +7.3133000e-09 2.92028600e+03 7.81860800e-03 7.77264200e-02
        2 -1    0    0  501    0 +0.0000000000e+00 +0.0000000000e+00 +1.2992655637e+03 1.2992655637e+03 0.0000000000e+00 0.0000e+00 -1.0000e+00
       -2 -1    0    0    0  501 -0.0000000000e+00 -0.0000000000e+00 -1.6409404586e+03 1.6409404586e+03 0.0000000000e+00 0.0000e+00 1.0000e+00
      -13  1    1    2    0    0 -9.0132247723e+02 -1.1273994442e+03 +5.1133461525e+01 1.4443082585e+03 0.0000000000e+00 0.0000e+00 1.0000e+00
       13  1    1    2    0    0 +9.0132247723e+02 +1.1273994442e+03 -3.9280835636e+02 1.4958977638e+03 0.0000000000e+00 0.0000e+00 -1.0000e+00
<mgrwt>
<rscale>  0 0.29202859E+04</rscale>
<asrwt>0</asrwt>
<pdfrwt beam="1">  1        2 0.19988701E+00 0.29202859E+04</pdfrwt>
<pdfrwt beam="2">  1       -2 0.25245238E+00 0.29202859E+04</pdfrwt>
<totfact> 0.90180852E-01</totfact>
</mgrwt>
<rwgt>
<wgt id='morphing_basis_vector_1'> +7.7477346e-05 </wgt>
<wgt id='morphing_basis_vector_2'> +6.2535857e-05 </wgt>
<wgt id='morphing_basis_vector_3'> +8.6487077e-05 </wgt>
<wgt id='morphing_basis_vector_4'> +4.7225379e-05 </wgt>
<wgt id='morphing_basis_vector_5'> +8.9546957e-05 </wgt>
</rwgt>
</event>
<event>
 4      1 +7.3133000e-09 2.72435000e+03 7.81860800e-03 7.82583400e-02
        2 -1    0    0  501    0 +0.0000000000e+00 +0.0000000000e+00 +1.9850828467e+03 1.9850828467e+03 0.0000000000e+00 0.0000e+00 1.0000e+00
       -2 -1    0    0    0  501 -0.0000000000e+00 -0.0000000000e+00 -9.3473204564e+02 9.3473204564e+02 0.0000000000e+00 0.0000e+00 -1.0000e+00
      -13  1    1    2    0    0 -7.5700364828e+02 -7.5385800785e+02 -3.8053938222e+02 1.1340928714e+03 0.0000000000e+00 0.0000e+00 -1.0000e+00
       13  1    1    2    0    0 +7.5700364828e+02 +7.5385800785e+02 +1.4308901833e+03 1.7857220209e+03 0.0000000000e+00 0.0000e+00 1.0000e+00
<mgrwt>
<rscale>  0 0.27243499E+04</rscale>
<asrwt>0</asrwt>
<pdfrwt beam="1">  1        2 0.30539736E+00 0.27243499E+04</pdfrwt>
<pdfrwt beam="2">  1       -2 0.14380493E+00 0.27243499E+04</pdfrwt>
<totfact> 0.24369328E+00</totfact>
</mgrwt>
<rwgt>
<wgt id='morphing_basis_vector_1'> +5.5523282e-05 </wgt>
<wgt id='morphing_basis_vector_2'> +3.7632855e-05 </wgt>
<wgt id='morphing_basis_vector_3'> +6.0341325e-05 </wgt>
<wgt id='morphing_basis_vector_4'> +4.2552519e-05 </wgt>
<wgt id='morphing_basis_vector_5'> +6.8202183e-05 </wgt>
</rwgt>
</event>
<event>
 4      1 +7.3133000e-09 2.74267100e+03 7.81860800e-03 7.82067100e-02
        2 -1    0    0  501    0 +0.0000000000e+00 +0.0000000000e+00 +1.4805587111e+03 1.4805587111e+03 0.0000000000e+00 0.0000e+00 1.0000e+00
       -2 -1    0    0    0  501 -0.0000000000e+00 -0.0000000000e+00 -1.2701697236e+03 1.2701697236e+03 0.0000000000e+00 0.0000e+00 -1.0000e+00
      -13  1    1    2    0    0 +7.2784244763e+02 -3.1556874384e+02 -1.0166723531e+03 1.2895584260e+03 0.0000000000e+00 0.0000e+00 -1.0000e+00
       13  1    1    2    0    0 -7.2784244763e+02 +3.1556874384e+02 +1.2270613406e+03 1.4611700087e+03 0.0000000000e+00 0.0000e+00 1.0000e+00
<mgrwt>
<rscale>  0 0.27426709E+04</rscale>
<asrwt>0</asrwt>
<pdfrwt beam="1">  1        2 0.22777826E+00 0.27426709E+04</pdfrwt>
<pdfrwt beam="2">  1       -2 0.19541073E+00 0.27426709E+04</pdfrwt>
<totfact> 0.18345770E+00</totfact>
</mgrwt>
<rwgt>
<wgt id='morphing_basis_vector_1'> +5.6912724e-05 </wgt>
<wgt id='morphing_basis_vector_2'> +3.8348431e-05 </wgt>
<wgt id='morphing_basis_vector_3'> +6.1820956e-05 </wgt>
<wgt id='morphing_basis_vector_4'> +4.3932976e-05 </wgt>
<wgt id='morphing_basis_vector_5'> +7.0092773e-05 </wgt>
</rwgt>
</event>
<event>
 4      1 +7.3133000e-09 3.16126100e+03 7.81860800e-03 7.71278500e-02
        2 -1    0    0  501    0 +0.0000000000e+00 +0.0000000000e+00 +2.2243668376e+03 2.2243668376e+03 0.0000000000e+00 0.0000e+00 -1.0000e+00
       -2 -1    0    0    0  501 -0.0000000000e+00 -0.0000000000e+00 -1.1231925699e+03 1.1231925699e+03 0.0000000000e+00 0.0000e+00 1.0000e+00
      -13  1    1    2    0    0 -2.7847822847e+02 -6.8520349920e+02 -9.2863797475e+02 1.1871909902e+03 0.0000000000e+00 0.0000e+00 1.0000e+00
       13  1    1    2    0    0 +2.7847822847e+02 +6.8520349920e+02 +2.0298122425e+03 2.1603684174e+03 0.0000000000e+00 0.0000e+00 -1.0000e+00
<mgrwt>
<rscale>  0 0.31612607E+04</rscale>
<asrwt>0</asrwt>
<pdfrwt beam="1">  1        2 0.34221028E+00 0.31612607E+04</pdfrwt>
<pdfrwt beam="2">  1       -2 0.17279886E+00 0.31612607E+04</pdfrwt>
<totfact> 0.10025194E+00</totfact>
</mgrwt>
<rwgt>
<wgt id='morphing_basis_vector_1'> +9.9887094e-05 </wgt>
<wgt id='morphing_basis_vector_2'> +6.7460716e-05 </wgt>
<wgt id='morphing_basis_vector_3'> +1.0903051e-04 </wgt>
<wgt id='morphing_basis_vector_4'> +7.7994115e-05 </wgt>
<wgt id='morphing_basis_vector_5'> +1.2436932e-04 </wgt>
</rwgt>
</event>
<event>
 4      1 +7.3133000e-09 2.78543100e+03 7.81860800e-03 7.80877800e-02
        2 -1    0    0  501    0 +0.0000000000e+00 +0.0000000000e+00 +1.4511348612e+03 1.4511348612e+03 0.0000000000e+00 0.0000e+00 1.0000e+00
       -2 -1    0    0    0  501 -0.0000000000e+00 -0.0000000000e+00 -1.3366481716e+03 1.3366481716e+03 0.0000000000e+00 0.0000e+00 -1.0000e+00
      -13  1    1    2    0    0 +6.7014278278e+01 +1.3910972459e+03 +6.1027811848e+01 1.3940469342e+03 0.0000000000e+00 0.0000e+00 -1.0000e+00
       13  1    1    2    0    0 -6.7014278278e+01 -1.3910972459e+03 +5.3458877701e+01 1.3937360986e+03 0.0000000000e+00 0.0000e+00 1.0000e+00
<mgrwt>
<rscale>  0 0.27854312E+04</rscale>
<asrwt>0</asrwt>
<pdfrwt beam="1">  1        2 0.22325152E+00 0.27854312E+04</pdfrwt>
<pdfrwt beam="2">  1       -2 0.20563818E+00 0.27854312E+04</pdfrwt>
<totfact> 0.15990526E+00</totfact>
</mgrwt>
<rwgt>
<wgt id='morphing_basis_vector_1'> +6.2722273e-05 </wgt>
<wgt id='morphing_basis_vector_2'> +4.7317714e-05 </wgt>
<wgt id='morphing_basis_vector_3'> +6.9201797e-05 </wgt>
<wgt id='morphing_basis_vector_4'> +4.2178825e-05 </wgt>
<wgt id='morphing_basis_vector_5'> +7.4240349e-05 </wgt>
</rwgt>
</event>
<event>
 4      1 +7.3133000e-09 3.02694900e+03 7.81860800e-03 7.74543800e-02
        2 -1    0    0  501    0 +0.0000000000e+00 +0.0000000000e+00 +1.8374441819e+03 1.8374441819e+03 0.0000000000e+00 0.0000e+00 -1.0000e+00
       -2 -1    0    0    0  501 -0.0000000000e+00 -0.0000000000e+00 -1.2466255493e+03 1.2466255493e+03 0.0000000000e+00 0.0000e+00 1.0000e+00
      -13  1    1    2    0    0 +1.3664354148e+03 -5.7653498747e+02 -1.2057671904e+01 1.4831330763e+03 0.0000000000e+00 0.0000e+00 1.0000e+00
       13  1    1    2    0    0 -1.3664354148e+03 +5.7653498747e+02 +6.0287630443e+02 1.6009366549e+03 0.0000000000e+00 0.0000e+00 -1.0000e+00
<mgrwt>
<rscale>  0 0.30269489E+04</rscale>
<asrwt>0</asrwt>
<pdfrwt beam="1">  1        2 0.28268372E+00 0.30269489E+04</pdfrwt>
<pdfrwt beam="2">  1       -2 0.19178855E+00 0.30269489E+04</pdfrwt>
<totfact> 0.12049020E+00</totfact>
</mgrwt>
<rwgt>
<wgt id='morphing_basis_vector_1'> +8.5530612e-05 </wgt>
<wgt id='morphing_basis_vector_2'> +6.0988937e-05 </wgt>
<wgt id='morphing_basis_vector_3'> +9.3919284e-05 </wgt>
<wgt id='morphing_basis_vector_4'> +6.2461970e-05 </wgt>
<wgt id='morphing_basis_vector_5'> +1.0414405e-04 </wgt>
</rwgt>
</event>
<event>
 4      1 +7.3133000e-09 2.71307500e+03 7.81860800e-03 7.82903300e-02
        2 -1    0    0  501    0 +0.0000000000e+00 +0.0000000000e+00 +2.5607324171e+03 2.5607324171e+03 0.0000000000e+00 0.0000e+00 -1.0000e+00
       -2 -1    0    0    0  501 -0.0000000000e+00 -0.0000000000e+00 -7.1862022434e+02 7.1862022434e+02 0.0000000000e+00 0.0000e+00 1.0000e+00
      -13  1    1    2    0    0 -4.8221005444e+02 +1.1392796702e+03 +1.5937283299e+03 2.0175367885e+03 0.0000000000e+00 0.0000e+00 1.0000e+00
       13  1    1    2    0    0 +4.8221005444e+02 -1.1392796702e+03 +2.4838386286e+02 1.2618158529e+03 0.0000000000e+00 0.0000e+00 -1.0000e+00
<mgrwt>
<rscale>  0 0.27130751E+04</rscale>
<asrwt>0</asrwt>
<pdfrwt beam="1">  1        2 0.39395883E+00 0.27130751E+04</pdfrwt>
<pdfrwt beam="2">  1       -2 0.11055696E+00 0.27130751E+04</pdfrwt>
<totfact> 0.22710420E+00</totfact>
</mgrwt>
<rwgt>
<wgt id='morphing_basis_vector_1'> +6.2292665e-05 </wgt>
<wgt id='morphing_basis_vector_2'> +5.9636017e-05 </wgt>
<wgt id='morphing_basis_vector_3'> +7.1207028e-05 </wgt>
<wgt id='morphing_basis_vector_4'> +2.5997936e-05 </wgt>
<wgt id='morphing_basis_vector_5'> +6.5774875e-05 </wgt>
</rwgt>
</event>
<event>
 4      1 +7.3133000e-09 2.97273300e+03 7.81860800e-03 7.75911900e-02
        2 -1    0    0  501    0 +0.0000000000e+00 +0.0000000000e+00 +2.3742709143e+03 2.3742709143e+03 0.0000000000e+00 0.0000e+00 1.0000e+00
       -2 -1    0    0    0  501 -0.0000000000e+00 -0.0000000000e+00 -9.3051079365e+02 9.3051079365e+02 0.0000000000e+00 0.0000e+00 -1.0000e+00
      -13  1    1    2    0    0 +1.1989056558e+02 +6.3308502496e+02 -7.6717924395e+02 1.0018654545e+03 0.0000000000e+00 0.0000e+00 -1.0000e+00
       13  1    1    2    0    0 -1.1989056558e+02 -6.3308502496e+02 +2.2109393646e+03 2.3029162535e+03 0.0000000000e+00 0.0000e+00 1.0000e+00
<mgrwt>
<rscale>  0 0.29727326E+04</rscale>
<asrwt>0</asrwt>
<pdfrwt beam="1">  1        2 0.36527245E+00 0.29727326E+04</pdfrwt>
<pdfrwt beam="2">  1       -2 0.14315551E+00 0.29727326E+04</pdfrwt>
<totfact> 0.14462624E+00</totfact>
</mgrwt>
<rwgt>
<wgt id='morphing_basis_vector_1'> +7.8271105e-05 </wgt>
<wgt id='morphing_basis_vector_2'> +5.2786352e-05 </wgt>
<wgt id='morphing_basis_vector_3'> +8.5264715e-05 </wgt>
<wgt id='morphing_basis_vector_4'> +6.0871381e-05 </wgt>
<wgt id='morphing_basis_vector_5'> +9.7049098e-05 </wgt>
</rwgt>
</event>
<event>
 4      1 +7.3133000e-09 3.07074600e+03 7.81860800e-03 7.73460100e-02
        2 -1    0    0  501    0 +0.0000000000e+00 +0.0000000000e+00 +2.7592766503e+03 2.7592766503e+03 0.0000000000e+00 0.0000e+00 -1.0000e+00
       -2 -1    0    0    0  501 -0.0000000000e+00 -0.0000000000e+00 -8.5434362574e+02 8.5434362574e+02 0.0000000000e+00 0.0000e+00 1.0000e+00
      -13  1    1    2    0    0 -9.7449144797e+02 +9.3763196824e+02 +9.6897094674e+01 1.3557936189e+03 0.0000000000e+00 0.0000e+00 1.0000e+00
       13  1    1    2    0    0 +9.7449144797e+02 -9.3763196824e+02 +1.8080359298e+03 2.2578266571e+03 0.0000000000e+00 0.0000e+00 -1.0000e+00
<mgrwt>
<rscale>  0 0.30707461E+04</rscale>
<asrwt>0</asrwt>
<pdfrwt beam="1">  1        2 0.42450410E+00 0.30707461E+04</pdfrwt>
<pdfrwt beam="2">  1       -2 0.13143748E+00 0.30707461E+04</pdfrwt>
<totfact> 0.10621474E+00</totfact>
</mgrwt>
<rwgt>
<wgt id='morphing_basis_vector_1'> +8.9459162e-05 </wgt>
<wgt id='morphing_basis_vector_2'> +6.1388083e-05 </wgt>
<wgt id='morphing_basis_vector_3'> +9.7771465e-05 </wgt>
<wgt id='morphing_basis_vector_4'> +6.8449437e-05 </wgt>
<wgt id='morphing_basis_vector_5'> +1.1054388e-04 </wgt>
</rwgt>
</event>
<event>
 4      1 +7.3133000e-09 2.94660100e+03 7.81860800e-03 7.76582100e-02
        2 -1    0    0  501    0 +0.0000000000e+00 +0.0000000000e+00 +1.4697231064e+03 1.4697231064e+03 0.0000000000e+00 0.0000e+00 -1.0000e+00
       -2 -1    0    0    0  501 -0.0000000000e+00 -0.0000000000e+00 -1.4768868079e+03 1.4768868079e+03 0.0000000000e+00 0.0000e+00 1.0000e+00
      -13  1    1    2    0    0 +1.0058358164e+03 -2.2553196912e+01 -1.0798751090e+03 1.4759216061e+03 0.0000000000e+00 0.0000e+00 1.0000e+00
       13  1    1    2    0    0 -1.0058358164e+03 +2.2553196912e+01 +1.0727114075e+03 1.4706883083e+03 0.0000000000e+00 0.0000e+00 -1.0000e+00
<mgrwt>
<rscale>  0 0.29466012E+04</rscale>
<asrwt>0</asrwt>
<pdfrwt beam="1">  1        2 0.22611125E+00 0.29466012E+04</pdfrwt>
<pdfrwt beam="2">  1       -2 0.22721336E+00 0.29466012E+04</pdfrwt>
<totfact> 0.10803621E+00</totfact>
</mgrwt>
<rwgt>
<wgt id='morphing_basis_vector_1'> +7.5646111e-05 </wgt>
<wgt id='morphing_basis_vector_2'> +5.1156301e-05 </wgt>
<wgt id='morphing_basis_vector_3'> +8.2411318e-05 </wgt>
<wgt id='morphing_basis_vector_4'> +5.8603141e-05 </wgt>
<wgt id='morphing_basis_vector_5'> +9.3640034e-05 </wgt>
</rwgt>
</event>
<event>
 4      1 +7.3133000e-09 2.89238000e+03 7.81860800e-03 7.77995600e-02
        2 -1    0    0  501    0 +0.0000000000e+00 +0.0000000000e+00 +3.1343080300e+03 3.1343080300e+03 0.0000000000e+00 0.0000e+00 1.0000e+00
       -2 -1    0    0    0  501 -0.0000000000e+00 -0.0000000000e+00 -6.6728129209e+02 6.6728129209e+02 0.0000000000e+00 0.0000e+00 -1.0000e+00
      -13  1    1    2    0    0 -1.1878877601e+03 -6.2891723290e+02 +5.3202788925e+02 1.4455683628e+03 0.0000000000e+00 0.0000e+00 -1.0000e+00
       13  1    1    2    0    0 +1.1878877601e+03 +6.2891723290e+02 +1.9349988487e+03 2.3560209594e+03 0.0000000000e+00 0.0000e+00 1.0000e+00
<mgrwt>
<rscale>  0 0.28923797E+04</rscale>
<asrwt>0</asrwt>
<pdfrwt beam="1">  1        2 0.48220123E+00 0.28923797E+04</pdfrwt>
<pdfrwt beam="2">  1       -2 0.10265866E+00 0.28923797E+04</pdfrwt>
<totfact> 0.11636199E+00</totfact>
</mgrwt>
<rwgt>
<wgt id='morphing_basis_vector_1'> +7.0804636e-05 </wgt>
<wgt id='morphing_basis_vector_2'> +4.9053076e-05 </wgt>
<wgt id='morphing_basis_vector_3'> +7.7332307e-05 </wgt>
<wgt id='morphing_basis_vector_4'> +5.3281000e-05 </wgt>
<wgt id='morphing_basis_vector_5'> +8.6785793e-05 </wgt>
</rwgt>
</event>
<event>
 4      1 +7.3133000e-09 2.67265600e+03 7.81860800e-03 7.84062900e-02
        2 -1    0    0  501    0 +0.0000000000e+00 +0.0000000000e+00 +1.9081739797e+03 1.9081739797e+03 0.0000000000e+00 0.0000e+00 -1.0000e+00
       -2 -1    0    0    0  501 -0.0000000000e+00 -0.0000000000e+00 -9.3585446699e+02 9.3585446699e+02 0.0000000000e+00 0.0000e+00 1.0000e+00
      -13  1    1    2    0    0 +1.2148529056e+03 +3.3152466280e+02 +9.6204527830e+02 1.5847104788e+03 0.0000000000e+00 0.0000e+00 -1.0000e+00
       13  1    1    2    0    0 -1.2148529056e+03 -3.3152466280e+02 +1.0274234393e+01 1.2593179678e+03 0.0000000000e+00 0.0000e+00 1.0000e+00
<mgrwt>
<rscale>  0 0.26726565E+04</rscale>
<asrwt>0</asrwt>
<pdfrwt beam="1">  1        2 0.29356523E+00 0.26726565E+04</pdfrwt>
<pdfrwt beam="2">  1       -2 0.14397761E+00 0.26726565E+04</pdfrwt>
<totfact> 0.26943701E+00</totfact>
</mgrwt>
<rwgt>
<wgt id='morphing_basis_vector_1'> +5.7192929e-05 </wgt>
<wgt id='morphing_basis_vector_2'> +5.1738021e-05 </wgt>
<wgt id='morphing_basis_vector_3'> +6.4716227e-05 </wgt>
<wgt id='morphing_basis_vector_4'> +2.7580959e-05 </wgt>
<wgt id='morphing_basis_vector_5'> +6.2156292e-05 </wgt>
</rwgt>
</event>
<event>
 4      1 +7.3133000e-09 2.81691700e+03 7.81860800e-03 7.80015800e-02
        2 -1    0    0  501    0 +0.0000000000e+00 +0.0000000000e+00 +1.6860732405e+03 1.6860732405e+03 0.0000000000e+00 0.0000e+00 1.0000e+00
       -2 -1    0    0    0  501 -0.0000000000e+00 -0.0000000000e+00 -1.1765537494e+03 1.1765537494e+03 0.0000000000e+00 0.0000e+00 -1.0000e+00
      -13  1    1    2    0    0 -3.4850695743e+02 +6.2832995893e+00 -1.1320303390e+03 1.1844784792e+03 0.0000000000e+00 0.0000e+00 -1.0000e+00
       13  1    1    2    0    0 +3.4850695743e+02 -6.2832995893e+00 +1.6415498301e+03 1.6781485107e+03 0.0000000000e+00 0.0000e+00 1.0000e+00
<mgrwt>
<rscale>  0 0.28169173E+04</rscale>
<asrwt>0</asrwt>
<pdfrwt beam="1">  1        2 0.25939588E+00 0.28169173E+04</pdfrwt>
<pdfrwt beam="2">  1       -2 0.18100827E+00 0.28169173E+04</pdfrwt>
<totfact> 0.17935816E+00</totfact>
</mgrwt>
<rwgt>
<wgt id='morphing_basis_vector_1'> +6.3232939e-05 </wgt>
<wgt id='morphing_basis_vector_2'> +4.2576818e-05 </wgt>
<wgt id='morphing_basis_vector_3'> +6.8746018e-05 </wgt>
<wgt id='morphing_basis_vector_4'> +4.8993037e-05 </wgt>
<wgt id='morphing_basis_vector_5'> +7.8087030e-05 </wgt>
</rwgt>
</event>
<event>
 4      1 +7.3133000e-09 2.72495800e+03 7.81860800e-03 7.82566200e-02
        2 -1    0    0  501    0 +0.0000000000e+00 +0.0000000000e+00 +3.7322436672e+03 3.7322436672e+03 0.0000000000e+00 0.0000e+00 -1.0000e+00
       -2 -1    0    0    0  501 -0.0000000000e+00 -0.0000000000e+00 -4.9738138345e+02 4.9738138345e+02 0.0000000000e+00 0.0000e+00 1.0000e+00
      -13  1    1    2    0    0 -7.1325272942e+02 -1.1091451338e+03 +2.1493017678e+03 2.5215928444e+03 0.0000000000e+00 0.0000e+00 1.0000e+00
       13  1    1    2    0    0 +7.1325272942e+02 +1.1091451338e+03 +1.0855605159e+03 1.7080322062e+03 0.0000000000e+00 0.0000e+00 -1.0000e+00
<mgrwt>
<rscale>  0 0.27249576E+04</rscale>
<asrwt>0</asrwt>
<pdfrwt beam="1">  1        2 0.57419131E+00 0.27249576E+04</pdfrwt>
<pdfrwt beam="2">  1       -2 0.76520215E-01 0.27249576E+04</pdfrwt>
<totfact> 0.86846515E-01</totfact>
</mgrwt>
<rwgt>
<wgt id='morphing_basis_vector_1'> +6.0278924e-05 </wgt>
<wgt id='morphing_basis_vector_2'> +5.1540758e-05 </wgt>
<wgt id='morphing_basis_vector_3'> +6.7673247e-05 </wgt>
<wgt id='morphing_basis_vector_4'> +3.2866245e-05 </wgt>
<wgt id='morphing_basis_vector_5'> +6.7469845e-05 </wgt>
</rwgt>
</event>
<event>
 4      1 +7.3133000e-09 2.88259100e+03 7.81860800e-03 7.78254100e-02
        2 -1    0    0  501    0 +0.0000000000e+00 +0.0000000000e+00 +1.2151710746e+03 1.2151710746e+03 0.0000000000e+00 0.0000e+00 -1.0000e+00
       -2 -1    0    0    0  501 -0.0000000000e+00 -0.0000000000e+00 -1.7094976541e+03 1.7094976541e+03 0.0000000000e+00 0.0000e+00 1.0000e+00
      -13  1    1    2    0    0 +1.1182836667e+03 +1.9806751650e+02 +6.5322711426e+02 1.3101506642e+03 0.0000000000e+00 0.0000e+00 1.0000e+00
       13  1    1    2    0    0 -1.1182836667e+03 -1.9806751650e+02 -1.1475536938e+03 1.6145180644e+03 0.0000000000e+00 0.0000e+00 -1.0000e+00
<mgrwt>
<rscale>  0 0.28825906E+04</rscale>
<asrwt>0</asrwt>
<pdfrwt beam="1">  1        2 0.18694940E+00 0.28825906E+04</pdfrwt>
<pdfrwt beam="2">  1       -2 0.26299964E+00 0.28825906E+04</pdfrwt>
<totfact> 0.85587844E-01</totfact>
</mgrwt>
<rwgt>
<wgt id='morphing_basis_vector_1'> +8.6226769e-05 </wgt>
<wgt id='morphing_basis_vector_2'> +9.6614246e-05 </wgt>
<wgt id='morphing_basis_vector_3'> +1.0178698e-04 </wgt>
<wgt id='morphing_basis_vector_4'> +1.8582641e-05 </wgt>
<wgt id='morphing_basis_vector_5'> +8.2820915e-05 </wgt>
</rwgt>
</event>
<event>
 4      1 +7.3133000e-09 2.83063200e+03 7.81860800e-03 7.79643900e-02
        2 -1    0    0  501    0 +0.0000000000e+00 +0.0000000000e+00 +4.2971667237e+03 4.2971667237e+03 0.0000000000e+00 0.0000e+00 1.0000e+00
       -2 -1    0    0    0  501 -0.0000000000e+00 -0.0000000000e+00 -4.6614894593e+02 4.6614894593e+02 0.0000000000e+00 0.0000e+00 -1.0000e+00
      -13  1    1    2    0    0 -3.1874893666e+02 +1.2646706224e+03 +9.9055361526e+02 1.6377390306e+03 0.0000000000e+00 0.0000e+00 1.0000e+00
       13  1    1    2    0    0 +3.1874893666e+02 -1.2646706224e+03 +2.8404641625e+03 3.1255766390e+03 0.0000000000e+00 0.0000e+00 -1.0000e+00
<mgrwt>
<rscale>  0 0.28306323E+04</rscale>
<asrwt>0</asrwt>
<pdfrwt beam="1">  1        2 0.66110255E+00 0.28306323E+04</pdfrwt>
<pdfrwt beam="2">  1       -2 0.71715225E-01 0.28306323E+04</pdfrwt>
<totfact> 0.32558051E-01</totfact>
</mgrwt>
<rwgt>
<wgt id='morphing_basis_vector_1'> +6.4959053e-05 </wgt>
<wgt id='morphing_basis_vector_2'> +4.4877356e-05 </wgt>
<wgt id='morphing_basis_vector_3'> +7.0868319e-05 </wgt>
<wgt id='morphing_basis_vector_4'> +4.8930453e-05 </wgt>
<wgt id='morphing_basis_vector_5'> +7.9549831e-05 </wgt>
</rwgt>
</event>
<event>
 4      1 +7.3133000e-09 2.76655900e+03 7.81860800e-03 7.81400000e-02
        2 -1    0    0  501    0 +0.0000000000e+00 +0.0000000000e+00 +3.4134336393e+03 3.4134336393e+03 0.0000000000e+00 0.0000e+00 -1.0000e+00
       -2 -1    0    0    0  501 -0.0000000000e+00 -0.0000000000e+00 -5.6056811473e+02 5.6056811473e+02 0.0000000000e+00 0.0000e+00 1.0000e+00
      -13  1    1    2    0    0 -2.6477105387e+02 +1.1193545842e+03 +3.2270325546e+02 1.1946529986e+03 0.0000000000e+00 0.0000e+00 1.0000e+00
       13  1    1    2    0    0 +2.6477105387e+02 -1.1193545842e+03 +2.5301622691e+03 2.7793487554e+03 0.0000000000e+00 0.0000e+00 -1.0000e+00
<mgrwt>
<rscale>  0 0.27665589E+04</rscale>
<asrwt>0</asrwt>
<pdfrwt beam="1">  1        2 0.52514362E+00 0.27665589E+04</pdfrwt>
<pdfrwt beam="2">  1       -2 0.86241251E-01 0.27665589E+04</pdfrwt>
<totfact> 0.11396222E+00</totfact>
</mgrwt>
<rwgt>
<wgt id='morphing_basis_vector_1'> +5.9069060e-05 </wgt>
<wgt id='morphing_basis_vector_2'> +4.0195449e-05 </wgt>
<wgt id='morphing_basis_vector_3'> +6.4263870e-05 </wgt>
<wgt id='morphing_basis_vector_4'> +4.5149251e-05 </wgt>
<wgt id='morphing_basis_vector_5'> +7.2564681e-05 </wgt>
</rwgt>
</event>
<event>
 4      1 +7.3133000e-09 2.81792500e+03 7.81860800e-03 7.79988400e-02
        2 -1    0    0  501    0 +0.0000000000e+00 +0.0000000000e+00 +4.9939692436e+03 4.9939692436e+03 0.0000000000e+00 0.0000e+00 -1.0000e+00
       -2 -1    0    0    0  501 -0.0000000000e+00 -0.0000000000e+00 -3.9751463682e+02 3.9751463682e+02 0.0000000000e+00 0.0000e+00 1.0000e+00
      -13  1    1    2    0    0 +4.1675037669e+02 -8.7563294499e+02 +3.4259369132e+02 1.0284864453e+03 0.0000000000e+00 0.0000e+00 1.0000e+00
       13  1    1    2    0    0 -4.1675037669e+02 +8.7563294499e+02 +4.2538609154e+03 4.3629974351e+03 0.0000000000e+00 0.0000e+00 -1.0000e+00
<mgrwt>
<rscale>  0 0.28179254E+04</rscale>
<asrwt>0</asrwt>
<pdfrwt beam="1">  1        2 0.76830291E+00 0.28179254E+04</pdfrwt>
<pdfrwt beam="2">  1       -2 0.61156102E-01 0.28179254E+04</pdfrwt>
<totfact> 0.76767835E-02</totfact>
</mgrwt>
<rwgt>
<wgt id='morphing_basis_vector_1'> +6.3387067e-05 </wgt>
<wgt id='morphing_basis_vector_2'> +4.2827603e-05 </wgt>
<wgt id='morphing_basis_vector_3'> +6.8944586e-05 </wgt>
<wgt id='morphing_basis_vector_4'> +4.8930254e-05 </wgt>
<wgt id='morphing_basis_vector_5'> +7.8189056e-05 </wgt>
</rwgt>
</event>
<event>
 4      1 +7.3133000e-09 2.96893400e+03 7.81860800e-03 7.76008800e-02
        2 -1    0    0  501    0 +0.0000000000e+00 +0.0000000000e+00 +1.3787408783e+03 1.3787408783e+03 0.0000000000e+00 0.0000e+00 -1.0000e+00
       -2 -1    0    0    0  501 -0.0000000000e+00 -0.0000000000e+00 -1.5983008753e+03 1.5983008753e+03 0.0000000000e+00 0.0000e+00 1.0000e+00
      -13  1    1    2    0    0 +2.8606503275e+02 -1.3948979153e+02 -1.5636884691e+03 1.5957481736e+03 0.0000000000e+00 0.0000e+00 1.0000e+00
       13  1    1    2    0    0 -2.8606503275e+02 +1.3948979153e+02 +1.3441284721e+03 1.3812935800e+03 0.0000000000e+00 0.0000e+00 -1.0000e+00
<mgrwt>
<rscale>  0 0.29689343E+04</rscale>
<asrwt>0</asrwt>
<pdfrwt beam="1">  1        2 0.21211398E+00 0.29689343E+04</pdfrwt>
<pdfrwt beam="2">  1       -2 0.24589244E+00 0.29689343E+04</pdfrwt>
<totfact> 0.89849381E-01</totfact>
</mgrwt>
<rwgt>
<wgt id='morphing_basis_vector_1'> +7.7867393e-05 </wgt>
<wgt id='morphing_basis_vector_2'> +5.2494121e-05 </wgt>
<wgt id='morphing_basis_vector_3'> +8.4817352e-05 </wgt>
<wgt id='morphing_basis_vector_4'> +6.0575084e-05 </wgt>
<wgt id='morphing_basis_vector_5'> +9.6550982e-05 </wgt>
</rwgt>
</event>
<event>
 4      1 +7.3133000e-09 2.79922400e+03 7.81860800e-03 7.80498800e-02
        2 -1    0    0  501    0 +0.0000000000e+00 +0.0000000000e+00 +1.6844888766e+03 1.6844888766e+03 0.0000000000e+00 0.0000e+00 -1.0000e+00
       -2 -1    0    0    0  501 -0.0000000000e+00 -0.0000000000e+00 -1.1629128406e+03 1.1629128406e+03 0.0000000000e+00 0.0000e+00 1.0000e+00
      -13  1    1    2    0    0 +1.1168708851e+03 +1.3112255922e+02 -5.8681197012e+02 1.2684407703e+03 0.0000000000e+00 0.0000e+00 1.0000e+00
       13  1    1    2    0    0 -1.1168708851e+03 -1.3112255922e+02 +1.1083880061e+03 1.5789609468e+03 0.0000000000e+00 0.0000e+00 -1.0000e+00
<mgrwt>
<rscale>  0 0.27992240E+04</rscale>
<asrwt>0</asrwt>
<pdfrwt beam="1">  1        2 0.25915214E+00 0.27992240E+04</pdfrwt>
<pdfrwt beam="2">  1       -2 0.17890967E+00 0.27992240E+04</pdfrwt>
<totfact> 0.18671675E+00</totfact>
</mgrwt>
<rwgt>
<wgt id='morphing_basis_vector_1'> +6.1835137e-05 </wgt>
<wgt id='morphing_basis_vector_2'> +4.1992744e-05 </wgt>
<wgt id='morphing_basis_vector_3'> +6.7284485e-05 </wgt>
<wgt id='morphing_basis_vector_4'> +4.7430670e-05 </wgt>
<wgt id='morphing_basis_vector_5'> +7.6097033e-05 </wgt>
</rwgt>
</event>
<event>
 4      1 +7.3133000e-09 2.87206600e+03 7.81860800e-03 7.78533200e-02
        2 -1    0    0  501    0 +0.0000000000e+00 +0.0000000000e+00 +2.2531284954e+03 2.2531284954e+03 0.0000000000e+00 0.0000e+00 -1.0000e+00
       -2 -1    0    0    0  501 -0.0000000000e+00 -0.0000000000e+00 -9.1525687627e+02 9.1525687627e+02 0.0000000000e+00 0.0000e+00 1.0000e+00
      -13  1    1    2    0    0 +9.7019587916e+02 -1.2260481230e+02 -4.9116946328e+02 1.0943305833e+03 0.0000000000e+00 0.0000e+00 1.0000e+00
       13  1    1    2    0    0 -9.7019587916e+02 +1.2260481230e+02 +1.8290410824e+03 2.0740547884e+03 0.0000000000e+00 0.0000e+00 -1.0000e+00
<mgrwt>
<rscale>  0 0.28720664E+04</rscale>
<asrwt>0</asrwt>
<pdfrwt beam="1">  1        2 0.34663515E+00 0.28720664E+04</pdfrwt>
<pdfrwt beam="2">  1       -2 0.14080875E+00 0.28720664E+04</pdfrwt>
<totfact> 0.17962668E+00</totfact>
</mgrwt>
<rwgt>
<wgt id='morphing_basis_vector_1'> +6.8344251e-05 </wgt>
<wgt id='morphing_basis_vector_2'> +4.6188928e-05 </wgt>
<wgt id='morphing_basis_vector_3'> +7.4387567e-05 </wgt>
<wgt id='morphing_basis_vector_4'> +5.2847248e-05 </wgt>
<wgt id='morphing_basis_vector_5'> +8.4437501e-05 </wgt>
</rwgt>
</event>
<event>
 4      1 +7.3133000e-09 2.98608100e+03 7.81860800e-03 7.75572200e-02
        2 -1    0    0  501    0 +0.0000000000e+00 +0.0000000000e+00 +3.6414833839e+03 3.6414833839e+03 0.0000000000e+00 0.0000e+00 -1.0000e+00
       -2 -1    0    0    0  501 -0.0000000000e+00 -0.0000000000e+00 -6.1215999117e+02 6.1215999117e+02 0.0000000000e+00 0.0000e+00 1.0000e+00
      -13  1    1    2    0    0 +1.1488777041e+03 -9.4221517811e+02 +1.7234407115e+03 2.2755081426e+03 0.0000000000e+00 0.0000e+00 1.0000e+00
       13  1    1    2    0    0 -1.1488777041e+03 +9.4221517811e+02 +1.3058826812e+03 1.9781352325e+03 0.0000000000e+00 0.0000e+00 -1.0000e+00
<mgrwt>
<rscale>  0 0.29860813E+04</rscale>
<asrwt>0</asrwt>
<pdfrwt beam="1">  1        2 0.56022820E+00 0.29860813E+04</pdfrwt>
<pdfrwt beam="2">  1       -2 0.94178462E-01 0.29860813E+04</pdfrwt>
<totfact> 0.61781249E-01</totfact>
</mgrwt>
<rwgt>
<wgt id='morphing_basis_vector_1'> +8.3804643e-05 </wgt>
<wgt id='morphing_basis_vector_2'> +6.5905014e-05 </wgt>
<wgt id='morphing_basis_vector_3'> +9.3268397e-05 </wgt>
<wgt id='morphing_basis_vector_4'> +5.3383068e-05 </wgt>
<wgt id='morphing_basis_vector_5'> +9.8113461e-05 </wgt>
</rwgt>
</event>
<event>
 4      1 +7.3133000e-09 2.90429400e+03 7.81860800e-03 7.77682300e-02
        2 -1    0    0  501    0 +0.0000000000e+00 +0.0000000000e+00 +3.9118280849e+03 3.9118280849e+03 0.0000000000e+00 0.0000e+00 -1.0000e+00
       -2 -1    0    0    0  501 -0.0000000000e+00 -0.0000000000e+00 -5.3906525172e+02 5.3906525172e+02 0.0000000000e+00 0.0000e+00 1.0000e+00
      -13  1    1    2    0    0 +1.2147694783e+03 -6.6513617989e+01 +4.7129206284e+02 1.3046858454e+03 0.0000000000e+00 0.0000e+00 1.0000e+00
       13  1    1    2    0    0 -1.2147694783e+03 +6.6513617989e+01 +2.9014707703e+03 3.1462074912e+03 0.0000000000e+00 0.0000e+00 -1.0000e+00
<mgrwt>
<rscale>  0 0.29042938E+04</rscale>
<asrwt>0</asrwt>
<pdfrwt beam="1">  1        2 0.60181969E+00 0.29042938E+04</pdfrwt>
<pdfrwt beam="2">  1       -2 0.82933118E-01 0.29042938E+04</pdfrwt>
<totfact> 0.51125767E-01</totfact>
</mgrwt>
<rwgt>
<wgt id='morphing_basis_vector_1'> +7.1611805e-05 </wgt>
<wgt id='morphing_basis_vector_2'> +4.8816531e-05 </wgt>
<wgt id='morphing_basis_vector_3'> +7.8059980e-05 </wgt>
<wgt id='morphing_basis_vector_4'> +5.4910247e-05 </wgt>
<wgt id='morphing_basis_vector_5'> +8.8298828e-05 </wgt>
</rwgt>
</event>
<event>
 4      1 +7.3133000e-09 3.03313700e+03 7.81860800e-03 7.74389500e-02
        2 -1    0    0  501    0 +0.0000000000e+00 +0.0000000000e+00 +2.2836635542e+03 2.2836635542e+03 0.0000000000e+00 0.0000e+00 -1.0000e+00
       -2 -1    0    0    0  501 -0.0000000000e+00 -0.0000000000e+00 -1.0071451374e+03 1.0071451374e+03 0.0000000000e+00 0.0000e+00 1.0000e+00
      -13  1    1    2    0    0 -1.4080797374e+02 +6.5261409562e+02 -8.3912866328e+02 1.0723194285e+03 0.0000000000e+00 0.0000e+00 1.0000e+00
       13  1    1    2    0    0 +1.4080797374e+02 -6.5261409562e+02 +2.1156470800e+03 2.2184892631e+03 0.0000000000e+00 0.0000e+00 -1.0000e+00
<mgrwt>
<rscale>  0 0.30331374E+04</rscale>
<asrwt>0</asrwt>
<pdfrwt beam="1">  1        2 0.35133285E+00 0.30331374E+04</pdfrwt>
<pdfrwt beam="2">  1       -2 0.15494541E+00 0.30331374E+04</pdfrwt>
<totfact> 0.12972082E+00</totfact>
</mgrwt>
<rwgt>
<wgt id='morphing_basis_vector_1'> +8.4768246e-05 </wgt>
<wgt id='morphing_basis_vector_2'> +5.7194454e-05 </wgt>
<wgt id='morphing_basis_vector_3'> +9.2405141e-05 </wgt>
<wgt id='morphing_basis_vector_4'> +6.6016127e-05 </wgt>
<wgt id='morphing_basis_vector_5'> +1.0525557e-04 </wgt>
</rwgt>
</event>
<event>
 4      1 +7.3133000e-09 2.93768500e+03 7.81860800e-03 7.76812400e-02
        2 -1    0    0  501    0 +0.0000000000e+00 +0.0000000000e+00 +2.8157339135e+03 2.8157339135e+03 0.0000000000e+00 0.0000e+00 1.0000e+00
       -2 -1    0    0    0  501 -0.0000000000e+00 -0.0000000000e+00 -7.6622943872e+02 7.6622943872e+02 0.0000000000e+00 0.0000e+00 -1.0000e+00
      -13  1    1    2    0    0 -7.2079954863e+02 +1.2798189309e+03 +1.0209486596e+03 1.7888053697e+03 0.0000000000e+00 0.0000e+00 -1.0000e+00
       13  1    1    2    0    0 +7.2079954863e+02 -1.2798189309e+03 +1.0285558152e+03 1.7931579825e+03 0.0000000000e+00 0.0000e+00 1.0000e+00
<mgrwt>
<rscale>  0 0.29376849E+04</rscale>
<asrwt>0</asrwt>
<pdfrwt beam="1">  1        2 0.43318983E+00 0.29376849E+04</pdfrwt>
<pdfrwt beam="2">  1       -2 0.11788145E+00 0.29376849E+04</pdfrwt>
<totfact> 0.13183874E+00</totfact>
</mgrwt>
<rwgt>
<wgt id='morphing_basis_vector_1'> +7.7390578e-05 </wgt>
<wgt id='morphing_basis_vector_2'> +5.8340591e-05 </wgt>
<wgt id='morphing_basis_vector_3'> +8.5552570e-05 </wgt>
<wgt id='morphing_basis_vector_4'> +5.2387248e-05 </wgt>
<wgt id='morphing_basis_vector_5'> +9.2049744e-05 </wgt>
</rwgt>
</event>
<event>
 4      1 +7.3133000e-09 3.05929700e+03 7.81860800e-03 7.73741600e-02
        2 -1    0    0  501    0 +0.0000000000e+00 +0.0000000000e+00 +3.8126959363e+03 3.8126959363e+03 0.0000000000e+00 0.0000e+00 -1.0000e+00
       -2 -1    0    0    0  501 -0.0000000000e+00 -0.0000000000e+00 -6.1369281780e+02 6.1369281780e+02 0.0000000000e+00 0.0000e+00 1.0000e+00
      -13  1    1    2    0    0 +1.1741500709e+03 -8.4154640335e+02 +8.7174816011e+02 1.6872384516e+03 0.0000000000e+00 0.0000e+00 1.0000e+00
       13  1    1    2    0    0 -1.1741500709e+03 +8.4154640335e+02 +2.3272549584e+03 2.7391503025e+03 0.0000000000e+00 0.0000e+00 -1.0000e+00
<mgrwt>
<rscale>  0 0.30592967E+04</rscale>
<asrwt>0</asrwt>
<pdfrwt beam="1">  1        2 0.58656859E+00 0.30592967E+04</pdfrwt>
<pdfrwt beam="2">  1       -2 0.94414282E-01 0.30592967E+04</pdfrwt>
<totfact> 0.44875289E-01</totfact>
</mgrwt>
<rwgt>
<wgt id='morphing_basis_vector_1'> +8.8580978e-05 </wgt>
<wgt id='morphing_basis_vector_2'> +6.1768103e-05 </wgt>
<wgt id='morphing_basis_vector_3'> +9.7007814e-05 </wgt>
<wgt id='morphing_basis_vector_4'> +6.6514563e-05 </wgt>
<wgt id='morphing_basis_vector_5'> +1.0881563e-04 </wgt>
</rwgt>
</event>
<event>
 4      1 +7.3133000e-09 2.67469100e+03 7.81860800e-03 7.84004000e-02
        2 -1    0    0  501    0 +0.0000000000e+00 +0.0000000000e+00 +2.0327165188e+03 2.0327165188e+03 0.0000000000e+00 0.0000e+00 -1.0000e+00
       -2 -1    0    0    0  501 -0.0000000000e+00 -0.0000000000e+00 -8.7985365468e+02 8.7985365468e+02 0.0000000000e+00 0.0000e+00 1.0000e+00
      -13  1    1    2    0    0 +1.0986600118e+03 +3.3391120933e+02 -1.7006055968e+02 1.1608062332e+03 0.0000000000e+00 0.0000e+00 1.0000e+00
       13  1    1    2    0    0 -1.0986600118e+03 -3.3391120933e+02 +1.3229234238e+03 1.7517639403e+03 0.0000000000e+00 0.0000e+00 -1.0000e+00
<mgrwt>
<rscale>  0 0.26746911E+04</rscale>
<asrwt>0</asrwt>
<pdfrwt beam="1">  1        2 0.31272562E+00 0.26746911E+04</pdfrwt>
<pdfrwt beam="2">  1       -2 0.13536210E+00 0.26746911E+04</pdfrwt>
<totfact> 0.27197828E+00</totfact>
</mgrwt>
<rwgt>
<wgt id='morphing_basis_vector_1'> +5.1727756e-05 </wgt>
<wgt id='morphing_basis_vector_2'> +3.5272536e-05 </wgt>
<wgt id='morphing_basis_vector_3'> +5.6219390e-05 </wgt>
<wgt id='morphing_basis_vector_4'> +3.9294633e-05 </wgt>
<wgt id='morphing_basis_vector_5'> +6.3295757e-05 </wgt>
</rwgt>
</event>
<event>
 4      1 +7.3133000e-09 3.01630900e+03 7.81860800e-03 7.74809900e-02
        2 -1    0    0  501    0 +0.0000000000e+00 +0.0000000000e+00 +1.4615227955e+03 1.4615227955e+03 0.0000000000e+00 0.0000e+00 -1.0000e+00
       -2 -1    0    0    0  501 -0.0000000000e+00 -0.0000000000e+00 -1.5562735330e+03 1.5562735330e+03 0.0000000000e+00 0.0000e+00 1.0000e+00
      -13  1    1    2    0    0 +1.7061190596e+02 -1.0186746507e+03 -1.1468818565e+03 1.5434197288e+03 0.0000000000e+00 0.0000e+00 1.0000e+00
       13  1    1    2    0    0 -1.7061190596e+02 +1.0186746507e+03 +1.0521311190e+03 1.4743765998e+03 0.0000000000e+00 0.0000e+00 -1.0000e+00
<mgrwt>
<rscale>  0 0.30163085E+04</rscale>
<asrwt>0</asrwt>
<pdfrwt beam="1">  1        2 0.22484966E+00 0.30163085E+04</pdfrwt>
<pdfrwt beam="2">  1       -2 0.23942670E+00 0.30163085E+04</pdfrwt>
<totfact> 0.89140224E-01</totfact>
</mgrwt>
<rwgt>
<wgt id='morphing_basis_vector_1'> +8.2992283e-05 </wgt>
<wgt id='morphing_basis_vector_2'> +5.6155846e-05 </wgt>
<wgt id='morphing_basis_vector_3'> +9.0487394e-05 </wgt>
<wgt id='morphing_basis_vector_4'> +6.4398380e-05 </wgt>
<wgt id='morphing_basis_vector_5'> +1.0290645e-04 </wgt>
</rwgt>
</event>
<event>
 4      1 +7.3133000e-09 2.78131500e+03 7.81860800e-03 7.80991300e-02
        2 -1    0    0  501    0 +0.0000000000e+00 +0.0000000000e+00 +2.0026455769e+03 2.0026455769e+03 0.0000000000e+00 0.0000e+00 1.0000e+00
       -2 -1    0    0    0  501 -0.0000000000e+00 -0.0000000000e+00 -9.6568641569e+02 9.6568641569e+02 0.0000000000e+00 0.0000e+00 -1.0000e+00
      -13  1    1    2    0    0 -7.7460444669e+02 +6.2227808199e+02 -5.1992177564e+02 1.1214101448e+03 0.0000000000e+00 0.0000e+00 -1.0000e+00
       13  1    1    2    0    0 +7.7460444669e+02 -6.2227808199e+02 +1.5568809369e+03 1.8469218478e+03 0.0000000000e+00 0.0000e+00 1.0000e+00
<mgrwt>
<rscale>  0 0.27813145E+04</rscale>
<asrwt>0</asrwt>
<pdfrwt beam="1">  1        2 0.30809932E+00 0.27813145E+04</pdfrwt>
<pdfrwt beam="2">  1       -2 0.14856714E+00 0.27813145E+04</pdfrwt>
<totfact> 0.21627234E+00</totfact>
</mgrwt>
<rwgt>
<wgt id='morphing_basis_vector_1'> +6.0203722e-05 </wgt>
<wgt id='morphing_basis_vector_2'> +4.0696330e-05 </wgt>
<wgt id='morphing_basis_vector_3'> +6.5455700e-05 </wgt>
<wgt id='morphing_basis_vector_4'> +4.6382717e-05 </wgt>
<wgt id='morphing_basis_vector_5'> +7.4162234e-05 </wgt>
</rwgt>
</event>
<event>
 4      1 +7.3133000e-09 2.95476900e+03 7.81860800e-03 7.76371900e-02
        2 -1    0    0  501    0 +0.0000000000e+00 +0.0000000000e+00 +4.5567979053e+03 4.5567979053e+03 0.0000000000e+00 0.0000e+00 -1.0000e+00
       -2 -1    0    0    0  501 -0.0000000000e+00 -0.0000000000e+00 -4.7899083982e+02 4.7899083982e+02 0.0000000000e+00 0.0000e+00 1.0000e+00
      -13  1    1    2    0    0 +1.2938426945e+03 +8.9872890085e+01 +8.3311431380e+02 1.5414880844e+03 0.0000000000e+00 0.0000e+00 1.0000e+00
       13  1    1    2    0    0 -1.2938426945e+03 -8.9872890085e+01 +3.2446927517e+03 3.4943006607e+03 0.0000000000e+00 0.0000e+00 -1.0000e+00
<mgrwt>
<rscale>  0 0.29547687E+04</rscale>
<asrwt>0</asrwt>
<pdfrwt beam="1">  1        2 0.70104581E+00 0.29547687E+04</pdfrwt>
<pdfrwt beam="2">  1       -2 0.73690901E-01 0.29547687E+04</pdfrwt>
<totfact> 0.16692512E-01</totfact>
</mgrwt>
<rwgt>
<wgt id='morphing_basis_vector_1'> +7.6786531e-05 </wgt>
<wgt id='morphing_basis_vector_2'> +5.2625467e-05 </wgt>
<wgt id='morphing_basis_vector_3'> +8.3806593e-05 </wgt>
<wgt id='morphing_basis_vector_4'> +5.8624713e-05 </wgt>
<wgt id='morphing_basis_vector_5'> +9.4639895e-05 </wgt>
</rwgt>
</event>
<event>
 4      1 +7.3133000e-09 2.69088800e+03 7.81860800e-03 7.83537200e-02
        2 -1    0    0  501    0 +0.0000000000e+00 +0.0000000000e+00 +1.1296386434e+03 1.1296386434e+03 0.0000000000e+00 0.0000e+00 -1.0000e+00
       -2 -1    0    0    0  501 -0.0000000000e+00 -0.0000000000e+00 -1.6024769915e+03 1.6024769915e+03 0.0000000000e+00 0.0000e+00 1.0000e+00
      -13  1    1    2    0    0 -1.1514156122e+03 -4.8509888405e+02 -7.4320690705e+02 1.4537659186e+03 0.0000000000e+00 0.0000e+00 1.0000e+00
       13  1    1    2    0    0 +1.1514156122e+03 +4.8509888405e+02 +2.7036855888e+02 1.2783497163e+03 0.0000000000e+00 0.0000e+00 -1.0000e+00
<mgrwt>
<rscale>  0 0.26908883E+04</rscale>
<asrwt>0</asrwt>
<pdfrwt beam="1">  1        2 0.17379056E+00 0.26908883E+04</pdfrwt>
<pdfrwt beam="2">  1       -2 0.24653492E+00 0.26908883E+04</pdfrwt>
<totfact> 0.12686748E+00</totfact>
</mgrwt>
<rwgt>
<wgt id='morphing_basis_vector_1'> +5.3199198e-05 </wgt>
<wgt id='morphing_basis_vector_2'> +3.6783633e-05 </wgt>
<wgt id='morphing_basis_vector_3'> +5.7934549e-05 </wgt>
<wgt id='morphing_basis_vector_4'> +3.9808480e-05 </wgt>
<wgt id='morphing_basis_vector_5'> +6.4823039e-05 </wgt>
</rwgt>
</event>
<event>
 4      1 +7.3133000e-09 2.68812900e+03 7.81860800e-03 7.83616500e-02
        2 -1    0    0  501    0 +0.0000000000e+00 +0.0000000000e+00 +1.0450761663e+03 1.0450761663e+03 0.0000000000e+00 0.0000e+00 1.0000e+00
       -2 -1    0    0    0  501 -0.0000000000e+00 -0.0000000000e+00 -1.7285917191e+03 1.7285917191e+03 0.0000000000e+00 0.0000e+00 -1.0000e+00
      -13  1    1    2    0    0 +1.2568084893e+03 +3.6495477088e+02 -6.5768783070e+02 1.4646886516e+03 0.0000000000e+00 0.0000e+00 -1.0000e+00
       13  1    1    2    0    0 -1.2568084893e+03 -3.6495477088e+02 -2.5827722115e+01 1.3089792339e+03 0.0000000000e+00 0.0000e+00 1.0000e+00
<mgrwt>
<rscale>  0 0.26881295E+04</rscale>
<asrwt>0</asrwt>
<pdfrwt beam="1">  1        2 0.16078095E+00 0.26881295E+04</pdfrwt>
<pdfrwt beam="2">  1       -2 0.26593719E+00 0.26881295E+04</pdfrwt>
<totfact> 0.10488041E+00</totfact>
</mgrwt>
<rwgt>
<wgt id='morphing_basis_vector_1'> +5.3354714e-05 </wgt>
<wgt id='morphing_basis_vector_2'> +3.7727270e-05 </wgt>
<wgt id='morphing_basis_vector_3'> +5.8269899e-05 </wgt>
<wgt id='morphing_basis_vector_4'> +3.8878321e-05 </wgt>
<wgt id='morphing_basis_vector_5'> +6.4492272e-05 </wgt>
</rwgt>
</event>
<event>
 4      1 +7.3133000e-09 2.79150500e+03 7.81860800e-03 7.80710600e-02
        2 -1    0    0  501    0 +0.0000000000e+00 +0.0000000000e+00 +9.6830354159e+02 9.6830354159e+02 0.0000000000e+00 0.0000e+00 -1.0000e+00
       -2 -1    0    0    0  501 -0.0000000000e+00 -0.0000000000e+00 -2.0118950817e+03 2.0118950817e+03 0.0000000000e+00 0.0000e+00 1.0000e+00
      -13  1    1    2    0    0 -1.0195948053e+03 +6.5371049317e+02 -1.2623826045e+03 1.7494344275e+03 0.0000000000e+00 0.0000e+00 1.0000e+00
       13  1    1    2    0    0 +1.0195948053e+03 -6.5371049317e+02 +2.1879106437e+02 1.2307641958e+03 0.0000000000e+00 0.0000e+00 -1.0000e+00
<mgrwt>
<rscale>  0 0.27915051E+04</rscale>
<asrwt>0</asrwt>
<pdfrwt beam="1">  1        2 0.14896978E+00 0.27915051E+04</pdfrwt>
<pdfrwt beam="2">  1       -2 0.30952232E+00 0.27915051E+04</pdfrwt>
<totfact> 0.58724759E-01</totfact>
</mgrwt>
<rwgt>
<wgt id='morphing_basis_vector_1'> +6.1281333e-05 </wgt>
<wgt id='morphing_basis_vector_2'> +4.1882320e-05 </wgt>
<wgt id='morphing_basis_vector_3'> +6.6729553e-05 </wgt>
<wgt id='morphing_basis_vector_4'> +4.6659427e-05 </wgt>
<wgt id='morphing_basis_vector_5'> +7.5232608e-05 </wgt>
</rwgt>
</event>
<event>
 4      1 +7.3133000e-09 3.18963300e+03 7.81860800e-03 7.70610200e-02
        2 -1    0    0  501    0 +0.0000000000e+00 +0.0000000000e+00 +2.9242032635e+03 2.9242032635e+03 0.0000000000e+00 0.0000e+00 -1.0000e+00
       -2 -1    0    0    0  501 -0.0000000000e+00 -0.0000000000e+00 -8.6978889001e+02 8.6978889001e+02 0.0000000000e+00 0.0000e+00 1.0000e+00
      -13  1    1    2    0    0 -1.1177870006e+03 +6.9521073314e+02 -4.3766464610e+01 1.3170729842e+03 0.0000000000e+00 0.0000e+00 1.0000e+00
       13  1    1    2    0    0 +1.1177870006e+03 -6.9521073314e+02 +2.0981808381e+03 2.4769191694e+03 0.0000000000e+00 0.0000e+00 -1.0000e+00
<mgrwt>
<rscale>  0 0.31896329E+04</rscale>
<asrwt>0</asrwt>
<pdfrwt beam="1">  1        2 0.44987742E+00 0.31896329E+04</pdfrwt>
<pdfrwt beam="2">  1       -2 0.13381368E+00 0.31896329E+04</pdfrwt>
<totfact> 0.78791669E-01</totfact>
</mgrwt>
<rwgt>
<wgt id='morphing_basis_vector_1'> +1.0379964e-04 </wgt>
<wgt id='morphing_basis_vector_2'> +7.0813989e-05 </wgt>
<wgt id='morphing_basis_vector_3'> +1.1348068e-04 </wgt>
<wgt id='morphing_basis_vector_4'> +8.0210200e-05 </wgt>
<wgt id='morphing_basis_vector_5'> +1.2887791e-04 </wgt>
</rwgt>
</event>
<event>
 4      1 +7.3133000e-09 2.79061400e+03 7.81860800e-03 7.80735100e-02
        2 -1    0    0  501    0 +0.0000000000e+00 +0.0000000000e+00 +1.6455158366e+03 1.6455158366e+03 0.0000000000e+00 0.0000e+00 1.0000e+00
       -2 -1    0    0    0  501 -0.0000000000e+00 -0.0000000000e+00 -1.1831432623e+03 1.1831432623e+03 0.0000000000e+00 0.0000e+00 -1.0000e+00
      -13  1    1    2    0    0 +5.3115931191e+02 -2.1171794641e+02 -1.0589290520e+03 1.2034473152e+03 0.0000000000e+00 0.0000e+00 -1.0000e+00
       13  1    1    2    0    0 -5.3115931191e+02 +2.1171794641e+02 +1.5213016263e+03 1.6252117836e+03 0.0000000000e+00 0.0000e+00 1.0000e+00
<mgrwt>
<rscale>  0 0.27906135E+04</rscale>
<asrwt>0</asrwt>
<pdfrwt beam="1">  1        2 0.25315628E+00 0.27906135E+04</pdfrwt>
<pdfrwt beam="2">  1       -2 0.18202204E+00 0.27906135E+04</pdfrwt>
<totfact> 0.18603493E+00</totfact>
</mgrwt>
<rwgt>
<wgt id='morphing_basis_vector_1'> +6.0932334e-05 </wgt>
<wgt id='morphing_basis_vector_2'> +4.1028726e-05 </wgt>
<wgt id='morphing_basis_vector_3'> +6.6223102e-05 </wgt>
<wgt id='morphing_basis_vector_4'> +4.7161507e-05 </wgt>
<wgt id='morphing_basis_vector_5'> +7.5181544e-05 </wgt>
</rwgt>
</event>
<event>
 4      1 +7.3133000e-09 2.85074600e+03 7.81860800e-03 7.79102300e-02
        2 -1    0    0  501    0 +0.0000000000e+00 +0.0000000000e+00 +2.6790961361e+03 2.6790961361e+03 0.0000000000e+00 0.0000e+00 1.0000e+00
       -2 -1    0    0    0  501 -0.0000000000e+00 -0.0000000000e+00 -7.5834857004e+02 7.5834857004e+02 0.0000000000e+00 0.0000e+00 -1.0000e+00
      -13  1    1    2    0    0 +2.7400160927e+02 +9.9420987543e+02 -2.2607880015e+02 1.0557659694e+03 0.0000000000e+00 0.0000e+00 1.0000e+00
       13  1    1    2    0    0 -2.7400160927e+02 -9.9420987543e+02 +2.1468263662e+03 2.3816787367e+03 0.0000000000e+00 0.0000e+00 -1.0000e+00
<mgrwt>
<rscale>  0 0.28507464E+04</rscale>
<asrwt>0</asrwt>
<pdfrwt beam="1">  1        2 0.41216863E+00 0.28507464E+04</pdfrwt>
<pdfrwt beam="2">  1       -2 0.11666901E+00 0.28507464E+04</pdfrwt>
<totfact> 0.16586217E+00</totfact>
</mgrwt>
<rwgt>
<wgt id='morphing_basis_vector_1'> +6.6383107e-05 </wgt>
<wgt id='morphing_basis_vector_2'> +4.4914673e-05 </wgt>
<wgt id='morphing_basis_vector_3'> +7.2245226e-05 </wgt>
<wgt id='morphing_basis_vector_4'> +5.1227021e-05 </wgt>
<wgt id='morphing_basis_vector_5'> +8.1929865e-05 </wgt>
</rwgt>
</event>
<event>
 4      1 +7.3133000e-09 2.70761000e+03 7.81860800e-03 7.83058800e-02
        2 -1    0    0  501    0 +0.0000000000e+00 +0.0000000000e+00 +1.1798846552e+03 1.1798846552e+03 0.0000000000e+00 0.0000e+00 1.0000e+00
       -2 -1    0    0    0  501 -0.0000000000e+00 -0.0000000000e+00 -1.5533617015e+03 1.5533617015e+03 0.0000000000e+00 0.0000e+00 -1.0000e+00
      -13  1    1    2    0    0 +1.1306270868e-01 -1.3185576871e+03 -4.9655363436e+02 1.4089570252e+03 0.0000000000e+00 0.0000e+00 -1.0000e+00
       13  1    1    2    0    0 -1.1306270868e-01 +1.3185576871e+03 +1.2307658801e+02 1.3242893315e+03 0.0000000000e+00 0.0000e+00 1.0000e+00
<mgrwt>
<rscale>  0 0.27076097E+04</rscale>
<asrwt>0</asrwt>
<pdfrwt beam="1">  1        2 0.18152072E+00 0.27076097E+04</pdfrwt>
<pdfrwt beam="2">  1       -2 0.23897872E+00 0.27076097E+04</pdfrwt>
<totfact> 0.13352604E+00</totfact>
</mgrwt>
<rwgt>
<wgt id='morphing_basis_vector_1'> +5.4904234e-05 </wgt>
<wgt id='morphing_basis_vector_2'> +3.8838235e-05 </wgt>
<wgt id='morphing_basis_vector_3'> +5.9982751e-05 </wgt>
<wgt id='morphing_basis_vector_4'> +4.0022090e-05 </wgt>
<wgt id='morphing_basis_vector_5'> +6.6402470e-05 </wgt>
</rwgt>
</event>
<event>
 4      1 +7.3133000e-09 2.82346000e+03 7.81860800e-03 7.79838100e-02
        2 -1    0    0  501    0 +0.0000000000e+00 +0.0000000000e+00 +4.4013680114e+03 4.4013680114e+03 0.0000000000e+00 0.0000e+00 -1.0000e+00
       -2 -1    0    0    0  501 -0.0000000000e+00 -0.0000000000e+00 -4.5280943301e+02 4.5280943301e+02 0.0000000000e+00 0.0000e+00 1.0000e+00
      -13  1    1    2    0    0 -3.0205409776e+02 -1.0979783654e+03 +5.3979010667e+02 1.2602247927e+03 0.0000000000e+00 0.0000e+00 1.0000e+00
       13  1    1    2    0    0 +3.0205409776e+02 +1.0979783654e+03 +3.4087684717e+03 3.5939526517e+03 0.0000000000e+00 0.0000e+00 -1.0000e+00
<mgrwt>
<rscale>  0 0.28234595E+04</rscale>
<asrwt>0</asrwt>
<pdfrwt beam="1">  1        2 0.67713351E+00 0.28234595E+04</pdfrwt>
<pdfrwt beam="2">  1       -2 0.69662993E-01 0.28234595E+04</pdfrwt>
<totfact> 0.27499245E-01</totfact>
</mgrwt>
<rwgt>
<wgt id='morphing_basis_vector_1'> +6.3986255e-05 </wgt>
<wgt id='morphing_basis_vector_2'> +4.3472777e-05 </wgt>
<wgt id='morphing_basis_vector_3'> +6.9650397e-05 </wgt>
<wgt id='morphing_basis_vector_4'> +4.9102123e-05 </wgt>
<wgt id='morphing_basis_vector_5'> +7.8793502e-05 </wgt>
</rwgt>
</event>
<event>
 4      1 +7.3133000e-09 2.81260000e+03 7.81860800e-03 7.80133300e-02
        2 -1    0    0  501    0 +0.0000000000e+00 +0.0000000000e+00 +2.5085544238e+03 2.5085544238e+03 0.0000000000e+00 0.0000e+00 1.0000e+00
       -2 -1    0    0    0  501 -0.0000000000e+00 -0.0000000000e+00 -7.8837429632e+02 7.8837429632e+02 0.0000000000e+00 0.0000e+00 -1.0000e+00
      -13  1    1    2    0    0 +8.4988641591e+02 +1.8149745533e+02 +2.1561164720e+03 2.3246691134e+03 0.0000000000e+00 0.0000e+00 1.0000e+00
       13  1    1    2    0    0 -8.4988641591e+02 -1.8149745533e+02 -4.3593634453e+02 9.7225960665e+02 0.0000000000e+00 0.0000e+00 -1.0000e+00
<mgrwt>
<rscale>  0 0.28126001E+04</rscale>
<asrwt>0</asrwt>
<pdfrwt beam="1">  1        2 0.38593145E+00 0.28126001E+04</pdfrwt>
<pdfrwt beam="2">  1       -2 0.12128835E+00 0.28126001E+04</pdfrwt>
<totfact> 0.19090075E+00</totfact>
</mgrwt>
<rwgt>
<wgt id='morphing_basis_vector_1'> +8.3454821e-05 </wgt>
<wgt id='morphing_basis_vector_2'> +1.0303743e-04 </wgt>
<wgt id='morphing_basis_vector_3'> +1.0032385e-04 </wgt>
<wgt id='morphing_basis_vector_4'> +6.0031379e-06 </wgt>
<wgt id='morphing_basis_vector_5'> +7.4111598e-05 </wgt>
</rwgt>
</event>
<event>
 4      1 +7.3133000e-09 2.82195800e+03 7.81860800e-03 7.79878900e-02
        2 -1    0    0  501    0 +0.0000000000e+00 +0.0000000000e+00 +9.1081849915e+02 9.1081849915e+02 0.0000000000e+00 0.0000e+00 1.0000e+00
       -2 -1    0    0    0  501 -0.0000000000e+00 -0.0000000000e+00 -2.1857940754e+03 2.1857940754e+03 0.0000000000e+00 0.0000e+00 -1.0000e+00
      -13  1    1    2    0    0 +1.2139371016e+03 +3.4948466001e+02 -1.3272163846e+03 1.8322898640e+03 0.0000000000e+00 0.0000e+00 -1.0000e+00
       13  1    1    2    0    0 -1.2139371016e+03 -3.4948466001e+02 +5.2240808369e+01 1.2643227105e+03 0.0000000000e+00 0.0000e+00 1.0000e+00
<mgrwt>
<rscale>  0 0.28219580E+04</rscale>
<asrwt>0</asrwt>
<pdfrwt beam="1">  1        2 0.14012592E+00 0.28219580E+04</pdfrwt>
<pdfrwt beam="2">  1       -2 0.33627601E+00 0.28219580E+04</pdfrwt>
<totfact> 0.42323875E-01</totfact>
</mgrwt>
<rwgt>
<wgt id='morphing_basis_vector_1'> +6.4057223e-05 </wgt>
<wgt id='morphing_basis_vector_2'> +4.3986587e-05 </wgt>
<wgt id='morphing_basis_vector_3'> +6.9821851e-05 </wgt>
<wgt id='morphing_basis_vector_4'> +4.8570698e-05 </wgt>
<wgt id='morphing_basis_vector_5'> +7.8589473e-05 </wgt>
</rwgt>
</event>
<event>
 4      1 +7.3133000e-09 3.11410800e+03 7.81860800e-03 7.72405400e-02
        2 -1    0    0  501    0 +0.0000000000e+00 +0.0000000000e+00 +2.3258863338e+03 2.3258863338e+03 0.0000000000e+00 0.0000e+00 -1.0000e+00
       -2 -1    0    0    0  501 -0.0000000000e+00 -0.0000000000e+00 -1.0423623905e+03 1.0423623905e+03 0.0000000000e+00 0.0000e+00 1.0000e+00
      -13  1    1    2    0    0 -3.5242813680e+02 +7.2704198649e+02 -7.9788475193e+02 1.1355244247e+03 0.0000000000e+00 0.0000e+00 1.0000e+00
       13  1    1    2    0    0 +3.5242813680e+02 -7.2704198649e+02 +2.0814086951e+03 2.2327242996e+03 0.0000000000e+00 0.0000e+00 -1.0000e+00
<mgrwt>
<rscale>  0 0.31141075E+04</rscale>
<asrwt>0</asrwt>
<pdfrwt beam="1">  1        2 0.35782867E+00 0.31141075E+04</pdfrwt>
<pdfrwt beam="2">  1       -2 0.16036345E+00 0.31141075E+04</pdfrwt>
<totfact> 0.11008967E+00</totfact>
</mgrwt>
<rwgt>
<wgt id='morphing_basis_vector_1'> +9.4115329e-05 </wgt>
<wgt id='morphing_basis_vector_2'> +6.3563808e-05 </wgt>
<wgt id='morphing_basis_vector_3'> +1.0268709e-04 </wgt>
<wgt id='morphing_basis_vector_4'> +7.3390429e-05 </wgt>
<wgt id='morphing_basis_vector_5'> +1.1705487e-04 </wgt>
</rwgt>
</event>
<event>
 4      1 +7.3133000e-09 2.73570000e+03 7.81860800e-03 7.82263100e-02
        2 -1    0    0  501    0 +0.0000000000e+00 +0.0000000000e+00 +2.4446104895e+03 2.4446104895e+03 0.0000000000e+00 0.0000e+00 -1.0000e+00
       -2 -1    0    0    0  501 -0.0000000000e+00 -0.0000000000e+00 -7.6536290085e+02 7.6536290085e+02 0.0000000000e+00 0.0000e+00 1.0000e+00
      -13  1    1    2    0    0 +7.6727555588e+02 +1.0034563131e+03 +2.2388377628e+02 1.2828718940e+03 0.0000000000e+00 0.0000e+00 1.0000e+00
       13  1    1    2    0    0 -7.6727555588e+02 -1.0034563131e+03 +1.4553638124e+03 1.9271014964e+03 0.0000000000e+00 0.0000e+00 -1.0000e+00
<mgrwt>
<rscale>  0 0.27357004E+04</rscale>
<asrwt>0</asrwt>
<pdfrwt beam="1">  1        2 0.37609392E+00 0.27357004E+04</pdfrwt>
<pdfrwt beam="2">  1       -2 0.11774814E+00 0.27357004E+04</pdfrwt>
<totfact> 0.22650782E+00</totfact>
</mgrwt>
<rwgt>
<wgt id='morphing_basis_vector_1'> +5.6764492e-05 </wgt>
<wgt id='morphing_basis_vector_2'> +3.9205436e-05 </wgt>
<wgt id='morphing_basis_vector_3'> +6.1848147e-05 </wgt>
<wgt id='morphing_basis_vector_4'> +4.2611451e-05 </wgt>
<wgt id='morphing_basis_vector_5'> +6.9304201e-05 </wgt>
</rwgt>
</event>
<event>
 4      1 +7.3133000e-09 2.82691200e+03 7.81860800e-03 7.79744500e-02
        2 -1    0    0  501    0 +0.0000000000e+00 +0.0000000000e+00 +1.3908297684e+03 1.3908297684e+03 0.0000000000e+00 0.0000e+00 -1.0000e+00
       -2 -1    0    0    0  501 -0.0000000000e+00 -0.0000000000e+00 -1.4364507413e+03 1.4364507413e+03 0.0000000000e+00 0.0000e+00 1.0000e+00
      -13  1    1    2    0    0 +7.8206113924e+01 -7.8831046656e+02 -1.1935648349e+03 1.4325315365e+03 0.0000000000e+00 0.0000e+00 1.0000e+00
       13  1    1    2    0    0 -7.8206113924e+01 +7.8831046656e+02 +1.1479438620e+03 1.3947489732e+03 0.0000000000e+00 0.0000e+00 -1.0000e+00
<mgrwt>
<rscale>  0 0.28269124E+04</rscale>
<asrwt>0</asrwt>
<pdfrwt beam="1">  1        2 0.21397381E+00 0.28269124E+04</pdfrwt>
<pdfrwt beam="2">  1       -2 0.22099242E+00 0.28269124E+04</pdfrwt>
<totfact> 0.13377106E+00</totfact>
</mgrwt>
<rwgt>
<wgt id='morphing_basis_vector_1'> +6.4148282e-05 </wgt>
<wgt id='morphing_basis_vector_2'> +4.3247815e-05 </wgt>
<wgt id='morphing_basis_vector_3'> +6.9760993e-05 </wgt>
<wgt id='morphing_basis_vector_4'> +4.9652539e-05 </wgt>
<wgt id='morphing_basis_vector_5'> +7.9208678e-05 </wgt>
</rwgt>
</event>
<event>
 4      1 +7.3133000e-09 2.79065700e+03 7.81860800e-03 7.80733900e-02
        2 -1    0    0  501    0 +0.0000000000e+00 +0.0000000000e+00 +1.3658341242e+03 1.3658341242e+03 0.0000000000e+00 0.0000e+00 -1.0000e+00
       -2 -1    0    0    0  501 -0.0000000000e+00 -0.0000000000e+00 -1.4254600129e+03 1.4254600129e+03 0.0000000000e+00 0.0000e+00 1.0000e+00
      -13  1    1    2    0    0 -3.1544810689e+02 +1.0129335193e+03 -9.3633105699e+02 1.4150115445e+03 0.0000000000e+00 0.0000e+00 1.0000e+00
       13  1    1    2    0    0 +3.1544810689e+02 -1.0129335193e+03 +8.7670516835e+02 1.3762825927e+03 0.0000000000e+00 0.0000e+00 -1.0000e+00
<mgrwt>
<rscale>  0 0.27906572E+04</rscale>
<asrwt>0</asrwt>
<pdfrwt beam="1">  1        2 0.21012833E+00 0.27906572E+04</pdfrwt>
<pdfrwt beam="2">  1       -2 0.21930154E+00 0.27906572E+04</pdfrwt>
<totfact> 0.14250129E+00</totfact>
</mgrwt>
<rwgt>
<wgt id='morphing_basis_vector_1'> +6.1042380e-05 </wgt>
<wgt id='morphing_basis_vector_2'> +4.1344479e-05 </wgt>
<wgt id='morphing_basis_vector_3'> +6.6392109e-05 </wgt>
<wgt id='morphing_basis_vector_4'> +4.6944468e-05 </wgt>
<wgt id='morphing_basis_vector_5'> +7.5168307e-05 </wgt>
</rwgt>
</event>
<event>
 4      1 +7.3133000e-09 2.89987800e+03 7.81860800e-03 7.77798200e-02
        2 -1    0    0  501    0 +0.0000000000e+00 +0.0000000000e+00 +2.0957625553e+03 2.0957625553e+03 0.0000000000e+00 0.0000e+00 1.0000e+00
       -2 -1    0    0    0  501 -0.0000000000e+00 -0.0000000000e+00 -1.0031302765e+03 1.0031302765e+03 0.0000000000e+00 0.0000e+00 -1.0000e+00
      -13  1    1    2    0    0 -4.3191004978e+02 -1.3838690137e+03 +5.1838558340e+02 1.5395984383e+03 0.0000000000e+00 0.0000e+00 1.0000e+00
       13  1    1    2    0    0 +4.3191004978e+02 +1.3838690137e+03 +5.7424669539e+02 1.5592943935e+03 0.0000000000e+00 0.0000e+00 -1.0000e+00
<mgrwt>
<rscale>  0 0.28998778E+04</rscale>
<asrwt>0</asrwt>
<pdfrwt beam="1">  1        2 0.32242501E+00 0.28998778E+04</pdfrwt>
<pdfrwt beam="2">  1       -2 0.15432774E+00 0.28998778E+04</pdfrwt>
<totfact> 0.17005147E+00</totfact>
</mgrwt>
<rwgt>
<wgt id='morphing_basis_vector_1'> +7.3374596e-05 </wgt>
<wgt id='morphing_basis_vector_2'> +5.4982554e-05 </wgt>
<wgt id='morphing_basis_vector_3'> +8.1005576e-05 </wgt>
<wgt id='morphing_basis_vector_4'> +5.0019295e-05 </wgt>
<wgt id='morphing_basis_vector_5'> +8.7384468e-05 </wgt>
</rwgt>
</event>
<event>
 4      1 +7.3133000e-09 2.97992200e+03 7.81860800e-03 7.75728700e-02
        2 -1    0    0  501    0 +0.0000000000e+00 +0.0000000000e+00 +3.2726168526e+03 3.2726168526e+03 0.0000000000e+00 0.0000e+00 -1.0000e+00
       -2 -1    0    0    0  501 -0.0000000000e+00 -0.0000000000e+00 -6.7835131619e+02 6.7835131619e+02 0.0000000000e+00 0.0000e+00 1.0000e+00
      -13  1    1    2    0    0 -5.5264479555e+02 -5.2183558222e+02 +2.9962328255e+03 3.0911389146e+03 0.0000000000e+00 0.0000e+00 -1.0000e+00
       13  1    1    2    0    0 +5.5264479555e+02 +5.2183558222e+02 -4.0196728905e+02 8.5982925421e+02 0.0000000000e+00 0.0000e+00 1.0000e+00
<mgrwt>
<rscale>  0 0.29799221E+04</rscale>
<asrwt>0</asrwt>
<pdfrwt beam="1">  1        2 0.50347951E+00 0.29799221E+04</pdfrwt>
<pdfrwt beam="2">  1       -2 0.10436174E+00 0.29799221E+04</pdfrwt>
<totfact> 0.89315629E-01</totfact>
</mgrwt>
<rwgt>
<wgt id='morphing_basis_vector_1'> +1.0686865e-04 </wgt>
<wgt id='morphing_basis_vector_2'> +1.3530771e-04 </wgt>
<wgt id='morphing_basis_vector_3'> +1.2964094e-04 </wgt>
<wgt id='morphing_basis_vector_4'> +3.5213957e-06 </wgt>
<wgt id='morphing_basis_vector_5'> +9.3239598e-05 </wgt>
</rwgt>
</event>
<event>
 4      1 +7.3133000e-09 2.75776600e+03 7.81860800e-03 7.81644700e-02
        2 -1    0    0  501    0 +0.0000000000e+00 +0.0000000000e+00 +3.2635591602e+03 3.2635591602e+03 0.0000000000e+00 0.0000e+00 -1.0000e+00
       -2 -1    0    0    0  501 -0.0000000000e+00 -0.0000000000e+00 -5.8259059821e+02 5.8259059821e+02 0.0000000000e+00 0.0000e+00 1.0000e+00
      -13  1    1    2    0    0 -1.0926750648e+03 -5.4926725608e+02 +4.5217644550e+02 1.3038776222e+03 0.0000000000e+00 0.0000e+00 1.0000e+00
       13  1    1    2    0    0 +1.0926750648e+03 +5.4926725608e+02 +2.2287921165e+03 2.5422721362e+03 0.0000000000e+00 0.0000e+00 -1.0000e+00
<mgrwt>
<rscale>  0 0.27577664E+04</rscale>
<asrwt>0</asrwt>
<pdfrwt beam="1">  1        2 0.50208601E+00 0.27577664E+04</pdfrwt>
<pdfrwt beam="2">  1       -2 0.89629325E-01 0.27577664E+04</pdfrwt>
<totfact> 0.13282752E+00</totfact>
</mgrwt>
<rwgt>
<wgt id='morphing_basis_vector_1'> +5.8454080e-05 </wgt>
<wgt id='morphing_basis_vector_2'> +4.0055893e-05 </wgt>
<wgt id='morphing_basis_vector_3'> +6.3644080e-05 </wgt>
<wgt id='morphing_basis_vector_4'> +4.4314887e-05 </wgt>
<wgt id='morphing_basis_vector_5'> +7.1616016e-05 </wgt>
</rwgt>
</event>
<event>
 4      1 +7.3133000e-09 2.81133400e+03 7.81860800e-03 7.80167800e-02
        2 -1    0    0  501    0 +0.0000000000e+00 +0.0000000000e+00 +1.4394989558e+03 1.4394989558e+03 0.0000000000e+00 0.0000e+00 1.0000e+00
       -2 -1    0    0    0  501 -0.0000000000e+00 -0.0000000000e+00 -1.3726297082e+03 1.3726297082e+03 0.0000000000e+00 0.0000e+00 -1.0000e+00
      -13  1    1    2    0    0 +5.4860867528e+02 -3.6260676818e+02 -1.2092709307e+03 1.3765141956e+03 0.0000000000e+00 0.0000e+00 -1.0000e+00
       13  1    1    2    0    0 -5.4860867528e+02 +3.6260676818e+02 +1.2761401783e+03 1.4356144683e+03 0.0000000000e+00 0.0000e+00 1.0000e+00
<mgrwt>
<rscale>  0 0.28113335E+04</rscale>
<asrwt>0</asrwt>
<pdfrwt beam="1">  1        2 0.22146138E+00 0.28113335E+04</pdfrwt>
<pdfrwt beam="2">  1       -2 0.21117380E+00 0.28113335E+04</pdfrwt>
<totfact> 0.14774642E+00</totfact>
</mgrwt>
<rwgt>
<wgt id='morphing_basis_vector_1'> +6.2747267e-05 </wgt>
<wgt id='morphing_basis_vector_2'> +4.2268387e-05 </wgt>
<wgt id='morphing_basis_vector_3'> +6.8217069e-05 </wgt>
<wgt id='morphing_basis_vector_4'> +4.8583130e-05 </wgt>
<wgt id='morphing_basis_vector_5'> +7.7461982e-05 </wgt>
</rwgt>
</event>
<event>
 4      1 +7.3133000e-09 2.71965900e+03 7.81860800e-03 7.82716300e-02
        2 -1    0    0  501    0 +0.0000000000e+00 +0.0000000000e+00 +4.1371392905e+03 4.1371392905e+03 0.0000000000e+00 0.0000e+00 1.0000e+00
       -2 -1    0    0    0  501 -0.0000000000e+00 -0.0000000000e+00 -4.4696006391e+02 4.4696006391e+02 0.0000000000e+00 0.0000e+00 -1.0000e+00
      -13  1    1    2    0    0 +5.9307247830e+02 +2.9949715508e+02 +3.8449286437e+03 3.9019110428e+03 0.0000000000e+00 0.0000e+00 1.0000e+00
       13  1    1    2    0    0 -5.9307247830e+02 -2.9949715508e+02 -1.5474941714e+02 6.8218831163e+02 0.0000000000e+00 0.0000e+00 -1.0000e+00
<mgrwt>
<rscale>  0 0.27196588E+04</rscale>
<asrwt>0</asrwt>
<pdfrwt beam="1">  1        2 0.63648294E+00 0.27196588E+04</pdfrwt>
<pdfrwt beam="2">  1       -2 0.68763089E-01 0.27196588E+04</pdfrwt>
<totfact> 0.50495301E-01</totfact>
</mgrwt>
<rwgt>
<wgt id='morphing_basis_vector_1'> +7.4586704e-05 </wgt>
<wgt id='morphing_basis_vector_2'> +9.4685022e-05 </wgt>
<wgt id='morphing_basis_vector_3'> +8.9981083e-05 </wgt>
<wgt id='morphing_basis_vector_4'> +2.0964060e-06 </wgt>
<wgt id='morphing_basis_vector_5'> +6.4450584e-05 </wgt>
</rwgt>
</event>
<event>
 4      1 +7.3133000e-09 2.72958700e+03 7.81860800e-03 7.82435400e-02
        2 -1    0    0  501    0 +0.0000000000e+00 +0.0000000000e+00 +8.2909148447e+02 8.2909148447e+02 0.0000000000e+00 0.0000e+00 1.0000e+00
       -2 -1    0    0    0  501 -0.0000000000e+00 -0.0000000000e+00 -2.2466297631e+03 2.2466297631e+03 0.0000000000e+00 0.0000e+00 -1.0000e+00
      -13  1    1    2    0    0 +7.2375195412e+02 +9.9085746580e+01 -2.0077921781e+03 2.1365543070e+03 0.0000000000e+00 0.0000e+00 -1.0000e+00
       13  1    1    2    0    0 -7.2375195412e+02 -9.9085746580e+01 +5.9025389953e+02 9.3916694053e+02 0.0000000000e+00 0.0000e+00 1.0000e+00
<mgrwt>
<rscale>  0 0.27295872E+04</rscale>
<asrwt>0</asrwt>
<pdfrwt beam="1">  1        2 0.12755254E+00 0.27295872E+04</pdfrwt>
<pdfrwt beam="2">  1       -2 0.34563534E+00 0.27295872E+04</pdfrwt>
<totfact> 0.41957055E-01</totfact>
</mgrwt>
<rwgt>
<wgt id='morphing_basis_vector_1'> +5.5838819e-05 </wgt>
<wgt id='morphing_basis_vector_2'> +3.7603570e-05 </wgt>
<wgt id='morphing_basis_vector_3'> +6.0639370e-05 </wgt>
<wgt id='morphing_basis_vector_4'> +4.3107176e-05 </wgt>
<wgt id='morphing_basis_vector_5'> +6.8752032e-05 </wgt>
</rwgt>
</event>
<event>
 4      1 +7.3133000e-09 2.68246900e+03 7.81860800e-03 7.83779400e-02
        2 -1    0    0  501    0 +0.0000000000e+00 +0.0000000000e+00 +1.4487875323e+03 1.4487875323e+03 0.0000000000e+00 0.0000e+00 1.0000e+00
       -2 -1    0    0    0  501 -0.0000000000e+00 -0.0000000000e+00 -1.2416660652e+03 1.2416660652e+03 0.0000000000e+00 0.0000e+00 -1.0000e+00
      -13  1    1    2    0    0 -8.6427480993e+02 +2.8587996434e+02 -8.8436450030e+02 1.2691725141e+03 0.0000000000e+00 0.0000e+00 -1.0000e+00
       13  1    1    2    0    0 +8.6427480993e+02 -2.8587996434e+02 +1.0914859673e+03 1.4212810834e+03 0.0000000000e+00 0.0000e+00 1.0000e+00
<mgrwt>
<rscale>  0 0.26824692E+04</rscale>
<asrwt>0</asrwt>
<pdfrwt beam="1">  1        2 0.22289039E+00 0.26824692E+04</pdfrwt>
<pdfrwt beam="2">  1       -2 0.19102555E+00 0.26824692E+04</pdfrwt>
<totfact> 0.20704977E+00</totfact>
</mgrwt>
<rwgt>
<wgt id='morphing_basis_vector_1'> +5.2156980e-05 </wgt>
<wgt id='morphing_basis_vector_2'> +3.5186696e-05 </wgt>
<wgt id='morphing_basis_vector_3'> +5.6616200e-05 </wgt>
<wgt id='morphing_basis_vector_4'> +4.0105785e-05 </wgt>
<wgt id='morphing_basis_vector_5'> +6.4071824e-05 </wgt>
</rwgt>
</event>
<event>
 4      1 +7.3133000e-09 2.94613300e+03 7.81860800e-03 7.76594200e-02
        2 -1    0    0  501    0 +0.0000000000e+00 +0.0000000000e+00 +1.3142336271e+03 1.3142336271e+03 0.0000000000e+00 0.0000e+00 1.0000e+00
       -2 -1    0    0    0  501 -0.0000000000e+00 -0.0000000000e+00 -1.6510949565e+03 1.6510949565e+03 0.0000000000e+00 0.0000e+00 -1.0000e+00
      -13  1    1    2    0    0 -1.4435051132e+03 -1.6675977779e+02 +7.4822894548e+01 1.4550306873e+03 0.0000000000e+00 0.0000e+00 1.0000e+00
       13  1    1    2    0    0 +1.4435051132e+03 +1.6675977779e+02 -4.1168422400e+02 1.5102978963e+03 0.0000000000e+00 0.0000e+00 -1.0000e+00
<mgrwt>
<rscale>  0 0.29461327E+04</rscale>
<asrwt>0</asrwt>
<pdfrwt beam="1">  1        2 0.20218979E+00 0.29461327E+04</pdfrwt>
<pdfrwt beam="2">  1       -2 0.25401461E+00 0.29461327E+04</pdfrwt>
<totfact> 0.86062759E-01</totfact>
</mgrwt>
<rwgt>
<wgt id='morphing_basis_vector_1'> +8.0444085e-05 </wgt>
<wgt id='morphing_basis_vector_2'> +6.5397157e-05 </wgt>
<wgt id='morphing_basis_vector_3'> +8.9927393e-05 </wgt>
<wgt id='morphing_basis_vector_4'> +4.8490074e-05 </wgt>
<wgt id='morphing_basis_vector_5'> +9.2752859e-05 </wgt>
</rwgt>
</event>
<event>
 4      1 +7.3133000e-09 2.99071200e+03 7.81860800e-03 7.75454900e-02
        2 -1    0    0  501    0 +0.0000000000e+00 +0.0000000000e+00 +1.4161339194e+03 1.4161339194e+03 0.0000000000e+00 0.0000e+00 1.0000e+00
       -2 -1    0    0    0  501 -0.0000000000e+00 -0.0000000000e+00 -1.5790098493e+03 1.5790098493e+03 0.0000000000e+00 0.0000e+00 -1.0000e+00
      -13  1    1    2    0    0 -2.2503314310e+02 -2.0741162383e+02 -1.5473111729e+03 1.5772860752e+03 0.0000000000e+00 0.0000e+00 -1.0000e+00
       13  1    1    2    0    0 +2.2503314310e+02 +2.0741162383e+02 +1.3844352430e+03 1.4178576936e+03 0.0000000000e+00 0.0000e+00 1.0000e+00
<mgrwt>
<rscale>  0 0.29907119E+04</rscale>
<asrwt>0</asrwt>
<pdfrwt beam="1">  1        2 0.21786676E+00 0.29907119E+04</pdfrwt>
<pdfrwt beam="2">  1       -2 0.24292459E+00 0.29907119E+04</pdfrwt>
<totfact> 0.89578248E-01</totfact>
</mgrwt>
<rwgt>
<wgt id='morphing_basis_vector_1'> +8.0155691e-05 </wgt>
<wgt id='morphing_basis_vector_2'> +5.4045276e-05 </wgt>
<wgt id='morphing_basis_vector_3'> +8.7331613e-05 </wgt>
<wgt id='morphing_basis_vector_4'> +6.2388157e-05 </wgt>
<wgt id='morphing_basis_vector_5'> +9.9441286e-05 </wgt>
</rwgt>
</event>
<event>
 4      1 +7.3133000e-09 2.75533100e+03 7.81860800e-03 7.81712700e-02
        2 -1    0    0  501    0 +0.0000000000e+00 +0.0000000000e+00 +1.9711108616e+03 1.9711108616e+03 0.0000000000e+00 0.0000e+00 -1.0000e+00
       -2 -1    0    0    0  501 -0.0000000000e+00 -0.0000000000e+00 -9.6288973366e+02 9.6288973366e+02 0.0000000000e+00 0.0000e+00 1.0000e+00
      -13  1    1    2    0    0 -6.4321995401e+02 -1.1466147761e+03 +9.4251781656e+02 1.6176517513e+03 0.0000000000e+00 0.0000e+00 1.0000e+00
       13  1    1    2    0    0 +6.4321995401e+02 +1.1466147761e+03 +6.5703311410e+01 1.3163488440e+03 0.0000000000e+00 0.0000e+00 -1.0000e+00
<mgrwt>
<rscale>  0 0.27553311E+04</rscale>
<asrwt>0</asrwt>
<pdfrwt beam="1">  1        2 0.30324782E+00 0.27553311E+04</pdfrwt>
<pdfrwt beam="2">  1       -2 0.14813688E+00 0.27553311E+04</pdfrwt>
<totfact> 0.22765230E+00</totfact>
</mgrwt>
<rwgt>
<wgt id='morphing_basis_vector_1'> +6.3815430e-05 </wgt>
<wgt id='morphing_basis_vector_2'> +5.6319175e-05 </wgt>
<wgt id='morphing_basis_vector_3'> +7.2038799e-05 </wgt>
<wgt id='morphing_basis_vector_4'> +3.2647000e-05 </wgt>
<wgt id='morphing_basis_vector_5'> +7.0420327e-05 </wgt>
</rwgt>
</event>
<event>
 4      1 +7.3133000e-09 2.96119100e+03 7.81860800e-03 7.76207000e-02
        2 -1    0    0  501    0 +0.0000000000e+00 +0.0000000000e+00 +4.1562939693e+03 4.1562939693e+03 0.0000000000e+00 0.0000e+00 -1.0000e+00
       -2 -1    0    0    0  501 -0.0000000000e+00 -0.0000000000e+00 -5.2743214798e+02 5.2743214798e+02 0.0000000000e+00 0.0000e+00 1.0000e+00
      -13  1    1    2    0    0 -2.8864993451e+02 +6.7669504819e+02 -2.1787530912e+02 7.6727089301e+02 0.0000000000e+00 0.0000e+00 1.0000e+00
       13  1    1    2    0    0 +2.8864993451e+02 -6.7669504819e+02 +3.8467371304e+03 3.9164552242e+03 0.0000000000e+00 0.0000e+00 -1.0000e+00
<mgrwt>
<rscale>  0 0.29611910E+04</rscale>
<asrwt>0</asrwt>
<pdfrwt beam="1">  1        2 0.63942982E+00 0.29611910E+04</pdfrwt>
<pdfrwt beam="2">  1       -2 0.81143410E-01 0.29611910E+04</pdfrwt>
<totfact> 0.32956440E-01</totfact>
</mgrwt>
<rwgt>
<wgt id='morphing_basis_vector_1'> +7.7080987e-05 </wgt>
<wgt id='morphing_basis_vector_2'> +5.1995682e-05 </wgt>
<wgt id='morphing_basis_vector_3'> +8.3960449e-05 </wgt>
<wgt id='morphing_basis_vector_4'> +5.9908272e-05 </wgt>
<wgt id='morphing_basis_vector_5'> +9.5535988e-05 </wgt>
</rwgt>
</event>
<event>
 4      1 +7.3133000e-09 3.14670700e+03 7.81860800e-03 7.71624100e-02
        2 -1    0    0  501    0 +0.0000000000e+00 +0.0000000000e+00 +1.2253551949e+03 1.2253551949e+03 0.0000000000e+00 0.0000e+00 -1.0000e+00
       -2 -1    0    0    0  501 -0.0000000000e+00 -0.0000000000e+00 -2.0201830669e+03 2.0201830669e+03 0.0000000000e+00 0.0000e+00 1.0000e+00
      -13  1    1    2    0    0 -2.8024606590e+02 -1.5481434190e+03 -4.1029259240e+02 1.6259230962e+03 0.0000000000e+00 0.0000e+00 1.0000e+00
       13  1    1    2    0    0 +2.8024606590e+02 +1.5481434190e+03 -3.8453527958e+02 1.6196151656e+03 0.0000000000e+00 0.0000e+00 -1.0000e+00
<mgrwt>
<rscale>  0 0.31467074E+04</rscale>
<asrwt>0</asrwt>
<pdfrwt beam="1">  1        2 0.18851619E+00 0.31467074E+04</pdfrwt>
<pdfrwt beam="2">  1       -2 0.31079739E+00 0.31467074E+04</pdfrwt>
<totfact> 0.39127369E-01</totfact>
</mgrwt>
<rwgt>
<wgt id='morphing_basis_vector_1'> +1.0156078e-04 </wgt>
<wgt id='morphing_basis_vector_2'> +7.6492205e-05 </wgt>
<wgt id='morphing_basis_vector_3'> +1.1252164e-04 </wgt>
<wgt id='morphing_basis_vector_4'> +6.9275716e-05 </wgt>
<wgt id='morphing_basis_vector_5'> +1.2147672e-04 </wgt>
</rwgt>
</event>
<event>
 4      1 +7.3133000e-09 2.86745000e+03 7.81860800e-03 7.78656000e-02
        2 -1    0    0  501    0 +0.0000000000e+00 +0.0000000000e+00 +1.8661320284e+03 1.8661320284e+03 0.0000000000e+00 0.0000e+00 1.0000e+00
       -2 -1    0    0    0  501 -0.0000000000e+00 -0.0000000000e+00 -1.1015123316e+03 1.1015123316e+03 0.0000000000e+00 0.0000e+00 -1.0000e+00
      -13  1    1    2    0    0 +3.8004881525e+02 +1.3705628438e+03 +1.9519465855e+02 1.4356115650e+03 0.0000000000e+00 0.0000e+00 -1.0000e+00
       13  1    1    2    0    0 -3.8004881525e+02 -1.3705628438e+03 +5.6942503820e+02 1.5320327950e+03 0.0000000000e+00 0.0000e+00 1.0000e+00
<mgrwt>
<rscale>  0 0.28674500E+04</rscale>
<asrwt>0</asrwt>
<pdfrwt beam="1">  1        2 0.28709724E+00 0.28674500E+04</pdfrwt>
<pdfrwt beam="2">  1       -2 0.16946344E+00 0.28674500E+04</pdfrwt>
<totfact> 0.17391987E+00</totfact>
</mgrwt>
<rwgt>
<wgt id='morphing_basis_vector_1'> +6.9405967e-05 </wgt>
<wgt id='morphing_basis_vector_2'> +5.0300822e-05 </wgt>
<wgt id='morphing_basis_vector_3'> +7.6239321e-05 </wgt>
<wgt id='morphing_basis_vector_4'> +4.9401517e-05 </wgt>
<wgt id='morphing_basis_vector_5'> +8.3636395e-05 </wgt>
</rwgt>
</event>
<event>
 4      1 +7.3133000e-09 3.15738800e+03 7.81860800e-03 7.71370300e-02
        2 -1    0    0  501    0 +0.0000000000e+00 +0.0000000000e+00 +1.1505696241e+03 1.1505696241e+03 0.0000000000e+00 0.0000e+00 1.0000e+00
       -2 -1    0    0    0  501 -0.0000000000e+00 -0.0000000000e+00 -2.1661228100e+03 2.1661228100e+03 0.0000000000e+00 0.0000e+00 -1.0000e+00
      -13  1    1    2    0    0 +4.3024415146e+00 -1.5659269290e+03 -2.9734603090e+02 1.5939135234e+03 0.0000000000e+00 0.0000e+00 -1.0000e+00
       13  1    1    2    0    0 -4.3024415146e+00 +1.5659269290e+03 -7.1820715497e+02 1.7227789108e+03 0.0000000000e+00 0.0000e+00 1.0000e+00
<mgrwt>
<rscale>  0 0.31573882E+04</rscale>
<asrwt>0</asrwt>
<pdfrwt beam="1">  1        2 0.17701071E+00 0.31573882E+04</pdfrwt>
<pdfrwt beam="2">  1       -2 0.33324966E+00 0.31573882E+04</pdfrwt>
<totfact> 0.30661609E-01</totfact>
</mgrwt>
<rwgt>
<wgt id='morphing_basis_vector_1'> +1.0509302e-04 </wgt>
<wgt id='morphing_basis_vector_2'> +8.3883802e-05 </wgt>
<wgt id='morphing_basis_vector_3'> +1.1745371e-04 </wgt>
<wgt id='morphing_basis_vector_4'> +6.5720030e-05 </wgt>
<wgt id='morphing_basis_vector_5'> +1.2277606e-04 </wgt>
</rwgt>
</event>
<event>
 4      1 +7.3133000e-09 2.79365400e+03 7.81860800e-03 7.80651600e-02
        2 -1    0    0  501    0 +0.0000000000e+00 +0.0000000000e+00 +1.3895053387e+03 1.3895053387e+03 0.0000000000e+00 0.0000e+00 -1.0000e+00
       -2 -1    0    0    0  501 -0.0000000000e+00 -0.0000000000e+00 -1.4041867583e+03 1.4041867583e+03 0.0000000000e+00 0.0000e+00 1.0000e+00
      -13  1    1    2    0    0 +2.6771529480e+02 +4.4009464127e+02 -1.3057307830e+03 1.4036693521e+03 0.0000000000e+00 0.0000e+00 1.0000e+00
       13  1    1    2    0    0 -2.6771529480e+02 -4.4009464127e+02 +1.2910493634e+03 1.3900227448e+03 0.0000000000e+00 0.0000e+00 -1.0000e+00
<mgrwt>
<rscale>  0 0.27936535E+04</rscale>
<asrwt>0</asrwt>
<pdfrwt beam="1">  1        2 0.21377005E+00 0.27936535E+04</pdfrwt>
<pdfrwt beam="2">  1       -2 0.21602873E+00 0.27936535E+04</pdfrwt>
<totfact> 0.14574115E+00</totfact>
</mgrwt>
<rwgt>
<wgt id='morphing_basis_vector_1'> +6.1193557e-05 </wgt>
<wgt id='morphing_basis_vector_2'> +4.1201346e-05 </wgt>
<wgt id='morphing_basis_vector_3'> +6.6508915e-05 </wgt>
<wgt id='morphing_basis_vector_4'> +4.7373402e-05 </wgt>
<wgt id='morphing_basis_vector_5'> +7.5513375e-05 </wgt>
</rwgt>
</event>
<event>
 4      1 +7.3133000e-09 2.71066000e+03 7.81860800e-03 7.82972000e-02
        2 -1    0    0  501    0 +0.0000000000e+00 +0.0000000000e+00 +2.9807962520e+03 2.9807962520e+03 0.0000000000e+00 0.0000e+00 1.0000e+00
       -2 -1    0    0    0  501 -0.0000000000e+00 -0.0000000000e+00 -6.1625121053e+02 6.1625121053e+02 0.0000000000e+00 0.0000e+00 -1.0000e+00
      -13  1    1    2    0    0 -7.1224916737e+02 +5.1157421840e+02 -1.8904781581e+02 8.9707643711e+02 0.0000000000e+00 0.0000e+00 -1.0000e+00
       13  1    1    2    0    0 +7.1224916737e+02 -5.1157421840e+02 +2.5535928573e+03 2.6999710254e+03 0.0000000000e+00 0.0000e+00 1.0000e+00
<mgrwt>
<rscale>  0 0.27106599E+04</rscale>
<asrwt>0</asrwt>
<pdfrwt beam="1">  1        2 0.45858403E+00 0.27106599E+04</pdfrwt>
<pdfrwt beam="2">  1       -2 0.94807880E-01 0.27106599E+04</pdfrwt>
<totfact> 0.18059461E+00</totfact>
</mgrwt>
<rwgt>
<wgt id='morphing_basis_vector_1'> +5.4347170e-05 </wgt>
<wgt id='morphing_basis_vector_2'> +3.6647957e-05 </wgt>
<wgt id='morphing_basis_vector_3'> +5.9013954e-05 </wgt>
<wgt id='morphing_basis_vector_4'> +4.1861206e-05 </wgt>
<wgt id='morphing_basis_vector_5'> +6.6840626e-05 </wgt>
</rwgt>
</event>
<event>
 4      1 +7.3133000e-09 2.79051000e+03 7.81860800e-03 7.80738000e-02
        2 -1    0    0  501    0 +0.0000000000e+00 +0.0000000000e+00 +2.9343988767e+03 2.9343988767e+03 0.0000000000e+00 0.0000e+00 -1.0000e+00
       -2 -1    0    0    0  501 -0.0000000000e+00 -0.0000000000e+00 -6.6341908025e+02 6.6341908025e+02 0.0000000000e+00 0.0000e+00 1.0000e+00
      -13  1    1    2    0    0 +8.3883802921e+02 +1.6197551326e+02 -2.8675478852e+02 9.0117346548e+02 0.0000000000e+00 0.0000e+00 1.0000e+00
       13  1    1    2    0    0 -8.3883802921e+02 -1.6197551326e+02 +2.5577345850e+03 2.6966444915e+03 0.0000000000e+00 0.0000e+00 -1.0000e+00
<mgrwt>
<rscale>  0 0.27905098E+04</rscale>
<asrwt>0</asrwt>
<pdfrwt beam="1">  1        2 0.45144597E+00 0.27905098E+04</pdfrwt>
<pdfrwt beam="2">  1       -2 0.10206448E+00 0.27905098E+04</pdfrwt>
<totfact> 0.16102312E+00</totfact>
</mgrwt>
<rwgt>
<wgt id='morphing_basis_vector_1'> +6.0952019e-05 </wgt>
<wgt id='morphing_basis_vector_2'> +4.1107090e-05 </wgt>
<wgt id='morphing_basis_vector_3'> +6.6257710e-05 </wgt>
<wgt id='morphing_basis_vector_4'> +4.7095104e-05 </wgt>
<wgt id='morphing_basis_vector_5'> +7.5165398e-05 </wgt>
</rwgt>
</event>
<event>
 4      1 +7.3133000e-09 2.83786500e+03 7.81860800e-03 7.79448600e-02
        2 -1    0    0  501    0 +0.0000000000e+00 +0.0000000000e+00 +1.1989305223e+03 1.1989305223e+03 0.0000000000e+00 0.0000e+00 -1.0000e+00
       -2 -1    0    0    0  501 -0.0000000000e+00 -0.0000000000e+00 -1.6793045479e+03 1.6793045479e+03 0.0000000000e+00 0.0000e+00 1.0000e+00
      -13  1    1    2    0    0 +1.0733619156e+02 +3.8220279002e+02 -1.6218322200e+03 1.6697124844e+03 0.0000000000e+00 0.0000e+00 1.0000e+00
       13  1    1    2    0    0 -1.0733619156e+02 -3.8220279002e+02 +1.1414581944e+03 1.2085225858e+03 0.0000000000e+00 0.0000e+00 -1.0000e+00
<mgrwt>
<rscale>  0 0.28378650E+04</rscale>
<asrwt>0</asrwt>
<pdfrwt beam="1">  1        2 0.18445085E+00 0.28378650E+04</pdfrwt>
<pdfrwt beam="2">  1       -2 0.25835455E+00 0.28378650E+04</pdfrwt>
<totfact> 0.94500058E-01</totfact>
</mgrwt>
<rwgt>
<wgt id='morphing_basis_vector_1'> +6.5115661e-05 </wgt>
<wgt id='morphing_basis_vector_2'> +4.3853417e-05 </wgt>
<wgt id='morphing_basis_vector_3'> +7.0812919e-05 </wgt>
<wgt id='morphing_basis_vector_4'> +5.0480327e-05 </wgt>
<wgt id='morphing_basis_vector_5'> +8.0459545e-05 </wgt>
</rwgt>
</event>
<event>
 4      1 +7.3133000e-09 2.92086200e+03 7.81860800e-03 7.77249200e-02
        2 -1    0    0  501    0 +0.0000000000e+00 +0.0000000000e+00 +2.6914301238e+03 2.6914301238e+03 0.0000000000e+00 0.0000e+00 -1.0000e+00
       -2 -1    0    0    0  501 -0.0000000000e+00 -0.0000000000e+00 -7.9246291255e+02 7.9246291255e+02 0.0000000000e+00 0.0000e+00 1.0000e+00
      -13  1    1    2    0    0 -1.5606874186e+02 -4.3653798363e+02 -7.0236716389e+02 8.4157144453e+02 0.0000000000e+00 0.0000e+00 1.0000e+00
       13  1    1    2    0    0 +1.5606874186e+02 +4.3653798363e+02 +2.6013343751e+03 2.6423215918e+03 0.0000000000e+00 0.0000e+00 -1.0000e+00
<mgrwt>
<rscale>  0 0.29208619E+04</rscale>
<asrwt>0</asrwt>
<pdfrwt beam="1">  1        2 0.41406617E+00 0.29208619E+04</pdfrwt>
<pdfrwt beam="2">  1       -2 0.12191737E+00 0.29208619E+04</pdfrwt>
<totfact> 0.14454770E+00</totfact>
</mgrwt>
<rwgt>
<wgt id='morphing_basis_vector_1'> +7.2991868e-05 </wgt>
<wgt id='morphing_basis_vector_2'> +4.9193061e-05 </wgt>
<wgt id='morphing_basis_vector_3'> +7.9462179e-05 </wgt>
<wgt id='morphing_basis_vector_4'> +5.6709387e-05 </wgt>
<wgt id='morphing_basis_vector_5'> +9.0393289e-05 </wgt>
</rwgt>
</event>
<event>
 4      1 +7.3133000e-09 2.73761300e+03 7.81860800e-03 7.82209200e-02
        2 -1    0    0  501    0 +0.0000000000e+00 +0.0000000000e+00 +1.5513054292e+03 1.5513054292e+03 0.0000000000e+00 0.0000e+00 -1.0000e+00
       -2 -1    0    0    0  501 -0.0000000000e+00 -0.0000000000e+00 -1.2077775127e+03 1.2077775127e+03 0.0000000000e+00 0.0000e+00 1.0000e+00
      -13  1    1    2    0    0 -1.2835989818e+03 -3.3071027140e+01 -3.0620394100e+02 1.3200306407e+03 0.0000000000e+00 0.0000e+00 1.0000e+00
       13  1    1    2    0    0 +1.2835989818e+03 +3.3071027140e+01 +6.4973185745e+02 1.4390523012e+03 0.0000000000e+00 0.0000e+00 -1.0000e+00
<mgrwt>
<rscale>  0 0.27376134E+04</rscale>
<asrwt>0</asrwt>
<pdfrwt beam="1">  1        2 0.23866237E+00 0.27376134E+04</pdfrwt>
<pdfrwt beam="2">  1       -2 0.18581193E+00 0.27376134E+04</pdfrwt>
<totfact> 0.19748676E+00</totfact>
</mgrwt>
<rwgt>
<wgt id='morphing_basis_vector_1'> +5.7003224e-05 </wgt>
<wgt id='morphing_basis_vector_2'> +3.9554995e-05 </wgt>
<wgt id='morphing_basis_vector_3'> +6.2147371e-05 </wgt>
<wgt id='morphing_basis_vector_4'> +4.2563500e-05 </wgt>
<wgt id='morphing_basis_vector_5'> +6.9486564e-05 </wgt>
</rwgt>
</event>
<event>
 4      1 +7.3133000e-09 2.68549000e+03 7.81860800e-03 7.83692400e-02
        2 -1    0    0  501    0 +0.0000000000e+00 +0.0000000000e+00 +1.8015621839e+03 1.8015621839e+03 0.0000000000e+00 0.0000e+00 -1.0000e+00
       -2 -1    0    0    0  501 -0.0000000000e+00 -0.0000000000e+00 -1.0007778398e+03 1.0007778398e+03 0.0000000000e+00 0.0000e+00 1.0000e+00
      -13  1    1    2    0    0 +1.0226293558e+03 +3.9791290950e+02 -4.0713901354e+02 1.1704134565e+03 0.0000000000e+00 0.0000e+00 1.0000e+00
       13  1    1    2    0    0 -1.0226293558e+03 -3.9791290950e+02 +1.2079233576e+03 1.6319265672e+03 0.0000000000e+00 0.0000e+00 -1.0000e+00
<mgrwt>
<rscale>  0 0.26854895E+04</rscale>
<asrwt>0</asrwt>
<pdfrwt beam="1">  1        2 0.27716341E+00 0.26854895E+04</pdfrwt>
<pdfrwt beam="2">  1       -2 0.15396582E+00 0.26854895E+04</pdfrwt>
<totfact> 0.25505624E+00</totfact>
</mgrwt>
<rwgt>
<wgt id='morphing_basis_vector_1'> +5.2492523e-05 </wgt>
<wgt id='morphing_basis_vector_2'> +3.5648120e-05 </wgt>
<wgt id='morphing_basis_vector_3'> +5.7030218e-05 </wgt>
<wgt id='morphing_basis_vector_4'> +4.0076313e-05 </wgt>
<wgt id='morphing_basis_vector_5'> +6.4346772e-05 </wgt>
</rwgt>
</event>
<event>
 4      1 +7.3133000e-09 3.18027500e+03 7.81860800e-03 7.70829800e-02
        2 -1    0    0  501    0 +0.0000000000e+00 +0.0000000000e+00 +1.8963059267e+03 1.8963059267e+03 0.0000000000e+00 0.0000e+00 -1.0000e+00
       -2 -1    0    0    0  501 -0.0000000000e+00 -0.0000000000e+00 -1.3334018782e+03 1.3334018782e+03 0.0000000000e+00 0.0000e+00 1.0000e+00
      -13  1    1    2    0    0 +6.4255785790e+02 -1.2816082879e+03 -4.1708942537e+02 1.4931054863e+03 0.0000000000e+00 0.0000e+00 1.0000e+00
       13  1    1    2    0    0 -6.4255785790e+02 +1.2816082879e+03 +9.7999347378e+02 1.7366023186e+03 0.0000000000e+00 0.0000e+00 -1.0000e+00
<mgrwt>
<rscale>  0 0.31802754E+04</rscale>
<asrwt>0</asrwt>
<pdfrwt beam="1">  1        2 0.29173937E+00 0.31802754E+04</pdfrwt>
<pdfrwt beam="2">  1       -2 0.20513875E+00 0.31802754E+04</pdfrwt>
<totfact> 0.88045125E-01</totfact>
</mgrwt>
<rwgt>
<wgt id='morphing_basis_vector_1'> +1.0291955e-04 </wgt>
<wgt id='morphing_basis_vector_2'> +7.0939953e-05 </wgt>
<wgt id='morphing_basis_vector_3'> +1.1266412e-04 </wgt>
<wgt id='morphing_basis_vector_4'> +7.8590922e-05 </wgt>
<wgt id='morphing_basis_vector_5'> +1.2730476e-04 </wgt>
</rwgt>
</event>
<event>
 4      1 +7.3133000e-09 2.73318600e+03 7.81860800e-03 7.82333900e-02
        2 -1    0    0  501    0 +0.0000000000e+00 +0.0000000000e+00 +1.2860274238e+03 1.2860274238e+03 0.0000000000e+00 0.0000e+00 -1.0000e+00
       -2 -1    0    0    0  501 -0.0000000000e+00 -0.0000000000e+00 -1.4522053089e+03 1.4522053089e+03 0.0000000000e+00 0.0000e+00 1.0000e+00
      -13  1    1    2    0    0 -3.9581282014e+02 +5.6963920454e+02 -1.2627263214e+03 1.4407062069e+03 0.0000000000e+00 0.0000e+00 1.0000e+00
       13  1    1    2    0    0 +3.9581282014e+02 -5.6963920454e+02 +1.0965484363e+03 1.2975265258e+03 0.0000000000e+00 0.0000e+00 -1.0000e+00
<mgrwt>
<rscale>  0 0.27331856E+04</rscale>
<asrwt>0</asrwt>
<pdfrwt beam="1">  1        2 0.19785037E+00 0.27331856E+04</pdfrwt>
<pdfrwt beam="2">  1       -2 0.22341620E+00 0.27331856E+04</pdfrwt>
<totfact> 0.14870292E+00</totfact>
</mgrwt>
<rwgt>
<wgt id='morphing_basis_vector_1'> +5.6127050e-05 </wgt>
<wgt id='morphing_basis_vector_2'> +3.7790860e-05 </wgt>
<wgt id='morphing_basis_vector_3'> +6.0953987e-05 </wgt>
<wgt id='morphing_basis_vector_4'> +4.3344678e-05 </wgt>
<wgt id='morphing_basis_vector_5'> +6.9119788e-05 </wgt>
</rwgt>
</event>
<event>
 4      1 +7.3133000e-09 3.03600600e+03 7.81860800e-03 7.74318100e-02
        2 -1    0    0  501    0 +0.0000000000e+00 +0.0000000000e+00 +2.7020569268e+03 2.7020569268e+03 0.0000000000e+00 0.0000e+00 1.0000e+00
       -2 -1    0    0    0  501 -0.0000000000e+00 -0.0000000000e+00 -8.5280688255e+02 8.5280688255e+02 0.0000000000e+00 0.0000e+00 -1.0000e+00
      -13  1    1    2    0    0 -9.1971785930e+02 -8.9483695045e+02 +1.8742244613e+03 2.2714161750e+03 0.0000000000e+00 0.0000e+00 -1.0000e+00
       13  1    1    2    0    0 +9.1971785930e+02 +8.9483695045e+02 -2.4974417065e+01 1.2834476343e+03 0.0000000000e+00 0.0000e+00 1.0000e+00
<mgrwt>
<rscale>  0 0.30360058E+04</rscale>
<asrwt>0</asrwt>
<pdfrwt beam="1">  1        2 0.41570106E+00 0.30360058E+04</pdfrwt>
<pdfrwt beam="2">  1       -2 0.13120106E+00 0.30360058E+04</pdfrwt>
<totfact> 0.11614824E+00</totfact>
</mgrwt>
<rwgt>
<wgt id='morphing_basis_vector_1'> +1.0223495e-04 </wgt>
<wgt id='morphing_basis_vector_2'> +1.0790939e-04 </wgt>
<wgt id='morphing_basis_vector_3'> +1.1963183e-04 </wgt>
<wgt id='morphing_basis_vector_4'> +3.0533566e-05 </wgt>
<wgt id='morphing_basis_vector_5'> +1.0271869e-04 </wgt>
</rwgt>
</event>
<event>
 4      1 +7.3133000e-09 2.86562400e+03 7.81860800e-03 7.78704600e-02
        2 -1    0    0  501    0 +0.0000000000e+00 +0.0000000000e+00 +2.3597880679e+03 2.3597880679e+03 0.0000000000e+00 0.0000e+00 -1.0000e+00
       -2 -1    0    0    0  501 -0.0000000000e+00 -0.0000000000e+00 -8.6997217644e+02 8.6997217644e+02 0.0000000000e+00 0.0000e+00 1.0000e+00
      -13  1    1    2    0    0 -2.5770715827e+02 +1.4073952841e+03 +8.3056157283e+02 1.6543902174e+03 0.0000000000e+00 0.0000e+00 1.0000e+00
       13  1    1    2    0    0 +2.5770715827e+02 -1.4073952841e+03 +6.5925431866e+02 1.5753700270e+03 0.0000000000e+00 0.0000e+00 -1.0000e+00
<mgrwt>
<rscale>  0 0.28656238E+04</rscale>
<asrwt>0</asrwt>
<pdfrwt beam="1">  1        2 0.36304432E+00 0.28656238E+04</pdfrwt>
<pdfrwt beam="2">  1       -2 0.13384187E+00 0.28656238E+04</pdfrwt>
<totfact> 0.17919010E+00</totfact>
</mgrwt>
<rwgt>
<wgt id='morphing_basis_vector_1'> +7.0675416e-05 </wgt>
<wgt id='morphing_basis_vector_2'> +5.4428969e-05 </wgt>
<wgt id='morphing_basis_vector_3'> +7.8293633e-05 </wgt>
<wgt id='morphing_basis_vector_4'> +4.6277797e-05 </wgt>
<wgt id='morphing_basis_vector_5'> +8.3175932e-05 </wgt>
</rwgt>
</event>
<event>
 4      1 +7.3133000e-09 2.67828000e+03 7.81860800e-03 7.83900300e-02
        2 -1    0    0  501    0 +0.0000000000e+00 +0.0000000000e+00 +1.2826801812e+03 1.2826801812e+03 0.0000000000e+00 0.0000e+00 1.0000e+00
       -2 -1    0    0    0  501 -0.0000000000e+00 -0.0000000000e+00 -1.3980850058e+03 1.3980850058e+03 0.0000000000e+00 0.0000e+00 -1.0000e+00
      -13  1    1    2    0    0 +4.5236261622e+02 +1.1096724995e+03 -6.5599524110e+02 1.3661386273e+03 0.0000000000e+00 0.0000e+00 -1.0000e+00
       13  1    1    2    0    0 -4.5236261622e+02 -1.1096724995e+03 +5.4059041655e+02 1.3146265596e+03 0.0000000000e+00 0.0000e+00 1.0000e+00
<mgrwt>
<rscale>  0 0.26782800E+04</rscale>
<asrwt>0</asrwt>
<pdfrwt beam="1">  1        2 0.19733541E+00 0.26782800E+04</pdfrwt>
<pdfrwt beam="2">  1       -2 0.21509000E+00 0.26782800E+04</pdfrwt>
<totfact> 0.17193936E+00</totfact>
</mgrwt>
<rwgt>
<wgt id='morphing_basis_vector_1'> +5.2090394e-05 </wgt>
<wgt id='morphing_basis_vector_2'> +3.5719652e-05 </wgt>
<wgt id='morphing_basis_vector_3'> +5.6656681e-05 </wgt>
<wgt id='morphing_basis_vector_4'> +3.9327509e-05 </wgt>
<wgt id='morphing_basis_vector_5'> +6.3625234e-05 </wgt>
</rwgt>
</event>
<event>
 4      1 +7.3133000e-09 2.97944600e+03 7.81860800e-03 7.75740800e-02
        2 -1    0    0  501    0 +0.0000000000e+00 +0.0000000000e+00 +2.3096735848e+03 2.3096735848e+03 0.0000000000e+00 0.0000e+00 -1.0000e+00
       -2 -1    0    0    0  501 -0.0000000000e+00 -0.0000000000e+00 -9.6086085489e+02 9.6086085489e+02 0.0000000000e+00 0.0000e+00 1.0000e+00
      -13  1    1    2    0    0 +9.7870378265e+02 +5.3004781915e+02 -4.1251672539e+02 1.1870054058e+03 0.0000000000e+00 0.0000e+00 1.0000e+00
       13  1    1    2    0    0 -9.7870378265e+02 -5.3004781915e+02 +1.7613294553e+03 2.0835290338e+03 0.0000000000e+00 0.0000e+00 -1.0000e+00
<mgrwt>
<rscale>  0 0.29794462E+04</rscale>
<asrwt>0</asrwt>
<pdfrwt beam="1">  1        2 0.35533440E+00 0.29794462E+04</pdfrwt>
<pdfrwt beam="2">  1       -2 0.14782475E+00 0.29794462E+04</pdfrwt>
<totfact> 0.14405459E+00</totfact>
</mgrwt>
<rwgt>
<wgt id='morphing_basis_vector_1'> +7.9095335e-05 </wgt>
<wgt id='morphing_basis_vector_2'> +5.3620389e-05 </wgt>
<wgt id='morphing_basis_vector_3'> +8.6226813e-05 </wgt>
<wgt id='morphing_basis_vector_4'> +6.1175507e-05 </wgt>
<wgt id='morphing_basis_vector_5'> +9.7915995e-05 </wgt>
</rwgt>
</event>
<event>
 4      1 +7.3133000e-09 2.91238600e+03 7.81860800e-03 7.77470400e-02
        2 -1    0    0  501    0 +0.0000000000e+00 +0.0000000000e+00 +1.7042318398e+03 1.7042318398e+03 0.0000000000e+00 0.0000e+00 1.0000e+00
       -2 -1    0    0    0  501 -0.0000000000e+00 -0.0000000000e+00 -1.2442546481e+03 1.2442546481e+03 0.0000000000e+00 0.0000e+00 -1.0000e+00
      -13  1    1    2    0    0 +9.6415167797e+02 +9.6090536833e+02 +7.5367287172e+02 1.5559403532e+03 0.0000000000e+00 0.0000e+00 1.0000e+00
       13  1    1    2    0    0 -9.6415167797e+02 -9.6090536833e+02 -2.9369568002e+02 1.3925461348e+03 0.0000000000e+00 0.0000e+00 -1.0000e+00
<mgrwt>
<rscale>  0 0.29123862E+04</rscale>
<asrwt>0</asrwt>
<pdfrwt beam="1">  1        2 0.26218951E+00 0.29123862E+04</pdfrwt>
<pdfrwt beam="2">  1       -2 0.19142379E+00 0.29123862E+04</pdfrwt>
<totfact> 0.14522753E+00</totfact>
</mgrwt>
<rwgt>
<wgt id='morphing_basis_vector_1'> +8.0897866e-05 </wgt>
<wgt id='morphing_basis_vector_2'> +7.4378417e-05 </wgt>
<wgt id='morphing_basis_vector_3'> +9.2179149e-05 </wgt>
<wgt id='morphing_basis_vector_4'> +3.7887799e-05 </wgt>
<wgt id='morphing_basis_vector_5'> +8.7849273e-05 </wgt>
</rwgt>
</event>
<event>
 4      1 +7.3133000e-09 2.73108900e+03 7.81860800e-03 7.82393000e-02
        2 -1    0    0  501    0 +0.0000000000e+00 +0.0000000000e+00 +8.0103616721e+02 8.0103616721e+02 0.0000000000e+00 0.0000e+00 -1.0000e+00
       -2 -1    0    0    0  501 -0.0000000000e+00 -0.0000000000e+00 -2.3278741258e+03 2.3278741258e+03 0.0000000000e+00 0.0000e+00 1.0000e+00
      -13  1    1    2    0    0 +5.0004110757e+02 +3.6294410788e+01 -2.2186166942e+03 2.2745589527e+03 0.0000000000e+00 0.0000e+00 1.0000e+00
       13  1    1    2    0    0 -5.0004110757e+02 -3.6294410788e+01 +6.9177873566e+02 8.5435134027e+02 0.0000000000e+00 0.0000e+00 -1.0000e+00
<mgrwt>
<rscale>  0 0.27310887E+04</rscale>
<asrwt>0</asrwt>
<pdfrwt beam="1">  1        2 0.12323633E+00 0.27310887E+04</pdfrwt>
<pdfrwt beam="2">  1       -2 0.35813448E+00 0.27310887E+04</pdfrwt>
<totfact> 0.36392279E-01</totfact>
</mgrwt>
<rwgt>
<wgt id='morphing_basis_vector_1'> +5.5947279e-05 </wgt>
<wgt id='morphing_basis_vector_2'> +3.7647225e-05 </wgt>
<wgt id='morphing_basis_vector_3'> +6.0752444e-05 </wgt>
<wgt id='morphing_basis_vector_4'> +4.3230283e-05 </wgt>
<wgt id='morphing_basis_vector_5'> +6.8907276e-05 </wgt>
</rwgt>
</event>
<event>
 4      1 +7.3133000e-09 3.11507700e+03 7.81860800e-03 7.72382100e-02
        2 -1    0    0  501    0 +0.0000000000e+00 +0.0000000000e+00 +1.2562855120e+03 1.2562855120e+03 0.0000000000e+00 0.0000e+00 -1.0000e+00
       -2 -1    0    0    0  501 -0.0000000000e+00 -0.0000000000e+00 -1.9310306721e+03 1.9310306721e+03 0.0000000000e+00 0.0000e+00 1.0000e+00
      -13  1    1    2    0    0 -1.2017395618e+03 -6.8567176151e+02 -1.0692233892e+03 1.7485886866e+03 0.0000000000e+00 0.0000e+00 1.0000e+00
       13  1    1    2    0    0 +1.2017395618e+03 +6.8567176151e+02 +3.9447822915e+02 1.4387274975e+03 0.0000000000e+00 0.0000e+00 -1.0000e+00
<mgrwt>
<rscale>  0 0.31150768E+04</rscale>
<asrwt>0</asrwt>
<pdfrwt beam="1">  1        2 0.19327469E+00 0.31150768E+04</pdfrwt>
<pdfrwt beam="2">  1       -2 0.29708164E+00 0.31150768E+04</pdfrwt>
<totfact> 0.46547152E-01</totfact>
</mgrwt>
<rwgt>
<wgt id='morphing_basis_vector_1'> +9.4727768e-05 </wgt>
<wgt id='morphing_basis_vector_2'> +6.5103615e-05 </wgt>
<wgt id='morphing_basis_vector_3'> +1.0359478e-04 </wgt>
<wgt id='morphing_basis_vector_4'> +7.2446739e-05 </wgt>
<wgt id='morphing_basis_vector_5'> +1.1711654e-04 </wgt>
</rwgt>
</event>
<event>
 4      1 +7.3133000e-09 3.10217400e+03 7.81860800e-03 7.72693900e-02
        2 -1    0    0  501    0 +0.0000000000e+00 +0.0000000000e+00 +2.3342587470e+03 2.3342587470e+03 0.0000000000e+00 0.0000e+00 -1.0000e+00
       -2 -1    0    0    0  501 -0.0000000000e+00 -0.0000000000e+00 -1.0306790769e+03 1.0306790769e+03 0.0000000000e+00 0.0000e+00 1.0000e+00
      -13  1    1    2    0    0 +4.3980411444e+02 -5.9399175544e+02 -8.2739575216e+02 1.1094312035e+03 0.0000000000e+00 0.0000e+00 1.0000e+00
       13  1    1    2    0    0 -4.3980411444e+02 +5.9399175544e+02 +2.1309754222e+03 2.2555066204e+03 0.0000000000e+00 0.0000e+00 -1.0000e+00
<mgrwt>
<rscale>  0 0.31021745E+04</rscale>
<asrwt>0</asrwt>
<pdfrwt beam="1">  1        2 0.35911673E+00 0.31021745E+04</pdfrwt>
<pdfrwt beam="2">  1       -2 0.15856601E+00 0.31021745E+04</pdfrwt>
<totfact> 0.11265157E+00</totfact>
</mgrwt>
<rwgt>
<wgt id='morphing_basis_vector_1'> +9.2685556e-05 </wgt>
<wgt id='morphing_basis_vector_2'> +6.2576250e-05 </wgt>
<wgt id='morphing_basis_vector_3'> +1.0111129e-04 </wgt>
<wgt id='morphing_basis_vector_4'> +7.2278736e-05 </wgt>
<wgt id='morphing_basis_vector_5'> +1.1525766e-04 </wgt>
</rwgt>
</event>
<event>
 4      1 +7.3133000e-09 2.82679100e+03 7.81860800e-03 7.79747800e-02
        2 -1    0    0  501    0 +0.0000000000e+00 +0.0000000000e+00 +2.8905783332e+03 2.8905783332e+03 0.0000000000e+00 0.0000e+00 -1.0000e+00
       -2 -1    0    0    0  501 -0.0000000000e+00 -0.0000000000e+00 -6.9110294693e+02 6.9110294693e+02 0.0000000000e+00 0.0000e+00 1.0000e+00
      -13  1    1    2    0    0 -3.3043253662e+02 -1.3736612125e+03 +1.1497245797e+03 1.8215370974e+03 0.0000000000e+00 0.0000e+00 1.0000e+00
       13  1    1    2    0    0 +3.3043253662e+02 +1.3736612125e+03 +1.0497508066e+03 1.7601441827e+03 0.0000000000e+00 0.0000e+00 -1.0000e+00
<mgrwt>
<rscale>  0 0.28267913E+04</rscale>
<asrwt>0</asrwt>
<pdfrwt beam="1">  1        2 0.44470435E+00 0.28267913E+04</pdfrwt>
<pdfrwt beam="2">  1       -2 0.10632353E+00 0.28267913E+04</pdfrwt>
<totfact> 0.15486562E+00</totfact>
</mgrwt>
<rwgt>
<wgt id='morphing_basis_vector_1'> +6.6715606e-05 </wgt>
<wgt id='morphing_basis_vector_2'> +5.0837781e-05 </wgt>
<wgt id='morphing_basis_vector_3'> +7.3755477e-05 </wgt>
<wgt id='morphing_basis_vector_4'> +4.4300391e-05 </wgt>
<wgt id='morphing_basis_vector_5'> +7.8757552e-05 </wgt>
</rwgt>
</event>
<event>
 4      1 +7.3133000e-09 2.81725500e+03 7.81860800e-03 7.80006600e-02
        2 -1    0    0  501    0 +0.0000000000e+00 +0.0000000000e+00 +1.5334815455e+03 1.5334815455e+03 0.0000000000e+00 0.0000e+00 -1.0000e+00
       -2 -1    0    0    0  501 -0.0000000000e+00 -0.0000000000e+00 -1.2939387432e+03 1.2939387432e+03 0.0000000000e+00 0.0000e+00 1.0000e+00
      -13  1    1    2    0    0 +8.7191350956e+02 -5.7151410384e+02 -8.3094268003e+02 1.3331643847e+03 0.0000000000e+00 0.0000e+00 1.0000e+00
       13  1    1    2    0    0 -8.7191350956e+02 +5.7151410384e+02 +1.0704854823e+03 1.4942559041e+03 0.0000000000e+00 0.0000e+00 -1.0000e+00
<mgrwt>
<rscale>  0 0.28172548E+04</rscale>
<asrwt>0</asrwt>
<pdfrwt beam="1">  1        2 0.23592024E+00 0.28172548E+04</pdfrwt>
<pdfrwt beam="2">  1       -2 0.19906750E+00 0.28172548E+04</pdfrwt>
<totfact> 0.16007931E+00</totfact>
</mgrwt>
<rwgt>
<wgt id='morphing_basis_vector_1'> +6.3360716e-05 </wgt>
<wgt id='morphing_basis_vector_2'> +4.2885282e-05 </wgt>
<wgt id='morphing_basis_vector_3'> +6.8930824e-05 </wgt>
<wgt id='morphing_basis_vector_4'> +4.8814152e-05 </wgt>
<wgt id='morphing_basis_vector_5'> +7.8108257e-05 </wgt>
</rwgt>
</event>
<event>
 4      1 +7.3133000e-09 2.78965000e+03 7.81860800e-03 7.80761600e-02
        2 -1    0    0  501    0 +0.0000000000e+00 +0.0000000000e+00 +2.6277543810e+03 2.6277543810e+03 0.0000000000e+00 0.0000e+00 1.0000e+00
       -2 -1    0    0    0  501 -0.0000000000e+00 -0.0000000000e+00 -7.4038025004e+02 7.4038025004e+02 0.0000000000e+00 0.0000e+00 -1.0000e+00
      -13  1    1    2    0    0 -3.0149962013e+02 +1.3571686658e+03 +1.0799038439e+03 1.7603980006e+03 0.0000000000e+00 0.0000e+00 -1.0000e+00
       13  1    1    2    0    0 +3.0149962013e+02 -1.3571686658e+03 +8.0747028700e+02 1.6077366304e+03 0.0000000000e+00 0.0000e+00 1.0000e+00
<mgrwt>
<rscale>  0 0.27896505E+04</rscale>
<asrwt>0</asrwt>
<pdfrwt beam="1">  1        2 0.40426990E+00 0.27896505E+04</pdfrwt>
<pdfrwt beam="2">  1       -2 0.11390466E+00 0.27896505E+04</pdfrwt>
<totfact> 0.19056296E+00</totfact>
</mgrwt>
<rwgt>
<wgt id='morphing_basis_vector_1'> +6.3819701e-05 </wgt>
<wgt id='morphing_basis_vector_2'> +4.9727016e-05 </wgt>
<wgt id='morphing_basis_vector_3'> +7.0739968e-05 </wgt>
<wgt id='morphing_basis_vector_4'> +4.0945782e-05 </wgt>
<wgt id='morphing_basis_vector_5'> +7.4573808e-05 </wgt>
</rwgt>
</event>
<event>
 4      1 +7.3133000e-09 3.03873100e+03 7.81860800e-03 7.74250400e-02
        2 -1    0    0  501    0 +0.0000000000e+00 +0.0000000000e+00 +2.2316142828e+03 2.2316142828e+03 0.0000000000e+00 0.0000e+00 -1.0000e+00
       -2 -1    0    0    0  501 -0.0000000000e+00 -0.0000000000e+00 -1.0344405193e+03 1.0344405193e+03 0.0000000000e+00 0.0000e+00 1.0000e+00
      -13  1    1    2    0    0 -1.0767414552e+03 -7.8823878253e+02 +1.3794186676e+03 1.9192416211e+03 0.0000000000e+00 0.0000e+00 1.0000e+00
       13  1    1    2    0    0 +1.0767414552e+03 +7.8823878253e+02 -1.8224490405e+02 1.3468131810e+03 0.0000000000e+00 0.0000e+00 -1.0000e+00
<mgrwt>
<rscale>  0 0.30387315E+04</rscale>
<asrwt>0</asrwt>
<pdfrwt beam="1">  1        2 0.34332527E+00 0.30387315E+04</pdfrwt>
<pdfrwt beam="2">  1       -2 0.15914470E+00 0.30387315E+04</pdfrwt>
<totfact> 0.12848405E+00</totfact>
</mgrwt>
<rwgt>
<wgt id='morphing_basis_vector_1'> +1.0021512e-04 </wgt>
<wgt id='morphing_basis_vector_2'> +1.0127370e-04 </wgt>
<wgt id='morphing_basis_vector_3'> +1.1632650e-04 </wgt>
<wgt id='morphing_basis_vector_4'> +3.5612875e-05 </wgt>
<wgt id='morphing_basis_vector_5'> +1.0349978e-04 </wgt>
</rwgt>
</event>
<event>
 4      1 +7.3133000e-09 2.84720600e+03 7.81860800e-03 7.79197300e-02
        2 -1    0    0  501    0 +0.0000000000e+00 +0.0000000000e+00 +2.3754735829e+03 2.3754735829e+03 0.0000000000e+00 0.0000e+00 -1.0000e+00
       -2 -1    0    0    0  501 -0.0000000000e+00 -0.0000000000e+00 -8.5315447080e+02 8.5315447080e+02 0.0000000000e+00 0.0000e+00 1.0000e+00
      -13  1    1    2    0    0 -5.8156085017e+02 +3.2094668518e+02 -6.6665592183e+02 9.4108974880e+02 0.0000000000e+00 0.0000e+00 1.0000e+00
       13  1    1    2    0    0 +5.8156085017e+02 -3.2094668518e+02 +2.1889750339e+03 2.2875383049e+03 0.0000000000e+00 0.0000e+00 -1.0000e+00
<mgrwt>
<rscale>  0 0.28472063E+04</rscale>
<asrwt>0</asrwt>
<pdfrwt beam="1">  1        2 0.36545747E+00 0.28472063E+04</pdfrwt>
<pdfrwt beam="2">  1       -2 0.13125453E+00 0.28472063E+04</pdfrwt>
<totfact> 0.18524015E+00</totfact>
</mgrwt>
<rwgt>
<wgt id='morphing_basis_vector_1'> +6.5977478e-05 </wgt>
<wgt id='morphing_basis_vector_2'> +4.4457758e-05 </wgt>
<wgt id='morphing_basis_vector_3'> +7.1763162e-05 </wgt>
<wgt id='morphing_basis_vector_4'> +5.1136107e-05 </wgt>
<wgt id='morphing_basis_vector_5'> +8.1533228e-05 </wgt>
</rwgt>
</event>
<event>
 4      1 +7.3133000e-09 2.67479700e+03 7.81860800e-03 7.84000900e-02
        2 -1    0    0  501    0 +0.0000000000e+00 +0.0000000000e+00 +4.4749458408e+03 4.4749458408e+03 0.0000000000e+00 0.0000e+00 -1.0000e+00
       -2 -1    0    0    0  501 -0.0000000000e+00 -0.0000000000e+00 -3.9969979747e+02 3.9969979747e+02 0.0000000000e+00 0.0000e+00 1.0000e+00
      -13  1    1    2    0    0 -9.2112321161e+02 -6.0722284305e+02 +6.5996848401e+02 1.2855916739e+03 0.0000000000e+00 0.0000e+00 1.0000e+00
       13  1    1    2    0    0 +9.2112321161e+02 +6.0722284305e+02 +3.4152775593e+03 3.5890539644e+03 0.0000000000e+00 0.0000e+00 -1.0000e+00
<mgrwt>
<rscale>  0 0.26747971E+04</rscale>
<asrwt>0</asrwt>
<pdfrwt beam="1">  1        2 0.68845317E+00 0.26747971E+04</pdfrwt>
<pdfrwt beam="2">  1       -2 0.61492280E-01 0.26747971E+04</pdfrwt>
<totfact> 0.30600313E-01</totfact>
</mgrwt>
<rwgt>
<wgt id='morphing_basis_vector_1'> +5.1680994e-05 </wgt>
<wgt id='morphing_basis_vector_2'> +3.5116307e-05 </wgt>
<wgt id='morphing_basis_vector_3'> +5.6143669e-05 </wgt>
<wgt id='morphing_basis_vector_4'> +3.9414131e-05 </wgt>
<wgt id='morphing_basis_vector_5'> +6.3315140e-05 </wgt>
</rwgt>
</event>
<event>
 4      1 +7.3133000e-09 2.79880300e+03 7.81860800e-03 7.80510300e-02
        2 -1    0    0  501    0 +0.0000000000e+00 +0.0000000000e+00 +1.3200678526e+03 1.3200678526e+03 0.0000000000e+00 0.0000e+00 1.0000e+00
       -2 -1    0    0    0  501 -0.0000000000e+00 -0.0000000000e+00 -1.4835030280e+03 1.4835030280e+03 0.0000000000e+00 0.0000e+00 -1.0000e+00
      -13  1    1    2    0    0 +1.0857579500e+03 +1.8317897704e+02 -9.4684374296e+02 1.4522182815e+03 0.0000000000e+00 0.0000e+00 -1.0000e+00
       13  1    1    2    0    0 -1.0857579500e+03 -1.8317897704e+02 +7.8340856757e+02 1.3513525992e+03 0.0000000000e+00 0.0000e+00 1.0000e+00
<mgrwt>
<rscale>  0 0.27988031E+04</rscale>
<asrwt>0</asrwt>
<pdfrwt beam="1">  1        2 0.20308736E+00 0.27988031E+04</pdfrwt>
<pdfrwt beam="2">  1       -2 0.22823123E+00 0.27988031E+04</pdfrwt>
<totfact> 0.13073967E+00</totfact>
</mgrwt>
<rwgt>
<wgt id='morphing_basis_vector_1'> +6.1777790e-05 </wgt>
<wgt id='morphing_basis_vector_2'> +4.1907042e-05 </wgt>
<wgt id='morphing_basis_vector_3'> +6.7212160e-05 </wgt>
<wgt id='morphing_basis_vector_4'> +4.7444419e-05 </wgt>
<wgt id='morphing_basis_vector_5'> +7.6054287e-05 </wgt>
</rwgt>
</event>
<event>
 4      1 +7.3133000e-09 2.79703100e+03 7.81860800e-03 7.80558900e-02
        2 -1    0    0  501    0 +0.0000000000e+00 +0.0000000000e+00 +3.2201594046e+03 3.2201594046e+03 0.0000000000e+00 0.0000e+00 1.0000e+00
       -2 -1    0    0    0  501 -0.0000000000e+00 -0.0000000000e+00 -6.0737561408e+02 6.0737561408e+02 0.0000000000e+00 0.0000e+00 -1.0000e+00
      -13  1    1    2    0    0 +9.2267859304e+02 -1.6598073965e+02 +2.7265012395e+03 2.8831743618e+03 0.0000000000e+00 0.0000e+00 1.0000e+00
       13  1    1    2    0    0 -9.2267859304e+02 +1.6598073965e+02 -1.1371744894e+02 9.4436065684e+02 0.0000000000e+00 0.0000e+00 -1.0000e+00
<mgrwt>
<rscale>  0 0.27970315E+04</rscale>
<asrwt>0</asrwt>
<pdfrwt beam="1">  1        2 0.49540913E+00 0.27970315E+04</pdfrwt>
<pdfrwt beam="2">  1       -2 0.93442404E-01 0.27970315E+04</pdfrwt>
<totfact> 0.12857238E+00</totfact>
</mgrwt>
<rwgt>
<wgt id='morphing_basis_vector_1'> +8.0479140e-05 </wgt>
<wgt id='morphing_basis_vector_2'> +9.7371346e-05 </wgt>
<wgt id='morphing_basis_vector_3'> +9.6303389e-05 </wgt>
<wgt id='morphing_basis_vector_4'> +8.2766339e-06 </wgt>
<wgt id='morphing_basis_vector_5'> +7.2666123e-05 </wgt>
</rwgt>
</event>
<event>
 4      1 +7.3133000e-09 3.09410800e+03 7.81860800e-03 7.72889600e-02
        2 -1    0    0  501    0 +0.0000000000e+00 +0.0000000000e+00 +1.0655335512e+03 1.0655335512e+03 0.0000000000e+00 0.0000e+00 -1.0000e+00
       -2 -1    0    0    0  501 -0.0000000000e+00 -0.0000000000e+00 -2.2461764912e+03 2.2461764912e+03 0.0000000000e+00 0.0000e+00 1.0000e+00
      -13  1    1    2    0    0 +5.3666482536e+02 -8.3495511183e+02 -1.8604615901e+03 2.1086669964e+03 0.0000000000e+00 0.0000e+00 1.0000e+00
       13  1    1    2    0    0 -5.3666482536e+02 +8.3495511183e+02 +6.7981865011e+02 1.2030430460e+03 0.0000000000e+00 0.0000e+00 -1.0000e+00
<mgrwt>
<rscale>  0 0.30941082E+04</rscale>
<asrwt>0</asrwt>
<pdfrwt beam="1">  1        2 0.16392824E+00 0.30941082E+04</pdfrwt>
<pdfrwt beam="2">  1       -2 0.34556561E+00 0.30941082E+04</pdfrwt>
<totfact> 0.28756703E-01</totfact>
</mgrwt>
<rwgt>
<wgt id='morphing_basis_vector_1'> +9.1782849e-05 </wgt>
<wgt id='morphing_basis_vector_2'> +6.2075626e-05 </wgt>
<wgt id='morphing_basis_vector_3'> +1.0014199e-04 </wgt>
<wgt id='morphing_basis_vector_4'> +7.1420784e-05 </wgt>
<wgt id='morphing_basis_vector_5'> +1.1404520e-04 </wgt>
</rwgt>
</event>
<event>
 4      1 +7.3133000e-09 2.90039500e+03 7.81860800e-03 7.77784600e-02
        2 -1    0    0  501    0 +0.0000000000e+00 +0.0000000000e+00 +2.6850347047e+03 2.6850347047e+03 0.0000000000e+00 0.0000e+00 -1.0000e+00
       -2 -1    0    0    0  501 -0.0000000000e+00 -0.0000000000e+00 -7.8325747363e+02 7.8325747363e+02 0.0000000000e+00 0.0000e+00 1.0000e+00
      -13  1    1    2    0    0 -6.8118370569e+02 +6.5575232940e+02 -3.6397525158e+02 1.0131635318e+03 0.0000000000e+00 0.0000e+00 1.0000e+00
       13  1    1    2    0    0 +6.8118370569e+02 -6.5575232940e+02 +2.2657524826e+03 2.4551286465e+03 0.0000000000e+00 0.0000e+00 -1.0000e+00
<mgrwt>
<rscale>  0 0.29003955E+04</rscale>
<asrwt>0</asrwt>
<pdfrwt beam="1">  1        2 0.41308226E+00 0.29003955E+04</pdfrwt>
<pdfrwt beam="2">  1       -2 0.12050115E+00 0.29003955E+04</pdfrwt>
<totfact> 0.15064281E+00</totfact>
</mgrwt>
<rwgt>
<wgt id='morphing_basis_vector_1'> +7.1039256e-05 </wgt>
<wgt id='morphing_basis_vector_2'> +4.7988763e-05 </wgt>
<wgt id='morphing_basis_vector_3'> +7.7341796e-05 </wgt>
<wgt id='morphing_basis_vector_4'> +5.5013208e-05 </wgt>
<wgt id='morphing_basis_vector_5'> +8.7854032e-05 </wgt>
</rwgt>
</event>
<event>
 4      1 +7.3133000e-09 2.90085800e+03 7.81860800e-03 7.77772500e-02
        2 -1    0    0  501    0 +0.0000000000e+00 +0.0000000000e+00 +2.0760586640e+03 2.0760586640e+03 0.0000000000e+00 0.0000e+00 -1.0000e+00
       -2 -1    0    0    0  501 -0.0000000000e+00 -0.0000000000e+00 -1.0133358623e+03 1.0133358623e+03 0.0000000000e+00 0.0000e+00 1.0000e+00
      -13  1    1    2    0    0 +3.4948527322e+02 +6.5693487694e+02 -7.9456218503e+02 1.0885919597e+03 0.0000000000e+00 0.0000e+00 1.0000e+00
       13  1    1    2    0    0 -3.4948527322e+02 -6.5693487694e+02 +1.8572849867e+03 2.0008025666e+03 0.0000000000e+00 0.0000e+00 -1.0000e+00
<mgrwt>
<rscale>  0 0.29008583E+04</rscale>
<asrwt>0</asrwt>
<pdfrwt beam="1">  1        2 0.31939364E+00 0.29008583E+04</pdfrwt>
<pdfrwt beam="2">  1       -2 0.15589783E+00 0.29008583E+04</pdfrwt>
<totfact> 0.16940432E+00</totfact>
</mgrwt>
<rwgt>
<wgt id='morphing_basis_vector_1'> +7.1046343e-05 </wgt>
<wgt id='morphing_basis_vector_2'> +4.7907847e-05 </wgt>
<wgt id='morphing_basis_vector_3'> +7.7332168e-05 </wgt>
<wgt id='morphing_basis_vector_4'> +5.5127209e-05 </wgt>
<wgt id='morphing_basis_vector_5'> +8.7917092e-05 </wgt>
</rwgt>
</event>
<event>
 4      1 +7.3133000e-09 2.84690800e+03 7.81860800e-03 7.79205300e-02
        2 -1    0    0  501    0 +0.0000000000e+00 +0.0000000000e+00 +1.8346798613e+03 1.8346798613e+03 0.0000000000e+00 0.0000e+00 1.0000e+00
       -2 -1    0    0    0  501 -0.0000000000e+00 -0.0000000000e+00 -1.1044001955e+03 1.1044001955e+03 0.0000000000e+00 0.0000e+00 -1.0000e+00
      -13  1    1    2    0    0 -6.0289784282e+02 -2.2498633080e+02 +1.6759391269e+03 1.7952372030e+03 0.0000000000e+00 0.0000e+00 1.0000e+00
       13  1    1    2    0    0 +6.0289784282e+02 +2.2498633080e+02 -9.4565946109e+02 1.1438428538e+03 0.0000000000e+00 0.0000e+00 -1.0000e+00
<mgrwt>
<rscale>  0 0.28469077E+04</rscale>
<asrwt>0</asrwt>
<pdfrwt beam="1">  1        2 0.28225844E+00 0.28469077E+04</pdfrwt>
<pdfrwt beam="2">  1       -2 0.16990772E+00 0.28469077E+04</pdfrwt>
<totfact> 0.17996957E+00</totfact>
</mgrwt>
<rwgt>
<wgt id='morphing_basis_vector_1'> +8.9672831e-05 </wgt>
<wgt id='morphing_basis_vector_2'> +1.1433949e-04 </wgt>
<wgt id='morphing_basis_vector_3'> +1.0863074e-04 </wgt>
<wgt id='morphing_basis_vector_4'> +1.9188272e-06 </wgt>
<wgt id='morphing_basis_vector_5'> +7.7469618e-05 </wgt>
</rwgt>
</event>
<event>
 4      1 +7.3133000e-09 3.02791500e+03 7.81860800e-03 7.74519700e-02
        2 -1    0    0  501    0 +0.0000000000e+00 +0.0000000000e+00 +6.5051205440e+02 6.5051205440e+02 0.0000000000e+00 0.0000e+00 -1.0000e+00
       -2 -1    0    0    0  501 -0.0000000000e+00 -0.0000000000e+00 -3.5234813652e+03 3.5234813652e+03 0.0000000000e+00 0.0000e+00 1.0000e+00
      -13  1    1    2    0    0 -1.8222464768e+02 -7.2861530878e+02 -3.2485655579e+03 3.3342561801e+03 0.0000000000e+00 0.0000e+00 1.0000e+00
       13  1    1    2    0    0 +1.8222464768e+02 +7.2861530878e+02 +3.7559624718e+02 8.3973723945e+02 0.0000000000e+00 0.0000e+00 -1.0000e+00
<mgrwt>
<rscale>  0 0.30279149E+04</rscale>
<asrwt>0</asrwt>
<pdfrwt beam="1">  1        2 0.10007878E+00 0.30279149E+04</pdfrwt>
<pdfrwt beam="2">  1       -2 0.54207405E+00 0.30279149E+04</pdfrwt>
<totfact> 0.24020624E-02</totfact>
</mgrwt>
<rwgt>
<wgt id='morphing_basis_vector_1'> +8.4198209e-05 </wgt>
<wgt id='morphing_basis_vector_2'> +5.6823924e-05 </wgt>
<wgt id='morphing_basis_vector_3'> +9.1781924e-05 </wgt>
<wgt id='morphing_basis_vector_4'> +6.5543969e-05 </wgt>
<wgt id='morphing_basis_vector_5'> +1.0452503e-04 </wgt>
</rwgt>
</event>
<event>
 4      1 +7.3133000e-09 2.88934900e+03 7.81860800e-03 7.78075500e-02
        2 -1    0    0  501    0 +0.0000000000e+00 +0.0000000000e+00 +8.7615839812e+02 8.7615839812e+02 0.0000000000e+00 0.0000e+00 -1.0000e+00
       -2 -1    0    0    0  501 -0.0000000000e+00 -0.0000000000e+00 -2.3820855553e+03 2.3820855553e+03 0.0000000000e+00 0.0000e+00 1.0000e+00
      -13  1    1    2    0    0 +1.1268007699e+03 +8.0033354239e+02 -1.2272179303e+03 1.8483175059e+03 0.0000000000e+00 0.0000e+00 1.0000e+00
       13  1    1    2    0    0 -1.1268007699e+03 -8.0033354239e+02 -2.7870922682e+02 1.4099264475e+03 0.0000000000e+00 0.0000e+00 -1.0000e+00
<mgrwt>
<rscale>  0 0.28893489E+04</rscale>
<asrwt>0</asrwt>
<pdfrwt beam="1">  1        2 0.13479360E+00 0.28893489E+04</pdfrwt>
<pdfrwt beam="2">  1       -2 0.36647470E+00 0.28893489E+04</pdfrwt>
<totfact> 0.28227336E-01</totfact>
</mgrwt>
<rwgt>
<wgt id='morphing_basis_vector_1'> +7.0751237e-05 </wgt>
<wgt id='morphing_basis_vector_2'> +4.9555797e-05 </wgt>
<wgt id='morphing_basis_vector_3'> +7.7382844e-05 </wgt>
<wgt id='morphing_basis_vector_4'> +5.2557627e-05 </wgt>
<wgt id='morphing_basis_vector_5'> +8.6378298e-05 </wgt>
</rwgt>
</event>
<event>
 4      1 +7.3133000e-09 2.78293300e+03 7.81860800e-03 7.80946700e-02
        2 -1    0    0  501    0 +0.0000000000e+00 +0.0000000000e+00 +1.9512979959e+03 1.9512979959e+03 0.0000000000e+00 0.0000e+00 -1.0000e+00
       -2 -1    0    0    0  501 -0.0000000000e+00 -0.0000000000e+00 -9.9225171551e+02 9.9225171551e+02 0.0000000000e+00 0.0000e+00 1.0000e+00
      -13  1    1    2    0    0 -2.6782973183e+02 -1.3483464263e+03 +2.5166488618e+02 1.3975357117e+03 0.0000000000e+00 0.0000e+00 1.0000e+00
       13  1    1    2    0    0 +2.6782973183e+02 +1.3483464263e+03 +7.0738139424e+02 1.5460139997e+03 0.0000000000e+00 0.0000e+00 -1.0000e+00
<mgrwt>
<rscale>  0 0.27829328E+04</rscale>
<asrwt>0</asrwt>
<pdfrwt beam="1">  1        2 0.30019969E+00 0.27829328E+04</pdfrwt>
<pdfrwt beam="2">  1       -2 0.15265411E+00 0.27829328E+04</pdfrwt>
<totfact> 0.21382721E+00</totfact>
</mgrwt>
<rwgt>
<wgt id='morphing_basis_vector_1'> +6.1508075e-05 </wgt>
<wgt id='morphing_basis_vector_2'> +4.4225975e-05 </wgt>
<wgt id='morphing_basis_vector_3'> +6.7415643e-05 </wgt>
<wgt id='morphing_basis_vector_4'> +4.4079182e-05 </wgt>
<wgt id='morphing_basis_vector_5'> +7.4139501e-05 </wgt>
</rwgt>
</event>
<event>
 4      1 +7.3133000e-09 2.71886500e+03 7.81860800e-03 7.82738800e-02
        2 -1    0    0  501    0 +0.0000000000e+00 +0.0000000000e+00 +2.0697716078e+03 2.0697716078e+03 0.0000000000e+00 0.0000e+00 1.0000e+00
       -2 -1    0    0    0  501 -0.0000000000e+00 -0.0000000000e+00 -8.9287927194e+02 8.9287927194e+02 0.0000000000e+00 0.0000e+00 -1.0000e+00
      -13  1    1    2    0    0 +1.7125046738e+02 -1.2783569715e+03 +1.0565366369e+03 1.6672711040e+03 0.0000000000e+00 0.0000e+00 1.0000e+00
       13  1    1    2    0    0 -1.7125046738e+02 +1.2783569715e+03 +1.2035569898e+02 1.2953797758e+03 0.0000000000e+00 0.0000e+00 -1.0000e+00
<mgrwt>
<rscale>  0 0.27188646E+04</rscale>
<asrwt>0</asrwt>
<pdfrwt beam="1">  1        2 0.31842640E+00 0.27188646E+04</pdfrwt>
<pdfrwt beam="2">  1       -2 0.13736604E+00 0.27188646E+04</pdfrwt>
<totfact> 0.24797162E+00</totfact>
</mgrwt>
<rwgt>
<wgt id='morphing_basis_vector_1'> +6.0850117e-05 </wgt>
<wgt id='morphing_basis_vector_2'> +5.4335014e-05 </wgt>
<wgt id='morphing_basis_vector_3'> +6.8773399e-05 </wgt>
<wgt id='morphing_basis_vector_4'> +3.0292478e-05 </wgt>
<wgt id='morphing_basis_vector_5'> +6.6676183e-05 </wgt>
</rwgt>
</event>
<event>
 4      1 +7.3133000e-09 3.07288900e+03 7.81860800e-03 7.73407500e-02
        2 -1    0    0  501    0 +0.0000000000e+00 +0.0000000000e+00 +1.2362096600e+03 1.2362096600e+03 0.0000000000e+00 0.0000e+00 1.0000e+00
       -2 -1    0    0    0  501 -0.0000000000e+00 -0.0000000000e+00 -1.9095970582e+03 1.9095970582e+03 0.0000000000e+00 0.0000e+00 -1.0000e+00
      -13  1    1    2    0    0 +3.9229773267e+02 -7.7340897091e+02 +9.6170955061e+02 1.2949688054e+03 0.0000000000e+00 0.0000e+00 1.0000e+00
       13  1    1    2    0    0 -3.9229773267e+02 +7.7340897091e+02 -1.6350969488e+03 1.8508379128e+03 0.0000000000e+00 0.0000e+00 -1.0000e+00
<mgrwt>
<rscale>  0 0.30728894E+04</rscale>
<asrwt>0</asrwt>
<pdfrwt beam="1">  1        2 0.19018610E+00 0.30728894E+04</pdfrwt>
<pdfrwt beam="2">  1       -2 0.29378416E+00 0.30728894E+04</pdfrwt>
<totfact> 0.50502609E-01</totfact>
</mgrwt>
<rwgt>
<wgt id='morphing_basis_vector_1'> +1.1979299e-04 </wgt>
<wgt id='morphing_basis_vector_2'> +1.5014760e-04 </wgt>
<wgt id='morphing_basis_vector_3'> +1.4526111e-04 </wgt>
<wgt id='morphing_basis_vector_4'> +5.8949481e-06 </wgt>
<wgt id='morphing_basis_vector_5'> +1.0569093e-04 </wgt>
</rwgt>
</event>
<event>
 4      1 +7.3133000e-09 2.68526900e+03 7.81860800e-03 7.83698800e-02
        2 -1    0    0  501    0 +0.0000000000e+00 +0.0000000000e+00 +1.7689873426e+03 1.7689873426e+03 0.0000000000e+00 0.0000e+00 1.0000e+00
       -2 -1    0    0    0  501 -0.0000000000e+00 -0.0000000000e+00 -1.0190389233e+03 1.0190389233e+03 0.0000000000e+00 0.0000e+00 -1.0000e+00
      -13  1    1    2    0    0 +2.1735765327e+02 -8.3527676500e+02 -6.9284473648e+02 1.1067815740e+03 0.0000000000e+00 0.0000e+00 -1.0000e+00
       13  1    1    2    0    0 -2.1735765327e+02 +8.3527676500e+02 +1.4427931559e+03 1.6812446919e+03 0.0000000000e+00 0.0000e+00 1.0000e+00
<mgrwt>
<rscale>  0 0.26852687E+04</rscale>
<asrwt>0</asrwt>
<pdfrwt beam="1">  1        2 0.27215190E+00 0.26852687E+04</pdfrwt>
<pdfrwt beam="2">  1       -2 0.15677522E+00 0.26852687E+04</pdfrwt>
<totfact> 0.25230624E+00</totfact>
</mgrwt>
<rwgt>
<wgt id='morphing_basis_vector_1'> +5.2360065e-05 </wgt>
<wgt id='morphing_basis_vector_2'> +3.5296252e-05 </wgt>
<wgt id='morphing_basis_vector_3'> +5.6833413e-05 </wgt>
<wgt id='morphing_basis_vector_4'> +4.0301085e-05 </wgt>
<wgt id='morphing_basis_vector_5'> +6.4344787e-05 </wgt>
</rwgt>
</event>
<event>
 4      1 +7.3133000e-09 2.76655800e+03 7.81860800e-03 7.81400000e-02
        2 -1    0    0  501    0 +0.0000000000e+00 +0.0000000000e+00 +1.1509539412e+03 1.1509539412e+03 0.0000000000e+00 0.0000e+00 -1.0000e+00
       -2 -1    0    0    0  501 -0.0000000000e+00 -0.0000000000e+00 -1.6624996778e+03 1.6624996778e+03 0.0000000000e+00 0.0000e+00 1.0000e+00
      -13  1    1    2    0    0 -8.0721022820e+02 -1.1233223068e+03 -2.5131694037e+02 1.4059166270e+03 0.0000000000e+00 0.0000e+00 1.0000e+00
       13  1    1    2    0    0 +8.0721022820e+02 +1.1233223068e+03 -2.6022879625e+02 1.4075369920e+03 0.0000000000e+00 0.0000e+00 -1.0000e+00
<mgrwt>
<rscale>  0 0.27665578E+04</rscale>
<asrwt>0</asrwt>
<pdfrwt beam="1">  1        2 0.17706984E+00 0.27665578E+04</pdfrwt>
<pdfrwt beam="2">  1       -2 0.25576918E+00 0.27665578E+04</pdfrwt>
<totfact> 0.10569699E+00</totfact>
</mgrwt>
<rwgt>
<wgt id='morphing_basis_vector_1'> +6.1060524e-05 </wgt>
<wgt id='morphing_basis_vector_2'> +4.6065284e-05 </wgt>
<wgt id='morphing_basis_vector_3'> +6.7349803e-05 </wgt>
<wgt id='morphing_basis_vector_4'> +4.1028910e-05 </wgt>
<wgt id='morphing_basis_vector_5'> +7.2227819e-05 </wgt>
</rwgt>
</event>
<event>
 4      1 +7.3133000e-09 2.77453300e+03 7.81860800e-03 7.81178800e-02
        2 -1    0    0  501    0 +0.0000000000e+00 +0.0000000000e+00 +1.3438771140e+03 1.3438771140e+03 0.0000000000e+00 0.0000e+00 1.0000e+00
       -2 -1    0    0    0  501 -0.0000000000e+00 -0.0000000000e+00 -1.4320565039e+03 1.4320565039e+03 0.0000000000e+00 0.0000e+00 -1.0000e+00
      -13  1    1    2    0    0 -1.1399161858e+03 -7.4211117836e+02 +2.2875672590e+02 1.3792996597e+03 0.0000000000e+00 0.0000e+00 -1.0000e+00
       13  1    1    2    0    0 +1.1399161858e+03 +7.4211117836e+02 -3.1693611576e+02 1.3966339582e+03 0.0000000000e+00 0.0000e+00 1.0000e+00
<mgrwt>
<rscale>  0 0.27745327E+04</rscale>
<asrwt>0</asrwt>
<pdfrwt beam="1">  1        2 0.20675032E+00 0.27745327E+04</pdfrwt>
<pdfrwt beam="2">  1       -2 0.22031639E+00 0.27745327E+04</pdfrwt>
<totfact> 0.14443874E+00</totfact>
</mgrwt>
<rwgt>
<wgt id='morphing_basis_vector_1'> +6.3875621e-05 </wgt>
<wgt id='morphing_basis_vector_2'> +5.2830941e-05 </wgt>
<wgt id='morphing_basis_vector_3'> +7.1409490e-05 </wgt>
<wgt id='morphing_basis_vector_4'> +3.7130984e-05 </wgt>
<wgt id='morphing_basis_vector_5'> +7.2715041e-05 </wgt>
</rwgt>
</event>
<event>
 4      1 +7.3133000e-09 2.98693200e+03 7.81860800e-03 7.75550600e-02
        2 -1    0    0  501    0 +0.0000000000e+00 +0.0000000000e+00 +1.2812773860e+03 1.2812773860e+03 0.0000000000e+00 0.0000e+00 -1.0000e+00
       -2 -1    0    0    0  501 -0.0000000000e+00 -0.0000000000e+00 -1.7407951337e+03 1.7407951337e+03 0.0000000000e+00 0.0000e+00 1.0000e+00
      -13  1    1    2    0    0 +4.8543904276e+02 +1.4038579644e+03 -3.8641319754e+02 1.5348561522e+03 0.0000000000e+00 0.0000e+00 1.0000e+00
       13  1    1    2    0    0 -4.8543904276e+02 -1.4038579644e+03 -7.3104550217e+01 1.4872163675e+03 0.0000000000e+00 0.0000e+00 -1.0000e+00
<mgrwt>
<rscale>  0 0.29869325E+04</rscale>
<asrwt>0</asrwt>
<pdfrwt beam="1">  1        2 0.19711960E+00 0.29869325E+04</pdfrwt>
<pdfrwt beam="2">  1       -2 0.26781464E+00 0.29869325E+04</pdfrwt>
<totfact> 0.72005709E-01</totfact>
</mgrwt>
<rwgt>
<wgt id='morphing_basis_vector_1'> +8.1753852e-05 </wgt>
<wgt id='morphing_basis_vector_2'> +5.9660776e-05 </wgt>
<wgt id='morphing_basis_vector_3'> +9.0018385e-05 </wgt>
<wgt id='morphing_basis_vector_4'> +5.7910172e-05 </wgt>
<wgt id='morphing_basis_vector_5'> +9.8593275e-05 </wgt>
</rwgt>
</event>
<event>
 4      1 +7.3133000e-09 2.69067800e+03 7.81860800e-03 7.83543300e-02
        2 -1    0    0  501    0 +0.0000000000e+00 +0.0000000000e+00 +2.0444469526e+03 2.0444469526e+03 0.0000000000e+00 0.0000e+00 1.0000e+00
       -2 -1    0    0    0  501 -0.0000000000e+00 -0.0000000000e+00 -8.8529408334e+02 8.8529408334e+02 0.0000000000e+00 0.0000e+00 -1.0000e+00
      -13  1    1    2    0    0 +6.1033926041e+02 -1.1701251448e+03 +8.6399305843e+02 1.5774000356e+03 0.0000000000e+00 0.0000e+00 -1.0000e+00
       13  1    1    2    0    0 -6.1033926041e+02 +1.1701251448e+03 +2.9515981088e+02 1.3523410004e+03 0.0000000000e+00 0.0000e+00 1.0000e+00
<mgrwt>
<rscale>  0 0.26906778E+04</rscale>
<asrwt>0</asrwt>
<pdfrwt beam="1">  1        2 0.31453030E+00 0.26906778E+04</pdfrwt>
<pdfrwt beam="2">  1       -2 0.13619909E+00 0.26906778E+04</pdfrwt>
<totfact> 0.26299531E+00</totfact>
</mgrwt>
<rwgt>
<wgt id='morphing_basis_vector_1'> +5.6540604e-05 </wgt>
<wgt id='morphing_basis_vector_2'> +4.6672015e-05 </wgt>
<wgt id='morphing_basis_vector_3'> +6.3099626e-05 </wgt>
<wgt id='morphing_basis_vector_4'> +3.2865809e-05 </wgt>
<wgt id='morphing_basis_vector_5'> +6.4237361e-05 </wgt>
</rwgt>
</event>
<event>
 4      1 +7.3133000e-09 3.04124900e+03 7.81860800e-03 7.74187900e-02
        2 -1    0    0  501    0 +0.0000000000e+00 +0.0000000000e+00 +1.3170002224e+03 1.3170002224e+03 0.0000000000e+00 0.0000e+00 1.0000e+00
       -2 -1    0    0    0  501 -0.0000000000e+00 -0.0000000000e+00 -1.7557311338e+03 1.7557311338e+03 0.0000000000e+00 0.0000e+00 -1.0000e+00
      -13  1    1    2    0    0 -9.8212420175e+02 +7.9311484308e+02 -1.0759026873e+03 1.6586638281e+03 0.0000000000e+00 0.0000e+00 -1.0000e+00
       13  1    1    2    0    0 +9.8212420175e+02 -7.9311484308e+02 +6.3717177593e+02 1.4140675281e+03 0.0000000000e+00 0.0000e+00 1.0000e+00
<mgrwt>
<rscale>  0 0.30412486E+04</rscale>
<asrwt>0</asrwt>
<pdfrwt beam="1">  1        2 0.20261542E+00 0.30412486E+04</pdfrwt>
<pdfrwt beam="2">  1       -2 0.27011248E+00 0.30412486E+04</pdfrwt>
<totfact> 0.65944204E-01</totfact>
</mgrwt>
<rwgt>
<wgt id='morphing_basis_vector_1'> +8.5939821e-05 </wgt>
<wgt id='morphing_basis_vector_2'> +5.8599507e-05 </wgt>
<wgt id='morphing_basis_vector_3'> +9.3819050e-05 </wgt>
<wgt id='morphing_basis_vector_4'> +6.6169898e-05 </wgt>
<wgt id='morphing_basis_vector_5'> +1.0634964e-04 </wgt>
</rwgt>
</event>
<event>
 4      1 +7.3133000e-09 2.84908600e+03 7.81860800e-03 7.79146800e-02
        2 -1    0    0  501    0 +0.0000000000e+00 +0.0000000000e+00 +8.5456266335e+02 8.5456266335e+02 0.0000000000e+00 0.0000e+00 -1.0000e+00
       -2 -1    0    0    0  501 -0.0000000000e+00 -0.0000000000e+00 -2.3746919320e+03 2.3746919320e+03 0.0000000000e+00 0.0000e+00 1.0000e+00
      -13  1    1    2    0    0 +5.9680799779e+02 -5.9992339873e+02 -2.0589414092e+03 2.2260565126e+03 0.0000000000e+00 0.0000e+00 1.0000e+00
       13  1    1    2    0    0 -5.9680799779e+02 +5.9992339873e+02 +5.3881214054e+02 1.0031980828e+03 0.0000000000e+00 0.0000e+00 -1.0000e+00
<mgrwt>
<rscale>  0 0.28490862E+04</rscale>
<asrwt>0</asrwt>
<pdfrwt beam="1">  1        2 0.13147118E+00 0.28490862E+04</pdfrwt>
<pdfrwt beam="2">  1       -2 0.36533722E+00 0.28490862E+04</pdfrwt>
<totfact> 0.29771325E-01</totfact>
</mgrwt>
<rwgt>
<wgt id='morphing_basis_vector_1'> +6.6171635e-05 </wgt>
<wgt id='morphing_basis_vector_2'> +4.4638129e-05 </wgt>
<wgt id='morphing_basis_vector_3'> +7.1986167e-05 </wgt>
<wgt id='morphing_basis_vector_4'> +5.1228026e-05 </wgt>
<wgt id='morphing_basis_vector_5'> +8.1747251e-05 </wgt>
</rwgt>
</event>
<event>
 4      1 +7.3133000e-09 2.90086900e+03 7.81860800e-03 7.77772200e-02
        2 -1    0    0  501    0 +0.0000000000e+00 +0.0000000000e+00 +2.6709614851e+03 2.6709614851e+03 0.0000000000e+00 0.0000e+00 1.0000e+00
       -2 -1    0    0    0  501 -0.0000000000e+00 -0.0000000000e+00 -7.8764138177e+02 7.8764138177e+02 0.0000000000e+00 0.0000e+00 -1.0000e+00
      -13  1    1    2    0    0 -7.4638323392e+02 +1.0945780107e+03 +1.6455717021e+03 2.1126038863e+03 0.0000000000e+00 0.0000e+00 1.0000e+00
       13  1    1    2    0    0 +7.4638323392e+02 -1.0945780107e+03 +2.3774840123e+02 1.3459989806e+03 0.0000000000e+00 0.0000e+00 -1.0000e+00
<mgrwt>
<rscale>  0 0.29008687E+04</rscale>
<asrwt>0</asrwt>
<pdfrwt beam="1">  1        2 0.41091715E+00 0.29008687E+04</pdfrwt>
<pdfrwt beam="2">  1       -2 0.12117560E+00 0.29008687E+04</pdfrwt>
<totfact> 0.15144558E+00</totfact>
</mgrwt>
<rwgt>
<wgt id='morphing_basis_vector_1'> +8.1097505e-05 </wgt>
<wgt id='morphing_basis_vector_2'> +7.7516512e-05 </wgt>
<wgt id='morphing_basis_vector_3'> +9.3001569e-05 </wgt>
<wgt id='morphing_basis_vector_4'> +3.4255391e-05 </wgt>
<wgt id='morphing_basis_vector_5'> +8.6206705e-05 </wgt>
</rwgt>
</event>
<event>
 4      1 +7.3133000e-09 2.68617700e+03 7.81860800e-03 7.83672700e-02
        2 -1    0    0  501    0 +0.0000000000e+00 +0.0000000000e+00 +8.2114297401e+02 8.2114297401e+02 0.0000000000e+00 0.0000e+00 -1.0000e+00
       -2 -1    0    0    0  501 -0.0000000000e+00 -0.0000000000e+00 -2.1967993249e+03 2.1967993249e+03 0.0000000000e+00 0.0000e+00 1.0000e+00
      -13  1    1    2    0    0 +5.1798648042e+02 -1.1420480834e+03 -1.2281674400e+03 1.7552717965e+03 0.0000000000e+00 0.0000e+00 1.0000e+00
       13  1    1    2    0    0 -5.1798648042e+02 +1.1420480834e+03 -1.4748891084e+02 1.2626705024e+03 0.0000000000e+00 0.0000e+00 -1.0000e+00
<mgrwt>
<rscale>  0 0.26861767E+04</rscale>
<asrwt>0</asrwt>
<pdfrwt beam="1">  1        2 0.12632969E+00 0.26861767E+04</pdfrwt>
<pdfrwt beam="2">  1       -2 0.33796913E+00 0.26861767E+04</pdfrwt>
<totfact> 0.47882794E-01</totfact>
</mgrwt>
<rwgt>
<wgt id='morphing_basis_vector_1'> +5.2858028e-05 </wgt>
<wgt id='morphing_basis_vector_2'> +3.6605392e-05 </wgt>
<wgt id='morphing_basis_vector_3'> +5.7570617e-05 </wgt>
<wgt id='morphing_basis_vector_4'> +3.9473221e-05 </wgt>
<wgt id='morphing_basis_vector_5'> +6.4360828e-05 </wgt>
</rwgt>
</event>
<event>
 4      1 +7.3133000e-09 2.74043900e+03 7.81860800e-03 7.82129800e-02
        2 -1    0    0  501    0 +0.0000000000e+00 +0.0000000000e+00 +1.3782699084e+03 1.3782699084e+03 0.0000000000e+00 0.0000e+00 1.0000e+00
       -2 -1    0    0    0  501 -0.0000000000e+00 -0.0000000000e+00 -1.3622160022e+03 1.3622160022e+03 0.0000000000e+00 0.0000e+00 -1.0000e+00
      -13  1    1    2    0    0 +1.3182666591e+03 +3.3278221690e+02 +1.7811907261e+02 1.3712393636e+03 0.0000000000e+00 0.0000e+00 -1.0000e+00
       13  1    1    2    0    0 -1.3182666591e+03 -3.3278221690e+02 -1.6206516640e+02 1.3692465470e+03 0.0000000000e+00 0.0000e+00 1.0000e+00
<mgrwt>
<rscale>  0 0.27404389E+04</rscale>
<asrwt>0</asrwt>
<pdfrwt beam="1">  1        2 0.21204153E+00 0.27404389E+04</pdfrwt>
<pdfrwt beam="2">  1       -2 0.20957169E+00 0.27404389E+04</pdfrwt>
<totfact> 0.16527893E+00</totfact>
</mgrwt>
<rwgt>
<wgt id='morphing_basis_vector_1'> +5.9927533e-05 </wgt>
<wgt id='morphing_basis_vector_2'> +4.7650518e-05 </wgt>
<wgt id='morphing_basis_vector_3'> +6.6568980e-05 </wgt>
<wgt id='morphing_basis_vector_4'> +3.7178143e-05 </wgt>
<wgt id='morphing_basis_vector_5'> +6.9322585e-05 </wgt>
</rwgt>
</event>
<event>
 4      1 +7.3133000e-09 3.05280200e+03 7.81860800e-03 7.73901800e-02
        2 -1    0    0  501    0 +0.0000000000e+00 +0.0000000000e+00 +1.5097146736e+03 1.5097146736e+03 0.0000000000e+00 0.0000e+00 1.0000e+00
       -2 -1    0    0    0  501 -0.0000000000e+00 -0.0000000000e+00 -1.5432713383e+03 1.5432713383e+03 0.0000000000e+00 0.0000e+00 -1.0000e+00
      -13  1    1    2    0    0 +3.3357453580e+02 +1.2173273892e+03 -8.7516662382e+02 1.5359279159e+03 0.0000000000e+00 0.0000e+00 1.0000e+00
       13  1    1    2    0    0 -3.3357453580e+02 -1.2173273892e+03 +8.4160995907e+02 1.5170580960e+03 0.0000000000e+00 0.0000e+00 -1.0000e+00
<mgrwt>
<rscale>  0 0.30528016E+04</rscale>
<asrwt>0</asrwt>
<pdfrwt beam="1">  1        2 0.23226380E+00 0.30528016E+04</pdfrwt>
<pdfrwt beam="2">  1       -2 0.23742636E+00 0.30528016E+04</pdfrwt>
<totfact> 0.86238201E-01</totfact>
</mgrwt>
<rwgt>
<wgt id='morphing_basis_vector_1'> +8.7233715e-05 </wgt>
<wgt id='morphing_basis_vector_2'> +5.9468826e-05 </wgt>
<wgt id='morphing_basis_vector_3'> +9.5239783e-05 </wgt>
<wgt id='morphing_basis_vector_4'> +6.7205828e-05 </wgt>
<wgt id='morphing_basis_vector_5'> +1.0799025e-04 </wgt>
</rwgt>
</event>
<event>
 4      1 +7.3133000e-09 2.69251900e+03 7.81860800e-03 7.83490400e-02
        2 -1    0    0  501    0 +0.0000000000e+00 +0.0000000000e+00 +2.5023393740e+03 2.5023393740e+03 0.0000000000e+00 0.0000e+00 1.0000e+00
       -2 -1    0    0    0  501 -0.0000000000e+00 -0.0000000000e+00 -7.2428798872e+02 7.2428798872e+02 0.0000000000e+00 0.0000e+00 -1.0000e+00
      -13  1    1    2    0    0 -2.8013405912e+02 +7.6078316364e+02 -3.9895374798e+02 9.0356527500e+02 0.0000000000e+00 0.0000e+00 -1.0000e+00
       13  1    1    2    0    0 +2.8013405912e+02 -7.6078316364e+02 +2.1770051332e+03 2.3230620877e+03 0.0000000000e+00 0.0000e+00 1.0000e+00
<mgrwt>
<rscale>  0 0.26925188E+04</rscale>
<asrwt>0</asrwt>
<pdfrwt beam="1">  1        2 0.38497528E+00 0.26925188E+04</pdfrwt>
<pdfrwt beam="2">  1       -2 0.11142892E+00 0.26925188E+04</pdfrwt>
<totfact> 0.24179089E+00</totfact>
</mgrwt>
<rwgt>
<wgt id='morphing_basis_vector_1'> +5.2910709e-05 </wgt>
<wgt id='morphing_basis_vector_2'> +3.5645688e-05 </wgt>
<wgt id='morphing_basis_vector_3'> +5.7432672e-05 </wgt>
<wgt id='morphing_basis_vector_4'> +4.0764893e-05 </wgt>
<wgt id='morphing_basis_vector_5'> +6.5052072e-05 </wgt>
</rwgt>
</event>
<event>
 4      1 +7.3133000e-09 2.90339400e+03 7.81860800e-03 7.77705900e-02
        2 -1    0    0  501    0 +0.0000000000e+00 +0.0000000000e+00 +2.0341579450e+03 2.0341579450e+03 0.0000000000e+00 0.0000e+00 1.0000e+00
       -2 -1    0    0    0  501 -0.0000000000e+00 -0.0000000000e+00 -1.0360178375e+03 1.0360178375e+03 0.0000000000e+00 0.0000e+00 -1.0000e+00
      -13  1    1    2    0    0 +1.1524345430e+03 -8.8256589453e+02 +5.2011242410e+02 1.5419289438e+03 0.0000000000e+00 0.0000e+00 -1.0000e+00
       13  1    1    2    0    0 -1.1524345430e+03 +8.8256589453e+02 +4.7802768332e+02 1.5282468387e+03 0.0000000000e+00 0.0000e+00 1.0000e+00
<mgrwt>
<rscale>  0 0.29033938E+04</rscale>
<asrwt>0</asrwt>
<pdfrwt beam="1">  1        2 0.31294737E+00 0.29033938E+04</pdfrwt>
<pdfrwt beam="2">  1       -2 0.15938736E+00 0.29033938E+04</pdfrwt>
<totfact> 0.16761456E+00</totfact>
</mgrwt>
<rwgt>
<wgt id='morphing_basis_vector_1'> +7.4024989e-05 </wgt>
<wgt id='morphing_basis_vector_2'> +5.6124376e-05 </wgt>
<wgt id='morphing_basis_vector_3'> +8.1862901e-05 </wgt>
<wgt id='morphing_basis_vector_4'> +4.9646953e-05 </wgt>
<wgt id='morphing_basis_vector_5'> +8.7762388e-05 </wgt>
</rwgt>
</event>
<event>
 4      1 +7.3133000e-09 2.73946700e+03 7.81860800e-03 7.82157100e-02
        2 -1    0    0  501    0 +0.0000000000e+00 +0.0000000000e+00 +2.5018875150e+03 2.5018875150e+03 0.0000000000e+00 0.0000e+00 1.0000e+00
       -2 -1    0    0    0  501 -0.0000000000e+00 -0.0000000000e+00 -7.4990201914e+02 7.4990201914e+02 0.0000000000e+00 0.0000e+00 -1.0000e+00
      -13  1    1    2    0    0 +4.7569758950e+02 -9.7820464955e+02 -1.1215585704e+02 1.0935042155e+03 0.0000000000e+00 0.0000e+00 -1.0000e+00
       13  1    1    2    0    0 -4.7569758950e+02 +9.7820464955e+02 +1.8641413529e+03 2.1582853186e+03 0.0000000000e+00 0.0000e+00 1.0000e+00
<mgrwt>
<rscale>  0 0.27394675E+04</rscale>
<asrwt>0</asrwt>
<pdfrwt beam="1">  1        2 0.38490577E+00 0.27394675E+04</pdfrwt>
<pdfrwt beam="2">  1       -2 0.11536954E+00 0.27394675E+04</pdfrwt>
<totfact> 0.22062618E+00</totfact>
</mgrwt>
<rwgt>
<wgt id='morphing_basis_vector_1'> +5.6762833e-05 </wgt>
<wgt id='morphing_basis_vector_2'> +3.8502461e-05 </wgt>
<wgt id='morphing_basis_vector_3'> +6.1707211e-05 </wgt>
<wgt id='morphing_basis_vector_4'> +4.3493086e-05 </wgt>
<wgt id='morphing_basis_vector_5'> +6.9743393e-05 </wgt>
</rwgt>
</event>
<event>
 4      1 +7.3133000e-09 2.71888400e+03 7.81860800e-03 7.82738300e-02
        2 -1    0    0  501    0 +0.0000000000e+00 +0.0000000000e+00 +2.1091710269e+03 2.1091710269e+03 0.0000000000e+00 0.0000e+00 -1.0000e+00
       -2 -1    0    0    0  501 -0.0000000000e+00 -0.0000000000e+00 -8.7621291224e+02 8.7621291224e+02 0.0000000000e+00 0.0000e+00 1.0000e+00
      -13  1    1    2    0    0 -9.0730055150e+02 +8.0426713043e+02 -5.8639525952e+01 1.2138692277e+03 0.0000000000e+00 0.0000e+00 1.0000e+00
       13  1    1    2    0    0 +9.0730055150e+02 -8.0426713043e+02 +1.2915976406e+03 1.7715147115e+03 0.0000000000e+00 0.0000e+00 -1.0000e+00
<mgrwt>
<rscale>  0 0.27188842E+04</rscale>
<asrwt>0</asrwt>
<pdfrwt beam="1">  1        2 0.32448785E+00 0.27188842E+04</pdfrwt>
<pdfrwt beam="2">  1       -2 0.13480199E+00 0.27188842E+04</pdfrwt>
<totfact> 0.24807079E+00</totfact>
</mgrwt>
<rwgt>
<wgt id='morphing_basis_vector_1'> +5.5275320e-05 </wgt>
<wgt id='morphing_basis_vector_2'> +3.7897347e-05 </wgt>
<wgt id='morphing_basis_vector_3'> +6.0154783e-05 </wgt>
<wgt id='morphing_basis_vector_4'> +4.1813138e-05 </wgt>
<wgt id='morphing_basis_vector_5'> +6.7618387e-05 </wgt>
</rwgt>
</event>
<event>
 4      1 +7.3133000e-09 2.74330000e+03 7.81860800e-03 7.82049400e-02
        2 -1    0    0  501    0 +0.0000000000e+00 +0.0000000000e+00 +1.4020123177e+03 1.4020123177e+03 0.0000000000e+00 0.0000e+00 1.0000e+00
       -2 -1    0    0    0  501 -0.0000000000e+00 -0.0000000000e+00 -1.3419454147e+03 1.3419454147e+03 0.0000000000e+00 0.0000e+00 -1.0000e+00
      -13  1    1    2    0    0 +9.2118313732e+02 -8.7372792081e+02 -4.8917202666e+02 1.3606131426e+03 0.0000000000e+00 0.0000e+00 -1.0000e+00
       13  1    1    2    0    0 -9.2118313732e+02 +8.7372792081e+02 +5.4923892966e+02 1.3833445897e+03 0.0000000000e+00 0.0000e+00 1.0000e+00
<mgrwt>
<rscale>  0 0.27433002E+04</rscale>
<asrwt>0</asrwt>
<pdfrwt beam="1">  1        2 0.21569420E+00 0.27433002E+04</pdfrwt>
<pdfrwt beam="2">  1       -2 0.20645314E+00 0.27433002E+04</pdfrwt>
<totfact> 0.16873307E+00</totfact>
</mgrwt>
<rwgt>
<wgt id='morphing_basis_vector_1'> +5.7401851e-05 </wgt>
<wgt id='morphing_basis_vector_2'> +3.9672897e-05 </wgt>
<wgt id='morphing_basis_vector_3'> +6.2554731e-05 </wgt>
<wgt id='morphing_basis_vector_4'> +4.3069387e-05 </wgt>
<wgt id='morphing_basis_vector_5'> +7.0083951e-05 </wgt>
</rwgt>
</event>
<event>
 4      1 +7.3133000e-09 2.70514100e+03 7.81860800e-03 7.83129300e-02
        2 -1    0    0  501    0 +0.0000000000e+00 +0.0000000000e+00 +1.7601943606e+03 1.7601943606e+03 0.0000000000e+00 0.0000e+00 -1.0000e+00
       -2 -1    0    0    0  501 -0.0000000000e+00 -0.0000000000e+00 -1.0393433458e+03 1.0393433458e+03 0.0000000000e+00 0.0000e+00 1.0000e+00
      -13  1    1    2    0    0 +6.1953362633e+02 -6.0860287405e+02 +1.4335412310e+03 1.6760846737e+03 0.0000000000e+00 0.0000e+00 -1.0000e+00
       13  1    1    2    0    0 -6.1953362633e+02 +6.0860287405e+02 -7.1269021615e+02 1.1234530327e+03 0.0000000000e+00 0.0000e+00 1.0000e+00
<mgrwt>
<rscale>  0 0.27051405E+04</rscale>
<asrwt>0</asrwt>
<pdfrwt beam="1">  1        2 0.27079913E+00 0.27051405E+04</pdfrwt>
<pdfrwt beam="2">  1       -2 0.15989898E+00 0.27051405E+04</pdfrwt>
<totfact> 0.24037775E+00</totfact>
</mgrwt>
<rwgt>
<wgt id='morphing_basis_vector_1'> +7.1097035e-05 </wgt>
<wgt id='morphing_basis_vector_2'> +8.7018345e-05 </wgt>
<wgt id='morphing_basis_vector_3'> +8.5084045e-05 </wgt>
<wgt id='morphing_basis_vector_4'> +6.0309667e-06 </wgt>
<wgt id='morphing_basis_vector_5'> +6.3396678e-05 </wgt>
</rwgt>
</event>
<event>
 4      1 +7.3133000e-09 2.77682500e+03 7.81860800e-03 7.81115400e-02
        2 -1    0    0  501    0 +0.0000000000e+00 +0.0000000000e+00 +1.6624281522e+03 1.6624281522e+03 0.0000000000e+00 0.0000e+00 -1.0000e+00
       -2 -1    0    0    0  501 -0.0000000000e+00 -0.0000000000e+00 -1.1595622573e+03 1.1595622573e+03 0.0000000000e+00 0.0000e+00 1.0000e+00
      -13  1    1    2    0    0 +7.9628336465e+02 -4.0313354126e+02 -8.2939990959e+02 1.2183956906e+03 0.0000000000e+00 0.0000e+00 1.0000e+00
       13  1    1    2    0    0 -7.9628336465e+02 +4.0313354126e+02 +1.3322658045e+03 1.6035947190e+03 0.0000000000e+00 0.0000e+00 -1.0000e+00
<mgrwt>
<rscale>  0 0.27768248E+04</rscale>
<asrwt>0</asrwt>
<pdfrwt beam="1">  1        2 0.25575818E+00 0.27768248E+04</pdfrwt>
<pdfrwt beam="2">  1       -2 0.17839419E+00 0.27768248E+04</pdfrwt>
<totfact> 0.19418417E+00</totfact>
</mgrwt>
<rwgt>
<wgt id='morphing_basis_vector_1'> +5.9786909e-05 </wgt>
<wgt id='morphing_basis_vector_2'> +4.0337769e-05 </wgt>
<wgt id='morphing_basis_vector_3'> +6.4983074e-05 </wgt>
<wgt id='morphing_basis_vector_4'> +4.6149448e-05 </wgt>
<wgt id='morphing_basis_vector_5'> +7.3685201e-05 </wgt>
</rwgt>
</event>
<event>
 4      1 +7.3133000e-09 2.72162900e+03 7.81860800e-03 7.82660500e-02
        2 -1    0    0  501    0 +0.0000000000e+00 +0.0000000000e+00 +1.5269531985e+03 1.5269531985e+03 0.0000000000e+00 0.0000e+00 -1.0000e+00
       -2 -1    0    0    0  501 -0.0000000000e+00 -0.0000000000e+00 -1.2127524605e+03 1.2127524605e+03 0.0000000000e+00 0.0000e+00 1.0000e+00
      -13  1    1    2    0    0 -9.0972529687e+02 -8.1728699496e+02 -4.4373755926e+02 1.3009462592e+03 0.0000000000e+00 0.0000e+00 1.0000e+00
       13  1    1    2    0    0 +9.0972529687e+02 +8.1728699496e+02 +7.5793829723e+02 1.4387593997e+03 0.0000000000e+00 0.0000e+00 -1.0000e+00
<mgrwt>
<rscale>  0 0.27216291E+04</rscale>
<asrwt>0</asrwt>
<pdfrwt beam="1">  1        2 0.23491587E+00 0.27216291E+04</pdfrwt>
<pdfrwt beam="2">  1       -2 0.18657730E+00 0.27216291E+04</pdfrwt>
<totfact> 0.20137627E+00</totfact>
</mgrwt>
<rwgt>
<wgt id='morphing_basis_vector_1'> +5.5518260e-05 </wgt>
<wgt id='morphing_basis_vector_2'> +3.8114325e-05 </wgt>
<wgt id='morphing_basis_vector_3'> +6.0431707e-05 </wgt>
<wgt id='morphing_basis_vector_4'> +4.1938868e-05 </wgt>
<wgt id='morphing_basis_vector_5'> +6.7891127e-05 </wgt>
</rwgt>
</event>
<event>
 4      1 +7.3133000e-09 2.68851400e+03 7.81860800e-03 7.83605400e-02
        2 -1    0    0  501    0 +0.0000000000e+00 +0.0000000000e+00 +2.1900477852e+03 2.1900477852e+03 0.0000000000e+00 0.0000e+00 -1.0000e+00
       -2 -1    0    0    0  501 -0.0000000000e+00 -0.0000000000e+00 -8.2510858844e+02 8.2510858844e+02 0.0000000000e+00 0.0000e+00 1.0000e+00
      -13  1    1    2    0    0 -1.2048428678e+03 -3.6428829956e+02 +1.5325335787e+02 1.2680058726e+03 0.0000000000e+00 0.0000e+00 1.0000e+00
       13  1    1    2    0    0 +1.2048428678e+03 +3.6428829956e+02 +1.2116858389e+03 1.7471505011e+03 0.0000000000e+00 0.0000e+00 -1.0000e+00
<mgrwt>
<rscale>  0 0.26885143E+04</rscale>
<asrwt>0</asrwt>
<pdfrwt beam="1">  1        2 0.33693043E+00 0.26885143E+04</pdfrwt>
<pdfrwt beam="2">  1       -2 0.12693978E+00 0.26885143E+04</pdfrwt>
<totfact> 0.26278392E+00</totfact>
</mgrwt>
<rwgt>
<wgt id='morphing_basis_vector_1'> +5.3055101e-05 </wgt>
<wgt id='morphing_basis_vector_2'> +3.6776348e-05 </wgt>
<wgt id='morphing_basis_vector_3'> +5.7794201e-05 </wgt>
<wgt id='morphing_basis_vector_4'> +3.9581483e-05 </wgt>
<wgt id='morphing_basis_vector_5'> +6.4585121e-05 </wgt>
</rwgt>
</event>
<event>
 4      1 +7.3133000e-09 2.91258700e+03 7.81860800e-03 7.77465200e-02
        2 -1    0    0  501    0 +0.0000000000e+00 +0.0000000000e+00 +8.9065195225e+02 8.9065195225e+02 0.0000000000e+00 0.0000e+00 1.0000e+00
       -2 -1    0    0    0  501 -0.0000000000e+00 -0.0000000000e+00 -2.3811662456e+03 2.3811662456e+03 0.0000000000e+00 0.0000e+00 -1.0000e+00
      -13  1    1    2    0    0 -1.2763255743e+03 -1.5768403096e+02 -1.5128503765e+03 1.9855949957e+03 0.0000000000e+00 0.0000e+00 -1.0000e+00
       13  1    1    2    0    0 +1.2763255743e+03 +1.5768403096e+02 +2.2336083084e+01 1.2862232022e+03 0.0000000000e+00 0.0000e+00 1.0000e+00
<mgrwt>
<rscale>  0 0.29125867E+04</rscale>
<asrwt>0</asrwt>
<pdfrwt beam="1">  1        2 0.13702338E+00 0.29125867E+04</pdfrwt>
<pdfrwt beam="2">  1       -2 0.36633326E+00 0.29125867E+04</pdfrwt>
<totfact> 0.27618488E-01</totfact>
</mgrwt>
<rwgt>
<wgt id='morphing_basis_vector_1'> +7.2552469e-05 </wgt>
<wgt id='morphing_basis_vector_2'> +4.9748957e-05 </wgt>
<wgt id='morphing_basis_vector_3'> +7.9153242e-05 </wgt>
<wgt id='morphing_basis_vector_4'> +5.5281654e-05 </wgt>
<wgt id='morphing_basis_vector_5'> +8.9299596e-05 </wgt>
</rwgt>
</event>
<event>
 4      1 +7.3133000e-09 2.85996100e+03 7.81860800e-03 7.78855700e-02
        2 -1    0    0  501    0 +0.0000000000e+00 +0.0000000000e+00 +2.6239926357e+03 2.6239926357e+03 0.0000000000e+00 0.0000e+00 1.0000e+00
       -2 -1    0    0    0  501 -0.0000000000e+00 -0.0000000000e+00 -7.7928745462e+02 7.7928745462e+02 0.0000000000e+00 0.0000e+00 -1.0000e+00
      -13  1    1    2    0    0 -8.0153514805e+02 +1.1195729806e+03 +4.6310534316e+02 1.4527108492e+03 0.0000000000e+00 0.0000e+00 -1.0000e+00
       13  1    1    2    0    0 +8.0153514805e+02 -1.1195729806e+03 +1.3815998379e+03 1.9505692412e+03 0.0000000000e+00 0.0000e+00 1.0000e+00
<mgrwt>
<rscale>  0 0.28599612E+04</rscale>
<asrwt>0</asrwt>
<pdfrwt beam="1">  1        2 0.40369117E+00 0.28599612E+04</pdfrwt>
<pdfrwt beam="2">  1       -2 0.11989038E+00 0.28599612E+04</pdfrwt>
<totfact> 0.16692848E+00</totfact>
</mgrwt>
<rwgt>
<wgt id='morphing_basis_vector_1'> +6.8018149e-05 </wgt>
<wgt id='morphing_basis_vector_2'> +4.7797703e-05 </wgt>
<wgt id='morphing_basis_vector_3'> +7.4399043e-05 </wgt>
<wgt id='morphing_basis_vector_4'> +5.0278254e-05 </wgt>
<wgt id='morphing_basis_vector_5'> +8.2872051e-05 </wgt>
</rwgt>
</event>
<event>
 4      1 +7.3133000e-09 2.73450700e+03 7.81860800e-03 7.82296700e-02
        2 -1    0    0  501    0 +0.0000000000e+00 +0.0000000000e+00 +1.2728484323e+03 1.2728484323e+03 0.0000000000e+00 0.0000e+00 1.0000e+00
       -2 -1    0    0    0  501 -0.0000000000e+00 -0.0000000000e+00 -1.4686607231e+03 1.4686607231e+03 0.0000000000e+00 0.0000e+00 -1.0000e+00
      -13  1    1    2    0    0 -4.1313966891e+02 -1.2961799065e+03 -2.3469510272e+02 1.3805247290e+03 0.0000000000e+00 0.0000e+00 -1.0000e+00
       13  1    1    2    0    0 +4.1313966891e+02 +1.2961799065e+03 +3.8882811866e+01 1.3609844265e+03 0.0000000000e+00 0.0000e+00 1.0000e+00
<mgrwt>
<rscale>  0 0.27345073E+04</rscale>
<asrwt>0</asrwt>
<pdfrwt beam="1">  1        2 0.19582284E+00 0.27345073E+04</pdfrwt>
<pdfrwt beam="2">  1       -2 0.22594780E+00 0.27345073E+04</pdfrwt>
<totfact> 0.14519336E+00</totfact>
</mgrwt>
<rwgt>
<wgt id='morphing_basis_vector_1'> +5.7650977e-05 </wgt>
<wgt id='morphing_basis_vector_2'> +4.2039085e-05 </wgt>
<wgt id='morphing_basis_vector_3'> +6.3263300e-05 </wgt>
<wgt id='morphing_basis_vector_4'> +4.0501900e-05 </wgt>
<wgt id='morphing_basis_vector_5'> +6.9015958e-05 </wgt>
</rwgt>
</event>
<event>
 4      1 +7.3133000e-09 2.78600000e+03 7.81860800e-03 7.80862100e-02
        2 -1    0    0  501    0 +0.0000000000e+00 +0.0000000000e+00 +1.6567097251e+03 1.6567097251e+03 0.0000000000e+00 0.0000e+00 -1.0000e+00
       -2 -1    0    0    0  501 -0.0000000000e+00 -0.0000000000e+00 -1.1712665154e+03 1.1712665154e+03 0.0000000000e+00 0.0000e+00 1.0000e+00
      -13  1    1    2    0    0 -7.2701529383e+02 -1.0638344306e+03 +7.7999194025e+02 1.5062145797e+03 0.0000000000e+00 0.0000e+00 1.0000e+00
       13  1    1    2    0    0 +7.2701529383e+02 +1.0638344306e+03 -2.9454873061e+02 1.3217616608e+03 0.0000000000e+00 0.0000e+00 -1.0000e+00
<mgrwt>
<rscale>  0 0.27859997E+04</rscale>
<asrwt>0</asrwt>
<pdfrwt beam="1">  1        2 0.25487842E+00 0.27859997E+04</pdfrwt>
<pdfrwt beam="2">  1       -2 0.18019485E+00 0.27859997E+04</pdfrwt>
<totfact> 0.18939473E+00</totfact>
</mgrwt>
<rwgt>
<wgt id='morphing_basis_vector_1'> +6.8437788e-05 </wgt>
<wgt id='morphing_basis_vector_2'> +6.4051440e-05 </wgt>
<wgt id='morphing_basis_vector_3'> +7.8044547e-05 </wgt>
<wgt id='morphing_basis_vector_4'> +3.0486878e-05 </wgt>
<wgt id='morphing_basis_vector_5'> +7.3342683e-05 </wgt>
</rwgt>
</event>
<event>
 4      1 +7.3133000e-09 2.69526400e+03 7.81860800e-03 7.83411700e-02
        2 -1    0    0  501    0 +0.0000000000e+00 +0.0000000000e+00 +2.8133984488e+03 2.8133984488e+03 0.0000000000e+00 0.0000e+00 1.0000e+00
       -2 -1    0    0    0  501 -0.0000000000e+00 -0.0000000000e+00 -6.4552263109e+02 6.4552263109e+02 0.0000000000e+00 0.0000e+00 -1.0000e+00
      -13  1    1    2    0    0 +4.6702944638e+02 -4.1293952820e+01 -5.3748120217e+02 7.1323750393e+02 0.0000000000e+00 0.0000e+00 -1.0000e+00
       13  1    1    2    0    0 -4.6702944638e+02 +4.1293952820e+01 +2.7053570199e+03 2.7456835760e+03 0.0000000000e+00 0.0000e+00 1.0000e+00
<mgrwt>
<rscale>  0 0.26952643E+04</rscale>
<asrwt>0</asrwt>
<pdfrwt beam="1">  1        2 0.43283052E+00 0.26952643E+04</pdfrwt>
<pdfrwt beam="2">  1       -2 0.99311176E-01 0.26952643E+04</pdfrwt>
<totfact> 0.20708197E+00</totfact>
</mgrwt>
<rwgt>
<wgt id='morphing_basis_vector_1'> +5.3099505e-05 </wgt>
<wgt id='morphing_basis_vector_2'> +3.5717199e-05 </wgt>
<wgt id='morphing_basis_vector_3'> +5.7628629e-05 </wgt>
<wgt id='morphing_basis_vector_4'> +4.0984614e-05 </wgt>
<wgt id='morphing_basis_vector_5'> +6.5324930e-05 </wgt>
</rwgt>
</event>
<event>
 4      1 +7.3133000e-09 2.89642400e+03 7.81860800e-03 7.77889100e-02
        2 -1    0    0  501    0 +0.0000000000e+00 +0.0000000000e+00 +1.5612696082e+03 1.5612696082e+03 0.0000000000e+00 0.0000e+00 -1.0000e+00
       -2 -1    0    0    0  501 -0.0000000000e+00 -0.0000000000e+00 -1.3433412394e+03 1.3433412394e+03 0.0000000000e+00 0.0000e+00 1.0000e+00
      -13  1    1    2    0    0 -2.5027053819e+02 +4.2564102872e+02 -1.2563215734e+03 1.3498701877e+03 0.0000000000e+00 0.0000e+00 1.0000e+00
       13  1    1    2    0    0 +2.5027053819e+02 -4.2564102872e+02 +1.4742499422e+03 1.5547406600e+03 0.0000000000e+00 0.0000e+00 -1.0000e+00
<mgrwt>
<rscale>  0 0.28964239E+04</rscale>
<asrwt>0</asrwt>
<pdfrwt beam="1">  1        2 0.24019532E+00 0.28964239E+04</pdfrwt>
<pdfrwt beam="2">  1       -2 0.20666788E+00 0.28964239E+04</pdfrwt>
<totfact> 0.13511030E+00</totfact>
</mgrwt>
<rwgt>
<wgt id='morphing_basis_vector_1'> +7.0603161e-05 </wgt>
<wgt id='morphing_basis_vector_2'> +4.7575608e-05 </wgt>
<wgt id='morphing_basis_vector_3'> +7.6838977e-05 </wgt>
<wgt id='morphing_basis_vector_4'> +5.4816784e-05 </wgt>
<wgt id='morphing_basis_vector_5'> +8.7378046e-05 </wgt>
</rwgt>
</event>
<event>
 4      1 +7.3133000e-09 2.71702400e+03 7.81860800e-03 7.82791100e-02
        2 -1    0    0  501    0 +0.0000000000e+00 +0.0000000000e+00 +2.8743303697e+03 2.8743303697e+03 0.0000000000e+00 0.0000e+00 1.0000e+00
       -2 -1    0    0    0  501 -0.0000000000e+00 -0.0000000000e+00 -6.4208155832e+02 6.4208155832e+02 0.0000000000e+00 0.0000e+00 -1.0000e+00
      -13  1    1    2    0    0 +3.9955715990e+02 +6.7855226893e+02 -3.1658664540e+02 8.4870855407e+02 0.0000000000e+00 0.0000e+00 -1.0000e+00
       13  1    1    2    0    0 -3.9955715990e+02 -6.7855226893e+02 +2.5488354568e+03 2.6677033740e+03 0.0000000000e+00 0.0000e+00 1.0000e+00
<mgrwt>
<rscale>  0 0.27170238E+04</rscale>
<asrwt>0</asrwt>
<pdfrwt beam="1">  1        2 0.44220466E+00 0.27170238E+04</pdfrwt>
<pdfrwt beam="2">  1       -2 0.98781780E-01 0.27170238E+04</pdfrwt>
<totfact> 0.19159498E+00</totfact>
</mgrwt>
<rwgt>
<wgt id='morphing_basis_vector_1'> +5.4836373e-05 </wgt>
<wgt id='morphing_basis_vector_2'> +3.6940859e-05 </wgt>
<wgt id='morphing_basis_vector_3'> +5.9542959e-05 </wgt>
<wgt id='morphing_basis_vector_4'> +4.2295550e-05 </wgt>
<wgt id='morphing_basis_vector_5'> +6.7480304e-05 </wgt>
</rwgt>
</event>
<event>
 4      1 +7.3133000e-09 2.77367500e+03 7.81860800e-03 7.81202600e-02
        2 -1    0    0  501    0 +0.0000000000e+00 +0.0000000000e+00 +2.7437985402e+03 2.7437985402e+03 0.0000000000e+00 0.0000e+00 1.0000e+00
       -2 -1    0    0    0  501 -0.0000000000e+00 -0.0000000000e+00 -7.0096917441e+02 7.0096917441e+02 0.0000000000e+00 0.0000e+00 -1.0000e+00
      -13  1    1    2    0    0 +1.2258070796e+03 +5.1597889409e+02 +1.5095518615e+03 2.0118608397e+03 0.0000000000e+00 0.0000e+00 1.0000e+00
       13  1    1    2    0    0 -1.2258070796e+03 -5.1597889409e+02 +5.3327750422e+02 1.4329068749e+03 0.0000000000e+00 0.0000e+00 -1.0000e+00
<mgrwt>
<rscale>  0 0.27736750E+04</rscale>
<asrwt>0</asrwt>
<pdfrwt beam="1">  1        2 0.42212285E+00 0.27736750E+04</pdfrwt>
<pdfrwt beam="2">  1       -2 0.10784141E+00 0.27736750E+04</pdfrwt>
<totfact> 0.18578754E+00</totfact>
</mgrwt>
<rwgt>
<wgt id='morphing_basis_vector_1'> +6.5222421e-05 </wgt>
<wgt id='morphing_basis_vector_2'> +5.6965739e-05 </wgt>
<wgt id='morphing_basis_vector_3'> +7.3529853e-05 </wgt>
<wgt id='morphing_basis_vector_4'> +3.4136019e-05 </wgt>
<wgt id='morphing_basis_vector_5'> +7.2383212e-05 </wgt>
</rwgt>
</event>
<event>
 4      1 +7.3133000e-09 2.75295100e+03 7.81860800e-03 7.81779200e-02
        2 -1    0    0  501    0 +0.0000000000e+00 +0.0000000000e+00 +3.5751177581e+03 3.5751177581e+03 0.0000000000e+00 0.0000e+00 1.0000e+00
       -2 -1    0    0    0  501 -0.0000000000e+00 -0.0000000000e+00 -5.2996438323e+02 5.2996438323e+02 0.0000000000e+00 0.0000e+00 -1.0000e+00
      -13  1    1    2    0    0 +5.2290702691e+02 -1.2688601432e+03 +1.3644349058e+03 1.9352313644e+03 0.0000000000e+00 0.0000e+00 -1.0000e+00
       13  1    1    2    0    0 -5.2290702691e+02 +1.2688601432e+03 +1.6807184691e+03 2.1698507769e+03 0.0000000000e+00 0.0000e+00 1.0000e+00
<mgrwt>
<rscale>  0 0.27529512E+04</rscale>
<asrwt>0</asrwt>
<pdfrwt beam="1">  1        2 0.55001810E+00 0.27529512E+04</pdfrwt>
<pdfrwt beam="2">  1       -2 0.81532984E-01 0.27529512E+04</pdfrwt>
<totfact> 0.98911828E-01</totfact>
</mgrwt>
<rwgt>
<wgt id='morphing_basis_vector_1'> +5.9335436e-05 </wgt>
<wgt id='morphing_basis_vector_2'> +4.3563324e-05 </wgt>
<wgt id='morphing_basis_vector_3'> +6.5189607e-05 </wgt>
<wgt id='morphing_basis_vector_4'> +4.1347355e-05 </wgt>
<wgt id='morphing_basis_vector_5'> +7.0894954e-05 </wgt>
</rwgt>
</event>
<event>
 4      1 +7.3133000e-09 3.20733600e+03 7.81860800e-03 7.70196800e-02
        2 -1    0    0  501    0 +0.0000000000e+00 +0.0000000000e+00 +2.1009198475e+03 2.1009198475e+03 0.0000000000e+00 0.0000e+00 -1.0000e+00
       -2 -1    0    0    0  501 -0.0000000000e+00 -0.0000000000e+00 -1.2241075524e+03 1.2241075524e+03 0.0000000000e+00 0.0000e+00 1.0000e+00
      -13  1    1    2    0    0 +1.6017647398e+03 -7.4620922096e+01 +4.1446572165e+02 1.6562005912e+03 0.0000000000e+00 0.0000e+00 1.0000e+00
       13  1    1    2    0    0 -1.6017647398e+03 +7.4620922096e+01 +4.6234657344e+02 1.6688268088e+03 0.0000000000e+00 0.0000e+00 -1.0000e+00
<mgrwt>
<rscale>  0 0.32073365E+04</rscale>
<asrwt>0</asrwt>
<pdfrwt beam="1">  1        2 0.32321844E+00 0.32073365E+04</pdfrwt>
<pdfrwt beam="2">  1       -2 0.18832424E+00 0.32073365E+04</pdfrwt>
<totfact> 0.89553955E-01</totfact>
</mgrwt>
<rwgt>
<wgt id='morphing_basis_vector_1'> +1.0946252e-04 </wgt>
<wgt id='morphing_basis_vector_2'> +8.2278013e-05 </wgt>
<wgt id='morphing_basis_vector_3'> +1.2131324e-04 </wgt>
<wgt id='morphing_basis_vector_4'> +7.4996547e-05 </wgt>
<wgt id='morphing_basis_vector_5'> +1.3120632e-04 </wgt>
</rwgt>
</event>
<event>
 4      1 +7.3133000e-09 2.99419400e+03 7.81860800e-03 7.75366700e-02
        2 -1    0    0  501    0 +0.0000000000e+00 +0.0000000000e+00 +9.5946902010e+02 9.5946902010e+02 0.0000000000e+00 0.0000e+00 -1.0000e+00
       -2 -1    0    0    0  501 -0.0000000000e+00 -0.0000000000e+00 -2.3359793448e+03 2.3359793448e+03 0.0000000000e+00 0.0000e+00 1.0000e+00
      -13  1    1    2    0    0 +1.2578902527e+03 +4.2115389693e+02 -1.4520846269e+03 1.9667761073e+03 0.0000000000e+00 0.0000e+00 1.0000e+00
       13  1    1    2    0    0 -1.2578902527e+03 -4.2115389693e+02 +7.5574302240e+01 1.3286722575e+03 0.0000000000e+00 0.0000e+00 -1.0000e+00
<mgrwt>
<rscale>  0 0.29941943E+04</rscale>
<asrwt>0</asrwt>
<pdfrwt beam="1">  1        2 0.14761062E+00 0.29941943E+04</pdfrwt>
<pdfrwt beam="2">  1       -2 0.35938144E+00 0.29941943E+04</pdfrwt>
<totfact> 0.27444325E-01</totfact>
</mgrwt>
<rwgt>
<wgt id='morphing_basis_vector_1'> +8.0960443e-05 </wgt>
<wgt id='morphing_basis_vector_2'> +5.5575269e-05 </wgt>
<wgt id='morphing_basis_vector_3'> +8.8418247e-05 </wgt>
<wgt id='morphing_basis_vector_4'> +6.1777887e-05 </wgt>
<wgt id='morphing_basis_vector_5'> +9.9835115e-05 </wgt>
</rwgt>
</event>
<event>
 4      1 +7.3133000e-09 2.70736900e+03 7.81860800e-03 7.83065700e-02
        2 -1    0    0  501    0 +0.0000000000e+00 +0.0000000000e+00 +1.4592637925e+03 1.4592637925e+03 0.0000000000e+00 0.0000e+00 1.0000e+00
       -2 -1    0    0    0  501 -0.0000000000e+00 -0.0000000000e+00 -1.2557438831e+03 1.2557438831e+03 0.0000000000e+00 0.0000e+00 -1.0000e+00
      -13  1    1    2    0    0 +9.3527255417e+02 -1.4876568865e+02 -8.6823106264e+02 1.2847922629e+03 0.0000000000e+00 0.0000e+00 -1.0000e+00
       13  1    1    2    0    0 -9.3527255417e+02 +1.4876568865e+02 +1.0717509721e+03 1.4302154127e+03 0.0000000000e+00 0.0000e+00 1.0000e+00
<mgrwt>
<rscale>  0 0.27073689E+04</rscale>
<asrwt>0</asrwt>
<pdfrwt beam="1">  1        2 0.22450212E+00 0.27073689E+04</pdfrwt>
<pdfrwt beam="2">  1       -2 0.19319137E+00 0.27073689E+04</pdfrwt>
<totfact> 0.19642019E+00</totfact>
</mgrwt>
<rwgt>
<wgt id='morphing_basis_vector_1'> +5.4107569e-05 </wgt>
<wgt id='morphing_basis_vector_2'> +3.6532816e-05 </wgt>
<wgt id='morphing_basis_vector_3'> +5.8760450e-05 </wgt>
<wgt id='morphing_basis_vector_4'> +4.1612913e-05 </wgt>
<wgt id='morphing_basis_vector_5'> +6.6509565e-05 </wgt>
</rwgt>
</event>
<event>
 4      1 +7.3133000e-09 3.16387200e+03 7.81860800e-03 7.71216700e-02
        2 -1    0    0  501    0 +0.0000000000e+00 +0.0000000000e+00 +2.2844924204e+03 2.2844924204e+03 0.0000000000e+00 0.0000e+00 1.0000e+00
       -2 -1    0    0    0  501 -0.0000000000e+00 -0.0000000000e+00 -1.0954384642e+03 1.0954384642e+03 0.0000000000e+00 0.0000e+00 -1.0000e+00
      -13  1    1    2    0    0 -7.4074419764e+02 -5.1601731735e+02 +1.9822942948e+03 2.1781796321e+03 0.0000000000e+00 0.0000e+00 1.0000e+00
       13  1    1    2    0    0 +7.4074419764e+02 +5.1601731735e+02 -7.9324033862e+02 1.2017512525e+03 0.0000000000e+00 0.0000e+00 -1.0000e+00
<mgrwt>
<rscale>  0 0.31638716E+04</rscale>
<asrwt>0</asrwt>
<pdfrwt beam="1">  1        2 0.35146037E+00 0.31638716E+04</pdfrwt>
<pdfrwt beam="2">  1       -2 0.16852899E+00 0.31638716E+04</pdfrwt>
<totfact> 0.99887244E-01</totfact>
</mgrwt>
<rwgt>
<wgt id='morphing_basis_vector_1'> +1.3435019e-04 </wgt>
<wgt id='morphing_basis_vector_2'> +1.6817125e-04 </wgt>
<wgt id='morphing_basis_vector_3'> +1.6312740e-04 </wgt>
<wgt id='morphing_basis_vector_4'> +6.9221583e-06 </wgt>
<wgt id='morphing_basis_vector_5'> +1.1890294e-04 </wgt>
</rwgt>
</event>
<event>
 4      1 +7.3133000e-09 2.73579900e+03 7.81860800e-03 7.82260300e-02
        2 -1    0    0  501    0 +0.0000000000e+00 +0.0000000000e+00 +4.0661273568e+03 4.0661273568e+03 0.0000000000e+00 0.0000e+00 1.0000e+00
       -2 -1    0    0    0  501 -0.0000000000e+00 -0.0000000000e+00 -4.6017964437e+02 4.6017964437e+02 0.0000000000e+00 0.0000e+00 -1.0000e+00
      -13  1    1    2    0    0 -7.3293156776e+02 -5.8755186650e+02 +1.5783876059e+02 9.5253291449e+02 0.0000000000e+00 0.0000e+00 -1.0000e+00
       13  1    1    2    0    0 +7.3293156776e+02 +5.8755186650e+02 +3.4481089519e+03 3.5737740867e+03 0.0000000000e+00 0.0000e+00 1.0000e+00
<mgrwt>
<rscale>  0 0.27357990E+04</rscale>
<asrwt>0</asrwt>
<pdfrwt beam="1">  1        2 0.62555803E+00 0.27357990E+04</pdfrwt>
<pdfrwt beam="2">  1       -2 0.70796871E-01 0.27357990E+04</pdfrwt>
<totfact> 0.54687035E-01</totfact>
</mgrwt>
<rwgt>
<wgt id='morphing_basis_vector_1'> +5.6384222e-05 </wgt>
<wgt id='morphing_basis_vector_2'> +3.8066265e-05 </wgt>
<wgt id='morphing_basis_vector_3'> +6.1256180e-05 </wgt>
<wgt id='morphing_basis_vector_4'> +4.3420361e-05 </wgt>
<wgt id='morphing_basis_vector_5'> +6.9379847e-05 </wgt>
</rwgt>
</event>
<event>
 4      1 +7.3133000e-09 3.16565600e+03 7.81860800e-03 7.71174500e-02
        2 -1    0    0  501    0 +0.0000000000e+00 +0.0000000000e+00 +2.4918313194e+03 2.4918313194e+03 0.0000000000e+00 0.0000e+00 -1.0000e+00
       -2 -1    0    0    0  501 -0.0000000000e+00 -0.0000000000e+00 -1.0054230535e+03 1.0054230535e+03 0.0000000000e+00 0.0000e+00 1.0000e+00
      -13  1    1    2    0    0 -1.8826663147e+02 +1.1221698309e+03 -4.7233833121e+02 1.2319955167e+03 0.0000000000e+00 0.0000e+00 1.0000e+00
       13  1    1    2    0    0 +1.8826663147e+02 -1.1221698309e+03 +1.9587465971e+03 2.2652588562e+03 0.0000000000e+00 0.0000e+00 -1.0000e+00
<mgrwt>
<rscale>  0 0.31656561E+04</rscale>
<asrwt>0</asrwt>
<pdfrwt beam="1">  1        2 0.38335866E+00 0.31656561E+04</pdfrwt>
<pdfrwt beam="2">  1       -2 0.15468047E+00 0.31656561E+04</pdfrwt>
<totfact> 0.97284383E-01</totfact>
</mgrwt>
<rwgt>
<wgt id='morphing_basis_vector_1'> +1.0055562e-04 </wgt>
<wgt id='morphing_basis_vector_2'> +6.8178111e-05 </wgt>
<wgt id='morphing_basis_vector_3'> +1.0982105e-04 </wgt>
<wgt id='morphing_basis_vector_4'> +7.8188924e-05 </wgt>
<wgt id='morphing_basis_vector_5'> +1.2504794e-04 </wgt>
</rwgt>
</event>
<event>
 4      1 +7.3133000e-09 2.69727700e+03 7.81860800e-03 7.83354000e-02
        2 -1    0    0  501    0 +0.0000000000e+00 +0.0000000000e+00 +1.3684268528e+03 1.3684268528e+03 0.0000000000e+00 0.0000e+00 -1.0000e+00
       -2 -1    0    0    0  501 -0.0000000000e+00 -0.0000000000e+00 -1.3291363643e+03 1.3291363643e+03 0.0000000000e+00 0.0000e+00 1.0000e+00
      -13  1    1    2    0    0 -3.9085685100e+02 +1.2157546093e+03 -4.1398759025e+02 1.3424656691e+03 0.0000000000e+00 0.0000e+00 1.0000e+00
       13  1    1    2    0    0 +3.9085685100e+02 -1.2157546093e+03 +4.5327807869e+02 1.3550975480e+03 0.0000000000e+00 0.0000e+00 -1.0000e+00
<mgrwt>
<rscale>  0 0.26972771E+04</rscale>
<asrwt>0</asrwt>
<pdfrwt beam="1">  1        2 0.21052721E+00 0.26972771E+04</pdfrwt>
<pdfrwt beam="2">  1       -2 0.20448252E+00 0.26972771E+04</pdfrwt>
<totfact> 0.18287543E+00</totfact>
</mgrwt>
<rwgt>
<wgt id='morphing_basis_vector_1'> +5.3809939e-05 </wgt>
<wgt id='morphing_basis_vector_2'> +3.7455111e-05 </wgt>
<wgt id='morphing_basis_vector_3'> +5.8655381e-05 </wgt>
<wgt id='morphing_basis_vector_4'> +3.9966065e-05 </wgt>
<wgt id='morphing_basis_vector_5'> +6.5429248e-05 </wgt>
</rwgt>
</event>
<event>
 4      1 +7.3133000e-09 3.08072800e+03 7.81860800e-03 7.73215700e-02
        2 -1    0    0  501    0 +0.0000000000e+00 +0.0000000000e+00 +2.4645676141e+03 2.4645676141e+03 0.0000000000e+00 0.0000e+00 -1.0000e+00
       -2 -1    0    0    0  501 -0.0000000000e+00 -0.0000000000e+00 -9.6273311506e+02 9.6273311506e+02 0.0000000000e+00 0.0000e+00 1.0000e+00
      -13  1    1    2    0    0 -4.2741578484e+01 +1.0340478124e+03 -5.1832404309e+02 1.1574720448e+03 0.0000000000e+00 0.0000e+00 1.0000e+00
       13  1    1    2    0    0 +4.2741578484e+01 -1.0340478124e+03 +2.0201585421e+03 2.2698286843e+03 0.0000000000e+00 0.0000e+00 -1.0000e+00
<mgrwt>
<rscale>  0 0.30807277E+04</rscale>
<asrwt>0</asrwt>
<pdfrwt beam="1">  1        2 0.37916425E+00 0.30807277E+04</pdfrwt>
<pdfrwt beam="2">  1       -2 0.14811279E+00 0.30807277E+04</pdfrwt>
<totfact> 0.11520033E+00</totfact>
</mgrwt>
<rwgt>
<wgt id='morphing_basis_vector_1'> +9.0236506e-05 </wgt>
<wgt id='morphing_basis_vector_2'> +6.1064383e-05 </wgt>
<wgt id='morphing_basis_vector_3'> +9.8449652e-05 </wgt>
<wgt id='morphing_basis_vector_4'> +7.0146638e-05 </wgt>
<wgt id='morphing_basis_vector_5'> +1.1206594e-04 </wgt>
</rwgt>
</event>
<event>
 4      1 +7.3133000e-09 2.97584500e+03 7.81860800e-03 7.75832500e-02
        2 -1    0    0  501    0 +0.0000000000e+00 +0.0000000000e+00 +2.5238934700e+03 2.5238934700e+03 0.0000000000e+00 0.0000e+00 -1.0000e+00
       -2 -1    0    0    0  501 -0.0000000000e+00 -0.0000000000e+00 -8.7718196337e+02 8.7718196337e+02 0.0000000000e+00 0.0000e+00 1.0000e+00
      -13  1    1    2    0    0 +1.3711177108e+03 +2.7446863978e+02 +1.4045676058e+03 1.9819452491e+03 0.0000000000e+00 0.0000e+00 1.0000e+00
       13  1    1    2    0    0 -1.3711177108e+03 -2.7446863978e+02 +2.4214390082e+02 1.4191301843e+03 0.0000000000e+00 0.0000e+00 -1.0000e+00
<mgrwt>
<rscale>  0 0.29758453E+04</rscale>
<asrwt>0</asrwt>
<pdfrwt beam="1">  1        2 0.38829130E+00 0.29758453E+04</pdfrwt>
<pdfrwt beam="2">  1       -2 0.13495107E+00 0.29758453E+04</pdfrwt>
<totfact> 0.13877303E+00</totfact>
</mgrwt>
<rwgt>
<wgt id='morphing_basis_vector_1'> +8.7724120e-05 </wgt>
<wgt id='morphing_basis_vector_2'> +7.9891110e-05 </wgt>
<wgt id='morphing_basis_vector_3'> +9.9895607e-05 </wgt>
<wgt id='morphing_basis_vector_4'> +4.2135638e-05 </wgt>
<wgt id='morphing_basis_vector_5'> +9.5899727e-05 </wgt>
</rwgt>
</event>
<event>
 4      1 +7.3133000e-09 2.76727900e+03 7.81860800e-03 7.81380000e-02
        2 -1    0    0  501    0 +0.0000000000e+00 +0.0000000000e+00 +2.1589409827e+03 2.1589409827e+03 0.0000000000e+00 0.0000e+00 -1.0000e+00
       -2 -1    0    0    0  501 -0.0000000000e+00 -0.0000000000e+00 -8.8675804557e+02 8.8675804557e+02 0.0000000000e+00 0.0000e+00 1.0000e+00
      -13  1    1    2    0    0 +2.6507397835e+02 +7.2539009643e+02 -6.2745809081e+02 9.9506716442e+02 0.0000000000e+00 0.0000e+00 1.0000e+00
       13  1    1    2    0    0 -2.6507397835e+02 -7.2539009643e+02 +1.8996410279e+03 2.0506318638e+03 0.0000000000e+00 0.0000e+00 -1.0000e+00
<mgrwt>
<rscale>  0 0.27672790E+04</rscale>
<asrwt>0</asrwt>
<pdfrwt beam="1">  1        2 0.33214477E+00 0.27672790E+04</pdfrwt>
<pdfrwt beam="2">  1       -2 0.13642431E+00 0.27672790E+04</pdfrwt>
<totfact> 0.22394344E+00</totfact>
</mgrwt>
<rwgt>
<wgt id='morphing_basis_vector_1'> +5.8956358e-05 </wgt>
<wgt id='morphing_basis_vector_2'> +3.9725552e-05 </wgt>
<wgt id='morphing_basis_vector_3'> +6.4061792e-05 </wgt>
<wgt id='morphing_basis_vector_4'> +4.5555855e-05 </wgt>
<wgt id='morphing_basis_vector_5'> +7.2670398e-05 </wgt>
</rwgt>
</event>
<event>
 4      1 +7.3133000e-09 3.10068900e+03 7.81860800e-03 7.72729900e-02
        2 -1    0    0  501    0 +0.0000000000e+00 +0.0000000000e+00 +2.3521841443e+03 2.3521841443e+03 0.0000000000e+00 0.0000e+00 -1.0000e+00
       -2 -1    0    0    0  501 -0.0000000000e+00 -0.0000000000e+00 -1.0218450967e+03 1.0218450967e+03 0.0000000000e+00 0.0000e+00 1.0000e+00
      -13  1    1    2    0    0 -5.4184038891e+02 -5.4585027987e+01 -9.1434143866e+02 1.0642324928e+03 0.0000000000e+00 0.0000e+00 1.0000e+00
       13  1    1    2    0    0 +5.4184038891e+02 +5.4585027987e+01 +2.2446804863e+03 2.3097967481e+03 0.0000000000e+00 0.0000e+00 -1.0000e+00
<mgrwt>
<rscale>  0 0.31006888E+04</rscale>
<asrwt>0</asrwt>
<pdfrwt beam="1">  1        2 0.36187448E+00 0.31006888E+04</pdfrwt>
<pdfrwt beam="2">  1       -2 0.15720694E+00 0.31006888E+04</pdfrwt>
<totfact> 0.11279861E+00</totfact>
</mgrwt>
<rwgt>
<wgt id='morphing_basis_vector_1'> +9.2498140e-05 </wgt>
<wgt id='morphing_basis_vector_2'> +6.2423014e-05 </wgt>
<wgt id='morphing_basis_vector_3'> +1.0089979e-04 </wgt>
<wgt id='morphing_basis_vector_4'> +7.2163260e-05 </wgt>
<wgt id='morphing_basis_vector_5'> +1.1503718e-04 </wgt>
</rwgt>
</event>
<event>
 4      1 +7.3133000e-09 3.11924800e+03 7.81860800e-03 7.72281600e-02
        2 -1    0    0  501    0 +0.0000000000e+00 +0.0000000000e+00 +3.8793592755e+03 3.8793592755e+03 0.0000000000e+00 0.0000e+00 -1.0000e+00
       -2 -1    0    0    0  501 -0.0000000000e+00 -0.0000000000e+00 -6.2701767584e+02 6.2701767584e+02 0.0000000000e+00 0.0000e+00 1.0000e+00
      -13  1    1    2    0    0 -5.5672578380e+02 -1.4444601807e+03 +1.3519896619e+03 2.0553065119e+03 0.0000000000e+00 0.0000e+00 1.0000e+00
       13  1    1    2    0    0 +5.5672578380e+02 +1.4444601807e+03 +1.9003519378e+03 2.4510704395e+03 0.0000000000e+00 0.0000e+00 -1.0000e+00
<mgrwt>
<rscale>  0 0.31192479E+04</rscale>
<asrwt>0</asrwt>
<pdfrwt beam="1">  1        2 0.59682449E+00 0.31192479E+04</pdfrwt>
<pdfrwt beam="2">  1       -2 0.96464260E-01 0.31192479E+04</pdfrwt>
<totfact> 0.37476591E-01</totfact>
</mgrwt>
<rwgt>
<wgt id='morphing_basis_vector_1'> +9.6927639e-05 </wgt>
<wgt id='morphing_basis_vector_2'> +7.0444390e-05 </wgt>
<wgt id='morphing_basis_vector_3'> +1.0681608e-04 </wgt>
<wgt id='morphing_basis_vector_4'> +6.9298345e-05 </wgt>
<wgt id='morphing_basis_vector_5'> +1.1745859e-04 </wgt>
</rwgt>
</event>
<event>
 4      1 +7.3133000e-09 2.73538400e+03 7.81860800e-03 7.82272000e-02
        2 -1    0    0  501    0 +0.0000000000e+00 +0.0000000000e+00 +1.4800834645e+03 1.4800834645e+03 0.0000000000e+00 0.0000e+00 1.0000e+00
       -2 -1    0    0    0  501 -0.0000000000e+00 -0.0000000000e+00 -1.2638348605e+03 1.2638348605e+03 0.0000000000e+00 0.0000e+00 -1.0000e+00
      -13  1    1    2    0    0 -1.3382360157e+03 +2.0300984236e+02 -8.8682764728e+01 1.3564487688e+03 0.0000000000e+00 0.0000e+00 -1.0000e+00
       13  1    1    2    0    0 +1.3382360157e+03 -2.0300984236e+02 +3.0493136875e+02 1.3874695562e+03 0.0000000000e+00 0.0000e+00 1.0000e+00
<mgrwt>
<rscale>  0 0.27353838E+04</rscale>
<asrwt>0</asrwt>
<pdfrwt beam="1">  1        2 0.22770515E+00 0.27353838E+04</pdfrwt>
<pdfrwt beam="2">  1       -2 0.19443613E+00 0.27353838E+04</pdfrwt>
<totfact> 0.18675161E+00</totfact>
</mgrwt>
<rwgt>
<wgt id='morphing_basis_vector_1'> +5.7505162e-05 </wgt>
<wgt id='morphing_basis_vector_2'> +4.1447288e-05 </wgt>
<wgt id='morphing_basis_vector_3'> +6.3005686e-05 </wgt>
<wgt id='morphing_basis_vector_4'> +4.1006948e-05 </wgt>
<wgt id='morphing_basis_vector_5'> +6.9142383e-05 </wgt>
</rwgt>
</event>
<event>
 4      1 +7.3133000e-09 2.93767500e+03 7.81860800e-03 7.76812700e-02
        2 -1    0    0  501    0 +0.0000000000e+00 +0.0000000000e+00 +1.9806175246e+03 1.9806175246e+03 0.0000000000e+00 0.0000e+00 -1.0000e+00
       -2 -1    0    0    0  501 -0.0000000000e+00 -0.0000000000e+00 -1.0892982292e+03 1.0892982292e+03 0.0000000000e+00 0.0000e+00 1.0000e+00
      -13  1    1    2    0    0 -1.3654627659e+03 -1.0780689319e+02 +9.9998329041e+02 1.6959001953e+03 0.0000000000e+00 0.0000e+00 1.0000e+00
       13  1    1    2    0    0 +1.3654627659e+03 +1.0780689319e+02 -1.0866399501e+02 1.3740155586e+03 0.0000000000e+00 0.0000e+00 -1.0000e+00
<mgrwt>
<rscale>  0 0.29376747E+04</rscale>
<asrwt>0</asrwt>
<pdfrwt beam="1">  1        2 0.30471039E+00 0.29376747E+04</pdfrwt>
<pdfrwt beam="2">  1       -2 0.16758434E+00 0.29376747E+04</pdfrwt>
<totfact> 0.15427456E+00</totfact>
</mgrwt>
<rwgt>
<wgt id='morphing_basis_vector_1'> +8.3883229e-05 </wgt>
<wgt id='morphing_basis_vector_2'> +7.7468194e-05 </wgt>
<wgt id='morphing_basis_vector_3'> +9.5690549e-05 </wgt>
<wgt id='morphing_basis_vector_4'> +3.8887061e-05 </wgt>
<wgt id='morphing_basis_vector_5'> +9.0940493e-05 </wgt>
</rwgt>
</event>
<event>
 4      1 +7.3133000e-09 3.18595100e+03 7.81860800e-03 7.70696500e-02
        2 -1    0    0  501    0 +0.0000000000e+00 +0.0000000000e+00 +1.6977501788e+03 1.6977501788e+03 0.0000000000e+00 0.0000e+00 -1.0000e+00
       -2 -1    0    0    0  501 -0.0000000000e+00 -0.0000000000e+00 -1.4946664881e+03 1.4946664881e+03 0.0000000000e+00 0.0000e+00 1.0000e+00
      -13  1    1    2    0    0 -3.0433152913e+02 +1.4181396736e+03 -5.5845455438e+02 1.5542230544e+03 0.0000000000e+00 0.0000e+00 1.0000e+00
       13  1    1    2    0    0 +3.0433152913e+02 -1.4181396736e+03 +7.6153824509e+02 1.6381936125e+03 0.0000000000e+00 0.0000e+00 -1.0000e+00
<mgrwt>
<rscale>  0 0.31859506E+04</rscale>
<asrwt>0</asrwt>
<pdfrwt beam="1">  1        2 0.26119233E+00 0.31859506E+04</pdfrwt>
<pdfrwt beam="2">  1       -2 0.22994869E+00 0.31859506E+04</pdfrwt>
<totfact> 0.75574594E-01</totfact>
</mgrwt>
<rwgt>
<wgt id='morphing_basis_vector_1'> +1.0371219e-04 </wgt>
<wgt id='morphing_basis_vector_2'> +7.1628437e-05 </wgt>
<wgt id='morphing_basis_vector_3'> +1.1356780e-04 </wgt>
<wgt id='morphing_basis_vector_4'> +7.9028118e-05 </wgt>
<wgt id='morphing_basis_vector_5'> +1.2821239e-04 </wgt>
</rwgt>
</event>
<event>
 4      1 +7.3133000e-09 2.97923400e+03 7.81860800e-03 7.75746200e-02
        2 -1    0    0  501    0 +0.0000000000e+00 +0.0000000000e+00 +1.6338918481e+03 1.6338918481e+03 0.0000000000e+00 0.0000e+00 -1.0000e+00
       -2 -1    0    0    0  501 -0.0000000000e+00 -0.0000000000e+00 -1.3580816154e+03 1.3580816154e+03 0.0000000000e+00 0.0000e+00 1.0000e+00
      -13  1    1    2    0    0 +4.5058727532e+02 -5.4322857830e+02 -1.1795093503e+03 1.3745430108e+03 0.0000000000e+00 0.0000e+00 1.0000e+00
       13  1    1    2    0    0 -4.5058727532e+02 +5.4322857830e+02 +1.4553195830e+03 1.6174304528e+03 0.0000000000e+00 0.0000e+00 -1.0000e+00
<mgrwt>
<rscale>  0 0.29792338E+04</rscale>
<asrwt>0</asrwt>
<pdfrwt beam="1">  1        2 0.25136798E+00 0.29792338E+04</pdfrwt>
<pdfrwt beam="2">  1       -2 0.20893563E+00 0.29792338E+04</pdfrwt>
<totfact> 0.11771047E+00</totfact>
</mgrwt>
<rwgt>
<wgt id='morphing_basis_vector_1'> +7.8955954e-05 </wgt>
<wgt id='morphing_basis_vector_2'> +5.3260458e-05 </wgt>
<wgt id='morphing_basis_vector_3'> +8.6019205e-05 </wgt>
<wgt id='morphing_basis_vector_4'> +6.1401457e-05 </wgt>
<wgt id='morphing_basis_vector_5'> +9.7907829e-05 </wgt>
</rwgt>
</event>
<event>
 4      1 +7.3133000e-09 2.70274400e+03 7.81860800e-03 7.83197700e-02
        2 -1    0    0  501    0 +0.0000000000e+00 +0.0000000000e+00 +1.4067063815e+03 1.4067063815e+03 0.0000000000e+00 0.0000e+00 1.0000e+00
       -2 -1    0    0    0  501 -0.0000000000e+00 -0.0000000000e+00 -1.2982146773e+03 1.2982146773e+03 0.0000000000e+00 0.0000e+00 -1.0000e+00
      -13  1    1    2    0    0 +7.5716167417e+02 -2.2623909500e+02 -1.0428709684e+03 1.3084562605e+03 0.0000000000e+00 0.0000e+00 -1.0000e+00
       13  1    1    2    0    0 -7.5716167417e+02 +2.2623909500e+02 +1.1513626726e+03 1.3964647983e+03 0.0000000000e+00 0.0000e+00 1.0000e+00
<mgrwt>
<rscale>  0 0.27027444E+04</rscale>
<asrwt>0</asrwt>
<pdfrwt beam="1">  1        2 0.21641637E+00 0.27027444E+04</pdfrwt>
<pdfrwt beam="2">  1       -2 0.19972533E+00 0.27027444E+04</pdfrwt>
<totfact> 0.18832699E+00</totfact>
</mgrwt>
<rwgt>
<wgt id='morphing_basis_vector_1'> +5.3706228e-05 </wgt>
<wgt id='morphing_basis_vector_2'> +3.6176795e-05 </wgt>
<wgt id='morphing_basis_vector_3'> +5.8303641e-05 </wgt>
<wgt id='morphing_basis_vector_4'> +4.1402089e-05 </wgt>
<wgt id='morphing_basis_vector_5'> +6.6057558e-05 </wgt>
</rwgt>
</event>
<event>
 4      1 +7.3133000e-09 3.06714400e+03 7.81860800e-03 7.73548500e-02
        2 -1    0    0  501    0 +0.0000000000e+00 +0.0000000000e+00 +1.1491949506e+03 1.1491949506e+03 0.0000000000e+00 0.0000e+00 1.0000e+00
       -2 -1    0    0    0  501 -0.0000000000e+00 -0.0000000000e+00 -2.0465131724e+03 2.0465131724e+03 0.0000000000e+00 0.0000e+00 -1.0000e+00
      -13  1    1    2    0    0 -7.3614697519e+02 +5.5218727678e+02 -1.7268744941e+03 1.9567622942e+03 0.0000000000e+00 0.0000e+00 -1.0000e+00
       13  1    1    2    0    0 +7.3614697519e+02 -5.5218727678e+02 +8.2955627229e+02 1.2389458288e+03 0.0000000000e+00 0.0000e+00 1.0000e+00
<mgrwt>
<rscale>  0 0.30671437E+04</rscale>
<asrwt>0</asrwt>
<pdfrwt beam="1">  1        2 0.17679922E+00 0.30671437E+04</pdfrwt>
<pdfrwt beam="2">  1       -2 0.31484818E+00 0.30671437E+04</pdfrwt>
<totfact> 0.41011514E-01</totfact>
</mgrwt>
<rwgt>
<wgt id='morphing_basis_vector_1'> +8.8633587e-05 </wgt>
<wgt id='morphing_basis_vector_2'> +5.9893860e-05 </wgt>
<wgt id='morphing_basis_vector_3'> +9.6670146e-05 </wgt>
<wgt id='morphing_basis_vector_4'> +6.8981459e-05 </wgt>
<wgt id='morphing_basis_vector_5'> +1.1009208e-04 </wgt>
</rwgt>
</event>
<event>
 4      1 +7.3133000e-09 3.00562400e+03 7.81860800e-03 7.75078300e-02
        2 -1    0    0  501    0 +0.0000000000e+00 +0.0000000000e+00 +1.8755687125e+03 1.8755687125e+03 0.0000000000e+00 0.0000e+00 -1.0000e+00
       -2 -1    0    0    0  501 -0.0000000000e+00 -0.0000000000e+00 -1.2041379564e+03 1.2041379564e+03 0.0000000000e+00 0.0000e+00 1.0000e+00
      -13  1    1    2    0    0 -4.7298262147e+02 +6.3455947726e+02 -9.7329622273e+02 1.2544655546e+03 0.0000000000e+00 0.0000e+00 1.0000e+00
       13  1    1    2    0    0 +4.7298262147e+02 -6.3455947726e+02 +1.6447269789e+03 1.8252411144e+03 0.0000000000e+00 0.0000e+00 -1.0000e+00
<mgrwt>
<rscale>  0 0.30056237E+04</rscale>
<asrwt>0</asrwt>
<pdfrwt beam="1">  1        2 0.28854903E+00 0.30056237E+04</pdfrwt>
<pdfrwt beam="2">  1       -2 0.18525199E+00 0.30056237E+04</pdfrwt>
<totfact> 0.12859454E+00</totfact>
</mgrwt>
<rwgt>
<wgt id='morphing_basis_vector_1'> +8.1773027e-05 </wgt>
<wgt id='morphing_basis_vector_2'> +5.5190514e-05 </wgt>
<wgt id='morphing_basis_vector_3'> +8.9118894e-05 </wgt>
<wgt id='morphing_basis_vector_4'> +6.3607976e-05 </wgt>
<wgt id='morphing_basis_vector_5'> +1.0145367e-04 </wgt>
</rwgt>
</event>
<event>
 4      1 +7.3133000e-09 2.69250600e+03 7.81860800e-03 7.83490800e-02
        2 -1    0    0  501    0 +0.0000000000e+00 +0.0000000000e+00 +2.1775536378e+03 2.1775536378e+03 0.0000000000e+00 0.0000e+00 1.0000e+00
       -2 -1    0    0    0  501 -0.0000000000e+00 -0.0000000000e+00 -8.3230870397e+02 8.3230870397e+02 0.0000000000e+00 0.0000e+00 -1.0000e+00
      -13  1    1    2    0    0 +1.2721221625e+03 +1.5097086363e+01 +1.8041305138e+02 1.2849403050e+03 0.0000000000e+00 0.0000e+00 -1.0000e+00
       13  1    1    2    0    0 -1.2721221625e+03 -1.5097086363e+01 +1.1648318825e+03 1.7249220367e+03 0.0000000000e+00 0.0000e+00 1.0000e+00
<mgrwt>
<rscale>  0 0.26925058E+04</rscale>
<asrwt>0</asrwt>
<pdfrwt beam="1">  1        2 0.33500825E+00 0.26925058E+04</pdfrwt>
<pdfrwt beam="2">  1       -2 0.12804749E+00 0.26925058E+04</pdfrwt>
<totfact> 0.26099014E+00</totfact>
</mgrwt>
<rwgt>
<wgt id='morphing_basis_vector_1'> +5.3421260e-05 </wgt>
<wgt id='morphing_basis_vector_2'> +3.7153206e-05 </wgt>
<wgt id='morphing_basis_vector_3'> +5.8221286e-05 </wgt>
<wgt id='morphing_basis_vector_4'> +3.9708252e-05 </wgt>
<wgt id='morphing_basis_vector_5'> +6.4964688e-05 </wgt>
</rwgt>
</event>
<event>
 4      1 +7.3133000e-09 3.00044600e+03 7.81860800e-03 7.75208800e-02
        2 -1    0    0  501    0 +0.0000000000e+00 +0.0000000000e+00 +1.3739348349e+03 1.3739348349e+03 0.0000000000e+00 0.0000e+00 1.0000e+00
       -2 -1    0    0    0  501 -0.0000000000e+00 -0.0000000000e+00 -1.6381195612e+03 1.6381195612e+03 0.0000000000e+00 0.0000e+00 -1.0000e+00
      -13  1    1    2    0    0 -8.3634044486e+02 -7.6133955936e+02 -1.1215863577e+03 1.5928148738e+03 0.0000000000e+00 0.0000e+00 -1.0000e+00
       13  1    1    2    0    0 +8.3634044486e+02 +7.6133955936e+02 +8.5740163140e+02 1.4192395224e+03 0.0000000000e+00 0.0000e+00 1.0000e+00
<mgrwt>
<rscale>  0 0.30004463E+04</rscale>
<asrwt>0</asrwt>
<pdfrwt beam="1">  1        2 0.21137459E+00 0.30004463E+04</pdfrwt>
<pdfrwt beam="2">  1       -2 0.25201840E+00 0.30004463E+04</pdfrwt>
<totfact> 0.81785077E-01</totfact>
</mgrwt>
<rwgt>
<wgt id='morphing_basis_vector_1'> +8.1335539e-05 </wgt>
<wgt id='morphing_basis_vector_2'> +5.5164311e-05 </wgt>
<wgt id='morphing_basis_vector_3'> +8.8693749e-05 </wgt>
<wgt id='morphing_basis_vector_4'> +6.2918431e-05 </wgt>
<wgt id='morphing_basis_vector_5'> +1.0072985e-04 </wgt>
</rwgt>
</event>
<event>
 4      1 +7.3133000e-09 2.85404200e+03 7.81860800e-03 7.79014000e-02
        2 -1    0    0  501    0 +0.0000000000e+00 +0.0000000000e+00 +2.1207563384e+03 2.1207563384e+03 0.0000000000e+00 0.0000e+00 -1.0000e+00
       -2 -1    0    0    0  501 -0.0000000000e+00 -0.0000000000e+00 -9.6021833281e+02 9.6021833281e+02 0.0000000000e+00 0.0000e+00 1.0000e+00
      -13  1    1    2    0    0 -4.8523822794e+02 -6.8585646328e+02 -6.6493560521e+02 1.0714450920e+03 0.0000000000e+00 0.0000e+00 1.0000e+00
       13  1    1    2    0    0 +4.8523822794e+02 +6.8585646328e+02 +1.8254736108e+03 2.0095295792e+03 0.0000000000e+00 0.0000e+00 -1.0000e+00
<mgrwt>
<rscale>  0 0.28540421E+04</rscale>
<asrwt>0</asrwt>
<pdfrwt beam="1">  1        2 0.32627021E+00 0.28540421E+04</pdfrwt>
<pdfrwt beam="2">  1       -2 0.14772590E+00 0.28540421E+04</pdfrwt>
<totfact> 0.18728257E+00</totfact>
</mgrwt>
<rwgt>
<wgt id='morphing_basis_vector_1'> +6.6627226e-05 </wgt>
<wgt id='morphing_basis_vector_2'> +4.4944196e-05 </wgt>
<wgt id='morphing_basis_vector_3'> +7.2485836e-05 </wgt>
<wgt id='morphing_basis_vector_4'> +5.1591681e-05 </wgt>
<wgt id='morphing_basis_vector_5'> +8.2323376e-05 </wgt>
</rwgt>
</event>
<event>
 4      1 +7.3133000e-09 2.69619400e+03 7.81860800e-03 7.83385000e-02
        2 -1    0    0  501    0 +0.0000000000e+00 +0.0000000000e+00 +1.3124482401e+03 1.3124482401e+03 0.0000000000e+00 0.0000e+00 -1.0000e+00
       -2 -1    0    0    0  501 -0.0000000000e+00 -0.0000000000e+00 -1.3847145452e+03 1.3847145452e+03 0.0000000000e+00 0.0000e+00 1.0000e+00
      -13  1    1    2    0    0 +2.1463376470e+02 -9.1863831178e+02 -9.9949622908e+02 1.3743932162e+03 0.0000000000e+00 0.0000e+00 1.0000e+00
       13  1    1    2    0    0 -2.1463376470e+02 +9.1863831178e+02 +9.2722992399e+02 1.3227695690e+03 0.0000000000e+00 0.0000e+00 -1.0000e+00
<mgrwt>
<rscale>  0 0.26961945E+04</rscale>
<asrwt>0</asrwt>
<pdfrwt beam="1">  1        2 0.20191512E+00 0.26961945E+04</pdfrwt>
<pdfrwt beam="2">  1       -2 0.21303301E+00 0.26961945E+04</pdfrwt>
<totfact> 0.17075906E+00</totfact>
</mgrwt>
<rwgt>
<wgt id='morphing_basis_vector_1'> +5.3229712e-05 </wgt>
<wgt id='morphing_basis_vector_2'> +3.5936381e-05 </wgt>
<wgt id='morphing_basis_vector_3'> +5.7797232e-05 </wgt>
<wgt id='morphing_basis_vector_4'> +4.0922749e-05 </wgt>
<wgt id='morphing_basis_vector_5'> +6.5406439e-05 </wgt>
</rwgt>
</event>
<event>
 4      1 +7.3133000e-09 3.05431600e+03 7.81860800e-03 7.73864400e-02
        2 -1    0    0  501    0 +0.0000000000e+00 +0.0000000000e+00 +1.5257082697e+03 1.5257082697e+03 0.0000000000e+00 0.0000e+00 -1.0000e+00
       -2 -1    0    0    0  501 -0.0000000000e+00 -0.0000000000e+00 -1.5286094013e+03 1.5286094013e+03 0.0000000000e+00 0.0000e+00 1.0000e+00
      -13  1    1    2    0    0 -1.6257068076e+02 +1.1142557035e+03 +1.0301588398e+03 1.5261789654e+03 0.0000000000e+00 0.0000e+00 1.0000e+00
       13  1    1    2    0    0 +1.6257068076e+02 -1.1142557035e+03 -1.0330599714e+03 1.5281387056e+03 0.0000000000e+00 0.0000e+00 -1.0000e+00
<mgrwt>
<rscale>  0 0.30543163E+04</rscale>
<asrwt>0</asrwt>
<pdfrwt beam="1">  1        2 0.23472435E+00 0.30543163E+04</pdfrwt>
<pdfrwt beam="2">  1       -2 0.23517068E+00 0.30543163E+04</pdfrwt>
<totfact> 0.87588023E-01</totfact>
</mgrwt>
<rwgt>
<wgt id='morphing_basis_vector_1'> +1.1121240e-04 </wgt>
<wgt id='morphing_basis_vector_2'> +1.2969000e-04 </wgt>
<wgt id='morphing_basis_vector_3'> +1.3276642e-04 </wgt>
<wgt id='morphing_basis_vector_4'> +1.7709464e-05 </wgt>
<wgt id='morphing_basis_vector_5'> +1.0412311e-04 </wgt>
</rwgt>
</event>
<event>
 4      1 +7.3133000e-09 2.99545000e+03 7.81860800e-03 7.75335000e-02
        2 -1    0    0  501    0 +0.0000000000e+00 +0.0000000000e+00 +1.6898649119e+03 1.6898649119e+03 0.0000000000e+00 0.0000e+00 1.0000e+00
       -2 -1    0    0    0  501 -0.0000000000e+00 -0.0000000000e+00 -1.3274315867e+03 1.3274315867e+03 0.0000000000e+00 0.0000e+00 -1.0000e+00
      -13  1    1    2    0    0 +5.4712517034e+02 +2.2511414230e+02 -1.2047389607e+03 1.3421692488e+03 0.0000000000e+00 0.0000e+00 -1.0000e+00
       13  1    1    2    0    0 -5.4712517034e+02 -2.2511414230e+02 +1.5671722859e+03 1.6751272497e+03 0.0000000000e+00 0.0000e+00 1.0000e+00
<mgrwt>
<rscale>  0 0.29954499E+04</rscale>
<asrwt>0</asrwt>
<pdfrwt beam="1">  1        2 0.25997922E+00 0.29954499E+04</pdfrwt>
<pdfrwt beam="2">  1       -2 0.20422024E+00 0.29954499E+04</pdfrwt>
<totfact> 0.11834591E+00</totfact>
</mgrwt>
<rwgt>
<wgt id='morphing_basis_vector_1'> +8.0665718e-05 </wgt>
<wgt id='morphing_basis_vector_2'> +5.4403598e-05 </wgt>
<wgt id='morphing_basis_vector_3'> +8.7894632e-05 </wgt>
<wgt id='morphing_basis_vector_4'> +6.2776384e-05 </wgt>
<wgt id='morphing_basis_vector_5'> +1.0007764e-04 </wgt>
</rwgt>
</event>
<event>
 4      1 +7.3133000e-09 2.92196100e+03 7.81860800e-03 7.77220600e-02
        2 -1    0    0  501    0 +0.0000000000e+00 +0.0000000000e+00 +1.5184906487e+03 1.5184906487e+03 0.0000000000e+00 0.0000e+00 1.0000e+00
       -2 -1    0    0    0  501 -0.0000000000e+00 -0.0000000000e+00 -1.4056483877e+03 1.4056483877e+03 0.0000000000e+00 0.0000e+00 -1.0000e+00
      -13  1    1    2    0    0 +1.1779173093e+03 -6.5543636856e+01 -8.0600939358e+02 1.4287884022e+03 0.0000000000e+00 0.0000e+00 -1.0000e+00
       13  1    1    2    0    0 -1.1779173093e+03 +6.5543636856e+01 +9.1885165459e+02 1.4953506341e+03 0.0000000000e+00 0.0000e+00 1.0000e+00
<mgrwt>
<rscale>  0 0.29219609E+04</rscale>
<asrwt>0</asrwt>
<pdfrwt beam="1">  1        2 0.23361395E+00 0.29219609E+04</pdfrwt>
<pdfrwt beam="2">  1       -2 0.21625360E+00 0.29219609E+04</pdfrwt>
<totfact> 0.12155829E+00</totfact>
</mgrwt>
<rwgt>
<wgt id='morphing_basis_vector_1'> +7.3295455e-05 </wgt>
<wgt id='morphing_basis_vector_2'> +4.9840462e-05 </wgt>
<wgt id='morphing_basis_vector_3'> +7.9885594e-05 </wgt>
<wgt id='morphing_basis_vector_4'> +5.6390942e-05 </wgt>
<wgt id='morphing_basis_vector_5'> +9.0497492e-05 </wgt>
</rwgt>
</event>
<event>
 4      1 +7.3133000e-09 3.14915200e+03 7.81860800e-03 7.71565900e-02
        2 -1    0    0  501    0 +0.0000000000e+00 +0.0000000000e+00 +1.9685733247e+03 1.9685733247e+03 0.0000000000e+00 0.0000e+00 -1.0000e+00
       -2 -1    0    0    0  501 -0.0000000000e+00 -0.0000000000e+00 -1.2594350412e+03 1.2594350412e+03 0.0000000000e+00 0.0000e+00 1.0000e+00
      -13  1    1    2    0    0 +9.3896161862e+02 -1.0163268179e+03 -4.1572745806e+02 1.4447831815e+03 0.0000000000e+00 0.0000e+00 1.0000e+00
       13  1    1    2    0    0 -9.3896161862e+02 +1.0163268179e+03 +1.1248657415e+03 1.7832251845e+03 0.0000000000e+00 0.0000e+00 -1.0000e+00
<mgrwt>
<rscale>  0 0.31491524E+04</rscale>
<asrwt>0</asrwt>
<pdfrwt beam="1">  1        2 0.30285744E+00 0.31491524E+04</pdfrwt>
<pdfrwt beam="2">  1       -2 0.19375924E+00 0.31491524E+04</pdfrwt>
<totfact> 0.97384151E-01</totfact>
</mgrwt>
<rwgt>
<wgt id='morphing_basis_vector_1'> +9.8858081e-05 </wgt>
<wgt id='morphing_basis_vector_2'> +6.7850025e-05 </wgt>
<wgt id='morphing_basis_vector_3'> +1.0812614e-04 </wgt>
<wgt id='morphing_basis_vector_4'> +7.5793743e-05 </wgt>
<wgt id='morphing_basis_vector_5'> +1.2237708e-04 </wgt>
</rwgt>
</event>
<event>
 4      1 +7.3133000e-09 3.05516500e+03 7.81860800e-03 7.73843400e-02
        2 -1    0    0  501    0 +0.0000000000e+00 +0.0000000000e+00 +1.7784459170e+03 1.7784459170e+03 0.0000000000e+00 0.0000e+00 -1.0000e+00
       -2 -1    0    0    0  501 -0.0000000000e+00 -0.0000000000e+00 -1.3121055118e+03 1.3121055118e+03 0.0000000000e+00 0.0000e+00 1.0000e+00
      -13  1    1    2    0    0 +8.6904339811e+02 -1.2051828463e+03 -1.2563020508e+02 1.4911354966e+03 0.0000000000e+00 0.0000e+00 1.0000e+00
       13  1    1    2    0    0 -8.6904339811e+02 +1.2051828463e+03 +5.9197061034e+02 1.5994159322e+03 0.0000000000e+00 0.0000e+00 -1.0000e+00
<mgrwt>
<rscale>  0 0.30551653E+04</rscale>
<asrwt>0</asrwt>
<pdfrwt beam="1">  1        2 0.27360707E+00 0.30551653E+04</pdfrwt>
<pdfrwt beam="2">  1       -2 0.20186238E+00 0.30551653E+04</pdfrwt>
<totfact> 0.10934630E+00</totfact>
</mgrwt>
<rwgt>
<wgt id='morphing_basis_vector_1'> +8.8549381e-05 </wgt>
<wgt id='morphing_basis_vector_2'> +6.2737251e-05 </wgt>
<wgt id='morphing_basis_vector_3'> +9.7177913e-05 </wgt>
<wgt id='morphing_basis_vector_4'> +6.5232031e-05 </wgt>
<wgt id='morphing_basis_vector_5'> +1.0814826e-04 </wgt>
</rwgt>
</event>
<event>
 4      1 +7.3133000e-09 2.89784800e+03 7.81860800e-03 7.77851600e-02
        2 -1    0    0  501    0 +0.0000000000e+00 +0.0000000000e+00 +1.3535718255e+03 1.3535718255e+03 0.0000000000e+00 0.0000e+00 1.0000e+00
       -2 -1    0    0    0  501 -0.0000000000e+00 -0.0000000000e+00 -1.5509928363e+03 1.5509928363e+03 0.0000000000e+00 0.0000e+00 -1.0000e+00
      -13  1    1    2    0    0 -1.2983152175e+03 +5.1796076718e+02 -4.8100571686e+02 1.4782666404e+03 0.0000000000e+00 0.0000e+00 -1.0000e+00
       13  1    1    2    0    0 +1.2983152175e+03 -5.1796076718e+02 +2.8358470597e+02 1.4262980214e+03 0.0000000000e+00 0.0000e+00 1.0000e+00
<mgrwt>
<rscale>  0 0.28978476E+04</rscale>
<asrwt>0</asrwt>
<pdfrwt beam="1">  1        2 0.20824182E+00 0.28978476E+04</pdfrwt>
<pdfrwt beam="2">  1       -2 0.23861428E+00 0.28978476E+04</pdfrwt>
<totfact> 0.10495185E+00</totfact>
</mgrwt>
<rwgt>
<wgt id='morphing_basis_vector_1'> +7.1683261e-05 </wgt>
<wgt id='morphing_basis_vector_2'> +5.0445599e-05 </wgt>
<wgt id='morphing_basis_vector_3'> +7.8459289e-05 </wgt>
<wgt id='morphing_basis_vector_4'> +5.2968307e-05 </wgt>
<wgt id='morphing_basis_vector_5'> +8.7391109e-05 </wgt>
</rwgt>
</event>
<event>
 4      1 +7.3133000e-09 2.85164300e+03 7.81860800e-03 7.79078300e-02
        2 -1    0    0  501    0 +0.0000000000e+00 +0.0000000000e+00 +3.5964081558e+03 3.5964081558e+03 0.0000000000e+00 0.0000e+00 -1.0000e+00
       -2 -1    0    0    0  501 -0.0000000000e+00 -0.0000000000e+00 -5.6527689732e+02 5.6527689732e+02 0.0000000000e+00 0.0000e+00 1.0000e+00
      -13  1    1    2    0    0 -3.2622354306e+02 +1.1132869056e+03 +3.0581530111e+02 1.1997301916e+03 0.0000000000e+00 0.0000e+00 1.0000e+00
       13  1    1    2    0    0 +3.2622354306e+02 -1.1132869056e+03 +2.7253159574e+03 2.9619548616e+03 0.0000000000e+00 0.0000e+00 -1.0000e+00
<mgrwt>
<rscale>  0 0.28516426E+04</rscale>
<asrwt>0</asrwt>
<pdfrwt beam="1">  1        2 0.55329355E+00 0.28516426E+04</pdfrwt>
<pdfrwt beam="2">  1       -2 0.86965679E-01 0.28516426E+04</pdfrwt>
<totfact> 0.81479240E-01</totfact>
</mgrwt>
<rwgt>
<wgt id='morphing_basis_vector_1'> +6.6563425e-05 </wgt>
<wgt id='morphing_basis_vector_2'> +4.5258633e-05 </wgt>
<wgt id='morphing_basis_vector_3'> +7.2487950e-05 </wgt>
<wgt id='morphing_basis_vector_4'> +5.1089591e-05 </wgt>
<wgt id='morphing_basis_vector_5'> +8.2017374e-05 </wgt>
</rwgt>
</event>
<event>
 4      1 +7.3133000e-09 2.81621000e+03 7.81860800e-03 7.80035000e-02
        2 -1    0    0  501    0 +0.0000000000e+00 +0.0000000000e+00 +1.1118889315e+03 1.1118889315e+03 0.0000000000e+00 0.0000e+00 1.0000e+00
       -2 -1    0    0    0  501 -0.0000000000e+00 -0.0000000000e+00 -1.7832354162e+03 1.7832354162e+03 0.0000000000e+00 0.0000e+00 -1.0000e+00
      -13  1    1    2    0    0 -4.3437516052e+02 +1.3394072194e+03 -3.4404023773e+02 1.4495023851e+03 0.0000000000e+00 0.0000e+00 -1.0000e+00
       13  1    1    2    0    0 +4.3437516052e+02 -1.3394072194e+03 -3.2730624696e+02 1.4456219626e+03 0.0000000000e+00 0.0000e+00 1.0000e+00
<mgrwt>
<rscale>  0 0.28162100E+04</rscale>
<asrwt>0</asrwt>
<pdfrwt beam="1">  1        2 0.17105984E+00 0.28162100E+04</pdfrwt>
<pdfrwt beam="2">  1       -2 0.27434391E+00 0.28162100E+04</pdfrwt>
<totfact> 0.82794594E-01</totfact>
</mgrwt>
<rwgt>
<wgt id='morphing_basis_vector_1'> +6.5440470e-05 </wgt>
<wgt id='morphing_basis_vector_2'> +4.9224703e-05 </wgt>
<wgt id='morphing_basis_vector_3'> +7.2203397e-05 </wgt>
<wgt id='morphing_basis_vector_4'> +4.4239291e-05 </wgt>
<wgt id='morphing_basis_vector_5'> +7.7622882e-05 </wgt>
</rwgt>
</event>
<event>
 4      1 +7.3133000e-09 2.89033000e+03 7.81860800e-03 7.78049600e-02
        2 -1    0    0  501    0 +0.0000000000e+00 +0.0000000000e+00 +8.3525785270e+02 8.3525785270e+02 0.0000000000e+00 0.0000e+00 -1.0000e+00
       -2 -1    0    0    0  501 -0.0000000000e+00 -0.0000000000e+00 -2.5004271268e+03 2.5004271268e+03 0.0000000000e+00 0.0000e+00 1.0000e+00
      -13  1    1    2    0    0 +1.3896579411e+03 +3.6441788185e+02 -6.5175093280e+02 1.5775705576e+03 0.0000000000e+00 0.0000e+00 1.0000e+00
       13  1    1    2    0    0 -1.3896579411e+03 -3.6441788185e+02 -1.0134183413e+03 1.7581144219e+03 0.0000000000e+00 0.0000e+00 -1.0000e+00
<mgrwt>
<rscale>  0 0.28903297E+04</rscale>
<asrwt>0</asrwt>
<pdfrwt beam="1">  1        2 0.12850121E+00 0.28903297E+04</pdfrwt>
<pdfrwt beam="2">  1       -2 0.38468109E+00 0.28903297E+04</pdfrwt>
<totfact> 0.22973342E-01</totfact>
</mgrwt>
<rwgt>
<wgt id='morphing_basis_vector_1'> +7.3783242e-05 </wgt>
<wgt id='morphing_basis_vector_2'> +5.8275094e-05 </wgt>
<wgt id='morphing_basis_vector_3'> +8.2064437e-05 </wgt>
<wgt id='morphing_basis_vector_4'> +4.6532064e-05 </wgt>
<wgt id='morphing_basis_vector_5'> +8.5996845e-05 </wgt>
</rwgt>
</event>
<event>
 4      1 +7.3133000e-09 3.05032100e+03 7.81860800e-03 7.73963100e-02
        2 -1    0    0  501    0 +0.0000000000e+00 +0.0000000000e+00 +4.2851042624e+03 4.2851042624e+03 0.0000000000e+00 0.0000e+00 1.0000e+00
       -2 -1    0    0    0  501 -0.0000000000e+00 -0.0000000000e+00 -5.4283741705e+02 5.4283741705e+02 0.0000000000e+00 0.0000e+00 -1.0000e+00
      -13  1    1    2    0    0 -3.7053707520e+02 +8.7889263942e+02 -1.2533095137e+01 9.5389049382e+02 0.0000000000e+00 0.0000e+00 -1.0000e+00
       13  1    1    2    0    0 +3.7053707520e+02 -8.7889263942e+02 +3.7547999405e+03 3.8740511856e+03 0.0000000000e+00 0.0000e+00 1.0000e+00
<mgrwt>
<rscale>  0 0.30503212E+04</rscale>
<asrwt>0</asrwt>
<pdfrwt beam="1">  1        2 0.65924679E+00 0.30503212E+04</pdfrwt>
<pdfrwt beam="2">  1       -2 0.83513452E-01 0.30503212E+04</pdfrwt>
<totfact> 0.23298820E-01</totfact>
</mgrwt>
<rwgt>
<wgt id='morphing_basis_vector_1'> +8.6731792e-05 </wgt>
<wgt id='morphing_basis_vector_2'> +5.8624990e-05 </wgt>
<wgt id='morphing_basis_vector_3'> +9.4583869e-05 </wgt>
<wgt id='morphing_basis_vector_4'> +6.7447060e-05 </wgt>
<wgt id='morphing_basis_vector_5'> +1.0767466e-04 </wgt>
</rwgt>
</event>
<event>
 4      1 +7.3133000e-09 3.02836000e+03 7.81860800e-03 7.74508600e-02
        2 -1    0    0  501    0 +0.0000000000e+00 +0.0000000000e+00 +3.2040940502e+03 3.2040940502e+03 0.0000000000e+00 0.0000e+00 -1.0000e+00
       -2 -1    0    0    0  501 -0.0000000000e+00 -0.0000000000e+00 -7.1556609882e+02 7.1556609882e+02 0.0000000000e+00 0.0000e+00 1.0000e+00
      -13  1    1    2    0    0 +8.9257419740e+02 +8.2551709518e+02 +7.6093679626e+01 1.2181779100e+03 0.0000000000e+00 0.0000e+00 1.0000e+00
       13  1    1    2    0    0 -8.9257419740e+02 -8.2551709518e+02 +2.4124342718e+03 2.7014822390e+03 0.0000000000e+00 0.0000e+00 -1.0000e+00
<mgrwt>
<rscale>  0 0.30283600E+04</rscale>
<asrwt>0</asrwt>
<pdfrwt beam="1">  1        2 0.49293754E+00 0.30283600E+04</pdfrwt>
<pdfrwt beam="2">  1       -2 0.11008709E+00 0.30283600E+04</pdfrwt>
<totfact> 0.86797873E-01</totfact>
</mgrwt>
<rwgt>
<wgt id='morphing_basis_vector_1'> +8.4448644e-05 </wgt>
<wgt id='morphing_basis_vector_2'> +5.7450184e-05 </wgt>
<wgt id='morphing_basis_vector_3'> +9.2151365e-05 </wgt>
<wgt id='morphing_basis_vector_4'> +6.5163336e-05 </wgt>
<wgt id='morphing_basis_vector_5'> +1.0455255e-04 </wgt>
</rwgt>
</event>
<event>
 4      1 +7.3133000e-09 2.70753900e+03 7.81860800e-03 7.83060900e-02
        2 -1    0    0  501    0 +0.0000000000e+00 +0.0000000000e+00 +2.1310232038e+03 2.1310232038e+03 0.0000000000e+00 0.0000e+00 -1.0000e+00
       -2 -1    0    0    0  501 -0.0000000000e+00 -0.0000000000e+00 -8.6000541779e+02 8.6000541779e+02 0.0000000000e+00 0.0000e+00 1.0000e+00
      -13  1    1    2    0    0 +1.0817912312e+03 -6.1358102502e+02 +4.4789141091e+01 1.2444918680e+03 0.0000000000e+00 0.0000e+00 1.0000e+00
       13  1    1    2    0    0 -1.0817912312e+03 +6.1358102502e+02 +1.2262286450e+03 1.7465367537e+03 0.0000000000e+00 0.0000e+00 -1.0000e+00
<mgrwt>
<rscale>  0 0.27075387E+04</rscale>
<asrwt>0</asrwt>
<pdfrwt beam="1">  1        2 0.32784972E+00 0.27075387E+04</pdfrwt>
<pdfrwt beam="2">  1       -2 0.13230853E+00 0.27075387E+04</pdfrwt>
<totfact> 0.25388589E+00</totfact>
</mgrwt>
<rwgt>
<wgt id='morphing_basis_vector_1'> +5.4465920e-05 </wgt>
<wgt id='morphing_basis_vector_2'> +3.7558797e-05 </wgt>
<wgt id='morphing_basis_vector_3'> +5.9308080e-05 </wgt>
<wgt id='morphing_basis_vector_4'> +4.0911202e-05 </wgt>
<wgt id='morphing_basis_vector_5'> +6.6468321e-05 </wgt>
</rwgt>
</event>
<event>
 4      1 +7.3133000e-09 2.86893000e+03 7.81860800e-03 7.78616600e-02
        2 -1    0    0  501    0 +0.0000000000e+00 +0.0000000000e+00 +9.3703316491e+02 9.3703316491e+02 0.0000000000e+00 0.0000e+00 -1.0000e+00
       -2 -1    0    0    0  501 -0.0000000000e+00 -0.0000000000e+00 -2.1959633437e+03 2.1959633437e+03 0.0000000000e+00 0.0000e+00 1.0000e+00
      -13  1    1    2    0    0 +8.8770014975e+02 +6.4475585577e+02 -1.6386271063e+03 1.9720092451e+03 0.0000000000e+00 0.0000e+00 1.0000e+00
       13  1    1    2    0    0 -8.8770014975e+02 -6.4475585577e+02 +3.7969692743e+02 1.1609872635e+03 0.0000000000e+00 0.0000e+00 -1.0000e+00
<mgrwt>
<rscale>  0 0.28689305E+04</rscale>
<asrwt>0</asrwt>
<pdfrwt beam="1">  1        2 0.14415895E+00 0.28689305E+04</pdfrwt>
<pdfrwt beam="2">  1       -2 0.33784051E+00 0.28689305E+04</pdfrwt>
<totfact> 0.39594373E-01</totfact>
</mgrwt>
<rwgt>
<wgt id='morphing_basis_vector_1'> +6.8112257e-05 </wgt>
<wgt id='morphing_basis_vector_2'> +4.6174153e-05 </wgt>
<wgt id='morphing_basis_vector_3'> +7.4161625e-05 </wgt>
<wgt id='morphing_basis_vector_4'> +5.2483782e-05 </wgt>
<wgt id='morphing_basis_vector_5'> +8.4055042e-05 </wgt>
</rwgt>
</event>
<event>
 4      1 +7.3133000e-09 2.68533700e+03 7.81860800e-03 7.83696800e-02
        2 -1    0    0  501    0 +0.0000000000e+00 +0.0000000000e+00 +4.4844273317e+03 4.4844273317e+03 0.0000000000e+00 0.0000e+00 -1.0000e+00
       -2 -1    0    0    0  501 -0.0000000000e+00 -0.0000000000e+00 -4.0200427704e+02 4.0200427704e+02 0.0000000000e+00 0.0000e+00 1.0000e+00
      -13  1    1    2    0    0 +1.3396401135e+03 +8.9404270402e+01 +2.0204473045e+03 2.4258681060e+03 0.0000000000e+00 0.0000e+00 -1.0000e+00
       13  1    1    2    0    0 -1.3396401135e+03 -8.9404270402e+01 +2.0619757502e+03 2.4605635028e+03 0.0000000000e+00 0.0000e+00 1.0000e+00
<mgrwt>
<rscale>  0 0.26853372E+04</rscale>
<asrwt>0</asrwt>
<pdfrwt beam="1">  1        2 0.68991186E+00 0.26853372E+04</pdfrwt>
<pdfrwt beam="2">  1       -2 0.61846815E-01 0.26853372E+04</pdfrwt>
<totfact> 0.29541898E-01</totfact>
</mgrwt>
<rwgt>
<wgt id='morphing_basis_vector_1'> +5.4190124e-05 </wgt>
<wgt id='morphing_basis_vector_2'> +4.0679856e-05 </wgt>
<wgt id='morphing_basis_vector_3'> +5.9655130e-05 </wgt>
<wgt id='morphing_basis_vector_4'> +3.6539877e-05 </wgt>
<wgt id='morphing_basis_vector_5'> +6.4044395e-05 </wgt>
</rwgt>
</event>
<event>
 4      1 +7.3133000e-09 2.77772800e+03 7.81860800e-03 7.81090400e-02
        2 -1    0    0  501    0 +0.0000000000e+00 +0.0000000000e+00 +1.6793458280e+03 1.6793458280e+03 0.0000000000e+00 0.0000e+00 1.0000e+00
       -2 -1    0    0    0  501 -0.0000000000e+00 -0.0000000000e+00 -1.1486280226e+03 1.1486280226e+03 0.0000000000e+00 0.0000e+00 -1.0000e+00
      -13  1    1    2    0    0 -5.7172192072e+02 -1.2631602526e+03 +1.8325335124e+02 1.3985784101e+03 0.0000000000e+00 0.0000e+00 -1.0000e+00
       13  1    1    2    0    0 +5.7172192072e+02 +1.2631602526e+03 +3.4746445411e+02 1.4293954405e+03 0.0000000000e+00 0.0000e+00 1.0000e+00
<mgrwt>
<rscale>  0 0.27777283E+04</rscale>
<asrwt>0</asrwt>
<pdfrwt beam="1">  1        2 0.25836090E+00 0.27777283E+04</pdfrwt>
<pdfrwt beam="2">  1       -2 0.17671200E+00 0.27777283E+04</pdfrwt>
<totfact> 0.19571183E+00</totfact>
</mgrwt>
<rwgt>
<wgt id='morphing_basis_vector_1'> +6.1597913e-05 </wgt>
<wgt id='morphing_basis_vector_2'> +4.5500557e-05 </wgt>
<wgt id='morphing_basis_vector_3'> +6.7755975e-05 </wgt>
<wgt id='morphing_basis_vector_4'> +4.2621564e-05 </wgt>
<wgt id='morphing_basis_vector_5'> +7.3488770e-05 </wgt>
</rwgt>
</event>
<event>
 4      1 +7.3133000e-09 3.04100100e+03 7.81860800e-03 7.74194000e-02
        2 -1    0    0  501    0 +0.0000000000e+00 +0.0000000000e+00 +1.9275585232e+03 1.9275585232e+03 0.0000000000e+00 0.0000e+00 -1.0000e+00
       -2 -1    0    0    0  501 -0.0000000000e+00 -0.0000000000e+00 -1.1994044870e+03 1.1994044870e+03 0.0000000000e+00 0.0000e+00 1.0000e+00
      -13  1    1    2    0    0 +2.1761455754e+02 +1.3225764748e+03 -3.7409999632e+02 1.3915873795e+03 0.0000000000e+00 0.0000e+00 1.0000e+00
       13  1    1    2    0    0 -2.1761455754e+02 -1.3225764748e+03 +1.1022540325e+03 1.7353756307e+03 0.0000000000e+00 0.0000e+00 -1.0000e+00
<mgrwt>
<rscale>  0 0.30410014E+04</rscale>
<asrwt>0</asrwt>
<pdfrwt beam="1">  1        2 0.29654747E+00 0.30410014E+04</pdfrwt>
<pdfrwt beam="2">  1       -2 0.18452377E+00 0.30410014E+04</pdfrwt>
<totfact> 0.12142323E+00</totfact>
</mgrwt>
<rwgt>
<wgt id='morphing_basis_vector_1'> +8.6075425e-05 </wgt>
<wgt id='morphing_basis_vector_2'> +5.9061407e-05 </wgt>
<wgt id='morphing_basis_vector_3'> +9.4044551e-05 </wgt>
<wgt id='morphing_basis_vector_4'> +6.5807868e-05 </wgt>
<wgt id='morphing_basis_vector_5'> +1.0628677e-04 </wgt>
</rwgt>
</event>
<event>
 4      1 +7.3133000e-09 2.89635600e+03 7.81860800e-03 7.77890800e-02
        2 -1    0    0  501    0 +0.0000000000e+00 +0.0000000000e+00 +2.4138353998e+03 2.4138353998e+03 0.0000000000e+00 0.0000e+00 1.0000e+00
       -2 -1    0    0    0  501 -0.0000000000e+00 -0.0000000000e+00 -8.6883301955e+02 8.6883301955e+02 0.0000000000e+00 0.0000e+00 -1.0000e+00
      -13  1    1    2    0    0 +6.3361515342e+02 +8.2487700608e+02 -3.6953159935e+02 1.1038314367e+03 0.0000000000e+00 0.0000e+00 -1.0000e+00
       13  1    1    2    0    0 -6.3361515342e+02 -8.2487700608e+02 +1.9145339796e+03 2.1788369826e+03 0.0000000000e+00 0.0000e+00 1.0000e+00
<mgrwt>
<rscale>  0 0.28963563E+04</rscale>
<asrwt>0</asrwt>
<pdfrwt beam="1">  1        2 0.37135929E+00 0.28963563E+04</pdfrwt>
<pdfrwt beam="2">  1       -2 0.13366662E+00 0.28963563E+04</pdfrwt>
<totfact> 0.16672616E+00</totfact>
</mgrwt>
<rwgt>
<wgt id='morphing_basis_vector_1'> +7.0686142e-05 </wgt>
<wgt id='morphing_basis_vector_2'> +4.7834886e-05 </wgt>
<wgt id='morphing_basis_vector_3'> +7.6971327e-05 </wgt>
<wgt id='morphing_basis_vector_4'> +5.4625739e-05 </wgt>
<wgt id='morphing_basis_vector_5'> +8.7354566e-05 </wgt>
</rwgt>
</event>
<event>
 4      1 +7.3133000e-09 2.86435500e+03 7.81860800e-03 7.78738400e-02
        2 -1    0    0  501    0 +0.0000000000e+00 +0.0000000000e+00 +1.8324900225e+03 1.8324900225e+03 0.0000000000e+00 0.0000e+00 -1.0000e+00
       -2 -1    0    0    0  501 -0.0000000000e+00 -0.0000000000e+00 -1.1193144220e+03 1.1193144220e+03 0.0000000000e+00 0.0000e+00 1.0000e+00
      -13  1    1    2    0    0 +1.3749915525e+03 -3.4014158268e+02 +1.3838183166e+02 1.4231822079e+03 0.0000000000e+00 0.0000e+00 1.0000e+00
       13  1    1    2    0    0 -1.3749915525e+03 +3.4014158268e+02 +5.7479376885e+02 1.5286222366e+03 0.0000000000e+00 0.0000e+00 -1.0000e+00
<mgrwt>
<rscale>  0 0.28643551E+04</rscale>
<asrwt>0</asrwt>
<pdfrwt beam="1">  1        2 0.28192154E+00 0.28643551E+04</pdfrwt>
<pdfrwt beam="2">  1       -2 0.17220222E+00 0.28643551E+04</pdfrwt>
<totfact> 0.17295895E+00</totfact>
</mgrwt>
<rwgt>
<wgt id='morphing_basis_vector_1'> +6.8985401e-05 </wgt>
<wgt id='morphing_basis_vector_2'> +4.9718610e-05 </wgt>
<wgt id='morphing_basis_vector_3'> +7.5717126e-05 </wgt>
<wgt id='morphing_basis_vector_4'> +4.9444606e-05 </wgt>
<wgt id='morphing_basis_vector_5'> +8.3293556e-05 </wgt>
</rwgt>
</event>
<event>
 4      1 +7.3133000e-09 2.78292300e+03 7.81860800e-03 7.80946900e-02
        2 -1    0    0  501    0 +0.0000000000e+00 +0.0000000000e+00 +2.0964135097e+03 2.0964135097e+03 0.0000000000e+00 0.0000e+00 -1.0000e+00
       -2 -1    0    0    0  501 -0.0000000000e+00 -0.0000000000e+00 -9.2356045136e+02 9.2356045136e+02 0.0000000000e+00 0.0000e+00 1.0000e+00
      -13  1    1    2    0    0 +8.7958813708e+02 +8.3524464969e+01 -5.8008618963e+02 1.0569539321e+03 0.0000000000e+00 0.0000e+00 1.0000e+00
       13  1    1    2    0    0 -8.7958813708e+02 -8.3524464969e+01 +1.7529392480e+03 1.9630200290e+03 0.0000000000e+00 0.0000e+00 -1.0000e+00
<mgrwt>
<rscale>  0 0.27829226E+04</rscale>
<asrwt>0</asrwt>
<pdfrwt beam="1">  1        2 0.32252515E+00 0.27829226E+04</pdfrwt>
<pdfrwt beam="2">  1       -2 0.14208622E+00 0.27829226E+04</pdfrwt>
<totfact> 0.21695856E+00</totfact>
</mgrwt>
<rwgt>
<wgt id='morphing_basis_vector_1'> +6.0305562e-05 </wgt>
<wgt id='morphing_basis_vector_2'> +4.0683892e-05 </wgt>
<wgt id='morphing_basis_vector_3'> +6.5551202e-05 </wgt>
<wgt id='morphing_basis_vector_4'> +4.6565770e-05 </wgt>
<wgt id='morphing_basis_vector_5'> +7.4341773e-05 </wgt>
</rwgt>
</event>
<event>
 4      1 +7.3133000e-09 2.82632600e+03 7.81860800e-03 7.79760400e-02
        2 -1    0    0  501    0 +0.0000000000e+00 +0.0000000000e+00 +2.3145602636e+03 2.3145602636e+03 0.0000000000e+00 0.0000e+00 -1.0000e+00
       -2 -1    0    0    0  501 -0.0000000000e+00 -0.0000000000e+00 -8.6281165415e+02 8.6281165415e+02 0.0000000000e+00 0.0000e+00 1.0000e+00
      -13  1    1    2    0    0 +5.4340319954e+02 -5.1872518607e+02 -6.1973318203e+02 9.7387477267e+02 0.0000000000e+00 0.0000e+00 1.0000e+00
       13  1    1    2    0    0 -5.4340319954e+02 +5.1872518607e+02 +2.0714817915e+03 2.2034971451e+03 0.0000000000e+00 0.0000e+00 -1.0000e+00
<mgrwt>
<rscale>  0 0.28263259E+04</rscale>
<asrwt>0</asrwt>
<pdfrwt beam="1">  1        2 0.35608619E+00 0.28263259E+04</pdfrwt>
<pdfrwt beam="2">  1       -2 0.13274026E+00 0.28263259E+04</pdfrwt>
<totfact> 0.19538671E+00</totfact>
</mgrwt>
<rwgt>
<wgt id='morphing_basis_vector_1'> +6.4090474e-05 </wgt>
<wgt id='morphing_basis_vector_2'> +4.3196956e-05 </wgt>
<wgt id='morphing_basis_vector_3'> +6.9695185e-05 </wgt>
<wgt id='morphing_basis_vector_4'> +4.9621588e-05 </wgt>
<wgt id='morphing_basis_vector_5'> +7.9143181e-05 </wgt>
</rwgt>
</event>
<event>
 4      1 +7.3133000e-09 2.73060100e+03 7.81860800e-03 7.82406800e-02
        2 -1    0    0  501    0 +0.0000000000e+00 +0.0000000000e+00 +2.6874824345e+03 2.6874824345e+03 0.0000000000e+00 0.0000e+00 1.0000e+00
       -2 -1    0    0    0  501 -0.0000000000e+00 -0.0000000000e+00 -6.9360286489e+02 6.9360286489e+02 0.0000000000e+00 0.0000e+00 -1.0000e+00
      -13  1    1    2    0    0 +6.2097547615e+02 +5.3308472881e+02 -3.5621203832e+02 8.9256758081e+02 0.0000000000e+00 0.0000e+00 -1.0000e+00
       13  1    1    2    0    0 -6.2097547615e+02 -5.3308472881e+02 +2.3500916080e+03 2.4885177186e+03 0.0000000000e+00 0.0000e+00 1.0000e+00
<mgrwt>
<rscale>  0 0.27306010E+04</rscale>
<asrwt>0</asrwt>
<pdfrwt beam="1">  1        2 0.41345883E+00 0.27306010E+04</pdfrwt>
<pdfrwt beam="2">  1       -2 0.10670813E+00 0.27306010E+04</pdfrwt>
<totfact> 0.20740179E+00</totfact>
</mgrwt>
<rwgt>
<wgt id='morphing_basis_vector_1'> +5.5932730e-05 </wgt>
<wgt id='morphing_basis_vector_2'> +3.7694048e-05 </wgt>
<wgt id='morphing_basis_vector_3'> +6.0747713e-05 </wgt>
<wgt id='morphing_basis_vector_4'> +4.3147506e-05 </wgt>
<wgt id='morphing_basis_vector_5'> +6.8853335e-05 </wgt>
</rwgt>
</event>
<event>
 4      1 +7.3133000e-09 2.91199500e+03 7.81860800e-03 7.77480600e-02
        2 -1    0    0  501    0 +0.0000000000e+00 +0.0000000000e+00 +1.4630059584e+03 1.4630059584e+03 0.0000000000e+00 0.0000e+00 1.0000e+00
       -2 -1    0    0    0  501 -0.0000000000e+00 -0.0000000000e+00 -1.4490227640e+03 1.4490227640e+03 0.0000000000e+00 0.0000e+00 -1.0000e+00
      -13  1    1    2    0    0 +1.0782318902e+03 +9.7516504164e+02 +8.6980457939e+01 1.4563984577e+03 0.0000000000e+00 0.0000e+00 -1.0000e+00
       13  1    1    2    0    0 -1.0782318902e+03 -9.7516504164e+02 -7.2997263533e+01 1.4556302648e+03 0.0000000000e+00 0.0000e+00 1.0000e+00
<mgrwt>
<rscale>  0 0.29119951E+04</rscale>
<asrwt>0</asrwt>
<pdfrwt beam="1">  1        2 0.22507784E+00 0.29119951E+04</pdfrwt>
<pdfrwt beam="2">  1       -2 0.22292658E+00 0.29119951E+04</pdfrwt>
<totfact> 0.11719155E+00</totfact>
</mgrwt>
<rwgt>
<wgt id='morphing_basis_vector_1'> +7.5336860e-05 </wgt>
<wgt id='morphing_basis_vector_2'> +5.8083227e-05 </wgt>
<wgt id='morphing_basis_vector_3'> +8.3522932e-05 </wgt>
<wgt id='morphing_basis_vector_4'> +4.9330645e-05 </wgt>
<wgt id='morphing_basis_vector_5'> +8.8741964e-05 </wgt>
</rwgt>
</event>
<event>
 4      1 +7.3133000e-09 2.67580600e+03 7.81860800e-03 7.83971800e-02
        2 -1    0    0  501    0 +0.0000000000e+00 +0.0000000000e+00 +3.5194252465e+03 3.5194252465e+03 0.0000000000e+00 0.0000e+00 1.0000e+00
       -2 -1    0    0    0  501 -0.0000000000e+00 -0.0000000000e+00 -5.0860135131e+02 5.0860135131e+02 0.0000000000e+00 0.0000e+00 -1.0000e+00
      -13  1    1    2    0    0 -6.1524278049e+02 +4.1543283824e+02 +3.1809399154e+03 3.2664180485e+03 0.0000000000e+00 0.0000e+00 1.0000e+00
       13  1    1    2    0    0 +6.1524278049e+02 -4.1543283824e+02 -1.7011602024e+02 7.6160854930e+02 0.0000000000e+00 0.0000e+00 -1.0000e+00
<mgrwt>
<rscale>  0 0.26758060E+04</rscale>
<asrwt>0</asrwt>
<pdfrwt beam="1">  1        2 0.54145002E+00 0.26758060E+04</pdfrwt>
<pdfrwt beam="2">  1       -2 0.78246364E-01 0.26758060E+04</pdfrwt>
<totfact> 0.12027422E+00</totfact>
</mgrwt>
<rwgt>
<wgt id='morphing_basis_vector_1'> +6.9354834e-05 </wgt>
<wgt id='morphing_basis_vector_2'> +8.7051812e-05 </wgt>
<wgt id='morphing_basis_vector_3'> +8.3369047e-05 </wgt>
<wgt id='morphing_basis_vector_4'> +3.1756843e-06 </wgt>
<wgt id='morphing_basis_vector_5'> +6.0452785e-05 </wgt>
</rwgt>
</event>
<event>
 4      1 +7.3133000e-09 3.09990800e+03 7.81860800e-03 7.72748800e-02
        2 -1    0    0  501    0 +0.0000000000e+00 +0.0000000000e+00 +2.4419179108e+03 2.4419179108e+03 0.0000000000e+00 0.0000e+00 -1.0000e+00
       -2 -1    0    0    0  501 -0.0000000000e+00 -0.0000000000e+00 -9.8379960506e+02 9.8379960506e+02 0.0000000000e+00 0.0000e+00 1.0000e+00
      -13  1    1    2    0    0 +1.0089609599e+03 -4.1137317083e+01 -5.7039490788e+02 1.1597606859e+03 0.0000000000e+00 0.0000e+00 1.0000e+00
       13  1    1    2    0    0 -1.0089609599e+03 +4.1137317083e+01 +2.0285132136e+03 2.2659568300e+03 0.0000000000e+00 0.0000e+00 -1.0000e+00
<mgrwt>
<rscale>  0 0.30999083E+04</rscale>
<asrwt>0</asrwt>
<pdfrwt beam="1">  1        2 0.37567968E+00 0.30999083E+04</pdfrwt>
<pdfrwt beam="2">  1       -2 0.15135379E+00 0.30999083E+04</pdfrwt>
<totfact> 0.11152160E+00</totfact>
</mgrwt>
<rwgt>
<wgt id='morphing_basis_vector_1'> +9.2472561e-05 </wgt>
<wgt id='morphing_basis_vector_2'> +6.2556881e-05 </wgt>
<wgt id='morphing_basis_vector_3'> +1.0090312e-04 </wgt>
<wgt id='morphing_basis_vector_4'> +7.1950774e-05 </wgt>
<wgt id='morphing_basis_vector_5'> +1.1490896e-04 </wgt>
</rwgt>
</event>
<event>
 4      1 +7.3133000e-09 2.95876700e+03 7.81860800e-03 7.76269200e-02
        2 -1    0    0  501    0 +0.0000000000e+00 +0.0000000000e+00 +2.1551522039e+03 2.1551522039e+03 0.0000000000e+00 0.0000e+00 -1.0000e+00
       -2 -1    0    0    0  501 -0.0000000000e+00 -0.0000000000e+00 -1.0155088076e+03 1.0155088076e+03 0.0000000000e+00 0.0000e+00 1.0000e+00
      -13  1    1    2    0    0 -5.0282718709e+02 -7.5503392341e+01 +2.0585730279e+03 2.1204383635e+03 0.0000000000e+00 0.0000e+00 -1.0000e+00
       13  1    1    2    0    0 +5.0282718709e+02 +7.5503392341e+01 -9.1892963166e+02 1.0502226480e+03 0.0000000000e+00 0.0000e+00 1.0000e+00
<mgrwt>
<rscale>  0 0.29587673E+04</rscale>
<asrwt>0</asrwt>
<pdfrwt beam="1">  1        2 0.33156188E+00 0.29587673E+04</pdfrwt>
<pdfrwt beam="2">  1       -2 0.15623212E+00 0.29587673E+04</pdfrwt>
<totfact> 0.15104921E+00</totfact>
</mgrwt>
<rwgt>
<wgt id='morphing_basis_vector_1'> +1.0503256e-04 </wgt>
<wgt id='morphing_basis_vector_2'> +1.3489279e-04 </wgt>
<wgt id='morphing_basis_vector_3'> +1.2775626e-04 </wgt>
<wgt id='morphing_basis_vector_4'> +1.0531032e-06 </wgt>
<wgt id='morphing_basis_vector_5'> +9.0404239e-05 </wgt>
</rwgt>
</event>
<event>
 4      1 +7.3133000e-09 2.71732500e+03 7.81860800e-03 7.82782500e-02
        2 -1    0    0  501    0 +0.0000000000e+00 +0.0000000000e+00 +2.5537763604e+03 2.5537763604e+03 0.0000000000e+00 0.0000e+00 -1.0000e+00
       -2 -1    0    0    0  501 -0.0000000000e+00 -0.0000000000e+00 -7.2283673195e+02 7.2283673195e+02 0.0000000000e+00 0.0000e+00 1.0000e+00
      -13  1    1    2    0    0 +1.1892527670e+03 -6.0220676466e+02 +5.9875299949e+02 1.4613282607e+03 0.0000000000e+00 0.0000e+00 1.0000e+00
       13  1    1    2    0    0 -1.1892527670e+03 +6.0220676466e+02 +1.2321866289e+03 1.8152848316e+03 0.0000000000e+00 0.0000e+00 -1.0000e+00
<mgrwt>
<rscale>  0 0.27173247E+04</rscale>
<asrwt>0</asrwt>
<pdfrwt beam="1">  1        2 0.39288867E+00 0.27173247E+04</pdfrwt>
<pdfrwt beam="2">  1       -2 0.11120565E+00 0.27173247E+04</pdfrwt>
<totfact> 0.22587507E+00</totfact>
</mgrwt>
<rwgt>
<wgt id='morphing_basis_vector_1'> +5.5809072e-05 </wgt>
<wgt id='morphing_basis_vector_2'> +3.9753781e-05 </wgt>
<wgt id='morphing_basis_vector_3'> +6.1035726e-05 </wgt>
<wgt id='morphing_basis_vector_4'> +4.0354866e-05 </wgt>
<wgt id='morphing_basis_vector_5'> +6.7350589e-05 </wgt>
</rwgt>
</event>
<event>
 4      1 +7.3133000e-09 2.78468300e+03 7.81860800e-03 7.80898400e-02
        2 -1    0    0  501    0 +0.0000000000e+00 +0.0000000000e+00 +2.5672020298e+03 2.5672020298e+03 0.0000000000e+00 0.0000e+00 -1.0000e+00
       -2 -1    0    0    0  501 -0.0000000000e+00 -0.0000000000e+00 -7.5514690770e+02 7.5514690770e+02 0.0000000000e+00 0.0000e+00 1.0000e+00
      -13  1    1    2    0    0 -1.0803087712e+03 -8.7514861919e+02 +9.9580653869e+02 1.7101411665e+03 0.0000000000e+00 0.0000e+00 1.0000e+00
       13  1    1    2    0    0 +1.0803087712e+03 +8.7514861919e+02 +8.1624858337e+02 1.6122077710e+03 0.0000000000e+00 0.0000e+00 -1.0000e+00
<mgrwt>
<rscale>  0 0.27846829E+04</rscale>
<asrwt>0</asrwt>
<pdfrwt beam="1">  1        2 0.39495415E+00 0.27846829E+04</pdfrwt>
<pdfrwt beam="2">  1       -2 0.11617645E+00 0.27846829E+04</pdfrwt>
<totfact> 0.19725433E+00</totfact>
</mgrwt>
<rwgt>
<wgt id='morphing_basis_vector_1'> +6.3105207e-05 </wgt>
<wgt id='morphing_basis_vector_2'> +4.8592230e-05 </wgt>
<wgt id='morphing_basis_vector_3'> +6.9824725e-05 </wgt>
<wgt id='morphing_basis_vector_4'> +4.1202382e-05 </wgt>
<wgt id='morphing_basis_vector_5'> +7.4083685e-05 </wgt>
</rwgt>
</event>
<event>
 4      1 +7.3133000e-09 3.11175300e+03 7.81860800e-03 7.72462200e-02
        2 -1    0    0  501    0 +0.0000000000e+00 +0.0000000000e+00 +1.4500039487e+03 1.4500039487e+03 0.0000000000e+00 0.0000e+00 -1.0000e+00
       -2 -1    0    0    0  501 -0.0000000000e+00 -0.0000000000e+00 -1.6694792407e+03 1.6694792407e+03 0.0000000000e+00 0.0000e+00 1.0000e+00
      -13  1    1    2    0    0 -3.8585623476e+02 -1.3699798702e+03 -7.3980645210e+02 1.6040709040e+03 0.0000000000e+00 0.0000e+00 1.0000e+00
       13  1    1    2    0    0 +3.8585623476e+02 +1.3699798702e+03 +5.2033116011e+02 1.5154122854e+03 0.0000000000e+00 0.0000e+00 -1.0000e+00
<mgrwt>
<rscale>  0 0.31117529E+04</rscale>
<asrwt>0</asrwt>
<pdfrwt beam="1">  1        2 0.22307753E+00 0.31117529E+04</pdfrwt>
<pdfrwt beam="2">  1       -2 0.25684296E+00 0.31117529E+04</pdfrwt>
<totfact> 0.67986630E-01</totfact>
</mgrwt>
<rwgt>
<wgt id='morphing_basis_vector_1'> +9.4486017e-05 </wgt>
<wgt id='morphing_basis_vector_2'> +6.5293883e-05 </wgt>
<wgt id='morphing_basis_vector_3'> +1.0340265e-04 </wgt>
<wgt id='morphing_basis_vector_4'> +7.1804661e-05 </wgt>
<wgt id='morphing_basis_vector_5'> +1.1658612e-04 </wgt>
</rwgt>
</event>
<event>
 4      1 +7.3133000e-09 2.67442800e+03 7.81860800e-03 7.84011600e-02
        2 -1    0    0  501    0 +0.0000000000e+00 +0.0000000000e+00 +2.5423570643e+03 2.5423570643e+03 0.0000000000e+00 0.0000e+00 1.0000e+00
       -2 -1    0    0    0  501 -0.0000000000e+00 -0.0000000000e+00 -7.0334016158e+02 7.0334016158e+02 0.0000000000e+00 0.0000e+00 -1.0000e+00
      -13  1    1    2    0    0 -1.3297697059e+03 -1.3415344019e+02 +8.6720771644e+02 1.5932149383e+03 0.0000000000e+00 0.0000e+00 -1.0000e+00
       13  1    1    2    0    0 +1.3297697059e+03 +1.3415344019e+02 +9.7180918626e+02 1.6524822876e+03 0.0000000000e+00 0.0000e+00 1.0000e+00
<mgrwt>
<rscale>  0 0.26744284E+04</rscale>
<asrwt>0</asrwt>
<pdfrwt beam="1">  1        2 0.39113185E+00 0.26744284E+04</pdfrwt>
<pdfrwt beam="2">  1       -2 0.10820618E+00 0.26744284E+04</pdfrwt>
<totfact> 0.24663980E+00</totfact>
</mgrwt>
<rwgt>
<wgt id='morphing_basis_vector_1'> +5.3173341e-05 </wgt>
<wgt id='morphing_basis_vector_2'> +3.9580201e-05 </wgt>
<wgt id='morphing_basis_vector_3'> +5.8457765e-05 </wgt>
<wgt id='morphing_basis_vector_4'> +3.6255787e-05 </wgt>
<wgt id='morphing_basis_vector_5'> +6.3024182e-05 </wgt>
</rwgt>
</event>
<event>
 4      1 +7.3133000e-09 2.96395500e+03 7.81860800e-03 7.76136200e-02
        2 -1    0    0  501    0 +0.0000000000e+00 +0.0000000000e+00 +3.2952785736e+03 3.2952785736e+03 0.0000000000e+00 0.0000e+00 1.0000e+00
       -2 -1    0    0    0  501 -0.0000000000e+00 -0.0000000000e+00 -6.6648588213e+02 6.6648588213e+02 0.0000000000e+00 0.0000e+00 -1.0000e+00
      -13  1    1    2    0    0 +6.4149436302e+02 -1.3269859118e+03 +1.5208209571e+03 2.1178533971e+03 0.0000000000e+00 0.0000e+00 -1.0000e+00
       13  1    1    2    0    0 -6.4149436302e+02 +1.3269859118e+03 +1.1079717344e+03 1.8439110586e+03 0.0000000000e+00 0.0000e+00 1.0000e+00
<mgrwt>
<rscale>  0 0.29639546E+04</rscale>
<asrwt>0</asrwt>
<pdfrwt beam="1">  1        2 0.50696593E+00 0.29639546E+04</pdfrwt>
<pdfrwt beam="2">  1       -2 0.10253629E+00 0.29639546E+04</pdfrwt>
<totfact> 0.90073906E-01</totfact>
</mgrwt>
<rwgt>
<wgt id='morphing_basis_vector_1'> +8.1455446e-05 </wgt>
<wgt id='morphing_basis_vector_2'> +6.4233223e-05 </wgt>
<wgt id='morphing_basis_vector_3'> +9.0665293e-05 </wgt>
<wgt id='morphing_basis_vector_4'> +5.1628149e-05 </wgt>
<wgt id='morphing_basis_vector_5'> +9.5197842e-05 </wgt>
</rwgt>
</event>
<event>
 4      1 +7.3133000e-09 2.86931300e+03 7.81860800e-03 7.78606400e-02
        2 -1    0    0  501    0 +0.0000000000e+00 +0.0000000000e+00 +1.7887639471e+03 1.7887639471e+03 0.0000000000e+00 0.0000e+00 1.0000e+00
       -2 -1    0    0    0  501 -0.0000000000e+00 -0.0000000000e+00 -1.1506489511e+03 1.1506489511e+03 0.0000000000e+00 0.0000e+00 -1.0000e+00
      -13  1    1    2    0    0 +6.6037630884e+02 -2.0522022933e+02 -9.6864321125e+02 1.1901604440e+03 0.0000000000e+00 0.0000e+00 -1.0000e+00
       13  1    1    2    0    0 -6.6037630884e+02 +2.0522022933e+02 +1.6067582073e+03 1.7492524542e+03 0.0000000000e+00 0.0000e+00 1.0000e+00
<mgrwt>
<rscale>  0 0.28693131E+04</rscale>
<asrwt>0</asrwt>
<pdfrwt beam="1">  1        2 0.27519445E+00 0.28693131E+04</pdfrwt>
<pdfrwt beam="2">  1       -2 0.17702292E+00 0.28693131E+04</pdfrwt>
<totfact> 0.16786708E+00</totfact>
</mgrwt>
<rwgt>
<wgt id='morphing_basis_vector_1'> +6.8031189e-05 </wgt>
<wgt id='morphing_basis_vector_2'> +4.5853821e-05 </wgt>
<wgt id='morphing_basis_vector_3'> +7.4018932e-05 </wgt>
<wgt id='morphing_basis_vector_4'> +5.2754936e-05 </wgt>
<wgt id='morphing_basis_vector_5'> +8.4120228e-05 </wgt>
</rwgt>
</event>
<event>
 4      1 +7.3133000e-09 2.92235300e+03 7.81860800e-03 7.77210400e-02
        2 -1    0    0  501    0 +0.0000000000e+00 +0.0000000000e+00 +4.4776450035e+02 4.4776450035e+02 0.0000000000e+00 0.0000e+00 -1.0000e+00
       -2 -1    0    0    0  501 -0.0000000000e+00 -0.0000000000e+00 -4.7682134911e+03 4.7682134911e+03 0.0000000000e+00 0.0000e+00 1.0000e+00
      -13  1    1    2    0    0 -1.1511583327e+03 +8.9684806600e+02 -2.0274383058e+03 2.4980008095e+03 0.0000000000e+00 0.0000e+00 1.0000e+00
       13  1    1    2    0    0 +1.1511583327e+03 -8.9684806600e+02 -2.2930106849e+03 2.7179771819e+03 0.0000000000e+00 0.0000e+00 -1.0000e+00
<mgrwt>
<rscale>  0 0.29223530E+04</rscale>
<asrwt>0</asrwt>
<pdfrwt beam="1">  1        2 0.68886843E-01 0.29223530E+04</pdfrwt>
<pdfrwt beam="2">  1       -2 0.73357134E+00 0.29223530E+04</pdfrwt>
<totfact> 0.42808497E-03</totfact>
</mgrwt>
<rwgt>
<wgt id='morphing_basis_vector_1'> +7.6358078e-05 </wgt>
<wgt id='morphing_basis_vector_2'> +5.8774258e-05 </wgt>
<wgt id='morphing_basis_vector_3'> +8.4646577e-05 </wgt>
<wgt id='morphing_basis_vector_4'> +5.0138261e-05 </wgt>
<wgt id='morphing_basis_vector_5'> +9.0031012e-05 </wgt>
</rwgt>
</event>
<event>
 4      1 +7.3133000e-09 2.94802200e+03 7.81860800e-03 7.76545500e-02
        2 -1    0    0  501    0 +0.0000000000e+00 +0.0000000000e+00 +1.6521275849e+03 1.6521275849e+03 0.0000000000e+00 0.0000e+00 -1.0000e+00
       -2 -1    0    0    0  501 -0.0000000000e+00 -0.0000000000e+00 -1.3150971977e+03 1.3150971977e+03 0.0000000000e+00 0.0000e+00 1.0000e+00
      -13  1    1    2    0    0 -8.8941024408e+02 -6.7422614757e+02 -8.0060492408e+02 1.3735354836e+03 0.0000000000e+00 0.0000e+00 1.0000e+00
       13  1    1    2    0    0 +8.8941024408e+02 +6.7422614757e+02 +1.1376353112e+03 1.5936892990e+03 0.0000000000e+00 0.0000e+00 -1.0000e+00
<mgrwt>
<rscale>  0 0.29480220E+04</rscale>
<asrwt>0</asrwt>
<pdfrwt beam="1">  1        2 0.25417348E+00 0.29480220E+04</pdfrwt>
<pdfrwt beam="2">  1       -2 0.20232265E+00 0.29480220E+04</pdfrwt>
<totfact> 0.12872645E+00</totfact>
</mgrwt>
<rwgt>
<wgt id='morphing_basis_vector_1'> +7.5851245e-05 </wgt>
<wgt id='morphing_basis_vector_2'> +5.1432886e-05 </wgt>
<wgt id='morphing_basis_vector_3'> +8.2664784e-05 </wgt>
<wgt id='morphing_basis_vector_4'> +5.8591443e-05 </wgt>
<wgt id='morphing_basis_vector_5'> +9.3812096e-05 </wgt>
</rwgt>
</event>
<event>
 4      1 +7.3133000e-09 2.71936600e+03 7.81860800e-03 7.82724600e-02
        2 -1    0    0  501    0 +0.0000000000e+00 +0.0000000000e+00 +3.0941538598e+03 3.0941538598e+03 0.0000000000e+00 0.0000e+00 -1.0000e+00
       -2 -1    0    0    0  501 -0.0000000000e+00 -0.0000000000e+00 -5.9749367454e+02 5.9749367454e+02 0.0000000000e+00 0.0000e+00 1.0000e+00
      -13  1    1    2    0    0 -3.0766431529e+02 -9.1177699240e+02 -5.5716006975e+01 9.6389775817e+02 0.0000000000e+00 0.0000e+00 1.0000e+00
       13  1    1    2    0    0 +3.0766431529e+02 +9.1177699240e+02 +2.5523761923e+03 2.7277497762e+03 0.0000000000e+00 0.0000e+00 -1.0000e+00
<mgrwt>
<rscale>  0 0.27193656E+04</rscale>
<asrwt>0</asrwt>
<pdfrwt beam="1">  1        2 0.47602366E+00 0.27193656E+04</pdfrwt>
<pdfrwt beam="2">  1       -2 0.91922105E-01 0.27193656E+04</pdfrwt>
<totfact> 0.16353093E+00</totfact>
</mgrwt>
<rwgt>
<wgt id='morphing_basis_vector_1'> +5.5066362e-05 </wgt>
<wgt id='morphing_basis_vector_2'> +3.7193917e-05 </wgt>
<wgt id='morphing_basis_vector_3'> +5.9814474e-05 </wgt>
<wgt id='morphing_basis_vector_4'> +4.2354730e-05 </wgt>
<wgt id='morphing_basis_vector_5'> +6.7708568e-05 </wgt>
</rwgt>
</event>
<event>
 4      1 +7.3133000e-09 2.83093900e+03 7.81860800e-03 7.79635600e-02
        2 -1    0    0  501    0 +0.0000000000e+00 +0.0000000000e+00 +2.9292045736e+03 2.9292045736e+03 0.0000000000e+00 0.0000e+00 1.0000e+00
       -2 -1    0    0    0  501 -0.0000000000e+00 -0.0000000000e+00 -6.8399258115e+02 6.8399258115e+02 0.0000000000e+00 0.0000e+00 -1.0000e+00
      -13  1    1    2    0    0 +7.3920901903e+02 -1.1713302259e+03 +1.4949554408e+03 2.0379735626e+03 0.0000000000e+00 0.0000e+00 -1.0000e+00
       13  1    1    2    0    0 -7.3920901903e+02 +1.1713302259e+03 +7.5025655172e+02 1.5752235922e+03 0.0000000000e+00 0.0000e+00 1.0000e+00
<mgrwt>
<rscale>  0 0.28309392E+04</rscale>
<asrwt>0</asrwt>
<pdfrwt beam="1">  1        2 0.45064685E+00 0.28309392E+04</pdfrwt>
<pdfrwt beam="2">  1       -2 0.10522963E+00 0.28309392E+04</pdfrwt>
<totfact> 0.15003351E+00</totfact>
</mgrwt>
<rwgt>
<wgt id='morphing_basis_vector_1'> +6.9324798e-05 </wgt>
<wgt id='morphing_basis_vector_2'> +5.7679143e-05 </wgt>
<wgt id='morphing_basis_vector_3'> +7.7641169e-05 </wgt>
<wgt id='morphing_basis_vector_4'> +3.9960251e-05 </wgt>
<wgt id='morphing_basis_vector_5'> +7.8848573e-05 </wgt>
</rwgt>
</event>
<event>
 4      1 +7.3133000e-09 2.76985700e+03 7.81860800e-03 7.81308400e-02
        2 -1    0    0  501    0 +0.0000000000e+00 +0.0000000000e+00 +3.2276470968e+03 3.2276470968e+03 0.0000000000e+00 0.0000e+00 -1.0000e+00
       -2 -1    0    0    0  501 -0.0000000000e+00 -0.0000000000e+00 -5.9424913098e+02 5.9424913098e+02 0.0000000000e+00 0.0000e+00 1.0000e+00
      -13  1    1    2    0    0 -8.4699203155e+02 +4.4570045050e+02 -6.4485132031e+01 9.5927197673e+02 0.0000000000e+00 0.0000e+00 1.0000e+00
       13  1    1    2    0    0 +8.4699203155e+02 -4.4570045050e+02 +2.6978830979e+03 2.8626242511e+03 0.0000000000e+00 0.0000e+00 -1.0000e+00
<mgrwt>
<rscale>  0 0.27698567E+04</rscale>
<asrwt>0</asrwt>
<pdfrwt beam="1">  1        2 0.49656108E+00 0.27698567E+04</pdfrwt>
<pdfrwt beam="2">  1       -2 0.91422946E-01 0.27698567E+04</pdfrwt>
<totfact> 0.13407382E+00</totfact>
</mgrwt>
<rwgt>
<wgt id='morphing_basis_vector_1'> +5.9215361e-05 </wgt>
<wgt id='morphing_basis_vector_2'> +3.9995078e-05 </wgt>
<wgt id='morphing_basis_vector_3'> +6.4364750e-05 </wgt>
<wgt id='morphing_basis_vector_4'> +4.5641946e-05 </wgt>
<wgt id='morphing_basis_vector_5'> +7.2937372e-05 </wgt>
</rwgt>
</event>
<event>
 4      1 +7.3133000e-09 2.95200500e+03 7.81860800e-03 7.76442900e-02
        2 -1    0    0  501    0 +0.0000000000e+00 +0.0000000000e+00 +3.1202274373e+03 3.1202274373e+03 0.0000000000e+00 0.0000e+00 -1.0000e+00
       -2 -1    0    0    0  501 -0.0000000000e+00 -0.0000000000e+00 -6.9821298449e+02 6.9821298449e+02 0.0000000000e+00 0.0000e+00 1.0000e+00
      -13  1    1    2    0    0 -1.0173331874e+02 +1.4679075921e+03 +1.0608213502e+03 1.8139581870e+03 0.0000000000e+00 0.0000e+00 1.0000e+00
       13  1    1    2    0    0 +1.0173331874e+02 -1.4679075921e+03 +1.3611931027e+03 2.0044822349e+03 0.0000000000e+00 0.0000e+00 -1.0000e+00
<mgrwt>
<rscale>  0 0.29520050E+04</rscale>
<asrwt>0</asrwt>
<pdfrwt beam="1">  1        2 0.48003498E+00 0.29520050E+04</pdfrwt>
<pdfrwt beam="2">  1       -2 0.10741738E+00 0.29520050E+04</pdfrwt>
<totfact> 0.10580064E+00</totfact>
</mgrwt>
<rwgt>
<wgt id='morphing_basis_vector_1'> +7.8217797e-05 </wgt>
<wgt id='morphing_basis_vector_2'> +5.7482616e-05 </wgt>
<wgt id='morphing_basis_vector_3'> +8.6173694e-05 </wgt>
<wgt id='morphing_basis_vector_4'> +5.4836243e-05 </wgt>
<wgt id='morphing_basis_vector_5'> +9.3990195e-05 </wgt>
</rwgt>
</event>
<event>
 4      1 +7.3133000e-09 2.67204400e+03 7.81860800e-03 7.84080600e-02
        2 -1    0    0  501    0 +0.0000000000e+00 +0.0000000000e+00 +1.0793621962e+03 1.0793621962e+03 0.0000000000e+00 0.0000e+00 -1.0000e+00
       -2 -1    0    0    0  501 -0.0000000000e+00 -0.0000000000e+00 -1.6537120169e+03 1.6537120169e+03 0.0000000000e+00 0.0000e+00 1.0000e+00
      -13  1    1    2    0    0 -5.9806712060e+02 +6.1875006230e+02 -1.3324849594e+03 1.5862068237e+03 0.0000000000e+00 0.0000e+00 1.0000e+00
       13  1    1    2    0    0 +5.9806712060e+02 -6.1875006230e+02 +7.5813513877e+02 1.1468673895e+03 0.0000000000e+00 0.0000e+00 -1.0000e+00
<mgrwt>
<rscale>  0 0.26720436E+04</rscale>
<asrwt>0</asrwt>
<pdfrwt beam="1">  1        2 0.16605572E+00 0.26720436E+04</pdfrwt>
<pdfrwt beam="2">  1       -2 0.25441723E+00 0.26720436E+04</pdfrwt>
<totfact> 0.12012827E+00</totfact>
</mgrwt>
<rwgt>
<wgt id='morphing_basis_vector_1'> +5.1348054e-05 </wgt>
<wgt id='morphing_basis_vector_2'> +3.4610317e-05 </wgt>
<wgt id='morphing_basis_vector_3'> +5.5723529e-05 </wgt>
<wgt id='morphing_basis_vector_4'> +3.9503761e-05 </wgt>
<wgt id='morphing_basis_vector_5'> +6.3072578e-05 </wgt>
</rwgt>
</event>
<event>
 4      1 +7.3133000e-09 2.82720000e+03 7.81860800e-03 7.79736800e-02
        2 -1    0    0  501    0 +0.0000000000e+00 +0.0000000000e+00 +9.7509614302e+02 9.7509614302e+02 0.0000000000e+00 0.0000e+00 -1.0000e+00
       -2 -1    0    0    0  501 -0.0000000000e+00 -0.0000000000e+00 -2.0492999331e+03 2.0492999331e+03 0.0000000000e+00 0.0000e+00 1.0000e+00
      -13  1    1    2    0    0 -1.0492439706e+03 +7.8005724870e+02 -1.1120485811e+03 1.7164073723e+03 0.0000000000e+00 0.0000e+00 1.0000e+00
       13  1    1    2    0    0 +1.0492439706e+03 -7.8005724870e+02 +3.7844790986e+01 1.3079887038e+03 0.0000000000e+00 0.0000e+00 -1.0000e+00
<mgrwt>
<rscale>  0 0.28271996E+04</rscale>
<asrwt>0</asrwt>
<pdfrwt beam="1">  1        2 0.15001479E+00 0.28271996E+04</pdfrwt>
<pdfrwt beam="2">  1       -2 0.31527691E+00 0.28271996E+04</pdfrwt>
<totfact> 0.53055508E-01</totfact>
</mgrwt>
<rwgt>
<wgt id='morphing_basis_vector_1'> +6.4666696e-05 </wgt>
<wgt id='morphing_basis_vector_2'> +4.4716907e-05 </wgt>
<wgt id='morphing_basis_vector_3'> +7.0554832e-05 </wgt>
<wgt id='morphing_basis_vector_4'> +4.8651940e-05 </wgt>
<wgt id='morphing_basis_vector_5'> +7.9157621e-05 </wgt>
</rwgt>
</event>
<event>
 4      1 +7.3133000e-09 2.69241400e+03 7.81860800e-03 7.83493400e-02
        2 -1    0    0  501    0 +0.0000000000e+00 +0.0000000000e+00 +1.4076425157e+03 1.4076425157e+03 0.0000000000e+00 0.0000e+00 1.0000e+00
       -2 -1    0    0    0  501 -0.0000000000e+00 -0.0000000000e+00 -1.2874523146e+03 1.2874523146e+03 0.0000000000e+00 0.0000e+00 -1.0000e+00
      -13  1    1    2    0    0 +4.6067641781e+02 -7.9446571055e+02 -9.2519918019e+02 1.3036073221e+03 0.0000000000e+00 0.0000e+00 -1.0000e+00
       13  1    1    2    0    0 -4.6067641781e+02 +7.9446571055e+02 +1.0453893813e+03 1.3914875083e+03 0.0000000000e+00 0.0000e+00 1.0000e+00
<mgrwt>
<rscale>  0 0.26924135E+04</rscale>
<asrwt>0</asrwt>
<pdfrwt beam="1">  1        2 0.21656039E+00 0.26924135E+04</pdfrwt>
<pdfrwt beam="2">  1       -2 0.19806959E+00 0.26924135E+04</pdfrwt>
<totfact> 0.19358389E+00</totfact>
</mgrwt>
<rwgt>
<wgt id='morphing_basis_vector_1'> +5.2927277e-05 </wgt>
<wgt id='morphing_basis_vector_2'> +3.5713108e-05 </wgt>
<wgt id='morphing_basis_vector_3'> +5.7461905e-05 </wgt>
<wgt id='morphing_basis_vector_4'> +4.0707366e-05 </wgt>
<wgt id='morphing_basis_vector_5'> +6.5037620e-05 </wgt>
</rwgt>
</event>
<event>
 4      1 +7.3133000e-09 3.12816600e+03 7.81860800e-03 7.72067300e-02
        2 -1    0    0  501    0 +0.0000000000e+00 +0.0000000000e+00 +2.7381264427e+03 2.7381264427e+03 0.0000000000e+00 0.0000e+00 -1.0000e+00
       -2 -1    0    0    0  501 -0.0000000000e+00 -0.0000000000e+00 -8.9344133437e+02 8.9344133437e+02 0.0000000000e+00 0.0000e+00 1.0000e+00
      -13  1    1    2    0    0 -6.1978501721e+02 -2.3267606334e+02 -7.2276878675e+02 9.8013587686e+02 0.0000000000e+00 0.0000e+00 1.0000e+00
       13  1    1    2    0    0 +6.1978501721e+02 +2.3267606334e+02 +2.5674538951e+03 2.6514319002e+03 0.0000000000e+00 0.0000e+00 -1.0000e+00
<mgrwt>
<rscale>  0 0.31281658E+04</rscale>
<asrwt>0</asrwt>
<pdfrwt beam="1">  1        2 0.42125022E+00 0.31281658E+04</pdfrwt>
<pdfrwt beam="2">  1       -2 0.13745251E+00 0.31281658E+04</pdfrwt>
<totfact> 0.96418851E-01</totfact>
</mgrwt>
<rwgt>
<wgt id='morphing_basis_vector_1'> +9.5797464e-05 </wgt>
<wgt id='morphing_basis_vector_2'> +6.4673046e-05 </wgt>
<wgt id='morphing_basis_vector_3'> +1.0453017e-04 </wgt>
<wgt id='morphing_basis_vector_4'> +7.4765503e-05 </wgt>
<wgt id='morphing_basis_vector_5'> +1.1920299e-04 </wgt>
</rwgt>
</event>
<event>
 4      1 +7.3133000e-09 2.95247600e+03 7.81860800e-03 7.76430800e-02
        2 -1    0    0  501    0 +0.0000000000e+00 +0.0000000000e+00 +2.6141133127e+03 2.6141133127e+03 0.0000000000e+00 0.0000e+00 -1.0000e+00
       -2 -1    0    0    0  501 -0.0000000000e+00 -0.0000000000e+00 -8.3365880465e+02 8.3365880465e+02 0.0000000000e+00 0.0000e+00 1.0000e+00
      -13  1    1    2    0    0 +1.4314678470e+03 -1.9767457377e+02 +1.2426945833e+03 1.9059027419e+03 0.0000000000e+00 0.0000e+00 1.0000e+00
       13  1    1    2    0    0 -1.4314678470e+03 +1.9767457377e+02 +5.3775992475e+02 1.5418693754e+03 0.0000000000e+00 0.0000e+00 -1.0000e+00
<mgrwt>
<rscale>  0 0.29524760E+04</rscale>
<asrwt>0</asrwt>
<pdfrwt beam="1">  1        2 0.40217128E+00 0.29524760E+04</pdfrwt>
<pdfrwt beam="2">  1       -2 0.12825520E+00 0.29524760E+04</pdfrwt>
<totfact> 0.14067502E+00</totfact>
</mgrwt>
<rwgt>
<wgt id='morphing_basis_vector_1'> +8.1854326e-05 </wgt>
<wgt id='morphing_basis_vector_2'> +6.8084998e-05 </wgt>
<wgt id='morphing_basis_vector_3'> +9.1832820e-05 </wgt>
<wgt id='morphing_basis_vector_4'> +4.7411790e-05 </wgt>
<wgt id='morphing_basis_vector_5'> +9.3438286e-05 </wgt>
</rwgt>
</event>
<event>
 4      1 +7.3133000e-09 2.87204000e+03 7.81860800e-03 7.78533900e-02
        2 -1    0    0  501    0 +0.0000000000e+00 +0.0000000000e+00 +2.5134085568e+03 2.5134085568e+03 0.0000000000e+00 0.0000e+00 1.0000e+00
       -2 -1    0    0    0  501 -0.0000000000e+00 -0.0000000000e+00 -8.2046090932e+02 8.2046090932e+02 0.0000000000e+00 0.0000e+00 -1.0000e+00
      -13  1    1    2    0    0 +1.8861357064e+02 +1.0782428200e+03 -2.3249187825e+02 1.1190331234e+03 0.0000000000e+00 0.0000e+00 -1.0000e+00
       13  1    1    2    0    0 -1.8861357064e+02 -1.0782428200e+03 +1.9254395257e+03 2.2148363427e+03 0.0000000000e+00 0.0000e+00 1.0000e+00
<mgrwt>
<rscale>  0 0.28720400E+04</rscale>
<asrwt>0</asrwt>
<pdfrwt beam="1">  1        2 0.38667824E+00 0.28720400E+04</pdfrwt>
<pdfrwt beam="2">  1       -2 0.12622476E+00 0.28720400E+04</pdfrwt>
<totfact> 0.16991141E+00</totfact>
</mgrwt>
<rwgt>
<wgt id='morphing_basis_vector_1'> +6.8402425e-05 </wgt>
<wgt id='morphing_basis_vector_2'> +4.6365959e-05 </wgt>
<wgt id='morphing_basis_vector_3'> +7.4479289e-05 </wgt>
<wgt id='morphing_basis_vector_4'> +5.2719407e-05 </wgt>
<wgt id='morphing_basis_vector_5'> +8.4424053e-05 </wgt>
</rwgt>
</event>
<event>
 4      1 +7.3133000e-09 2.81779500e+03 7.81860800e-03 7.79991900e-02
        2 -1    0    0  501    0 +0.0000000000e+00 +0.0000000000e+00 +1.0897740197e+03 1.0897740197e+03 0.0000000000e+00 0.0000e+00 -1.0000e+00
       -2 -1    0    0    0  501 -0.0000000000e+00 -0.0000000000e+00 -1.8214711209e+03 1.8214711209e+03 0.0000000000e+00 0.0000e+00 1.0000e+00
      -13  1    1    2    0    0 +9.2497019768e+02 -5.4869386685e+01 -1.4623720096e+03 1.7312170317e+03 0.0000000000e+00 0.0000e+00 1.0000e+00
       13  1    1    2    0    0 -9.2497019768e+02 +5.4869386685e+01 +7.3067490846e+02 1.1800281090e+03 0.0000000000e+00 0.0000e+00 -1.0000e+00
<mgrwt>
<rscale>  0 0.28177948E+04</rscale>
<asrwt>0</asrwt>
<pdfrwt beam="1">  1        2 0.16765754E+00 0.28177948E+04</pdfrwt>
<pdfrwt beam="2">  1       -2 0.28022632E+00 0.28177948E+04</pdfrwt>
<totfact> 0.77824924E-01</totfact>
</mgrwt>
<rwgt>
<wgt id='morphing_basis_vector_1'> +6.3361271e-05 </wgt>
<wgt id='morphing_basis_vector_2'> +4.2777945e-05 </wgt>
<wgt id='morphing_basis_vector_3'> +6.8909808e-05 </wgt>
<wgt id='morphing_basis_vector_4'> +4.8950456e-05 </wgt>
<wgt id='morphing_basis_vector_5'> +7.8176823e-05 </wgt>
</rwgt>
</event>
<event>
 4      1 +7.3133000e-09 2.67235800e+03 7.81860800e-03 7.84071500e-02
        2 -1    0    0  501    0 +0.0000000000e+00 +0.0000000000e+00 +9.8138922211e+02 9.8138922211e+02 0.0000000000e+00 0.0000e+00 1.0000e+00
       -2 -1    0    0    0  501 -0.0000000000e+00 -0.0000000000e+00 -1.8192322662e+03 1.8192322662e+03 0.0000000000e+00 0.0000e+00 -1.0000e+00
      -13  1    1    2    0    0 +6.7466968691e+01 -1.1227996192e+03 -1.1747470708e+03 1.6264259765e+03 0.0000000000e+00 0.0000e+00 1.0000e+00
       13  1    1    2    0    0 -6.7466968691e+01 +1.1227996192e+03 +3.3690402673e+02 1.1741955118e+03 0.0000000000e+00 0.0000e+00 -1.0000e+00
<mgrwt>
<rscale>  0 0.26723585E+04</rscale>
<asrwt>0</asrwt>
<pdfrwt beam="1">  1        2 0.15098296E+00 0.26723585E+04</pdfrwt>
<pdfrwt beam="2">  1       -2 0.27988188E+00 0.26723585E+04</pdfrwt>
<totfact> 0.92335054E-01</totfact>
</mgrwt>
<rwgt>
<wgt id='morphing_basis_vector_1'> +5.1519946e-05 </wgt>
<wgt id='morphing_basis_vector_2'> +3.5062818e-05 </wgt>
<wgt id='morphing_basis_vector_3'> +5.5977947e-05 </wgt>
<wgt id='morphing_basis_vector_4'> +3.9217408e-05 </wgt>
<wgt id='morphing_basis_vector_5'> +6.3077771e-05 </wgt>
</rwgt>
</event>
<event>
 4      1 +7.3133000e-09 2.76173700e+03 7.81860800e-03 7.81534100e-02
        2 -1    0    0  501    0 +0.0000000000e+00 +0.0000000000e+00 +2.9348074692e+03 2.9348074692e+03 0.0000000000e+00 0.0000e+00 -1.0000e+00
       -2 -1    0    0    0  501 -0.0000000000e+00 -0.0000000000e+00 -6.4971808384e+02 6.4971808384e+02 0.0000000000e+00 0.0000e+00 1.0000e+00
      -13  1    1    2    0    0 -5.9992226234e+02 -2.5622347877e+02 -4.3710998726e+02 7.8525303749e+02 0.0000000000e+00 0.0000e+00 1.0000e+00
       13  1    1    2    0    0 +5.9992226234e+02 +2.5622347877e+02 +2.7221993726e+03 2.7992725155e+03 0.0000000000e+00 0.0000e+00 -1.0000e+00
<mgrwt>
<rscale>  0 0.27617368E+04</rscale>
<asrwt>0</asrwt>
<pdfrwt beam="1">  1        2 0.45150883E+00 0.27617368E+04</pdfrwt>
<pdfrwt beam="2">  1       -2 0.99956630E-01 0.27617368E+04</pdfrwt>
<totfact> 0.16970573E+00</totfact>
</mgrwt>
<rwgt>
<wgt id='morphing_basis_vector_1'> +5.8479332e-05 </wgt>
<wgt id='morphing_basis_vector_2'> +3.9376788e-05 </wgt>
<wgt id='morphing_basis_vector_3'> +6.3533265e-05 </wgt>
<wgt id='morphing_basis_vector_4'> +4.5211362e-05 </wgt>
<wgt id='morphing_basis_vector_5'> +7.2085817e-05 </wgt>
</rwgt>
</event>
<event>
 4      1 +7.3133000e-09 2.97125500e+03 7.81860800e-03 7.75949600e-02
        2 -1    0    0  501    0 +0.0000000000e+00 +0.0000000000e+00 +2.7018516395e+03 2.7018516395e+03 0.0000000000e+00 0.0000e+00 -1.0000e+00
       -2 -1    0    0    0  501 -0.0000000000e+00 -0.0000000000e+00 -8.1688037431e+02 8.1688037431e+02 0.0000000000e+00 0.0000e+00 1.0000e+00
      -13  1    1    2    0    0 -3.3655351235e+02 -1.1320938510e+03 -1.2478276960e+02 1.1876344108e+03 0.0000000000e+00 0.0000e+00 1.0000e+00
       13  1    1    2    0    0 +3.3655351235e+02 +1.1320938510e+03 +2.0097540348e+03 2.3310976030e+03 0.0000000000e+00 0.0000e+00 -1.0000e+00
<mgrwt>
<rscale>  0 0.29712553E+04</rscale>
<asrwt>0</asrwt>
<pdfrwt beam="1">  1        2 0.41566948E+00 0.29712553E+04</pdfrwt>
<pdfrwt beam="2">  1       -2 0.12567390E+00 0.29712553E+04</pdfrwt>
<totfact> 0.13095427E+00</totfact>
</mgrwt>
<rwgt>
<wgt id='morphing_basis_vector_1'> +7.8298100e-05 </wgt>
<wgt id='morphing_basis_vector_2'> +5.3215073e-05 </wgt>
<wgt id='morphing_basis_vector_3'> +8.5378497e-05 </wgt>
<wgt id='morphing_basis_vector_4'> +6.0372783e-05 </wgt>
<wgt id='morphing_basis_vector_5'> +9.6823666e-05 </wgt>
</rwgt>
</event>
<event>
 4      1 +7.3133000e-09 2.83063700e+03 7.81860800e-03 7.79643800e-02
        2 -1    0    0  501    0 +0.0000000000e+00 +0.0000000000e+00 +3.0515509207e+03 3.0515509207e+03 0.0000000000e+00 0.0000e+00 -1.0000e+00
       -2 -1    0    0    0  501 -0.0000000000e+00 -0.0000000000e+00 -6.5642896923e+02 6.5642896923e+02 0.0000000000e+00 0.0000e+00 1.0000e+00
      -13  1    1    2    0    0 +6.6539675616e+02 -8.1111345108e+01 -4.3530292847e+02 7.9926249314e+02 0.0000000000e+00 0.0000e+00 1.0000e+00
       13  1    1    2    0    0 -6.6539675616e+02 +8.1111345108e+01 +2.8304248800e+03 2.9087173968e+03 0.0000000000e+00 0.0000e+00 -1.0000e+00
<mgrwt>
<rscale>  0 0.28306370E+04</rscale>
<asrwt>0</asrwt>
<pdfrwt beam="1">  1        2 0.46946937E+00 0.28306370E+04</pdfrwt>
<pdfrwt beam="2">  1       -2 0.10098907E+00 0.28306370E+04</pdfrwt>
<totfact> 0.13816094E+00</totfact>
</mgrwt>
<rwgt>
<wgt id='morphing_basis_vector_1'> +6.4470941e-05 </wgt>
<wgt id='morphing_basis_vector_2'> +4.3438061e-05 </wgt>
<wgt id='morphing_basis_vector_3'> +7.0109484e-05 </wgt>
<wgt id='morphing_basis_vector_4'> +4.9943439e-05 </wgt>
<wgt id='morphing_basis_vector_5'> +7.9633270e-05 </wgt>
</rwgt>
</event>
<event>
 4      1 +7.3133000e-09 3.06270700e+03 7.81860800e-03 7.73657600e-02
        2 -1    0    0  501    0 +0.0000000000e+00 +0.0000000000e+00 +2.1616543017e+03 2.1616543017e+03 0.0000000000e+00 0.0000e+00 1.0000e+00
       -2 -1    0    0    0  501 -0.0000000000e+00 -0.0000000000e+00 -1.0848377604e+03 1.0848377604e+03 0.0000000000e+00 0.0000e+00 -1.0000e+00
      -13  1    1    2    0    0 -1.1758120846e+03 -8.5682460489e+02 +3.1860377816e+01 1.4552310969e+03 0.0000000000e+00 0.0000e+00 -1.0000e+00
       13  1    1    2    0    0 +1.1758120846e+03 +8.5682460489e+02 +1.0449561634e+03 1.7912609651e+03 0.0000000000e+00 0.0000e+00 1.0000e+00
<mgrwt>
<rscale>  0 0.30627074E+04</rscale>
<asrwt>0</asrwt>
<pdfrwt beam="1">  1        2 0.33256220E+00 0.30627074E+04</pdfrwt>
<pdfrwt beam="2">  1       -2 0.16689812E+00 0.30627074E+04</pdfrwt>
<totfact> 0.12206095E+00</totfact>
</mgrwt>
<rwgt>
<wgt id='morphing_basis_vector_1'> +8.9040342e-05 </wgt>
<wgt id='morphing_basis_vector_2'> +6.2240654e-05 </wgt>
<wgt id='morphing_basis_vector_3'> +9.7546311e-05 </wgt>
<wgt id='morphing_basis_vector_4'> +6.6674155e-05 </wgt>
<wgt id='morphing_basis_vector_5'> +1.0929432e-04 </wgt>
</rwgt>
</event>
<event>
 4      1 +7.3133000e-09 3.10349100e+03 7.81860800e-03 7.72662000e-02
        2 -1    0    0  501    0 +0.0000000000e+00 +0.0000000000e+00 +1.7372859051e+03 1.7372859051e+03 0.0000000000e+00 0.0000e+00 1.0000e+00
       -2 -1    0    0    0  501 -0.0000000000e+00 -0.0000000000e+00 -1.3860203532e+03 1.3860203532e+03 0.0000000000e+00 0.0000e+00 -1.0000e+00
      -13  1    1    2    0    0 -7.0949546501e+01 -8.9316113863e+02 -1.0993989282e+03 1.4182554992e+03 0.0000000000e+00 0.0000e+00 -1.0000e+00
       13  1    1    2    0    0 +7.0949546501e+01 +8.9316113863e+02 +1.4506644801e+03 1.7050507592e+03 0.0000000000e+00 0.0000e+00 1.0000e+00
<mgrwt>
<rscale>  0 0.31034907E+04</rscale>
<asrwt>0</asrwt>
<pdfrwt beam="1">  1        2 0.26727475E+00 0.31034907E+04</pdfrwt>
<pdfrwt beam="2">  1       -2 0.21323390E+00 0.31034907E+04</pdfrwt>
<totfact> 0.95024386E-01</totfact>
</mgrwt>
<rwgt>
<wgt id='morphing_basis_vector_1'> +9.2864576e-05 </wgt>
<wgt id='morphing_basis_vector_2'> +6.2749750e-05 </wgt>
<wgt id='morphing_basis_vector_3'> +1.0131896e-04 </wgt>
<wgt id='morphing_basis_vector_4'> +7.2354557e-05 </wgt>
<wgt id='morphing_basis_vector_5'> +1.1545107e-04 </wgt>
</rwgt>
</event>
<event>
 4      1 +7.3133000e-09 3.03094900e+03 7.81860800e-03 7.74444000e-02
        2 -1    0    0  501    0 +0.0000000000e+00 +0.0000000000e+00 +1.2977538615e+03 1.2977538615e+03 0.0000000000e+00 0.0000e+00 1.0000e+00
       -2 -1    0    0    0  501 -0.0000000000e+00 -0.0000000000e+00 -1.7697210861e+03 1.7697210861e+03 0.0000000000e+00 0.0000e+00 -1.0000e+00
      -13  1    1    2    0    0 +5.2356612902e+02 -1.0875115838e+03 -1.1634661773e+03 1.6764416131e+03 0.0000000000e+00 0.0000e+00 -1.0000e+00
       13  1    1    2    0    0 -5.2356612902e+02 +1.0875115838e+03 +6.9149895267e+02 1.3910333346e+03 0.0000000000e+00 0.0000e+00 1.0000e+00
<mgrwt>
<rscale>  0 0.30309486E+04</rscale>
<asrwt>0</asrwt>
<pdfrwt beam="1">  1        2 0.19965444E+00 0.30309486E+04</pdfrwt>
<pdfrwt beam="2">  1       -2 0.27226478E+00 0.30309486E+04</pdfrwt>
<totfact> 0.65437236E-01</totfact>
</mgrwt>
<rwgt>
<wgt id='morphing_basis_vector_1'> +8.4723697e-05 </wgt>
<wgt id='morphing_basis_vector_2'> +5.7612333e-05 </wgt>
<wgt id='morphing_basis_vector_3'> +9.2448674e-05 </wgt>
<wgt id='morphing_basis_vector_4'> +6.5412239e-05 </wgt>
<wgt id='morphing_basis_vector_5'> +1.0491557e-04 </wgt>
</rwgt>
</event>
<event>
 4      1 +7.3133000e-09 2.81098500e+03 7.81860800e-03 7.80177300e-02
        2 -1    0    0  501    0 +0.0000000000e+00 +0.0000000000e+00 +1.4261418763e+03 1.4261418763e+03 0.0000000000e+00 0.0000e+00 -1.0000e+00
       -2 -1    0    0    0  501 -0.0000000000e+00 -0.0000000000e+00 -1.3851421905e+03 1.3851421905e+03 0.0000000000e+00 0.0000e+00 1.0000e+00
      -13  1    1    2    0    0 +4.4158968638e+02 -5.4720407279e+02 -1.1965829781e+03 1.3878921326e+03 0.0000000000e+00 0.0000e+00 1.0000e+00
       13  1    1    2    0    0 -4.4158968638e+02 +5.4720407279e+02 +1.2375826639e+03 1.4233919342e+03 0.0000000000e+00 0.0000e+00 -1.0000e+00
<mgrwt>
<rscale>  0 0.28109851E+04</rscale>
<asrwt>0</asrwt>
<pdfrwt beam="1">  1        2 0.21940644E+00 0.28109851E+04</pdfrwt>
<pdfrwt beam="2">  1       -2 0.21309880E+00 0.28109851E+04</pdfrwt>
<totfact> 0.14562135E+00</totfact>
</mgrwt>
<rwgt>
<wgt id='morphing_basis_vector_1'> +6.2719972e-05 </wgt>
<wgt id='morphing_basis_vector_2'> +4.2257793e-05 </wgt>
<wgt id='morphing_basis_vector_3'> +6.8188694e-05 </wgt>
<wgt id='morphing_basis_vector_4'> +4.8551594e-05 </wgt>
<wgt id='morphing_basis_vector_5'> +7.7422609e-05 </wgt>
</rwgt>
</event>
<event>
 4      1 +7.3133000e-09 3.20193500e+03 7.81860800e-03 7.70322600e-02
        2 -1    0    0  501    0 +0.0000000000e+00 +0.0000000000e+00 +1.7085987765e+03 1.7085987765e+03 0.0000000000e+00 0.0000e+00 1.0000e+00
       -2 -1    0    0    0  501 -0.0000000000e+00 -0.0000000000e+00 -1.5001160640e+03 1.5001160640e+03 0.0000000000e+00 0.0000e+00 -1.0000e+00
      -13  1    1    2    0    0 +2.5991593771e+02 +1.5789301344e+03 +5.3937378365e+01 1.6010889747e+03 0.0000000000e+00 0.0000e+00 -1.0000e+00
       13  1    1    2    0    0 -2.5991593771e+02 -1.5789301344e+03 +1.5454533414e+02 1.6076258658e+03 0.0000000000e+00 0.0000e+00 1.0000e+00
<mgrwt>
<rscale>  0 0.32019347E+04</rscale>
<asrwt>0</asrwt>
<pdfrwt beam="1">  1        2 0.26286135E+00 0.32019347E+04</pdfrwt>
<pdfrwt beam="2">  1       -2 0.23078709E+00 0.32019347E+04</pdfrwt>
<totfact> 0.73429634E-01</totfact>
</mgrwt>
<rwgt>
<wgt id='morphing_basis_vector_1'> +1.0851362e-04 </wgt>
<wgt id='morphing_basis_vector_2'> +8.1082196e-05 </wgt>
<wgt id='morphing_basis_vector_3'> +1.2015237e-04 </wgt>
<wgt id='morphing_basis_vector_4'> +7.4947179e-05 </wgt>
<wgt id='morphing_basis_vector_5'> +1.3035570e-04 </wgt>
</rwgt>
</event>
<event>
 4      1 +7.3133000e-09 2.76753000e+03 7.81860800e-03 7.81373000e-02
        2 -1    0    0  501    0 +0.0000000000e+00 +0.0000000000e+00 +2.3711950594e+03 2.3711950594e+03 0.0000000000e+00 0.0000e+00 1.0000e+00
       -2 -1    0    0    0  501 -0.0000000000e+00 -0.0000000000e+00 -8.0752743894e+02 8.0752743894e+02 0.0000000000e+00 0.0000e+00 -1.0000e+00
      -13  1    1    2    0    0 -1.1944559658e+03 +4.2526891360e+02 +1.4520017435e+02 1.2761903439e+03 0.0000000000e+00 0.0000e+00 -1.0000e+00
       13  1    1    2    0    0 +1.1944559658e+03 -4.2526891360e+02 +1.4184674461e+03 1.9025321545e+03 0.0000000000e+00 0.0000e+00 1.0000e+00
<mgrwt>
<rscale>  0 0.27675296E+04</rscale>
<asrwt>0</asrwt>
<pdfrwt beam="1">  1        2 0.36479924E+00 0.27675296E+04</pdfrwt>
<pdfrwt beam="2">  1       -2 0.12423499E+00 0.27675296E+04</pdfrwt>
<totfact> 0.21697597E+00</totfact>
</mgrwt>
<rwgt>
<wgt id='morphing_basis_vector_1'> +5.9388002e-05 </wgt>
<wgt id='morphing_basis_vector_2'> +4.0949814e-05 </wgt>
<wgt id='morphing_basis_vector_3'> +6.4721125e-05 </wgt>
<wgt id='morphing_basis_vector_4'> +4.4723210e-05 </wgt>
<wgt id='morphing_basis_vector_5'> +7.2627587e-05 </wgt>
</rwgt>
</event>
<event>
 4      1 +7.3133000e-09 3.02330800e+03 7.81860800e-03 7.74634700e-02
        2 -1    0    0  501    0 +0.0000000000e+00 +0.0000000000e+00 +2.4767567118e+03 2.4767567118e+03 0.0000000000e+00 0.0000e+00 1.0000e+00
       -2 -1    0    0    0  501 -0.0000000000e+00 -0.0000000000e+00 -9.2261684111e+02 9.2261684111e+02 0.0000000000e+00 0.0000e+00 -1.0000e+00
      -13  1    1    2    0    0 +1.5096054482e+03 -7.4205015313e+00 +6.8900953543e+02 1.6594269532e+03 0.0000000000e+00 0.0000e+00 1.0000e+00
       13  1    1    2    0    0 -1.5096054482e+03 +7.4205015313e+00 +8.6513033523e+02 1.7399465997e+03 0.0000000000e+00 0.0000e+00 -1.0000e+00
<mgrwt>
<rscale>  0 0.30233078E+04</rscale>
<asrwt>0</asrwt>
<pdfrwt beam="1">  1        2 0.38103949E+00 0.30233078E+04</pdfrwt>
<pdfrwt beam="2">  1       -2 0.14194105E+00 0.30233078E+04</pdfrwt>
<totfact> 0.12829009E+00</totfact>
</mgrwt>
<rwgt>
<wgt id='morphing_basis_vector_1'> +8.6219259e-05 </wgt>
<wgt id='morphing_basis_vector_2'> +6.3924215e-05 </wgt>
<wgt id='morphing_basis_vector_3'> +9.5184901e-05 </wgt>
<wgt id='morphing_basis_vector_4'> +5.9876669e-05 </wgt>
<wgt id='morphing_basis_vector_5'> +1.0345182e-04 </wgt>
</rwgt>
</event>
<event>
 4      1 +7.3133000e-09 2.86056000e+03 7.81860800e-03 7.78839700e-02
        2 -1    0    0  501    0 +0.0000000000e+00 +0.0000000000e+00 +2.4964588716e+03 2.4964588716e+03 0.0000000000e+00 0.0000e+00 -1.0000e+00
       -2 -1    0    0    0  501 -0.0000000000e+00 -0.0000000000e+00 -8.1944091001e+02 8.1944091001e+02 0.0000000000e+00 0.0000e+00 1.0000e+00
      -13  1    1    2    0    0 -8.8564136906e+02 -7.5373239842e+02 -1.2662636561e+02 1.1698322100e+03 0.0000000000e+00 0.0000e+00 1.0000e+00
       13  1    1    2    0    0 +8.8564136906e+02 +7.5373239842e+02 +1.8036443272e+03 2.1460675716e+03 0.0000000000e+00 0.0000e+00 -1.0000e+00
<mgrwt>
<rscale>  0 0.28605598E+04</rscale>
<asrwt>0</asrwt>
<pdfrwt beam="1">  1        2 0.38407059E+00 0.28605598E+04</pdfrwt>
<pdfrwt beam="2">  1       -2 0.12606783E+00 0.28605598E+04</pdfrwt>
<totfact> 0.17466288E+00</totfact>
</mgrwt>
<rwgt>
<wgt id='morphing_basis_vector_1'> +6.7390643e-05 </wgt>
<wgt id='morphing_basis_vector_2'> +4.5822512e-05 </wgt>
<wgt id='morphing_basis_vector_3'> +7.3396971e-05 </wgt>
<wgt id='morphing_basis_vector_4'> +5.1739541e-05 </wgt>
<wgt id='morphing_basis_vector_5'> +8.3058358e-05 </wgt>
</rwgt>
</event>
<event>
 4      1 +7.3133000e-09 2.77319900e+03 7.81860800e-03 7.81215800e-02
        2 -1    0    0  501    0 +0.0000000000e+00 +0.0000000000e+00 +8.1719378545e+02 8.1719378545e+02 0.0000000000e+00 0.0000e+00 1.0000e+00
       -2 -1    0    0    0  501 -0.0000000000e+00 -0.0000000000e+00 -2.3527567830e+03 2.3527567830e+03 0.0000000000e+00 0.0000e+00 -1.0000e+00
      -13  1    1    2    0    0 -1.1968376716e+03 +6.6724980532e+02 -5.2525872784e+02 1.4674942747e+03 0.0000000000e+00 0.0000e+00 1.0000e+00
       13  1    1    2    0    0 +1.1968376716e+03 -6.6724980532e+02 -1.0103042698e+03 1.7024562938e+03 0.0000000000e+00 0.0000e+00 -1.0000e+00
<mgrwt>
<rscale>  0 0.27731990E+04</rscale>
<asrwt>0</asrwt>
<pdfrwt beam="1">  1        2 0.12572212E+00 0.27731990E+04</pdfrwt>
<pdfrwt beam="2">  1       -2 0.36196258E+00 0.27731990E+04</pdfrwt>
<totfact> 0.33391987E-01</totfact>
</mgrwt>
<rwgt>
<wgt id='morphing_basis_vector_1'> +6.3163887e-05 </wgt>
<wgt id='morphing_basis_vector_2'> +5.0990265e-05 </wgt>
<wgt id='morphing_basis_vector_3'> +7.0357081e-05 </wgt>
<wgt id='morphing_basis_vector_4'> +3.8280443e-05 </wgt>
<wgt id='morphing_basis_vector_5'> +7.2673757e-05 </wgt>
</rwgt>
</event>
<event>
 4      1 +7.3133000e-09 2.76568500e+03 7.81860800e-03 7.81424300e-02
        2 -1    0    0  501    0 +0.0000000000e+00 +0.0000000000e+00 +3.3457511216e+03 3.3457511216e+03 0.0000000000e+00 0.0000e+00 -1.0000e+00
       -2 -1    0    0    0  501 -0.0000000000e+00 -0.0000000000e+00 -5.7154670767e+02 5.7154670767e+02 0.0000000000e+00 0.0000e+00 1.0000e+00
      -13  1    1    2    0    0 -8.5525398320e+02 -3.7745441674e+01 -1.5108345978e+02 8.6931599891e+02 0.0000000000e+00 0.0000e+00 1.0000e+00
       13  1    1    2    0    0 +8.5525398320e+02 +3.7745441674e+01 +2.9252878737e+03 3.0479818303e+03 0.0000000000e+00 0.0000e+00 -1.0000e+00
<mgrwt>
<rscale>  0 0.27656848E+04</rscale>
<asrwt>0</asrwt>
<pdfrwt beam="1">  1        2 0.51473093E+00 0.27656848E+04</pdfrwt>
<pdfrwt beam="2">  1       -2 0.87930265E-01 0.27656848E+04</pdfrwt>
<totfact> 0.12166910E+00</totfact>
</mgrwt>
<rwgt>
<wgt id='morphing_basis_vector_1'> +5.8835912e-05 </wgt>
<wgt id='morphing_basis_vector_2'> +3.9675313e-05 </wgt>
<wgt id='morphing_basis_vector_3'> +6.3935875e-05 </wgt>
<wgt id='morphing_basis_vector_4'> +4.5421241e-05 </wgt>
<wgt id='morphing_basis_vector_5'> +7.2498992e-05 </wgt>
</rwgt>
</event>
<event>
 4      1 +7.3133000e-09 3.18998000e+03 7.81860800e-03 7.70602100e-02
        2 -1    0    0  501    0 +0.0000000000e+00 +0.0000000000e+00 +1.5987765790e+03 1.5987765790e+03 0.0000000000e+00 0.0000e+00 1.0000e+00
       -2 -1    0    0    0  501 -0.0000000000e+00 -0.0000000000e+00 -1.5912121365e+03 1.5912121365e+03 0.0000000000e+00 0.0000e+00 -1.0000e+00
      -13  1    1    2    0    0 +5.0582372891e+01 -1.1228743464e+03 -1.1278513426e+03 1.5923109072e+03 0.0000000000e+00 0.0000e+00 -1.0000e+00
       13  1    1    2    0    0 -5.0582372891e+01 +1.1228743464e+03 +1.1354157851e+03 1.5976778083e+03 0.0000000000e+00 0.0000e+00 1.0000e+00
<mgrwt>
<rscale>  0 0.31899797E+04</rscale>
<asrwt>0</asrwt>
<pdfrwt beam="1">  1        2 0.24596563E+00 0.31899797E+04</pdfrwt>
<pdfrwt beam="2">  1       -2 0.24480187E+00 0.31899797E+04</pdfrwt>
<totfact> 0.67555565E-01</totfact>
</mgrwt>
<rwgt>
<wgt id='morphing_basis_vector_1'> +1.0364172e-04 </wgt>
<wgt id='morphing_basis_vector_2'> +7.0247989e-05 </wgt>
<wgt id='morphing_basis_vector_3'> +1.1321065e-04 </wgt>
<wgt id='morphing_basis_vector_4'> +8.0669185e-05 </wgt>
<wgt id='morphing_basis_vector_5'> +1.2896937e-04 </wgt>
</rwgt>
</event>
<event>
 4      1 +7.3133000e-09 2.86010600e+03 7.81860800e-03 7.78851800e-02
        2 -1    0    0  501    0 +0.0000000000e+00 +0.0000000000e+00 +1.8416348623e+03 1.8416348623e+03 0.0000000000e+00 0.0000e+00 -1.0000e+00
       -2 -1    0    0    0  501 -0.0000000000e+00 -0.0000000000e+00 -1.1104542655e+03 1.1104542655e+03 0.0000000000e+00 0.0000e+00 1.0000e+00
      -13  1    1    2    0    0 +2.0390510882e+02 -3.3674431040e+02 -1.0534252252e+03 1.1245793565e+03 0.0000000000e+00 0.0000e+00 1.0000e+00
       13  1    1    2    0    0 -2.0390510882e+02 +3.3674431040e+02 +1.7846058221e+03 1.8275097713e+03 0.0000000000e+00 0.0000e+00 -1.0000e+00
<mgrwt>
<rscale>  0 0.28601058E+04</rscale>
<asrwt>0</asrwt>
<pdfrwt beam="1">  1        2 0.28332844E+00 0.28601058E+04</pdfrwt>
<pdfrwt beam="2">  1       -2 0.17083912E+00 0.28601058E+04</pdfrwt>
<totfact> 0.17522080E+00</totfact>
</mgrwt>
<rwgt>
<wgt id='morphing_basis_vector_1'> +6.7159902e-05 </wgt>
<wgt id='morphing_basis_vector_2'> +4.5238447e-05 </wgt>
<wgt id='morphing_basis_vector_3'> +7.3057218e-05 </wgt>
<wgt id='morphing_basis_vector_4'> +5.2097237e-05 </wgt>
<wgt id='morphing_basis_vector_5'> +8.3037153e-05 </wgt>
</rwgt>
</event>
<event>
 4      1 +7.3133000e-09 2.70717200e+03 7.81860800e-03 7.83071300e-02
        2 -1    0    0  501    0 +0.0000000000e+00 +0.0000000000e+00 +1.5895773162e+03 1.5895773162e+03 0.0000000000e+00 0.0000e+00 1.0000e+00
       -2 -1    0    0    0  501 -0.0000000000e+00 -0.0000000000e+00 -1.1526304341e+03 1.1526304341e+03 0.0000000000e+00 0.0000e+00 -1.0000e+00
      -13  1    1    2    0    0 +4.1714843046e+02 +7.7667767564e+02 -8.2192881365e+02 1.2053248523e+03 0.0000000000e+00 0.0000e+00 -1.0000e+00
       13  1    1    2    0    0 -4.1714843046e+02 -7.7667767564e+02 +1.2588756958e+03 1.5368828980e+03 0.0000000000e+00 0.0000e+00 1.0000e+00
<mgrwt>
<rscale>  0 0.27071721E+04</rscale>
<asrwt>0</asrwt>
<pdfrwt beam="1">  1        2 0.24455036E+00 0.27071721E+04</pdfrwt>
<pdfrwt beam="2">  1       -2 0.17732776E+00 0.27071721E+04</pdfrwt>
<totfact> 0.21852086E+00</totfact>
</mgrwt>
<rwgt>
<wgt id='morphing_basis_vector_1'> +5.4072496e-05 </wgt>
<wgt id='morphing_basis_vector_2'> +3.6464704e-05 </wgt>
<wgt id='morphing_basis_vector_3'> +5.8713227e-05 </wgt>
<wgt id='morphing_basis_vector_4'> +4.1640990e-05 </wgt>
<wgt id='morphing_basis_vector_5'> +6.6493307e-05 </wgt>
</rwgt>
</event>
<event>
 4      1 +7.3133000e-09 2.80613300e+03 7.81860800e-03 7.80309700e-02
        2 -1    0    0  501    0 +0.0000000000e+00 +0.0000000000e+00 +3.1470808912e+03 3.1470808912e+03 0.0000000000e+00 0.0000e+00 1.0000e+00
       -2 -1    0    0    0  501 -0.0000000000e+00 -0.0000000000e+00 -6.2553064573e+02 6.2553064573e+02 0.0000000000e+00 0.0000e+00 -1.0000e+00
      -13  1    1    2    0    0 +5.8266151149e+02 +4.8566264866e+02 +2.8476610341e+03 2.9469536831e+03 0.0000000000e+00 0.0000e+00 1.0000e+00
       13  1    1    2    0    0 -5.8266151149e+02 -4.8566264866e+02 -3.2611078855e+02 8.2565785389e+02 0.0000000000e+00 0.0000e+00 -1.0000e+00
<mgrwt>
<rscale>  0 0.28061330E+04</rscale>
<asrwt>0</asrwt>
<pdfrwt beam="1">  1        2 0.48416628E+00 0.28061330E+04</pdfrwt>
<pdfrwt beam="2">  1       -2 0.96235486E-01 0.28061330E+04</pdfrwt>
<totfact> 0.13429322E+00</totfact>
</mgrwt>
<rwgt>
<wgt id='morphing_basis_vector_1'> +8.3896908e-05 </wgt>
<wgt id='morphing_basis_vector_2'> +1.0563556e-04 </wgt>
<wgt id='morphing_basis_vector_3'> +1.0125994e-04 </wgt>
<wgt id='morphing_basis_vector_4'> +3.4639303e-06 </wgt>
<wgt id='morphing_basis_vector_5'> +7.3222841e-05 </wgt>
</rwgt>
</event>
<event>
 4      1 +7.3133000e-09 2.95591400e+03 7.81860800e-03 7.76342400e-02
        2 -1    0    0  501    0 +0.0000000000e+00 +0.0000000000e+00 +3.6498423206e+02 3.6498423206e+02 0.0000000000e+00 0.0000e+00 -1.0000e+00
       -2 -1    0    0    0  501 -0.0000000000e+00 -0.0000000000e+00 -5.9847959793e+03 5.9847959793e+03 0.0000000000e+00 0.0000e+00 1.0000e+00
      -13  1    1    2    0    0 -1.0192927459e+01 -9.3658252182e+02 -5.2658339180e+03 5.3484855397e+03 0.0000000000e+00 0.0000e+00 1.0000e+00
       13  1    1    2    0    0 +1.0192927459e+01 +9.3658252182e+02 -3.5397782920e+02 1.0012946717e+03 0.0000000000e+00 0.0000e+00 -1.0000e+00
<mgrwt>
<rscale>  0 0.29559135E+04</rscale>
<asrwt>0</asrwt>
<pdfrwt beam="1">  1        2 0.56151424E-01 0.29559135E+04</pdfrwt>
<pdfrwt beam="2">  1       -2 0.92073778E+00 0.29559135E+04</pdfrwt>
<totfact> 0.93528093E-04</totfact>
</mgrwt>
<rwgt>
<wgt id='morphing_basis_vector_1'> +7.6573194e-05 </wgt>
<wgt id='morphing_basis_vector_2'> +5.1730912e-05 </wgt>
<wgt id='morphing_basis_vector_3'> +8.3418824e-05 </wgt>
<wgt id='morphing_basis_vector_4'> +5.9405468e-05 </wgt>
<wgt id='morphing_basis_vector_5'> +9.4844571e-05 </wgt>
</rwgt>
</event>
<event>
 4      1 +7.3133000e-09 2.93610400e+03 7.81860800e-03 7.76853300e-02
        2 -1    0    0  501    0 +0.0000000000e+00 +0.0000000000e+00 +1.5628561224e+03 1.5628561224e+03 0.0000000000e+00 0.0000e+00 -1.0000e+00
       -2 -1    0    0    0  501 -0.0000000000e+00 -0.0000000000e+00 -1.3789989976e+03 1.3789989976e+03 0.0000000000e+00 0.0000e+00 1.0000e+00
      -13  1    1    2    0    0 +1.1752303193e+03 +3.8395009363e+01 -7.8873358009e+02 1.4158888165e+03 0.0000000000e+00 0.0000e+00 1.0000e+00
       13  1    1    2    0    0 -1.1752303193e+03 -3.8395009363e+01 +9.7259070490e+02 1.5259663035e+03 0.0000000000e+00 0.0000e+00 -1.0000e+00
<mgrwt>
<rscale>  0 0.29361042E+04</rscale>
<asrwt>0</asrwt>
<pdfrwt beam="1">  1        2 0.24043940E+00 0.29361042E+04</pdfrwt>
<pdfrwt beam="2">  1       -2 0.21215369E+00 0.29361042E+04</pdfrwt>
<totfact> 0.12269291E+00</totfact>
</mgrwt>
<rwgt>
<wgt id='morphing_basis_vector_1'> +7.4700561e-05 </wgt>
<wgt id='morphing_basis_vector_2'> +5.0777403e-05 </wgt>
<wgt id='morphing_basis_vector_3'> +8.1426037e-05 </wgt>
<wgt id='morphing_basis_vector_4'> +5.7522777e-05 </wgt>
<wgt id='morphing_basis_vector_5'> +9.2280780e-05 </wgt>
</rwgt>
</event>
<event>
 4      1 +7.3133000e-09 2.76643200e+03 7.81860800e-03 7.81403500e-02
        2 -1    0    0  501    0 +0.0000000000e+00 +0.0000000000e+00 +9.5390949217e+02 9.5390949217e+02 0.0000000000e+00 0.0000e+00 -1.0000e+00
       -2 -1    0    0    0  501 -0.0000000000e+00 -0.0000000000e+00 -2.0057323030e+03 2.0057323030e+03 0.0000000000e+00 0.0000e+00 1.0000e+00
      -13  1    1    2    0    0 -1.9675369505e+02 +1.0867972915e+03 -1.4168045834e+03 1.7964341337e+03 0.0000000000e+00 0.0000e+00 1.0000e+00
       13  1    1    2    0    0 +1.9675369505e+02 -1.0867972915e+03 +3.6498177254e+02 1.1632076614e+03 0.0000000000e+00 0.0000e+00 -1.0000e+00
<mgrwt>
<rscale>  0 0.27664324E+04</rscale>
<asrwt>0</asrwt>
<pdfrwt beam="1">  1        2 0.14675531E+00 0.27664324E+04</pdfrwt>
<pdfrwt beam="2">  1       -2 0.30857420E+00 0.27664324E+04</pdfrwt>
<totfact> 0.60983402E-01</totfact>
</mgrwt>
<rwgt>
<wgt id='morphing_basis_vector_1'> +5.9011255e-05 </wgt>
<wgt id='morphing_basis_vector_2'> +4.0049256e-05 </wgt>
<wgt id='morphing_basis_vector_3'> +6.4179114e-05 </wgt>
<wgt id='morphing_basis_vector_4'> +4.5238390e-05 </wgt>
<wgt id='morphing_basis_vector_5'> +7.2559238e-05 </wgt>
</rwgt>
</event>
<event>
 4      1 +7.3133000e-09 2.97161500e+03 7.81860800e-03 7.75940400e-02
        2 -1    0    0  501    0 +0.0000000000e+00 +0.0000000000e+00 +2.2411650165e+03 2.2411650165e+03 0.0000000000e+00 0.0000e+00 1.0000e+00
       -2 -1    0    0    0  501 -0.0000000000e+00 -0.0000000000e+00 -9.8503396167e+02 9.8503396167e+02 0.0000000000e+00 0.0000e+00 -1.0000e+00
      -13  1    1    2    0    0 -8.6479569341e+02 +1.0312962701e+03 -5.5287219764e+01 1.3470338766e+03 0.0000000000e+00 0.0000e+00 -1.0000e+00
       13  1    1    2    0    0 +8.6479569341e+02 -1.0312962701e+03 +1.3114182746e+03 1.8791651016e+03 0.0000000000e+00 0.0000e+00 1.0000e+00
<mgrwt>
<rscale>  0 0.29716148E+04</rscale>
<asrwt>0</asrwt>
<pdfrwt beam="1">  1        2 0.34479462E+00 0.29716148E+04</pdfrwt>
<pdfrwt beam="2">  1       -2 0.15154369E+00 0.29716148E+04</pdfrwt>
<totfact> 0.14712237E+00</totfact>
</mgrwt>
<rwgt>
<wgt id='morphing_basis_vector_1'> +7.8658814e-05 </wgt>
<wgt id='morphing_basis_vector_2'> +5.4192578e-05 </wgt>
<wgt id='morphing_basis_vector_3'> +8.5925066e-05 </wgt>
<wgt id='morphing_basis_vector_4'> +5.9729872e-05 </wgt>
<wgt id='morphing_basis_vector_5'> +9.6815727e-05 </wgt>
</rwgt>
</event>
<event>
 4      1 +7.3133000e-09 2.87491000e+03 7.81860800e-03 7.78457700e-02
        2 -1    0    0  501    0 +0.0000000000e+00 +0.0000000000e+00 +1.3657999723e+03 1.3657999723e+03 0.0000000000e+00 0.0000e+00 1.0000e+00
       -2 -1    0    0    0  501 -0.0000000000e+00 -0.0000000000e+00 -1.5128691783e+03 1.5128691783e+03 0.0000000000e+00 0.0000e+00 -1.0000e+00
      -13  1    1    2    0    0 +8.8106945021e+02 +7.2385411924e+02 -9.4990962342e+02 1.4841079660e+03 0.0000000000e+00 0.0000e+00 -1.0000e+00
       13  1    1    2    0    0 -8.8106945021e+02 -7.2385411924e+02 +8.0284041738e+02 1.3945611847e+03 0.0000000000e+00 0.0000e+00 1.0000e+00
<mgrwt>
<rscale>  0 0.28749099E+04</rscale>
<asrwt>0</asrwt>
<pdfrwt beam="1">  1        2 0.21012307E+00 0.28749099E+04</pdfrwt>
<pdfrwt beam="2">  1       -2 0.23274910E+00 0.28749099E+04</pdfrwt>
<totfact> 0.11372860E+00</totfact>
</mgrwt>
<rwgt>
<wgt id='morphing_basis_vector_1'> +6.8710112e-05 </wgt>
<wgt id='morphing_basis_vector_2'> +4.6658606e-05 </wgt>
<wgt id='morphing_basis_vector_3'> +7.4834203e-05 </wgt>
<wgt id='morphing_basis_vector_4'> +5.2856491e-05 </wgt>
<wgt id='morphing_basis_vector_5'> +8.4759046e-05 </wgt>
</rwgt>
</event>
<event>
 4      1 +7.3133000e-09 2.82960300e+03 7.81860800e-03 7.79671700e-02
        2 -1    0    0  501    0 +0.0000000000e+00 +0.0000000000e+00 +2.3465410441e+03 2.3465410441e+03 0.0000000000e+00 0.0000e+00 1.0000e+00
       -2 -1    0    0    0  501 -0.0000000000e+00 -0.0000000000e+00 -8.5302741004e+02 8.5302741004e+02 0.0000000000e+00 0.0000e+00 -1.0000e+00
      -13  1    1    2    0    0 +1.2111938569e+03 +6.2318686430e+01 -7.7053190719e+01 1.2152412813e+03 0.0000000000e+00 0.0000e+00 -1.0000e+00
       13  1    1    2    0    0 -1.2111938569e+03 -6.2318686430e+01 +1.5705668248e+03 1.9843271728e+03 0.0000000000e+00 0.0000e+00 1.0000e+00
<mgrwt>
<rscale>  0 0.28296034E+04</rscale>
<asrwt>0</asrwt>
<pdfrwt beam="1">  1        2 0.36100631E+00 0.28296034E+04</pdfrwt>
<pdfrwt beam="2">  1       -2 0.13123499E+00 0.28296034E+04</pdfrwt>
<totfact> 0.19296932E+00</totfact>
</mgrwt>
<rwgt>
<wgt id='morphing_basis_vector_1'> +6.4633107e-05 </wgt>
<wgt id='morphing_basis_vector_2'> +4.4127274e-05 </wgt>
<wgt id='morphing_basis_vector_3'> +7.0404027e-05 </wgt>
<wgt id='morphing_basis_vector_4'> +4.9340608e-05 </wgt>
<wgt id='morphing_basis_vector_5'> +7.9472541e-05 </wgt>
</rwgt>
</event>
<event>
 4      1 +7.3133000e-09 2.72204900e+03 7.81860800e-03 7.82648600e-02
        2 -1    0    0  501    0 +0.0000000000e+00 +0.0000000000e+00 +4.0354710108e+03 4.0354710108e+03 0.0000000000e+00 0.0000e+00 -1.0000e+00
       -2 -1    0    0    0  501 -0.0000000000e+00 -0.0000000000e+00 -4.5902625346e+02 4.5902625346e+02 0.0000000000e+00 0.0000e+00 1.0000e+00
      -13  1    1    2    0    0 +1.2775261460e+03 +4.4301724441e+02 +2.0442819645e+03 2.4510051169e+03 0.0000000000e+00 0.0000e+00 1.0000e+00
       13  1    1    2    0    0 -1.2775261460e+03 -4.4301724441e+02 +1.5321627928e+03 2.0434921473e+03 0.0000000000e+00 0.0000e+00 -1.0000e+00
<mgrwt>
<rscale>  0 0.27220486E+04</rscale>
<asrwt>0</asrwt>
<pdfrwt beam="1">  1        2 0.62084167E+00 0.27220486E+04</pdfrwt>
<pdfrwt beam="2">  1       -2 0.70619426E-01 0.27220486E+04</pdfrwt>
<totfact> 0.58508599E-01</totfact>
</mgrwt>
<rwgt>
<wgt id='morphing_basis_vector_1'> +5.8243802e-05 </wgt>
<wgt id='morphing_basis_vector_2'> +4.6072507e-05 </wgt>
<wgt id='morphing_basis_vector_3'> +6.4630621e-05 </wgt>
<wgt id='morphing_basis_vector_4'> +3.6404068e-05 </wgt>
<wgt id='morphing_basis_vector_5'> +6.7479514e-05 </wgt>
</rwgt>
</event>
<event>
 4      1 +7.3133000e-09 2.73261600e+03 7.81860800e-03 7.82350000e-02
        2 -1    0    0  501    0 +0.0000000000e+00 +0.0000000000e+00 +2.7769710805e+03 2.7769710805e+03 0.0000000000e+00 0.0000e+00 -1.0000e+00
       -2 -1    0    0    0  501 -0.0000000000e+00 -0.0000000000e+00 -6.7224225016e+02 6.7224225016e+02 0.0000000000e+00 0.0000e+00 1.0000e+00
      -13  1    1    2    0    0 -4.8305828513e+02 +7.8607450414e+02 +2.3243721488e+03 2.5007927381e+03 0.0000000000e+00 0.0000e+00 -1.0000e+00
       13  1    1    2    0    0 +4.8305828513e+02 -7.8607450414e+02 -2.1964331851e+02 9.4842059250e+02 0.0000000000e+00 0.0000e+00 1.0000e+00
<mgrwt>
<rscale>  0 0.27326158E+04</rscale>
<asrwt>0</asrwt>
<pdfrwt beam="1">  1        2 0.42722632E+00 0.27326158E+04</pdfrwt>
<pdfrwt beam="2">  1       -2 0.10342189E+00 0.27326158E+04</pdfrwt>
<totfact> 0.19714093E+00</totfact>
</mgrwt>
<rwgt>
<wgt id='morphing_basis_vector_1'> +7.3273163e-05 </wgt>
<wgt id='morphing_basis_vector_2'> +8.8438730e-05 </wgt>
<wgt id='morphing_basis_vector_3'> +8.7499041e-05 </wgt>
<wgt id='morphing_basis_vector_4'> +7.7771611e-06 </wgt>
<wgt id='morphing_basis_vector_5'> +6.6160350e-05 </wgt>
</rwgt>
</event>
<event>
 4      1 +7.3133000e-09 2.94246300e+03 7.81860800e-03 7.76688900e-02
        2 -1    0    0  501    0 +0.0000000000e+00 +0.0000000000e+00 +1.6578513606e+03 1.6578513606e+03 0.0000000000e+00 0.0000e+00 1.0000e+00
       -2 -1    0    0    0  501 -0.0000000000e+00 -0.0000000000e+00 -1.3056185416e+03 1.3056185416e+03 0.0000000000e+00 0.0000e+00 -1.0000e+00
      -13  1    1    2    0    0 -4.0216432412e+02 -6.1144579872e+01 -1.2478542553e+03 1.3124843031e+03 0.0000000000e+00 0.0000e+00 -1.0000e+00
       13  1    1    2    0    0 +4.0216432412e+02 +6.1144579872e+01 +1.6000870743e+03 1.6509855992e+03 0.0000000000e+00 0.0000e+00 1.0000e+00
<mgrwt>
<rscale>  0 0.29424626E+04</rscale>
<asrwt>0</asrwt>
<pdfrwt beam="1">  1        2 0.25505406E+00 0.29424626E+04</pdfrwt>
<pdfrwt beam="2">  1       -2 0.20086439E+00 0.29424626E+04</pdfrwt>
<totfact> 0.13100873E+00</totfact>
</mgrwt>
<rwgt>
<wgt id='morphing_basis_vector_1'> +7.5153129e-05 </wgt>
<wgt id='morphing_basis_vector_2'> +5.0655961e-05 </wgt>
<wgt id='morphing_basis_vector_3'> +8.1835803e-05 </wgt>
<wgt id='morphing_basis_vector_4'> +5.8423150e-05 </wgt>
<wgt id='morphing_basis_vector_5'> +9.3122673e-05 </wgt>
</rwgt>
</event>
<event>
 4      1 +7.3133000e-09 2.71964600e+03 7.81860800e-03 7.82716700e-02
        2 -1    0    0  501    0 +0.0000000000e+00 +0.0000000000e+00 +3.1208267159e+03 3.1208267159e+03 0.0000000000e+00 0.0000e+00 -1.0000e+00
       -2 -1    0    0    0  501 -0.0000000000e+00 -0.0000000000e+00 -5.9250939632e+02 5.9250939632e+02 0.0000000000e+00 0.0000e+00 1.0000e+00
      -13  1    1    2    0    0 +4.1832842763e+01 -1.2659163741e+03 +5.8857426343e+02 1.3966796041e+03 0.0000000000e+00 0.0000e+00 1.0000e+00
       13  1    1    2    0    0 -4.1832842763e+01 +1.2659163741e+03 +1.9397430561e+03 2.3166565081e+03 0.0000000000e+00 0.0000e+00 -1.0000e+00
<mgrwt>
<rscale>  0 0.27196464E+04</rscale>
<asrwt>0</asrwt>
<pdfrwt beam="1">  1        2 0.48012718E+00 0.27196464E+04</pdfrwt>
<pdfrwt beam="2">  1       -2 0.91155293E-01 0.27196464E+04</pdfrwt>
<totfact> 0.16009348E+00</totfact>
</mgrwt>
<rwgt>
<wgt id='morphing_basis_vector_1'> +5.5498943e-05 </wgt>
<wgt id='morphing_basis_vector_2'> +3.8418110e-05 </wgt>
<wgt id='morphing_basis_vector_3'> +6.0473127e-05 </wgt>
<wgt id='morphing_basis_vector_4'> +4.1525251e-05 </wgt>
<wgt id='morphing_basis_vector_5'> +6.7667691e-05 </wgt>
</rwgt>
</event>
<event>
 4      1 +7.3133000e-09 2.85771100e+03 7.81860800e-03 7.78915800e-02
        2 -1    0    0  501    0 +0.0000000000e+00 +0.0000000000e+00 +1.2421519565e+03 1.2421519565e+03 0.0000000000e+00 0.0000e+00 1.0000e+00
       -2 -1    0    0    0  501 -0.0000000000e+00 -0.0000000000e+00 -1.6436223239e+03 1.6436223239e+03 0.0000000000e+00 0.0000e+00 -1.0000e+00
      -13  1    1    2    0    0 +6.3521927977e+02 +1.5119533551e+02 -1.4841465792e+03 1.6214359782e+03 0.0000000000e+00 0.0000e+00 -1.0000e+00
       13  1    1    2    0    0 -6.3521927977e+02 -1.5119533551e+02 +1.0826762118e+03 1.2643383022e+03 0.0000000000e+00 0.0000e+00 1.0000e+00
<mgrwt>
<rscale>  0 0.28577115E+04</rscale>
<asrwt>0</asrwt>
<pdfrwt beam="1">  1        2 0.19110030E+00 0.28577115E+04</pdfrwt>
<pdfrwt beam="2">  1       -2 0.25286497E+00 0.28577115E+04</pdfrwt>
<totfact> 0.97145302E-01</totfact>
</mgrwt>
<rwgt>
<wgt id='morphing_basis_vector_1'> +6.6945802e-05 </wgt>
<wgt id='morphing_basis_vector_2'> +4.5112131e-05 </wgt>
<wgt id='morphing_basis_vector_3'> +7.2825937e-05 </wgt>
<wgt id='morphing_basis_vector_4'> +5.1904191e-05 </wgt>
<wgt id='morphing_basis_vector_5'> +8.2755330e-05 </wgt>
</rwgt>
</event>
<event>
 4      1 +7.3133000e-09 2.68746600e+03 7.81860800e-03 7.83635600e-02
        2 -1    0    0  501    0 +0.0000000000e+00 +0.0000000000e+00 +1.5870214142e+03 1.5870214142e+03 0.0000000000e+00 0.0000e+00 -1.0000e+00
       -2 -1    0    0    0  501 -0.0000000000e+00 -0.0000000000e+00 -1.1377400470e+03 1.1377400470e+03 0.0000000000e+00 0.0000e+00 1.0000e+00
      -13  1    1    2    0    0 +1.3536011249e+02 -3.6850369959e+02 -1.0783008517e+03 1.1475408766e+03 0.0000000000e+00 0.0000e+00 1.0000e+00
       13  1    1    2    0    0 -1.3536011249e+02 +3.6850369959e+02 +1.5275822190e+03 1.5772205846e+03 0.0000000000e+00 0.0000e+00 -1.0000e+00
<mgrwt>
<rscale>  0 0.26874656E+04</rscale>
<asrwt>0</asrwt>
<pdfrwt beam="1">  1        2 0.24415714E+00 0.26874656E+04</pdfrwt>
<pdfrwt beam="2">  1       -2 0.17503693E+00 0.26874656E+04</pdfrwt>
<totfact> 0.22868178E+00</totfact>
</mgrwt>
<rwgt>
<wgt id='morphing_basis_vector_1'> +5.2493287e-05 </wgt>
<wgt id='morphing_basis_vector_2'> +3.5304055e-05 </wgt>
<wgt id='morphing_basis_vector_3'> +5.6963302e-05 </wgt>
<wgt id='morphing_basis_vector_4'> +4.0509671e-05 </wgt>
<wgt id='morphing_basis_vector_5'> +6.4564080e-05 </wgt>
</rwgt>
</event>
<event>
 4      1 +7.3133000e-09 2.96976400e+03 7.81860800e-03 7.75987700e-02
        2 -1    0    0  501    0 +0.0000000000e+00 +0.0000000000e+00 +2.0847431593e+03 2.0847431593e+03 0.0000000000e+00 0.0000e+00 -1.0000e+00
       -2 -1    0    0    0  501 -0.0000000000e+00 -0.0000000000e+00 -1.0576237915e+03 1.0576237915e+03 0.0000000000e+00 0.0000e+00 1.0000e+00
      -13  1    1    2    0    0 +4.3199890287e+02 +9.6406204509e+02 -5.9055989594e+02 1.2102890851e+03 0.0000000000e+00 0.0000e+00 1.0000e+00
       13  1    1    2    0    0 -4.3199890287e+02 -9.6406204509e+02 +1.6176792638e+03 1.9320778657e+03 0.0000000000e+00 0.0000e+00 -1.0000e+00
<mgrwt>
<rscale>  0 0.29697636E+04</rscale>
<asrwt>0</asrwt>
<pdfrwt beam="1">  1        2 0.32072971E+00 0.29697636E+04</pdfrwt>
<pdfrwt beam="2">  1       -2 0.16271135E+00 0.29697636E+04</pdfrwt>
<totfact> 0.14680591E+00</totfact>
</mgrwt>
<rwgt>
<wgt id='morphing_basis_vector_1'> +7.8049708e-05 </wgt>
<wgt id='morphing_basis_vector_2'> +5.2835587e-05 </wgt>
<wgt id='morphing_basis_vector_3'> +8.5062310e-05 </wgt>
<wgt id='morphing_basis_vector_4'> +6.0443479e-05 </wgt>
<wgt id='morphing_basis_vector_5'> +9.6643459e-05 </wgt>
</rwgt>
</event>
<event>
 4      1 +7.3133000e-09 2.86713100e+03 7.81860800e-03 7.78664500e-02
        2 -1    0    0  501    0 +0.0000000000e+00 +0.0000000000e+00 +3.2845436671e+03 3.2845436671e+03 0.0000000000e+00 0.0000e+00 1.0000e+00
       -2 -1    0    0    0  501 -0.0000000000e+00 -0.0000000000e+00 -6.2569111996e+02 6.2569111996e+02 0.0000000000e+00 0.0000e+00 -1.0000e+00
      -13  1    1    2    0    0 -5.8550894633e+02 +1.3073383334e+03 +1.4060377160e+03 2.0072110759e+03 0.0000000000e+00 0.0000e+00 1.0000e+00
       13  1    1    2    0    0 +5.8550894633e+02 -1.3073383334e+03 +1.2528148311e+03 1.9030237112e+03 0.0000000000e+00 0.0000e+00 -1.0000e+00
<mgrwt>
<rscale>  0 0.28671308E+04</rscale>
<asrwt>0</asrwt>
<pdfrwt beam="1">  1        2 0.50531440E+00 0.28671308E+04</pdfrwt>
<pdfrwt beam="2">  1       -2 0.96260174E-01 0.28671308E+04</pdfrwt>
<totfact> 0.10757929E+00</totfact>
</mgrwt>
<rwgt>
<wgt id='morphing_basis_vector_1'> +7.0678737e-05 </wgt>
<wgt id='morphing_basis_vector_2'> +5.4118701e-05 </wgt>
<wgt id='morphing_basis_vector_3'> +7.8234401e-05 </wgt>
<wgt id='morphing_basis_vector_4'> +4.6674907e-05 </wgt>
<wgt id='morphing_basis_vector_5'> +8.3377202e-05 </wgt>
</rwgt>
</event>
<event>
 4      1 +7.3133000e-09 2.81873200e+03 7.81860800e-03 7.79966500e-02
        2 -1    0    0  501    0 +0.0000000000e+00 +0.0000000000e+00 +9.3012914596e+02 9.3012914596e+02 0.0000000000e+00 0.0000e+00 1.0000e+00
       -2 -1    0    0    0  501 -0.0000000000e+00 -0.0000000000e+00 -2.1355229520e+03 2.1355229520e+03 0.0000000000e+00 0.0000e+00 -1.0000e+00
      -13  1    1    2    0    0 -1.0931838349e+03 +3.6696282125e+02 -1.4839880507e+03 1.8793438066e+03 0.0000000000e+00 0.0000e+00 -1.0000e+00
       13  1    1    2    0    0 +1.0931838349e+03 -3.6696282125e+02 +2.7859424461e+02 1.1863082913e+03 0.0000000000e+00 0.0000e+00 1.0000e+00
<mgrwt>
<rscale>  0 0.28187317E+04</rscale>
<asrwt>0</asrwt>
<pdfrwt beam="1">  1        2 0.14309679E+00 0.28187317E+04</pdfrwt>
<pdfrwt beam="2">  1       -2 0.32854200E+00 0.28187317E+04</pdfrwt>
<totfact> 0.46282413E-01</totfact>
</mgrwt>
<rwgt>
<wgt id='morphing_basis_vector_1'> +6.3580334e-05 </wgt>
<wgt id='morphing_basis_vector_2'> +4.3234275e-05 </wgt>
<wgt id='morphing_basis_vector_3'> +6.9212104e-05 </wgt>
<wgt id='morphing_basis_vector_4'> +4.8735215e-05 </wgt>
<wgt id='morphing_basis_vector_5'> +7.8258897e-05 </wgt>
</rwgt>
</event>
<event>
 4      1 +7.3133000e-09 3.07958600e+03 7.81860800e-03 7.73243600e-02
        2 -1    0    0  501    0 +0.0000000000e+00 +0.0000000000e+00 +1.5934288321e+03 1.5934288321e+03 0.0000000000e+00 0.0000e+00 -1.0000e+00
       -2 -1    0    0    0  501 -0.0000000000e+00 -0.0000000000e+00 -1.4879621598e+03 1.4879621598e+03 0.0000000000e+00 0.0000e+00 1.0000e+00
      -13  1    1    2    0    0 -4.2994611722e+01 -3.5287047829e+02 -1.4463424760e+03 1.4893866754e+03 0.0000000000e+00 0.0000e+00 1.0000e+00
       13  1    1    2    0    0 +4.2994611722e+01 +3.5287047829e+02 +1.5518091483e+03 1.5920043165e+03 0.0000000000e+00 0.0000e+00 -1.0000e+00
<mgrwt>
<rscale>  0 0.30795856E+04</rscale>
<asrwt>0</asrwt>
<pdfrwt beam="1">  1        2 0.24514290E+00 0.30795856E+04</pdfrwt>
<pdfrwt beam="2">  1       -2 0.22891726E+00 0.30795856E+04</pdfrwt>
<totfact> 0.88626667E-01</totfact>
</mgrwt>
<rwgt>
<wgt id='morphing_basis_vector_1'> +9.0023324e-05 </wgt>
<wgt id='morphing_basis_vector_2'> +6.0736907e-05 </wgt>
<wgt id='morphing_basis_vector_3'> +9.8177319e-05 </wgt>
<wgt id='morphing_basis_vector_4'> +7.0209914e-05 </wgt>
<wgt id='morphing_basis_vector_5'> +1.1191228e-04 </wgt>
</rwgt>
</event>
<event>
 4      1 +7.3133000e-09 3.15350700e+03 7.81860800e-03 7.71462400e-02
        2 -1    0    0  501    0 +0.0000000000e+00 +0.0000000000e+00 +4.2807916931e+03 4.2807916931e+03 0.0000000000e+00 0.0000e+00 1.0000e+00
       -2 -1    0    0    0  501 -0.0000000000e+00 -0.0000000000e+00 -5.8076918017e+02 5.8076918017e+02 0.0000000000e+00 0.0000e+00 -1.0000e+00
      -13  1    1    2    0    0 +1.0846555199e+03 +1.1314720531e+03 +2.1145502733e+03 2.6321150169e+03 0.0000000000e+00 0.0000e+00 -1.0000e+00
       13  1    1    2    0    0 -1.0846555199e+03 -1.1314720531e+03 +1.5854722396e+03 2.2294458564e+03 0.0000000000e+00 0.0000e+00 1.0000e+00
<mgrwt>
<rscale>  0 0.31535072E+04</rscale>
<asrwt>0</asrwt>
<pdfrwt beam="1">  1        2 0.65858332E+00 0.31535072E+04</pdfrwt>
<pdfrwt beam="2">  1       -2 0.89349107E-01 0.31535072E+04</pdfrwt>
<totfact> 0.19921575E-01</totfact>
</mgrwt>
<rwgt>
<wgt id='morphing_basis_vector_1'> +1.0423865e-04 </wgt>
<wgt id='morphing_basis_vector_2'> +8.2464790e-05 </wgt>
<wgt id='morphing_basis_vector_3'> +1.1633732e-04 </wgt>
<wgt id='morphing_basis_vector_4'> +6.6111256e-05 </wgt>
<wgt id='morphing_basis_vector_5'> +1.2222781e-04 </wgt>
</rwgt>
</event>
<event>
 4      1 +7.3133000e-09 2.73447300e+03 7.81860800e-03 7.82297600e-02
        2 -1    0    0  501    0 +0.0000000000e+00 +0.0000000000e+00 +1.4812212246e+03 1.4812212246e+03 0.0000000000e+00 0.0000e+00 -1.0000e+00
       -2 -1    0    0    0  501 -0.0000000000e+00 -0.0000000000e+00 -1.2620231798e+03 1.2620231798e+03 0.0000000000e+00 0.0000e+00 1.0000e+00
      -13  1    1    2    0    0 +4.4953945165e+02 +4.2808208024e+02 -1.1125021879e+03 1.2739706057e+03 0.0000000000e+00 0.0000e+00 1.0000e+00
       13  1    1    2    0    0 -4.4953945165e+02 -4.2808208024e+02 +1.3317002327e+03 1.4692737987e+03 0.0000000000e+00 0.0000e+00 -1.0000e+00
<mgrwt>
<rscale>  0 0.27344729E+04</rscale>
<asrwt>0</asrwt>
<pdfrwt beam="1">  1        2 0.22788019E+00 0.27344729E+04</pdfrwt>
<pdfrwt beam="2">  1       -2 0.19415741E+00 0.27344729E+04</pdfrwt>
<totfact> 0.18737904E+00</totfact>
</mgrwt>
<rwgt>
<wgt id='morphing_basis_vector_1'> +5.6226671e-05 </wgt>
<wgt id='morphing_basis_vector_2'> +3.7846932e-05 </wgt>
<wgt id='morphing_basis_vector_3'> +6.1061012e-05 </wgt>
<wgt id='morphing_basis_vector_4'> +4.3437667e-05 </wgt>
<wgt id='morphing_basis_vector_5'> +6.9252347e-05 </wgt>
</rwgt>
</event>
<event>
 4      1 +7.3133000e-09 2.94683600e+03 7.81860800e-03 7.76576000e-02
        2 -1    0    0  501    0 +0.0000000000e+00 +0.0000000000e+00 +1.2056084701e+03 1.2056084701e+03 0.0000000000e+00 0.0000e+00 -1.0000e+00
       -2 -1    0    0    0  501 -0.0000000000e+00 -0.0000000000e+00 -1.8007183087e+03 1.8007183087e+03 0.0000000000e+00 0.0000e+00 1.0000e+00
      -13  1    1    2    0    0 -9.3276768452e+02 +6.3781508380e+02 -1.2622112560e+03 1.6941195027e+03 0.0000000000e+00 0.0000e+00 1.0000e+00
       13  1    1    2    0    0 +9.3276768452e+02 -6.3781508380e+02 +6.6710141748e+02 1.3122072762e+03 0.0000000000e+00 0.0000e+00 -1.0000e+00
<mgrwt>
<rscale>  0 0.29468364E+04</rscale>
<asrwt>0</asrwt>
<pdfrwt beam="1">  1        2 0.18547823E+00 0.29468364E+04</pdfrwt>
<pdfrwt beam="2">  1       -2 0.27703359E+00 0.29468364E+04</pdfrwt>
<totfact> 0.69112166E-01</totfact>
</mgrwt>
<rwgt>
<wgt id='morphing_basis_vector_1'> +7.5741482e-05 </wgt>
<wgt id='morphing_basis_vector_2'> +5.1383010e-05 </wgt>
<wgt id='morphing_basis_vector_3'> +8.2549206e-05 </wgt>
<wgt id='morphing_basis_vector_4'> +5.8473477e-05 </wgt>
<wgt id='morphing_basis_vector_5'> +9.3658020e-05 </wgt>
</rwgt>
</event>
<event>
 4      1 +7.3133000e-09 2.70483800e+03 7.81860800e-03 7.83137900e-02
        2 -1    0    0  501    0 +0.0000000000e+00 +0.0000000000e+00 +1.7711463001e+03 1.7711463001e+03 0.0000000000e+00 0.0000e+00 -1.0000e+00
       -2 -1    0    0    0  501 -0.0000000000e+00 -0.0000000000e+00 -1.0326854463e+03 1.0326854463e+03 0.0000000000e+00 0.0000e+00 1.0000e+00
      -13  1    1    2    0    0 -6.2240938172e+02 +2.3624537769e+02 -8.5106771739e+02 1.0805191236e+03 0.0000000000e+00 0.0000e+00 1.0000e+00
       13  1    1    2    0    0 +6.2240938172e+02 -2.3624537769e+02 +1.5895285712e+03 1.7233126228e+03 0.0000000000e+00 0.0000e+00 -1.0000e+00
<mgrwt>
<rscale>  0 0.27048379E+04</rscale>
<asrwt>0</asrwt>
<pdfrwt beam="1">  1        2 0.27248405E+00 0.27048379E+04</pdfrwt>
<pdfrwt beam="2">  1       -2 0.15887468E+00 0.27048379E+04</pdfrwt>
<totfact> 0.24156756E+00</totfact>
</mgrwt>
<rwgt>
<wgt id='morphing_basis_vector_1'> +5.3857670e-05 </wgt>
<wgt id='morphing_basis_vector_2'> +3.6249328e-05 </wgt>
<wgt id='morphing_basis_vector_3'> +5.8463817e-05 </wgt>
<wgt id='morphing_basis_vector_4'> +4.1559316e-05 </wgt>
<wgt id='morphing_basis_vector_5'> +6.6266942e-05 </wgt>
</rwgt>
</event>
<event>
 4      1 +7.3133000e-09 2.89700600e+03 7.81860800e-03 7.77873700e-02
        2 -1    0    0  501    0 +0.0000000000e+00 +0.0000000000e+00 +2.5801596214e+03 2.5801596214e+03 0.0000000000e+00 0.0000e+00 1.0000e+00
       -2 -1    0    0    0  501 -0.0000000000e+00 -0.0000000000e+00 -8.1319060697e+02 8.1319060697e+02 0.0000000000e+00 0.0000e+00 -1.0000e+00
      -13  1    1    2    0    0 +5.1482688750e+02 +8.0415869986e+02 -3.9237478337e+02 1.0323157992e+03 0.0000000000e+00 0.0000e+00 -1.0000e+00
       13  1    1    2    0    0 -5.1482688750e+02 -8.0415869986e+02 +2.1593437978e+03 2.3610344292e+03 0.0000000000e+00 0.0000e+00 1.0000e+00
<mgrwt>
<rscale>  0 0.28970064E+04</rscale>
<asrwt>0</asrwt>
<pdfrwt beam="1">  1        2 0.39694763E+00 0.28970064E+04</pdfrwt>
<pdfrwt beam="2">  1       -2 0.12510625E+00 0.28970064E+04</pdfrwt>
<totfact> 0.15824743E+00</totfact>
</mgrwt>
<rwgt>
<wgt id='morphing_basis_vector_1'> +7.0714262e-05 </wgt>
<wgt id='morphing_basis_vector_2'> +4.7775297e-05 </wgt>
<wgt id='morphing_basis_vector_3'> +7.6986245e-05 </wgt>
<wgt id='morphing_basis_vector_4'> +5.4747429e-05 </wgt>
<wgt id='morphing_basis_vector_5'> +8.7439693e-05 </wgt>
</rwgt>
</event>
<event>
 4      1 +7.3133000e-09 2.82989200e+03 7.81860800e-03 7.79663900e-02
        2 -1    0    0  501    0 +0.0000000000e+00 +0.0000000000e+00 +2.0706571531e+03 2.0706571531e+03 0.0000000000e+00 0.0000e+00 1.0000e+00
       -2 -1    0    0    0  501 -0.0000000000e+00 -0.0000000000e+00 -9.6687768864e+02 9.6687768864e+02 0.0000000000e+00 0.0000e+00 -1.0000e+00
      -13  1    1    2    0    0 -1.0997250067e+03 +5.8274424160e+02 -1.7061692172e+02 1.2562229402e+03 0.0000000000e+00 0.0000e+00 -1.0000e+00
       13  1    1    2    0    0 +1.0997250067e+03 -5.8274424160e+02 +1.2743963862e+03 1.7813119015e+03 0.0000000000e+00 0.0000e+00 1.0000e+00
<mgrwt>
<rscale>  0 0.28298920E+04</rscale>
<asrwt>0</asrwt>
<pdfrwt beam="1">  1        2 0.31856264E+00 0.28298920E+04</pdfrwt>
<pdfrwt beam="2">  1       -2 0.14875041E+00 0.28298920E+04</pdfrwt>
<totfact> 0.19647100E+00</totfact>
</mgrwt>
<rwgt>
<wgt id='morphing_basis_vector_1'> +6.4719877e-05 </wgt>
<wgt id='morphing_basis_vector_2'> +4.4323965e-05 </wgt>
<wgt id='morphing_basis_vector_3'> +7.0527022e-05 </wgt>
<wgt id='morphing_basis_vector_4'> +4.9235195e-05 </wgt>
<wgt id='morphing_basis_vector_5'> +7.9495001e-05 </wgt>
</rwgt>
</event>
<event>
 4      1 +7.3133000e-09 3.08769800e+03 7.81860800e-03 7.73045600e-02
        2 -1    0    0  501    0 +0.0000000000e+00 +0.0000000000e+00 +1.2845965173e+03 1.2845965173e+03 0.0000000000e+00 0.0000e+00 -1.0000e+00
       -2 -1    0    0    0  501 -0.0000000000e+00 -0.0000000000e+00 -1.8554233261e+03 1.8554233261e+03 0.0000000000e+00 0.0000e+00 1.0000e+00
      -13  1    1    2    0    0 -1.2255271398e+03 +5.6913744083e+02 +4.7399076838e+02 1.4319572080e+03 0.0000000000e+00 0.0000e+00 -1.0000e+00
       13  1    1    2    0    0 +1.2255271398e+03 -5.6913744083e+02 -1.0448175772e+03 1.7080626354e+03 0.0000000000e+00 0.0000e+00 1.0000e+00
<mgrwt>
<rscale>  0 0.30876984E+04</rscale>
<asrwt>0</asrwt>
<pdfrwt beam="1">  1        2 0.19763023E+00 0.30876984E+04</pdfrwt>
<pdfrwt beam="2">  1       -2 0.28544974E+00 0.30876984E+04</pdfrwt>
<totfact> 0.53885222E-01</totfact>
</mgrwt>
<rwgt>
<wgt id='morphing_basis_vector_1'> +1.0701675e-04 </wgt>
<wgt id='morphing_basis_vector_2'> +1.0863264e-04 </wgt>
<wgt id='morphing_basis_vector_3'> +1.2441590e-04 </wgt>
<wgt id='morphing_basis_vector_4'> +3.7475348e-05 </wgt>
<wgt id='morphing_basis_vector_5'> +1.1034952e-04 </wgt>
</rwgt>
</event>
<event>
 4      1 +7.3133000e-09 2.70278900e+03 7.81860800e-03 7.83196400e-02
        2 -1    0    0  501    0 +0.0000000000e+00 +0.0000000000e+00 +1.3250742566e+03 1.3250742566e+03 0.0000000000e+00 0.0000e+00 -1.0000e+00
       -2 -1    0    0    0  501 -0.0000000000e+00 -0.0000000000e+00 -1.3782376758e+03 1.3782376758e+03 0.0000000000e+00 0.0000e+00 1.0000e+00
      -13  1    1    2    0    0 +9.5806306761e+02 -8.1255590945e+02 -5.2480989050e+02 1.3614541376e+03 0.0000000000e+00 0.0000e+00 1.0000e+00
       13  1    1    2    0    0 -9.5806306761e+02 +8.1255590945e+02 +4.7164647128e+02 1.3418577948e+03 0.0000000000e+00 0.0000e+00 -1.0000e+00
<mgrwt>
<rscale>  0 0.27027891E+04</rscale>
<asrwt>0</asrwt>
<pdfrwt beam="1">  1        2 0.20385758E+00 0.27027891E+04</pdfrwt>
<pdfrwt beam="2">  1       -2 0.21203657E+00 0.27027891E+04</pdfrwt>
<totfact> 0.17064162E+00</totfact>
</mgrwt>
<rwgt>
<wgt id='morphing_basis_vector_1'> +5.4140765e-05 </wgt>
<wgt id='morphing_basis_vector_2'> +3.7449884e-05 </wgt>
<wgt id='morphing_basis_vector_3'> +5.8973246e-05 </wgt>
<wgt id='morphing_basis_vector_4'> +4.0514935e-05 </wgt>
<wgt id='morphing_basis_vector_5'> +6.5989373e-05 </wgt>
</rwgt>
</event>
<event>
 4      1 +7.3133000e-09 2.74514200e+03 7.81860800e-03 7.81997800e-02
        2 -1    0    0  501    0 +0.0000000000e+00 +0.0000000000e+00 +1.7325533953e+03 1.7325533953e+03 0.0000000000e+00 0.0000e+00 -1.0000e+00
       -2 -1    0    0    0  501 -0.0000000000e+00 -0.0000000000e+00 -1.0873840945e+03 1.0873840945e+03 0.0000000000e+00 0.0000e+00 1.0000e+00
      -13  1    1    2    0    0 -1.3395867816e+02 +1.1563579977e+03 -4.2444486169e+02 1.2390569748e+03 0.0000000000e+00 0.0000e+00 1.0000e+00
       13  1    1    2    0    0 +1.3395867816e+02 -1.1563579977e+03 +1.0696141625e+03 1.5808805150e+03 0.0000000000e+00 0.0000e+00 -1.0000e+00
<mgrwt>
<rscale>  0 0.27451419E+04</rscale>
<asrwt>0</asrwt>
<pdfrwt beam="1">  1        2 0.26654668E+00 0.27451419E+04</pdfrwt>
<pdfrwt beam="2">  1       -2 0.16728986E+00 0.27451419E+04</pdfrwt>
<totfact> 0.21691501E+00</totfact>
</mgrwt>
<rwgt>
<wgt id='morphing_basis_vector_1'> +5.7309367e-05 </wgt>
<wgt id='morphing_basis_vector_2'> +3.9056542e-05 </wgt>
<wgt id='morphing_basis_vector_3'> +6.2343378e-05 </wgt>
<wgt id='morphing_basis_vector_4'> +4.3693121e-05 </wgt>
<wgt id='morphing_basis_vector_5'> +7.0315732e-05 </wgt>
</rwgt>
</event>
<event>
 4      1 +7.3133000e-09 2.71954400e+03 7.81860800e-03 7.82719600e-02
        2 -1    0    0  501    0 +0.0000000000e+00 +0.0000000000e+00 +2.1698090530e+03 2.1698090530e+03 0.0000000000e+00 0.0000e+00 -1.0000e+00
       -2 -1    0    0    0  501 -0.0000000000e+00 -0.0000000000e+00 -8.5213922765e+02 8.5213922765e+02 0.0000000000e+00 0.0000e+00 1.0000e+00
      -13  1    1    2    0    0 -9.8716477624e+02 -1.8302755489e+02 -3.6019136826e+02 1.0666448346e+03 0.0000000000e+00 0.0000e+00 1.0000e+00
       13  1    1    2    0    0 +9.8716477624e+02 +1.8302755489e+02 +1.6778611936e+03 1.9553034461e+03 0.0000000000e+00 0.0000e+00 -1.0000e+00
<mgrwt>
<rscale>  0 0.27195436E+04</rscale>
<asrwt>0</asrwt>
<pdfrwt beam="1">  1        2 0.33381678E+00 0.27195436E+04</pdfrwt>
<pdfrwt beam="2">  1       -2 0.13109834E+00 0.27195436E+04</pdfrwt>
<totfact> 0.24706508E+00</totfact>
</mgrwt>
<rwgt>
<wgt id='morphing_basis_vector_1'> +5.5098919e-05 </wgt>
<wgt id='morphing_basis_vector_2'> +3.7257547e-05 </wgt>
<wgt id='morphing_basis_vector_3'> +5.9858409e-05 </wgt>
<wgt id='morphing_basis_vector_4'> +4.2328143e-05 </wgt>
<wgt id='morphing_basis_vector_5'> +6.7723405e-05 </wgt>
</rwgt>
</event>
<event>
 4      1 +7.3133000e-09 2.90916500e+03 7.81860800e-03 7.77554700e-02
        2 -1    0    0  501    0 +0.0000000000e+00 +0.0000000000e+00 +1.2669054590e+03 1.2669054590e+03 0.0000000000e+00 0.0000e+00 -1.0000e+00
       -2 -1    0    0    0  501 -0.0000000000e+00 -0.0000000000e+00 -1.6700622125e+03 1.6700622125e+03 0.0000000000e+00 0.0000e+00 1.0000e+00
      -13  1    1    2    0    0 -4.2122479355e+02 -7.5966615435e+02 -1.3794711046e+03 1.6301728501e+03 0.0000000000e+00 0.0000e+00 1.0000e+00
       13  1    1    2    0    0 +4.2122479355e+02 +7.5966615435e+02 +9.7631435123e+02 1.3067948214e+03 0.0000000000e+00 0.0000e+00 -1.0000e+00
<mgrwt>
<rscale>  0 0.29091655E+04</rscale>
<asrwt>0</asrwt>
<pdfrwt beam="1">  1        2 0.19490853E+00 0.29091655E+04</pdfrwt>
<pdfrwt beam="2">  1       -2 0.25693265E+00 0.29091655E+04</pdfrwt>
<totfact> 0.87739515E-01</totfact>
</mgrwt>
<rwgt>
<wgt id='morphing_basis_vector_1'> +7.1873976e-05 </wgt>
<wgt id='morphing_basis_vector_2'> +4.8510613e-05 </wgt>
<wgt id='morphing_basis_vector_3'> +7.8249652e-05 </wgt>
<wgt id='morphing_basis_vector_4'> +5.5729333e-05 </wgt>
<wgt id='morphing_basis_vector_5'> +8.8935004e-05 </wgt>
</rwgt>
</event>
<event>
 4      1 +7.3133000e-09 2.88081800e+03 7.81860800e-03 7.78301000e-02
        2 -1    0    0  501    0 +0.0000000000e+00 +0.0000000000e+00 +1.1035423119e+03 1.1035423119e+03 0.0000000000e+00 0.0000e+00 -1.0000e+00
       -2 -1    0    0    0  501 -0.0000000000e+00 -0.0000000000e+00 -1.8801071725e+03 1.8801071725e+03 0.0000000000e+00 0.0000e+00 1.0000e+00
      -13  1    1    2    0    0 +5.1263372055e+02 -1.2553902169e+03 -8.9140002195e+02 1.6227729130e+03 0.0000000000e+00 0.0000e+00 1.0000e+00
       13  1    1    2    0    0 -5.1263372055e+02 +1.2553902169e+03 +1.1483516144e+02 1.3608765714e+03 0.0000000000e+00 0.0000e+00 -1.0000e+00
<mgrwt>
<rscale>  0 0.28808178E+04</rscale>
<asrwt>0</asrwt>
<pdfrwt beam="1">  1        2 0.16977574E+00 0.28808178E+04</pdfrwt>
<pdfrwt beam="2">  1       -2 0.28924725E+00 0.28808178E+04</pdfrwt>
<totfact> 0.65945371E-01</totfact>
</mgrwt>
<rwgt>
<wgt id='morphing_basis_vector_1'> +6.9779230e-05 </wgt>
<wgt id='morphing_basis_vector_2'> +4.8538972e-05 </wgt>
<wgt id='morphing_basis_vector_3'> +7.6242421e-05 </wgt>
<wgt id='morphing_basis_vector_4'> +5.2241568e-05 </wgt>
<wgt id='morphing_basis_vector_5'> +8.5378212e-05 </wgt>
</rwgt>
</event>
<event>
 4      1 +7.3133000e-09 2.75404600e+03 7.81860800e-03 7.81748600e-02
        2 -1    0    0  501    0 +0.0000000000e+00 +0.0000000000e+00 +1.6587465882e+03 1.6587465882e+03 0.0000000000e+00 0.0000e+00 1.0000e+00
       -2 -1    0    0    0  501 -0.0000000000e+00 -0.0000000000e+00 -1.1431473667e+03 1.1431473667e+03 0.0000000000e+00 0.0000e+00 -1.0000e+00
      -13  1    1    2    0    0 -9.5934345192e+02 -7.6943883591e+02 +8.8809190712e+02 1.5169321727e+03 0.0000000000e+00 0.0000e+00 -1.0000e+00
       13  1    1    2    0    0 +9.5934345192e+02 +7.6943883591e+02 -3.7249268556e+02 1.2849617822e+03 0.0000000000e+00 0.0000e+00 1.0000e+00
<mgrwt>
<rscale>  0 0.27540456E+04</rscale>
<asrwt>0</asrwt>
<pdfrwt beam="1">  1        2 0.25519178E+00 0.27540456E+04</pdfrwt>
<pdfrwt beam="2">  1       -2 0.17586883E+00 0.27540456E+04</pdfrwt>
<totfact> 0.20437406E+00</totfact>
</mgrwt>
<rwgt>
<wgt id='morphing_basis_vector_1'> +6.7107009e-05 </wgt>
<wgt id='morphing_basis_vector_2'> +6.6263946e-05 </wgt>
<wgt id='morphing_basis_vector_3'> +7.7183846e-05 </wgt>
<wgt id='morphing_basis_vector_4'> +2.5534811e-05 </wgt>
<wgt id='morphing_basis_vector_5'> +6.9711601e-05 </wgt>
</rwgt>
</event>
<event>
 4      1 +7.3133000e-09 2.91356200e+03 7.81860800e-03 7.77439700e-02
        2 -1    0    0  501    0 +0.0000000000e+00 +0.0000000000e+00 +2.3129249581e+03 2.3129249581e+03 0.0000000000e+00 0.0000e+00 1.0000e+00
       -2 -1    0    0    0  501 -0.0000000000e+00 -0.0000000000e+00 -9.1754445309e+02 9.1754445309e+02 0.0000000000e+00 0.0000e+00 -1.0000e+00
      -13  1    1    2    0    0 -1.4157104083e+03 +3.4152351582e+02 +6.5714514527e+02 1.5977215070e+03 0.0000000000e+00 0.0000e+00 -1.0000e+00
       13  1    1    2    0    0 +1.4157104083e+03 -3.4152351582e+02 +7.3823535968e+02 1.6327479041e+03 0.0000000000e+00 0.0000e+00 1.0000e+00
<mgrwt>
<rscale>  0 0.29135624E+04</rscale>
<asrwt>0</asrwt>
<pdfrwt beam="1">  1        2 0.35583461E+00 0.29135624E+04</pdfrwt>
<pdfrwt beam="2">  1       -2 0.14116069E+00 0.29135624E+04</pdfrwt>
<totfact> 0.16413352E+00</totfact>
</mgrwt>
<rwgt>
<wgt id='morphing_basis_vector_1'> +7.4692805e-05 </wgt>
<wgt id='morphing_basis_vector_2'> +5.5836830e-05 </wgt>
<wgt id='morphing_basis_vector_3'> +8.2447618e-05 </wgt>
<wgt id='morphing_basis_vector_4'> +5.1109926e-05 </wgt>
<wgt id='morphing_basis_vector_5'> +8.9072099e-05 </wgt>
</rwgt>
</event>
<event>
 4      1 +7.3133000e-09 3.12407400e+03 7.81860800e-03 7.72165500e-02
        2 -1    0    0  501    0 +0.0000000000e+00 +0.0000000000e+00 +2.1227893248e+03 2.1227893248e+03 0.0000000000e+00 0.0000e+00 -1.0000e+00
       -2 -1    0    0    0  501 -0.0000000000e+00 -0.0000000000e+00 -1.1494118579e+03 1.1494118579e+03 0.0000000000e+00 0.0000e+00 1.0000e+00
      -13  1    1    2    0    0 -1.1482734239e+03 +1.0584340135e+03 +4.5124949102e+02 1.6255585256e+03 0.0000000000e+00 0.0000e+00 1.0000e+00
       13  1    1    2    0    0 +1.1482734239e+03 -1.0584340135e+03 +5.2212797593e+02 1.6466426571e+03 0.0000000000e+00 0.0000e+00 -1.0000e+00
<mgrwt>
<rscale>  0 0.31240738E+04</rscale>
<asrwt>0</asrwt>
<pdfrwt beam="1">  1        2 0.32658297E+00 0.31240738E+04</pdfrwt>
<pdfrwt beam="2">  1       -2 0.17683259E+00 0.31240738E+04</pdfrwt>
<totfact> 0.10701065E+00</totfact>
</mgrwt>
<rwgt>
<wgt id='morphing_basis_vector_1'> +9.8528570e-05 </wgt>
<wgt id='morphing_basis_vector_2'> +7.3837706e-05 </wgt>
<wgt id='morphing_basis_vector_3'> +1.0905828e-04 </wgt>
<wgt id='morphing_basis_vector_4'> +6.7633749e-05 </wgt>
<wgt id='morphing_basis_vector_5'> +1.1802028e-04 </wgt>
</rwgt>
</event>
<event>
 4      1 +7.3133000e-09 2.89166300e+03 7.81860800e-03 7.78014500e-02
        2 -1    0    0  501    0 +0.0000000000e+00 +0.0000000000e+00 +3.4285471375e+03 3.4285471375e+03 0.0000000000e+00 0.0000e+00 -1.0000e+00
       -2 -1    0    0    0  501 -0.0000000000e+00 -0.0000000000e+00 -6.0971253349e+02 6.0971253349e+02 0.0000000000e+00 0.0000e+00 1.0000e+00
      -13  1    1    2    0    0 +4.6658838340e+02 +1.1940860274e+03 +2.3429790617e+03 2.6707858477e+03 0.0000000000e+00 0.0000e+00 -1.0000e+00
       13  1    1    2    0    0 -4.6658838340e+02 -1.1940860274e+03 +4.7585554225e+02 1.3674738233e+03 0.0000000000e+00 0.0000e+00 1.0000e+00
<mgrwt>
<rscale>  0 0.28916626E+04</rscale>
<asrwt>0</asrwt>
<pdfrwt beam="1">  1        2 0.52746878E+00 0.28916626E+04</pdfrwt>
<pdfrwt beam="2">  1       -2 0.93801930E-01 0.28916626E+04</pdfrwt>
<totfact> 0.90334406E-01</totfact>
</mgrwt>
<rwgt>
<wgt id='morphing_basis_vector_1'> +8.1802894e-05 </wgt>
<wgt id='morphing_basis_vector_2'> +8.1611521e-05 </wgt>
<wgt id='morphing_basis_vector_3'> +9.4503723e-05 </wgt>
<wgt id='morphing_basis_vector_4'> +3.0247315e-05 </wgt>
<wgt id='morphing_basis_vector_5'> +8.4814837e-05 </wgt>
</rwgt>
</event>
<event>
 4      1 +7.3133000e-09 2.89143400e+03 7.81860800e-03 7.78020500e-02
        2 -1    0    0  501    0 +0.0000000000e+00 +0.0000000000e+00 +1.5188580792e+03 1.5188580792e+03 0.0000000000e+00 0.0000e+00 -1.0000e+00
       -2 -1    0    0    0  501 -0.0000000000e+00 -0.0000000000e+00 -1.3760983693e+03 1.3760983693e+03 0.0000000000e+00 0.0000e+00 1.0000e+00
      -13  1    1    2    0    0 +1.1969454318e+03 -7.5779423055e+02 -2.1735947939e+02 1.4332395494e+03 0.0000000000e+00 0.0000e+00 1.0000e+00
       13  1    1    2    0    0 -1.1969454318e+03 +7.5779423055e+02 +3.6011918928e+02 1.4617168991e+03 0.0000000000e+00 0.0000e+00 -1.0000e+00
<mgrwt>
<rscale>  0 0.28914343E+04</rscale>
<asrwt>0</asrwt>
<pdfrwt beam="1">  1        2 0.23367047E+00 0.28914343E+04</pdfrwt>
<pdfrwt beam="2">  1       -2 0.21170744E+00 0.28914343E+04</pdfrwt>
<totfact> 0.13129496E+00</totfact>
</mgrwt>
<rwgt>
<wgt id='morphing_basis_vector_1'> +7.1333298e-05 </wgt>
<wgt id='morphing_basis_vector_2'> +5.0816676e-05 </wgt>
<wgt id='morphing_basis_vector_3'> +7.8197943e-05 </wgt>
<wgt id='morphing_basis_vector_4'> +5.1922817e-05 </wgt>
<wgt id='morphing_basis_vector_5'> +8.6565713e-05 </wgt>
</rwgt>
</event>
<event>
 4      1 +7.3133000e-09 2.69967900e+03 7.81860800e-03 7.83285300e-02
        2 -1    0    0  501    0 +0.0000000000e+00 +0.0000000000e+00 +2.5430528251e+03 2.5430528251e+03 0.0000000000e+00 0.0000e+00 -1.0000e+00
       -2 -1    0    0    0  501 -0.0000000000e+00 -0.0000000000e+00 -7.1648790092e+02 7.1648790092e+02 0.0000000000e+00 0.0000e+00 1.0000e+00
      -13  1    1    2    0    0 -7.1162646597e+02 -4.4760380050e+02 -3.6180846795e+02 9.1524136531e+02 0.0000000000e+00 0.0000e+00 1.0000e+00
       13  1    1    2    0    0 +7.1162646597e+02 +4.4760380050e+02 +2.1883733921e+03 2.3442993607e+03 0.0000000000e+00 0.0000e+00 -1.0000e+00
<mgrwt>
<rscale>  0 0.26996789E+04</rscale>
<asrwt>0</asrwt>
<pdfrwt beam="1">  1        2 0.39123889E+00 0.26996789E+04</pdfrwt>
<pdfrwt beam="2">  1       -2 0.11022891E+00 0.26996789E+04</pdfrwt>
<totfact> 0.23474476E+00</totfact>
</mgrwt>
<rwgt>
<wgt id='morphing_basis_vector_1'> +5.3474469e-05 </wgt>
<wgt id='morphing_basis_vector_2'> +3.6039554e-05 </wgt>
<wgt id='morphing_basis_vector_3'> +5.8053342e-05 </wgt>
<wgt id='morphing_basis_vector_4'> +4.1194468e-05 </wgt>
<wgt id='morphing_basis_vector_5'> +6.5753627e-05 </wgt>
</rwgt>
</event>
<event>
 4      1 +7.3133000e-09 2.84559300e+03 7.81860800e-03 7.79240600e-02
        2 -1    0    0  501    0 +0.0000000000e+00 +0.0000000000e+00 +1.9905028527e+03 1.9905028527e+03 0.0000000000e+00 0.0000e+00 -1.0000e+00
       -2 -1    0    0    0  501 -0.0000000000e+00 -0.0000000000e+00 -1.0170044814e+03 1.0170044814e+03 0.0000000000e+00 0.0000e+00 1.0000e+00
      -13  1    1    2    0    0 -7.1847308036e+02 -4.6756520237e+02 -7.1343945177e+02 1.1152652765e+03 0.0000000000e+00 0.0000e+00 1.0000e+00
       13  1    1    2    0    0 +7.1847308036e+02 +4.6756520237e+02 +1.6869378231e+03 1.8922420576e+03 0.0000000000e+00 0.0000e+00 -1.0000e+00
<mgrwt>
<rscale>  0 0.28455933E+04</rscale>
<asrwt>0</asrwt>
<pdfrwt beam="1">  1        2 0.30623121E+00 0.28455933E+04</pdfrwt>
<pdfrwt beam="2">  1       -2 0.15646223E+00 0.28455933E+04</pdfrwt>
<totfact> 0.18821621E+00</totfact>
</mgrwt>
<rwgt>
<wgt id='morphing_basis_vector_1'> +6.5853282e-05 </wgt>
<wgt id='morphing_basis_vector_2'> +4.4427290e-05 </wgt>
<wgt id='morphing_basis_vector_3'> +7.1637634e-05 </wgt>
<wgt id='morphing_basis_vector_4'> +5.0970111e-05 </wgt>
<wgt id='morphing_basis_vector_5'> +8.1342788e-05 </wgt>
</rwgt>
</event>
<event>
 4      1 +7.3133000e-09 2.81287500e+03 7.81860800e-03 7.80125800e-02
        2 -1    0    0  501    0 +0.0000000000e+00 +0.0000000000e+00 +1.7960972808e+03 1.7960972808e+03 0.0000000000e+00 0.0000e+00 -1.0000e+00
       -2 -1    0    0    0  501 -0.0000000000e+00 -0.0000000000e+00 -1.1013132693e+03 1.1013132693e+03 0.0000000000e+00 0.0000e+00 1.0000e+00
      -13  1    1    2    0    0 -7.8919073256e+02 -2.6904159069e+02 +1.5140656146e+03 1.7284675511e+03 0.0000000000e+00 0.0000e+00 -1.0000e+00
       13  1    1    2    0    0 +7.8919073256e+02 +2.6904159069e+02 -8.1928160308e+02 1.1689429991e+03 0.0000000000e+00 0.0000e+00 1.0000e+00
<mgrwt>
<rscale>  0 0.28128745E+04</rscale>
<asrwt>0</asrwt>
<pdfrwt beam="1">  1        2 0.27632266E+00 0.28128745E+04</pdfrwt>
<pdfrwt beam="2">  1       -2 0.16943281E+00 0.28128745E+04</pdfrwt>
<totfact> 0.19128022E+00</totfact>
</mgrwt>
<rwgt>
<wgt id='morphing_basis_vector_1'> +8.3944519e-05 </wgt>
<wgt id='morphing_basis_vector_2'> +1.0442536e-04 </wgt>
<wgt id='morphing_basis_vector_3'> +1.0107369e-04 </wgt>
<wgt id='morphing_basis_vector_4'> +5.0577567e-06 </wgt>
<wgt id='morphing_basis_vector_5'> +7.4063240e-05 </wgt>
</rwgt>
</event>
<event>
 4      1 +7.3133000e-09 2.96381400e+03 7.81860800e-03 7.76139800e-02
        2 -1    0    0  501    0 +0.0000000000e+00 +0.0000000000e+00 +2.0715528881e+03 2.0715528881e+03 0.0000000000e+00 0.0000e+00 -1.0000e+00
       -2 -1    0    0    0  501 -0.0000000000e+00 -0.0000000000e+00 -1.0600979956e+03 1.0600979956e+03 0.0000000000e+00 0.0000e+00 1.0000e+00
      -13  1    1    2    0    0 +1.0409958567e+03 -7.9905707970e+02 -2.2164788150e+02 1.3308990847e+03 0.0000000000e+00 0.0000e+00 1.0000e+00
       13  1    1    2    0    0 -1.0409958567e+03 +7.9905707970e+02 +1.2331027740e+03 1.8007517990e+03 0.0000000000e+00 0.0000e+00 -1.0000e+00
<mgrwt>
<rscale>  0 0.29638145E+04</rscale>
<asrwt>0</asrwt>
<pdfrwt beam="1">  1        2 0.31870044E+00 0.29638145E+04</pdfrwt>
<pdfrwt beam="2">  1       -2 0.16309200E+00 0.29638145E+04</pdfrwt>
<totfact> 0.14839384E+00</totfact>
</mgrwt>
<rwgt>
<wgt id='morphing_basis_vector_1'> +7.7751481e-05 </wgt>
<wgt id='morphing_basis_vector_2'> +5.3356263e-05 </wgt>
<wgt id='morphing_basis_vector_3'> +8.4882638e-05 </wgt>
<wgt id='morphing_basis_vector_4'> +5.9291648e-05 </wgt>
<wgt id='morphing_basis_vector_5'> +9.5809833e-05 </wgt>
</rwgt>
</event>
<event>
 4      1 +7.3133000e-09 2.73031100e+03 7.81860800e-03 7.82415000e-02
        2 -1    0    0  501    0 +0.0000000000e+00 +0.0000000000e+00 +1.0995109927e+03 1.0995109927e+03 0.0000000000e+00 0.0000e+00 -1.0000e+00
       -2 -1    0    0    0  501 -0.0000000000e+00 -0.0000000000e+00 -1.6949808387e+03 1.6949808387e+03 0.0000000000e+00 0.0000e+00 1.0000e+00
      -13  1    1    2    0    0 +1.3251255558e+03 -1.8184993550e+02 -5.7732825104e+02 1.4568236157e+03 0.0000000000e+00 0.0000e+00 1.0000e+00
       13  1    1    2    0    0 -1.3251255558e+03 +1.8184993550e+02 -1.8141595005e+01 1.3376682157e+03 0.0000000000e+00 0.0000e+00 -1.0000e+00
<mgrwt>
<rscale>  0 0.27303114E+04</rscale>
<asrwt>0</asrwt>
<pdfrwt beam="1">  1        2 0.16915554E+00 0.27303114E+04</pdfrwt>
<pdfrwt beam="2">  1       -2 0.26076628E+00 0.27303114E+04</pdfrwt>
<totfact> 0.10511105E+00</totfact>
</mgrwt>
<rwgt>
<wgt id='morphing_basis_vector_1'> +5.6845478e-05 </wgt>
<wgt id='morphing_basis_vector_2'> +4.0437907e-05 </wgt>
<wgt id='morphing_basis_vector_3'> +6.2170078e-05 </wgt>
<wgt id='morphing_basis_vector_4'> +4.1194299e-05 </wgt>
<wgt id='morphing_basis_vector_5'> +6.8665847e-05 </wgt>
</rwgt>
</event>
<event>
 4      1 +7.3133000e-09 2.67651100e+03 7.81860800e-03 7.83951400e-02
        2 -1    0    0  501    0 +0.0000000000e+00 +0.0000000000e+00 +2.3149767018e+03 2.3149767018e+03 0.0000000000e+00 0.0000e+00 -1.0000e+00
       -2 -1    0    0    0  501 -0.0000000000e+00 -0.0000000000e+00 -7.7362678290e+02 7.7362678290e+02 0.0000000000e+00 0.0000e+00 1.0000e+00
      -13  1    1    2    0    0 +1.1669612567e+03 -5.8337314155e+02 +4.2679073475e+02 1.3726882852e+03 0.0000000000e+00 0.0000e+00 1.0000e+00
       13  1    1    2    0    0 -1.1669612567e+03 +5.8337314155e+02 +1.1145591841e+03 1.7159151995e+03 0.0000000000e+00 0.0000e+00 -1.0000e+00
<mgrwt>
<rscale>  0 0.26765111E+04</rscale>
<asrwt>0</asrwt>
<pdfrwt beam="1">  1        2 0.35615026E+00 0.26765111E+04</pdfrwt>
<pdfrwt beam="2">  1       -2 0.11901951E+00 0.26765111E+04</pdfrwt>
<totfact> 0.26378969E+00</totfact>
</mgrwt>
<rwgt>
<wgt id='morphing_basis_vector_1'> +5.2465200e-05 </wgt>
<wgt id='morphing_basis_vector_2'> +3.7131657e-05 </wgt>
<wgt id='morphing_basis_vector_3'> +5.7295002e-05 </wgt>
<wgt id='morphing_basis_vector_4'> +3.8169056e-05 </wgt>
<wgt id='morphing_basis_vector_5'> +6.3369567e-05 </wgt>
</rwgt>
</event>
<event>
 4      1 +7.3133000e-09 2.87574700e+03 7.81860800e-03 7.78435400e-02
        2 -1    0    0  501    0 +0.0000000000e+00 +0.0000000000e+00 +2.6702082055e+03 2.6702082055e+03 0.0000000000e+00 0.0000e+00 -1.0000e+00
       -2 -1    0    0    0  501 -0.0000000000e+00 -0.0000000000e+00 -7.7427684422e+02 7.7427684422e+02 0.0000000000e+00 0.0000e+00 1.0000e+00
      -13  1    1    2    0    0 +5.9682079529e+01 -1.2356016301e+03 +1.8258644880e+03 2.2054601486e+03 0.0000000000e+00 0.0000e+00 1.0000e+00
       13  1    1    2    0    0 -5.9682079529e+01 +1.2356016301e+03 +7.0066873320e+01 1.2390249011e+03 0.0000000000e+00 0.0000e+00 -1.0000e+00
<mgrwt>
<rscale>  0 0.28757471E+04</rscale>
<asrwt>0</asrwt>
<pdfrwt beam="1">  1        2 0.41080126E+00 0.28757471E+04</pdfrwt>
<pdfrwt beam="2">  1       -2 0.11911952E+00 0.28757471E+04</pdfrwt>
<totfact> 0.15884713E+00</totfact>
</mgrwt>
<rwgt>
<wgt id='morphing_basis_vector_1'> +8.1607744e-05 </wgt>
<wgt id='morphing_basis_vector_2'> +8.4479014e-05 </wgt>
<wgt id='morphing_basis_vector_3'> +9.4883891e-05 </wgt>
<wgt id='morphing_basis_vector_4'> +2.6315003e-05 </wgt>
<wgt id='morphing_basis_vector_5'> +8.2678438e-05 </wgt>
</rwgt>
</event>
<event>
 4      1 +7.3133000e-09 2.77049900e+03 7.81860800e-03 7.81290600e-02
        2 -1    0    0  501    0 +0.0000000000e+00 +0.0000000000e+00 +1.6961527730e+03 1.6961527730e+03 0.0000000000e+00 0.0000e+00 1.0000e+00
       -2 -1    0    0    0  501 -0.0000000000e+00 -0.0000000000e+00 -1.1313346239e+03 1.1313346239e+03 0.0000000000e+00 0.0000e+00 -1.0000e+00
      -13  1    1    2    0    0 +6.1954641500e+02 -1.2389394079e+03 +2.9300250208e+02 1.4158598388e+03 0.0000000000e+00 0.0000e+00 -1.0000e+00
       13  1    1    2    0    0 -6.1954641500e+02 +1.2389394079e+03 +2.7181564694e+02 1.4116275581e+03 0.0000000000e+00 0.0000e+00 1.0000e+00
<mgrwt>
<rscale>  0 0.27704991E+04</rscale>
<asrwt>0</asrwt>
<pdfrwt beam="1">  1        2 0.26094658E+00 0.27704991E+04</pdfrwt>
<pdfrwt beam="2">  1       -2 0.17405148E+00 0.27704991E+04</pdfrwt>
<totfact> 0.20091163E+00</totfact>
</mgrwt>
<rwgt>
<wgt id='morphing_basis_vector_1'> +6.1439985e-05 </wgt>
<wgt id='morphing_basis_vector_2'> +4.6428524e-05 </wgt>
<wgt id='morphing_basis_vector_3'> +6.7788017e-05 </wgt>
<wgt id='morphing_basis_vector_4'> +4.1194228e-05 </wgt>
<wgt id='morphing_basis_vector_5'> +7.2638727e-05 </wgt>
</rwgt>
</event>
<event>
 4      1 +7.3133000e-09 2.79783400e+03 7.81860800e-03 7.80536900e-02
        2 -1    0    0  501    0 +0.0000000000e+00 +0.0000000000e+00 +1.3517788204e+03 1.3517788204e+03 0.0000000000e+00 0.0000e+00 -1.0000e+00
       -2 -1    0    0    0  501 -0.0000000000e+00 -0.0000000000e+00 -1.4476989734e+03 1.4476989734e+03 0.0000000000e+00 0.0000e+00 1.0000e+00
      -13  1    1    2    0    0 -4.6520532289e+02 +5.7628315400e+02 -1.2354389183e+03 1.4404261824e+03 0.0000000000e+00 0.0000e+00 1.0000e+00
       13  1    1    2    0    0 +4.6520532289e+02 -5.7628315400e+02 +1.1395187653e+03 1.3590516114e+03 0.0000000000e+00 0.0000e+00 -1.0000e+00
<mgrwt>
<rscale>  0 0.27978340E+04</rscale>
<asrwt>0</asrwt>
<pdfrwt beam="1">  1        2 0.20796597E+00 0.27978340E+04</pdfrwt>
<pdfrwt beam="2">  1       -2 0.22272292E+00 0.27978340E+04</pdfrwt>
<totfact> 0.13718327E+00</totfact>
</mgrwt>
<rwgt>
<wgt id='morphing_basis_vector_1'> +6.1570345e-05 </wgt>
<wgt id='morphing_basis_vector_2'> +4.1487321e-05 </wgt>
<wgt id='morphing_basis_vector_3'> +6.6928585e-05 </wgt>
<wgt id='morphing_basis_vector_4'> +4.7632436e-05 </wgt>
<wgt id='morphing_basis_vector_5'> +7.5968744e-05 </wgt>
</rwgt>
</event>
<event>
 4      1 +7.3133000e-09 2.97413700e+03 7.81860800e-03 7.75876000e-02
        2 -1    0    0  501    0 +0.0000000000e+00 +0.0000000000e+00 +3.6145449354e+03 3.6145449354e+03 0.0000000000e+00 0.0000e+00 -1.0000e+00
       -2 -1    0    0    0  501 -0.0000000000e+00 -0.0000000000e+00 -6.1179856320e+02 6.1179856320e+02 0.0000000000e+00 0.0000e+00 1.0000e+00
      -13  1    1    2    0    0 -8.6757231672e+01 -6.9860563235e+02 -3.6001381269e+02 7.9068741746e+02 0.0000000000e+00 0.0000e+00 1.0000e+00
       13  1    1    2    0    0 +8.6757231672e+01 +6.9860563235e+02 +3.3627601849e+03 3.4356560811e+03 0.0000000000e+00 0.0000e+00 -1.0000e+00
<mgrwt>
<rscale>  0 0.29741375E+04</rscale>
<asrwt>0</asrwt>
<pdfrwt beam="1">  1        2 0.55608382E+00 0.29741375E+04</pdfrwt>
<pdfrwt beam="2">  1       -2 0.94122858E-01 0.29741375E+04</pdfrwt>
<totfact> 0.64914161E-01</totfact>
</mgrwt>
<rwgt>
<wgt id='morphing_basis_vector_1'> +7.8421986e-05 </wgt>
<wgt id='morphing_basis_vector_2'> +5.2898159e-05 </wgt>
<wgt id='morphing_basis_vector_3'> +8.5432445e-05 </wgt>
<wgt id='morphing_basis_vector_4'> +6.0978840e-05 </wgt>
<wgt id='morphing_basis_vector_5'> +9.7233631e-05 </wgt>
</rwgt>
</event>
<event>
 4      1 +7.3133000e-09 3.05230600e+03 7.81860800e-03 7.73914100e-02
        2 -1    0    0  501    0 +0.0000000000e+00 +0.0000000000e+00 +1.7301266129e+03 1.7301266129e+03 0.0000000000e+00 0.0000e+00 1.0000e+00
       -2 -1    0    0    0  501 -0.0000000000e+00 -0.0000000000e+00 -1.3462270720e+03 1.3462270720e+03 0.0000000000e+00 0.0000e+00 -1.0000e+00
      -13  1    1    2    0    0 +1.2269753791e+03 +3.4546974344e+02 -6.5390310196e+02 1.4326224874e+03 0.0000000000e+00 0.0000e+00 -1.0000e+00
       13  1    1    2    0    0 -1.2269753791e+03 -3.4546974344e+02 +1.0378026429e+03 1.6437311976e+03 0.0000000000e+00 0.0000e+00 1.0000e+00
<mgrwt>
<rscale>  0 0.30523062E+04</rscale>
<asrwt>0</asrwt>
<pdfrwt beam="1">  1        2 0.26617333E+00 0.30523062E+04</pdfrwt>
<pdfrwt beam="2">  1       -2 0.20711186E+00 0.30523062E+04</pdfrwt>
<totfact> 0.10659883E+00</totfact>
</mgrwt>
<rwgt>
<wgt id='morphing_basis_vector_1'> +8.7197973e-05 </wgt>
<wgt id='morphing_basis_vector_2'> +5.9490361e-05 </wgt>
<wgt id='morphing_basis_vector_3'> +9.5209960e-05 </wgt>
<wgt id='morphing_basis_vector_4'> +6.7119386e-05 </wgt>
<wgt id='morphing_basis_vector_5'> +1.0791607e-04 </wgt>
</rwgt>
</event>
<event>
 4      1 +7.3133000e-09 3.07077200e+03 7.81860800e-03 7.73459400e-02
        2 -1    0    0  501    0 +0.0000000000e+00 +0.0000000000e+00 +1.8953547597e+03 1.8953547597e+03 0.0000000000e+00 0.0000e+00 -1.0000e+00
       -2 -1    0    0    0  501 -0.0000000000e+00 -0.0000000000e+00 -1.2437832888e+03 1.2437832888e+03 0.0000000000e+00 0.0000e+00 1.0000e+00
      -13  1    1    2    0    0 -1.3019620778e+03 -3.7232731852e+02 -4.1398107442e+02 1.4160202025e+03 0.0000000000e+00 0.0000e+00 1.0000e+00
       13  1    1    2    0    0 +1.3019620778e+03 +3.7232731852e+02 +1.0655525453e+03 1.7231178459e+03 0.0000000000e+00 0.0000e+00 -1.0000e+00
<mgrwt>
<rscale>  0 0.30707723E+04</rscale>
<asrwt>0</asrwt>
<pdfrwt beam="1">  1        2 0.29159304E+00 0.30707723E+04</pdfrwt>
<pdfrwt beam="2">  1       -2 0.19135127E+00 0.30707723E+04</pdfrwt>
<totfact> 0.11226841E+00</totfact>
</mgrwt>
<rwgt>
<wgt id='morphing_basis_vector_1'> +8.9467330e-05 </wgt>
<wgt id='morphing_basis_vector_2'> +6.1405321e-05 </wgt>
<wgt id='morphing_basis_vector_3'> +9.7782871e-05 </wgt>
<wgt id='morphing_basis_vector_4'> +6.8441055e-05 </wgt>
<wgt id='morphing_basis_vector_5'> +1.1054680e-04 </wgt>
</rwgt>
</event>
<event>
 4      1 +7.3133000e-09 2.99989900e+03 7.81860800e-03 7.75222600e-02
        2 -1    0    0  501    0 +0.0000000000e+00 +0.0000000000e+00 +3.7251935938e+03 3.7251935938e+03 0.0000000000e+00 0.0000e+00 1.0000e+00
       -2 -1    0    0    0  501 -0.0000000000e+00 -0.0000000000e+00 -6.0395465008e+02 6.0395465008e+02 0.0000000000e+00 0.0000e+00 -1.0000e+00
      -13  1    1    2    0    0 +4.4959077944e+01 -1.4112462520e+03 +8.3016273718e+02 1.6379277983e+03 0.0000000000e+00 0.0000e+00 1.0000e+00
       13  1    1    2    0    0 -4.4959077944e+01 +1.4112462520e+03 +2.2910762066e+03 2.6912204456e+03 0.0000000000e+00 0.0000e+00 -1.0000e+00
<mgrwt>
<rscale>  0 0.29998987E+04</rscale>
<asrwt>0</asrwt>
<pdfrwt beam="1">  1        2 0.57310669E+00 0.29998987E+04</pdfrwt>
<pdfrwt beam="2">  1       -2 0.92916102E-01 0.29998987E+04</pdfrwt>
<totfact> 0.54916556E-01</totfact>
</mgrwt>
<rwgt>
<wgt id='morphing_basis_vector_1'> +8.1925981e-05 </wgt>
<wgt id='morphing_basis_vector_2'> +5.7036380e-05 </wgt>
<wgt id='morphing_basis_vector_3'> +8.9645288e-05 </wgt>
<wgt id='morphing_basis_vector_4'> +6.1520286e-05 </wgt>
<wgt id='morphing_basis_vector_5'> +1.0054458e-04 </wgt>
</rwgt>
</event>
<event>
 4      1 +7.3133000e-09 2.68200900e+03 7.81860800e-03 7.83792700e-02
        2 -1    0    0  501    0 +0.0000000000e+00 +0.0000000000e+00 +2.1737508586e+03 2.1737508586e+03 0.0000000000e+00 0.0000e+00 -1.0000e+00
       -2 -1    0    0    0  501 -0.0000000000e+00 -0.0000000000e+00 -8.2727678356e+02 8.2727678356e+02 0.0000000000e+00 0.0000e+00 1.0000e+00
      -13  1    1    2    0    0 +1.0205952571e+03 +5.8838067833e+02 +1.3901384966e+03 1.8221667160e+03 0.0000000000e+00 0.0000e+00 1.0000e+00
       13  1    1    2    0    0 -1.0205952571e+03 -5.8838067833e+02 -4.3664421566e+01 1.1788609261e+03 0.0000000000e+00 0.0000e+00 -1.0000e+00
<mgrwt>
<rscale>  0 0.26820094E+04</rscale>
<asrwt>0</asrwt>
<pdfrwt beam="1">  1        2 0.33442321E+00 0.26820094E+04</pdfrwt>
<pdfrwt beam="2">  1       -2 0.12727335E+00 0.26820094E+04</pdfrwt>
<totfact> 0.26677941E+00</totfact>
</mgrwt>
<rwgt>
<wgt id='morphing_basis_vector_1'> +6.1103921e-05 </wgt>
<wgt id='morphing_basis_vector_2'> +6.1645707e-05 </wgt>
<wgt id='morphing_basis_vector_3'> +7.0436076e-05 </wgt>
<wgt id='morphing_basis_vector_4'> +2.1545386e-05 </wgt>
<wgt id='morphing_basis_vector_5'> +6.2516389e-05 </wgt>
</rwgt>
</event>
<event>
 4      1 +7.3133000e-09 2.72295700e+03 7.81860800e-03 7.82622900e-02
        2 -1    0    0  501    0 +0.0000000000e+00 +0.0000000000e+00 +2.0299973359e+03 2.0299973359e+03 0.0000000000e+00 0.0000e+00 1.0000e+00
       -2 -1    0    0    0  501 -0.0000000000e+00 -0.0000000000e+00 -9.1311615197e+02 9.1311615197e+02 0.0000000000e+00 0.0000e+00 -1.0000e+00
      -13  1    1    2    0    0 +3.1744339165e+02 -9.0868737963e+02 -4.8229161634e+02 1.0766096154e+03 0.0000000000e+00 0.0000e+00 -1.0000e+00
       13  1    1    2    0    0 -3.1744339165e+02 +9.0868737963e+02 +1.5991728003e+03 1.8665038725e+03 0.0000000000e+00 0.0000e+00 1.0000e+00
<mgrwt>
<rscale>  0 0.27229567E+04</rscale>
<asrwt>0</asrwt>
<pdfrwt beam="1">  1        2 0.31230728E+00 0.27229567E+04</pdfrwt>
<pdfrwt beam="2">  1       -2 0.14047941E+00 0.27229567E+04</pdfrwt>
<totfact> 0.24540469E+00</totfact>
</mgrwt>
<rwgt>
<wgt id='morphing_basis_vector_1'> +5.5354203e-05 </wgt>
<wgt id='morphing_basis_vector_2'> +3.7388723e-05 </wgt>
<wgt id='morphing_basis_vector_3'> +6.0130198e-05 </wgt>
<wgt id='morphing_basis_vector_4'> +4.2582075e-05 </wgt>
<wgt id='morphing_basis_vector_5'> +6.8070874e-05 </wgt>
</rwgt>
</event>
<event>
 4      1 +7.3133000e-09 3.05392500e+03 7.81860800e-03 7.73874100e-02
        2 -1    0    0  501    0 +0.0000000000e+00 +0.0000000000e+00 +7.3837619895e+02 7.3837619895e+02 0.0000000000e+00 0.0000e+00 1.0000e+00
       -2 -1    0    0    0  501 -0.0000000000e+00 -0.0000000000e+00 -3.1577591876e+03 3.1577591876e+03 0.0000000000e+00 0.0000e+00 -1.0000e+00
      -13  1    1    2    0    0 -3.7375933706e+02 -1.3553639208e+03 -1.9697252342e+03 2.4200258052e+03 0.0000000000e+00 0.0000e+00 -1.0000e+00
       13  1    1    2    0    0 +3.7375933706e+02 +1.3553639208e+03 -4.4965775450e+02 1.4761095813e+03 0.0000000000e+00 0.0000e+00 1.0000e+00
<mgrwt>
<rscale>  0 0.30539248E+04</rscale>
<asrwt>0</asrwt>
<pdfrwt beam="1">  1        2 0.11359634E+00 0.30539248E+04</pdfrwt>
<pdfrwt beam="2">  1       -2 0.48580910E+00 0.30539248E+04</pdfrwt>
<totfact> 0.53678446E-02</totfact>
</mgrwt>
<rwgt>
<wgt id='morphing_basis_vector_1'> +8.7753931e-05 </wgt>
<wgt id='morphing_basis_vector_2'> +6.0712998e-05 </wgt>
<wgt id='morphing_basis_vector_3'> +9.5996126e-05 </wgt>
<wgt id='morphing_basis_vector_4'> +6.6486566e-05 </wgt>
<wgt id='morphing_basis_vector_5'> +1.0808324e-04 </wgt>
</rwgt>
</event>
<event>
 4      1 +7.3133000e-09 3.04272400e+03 7.81860800e-03 7.74151300e-02
        2 -1    0    0  501    0 +0.0000000000e+00 +0.0000000000e+00 +2.1802579286e+03 2.1802579286e+03 0.0000000000e+00 0.0000e+00 -1.0000e+00
       -2 -1    0    0    0  501 -0.0000000000e+00 -0.0000000000e+00 -1.0615912681e+03 1.0615912681e+03 0.0000000000e+00 0.0000e+00 1.0000e+00
      -13  1    1    2    0    0 -1.1164345472e+03 +2.0871746907e+01 -5.4157453487e+02 1.2410337243e+03 0.0000000000e+00 0.0000e+00 1.0000e+00
       13  1    1    2    0    0 +1.1164345472e+03 -2.0871746907e+01 +1.6602411954e+03 2.0008154725e+03 0.0000000000e+00 0.0000e+00 -1.0000e+00
<mgrwt>
<rscale>  0 0.30427243E+04</rscale>
<asrwt>0</asrwt>
<pdfrwt beam="1">  1        2 0.33542430E+00 0.30427243E+04</pdfrwt>
<pdfrwt beam="2">  1       -2 0.16332173E+00 0.30427243E+04</pdfrwt>
<totfact> 0.12730705E+00</totfact>
</mgrwt>
<rwgt>
<wgt id='morphing_basis_vector_1'> +8.5952540e-05 </wgt>
<wgt id='morphing_basis_vector_2'> +5.8263170e-05 </wgt>
<wgt id='morphing_basis_vector_3'> +9.3761748e-05 </wgt>
<wgt id='morphing_basis_vector_4'> +6.6617802e-05 </wgt>
<wgt id='morphing_basis_vector_5'> +1.0658417e-04 </wgt>
</rwgt>
</event>
<event>
 4      1 +7.3133000e-09 2.86684200e+03 7.81860800e-03 7.78672200e-02
        2 -1    0    0  501    0 +0.0000000000e+00 +0.0000000000e+00 +2.0829205056e+03 2.0829205056e+03 0.0000000000e+00 0.0000e+00 1.0000e+00
       -2 -1    0    0    0  501 -0.0000000000e+00 -0.0000000000e+00 -9.8644949939e+02 9.8644949939e+02 0.0000000000e+00 0.0000e+00 -1.0000e+00
      -13  1    1    2    0    0 +9.8767581471e+02 -1.3275756622e+02 -5.5487581896e+02 1.1406205595e+03 0.0000000000e+00 0.0000e+00 -1.0000e+00
       13  1    1    2    0    0 -9.8767581471e+02 +1.3275756622e+02 +1.6513468251e+03 1.9287494454e+03 0.0000000000e+00 0.0000e+00 1.0000e+00
<mgrwt>
<rscale>  0 0.28668421E+04</rscale>
<asrwt>0</asrwt>
<pdfrwt beam="1">  1        2 0.32044931E+00 0.28668421E+04</pdfrwt>
<pdfrwt beam="2">  1       -2 0.15176146E+00 0.28668421E+04</pdfrwt>
<totfact> 0.18201533E+00</totfact>
</mgrwt>
<rwgt>
<wgt id='morphing_basis_vector_1'> +6.7861163e-05 </wgt>
<wgt id='morphing_basis_vector_2'> +4.5878492e-05 </wgt>
<wgt id='morphing_basis_vector_3'> +7.3860524e-05 </wgt>
<wgt id='morphing_basis_vector_4'> +5.2443715e-05 </wgt>
<wgt id='morphing_basis_vector_5'> +8.3817542e-05 </wgt>
</rwgt>
</event>
<event>
 4      1 +7.3133000e-09 2.71632300e+03 7.81860800e-03 7.82811000e-02
        2 -1    0    0  501    0 +0.0000000000e+00 +0.0000000000e+00 +1.8572257355e+03 1.8572257355e+03 0.0000000000e+00 0.0000e+00 -1.0000e+00
       -2 -1    0    0    0  501 -0.0000000000e+00 -0.0000000000e+00 -9.9320344434e+02 9.9320344434e+02 0.0000000000e+00 0.0000e+00 1.0000e+00
      -13  1    1    2    0    0 +7.1281981298e+02 +8.5253384083e+02 -3.8735628464e+02 1.1768478775e+03 0.0000000000e+00 0.0000e+00 1.0000e+00
       13  1    1    2    0    0 -7.1281981298e+02 -8.5253384083e+02 +1.2513785758e+03 1.6735813023e+03 0.0000000000e+00 0.0000e+00 -1.0000e+00
<mgrwt>
<rscale>  0 0.27163232E+04</rscale>
<asrwt>0</asrwt>
<pdfrwt beam="1">  1        2 0.28572704E+00 0.27163232E+04</pdfrwt>
<pdfrwt beam="2">  1       -2 0.15280053E+00 0.27163232E+04</pdfrwt>
<totfact> 0.24209250E+00</totfact>
</mgrwt>
<rwgt>
<wgt id='morphing_basis_vector_1'> +5.4918487e-05 </wgt>
<wgt id='morphing_basis_vector_2'> +3.7309825e-05 </wgt>
<wgt id='morphing_basis_vector_3'> +5.9694960e-05 </wgt>
<wgt id='morphing_basis_vector_4'> +4.1966398e-05 </wgt>
<wgt id='morphing_basis_vector_5'> +6.7386719e-05 </wgt>
</rwgt>
</event>
<event>
 4      1 +7.3133000e-09 2.98502500e+03 7.81860800e-03 7.75599000e-02
        2 -1    0    0  501    0 +0.0000000000e+00 +0.0000000000e+00 +1.4509211005e+03 1.4509211005e+03 0.0000000000e+00 0.0000e+00 -1.0000e+00
       -2 -1    0    0    0  501 -0.0000000000e+00 -0.0000000000e+00 -1.5352960764e+03 1.5352960764e+03 0.0000000000e+00 0.0000e+00 1.0000e+00
      -13  1    1    2    0    0 +1.4103231412e+03 +2.4352224759e+02 -4.6577014102e+02 1.5050768326e+03 0.0000000000e+00 0.0000e+00 1.0000e+00
       13  1    1    2    0    0 -1.4103231412e+03 -2.4352224759e+02 +3.8139516513e+02 1.4811403443e+03 0.0000000000e+00 0.0000e+00 -1.0000e+00
<mgrwt>
<rscale>  0 0.29850249E+04</rscale>
<asrwt>0</asrwt>
<pdfrwt beam="1">  1        2 0.22321863E+00 0.29850249E+04</pdfrwt>
<pdfrwt beam="2">  1       -2 0.23619940E+00 0.29850249E+04</pdfrwt>
<totfact> 0.95429370E-01</totfact>
</mgrwt>
<rwgt>
<wgt id='morphing_basis_vector_1'> +8.0529220e-05 </wgt>
<wgt id='morphing_basis_vector_2'> +5.6511226e-05 </wgt>
<wgt id='morphing_basis_vector_3'> +8.8196339e-05 </wgt>
<wgt id='morphing_basis_vector_4'> +5.9879664e-05 </wgt>
<wgt id='morphing_basis_vector_5'> +9.8513481e-05 </wgt>
</rwgt>
</event>
<event>
 4      1 +7.3133000e-09 2.86147000e+03 7.81860800e-03 7.78815400e-02
        2 -1    0    0  501    0 +0.0000000000e+00 +0.0000000000e+00 +1.6352857098e+03 1.6352857098e+03 0.0000000000e+00 0.0000e+00 -1.0000e+00
       -2 -1    0    0    0  501 -0.0000000000e+00 -0.0000000000e+00 -1.2517709028e+03 1.2517709028e+03 0.0000000000e+00 0.0000e+00 1.0000e+00
      -13  1    1    2    0    0 -1.0935636027e+03 +6.3724455713e+02 -4.8132170851e+02 1.3541168952e+03 0.0000000000e+00 0.0000e+00 1.0000e+00
       13  1    1    2    0    0 +1.0935636027e+03 -6.3724455713e+02 +8.6483651544e+02 1.5329397174e+03 0.0000000000e+00 0.0000e+00 -1.0000e+00
<mgrwt>
<rscale>  0 0.28614703E+04</rscale>
<asrwt>0</asrwt>
<pdfrwt beam="1">  1        2 0.25158242E+00 0.28614703E+04</pdfrwt>
<pdfrwt beam="2">  1       -2 0.19258014E+00 0.28614703E+04</pdfrwt>
<totfact> 0.15620793E+00</totfact>
</mgrwt>
<rwgt>
<wgt id='morphing_basis_vector_1'> +6.7643890e-05 </wgt>
<wgt id='morphing_basis_vector_2'> +4.6376398e-05 </wgt>
<wgt id='morphing_basis_vector_3'> +7.3752279e-05 </wgt>
<wgt id='morphing_basis_vector_4'> +5.1457003e-05 </wgt>
<wgt id='morphing_basis_vector_5'> +8.3136594e-05 </wgt>
</rwgt>
</event>
<event>
 4      1 +7.3133000e-09 3.10852300e+03 7.81860800e-03 7.72540300e-02
        2 -1    0    0  501    0 +0.0000000000e+00 +0.0000000000e+00 +2.4913121613e+03 2.4913121613e+03 0.0000000000e+00 0.0000e+00 1.0000e+00
       -2 -1    0    0    0  501 -0.0000000000e+00 -0.0000000000e+00 -9.6966124180e+02 9.6966124180e+02 0.0000000000e+00 0.0000e+00 -1.0000e+00
      -13  1    1    2    0    0 +4.7982621656e+02 -1.4152361587e+03 +2.8505524579e+02 1.5213096582e+03 0.0000000000e+00 0.0000e+00 -1.0000e+00
       13  1    1    2    0    0 -4.7982621656e+02 +1.4152361587e+03 +1.2365956737e+03 1.9396637449e+03 0.0000000000e+00 0.0000e+00 1.0000e+00
<mgrwt>
<rscale>  0 0.31085230E+04</rscale>
<asrwt>0</asrwt>
<pdfrwt beam="1">  1        2 0.38327879E+00 0.31085230E+04</pdfrwt>
<pdfrwt beam="2">  1       -2 0.14917865E+00 0.31085230E+04</pdfrwt>
<totfact> 0.10856237E+00</totfact>
</mgrwt>
<rwgt>
<wgt id='morphing_basis_vector_1'> +9.4614130e-05 </wgt>
<wgt id='morphing_basis_vector_2'> +6.6544850e-05 </wgt>
<wgt id='morphing_basis_vector_3'> +1.0378576e-04 </wgt>
<wgt id='morphing_basis_vector_4'> +7.0426591e-05 </wgt>
<wgt id='morphing_basis_vector_5'> +1.1601008e-04 </wgt>
</rwgt>
</event>
<event>
 4      1 +7.3133000e-09 3.19405700e+03 7.81860800e-03 7.70506600e-02
        2 -1    0    0  501    0 +0.0000000000e+00 +0.0000000000e+00 +2.6261131199e+03 2.6261131199e+03 0.0000000000e+00 0.0000e+00 1.0000e+00
       -2 -1    0    0    0  501 -0.0000000000e+00 -0.0000000000e+00 -9.7120748418e+02 9.7120748418e+02 0.0000000000e+00 0.0000e+00 -1.0000e+00
      -13  1    1    2    0    0 +1.1117264723e+03 -4.3107766543e+02 -3.6910257343e+02 1.2481988674e+03 0.0000000000e+00 0.0000e+00 -1.0000e+00
       13  1    1    2    0    0 -1.1117264723e+03 +4.3107766543e+02 +2.0240082091e+03 2.3491217366e+03 0.0000000000e+00 0.0000e+00 1.0000e+00
<mgrwt>
<rscale>  0 0.31940574E+04</rscale>
<asrwt>0</asrwt>
<pdfrwt beam="1">  1        2 0.40401740E+00 0.31940574E+04</pdfrwt>
<pdfrwt beam="2">  1       -2 0.14941654E+00 0.31940574E+04</pdfrwt>
<totfact> 0.88989876E-01</totfact>
</mgrwt>
<rwgt>
<wgt id='morphing_basis_vector_1'> +1.0421695e-04 </wgt>
<wgt id='morphing_basis_vector_2'> +7.0749626e-05 </wgt>
<wgt id='morphing_basis_vector_3'> +1.1386681e-04 </wgt>
<wgt id='morphing_basis_vector_4'> +8.0984072e-05 </wgt>
<wgt id='morphing_basis_vector_5'> +1.2962687e-04 </wgt>
</rwgt>
</event>
<event>
 4      1 +7.3133000e-09 2.84451000e+03 7.81860800e-03 7.79269700e-02
        2 -1    0    0  501    0 +0.0000000000e+00 +0.0000000000e+00 +1.6353915075e+03 1.6353915075e+03 0.0000000000e+00 0.0000e+00 -1.0000e+00
       -2 -1    0    0    0  501 -0.0000000000e+00 -0.0000000000e+00 -1.2368964470e+03 1.2368964470e+03 0.0000000000e+00 0.0000e+00 1.0000e+00
      -13  1    1    2    0    0 +7.5975173531e+02 -2.5019002730e+01 -1.0145564250e+03 1.2677434241e+03 0.0000000000e+00 0.0000e+00 1.0000e+00
       13  1    1    2    0    0 -7.5975173531e+02 +2.5019002730e+01 +1.4130514854e+03 1.6045445304e+03 0.0000000000e+00 0.0000e+00 -1.0000e+00
<mgrwt>
<rscale>  0 0.28445105E+04</rscale>
<asrwt>0</asrwt>
<pdfrwt beam="1">  1        2 0.25159870E+00 0.28445105E+04</pdfrwt>
<pdfrwt beam="2">  1       -2 0.19029176E+00 0.28445105E+04</pdfrwt>
<totfact> 0.16265969E+00</totfact>
</mgrwt>
<rwgt>
<wgt id='morphing_basis_vector_1'> +6.5739242e-05 </wgt>
<wgt id='morphing_basis_vector_2'> +4.4316168e-05 </wgt>
<wgt id='morphing_basis_vector_3'> +7.1505609e-05 </wgt>
<wgt id='morphing_basis_vector_4'> +5.0922660e-05 </wgt>
<wgt id='morphing_basis_vector_5'> +8.1220350e-05 </wgt>
</rwgt>
</event>
<event>
 4      1 +7.3133000e-09 3.11614600e+03 7.81860800e-03 7.72356300e-02
        2 -1    0    0  501    0 +0.0000000000e+00 +0.0000000000e+00 +4.4009257618e+03 4.4009257618e+03 0.0000000000e+00 0.0000e+00 -1.0000e+00
       -2 -1    0    0    0  501 -0.0000000000e+00 -0.0000000000e+00 -5.5160925983e+02 5.5160925983e+02 0.0000000000e+00 0.0000e+00 1.0000e+00
      -13  1    1    2    0    0 +9.9672521840e+02 -4.7016387791e+02 +1.7419176677e+02 1.1157320488e+03 0.0000000000e+00 0.0000e+00 1.0000e+00
       13  1    1    2    0    0 -9.9672521840e+02 +4.7016387791e+02 +3.6751247352e+03 3.8368029728e+03 0.0000000000e+00 0.0000e+00 -1.0000e+00
<mgrwt>
<rscale>  0 0.31161460E+04</rscale>
<asrwt>0</asrwt>
<pdfrwt beam="1">  1        2 0.67706548E+00 0.31161460E+04</pdfrwt>
<pdfrwt beam="2">  1       -2 0.84862966E-01 0.31161460E+04</pdfrwt>
<totfact> 0.17252800E-01</totfact>
</mgrwt>
<rwgt>
<wgt id='morphing_basis_vector_1'> +9.4449426e-05 </wgt>
<wgt id='morphing_basis_vector_2'> +6.3993377e-05 </wgt>
<wgt id='morphing_basis_vector_3'> +1.0309675e-04 </wgt>
<wgt id='morphing_basis_vector_4'> +7.3397451e-05 </wgt>
<wgt id='morphing_basis_vector_5'> +1.1734878e-04 </wgt>
</rwgt>
</event>
<event>
 4      1 +7.3133000e-09 2.69959300e+03 7.81860800e-03 7.83287800e-02
        2 -1    0    0  501    0 +0.0000000000e+00 +0.0000000000e+00 +1.5514851177e+03 1.5514851177e+03 0.0000000000e+00 0.0000e+00 -1.0000e+00
       -2 -1    0    0    0  501 -0.0000000000e+00 -0.0000000000e+00 -1.1743270387e+03 1.1743270387e+03 0.0000000000e+00 0.0000e+00 1.0000e+00
      -13  1    1    2    0    0 -1.6187075717e+02 -1.2286912722e+03 +7.2862549764e+02 1.4376298203e+03 0.0000000000e+00 0.0000e+00 1.0000e+00
       13  1    1    2    0    0 +1.6187075717e+02 +1.2286912722e+03 -3.5146741862e+02 1.2881823360e+03 0.0000000000e+00 0.0000e+00 -1.0000e+00
<mgrwt>
<rscale>  0 0.26995932E+04</rscale>
<asrwt>0</asrwt>
<pdfrwt beam="1">  1        2 0.23869002E+00 0.26995932E+04</pdfrwt>
<pdfrwt beam="2">  1       -2 0.18066570E+00 0.26995932E+04</pdfrwt>
<totfact> 0.21658335E+00</totfact>
</mgrwt>
<rwgt>
<wgt id='morphing_basis_vector_1'> +6.0765640e-05 </wgt>
<wgt id='morphing_basis_vector_2'> +5.7550265e-05 </wgt>
<wgt id='morphing_basis_vector_3'> +6.9316281e-05 </wgt>
<wgt id='morphing_basis_vector_4'> +2.6123049e-05 </wgt>
<wgt id='morphing_basis_vector_5'> +6.4516159e-05 </wgt>
</rwgt>
</event>
<event>
 4      1 +7.3133000e-09 2.67550900e+03 7.81860800e-03 7.83980400e-02
        2 -1    0    0  501    0 +0.0000000000e+00 +0.0000000000e+00 +1.7588531631e+03 1.7588531631e+03 0.0000000000e+00 0.0000e+00 -1.0000e+00
       -2 -1    0    0    0  501 -0.0000000000e+00 -0.0000000000e+00 -1.0174736247e+03 1.0174736247e+03 0.0000000000e+00 0.0000e+00 1.0000e+00
      -13  1    1    2    0    0 -2.7232096573e+02 +1.1685302307e+03 -2.4318047260e+02 1.2242378652e+03 0.0000000000e+00 0.0000e+00 1.0000e+00
       13  1    1    2    0    0 +2.7232096573e+02 -1.1685302307e+03 +9.8456001093e+02 1.5520889226e+03 0.0000000000e+00 0.0000e+00 -1.0000e+00
<mgrwt>
<rscale>  0 0.26755087E+04</rscale>
<asrwt>0</asrwt>
<pdfrwt beam="1">  1        2 0.27059280E+00 0.26755087E+04</pdfrwt>
<pdfrwt beam="2">  1       -2 0.15653440E+00 0.26755087E+04</pdfrwt>
<totfact> 0.25697055E+00</totfact>
</mgrwt>
<rwgt>
<wgt id='morphing_basis_vector_1'> +5.1883787e-05 </wgt>
<wgt id='morphing_basis_vector_2'> +3.5591074e-05 </wgt>
<wgt id='morphing_basis_vector_3'> +5.6432282e-05 </wgt>
<wgt id='morphing_basis_vector_4'> +3.9150415e-05 </wgt>
<wgt id='morphing_basis_vector_5'> +6.3358337e-05 </wgt>
</rwgt>
</event>
<event>
 4      1 +7.3133000e-09 2.92397300e+03 7.81860800e-03 7.77168200e-02
        2 -1    0    0  501    0 +0.0000000000e+00 +0.0000000000e+00 +1.3940636677e+03 1.3940636677e+03 0.0000000000e+00 0.0000e+00 -1.0000e+00
       -2 -1    0    0    0  501 -0.0000000000e+00 -0.0000000000e+00 -1.5332190308e+03 1.5332190308e+03 0.0000000000e+00 0.0000e+00 1.0000e+00
      -13  1    1    2    0    0 +7.9231826490e+02 -1.1307732119e+02 -1.2944207245e+03 1.5218671839e+03 0.0000000000e+00 0.0000e+00 1.0000e+00
       13  1    1    2    0    0 -7.9231826490e+02 +1.1307732119e+02 +1.1552653614e+03 1.4054155146e+03 0.0000000000e+00 0.0000e+00 -1.0000e+00
<mgrwt>
<rscale>  0 0.29239733E+04</rscale>
<asrwt>0</asrwt>
<pdfrwt beam="1">  1        2 0.21447133E+00 0.29239733E+04</pdfrwt>
<pdfrwt beam="2">  1       -2 0.23587985E+00 0.29239733E+04</pdfrwt>
<totfact> 0.10379834E+00</totfact>
</mgrwt>
<rwgt>
<wgt id='morphing_basis_vector_1'> +7.3321836e-05 </wgt>
<wgt id='morphing_basis_vector_2'> +4.9465361e-05 </wgt>
<wgt id='morphing_basis_vector_3'> +7.9834526e-05 </wgt>
<wgt id='morphing_basis_vector_4'> +5.6909052e-05 </wgt>
<wgt id='morphing_basis_vector_5'> +9.0779018e-05 </wgt>
</rwgt>
</event>
<event>
 4      1 +7.3133000e-09 2.71137700e+03 7.81860800e-03 7.82951500e-02
        2 -1    0    0  501    0 +0.0000000000e+00 +0.0000000000e+00 +1.2175432198e+03 1.2175432198e+03 0.0000000000e+00 0.0000e+00 1.0000e+00
       -2 -1    0    0    0  501 -0.0000000000e+00 -0.0000000000e+00 -1.5095085280e+03 1.5095085280e+03 0.0000000000e+00 0.0000e+00 -1.0000e+00
      -13  1    1    2    0    0 -5.9462972153e+01 -1.3438408822e+03 -3.1562218891e+02 1.3816879271e+03 0.0000000000e+00 0.0000e+00 -1.0000e+00
       13  1    1    2    0    0 +5.9462972153e+01 +1.3438408822e+03 +2.3656880690e+01 1.3453638206e+03 0.0000000000e+00 0.0000e+00 1.0000e+00
<mgrwt>
<rscale>  0 0.27113774E+04</rscale>
<asrwt>0</asrwt>
<pdfrwt beam="1">  1        2 0.18731434E+00 0.27113774E+04</pdfrwt>
<pdfrwt beam="2">  1       -2 0.23223208E+00 0.27113774E+04</pdfrwt>
<totfact> 0.14143314E+00</totfact>
</mgrwt>
<rwgt>
<wgt id='morphing_basis_vector_1'> +5.5622770e-05 </wgt>
<wgt id='morphing_basis_vector_2'> +4.0279271e-05 </wgt>
<wgt id='morphing_basis_vector_3'> +6.0959598e-05 </wgt>
<wgt id='morphing_basis_vector_4'> +3.9389141e-05 </wgt>
<wgt id='morphing_basis_vector_5'> +6.6706808e-05 </wgt>
</rwgt>
</event>
<event>
 4      1 +7.3133000e-09 2.98783000e+03 7.81860800e-03 7.75527900e-02
        2 -1    0    0  501    0 +0.0000000000e+00 +0.0000000000e+00 +1.0347232633e+03 1.0347232633e+03 0.0000000000e+00 0.0000e+00 -1.0000e+00
       -2 -1    0    0    0  501 -0.0000000000e+00 -0.0000000000e+00 -2.1568885543e+03 2.1568885543e+03 0.0000000000e+00 0.0000e+00 1.0000e+00
      -13  1    1    2    0    0 +6.7468312701e+02 -8.1448507358e+02 -1.6881259721e+03 1.9920724270e+03 0.0000000000e+00 0.0000e+00 1.0000e+00
       13  1    1    2    0    0 -6.7468312701e+02 +8.1448507358e+02 +5.6596068105e+02 1.1995393905e+03 0.0000000000e+00 0.0000e+00 -1.0000e+00
<mgrwt>
<rscale>  0 0.29878305E+04</rscale>
<asrwt>0</asrwt>
<pdfrwt beam="1">  1        2 0.15918819E+00 0.29878305E+04</pdfrwt>
<pdfrwt beam="2">  1       -2 0.33182901E+00 0.29878305E+04</pdfrwt>
<totfact> 0.37311737E-01</totfact>
</mgrwt>
<rwgt>
<wgt id='morphing_basis_vector_1'> +7.9945835e-05 </wgt>
<wgt id='morphing_basis_vector_2'> +5.4120177e-05 </wgt>
<wgt id='morphing_basis_vector_3'> +8.7145622e-05 </wgt>
<wgt id='morphing_basis_vector_4'> +6.1946613e-05 </wgt>
<wgt id='morphing_basis_vector_5'> +9.9038823e-05 </wgt>
</rwgt>
</event>
<event>
 4      1 +7.3133000e-09 2.84983700e+03 7.81860800e-03 7.79126700e-02
        2 -1    0    0  501    0 +0.0000000000e+00 +0.0000000000e+00 +2.4648360460e+03 2.4648360460e+03 0.0000000000e+00 0.0000e+00 1.0000e+00
       -2 -1    0    0    0  501 -0.0000000000e+00 -0.0000000000e+00 -8.2374344435e+02 8.2374344435e+02 0.0000000000e+00 0.0000e+00 -1.0000e+00
      -13  1    1    2    0    0 +8.0228906209e+02 -6.4044382834e+02 -3.1980071761e+02 1.0752248767e+03 0.0000000000e+00 0.0000e+00 -1.0000e+00
       13  1    1    2    0    0 -8.0228906209e+02 +6.4044382834e+02 +1.9608933192e+03 2.2133546136e+03 0.0000000000e+00 0.0000e+00 1.0000e+00
<mgrwt>
<rscale>  0 0.28498369E+04</rscale>
<asrwt>0</asrwt>
<pdfrwt beam="1">  1        2 0.37920554E+00 0.28498369E+04</pdfrwt>
<pdfrwt beam="2">  1       -2 0.12672976E+00 0.28498369E+04</pdfrwt>
<totfact> 0.18006206E+00</totfact>
</mgrwt>
<rwgt>
<wgt id='morphing_basis_vector_1'> +6.6297094e-05 </wgt>
<wgt id='morphing_basis_vector_2'> +4.4851172e-05 </wgt>
<wgt id='morphing_basis_vector_3'> +7.2149735e-05 </wgt>
<wgt id='morphing_basis_vector_4'> +5.1165589e-05 </wgt>
<wgt id='morphing_basis_vector_5'> +8.1824704e-05 </wgt>
</rwgt>
</event>
<event>
 4      1 +7.3133000e-09 3.12837600e+03 7.81860800e-03 7.72062300e-02
        2 -1    0    0  501    0 +0.0000000000e+00 +0.0000000000e+00 +1.8289648573e+03 1.8289648573e+03 0.0000000000e+00 0.0000e+00 -1.0000e+00
       -2 -1    0    0    0  501 -0.0000000000e+00 -0.0000000000e+00 -1.3377427869e+03 1.3377427869e+03 0.0000000000e+00 0.0000e+00 1.0000e+00
      -13  1    1    2    0    0 +7.2384250806e-01 -3.4207658762e+02 -1.2994155902e+03 1.3436881304e+03 0.0000000000e+00 0.0000e+00 1.0000e+00
       13  1    1    2    0    0 -7.2384250806e-01 +3.4207658762e+02 +1.7906376607e+03 1.8230195138e+03 0.0000000000e+00 0.0000e+00 -1.0000e+00
<mgrwt>
<rscale>  0 0.31283763E+04</rscale>
<asrwt>0</asrwt>
<pdfrwt beam="1">  1        2 0.28137921E+00 0.31283763E+04</pdfrwt>
<pdfrwt beam="2">  1       -2 0.20580658E+00 0.31283763E+04</pdfrwt>
<totfact> 0.95359356E-01</totfact>
</mgrwt>
<rwgt>
<wgt id='morphing_basis_vector_1'> +9.5814120e-05 </wgt>
<wgt id='morphing_basis_vector_2'> +6.4664155e-05 </wgt>
<wgt id='morphing_basis_vector_3'> +1.0454427e-04 </wgt>
<wgt id='morphing_basis_vector_4'> +7.4804397e-05 </wgt>
<wgt id='morphing_basis_vector_5'> +1.1923687e-04 </wgt>
</rwgt>
</event>
<event>
 4      1 +7.3133000e-09 3.05149300e+03 7.81860800e-03 7.73934200e-02
        2 -1    0    0  501    0 +0.0000000000e+00 +0.0000000000e+00 +2.5344033553e+03 2.5344033553e+03 0.0000000000e+00 0.0000e+00 1.0000e+00
       -2 -1    0    0    0  501 -0.0000000000e+00 -0.0000000000e+00 -9.1852065670e+02 9.1852065670e+02 0.0000000000e+00 0.0000e+00 -1.0000e+00
      -13  1    1    2    0    0 +8.5651289275e+02 +9.1914466386e+02 +1.7875420637e+03 2.1848908160e+03 0.0000000000e+00 0.0000e+00 1.0000e+00
       13  1    1    2    0    0 -8.5651289275e+02 -9.1914466386e+02 -1.7165936506e+02 1.2680331960e+03 0.0000000000e+00 0.0000e+00 -1.0000e+00
<mgrwt>
<rscale>  0 0.30514926E+04</rscale>
<asrwt>0</asrwt>
<pdfrwt beam="1">  1        2 0.38990821E+00 0.30514926E+04</pdfrwt>
<pdfrwt beam="2">  1       -2 0.14131087E+00 0.30514926E+04</pdfrwt>
<totfact> 0.11969426E+00</totfact>
</mgrwt>
<rwgt>
<wgt id='morphing_basis_vector_1'> +1.0582144e-04 </wgt>
<wgt id='morphing_basis_vector_2'> +1.1453875e-04 </wgt>
<wgt id='morphing_basis_vector_3'> +1.2445812e-04 </wgt>
<wgt id='morphing_basis_vector_4'> +2.8032915e-05 </wgt>
<wgt id='morphing_basis_vector_5'> +1.0459030e-04 </wgt>
</rwgt>
</event>
<event>
 4      1 +7.3133000e-09 2.79320800e+03 7.81860800e-03 7.80663800e-02
        2 -1    0    0  501    0 +0.0000000000e+00 +0.0000000000e+00 +1.8574375945e+03 1.8574375945e+03 0.0000000000e+00 0.0000e+00 1.0000e+00
       -2 -1    0    0    0  501 -0.0000000000e+00 -0.0000000000e+00 -1.0501039299e+03 1.0501039299e+03 0.0000000000e+00 0.0000e+00 -1.0000e+00
      -13  1    1    2    0    0 -1.1947967731e+03 +4.7483061177e+02 +9.7142773824e+02 1.6114202709e+03 0.0000000000e+00 0.0000e+00 1.0000e+00
       13  1    1    2    0    0 +1.1947967731e+03 -4.7483061177e+02 -1.6409407355e+02 1.2961212535e+03 0.0000000000e+00 0.0000e+00 -1.0000e+00
<mgrwt>
<rscale>  0 0.27932078E+04</rscale>
<asrwt>0</asrwt>
<pdfrwt beam="1">  1        2 0.28575963E+00 0.27932078E+04</pdfrwt>
<pdfrwt beam="2">  1       -2 0.16155445E+00 0.27932078E+04</pdfrwt>
<totfact> 0.20426721E+00</totfact>
</mgrwt>
<rwgt>
<wgt id='morphing_basis_vector_1'> +6.9400256e-05 </wgt>
<wgt id='morphing_basis_vector_2'> +6.5475042e-05 </wgt>
<wgt id='morphing_basis_vector_3'> +7.9259488e-05 </wgt>
<wgt id='morphing_basis_vector_4'> +3.0270569e-05 </wgt>
<wgt id='morphing_basis_vector_5'> +7.4068412e-05 </wgt>
</rwgt>
</event>
<event>
 4      1 +7.3133000e-09 2.89008900e+03 7.81860800e-03 7.78056000e-02
        2 -1    0    0  501    0 +0.0000000000e+00 +0.0000000000e+00 +3.1375704377e+03 3.1375704377e+03 0.0000000000e+00 0.0000e+00 1.0000e+00
       -2 -1    0    0    0  501 -0.0000000000e+00 -0.0000000000e+00 -6.6553210247e+02 6.6553210247e+02 0.0000000000e+00 0.0000e+00 -1.0000e+00
      -13  1    1    2    0    0 -5.0776088688e+01 -1.4396790233e+03 +1.0865606114e+03 1.8044023564e+03 0.0000000000e+00 0.0000e+00 -1.0000e+00
       13  1    1    2    0    0 +5.0776088688e+01 +1.4396790233e+03 +1.3854777238e+03 1.9987001838e+03 0.0000000000e+00 0.0000e+00 1.0000e+00
<mgrwt>
<rscale>  0 0.28900892E+04</rscale>
<asrwt>0</asrwt>
<pdfrwt beam="1">  1        2 0.48270314E+00 0.28900892E+04</pdfrwt>
<pdfrwt beam="2">  1       -2 0.10238956E+00 0.28900892E+04</pdfrwt>
<totfact> 0.11654570E+00</totfact>
</mgrwt>
<rwgt>
<wgt id='morphing_basis_vector_1'> +7.1917683e-05 </wgt>
<wgt id='morphing_basis_vector_2'> +5.2831268e-05 </wgt>
<wgt id='morphing_basis_vector_3'> +7.9167894e-05 </wgt>
<wgt id='morphing_basis_vector_4'> +5.0339312e-05 </wgt>
<wgt id='morphing_basis_vector_5'> +8.6281373e-05 </wgt>
</rwgt>
</event>
<event>
 4      1 +7.3133000e-09 2.78573900e+03 7.81860800e-03 7.80869300e-02
        2 -1    0    0  501    0 +0.0000000000e+00 +0.0000000000e+00 +1.4002775358e+03 1.4002775358e+03 0.0000000000e+00 0.0000e+00 1.0000e+00
       -2 -1    0    0    0  501 -0.0000000000e+00 -0.0000000000e+00 -1.3855003237e+03 1.3855003237e+03 0.0000000000e+00 0.0000e+00 -1.0000e+00
      -13  1    1    2    0    0 -1.1191273459e+01 +8.2680415006e+02 -1.1134994277e+03 1.3869431576e+03 0.0000000000e+00 0.0000e+00 -1.0000e+00
       13  1    1    2    0    0 +1.1191273459e+01 -8.2680415006e+02 +1.1282766398e+03 1.3988347018e+03 0.0000000000e+00 0.0000e+00 1.0000e+00
<mgrwt>
<rscale>  0 0.27857387E+04</rscale>
<asrwt>0</asrwt>
<pdfrwt beam="1">  1        2 0.21542731E+00 0.27857387E+04</pdfrwt>
<pdfrwt beam="2">  1       -2 0.21315390E+00 0.27857387E+04</pdfrwt>
<totfact> 0.15078277E+00</totfact>
</mgrwt>
<rwgt>
<wgt id='morphing_basis_vector_1'> +6.0535749e-05 </wgt>
<wgt id='morphing_basis_vector_2'> +4.0813628e-05 </wgt>
<wgt id='morphing_basis_vector_3'> +6.5798581e-05 </wgt>
<wgt id='morphing_basis_vector_4'> +4.6780647e-05 </wgt>
<wgt id='morphing_basis_vector_5'> +7.4648225e-05 </wgt>
</rwgt>
</event>
<event>
 4      1 +7.3133000e-09 2.69958500e+03 7.81860800e-03 7.83288000e-02
        2 -1    0    0  501    0 +0.0000000000e+00 +0.0000000000e+00 +1.9885298284e+03 1.9885298284e+03 0.0000000000e+00 0.0000e+00 -1.0000e+00
       -2 -1    0    0    0  501 -0.0000000000e+00 -0.0000000000e+00 -9.1622471417e+02 9.1622471417e+02 0.0000000000e+00 0.0000e+00 1.0000e+00
      -13  1    1    2    0    0 -7.7618941499e+02 -1.1042920108e+03 +5.3943752261e+02 1.4535899332e+03 0.0000000000e+00 0.0000e+00 1.0000e+00
       13  1    1    2    0    0 +7.7618941499e+02 +1.1042920108e+03 +5.3286759160e+02 1.4511646093e+03 0.0000000000e+00 0.0000e+00 -1.0000e+00
<mgrwt>
<rscale>  0 0.26995853E+04</rscale>
<asrwt>0</asrwt>
<pdfrwt beam="1">  1        2 0.30592766E+00 0.26995853E+04</pdfrwt>
<pdfrwt beam="2">  1       -2 0.14095765E+00 0.26995853E+04</pdfrwt>
<totfact> 0.25704594E+00</totfact>
</mgrwt>
<rwgt>
<wgt id='morphing_basis_vector_1'> +5.5411615e-05 </wgt>
<wgt id='morphing_basis_vector_2'> +4.1767204e-05 </wgt>
<wgt id='morphing_basis_vector_3'> +6.1048204e-05 </wgt>
<wgt id='morphing_basis_vector_4'> +3.7174401e-05 </wgt>
<wgt id='morphing_basis_vector_5'> +6.5416935e-05 </wgt>
</rwgt>
</event>
<event>
 4      1 +7.3133000e-09 2.85657200e+03 7.81860800e-03 7.78946300e-02
        2 -1    0    0  501    0 +0.0000000000e+00 +0.0000000000e+00 +1.5880715319e+03 1.5880715319e+03 0.0000000000e+00 0.0000e+00 1.0000e+00
       -2 -1    0    0    0  501 -0.0000000000e+00 -0.0000000000e+00 -1.2845773608e+03 1.2845773608e+03 0.0000000000e+00 0.0000e+00 -1.0000e+00
      -13  1    1    2    0    0 -2.1739624601e+02 -6.1593357631e+02 -1.1255848334e+03 1.3013748558e+03 0.0000000000e+00 0.0000e+00 -1.0000e+00
       13  1    1    2    0    0 +2.1739624601e+02 +6.1593357631e+02 +1.4290790044e+03 1.5712740369e+03 0.0000000000e+00 0.0000e+00 1.0000e+00
<mgrwt>
<rscale>  0 0.28565719E+04</rscale>
<asrwt>0</asrwt>
<pdfrwt beam="1">  1        2 0.24431870E+00 0.28565719E+04</pdfrwt>
<pdfrwt beam="2">  1       -2 0.19762729E+00 0.28565719E+04</pdfrwt>
<totfact> 0.15239002E+00</totfact>
</mgrwt>
<rwgt>
<wgt id='morphing_basis_vector_1'> +6.6840179e-05 </wgt>
<wgt id='morphing_basis_vector_2'> +4.5040596e-05 </wgt>
<wgt id='morphing_basis_vector_3'> +7.2709976e-05 </wgt>
<wgt id='morphing_basis_vector_4'> +5.1820601e-05 </wgt>
<wgt id='morphing_basis_vector_5'> +8.2622114e-05 </wgt>
</rwgt>
</event>
<event>
 4      1 +7.3133000e-09 2.71432900e+03 7.81860800e-03 7.82867600e-02
        2 -1    0    0  501    0 +0.0000000000e+00 +0.0000000000e+00 +1.8323197649e+03 1.8323197649e+03 0.0000000000e+00 0.0000e+00 -1.0000e+00
       -2 -1    0    0    0  501 -0.0000000000e+00 -0.0000000000e+00 -1.0052263610e+03 1.0052263610e+03 0.0000000000e+00 0.0000e+00 1.0000e+00
      -13  1    1    2    0    0 +3.5877467758e+02 +2.6889094454e+02 -9.2556884534e+02 1.0284450869e+03 0.0000000000e+00 0.0000e+00 1.0000e+00
       13  1    1    2    0    0 -3.5877467758e+02 -2.6889094454e+02 +1.7526622492e+03 1.8091010390e+03 0.0000000000e+00 0.0000e+00 -1.0000e+00
<mgrwt>
<rscale>  0 0.27143295E+04</rscale>
<asrwt>0</asrwt>
<pdfrwt beam="1">  1        2 0.28189535E+00 0.27143295E+04</pdfrwt>
<pdfrwt beam="2">  1       -2 0.15465021E+00 0.27143295E+04</pdfrwt>
<totfact> 0.24145012E+00</totfact>
</mgrwt>
<rwgt>
<wgt id='morphing_basis_vector_1'> +5.4600324e-05 </wgt>
<wgt id='morphing_basis_vector_2'> +3.6732537e-05 </wgt>
<wgt id='morphing_basis_vector_3'> +5.9274469e-05 </wgt>
<wgt id='morphing_basis_vector_4'> +4.2170182e-05 </wgt>
<wgt id='morphing_basis_vector_5'> +6.7213735e-05 </wgt>
</rwgt>
</event>
<event>
 4      1 +7.3133000e-09 3.07487500e+03 7.81860800e-03 7.73358900e-02
        2 -1    0    0  501    0 +0.0000000000e+00 +0.0000000000e+00 +1.0903248120e+03 1.0903248120e+03 0.0000000000e+00 0.0000e+00 -1.0000e+00
       -2 -1    0    0    0  501 -0.0000000000e+00 -0.0000000000e+00 -2.1678996900e+03 2.1678996900e+03 0.0000000000e+00 0.0000e+00 1.0000e+00
      -13  1    1    2    0    0 -1.1306033994e+02 +1.5106034358e+03 -8.1714801472e+02 1.7211729311e+03 0.0000000000e+00 0.0000e+00 1.0000e+00
       13  1    1    2    0    0 +1.1306033994e+02 -1.5106034358e+03 -2.6042686324e+02 1.5370515710e+03 0.0000000000e+00 0.0000e+00 -1.0000e+00
<mgrwt>
<rscale>  0 0.30748755E+04</rscale>
<asrwt>0</asrwt>
<pdfrwt beam="1">  1        2 0.16774228E+00 0.30748755E+04</pdfrwt>
<pdfrwt beam="2">  1       -2 0.33352302E+00 0.30748755E+04</pdfrwt>
<totfact> 0.33394785E-01</totfact>
</mgrwt>
<rwgt>
<wgt id='morphing_basis_vector_1'> +9.1211678e-05 </wgt>
<wgt id='morphing_basis_vector_2'> +6.5470597e-05 </wgt>
<wgt id='morphing_basis_vector_3'> +1.0029855e-04 </wgt>
<wgt id='morphing_basis_vector_4'> +6.6163132e-05 </wgt>
<wgt id='morphing_basis_vector_5'> +1.1092593e-04 </wgt>
</rwgt>
</event>
<event>
 4      1 +7.3133000e-09 3.06246400e+03 7.81860800e-03 7.73663600e-02
        2 -1    0    0  501    0 +0.0000000000e+00 +0.0000000000e+00 +2.6931517307e+03 2.6931517307e+03 0.0000000000e+00 0.0000e+00 1.0000e+00
       -2 -1    0    0    0  501 -0.0000000000e+00 -0.0000000000e+00 -8.7060518606e+02 8.7060518606e+02 0.0000000000e+00 0.0000e+00 -1.0000e+00
      -13  1    1    2    0    0 -1.0088138054e+03 -9.6588418896e+02 +1.6417460861e+03 2.1554507120e+03 0.0000000000e+00 0.0000e+00 1.0000e+00
       13  1    1    2    0    0 +1.0088138054e+03 +9.6588418896e+02 +1.8080045850e+02 1.4083062047e+03 0.0000000000e+00 0.0000e+00 -1.0000e+00
<mgrwt>
<rscale>  0 0.30624643E+04</rscale>
<asrwt>0</asrwt>
<pdfrwt beam="1">  1        2 0.41433103E+00 0.30624643E+04</pdfrwt>
<pdfrwt beam="2">  1       -2 0.13393926E+00 0.30624643E+04</pdfrwt>
<totfact> 0.11098520E+00</totfact>
</mgrwt>
<rwgt>
<wgt id='morphing_basis_vector_1'> +1.0064525e-04 </wgt>
<wgt id='morphing_basis_vector_2'> +9.6475285e-05 </wgt>
<wgt id='morphing_basis_vector_3'> +1.1576516e-04 </wgt>
<wgt id='morphing_basis_vector_4'> +4.2396837e-05 </wgt>
<wgt id='morphing_basis_vector_5'> +1.0726331e-04 </wgt>
</rwgt>
</event>
<event>
 4      1 +7.3133000e-09 2.74695500e+03 7.81860800e-03 7.81946900e-02
        2 -1    0    0  501    0 +0.0000000000e+00 +0.0000000000e+00 +2.1042146748e+03 2.1042146748e+03 0.0000000000e+00 0.0000e+00 1.0000e+00
       -2 -1    0    0    0  501 -0.0000000000e+00 -0.0000000000e+00 -8.9650584319e+02 8.9650584319e+02 0.0000000000e+00 0.0000e+00 -1.0000e+00
      -13  1    1    2    0    0 -1.3178182480e+03 -2.8780980812e+02 +3.2118032382e+02 1.3865915840e+03 0.0000000000e+00 0.0000e+00 -1.0000e+00
       13  1    1    2    0    0 +1.3178182480e+03 +2.8780980812e+02 +8.8652850784e+02 1.6141289340e+03 0.0000000000e+00 0.0000e+00 1.0000e+00
<mgrwt>
<rscale>  0 0.27469552E+04</rscale>
<asrwt>0</asrwt>
<pdfrwt beam="1">  1        2 0.32372533E+00 0.27469552E+04</pdfrwt>
<pdfrwt beam="2">  1       -2 0.13792398E+00 0.27469552E+04</pdfrwt>
<totfact> 0.23388515E+00</totfact>
</mgrwt>
<rwgt>
<wgt id='morphing_basis_vector_1'> +5.8275789e-05 </wgt>
<wgt id='morphing_basis_vector_2'> +4.1566063e-05 </wgt>
<wgt id='morphing_basis_vector_3'> +6.3772133e-05 </wgt>
<wgt id='morphing_basis_vector_4'> +4.2121695e-05 </wgt>
<wgt id='morphing_basis_vector_5'> +7.0365778e-05 </wgt>
</rwgt>
</event>
<event>
 4      1 +7.3133000e-09 2.74203600e+03 7.81860800e-03 7.82084900e-02
        2 -1    0    0  501    0 +0.0000000000e+00 +0.0000000000e+00 +3.9719643618e+03 3.9719643618e+03 0.0000000000e+00 0.0000e+00 1.0000e+00
       -2 -1    0    0    0  501 -0.0000000000e+00 -0.0000000000e+00 -4.7323961005e+02 4.7323961005e+02 0.0000000000e+00 0.0000e+00 -1.0000e+00
      -13  1    1    2    0    0 -1.0472677296e+03 -8.7512221443e+02 +1.5374816876e+03 2.0558352384e+03 0.0000000000e+00 0.0000e+00 -1.0000e+00
       13  1    1    2    0    0 +1.0472677296e+03 +8.7512221443e+02 +1.9612430642e+03 2.3893687335e+03 0.0000000000e+00 0.0000e+00 1.0000e+00
<mgrwt>
<rscale>  0 0.27420364E+04</rscale>
<asrwt>0</asrwt>
<pdfrwt beam="1">  1        2 0.61107142E+00 0.27420364E+04</pdfrwt>
<pdfrwt beam="2">  1       -2 0.72806096E-01 0.27420364E+04</pdfrwt>
<totfact> 0.61903360E-01</totfact>
</mgrwt>
<rwgt>
<wgt id='morphing_basis_vector_1'> +5.8306035e-05 </wgt>
<wgt id='morphing_basis_vector_2'> +4.2573627e-05 </wgt>
<wgt id='morphing_basis_vector_3'> +6.4000819e-05 </wgt>
<wgt id='morphing_basis_vector_4'> +4.0903887e-05 </wgt>
<wgt id='morphing_basis_vector_5'> +6.9783203e-05 </wgt>
</rwgt>
</event>
<event>
 4      1 +7.3133000e-09 2.68123400e+03 7.81860800e-03 7.83815000e-02
        2 -1    0    0  501    0 +0.0000000000e+00 +0.0000000000e+00 +3.6142099870e+03 3.6142099870e+03 0.0000000000e+00 0.0000e+00 1.0000e+00
       -2 -1    0    0    0  501 -0.0000000000e+00 -0.0000000000e+00 -4.9727448684e+02 4.9727448684e+02 0.0000000000e+00 0.0000e+00 -1.0000e+00
      -13  1    1    2    0    0 -1.2636213147e+03 +1.6134607547e+01 +8.7225963498e+02 1.5355246736e+03 0.0000000000e+00 0.0000e+00 -1.0000e+00
       13  1    1    2    0    0 +1.2636213147e+03 -1.6134607547e+01 +2.2446758652e+03 2.5759598002e+03 0.0000000000e+00 0.0000e+00 1.0000e+00
<mgrwt>
<rscale>  0 0.26812344E+04</rscale>
<asrwt>0</asrwt>
<pdfrwt beam="1">  1        2 0.55603229E+00 0.26812344E+04</pdfrwt>
<pdfrwt beam="2">  1       -2 0.76503770E-01 0.26812344E+04</pdfrwt>
<totfact> 0.10744288E+00</totfact>
</mgrwt>
<rwgt>
<wgt id='morphing_basis_vector_1'> +5.2526901e-05 </wgt>
<wgt id='morphing_basis_vector_2'> +3.6492681e-05 </wgt>
<wgt id='morphing_basis_vector_3'> +5.7229223e-05 </wgt>
<wgt id='morphing_basis_vector_4'> +3.9072197e-05 </wgt>
<wgt id='morphing_basis_vector_5'> +6.3874426e-05 </wgt>
</rwgt>
</event>
<event>
 4      1 +7.3133000e-09 2.80577100e+03 7.81860800e-03 7.80319600e-02
        2 -1    0    0  501    0 +0.0000000000e+00 +0.0000000000e+00 +9.9959271018e+02 9.9959271018e+02 0.0000000000e+00 0.0000e+00 -1.0000e+00
       -2 -1    0    0    0  501 -0.0000000000e+00 -0.0000000000e+00 -1.9688891365e+03 1.9688891365e+03 0.0000000000e+00 0.0000e+00 1.0000e+00
      -13  1    1    2    0    0 +1.0179013796e+03 -9.3319447513e+02 -7.4619281829e+02 1.5696429113e+03 0.0000000000e+00 0.0000e+00 1.0000e+00
       13  1    1    2    0    0 -1.0179013796e+03 +9.3319447513e+02 -2.2310360799e+02 1.3988389353e+03 0.0000000000e+00 0.0000e+00 -1.0000e+00
<mgrwt>
<rscale>  0 0.28057706E+04</rscale>
<asrwt>0</asrwt>
<pdfrwt beam="1">  1        2 0.15378349E+00 0.28057706E+04</pdfrwt>
<pdfrwt beam="2">  1       -2 0.30290602E+00 0.28057706E+04</pdfrwt>
<totfact> 0.62098519E-01</totfact>
</mgrwt>
<rwgt>
<wgt id='morphing_basis_vector_1'> +6.3427943e-05 </wgt>
<wgt id='morphing_basis_vector_2'> +4.5386363e-05 </wgt>
<wgt id='morphing_basis_vector_3'> +6.9496672e-05 </wgt>
<wgt id='morphing_basis_vector_4'> +4.5771005e-05 </wgt>
<wgt id='morphing_basis_vector_5'> +7.6646136e-05 </wgt>
</rwgt>
</event>
<event>
 4      1 +7.3133000e-09 2.80614200e+03 7.81860800e-03 7.80309500e-02
        2 -1    0    0  501    0 +0.0000000000e+00 +0.0000000000e+00 +1.2062032986e+03 1.2062032986e+03 0.0000000000e+00 0.0000e+00 1.0000e+00
       -2 -1    0    0    0  501 -0.0000000000e+00 -0.0000000000e+00 -1.6320705353e+03 1.6320705353e+03 0.0000000000e+00 0.0000e+00 -1.0000e+00
      -13  1    1    2    0    0 -4.0303302820e+02 -1.3437702480e+03 -2.3450295151e+02 1.4223732757e+03 0.0000000000e+00 0.0000e+00 1.0000e+00
       13  1    1    2    0    0 +4.0303302820e+02 +1.3437702480e+03 -1.9136428522e+02 1.4159005582e+03 0.0000000000e+00 0.0000e+00 -1.0000e+00
<mgrwt>
<rscale>  0 0.28061425E+04</rscale>
<asrwt>0</asrwt>
<pdfrwt beam="1">  1        2 0.18556974E+00 0.28061425E+04</pdfrwt>
<pdfrwt beam="2">  1       -2 0.25108777E+00 0.28061425E+04</pdfrwt>
<totfact> 0.10531349E+00</totfact>
</mgrwt>
<rwgt>
<wgt id='morphing_basis_vector_1'> +6.4444160e-05 </wgt>
<wgt id='morphing_basis_vector_2'> +4.8306999e-05 </wgt>
<wgt id='morphing_basis_vector_3'> +7.1059507e-05 </wgt>
<wgt id='morphing_basis_vector_4'> +4.3759512e-05 </wgt>
<wgt id='morphing_basis_vector_5'> +7.6520606e-05 </wgt>
</rwgt>
</event>
<event>
 4      1 +7.3133000e-09 2.67426700e+03 7.81860800e-03 7.84016300e-02
        2 -1    0    0  501    0 +0.0000000000e+00 +0.0000000000e+00 +7.3407192468e+02 7.3407192468e+02 0.0000000000e+00 0.0000e+00 1.0000e+00
       -2 -1    0    0    0  501 -0.0000000000e+00 -0.0000000000e+00 -2.4356274320e+03 2.4356274320e+03 0.0000000000e+00 0.0000e+00 -1.0000e+00
      -13  1    1    2    0    0 -1.0435784125e+03 -6.4727378174e+02 -1.4778532137e+03 1.9214758319e+03 0.0000000000e+00 0.0000e+00 -1.0000e+00
       13  1    1    2    0    0 +1.0435784125e+03 +6.4727378174e+02 -2.2370229366e+02 1.2482235248e+03 0.0000000000e+00 0.0000e+00 1.0000e+00
<mgrwt>
<rscale>  0 0.26742668E+04</rscale>
<asrwt>0</asrwt>
<pdfrwt beam="1">  1        2 0.11293414E+00 0.26742668E+04</pdfrwt>
<pdfrwt beam="2">  1       -2 0.37471191E+00 0.26742668E+04</pdfrwt>
<totfact> 0.31961994E-01</totfact>
</mgrwt>
<rwgt>
<wgt id='morphing_basis_vector_1'> +5.1865243e-05 </wgt>
<wgt id='morphing_basis_vector_2'> +3.5751287e-05 </wgt>
<wgt id='morphing_basis_vector_3'> +5.6445820e-05 </wgt>
<wgt id='morphing_basis_vector_4'> +3.8918932e-05 </wgt>
<wgt id='morphing_basis_vector_5'> +6.3226587e-05 </wgt>
</rwgt>
</event>
<event>
 4      1 +7.3133000e-09 2.70166500e+03 7.81860800e-03 7.83228500e-02
        2 -1    0    0  501    0 +0.0000000000e+00 +0.0000000000e+00 +1.2478991760e+03 1.2478991760e+03 0.0000000000e+00 0.0000e+00 -1.0000e+00
       -2 -1    0    0    0  501 -0.0000000000e+00 -0.0000000000e+00 -1.4622563195e+03 1.4622563195e+03 0.0000000000e+00 0.0000e+00 1.0000e+00
      -13  1    1    2    0    0 +5.5452739114e+02 -7.0013059430e+02 -1.1238056467e+03 1.4354868889e+03 0.0000000000e+00 0.0000e+00 1.0000e+00
       13  1    1    2    0    0 -5.5452739114e+02 +7.0013059430e+02 +9.0944850322e+02 1.2746686066e+03 0.0000000000e+00 0.0000e+00 -1.0000e+00
<mgrwt>
<rscale>  0 0.27016650E+04</rscale>
<asrwt>0</asrwt>
<pdfrwt beam="1">  1        2 0.19198449E+00 0.27016650E+04</pdfrwt>
<pdfrwt beam="2">  1       -2 0.22496251E+00 0.27016650E+04</pdfrwt>
<totfact> 0.15293192E+00</totfact>
</mgrwt>
<rwgt>
<wgt id='morphing_basis_vector_1'> +5.3642104e-05 </wgt>
<wgt id='morphing_basis_vector_2'> +3.6180220e-05 </wgt>
<wgt id='morphing_basis_vector_3'> +5.8242548e-05 </wgt>
<wgt id='morphing_basis_vector_4'> +4.1292622e-05 </wgt>
<wgt id='morphing_basis_vector_5'> +6.5947459e-05 </wgt>
</rwgt>
</event>
<event>
 4      1 +7.3133000e-09 2.68436200e+03 7.81860800e-03 7.83724900e-02
        2 -1    0    0  501    0 +0.0000000000e+00 +0.0000000000e+00 +1.0824570688e+03 1.0824570688e+03 0.0000000000e+00 0.0000e+00 -1.0000e+00
       -2 -1    0    0    0  501 -0.0000000000e+00 -0.0000000000e+00 -1.6642224358e+03 1.6642224358e+03 0.0000000000e+00 0.0000e+00 1.0000e+00
      -13  1    1    2    0    0 -1.0935140918e+03 -4.1093477089e+02 -9.6714112015e+02 1.5165758805e+03 0.0000000000e+00 0.0000e+00 1.0000e+00
       13  1    1    2    0    0 +1.0935140918e+03 +4.1093477089e+02 +3.8537575320e+02 1.2301036241e+03 0.0000000000e+00 0.0000e+00 -1.0000e+00
<mgrwt>
<rscale>  0 0.26843616E+04</rscale>
<asrwt>0</asrwt>
<pdfrwt beam="1">  1        2 0.16653186E+00 0.26843616E+04</pdfrwt>
<pdfrwt beam="2">  1       -2 0.25603422E+00 0.26843616E+04</pdfrwt>
<totfact> 0.11645684E+00</totfact>
</mgrwt>
<rwgt>
<wgt id='morphing_basis_vector_1'> +5.2495939e-05 </wgt>
<wgt id='morphing_basis_vector_2'> +3.5855528e-05 </wgt>
<wgt id='morphing_basis_vector_3'> +5.7074269e-05 </wgt>
<wgt id='morphing_basis_vector_4'> +3.9821457e-05 </wgt>
<wgt id='morphing_basis_vector_5'> +6.4222307e-05 </wgt>
</rwgt>
</event>
<event>
 4      1 +7.3133000e-09 2.98209400e+03 7.81860800e-03 7.75673500e-02
        2 -1    0    0  501    0 +0.0000000000e+00 +0.0000000000e+00 +3.1043265502e+03 3.1043265502e+03 0.0000000000e+00 0.0000e+00 1.0000e+00
       -2 -1    0    0    0  501 -0.0000000000e+00 -0.0000000000e+00 -7.1616865758e+02 7.1616865758e+02 0.0000000000e+00 0.0000e+00 -1.0000e+00
      -13  1    1    2    0    0 +3.3802542158e+02 -7.1329259718e+02 -4.2654366843e+02 8.9721068646e+02 0.0000000000e+00 0.0000e+00 -1.0000e+00
       13  1    1    2    0    0 -3.3802542158e+02 +7.1329259718e+02 +2.8147015611e+03 2.9232845214e+03 0.0000000000e+00 0.0000e+00 1.0000e+00
<mgrwt>
<rscale>  0 0.29820941E+04</rscale>
<asrwt>0</asrwt>
<pdfrwt beam="1">  1        2 0.47758869E+00 0.29820941E+04</pdfrwt>
<pdfrwt beam="2">  1       -2 0.11017979E+00 0.29820941E+04</pdfrwt>
<totfact> 0.10149104E+00</totfact>
</mgrwt>
<rwgt>
<wgt id='morphing_basis_vector_1'> +7.9265527e-05 </wgt>
<wgt id='morphing_basis_vector_2'> +5.3490188e-05 </wgt>
<wgt id='morphing_basis_vector_3'> +8.6363431e-05 </wgt>
<wgt id='morphing_basis_vector_4'> +6.1621545e-05 </wgt>
<wgt id='morphing_basis_vector_5'> +9.8286274e-05 </wgt>
</rwgt>
</event>
<event>
 4      1 +7.3133000e-09 2.68613400e+03 7.81860800e-03 7.83673900e-02
        2 -1    0    0  501    0 +0.0000000000e+00 +0.0000000000e+00 +9.2677495586e+02 9.2677495586e+02 0.0000000000e+00 0.0000e+00 -1.0000e+00
       -2 -1    0    0    0  501 -0.0000000000e+00 -0.0000000000e+00 -1.9463508337e+03 1.9463508337e+03 0.0000000000e+00 0.0000e+00 1.0000e+00
      -13  1    1    2    0    0 -1.2785103470e+03 +3.5481434596e+02 -7.3248160507e+02 1.5155894000e+03 0.0000000000e+00 0.0000e+00 1.0000e+00
       13  1    1    2    0    0 +1.2785103470e+03 -3.5481434596e+02 -2.8709427274e+02 1.3575363896e+03 0.0000000000e+00 0.0000e+00 -1.0000e+00
<mgrwt>
<rscale>  0 0.26861342E+04</rscale>
<asrwt>0</asrwt>
<pdfrwt beam="1">  1        2 0.14258076E+00 0.26861342E+04</pdfrwt>
<pdfrwt beam="2">  1       -2 0.29943859E+00 0.26861342E+04</pdfrwt>
<totfact> 0.73606805E-01</totfact>
</mgrwt>
<rwgt>
<wgt id='morphing_basis_vector_1'> +5.3467965e-05 </wgt>
<wgt id='morphing_basis_vector_2'> +3.8411128e-05 </wgt>
<wgt id='morphing_basis_vector_3'> +5.8513353e-05 </wgt>
<wgt id='morphing_basis_vector_4'> +3.8205243e-05 </wgt>
<wgt id='morphing_basis_vector_5'> +6.4253518e-05 </wgt>
</rwgt>
</event>
<event>
 4      1 +7.3133000e-09 2.71645700e+03 7.81860800e-03 7.82807200e-02
        2 -1    0    0  501    0 +0.0000000000e+00 +0.0000000000e+00 +2.2100522148e+03 2.2100522148e+03 0.0000000000e+00 0.0000e+00 -1.0000e+00
       -2 -1    0    0    0  501 -0.0000000000e+00 -0.0000000000e+00 -8.3472435620e+02 8.3472435620e+02 0.0000000000e+00 0.0000e+00 1.0000e+00
      -13  1    1    2    0    0 -8.0352892625e+01 -9.4322779915e+02 -4.0404140620e+02 1.0292641674e+03 0.0000000000e+00 0.0000e+00 1.0000e+00
       13  1    1    2    0    0 +8.0352892625e+01 +9.4322779915e+02 +1.7793692648e+03 2.0155124036e+03 0.0000000000e+00 0.0000e+00 -1.0000e+00
<mgrwt>
<rscale>  0 0.27164568E+04</rscale>
<asrwt>0</asrwt>
<pdfrwt beam="1">  1        2 0.34000803E+00 0.27164568E+04</pdfrwt>
<pdfrwt beam="2">  1       -2 0.12841913E+00 0.27164568E+04</pdfrwt>
<totfact> 0.24762089E+00</totfact>
</mgrwt>
<rwgt>
<wgt id='morphing_basis_vector_1'> +5.4828310e-05 </wgt>
<wgt id='morphing_basis_vector_2'> +3.7019800e-05 </wgt>
<wgt id='morphing_basis_vector_3'> +5.9550797e-05 </wgt>
<wgt id='morphing_basis_vector_4'> +4.2183075e-05 </wgt>
<wgt id='morphing_basis_vector_5'> +6.7417121e-05 </wgt>
</rwgt>
</event>
<event>
 4      1 +7.3133000e-09 2.80535400e+03 7.81860800e-03 7.80331000e-02
        2 -1    0    0  501    0 +0.0000000000e+00 +0.0000000000e+00 +2.4890132193e+03 2.4890132193e+03 0.0000000000e+00 0.0000e+00 -1.0000e+00
       -2 -1    0    0    0  501 -0.0000000000e+00 -0.0000000000e+00 -7.9047498244e+02 7.9047498244e+02 0.0000000000e+00 0.0000e+00 1.0000e+00
      -13  1    1    2    0    0 -5.2302630232e+02 +1.2821592629e+03 +1.1107038630e+03 1.7751484331e+03 0.0000000000e+00 0.0000e+00 1.0000e+00
       13  1    1    2    0    0 +5.2302630232e+02 -1.2821592629e+03 +5.8783437387e+02 1.5043397686e+03 0.0000000000e+00 0.0000e+00 -1.0000e+00
<mgrwt>
<rscale>  0 0.28053539E+04</rscale>
<asrwt>0</asrwt>
<pdfrwt beam="1">  1        2 0.38292511E+00 0.28053539E+04</pdfrwt>
<pdfrwt beam="2">  1       -2 0.12161154E+00 0.28053539E+04</pdfrwt>
<totfact> 0.19486057E+00</totfact>
</mgrwt>
<rwgt>
<wgt id='morphing_basis_vector_1'> +6.6199219e-05 </wgt>
<wgt id='morphing_basis_vector_2'> +5.3636297e-05 </wgt>
<wgt id='morphing_basis_vector_3'> +7.3815481e-05 </wgt>
<wgt id='morphing_basis_vector_4'> +3.9926216e-05 </wgt>
<wgt id='morphing_basis_vector_5'> +7.6124220e-05 </wgt>
</rwgt>
</event>
<event>
 4      1 +7.3133000e-09 2.81592400e+03 7.81860800e-03 7.80042800e-02
        2 -1    0    0  501    0 +0.0000000000e+00 +0.0000000000e+00 +2.0489931377e+03 2.0489931377e+03 0.0000000000e+00 0.0000e+00 -1.0000e+00
       -2 -1    0    0    0  501 -0.0000000000e+00 -0.0000000000e+00 -9.6747875978e+02 9.6747875978e+02 0.0000000000e+00 0.0000e+00 1.0000e+00
      -13  1    1    2    0    0 +1.5180146776e+02 -1.1605029913e+03 -2.9763617874e+02 1.2076415748e+03 0.0000000000e+00 0.0000e+00 1.0000e+00
       13  1    1    2    0    0 -1.5180146776e+02 +1.1605029913e+03 +1.3791505567e+03 1.8088303227e+03 0.0000000000e+00 0.0000e+00 -1.0000e+00
<mgrwt>
<rscale>  0 0.28159242E+04</rscale>
<asrwt>0</asrwt>
<pdfrwt beam="1">  1        2 0.31522971E+00 0.28159242E+04</pdfrwt>
<pdfrwt beam="2">  1       -2 0.14884289E+00 0.28159242E+04</pdfrwt>
<totfact> 0.20197553E+00</totfact>
</mgrwt>
<rwgt>
<wgt id='morphing_basis_vector_1'> +6.3351864e-05 </wgt>
<wgt id='morphing_basis_vector_2'> +4.3127443e-05 </wgt>
<wgt id='morphing_basis_vector_3'> +6.8970912e-05 </wgt>
<wgt id='morphing_basis_vector_4'> +4.8494151e-05 </wgt>
<wgt id='morphing_basis_vector_5'> +7.7940746e-05 </wgt>
</rwgt>
</event>
<event>
 4      1 +7.3133000e-09 2.80607100e+03 7.81860800e-03 7.80311400e-02
        2 -1    0    0  501    0 +0.0000000000e+00 +0.0000000000e+00 +1.1533207731e+03 1.1533207731e+03 0.0000000000e+00 0.0000e+00 1.0000e+00
       -2 -1    0    0    0  501 -0.0000000000e+00 -0.0000000000e+00 -1.7068175025e+03 1.7068175025e+03 0.0000000000e+00 0.0000e+00 -1.0000e+00
      -13  1    1    2    0    0 -1.1003171702e+03 +5.1444750386e+01 -1.1624938962e+03 1.6014794710e+03 0.0000000000e+00 0.0000e+00 -1.0000e+00
       13  1    1    2    0    0 +1.1003171702e+03 -5.1444750386e+01 +6.0899716683e+02 1.2586588047e+03 0.0000000000e+00 0.0000e+00 1.0000e+00
<mgrwt>
<rscale>  0 0.28060706E+04</rscale>
<asrwt>0</asrwt>
<pdfrwt beam="1">  1        2 0.17743397E+00 0.28060706E+04</pdfrwt>
<pdfrwt beam="2">  1       -2 0.26258731E+00 0.28060706E+04</pdfrwt>
<totfact> 0.94260235E-01</totfact>
</mgrwt>
<rwgt>
<wgt id='morphing_basis_vector_1'> +6.2413237e-05 </wgt>
<wgt id='morphing_basis_vector_2'> +4.2336251e-05 </wgt>
<wgt id='morphing_basis_vector_3'> +6.7909403e-05 </wgt>
<wgt id='morphing_basis_vector_4'> +4.7948181e-05 </wgt>
<wgt id='morphing_basis_vector_5'> +7.6855757e-05 </wgt>
</rwgt>
</event>
<event>
 4      1 +7.3133000e-09 3.03479000e+03 7.81860800e-03 7.74348400e-02
        2 -1    0    0  501    0 +0.0000000000e+00 +0.0000000000e+00 +9.0820548143e+02 9.0820548143e+02 0.0000000000e+00 0.0000e+00 1.0000e+00
       -2 -1    0    0    0  501 -0.0000000000e+00 -0.0000000000e+00 -2.5352055941e+03 2.5352055941e+03 0.0000000000e+00 0.0000e+00 -1.0000e+00
      -13  1    1    2    0    0 +1.0435184757e+03 -2.5141763289e+01 -2.0631176893e+03 2.3121456523e+03 0.0000000000e+00 0.0000e+00 -1.0000e+00
       13  1    1    2    0    0 -1.0435184757e+03 +2.5141763289e+01 +4.3611757659e+02 1.1312654233e+03 0.0000000000e+00 0.0000e+00 1.0000e+00
<mgrwt>
<rscale>  0 0.30347900E+04</rscale>
<asrwt>0</asrwt>
<pdfrwt beam="1">  1        2 0.13972392E+00 0.30347900E+04</pdfrwt>
<pdfrwt beam="2">  1       -2 0.39003163E+00 0.30347900E+04</pdfrwt>
<totfact> 0.18754750E-01</totfact>
</mgrwt>
<rwgt>
<wgt id='morphing_basis_vector_1'> +8.5028651e-05 </wgt>
<wgt id='morphing_basis_vector_2'> +5.7545960e-05 </wgt>
<wgt id='morphing_basis_vector_3'> +9.2727479e-05 </wgt>
<wgt id='morphing_basis_vector_4'> +6.6000567e-05 </wgt>
<wgt id='morphing_basis_vector_5'> +1.0547392e-04 </wgt>
</rwgt>
</event>
<event>
 4      1 +7.3133000e-09 2.81699900e+03 7.81860800e-03 7.80013600e-02
        2 -1    0    0  501    0 +0.0000000000e+00 +0.0000000000e+00 +2.8337277243e+03 2.8337277243e+03 0.0000000000e+00 0.0000e+00 -1.0000e+00
       -2 -1    0    0    0  501 -0.0000000000e+00 -0.0000000000e+00 -7.0009208215e+02 7.0009208215e+02 0.0000000000e+00 0.0000e+00 1.0000e+00
      -13  1    1    2    0    0 +5.1081343972e+02 +7.8110240107e+02 +2.3901535269e+03 2.5659082628e+03 0.0000000000e+00 0.0000e+00 -1.0000e+00
       13  1    1    2    0    0 -5.1081343972e+02 -7.8110240107e+02 -2.5651788472e+02 9.6791154365e+02 0.0000000000e+00 0.0000e+00 1.0000e+00
<mgrwt>
<rscale>  0 0.28169986E+04</rscale>
<asrwt>0</asrwt>
<pdfrwt beam="1">  1        2 0.43595811E+00 0.28169986E+04</pdfrwt>
<pdfrwt beam="2">  1       -2 0.10770648E+00 0.28169986E+04</pdfrwt>
<totfact> 0.16310338E+00</totfact>
</mgrwt>
<rwgt>
<wgt id='morphing_basis_vector_1'> +8.2975955e-05 </wgt>
<wgt id='morphing_basis_vector_2'> +1.0074026e-04 </wgt>
<wgt id='morphing_basis_vector_3'> +9.9408844e-05 </wgt>
<wgt id='morphing_basis_vector_4'> +8.1062639e-06 </wgt>
<wgt id='morphing_basis_vector_5'> +7.4749602e-05 </wgt>
</rwgt>
</event>
<event>
 4      1 +7.3133000e-09 2.70513500e+03 7.81860800e-03 7.83129400e-02
        2 -1    0    0  501    0 +0.0000000000e+00 +0.0000000000e+00 +2.0234006715e+03 2.0234006715e+03 0.0000000000e+00 0.0000e+00 -1.0000e+00
       -2 -1    0    0    0  501 -0.0000000000e+00 -0.0000000000e+00 -9.0414065873e+02 9.0414065873e+02 0.0000000000e+00 0.0000e+00 1.0000e+00
      -13  1    1    2    0    0 +5.2166174746e+01 -1.3475153274e+03 +4.4653995754e+02 1.4205339845e+03 0.0000000000e+00 0.0000e+00 1.0000e+00
       13  1    1    2    0    0 -5.2166174746e+01 +1.3475153274e+03 +6.7272005523e+02 1.5070073457e+03 0.0000000000e+00 0.0000e+00 -1.0000e+00
<mgrwt>
<rscale>  0 0.27051350E+04</rscale>
<asrwt>0</asrwt>
<pdfrwt beam="1">  1        2 0.31129241E+00 0.27051350E+04</pdfrwt>
<pdfrwt beam="2">  1       -2 0.13909856E+00 0.27051350E+04</pdfrwt>
<totfact> 0.25475921E+00</totfact>
</mgrwt>
<rwgt>
<wgt id='morphing_basis_vector_1'> +5.5360266e-05 </wgt>
<wgt id='morphing_basis_vector_2'> +4.0625975e-05 </wgt>
<wgt id='morphing_basis_vector_3'> +6.0774502e-05 </wgt>
<wgt id='morphing_basis_vector_4'> +3.8523489e-05 </wgt>
<wgt id='morphing_basis_vector_5'> +6.6047183e-05 </wgt>
</rwgt>
</event>
<event>
 4      1 +7.3133000e-09 2.69993500e+03 7.81860800e-03 7.83278000e-02
        2 -1    0    0  501    0 +0.0000000000e+00 +0.0000000000e+00 +2.8858198175e+03 2.8858198175e+03 0.0000000000e+00 0.0000e+00 -1.0000e+00
       -2 -1    0    0    0  501 -0.0000000000e+00 -0.0000000000e+00 -6.3150574797e+02 6.3150574797e+02 0.0000000000e+00 0.0000e+00 1.0000e+00
      -13  1    1    2    0    0 -8.8638525791e+02 +9.5520389763e+02 +6.6782453145e+02 1.4642687309e+03 0.0000000000e+00 0.0000e+00 1.0000e+00
       13  1    1    2    0    0 +8.8638525791e+02 -9.5520389763e+02 +1.5864895381e+03 2.0530568346e+03 0.0000000000e+00 0.0000e+00 -1.0000e+00
<mgrwt>
<rscale>  0 0.26999347E+04</rscale>
<asrwt>0</asrwt>
<pdfrwt beam="1">  1        2 0.44397227E+00 0.26999347E+04</pdfrwt>
<pdfrwt beam="2">  1       -2 0.97154732E-01 0.26999347E+04</pdfrwt>
<totfact> 0.19631552E+00</totfact>
</mgrwt>
<rwgt>
<wgt id='morphing_basis_vector_1'> +5.4182200e-05 </wgt>
<wgt id='morphing_basis_vector_2'> +3.8080567e-05 </wgt>
<wgt id='morphing_basis_vector_3'> +5.9137363e-05 </wgt>
<wgt id='morphing_basis_vector_4'> +3.9790522e-05 </wgt>
<wgt id='morphing_basis_vector_5'> +6.5663002e-05 </wgt>
</rwgt>
</event>
<event>
 4      1 +7.3133000e-09 2.72228200e+03 7.81860800e-03 7.82642000e-02
        2 -1    0    0  501    0 +0.0000000000e+00 +0.0000000000e+00 +3.7438198573e+03 3.7438198573e+03 0.0000000000e+00 0.0000e+00 1.0000e+00
       -2 -1    0    0    0  501 -0.0000000000e+00 -0.0000000000e+00 -4.9487014372e+02 4.9487014372e+02 0.0000000000e+00 0.0000e+00 -1.0000e+00
      -13  1    1    2    0    0 +1.3330355512e+02 +8.1011299239e+02 -6.5932282787e+01 8.2365038952e+02 0.0000000000e+00 0.0000e+00 -1.0000e+00
       13  1    1    2    0    0 -1.3330355512e+02 -8.1011299239e+02 +3.3148819964e+03 3.4150396115e+03 0.0000000000e+00 0.0000e+00 1.0000e+00
<mgrwt>
<rscale>  0 0.27222819E+04</rscale>
<asrwt>0</asrwt>
<pdfrwt beam="1">  1        2 0.57597227E+00 0.27222819E+04</pdfrwt>
<pdfrwt beam="2">  1       -2 0.76133871E-01 0.27222819E+04</pdfrwt>
<totfact> 0.86041290E-01</totfact>
</mgrwt>
<rwgt>
<wgt id='morphing_basis_vector_1'> +5.5262482e-05 </wgt>
<wgt id='morphing_basis_vector_2'> +3.7241383e-05 </wgt>
<wgt id='morphing_basis_vector_3'> +6.0012724e-05 </wgt>
<wgt id='morphing_basis_vector_4'> +4.2616846e-05 </wgt>
<wgt id='morphing_basis_vector_5'> +6.8009009e-05 </wgt>
</rwgt>
</event>
<event>
 4      1 +7.3133000e-09 2.76249200e+03 7.81860800e-03 7.81513100e-02
        2 -1    0    0  501    0 +0.0000000000e+00 +0.0000000000e+00 +1.3366382685e+03 1.3366382685e+03 0.0000000000e+00 0.0000e+00 1.0000e+00
       -2 -1    0    0    0  501 -0.0000000000e+00 -0.0000000000e+00 -1.4273419911e+03 1.4273419911e+03 0.0000000000e+00 0.0000e+00 -1.0000e+00
      -13  1    1    2    0    0 -4.1100788779e+01 -9.7410876032e+02 -1.0242771778e+03 1.4141148782e+03 0.0000000000e+00 0.0000e+00 -1.0000e+00
       13  1    1    2    0    0 +4.1100788779e+01 +9.7410876032e+02 +9.3357345516e+02 1.3498653814e+03 0.0000000000e+00 0.0000e+00 1.0000e+00
<mgrwt>
<rscale>  0 0.27624916E+04</rscale>
<asrwt>0</asrwt>
<pdfrwt beam="1">  1        2 0.20563666E+00 0.27624916E+04</pdfrwt>
<pdfrwt beam="2">  1       -2 0.21959107E+00 0.27624916E+04</pdfrwt>
<totfact> 0.14770175E+00</totfact>
</mgrwt>
<rwgt>
<wgt id='morphing_basis_vector_1'> +5.8602409e-05 </wgt>
<wgt id='morphing_basis_vector_2'> +3.9595933e-05 </wgt>
<wgt id='morphing_basis_vector_3'> +6.3695345e-05 </wgt>
<wgt id='morphing_basis_vector_4'> +4.5137604e-05 </wgt>
<wgt id='morphing_basis_vector_5'> +7.2155373e-05 </wgt>
</rwgt>
</event>
<event>
 4      1 +7.3133000e-09 3.16815100e+03 7.81860800e-03 7.71115500e-02
        2 -1    0    0  501    0 +0.0000000000e+00 +0.0000000000e+00 +1.5406214860e+03 1.5406214860e+03 0.0000000000e+00 0.0000e+00 -1.0000e+00
       -2 -1    0    0    0  501 -0.0000000000e+00 -0.0000000000e+00 -1.6287549543e+03 1.6287549543e+03 0.0000000000e+00 0.0000e+00 1.0000e+00
      -13  1    1    2    0    0 -9.8086079300e+02 -5.4092951768e+02 -1.1645903364e+03 1.6158475454e+03 0.0000000000e+00 0.0000e+00 1.0000e+00
       13  1    1    2    0    0 +9.8086079300e+02 +5.4092951768e+02 +1.0764568681e+03 1.5535288949e+03 0.0000000000e+00 0.0000e+00 -1.0000e+00
<mgrwt>
<rscale>  0 0.31681508E+04</rscale>
<asrwt>0</asrwt>
<pdfrwt beam="1">  1        2 0.23701869E+00 0.31681508E+04</pdfrwt>
<pdfrwt beam="2">  1       -2 0.25057769E+00 0.31681508E+04</pdfrwt>
<totfact> 0.66509226E-01</totfact>
</mgrwt>
<rwgt>
<wgt id='morphing_basis_vector_1'> +1.0085853e-04 </wgt>
<wgt id='morphing_basis_vector_2'> +6.8357693e-05 </wgt>
<wgt id='morphing_basis_vector_3'> +1.1014880e-04 </wgt>
<wgt id='morphing_basis_vector_4'> +7.8462350e-05 </wgt>
<wgt id='morphing_basis_vector_5'> +1.2544776e-04 </wgt>
</rwgt>
</event>
<event>
 4      1 +7.3133000e-09 2.83794800e+03 7.81860800e-03 7.79446400e-02
        2 -1    0    0  501    0 +0.0000000000e+00 +0.0000000000e+00 +1.7009830136e+03 1.7009830136e+03 0.0000000000e+00 0.0000e+00 1.0000e+00
       -2 -1    0    0    0  501 -0.0000000000e+00 -0.0000000000e+00 -1.1837195354e+03 1.1837195354e+03 0.0000000000e+00 0.0000e+00 -1.0000e+00
      -13  1    1    2    0    0 +3.9220699666e+02 +9.6682784399e+02 +1.2361954537e+03 1.6176407536e+03 0.0000000000e+00 0.0000e+00 1.0000e+00
       13  1    1    2    0    0 -3.9220699666e+02 -9.6682784399e+02 -7.1893197546e+02 1.2670617954e+03 0.0000000000e+00 0.0000e+00 -1.0000e+00
<mgrwt>
<rscale>  0 0.28379477E+04</rscale>
<asrwt>0</asrwt>
<pdfrwt beam="1">  1        2 0.26168969E+00 0.28379477E+04</pdfrwt>
<pdfrwt beam="2">  1       -2 0.18211070E+00 0.28379477E+04</pdfrwt>
<totfact> 0.17230974E+00</totfact>
</mgrwt>
<rwgt>
<wgt id='morphing_basis_vector_1'> +8.3192492e-05 </wgt>
<wgt id='morphing_basis_vector_2'> +9.7102319e-05 </wgt>
<wgt id='morphing_basis_vector_3'> +9.8914370e-05 </wgt>
<wgt id='morphing_basis_vector_4'> +1.3024104e-05 </wgt>
<wgt id='morphing_basis_vector_5'> +7.7401587e-05 </wgt>
</rwgt>
</event>
<event>
 4      1 +7.3133000e-09 2.85168800e+03 7.81860800e-03 7.79077100e-02
        2 -1    0    0  501    0 +0.0000000000e+00 +0.0000000000e+00 +1.7511277840e+03 1.7511277840e+03 0.0000000000e+00 0.0000e+00 -1.0000e+00
       -2 -1    0    0    0  501 -0.0000000000e+00 -0.0000000000e+00 -1.1609840002e+03 1.1609840002e+03 0.0000000000e+00 0.0000e+00 1.0000e+00
      -13  1    1    2    0    0 +9.7097657268e+02 -8.9940452033e+02 +8.3669420095e+02 1.5658164585e+03 0.0000000000e+00 0.0000e+00 1.0000e+00
       13  1    1    2    0    0 -9.7097657268e+02 +8.9940452033e+02 -2.4655041713e+02 1.3462953257e+03 0.0000000000e+00 0.0000e+00 -1.0000e+00
<mgrwt>
<rscale>  0 0.28516882E+04</rscale>
<asrwt>0</asrwt>
<pdfrwt beam="1">  1        2 0.26940428E+00 0.28516882E+04</pdfrwt>
<pdfrwt beam="2">  1       -2 0.17861292E+00 0.28516882E+04</pdfrwt>
<totfact> 0.17156530E+00</totfact>
</mgrwt>
<rwgt>
<wgt id='morphing_basis_vector_1'> +7.4845794e-05 </wgt>
<wgt id='morphing_basis_vector_2'> +6.9653144e-05 </wgt>
<wgt id='morphing_basis_vector_3'> +8.5370920e-05 </wgt>
<wgt id='morphing_basis_vector_4'> +3.3923537e-05 </wgt>
<wgt id='morphing_basis_vector_5'> +8.0616344e-05 </wgt>
</rwgt>
</event>
<event>
 4      1 +7.3133000e-09 2.76766400e+03 7.81860800e-03 7.81369300e-02
        2 -1    0    0  501    0 +0.0000000000e+00 +0.0000000000e+00 +3.1103986201e+03 3.1103986201e+03 0.0000000000e+00 0.0000e+00 -1.0000e+00
       -2 -1    0    0    0  501 -0.0000000000e+00 -0.0000000000e+00 -6.1567384465e+02 6.1567384465e+02 0.0000000000e+00 0.0000e+00 1.0000e+00
      -13  1    1    2    0    0 +3.3677923344e+02 +1.1708412906e+03 +2.1309021815e+03 2.4545944037e+03 0.0000000000e+00 0.0000e+00 -1.0000e+00
       13  1    1    2    0    0 -3.3677923344e+02 -1.1708412906e+03 +3.6382259400e+02 1.2714780610e+03 0.0000000000e+00 0.0000e+00 1.0000e+00
<mgrwt>
<rscale>  0 0.27676641E+04</rscale>
<asrwt>0</asrwt>
<pdfrwt beam="1">  1        2 0.47852286E+00 0.27676641E+04</pdfrwt>
<pdfrwt beam="2">  1       -2 0.94719054E-01 0.27676641E+04</pdfrwt>
<totfact> 0.14802993E+00</totfact>
</mgrwt>
<rwgt>
<wgt id='morphing_basis_vector_1'> +6.9099038e-05 </wgt>
<wgt id='morphing_basis_vector_2'> +6.9546219e-05 </wgt>
<wgt id='morphing_basis_vector_3'> +7.9764641e-05 </wgt>
<wgt id='morphing_basis_vector_4'> +2.4664048e-05 </wgt>
<wgt id='morphing_basis_vector_5'> +7.1001660e-05 </wgt>
</rwgt>
</event>
<event>
 4      1 +7.3133000e-09 2.73792900e+03 7.81860800e-03 7.82200300e-02
        2 -1    0    0  501    0 +0.0000000000e+00 +0.0000000000e+00 +1.6485535640e+03 1.6485535640e+03 0.0000000000e+00 0.0000e+00 -1.0000e+00
       -2 -1    0    0    0  501 -0.0000000000e+00 -0.0000000000e+00 -1.1367930866e+03 1.1367930866e+03 0.0000000000e+00 0.0000e+00 1.0000e+00
      -13  1    1    2    0    0 +3.0793125641e+02 +5.6968744886e+02 +1.4828774097e+03 1.6181133645e+03 0.0000000000e+00 0.0000e+00 -1.0000e+00
       13  1    1    2    0    0 -3.0793125641e+02 -5.6968744886e+02 -9.7111693229e+02 1.1672332861e+03 0.0000000000e+00 0.0000e+00 1.0000e+00
<mgrwt>
<rscale>  0 0.27379294E+04</rscale>
<asrwt>0</asrwt>
<pdfrwt beam="1">  1        2 0.25362363E+00 0.27379294E+04</pdfrwt>
<pdfrwt beam="2">  1       -2 0.17489124E+00 0.27379294E+04</pdfrwt>
<totfact> 0.21096872E+00</totfact>
</mgrwt>
<rwgt>
<wgt id='morphing_basis_vector_1'> +7.6701408e-05 </wgt>
<wgt id='morphing_basis_vector_2'> +9.7560994e-05 </wgt>
<wgt id='morphing_basis_vector_3'> +9.2616100e-05 </wgt>
<wgt id='morphing_basis_vector_4'> +1.9206173e-06 </wgt>
<wgt id='morphing_basis_vector_5'> +6.6198270e-05 </wgt>
</rwgt>
</event>
<event>
 4      1 +7.3133000e-09 3.20288100e+03 7.81860800e-03 7.70300600e-02
        2 -1    0    0  501    0 +0.0000000000e+00 +0.0000000000e+00 +1.6688712868e+03 1.6688712868e+03 0.0000000000e+00 0.0000e+00 -1.0000e+00
       -2 -1    0    0    0  501 -0.0000000000e+00 -0.0000000000e+00 -1.5367347105e+03 1.5367347105e+03 0.0000000000e+00 0.0000e+00 1.0000e+00
      -13  1    1    2    0    0 -6.4111224652e+02 +1.2834636176e+03 -6.4609069025e+02 1.5734474730e+03 0.0000000000e+00 0.0000e+00 1.0000e+00
       13  1    1    2    0    0 +6.4111224652e+02 -1.2834636176e+03 +7.7822726657e+02 1.6321585244e+03 0.0000000000e+00 0.0000e+00 -1.0000e+00
<mgrwt>
<rscale>  0 0.32028815E+04</rscale>
<asrwt>0</asrwt>
<pdfrwt beam="1">  1        2 0.25674943E+00 0.32028815E+04</pdfrwt>
<pdfrwt beam="2">  1       -2 0.23642072E+00 0.32028815E+04</pdfrwt>
<totfact> 0.70554253E-01</totfact>
</mgrwt>
<rwgt>
<wgt id='morphing_basis_vector_1'> +1.0581635e-04 </wgt>
<wgt id='morphing_basis_vector_2'> +7.2863341e-05 </wgt>
<wgt id='morphing_basis_vector_3'> +1.1584247e-04 </wgt>
<wgt id='morphing_basis_vector_4'> +8.0943762e-05 </wgt>
<wgt id='morphing_basis_vector_5'> +1.3099850e-04 </wgt>
</rwgt>
</event>
<event>
 4      1 +7.3133000e-09 2.78764500e+03 7.81860800e-03 7.80816800e-02
        2 -1    0    0  501    0 +0.0000000000e+00 +0.0000000000e+00 +1.1263332248e+03 1.1263332248e+03 0.0000000000e+00 0.0000e+00 -1.0000e+00
       -2 -1    0    0    0  501 -0.0000000000e+00 -0.0000000000e+00 -1.7248374466e+03 1.7248374466e+03 0.0000000000e+00 0.0000e+00 1.0000e+00
      -13  1    1    2    0    0 -3.4249253559e+02 +5.2809086115e+02 -1.5711995365e+03 1.6925865053e+03 0.0000000000e+00 0.0000e+00 1.0000e+00
       13  1    1    2    0    0 +3.4249253559e+02 -5.2809086115e+02 +9.7269531469e+02 1.1585841660e+03 0.0000000000e+00 0.0000e+00 -1.0000e+00
<mgrwt>
<rscale>  0 0.27876454E+04</rscale>
<asrwt>0</asrwt>
<pdfrwt beam="1">  1        2 0.17328203E+00 0.27876454E+04</pdfrwt>
<pdfrwt beam="2">  1       -2 0.26535961E+00 0.27876454E+04</pdfrwt>
<totfact> 0.93752077E-01</totfact>
</mgrwt>
<rwgt>
<wgt id='morphing_basis_vector_1'> +6.0679024e-05 </wgt>
<wgt id='morphing_basis_vector_2'> +4.0863447e-05 </wgt>
<wgt id='morphing_basis_vector_3'> +6.5946374e-05 </wgt>
<wgt id='morphing_basis_vector_4'> +4.6953383e-05 </wgt>
<wgt id='morphing_basis_vector_5'> +7.4858453e-05 </wgt>
</rwgt>
</event>
<event>
 4      1 +7.3133000e-09 2.79246800e+03 7.81860800e-03 7.80684100e-02
        2 -1    0    0  501    0 +0.0000000000e+00 +0.0000000000e+00 +1.4288209269e+03 1.4288209269e+03 0.0000000000e+00 0.0000e+00 1.0000e+00
       -2 -1    0    0    0  501 -0.0000000000e+00 -0.0000000000e+00 -1.3643906091e+03 1.3643906091e+03 0.0000000000e+00 0.0000e+00 -1.0000e+00
      -13  1    1    2    0    0 -1.4844899967e+02 +3.8171805636e+02 -1.3029524674e+03 1.3658077875e+03 0.0000000000e+00 0.0000e+00 -1.0000e+00
       13  1    1    2    0    0 +1.4844899967e+02 -3.8171805636e+02 +1.3673827852e+03 1.4274037485e+03 0.0000000000e+00 0.0000e+00 1.0000e+00
<mgrwt>
<rscale>  0 0.27924683E+04</rscale>
<asrwt>0</asrwt>
<pdfrwt beam="1">  1        2 0.21981861E+00 0.27924683E+04</pdfrwt>
<pdfrwt beam="2">  1       -2 0.20990625E+00 0.27924683E+04</pdfrwt>
<totfact> 0.15323155E+00</totfact>
</mgrwt>
<rwgt>
<wgt id='morphing_basis_vector_1'> +6.1088802e-05 </wgt>
<wgt id='morphing_basis_vector_2'> +4.1125692e-05 </wgt>
<wgt id='morphing_basis_vector_3'> +6.6393012e-05 </wgt>
<wgt id='morphing_basis_vector_4'> +4.7296532e-05 </wgt>
<wgt id='morphing_basis_vector_5'> +7.5384352e-05 </wgt>
</rwgt>
</event>
<event>
 4      1 +7.3133000e-09 2.97809500e+03 7.81860800e-03 7.75775200e-02
        2 -1    0    0  501    0 +0.0000000000e+00 +0.0000000000e+00 +2.6212181388e+03 2.6212181388e+03 0.0000000000e+00 0.0000e+00 1.0000e+00
       -2 -1    0    0    0  501 -0.0000000000e+00 -0.0000000000e+00 -8.4589001128e+02 8.4589001128e+02 0.0000000000e+00 0.0000e+00 -1.0000e+00
      -13  1    1    2    0    0 +1.3820540142e+03 -4.8900090099e+02 +1.1914008293e+03 1.8890820828e+03 0.0000000000e+00 0.0000e+00 -1.0000e+00
       13  1    1    2    0    0 -1.3820540142e+03 +4.8900090099e+02 +5.8392729823e+02 1.5780260673e+03 0.0000000000e+00 0.0000e+00 1.0000e+00
<mgrwt>
<rscale>  0 0.29780949E+04</rscale>
<asrwt>0</asrwt>
<pdfrwt beam="1">  1        2 0.40326432E+00 0.29780949E+04</pdfrwt>
<pdfrwt beam="2">  1       -2 0.13013693E+00 0.29780949E+04</pdfrwt>
<totfact> 0.13370001E+00</totfact>
</mgrwt>
<rwgt>
<wgt id='morphing_basis_vector_1'> +8.4156029e-05 </wgt>
<wgt id='morphing_basis_vector_2'> +6.8847349e-05 </wgt>
<wgt id='morphing_basis_vector_3'> +9.4207132e-05 </wgt>
<wgt id='morphing_basis_vector_4'> +5.0236855e-05 </wgt>
<wgt id='morphing_basis_vector_5'> +9.6847493e-05 </wgt>
</rwgt>
</event>
<event>
 4      1 +7.3133000e-09 3.16859200e+03 7.81860800e-03 7.71105100e-02
        2 -1    0    0  501    0 +0.0000000000e+00 +0.0000000000e+00 +1.7177367942e+03 1.7177367942e+03 0.0000000000e+00 0.0000e+00 -1.0000e+00
       -2 -1    0    0    0  501 -0.0000000000e+00 -0.0000000000e+00 -1.4612210890e+03 1.4612210890e+03 0.0000000000e+00 0.0000e+00 1.0000e+00
      -13  1    1    2    0    0 +4.8070359287e+02 -1.1746135276e+03 -8.2310619692e+02 1.5127117025e+03 0.0000000000e+00 0.0000e+00 1.0000e+00
       13  1    1    2    0    0 -4.8070359287e+02 +1.1746135276e+03 +1.0796219021e+03 1.6662461807e+03 0.0000000000e+00 0.0000e+00 -1.0000e+00
<mgrwt>
<rscale>  0 0.31685916E+04</rscale>
<asrwt>0</asrwt>
<pdfrwt beam="1">  1        2 0.26426720E+00 0.31685916E+04</pdfrwt>
<pdfrwt beam="2">  1       -2 0.22480325E+00 0.31685916E+04</pdfrwt>
<totfact> 0.80198181E-01</totfact>
</mgrwt>
<rwgt>
<wgt id='morphing_basis_vector_1'> +1.0105107e-04 </wgt>
<wgt id='morphing_basis_vector_2'> +6.8798472e-05 </wgt>
<wgt id='morphing_basis_vector_3'> +1.1042554e-04 </wgt>
<wgt id='morphing_basis_vector_4'> +7.8220371e-05 </wgt>
<wgt id='morphing_basis_vector_5'> +1.2549457e-04 </wgt>
</rwgt>
</event>
<event>
 4      1 +7.3133000e-09 2.81125900e+03 7.81860800e-03 7.80169900e-02
        2 -1    0    0  501    0 +0.0000000000e+00 +0.0000000000e+00 +2.4588367283e+03 2.4588367283e+03 0.0000000000e+00 0.0000e+00 -1.0000e+00
       -2 -1    0    0    0  501 -0.0000000000e+00 -0.0000000000e+00 -8.0354821967e+02 8.0354821967e+02 0.0000000000e+00 0.0000e+00 1.0000e+00
      -13  1    1    2    0    0 -2.7192875540e+02 -8.1538299531e+02 -4.6303729189e+02 9.7631870347e+02 0.0000000000e+00 0.0000e+00 1.0000e+00
       13  1    1    2    0    0 +2.7192875540e+02 +8.1538299531e+02 +2.1183258005e+03 2.2860662445e+03 0.0000000000e+00 0.0000e+00 -1.0000e+00
<mgrwt>
<rscale>  0 0.28112587E+04</rscale>
<asrwt>0</asrwt>
<pdfrwt beam="1">  1        2 0.37828257E+00 0.28112587E+04</pdfrwt>
<pdfrwt beam="2">  1       -2 0.12362280E+00 0.28112587E+04</pdfrwt>
<totfact> 0.19443340E+00</totfact>
</mgrwt>
<rwgt>
<wgt id='morphing_basis_vector_1'> +6.2765601e-05 </wgt>
<wgt id='morphing_basis_vector_2'> +4.2337413e-05 </wgt>
<wgt id='morphing_basis_vector_3'> +6.8248547e-05 </wgt>
<wgt id='morphing_basis_vector_4'> +4.8526235e-05 </wgt>
<wgt id='morphing_basis_vector_5'> +7.7449426e-05 </wgt>
</rwgt>
</event>
<event>
 4      1 +7.3133000e-09 2.73967800e+03 7.81860800e-03 7.82151200e-02
        2 -1    0    0  501    0 +0.0000000000e+00 +0.0000000000e+00 +2.1315954516e+03 2.1315954516e+03 0.0000000000e+00 0.0000e+00 -1.0000e+00
       -2 -1    0    0    0  501 -0.0000000000e+00 -0.0000000000e+00 -8.8030731998e+02 8.8030731998e+02 0.0000000000e+00 0.0000e+00 1.0000e+00
      -13  1    1    2    0    0 -9.6844585942e+01 -3.9611147686e+02 -8.1203448989e+02 9.0867111140e+02 0.0000000000e+00 0.0000e+00 1.0000e+00
       13  1    1    2    0    0 +9.6844585942e+01 +3.9611147686e+02 +2.0633226215e+03 2.1032316602e+03 0.0000000000e+00 0.0000e+00 -1.0000e+00
<mgrwt>
<rscale>  0 0.27396781E+04</rscale>
<asrwt>0</asrwt>
<pdfrwt beam="1">  1        2 0.32793776E+00 0.27396781E+04</pdfrwt>
<pdfrwt beam="2">  1       -2 0.13543190E+00 0.27396781E+04</pdfrwt>
<totfact> 0.23739811E+00</totfact>
</mgrwt>
<rwgt>
<wgt id='morphing_basis_vector_1'> +5.6644903e-05 </wgt>
<wgt id='morphing_basis_vector_2'> +3.8115714e-05 </wgt>
<wgt id='morphing_basis_vector_3'> +6.1516953e-05 </wgt>
<wgt id='morphing_basis_vector_4'> +4.3786090e-05 </wgt>
<wgt id='morphing_basis_vector_5'> +6.9787903e-05 </wgt>
</rwgt>
</event>
<event>
 4      1 +7.3133000e-09 2.79612400e+03 7.81860800e-03 7.80583800e-02
        2 -1    0    0  501    0 +0.0000000000e+00 +0.0000000000e+00 +2.9405641763e+03 2.9405641763e+03 0.0000000000e+00 0.0000e+00 1.0000e+00
       -2 -1    0    0    0  501 -0.0000000000e+00 -0.0000000000e+00 -6.6469463060e+02 6.6469463060e+02 0.0000000000e+00 0.0000e+00 -1.0000e+00
      -13  1    1    2    0    0 +4.6548650671e+02 -1.4979841744e+02 -5.5083453724e+02 7.3657039122e+02 0.0000000000e+00 0.0000e+00 -1.0000e+00
       13  1    1    2    0    0 -4.6548650671e+02 +1.4979841744e+02 +2.8267040830e+03 2.8686884157e+03 0.0000000000e+00 0.0000e+00 1.0000e+00
<mgrwt>
<rscale>  0 0.27961239E+04</rscale>
<asrwt>0</asrwt>
<pdfrwt beam="1">  1        2 0.45239448E+00 0.27961239E+04</pdfrwt>
<pdfrwt beam="2">  1       -2 0.10226071E+00 0.27961239E+04</pdfrwt>
<totfact> 0.15873738E+00</totfact>
</mgrwt>
<rwgt>
<wgt id='morphing_basis_vector_1'> +6.1407348e-05 </wgt>
<wgt id='morphing_basis_vector_2'> +4.1344659e-05 </wgt>
<wgt id='morphing_basis_vector_3'> +6.6743243e-05 </wgt>
<wgt id='morphing_basis_vector_4'> +4.7544266e-05 </wgt>
<wgt id='morphing_basis_vector_5'> +7.5783684e-05 </wgt>
</rwgt>
</event>
<event>
 4      1 +7.3133000e-09 3.12698300e+03 7.81860800e-03 7.72095700e-02
        2 -1    0    0  501    0 +0.0000000000e+00 +0.0000000000e+00 +3.4086810524e+03 3.4086810524e+03 0.0000000000e+00 0.0000e+00 -1.0000e+00
       -2 -1    0    0    0  501 -0.0000000000e+00 -0.0000000000e+00 -7.1714132925e+02 7.1714132925e+02 0.0000000000e+00 0.0000e+00 1.0000e+00
      -13  1    1    2    0    0 -5.3958658977e+01 +6.6346479581e+02 -5.2083716186e+02 8.4520318346e+02 0.0000000000e+00 0.0000e+00 1.0000e+00
       13  1    1    2    0    0 +5.3958658977e+01 -6.6346479581e+02 +3.2123768850e+03 3.2806191982e+03 0.0000000000e+00 0.0000e+00 -1.0000e+00
<mgrwt>
<rscale>  0 0.31269832E+04</rscale>
<asrwt>0</asrwt>
<pdfrwt beam="1">  1        2 0.52441246E+00 0.31269832E+04</pdfrwt>
<pdfrwt beam="2">  1       -2 0.11032944E+00 0.31269832E+04</pdfrwt>
<totfact> 0.61638917E-01</totfact>
</mgrwt>
<rwgt>
<wgt id='morphing_basis_vector_1'> +9.5654143e-05 </wgt>
<wgt id='morphing_basis_vector_2'> +6.4576365e-05 </wgt>
<wgt id='morphing_basis_vector_3'> +1.0437268e-04 </wgt>
<wgt id='morphing_basis_vector_4'> +7.4651096e-05 </wgt>
<wgt id='morphing_basis_vector_5'> +1.1902133e-04 </wgt>
</rwgt>
</event>
<event>
 4      1 +7.3133000e-09 2.80741000e+03 7.81860800e-03 7.80274800e-02
        2 -1    0    0  501    0 +0.0000000000e+00 +0.0000000000e+00 +2.0031604096e+03 2.0031604096e+03 0.0000000000e+00 0.0000e+00 1.0000e+00
       -2 -1    0    0    0  501 -0.0000000000e+00 -0.0000000000e+00 -9.8363973164e+02 9.8363973164e+02 0.0000000000e+00 0.0000e+00 -1.0000e+00
      -13  1    1    2    0    0 +8.9913815746e+02 -1.0268816711e+03 +8.5850622256e+02 1.6124417282e+03 0.0000000000e+00 0.0000e+00 1.0000e+00
       13  1    1    2    0    0 -8.9913815746e+02 +1.0268816711e+03 +1.6101445538e+02 1.3743584130e+03 0.0000000000e+00 0.0000e+00 -1.0000e+00
<mgrwt>
<rscale>  0 0.28074103E+04</rscale>
<asrwt>0</asrwt>
<pdfrwt beam="1">  1        2 0.30817852E+00 0.28074103E+04</pdfrwt>
<pdfrwt beam="2">  1       -2 0.15132919E+00 0.28074103E+04</pdfrwt>
<totfact> 0.20459841E+00</totfact>
</mgrwt>
<rwgt>
<wgt id='morphing_basis_vector_1'> +6.7516304e-05 </wgt>
<wgt id='morphing_basis_vector_2'> +5.7107472e-05 </wgt>
<wgt id='morphing_basis_vector_3'> +7.5778719e-05 </wgt>
<wgt id='morphing_basis_vector_4'> +3.7714659e-05 </wgt>
<wgt id='morphing_basis_vector_5'> +7.6159273e-05 </wgt>
</rwgt>
</event>
<event>
 4      1 +7.3133000e-09 3.06795000e+03 7.81860800e-03 7.73528700e-02
        2 -1    0    0  501    0 +0.0000000000e+00 +0.0000000000e+00 +1.1034088204e+03 1.1034088204e+03 0.0000000000e+00 0.0000e+00 -1.0000e+00
       -2 -1    0    0    0  501 -0.0000000000e+00 -0.0000000000e+00 -2.1325545431e+03 2.1325545431e+03 0.0000000000e+00 0.0000e+00 1.0000e+00
      -13  1    1    2    0    0 -4.7131791605e+02 +1.3653516405e+03 -1.0593396442e+03 1.7912359314e+03 0.0000000000e+00 0.0000e+00 1.0000e+00
       13  1    1    2    0    0 +4.7131791605e+02 -1.3653516405e+03 +3.0193921461e+01 1.4447274321e+03 0.0000000000e+00 0.0000e+00 -1.0000e+00
<mgrwt>
<rscale>  0 0.30679501E+04</rscale>
<asrwt>0</asrwt>
<pdfrwt beam="1">  1        2 0.16975521E+00 0.30679501E+04</pdfrwt>
<pdfrwt beam="2">  1       -2 0.32808531E+00 0.30679501E+04</pdfrwt>
<totfact> 0.35652007E-01</totfact>
</mgrwt>
<rwgt>
<wgt id='morphing_basis_vector_1'> +8.9548284e-05 </wgt>
<wgt id='morphing_basis_vector_2'> +6.2377826e-05 </wgt>
<wgt id='morphing_basis_vector_3'> +9.8062001e-05 </wgt>
<wgt id='morphing_basis_vector_4'> +6.7339931e-05 </wgt>
<wgt id='morphing_basis_vector_5'> +1.1006778e-04 </wgt>
</rwgt>
</event>
<event>
 4      1 +7.3133000e-09 2.73817300e+03 7.81860800e-03 7.82193500e-02
        2 -1    0    0  501    0 +0.0000000000e+00 +0.0000000000e+00 +2.0925921114e+03 2.0925921114e+03 0.0000000000e+00 0.0000e+00 1.0000e+00
       -2 -1    0    0    0  501 -0.0000000000e+00 -0.0000000000e+00 -8.9573012795e+02 8.9573012795e+02 0.0000000000e+00 0.0000e+00 -1.0000e+00
      -13  1    1    2    0    0 +7.3988964282e+02 -2.6788977111e+02 +1.8211378660e+03 1.9838711501e+03 0.0000000000e+00 0.0000e+00 1.0000e+00
       13  1    1    2    0    0 -7.3988964282e+02 +2.6788977111e+02 -6.2427588263e+02 1.0044510892e+03 0.0000000000e+00 0.0000e+00 -1.0000e+00
<mgrwt>
<rscale>  0 0.27381730E+04</rscale>
<asrwt>0</asrwt>
<pdfrwt beam="1">  1        2 0.32193725E+00 0.27381730E+04</pdfrwt>
<pdfrwt beam="2">  1       -2 0.13780464E+00 0.27381730E+04</pdfrwt>
<totfact> 0.23820744E+00</totfact>
</mgrwt>
<rwgt>
<wgt id='morphing_basis_vector_1'> +7.5720167e-05 </wgt>
<wgt id='morphing_basis_vector_2'> +9.4623362e-05 </wgt>
<wgt id='morphing_basis_vector_3'> +9.1089165e-05 </wgt>
<wgt id='morphing_basis_vector_4'> +4.0053803e-06 </wgt>
<wgt id='morphing_basis_vector_5'> +6.6392258e-05 </wgt>
</rwgt>
</event>
<event>
 4      1 +7.3133000e-09 2.69157600e+03 7.81860800e-03 7.83517500e-02
        2 -1    0    0  501    0 +0.0000000000e+00 +0.0000000000e+00 +2.1707784333e+03 2.1707784333e+03 0.0000000000e+00 0.0000e+00 1.0000e+00
       -2 -1    0    0    0  501 -0.0000000000e+00 -0.0000000000e+00 -8.3433006262e+02 8.3433006262e+02 0.0000000000e+00 0.0000e+00 -1.0000e+00
      -13  1    1    2    0    0 -8.1800805954e+02 -2.9475886993e+01 +1.8609012597e+03 2.0329681531e+03 0.0000000000e+00 0.0000e+00 1.0000e+00
       13  1    1    2    0    0 +8.1800805954e+02 +2.9475886993e+01 -5.2445288897e+02 9.7214034282e+02 0.0000000000e+00 0.0000e+00 -1.0000e+00
<mgrwt>
<rscale>  0 0.26915763E+04</rscale>
<asrwt>0</asrwt>
<pdfrwt beam="1">  1        2 0.33396591E+00 0.26915763E+04</pdfrwt>
<pdfrwt beam="2">  1       -2 0.12835847E+00 0.26915763E+04</pdfrwt>
<totfact> 0.26166146E+00</totfact>
</mgrwt>
<rwgt>
<wgt id='morphing_basis_vector_1'> +7.0277134e-05 </wgt>
<wgt id='morphing_basis_vector_2'> +8.7012376e-05 </wgt>
<wgt id='morphing_basis_vector_3'> +8.4273457e-05 </wgt>
<wgt id='morphing_basis_vector_4'> +4.7135264e-06 </wgt>
<wgt id='morphing_basis_vector_5'> +6.2024512e-05 </wgt>
</rwgt>
</event>
<event>
 4      1 +7.3133000e-09 2.81873300e+03 7.81860800e-03 7.79966400e-02
        2 -1    0    0  501    0 +0.0000000000e+00 +0.0000000000e+00 +1.4236011688e+03 1.4236011688e+03 0.0000000000e+00 0.0000e+00 1.0000e+00
       -2 -1    0    0    0  501 -0.0000000000e+00 -0.0000000000e+00 -1.3952740292e+03 1.3952740292e+03 0.0000000000e+00 0.0000e+00 -1.0000e+00
      -13  1    1    2    0    0 -1.2826527480e+03 +5.7762388334e+02 -7.2248641231e+01 1.4085692346e+03 0.0000000000e+00 0.0000e+00 -1.0000e+00
       13  1    1    2    0    0 +1.2826527480e+03 -5.7762388334e+02 +1.0057578078e+02 1.4103059633e+03 0.0000000000e+00 0.0000e+00 1.0000e+00
<mgrwt>
<rscale>  0 0.28187329E+04</rscale>
<asrwt>0</asrwt>
<pdfrwt beam="1">  1        2 0.21901556E+00 0.28187329E+04</pdfrwt>
<pdfrwt beam="2">  1       -2 0.21465754E+00 0.28187329E+04</pdfrwt>
<totfact> 0.14230082E+00</totfact>
</mgrwt>
<rwgt>
<wgt id='morphing_basis_vector_1'> +6.5254365e-05 </wgt>
<wgt id='morphing_basis_vector_2'> +4.8167146e-05 </wgt>
<wgt id='morphing_basis_vector_3'> +7.1812477e-05 </wgt>
<wgt id='morphing_basis_vector_4'> +4.5266742e-05 </wgt>
<wgt id='morphing_basis_vector_5'> +7.7975154e-05 </wgt>
</rwgt>
</event>
<event>
 4      1 +7.3133000e-09 3.06922500e+03 7.81860800e-03 7.73497400e-02
        2 -1    0    0  501    0 +0.0000000000e+00 +0.0000000000e+00 +3.4213672258e+03 3.4213672258e+03 0.0000000000e+00 0.0000e+00 -1.0000e+00
       -2 -1    0    0    0  501 -0.0000000000e+00 -0.0000000000e+00 -6.8833184323e+02 6.8833184323e+02 0.0000000000e+00 0.0000e+00 1.0000e+00
      -13  1    1    2    0    0 -1.2950183352e+03 +2.7400612421e+02 +3.2684128456e+02 1.3634430937e+03 0.0000000000e+00 0.0000e+00 1.0000e+00
       13  1    1    2    0    0 +1.2950183352e+03 -2.7400612421e+02 +2.4061940980e+03 2.7462559753e+03 0.0000000000e+00 0.0000e+00 -1.0000e+00
<mgrwt>
<rscale>  0 0.30692253E+04</rscale>
<asrwt>0</asrwt>
<pdfrwt beam="1">  1        2 0.52636418E+00 0.30692253E+04</pdfrwt>
<pdfrwt beam="2">  1       -2 0.10589721E+00 0.30692253E+04</pdfrwt>
<totfact> 0.67187832E-01</totfact>
</mgrwt>
<rwgt>
<wgt id='morphing_basis_vector_1'> +8.9212885e-05 </wgt>
<wgt id='morphing_basis_vector_2'> +6.1058756e-05 </wgt>
<wgt id='morphing_basis_vector_3'> +9.7467039e-05 </wgt>
<wgt id='morphing_basis_vector_4'> +6.8460314e-05 </wgt>
<wgt id='morphing_basis_vector_5'> +1.1033535e-04 </wgt>
</rwgt>
</event>
<event>
 4      1 +7.3133000e-09 2.72589100e+03 7.81860800e-03 7.82539800e-02
        2 -1    0    0  501    0 +0.0000000000e+00 +0.0000000000e+00 +2.1789329303e+03 2.1789329303e+03 0.0000000000e+00 0.0000e+00 -1.0000e+00
       -2 -1    0    0    0  501 -0.0000000000e+00 -0.0000000000e+00 -8.5253697674e+02 8.5253697674e+02 0.0000000000e+00 0.0000e+00 1.0000e+00
      -13  1    1    2    0    0 +1.3575211556e+03 +1.0646053319e+01 +7.9777552186e+02 1.5746183061e+03 0.0000000000e+00 0.0000e+00 1.0000e+00
       13  1    1    2    0    0 -1.3575211556e+03 -1.0646053319e+01 +5.2862043168e+02 1.4568516010e+03 0.0000000000e+00 0.0000e+00 -1.0000e+00
<mgrwt>
<rscale>  0 0.27258913E+04</rscale>
<asrwt>0</asrwt>
<pdfrwt beam="1">  1        2 0.33522045E+00 0.27258913E+04</pdfrwt>
<pdfrwt beam="2">  1       -2 0.13115954E+00 0.27258913E+04</pdfrwt>
<totfact> 0.24367902E+00</totfact>
</mgrwt>
<rwgt>
<wgt id='morphing_basis_vector_1'> +5.8315304e-05 </wgt>
<wgt id='morphing_basis_vector_2'> +4.5581493e-05 </wgt>
<wgt id='morphing_basis_vector_3'> +6.4603204e-05 </wgt>
<wgt id='morphing_basis_vector_4'> +3.7137983e-05 </wgt>
<wgt id='morphing_basis_vector_5'> +6.7908356e-05 </wgt>
</rwgt>
</event>
<event>
 4      1 +7.3133000e-09 2.99844700e+03 7.81860800e-03 7.75259300e-02
        2 -1    0    0  501    0 +0.0000000000e+00 +0.0000000000e+00 +2.1981525756e+03 2.1981525756e+03 0.0000000000e+00 0.0000e+00 1.0000e+00
       -2 -1    0    0    0  501 -0.0000000000e+00 -0.0000000000e+00 -1.0225270849e+03 1.0225270849e+03 0.0000000000e+00 0.0000e+00 -1.0000e+00
      -13  1    1    2    0    0 -1.3204049070e+03 -3.9726638049e+02 -4.4348902524e+01 1.3795856337e+03 0.0000000000e+00 0.0000e+00 1.0000e+00
       13  1    1    2    0    0 +1.3204049070e+03 +3.9726638049e+02 +1.2199743933e+03 1.8410940269e+03 0.0000000000e+00 0.0000e+00 -1.0000e+00
<mgrwt>
<rscale>  0 0.29984466E+04</rscale>
<asrwt>0</asrwt>
<pdfrwt beam="1">  1        2 0.33817732E+00 0.29984466E+04</pdfrwt>
<pdfrwt beam="2">  1       -2 0.15731186E+00 0.29984466E+04</pdfrwt>
<totfact> 0.13941979E+00</totfact>
</mgrwt>
<rwgt>
<wgt id='morphing_basis_vector_1'> +8.1595358e-05 </wgt>
<wgt id='morphing_basis_vector_2'> +5.6415314e-05 </wgt>
<wgt id='morphing_basis_vector_3'> +8.9200279e-05 </wgt>
<wgt id='morphing_basis_vector_4'> +6.1761585e-05 </wgt>
<wgt id='morphing_basis_vector_5'> +1.0037803e-04 </wgt>
</rwgt>
</event>
<event>
 4      1 +7.3133000e-09 2.79094000e+03 7.81860800e-03 7.80726100e-02
        2 -1    0    0  501    0 +0.0000000000e+00 +0.0000000000e+00 +3.2961391228e+03 3.2961391228e+03 0.0000000000e+00 0.0000e+00 1.0000e+00
       -2 -1    0    0    0  501 -0.0000000000e+00 -0.0000000000e+00 -5.9079313149e+02 5.9079313149e+02 0.0000000000e+00 0.0000e+00 -1.0000e+00
      -13  1    1    2    0    0 +5.9866246613e+02 -2.7794598116e+02 +3.0650020797e+03 3.1352652943e+03 0.0000000000e+00 0.0000e+00 1.0000e+00
       13  1    1    2    0    0 -5.9866246613e+02 +2.7794598116e+02 -3.5965608843e+02 7.5166695999e+02 0.0000000000e+00 0.0000e+00 -1.0000e+00
<mgrwt>
<rscale>  0 0.27909399E+04</rscale>
<asrwt>0</asrwt>
<pdfrwt beam="1">  1        2 0.50709832E+00 0.27909399E+04</pdfrwt>
<pdfrwt beam="2">  1       -2 0.90891253E-01 0.27909399E+04</pdfrwt>
<totfact> 0.12169475E+00</totfact>
</mgrwt>
<rwgt>
<wgt id='morphing_basis_vector_1'> +8.2750561e-05 </wgt>
<wgt id='morphing_basis_vector_2'> +1.0526588e-04 </wgt>
<wgt id='morphing_basis_vector_3'> +1.0005855e-04 </wgt>
<wgt id='morphing_basis_vector_4'> +2.0696912e-06 </wgt>
<wgt id='morphing_basis_vector_5'> +7.1527547e-05 </wgt>
</rwgt>
</event>
<event>
 4      1 +7.3133000e-09 2.95274400e+03 7.81860800e-03 7.76423900e-02
        2 -1    0    0  501    0 +0.0000000000e+00 +0.0000000000e+00 +1.8147313883e+03 1.8147313883e+03 0.0000000000e+00 0.0000e+00 -1.0000e+00
       -2 -1    0    0    0  501 -0.0000000000e+00 -0.0000000000e+00 -1.2011000826e+03 1.2011000826e+03 0.0000000000e+00 0.0000e+00 1.0000e+00
      -13  1    1    2    0    0 +2.0333258270e+02 +1.0311164507e+03 -7.5222232937e+02 1.2924332504e+03 0.0000000000e+00 0.0000e+00 1.0000e+00
       13  1    1    2    0    0 -2.0333258270e+02 -1.0311164507e+03 +1.3658536350e+03 1.7233982205e+03 0.0000000000e+00 0.0000e+00 -1.0000e+00
<mgrwt>
<rscale>  0 0.29527438E+04</rscale>
<asrwt>0</asrwt>
<pdfrwt beam="1">  1        2 0.27918945E+00 0.29527438E+04</pdfrwt>
<pdfrwt beam="2">  1       -2 0.18478463E+00 0.29527438E+04</pdfrwt>
<totfact> 0.14080531E+00</totfact>
</mgrwt>
<rwgt>
<wgt id='morphing_basis_vector_1'> +7.6292450e-05 </wgt>
<wgt id='morphing_basis_vector_2'> +5.1640147e-05 </wgt>
<wgt id='morphing_basis_vector_3'> +8.3130745e-05 </wgt>
<wgt id='morphing_basis_vector_4'> +5.9057080e-05 </wgt>
<wgt id='morphing_basis_vector_5'> +9.4427176e-05 </wgt>
</rwgt>
</event>
<event>
 4      1 +7.3133000e-09 2.70299300e+03 7.81860800e-03 7.83190600e-02
        2 -1    0    0  501    0 +0.0000000000e+00 +0.0000000000e+00 +1.2304759157e+03 1.2304759157e+03 0.0000000000e+00 0.0000e+00 -1.0000e+00
       -2 -1    0    0    0  501 -0.0000000000e+00 -0.0000000000e+00 -1.4844200008e+03 1.4844200008e+03 0.0000000000e+00 0.0000e+00 1.0000e+00
      -13  1    1    2    0    0 +1.1493018036e+03 -1.8586889068e+02 -8.1636259422e+02 1.4219317021e+03 0.0000000000e+00 0.0000e+00 1.0000e+00
       13  1    1    2    0    0 -1.1493018036e+03 +1.8586889068e+02 +5.6241850910e+02 1.2929642144e+03 0.0000000000e+00 0.0000e+00 -1.0000e+00
<mgrwt>
<rscale>  0 0.27029932E+04</rscale>
<asrwt>0</asrwt>
<pdfrwt beam="1">  1        2 0.18930399E+00 0.27029932E+04</pdfrwt>
<pdfrwt beam="2">  1       -2 0.22837231E+00 0.27029932E+04</pdfrwt>
<totfact> 0.14806951E+00</totfact>
</mgrwt>
<rwgt>
<wgt id='morphing_basis_vector_1'> +5.3932354e-05 </wgt>
<wgt id='morphing_basis_vector_2'> +3.6799049e-05 </wgt>
<wgt id='morphing_basis_vector_3'> +5.8644161e-05 </wgt>
<wgt id='morphing_basis_vector_4'> +4.0990994e-05 </wgt>
<wgt id='morphing_basis_vector_5'> +6.6047352e-05 </wgt>
</rwgt>
</event>
<event>
 4      1 +7.3133000e-09 2.82893200e+03 7.81860800e-03 7.79689900e-02
        2 -1    0    0  501    0 +0.0000000000e+00 +0.0000000000e+00 +1.9781348046e+03 1.9781348046e+03 0.0000000000e+00 0.0000e+00 1.0000e+00
       -2 -1    0    0    0  501 -0.0000000000e+00 -0.0000000000e+00 -1.0114147413e+03 1.0114147413e+03 0.0000000000e+00 0.0000e+00 -1.0000e+00
      -13  1    1    2    0    0 +9.8614838886e+00 +1.1119526423e+03 -4.4044572301e+02 1.1960469733e+03 0.0000000000e+00 0.0000e+00 -1.0000e+00
       13  1    1    2    0    0 -9.8614838886e+00 -1.1119526423e+03 +1.4071657863e+03 1.7935025725e+03 0.0000000000e+00 0.0000e+00 1.0000e+00
<mgrwt>
<rscale>  0 0.28289324E+04</rscale>
<asrwt>0</asrwt>
<pdfrwt beam="1">  1        2 0.30432843E+00 0.28289324E+04</pdfrwt>
<pdfrwt beam="2">  1       -2 0.15560227E+00 0.28289324E+04</pdfrwt>
<totfact> 0.19463154E+00</totfact>
</mgrwt>
<rwgt>
<wgt id='morphing_basis_vector_1'> +6.4451979e-05 </wgt>
<wgt id='morphing_basis_vector_2'> +4.3730616e-05 </wgt>
<wgt id='morphing_basis_vector_3'> +7.0150090e-05 </wgt>
<wgt id='morphing_basis_vector_4'> +4.9543078e-05 </wgt>
<wgt id='morphing_basis_vector_5'> +7.9416883e-05 </wgt>
</rwgt>
</event>
<event>
 4      1 +7.3133000e-09 2.89599100e+03 7.81860800e-03 7.77900400e-02
        2 -1    0    0  501    0 +0.0000000000e+00 +0.0000000000e+00 +1.7495414741e+03 1.7495414741e+03 0.0000000000e+00 0.0000e+00 1.0000e+00
       -2 -1    0    0    0  501 -0.0000000000e+00 -0.0000000000e+00 -1.1984231519e+03 1.1984231519e+03 0.0000000000e+00 0.0000e+00 -1.0000e+00
      -13  1    1    2    0    0 +3.1008706423e+02 +1.3634431589e+03 +6.5855581929e+02 1.5455830622e+03 0.0000000000e+00 0.0000e+00 -1.0000e+00
       13  1    1    2    0    0 -3.1008706423e+02 -1.3634431589e+03 -1.0743749711e+02 1.4023815639e+03 0.0000000000e+00 0.0000e+00 1.0000e+00
<mgrwt>
<rscale>  0 0.28959910E+04</rscale>
<asrwt>0</asrwt>
<pdfrwt beam="1">  1        2 0.26916023E+00 0.28959910E+04</pdfrwt>
<pdfrwt beam="2">  1       -2 0.18437279E+00 0.28959910E+04</pdfrwt>
<totfact> 0.15492058E+00</totfact>
</mgrwt>
<rwgt>
<wgt id='morphing_basis_vector_1'> +7.6876726e-05 </wgt>
<wgt id='morphing_basis_vector_2'> +6.6152751e-05 </wgt>
<wgt id='morphing_basis_vector_3'> +8.6636758e-05 </wgt>
<wgt id='morphing_basis_vector_4'> +4.1669418e-05 </wgt>
<wgt id='morphing_basis_vector_5'> +8.6250010e-05 </wgt>
</rwgt>
</event>
<event>
 4      1 +7.3133000e-09 3.09841000e+03 7.81860800e-03 7.72785200e-02
        2 -1    0    0  501    0 +0.0000000000e+00 +0.0000000000e+00 +1.7265721807e+03 1.7265721807e+03 0.0000000000e+00 0.0000e+00 -1.0000e+00
       -2 -1    0    0    0  501 -0.0000000000e+00 -0.0000000000e+00 -1.3900579838e+03 1.3900579838e+03 0.0000000000e+00 0.0000e+00 1.0000e+00
      -13  1    1    2    0    0 -4.0243184644e+02 -1.3738507405e+03 -4.2735522080e+02 1.4940045960e+03 0.0000000000e+00 0.0000e+00 1.0000e+00
       13  1    1    2    0    0 +4.0243184644e+02 +1.3738507405e+03 +7.6386941773e+02 1.6226255685e+03 0.0000000000e+00 0.0000e+00 -1.0000e+00
<mgrwt>
<rscale>  0 0.30984096E+04</rscale>
<asrwt>0</asrwt>
<pdfrwt beam="1">  1        2 0.26562649E+00 0.30984096E+04</pdfrwt>
<pdfrwt beam="2">  1       -2 0.21385508E+00 0.30984096E+04</pdfrwt>
<totfact> 0.95395727E-01</totfact>
</mgrwt>
<rwgt>
<wgt id='morphing_basis_vector_1'> +9.2959747e-05 </wgt>
<wgt id='morphing_basis_vector_2'> +6.4392521e-05 </wgt>
<wgt id='morphing_basis_vector_3'> +1.0175183e-04 </wgt>
<wgt id='morphing_basis_vector_4'> +7.0424206e-05 </wgt>
<wgt id='morphing_basis_vector_5'> +1.1457089e-04 </wgt>
</rwgt>
</event>
<event>
 4      1 +7.3133000e-09 2.85838000e+03 7.81860800e-03 7.78897900e-02
        2 -1    0    0  501    0 +0.0000000000e+00 +0.0000000000e+00 +2.2522963368e+03 2.2522963368e+03 0.0000000000e+00 0.0000e+00 -1.0000e+00
       -2 -1    0    0    0  501 -0.0000000000e+00 -0.0000000000e+00 -9.0688981492e+02 9.0688981492e+02 0.0000000000e+00 0.0000e+00 1.0000e+00
      -13  1    1    2    0    0 -5.9134778933e+02 -1.2887169189e+03 +4.7468047216e+02 1.4952608654e+03 0.0000000000e+00 0.0000e+00 1.0000e+00
       13  1    1    2    0    0 +5.9134778933e+02 +1.2887169189e+03 +8.7072604974e+02 1.6639252864e+03 0.0000000000e+00 0.0000e+00 -1.0000e+00
<mgrwt>
<rscale>  0 0.28583804E+04</rscale>
<asrwt>0</asrwt>
<pdfrwt beam="1">  1        2 0.34650713E+00 0.28583804E+04</pdfrwt>
<pdfrwt beam="2">  1       -2 0.13952151E+00 0.28583804E+04</pdfrwt>
<totfact> 0.18467345E+00</totfact>
</mgrwt>
<rwgt>
<wgt id='morphing_basis_vector_1'> +6.8544977e-05 </wgt>
<wgt id='morphing_basis_vector_2'> +4.9683174e-05 </wgt>
<wgt id='morphing_basis_vector_3'> +7.5286070e-05 </wgt>
<wgt id='morphing_basis_vector_4'> +4.8764652e-05 </wgt>
<wgt id='morphing_basis_vector_5'> +8.2572382e-05 </wgt>
</rwgt>
</event>
<event>
 4      1 +7.3133000e-09 2.80598100e+03 7.81860800e-03 7.80313900e-02
        2 -1    0    0  501    0 +0.0000000000e+00 +0.0000000000e+00 +2.3945895356e+03 2.3945895356e+03 0.0000000000e+00 0.0000e+00 1.0000e+00
       -2 -1    0    0    0  501 -0.0000000000e+00 -0.0000000000e+00 -8.2201223721e+02 8.2201223721e+02 0.0000000000e+00 0.0000e+00 -1.0000e+00
      -13  1    1    2    0    0 +1.7237938111e+02 +6.1115004170e+02 -6.4785412469e+02 9.0715709300e+02 0.0000000000e+00 0.0000e+00 -1.0000e+00
       13  1    1    2    0    0 -1.7237938111e+02 -6.1115004170e+02 +2.2204314231e+03 2.3094446798e+03 0.0000000000e+00 0.0000e+00 1.0000e+00
<mgrwt>
<rscale>  0 0.28059807E+04</rscale>
<asrwt>0</asrwt>
<pdfrwt beam="1">  1        2 0.36839839E+00 0.28059807E+04</pdfrwt>
<pdfrwt beam="2">  1       -2 0.12646342E+00 0.28059807E+04</pdfrwt>
<totfact> 0.19996240E+00</totfact>
</mgrwt>
<rwgt>
<wgt id='morphing_basis_vector_1'> +6.2274317e-05 </wgt>
<wgt id='morphing_basis_vector_2'> +4.1944790e-05 </wgt>
<wgt id='morphing_basis_vector_3'> +6.7697327e-05 </wgt>
<wgt id='morphing_basis_vector_4'> +4.8213320e-05 </wgt>
<wgt id='morphing_basis_vector_5'> +7.6868005e-05 </wgt>
</rwgt>
</event>
<event>
 4      1 +7.3133000e-09 2.72899200e+03 7.81860800e-03 7.82452200e-02
        2 -1    0    0  501    0 +0.0000000000e+00 +0.0000000000e+00 +1.8920507945e+03 1.8920507945e+03 0.0000000000e+00 0.0000e+00 -1.0000e+00
       -2 -1    0    0    0  501 -0.0000000000e+00 -0.0000000000e+00 -9.8403788921e+02 9.8403788921e+02 0.0000000000e+00 0.0000e+00 1.0000e+00
      -13  1    1    2    0    0 +1.1510932575e+03 +3.0029966670e+01 -3.1752722980e+02 1.1944626524e+03 0.0000000000e+00 0.0000e+00 1.0000e+00
       13  1    1    2    0    0 -1.1510932575e+03 -3.0029966670e+01 +1.2255401351e+03 1.6816260313e+03 0.0000000000e+00 0.0000e+00 -1.0000e+00
<mgrwt>
<rscale>  0 0.27289922E+04</rscale>
<asrwt>0</asrwt>
<pdfrwt beam="1">  1        2 0.29108474E+00 0.27289922E+04</pdfrwt>
<pdfrwt beam="2">  1       -2 0.15139044E+00 0.27289922E+04</pdfrwt>
<totfact> 0.23749033E+00</totfact>
</mgrwt>
<rwgt>
<wgt id='morphing_basis_vector_1'> +5.5979266e-05 </wgt>
<wgt id='morphing_basis_vector_2'> +3.8126848e-05 </wgt>
<wgt id='morphing_basis_vector_3'> +6.0878235e-05 </wgt>
<wgt id='morphing_basis_vector_4'> +4.2679517e-05 </wgt>
<wgt id='morphing_basis_vector_5'> +6.8659649e-05 </wgt>
</rwgt>
</event>
<event>
 4      1 +7.3133000e-09 3.11329700e+03 7.81860800e-03 7.72425000e-02
        2 -1    0    0  501    0 +0.0000000000e+00 +0.0000000000e+00 +1.0913730269e+03 1.0913730269e+03 0.0000000000e+00 0.0000e+00 1.0000e+00
       -2 -1    0    0    0  501 -0.0000000000e+00 -0.0000000000e+00 -2.2202806193e+03 2.2202806193e+03 0.0000000000e+00 0.0000e+00 -1.0000e+00
      -13  1    1    2    0    0 +1.0869739038e+03 -3.8960962497e+02 -1.6749243041e+03 2.0343744375e+03 0.0000000000e+00 0.0000e+00 -1.0000e+00
       13  1    1    2    0    0 -1.0869739038e+03 +3.8960962497e+02 +5.4601671177e+02 1.2772792087e+03 0.0000000000e+00 0.0000e+00 1.0000e+00
<mgrwt>
<rscale>  0 0.31132969E+04</rscale>
<asrwt>0</asrwt>
<pdfrwt beam="1">  1        2 0.16790354E+00 0.31132969E+04</pdfrwt>
<pdfrwt beam="2">  1       -2 0.34158163E+00 0.31132969E+04</pdfrwt>
<totfact> 0.29412221E-01</totfact>
</mgrwt>
<rwgt>
<wgt id='morphing_basis_vector_1'> +9.4143060e-05 </wgt>
<wgt id='morphing_basis_vector_2'> +6.3865499e-05 </wgt>
<wgt id='morphing_basis_vector_3'> +1.0277651e-04 </wgt>
<wgt id='morphing_basis_vector_4'> +7.3052778e-05 </wgt>
<wgt id='morphing_basis_vector_5'> +1.1691056e-04 </wgt>
</rwgt>
</event>
<event>
 4      1 +7.3133000e-09 3.06695100e+03 7.81860800e-03 7.73553200e-02
        2 -1    0    0  501    0 +0.0000000000e+00 +0.0000000000e+00 +1.4354713695e+03 1.4354713695e+03 0.0000000000e+00 0.0000e+00 -1.0000e+00
       -2 -1    0    0    0  501 -0.0000000000e+00 -0.0000000000e+00 -1.6381704894e+03 1.6381704894e+03 0.0000000000e+00 0.0000e+00 1.0000e+00
      -13  1    1    2    0    0 -1.1819467634e+03 -4.9214095905e+02 -9.4719679286e+02 1.5926024738e+03 0.0000000000e+00 0.0000e+00 1.0000e+00
       13  1    1    2    0    0 +1.1819467634e+03 +4.9214095905e+02 +7.4449767302e+02 1.4810393851e+03 0.0000000000e+00 0.0000e+00 -1.0000e+00
<mgrwt>
<rscale>  0 0.30669508E+04</rscale>
<asrwt>0</asrwt>
<pdfrwt beam="1">  1        2 0.22084175E+00 0.30669508E+04</pdfrwt>
<pdfrwt beam="2">  1       -2 0.25202623E+00 0.30669508E+04</pdfrwt>
<totfact> 0.75068973E-01</totfact>
</mgrwt>
<rwgt>
<wgt id='morphing_basis_vector_1'> +8.8867850e-05 </wgt>
<wgt id='morphing_basis_vector_2'> +6.0633721e-05 </wgt>
<wgt id='morphing_basis_vector_3'> +9.7048093e-05 </wgt>
<wgt id='morphing_basis_vector_4'> +6.8429371e-05 </wgt>
<wgt id='morphing_basis_vector_5'> +1.1002016e-04 </wgt>
</rwgt>
</event>
<event>
 4      1 +7.3133000e-09 2.96358700e+03 7.81860800e-03 7.76145600e-02
        2 -1    0    0  501    0 +0.0000000000e+00 +0.0000000000e+00 +1.8346115711e+03 1.8346115711e+03 0.0000000000e+00 0.0000e+00 -1.0000e+00
       -2 -1    0    0    0  501 -0.0000000000e+00 -0.0000000000e+00 -1.1968263330e+03 1.1968263330e+03 0.0000000000e+00 0.0000e+00 1.0000e+00
      -13  1    1    2    0    0 +8.2246528130e+02 -1.9005498922e+02 -9.2683280419e+02 1.2536303621e+03 0.0000000000e+00 0.0000e+00 1.0000e+00
       13  1    1    2    0    0 -8.2246528130e+02 +1.9005498922e+02 +1.5646180423e+03 1.7778075420e+03 0.0000000000e+00 0.0000e+00 -1.0000e+00
<mgrwt>
<rscale>  0 0.29635866E+04</rscale>
<asrwt>0</asrwt>
<pdfrwt beam="1">  1        2 0.28224793E+00 0.29635866E+04</pdfrwt>
<pdfrwt beam="2">  1       -2 0.18412713E+00 0.29635866E+04</pdfrwt>
<totfact> 0.13869921E+00</totfact>
</mgrwt>
<rwgt>
<wgt id='morphing_basis_vector_1'> +7.7342717e-05 </wgt>
<wgt id='morphing_basis_vector_2'> +5.2205690e-05 </wgt>
<wgt id='morphing_basis_vector_3'> +8.4254674e-05 </wgt>
<wgt id='morphing_basis_vector_4'> +6.0074305e-05 </wgt>
<wgt id='morphing_basis_vector_5'> +9.5845891e-05 </wgt>
</rwgt>
</event>
<event>
 4      1 +7.3133000e-09 2.99721500e+03 7.81860800e-03 7.75290400e-02
        2 -1    0    0  501    0 +0.0000000000e+00 +0.0000000000e+00 +1.3323899542e+03 1.3323899542e+03 0.0000000000e+00 0.0000e+00 -1.0000e+00
       -2 -1    0    0    0  501 -0.0000000000e+00 -0.0000000000e+00 -1.6855607986e+03 1.6855607986e+03 0.0000000000e+00 0.0000e+00 1.0000e+00
      -13  1    1    2    0    0 +6.9105162627e+02 +8.9203612092e+02 -1.1695843539e+03 1.6251794831e+03 0.0000000000e+00 0.0000e+00 1.0000e+00
       13  1    1    2    0    0 -6.9105162627e+02 -8.9203612092e+02 +8.1641350957e+02 1.3927712697e+03 0.0000000000e+00 0.0000e+00 -1.0000e+00
<mgrwt>
<rscale>  0 0.29972149E+04</rscale>
<asrwt>0</asrwt>
<pdfrwt beam="1">  1        2 0.20498307E+00 0.29972149E+04</pdfrwt>
<pdfrwt beam="2">  1       -2 0.25931705E+00 0.29972149E+04</pdfrwt>
<totfact> 0.76925476E-01</totfact>
</mgrwt>
<rwgt>
<wgt id='morphing_basis_vector_1'> +8.0987866e-05 </wgt>
<wgt id='morphing_basis_vector_2'> +5.4924921e-05 </wgt>
<wgt id='morphing_basis_vector_3'> +8.8310915e-05 </wgt>
<wgt id='morphing_basis_vector_4'> +6.2647616e-05 </wgt>
<wgt id='morphing_basis_vector_5'> +1.0029296e-04 </wgt>
</rwgt>
</event>
<event>
 4      1 +7.3133000e-09 2.92291400e+03 7.81860800e-03 7.77195800e-02
        2 -1    0    0  501    0 +0.0000000000e+00 +0.0000000000e+00 +2.1594948463e+03 2.1594948463e+03 0.0000000000e+00 0.0000e+00 1.0000e+00
       -2 -1    0    0    0  501 -0.0000000000e+00 -0.0000000000e+00 -9.8905366231e+02 9.8905366231e+02 0.0000000000e+00 0.0000e+00 -1.0000e+00
      -13  1    1    2    0    0 -7.4053486188e+02 +6.8362211600e+02 -5.5483929355e+02 1.1504684788e+03 0.0000000000e+00 0.0000e+00 -1.0000e+00
       13  1    1    2    0    0 +7.4053486188e+02 -6.8362211600e+02 +1.7252804776e+03 1.9980800298e+03 0.0000000000e+00 0.0000e+00 1.0000e+00
<mgrwt>
<rscale>  0 0.29229138E+04</rscale>
<asrwt>0</asrwt>
<pdfrwt beam="1">  1        2 0.33222998E+00 0.29229138E+04</pdfrwt>
<pdfrwt beam="2">  1       -2 0.15216210E+00 0.29229138E+04</pdfrwt>
<totfact> 0.16262848E+00</totfact>
</mgrwt>
<rwgt>
<wgt id='morphing_basis_vector_1'> +7.3269249e-05 </wgt>
<wgt id='morphing_basis_vector_2'> +4.9548966e-05 </wgt>
<wgt id='morphing_basis_vector_3'> +7.9801056e-05 </wgt>
<wgt id='morphing_basis_vector_4'> +5.6716537e-05 </wgt>
<wgt id='morphing_basis_vector_5'> +9.0637321e-05 </wgt>
</rwgt>
</event>
<event>
 4      1 +7.3133000e-09 2.97364300e+03 7.81860800e-03 7.75888600e-02
        2 -1    0    0  501    0 +0.0000000000e+00 +0.0000000000e+00 +2.7460124837e+03 2.7460124837e+03 0.0000000000e+00 0.0000e+00 -1.0000e+00
       -2 -1    0    0    0  501 -0.0000000000e+00 -0.0000000000e+00 -8.0503582023e+02 8.0503582023e+02 0.0000000000e+00 0.0000e+00 1.0000e+00
      -13  1    1    2    0    0 -1.2946111255e+03 +3.6460144417e+02 +2.1363591542e+02 1.3618342351e+03 0.0000000000e+00 0.0000e+00 1.0000e+00
       13  1    1    2    0    0 +1.2946111255e+03 -3.6460144417e+02 +1.7273407481e+03 2.1892140689e+03 0.0000000000e+00 0.0000e+00 -1.0000e+00
<mgrwt>
<rscale>  0 0.29736432E+04</rscale>
<asrwt>0</asrwt>
<pdfrwt beam="1">  1        2 0.42246345E+00 0.29736432E+04</pdfrwt>
<pdfrwt beam="2">  1       -2 0.12385167E+00 0.29736432E+04</pdfrwt>
<totfact> 0.12775658E+00</totfact>
</mgrwt>
<rwgt>
<wgt id='morphing_basis_vector_1'> +7.8865332e-05 </wgt>
<wgt id='morphing_basis_vector_2'> +5.4321039e-05 </wgt>
<wgt id='morphing_basis_vector_3'> +8.6149669e-05 </wgt>
<wgt id='morphing_basis_vector_4'> +5.9908025e-05 </wgt>
<wgt id='morphing_basis_vector_5'> +9.7083827e-05 </wgt>
</rwgt>
</event>
<event>
 4      1 +7.3133000e-09 2.88320500e+03 7.81860800e-03 7.78237800e-02
        2 -1    0    0  501    0 +0.0000000000e+00 +0.0000000000e+00 +3.7502193980e+03 3.7502193980e+03 0.0000000000e+00 0.0000e+00 1.0000e+00
       -2 -1    0    0    0  501 -0.0000000000e+00 -0.0000000000e+00 -5.5415885430e+02 5.5415885430e+02 0.0000000000e+00 0.0000e+00 -1.0000e+00
      -13  1    1    2    0    0 -2.3643636764e+02 +1.1221945230e+03 +2.9397594813e+02 1.1839107067e+03 0.0000000000e+00 0.0000e+00 -1.0000e+00
       13  1    1    2    0    0 +2.3643636764e+02 -1.1221945230e+03 +2.9020845956e+03 3.1204675457e+03 0.0000000000e+00 0.0000e+00 1.0000e+00
<mgrwt>
<rscale>  0 0.28832047E+04</rscale>
<asrwt>0</asrwt>
<pdfrwt beam="1">  1        2 0.57695682E+00 0.28832047E+04</pdfrwt>
<pdfrwt beam="2">  1       -2 0.85255211E-01 0.28832047E+04</pdfrwt>
<totfact> 0.64834243E-01</totfact>
</mgrwt>
<rwgt>
<wgt id='morphing_basis_vector_1'> +6.9501762e-05 </wgt>
<wgt id='morphing_basis_vector_2'> +4.7206409e-05 </wgt>
<wgt id='morphing_basis_vector_3'> +7.5705895e-05 </wgt>
<wgt id='morphing_basis_vector_4'> +5.3468447e-05 </wgt>
<wgt id='morphing_basis_vector_5'> +8.5750464e-05 </wgt>
</rwgt>
</event>
<event>
 4      1 +7.3133000e-09 3.13725700e+03 7.81860800e-03 7.71849600e-02
        2 -1    0    0  501    0 +0.0000000000e+00 +0.0000000000e+00 +2.7347549607e+03 2.7347549607e+03 0.0000000000e+00 0.0000e+00 -1.0000e+00
       -2 -1    0    0    0  501 -0.0000000000e+00 -0.0000000000e+00 -8.9974994177e+02 8.9974994177e+02 0.0000000000e+00 0.0000e+00 1.0000e+00
      -13  1    1    2    0    0 +1.5439618785e+03 -2.7616367966e+02 +8.9131542961e+02 1.8040310018e+03 0.0000000000e+00 0.0000e+00 1.0000e+00
       13  1    1    2    0    0 -1.5439618785e+03 +2.7616367966e+02 +9.4368958936e+02 1.8304739007e+03 0.0000000000e+00 0.0000e+00 -1.0000e+00
<mgrwt>
<rscale>  0 0.31372572E+04</rscale>
<asrwt>0</asrwt>
<pdfrwt beam="1">  1        2 0.42073153E+00 0.31372572E+04</pdfrwt>
<pdfrwt beam="2">  1       -2 0.13842307E+00 0.31372572E+04</pdfrwt>
<totfact> 0.94955216E-01</totfact>
</mgrwt>
<rwgt>
<wgt id='morphing_basis_vector_1'> +1.0027604e-04 </wgt>
<wgt id='morphing_basis_vector_2'> +7.5345256e-05 </wgt>
<wgt id='morphing_basis_vector_3'> +1.1104950e-04 </wgt>
<wgt id='morphing_basis_vector_4'> +6.8608283e-05 </wgt>
<wgt id='morphing_basis_vector_5'> +1.2002626e-04 </wgt>
</rwgt>
</event>
<event>
 4      1 +7.3133000e-09 2.83569900e+03 7.81860800e-03 7.79507000e-02
        2 -1    0    0  501    0 +0.0000000000e+00 +0.0000000000e+00 +1.3615930328e+03 1.3615930328e+03 0.0000000000e+00 0.0000e+00 1.0000e+00
       -2 -1    0    0    0  501 -0.0000000000e+00 -0.0000000000e+00 -1.4764303474e+03 1.4764303474e+03 0.0000000000e+00 0.0000e+00 -1.0000e+00
      -13  1    1    2    0    0 -8.1404558053e+02 -1.1565041192e+03 +4.3288318637e+01 1.4149366994e+03 0.0000000000e+00 0.0000e+00 -1.0000e+00
       13  1    1    2    0    0 +8.1404558053e+02 +1.1565041192e+03 -1.5812563323e+02 1.4230866807e+03 0.0000000000e+00 0.0000e+00 1.0000e+00
<mgrwt>
<rscale>  0 0.28356990E+04</rscale>
<asrwt>0</asrwt>
<pdfrwt beam="1">  1        2 0.20947585E+00 0.28356990E+04</pdfrwt>
<pdfrwt beam="2">  1       -2 0.22714313E+00 0.28356990E+04</pdfrwt>
<totfact> 0.12563184E+00</totfact>
</mgrwt>
<rwgt>
<wgt id='morphing_basis_vector_1'> +6.7985094e-05 </wgt>
<wgt id='morphing_basis_vector_2'> +5.2754683e-05 </wgt>
<wgt id='morphing_basis_vector_3'> +7.5363494e-05 </wgt>
<wgt id='morphing_basis_vector_4'> +4.3968754e-05 </wgt>
<wgt id='morphing_basis_vector_5'> +7.9691339e-05 </wgt>
</rwgt>
</event>
<event>
 4      1 +7.3133000e-09 2.74606400e+03 7.81860800e-03 7.81971900e-02
        2 -1    0    0  501    0 +0.0000000000e+00 +0.0000000000e+00 +1.1005065663e+03 1.1005065663e+03 0.0000000000e+00 0.0000e+00 1.0000e+00
       -2 -1    0    0    0  501 -0.0000000000e+00 -0.0000000000e+00 -1.7130446453e+03 1.7130446453e+03 0.0000000000e+00 0.0000e+00 -1.0000e+00
      -13  1    1    2    0    0 -9.8869212841e+02 -9.5200804647e+02 -2.6813285203e+02 1.3984729785e+03 0.0000000000e+00 0.0000e+00 -1.0000e+00
       13  1    1    2    0    0 +9.8869212841e+02 +9.5200804647e+02 -3.4440522691e+02 1.4150782330e+03 0.0000000000e+00 0.0000e+00 1.0000e+00
<mgrwt>
<rscale>  0 0.27460640E+04</rscale>
<asrwt>0</asrwt>
<pdfrwt beam="1">  1        2 0.16930870E+00 0.27460640E+04</pdfrwt>
<pdfrwt beam="2">  1       -2 0.26354533E+00 0.27460640E+04</pdfrwt>
<totfact> 0.10032088E+00</totfact>
</mgrwt>
<rwgt>
<wgt id='morphing_basis_vector_1'> +5.9480113e-05 </wgt>
<wgt id='morphing_basis_vector_2'> +4.5282712e-05 </wgt>
<wgt id='morphing_basis_vector_3'> +6.5669470e-05 </wgt>
<wgt id='morphing_basis_vector_4'> +3.9421896e-05 </wgt>
<wgt id='morphing_basis_vector_5'> +7.0057523e-05 </wgt>
</rwgt>
</event>
<event>
 4      1 +7.3133000e-09 3.12865500e+03 7.81860800e-03 7.72055600e-02
        2 -1    0    0  501    0 +0.0000000000e+00 +0.0000000000e+00 +1.0865686290e+03 1.0865686290e+03 0.0000000000e+00 0.0000e+00 1.0000e+00
       -2 -1    0    0    0  501 -0.0000000000e+00 -0.0000000000e+00 -2.2521542914e+03 2.2521542914e+03 0.0000000000e+00 0.0000e+00 -1.0000e+00
      -13  1    1    2    0    0 +8.6684544917e+02 -1.1726250421e+03 -1.1870727140e+03 1.8803223528e+03 0.0000000000e+00 0.0000e+00 -1.0000e+00
       13  1    1    2    0    0 -8.6684544917e+02 +1.1726250421e+03 +2.1487051544e+01 1.4584005676e+03 0.0000000000e+00 0.0000e+00 1.0000e+00
<mgrwt>
<rscale>  0 0.31286548E+04</rscale>
<asrwt>0</asrwt>
<pdfrwt beam="1">  1        2 0.16716441E+00 0.31286548E+04</pdfrwt>
<pdfrwt beam="2">  1       -2 0.34648527E+00 0.31286548E+04</pdfrwt>
<totfact> 0.27464288E-01</totfact>
</mgrwt>
<rwgt>
<wgt id='morphing_basis_vector_1'> +9.6684824e-05 </wgt>
<wgt id='morphing_basis_vector_2'> +6.7150900e-05 </wgt>
<wgt id='morphing_basis_vector_3'> +1.0589736e-04 </wgt>
<wgt id='morphing_basis_vector_4'> +7.3083759e-05 </wgt>
<wgt id='morphing_basis_vector_5'> +1.1913570e-04 </wgt>
</rwgt>
</event>
<event>
 4      1 +7.3133000e-09 3.17443000e+03 7.81860800e-03 7.70967400e-02
        2 -1    0    0  501    0 +0.0000000000e+00 +0.0000000000e+00 +1.3028193100e+03 1.3028193100e+03 0.0000000000e+00 0.0000e+00 -1.0000e+00
       -2 -1    0    0    0  501 -0.0000000000e+00 -0.0000000000e+00 -1.9336915778e+03 1.9336915778e+03 0.0000000000e+00 0.0000e+00 1.0000e+00
      -13  1    1    2    0    0 +1.4133580472e+03 +2.2154430612e+02 -1.0163306617e+03 1.7548763099e+03 0.0000000000e+00 0.0000e+00 1.0000e+00
       13  1    1    2    0    0 -1.4133580472e+03 -2.2154430612e+02 +3.8545839394e+02 1.4816345779e+03 0.0000000000e+00 0.0000e+00 -1.0000e+00
<mgrwt>
<rscale>  0 0.31744295E+04</rscale>
<asrwt>0</asrwt>
<pdfrwt beam="1">  1        2 0.20043374E+00 0.31744295E+04</pdfrwt>
<pdfrwt beam="2">  1       -2 0.29749101E+00 0.31744295E+04</pdfrwt>
<totfact> 0.43276046E-01</totfact>
</mgrwt>
<rwgt>
<wgt id='morphing_basis_vector_1'> +1.0216930e-04 </wgt>
<wgt id='morphing_basis_vector_2'> +7.0416599e-05 </wgt>
<wgt id='morphing_basis_vector_3'> +1.1183571e-04 </wgt>
<wgt id='morphing_basis_vector_4'> +7.8013782e-05 </wgt>
<wgt id='morphing_basis_vector_5'> +1.2636428e-04 </wgt>
</rwgt>
</event>
<event>
 4      1 +7.3133000e-09 2.74671000e+03 7.81860800e-03 7.81953800e-02
        2 -1    0    0  501    0 +0.0000000000e+00 +0.0000000000e+00 +2.2153770488e+03 2.2153770488e+03 0.0000000000e+00 0.0000e+00 1.0000e+00
       -2 -1    0    0    0  501 -0.0000000000e+00 -0.0000000000e+00 -8.5136931196e+02 8.5136931196e+02 0.0000000000e+00 0.0000e+00 -1.0000e+00
      -13  1    1    2    0    0 +9.1341734138e+02 +3.1814043478e+02 -4.0656192886e+02 1.0492078811e+03 0.0000000000e+00 0.0000e+00 -1.0000e+00
       13  1    1    2    0    0 -9.1341734138e+02 -3.1814043478e+02 +1.7705696657e+03 2.0175384796e+03 0.0000000000e+00 0.0000e+00 1.0000e+00
<mgrwt>
<rscale>  0 0.27467101E+04</rscale>
<asrwt>0</asrwt>
<pdfrwt beam="1">  1        2 0.34082724E+00 0.27467101E+04</pdfrwt>
<pdfrwt beam="2">  1       -2 0.13097989E+00 0.27467101E+04</pdfrwt>
<totfact> 0.23268117E+00</totfact>
</mgrwt>
<rwgt>
<wgt id='morphing_basis_vector_1'> +5.7287968e-05 </wgt>
<wgt id='morphing_basis_vector_2'> +3.8700239e-05 </wgt>
<wgt id='morphing_basis_vector_3'> +6.2252035e-05 </wgt>
<wgt id='morphing_basis_vector_4'> +4.4106373e-05 </wgt>
<wgt id='morphing_basis_vector_5'> +7.0503755e-05 </wgt>
</rwgt>
</event>
<event>
 4      1 +7.3133000e-09 2.73359100e+03 7.81860800e-03 7.82322500e-02
        2 -1    0    0  501    0 +0.0000000000e+00 +0.0000000000e+00 +2.3034521023e+03 2.3034521023e+03 0.0000000000e+00 0.0000e+00 1.0000e+00
       -2 -1    0    0    0  501 -0.0000000000e+00 -0.0000000000e+00 -8.1101326331e+02 8.1101326331e+02 0.0000000000e+00 0.0000e+00 -1.0000e+00
      -13  1    1    2    0    0 +2.5142164426e+02 -9.6596929423e+02 +1.8100280842e+03 2.0670053667e+03 0.0000000000e+00 0.0000e+00 1.0000e+00
       13  1    1    2    0    0 -2.5142164426e+02 +9.6596929423e+02 -3.1758924517e+02 1.0474599989e+03 0.0000000000e+00 0.0000e+00 -1.0000e+00
<mgrwt>
<rscale>  0 0.27335912E+04</rscale>
<asrwt>0</asrwt>
<pdfrwt beam="1">  1        2 0.35437724E+00 0.27335912E+04</pdfrwt>
<pdfrwt beam="2">  1       -2 0.12477127E+00 0.27335912E+04</pdfrwt>
<totfact> 0.23564610E+00</totfact>
</mgrwt>
<rwgt>
<wgt id='morphing_basis_vector_1'> +7.1880100e-05 </wgt>
<wgt id='morphing_basis_vector_2'> +8.4152251e-05 </wgt>
<wgt id='morphing_basis_vector_3'> +8.5309590e-05 </wgt>
<wgt id='morphing_basis_vector_4'> +1.0881423e-05 </wgt>
<wgt id='morphing_basis_vector_5'> +6.6508357e-05 </wgt>
</rwgt>
</event>
<event>
 4      1 +7.3133000e-09 2.73676200e+03 7.81860800e-03 7.82233200e-02
        2 -1    0    0  501    0 +0.0000000000e+00 +0.0000000000e+00 +7.7421325512e+02 7.7421325512e+02 0.0000000000e+00 0.0000e+00 1.0000e+00
       -2 -1    0    0    0  501 -0.0000000000e+00 -0.0000000000e+00 -2.4185405110e+03 2.4185405110e+03 0.0000000000e+00 0.0000e+00 -1.0000e+00
      -13  1    1    2    0    0 +3.0377128449e+02 -7.2821023509e+02 +4.8210156072e+02 9.2465618184e+02 0.0000000000e+00 0.0000e+00 1.0000e+00
       13  1    1    2    0    0 -3.0377128449e+02 +7.2821023509e+02 -2.1264288166e+03 2.2680975843e+03 0.0000000000e+00 0.0000e+00 -1.0000e+00
<mgrwt>
<rscale>  0 0.27367617E+04</rscale>
<asrwt>0</asrwt>
<pdfrwt beam="1">  1        2 0.11910973E+00 0.27367617E+04</pdfrwt>
<pdfrwt beam="2">  1       -2 0.37208315E+00 0.27367617E+04</pdfrwt>
<totfact> 0.30913293E-01</totfact>
</mgrwt>
<rwgt>
<wgt id='morphing_basis_vector_1'> +7.5540499e-05 </wgt>
<wgt id='morphing_basis_vector_2'> +9.4355549e-05 </wgt>
<wgt id='morphing_basis_vector_3'> +9.0860918e-05 </wgt>
<wgt id='morphing_basis_vector_4'> +4.0495338e-06 </wgt>
<wgt id='morphing_basis_vector_5'> +6.6258441e-05 </wgt>
</rwgt>
</event>
<event>
 4      1 +7.3133000e-09 2.82863400e+03 7.81860800e-03 7.79697900e-02
        2 -1    0    0  501    0 +0.0000000000e+00 +0.0000000000e+00 +1.5389133127e+03 1.5389133127e+03 0.0000000000e+00 0.0000e+00 -1.0000e+00
       -2 -1    0    0    0  501 -0.0000000000e+00 -0.0000000000e+00 -1.2998087993e+03 1.2998087993e+03 0.0000000000e+00 0.0000e+00 1.0000e+00
      -13  1    1    2    0    0 -1.3912800652e+03 +5.8487286597e+01 -1.2874084210e+02 1.3984474201e+03 0.0000000000e+00 0.0000e+00 1.0000e+00
       13  1    1    2    0    0 +1.3912800652e+03 -5.8487286597e+01 +3.6784535547e+02 1.4402746918e+03 0.0000000000e+00 0.0000e+00 -1.0000e+00
<mgrwt>
<rscale>  0 0.28286343E+04</rscale>
<asrwt>0</asrwt>
<pdfrwt beam="1">  1        2 0.23675590E+00 0.28286343E+04</pdfrwt>
<pdfrwt beam="2">  1       -2 0.19997058E+00 0.28286343E+04</pdfrwt>
<totfact> 0.15641802E+00</totfact>
</mgrwt>
<rwgt>
<wgt id='morphing_basis_vector_1'> +6.5505147e-05 </wgt>
<wgt id='morphing_basis_vector_2'> +4.6894897e-05 </wgt>
<wgt id='morphing_basis_vector_3'> +7.1799048e-05 </wgt>
<wgt id='morphing_basis_vector_4'> +4.7283375e-05 </wgt>
<wgt id='morphing_basis_vector_5'> +7.9199823e-05 </wgt>
</rwgt>
</event>
<event>
 4      1 +7.3133000e-09 2.85327700e+03 7.81860800e-03 7.79034500e-02
        2 -1    0    0  501    0 +0.0000000000e+00 +0.0000000000e+00 +1.8729893654e+03 1.8729893654e+03 0.0000000000e+00 0.0000e+00 1.0000e+00
       -2 -1    0    0    0  501 -0.0000000000e+00 -0.0000000000e+00 -1.0866569402e+03 1.0866569402e+03 0.0000000000e+00 0.0000e+00 -1.0000e+00
      -13  1    1    2    0    0 -6.2701369238e+01 +1.2842883757e+03 -2.4791031772e+02 1.3094989956e+03 0.0000000000e+00 0.0000e+00 -1.0000e+00
       13  1    1    2    0    0 +6.2701369238e+01 -1.2842883757e+03 +1.0342427429e+03 1.6501473101e+03 0.0000000000e+00 0.0000e+00 1.0000e+00
<mgrwt>
<rscale>  0 0.28532766E+04</rscale>
<asrwt>0</asrwt>
<pdfrwt beam="1">  1        2 0.28815221E+00 0.28532766E+04</pdfrwt>
<pdfrwt beam="2">  1       -2 0.16717799E+00 0.28532766E+04</pdfrwt>
<totfact> 0.17984503E+00</totfact>
</mgrwt>
<rwgt>
<wgt id='morphing_basis_vector_1'> +6.6942866e-05 </wgt>
<wgt id='morphing_basis_vector_2'> +4.6034648e-05 </wgt>
<wgt id='morphing_basis_vector_3'> +7.3009287e-05 </wgt>
<wgt id='morphing_basis_vector_4'> +5.0734423e-05 </wgt>
<wgt id='morphing_basis_vector_5'> +8.2168582e-05 </wgt>
</rwgt>
</event>
<event>
 4      1 +7.3133000e-09 2.72751100e+03 7.81860800e-03 7.82494100e-02
        2 -1    0    0  501    0 +0.0000000000e+00 +0.0000000000e+00 +2.1619656610e+03 2.1619656610e+03 0.0000000000e+00 0.0000e+00 1.0000e+00
       -2 -1    0    0    0  501 -0.0000000000e+00 -0.0000000000e+00 -8.6024925316e+02 8.6024925316e+02 0.0000000000e+00 0.0000e+00 -1.0000e+00
      -13  1    1    2    0    0 +1.2810443402e+03 -4.5656129578e+01 +1.1666310268e+03 1.7332590794e+03 0.0000000000e+00 0.0000e+00 1.0000e+00
       13  1    1    2    0    0 -1.2810443402e+03 +4.5656129578e+01 +1.3508538108e+02 1.2889558348e+03 0.0000000000e+00 0.0000e+00 -1.0000e+00
<mgrwt>
<rscale>  0 0.27275112E+04</rscale>
<asrwt>0</asrwt>
<pdfrwt beam="1">  1        2 0.33261010E+00 0.27275112E+04</pdfrwt>
<pdfrwt beam="2">  1       -2 0.13234604E+00 0.27275112E+04</pdfrwt>
<totfact> 0.24317829E+00</totfact>
</mgrwt>
<rwgt>
<wgt id='morphing_basis_vector_1'> +6.2112217e-05 </wgt>
<wgt id='morphing_basis_vector_2'> +5.6477437e-05 </wgt>
<wgt id='morphing_basis_vector_3'> +7.0416945e-05 </wgt>
<wgt id='morphing_basis_vector_4'> +2.9665104e-05 </wgt>
<wgt id='morphing_basis_vector_5'> +6.7454254e-05 </wgt>
</rwgt>
</event>
<event>
 4      1 +7.3133000e-09 2.77615200e+03 7.81860800e-03 7.81134000e-02
        2 -1    0    0  501    0 +0.0000000000e+00 +0.0000000000e+00 +1.5702243344e+03 1.5702243344e+03 0.0000000000e+00 0.0000e+00 -1.0000e+00
       -2 -1    0    0    0  501 -0.0000000000e+00 -0.0000000000e+00 -1.2270575241e+03 1.2270575241e+03 0.0000000000e+00 0.0000e+00 1.0000e+00
      -13  1    1    2    0    0 +4.4778061106e+02 -6.1178700846e+02 -1.0000064608e+03 1.2549118459e+03 0.0000000000e+00 0.0000e+00 1.0000e+00
       13  1    1    2    0    0 -4.4778061106e+02 +6.1178700846e+02 +1.3431732711e+03 1.5423700125e+03 0.0000000000e+00 0.0000e+00 -1.0000e+00
<mgrwt>
<rscale>  0 0.27761524E+04</rscale>
<asrwt>0</asrwt>
<pdfrwt beam="1">  1        2 0.24157298E+00 0.27761524E+04</pdfrwt>
<pdfrwt beam="2">  1       -2 0.18877808E+00 0.27761524E+04</pdfrwt>
<totfact> 0.18255342E+00</totfact>
</mgrwt>
<rwgt>
<wgt id='morphing_basis_vector_1'> +5.9705992e-05 </wgt>
<wgt id='morphing_basis_vector_2'> +4.0229189e-05 </wgt>
<wgt id='morphing_basis_vector_3'> +6.4883550e-05 </wgt>
<wgt id='morphing_basis_vector_4'> +4.6153257e-05 </wgt>
<wgt id='morphing_basis_vector_5'> +7.3617126e-05 </wgt>
</rwgt>
</event>
<event>
 4      1 +7.3133000e-09 2.83352000e+03 7.81860800e-03 7.79565900e-02
        2 -1    0    0  501    0 +0.0000000000e+00 +0.0000000000e+00 +2.7384424060e+03 2.7384424060e+03 0.0000000000e+00 0.0000e+00 -1.0000e+00
       -2 -1    0    0    0  501 -0.0000000000e+00 -0.0000000000e+00 -7.3297446232e+02 7.3297446232e+02 0.0000000000e+00 0.0000e+00 1.0000e+00
      -13  1    1    2    0    0 -1.1281635490e+03 +8.4107180593e+02 +1.2042422404e+03 1.8521215266e+03 0.0000000000e+00 0.0000e+00 1.0000e+00
       13  1    1    2    0    0 +1.1281635490e+03 -8.4107180593e+02 +8.0122570332e+02 1.6192953417e+03 0.0000000000e+00 0.0000e+00 -1.0000e+00
<mgrwt>
<rscale>  0 0.28335196E+04</rscale>
<asrwt>0</asrwt>
<pdfrwt beam="1">  1        2 0.42129883E+00 0.28335196E+04</pdfrwt>
<pdfrwt beam="2">  1       -2 0.11276530E+00 0.28335196E+04</pdfrwt>
<totfact> 0.16651737E+00</totfact>
</mgrwt>
<rwgt>
<wgt id='morphing_basis_vector_1'> +6.8298158e-05 </wgt>
<wgt id='morphing_basis_vector_2'> +5.4125014e-05 </wgt>
<wgt id='morphing_basis_vector_3'> +7.5939775e-05 </wgt>
<wgt id='morphing_basis_vector_4'> +4.2755088e-05 </wgt>
<wgt id='morphing_basis_vector_5'> +7.9356024e-05 </wgt>
</rwgt>
</event>
<event>
 4      1 +7.3133000e-09 3.06150500e+03 7.81860800e-03 7.73687200e-02
        2 -1    0    0  501    0 +0.0000000000e+00 +0.0000000000e+00 +3.8194838263e+03 3.8194838263e+03 0.0000000000e+00 0.0000e+00 -1.0000e+00
       -2 -1    0    0    0  501 -0.0000000000e+00 -0.0000000000e+00 -6.1348690973e+02 6.1348690973e+02 0.0000000000e+00 0.0000e+00 1.0000e+00
      -13  1    1    2    0    0 +5.5950872811e+02 -1.3697896530e+03 +1.0350880043e+03 1.8057632422e+03 0.0000000000e+00 0.0000e+00 1.0000e+00
       13  1    1    2    0    0 -5.5950872811e+02 +1.3697896530e+03 +2.1709089122e+03 2.6272074938e+03 0.0000000000e+00 0.0000e+00 -1.0000e+00
<mgrwt>
<rscale>  0 0.30615051E+04</rscale>
<asrwt>0</asrwt>
<pdfrwt beam="1">  1        2 0.58761288E+00 0.30615051E+04</pdfrwt>
<pdfrwt beam="2">  1       -2 0.94382604E-01 0.30615051E+04</pdfrwt>
<totfact> 0.44343957E-01</totfact>
</mgrwt>
<rwgt>
<wgt id='morphing_basis_vector_1'> +8.9155299e-05 </wgt>
<wgt id='morphing_basis_vector_2'> +6.2889748e-05 </wgt>
<wgt id='morphing_basis_vector_3'> +9.7790921e-05 </wgt>
<wgt id='morphing_basis_vector_4'> +6.6040128e-05 </wgt>
<wgt id='morphing_basis_vector_5'> +1.0907785e-04 </wgt>
</rwgt>
</event>
<event>
 4      1 +7.3133000e-09 2.67417700e+03 7.81860800e-03 7.84018900e-02
        2 -1    0    0  501    0 +0.0000000000e+00 +0.0000000000e+00 +2.5778508459e+03 2.5778508459e+03 0.0000000000e+00 0.0000e+00 1.0000e+00
       -2 -1    0    0    0  501 -0.0000000000e+00 -0.0000000000e+00 -6.9352570701e+02 6.9352570701e+02 0.0000000000e+00 0.0000e+00 -1.0000e+00
      -13  1    1    2    0    0 +1.3082080226e+03 +1.5558247979e+02 +1.2216363405e+03 1.7966662146e+03 0.0000000000e+00 0.0000e+00 1.0000e+00
       13  1    1    2    0    0 -1.3082080226e+03 -1.5558247979e+02 +6.6268879838e+02 1.4747103383e+03 0.0000000000e+00 0.0000e+00 -1.0000e+00
<mgrwt>
<rscale>  0 0.26741771E+04</rscale>
<asrwt>0</asrwt>
<pdfrwt beam="1">  1        2 0.39659243E+00 0.26741771E+04</pdfrwt>
<pdfrwt beam="2">  1       -2 0.10669626E+00 0.26741771E+04</pdfrwt>
<totfact> 0.24314469E+00</totfact>
</mgrwt>
<rwgt>
<wgt id='morphing_basis_vector_1'> +5.4902010e-05 </wgt>
<wgt id='morphing_basis_vector_2'> +4.4720556e-05 </wgt>
<wgt id='morphing_basis_vector_3'> +6.1132274e-05 </wgt>
<wgt id='morphing_basis_vector_4'> +3.2635562e-05 </wgt>
<wgt id='morphing_basis_vector_5'> +6.2706259e-05 </wgt>
</rwgt>
</event>
<event>
 4      1 +7.3133000e-09 2.82255200e+03 7.81860800e-03 7.79862700e-02
        2 -1    0    0  501    0 +0.0000000000e+00 +0.0000000000e+00 +1.2642619260e+03 1.2642619260e+03 0.0000000000e+00 0.0000e+00 1.0000e+00
       -2 -1    0    0    0  501 -0.0000000000e+00 -0.0000000000e+00 -1.5753857669e+03 1.5753857669e+03 0.0000000000e+00 0.0000e+00 -1.0000e+00
      -13  1    1    2    0    0 +5.7761548246e+02 -7.9141209194e+02 -1.1774538771e+03 1.5317866619e+03 0.0000000000e+00 0.0000e+00 -1.0000e+00
       13  1    1    2    0    0 -5.7761548246e+02 +7.9141209194e+02 +8.6633003614e+02 1.3078610310e+03 0.0000000000e+00 0.0000e+00 1.0000e+00
<mgrwt>
<rscale>  0 0.28225522E+04</rscale>
<asrwt>0</asrwt>
<pdfrwt beam="1">  1        2 0.19450183E+00 0.28225522E+04</pdfrwt>
<pdfrwt beam="2">  1       -2 0.24236704E+00 0.28225522E+04</pdfrwt>
<totfact> 0.11186588E+00</totfact>
</mgrwt>
<rwgt>
<wgt id='morphing_basis_vector_1'> +6.3803313e-05 </wgt>
<wgt id='morphing_basis_vector_2'> +4.3117845e-05 </wgt>
<wgt id='morphing_basis_vector_3'> +6.9403161e-05 </wgt>
<wgt id='morphing_basis_vector_4'> +4.9248914e-05 </wgt>
<wgt id='morphing_basis_vector_5'> +7.8708484e-05 </wgt>
</rwgt>
</event>
<event>
 4      1 +7.3133000e-09 2.83041800e+03 7.81860800e-03 7.79649700e-02
        2 -1    0    0  501    0 +0.0000000000e+00 +0.0000000000e+00 +9.5488387840e+02 9.5488387840e+02 0.0000000000e+00 0.0000e+00 1.0000e+00
       -2 -1    0    0    0  501 -0.0000000000e+00 -0.0000000000e+00 -2.0974448816e+03 2.0974448816e+03 0.0000000000e+00 0.0000e+00 -1.0000e+00
      -13  1    1    2    0    0 -1.7058755511e+02 +1.0681889169e+03 -1.5553416156e+03 1.8945224246e+03 0.0000000000e+00 0.0000e+00 -1.0000e+00
       13  1    1    2    0    0 +1.7058755511e+02 -1.0681889169e+03 +4.1278061246e+02 1.1578063353e+03 0.0000000000e+00 0.0000e+00 1.0000e+00
<mgrwt>
<rscale>  0 0.28304179E+04</rscale>
<asrwt>0</asrwt>
<pdfrwt beam="1">  1        2 0.14690521E+00 0.28304179E+04</pdfrwt>
<pdfrwt beam="2">  1       -2 0.32268383E+00 0.28304179E+04</pdfrwt>
<totfact> 0.48758984E-01</totfact>
</mgrwt>
<rwgt>
<wgt id='morphing_basis_vector_1'> +6.4562461e-05 </wgt>
<wgt id='morphing_basis_vector_2'> +4.3752573e-05 </wgt>
<wgt id='morphing_basis_vector_3'> +7.0260744e-05 </wgt>
<wgt id='morphing_basis_vector_4'> +4.9697168e-05 </wgt>
<wgt id='morphing_basis_vector_5'> +7.9589486e-05 </wgt>
</rwgt>
</event>
<event>
 4      1 +7.3133000e-09 2.77380300e+03 7.81860800e-03 7.81199000e-02
        2 -1    0    0  501    0 +0.0000000000e+00 +0.0000000000e+00 +2.1372423853e+03 2.1372423853e+03 0.0000000000e+00 0.0000e+00 -1.0000e+00
       -2 -1    0    0    0  501 -0.0000000000e+00 -0.0000000000e+00 -8.9998959407e+02 8.9998959407e+02 0.0000000000e+00 0.0000e+00 1.0000e+00
      -13  1    1    2    0    0 +4.6570197442e+02 -1.1859943963e+03 +1.2184011763e+03 1.7629414237e+03 0.0000000000e+00 0.0000e+00 1.0000e+00
       13  1    1    2    0    0 -4.6570197442e+02 +1.1859943963e+03 +1.8851614930e+01 1.2742905557e+03 0.0000000000e+00 0.0000e+00 -1.0000e+00
<mgrwt>
<rscale>  0 0.27738031E+04</rscale>
<asrwt>0</asrwt>
<pdfrwt beam="1">  1        2 0.32880652E+00 0.27738031E+04</pdfrwt>
<pdfrwt beam="2">  1       -2 0.13845994E+00 0.27738031E+04</pdfrwt>
<totfact> 0.22110119E+00</totfact>
</mgrwt>
<rwgt>
<wgt id='morphing_basis_vector_1'> +6.7617784e-05 </wgt>
<wgt id='morphing_basis_vector_2'> +6.4000936e-05 </wgt>
<wgt id='morphing_basis_vector_3'> +7.7238046e-05 </wgt>
<wgt id='morphing_basis_vector_4'> +2.9210271e-05 </wgt>
<wgt id='morphing_basis_vector_5'> +7.1993548e-05 </wgt>
</rwgt>
</event>
<event>
 4      1 +7.3133000e-09 2.73209600e+03 7.81860800e-03 7.82364600e-02
        2 -1    0    0  501    0 +0.0000000000e+00 +0.0000000000e+00 +1.4783092817e+03 1.4783092817e+03 0.0000000000e+00 0.0000e+00 1.0000e+00
       -2 -1    0    0    0  501 -0.0000000000e+00 -0.0000000000e+00 -1.2623115417e+03 1.2623115417e+03 0.0000000000e+00 0.0000e+00 -1.0000e+00
      -13  1    1    2    0    0 -5.5071789020e+02 +7.0245261643e+02 -9.2932503569e+02 1.2885553519e+03 0.0000000000e+00 0.0000e+00 -1.0000e+00
       13  1    1    2    0    0 +5.5071789020e+02 -7.0245261643e+02 +1.1453227758e+03 1.4520654715e+03 0.0000000000e+00 0.0000e+00 1.0000e+00
<mgrwt>
<rscale>  0 0.27320958E+04</rscale>
<asrwt>0</asrwt>
<pdfrwt beam="1">  1        2 0.22743220E+00 0.27320958E+04</pdfrwt>
<pdfrwt beam="2">  1       -2 0.19420178E+00 0.27320958E+04</pdfrwt>
<totfact> 0.18798028E+00</totfact>
</mgrwt>
<rwgt>
<wgt id='morphing_basis_vector_1'> +5.6069520e-05 </wgt>
<wgt id='morphing_basis_vector_2'> +3.7822145e-05 </wgt>
<wgt id='morphing_basis_vector_3'> +6.0904797e-05 </wgt>
<wgt id='morphing_basis_vector_4'> +4.3210895e-05 </wgt>
<wgt id='morphing_basis_vector_5'> +6.9003215e-05 </wgt>
</rwgt>
</event>
<event>
 4      1 +7.3133000e-09 2.75385900e+03 7.81860800e-03 7.81753800e-02
        2 -1    0    0  501    0 +0.0000000000e+00 +0.0000000000e+00 +1.3532488612e+03 1.3532488612e+03 0.0000000000e+00 0.0000e+00 -1.0000e+00
       -2 -1    0    0    0  501 -0.0000000000e+00 -0.0000000000e+00 -1.4010241577e+03 1.4010241577e+03 0.0000000000e+00 0.0000e+00 1.0000e+00
      -13  1    1    2    0    0 +1.0330769844e+03 +3.1193750051e+02 -8.7922466369e+02 1.3919730849e+03 0.0000000000e+00 0.0000e+00 1.0000e+00
       13  1    1    2    0    0 -1.0330769844e+03 -3.1193750051e+02 +8.3144936715e+02 1.3622999339e+03 0.0000000000e+00 0.0000e+00 -1.0000e+00
<mgrwt>
<rscale>  0 0.27538586E+04</rscale>
<asrwt>0</asrwt>
<pdfrwt beam="1">  1        2 0.20819213E+00 0.27538586E+04</pdfrwt>
<pdfrwt beam="2">  1       -2 0.21554218E+00 0.27538586E+04</pdfrwt>
<totfact> 0.15454468E+00</totfact>
</mgrwt>
<rwgt>
<wgt id='morphing_basis_vector_1'> +5.7940528e-05 </wgt>
<wgt id='morphing_basis_vector_2'> +3.9280719e-05 </wgt>
<wgt id='morphing_basis_vector_3'> +6.2995555e-05 </wgt>
<wgt id='morphing_basis_vector_4'> +4.4447334e-05 </wgt>
<wgt id='morphing_basis_vector_5'> +7.1238223e-05 </wgt>
</rwgt>
</event>
<event>
 4      1 +7.3133000e-09 2.74896900e+03 7.81860800e-03 7.81890500e-02
        2 -1    0    0  501    0 +0.0000000000e+00 +0.0000000000e+00 +3.2836651112e+03 3.2836651112e+03 0.0000000000e+00 0.0000e+00 -1.0000e+00
       -2 -1    0    0    0  501 -0.0000000000e+00 -0.0000000000e+00 -5.7533509134e+02 5.7533509134e+02 0.0000000000e+00 0.0000e+00 1.0000e+00
      -13  1    1    2    0    0 +1.3640861038e+03 +1.6111938581e+02 +1.2837310585e+03 1.8800680269e+03 0.0000000000e+00 0.0000e+00 1.0000e+00
       13  1    1    2    0    0 -1.3640861038e+03 -1.6111938581e+02 +1.4245989613e+03 1.9789321756e+03 0.0000000000e+00 0.0000e+00 -1.0000e+00
<mgrwt>
<rscale>  0 0.27489691E+04</rscale>
<asrwt>0</asrwt>
<pdfrwt beam="1">  1        2 0.50517924E+00 0.27489691E+04</pdfrwt>
<pdfrwt beam="2">  1       -2 0.88513093E-01 0.27489691E+04</pdfrwt>
<totfact> 0.13256621E+00</totfact>
</mgrwt>
<rwgt>
<wgt id='morphing_basis_vector_1'> +5.9252958e-05 </wgt>
<wgt id='morphing_basis_vector_2'> +4.4068939e-05 </wgt>
<wgt id='morphing_basis_vector_3'> +6.5210178e-05 </wgt>
<wgt id='morphing_basis_vector_4'> +4.0576020e-05 </wgt>
<wgt id='morphing_basis_vector_5'> +7.0438060e-05 </wgt>
</rwgt>
</event>
<event>
 4      1 +7.3133000e-09 2.92975600e+03 7.81860800e-03 7.77017900e-02
        2 -1    0    0  501    0 +0.0000000000e+00 +0.0000000000e+00 +4.5729412927e+03 4.5729412927e+03 0.0000000000e+00 0.0000e+00 -1.0000e+00
       -2 -1    0    0    0  501 -0.0000000000e+00 -0.0000000000e+00 -4.6925319066e+02 4.6925319066e+02 0.0000000000e+00 0.0000e+00 1.0000e+00
      -13  1    1    2    0    0 +8.2059598459e+02 +1.0083437468e+03 +8.9001260997e+02 1.5755181140e+03 0.0000000000e+00 0.0000e+00 1.0000e+00
       13  1    1    2    0    0 -8.2059598459e+02 -1.0083437468e+03 +3.2136754920e+03 3.4666763693e+03 0.0000000000e+00 0.0000e+00 -1.0000e+00
<mgrwt>
<rscale>  0 0.29297558E+04</rscale>
<asrwt>0</asrwt>
<pdfrwt beam="1">  1        2 0.70352940E+00 0.29297558E+04</pdfrwt>
<pdfrwt beam="2">  1       -2 0.72192802E-01 0.29297558E+04</pdfrwt>
<totfact> 0.16821657E-01</totfact>
</mgrwt>
<rwgt>
<wgt id='morphing_basis_vector_1'> +7.4278352e-05 </wgt>
<wgt id='morphing_basis_vector_2'> +5.0976708e-05 </wgt>
<wgt id='morphing_basis_vector_3'> +8.1061168e-05 </wgt>
<wgt id='morphing_basis_vector_4'> +5.6574158e-05 </wgt>
<wgt id='morphing_basis_vector_5'> +9.1441124e-05 </wgt>
</rwgt>
</event>
<event>
 4      1 +7.3133000e-09 2.68000000e+03 7.81860800e-03 7.83850600e-02
        2 -1    0    0  501    0 +0.0000000000e+00 +0.0000000000e+00 +4.1433512749e+03 4.1433512749e+03 0.0000000000e+00 0.0000e+00 -1.0000e+00
       -2 -1    0    0    0  501 -0.0000000000e+00 -0.0000000000e+00 -4.3336896470e+02 4.3336896470e+02 0.0000000000e+00 0.0000e+00 1.0000e+00
      -13  1    1    2    0    0 -1.2401550378e+03 +4.9389502043e+02 +2.0547522645e+03 2.4502905292e+03 0.0000000000e+00 0.0000e+00 1.0000e+00
       13  1    1    2    0    0 +1.2401550378e+03 -4.9389502043e+02 +1.6552300457e+03 2.1264297104e+03 0.0000000000e+00 0.0000e+00 -1.0000e+00
<mgrwt>
<rscale>  0 0.26799999E+04</rscale>
<asrwt>0</asrwt>
<pdfrwt beam="1">  1        2 0.63743863E+00 0.26799999E+04</pdfrwt>
<pdfrwt beam="2">  1       -2 0.66672151E-01 0.26799999E+04</pdfrwt>
<totfact> 0.53436276E-01</totfact>
</mgrwt>
<rwgt>
<wgt id='morphing_basis_vector_1'> +5.4513726e-05 </wgt>
<wgt id='morphing_basis_vector_2'> +4.2565566e-05 </wgt>
<wgt id='morphing_basis_vector_3'> +6.0336513e-05 </wgt>
<wgt id='morphing_basis_vector_4'> +3.4703321e-05 </wgt>
<wgt id='morphing_basis_vector_5'> +6.3405309e-05 </wgt>
</rwgt>
</event>
<event>
 4      1 +7.3133000e-09 2.68910800e+03 7.81860800e-03 7.83588400e-02
        2 -1    0    0  501    0 +0.0000000000e+00 +0.0000000000e+00 +2.1229359956e+03 2.1229359956e+03 0.0000000000e+00 0.0000e+00 -1.0000e+00
       -2 -1    0    0    0  501 -0.0000000000e+00 -0.0000000000e+00 -8.5156866007e+02 8.5156866007e+02 0.0000000000e+00 0.0000e+00 1.0000e+00
      -13  1    1    2    0    0 -1.1766804416e+03 +2.6508431164e+02 -2.1491180698e+01 1.2063616476e+03 0.0000000000e+00 0.0000e+00 1.0000e+00
       13  1    1    2    0    0 +1.1766804416e+03 -2.6508431164e+02 +1.2928585163e+03 1.7681430081e+03 0.0000000000e+00 0.0000e+00 -1.0000e+00
<mgrwt>
<rscale>  0 0.26891082E+04</rscale>
<asrwt>0</asrwt>
<pdfrwt beam="1">  1        2 0.32660554E+00 0.26891082E+04</pdfrwt>
<pdfrwt beam="2">  1       -2 0.13101056E+00 0.26891082E+04</pdfrwt>
<totfact> 0.26390162E+00</totfact>
</mgrwt>
<rwgt>
<wgt id='morphing_basis_vector_1'> +5.2935136e-05 </wgt>
<wgt id='morphing_basis_vector_2'> +3.6318293e-05 </wgt>
<wgt id='morphing_basis_vector_3'> +5.7588529e-05 </wgt>
<wgt id='morphing_basis_vector_4'> +3.9960122e-05 </wgt>
<wgt id='morphing_basis_vector_5'> +6.4670838e-05 </wgt>
</rwgt>
</event>
<event>
 4      1 +7.3133000e-09 2.95586600e+03 7.81860800e-03 7.76343700e-02
        2 -1    0    0  501    0 +0.0000000000e+00 +0.0000000000e+00 +1.0986936843e+03 1.0986936843e+03 0.0000000000e+00 0.0000e+00 -1.0000e+00
       -2 -1    0    0    0  501 -0.0000000000e+00 -0.0000000000e+00 -1.9880749016e+03 1.9880749016e+03 0.0000000000e+00 0.0000e+00 1.0000e+00
      -13  1    1    2    0    0 -8.9939671761e+02 -6.2498410886e+02 +5.9161024942e+02 1.2447980877e+03 0.0000000000e+00 0.0000e+00 -1.0000e+00
       13  1    1    2    0    0 +8.9939671761e+02 +6.2498410886e+02 -1.4809914667e+03 1.8419704983e+03 0.0000000000e+00 0.0000e+00 1.0000e+00
<mgrwt>
<rscale>  0 0.29558656E+04</rscale>
<asrwt>0</asrwt>
<pdfrwt beam="1">  1        2 0.16902980E+00 0.29558656E+04</pdfrwt>
<pdfrwt beam="2">  1       -2 0.30585768E+00 0.29558656E+04</pdfrwt>
<totfact> 0.50959214E-01</totfact>
</mgrwt>
<rwgt>
<wgt id='morphing_basis_vector_1'> +9.7503842e-05 </wgt>
<wgt id='morphing_basis_vector_2'> +1.1339355e-04 </wgt>
<wgt id='morphing_basis_vector_3'> +1.1612569e-04 </wgt>
<wgt id='morphing_basis_vector_4'> +1.5859610e-05 </wgt>
<wgt id='morphing_basis_vector_5'> +9.1263252e-05 </wgt>
</rwgt>
</event>
<event>
 4      1 +7.3133000e-09 2.73895000e+03 7.81860800e-03 7.82171600e-02
        2 -1    0    0  501    0 +0.0000000000e+00 +0.0000000000e+00 +1.1166170475e+03 1.1166170475e+03 0.0000000000e+00 0.0000e+00 1.0000e+00
       -2 -1    0    0    0  501 -0.0000000000e+00 -0.0000000000e+00 -1.6795931663e+03 1.6795931663e+03 0.0000000000e+00 0.0000e+00 -1.0000e+00
      -13  1    1    2    0    0 +2.2376805601e+02 -5.1995453396e+02 -1.5545691843e+03 1.6544214121e+03 0.0000000000e+00 0.0000e+00 -1.0000e+00
       13  1    1    2    0    0 -2.2376805601e+02 +5.1995453396e+02 +9.9159306546e+02 1.1417888017e+03 0.0000000000e+00 0.0000e+00 1.0000e+00
<mgrwt>
<rscale>  0 0.27389504E+04</rscale>
<asrwt>0</asrwt>
<pdfrwt beam="1">  1        2 0.17178724E+00 0.27389504E+04</pdfrwt>
<pdfrwt beam="2">  1       -2 0.25839895E+00 0.27389504E+04</pdfrwt>
<totfact> 0.10650316E+00</totfact>
</mgrwt>
<rwgt>
<wgt id='morphing_basis_vector_1'> +5.6589205e-05 </wgt>
<wgt id='morphing_basis_vector_2'> +3.8086637e-05 </wgt>
<wgt id='morphing_basis_vector_3'> +6.1457565e-05 </wgt>
<wgt id='morphing_basis_vector_4'> +4.3731233e-05 </wgt>
<wgt id='morphing_basis_vector_5'> +6.9712353e-05 </wgt>
</rwgt>
</event>
<event>
 4      1 +7.3133000e-09 2.72942300e+03 7.81860800e-03 7.82440100e-02
        2 -1    0    0  501    0 +0.0000000000e+00 +0.0000000000e+00 +1.0219537374e+03 1.0219537374e+03 0.0000000000e+00 0.0000e+00 -1.0000e+00
       -2 -1    0    0    0  501 -0.0000000000e+00 -0.0000000000e+00 -1.8224278041e+03 1.8224278041e+03 0.0000000000e+00 0.0000e+00 1.0000e+00
      -13  1    1    2    0    0 +3.7340835365e+02 +1.4830351169e+02 -1.7593964539e+03 1.8046893395e+03 0.0000000000e+00 0.0000e+00 1.0000e+00
       13  1    1    2    0    0 -3.7340835365e+02 -1.4830351169e+02 +9.5892238719e+02 1.0396922020e+03 0.0000000000e+00 0.0000e+00 -1.0000e+00
<mgrwt>
<rscale>  0 0.27294226E+04</rscale>
<asrwt>0</asrwt>
<pdfrwt beam="1">  1        2 0.15722365E+00 0.27294226E+04</pdfrwt>
<pdfrwt beam="2">  1       -2 0.28037350E+00 0.27294226E+04</pdfrwt>
<totfact> 0.86038350E-01</totfact>
</mgrwt>
<rwgt>
<wgt id='morphing_basis_vector_1'> +5.5810562e-05 </wgt>
<wgt id='morphing_basis_vector_2'> +3.7550518e-05 </wgt>
<wgt id='morphing_basis_vector_3'> +6.0601655e-05 </wgt>
<wgt id='morphing_basis_vector_4'> +4.3127527e-05 </wgt>
<wgt id='morphing_basis_vector_5'> +6.8737788e-05 </wgt>
</rwgt>
</event>
<event>
 4      1 +7.3133000e-09 2.70605400e+03 7.81860800e-03 7.83103200e-02
        2 -1    0    0  501    0 +0.0000000000e+00 +0.0000000000e+00 +2.6721418368e+03 2.6721418368e+03 0.0000000000e+00 0.0000e+00 -1.0000e+00
       -2 -1    0    0    0  501 -0.0000000000e+00 -0.0000000000e+00 -6.8509928692e+02 6.8509928692e+02 0.0000000000e+00 0.0000e+00 1.0000e+00
      -13  1    1    2    0    0 +7.5812228115e+01 -1.2829182425e+03 +4.6854440288e+02 1.3679037131e+03 0.0000000000e+00 0.0000e+00 1.0000e+00
       13  1    1    2    0    0 -7.5812228115e+01 +1.2829182425e+03 +1.5184981470e+03 1.9893374106e+03 0.0000000000e+00 0.0000e+00 -1.0000e+00
<mgrwt>
<rscale>  0 0.27060543E+04</rscale>
<asrwt>0</asrwt>
<pdfrwt beam="1">  1        2 0.41109874E+00 0.27060543E+04</pdfrwt>
<pdfrwt beam="2">  1       -2 0.10539989E+00 0.27060543E+04</pdfrwt>
<totfact> 0.21898058E+00</totfact>
</mgrwt>
<rwgt>
<wgt id='morphing_basis_vector_1'> +5.4527582e-05 </wgt>
<wgt id='morphing_basis_vector_2'> +3.8006610e-05 </wgt>
<wgt id='morphing_basis_vector_3'> +5.9455778e-05 </wgt>
<wgt id='morphing_basis_vector_4'> +4.0449581e-05 </wgt>
<wgt id='morphing_basis_vector_5'> +6.6290817e-05 </wgt>
</rwgt>
</event>
<event>
 4      1 +7.3133000e-09 2.80849600e+03 7.81860800e-03 7.80245200e-02
        2 -1    0    0  501    0 +0.0000000000e+00 +0.0000000000e+00 +2.3159310202e+03 2.3159310202e+03 0.0000000000e+00 0.0000e+00 -1.0000e+00
       -2 -1    0    0    0  501 -0.0000000000e+00 -0.0000000000e+00 -8.5145535639e+02 8.5145535639e+02 0.0000000000e+00 0.0000e+00 1.0000e+00
      -13  1    1    2    0    0 +5.9178645109e+02 -1.0306394137e+03 -1.1133147864e+02 1.1936597098e+03 0.0000000000e+00 0.0000e+00 1.0000e+00
       13  1    1    2    0    0 -5.9178645109e+02 +1.0306394137e+03 +1.5758071424e+03 1.9737266667e+03 0.0000000000e+00 0.0000e+00 -1.0000e+00
<mgrwt>
<rscale>  0 0.28084956E+04</rscale>
<asrwt>0</asrwt>
<pdfrwt beam="1">  1        2 0.35629708E+00 0.28084956E+04</pdfrwt>
<pdfrwt beam="2">  1       -2 0.13099313E+00 0.28084956E+04</pdfrwt>
<totfact> 0.20242044E+00</totfact>
</mgrwt>
<rwgt>
<wgt id='morphing_basis_vector_1'> +6.2721538e-05 </wgt>
<wgt id='morphing_basis_vector_2'> +4.2760690e-05 </wgt>
<wgt id='morphing_basis_vector_3'> +6.8291037e-05 </wgt>
<wgt id='morphing_basis_vector_4'> +4.7919994e-05 </wgt>
<wgt id='morphing_basis_vector_5'> +7.7108452e-05 </wgt>
</rwgt>
</event>
<event>
 4      1 +7.3133000e-09 2.82128600e+03 7.81860800e-03 7.79897100e-02
        2 -1    0    0  501    0 +0.0000000000e+00 +0.0000000000e+00 +2.7250294434e+03 2.7250294434e+03 0.0000000000e+00 0.0000e+00 -1.0000e+00
       -2 -1    0    0    0  501 -0.0000000000e+00 -0.0000000000e+00 -7.3023542496e+02 7.3023542496e+02 0.0000000000e+00 0.0000e+00 1.0000e+00
      -13  1    1    2    0    0 -1.0748797952e+02 -5.6747031726e+02 -5.7879320516e+02 8.1766606941e+02 0.0000000000e+00 0.0000e+00 1.0000e+00
       13  1    1    2    0    0 +1.0748797952e+02 +5.6747031726e+02 +2.5735872236e+03 2.6375987990e+03 0.0000000000e+00 0.0000e+00 -1.0000e+00
<mgrwt>
<rscale>  0 0.28212855E+04</rscale>
<asrwt>0</asrwt>
<pdfrwt beam="1">  1        2 0.41923530E+00 0.28212855E+04</pdfrwt>
<pdfrwt beam="2">  1       -2 0.11234391E+00 0.28212855E+04</pdfrwt>
<totfact> 0.17152773E+00</totfact>
</mgrwt>
<rwgt>
<wgt id='morphing_basis_vector_1'> +6.3626826e-05 </wgt>
<wgt id='morphing_basis_vector_2'> +4.2854568e-05 </wgt>
<wgt id='morphing_basis_vector_3'> +6.9180559e-05 </wgt>
<wgt id='morphing_basis_vector_4'> +4.9290684e-05 </wgt>
<wgt id='morphing_basis_vector_5'> +7.8576598e-05 </wgt>
</rwgt>
</event>
<event>
 4      1 +7.3133000e-09 2.69038000e+03 7.81860800e-03 7.83551800e-02
        2 -1    0    0  501    0 +0.0000000000e+00 +0.0000000000e+00 +1.1126922432e+03 1.1126922432e+03 0.0000000000e+00 0.0000e+00 -1.0000e+00
       -2 -1    0    0    0  501 -0.0000000000e+00 -0.0000000000e+00 -1.6262683462e+03 1.6262683462e+03 0.0000000000e+00 0.0000e+00 1.0000e+00
      -13  1    1    2    0    0 -6.0686618916e+02 +9.3546483188e+01 -1.4752704635e+03 1.5979550859e+03 0.0000000000e+00 0.0000e+00 1.0000e+00
       13  1    1    2    0    0 +6.0686618916e+02 -9.3546483188e+01 +9.6169436048e+02 1.1410055035e+03 0.0000000000e+00 0.0000e+00 -1.0000e+00
<mgrwt>
<rscale>  0 0.26903800E+04</rscale>
<asrwt>0</asrwt>
<pdfrwt beam="1">  1        2 0.17118342E+00 0.26903800E+04</pdfrwt>
<pdfrwt beam="2">  1       -2 0.25019513E+00 0.26903800E+04</pdfrwt>
<totfact> 0.12249482E+00</totfact>
</mgrwt>
<rwgt>
<wgt id='morphing_basis_vector_1'> +5.2725027e-05 </wgt>
<wgt id='morphing_basis_vector_2'> +3.5475137e-05 </wgt>
<wgt id='morphing_basis_vector_3'> +5.7220220e-05 </wgt>
<wgt id='morphing_basis_vector_4'> +4.0674701e-05 </wgt>
<wgt id='morphing_basis_vector_5'> +6.4846661e-05 </wgt>
</rwgt>
</event>
<event>
 4      1 +7.3133000e-09 3.13263200e+03 7.81860800e-03 7.71960300e-02
        2 -1    0    0  501    0 +0.0000000000e+00 +0.0000000000e+00 +2.9911415900e+03 2.9911415900e+03 0.0000000000e+00 0.0000e+00 -1.0000e+00
       -2 -1    0    0    0  501 -0.0000000000e+00 -0.0000000000e+00 -8.2020364512e+02 8.2020364512e+02 0.0000000000e+00 0.0000e+00 1.0000e+00
      -13  1    1    2    0    0 -6.5259602575e+02 -1.3651743971e+02 -6.3893967153e+02 9.2345139993e+02 0.0000000000e+00 0.0000e+00 1.0000e+00
       13  1    1    2    0    0 +6.5259602575e+02 +1.3651743971e+02 +2.8098776164e+03 2.8878938352e+03 0.0000000000e+00 0.0000e+00 -1.0000e+00
<mgrwt>
<rscale>  0 0.31326316E+04</rscale>
<asrwt>0</asrwt>
<pdfrwt beam="1">  1        2 0.46017562E+00 0.31326316E+04</pdfrwt>
<pdfrwt beam="2">  1       -2 0.12618518E+00 0.31326316E+04</pdfrwt>
<totfact> 0.83834962E-01</totfact>
</mgrwt>
<rwgt>
<wgt id='morphing_basis_vector_1'> +9.6341338e-05 </wgt>
<wgt id='morphing_basis_vector_2'> +6.5042618e-05 </wgt>
<wgt id='morphing_basis_vector_3'> +1.0512838e-04 </wgt>
<wgt id='morphing_basis_vector_4'> +7.5196259e-05 </wgt>
<wgt id='morphing_basis_vector_5'> +1.1989067e-04 </wgt>
</rwgt>
</event>
<event>
 4      1 +7.3133000e-09 2.72677500e+03 7.81860800e-03 7.82514900e-02
        2 -1    0    0  501    0 +0.0000000000e+00 +0.0000000000e+00 +2.8556105144e+03 2.8556105144e+03 0.0000000000e+00 0.0000e+00 -1.0000e+00
       -2 -1    0    0    0  501 -0.0000000000e+00 -0.0000000000e+00 -6.5093794225e+02 6.5093794225e+02 0.0000000000e+00 0.0000e+00 1.0000e+00
      -13  1    1    2    0    0 -8.3042948859e+02 -9.5436734337e+02 +4.4864502113e+02 1.3422788520e+03 0.0000000000e+00 0.0000e+00 1.0000e+00
       13  1    1    2    0    0 +8.3042948859e+02 +9.5436734337e+02 +1.7560275510e+03 2.1642696046e+03 0.0000000000e+00 0.0000e+00 -1.0000e+00
<mgrwt>
<rscale>  0 0.27267748E+04</rscale>
<asrwt>0</asrwt>
<pdfrwt beam="1">  1        2 0.43932469E+00 0.27267748E+04</pdfrwt>
<pdfrwt beam="2">  1       -2 0.10014430E+00 0.27267748E+04</pdfrwt>
<totfact> 0.19036073E+00</totfact>
</mgrwt>
<rwgt>
<wgt id='morphing_basis_vector_1'> +5.6057530e-05 </wgt>
<wgt id='morphing_basis_vector_2'> +3.8764181e-05 </wgt>
<wgt id='morphing_basis_vector_3'> +6.1079740e-05 </wgt>
<wgt id='morphing_basis_vector_4'> +4.2006431e-05 </wgt>
<wgt id='morphing_basis_vector_5'> +6.8390857e-05 </wgt>
</rwgt>
</event>
<event>
 4      1 +7.3133000e-09 2.86029400e+03 7.81860800e-03 7.78846800e-02
        2 -1    0    0  501    0 +0.0000000000e+00 +0.0000000000e+00 +3.5039548247e+03 3.5039548247e+03 0.0000000000e+00 0.0000e+00 1.0000e+00
       -2 -1    0    0    0  501 -0.0000000000e+00 -0.0000000000e+00 -5.8371753935e+02 5.8371753935e+02 0.0000000000e+00 0.0000e+00 -1.0000e+00
      -13  1    1    2    0    0 -4.4334311072e+02 +1.3222386649e+03 +1.9130621939e+03 2.3674195147e+03 0.0000000000e+00 0.0000e+00 1.0000e+00
       13  1    1    2    0    0 +4.4334311072e+02 -1.3222386649e+03 +1.0071750914e+03 1.7202528493e+03 0.0000000000e+00 0.0000e+00 -1.0000e+00
<mgrwt>
<rscale>  0 0.28602936E+04</rscale>
<asrwt>0</asrwt>
<pdfrwt beam="1">  1        2 0.53906996E+00 0.28602936E+04</pdfrwt>
<pdfrwt beam="2">  1       -2 0.89802701E-01 0.28602936E+04</pdfrwt>
<totfact> 0.88489542E-01</totfact>
</mgrwt>
<rwgt>
<wgt id='morphing_basis_vector_1'> +7.2481869e-05 </wgt>
<wgt id='morphing_basis_vector_2'> +6.0879559e-05 </wgt>
<wgt id='morphing_basis_vector_3'> +8.1331749e-05 </wgt>
<wgt id='morphing_basis_vector_4'> +4.1106590e-05 </wgt>
<wgt id='morphing_basis_vector_5'> +8.2157629e-05 </wgt>
</rwgt>
</event>
<event>
 4      1 +7.3133000e-09 2.67695800e+03 7.81860800e-03 7.83938500e-02
        2 -1    0    0  501    0 +0.0000000000e+00 +0.0000000000e+00 +2.2637935909e+03 2.2637935909e+03 0.0000000000e+00 0.0000e+00 -1.0000e+00
       -2 -1    0    0    0  501 -0.0000000000e+00 -0.0000000000e+00 -7.9138226226e+02 7.9138226226e+02 0.0000000000e+00 0.0000e+00 1.0000e+00
      -13  1    1    2    0    0 -3.7023237983e+02 -2.0366906311e+02 -7.1326088056e+02 8.2903207784e+02 0.0000000000e+00 0.0000e+00 1.0000e+00
       13  1    1    2    0    0 +3.7023237983e+02 +2.0366906311e+02 +2.1856722092e+03 2.2261437753e+03 0.0000000000e+00 0.0000e+00 -1.0000e+00
<mgrwt>
<rscale>  0 0.26769580E+04</rscale>
<asrwt>0</asrwt>
<pdfrwt beam="1">  1        2 0.34827593E+00 0.26769580E+04</pdfrwt>
<pdfrwt beam="2">  1       -2 0.12175112E+00 0.26769580E+04</pdfrwt>
<totfact> 0.26622968E+00</totfact>
</mgrwt>
<rwgt>
<wgt id='morphing_basis_vector_1'> +5.1686708e-05 </wgt>
<wgt id='morphing_basis_vector_2'> +3.4758846e-05 </wgt>
<wgt id='morphing_basis_vector_3'> +5.6079019e-05 </wgt>
<wgt id='morphing_basis_vector_4'> +3.9872251e-05 </wgt>
<wgt id='morphing_basis_vector_5'> +6.3549116e-05 </wgt>
</rwgt>
</event>
<event>
 4      1 +7.3133000e-09 2.91890600e+03 7.81860800e-03 7.77300200e-02
        2 -1    0    0  501    0 +0.0000000000e+00 +0.0000000000e+00 +1.4253900590e+03 1.4253900590e+03 0.0000000000e+00 0.0000e+00 -1.0000e+00
       -2 -1    0    0    0  501 -0.0000000000e+00 -0.0000000000e+00 -1.4943297326e+03 1.4943297326e+03 0.0000000000e+00 0.0000e+00 1.0000e+00
      -13  1    1    2    0    0 +1.3037377800e+03 +6.5489450074e+02 +2.7391891942e+00 1.4589813259e+03 0.0000000000e+00 0.0000e+00 1.0000e+00
       13  1    1    2    0    0 -1.3037377800e+03 -6.5489450074e+02 -7.1678862770e+01 1.4607384658e+03 0.0000000000e+00 0.0000e+00 -1.0000e+00
<mgrwt>
<rscale>  0 0.29189058E+04</rscale>
<asrwt>0</asrwt>
<pdfrwt beam="1">  1        2 0.21929078E+00 0.29189058E+04</pdfrwt>
<pdfrwt beam="2">  1       -2 0.22989688E+00 0.29189058E+04</pdfrwt>
<totfact> 0.10979986E+00</totfact>
</mgrwt>
<rwgt>
<wgt id='morphing_basis_vector_1'> +7.5725094e-05 </wgt>
<wgt id='morphing_basis_vector_2'> +5.7683529e-05 </wgt>
<wgt id='morphing_basis_vector_3'> +8.3815856e-05 </wgt>
<wgt id='morphing_basis_vector_4'> +5.0475058e-05 </wgt>
<wgt id='morphing_basis_vector_5'> +8.9650229e-05 </wgt>
</rwgt>
</event>
<event>
 4      1 +7.3133000e-09 3.09421300e+03 7.81860800e-03 7.72887100e-02
        2 -1    0    0  501    0 +0.0000000000e+00 +0.0000000000e+00 +1.5434546786e+03 1.5434546786e+03 0.0000000000e+00 0.0000e+00 -1.0000e+00
       -2 -1    0    0    0  501 -0.0000000000e+00 -0.0000000000e+00 -1.5507669527e+03 1.5507669527e+03 0.0000000000e+00 0.0000e+00 1.0000e+00
      -13  1    1    2    0    0 +1.2047423476e+03 -9.4224087911e+02 -2.3671581516e+02 1.5476615830e+03 0.0000000000e+00 0.0000e+00 1.0000e+00
       13  1    1    2    0    0 -1.2047423476e+03 +9.4224087911e+02 +2.2940354103e+02 1.5465600483e+03 0.0000000000e+00 0.0000e+00 -1.0000e+00
<mgrwt>
<rscale>  0 0.30942130E+04</rscale>
<asrwt>0</asrwt>
<pdfrwt beam="1">  1        2 0.23745457E+00 0.30942130E+04</pdfrwt>
<pdfrwt beam="2">  1       -2 0.23857953E+00 0.30942130E+04</pdfrwt>
<totfact> 0.80775496E-01</totfact>
</mgrwt>
<rwgt>
<wgt id='morphing_basis_vector_1'> +9.3653034e-05 </wgt>
<wgt id='morphing_basis_vector_2'> +6.7554177e-05 </wgt>
<wgt id='morphing_basis_vector_3'> +1.0307341e-04 </wgt>
<wgt id='morphing_basis_vector_4'> +6.7553953e-05 </wgt>
<wgt id='morphing_basis_vector_5'> +1.1374158e-04 </wgt>
</rwgt>
</event>
<event>
 4      1 +7.3133000e-09 2.79125400e+03 7.81860800e-03 7.80717500e-02
        2 -1    0    0  501    0 +0.0000000000e+00 +0.0000000000e+00 +1.7761621860e+03 1.7761621860e+03 0.0000000000e+00 0.0000e+00 -1.0000e+00
       -2 -1    0    0    0  501 -0.0000000000e+00 -0.0000000000e+00 -1.0966199243e+03 1.0966199243e+03 0.0000000000e+00 0.0000e+00 1.0000e+00
      -13  1    1    2    0    0 -4.6242573373e+01 +8.2141982136e+02 -8.2050142875e+02 1.1619343756e+03 0.0000000000e+00 0.0000e+00 1.0000e+00
       13  1    1    2    0    0 +4.6242573373e+01 -8.2141982136e+02 +1.5000436905e+03 1.7108477348e+03 0.0000000000e+00 0.0000e+00 -1.0000e+00
<mgrwt>
<rscale>  0 0.27912541E+04</rscale>
<asrwt>0</asrwt>
<pdfrwt beam="1">  1        2 0.27325572E+00 0.27912541E+04</pdfrwt>
<pdfrwt beam="2">  1       -2 0.16871076E+00 0.27912541E+04</pdfrwt>
<totfact> 0.19916234E+00</totfact>
</mgrwt>
<rwgt>
<wgt id='morphing_basis_vector_1'> +6.1010530e-05 </wgt>
<wgt id='morphing_basis_vector_2'> +4.1133499e-05 </wgt>
<wgt id='morphing_basis_vector_3'> +6.6319279e-05 </wgt>
<wgt id='morphing_basis_vector_4'> +4.7158012e-05 </wgt>
<wgt id='morphing_basis_vector_5'> +7.5247440e-05 </wgt>
</rwgt>
</event>
<event>
 4      1 +7.3133000e-09 2.85381800e+03 7.81860800e-03 7.79020000e-02
        2 -1    0    0  501    0 +0.0000000000e+00 +0.0000000000e+00 +1.0498205562e+03 1.0498205562e+03 0.0000000000e+00 0.0000e+00 -1.0000e+00
       -2 -1    0    0    0  501 -0.0000000000e+00 -0.0000000000e+00 -1.9394448595e+03 1.9394448595e+03 0.0000000000e+00 0.0000e+00 1.0000e+00
      -13  1    1    2    0    0 +1.0575837972e+03 +8.6580134861e+02 -8.7411005301e+02 1.6223944798e+03 0.0000000000e+00 0.0000e+00 1.0000e+00
       13  1    1    2    0    0 -1.0575837972e+03 -8.6580134861e+02 -1.5514250252e+01 1.3668709359e+03 0.0000000000e+00 0.0000e+00 -1.0000e+00
<mgrwt>
<rscale>  0 0.28538179E+04</rscale>
<asrwt>0</asrwt>
<pdfrwt beam="1">  1        2 0.16151086E+00 0.28538179E+04</pdfrwt>
<pdfrwt beam="2">  1       -2 0.29837613E+00 0.28538179E+04</pdfrwt>
<totfact> 0.61783892E-01</totfact>
</mgrwt>
<rwgt>
<wgt id='morphing_basis_vector_1'> +6.7380743e-05 </wgt>
<wgt id='morphing_basis_vector_2'> +4.7211434e-05 </wgt>
<wgt id='morphing_basis_vector_3'> +7.3667682e-05 </wgt>
<wgt id='morphing_basis_vector_4'> +4.9969385e-05 </wgt>
<wgt id='morphing_basis_vector_5'> +8.2165703e-05 </wgt>
</rwgt>
</event>
<event>
 4      1 +7.3133000e-09 3.15496900e+03 7.81860800e-03 7.71427700e-02
        2 -1    0    0  501    0 +0.0000000000e+00 +0.0000000000e+00 +2.0637828131e+03 2.0637828131e+03 0.0000000000e+00 0.0000e+00 -1.0000e+00
       -2 -1    0    0    0  501 -0.0000000000e+00 -0.0000000000e+00 -1.2057746166e+03 1.2057746166e+03 0.0000000000e+00 0.0000e+00 1.0000e+00
      -13  1    1    2    0    0 -3.4649922096e+02 +1.5359326057e+03 +5.2897676687e+02 1.6610138769e+03 0.0000000000e+00 0.0000e+00 1.0000e+00
       13  1    1    2    0    0 +3.4649922096e+02 -1.5359326057e+03 +3.2903142963e+02 1.6085435527e+03 0.0000000000e+00 0.0000e+00 -1.0000e+00
<mgrwt>
<rscale>  0 0.31549687E+04</rscale>
<asrwt>0</asrwt>
<pdfrwt beam="1">  1        2 0.31750505E+00 0.31549687E+04</pdfrwt>
<pdfrwt beam="2">  1       -2 0.18550379E+00 0.31549687E+04</pdfrwt>
<totfact> 0.99109962E-01</totfact>
</mgrwt>
<rwgt>
<wgt id='morphing_basis_vector_1'> +1.0361127e-04 </wgt>
<wgt id='morphing_basis_vector_2'> +8.0205528e-05 </wgt>
<wgt id='morphing_basis_vector_3'> +1.1526412e-04 </wgt>
<wgt id='morphing_basis_vector_4'> +6.7946346e-05 </wgt>
<wgt id='morphing_basis_vector_5'> +1.2259744e-04 </wgt>
</rwgt>
</event>
<event>
 4      1 +7.3133000e-09 2.87921800e+03 7.81860800e-03 7.78343400e-02
        2 -1    0    0  501    0 +0.0000000000e+00 +0.0000000000e+00 +3.2930992391e+03 3.2930992391e+03 0.0000000000e+00 0.0000e+00 1.0000e+00
       -2 -1    0    0    0  501 -0.0000000000e+00 -0.0000000000e+00 -6.2933832248e+02 6.2933832248e+02 0.0000000000e+00 0.0000e+00 -1.0000e+00
      -13  1    1    2    0    0 +1.8234347327e+02 +8.8225828800e+02 +2.8616018764e+03 3.0000656873e+03 0.0000000000e+00 0.0000e+00 1.0000e+00
       13  1    1    2    0    0 -1.8234347327e+02 -8.8225828800e+02 -1.9784095983e+02 9.2237187424e+02 0.0000000000e+00 0.0000e+00 -1.0000e+00
<mgrwt>
<rscale>  0 0.28792176E+04</rscale>
<asrwt>0</asrwt>
<pdfrwt beam="1">  1        2 0.50663064E+00 0.28792176E+04</pdfrwt>
<pdfrwt beam="2">  1       -2 0.96821282E-01 0.28792176E+04</pdfrwt>
<totfact> 0.10455349E+00</totfact>
</mgrwt>
<rwgt>
<wgt id='morphing_basis_vector_1'> +9.1390628e-05 </wgt>
<wgt id='morphing_basis_vector_2'> +1.1255578e-04 </wgt>
<wgt id='morphing_basis_vector_3'> +1.0997350e-04 </wgt>
<wgt id='morphing_basis_vector_4'> +6.9487925e-06 </wgt>
<wgt id='morphing_basis_vector_5'> +8.1484108e-05 </wgt>
</rwgt>
</event>
<event>
 4      1 +7.3133000e-09 2.75389100e+03 7.81860800e-03 7.81752900e-02
        2 -1    0    0  501    0 +0.0000000000e+00 +0.0000000000e+00 +2.8973876804e+03 2.8973876804e+03 0.0000000000e+00 0.0000e+00 -1.0000e+00
       -2 -1    0    0    0  501 -0.0000000000e+00 -0.0000000000e+00 -6.5437550533e+02 6.5437550533e+02 0.0000000000e+00 0.0000e+00 1.0000e+00
      -13  1    1    2    0    0 -5.7894067654e+02 -3.6902328070e+02 -4.1788185383e+02 8.0372615511e+02 0.0000000000e+00 0.0000e+00 1.0000e+00
       13  1    1    2    0    0 +5.7894067654e+02 +3.6902328070e+02 +2.6608940289e+03 2.7480370306e+03 0.0000000000e+00 0.0000e+00 -1.0000e+00
<mgrwt>
<rscale>  0 0.27538914E+04</rscale>
<asrwt>0</asrwt>
<pdfrwt beam="1">  1        2 0.44575194E+00 0.27538914E+04</pdfrwt>
<pdfrwt beam="2">  1       -2 0.10067316E+00 0.27538914E+04</pdfrwt>
<totfact> 0.17638015E+00</totfact>
</mgrwt>
<rwgt>
<wgt id='morphing_basis_vector_1'> +5.7827339e-05 </wgt>
<wgt id='morphing_basis_vector_2'> +3.8940903e-05 </wgt>
<wgt id='morphing_basis_vector_3'> +6.2819041e-05 </wgt>
<wgt id='morphing_basis_vector_4'> +4.4689204e-05 </wgt>
<wgt id='morphing_basis_vector_5'> +7.1261240e-05 </wgt>
</rwgt>
</event>
<event>
 4      1 +7.3133000e-09 3.04278700e+03 7.81860800e-03 7.74149700e-02
        2 -1    0    0  501    0 +0.0000000000e+00 +0.0000000000e+00 +1.8355091274e+03 1.8355091274e+03 0.0000000000e+00 0.0000e+00 -1.0000e+00
       -2 -1    0    0    0  501 -0.0000000000e+00 -0.0000000000e+00 -1.2610329870e+03 1.2610329870e+03 0.0000000000e+00 0.0000e+00 1.0000e+00
      -13  1    1    2    0    0 -3.6123694468e+02 -7.7667090716e+02 -9.9232443620e+02 1.3108842874e+03 0.0000000000e+00 0.0000e+00 1.0000e+00
       13  1    1    2    0    0 +3.6123694468e+02 +7.7667090716e+02 +1.5668005766e+03 1.7856578270e+03 0.0000000000e+00 0.0000e+00 -1.0000e+00
<mgrwt>
<rscale>  0 0.30427866E+04</rscale>
<asrwt>0</asrwt>
<pdfrwt beam="1">  1        2 0.28238602E+00 0.30427866E+04</pdfrwt>
<pdfrwt beam="2">  1       -2 0.19400508E+00 0.30427866E+04</pdfrwt>
<totfact> 0.11614973E+00</totfact>
</mgrwt>
<rwgt>
<wgt id='morphing_basis_vector_1'> +8.5863863e-05 </wgt>
<wgt id='morphing_basis_vector_2'> +5.7986244e-05 </wgt>
<wgt id='morphing_basis_vector_3'> +9.3619465e-05 </wgt>
<wgt id='morphing_basis_vector_4'> +6.6822665e-05 </wgt>
<wgt id='morphing_basis_vector_5'> +1.0660937e-04 </wgt>
</rwgt>
</event>
<event>
 4      1 +7.3133000e-09 3.05466800e+03 7.81860800e-03 7.73855700e-02
        2 -1    0    0  501    0 +0.0000000000e+00 +0.0000000000e+00 +2.8042640780e+03 2.8042640780e+03 0.0000000000e+00 0.0000e+00 -1.0000e+00
       -2 -1    0    0    0  501 -0.0000000000e+00 -0.0000000000e+00 -8.3185786505e+02 8.3185786505e+02 0.0000000000e+00 0.0000e+00 1.0000e+00
      -13  1    1    2    0    0 +9.6464303790e+02 +9.6121954480e+02 +1.8094137217e+03 2.2646097280e+03 0.0000000000e+00 0.0000e+00 1.0000e+00
       13  1    1    2    0    0 -9.6464303790e+02 -9.6121954480e+02 +1.6299249127e+02 1.3715122151e+03 0.0000000000e+00 0.0000e+00 -1.0000e+00
<mgrwt>
<rscale>  0 0.30546680E+04</rscale>
<asrwt>0</asrwt>
<pdfrwt beam="1">  1        2 0.43142524E+00 0.30546680E+04</pdfrwt>
<pdfrwt beam="2">  1       -2 0.12797813E+00 0.30546680E+04</pdfrwt>
<totfact> 0.10703067E+00</totfact>
</mgrwt>
<rwgt>
<wgt id='morphing_basis_vector_1'> +1.0127936e-04 </wgt>
<wgt id='morphing_basis_vector_2'> +1.0035029e-04 </wgt>
<wgt id='morphing_basis_vector_3'> +1.1716957e-04 </wgt>
<wgt id='morphing_basis_vector_4'> +3.8531390e-05 </wgt>
<wgt id='morphing_basis_vector_5'> +1.0588395e-04 </wgt>
</rwgt>
</event>
<event>
 4      1 +7.3133000e-09 2.71225400e+03 7.81860800e-03 7.82926600e-02
        2 -1    0    0  501    0 +0.0000000000e+00 +0.0000000000e+00 +2.5853415074e+03 2.5853415074e+03 0.0000000000e+00 0.0000e+00 -1.0000e+00
       -2 -1    0    0    0  501 -0.0000000000e+00 -0.0000000000e+00 -7.1134935884e+02 7.1134935884e+02 0.0000000000e+00 0.0000e+00 1.0000e+00
      -13  1    1    2    0    0 +8.9097948573e+02 -4.6421638934e+01 -3.0439020850e+02 9.4268383437e+02 0.0000000000e+00 0.0000e+00 1.0000e+00
       13  1    1    2    0    0 -8.9097948573e+02 +4.6421638934e+01 +2.1783823571e+03 2.3540070319e+03 0.0000000000e+00 0.0000e+00 -1.0000e+00
<mgrwt>
<rscale>  0 0.27122544E+04</rscale>
<asrwt>0</asrwt>
<pdfrwt beam="1">  1        2 0.39774484E+00 0.27122544E+04</pdfrwt>
<pdfrwt beam="2">  1       -2 0.10943836E+00 0.27122544E+04</pdfrwt>
<totfact> 0.22514817E+00</totfact>
</mgrwt>
<rwgt>
<wgt id='morphing_basis_vector_1'> +5.4477424e-05 </wgt>
<wgt id='morphing_basis_vector_2'> +3.6744741e-05 </wgt>
<wgt id='morphing_basis_vector_3'> +5.9158518e-05 </wgt>
<wgt id='morphing_basis_vector_4'> +4.1953219e-05 </wgt>
<wgt id='morphing_basis_vector_5'> +6.6999128e-05 </wgt>
</rwgt>
</event>
<event>
 4      1 +7.3133000e-09 2.79181600e+03 7.81860800e-03 7.80702000e-02
        2 -1    0    0  501    0 +0.0000000000e+00 +0.0000000000e+00 +2.8254525287e+03 2.8254525287e+03 0.0000000000e+00 0.0000e+00 -1.0000e+00
       -2 -1    0    0    0  501 -0.0000000000e+00 -0.0000000000e+00 -6.8964495257e+02 6.8964495257e+02 0.0000000000e+00 0.0000e+00 1.0000e+00
      -13  1    1    2    0    0 +1.1923197573e+02 +1.3488646066e+03 +6.4110420013e+02 1.4982211407e+03 0.0000000000e+00 0.0000e+00 1.0000e+00
       13  1    1    2    0    0 -1.1923197573e+02 -1.3488646066e+03 +1.4947033760e+03 2.0168763406e+03 0.0000000000e+00 0.0000e+00 -1.0000e+00
<mgrwt>
<rscale>  0 0.27918160E+04</rscale>
<asrwt>0</asrwt>
<pdfrwt beam="1">  1        2 0.43468500E+00 0.27918160E+04</pdfrwt>
<pdfrwt beam="2">  1       -2 0.10609922E+00 0.27918160E+04</pdfrwt>
<totfact> 0.17171950E+00</totfact>
</mgrwt>
<rwgt>
<wgt id='morphing_basis_vector_1'> +6.1917759e-05 </wgt>
<wgt id='morphing_basis_vector_2'> +4.3696898e-05 </wgt>
<wgt id='morphing_basis_vector_3'> +6.7704725e-05 </wgt>
<wgt id='morphing_basis_vector_4'> +4.5418671e-05 </wgt>
<wgt id='morphing_basis_vector_5'> +7.5163280e-05 </wgt>
</rwgt>
</event>
<event>
 4      1 +7.3133000e-09 2.72485700e+03 7.81860800e-03 7.82569100e-02
        2 -1    0    0  501    0 +0.0000000000e+00 +0.0000000000e+00 +7.5890380945e+02 7.5890380945e+02 0.0000000000e+00 0.0000e+00 1.0000e+00
       -2 -1    0    0    0  501 -0.0000000000e+00 -0.0000000000e+00 -2.4459109071e+03 2.4459109071e+03 0.0000000000e+00 0.0000e+00 -1.0000e+00
      -13  1    1    2    0    0 -5.5359237682e+02 +6.7614083938e+02 -2.0728828605e+03 2.2495498011e+03 0.0000000000e+00 0.0000e+00 -1.0000e+00
       13  1    1    2    0    0 +5.5359237682e+02 -6.7614083938e+02 +3.8587576284e+02 9.5526491545e+02 0.0000000000e+00 0.0000e+00 1.0000e+00
<mgrwt>
<rscale>  0 0.27248568E+04</rscale>
<asrwt>0</asrwt>
<pdfrwt beam="1">  1        2 0.11675443E+00 0.27248568E+04</pdfrwt>
<pdfrwt beam="2">  1       -2 0.37629398E+00 0.27248568E+04</pdfrwt>
<totfact> 0.29823524E-01</totfact>
</mgrwt>
<rwgt>
<wgt id='morphing_basis_vector_1'> +5.5480079e-05 </wgt>
<wgt id='morphing_basis_vector_2'> +3.7412877e-05 </wgt>
<wgt id='morphing_basis_vector_3'> +6.0256191e-05 </wgt>
<wgt id='morphing_basis_vector_4'> +4.2758260e-05 </wgt>
<wgt id='morphing_basis_vector_5'> +6.8267686e-05 </wgt>
</rwgt>
</event>
<event>
 4      1 +7.3133000e-09 2.70912600e+03 7.81860800e-03 7.83015700e-02
        2 -1    0    0  501    0 +0.0000000000e+00 +0.0000000000e+00 +2.7735482726e+03 2.7735482726e+03 0.0000000000e+00 0.0000e+00 1.0000e+00
       -2 -1    0    0    0  501 -0.0000000000e+00 -0.0000000000e+00 -6.6154988658e+02 6.6154988658e+02 0.0000000000e+00 0.0000e+00 -1.0000e+00
      -13  1    1    2    0    0 +6.7368849195e+02 +5.9783796088e+02 +2.3388307744e+03 2.5062712947e+03 0.0000000000e+00 0.0000e+00 -1.0000e+00
       13  1    1    2    0    0 -6.7368849195e+02 -5.9783796088e+02 -2.2683238838e+02 9.2882686442e+02 0.0000000000e+00 0.0000e+00 1.0000e+00
<mgrwt>
<rscale>  0 0.27091257E+04</rscale>
<asrwt>0</asrwt>
<pdfrwt beam="1">  1        2 0.42669973E+00 0.27091257E+04</pdfrwt>
<pdfrwt beam="2">  1       -2 0.10177691E+00 0.27091257E+04</pdfrwt>
<totfact> 0.20644311E+00</totfact>
</mgrwt>
<rwgt>
<wgt id='morphing_basis_vector_1'> +7.1043374e-05 </wgt>
<wgt id='morphing_basis_vector_2'> +8.6144916e-05 </wgt>
<wgt id='morphing_basis_vector_3'> +8.4865604e-05 </wgt>
<wgt id='morphing_basis_vector_4'> +7.0351083e-06 </wgt>
<wgt id='morphing_basis_vector_5'> +6.3853850e-05 </wgt>
</rwgt>
</event>
<event>
 4      1 +7.3133000e-09 3.09043600e+03 7.81860800e-03 7.72979000e-02
        2 -1    0    0  501    0 +0.0000000000e+00 +0.0000000000e+00 +2.7110108254e+03 2.7110108254e+03 0.0000000000e+00 0.0000e+00 1.0000e+00
       -2 -1    0    0    0  501 -0.0000000000e+00 -0.0000000000e+00 -8.8074091870e+02 8.8074091870e+02 0.0000000000e+00 0.0000e+00 -1.0000e+00
      -13  1    1    2    0    0 +5.8666473542e+01 +8.5498380175e+02 -5.7923134605e+02 1.0343829120e+03 0.0000000000e+00 0.0000e+00 -1.0000e+00
       13  1    1    2    0    0 -5.8666473542e+01 -8.5498380175e+02 +2.4095012527e+03 2.5573688321e+03 0.0000000000e+00 0.0000e+00 1.0000e+00
<mgrwt>
<rscale>  0 0.30904357E+04</rscale>
<asrwt>0</asrwt>
<pdfrwt beam="1">  1        2 0.41707858E+00 0.30904357E+04</pdfrwt>
<pdfrwt beam="2">  1       -2 0.13549860E+00 0.30904357E+04</pdfrwt>
<totfact> 0.10457449E+00</totfact>
</mgrwt>
<rwgt>
<wgt id='morphing_basis_vector_1'> +9.1318238e-05 </wgt>
<wgt id='morphing_basis_vector_2'> +6.1684305e-05 </wgt>
<wgt id='morphing_basis_vector_3'> +9.9615324e-05 </wgt>
<wgt id='morphing_basis_vector_4'> +7.1149096e-05 </wgt>
<wgt id='morphing_basis_vector_5'> +1.1350594e-04 </wgt>
</rwgt>
</event>
<event>
 4      1 +7.3133000e-09 2.68190800e+03 7.81860800e-03 7.83795600e-02
        2 -1    0    0  501    0 +0.0000000000e+00 +0.0000000000e+00 +1.8287425828e+03 1.8287425828e+03 0.0000000000e+00 0.0000e+00 1.0000e+00
       -2 -1    0    0    0  501 -0.0000000000e+00 -0.0000000000e+00 -9.8327548582e+02 9.8327548582e+02 0.0000000000e+00 0.0000e+00 -1.0000e+00
      -13  1    1    2    0    0 -1.0096311960e+03 +4.4254475034e+02 -3.7782367723e+02 1.1653118634e+03 0.0000000000e+00 0.0000e+00 -1.0000e+00
       13  1    1    2    0    0 +1.0096311960e+03 -4.4254475034e+02 +1.2232907742e+03 1.6467062052e+03 0.0000000000e+00 0.0000e+00 1.0000e+00
<mgrwt>
<rscale>  0 0.26819081E+04</rscale>
<asrwt>0</asrwt>
<pdfrwt beam="1">  1        2 0.28134501E+00 0.26819081E+04</pdfrwt>
<pdfrwt beam="2">  1       -2 0.15127315E+00 0.26819081E+04</pdfrwt>
<totfact> 0.25924328E+00</totfact>
</mgrwt>
<rwgt>
<wgt id='morphing_basis_vector_1'> +5.2222576e-05 </wgt>
<wgt id='morphing_basis_vector_2'> +3.5477979e-05 </wgt>
<wgt id='morphing_basis_vector_3'> +5.6736638e-05 </wgt>
<wgt id='morphing_basis_vector_4'> +3.9847535e-05 </wgt>
<wgt id='morphing_basis_vector_5'> +6.3999341e-05 </wgt>
</rwgt>
</event>
<event>
 4      1 +7.3133000e-09 3.05563800e+03 7.81860800e-03 7.73831800e-02
        2 -1    0    0  501    0 +0.0000000000e+00 +0.0000000000e+00 +1.6778379215e+03 1.6778379215e+03 0.0000000000e+00 0.0000e+00 -1.0000e+00
       -2 -1    0    0    0  501 -0.0000000000e+00 -0.0000000000e+00 -1.3912136186e+03 1.3912136186e+03 0.0000000000e+00 0.0000e+00 1.0000e+00
      -13  1    1    2    0    0 +6.8356703810e+02 -1.1180739863e+03 -6.4555120756e+02 1.4608523868e+03 0.0000000000e+00 0.0000e+00 1.0000e+00
       13  1    1    2    0    0 -6.8356703810e+02 +1.1180739863e+03 +9.3217551048e+02 1.6081991533e+03 0.0000000000e+00 0.0000e+00 -1.0000e+00
<mgrwt>
<rscale>  0 0.30556380E+04</rscale>
<asrwt>0</asrwt>
<pdfrwt beam="1">  1        2 0.25812891E+00 0.30556380E+04</pdfrwt>
<pdfrwt beam="2">  1       -2 0.21403286E+00 0.30556380E+04</pdfrwt>
<totfact> 0.10160910E+00</totfact>
</mgrwt>
<rwgt>
<wgt id='morphing_basis_vector_1'> +8.7641067e-05 </wgt>
<wgt id='morphing_basis_vector_2'> +5.9941243e-05 </wgt>
<wgt id='morphing_basis_vector_3'> +9.5728210e-05 </wgt>
<wgt id='morphing_basis_vector_4'> +6.7279695e-05 </wgt>
<wgt id='morphing_basis_vector_5'> +1.0838092e-04 </wgt>
</rwgt>
</event>
<event>
 4      1 +7.3133000e-09 2.97367700e+03 7.81860800e-03 7.75887800e-02
        2 -1    0    0  501    0 +0.0000000000e+00 +0.0000000000e+00 +1.9826441009e+03 1.9826441009e+03 0.0000000000e+00 0.0000e+00 -1.0000e+00
       -2 -1    0    0    0  501 -0.0000000000e+00 -0.0000000000e+00 -1.1150201153e+03 1.1150201153e+03 0.0000000000e+00 0.0000e+00 1.0000e+00
      -13  1    1    2    0    0 +3.0916110370e+02 +1.0939651771e+03 -5.6444916286e+02 1.2692293938e+03 0.0000000000e+00 0.0000e+00 1.0000e+00
       13  1    1    2    0    0 -3.0916110370e+02 -1.0939651771e+03 +1.4320731485e+03 1.8284348223e+03 0.0000000000e+00 0.0000e+00 -1.0000e+00
<mgrwt>
<rscale>  0 0.29736765E+04</rscale>
<asrwt>0</asrwt>
<pdfrwt beam="1">  1        2 0.30502217E+00 0.29736765E+04</pdfrwt>
<pdfrwt beam="2">  1       -2 0.17154156E+00 0.29736765E+04</pdfrwt>
<totfact> 0.14288676E+00</totfact>
</mgrwt>
<rwgt>
<wgt id='morphing_basis_vector_1'> +7.8509502e-05 </wgt>
<wgt id='morphing_basis_vector_2'> +5.3265087e-05 </wgt>
<wgt id='morphing_basis_vector_3'> +8.5591667e-05 </wgt>
<wgt id='morphing_basis_vector_4'> +6.0658429e-05 </wgt>
<wgt id='morphing_basis_vector_5'> +9.7149641e-05 </wgt>
</rwgt>
</event>
<event>
 4      1 +7.3133000e-09 2.83225900e+03 7.81860800e-03 7.79599900e-02
        2 -1    0    0  501    0 +0.0000000000e+00 +0.0000000000e+00 +2.7500863978e+03 2.7500863978e+03 0.0000000000e+00 0.0000e+00 1.0000e+00
       -2 -1    0    0    0  501 -0.0000000000e+00 -0.0000000000e+00 -7.2922161034e+02 7.2922161034e+02 0.0000000000e+00 0.0000e+00 -1.0000e+00
      -13  1    1    2    0    0 -6.8740581557e+02 +4.6897899810e+02 -3.9718545223e+02 9.2207610283e+02 0.0000000000e+00 0.0000e+00 1.0000e+00
       13  1    1    2    0    0 +6.8740581557e+02 -4.6897899810e+02 +2.4180502396e+03 2.5572319053e+03 0.0000000000e+00 0.0000e+00 -1.0000e+00
<mgrwt>
<rscale>  0 0.28322588E+04</rscale>
<asrwt>0</asrwt>
<pdfrwt beam="1">  1        2 0.42309021E+00 0.28322588E+04</pdfrwt>
<pdfrwt beam="2">  1       -2 0.11218794E+00 0.28322588E+04</pdfrwt>
<totfact> 0.16592654E+00</totfact>
</mgrwt>
<rwgt>
<wgt id='morphing_basis_vector_1'> +6.4635995e-05 </wgt>
<wgt id='morphing_basis_vector_2'> +4.3592335e-05 </wgt>
<wgt id='morphing_basis_vector_3'> +7.0299214e-05 </wgt>
<wgt id='morphing_basis_vector_4'> +5.0020381e-05 </wgt>
<wgt id='morphing_basis_vector_5'> +7.9814578e-05 </wgt>
</rwgt>
</event>
<event>
 4      1 +7.3133000e-09 3.09775600e+03 7.81860800e-03 7.72801000e-02
        2 -1    0    0  501    0 +0.0000000000e+00 +0.0000000000e+00 +3.3255990771e+03 3.3255990771e+03 0.0000000000e+00 0.0000e+00 -1.0000e+00
       -2 -1    0    0    0  501 -0.0000000000e+00 -0.0000000000e+00 -7.2138053056e+02 7.2138053056e+02 0.0000000000e+00 0.0000e+00 1.0000e+00
      -13  1    1    2    0    0 -9.0788873015e+01 -1.4574427738e+03 +1.9767100188e+03 2.4575932448e+03 0.0000000000e+00 0.0000e+00 1.0000e+00
       13  1    1    2    0    0 +9.0788873015e+01 +1.4574427738e+03 +6.2750852777e+02 1.5893863629e+03 0.0000000000e+00 0.0000e+00 -1.0000e+00
<mgrwt>
<rscale>  0 0.30977556E+04</rscale>
<asrwt>0</asrwt>
<pdfrwt beam="1">  1        2 0.51163062E+00 0.30977556E+04</pdfrwt>
<pdfrwt beam="2">  1       -2 0.11098162E+00 0.30977556E+04</pdfrwt>
<totfact> 0.69702276E-01</totfact>
</mgrwt>
<rwgt>
<wgt id='morphing_basis_vector_1'> +1.0258605e-04 </wgt>
<wgt id='morphing_basis_vector_2'> +9.2910279e-05 </wgt>
<wgt id='morphing_basis_vector_3'> +1.1690866e-04 </wgt>
<wgt id='morphing_basis_vector_4'> +5.0114271e-05 </wgt>
<wgt id='morphing_basis_vector_5'> +1.1280589e-04 </wgt>
</rwgt>
</event>
<event>
 4      1 +7.3133000e-09 2.89551600e+03 7.81860800e-03 7.77912900e-02
        2 -1    0    0  501    0 +0.0000000000e+00 +0.0000000000e+00 +1.1813741762e+03 1.1813741762e+03 0.0000000000e+00 0.0000e+00 -1.0000e+00
       -2 -1    0    0    0  501 -0.0000000000e+00 -0.0000000000e+00 -1.7742077443e+03 1.7742077443e+03 0.0000000000e+00 0.0000e+00 1.0000e+00
      -13  1    1    2    0    0 -1.1970129839e+03 -6.2107310123e+02 -8.3406076344e+02 1.5856321256e+03 0.0000000000e+00 0.0000e+00 1.0000e+00
       13  1    1    2    0    0 +1.1970129839e+03 +6.2107310123e+02 +2.4122719526e+02 1.3699497949e+03 0.0000000000e+00 0.0000e+00 -1.0000e+00
<mgrwt>
<rscale>  0 0.28955160E+04</rscale>
<asrwt>0</asrwt>
<pdfrwt beam="1">  1        2 0.18174987E+00 0.28955160E+04</pdfrwt>
<pdfrwt beam="2">  1       -2 0.27295504E+00 0.28955160E+04</pdfrwt>
<totfact> 0.76462784E-01</totfact>
</mgrwt>
<rwgt>
<wgt id='morphing_basis_vector_1'> +7.1123490e-05 </wgt>
<wgt id='morphing_basis_vector_2'> +4.9307287e-05 </wgt>
<wgt id='morphing_basis_vector_3'> +7.7690336e-05 </wgt>
<wgt id='morphing_basis_vector_4'> +5.3485010e-05 </wgt>
<wgt id='morphing_basis_vector_5'> +8.7163985e-05 </wgt>
</rwgt>
</event>
<event>
 4      1 +7.3133000e-09 2.68225800e+03 7.81860800e-03 7.83785500e-02
        2 -1    0    0  501    0 +0.0000000000e+00 +0.0000000000e+00 +1.5215087607e+03 1.5215087607e+03 0.0000000000e+00 0.0000e+00 1.0000e+00
       -2 -1    0    0    0  501 -0.0000000000e+00 -0.0000000000e+00 -1.1821340408e+03 1.1821340408e+03 0.0000000000e+00 0.0000e+00 -1.0000e+00
      -13  1    1    2    0    0 +7.3299381013e+02 -1.0780765057e+03 -1.4762142452e+02 1.3119912206e+03 0.0000000000e+00 0.0000e+00 1.0000e+00
       13  1    1    2    0    0 -7.3299381013e+02 +1.0780765057e+03 +4.8699614448e+02 1.3916515809e+03 0.0000000000e+00 0.0000e+00 -1.0000e+00
<mgrwt>
<rscale>  0 0.26822582E+04</rscale>
<asrwt>0</asrwt>
<pdfrwt beam="1">  1        2 0.23407827E+00 0.26822582E+04</pdfrwt>
<pdfrwt beam="2">  1       -2 0.18186678E+00 0.26822582E+04</pdfrwt>
<totfact> 0.22076642E+00</totfact>
</mgrwt>
<rwgt>
<wgt id='morphing_basis_vector_1'> +5.2873079e-05 </wgt>
<wgt id='morphing_basis_vector_2'> +3.7334826e-05 </wgt>
<wgt id='morphing_basis_vector_3'> +5.7728307e-05 </wgt>
<wgt id='morphing_basis_vector_4'> +3.8582061e-05 </wgt>
<wgt id='morphing_basis_vector_5'> +6.3928246e-05 </wgt>
</rwgt>
</event>
<event>
 4      1 +7.3133000e-09 2.92943100e+03 7.81860800e-03 7.77026300e-02
        2 -1    0    0  501    0 +0.0000000000e+00 +0.0000000000e+00 +1.9054193698e+03 1.9054193698e+03 0.0000000000e+00 0.0000e+00 -1.0000e+00
       -2 -1    0    0    0  501 -0.0000000000e+00 -0.0000000000e+00 -1.1259422102e+03 1.1259422102e+03 0.0000000000e+00 0.0000e+00 1.0000e+00
      -13  1    1    2    0    0 -1.1288007424e+03 +9.0617039461e+02 +1.5822134221e+02 1.4561489942e+03 0.0000000000e+00 0.0000e+00 1.0000e+00
       13  1    1    2    0    0 +1.1288007424e+03 -9.0617039461e+02 +6.2125581740e+02 1.5752125859e+03 0.0000000000e+00 0.0000e+00 -1.0000e+00
<mgrwt>
<rscale>  0 0.29294314E+04</rscale>
<asrwt>0</asrwt>
<pdfrwt beam="1">  1        2 0.29314144E+00 0.29294314E+04</pdfrwt>
<pdfrwt beam="2">  1       -2 0.17322188E+00 0.29294314E+04</pdfrwt>
<totfact> 0.15378315E+00</totfact>
</mgrwt>
<rwgt>
<wgt id='morphing_basis_vector_1'> +7.5376505e-05 </wgt>
<wgt id='morphing_basis_vector_2'> +5.4285087e-05 </wgt>
<wgt id='morphing_basis_vector_3'> +8.2790204e-05 </wgt>
<wgt id='morphing_basis_vector_4'> +5.4198756e-05 </wgt>
<wgt id='morphing_basis_vector_5'> +9.1207406e-05 </wgt>
</rwgt>
</event>
<event>
 4      1 +7.3133000e-09 3.14659400e+03 7.81860800e-03 7.71626800e-02
        2 -1    0    0  501    0 +0.0000000000e+00 +0.0000000000e+00 +1.2440010327e+03 1.2440010327e+03 0.0000000000e+00 0.0000e+00 -1.0000e+00
       -2 -1    0    0    0  501 -0.0000000000e+00 -0.0000000000e+00 -1.9897599896e+03 1.9897599896e+03 0.0000000000e+00 0.0000e+00 1.0000e+00
      -13  1    1    2    0    0 -9.1835282053e+02 +1.4569330039e+02 -1.6771564468e+03 1.9176684249e+03 0.0000000000e+00 0.0000e+00 1.0000e+00
       13  1    1    2    0    0 +9.1835282053e+02 -1.4569330039e+02 +9.3139748996e+02 1.3160925974e+03 0.0000000000e+00 0.0000e+00 -1.0000e+00
<mgrwt>
<rscale>  0 0.31465940E+04</rscale>
<asrwt>0</asrwt>
<pdfrwt beam="1">  1        2 0.19138477E+00 0.31465940E+04</pdfrwt>
<pdfrwt beam="2">  1       -2 0.30611692E+00 0.31465940E+04</pdfrwt>
<totfact> 0.41024608E-01</totfact>
</mgrwt>
<rwgt>
<wgt id='morphing_basis_vector_1'> +9.8091754e-05 </wgt>
<wgt id='morphing_basis_vector_2'> +6.6311357e-05 </wgt>
<wgt id='morphing_basis_vector_3'> +1.0707034e-04 </wgt>
<wgt id='morphing_basis_vector_4'> +7.6481890e-05 </wgt>
<wgt id='morphing_basis_vector_5'> +1.2205385e-04 </wgt>
</rwgt>
</event>
<event>
 4      1 +7.3133000e-09 2.88170900e+03 7.81860800e-03 7.78277400e-02
        2 -1    0    0  501    0 +0.0000000000e+00 +0.0000000000e+00 +1.2217302796e+03 1.2217302796e+03 0.0000000000e+00 0.0000e+00 -1.0000e+00
       -2 -1    0    0    0  501 -0.0000000000e+00 -0.0000000000e+00 -1.6992796239e+03 1.6992796239e+03 0.0000000000e+00 0.0000e+00 1.0000e+00
      -13  1    1    2    0    0 -2.0193162036e+01 -1.2512627768e+03 -9.6265359042e+02 1.5788502892e+03 0.0000000000e+00 0.0000e+00 1.0000e+00
       13  1    1    2    0    0 +2.0193162036e+01 +1.2512627768e+03 +4.8510424618e+02 1.3421596143e+03 0.0000000000e+00 0.0000e+00 -1.0000e+00
<mgrwt>
<rscale>  0 0.28817088E+04</rscale>
<asrwt>0</asrwt>
<pdfrwt beam="1">  1        2 0.18795850E+00 0.28817088E+04</pdfrwt>
<pdfrwt beam="2">  1       -2 0.26142763E+00 0.28817088E+04</pdfrwt>
<totfact> 0.86979950E-01</totfact>
</mgrwt>
<rwgt>
<wgt id='morphing_basis_vector_1'> +6.9507067e-05 </wgt>
<wgt id='morphing_basis_vector_2'> +4.7544999e-05 </wgt>
<wgt id='morphing_basis_vector_3'> +7.5779576e-05 </wgt>
<wgt id='morphing_basis_vector_4'> +5.3049288e-05 </wgt>
<wgt id='morphing_basis_vector_5'> +8.5545754e-05 </wgt>
</rwgt>
</event>
<event>
 4      1 +7.3133000e-09 3.09408300e+03 7.81860800e-03 7.72890300e-02
        2 -1    0    0  501    0 +0.0000000000e+00 +0.0000000000e+00 +9.1941335133e+02 9.1941335133e+02 0.0000000000e+00 0.0000e+00 -1.0000e+00
       -2 -1    0    0    0  501 -0.0000000000e+00 -0.0000000000e+00 -2.6031130649e+03 2.6031130649e+03 0.0000000000e+00 0.0000e+00 1.0000e+00
      -13  1    1    2    0    0 +6.2202447049e+02 -1.1320463578e+03 -1.8111526170e+03 2.2245712396e+03 0.0000000000e+00 0.0000e+00 1.0000e+00
       13  1    1    2    0    0 -6.2202447049e+02 +1.1320463578e+03 +1.2745290340e+02 1.2979551767e+03 0.0000000000e+00 0.0000e+00 -1.0000e+00
<mgrwt>
<rscale>  0 0.30940827E+04</rscale>
<asrwt>0</asrwt>
<pdfrwt beam="1">  1        2 0.14144821E+00 0.30940827E+04</pdfrwt>
<pdfrwt beam="2">  1       -2 0.40047893E+00 0.30940827E+04</pdfrwt>
<totfact> 0.15699476E-01</totfact>
</mgrwt>
<rwgt>
<wgt id='morphing_basis_vector_1'> +9.2026676e-05 </wgt>
<wgt id='morphing_basis_vector_2'> +6.2800340e-05 </wgt>
<wgt id='morphing_basis_vector_3'> +1.0052634e-04 </wgt>
<wgt id='morphing_basis_vector_4'> +7.0903373e-05 </wgt>
<wgt id='morphing_basis_vector_5'> +1.1399900e-04 </wgt>
</rwgt>
</event>
<event>
 4      1 +7.3133000e-09 2.75602000e+03 7.81860800e-03 7.81693500e-02
        2 -1    0    0  501    0 +0.0000000000e+00 +0.0000000000e+00 +2.8572997068e+03 2.8572997068e+03 0.0000000000e+00 0.0000e+00 -1.0000e+00
       -2 -1    0    0    0  501 -0.0000000000e+00 -0.0000000000e+00 -6.6458235089e+02 6.6458235089e+02 0.0000000000e+00 0.0000e+00 1.0000e+00
      -13  1    1    2    0    0 +8.3677841251e+02 -1.5426586534e+02 -2.8878784328e+02 8.9855132702e+02 0.0000000000e+00 0.0000e+00 1.0000e+00
       13  1    1    2    0    0 -8.3677841251e+02 +1.5426586534e+02 +2.4815051992e+03 2.6233307307e+03 0.0000000000e+00 0.0000e+00 -1.0000e+00
<mgrwt>
<rscale>  0 0.27560196E+04</rscale>
<asrwt>0</asrwt>
<pdfrwt beam="1">  1        2 0.43958456E+00 0.27560196E+04</pdfrwt>
<pdfrwt beam="2">  1       -2 0.10224344E+00 0.27560196E+04</pdfrwt>
<totfact> 0.18010728E+00</totfact>
</mgrwt>
<rwgt>
<wgt id='morphing_basis_vector_1'> +5.8026008e-05 </wgt>
<wgt id='morphing_basis_vector_2'> +3.9124668e-05 </wgt>
<wgt id='morphing_basis_vector_3'> +6.3046803e-05 </wgt>
<wgt id='morphing_basis_vector_4'> +4.4784165e-05 </wgt>
<wgt id='morphing_basis_vector_5'> +7.1480436e-05 </wgt>
</rwgt>
</event>
<event>
 4      1 +7.3133000e-09 2.90582700e+03 7.81860800e-03 7.77642100e-02
        2 -1    0    0  501    0 +0.0000000000e+00 +0.0000000000e+00 +2.8675126700e+03 2.8675126700e+03 0.0000000000e+00 0.0000e+00 -1.0000e+00
       -2 -1    0    0    0  501 -0.0000000000e+00 -0.0000000000e+00 -7.3616345761e+02 7.3616345761e+02 0.0000000000e+00 0.0000e+00 1.0000e+00
      -13  1    1    2    0    0 +5.3582555655e+01 +1.4272574327e+03 +7.3517116185e+02 1.6063659318e+03 0.0000000000e+00 0.0000e+00 1.0000e+00
       13  1    1    2    0    0 -5.3582555655e+01 -1.4272574327e+03 +1.3961780506e+03 1.9973101959e+03 0.0000000000e+00 0.0000e+00 -1.0000e+00
<mgrwt>
<rscale>  0 0.29058273E+04</rscale>
<asrwt>0</asrwt>
<pdfrwt beam="1">  1        2 0.44115579E+00 0.29058273E+04</pdfrwt>
<pdfrwt beam="2">  1       -2 0.11325592E+00 0.29058273E+04</pdfrwt>
<totfact> 0.13582534E+00</totfact>
</mgrwt>
<rwgt>
<wgt id='morphing_basis_vector_1'> +7.2831323e-05 </wgt>
<wgt id='morphing_basis_vector_2'> +5.2070364e-05 </wgt>
<wgt id='morphing_basis_vector_3'> +7.9892767e-05 </wgt>
<wgt id='morphing_basis_vector_4'> +5.2805658e-05 </wgt>
<wgt id='morphing_basis_vector_5'> +8.8305018e-05 </wgt>
</rwgt>
</event>
<event>
 4      1 +7.3133000e-09 2.78484000e+03 7.81860800e-03 7.80894100e-02
        2 -1    0    0  501    0 +0.0000000000e+00 +0.0000000000e+00 +2.6157536095e+03 2.6157536095e+03 0.0000000000e+00 0.0000e+00 -1.0000e+00
       -2 -1    0    0    0  501 -0.0000000000e+00 -0.0000000000e+00 -7.4121435961e+02 7.4121435961e+02 0.0000000000e+00 0.0000e+00 1.0000e+00
      -13  1    1    2    0    0 -7.2404137435e+02 -6.3712701733e+02 -2.7338666522e+02 1.0024505059e+03 0.0000000000e+00 0.0000e+00 1.0000e+00
       13  1    1    2    0    0 +7.2404137435e+02 +6.3712701733e+02 +2.1479259151e+03 2.3545174632e+03 0.0000000000e+00 0.0000e+00 -1.0000e+00
<mgrwt>
<rscale>  0 0.27848405E+04</rscale>
<asrwt>0</asrwt>
<pdfrwt beam="1">  1        2 0.40242363E+00 0.27848405E+04</pdfrwt>
<pdfrwt beam="2">  1       -2 0.11403298E+00 0.27848405E+04</pdfrwt>
<totfact> 0.19332002E+00</totfact>
</mgrwt>
<rwgt>
<wgt id='morphing_basis_vector_1'> +6.0494114e-05 </wgt>
<wgt id='morphing_basis_vector_2'> +4.0866101e-05 </wgt>
<wgt id='morphing_basis_vector_3'> +6.5769009e-05 </wgt>
<wgt id='morphing_basis_vector_4'> +4.6646091e-05 </wgt>
<wgt id='morphing_basis_vector_5'> +7.4544987e-05 </wgt>
</rwgt>
</event>
<event>
 4      1 +7.3133000e-09 2.80639600e+03 7.81860800e-03 7.80302500e-02
        2 -1    0    0  501    0 +0.0000000000e+00 +0.0000000000e+00 +3.5134089468e+03 3.5134089468e+03 0.0000000000e+00 0.0000e+00 -1.0000e+00
       -2 -1    0    0    0  501 -0.0000000000e+00 -0.0000000000e+00 -5.6041435395e+02 5.6041435395e+02 0.0000000000e+00 0.0000e+00 1.0000e+00
      -13  1    1    2    0    0 +4.4745911050e+02 +1.2659790128e+03 +8.8498664289e+02 1.6081429895e+03 0.0000000000e+00 0.0000e+00 1.0000e+00
       13  1    1    2    0    0 -4.4745911050e+02 -1.2659790128e+03 +2.0680079500e+03 2.4656803113e+03 0.0000000000e+00 0.0000e+00 -1.0000e+00
<mgrwt>
<rscale>  0 0.28063961E+04</rscale>
<asrwt>0</asrwt>
<pdfrwt beam="1">  1        2 0.54052444E+00 0.28063961E+04</pdfrwt>
<pdfrwt beam="2">  1       -2 0.86217594E-01 0.28063961E+04</pdfrwt>
<totfact> 0.96217073E-01</totfact>
</mgrwt>
<rwgt>
<wgt id='morphing_basis_vector_1'> +6.3045435e-05 </wgt>
<wgt id='morphing_basis_vector_2'> +4.4134408e-05 </wgt>
<wgt id='morphing_basis_vector_3'> +6.8877883e-05 </wgt>
<wgt id='morphing_basis_vector_4'> +4.6720522e-05 </wgt>
<wgt id='morphing_basis_vector_5'> +7.6789506e-05 </wgt>
</rwgt>
</event>
<event>
 4      1 +7.3133000e-09 2.78405900e+03 7.81860800e-03 7.80915600e-02
        2 -1    0    0  501    0 +0.0000000000e+00 +0.0000000000e+00 +1.2444537433e+03 1.2444537433e+03 0.0000000000e+00 0.0000e+00 1.0000e+00
       -2 -1    0    0    0  501 -0.0000000000e+00 -0.0000000000e+00 -1.5571060858e+03 1.5571060858e+03 0.0000000000e+00 0.0000e+00 -1.0000e+00
      -13  1    1    2    0    0 -1.0946336586e+03 +6.6856315630e+01 -1.0190683164e+03 1.4970614038e+03 0.0000000000e+00 0.0000e+00 -1.0000e+00
       13  1    1    2    0    0 +1.0946336586e+03 -6.6856315630e+01 +7.0641597386e+02 1.3044984253e+03 0.0000000000e+00 0.0000e+00 1.0000e+00
<mgrwt>
<rscale>  0 0.27840593E+04</rscale>
<asrwt>0</asrwt>
<pdfrwt beam="1">  1        2 0.19145442E+00 0.27840593E+04</pdfrwt>
<pdfrwt beam="2">  1       -2 0.23955478E+00 0.27840593E+04</pdfrwt>
<totfact> 0.12053551E+00</totfact>
</mgrwt>
<rwgt>
<wgt id='morphing_basis_vector_1'> +6.0500770e-05 </wgt>
<wgt id='morphing_basis_vector_2'> +4.1037949e-05 </wgt>
<wgt id='morphing_basis_vector_3'> +6.5809741e-05 </wgt>
<wgt id='morphing_basis_vector_4'> +4.6440493e-05 </wgt>
<wgt id='morphing_basis_vector_5'> +7.4448024e-05 </wgt>
</rwgt>
</event>
<event>
 4      1 +7.3133000e-09 2.81739300e+03 7.81860800e-03 7.80002900e-02
        2 -1    0    0  501    0 +0.0000000000e+00 +0.0000000000e+00 +1.0424081823e+03 1.0424081823e+03 0.0000000000e+00 0.0000e+00 -1.0000e+00
       -2 -1    0    0    0  501 -0.0000000000e+00 -0.0000000000e+00 -1.9036937207e+03 1.9036937207e+03 0.0000000000e+00 0.0000e+00 1.0000e+00
      -13  1    1    2    0    0 -8.0034758152e+02 -3.2933294862e+02 -1.5929094483e+03 1.8128367143e+03 0.0000000000e+00 0.0000e+00 1.0000e+00
       13  1    1    2    0    0 +8.0034758152e+02 +3.2933294862e+02 +7.3162390997e+02 1.1332651887e+03 0.0000000000e+00 0.0000e+00 -1.0000e+00
<mgrwt>
<rscale>  0 0.28173931E+04</rscale>
<asrwt>0</asrwt>
<pdfrwt beam="1">  1        2 0.16037049E+00 0.28173931E+04</pdfrwt>
<pdfrwt beam="2">  1       -2 0.29287596E+00 0.28173931E+04</pdfrwt>
<totfact> 0.68221908E-01</totfact>
</mgrwt>
<rwgt>
<wgt id='morphing_basis_vector_1'> +6.3310384e-05 </wgt>
<wgt id='morphing_basis_vector_2'> +4.2709071e-05 </wgt>
<wgt id='morphing_basis_vector_3'> +6.8847045e-05 </wgt>
<wgt id='morphing_basis_vector_4'> +4.8953620e-05 </wgt>
<wgt id='morphing_basis_vector_5'> +7.8134364e-05 </wgt>
</rwgt>
</event>
<event>
 4      1 +7.3133000e-09 2.86331000e+03 7.81860800e-03 7.78766300e-02
        2 -1    0    0  501    0 +0.0000000000e+00 +0.0000000000e+00 +3.8383793786e+03 3.8383793786e+03 0.0000000000e+00 0.0000e+00 -1.0000e+00
       -2 -1    0    0    0  501 -0.0000000000e+00 -0.0000000000e+00 -5.3398474731e+02 5.3398474731e+02 0.0000000000e+00 0.0000e+00 1.0000e+00
      -13  1    1    2    0    0 -1.0307235491e+02 +1.4270026983e+03 +1.7311823558e+03 2.2458746538e+03 0.0000000000e+00 0.0000e+00 1.0000e+00
       13  1    1    2    0    0 +1.0307235491e+02 -1.4270026983e+03 +1.5732122755e+03 2.1264894721e+03 0.0000000000e+00 0.0000e+00 -1.0000e+00
<mgrwt>
<rscale>  0 0.28633100E+04</rscale>
<asrwt>0</asrwt>
<pdfrwt beam="1">  1        2 0.59051989E+00 0.28633100E+04</pdfrwt>
<pdfrwt beam="2">  1       -2 0.82151502E-01 0.28633100E+04</pdfrwt>
<totfact> 0.60188569E-01</totfact>
</mgrwt>
<rwgt>
<wgt id='morphing_basis_vector_1'> +7.0275679e-05 </wgt>
<wgt id='morphing_basis_vector_2'> +5.3741620e-05 </wgt>
<wgt id='morphing_basis_vector_3'> +7.7770071e-05 </wgt>
<wgt id='morphing_basis_vector_4'> +4.6488140e-05 </wgt>
<wgt id='morphing_basis_vector_5'> +8.2934623e-05 </wgt>
</rwgt>
</event>
<event>
 4      1 +7.3133000e-09 2.75149200e+03 7.81860800e-03 7.81820000e-02
        2 -1    0    0  501    0 +0.0000000000e+00 +0.0000000000e+00 +1.1683117946e+03 1.1683117946e+03 0.0000000000e+00 0.0000e+00 -1.0000e+00
       -2 -1    0    0    0  501 -0.0000000000e+00 -0.0000000000e+00 -1.6200104731e+03 1.6200104731e+03 0.0000000000e+00 0.0000e+00 1.0000e+00
      -13  1    1    2    0    0 -3.6271409256e+01 -9.7990726642e+02 -1.2037235267e+03 1.5525734104e+03 0.0000000000e+00 0.0000e+00 1.0000e+00
       13  1    1    2    0    0 +3.6271409256e+01 +9.7990726642e+02 +7.5202484821e+02 1.2357488573e+03 0.0000000000e+00 0.0000e+00 -1.0000e+00
<mgrwt>
<rscale>  0 0.27514922E+04</rscale>
<asrwt>0</asrwt>
<pdfrwt beam="1">  1        2 0.17974028E+00 0.27514922E+04</pdfrwt>
<pdfrwt beam="2">  1       -2 0.24923238E+00 0.27514922E+04</pdfrwt>
<totfact> 0.11469491E+00</totfact>
</mgrwt>
<rwgt>
<wgt id='morphing_basis_vector_1'> +5.7688352e-05 </wgt>
<wgt id='morphing_basis_vector_2'> +3.8983141e-05 </wgt>
<wgt id='morphing_basis_vector_3'> +6.2693658e-05 </wgt>
<wgt id='morphing_basis_vector_4'> +4.4407781e-05 </wgt>
<wgt id='morphing_basis_vector_5'> +7.1000464e-05 </wgt>
</rwgt>
</event>
<event>
 4      1 +7.3133000e-09 2.69258200e+03 7.81860800e-03 7.83488600e-02
        2 -1    0    0  501    0 +0.0000000000e+00 +0.0000000000e+00 +1.8470438972e+03 1.8470438972e+03 0.0000000000e+00 0.0000e+00 -1.0000e+00
       -2 -1    0    0    0  501 -0.0000000000e+00 -0.0000000000e+00 -9.8129727153e+02 9.8129727153e+02 0.0000000000e+00 0.0000e+00 1.0000e+00
      -13  1    1    2    0    0 -7.1017429672e+02 +3.3405855929e+02 -7.1615173868e+02 1.0624575124e+03 0.0000000000e+00 0.0000e+00 1.0000e+00
       13  1    1    2    0    0 +7.1017429672e+02 -3.3405855929e+02 +1.5818983643e+03 1.7658836564e+03 0.0000000000e+00 0.0000e+00 -1.0000e+00
<mgrwt>
<rscale>  0 0.26925818E+04</rscale>
<asrwt>0</asrwt>
<pdfrwt beam="1">  1        2 0.28416060E+00 0.26925818E+04</pdfrwt>
<pdfrwt beam="2">  1       -2 0.15096881E+00 0.26925818E+04</pdfrwt>
<totfact> 0.25445486E+00</totfact>
</mgrwt>
<rwgt>
<wgt id='morphing_basis_vector_1'> +5.2911578e-05 </wgt>
<wgt id='morphing_basis_vector_2'> +3.5637140e-05 </wgt>
<wgt id='morphing_basis_vector_3'> +5.7431827e-05 </wgt>
<wgt id='morphing_basis_vector_4'> +4.0777057e-05 </wgt>
<wgt id='morphing_basis_vector_5'> +6.5058903e-05 </wgt>
</rwgt>
</event>
<event>
 4      1 +7.3133000e-09 3.06155400e+03 7.81860800e-03 7.73686000e-02
        2 -1    0    0  501    0 +0.0000000000e+00 +0.0000000000e+00 +4.1889927370e+03 4.1889927370e+03 0.0000000000e+00 0.0000e+00 -1.0000e+00
       -2 -1    0    0    0  501 -0.0000000000e+00 -0.0000000000e+00 -5.5938947105e+02 5.5938947105e+02 0.0000000000e+00 0.0000e+00 1.0000e+00
      -13  1    1    2    0    0 +8.3037632907e+02 +4.1112568495e+02 -7.5048470378e+01 9.2961360231e+02 0.0000000000e+00 0.0000e+00 1.0000e+00
       13  1    1    2    0    0 -8.3037632907e+02 -4.1112568495e+02 +3.7046517363e+03 3.8187686057e+03 0.0000000000e+00 0.0000e+00 -1.0000e+00
<mgrwt>
<rscale>  0 0.30615541E+04</rscale>
<asrwt>0</asrwt>
<pdfrwt beam="1">  1        2 0.64446040E+00 0.30615541E+04</pdfrwt>
<pdfrwt beam="2">  1       -2 0.86059922E-01 0.30615541E+04</pdfrwt>
<totfact> 0.26655513E-01</totfact>
</mgrwt>
<rwgt>
<wgt id='morphing_basis_vector_1'> +8.7996804e-05 </wgt>
<wgt id='morphing_basis_vector_2'> +5.9465770e-05 </wgt>
<wgt id='morphing_basis_vector_3'> +9.5970906e-05 </wgt>
<wgt id='morphing_basis_vector_4'> +6.8471751e-05 </wgt>
<wgt id='morphing_basis_vector_5'> +1.0928464e-04 </wgt>
</rwgt>
</event>
<event>
 4      1 +7.3133000e-09 2.93204400e+03 7.81860800e-03 7.76958500e-02
        2 -1    0    0  501    0 +0.0000000000e+00 +0.0000000000e+00 +3.0476381875e+03 3.0476381875e+03 0.0000000000e+00 0.0000e+00 -1.0000e+00
       -2 -1    0    0    0  501 -0.0000000000e+00 -0.0000000000e+00 -7.0520856058e+02 7.0520856058e+02 0.0000000000e+00 0.0000e+00 1.0000e+00
      -13  1    1    2    0    0 -8.7484162743e+02 +5.6763232902e+02 -1.4760158810e+02 1.0532523738e+03 0.0000000000e+00 0.0000e+00 1.0000e+00
       13  1    1    2    0    0 +8.7484162743e+02 -5.6763232902e+02 +2.4900312151e+03 2.6995943743e+03 0.0000000000e+00 0.0000e+00 -1.0000e+00
<mgrwt>
<rscale>  0 0.29320440E+04</rscale>
<asrwt>0</asrwt>
<pdfrwt beam="1">  1        2 0.46886741E+00 0.29320440E+04</pdfrwt>
<pdfrwt beam="2">  1       -2 0.10849363E+00 0.29320440E+04</pdfrwt>
<totfact> 0.11549010E+00</totfact>
</mgrwt>
<rwgt>
<wgt id='morphing_basis_vector_1'> +7.4194806e-05 </wgt>
<wgt id='morphing_basis_vector_2'> +5.0211556e-05 </wgt>
<wgt id='morphing_basis_vector_3'> +8.0824943e-05 </wgt>
<wgt id='morphing_basis_vector_4'> +5.7404662e-05 </wgt>
<wgt id='morphing_basis_vector_5'> +9.1783287e-05 </wgt>
</rwgt>
</event>
<event>
 4      1 +7.3133000e-09 2.81266600e+03 7.81860800e-03 7.80131500e-02
        2 -1    0    0  501    0 +0.0000000000e+00 +0.0000000000e+00 +2.4709492700e+03 2.4709492700e+03 0.0000000000e+00 0.0000e+00 1.0000e+00
       -2 -1    0    0    0  501 -0.0000000000e+00 -0.0000000000e+00 -8.0040972522e+02 8.0040972522e+02 0.0000000000e+00 0.0000e+00 -1.0000e+00
      -13  1    1    2    0    0 -1.3517942449e+03 +7.2936657764e+01 +1.2783173766e+03 1.8619244753e+03 0.0000000000e+00 0.0000e+00 -1.0000e+00
       13  1    1    2    0    0 +1.3517942449e+03 -7.2936657764e+01 +3.9222216825e+02 1.4094345199e+03 0.0000000000e+00 0.0000e+00 1.0000e+00
<mgrwt>
<rscale>  0 0.28126655E+04</rscale>
<asrwt>0</asrwt>
<pdfrwt beam="1">  1        2 0.38014604E+00 0.28126655E+04</pdfrwt>
<pdfrwt beam="2">  1       -2 0.12313996E+00 0.28126655E+04</pdfrwt>
<totfact> 0.19319286E+00</totfact>
</mgrwt>
<rwgt>
<wgt id='morphing_basis_vector_1'> +6.8687435e-05 </wgt>
<wgt id='morphing_basis_vector_2'> +5.9506242e-05 </wgt>
<wgt id='morphing_basis_vector_3'> +7.7388254e-05 </wgt>
<wgt id='morphing_basis_vector_4'> +3.6613721e-05 </wgt>
<wgt id='morphing_basis_vector_5'> +7.6623325e-05 </wgt>
</rwgt>
</event>
<event>
 4      1 +7.3133000e-09 2.94834800e+03 7.81860800e-03 7.76537100e-02
        2 -1    0    0  501    0 +0.0000000000e+00 +0.0000000000e+00 +1.2676491860e+03 1.2676491860e+03 0.0000000000e+00 0.0000e+00 -1.0000e+00
       -2 -1    0    0    0  501 -0.0000000000e+00 -0.0000000000e+00 -1.7143460861e+03 1.7143460861e+03 0.0000000000e+00 0.0000e+00 1.0000e+00
      -13  1    1    2    0    0 -9.6878695207e+02 +3.2069899667e+02 -1.2993471469e+03 1.6521800789e+03 0.0000000000e+00 0.0000e+00 1.0000e+00
       13  1    1    2    0    0 +9.6878695207e+02 -3.2069899667e+02 +8.5265024675e+02 1.3298151933e+03 0.0000000000e+00 0.0000e+00 -1.0000e+00
<mgrwt>
<rscale>  0 0.29483483E+04</rscale>
<asrwt>0</asrwt>
<pdfrwt beam="1">  1        2 0.19502295E+00 0.29483483E+04</pdfrwt>
<pdfrwt beam="2">  1       -2 0.26374555E+00 0.29483483E+04</pdfrwt>
<totfact> 0.78437947E-01</totfact>
</mgrwt>
<rwgt>
<wgt id='morphing_basis_vector_1'> +7.5829788e-05 </wgt>
<wgt id='morphing_basis_vector_2'> +5.1294356e-05 </wgt>
<wgt id='morphing_basis_vector_3'> +8.2615875e-05 </wgt>
<wgt id='morphing_basis_vector_4'> +5.8731436e-05 </wgt>
<wgt id='morphing_basis_vector_5'> +9.3863368e-05 </wgt>
</rwgt>
</event>
<event>
 4      1 +7.3133000e-09 2.86311400e+03 7.81860800e-03 7.78771600e-02
        2 -1    0    0  501    0 +0.0000000000e+00 +0.0000000000e+00 +4.4152486036e+03 4.4152486036e+03 0.0000000000e+00 0.0000e+00 1.0000e+00
       -2 -1    0    0    0  501 -0.0000000000e+00 -0.0000000000e+00 -4.6415391806e+02 4.6415391806e+02 0.0000000000e+00 0.0000e+00 -1.0000e+00
      -13  1    1    2    0    0 -1.0810450461e+01 -1.3163598475e+03 +2.9342196796e+03 3.2159858896e+03 0.0000000000e+00 0.0000e+00 1.0000e+00
       13  1    1    2    0    0 +1.0810450461e+01 +1.3163598475e+03 +1.0168750059e+03 1.6634166320e+03 0.0000000000e+00 0.0000e+00 -1.0000e+00
<mgrwt>
<rscale>  0 0.28631136E+04</rscale>
<asrwt>0</asrwt>
<pdfrwt beam="1">  1        2 0.67926899E+00 0.28631136E+04</pdfrwt>
<pdfrwt beam="2">  1       -2 0.71408298E-01 0.28631136E+04</pdfrwt>
<totfact> 0.25167077E-01</totfact>
</mgrwt>
<rwgt>
<wgt id='morphing_basis_vector_1'> +7.6602976e-05 </wgt>
<wgt id='morphing_basis_vector_2'> +7.2425867e-05 </wgt>
<wgt id='morphing_basis_vector_3'> +8.7626773e-05 </wgt>
<wgt id='morphing_basis_vector_4'> +3.3308343e-05 </wgt>
<wgt id='morphing_basis_vector_5'> +8.1832871e-05 </wgt>
</rwgt>
</event>
<event>
 4      1 +7.3133000e-09 2.73742900e+03 7.81860800e-03 7.82214400e-02
        2 -1    0    0  501    0 +0.0000000000e+00 +0.0000000000e+00 +1.8123369991e+03 1.8123369991e+03 0.0000000000e+00 0.0000e+00 -1.0000e+00
       -2 -1    0    0    0  501 -0.0000000000e+00 -0.0000000000e+00 -1.0336815891e+03 1.0336815891e+03 0.0000000000e+00 0.0000e+00 1.0000e+00
      -13  1    1    2    0    0 +1.0314591762e+03 +6.0096470417e+02 -3.0679440519e+02 1.2325540211e+03 0.0000000000e+00 0.0000e+00 1.0000e+00
       13  1    1    2    0    0 -1.0314591762e+03 -6.0096470417e+02 +1.0854498152e+03 1.6134645671e+03 0.0000000000e+00 0.0000e+00 -1.0000e+00
<mgrwt>
<rscale>  0 0.27374290E+04</rscale>
<asrwt>0</asrwt>
<pdfrwt beam="1">  1        2 0.27882108E+00 0.27374290E+04</pdfrwt>
<pdfrwt beam="2">  1       -2 0.15902794E+00 0.27374290E+04</pdfrwt>
<totfact> 0.22784732E+00</totfact>
</mgrwt>
<rwgt>
<wgt id='morphing_basis_vector_1'> +5.6727043e-05 </wgt>
<wgt id='morphing_basis_vector_2'> +3.8775067e-05 </wgt>
<wgt id='morphing_basis_vector_3'> +6.1726799e-05 </wgt>
<wgt id='morphing_basis_vector_4'> +4.3091374e-05 </wgt>
<wgt id='morphing_basis_vector_5'> +6.9511698e-05 </wgt>
</rwgt>
</event>
<event>
 4      1 +7.3133000e-09 2.81251500e+03 7.81860800e-03 7.80135600e-02
        2 -1    0    0  501    0 +0.0000000000e+00 +0.0000000000e+00 +1.7570482140e+03 1.7570482140e+03 0.0000000000e+00 0.0000e+00 -1.0000e+00
       -2 -1    0    0    0  501 -0.0000000000e+00 -0.0000000000e+00 -1.1255015074e+03 1.1255015074e+03 0.0000000000e+00 0.0000e+00 1.0000e+00
      -13  1    1    2    0    0 -1.9790047649e+02 +1.2718099020e+03 -2.6480878338e+02 1.3140733302e+03 0.0000000000e+00 0.0000e+00 1.0000e+00
       13  1    1    2    0    0 +1.9790047649e+02 -1.2718099020e+03 +8.9635548994e+02 1.5684763912e+03 0.0000000000e+00 0.0000e+00 -1.0000e+00
<mgrwt>
<rscale>  0 0.28125152E+04</rscale>
<asrwt>0</asrwt>
<pdfrwt beam="1">  1        2 0.27031511E+00 0.28125152E+04</pdfrwt>
<pdfrwt beam="2">  1       -2 0.17315408E+00 0.28125152E+04</pdfrwt>
<totfact> 0.18815470E+00</totfact>
</mgrwt>
<rwgt>
<wgt id='morphing_basis_vector_1'> +6.3296935e-05 </wgt>
<wgt id='morphing_basis_vector_2'> +4.3651146e-05 </wgt>
<wgt id='morphing_basis_vector_3'> +6.9023108e-05 </wgt>
<wgt id='morphing_basis_vector_4'> +4.7743347e-05 </wgt>
<wgt id='morphing_basis_vector_5'> +7.7518146e-05 </wgt>
</rwgt>
</event>
<event>
 4      1 +7.3133000e-09 2.74385200e+03 7.81860800e-03 7.82033900e-02
        2 -1    0    0  501    0 +0.0000000000e+00 +0.0000000000e+00 +1.7606292814e+03 1.7606292814e+03 0.0000000000e+00 0.0000e+00 1.0000e+00
       -2 -1    0    0    0  501 -0.0000000000e+00 -0.0000000000e+00 -1.0690391046e+03 1.0690391046e+03 0.0000000000e+00 0.0000e+00 -1.0000e+00
      -13  1    1    2    0    0 -1.0910704162e+03 -4.5990910001e+02 +1.0604554066e+03 1.5895020298e+03 0.0000000000e+00 0.0000e+00 1.0000e+00
       13  1    1    2    0    0 +1.0910704162e+03 +4.5990910001e+02 -3.6886522986e+02 1.2401663562e+03 0.0000000000e+00 0.0000e+00 -1.0000e+00
<mgrwt>
<rscale>  0 0.27438524E+04</rscale>
<asrwt>0</asrwt>
<pdfrwt beam="1">  1        2 0.27086604E+00 0.27438524E+04</pdfrwt>
<pdfrwt beam="2">  1       -2 0.16446756E+00 0.27438524E+04</pdfrwt>
<totfact> 0.22024592E+00</totfact>
</mgrwt>
<rwgt>
<wgt id='morphing_basis_vector_1'> +6.7632175e-05 </wgt>
<wgt id='morphing_basis_vector_2'> +6.9725257e-05 </wgt>
<wgt id='morphing_basis_vector_3'> +7.8369069e-05 </wgt>
<wgt id='morphing_basis_vector_4'> +2.2048734e-05 </wgt>
<wgt id='morphing_basis_vector_5'> +6.8421204e-05 </wgt>
</rwgt>
</event>
<event>
 4      1 +7.3133000e-09 2.99150600e+03 7.81860800e-03 7.75434700e-02
        2 -1    0    0  501    0 +0.0000000000e+00 +0.0000000000e+00 +1.5686585815e+03 1.5686585815e+03 0.0000000000e+00 0.0000e+00 -1.0000e+00
       -2 -1    0    0    0  501 -0.0000000000e+00 -0.0000000000e+00 -1.4262357082e+03 1.4262357082e+03 0.0000000000e+00 0.0000e+00 1.0000e+00
      -13  1    1    2    0    0 +1.3552102954e+03 +4.1918385035e+02 -4.0363248842e+02 1.4748658349e+03 0.0000000000e+00 0.0000e+00 1.0000e+00
       13  1    1    2    0    0 -1.3552102954e+03 -4.1918385035e+02 +5.4605536171e+02 1.5200284548e+03 0.0000000000e+00 0.0000e+00 -1.0000e+00
<mgrwt>
<rscale>  0 0.29915059E+04</rscale>
<asrwt>0</asrwt>
<pdfrwt beam="1">  1        2 0.24133209E+00 0.29915059E+04</pdfrwt>
<pdfrwt beam="2">  1       -2 0.21942088E+00 0.29915059E+04</pdfrwt>
<totfact> 0.10757321E+00</totfact>
</mgrwt>
<rwgt>
<wgt id='morphing_basis_vector_1'> +8.1093749e-05 </wgt>
<wgt id='morphing_basis_vector_2'> +5.6616738e-05 </wgt>
<wgt id='morphing_basis_vector_3'> +8.8760080e-05 </wgt>
<wgt id='morphing_basis_vector_4'> +6.0677955e-05 </wgt>
<wgt id='morphing_basis_vector_5'> +9.9401851e-05 </wgt>
</rwgt>
</event>
<event>
 4      1 +7.3133000e-09 3.02766100e+03 7.81860800e-03 7.74526000e-02
        2 -1    0    0  501    0 +0.0000000000e+00 +0.0000000000e+00 +5.8372710804e+02 5.8372710804e+02 0.0000000000e+00 0.0000e+00 -1.0000e+00
       -2 -1    0    0    0  501 -0.0000000000e+00 -0.0000000000e+00 -3.9259486399e+03 3.9259486399e+03 0.0000000000e+00 0.0000e+00 1.0000e+00
      -13  1    1    2    0    0 -9.8083724759e+02 +8.1218590099e+02 -2.8903077070e+03 3.1584119879e+03 0.0000000000e+00 0.0000e+00 1.0000e+00
       13  1    1    2    0    0 +9.8083724759e+02 -8.1218590099e+02 -4.5191382479e+02 1.3512637600e+03 0.0000000000e+00 0.0000e+00 -1.0000e+00
<mgrwt>
<rscale>  0 0.30276609E+04</rscale>
<asrwt>0</asrwt>
<pdfrwt beam="1">  1        2 0.89804175E-01 0.30276609E+04</pdfrwt>
<pdfrwt beam="2">  1       -2 0.60399207E+00 0.30276609E+04</pdfrwt>
<totfact> 0.90149464E-03</totfact>
</mgrwt>
<rwgt>
<wgt id='morphing_basis_vector_1'> +8.4455106e-05 </wgt>
<wgt id='morphing_basis_vector_2'> +5.7643895e-05 </wgt>
<wgt id='morphing_basis_vector_3'> +9.2197527e-05 </wgt>
<wgt id='morphing_basis_vector_4'> +6.4928249e-05 </wgt>
<wgt id='morphing_basis_vector_5'> +1.0444086e-04 </wgt>
</rwgt>
</event>
<event>
 4      1 +7.3133000e-09 3.14064900e+03 7.81860800e-03 7.71768600e-02
        2 -1    0    0  501    0 +0.0000000000e+00 +0.0000000000e+00 +1.7670098439e+03 1.7670098439e+03 0.0000000000e+00 0.0000e+00 -1.0000e+00
       -2 -1    0    0    0  501 -0.0000000000e+00 -0.0000000000e+00 -1.3955319537e+03 1.3955319537e+03 0.0000000000e+00 0.0000e+00 1.0000e+00
      -13  1    1    2    0    0 +3.8796204133e+02 -1.2327889049e+03 -7.1246306797e+02 1.4757664628e+03 0.0000000000e+00 0.0000e+00 1.0000e+00
       13  1    1    2    0    0 -3.8796204133e+02 +1.2327889049e+03 +1.0839409581e+03 1.6867753348e+03 0.0000000000e+00 0.0000e+00 -1.0000e+00
<mgrwt>
<rscale>  0 0.31406488E+04</rscale>
<asrwt>0</asrwt>
<pdfrwt beam="1">  1        2 0.27184767E+00 0.31406488E+04</pdfrwt>
<pdfrwt beam="2">  1       -2 0.21469722E+00 0.31406488E+04</pdfrwt>
<totfact> 0.89015751E-01</totfact>
</mgrwt>
<rwgt>
<wgt id='morphing_basis_vector_1'> +9.7611888e-05 </wgt>
<wgt id='morphing_basis_vector_2'> +6.6558949e-05 </wgt>
<wgt id='morphing_basis_vector_3'> +1.0666232e-04 </wgt>
<wgt id='morphing_basis_vector_4'> +7.5371956e-05 </wgt>
<wgt id='morphing_basis_vector_5'> +1.2108303e-04 </wgt>
</rwgt>
</event>
<event>
 4      1 +7.3133000e-09 2.97567100e+03 7.81860800e-03 7.75836900e-02
        2 -1    0    0  501    0 +0.0000000000e+00 +0.0000000000e+00 +9.6665834625e+02 9.6665834625e+02 0.0000000000e+00 0.0000e+00 -1.0000e+00
       -2 -1    0    0    0  501 -0.0000000000e+00 -0.0000000000e+00 -2.2900077746e+03 2.2900077746e+03 0.0000000000e+00 0.0000e+00 1.0000e+00
      -13  1    1    2    0    0 -8.8935250742e+02 +1.0217229241e+03 -1.3352516883e+03 1.9020417154e+03 0.0000000000e+00 0.0000e+00 1.0000e+00
       13  1    1    2    0    0 +8.8935250742e+02 -1.0217229241e+03 +1.1902259938e+01 1.3546244054e+03 0.0000000000e+00 0.0000e+00 -1.0000e+00
<mgrwt>
<rscale>  0 0.29756714E+04</rscale>
<asrwt>0</asrwt>
<pdfrwt beam="1">  1        2 0.14871667E+00 0.29756714E+04</pdfrwt>
<pdfrwt beam="2">  1       -2 0.35230889E+00 0.29756714E+04</pdfrwt>
<totfact> 0.30221697E-01</totfact>
</mgrwt>
<rwgt>
<wgt id='morphing_basis_vector_1'> +7.9110295e-05 </wgt>
<wgt id='morphing_basis_vector_2'> +5.4561774e-05 </wgt>
<wgt id='morphing_basis_vector_3'> +8.6434195e-05 </wgt>
<wgt id='morphing_basis_vector_4'> +6.0007403e-05 </wgt>
<wgt id='morphing_basis_vector_5'> +9.7345970e-05 </wgt>
</rwgt>
</event>
<event>
 4      1 +7.3133000e-09 3.16921200e+03 7.81860800e-03 7.71090500e-02
        2 -1    0    0  501    0 +0.0000000000e+00 +0.0000000000e+00 +1.4400051032e+03 1.4400051032e+03 0.0000000000e+00 0.0000e+00 -1.0000e+00
       -2 -1    0    0    0  501 -0.0000000000e+00 -0.0000000000e+00 -1.7437274425e+03 1.7437274425e+03 0.0000000000e+00 0.0000e+00 1.0000e+00
      -13  1    1    2    0    0 -1.2839053112e+02 +3.8800627230e+02 -1.6898699918e+03 1.7385895389e+03 0.0000000000e+00 0.0000e+00 1.0000e+00
       13  1    1    2    0    0 +1.2839053112e+02 -3.8800627230e+02 +1.3861476524e+03 1.4451430068e+03 0.0000000000e+00 0.0000e+00 -1.0000e+00
<mgrwt>
<rscale>  0 0.31692122E+04</rscale>
<asrwt>0</asrwt>
<pdfrwt beam="1">  1        2 0.22153925E+00 0.31692122E+04</pdfrwt>
<pdfrwt beam="2">  1       -2 0.26826576E+00 0.31692122E+04</pdfrwt>
<totfact> 0.57218805E-01</totfact>
</mgrwt>
<rwgt>
<wgt id='morphing_basis_vector_1'> +1.0087316e-04 </wgt>
<wgt id='morphing_basis_vector_2'> +6.8097266e-05 </wgt>
<wgt id='morphing_basis_vector_3'> +1.1010824e-04 </wgt>
<wgt id='morphing_basis_vector_4'> +7.8818095e-05 </wgt>
<wgt id='morphing_basis_vector_5'> +1.2563787e-04 </wgt>
</rwgt>
</event>
<event>
 4      1 +7.3133000e-09 3.15943200e+03 7.81860800e-03 7.71321800e-02
        2 -1    0    0  501    0 +0.0000000000e+00 +0.0000000000e+00 +1.8455516331e+03 1.8455516331e+03 0.0000000000e+00 0.0000e+00 -1.0000e+00
       -2 -1    0    0    0  501 -0.0000000000e+00 -0.0000000000e+00 -1.3521715202e+03 1.3521715202e+03 0.0000000000e+00 0.0000e+00 1.0000e+00
      -13  1    1    2    0    0 -4.9383977269e+01 -1.1378686629e+03 -8.6125443641e+02 1.4279156402e+03 0.0000000000e+00 0.0000e+00 1.0000e+00
       13  1    1    2    0    0 +4.9383977269e+01 +1.1378686629e+03 +1.3546345492e+03 1.7698075131e+03 0.0000000000e+00 0.0000e+00 -1.0000e+00
<mgrwt>
<rscale>  0 0.31594318E+04</rscale>
<asrwt>0</asrwt>
<pdfrwt beam="1">  1        2 0.28393102E+00 0.31594318E+04</pdfrwt>
<pdfrwt beam="2">  1       -2 0.20802639E+00 0.31594318E+04</pdfrwt>
<totfact> 0.89731718E-01</totfact>
</mgrwt>
<rwgt>
<wgt id='morphing_basis_vector_1'> +9.9775744e-05 </wgt>
<wgt id='morphing_basis_vector_2'> +6.7651772e-05 </wgt>
<wgt id='morphing_basis_vector_3'> +1.0896384e-04 </wgt>
<wgt id='morphing_basis_vector_4'> +7.7566430e-05 </wgt>
<wgt id='morphing_basis_vector_5'> +1.2405920e-04 </wgt>
</rwgt>
</event>
<event>
 4      1 +7.3133000e-09 2.89350800e+03 7.81860800e-03 7.77965800e-02
        2 -1    0    0  501    0 +0.0000000000e+00 +0.0000000000e+00 +2.7124958011e+03 2.7124958011e+03 0.0000000000e+00 0.0000e+00 -1.0000e+00
       -2 -1    0    0    0  501 -0.0000000000e+00 -0.0000000000e+00 -7.7165003130e+02 7.7165003130e+02 0.0000000000e+00 0.0000e+00 1.0000e+00
      -13  1    1    2    0    0 +8.7053732463e+02 +9.2050050643e+02 +1.2930806993e+02 1.2735293451e+03 0.0000000000e+00 0.0000e+00 1.0000e+00
       13  1    1    2    0    0 -8.7053732463e+02 -9.2050050643e+02 +1.8115376999e+03 2.2106164873e+03 0.0000000000e+00 0.0000e+00 -1.0000e+00
<mgrwt>
<rscale>  0 0.28935082E+04</rscale>
<asrwt>0</asrwt>
<pdfrwt beam="1">  1        2 0.41730704E+00 0.28935082E+04</pdfrwt>
<pdfrwt beam="2">  1       -2 0.11871539E+00 0.28935082E+04</pdfrwt>
<totfact> 0.15069953E+00</totfact>
</mgrwt>
<rwgt>
<wgt id='morphing_basis_vector_1'> +7.0663336e-05 </wgt>
<wgt id='morphing_basis_vector_2'> +4.8390508e-05 </wgt>
<wgt id='morphing_basis_vector_3'> +7.7062153e-05 </wgt>
<wgt id='morphing_basis_vector_4'> +5.3885720e-05 </wgt>
<wgt id='morphing_basis_vector_5'> +8.6965303e-05 </wgt>
</rwgt>
</event>
<event>
 4      1 +7.3133000e-09 3.12576400e+03 7.81860800e-03 7.72124900e-02
        2 -1    0    0  501    0 +0.0000000000e+00 +0.0000000000e+00 +1.9833356761e+03 1.9833356761e+03 0.0000000000e+00 0.0000e+00 -1.0000e+00
       -2 -1    0    0    0  501 -0.0000000000e+00 -0.0000000000e+00 -1.2315614397e+03 1.2315614397e+03 0.0000000000e+00 0.0000e+00 1.0000e+00
      -13  1    1    2    0    0 -8.1601251263e+02 -1.6523465033e+02 -9.8448611053e+02 1.2893377417e+03 0.0000000000e+00 0.0000e+00 1.0000e+00
       13  1    1    2    0    0 +8.1601251263e+02 +1.6523465033e+02 +1.7362603469e+03 1.9255593740e+03 0.0000000000e+00 0.0000e+00 -1.0000e+00
<mgrwt>
<rscale>  0 0.31257637E+04</rscale>
<asrwt>0</asrwt>
<pdfrwt beam="1">  1        2 0.30512857E+00 0.31257637E+04</pdfrwt>
<pdfrwt beam="2">  1       -2 0.18947099E+00 0.31257637E+04</pdfrwt>
<totfact> 0.10301599E+00</totfact>
</mgrwt>
<rwgt>
<wgt id='morphing_basis_vector_1'> +9.5523511e-05 </wgt>
<wgt id='morphing_basis_vector_2'> +6.4526818e-05 </wgt>
<wgt id='morphing_basis_vector_3'> +1.0423718e-04 </wgt>
<wgt id='morphing_basis_vector_4'> +7.4497762e-05 </wgt>
<wgt id='morphing_basis_vector_5'> +1.1883129e-04 </wgt>
</rwgt>
</event>
<event>
 4      1 +7.3133000e-09 2.85987100e+03 7.81860800e-03 7.78858100e-02
        2 -1    0    0  501    0 +0.0000000000e+00 +0.0000000000e+00 +3.1825308378e+03 3.1825308378e+03 0.0000000000e+00 0.0000e+00 1.0000e+00
       -2 -1    0    0    0  501 -0.0000000000e+00 -0.0000000000e+00 -6.4248083714e+02 6.4248083714e+02 0.0000000000e+00 0.0000e+00 -1.0000e+00
      -13  1    1    2    0    0 -7.1862213843e+02 -3.4892991895e+02 -3.1619425634e+02 8.5915579142e+02 0.0000000000e+00 0.0000e+00 -1.0000e+00
       13  1    1    2    0    0 +7.1862213843e+02 +3.4892991895e+02 +2.8562442570e+03 2.9658558835e+03 0.0000000000e+00 0.0000e+00 1.0000e+00
<mgrwt>
<rscale>  0 0.28598707E+04</rscale>
<asrwt>0</asrwt>
<pdfrwt beam="1">  1        2 0.48962012E+00 0.28598707E+04</pdfrwt>
<pdfrwt beam="2">  1       -2 0.98843208E-01 0.28598707E+04</pdfrwt>
<totfact> 0.11869304E+00</totfact>
</mgrwt>
<rwgt>
<wgt id='morphing_basis_vector_1'> +6.7160751e-05 </wgt>
<wgt id='morphing_basis_vector_2'> +4.5290546e-05 </wgt>
<wgt id='morphing_basis_vector_3'> +7.3068559e-05 </wgt>
<wgt id='morphing_basis_vector_4'> +5.2032834e-05 </wgt>
<wgt id='morphing_basis_vector_5'> +8.3005726e-05 </wgt>
</rwgt>
</event>
<event>
 4      1 +7.3133000e-09 2.80807700e+03 7.81860800e-03 7.80256600e-02
        2 -1    0    0  501    0 +0.0000000000e+00 +0.0000000000e+00 +1.2012295604e+03 1.2012295604e+03 0.0000000000e+00 0.0000e+00 -1.0000e+00
       -2 -1    0    0    0  501 -0.0000000000e+00 -0.0000000000e+00 -1.6410887485e+03 1.6410887485e+03 0.0000000000e+00 0.0000e+00 1.0000e+00
      -13  1    1    2    0    0 -7.5826982385e+02 -7.2474151167e+02 -1.1646382977e+03 1.5673562930e+03 0.0000000000e+00 0.0000e+00 1.0000e+00
       13  1    1    2    0    0 +7.5826982385e+02 +7.2474151167e+02 +7.2477910961e+02 1.2749620160e+03 0.0000000000e+00 0.0000e+00 -1.0000e+00
<mgrwt>
<rscale>  0 0.28080771E+04</rscale>
<asrwt>0</asrwt>
<pdfrwt beam="1">  1        2 0.18480455E+00 0.28080771E+04</pdfrwt>
<pdfrwt beam="2">  1       -2 0.25247519E+00 0.28080771E+04</pdfrwt>
<totfact> 0.10368715E+00</totfact>
</mgrwt>
<rwgt>
<wgt id='morphing_basis_vector_1'> +6.2553105e-05 </wgt>
<wgt id='morphing_basis_vector_2'> +4.2347952e-05 </wgt>
<wgt id='morphing_basis_vector_3'> +6.8046284e-05 </wgt>
<wgt id='morphing_basis_vector_4'> +4.8163448e-05 </wgt>
<wgt id='morphing_basis_vector_5'> +7.7084322e-05 </wgt>
</rwgt>
</event>
<event>
 4      1 +7.3133000e-09 3.15447800e+03 7.81860800e-03 7.71439400e-02
        2 -1    0    0  501    0 +0.0000000000e+00 +0.0000000000e+00 +1.5656575815e+03 1.5656575815e+03 0.0000000000e+00 0.0000e+00 -1.0000e+00
       -2 -1    0    0    0  501 -0.0000000000e+00 -0.0000000000e+00 -1.5889057026e+03 1.5889057026e+03 0.0000000000e+00 0.0000e+00 1.0000e+00
      -13  1    1    2    0    0 +1.3266927805e+02 -5.4116208526e+02 -1.4872063104e+03 1.5881562107e+03 0.0000000000e+00 0.0000e+00 1.0000e+00
       13  1    1    2    0    0 -1.3266927805e+02 +5.4116208526e+02 +1.4639581893e+03 1.5664070735e+03 0.0000000000e+00 0.0000e+00 -1.0000e+00
<mgrwt>
<rscale>  0 0.31544776E+04</rscale>
<asrwt>0</asrwt>
<pdfrwt beam="1">  1        2 0.24087040E+00 0.31544776E+04</pdfrwt>
<pdfrwt beam="2">  1       -2 0.24444703E+00 0.31544776E+04</pdfrwt>
<totfact> 0.71100920E-01</totfact>
</mgrwt>
<rwgt>
<wgt id='morphing_basis_vector_1'> +9.9028632e-05 </wgt>
<wgt id='morphing_basis_vector_2'> +6.6853417e-05 </wgt>
<wgt id='morphing_basis_vector_3'> +1.0808115e-04 </wgt>
<wgt id='morphing_basis_vector_4'> +7.7344438e-05 </wgt>
<wgt id='morphing_basis_vector_5'> +1.2329873e-04 </wgt>
</rwgt>
</event>
<event>
 4      1 +7.3133000e-09 2.92143700e+03 7.81860800e-03 7.77234200e-02
        2 -1    0    0  501    0 +0.0000000000e+00 +0.0000000000e+00 +1.5072074673e+03 1.5072074673e+03 0.0000000000e+00 0.0000e+00 -1.0000e+00
       -2 -1    0    0    0  501 -0.0000000000e+00 -0.0000000000e+00 -1.4156631585e+03 1.4156631585e+03 0.0000000000e+00 0.0000e+00 1.0000e+00
      -13  1    1    2    0    0 +3.0371214035e+02 +1.2862103578e+03 -5.7672286581e+02 1.4419387687e+03 0.0000000000e+00 0.0000e+00 1.0000e+00
       13  1    1    2    0    0 -3.0371214035e+02 -1.2862103578e+03 +6.6826717465e+02 1.4809318571e+03 0.0000000000e+00 0.0000e+00 -1.0000e+00
<mgrwt>
<rscale>  0 0.29214367E+04</rscale>
<asrwt>0</asrwt>
<pdfrwt beam="1">  1        2 0.23187807E+00 0.29214367E+04</pdfrwt>
<pdfrwt beam="2">  1       -2 0.21779433E+00 0.29214367E+04</pdfrwt>
<totfact> 0.12026904E+00</totfact>
</mgrwt>
<rwgt>
<wgt id='morphing_basis_vector_1'> +7.3520743e-05 </wgt>
<wgt id='morphing_basis_vector_2'> +5.0621936e-05 </wgt>
<wgt id='morphing_basis_vector_3'> +8.0261111e-05 </wgt>
<wgt id='morphing_basis_vector_4'> +5.5773743e-05 </wgt>
<wgt id='morphing_basis_vector_5'> +9.0384668e-05 </wgt>
</rwgt>
</event>
<event>
 4      1 +7.3133000e-09 2.94382100e+03 7.81860800e-03 7.76653800e-02
        2 -1    0    0  501    0 +0.0000000000e+00 +0.0000000000e+00 +2.0523185173e+03 2.0523185173e+03 0.0000000000e+00 0.0000e+00 1.0000e+00
       -2 -1    0    0    0  501 -0.0000000000e+00 -0.0000000000e+00 -1.0556453624e+03 1.0556453624e+03 0.0000000000e+00 0.0000e+00 -1.0000e+00
      -13  1    1    2    0    0 -5.0516405911e+02 +1.3219516160e+03 +9.2559110615e+02 1.6909954753e+03 0.0000000000e+00 0.0000e+00 -1.0000e+00
       13  1    1    2    0    0 +5.0516405911e+02 -1.3219516160e+03 +7.1082048742e+01 1.4169684045e+03 0.0000000000e+00 0.0000e+00 1.0000e+00
<mgrwt>
<rscale>  0 0.29438210E+04</rscale>
<asrwt>0</asrwt>
<pdfrwt beam="1">  1        2 0.31574131E+00 0.29438210E+04</pdfrwt>
<pdfrwt beam="2">  1       -2 0.16240698E+00 0.29438210E+04</pdfrwt>
<totfact> 0.15433391E+00</totfact>
</mgrwt>
<rwgt>
<wgt id='morphing_basis_vector_1'> +8.2370216e-05 </wgt>
<wgt id='morphing_basis_vector_2'> +7.1602800e-05 </wgt>
<wgt id='morphing_basis_vector_3'> +9.3043497e-05 </wgt>
<wgt id='morphing_basis_vector_4'> +4.3812536e-05 </wgt>
<wgt id='morphing_basis_vector_5'> +9.2088087e-05 </wgt>
</rwgt>
</event>
<event>
 4      1 +7.3133000e-09 2.72773500e+03 7.81860800e-03 7.82487700e-02
        2 -1    0    0  501    0 +0.0000000000e+00 +0.0000000000e+00 +2.4948487924e+03 2.4948487924e+03 0.0000000000e+00 0.0000e+00 -1.0000e+00
       -2 -1    0    0    0  501 -0.0000000000e+00 -0.0000000000e+00 -7.4558982807e+02 7.4558982807e+02 0.0000000000e+00 0.0000e+00 1.0000e+00
      -13  1    1    2    0    0 +5.0147381323e+02 +1.0755997354e+03 +7.6179953286e+01 1.1891989579e+03 0.0000000000e+00 0.0000e+00 1.0000e+00
       13  1    1    2    0    0 -5.0147381323e+02 -1.0755997354e+03 +1.6730790111e+03 2.0512396626e+03 0.0000000000e+00 0.0000e+00 -1.0000e+00
<mgrwt>
<rscale>  0 0.27277345E+04</rscale>
<asrwt>0</asrwt>
<pdfrwt beam="1">  1        2 0.38382289E+00 0.27277345E+04</pdfrwt>
<pdfrwt beam="2">  1       -2 0.11470613E+00 0.27277345E+04</pdfrwt>
<totfact> 0.22630374E+00</totfact>
</mgrwt>
<rwgt>
<wgt id='morphing_basis_vector_1'> +5.5931469e-05 </wgt>
<wgt id='morphing_basis_vector_2'> +3.8216711e-05 </wgt>
<wgt id='morphing_basis_vector_3'> +6.0849988e-05 </wgt>
<wgt id='morphing_basis_vector_4'> +4.2488069e-05 </wgt>
<wgt id='morphing_basis_vector_5'> +6.8522661e-05 </wgt>
</rwgt>
</event>
<event>
 4      1 +7.3133000e-09 2.69599600e+03 7.81860800e-03 7.83390700e-02
        2 -1    0    0  501    0 +0.0000000000e+00 +0.0000000000e+00 +2.9227675380e+03 2.9227675380e+03 0.0000000000e+00 0.0000e+00 -1.0000e+00
       -2 -1    0    0    0  501 -0.0000000000e+00 -0.0000000000e+00 -6.2170484906e+02 6.2170484906e+02 0.0000000000e+00 0.0000e+00 1.0000e+00
      -13  1    1    2    0    0 -1.0056205408e+03 +7.1723060117e+02 +4.4081985227e+02 1.3114932518e+03 0.0000000000e+00 0.0000e+00 1.0000e+00
       13  1    1    2    0    0 +1.0056205408e+03 -7.1723060117e+02 +1.8602428367e+03 2.2329791353e+03 0.0000000000e+00 0.0000e+00 -1.0000e+00
<mgrwt>
<rscale>  0 0.26959961E+04</rscale>
<asrwt>0</asrwt>
<pdfrwt beam="1">  1        2 0.44965654E+00 0.26959961E+04</pdfrwt>
<pdfrwt beam="2">  1       -2 0.95646902E-01 0.26959961E+04</pdfrwt>
<totfact> 0.19303070E+00</totfact>
</mgrwt>
<rwgt>
<wgt id='morphing_basis_vector_1'> +5.3543236e-05 </wgt>
<wgt id='morphing_basis_vector_2'> +3.6895846e-05 </wgt>
<wgt id='morphing_basis_vector_3'> +5.8288243e-05 </wgt>
<wgt id='morphing_basis_vector_4'> +4.0231430e-05 </wgt>
<wgt id='morphing_basis_vector_5'> +6.5331584e-05 </wgt>
</rwgt>
</event>
<event>
 4      1 +7.3133000e-09 3.01778600e+03 7.81860800e-03 7.74772900e-02
        2 -1    0    0  501    0 +0.0000000000e+00 +0.0000000000e+00 +2.1123658902e+03 2.1123658902e+03 0.0000000000e+00 0.0000e+00 -1.0000e+00
       -2 -1    0    0    0  501 -0.0000000000e+00 -0.0000000000e+00 -1.0778240632e+03 1.0778240632e+03 0.0000000000e+00 0.0000e+00 1.0000e+00
      -13  1    1    2    0    0 +7.4710455191e+02 -4.7810863776e+02 -7.7312209821e+02 1.1766353980e+03 0.0000000000e+00 0.0000e+00 1.0000e+00
       13  1    1    2    0    0 -7.4710455191e+02 +4.7810863776e+02 +1.8076639252e+03 2.0135545554e+03 0.0000000000e+00 0.0000e+00 -1.0000e+00
<mgrwt>
<rscale>  0 0.30177865E+04</rscale>
<asrwt>0</asrwt>
<pdfrwt beam="1">  1        2 0.32497937E+00 0.30177865E+04</pdfrwt>
<pdfrwt beam="2">  1       -2 0.16581909E+00 0.30177865E+04</pdfrwt>
<totfact> 0.13328197E+00</totfact>
</mgrwt>
<rwgt>
<wgt id='morphing_basis_vector_1'> +8.3108122e-05 </wgt>
<wgt id='morphing_basis_vector_2'> +5.6131652e-05 </wgt>
<wgt id='morphing_basis_vector_3'> +9.0593532e-05 </wgt>
<wgt id='morphing_basis_vector_4'> +6.4620502e-05 </wgt>
<wgt id='morphing_basis_vector_5'> +1.0311785e-04 </wgt>
</rwgt>
</event>
<event>
 4      1 +7.3133000e-09 2.68775000e+03 7.81860800e-03 7.83627400e-02
        2 -1    0    0  501    0 +0.0000000000e+00 +0.0000000000e+00 +2.5391421385e+03 2.5391421385e+03 0.0000000000e+00 0.0000e+00 1.0000e+00
       -2 -1    0    0    0  501 -0.0000000000e+00 -0.0000000000e+00 -7.1126377113e+02 7.1126377113e+02 0.0000000000e+00 0.0000e+00 -1.0000e+00
      -13  1    1    2    0    0 -1.0355702186e+03 +7.5690259347e+02 +4.2915695561e+02 1.3525837890e+03 0.0000000000e+00 0.0000e+00 -1.0000e+00
       13  1    1    2    0    0 +1.0355702186e+03 -7.5690259347e+02 +1.3987214117e+03 1.8978221206e+03 0.0000000000e+00 0.0000e+00 1.0000e+00
<mgrwt>
<rscale>  0 0.26877498E+04</rscale>
<asrwt>0</asrwt>
<pdfrwt beam="1">  1        2 0.39063725E+00 0.26877498E+04</pdfrwt>
<pdfrwt beam="2">  1       -2 0.10942520E+00 0.26877498E+04</pdfrwt>
<totfact> 0.24063011E+00</totfact>
</mgrwt>
<rwgt>
<wgt id='morphing_basis_vector_1'> +5.3119548e-05 </wgt>
<wgt id='morphing_basis_vector_2'> +3.7100573e-05 </wgt>
<wgt id='morphing_basis_vector_3'> +5.7920036e-05 </wgt>
<wgt id='morphing_basis_vector_4'> +3.9279945e-05 </wgt>
<wgt id='morphing_basis_vector_5'> +6.4490009e-05 </wgt>
</rwgt>
</event>
<event>
 4      1 +7.3133000e-09 3.10211300e+03 7.81860800e-03 7.72695400e-02
        2 -1    0    0  501    0 +0.0000000000e+00 +0.0000000000e+00 +2.9190356819e+03 2.9190356819e+03 0.0000000000e+00 0.0000e+00 -1.0000e+00
       -2 -1    0    0    0  501 -0.0000000000e+00 -0.0000000000e+00 -8.2416828520e+02 8.2416828520e+02 0.0000000000e+00 0.0000e+00 1.0000e+00
      -13  1    1    2    0    0 +9.3291961458e+02 +1.1622557323e+03 +5.2899095797e+02 1.5814578174e+03 0.0000000000e+00 0.0000e+00 1.0000e+00
       13  1    1    2    0    0 -9.3291961458e+02 -1.1622557323e+03 +1.5658764387e+03 2.1617461497e+03 0.0000000000e+00 0.0000e+00 -1.0000e+00
<mgrwt>
<rscale>  0 0.31021132E+04</rscale>
<asrwt>0</asrwt>
<pdfrwt beam="1">  1        2 0.44908241E+00 0.31021132E+04</pdfrwt>
<pdfrwt beam="2">  1       -2 0.12679512E+00 0.31021132E+04</pdfrwt>
<totfact> 0.92382338E-01</totfact>
</mgrwt>
<rwgt>
<wgt id='morphing_basis_vector_1'> +9.3832541e-05 </wgt>
<wgt id='morphing_basis_vector_2'> +6.5969742e-05 </wgt>
<wgt id='morphing_basis_vector_3'> +1.0291661e-04 </wgt>
<wgt id='morphing_basis_vector_4'> +6.9864133e-05 </wgt>
<wgt id='morphing_basis_vector_5'> +1.1505011e-04 </wgt>
</rwgt>
</event>
<event>
 4      1 +7.3133000e-09 2.84836900e+03 7.81860800e-03 7.79166100e-02
        2 -1    0    0  501    0 +0.0000000000e+00 +0.0000000000e+00 +2.9106422541e+03 2.9106422541e+03 0.0000000000e+00 0.0000e+00 1.0000e+00
       -2 -1    0    0    0  501 -0.0000000000e+00 -0.0000000000e+00 -6.9685725871e+02 6.9685725871e+02 0.0000000000e+00 0.0000e+00 -1.0000e+00
      -13  1    1    2    0    0 -6.0036447563e+02 -1.2592746578e+03 +7.4401468582e+02 1.5810654699e+03 0.0000000000e+00 0.0000e+00 -1.0000e+00
       13  1    1    2    0    0 +6.0036447563e+02 +1.2592746578e+03 +1.4697703096e+03 2.0264340429e+03 0.0000000000e+00 0.0000e+00 1.0000e+00
<mgrwt>
<rscale>  0 0.28483695E+04</rscale>
<asrwt>0</asrwt>
<pdfrwt beam="1">  1        2 0.44779111E+00 0.28483695E+04</pdfrwt>
<pdfrwt beam="2">  1       -2 0.10720881E+00 0.28483695E+04</pdfrwt>
<totfact> 0.14702851E+00</totfact>
</mgrwt>
<rwgt>
<wgt id='morphing_basis_vector_1'> +6.7209705e-05 </wgt>
<wgt id='morphing_basis_vector_2'> +4.7846275e-05 </wgt>
<wgt id='morphing_basis_vector_3'> +7.3630992e-05 </wgt>
<wgt id='morphing_basis_vector_4'> +4.8886543e-05 </wgt>
<wgt id='morphing_basis_vector_5'> +8.1476703e-05 </wgt>
</rwgt>
</event>
<event>
 4      1 +7.3133000e-09 2.81237300e+03 7.81860800e-03 7.80139500e-02
        2 -1    0    0  501    0 +0.0000000000e+00 +0.0000000000e+00 +1.4478699911e+03 1.4478699911e+03 0.0000000000e+00 0.0000e+00 1.0000e+00
       -2 -1    0    0    0  501 -0.0000000000e+00 -0.0000000000e+00 -1.3657028699e+03 1.3657028699e+03 0.0000000000e+00 0.0000e+00 -1.0000e+00
      -13  1    1    2    0    0 +3.7452483671e+02 -1.3073222453e+03 +3.9900695399e+02 1.4172391667e+03 0.0000000000e+00 0.0000e+00 -1.0000e+00
       13  1    1    2    0    0 -3.7452483671e+02 +1.3073222453e+03 -3.1683983277e+02 1.3963336943e+03 0.0000000000e+00 0.0000e+00 1.0000e+00
<mgrwt>
<rscale>  0 0.28123728E+04</rscale>
<asrwt>0</asrwt>
<pdfrwt beam="1">  1        2 0.22274923E+00 0.28123728E+04</pdfrwt>
<pdfrwt beam="2">  1       -2 0.21010813E+00 0.28123728E+04</pdfrwt>
<totfact> 0.14874444E+00</totfact>
</mgrwt>
<rwgt>
<wgt id='morphing_basis_vector_1'> +6.8355965e-05 </wgt>
<wgt id='morphing_basis_vector_2'> +5.8588205e-05 </wgt>
<wgt id='morphing_basis_vector_3'> +7.6885169e-05 </wgt>
<wgt id='morphing_basis_vector_4'> +3.7226432e-05 </wgt>
<wgt id='morphing_basis_vector_5'> +7.6642515e-05 </wgt>
</rwgt>
</event>
<event>
 4      1 +7.3133000e-09 3.03267200e+03 7.81860800e-03 7.74401100e-02
        2 -1    0    0  501    0 +0.0000000000e+00 +0.0000000000e+00 +1.6469316506e+03 1.6469316506e+03 0.0000000000e+00 0.0000e+00 1.0000e+00
       -2 -1    0    0    0  501 -0.0000000000e+00 -0.0000000000e+00 -1.3960956605e+03 1.3960956605e+03 0.0000000000e+00 0.0000e+00 -1.0000e+00
      -13  1    1    2    0    0 +1.4637475337e+03 +3.5304476984e+02 -5.4293217542e+01 1.5067001046e+03 0.0000000000e+00 0.0000e+00 -1.0000e+00
       13  1    1    2    0    0 -1.4637475337e+03 -3.5304476984e+02 +3.0512920766e+02 1.5363272064e+03 0.0000000000e+00 0.0000e+00 1.0000e+00
<mgrwt>
<rscale>  0 0.30326715E+04</rscale>
<asrwt>0</asrwt>
<pdfrwt beam="1">  1        2 0.25337410E+00 0.30326715E+04</pdfrwt>
<pdfrwt beam="2">  1       -2 0.21478395E+00 0.30326715E+04</pdfrwt>
<totfact> 0.10461529E+00</totfact>
</mgrwt>
<rwgt>
<wgt id='morphing_basis_vector_1'> +8.6717356e-05 </wgt>
<wgt id='morphing_basis_vector_2'> +6.3051249e-05 </wgt>
<wgt id='morphing_basis_vector_3'> +9.5483769e-05 </wgt>
<wgt id='morphing_basis_vector_4'> +6.1806369e-05 </wgt>
<wgt id='morphing_basis_vector_5'> +1.0484750e-04 </wgt>
</rwgt>
</event>
<event>
 4      1 +7.3133000e-09 2.75110400e+03 7.81860800e-03 7.81830800e-02
        2 -1    0    0  501    0 +0.0000000000e+00 +0.0000000000e+00 +1.3891518018e+03 1.3891518018e+03 0.0000000000e+00 0.0000e+00 -1.0000e+00
       -2 -1    0    0    0  501 -0.0000000000e+00 -0.0000000000e+00 -1.3620852982e+03 1.3620852982e+03 0.0000000000e+00 0.0000e+00 1.0000e+00
      -13  1    1    2    0    0 +8.3098220448e+02 -5.7481400504e+02 -9.1989323643e+02 1.3664355568e+03 0.0000000000e+00 0.0000e+00 1.0000e+00
       13  1    1    2    0    0 -8.3098220448e+02 +5.7481400504e+02 +9.4695974005e+02 1.3848015431e+03 0.0000000000e+00 0.0000e+00 -1.0000e+00
<mgrwt>
<rscale>  0 0.27511040E+04</rscale>
<asrwt>0</asrwt>
<pdfrwt beam="1">  1        2 0.21371566E+00 0.27511040E+04</pdfrwt>
<pdfrwt beam="2">  1       -2 0.20955158E+00 0.27511040E+04</pdfrwt>
<totfact> 0.16286035E+00</totfact>
</mgrwt>
<rwgt>
<wgt id='morphing_basis_vector_1'> +5.7669828e-05 </wgt>
<wgt id='morphing_basis_vector_2'> +3.9001557e-05 </wgt>
<wgt id='morphing_basis_vector_3'> +6.2679486e-05 </wgt>
<wgt id='morphing_basis_vector_4'> +4.4354179e-05 </wgt>
<wgt id='morphing_basis_vector_5'> +7.0957665e-05 </wgt>
</rwgt>
</event>
<event>
 4      1 +7.3133000e-09 3.16970200e+03 7.81860800e-03 7.71078900e-02
        2 -1    0    0  501    0 +0.0000000000e+00 +0.0000000000e+00 +2.6702943856e+03 2.6702943856e+03 0.0000000000e+00 0.0000e+00 1.0000e+00
       -2 -1    0    0    0  501 -0.0000000000e+00 -0.0000000000e+00 -9.4062775339e+02 9.4062775339e+02 0.0000000000e+00 0.0000e+00 -1.0000e+00
      -13  1    1    2    0    0 +8.1838540788e+02 +9.4829008062e+00 -6.8125279171e+02 1.0648708689e+03 0.0000000000e+00 0.0000e+00 -1.0000e+00
       13  1    1    2    0    0 -8.1838540788e+02 -9.4829008062e+00 +2.4109194239e+03 2.5460512701e+03 0.0000000000e+00 0.0000e+00 1.0000e+00
<mgrwt>
<rscale>  0 0.31697022E+04</rscale>
<asrwt>0</asrwt>
<pdfrwt beam="1">  1        2 0.41081452E+00 0.31697022E+04</pdfrwt>
<pdfrwt beam="2">  1       -2 0.14471196E+00 0.31697022E+04</pdfrwt>
<totfact> 0.91721327E-01</totfact>
</mgrwt>
<rwgt>
<wgt id='morphing_basis_vector_1'> +1.0095847e-04 </wgt>
<wgt id='morphing_basis_vector_2'> +6.8208192e-05 </wgt>
<wgt id='morphing_basis_vector_3'> +1.1021319e-04 </wgt>
<wgt id='morphing_basis_vector_4'> +7.8818293e-05 </wgt>
<wgt id='morphing_basis_vector_5'> +1.2571218e-04 </wgt>
</rwgt>
</event>
<event>
 4      1 +7.3133000e-09 2.76412300e+03 7.81860800e-03 7.81467700e-02
        2 -1    0    0  501    0 +0.0000000000e+00 +0.0000000000e+00 +1.3284547493e+03 1.3284547493e+03 0.0000000000e+00 0.0000e+00 1.0000e+00
       -2 -1    0    0    0  501 -0.0000000000e+00 -0.0000000000e+00 -1.4378314106e+03 1.4378314106e+03 0.0000000000e+00 0.0000e+00 -1.0000e+00
      -13  1    1    2    0    0 +5.8726266035e+02 +8.8803465958e+01 -1.3035954276e+03 1.4325238311e+03 0.0000000000e+00 0.0000e+00 -1.0000e+00
       13  1    1    2    0    0 -5.8726266035e+02 -8.8803465958e+01 +1.1942187663e+03 1.3337623288e+03 0.0000000000e+00 0.0000e+00 1.0000e+00
<mgrwt>
<rscale>  0 0.27641230E+04</rscale>
<asrwt>0</asrwt>
<pdfrwt beam="1">  1        2 0.20437765E+00 0.27641230E+04</pdfrwt>
<pdfrwt beam="2">  1       -2 0.22120483E+00 0.27641230E+04</pdfrwt>
<totfact> 0.14539716E+00</totfact>
</mgrwt>
<rwgt>
<wgt id='morphing_basis_vector_1'> +5.8676256e-05 </wgt>
<wgt id='morphing_basis_vector_2'> +3.9502787e-05 </wgt>
<wgt id='morphing_basis_vector_3'> +6.3747866e-05 </wgt>
<wgt id='morphing_basis_vector_4'> +4.5376207e-05 </wgt>
<wgt id='morphing_basis_vector_5'> +7.2338446e-05 </wgt>
</rwgt>
</event>
<event>
 4      1 +7.3133000e-09 2.67874300e+03 7.81860800e-03 7.83886900e-02
        2 -1    0    0  501    0 +0.0000000000e+00 +0.0000000000e+00 +9.7757971418e+02 9.7757971418e+02 0.0000000000e+00 0.0000e+00 -1.0000e+00
       -2 -1    0    0    0  501 -0.0000000000e+00 -0.0000000000e+00 -1.8350590674e+03 1.8350590674e+03 0.0000000000e+00 0.0000e+00 1.0000e+00
      -13  1    1    2    0    0 -1.1819300310e+03 +5.5199193499e+02 -1.0980905286e+02 1.3090881264e+03 0.0000000000e+00 0.0000e+00 1.0000e+00
       13  1    1    2    0    0 +1.1819300310e+03 -5.5199193499e+02 -7.4767030032e+02 1.5035506551e+03 0.0000000000e+00 0.0000e+00 -1.0000e+00
<mgrwt>
<rscale>  0 0.26787434E+04</rscale>
<asrwt>0</asrwt>
<pdfrwt beam="1">  1        2 0.15039688E+00 0.26787434E+04</pdfrwt>
<pdfrwt beam="2">  1       -2 0.28231678E+00 0.26787434E+04</pdfrwt>
<totfact> 0.89320463E-01</totfact>
</mgrwt>
<rwgt>
<wgt id='morphing_basis_vector_1'> +5.5983071e-05 </wgt>
<wgt id='morphing_basis_vector_2'> +4.7116314e-05 </wgt>
<wgt id='morphing_basis_vector_3'> +6.2645791e-05 </wgt>
<wgt id='morphing_basis_vector_4'> +3.1397938e-05 </wgt>
<wgt id='morphing_basis_vector_5'> +6.3021064e-05 </wgt>
</rwgt>
</event>
<event>
 4      1 +7.3133000e-09 2.69210000e+03 7.81860800e-03 7.83502400e-02
        2 -1    0    0  501    0 +0.0000000000e+00 +0.0000000000e+00 +1.7390893675e+03 1.7390893675e+03 0.0000000000e+00 0.0000e+00 -1.0000e+00
       -2 -1    0    0    0  501 -0.0000000000e+00 -0.0000000000e+00 -1.0418387753e+03 1.0418387753e+03 0.0000000000e+00 0.0000e+00 1.0000e+00
      -13  1    1    2    0    0 +1.1753416031e+03 -6.0524802166e+02 +6.1015422545e+02 1.4560361364e+03 0.0000000000e+00 0.0000e+00 1.0000e+00
       13  1    1    2    0    0 -1.1753416031e+03 +6.0524802166e+02 +8.7096366763e+01 1.3248920064e+03 0.0000000000e+00 0.0000e+00 -1.0000e+00
<mgrwt>
<rscale>  0 0.26921001E+04</rscale>
<asrwt>0</asrwt>
<pdfrwt beam="1">  1        2 0.26755221E+00 0.26921001E+04</pdfrwt>
<pdfrwt beam="2">  1       -2 0.16028289E+00 0.26921001E+04</pdfrwt>
<totfact> 0.24549671E+00</totfact>
</mgrwt>
<rwgt>
<wgt id='morphing_basis_vector_1'> +5.6582203e-05 </wgt>
<wgt id='morphing_basis_vector_2'> +4.6543981e-05 </wgt>
<wgt id='morphing_basis_vector_3'> +6.3114950e-05 </wgt>
<wgt id='morphing_basis_vector_4'> +3.3094390e-05 </wgt>
<wgt id='morphing_basis_vector_5'> +6.4387675e-05 </wgt>
</rwgt>
</event>
<event>
 4      1 +7.3133000e-09 2.70180900e+03 7.81860800e-03 7.83224400e-02
        2 -1    0    0  501    0 +0.0000000000e+00 +0.0000000000e+00 +1.3335970190e+03 1.3335970190e+03 0.0000000000e+00 0.0000e+00 -1.0000e+00
       -2 -1    0    0    0  501 -0.0000000000e+00 -0.0000000000e+00 -1.3684370091e+03 1.3684370091e+03 0.0000000000e+00 0.0000e+00 1.0000e+00
      -13  1    1    2    0    0 -7.1069391749e+02 +8.0177588012e+02 -8.4029646524e+02 1.3616271721e+03 0.0000000000e+00 0.0000e+00 1.0000e+00
       13  1    1    2    0    0 +7.1069391749e+02 -8.0177588012e+02 +8.0545647514e+02 1.3404068560e+03 0.0000000000e+00 0.0000e+00 -1.0000e+00
<mgrwt>
<rscale>  0 0.27018094E+04</rscale>
<asrwt>0</asrwt>
<pdfrwt beam="1">  1        2 0.20516877E+00 0.27018094E+04</pdfrwt>
<pdfrwt beam="2">  1       -2 0.21052877E+00 0.27018094E+04</pdfrwt>
<totfact> 0.17302440E+00</totfact>
</mgrwt>
<rwgt>
<wgt id='morphing_basis_vector_1'> +5.3737124e-05 </wgt>
<wgt id='morphing_basis_vector_2'> +3.6434619e-05 </wgt>
<wgt id='morphing_basis_vector_3'> +5.8384235e-05 </wgt>
<wgt id='morphing_basis_vector_4'> +4.1128778e-05 </wgt>
<wgt id='morphing_basis_vector_5'> +6.5947619e-05 </wgt>
</rwgt>
</event>
<event>
 4      1 +7.3133000e-09 2.89829300e+03 7.81860800e-03 7.77839900e-02
        2 -1    0    0  501    0 +0.0000000000e+00 +0.0000000000e+00 +2.3075656019e+03 2.3075656019e+03 0.0000000000e+00 0.0000e+00 -1.0000e+00
       -2 -1    0    0    0  501 -0.0000000000e+00 -0.0000000000e+00 -9.1006088237e+02 9.1006088237e+02 0.0000000000e+00 0.0000e+00 1.0000e+00
      -13  1    1    2    0    0 +6.2025607059e+02 +9.3154956425e+02 -3.2329054567e+02 1.1649115677e+03 0.0000000000e+00 0.0000e+00 1.0000e+00
       13  1    1    2    0    0 -6.2025607059e+02 -9.3154956425e+02 +1.7207952652e+03 2.0527149165e+03 0.0000000000e+00 0.0000e+00 -1.0000e+00
<mgrwt>
<rscale>  0 0.28982927E+04</rscale>
<asrwt>0</asrwt>
<pdfrwt beam="1">  1        2 0.35501009E+00 0.28982927E+04</pdfrwt>
<pdfrwt beam="2">  1       -2 0.14000937E+00 0.28982927E+04</pdfrwt>
<totfact> 0.16933138E+00</totfact>
</mgrwt>
<rwgt>
<wgt id='morphing_basis_vector_1'> +7.0923742e-05 </wgt>
<wgt id='morphing_basis_vector_2'> +4.8110364e-05 </wgt>
<wgt id='morphing_basis_vector_3'> +7.7255516e-05 </wgt>
<wgt id='morphing_basis_vector_4'> +5.4669051e-05 </wgt>
<wgt id='morphing_basis_vector_5'> +8.7582091e-05 </wgt>
</rwgt>
</event>
<event>
 4      1 +7.3133000e-09 2.70926100e+03 7.81860800e-03 7.83011800e-02
        2 -1    0    0  501    0 +0.0000000000e+00 +0.0000000000e+00 +2.6485491561e+03 2.6485491561e+03 0.0000000000e+00 0.0000e+00 1.0000e+00
       -2 -1    0    0    0  501 -0.0000000000e+00 -0.0000000000e+00 -6.9284116873e+02 6.9284116873e+02 0.0000000000e+00 0.0000e+00 -1.0000e+00
      -13  1    1    2    0    0 +2.5847337739e+02 -1.3290348356e+03 +1.0313553066e+03 1.7020093564e+03 0.0000000000e+00 0.0000e+00 -1.0000e+00
       13  1    1    2    0    0 -2.5847337739e+02 +1.3290348356e+03 +9.2435268079e+02 1.6393809684e+03 0.0000000000e+00 0.0000e+00 1.0000e+00
<mgrwt>
<rscale>  0 0.27092611E+04</rscale>
<asrwt>0</asrwt>
<pdfrwt beam="1">  1        2 0.40746910E+00 0.27092611E+04</pdfrwt>
<pdfrwt beam="2">  1       -2 0.10659095E+00 0.27092611E+04</pdfrwt>
<totfact> 0.22012001E+00</totfact>
</mgrwt>
<rwgt>
<wgt id='morphing_basis_vector_1'> +5.6426832e-05 </wgt>
<wgt id='morphing_basis_vector_2'> +4.3030437e-05 </wgt>
<wgt id='morphing_basis_vector_3'> +6.2276907e-05 </wgt>
<wgt id='morphing_basis_vector_4'> +3.7250291e-05 </wgt>
<wgt id='morphing_basis_vector_5'> +6.6332138e-05 </wgt>
</rwgt>
</event>
<event>
 4      1 +7.3133000e-09 2.74113700e+03 7.81860800e-03 7.82110200e-02
        2 -1    0    0  501    0 +0.0000000000e+00 +0.0000000000e+00 +3.8580288388e+03 3.8580288388e+03 0.0000000000e+00 0.0000e+00 1.0000e+00
       -2 -1    0    0    0  501 -0.0000000000e+00 -0.0000000000e+00 -4.8689582519e+02 4.8689582519e+02 0.0000000000e+00 0.0000e+00 -1.0000e+00
      -13  1    1    2    0    0 +3.4362757574e+02 -1.3199754606e+03 +1.8984813615e+03 2.3376583598e+03 0.0000000000e+00 0.0000e+00 1.0000e+00
       13  1    1    2    0    0 -3.4362757574e+02 +1.3199754606e+03 +1.4726516522e+03 2.0072663042e+03 0.0000000000e+00 0.0000e+00 -1.0000e+00
<mgrwt>
<rscale>  0 0.27411371E+04</rscale>
<asrwt>0</asrwt>
<pdfrwt beam="1">  1        2 0.59354288E+00 0.27411371E+04</pdfrwt>
<pdfrwt beam="2">  1       -2 0.74907052E-01 0.27411371E+04</pdfrwt>
<totfact> 0.72223738E-01</totfact>
</mgrwt>
<rwgt>
<wgt id='morphing_basis_vector_1'> +5.9709519e-05 </wgt>
<wgt id='morphing_basis_vector_2'> +4.6878026e-05 </wgt>
<wgt id='morphing_basis_vector_3'> +6.6205987e-05 </wgt>
<wgt id='morphing_basis_vector_4'> +3.7792048e-05 </wgt>
<wgt id='morphing_basis_vector_5'> +6.9441012e-05 </wgt>
</rwgt>
</event>
<event>
 4      1 +7.3133000e-09 3.13637800e+03 7.81860800e-03 7.71870600e-02
        2 -1    0    0  501    0 +0.0000000000e+00 +0.0000000000e+00 +1.0402675685e+03 1.0402675685e+03 0.0000000000e+00 0.0000e+00 -1.0000e+00
       -2 -1    0    0    0  501 -0.0000000000e+00 -0.0000000000e+00 -2.3640240238e+03 2.3640240238e+03 0.0000000000e+00 0.0000e+00 1.0000e+00
      -13  1    1    2    0    0 +1.1633947235e+03 +1.0448502930e+03 -7.9039000962e+02 1.7521175146e+03 0.0000000000e+00 0.0000e+00 1.0000e+00
       13  1    1    2    0    0 -1.1633947235e+03 -1.0448502930e+03 -5.3336644573e+02 1.6521740777e+03 0.0000000000e+00 0.0000e+00 -1.0000e+00
<mgrwt>
<rscale>  0 0.31363785E+04</rscale>
<asrwt>0</asrwt>
<pdfrwt beam="1">  1        2 0.16004117E+00 0.31363785E+04</pdfrwt>
<pdfrwt beam="2">  1       -2 0.36369600E+00 0.31363785E+04</pdfrwt>
<totfact> 0.22663690E-01</totfact>
</mgrwt>
<rwgt>
<wgt id='morphing_basis_vector_1'> +9.9486553e-05 </wgt>
<wgt id='morphing_basis_vector_2'> +7.3264806e-05 </wgt>
<wgt id='morphing_basis_vector_3'> +1.0985855e-04 </wgt>
<wgt id='morphing_basis_vector_4'> +6.9947120e-05 </wgt>
<wgt id='morphing_basis_vector_5'> +1.2000748e-04 </wgt>
</rwgt>
</event>
<event>
 4      1 +7.3133000e-09 2.88736500e+03 7.81860800e-03 7.78127900e-02
        2 -1    0    0  501    0 +0.0000000000e+00 +0.0000000000e+00 +3.3366060618e+03 3.3366060618e+03 0.0000000000e+00 0.0000e+00 -1.0000e+00
       -2 -1    0    0    0  501 -0.0000000000e+00 -0.0000000000e+00 -6.2465234286e+02 6.2465234286e+02 0.0000000000e+00 0.0000e+00 1.0000e+00
      -13  1    1    2    0    0 -4.6254052824e+02 +3.8501378429e+02 +3.1563108082e+03 3.2131724623e+03 0.0000000000e+00 0.0000e+00 -1.0000e+00
       13  1    1    2    0    0 +4.6254052824e+02 -3.8501378429e+02 -4.4435708928e+02 7.4808594236e+02 0.0000000000e+00 0.0000e+00 1.0000e+00
<mgrwt>
<rscale>  0 0.28873647E+04</rscale>
<asrwt>0</asrwt>
<pdfrwt beam="1">  1        2 0.51332400E+00 0.28873647E+04</pdfrwt>
<pdfrwt beam="2">  1       -2 0.96100362E-01 0.28873647E+04</pdfrwt>
<totfact> 0.99171504E-01</totfact>
</mgrwt>
<rwgt>
<wgt id='morphing_basis_vector_1'> +9.5048313e-05 </wgt>
<wgt id='morphing_basis_vector_2'> +1.2156968e-04 </wgt>
<wgt id='morphing_basis_vector_3'> +1.1532784e-04 </wgt>
<wgt id='morphing_basis_vector_4'> +1.5699624e-06 </wgt>
<wgt id='morphing_basis_vector_5'> +8.1971026e-05 </wgt>
</rwgt>
</event>
<event>
 4      1 +7.3133000e-09 3.02138100e+03 7.81860800e-03 7.74682900e-02
        2 -1    0    0  501    0 +0.0000000000e+00 +0.0000000000e+00 +2.4216226197e+03 2.4216226197e+03 0.0000000000e+00 0.0000e+00 1.0000e+00
       -2 -1    0    0    0  501 -0.0000000000e+00 -0.0000000000e+00 -9.4241986787e+02 9.4241986787e+02 0.0000000000e+00 0.0000e+00 -1.0000e+00
      -13  1    1    2    0    0 +8.5552233252e+02 +9.4010698790e+02 -1.6935892550e+02 1.2823424097e+03 0.0000000000e+00 0.0000e+00 -1.0000e+00
       13  1    1    2    0    0 -8.5552233252e+02 -9.4010698790e+02 +1.6485616774e+03 2.0817000779e+03 0.0000000000e+00 0.0000e+00 1.0000e+00
<mgrwt>
<rscale>  0 0.30213807E+04</rscale>
<asrwt>0</asrwt>
<pdfrwt beam="1">  1        2 0.37255732E+00 0.30213807E+04</pdfrwt>
<pdfrwt beam="2">  1       -2 0.14498767E+00 0.30213807E+04</pdfrwt>
<totfact> 0.13036543E+00</totfact>
</mgrwt>
<rwgt>
<wgt id='morphing_basis_vector_1'> +8.3763266e-05 </wgt>
<wgt id='morphing_basis_vector_2'> +5.7170355e-05 </wgt>
<wgt id='morphing_basis_vector_3'> +9.1436139e-05 </wgt>
<wgt id='morphing_basis_vector_4'> +6.4385608e-05 </wgt>
<wgt id='morphing_basis_vector_5'> +1.0356941e-04 </wgt>
</rwgt>
</event>
<event>
 4      1 +7.3133000e-09 2.79773800e+03 7.81860800e-03 7.80539500e-02
        2 -1    0    0  501    0 +0.0000000000e+00 +0.0000000000e+00 +1.4841384549e+03 1.4841384549e+03 0.0000000000e+00 0.0000e+00 1.0000e+00
       -2 -1    0    0    0  501 -0.0000000000e+00 -0.0000000000e+00 -1.3184989629e+03 1.3184989629e+03 0.0000000000e+00 0.0000e+00 -1.0000e+00
      -13  1    1    2    0    0 -8.9447309093e+02 -1.4947034536e+00 -9.9458701042e+02 1.3376425778e+03 0.0000000000e+00 0.0000e+00 -1.0000e+00
       13  1    1    2    0    0 +8.9447309093e+02 +1.4947034536e+00 +1.1602265024e+03 1.4649948401e+03 0.0000000000e+00 0.0000e+00 1.0000e+00
<mgrwt>
<rscale>  0 0.27977384E+04</rscale>
<asrwt>0</asrwt>
<pdfrwt beam="1">  1        2 0.22832899E+00 0.27977384E+04</pdfrwt>
<pdfrwt beam="2">  1       -2 0.20284599E+00 0.27977384E+04</pdfrwt>
<totfact> 0.16037765E+00</totfact>
</mgrwt>
<rwgt>
<wgt id='morphing_basis_vector_1'> +6.1587888e-05 </wgt>
<wgt id='morphing_basis_vector_2'> +4.1557923e-05 </wgt>
<wgt id='morphing_basis_vector_3'> +6.6959594e-05 </wgt>
<wgt id='morphing_basis_vector_4'> +4.7572279e-05 </wgt>
<wgt id='morphing_basis_vector_5'> +7.5953867e-05 </wgt>
</rwgt>
</event>
<event>
 4      1 +7.3133000e-09 3.04494000e+03 7.81860800e-03 7.74096300e-02
        2 -1    0    0  501    0 +0.0000000000e+00 +0.0000000000e+00 +2.3743066771e+03 2.3743066771e+03 0.0000000000e+00 0.0000e+00 -1.0000e+00
       -2 -1    0    0    0  501 -0.0000000000e+00 -0.0000000000e+00 -9.7624945450e+02 9.7624945450e+02 0.0000000000e+00 0.0000e+00 1.0000e+00
      -13  1    1    2    0    0 +1.5168779423e+03 +7.4643327784e+01 +8.1664599712e+02 1.7243552426e+03 0.0000000000e+00 0.0000e+00 1.0000e+00
       13  1    1    2    0    0 -1.5168779423e+03 -7.4643327784e+01 +5.8141122550e+02 1.6262008890e+03 0.0000000000e+00 0.0000e+00 -1.0000e+00
<mgrwt>
<rscale>  0 0.30449405E+04</rscale>
<asrwt>0</asrwt>
<pdfrwt beam="1">  1        2 0.36527795E+00 0.30449405E+04</pdfrwt>
<pdfrwt beam="2">  1       -2 0.15019222E+00 0.30449405E+04</pdfrwt>
<totfact> 0.12553709E+00</totfact>
</mgrwt>
<rwgt>
<wgt id='morphing_basis_vector_1'> +9.0131221e-05 </wgt>
<wgt id='morphing_basis_vector_2'> +7.0005935e-05 </wgt>
<wgt id='morphing_basis_vector_3'> +1.0019689e-04 </wgt>
<wgt id='morphing_basis_vector_4'> +5.8622087e-05 </wgt>
<wgt id='morphing_basis_vector_5'> +1.0622386e-04 </wgt>
</rwgt>
</event>
<event>
 4      1 +7.3133000e-09 2.86175000e+03 7.81860800e-03 7.78807900e-02
        2 -1    0    0  501    0 +0.0000000000e+00 +0.0000000000e+00 +3.4873370992e+03 3.4873370992e+03 0.0000000000e+00 0.0000e+00 1.0000e+00
       -2 -1    0    0    0  501 -0.0000000000e+00 -0.0000000000e+00 -5.8709661571e+02 5.8709661571e+02 0.0000000000e+00 0.0000e+00 -1.0000e+00
      -13  1    1    2    0    0 +2.5641010446e+02 -1.3421259593e+03 +8.4547547937e+02 1.6068220245e+03 0.0000000000e+00 0.0000e+00 1.0000e+00
       13  1    1    2    0    0 -2.5641010446e+02 +1.3421259593e+03 +2.0547650042e+03 2.4676116904e+03 0.0000000000e+00 0.0000e+00 -1.0000e+00
<mgrwt>
<rscale>  0 0.28617504E+04</rscale>
<asrwt>0</asrwt>
<pdfrwt beam="1">  1        2 0.53651339E+00 0.28617504E+04</pdfrwt>
<pdfrwt beam="2">  1       -2 0.90322559E-01 0.28617504E+04</pdfrwt>
<totfact> 0.89755309E-01</totfact>
</mgrwt>
<rwgt>
<wgt id='morphing_basis_vector_1'> +6.8093190e-05 </wgt>
<wgt id='morphing_basis_vector_2'> +4.7641034e-05 </wgt>
<wgt id='morphing_basis_vector_3'> +7.4439614e-05 </wgt>
<wgt id='morphing_basis_vector_4'> +5.0599615e-05 </wgt>
<wgt id='morphing_basis_vector_5'> +8.3097554e-05 </wgt>
</rwgt>
</event>
<event>
 4      1 +7.3133000e-09 2.83892800e+03 7.81860800e-03 7.79420000e-02
        2 -1    0    0  501    0 +0.0000000000e+00 +0.0000000000e+00 +1.8636806657e+03 1.8636806657e+03 0.0000000000e+00 0.0000e+00 1.0000e+00
       -2 -1    0    0    0  501 -0.0000000000e+00 -0.0000000000e+00 -1.0811287044e+03 1.0811287044e+03 0.0000000000e+00 0.0000e+00 -1.0000e+00
      -13  1    1    2    0    0 +1.3909709024e+03 -8.1140412384e+01 +6.7248625455e+02 1.5471333428e+03 0.0000000000e+00 0.0000e+00 1.0000e+00
       13  1    1    2    0    0 -1.3909709024e+03 +8.1140412384e+01 +1.1006570669e+02 1.3976760274e+03 0.0000000000e+00 0.0000e+00 -1.0000e+00
<mgrwt>
<rscale>  0 0.28389284E+04</rscale>
<asrwt>0</asrwt>
<pdfrwt beam="1">  1        2 0.28672010E+00 0.28389284E+04</pdfrwt>
<pdfrwt beam="2">  1       -2 0.16632749E+00 0.28389284E+04</pdfrwt>
<totfact> 0.18505368E+00</totfact>
</mgrwt>
<rwgt>
<wgt id='morphing_basis_vector_1'> +6.9861739e-05 </wgt>
<wgt id='morphing_basis_vector_2'> +5.7619023e-05 </wgt>
<wgt id='morphing_basis_vector_3'> +7.8148014e-05 </wgt>
<wgt id='morphing_basis_vector_4'> +4.0917114e-05 </wgt>
<wgt id='morphing_basis_vector_5'> +7.9792088e-05 </wgt>
</rwgt>
</event>
<event>
 4      1 +7.3133000e-09 2.82551400e+03 7.81860800e-03 7.79782400e-02
        2 -1    0    0  501    0 +0.0000000000e+00 +0.0000000000e+00 +2.1605590062e+03 2.1605590062e+03 0.0000000000e+00 0.0000e+00 1.0000e+00
       -2 -1    0    0    0  501 -0.0000000000e+00 -0.0000000000e+00 -9.2378046038e+02 9.2378046038e+02 0.0000000000e+00 0.0000e+00 -1.0000e+00
      -13  1    1    2    0    0 +1.7276923022e+02 -1.1623230246e+03 -2.3769350320e+02 1.1988920810e+03 0.0000000000e+00 0.0000e+00 -1.0000e+00
       13  1    1    2    0    0 -1.7276923022e+02 +1.1623230246e+03 +1.4744720490e+03 1.8854473856e+03 0.0000000000e+00 0.0000e+00 1.0000e+00
<mgrwt>
<rscale>  0 0.28255139E+04</rscale>
<asrwt>0</asrwt>
<pdfrwt beam="1">  1        2 0.33239369E+00 0.28255139E+04</pdfrwt>
<pdfrwt beam="2">  1       -2 0.14212007E+00 0.28255139E+04</pdfrwt>
<totfact> 0.19861185E+00</totfact>
</mgrwt>
<rwgt>
<wgt id='morphing_basis_vector_1'> +6.4211234e-05 </wgt>
<wgt id='morphing_basis_vector_2'> +4.3718127e-05 </wgt>
<wgt id='morphing_basis_vector_3'> +6.9916061e-05 </wgt>
<wgt id='morphing_basis_vector_4'> +4.9162727e-05 </wgt>
<wgt id='morphing_basis_vector_5'> +7.9018508e-05 </wgt>
</rwgt>
</event>
<event>
 4      1 +7.3133000e-09 2.72054400e+03 7.81860800e-03 7.82691200e-02
        2 -1    0    0  501    0 +0.0000000000e+00 +0.0000000000e+00 +1.2876671183e+03 1.2876671183e+03 0.0000000000e+00 0.0000e+00 -1.0000e+00
       -2 -1    0    0    0  501 -0.0000000000e+00 -0.0000000000e+00 -1.4369710136e+03 1.4369710136e+03 0.0000000000e+00 0.0000e+00 1.0000e+00
      -13  1    1    2    0    0 -3.8475305415e+02 +1.1132330100e+03 -7.5612990632e+02 1.3996624888e+03 0.0000000000e+00 0.0000e+00 1.0000e+00
       13  1    1    2    0    0 +3.8475305415e+02 -1.1132330100e+03 +6.0682601096e+02 1.3249756431e+03 0.0000000000e+00 0.0000e+00 -1.0000e+00
<mgrwt>
<rscale>  0 0.27205443E+04</rscale>
<asrwt>0</asrwt>
<pdfrwt beam="1">  1        2 0.19810263E+00 0.27205443E+04</pdfrwt>
<pdfrwt beam="2">  1       -2 0.22107246E+00 0.27205443E+04</pdfrwt>
<totfact> 0.15432297E+00</totfact>
</mgrwt>
<rwgt>
<wgt id='morphing_basis_vector_1'> +5.5340703e-05 </wgt>
<wgt id='morphing_basis_vector_2'> +3.7788368e-05 </wgt>
<wgt id='morphing_basis_vector_3'> +6.0196229e-05 </wgt>
<wgt id='morphing_basis_vector_4'> +4.2057411e-05 </wgt>
<wgt id='morphing_basis_vector_5'> +6.7796973e-05 </wgt>
</rwgt>
</event>
<event>
 4      1 +7.3133000e-09 2.90082500e+03 7.81860800e-03 7.77773400e-02
        2 -1    0    0  501    0 +0.0000000000e+00 +0.0000000000e+00 +3.0623337506e+03 3.0623337506e+03 0.0000000000e+00 0.0000e+00 -1.0000e+00
       -2 -1    0    0    0  501 -0.0000000000e+00 -0.0000000000e+00 -6.8695836410e+02 6.8695836410e+02 0.0000000000e+00 0.0000e+00 1.0000e+00
      -13  1    1    2    0    0 -1.1099336542e+03 +6.7811169065e+02 +3.5816605696e+02 1.3491001097e+03 0.0000000000e+00 0.0000e+00 1.0000e+00
       13  1    1    2    0    0 +1.1099336542e+03 -6.7811169065e+02 +2.0172093295e+03 2.4001920050e+03 0.0000000000e+00 0.0000e+00 -1.0000e+00
<mgrwt>
<rscale>  0 0.29008246E+04</rscale>
<asrwt>0</asrwt>
<pdfrwt beam="1">  1        2 0.47112826E+00 0.29008246E+04</pdfrwt>
<pdfrwt beam="2">  1       -2 0.10568590E+00 0.29008246E+04</pdfrwt>
<totfact> 0.12086496E+00</totfact>
</mgrwt>
<rwgt>
<wgt id='morphing_basis_vector_1'> +7.1451660e-05 </wgt>
<wgt id='morphing_basis_vector_2'> +4.9109340e-05 </wgt>
<wgt id='morphing_basis_vector_3'> +7.7965568e-05 </wgt>
<wgt id='morphing_basis_vector_4'> +5.4276047e-05 </wgt>
<wgt id='morphing_basis_vector_5'> +8.7843378e-05 </wgt>
</rwgt>
</event>
<event>
 4      1 +7.3133000e-09 2.73895100e+03 7.81860800e-03 7.82171600e-02
        2 -1    0    0  501    0 +0.0000000000e+00 +0.0000000000e+00 +2.9330004019e+03 2.9330004019e+03 0.0000000000e+00 0.0000e+00 1.0000e+00
       -2 -1    0    0    0  501 -0.0000000000e+00 -0.0000000000e+00 -6.3943506002e+02 6.3943506002e+02 0.0000000000e+00 0.0000e+00 -1.0000e+00
      -13  1    1    2    0    0 +5.1131065129e+02 -3.6104850145e+02 -4.4194177334e+02 7.6622916516e+02 0.0000000000e+00 0.0000e+00 -1.0000e+00
       13  1    1    2    0    0 -5.1131065129e+02 +3.6104850145e+02 +2.7355071152e+03 2.8062062967e+03 0.0000000000e+00 0.0000e+00 1.0000e+00
<mgrwt>
<rscale>  0 0.27389511E+04</rscale>
<asrwt>0</asrwt>
<pdfrwt beam="1">  1        2 0.45123082E+00 0.27389511E+04</pdfrwt>
<pdfrwt beam="2">  1       -2 0.98374626E-01 0.27389511E+04</pdfrwt>
<totfact> 0.17716159E+00</totfact>
</mgrwt>
<rwgt>
<wgt id='morphing_basis_vector_1'> +5.6592102e-05 </wgt>
<wgt id='morphing_basis_vector_2'> +3.8095051e-05 </wgt>
<wgt id='morphing_basis_vector_3'> +6.1462023e-05 </wgt>
<wgt id='morphing_basis_vector_4'> +4.3725403e-05 </wgt>
<wgt id='morphing_basis_vector_5'> +6.9711943e-05 </wgt>
</rwgt>
</event>
<event>
 4      1 +7.3133000e-09 2.72489400e+03 7.81860800e-03 7.82568000e-02
        2 -1    0    0  501    0 +0.0000000000e+00 +0.0000000000e+00 +2.1687992533e+03 2.1687992533e+03 0.0000000000e+00 0.0000e+00 -1.0000e+00
       -2 -1    0    0    0  501 -0.0000000000e+00 -0.0000000000e+00 -8.5589378458e+02 8.5589378458e+02 0.0000000000e+00 0.0000e+00 1.0000e+00
      -13  1    1    2    0    0 -2.5814964689e+02 +9.7415594527e+02 -3.6128743896e+02 1.0705837938e+03 0.0000000000e+00 0.0000e+00 1.0000e+00
       13  1    1    2    0    0 +2.5814964689e+02 -9.7415594527e+02 +1.6741929077e+03 1.9541092442e+03 0.0000000000e+00 0.0000e+00 -1.0000e+00
<mgrwt>
<rscale>  0 0.27248940E+04</rscale>
<asrwt>0</asrwt>
<pdfrwt beam="1">  1        2 0.33366142E+00 0.27248940E+04</pdfrwt>
<pdfrwt beam="2">  1       -2 0.13167597E+00 0.27248940E+04</pdfrwt>
<totfact> 0.24437776E+00</totfact>
</mgrwt>
<rwgt>
<wgt id='morphing_basis_vector_1'> +5.5529909e-05 </wgt>
<wgt id='morphing_basis_vector_2'> +3.7552967e-05 </wgt>
<wgt id='morphing_basis_vector_3'> +6.0331899e-05 </wgt>
<wgt id='morphing_basis_vector_4'> +4.2663856e-05 </wgt>
<wgt id='morphing_basis_vector_5'> +6.8263556e-05 </wgt>
</rwgt>
</event>
<event>
 4      1 +7.3133000e-09 2.85270500e+03 7.81860800e-03 7.79049800e-02
        2 -1    0    0  501    0 +0.0000000000e+00 +0.0000000000e+00 +2.8270248665e+03 2.8270248665e+03 0.0000000000e+00 0.0000e+00 1.0000e+00
       -2 -1    0    0    0  501 -0.0000000000e+00 -0.0000000000e+00 -7.1965453607e+02 7.1965453607e+02 0.0000000000e+00 0.0000e+00 -1.0000e+00
      -13  1    1    2    0    0 +7.3502017767e+02 +1.1424964384e+03 +5.1328705437e+02 1.4522452870e+03 0.0000000000e+00 0.0000e+00 1.0000e+00
       13  1    1    2    0    0 -7.3502017767e+02 -1.1424964384e+03 +1.5940832760e+03 2.0944341156e+03 0.0000000000e+00 0.0000e+00 -1.0000e+00
<mgrwt>
<rscale>  0 0.28527049E+04</rscale>
<asrwt>0</asrwt>
<pdfrwt beam="1">  1        2 0.43492690E+00 0.28527049E+04</pdfrwt>
<pdfrwt beam="2">  1       -2 0.11071608E+00 0.28527049E+04</pdfrwt>
<totfact> 0.15326347E+00</totfact>
</mgrwt>
<rwgt>
<wgt id='morphing_basis_vector_1'> +6.7219173e-05 </wgt>
<wgt id='morphing_basis_vector_2'> +4.6968525e-05 </wgt>
<wgt id='morphing_basis_vector_3'> +7.3463304e-05 </wgt>
<wgt id='morphing_basis_vector_4'> +5.0010145e-05 </wgt>
<wgt id='morphing_basis_vector_5'> +8.2046130e-05 </wgt>
</rwgt>
</event>
<event>
 4      1 +7.3133000e-09 2.67722100e+03 7.81860800e-03 7.83930900e-02
        2 -1    0    0  501    0 +0.0000000000e+00 +0.0000000000e+00 +2.1915086397e+03 2.1915086397e+03 0.0000000000e+00 0.0000e+00 1.0000e+00
       -2 -1    0    0    0  501 -0.0000000000e+00 -0.0000000000e+00 -8.1764568795e+02 8.1764568795e+02 0.0000000000e+00 0.0000e+00 -1.0000e+00
      -13  1    1    2    0    0 +1.2357360580e+03 -4.8213143918e+02 +8.8919640095e+02 1.5969234700e+03 0.0000000000e+00 0.0000e+00 1.0000e+00
       13  1    1    2    0    0 -1.2357360580e+03 +4.8213143918e+02 +4.8466655081e+02 1.4122308576e+03 0.0000000000e+00 0.0000e+00 -1.0000e+00
<mgrwt>
<rscale>  0 0.26772206E+04</rscale>
<asrwt>0</asrwt>
<pdfrwt beam="1">  1        2 0.33715517E+00 0.26772206E+04</pdfrwt>
<pdfrwt beam="2">  1       -2 0.12579165E+00 0.26772206E+04</pdfrwt>
<totfact> 0.26889522E+00</totfact>
</mgrwt>
<rwgt>
<wgt id='morphing_basis_vector_1'> +5.4747983e-05 </wgt>
<wgt id='morphing_basis_vector_2'> +4.3739214e-05 </wgt>
<wgt id='morphing_basis_vector_3'> +6.0792063e-05 </wgt>
<wgt id='morphing_basis_vector_4'> +3.3614319e-05 </wgt>
<wgt id='morphing_basis_vector_5'> +6.3062887e-05 </wgt>
</rwgt>
</event>
<event>
 4      1 +7.3133000e-09 2.85416600e+03 7.81860800e-03 7.79010700e-02
        2 -1    0    0  501    0 +0.0000000000e+00 +0.0000000000e+00 +1.7548086602e+03 1.7548086602e+03 0.0000000000e+00 0.0000e+00 -1.0000e+00
       -2 -1    0    0    0  501 -0.0000000000e+00 -0.0000000000e+00 -1.1605628778e+03 1.1605628778e+03 0.0000000000e+00 0.0000e+00 1.0000e+00
      -13  1    1    2    0    0 +1.3114804485e+03 -4.8360444484e+02 +3.3594109823e+00 1.3978073943e+03 0.0000000000e+00 0.0000e+00 1.0000e+00
       13  1    1    2    0    0 -1.3114804485e+03 +4.8360444484e+02 +5.9088637145e+02 1.5175641436e+03 0.0000000000e+00 0.0000e+00 -1.0000e+00
<mgrwt>
<rscale>  0 0.28541659E+04</rscale>
<asrwt>0</asrwt>
<pdfrwt beam="1">  1        2 0.26997056E+00 0.28541659E+04</pdfrwt>
<pdfrwt beam="2">  1       -2 0.17854814E+00 0.28541659E+04</pdfrwt>
<totfact> 0.17091630E+00</totfact>
</mgrwt>
<rwgt>
<wgt id='morphing_basis_vector_1'> +6.7751371e-05 </wgt>
<wgt id='morphing_basis_vector_2'> +4.8230509e-05 </wgt>
<wgt id='morphing_basis_vector_3'> +7.4229623e-05 </wgt>
<wgt id='morphing_basis_vector_4'> +4.9292759e-05 </wgt>
<wgt id='morphing_basis_vector_5'> +8.2148748e-05 </wgt>
</rwgt>
</event>
<event>
 4      1 +7.3133000e-09 2.86164200e+03 7.81860800e-03 7.78810800e-02
        2 -1    0    0  501    0 +0.0000000000e+00 +0.0000000000e+00 +1.9014383044e+03 1.9014383044e+03 0.0000000000e+00 0.0000e+00 1.0000e+00
       -2 -1    0    0    0  501 -0.0000000000e+00 -0.0000000000e+00 -1.0766842264e+03 1.0766842264e+03 0.0000000000e+00 0.0000e+00 -1.0000e+00
      -13  1    1    2    0    0 -1.0411932474e+03 -9.8113244899e+02 +4.3665845020e+02 1.4957857009e+03 0.0000000000e+00 0.0000e+00 -1.0000e+00
       13  1    1    2    0    0 +1.0411932474e+03 +9.8113244899e+02 +3.8809562779e+02 1.4823368299e+03 0.0000000000e+00 0.0000e+00 1.0000e+00
<mgrwt>
<rscale>  0 0.28616419E+04</rscale>
<asrwt>0</asrwt>
<pdfrwt beam="1">  1        2 0.29252897E+00 0.28616419E+04</pdfrwt>
<pdfrwt beam="2">  1       -2 0.16564373E+00 0.28616419E+04</pdfrwt>
<totfact> 0.17812818E+00</totfact>
</mgrwt>
<rwgt>
<wgt id='morphing_basis_vector_1'> +6.9921713e-05 </wgt>
<wgt id='morphing_basis_vector_2'> +5.3051522e-05 </wgt>
<wgt id='morphing_basis_vector_3'> +7.7290123e-05 </wgt>
<wgt id='morphing_basis_vector_4'> +4.6777164e-05 </wgt>
<wgt id='morphing_basis_vector_5'> +8.2772303e-05 </wgt>
</rwgt>
</event>
<event>
 4      1 +7.3133000e-09 2.77574100e+03 7.81860800e-03 7.81145400e-02
        2 -1    0    0  501    0 +0.0000000000e+00 +0.0000000000e+00 +2.7249627266e+03 2.7249627266e+03 0.0000000000e+00 0.0000e+00 1.0000e+00
       -2 -1    0    0    0  501 -0.0000000000e+00 -0.0000000000e+00 -7.0686658347e+02 7.0686658347e+02 0.0000000000e+00 0.0000e+00 -1.0000e+00
      -13  1    1    2    0    0 +1.1260831740e+03 -7.2031190251e+02 +1.4704500202e+03 1.9872432699e+03 0.0000000000e+00 0.0000e+00 1.0000e+00
       13  1    1    2    0    0 -1.1260831740e+03 +7.2031190251e+02 +5.4764612291e+02 1.4445860402e+03 0.0000000000e+00 0.0000e+00 -1.0000e+00
<mgrwt>
<rscale>  0 0.27757414E+04</rscale>
<asrwt>0</asrwt>
<pdfrwt beam="1">  1        2 0.41922503E+00 0.27757414E+04</pdfrwt>
<pdfrwt beam="2">  1       -2 0.10874871E+00 0.27757414E+04</pdfrwt>
<totfact> 0.18687014E+00</totfact>
</mgrwt>
<rwgt>
<wgt id='morphing_basis_vector_1'> +6.5151287e-05 </wgt>
<wgt id='morphing_basis_vector_2'> +5.6357444e-05 </wgt>
<wgt id='morphing_basis_vector_3'> +7.3340947e-05 </wgt>
<wgt id='morphing_basis_vector_4'> +3.4784496e-05 </wgt>
<wgt id='morphing_basis_vector_5'> +7.2645955e-05 </wgt>
</rwgt>
</event>
<event>
 4      1 +7.3133000e-09 2.75098500e+03 7.81860800e-03 7.81834100e-02
        2 -1    0    0  501    0 +0.0000000000e+00 +0.0000000000e+00 +1.7140694601e+03 1.7140694601e+03 0.0000000000e+00 0.0000e+00 -1.0000e+00
       -2 -1    0    0    0  501 -0.0000000000e+00 -0.0000000000e+00 -1.1037942552e+03 1.1037942552e+03 0.0000000000e+00 0.0000e+00 1.0000e+00
      -13  1    1    2    0    0 +7.1559544940e+00 +4.7080293635e+02 -1.0186719168e+03 1.1222295161e+03 0.0000000000e+00 0.0000e+00 1.0000e+00
       13  1    1    2    0    0 -7.1559544940e+00 -4.7080293635e+02 +1.6289471217e+03 1.6956341993e+03 0.0000000000e+00 0.0000e+00 -1.0000e+00
<mgrwt>
<rscale>  0 0.27509853E+04</rscale>
<asrwt>0</asrwt>
<pdfrwt beam="1">  1        2 0.26370300E+00 0.27509853E+04</pdfrwt>
<pdfrwt beam="2">  1       -2 0.16981450E+00 0.27509853E+04</pdfrwt>
<totfact> 0.21214802E+00</totfact>
</mgrwt>
<rwgt>
<wgt id='morphing_basis_vector_1'> +5.7576592e-05 </wgt>
<wgt id='morphing_basis_vector_2'> +3.8749051e-05 </wgt>
<wgt id='morphing_basis_vector_3'> +6.2539557e-05 </wgt>
<wgt id='morphing_basis_vector_4'> +4.4518895e-05 </wgt>
<wgt id='morphing_basis_vector_5'> +7.0959382e-05 </wgt>
</rwgt>
</event>
<event>
 4      1 +7.3133000e-09 2.73110500e+03 7.81860800e-03 7.82392600e-02
        2 -1    0    0  501    0 +0.0000000000e+00 +0.0000000000e+00 +2.3389365349e+03 2.3389365349e+03 0.0000000000e+00 0.0000e+00 -1.0000e+00
       -2 -1    0    0    0  501 -0.0000000000e+00 -0.0000000000e+00 -7.9725706233e+02 7.9725706233e+02 0.0000000000e+00 0.0000e+00 1.0000e+00
      -13  1    1    2    0    0 -1.0048134059e+03 +1.9169935290e+02 -2.6795571129e+02 1.0574492356e+03 0.0000000000e+00 0.0000e+00 1.0000e+00
       13  1    1    2    0    0 +1.0048134059e+03 -1.9169935290e+02 +1.8096351838e+03 2.0787443617e+03 0.0000000000e+00 0.0000e+00 -1.0000e+00
<mgrwt>
<rscale>  0 0.27311050E+04</rscale>
<asrwt>0</asrwt>
<pdfrwt beam="1">  1        2 0.35983639E+00 0.27311050E+04</pdfrwt>
<pdfrwt beam="2">  1       -2 0.12265493E+00 0.27311050E+04</pdfrwt>
<totfact> 0.23508110E+00</totfact>
</mgrwt>
<rwgt>
<wgt id='morphing_basis_vector_1'> +5.6039143e-05 </wgt>
<wgt id='morphing_basis_vector_2'> +3.7915014e-05 </wgt>
<wgt id='morphing_basis_vector_3'> +6.0893947e-05 </wgt>
<wgt id='morphing_basis_vector_4'> +4.3044220e-05 </wgt>
<wgt id='morphing_basis_vector_5'> +6.8893665e-05 </wgt>
</rwgt>
</event>
<event>
 4      1 +7.3133000e-09 3.12067100e+03 7.81860800e-03 7.72247300e-02
        2 -1    0    0  501    0 +0.0000000000e+00 +0.0000000000e+00 +2.0626469356e+03 2.0626469356e+03 0.0000000000e+00 0.0000e+00 -1.0000e+00
       -2 -1    0    0    0  501 -0.0000000000e+00 -0.0000000000e+00 -1.1803509276e+03 1.1803509276e+03 0.0000000000e+00 0.0000e+00 1.0000e+00
      -13  1    1    2    0    0 +1.0996128982e+03 +7.3338361910e+01 -7.0674114782e+02 1.3092020819e+03 0.0000000000e+00 0.0000e+00 1.0000e+00
       13  1    1    2    0    0 -1.0996128982e+03 -7.3338361910e+01 +1.5890371559e+03 1.9337957813e+03 0.0000000000e+00 0.0000e+00 -1.0000e+00
<mgrwt>
<rscale>  0 0.31206712E+04</rscale>
<asrwt>0</asrwt>
<pdfrwt beam="1">  1        2 0.31733030E+00 0.31206712E+04</pdfrwt>
<pdfrwt beam="2">  1       -2 0.18159245E+00 0.31206712E+04</pdfrwt>
<totfact> 0.10652772E+00</totfact>
</mgrwt>
<rwgt>
<wgt id='morphing_basis_vector_1'> +9.4993702e-05 </wgt>
<wgt id='morphing_basis_vector_2'> +6.4361923e-05 </wgt>
<wgt id='morphing_basis_vector_3'> +1.0369512e-04 </wgt>
<wgt id='morphing_basis_vector_4'> +7.3830078e-05 </wgt>
<wgt id='morphing_basis_vector_5'> +1.1803770e-04 </wgt>
</rwgt>
</event>
<event>
 4      1 +7.3133000e-09 2.68293100e+03 7.81860800e-03 7.83766100e-02
        2 -1    0    0  501    0 +0.0000000000e+00 +0.0000000000e+00 +1.6077527995e+03 1.6077527995e+03 0.0000000000e+00 0.0000e+00 1.0000e+00
       -2 -1    0    0    0  501 -0.0000000000e+00 -0.0000000000e+00 -1.1192827386e+03 1.1192827386e+03 0.0000000000e+00 0.0000e+00 -1.0000e+00
      -13  1    1    2    0    0 -1.8569989930e+02 +6.5545090823e+02 -9.3036974582e+02 1.1531210733e+03 0.0000000000e+00 0.0000e+00 -1.0000e+00
       13  1    1    2    0    0 +1.8569989930e+02 -6.5545090823e+02 +1.4188398067e+03 1.5739144649e+03 0.0000000000e+00 0.0000e+00 1.0000e+00
<mgrwt>
<rscale>  0 0.26829312E+04</rscale>
<asrwt>0</asrwt>
<pdfrwt beam="1">  1        2 0.24734658E+00 0.26829312E+04</pdfrwt>
<pdfrwt beam="2">  1       -2 0.17219734E+00 0.26829312E+04</pdfrwt>
<totfact> 0.23432079E+00</totfact>
</mgrwt>
<rwgt>
<wgt id='morphing_basis_vector_1'> +5.2154592e-05 </wgt>
<wgt id='morphing_basis_vector_2'> +3.5099032e-05 </wgt>
<wgt id='morphing_basis_vector_3'> +5.6596671e-05 </wgt>
<wgt id='morphing_basis_vector_4'> +4.0211955e-05 </wgt>
<wgt id='morphing_basis_vector_5'> +6.4122841e-05 </wgt>
</rwgt>
</event>
<event>
 4      1 +7.3133000e-09 2.87231300e+03 7.81860800e-03 7.78526600e-02
        2 -1    0    0  501    0 +0.0000000000e+00 +0.0000000000e+00 +3.7381005599e+03 3.7381005599e+03 0.0000000000e+00 0.0000e+00 -1.0000e+00
       -2 -1    0    0    0  501 -0.0000000000e+00 -0.0000000000e+00 -5.5176302716e+02 5.5176302716e+02 0.0000000000e+00 0.0000e+00 1.0000e+00
      -13  1    1    2    0    0 -1.2055242698e+03 -7.7144882819e+02 +1.4156743365e+03 2.0130960948e+03 0.0000000000e+00 0.0000e+00 1.0000e+00
       13  1    1    2    0    0 +1.2055242698e+03 +7.7144882819e+02 +1.7706631962e+03 2.2767674923e+03 0.0000000000e+00 0.0000e+00 -1.0000e+00
<mgrwt>
<rscale>  0 0.28723131E+04</rscale>
<asrwt>0</asrwt>
<pdfrwt beam="1">  1        2 0.57509238E+00 0.28723131E+04</pdfrwt>
<pdfrwt beam="2">  1       -2 0.84886622E-01 0.28723131E+04</pdfrwt>
<totfact> 0.66998512E-01</totfact>
</mgrwt>
<rwgt>
<wgt id='morphing_basis_vector_1'> +7.0152615e-05 </wgt>
<wgt id='morphing_basis_vector_2'> +5.1464201e-05 </wgt>
<wgt id='morphing_basis_vector_3'> +7.7192723e-05 </wgt>
<wgt id='morphing_basis_vector_4'> +4.9161051e-05 </wgt>
<wgt id='morphing_basis_vector_5'> +8.4163216e-05 </wgt>
</rwgt>
</event>
<event>
 4      1 +7.3133000e-09 2.95033000e+03 7.81860800e-03 7.76486000e-02
        2 -1    0    0  501    0 +0.0000000000e+00 +0.0000000000e+00 +1.9841273088e+03 1.9841273088e+03 0.0000000000e+00 0.0000e+00 1.0000e+00
       -2 -1    0    0    0  501 -0.0000000000e+00 -0.0000000000e+00 -1.0967598722e+03 1.0967598722e+03 0.0000000000e+00 0.0000e+00 -1.0000e+00
      -13  1    1    2    0    0 +5.7598696551e+02 -5.1865481373e+02 -8.6698649056e+02 1.1629399705e+03 0.0000000000e+00 0.0000e+00 -1.0000e+00
       13  1    1    2    0    0 -5.7598696551e+02 +5.1865481373e+02 +1.7543539271e+03 1.9179472104e+03 0.0000000000e+00 0.0000e+00 1.0000e+00
<mgrwt>
<rscale>  0 0.29503296E+04</rscale>
<asrwt>0</asrwt>
<pdfrwt beam="1">  1        2 0.30525035E+00 0.29503296E+04</pdfrwt>
<pdfrwt beam="2">  1       -2 0.16873229E+00 0.29503296E+04</pdfrwt>
<totfact> 0.15027404E+00</totfact>
</mgrwt>
<rwgt>
<wgt id='morphing_basis_vector_1'> +7.5971322e-05 </wgt>
<wgt id='morphing_basis_vector_2'> +5.1253385e-05 </wgt>
<wgt id='morphing_basis_vector_3'> +8.2743379e-05 </wgt>
<wgt id='morphing_basis_vector_4'> +5.9016872e-05 </wgt>
<wgt id='morphing_basis_vector_5'> +9.4128593e-05 </wgt>
</rwgt>
</event>
<event>
 4      1 +7.3133000e-09 2.91979500e+03 7.81860800e-03 7.77277000e-02
        2 -1    0    0  501    0 +0.0000000000e+00 +0.0000000000e+00 +1.1279769172e+03 1.1279769172e+03 0.0000000000e+00 0.0000e+00 -1.0000e+00
       -2 -1    0    0    0  501 -0.0000000000e+00 -0.0000000000e+00 -1.8894896233e+03 1.8894896233e+03 0.0000000000e+00 0.0000e+00 1.0000e+00
      -13  1    1    2    0    0 -1.2821713144e+03 -5.0745560557e+02 +1.1468229563e+02 1.3837002927e+03 0.0000000000e+00 0.0000e+00 1.0000e+00
       13  1    1    2    0    0 +1.2821713144e+03 +5.0745560557e+02 -8.7619500175e+02 1.6337662477e+03 0.0000000000e+00 0.0000e+00 -1.0000e+00
<mgrwt>
<rscale>  0 0.29197950E+04</rscale>
<asrwt>0</asrwt>
<pdfrwt beam="1">  1        2 0.17353491E+00 0.29197950E+04</pdfrwt>
<pdfrwt beam="2">  1       -2 0.29069071E+00 0.29197950E+04</pdfrwt>
<totfact> 0.62140229E-01</totfact>
</mgrwt>
<rwgt>
<wgt id='morphing_basis_vector_1'> +8.1009373e-05 </wgt>
<wgt id='morphing_basis_vector_2'> +7.3050819e-05 </wgt>
<wgt id='morphing_basis_vector_3'> +9.2020174e-05 </wgt>
<wgt id='morphing_basis_vector_4'> +3.9747012e-05 </wgt>
<wgt id='morphing_basis_vector_5'> +8.8875301e-05 </wgt>
</rwgt>
</event>
<event>
 4      1 +7.3133000e-09 2.70564000e+03 7.81860800e-03 7.83115000e-02
        2 -1    0    0  501    0 +0.0000000000e+00 +0.0000000000e+00 +3.3394397083e+03 3.3394397083e+03 0.0000000000e+00 0.0000e+00 -1.0000e+00
       -2 -1    0    0    0  501 -0.0000000000e+00 -0.0000000000e+00 -5.4803256436e+02 5.4803256436e+02 0.0000000000e+00 0.0000e+00 1.0000e+00
      -13  1    1    2    0    0 +6.1486859190e+02 -1.1411687523e+03 +1.9517895224e+03 2.3430347515e+03 0.0000000000e+00 0.0000e+00 1.0000e+00
       13  1    1    2    0    0 -6.1486859190e+02 +1.1411687523e+03 +8.3961762153e+02 1.5444375212e+03 0.0000000000e+00 0.0000e+00 -1.0000e+00
<mgrwt>
<rscale>  0 0.27056398E+04</rscale>
<asrwt>0</asrwt>
<pdfrwt beam="1">  1        2 0.51375994E+00 0.27056398E+04</pdfrwt>
<pdfrwt beam="2">  1       -2 0.84312704E-01 0.27056398E+04</pdfrwt>
<totfact> 0.13619715E+00</totfact>
</mgrwt>
<rwgt>
<wgt id='morphing_basis_vector_1'> +5.9162636e-05 </wgt>
<wgt id='morphing_basis_vector_2'> +5.1745330e-05 </wgt>
<wgt id='morphing_basis_vector_3'> +6.6630692e-05 </wgt>
<wgt id='morphing_basis_vector_4'> +3.0785584e-05 </wgt>
<wgt id='morphing_basis_vector_5'> +6.5463328e-05 </wgt>
</rwgt>
</event>
<event>
 4      1 +7.3133000e-09 2.69408600e+03 7.81860800e-03 7.83445500e-02
        2 -1    0    0  501    0 +0.0000000000e+00 +0.0000000000e+00 +1.9606021917e+03 1.9606021917e+03 0.0000000000e+00 0.0000e+00 -1.0000e+00
       -2 -1    0    0    0  501 -0.0000000000e+00 -0.0000000000e+00 -9.2549371312e+02 9.2549371312e+02 0.0000000000e+00 0.0000e+00 1.0000e+00
      -13  1    1    2    0    0 +4.7830311109e+02 +1.0806990122e+03 -1.7492171421e+02 1.1946890086e+03 0.0000000000e+00 0.0000e+00 1.0000e+00
       13  1    1    2    0    0 -4.7830311109e+02 -1.0806990122e+03 +1.2100301927e+03 1.6914068962e+03 0.0000000000e+00 0.0000e+00 -1.0000e+00
<mgrwt>
<rscale>  0 0.26940861E+04</rscale>
<asrwt>0</asrwt>
<pdfrwt beam="1">  1        2 0.30163111E+00 0.26940861E+04</pdfrwt>
<pdfrwt beam="2">  1       -2 0.14238365E+00 0.26940861E+04</pdfrwt>
<totfact> 0.25927299E+00</totfact>
</mgrwt>
<rwgt>
<wgt id='morphing_basis_vector_1'> +5.3268633e-05 </wgt>
<wgt id='morphing_basis_vector_2'> +3.6424171e-05 </wgt>
<wgt id='morphing_basis_vector_3'> +5.7930768e-05 </wgt>
<wgt id='morphing_basis_vector_4'> +4.0373781e-05 </wgt>
<wgt id='morphing_basis_vector_5'> +6.5165614e-05 </wgt>
</rwgt>
</event>
<event>
 4      1 +7.3133000e-09 2.86279900e+03 7.81860800e-03 7.78779900e-02
        2 -1    0    0  501    0 +0.0000000000e+00 +0.0000000000e+00 +1.4007949591e+03 1.4007949591e+03 0.0000000000e+00 0.0000e+00 -1.0000e+00
       -2 -1    0    0    0  501 -0.0000000000e+00 -0.0000000000e+00 -1.4626727446e+03 1.4626727446e+03 0.0000000000e+00 0.0000e+00 1.0000e+00
      -13  1    1    2    0    0 -1.3239726570e+03 +2.0572605360e+02 -5.3472090495e+02 1.4426202729e+03 0.0000000000e+00 0.0000e+00 1.0000e+00
       13  1    1    2    0    0 +1.3239726570e+03 -2.0572605360e+02 +4.7284311945e+02 1.4208474307e+03 0.0000000000e+00 0.0000e+00 -1.0000e+00
<mgrwt>
<rscale>  0 0.28627991E+04</rscale>
<asrwt>0</asrwt>
<pdfrwt beam="1">  1        2 0.21550692E+00 0.28627991E+04</pdfrwt>
<pdfrwt beam="2">  1       -2 0.22502657E+00 0.28627991E+04</pdfrwt>
<totfact> 0.12327531E+00</totfact>
</mgrwt>
<rwgt>
<wgt id='morphing_basis_vector_1'> +6.8025473e-05 </wgt>
<wgt id='morphing_basis_vector_2'> +4.7219768e-05 </wgt>
<wgt id='morphing_basis_vector_3'> +7.4289461e-05 </wgt>
<wgt id='morphing_basis_vector_4'> +5.1020141e-05 </wgt>
<wgt id='morphing_basis_vector_5'> +8.3248925e-05 </wgt>
</rwgt>
</event>
<event>
 4      1 +7.3133000e-09 2.77781600e+03 7.81860800e-03 7.81088000e-02
        2 -1    0    0  501    0 +0.0000000000e+00 +0.0000000000e+00 +2.5823412445e+03 2.5823412445e+03 0.0000000000e+00 0.0000e+00 -1.0000e+00
       -2 -1    0    0    0  501 -0.0000000000e+00 -0.0000000000e+00 -7.4702169015e+02 7.4702169015e+02 0.0000000000e+00 0.0000e+00 1.0000e+00
      -13  1    1    2    0    0 -5.8506053712e+02 -4.1749672269e+02 -5.0678841632e+02 8.7945087667e+02 0.0000000000e+00 0.0000e+00 1.0000e+00
       13  1    1    2    0    0 +5.8506053712e+02 +4.1749672269e+02 +2.3421079707e+03 2.4499120580e+03 0.0000000000e+00 0.0000e+00 -1.0000e+00
<mgrwt>
<rscale>  0 0.27778156E+04</rscale>
<asrwt>0</asrwt>
<pdfrwt beam="1">  1        2 0.39728326E+00 0.27778156E+04</pdfrwt>
<pdfrwt beam="2">  1       -2 0.11492642E+00 0.27778156E+04</pdfrwt>
<totfact> 0.19868342E+00</totfact>
</mgrwt>
<rwgt>
<wgt id='morphing_basis_vector_1'> +5.9843411e-05 </wgt>
<wgt id='morphing_basis_vector_2'> +4.0312671e-05 </wgt>
<wgt id='morphing_basis_vector_3'> +6.5032430e-05 </wgt>
<wgt id='morphing_basis_vector_4'> +4.6273919e-05 </wgt>
<wgt id='morphing_basis_vector_5'> +7.3796255e-05 </wgt>
</rwgt>
</event>
<event>
 4      1 +7.3133000e-09 2.79819400e+03 7.81860800e-03 7.80527000e-02
        2 -1    0    0  501    0 +0.0000000000e+00 +0.0000000000e+00 +8.3262939805e+02 8.3262939805e+02 0.0000000000e+00 0.0000e+00 -1.0000e+00
       -2 -1    0    0    0  501 -0.0000000000e+00 -0.0000000000e+00 -2.3509534607e+03 2.3509534607e+03 0.0000000000e+00 0.0000e+00 1.0000e+00
      -13  1    1    2    0    0 -9.5155320972e+02 -5.8906073615e+02 -1.7144649848e+03 2.0473974323e+03 0.0000000000e+00 0.0000e+00 1.0000e+00
       13  1    1    2    0    0 +9.5155320972e+02 +5.8906073615e+02 +1.9614092218e+02 1.1361854264e+03 0.0000000000e+00 0.0000e+00 -1.0000e+00
<mgrwt>
<rscale>  0 0.27981944E+04</rscale>
<asrwt>0</asrwt>
<pdfrwt beam="1">  1        2 0.12809683E+00 0.27981944E+04</pdfrwt>
<pdfrwt beam="2">  1       -2 0.36168515E+00 0.27981944E+04</pdfrwt>
<totfact> 0.32652777E-01</totfact>
</mgrwt>
<rwgt>
<wgt id='morphing_basis_vector_1'> +6.1740477e-05 </wgt>
<wgt id='morphing_basis_vector_2'> +4.1917470e-05 </wgt>
<wgt id='morphing_basis_vector_3'> +6.7178352e-05 </wgt>
<wgt id='morphing_basis_vector_4'> +4.7369925e-05 </wgt>
<wgt id='morphing_basis_vector_5'> +7.5984790e-05 </wgt>
</rwgt>
</event>
<event>
 4      1 +7.3133000e-09 2.99818600e+03 7.81860800e-03 7.75265800e-02
        2 -1    0    0  501    0 +0.0000000000e+00 +0.0000000000e+00 +2.4098687318e+03 2.4098687318e+03 0.0000000000e+00 0.0000e+00 1.0000e+00
       -2 -1    0    0    0  501 -0.0000000000e+00 -0.0000000000e+00 -9.3253222306e+02 9.3253222306e+02 0.0000000000e+00 0.0000e+00 -1.0000e+00
      -13  1    1    2    0    0 -3.2369253124e+02 +1.4572834668e+03 +5.8569857525e+02 1.6035880950e+03 0.0000000000e+00 0.0000e+00 -1.0000e+00
       13  1    1    2    0    0 +3.2369253124e+02 -1.4572834668e+03 +8.9163793349e+02 1.7388128599e+03 0.0000000000e+00 0.0000e+00 1.0000e+00
<mgrwt>
<rscale>  0 0.29981863E+04</rscale>
<asrwt>0</asrwt>
<pdfrwt beam="1">  1        2 0.37074903E+00 0.29981863E+04</pdfrwt>
<pdfrwt beam="2">  1       -2 0.14346650E+00 0.29981863E+04</pdfrwt>
<totfact> 0.13670045E+00</totfact>
</mgrwt>
<rwgt>
<wgt id='morphing_basis_vector_1'> +8.3076345e-05 </wgt>
<wgt id='morphing_basis_vector_2'> +6.0840203e-05 </wgt>
<wgt id='morphing_basis_vector_3'> +9.1531146e-05 </wgt>
<wgt id='morphing_basis_vector_4'> +5.8598110e-05 </wgt>
<wgt id='morphing_basis_vector_5'> +1.0008466e-04 </wgt>
</rwgt>
</event>
<event>
 4      1 +7.3133000e-09 2.94927000e+03 7.81860800e-03 7.76513300e-02
        2 -1    0    0  501    0 +0.0000000000e+00 +0.0000000000e+00 +2.4210421354e+03 2.4210421354e+03 0.0000000000e+00 0.0000e+00 1.0000e+00
       -2 -1    0    0    0  501 -0.0000000000e+00 -0.0000000000e+00 -8.9818708894e+02 8.9818708894e+02 0.0000000000e+00 0.0000e+00 -1.0000e+00
      -13  1    1    2    0    0 -9.2232451534e+02 +1.0233666908e+03 +1.6954097568e+02 1.3880583698e+03 0.0000000000e+00 0.0000e+00 -1.0000e+00
       13  1    1    2    0    0 +9.2232451534e+02 -1.0233666908e+03 +1.3533140708e+03 1.9311708546e+03 0.0000000000e+00 0.0000e+00 1.0000e+00
<mgrwt>
<rscale>  0 0.29492703E+04</rscale>
<asrwt>0</asrwt>
<pdfrwt beam="1">  1        2 0.37246802E+00 0.29492703E+04</pdfrwt>
<pdfrwt beam="2">  1       -2 0.13818263E+00 0.29492703E+04</pdfrwt>
<totfact> 0.15002787E+00</totfact>
</mgrwt>
<rwgt>
<wgt id='morphing_basis_vector_1'> +7.6521673e-05 </wgt>
<wgt id='morphing_basis_vector_2'> +5.3119403e-05 </wgt>
<wgt id='morphing_basis_vector_3'> +8.3653150e-05 </wgt>
<wgt id='morphing_basis_vector_4'> +5.7562320e-05 </wgt>
<wgt id='morphing_basis_vector_5'> +9.3879842e-05 </wgt>
</rwgt>
</event>
<event>
 4      1 +7.3133000e-09 2.87325600e+03 7.81860800e-03 7.78501600e-02
        2 -1    0    0  501    0 +0.0000000000e+00 +0.0000000000e+00 +2.6776378735e+03 2.6776378735e+03 0.0000000000e+00 0.0000e+00 -1.0000e+00
       -2 -1    0    0    0  501 -0.0000000000e+00 -0.0000000000e+00 -7.7079129093e+02 7.7079129093e+02 0.0000000000e+00 0.0000e+00 1.0000e+00
      -13  1    1    2    0    0 +1.1784860815e+03 -6.6209950248e+02 +3.6951947628e+02 1.4013385882e+03 0.0000000000e+00 0.0000e+00 1.0000e+00
       13  1    1    2    0    0 -1.1784860815e+03 +6.6209950248e+02 +1.5373271063e+03 2.0470905762e+03 0.0000000000e+00 0.0000e+00 -1.0000e+00
<mgrwt>
<rscale>  0 0.28732560E+04</rscale>
<asrwt>0</asrwt>
<pdfrwt beam="1">  1        2 0.41194428E+00 0.28732560E+04</pdfrwt>
<pdfrwt beam="2">  1       -2 0.11858328E+00 0.28732560E+04</pdfrwt>
<totfact> 0.15906884E+00</totfact>
</mgrwt>
<rwgt>
<wgt id='morphing_basis_vector_1'> +6.9052513e-05 </wgt>
<wgt id='morphing_basis_vector_2'> +4.8021429e-05 </wgt>
<wgt id='morphing_basis_vector_3'> +7.5439005e-05 </wgt>
<wgt id='morphing_basis_vector_4'> +5.1698630e-05 </wgt>
<wgt id='morphing_basis_vector_5'> +8.4477455e-05 </wgt>
</rwgt>
</event>
<event>
 4      1 +7.3133000e-09 2.75572400e+03 7.81860800e-03 7.81701700e-02
        2 -1    0    0  501    0 +0.0000000000e+00 +0.0000000000e+00 +2.5710753138e+03 2.5710753138e+03 0.0000000000e+00 0.0000e+00 -1.0000e+00
       -2 -1    0    0    0  501 -0.0000000000e+00 -0.0000000000e+00 -7.3840824898e+02 7.3840824898e+02 0.0000000000e+00 0.0000e+00 1.0000e+00
      -13  1    1    2    0    0 +1.0877462427e+03 -8.0059282822e+02 +5.8884098288e+02 1.4733887702e+03 0.0000000000e+00 0.0000e+00 1.0000e+00
       13  1    1    2    0    0 -1.0877462427e+03 +8.0059282822e+02 +1.2438260819e+03 1.8360947925e+03 0.0000000000e+00 0.0000e+00 -1.0000e+00
<mgrwt>
<rscale>  0 0.27557237E+04</rscale>
<asrwt>0</asrwt>
<pdfrwt beam="1">  1        2 0.39555004E+00 0.27557237E+04</pdfrwt>
<pdfrwt beam="2">  1       -2 0.11360127E+00 0.27557237E+04</pdfrwt>
<totfact> 0.20826437E+00</totfact>
</mgrwt>
<rwgt>
<wgt id='morphing_basis_vector_1'> +5.8976687e-05 </wgt>
<wgt id='morphing_basis_vector_2'> +4.1982731e-05 </wgt>
<wgt id='morphing_basis_vector_3'> +6.4530278e-05 </wgt>
<wgt id='morphing_basis_vector_4'> +4.2747589e-05 </wgt>
<wgt id='morphing_basis_vector_5'> +7.1284609e-05 </wgt>
</rwgt>
</event>
<event>
 4      1 +7.3133000e-09 2.75460900e+03 7.81860800e-03 7.81732900e-02
        2 -1    0    0  501    0 +0.0000000000e+00 +0.0000000000e+00 +3.3947103361e+03 3.3947103361e+03 0.0000000000e+00 0.0000e+00 -1.0000e+00
       -2 -1    0    0    0  501 -0.0000000000e+00 -0.0000000000e+00 -5.5880101143e+02 5.5880101143e+02 0.0000000000e+00 0.0000e+00 1.0000e+00
      -13  1    1    2    0    0 -4.6279309017e+02 -3.8651213485e+02 -3.5930366246e+02 7.0190326723e+02 0.0000000000e+00 0.0000e+00 1.0000e+00
       13  1    1    2    0    0 +4.6279309017e+02 +3.8651213485e+02 +3.1952129871e+03 3.2516080802e+03 0.0000000000e+00 0.0000e+00 -1.0000e+00
<mgrwt>
<rscale>  0 0.27546089E+04</rscale>
<asrwt>0</asrwt>
<pdfrwt beam="1">  1        2 0.52226312E+00 0.27546089E+04</pdfrwt>
<pdfrwt beam="2">  1       -2 0.85969388E-01 0.27546089E+04</pdfrwt>
<totfact> 0.11850761E+00</totfact>
</mgrwt>
<rwgt>
<wgt id='morphing_basis_vector_1'> +5.7881643e-05 </wgt>
<wgt id='morphing_basis_vector_2'> +3.8965600e-05 </wgt>
<wgt id='morphing_basis_vector_3'> +6.2876218e-05 </wgt>
<wgt id='morphing_basis_vector_4'> +4.4747303e-05 </wgt>
<wgt id='morphing_basis_vector_5'> +7.1337216e-05 </wgt>
</rwgt>
</event>
<event>
 4      1 +7.3133000e-09 2.88877800e+03 7.81860800e-03 7.78090600e-02
        2 -1    0    0  501    0 +0.0000000000e+00 +0.0000000000e+00 +1.7847321045e+03 1.7847321045e+03 0.0000000000e+00 0.0000e+00 -1.0000e+00
       -2 -1    0    0    0  501 -0.0000000000e+00 -0.0000000000e+00 -1.1689480447e+03 1.1689480447e+03 0.0000000000e+00 0.0000e+00 1.0000e+00
      -13  1    1    2    0    0 -9.8670693024e+02 -1.0357452594e+03 +1.0365362932e+02 1.4342603960e+03 0.0000000000e+00 0.0000e+00 1.0000e+00
       13  1    1    2    0    0 +9.8670693024e+02 +1.0357452594e+03 +5.1213043048e+02 1.5194197532e+03 0.0000000000e+00 0.0000e+00 -1.0000e+00
<mgrwt>
<rscale>  0 0.28887777E+04</rscale>
<asrwt>0</asrwt>
<pdfrwt beam="1">  1        2 0.27457417E+00 0.28887777E+04</pdfrwt>
<pdfrwt beam="2">  1       -2 0.17983816E+00 0.28887777E+04</pdfrwt>
<totfact> 0.16034016E+00</totfact>
</mgrwt>
<rwgt>
<wgt id='morphing_basis_vector_1'> +7.1399999e-05 </wgt>
<wgt id='morphing_basis_vector_2'> +5.1591311e-05 </wgt>
<wgt id='morphing_basis_vector_3'> +7.8418903e-05 </wgt>
<wgt id='morphing_basis_vector_4'> +5.1053755e-05 </wgt>
<wgt id='morphing_basis_vector_5'> +8.6189507e-05 </wgt>
</rwgt>
</event>
<event>
 4      1 +7.3133000e-09 2.68216700e+03 7.81860800e-03 7.83788100e-02
        2 -1    0    0  501    0 +0.0000000000e+00 +0.0000000000e+00 +1.9385212143e+03 1.9385212143e+03 0.0000000000e+00 0.0000e+00 -1.0000e+00
       -2 -1    0    0    0  501 -0.0000000000e+00 -0.0000000000e+00 -9.2777177135e+02 9.2777177135e+02 0.0000000000e+00 0.0000e+00 1.0000e+00
      -13  1    1    2    0    0 +1.1395260179e+03 +4.9544567220e+02 -3.3757253839e+01 1.2430307767e+03 0.0000000000e+00 0.0000e+00 1.0000e+00
       13  1    1    2    0    0 -1.1395260179e+03 -4.9544567220e+02 +1.0445066968e+03 1.6232622090e+03 0.0000000000e+00 0.0000e+00 -1.0000e+00
<mgrwt>
<rscale>  0 0.26821672E+04</rscale>
<asrwt>0</asrwt>
<pdfrwt beam="1">  1        2 0.29823403E+00 0.26821672E+04</pdfrwt>
<pdfrwt beam="2">  1       -2 0.14273412E+00 0.26821672E+04</pdfrwt>
<totfact> 0.26522563E+00</totfact>
</mgrwt>
<rwgt>
<wgt id='morphing_basis_vector_1'> +5.2510370e-05 </wgt>
<wgt id='morphing_basis_vector_2'> +3.6281306e-05 </wgt>
<wgt id='morphing_basis_vector_3'> +5.7171798e-05 </wgt>
<wgt id='morphing_basis_vector_4'> +3.9310491e-05 </wgt>
<wgt id='morphing_basis_vector_5'> +6.3979299e-05 </wgt>
</rwgt>
</event>
<event>
 4      1 +7.3133000e-09 2.68137100e+03 7.81860800e-03 7.83811100e-02
        2 -1    0    0  501    0 +0.0000000000e+00 +0.0000000000e+00 +1.8699041744e+03 1.8699041744e+03 0.0000000000e+00 0.0000e+00 1.0000e+00
       -2 -1    0    0    0  501 -0.0000000000e+00 -0.0000000000e+00 -9.6124554956e+02 9.6124554956e+02 0.0000000000e+00 0.0000e+00 -1.0000e+00
      -13  1    1    2    0    0 -8.4185168577e+02 +1.0352565127e+03 +3.1679678433e+02 1.3714337426e+03 0.0000000000e+00 0.0000e+00 -1.0000e+00
       13  1    1    2    0    0 +8.4185168577e+02 -1.0352565127e+03 +5.9186184048e+02 1.4597159813e+03 0.0000000000e+00 0.0000e+00 1.0000e+00
<mgrwt>
<rscale>  0 0.26813706E+04</rscale>
<asrwt>0</asrwt>
<pdfrwt beam="1">  1        2 0.28767757E+00 0.26813706E+04</pdfrwt>
<pdfrwt beam="2">  1       -2 0.14788393E+00 0.26813706E+04</pdfrwt>
<totfact> 0.26230913E+00</totfact>
</mgrwt>
<rwgt>
<wgt id='morphing_basis_vector_1'> +5.3358316e-05 </wgt>
<wgt id='morphing_basis_vector_2'> +3.8920258e-05 </wgt>
<wgt id='morphing_basis_vector_3'> +5.8507300e-05 </wgt>
<wgt id='morphing_basis_vector_4'> +3.7386632e-05 </wgt>
<wgt id='morphing_basis_vector_5'> +6.3749472e-05 </wgt>
</rwgt>
</event>
<event>
 4      1 +7.3133000e-09 2.84686900e+03 7.81860800e-03 7.79206400e-02
        2 -1    0    0  501    0 +0.0000000000e+00 +0.0000000000e+00 +3.3208349136e+03 3.3208349136e+03 0.0000000000e+00 0.0000e+00 1.0000e+00
       -2 -1    0    0    0  501 -0.0000000000e+00 -0.0000000000e+00 -6.1013747035e+02 6.1013747035e+02 0.0000000000e+00 0.0000e+00 -1.0000e+00
      -13  1    1    2    0    0 -1.2376694150e+03 +6.1216055710e+02 +8.7782217106e+02 1.6361961657e+03 0.0000000000e+00 0.0000e+00 -1.0000e+00
       13  1    1    2    0    0 +1.2376694150e+03 -6.1216055710e+02 +1.8328752722e+03 2.2947762183e+03 0.0000000000e+00 0.0000e+00 1.0000e+00
<mgrwt>
<rscale>  0 0.28468690E+04</rscale>
<asrwt>0</asrwt>
<pdfrwt beam="1">  1        2 0.51089767E+00 0.28468690E+04</pdfrwt>
<pdfrwt beam="2">  1       -2 0.93867305E-01 0.28468690E+04</pdfrwt>
<totfact> 0.10791704E+00</totfact>
</mgrwt>
<rwgt>
<wgt id='morphing_basis_vector_1'> +6.6894087e-05 </wgt>
<wgt id='morphing_basis_vector_2'> +4.7228786e-05 </wgt>
<wgt id='morphing_basis_vector_3'> +7.3202978e-05 </wgt>
<wgt id='morphing_basis_vector_4'> +4.9146649e-05 </wgt>
<wgt id='morphing_basis_vector_5'> +8.1333291e-05 </wgt>
</rwgt>
</event>
<event>
 4      1 +7.3133000e-09 2.92949400e+03 7.81860800e-03 7.77024700e-02
        2 -1    0    0  501    0 +0.0000000000e+00 +0.0000000000e+00 +3.0482581072e+03 3.0482581072e+03 0.0000000000e+00 0.0000e+00 -1.0000e+00
       -2 -1    0    0    0  501 -0.0000000000e+00 -0.0000000000e+00 -7.0383906081e+02 7.0383906081e+02 0.0000000000e+00 0.0000e+00 1.0000e+00
      -13  1    1    2    0    0 -1.0077109849e+03 +2.9659572563e+02 -1.3523177027e+02 1.0591213742e+03 0.0000000000e+00 0.0000e+00 1.0000e+00
       13  1    1    2    0    0 +1.0077109849e+03 -2.9659572563e+02 +2.4796508166e+03 2.6929757938e+03 0.0000000000e+00 0.0000e+00 -1.0000e+00
<mgrwt>
<rscale>  0 0.29294936E+04</rscale>
<asrwt>0</asrwt>
<pdfrwt beam="1">  1        2 0.46896278E+00 0.29294936E+04</pdfrwt>
<pdfrwt beam="2">  1       -2 0.10828293E+00 0.29294936E+04</pdfrwt>
<totfact> 0.11596772E+00</totfact>
</mgrwt>
<rwgt>
<wgt id='morphing_basis_vector_1'> +7.3943760e-05 </wgt>
<wgt id='morphing_basis_vector_2'> +5.0050497e-05 </wgt>
<wgt id='morphing_basis_vector_3'> +8.0551024e-05 </wgt>
<wgt id='morphing_basis_vector_4'> +5.7194393e-05 </wgt>
<wgt id='morphing_basis_vector_5'> +9.1460655e-05 </wgt>
</rwgt>
</event>
<event>
 4      1 +7.3133000e-09 2.70957500e+03 7.81860800e-03 7.83002900e-02
        2 -1    0    0  501    0 +0.0000000000e+00 +0.0000000000e+00 +1.5150610831e+03 1.5150610831e+03 0.0000000000e+00 0.0000e+00 -1.0000e+00
       -2 -1    0    0    0  501 -0.0000000000e+00 -0.0000000000e+00 -1.2114685517e+03 1.2114685517e+03 0.0000000000e+00 0.0000e+00 1.0000e+00
      -13  1    1    2    0    0 +1.1099691205e+03 +1.8495130954e+02 -6.0738503782e+02 1.2787318013e+03 0.0000000000e+00 0.0000e+00 1.0000e+00
       13  1    1    2    0    0 -1.1099691205e+03 -1.8495130954e+02 +9.1097756918e+02 1.4477978336e+03 0.0000000000e+00 0.0000e+00 -1.0000e+00
<mgrwt>
<rscale>  0 0.27095748E+04</rscale>
<asrwt>0</asrwt>
<pdfrwt beam="1">  1        2 0.23308632E+00 0.27095748E+04</pdfrwt>
<pdfrwt beam="2">  1       -2 0.18637978E+00 0.27095748E+04</pdfrwt>
<totfact> 0.20539314E+00</totfact>
</mgrwt>
<rwgt>
<wgt id='morphing_basis_vector_1'> +5.4398449e-05 </wgt>
<wgt id='morphing_basis_vector_2'> +3.6994307e-05 </wgt>
<wgt id='morphing_basis_vector_3'> +5.9131718e-05 </wgt>
<wgt id='morphing_basis_vector_4'> +4.1509985e-05 </wgt>
<wgt id='morphing_basis_vector_5'> +6.6709360e-05 </wgt>
</rwgt>
</event>
<event>
 4      1 +7.3133000e-09 2.69499100e+03 7.81860800e-03 7.83419500e-02
        2 -1    0    0  501    0 +0.0000000000e+00 +0.0000000000e+00 +2.8384485859e+03 2.8384485859e+03 0.0000000000e+00 0.0000e+00 -1.0000e+00
       -2 -1    0    0    0  501 -0.0000000000e+00 -0.0000000000e+00 -6.3969579067e+02 6.3969579067e+02 0.0000000000e+00 0.0000e+00 1.0000e+00
      -13  1    1    2    0    0 -5.6776899867e+02 -1.5737123460e+02 -4.6465157102e+02 7.5035219983e+02 0.0000000000e+00 0.0000e+00 1.0000e+00
       13  1    1    2    0    0 +5.6776899867e+02 +1.5737123460e+02 +2.6634043662e+03 2.7277921767e+03 0.0000000000e+00 0.0000e+00 -1.0000e+00
<mgrwt>
<rscale>  0 0.26949906E+04</rscale>
<asrwt>0</asrwt>
<pdfrwt beam="1">  1        2 0.43668439E+00 0.26949906E+04</pdfrwt>
<pdfrwt beam="2">  1       -2 0.98414739E-01 0.26949906E+04</pdfrwt>
<totfact> 0.20409202E+00</totfact>
</mgrwt>
<rwgt>
<wgt id='morphing_basis_vector_1'> +5.3082008e-05 </wgt>
<wgt id='morphing_basis_vector_2'> +3.5714030e-05 </wgt>
<wgt id='morphing_basis_vector_3'> +5.7611150e-05 </wgt>
<wgt id='morphing_basis_vector_4'> +4.0959905e-05 </wgt>
<wgt id='morphing_basis_vector_5'> +6.5297470e-05 </wgt>
</rwgt>
</event>
<event>
 4      1 +7.3133000e-09 3.03819600e+03 7.81860800e-03 7.74263700e-02
        2 -1    0    0  501    0 +0.0000000000e+00 +0.0000000000e+00 +1.9957950271e+03 1.9957950271e+03 0.0000000000e+00 0.0000e+00 -1.0000e+00
       -2 -1    0    0    0  501 -0.0000000000e+00 -0.0000000000e+00 -1.1562600358e+03 1.1562600358e+03 0.0000000000e+00 0.0000e+00 1.0000e+00
      -13  1    1    2    0    0 +6.3862508926e+02 +1.4793028754e+02 -1.0019656258e+03 1.1973556238e+03 0.0000000000e+00 0.0000e+00 1.0000e+00
       13  1    1    2    0    0 -6.3862508926e+02 -1.4793028754e+02 +1.8415006171e+03 1.9546994391e+03 0.0000000000e+00 0.0000e+00 -1.0000e+00
<mgrwt>
<rscale>  0 0.30381955E+04</rscale>
<asrwt>0</asrwt>
<pdfrwt beam="1">  1        2 0.30704539E+00 0.30381955E+04</pdfrwt>
<pdfrwt beam="2">  1       -2 0.17788616E+00 0.30381955E+04</pdfrwt>
<totfact> 0.12483333E+00</totfact>
</mgrwt>
<rwgt>
<wgt id='morphing_basis_vector_1'> +8.5329210e-05 </wgt>
<wgt id='morphing_basis_vector_2'> +5.7573040e-05 </wgt>
<wgt id='morphing_basis_vector_3'> +9.3021334e-05 </wgt>
<wgt id='morphing_basis_vector_4'> +6.6463101e-05 </wgt>
<wgt id='morphing_basis_vector_5'> +1.0596568e-04 </wgt>
</rwgt>
</event>
<event>
 4      1 +7.3133000e-09 3.12894000e+03 7.81860800e-03 7.72048700e-02
        2 -1    0    0  501    0 +0.0000000000e+00 +0.0000000000e+00 +1.5223611566e+03 1.5223611566e+03 0.0000000000e+00 0.0000e+00 -1.0000e+00
       -2 -1    0    0    0  501 -0.0000000000e+00 -0.0000000000e+00 -1.6077437544e+03 1.6077437544e+03 0.0000000000e+00 0.0000e+00 1.0000e+00
      -13  1    1    2    0    0 +4.3057692563e+02 -1.1271409192e+03 -1.0389151564e+03 1.5922273213e+03 0.0000000000e+00 0.0000e+00 1.0000e+00
       13  1    1    2    0    0 -4.3057692563e+02 +1.1271409192e+03 +9.5353255857e+02 1.5378775897e+03 0.0000000000e+00 0.0000e+00 -1.0000e+00
<mgrwt>
<rscale>  0 0.31289402E+04</rscale>
<asrwt>0</asrwt>
<pdfrwt beam="1">  1        2 0.23420941E+00 0.31289402E+04</pdfrwt>
<pdfrwt beam="2">  1       -2 0.24734519E+00 0.31289402E+04</pdfrwt>
<totfact> 0.71926677E-01</totfact>
</mgrwt>
<rwgt>
<wgt id='morphing_basis_vector_1'> +9.6073858e-05 </wgt>
<wgt id='morphing_basis_vector_2'> +6.5273587e-05 </wgt>
<wgt id='morphing_basis_vector_3'> +1.0492029e-04 </wgt>
<wgt id='morphing_basis_vector_4'> +7.4459485e-05 </wgt>
<wgt id='morphing_basis_vector_5'> +1.1929066e-04 </wgt>
</rwgt>
</event>
<event>
 4      1 +7.3133000e-09 2.82162700e+03 7.81860800e-03 7.79887800e-02
        2 -1    0    0  501    0 +0.0000000000e+00 +0.0000000000e+00 +9.8683274647e+02 9.8683274647e+02 0.0000000000e+00 0.0000e+00 -1.0000e+00
       -2 -1    0    0    0  501 -0.0000000000e+00 -0.0000000000e+00 -2.0169525317e+03 2.0169525317e+03 0.0000000000e+00 0.0000e+00 1.0000e+00
      -13  1    1    2    0    0 -1.0037506413e+03 -9.4832462399e+02 -2.0733109778e+02 1.3963599559e+03 0.0000000000e+00 0.0000e+00 1.0000e+00
       13  1    1    2    0    0 +1.0037506413e+03 +9.4832462399e+02 -8.2278868742e+02 1.6074253222e+03 0.0000000000e+00 0.0000e+00 -1.0000e+00
<mgrwt>
<rscale>  0 0.28216271E+04</rscale>
<asrwt>0</asrwt>
<pdfrwt beam="1">  1        2 0.15182043E+00 0.28216271E+04</pdfrwt>
<pdfrwt beam="2">  1       -2 0.31030038E+00 0.28216271E+04</pdfrwt>
<totfact> 0.56345709E-01</totfact>
</mgrwt>
<rwgt>
<wgt id='morphing_basis_vector_1'> +6.8406998e-05 </wgt>
<wgt id='morphing_basis_vector_2'> +5.6871622e-05 </wgt>
<wgt id='morphing_basis_vector_3'> +7.6593104e-05 </wgt>
<wgt id='morphing_basis_vector_4'> +3.9472153e-05 </wgt>
<wgt id='morphing_basis_vector_5'> +7.7809441e-05 </wgt>
</rwgt>
</event>
<event>
 4      1 +7.3133000e-09 2.89186000e+03 7.81860800e-03 7.78009300e-02
        2 -1    0    0  501    0 +0.0000000000e+00 +0.0000000000e+00 +1.8174728519e+03 1.8174728519e+03 0.0000000000e+00 0.0000e+00 -1.0000e+00
       -2 -1    0    0    0  501 -0.0000000000e+00 -0.0000000000e+00 -1.1503408318e+03 1.1503408318e+03 0.0000000000e+00 0.0000e+00 1.0000e+00
      -13  1    1    2    0    0 +2.8380190908e+02 -1.4130570172e+03 +2.1459198220e+02 1.4571627831e+03 0.0000000000e+00 0.0000e+00 1.0000e+00
       13  1    1    2    0    0 -2.8380190908e+02 +1.4130570172e+03 +4.5254003784e+02 1.5106509006e+03 0.0000000000e+00 0.0000e+00 -1.0000e+00
<mgrwt>
<rscale>  0 0.28918598E+04</rscale>
<asrwt>0</asrwt>
<pdfrwt beam="1">  1        2 0.27961121E+00 0.28918598E+04</pdfrwt>
<pdfrwt beam="2">  1       -2 0.17697551E+00 0.28918598E+04</pdfrwt>
<totfact> 0.16161913E+00</totfact>
</mgrwt>
<rwgt>
<wgt id='morphing_basis_vector_1'> +7.2081041e-05 </wgt>
<wgt id='morphing_basis_vector_2'> +5.2926884e-05 </wgt>
<wgt id='morphing_basis_vector_3'> +7.9344461e-05 </wgt>
<wgt id='morphing_basis_vector_4'> +5.0487432e-05 </wgt>
<wgt id='morphing_basis_vector_5'> +8.6496943e-05 </wgt>
</rwgt>
</event>
<event>
 4      1 +7.3133000e-09 3.18295000e+03 7.81860800e-03 7.70766900e-02
        2 -1    0    0  501    0 +0.0000000000e+00 +0.0000000000e+00 +1.6087955930e+03 1.6087955930e+03 0.0000000000e+00 0.0000e+00 -1.0000e+00
       -2 -1    0    0    0  501 -0.0000000000e+00 -0.0000000000e+00 -1.5743411382e+03 1.5743411382e+03 0.0000000000e+00 0.0000e+00 1.0000e+00
      -13  1    1    2    0    0 -1.1755264256e+03 +1.0725222629e+03 -7.8082836817e+00 1.5912973798e+03 0.0000000000e+00 0.0000e+00 1.0000e+00
       13  1    1    2    0    0 +1.1755264256e+03 -1.0725222629e+03 +4.2262738493e+01 1.5918393514e+03 0.0000000000e+00 0.0000e+00 -1.0000e+00
<mgrwt>
<rscale>  0 0.31829503E+04</rscale>
<asrwt>0</asrwt>
<pdfrwt beam="1">  1        2 0.24750701E+00 0.31829503E+04</pdfrwt>
<pdfrwt beam="2">  1       -2 0.24220633E+00 0.31829503E+04</pdfrwt>
<totfact> 0.69560701E-01</totfact>
</mgrwt>
<rwgt>
<wgt id='morphing_basis_vector_1'> +1.0617980e-04 </wgt>
<wgt id='morphing_basis_vector_2'> +7.9762904e-05 </wgt>
<wgt id='morphing_basis_vector_3'> +1.1763726e-04 </wgt>
<wgt id='morphing_basis_vector_4'> +7.2761077e-05 </wgt>
<wgt id='morphing_basis_vector_5'> +1.2723416e-04 </wgt>
</rwgt>
</event>
<event>
 4      1 +7.3133000e-09 3.04577700e+03 7.81860800e-03 7.74075600e-02
        2 -1    0    0  501    0 +0.0000000000e+00 +0.0000000000e+00 +1.5711943803e+03 1.5711943803e+03 0.0000000000e+00 0.0000e+00 1.0000e+00
       -2 -1    0    0    0  501 -0.0000000000e+00 -0.0000000000e+00 -1.4760676348e+03 1.4760676348e+03 0.0000000000e+00 0.0000e+00 -1.0000e+00
      -13  1    1    2    0    0 +3.6642896559e+02 -5.4966053601e+02 -1.3252544842e+03 1.4807755871e+03 0.0000000000e+00 0.0000e+00 -1.0000e+00
       13  1    1    2    0    0 -3.6642896559e+02 +5.4966053601e+02 +1.4203812297e+03 1.5664864281e+03 0.0000000000e+00 0.0000e+00 1.0000e+00
<mgrwt>
<rscale>  0 0.30457769E+04</rscale>
<asrwt>0</asrwt>
<pdfrwt beam="1">  1        2 0.24172221E+00 0.30457769E+04</pdfrwt>
<pdfrwt beam="2">  1       -2 0.22708733E+00 0.30457769E+04</pdfrwt>
<totfact> 0.94208221E-01</totfact>
</mgrwt>
<rwgt>
<wgt id='morphing_basis_vector_1'> +8.6176735e-05 </wgt>
<wgt id='morphing_basis_vector_2'> +5.8148433e-05 </wgt>
<wgt id='morphing_basis_vector_3'> +9.3953034e-05 </wgt>
<wgt id='morphing_basis_vector_4'> +6.7134142e-05 </wgt>
<wgt id='morphing_basis_vector_5'> +1.0703649e-04 </wgt>
</rwgt>
</event>
<event>
 4      1 +7.3133000e-09 2.71725300e+03 7.81860800e-03 7.82784600e-02
        2 -1    0    0  501    0 +0.0000000000e+00 +0.0000000000e+00 +1.5168546308e+03 1.5168546308e+03 0.0000000000e+00 0.0000e+00 1.0000e+00
       -2 -1    0    0    0  501 -0.0000000000e+00 -0.0000000000e+00 -1.2169039271e+03 1.2169039271e+03 0.0000000000e+00 0.0000e+00 -1.0000e+00
      -13  1    1    2    0    0 -7.4630793104e+02 -5.9077219470e+02 +1.1253377657e+03 1.4738970116e+03 0.0000000000e+00 0.0000e+00 1.0000e+00
       13  1    1    2    0    0 +7.4630793104e+02 +5.9077219470e+02 -8.2538706192e+02 1.2598615463e+03 0.0000000000e+00 0.0000e+00 -1.0000e+00
<mgrwt>
<rscale>  0 0.27172533E+04</rscale>
<asrwt>0</asrwt>
<pdfrwt beam="1">  1        2 0.23336225E+00 0.27172533E+04</pdfrwt>
<pdfrwt beam="2">  1       -2 0.18721599E+00 0.27172533E+04</pdfrwt>
<totfact> 0.20185735E+00</totfact>
</mgrwt>
<rwgt>
<wgt id='morphing_basis_vector_1'> +7.1030715e-05 </wgt>
<wgt id='morphing_basis_vector_2'> +8.4639313e-05 </wgt>
<wgt id='morphing_basis_vector_3'> +8.4567014e-05 </wgt>
<wgt id='morphing_basis_vector_4'> +8.8960327e-06 </wgt>
<wgt id='morphing_basis_vector_5'> +6.4776202e-05 </wgt>
</rwgt>
</event>
<event>
 4      1 +7.3133000e-09 2.74341700e+03 7.81860800e-03 7.82046200e-02
        2 -1    0    0  501    0 +0.0000000000e+00 +0.0000000000e+00 +2.2095760712e+03 2.2095760712e+03 0.0000000000e+00 0.0000e+00 -1.0000e+00
       -2 -1    0    0    0  501 -0.0000000000e+00 -0.0000000000e+00 -8.5155881520e+02 8.5155881520e+02 0.0000000000e+00 0.0000e+00 1.0000e+00
      -13  1    1    2    0    0 +2.5423597411e+02 +1.1894274512e+03 +1.3866566707e+03 1.8445027283e+03 0.0000000000e+00 0.0000e+00 1.0000e+00
       13  1    1    2    0    0 -2.5423597411e+02 -1.1894274512e+03 -2.8639414653e+01 1.2166321582e+03 0.0000000000e+00 0.0000e+00 -1.0000e+00
<mgrwt>
<rscale>  0 0.27434168E+04</rscale>
<asrwt>0</asrwt>
<pdfrwt beam="1">  1        2 0.33993478E+00 0.27434168E+04</pdfrwt>
<pdfrwt beam="2">  1       -2 0.13100905E+00 0.27434168E+04</pdfrwt>
<totfact> 0.23439784E+00</totfact>
</mgrwt>
<rwgt>
<wgt id='morphing_basis_vector_1'> +6.6414625e-05 </wgt>
<wgt id='morphing_basis_vector_2'> +6.6217651e-05 </wgt>
<wgt id='morphing_basis_vector_3'> +7.6500326e-05 </wgt>
<wgt id='morphing_basis_vector_4'> +2.4463927e-05 </wgt>
<wgt id='morphing_basis_vector_5'> +6.8575747e-05 </wgt>
</rwgt>
</event>
<event>
 4      1 +7.3133000e-09 2.78984200e+03 7.81860800e-03 7.80756300e-02
        2 -1    0    0  501    0 +0.0000000000e+00 +0.0000000000e+00 +1.8339299389e+03 1.8339299389e+03 0.0000000000e+00 0.0000e+00 1.0000e+00
       -2 -1    0    0    0  501 -0.0000000000e+00 -0.0000000000e+00 -1.0610024134e+03 1.0610024134e+03 0.0000000000e+00 0.0000e+00 -1.0000e+00
      -13  1    1    2    0    0 -1.3144059102e+02 -1.3414618531e+03 +1.3757709232e+01 1.3479561591e+03 0.0000000000e+00 0.0000e+00 -1.0000e+00
       13  1    1    2    0    0 +1.3144059102e+02 +1.3414618531e+03 +7.5916981629e+02 1.5469761932e+03 0.0000000000e+00 0.0000e+00 1.0000e+00
<mgrwt>
<rscale>  0 0.27898416E+04</rscale>
<asrwt>0</asrwt>
<pdfrwt beam="1">  1        2 0.28214307E+00 0.27898416E+04</pdfrwt>
<pdfrwt beam="2">  1       -2 0.16323114E+00 0.27898416E+04</pdfrwt>
<totfact> 0.20423469E+00</totfact>
</mgrwt>
<rwgt>
<wgt id='morphing_basis_vector_1'> +6.1693015e-05 </wgt>
<wgt id='morphing_basis_vector_2'> +4.3421904e-05 </wgt>
<wgt id='morphing_basis_vector_3'> +6.7433405e-05 </wgt>
<wgt id='morphing_basis_vector_4'> +4.5395907e-05 </wgt>
<wgt id='morphing_basis_vector_5'> +7.4957462e-05 </wgt>
</rwgt>
</event>
<event>
 4      1 +7.3133000e-09 3.00819500e+03 7.81860800e-03 7.75013600e-02
        2 -1    0    0  501    0 +0.0000000000e+00 +0.0000000000e+00 +1.4831646245e+03 1.4831646245e+03 0.0000000000e+00 0.0000e+00 1.0000e+00
       -2 -1    0    0    0  501 -0.0000000000e+00 -0.0000000000e+00 -1.5253258111e+03 1.5253258111e+03 0.0000000000e+00 0.0000e+00 -1.0000e+00
      -13  1    1    2    0    0 +3.5210123782e+02 +7.7635106059e+02 -1.2604008414e+03 1.5216131348e+03 0.0000000000e+00 0.0000e+00 -1.0000e+00
       13  1    1    2    0    0 -3.5210123782e+02 -7.7635106059e+02 +1.2182396548e+03 1.4868773008e+03 0.0000000000e+00 0.0000e+00 1.0000e+00
<mgrwt>
<rscale>  0 0.30081950E+04</rscale>
<asrwt>0</asrwt>
<pdfrwt beam="1">  1        2 0.22817917E+00 0.30081950E+04</pdfrwt>
<pdfrwt beam="2">  1       -2 0.23466551E+00 0.30081950E+04</pdfrwt>
<totfact> 0.93641741E-01</totfact>
</mgrwt>
<rwgt>
<wgt id='morphing_basis_vector_1'> +8.2059883e-05 </wgt>
<wgt id='morphing_basis_vector_2'> +5.5406045e-05 </wgt>
<wgt id='morphing_basis_vector_3'> +8.9438465e-05 </wgt>
<wgt id='morphing_basis_vector_4'> +6.3808618e-05 </wgt>
<wgt id='morphing_basis_vector_5'> +1.0180278e-04 </wgt>
</rwgt>
</event>
<event>
 4      1 +7.3133000e-09 2.90425500e+03 7.81860800e-03 7.77683300e-02
        2 -1    0    0  501    0 +0.0000000000e+00 +0.0000000000e+00 +2.2667849678e+03 2.2667849678e+03 0.0000000000e+00 0.0000e+00 1.0000e+00
       -2 -1    0    0    0  501 -0.0000000000e+00 -0.0000000000e+00 -9.3024887175e+02 9.3024887175e+02 0.0000000000e+00 0.0000e+00 -1.0000e+00
      -13  1    1    2    0    0 +1.0615864573e+02 -1.3371436397e+03 +1.2806307303e+03 1.8545182228e+03 0.0000000000e+00 0.0000e+00 1.0000e+00
       13  1    1    2    0    0 -1.0615864573e+02 +1.3371436397e+03 +5.5905365749e+01 1.3425156168e+03 0.0000000000e+00 0.0000e+00 -1.0000e+00
<mgrwt>
<rscale>  0 0.29042549E+04</rscale>
<asrwt>0</asrwt>
<pdfrwt beam="1">  1        2 0.34873615E+00 0.29042549E+04</pdfrwt>
<pdfrwt beam="2">  1       -2 0.14311521E+00 0.29042549E+04</pdfrwt>
<totfact> 0.16813873E+00</totfact>
</mgrwt>
<rwgt>
<wgt id='morphing_basis_vector_1'> +8.0773687e-05 </wgt>
<wgt id='morphing_basis_vector_2'> +7.5815929e-05 </wgt>
<wgt id='morphing_basis_vector_3'> +9.2347224e-05 </wgt>
<wgt id='morphing_basis_vector_4'> +3.5869866e-05 </wgt>
<wgt id='morphing_basis_vector_5'> +8.6732769e-05 </wgt>
</rwgt>
</event>
<event>
 4      1 +7.3133000e-09 3.17123100e+03 7.81860800e-03 7.71042800e-02
        2 -1    0    0  501    0 +0.0000000000e+00 +0.0000000000e+00 +1.9960282144e+03 1.9960282144e+03 0.0000000000e+00 0.0000e+00 1.0000e+00
       -2 -1    0    0    0  501 -0.0000000000e+00 -0.0000000000e+00 -1.2595894158e+03 1.2595894158e+03 0.0000000000e+00 0.0000e+00 -1.0000e+00
      -13  1    1    2    0    0 +4.9500671699e+02 +3.3454225728e+02 -1.1396140166e+03 1.2867285178e+03 0.0000000000e+00 0.0000e+00 -1.0000e+00
       13  1    1    2    0    0 -4.9500671699e+02 -3.3454225728e+02 +1.8760528151e+03 1.9688891124e+03 0.0000000000e+00 0.0000e+00 1.0000e+00
<mgrwt>
<rscale>  0 0.31712307E+04</rscale>
<asrwt>0</asrwt>
<pdfrwt beam="1">  1        2 0.30708126E+00 0.31712307E+04</pdfrwt>
<pdfrwt beam="2">  1       -2 0.19378299E+00 0.31712307E+04</pdfrwt>
<totfact> 0.93771848E-01</totfact>
</mgrwt>
<rwgt>
<wgt id='morphing_basis_vector_1'> +1.0113311e-04 </wgt>
<wgt id='morphing_basis_vector_2'> +6.8284530e-05 </wgt>
<wgt id='morphing_basis_vector_3'> +1.1039645e-04 </wgt>
<wgt id='morphing_basis_vector_4'> +7.9010581e-05 </wgt>
<wgt id='morphing_basis_vector_5'> +1.2595997e-04 </wgt>
</rwgt>
</event>
<event>
 4      1 +7.3133000e-09 2.80064600e+03 7.81860800e-03 7.80459800e-02
        2 -1    0    0  501    0 +0.0000000000e+00 +0.0000000000e+00 +1.3412748174e+03 1.3412748174e+03 0.0000000000e+00 0.0000e+00 -1.0000e+00
       -2 -1    0    0    0  501 -0.0000000000e+00 -0.0000000000e+00 -1.4619709151e+03 1.4619709151e+03 0.0000000000e+00 0.0000e+00 1.0000e+00
      -13  1    1    2    0    0 +1.1632115119e+03 +5.3637263698e+02 +5.0599349092e+02 1.3772385559e+03 0.0000000000e+00 0.0000e+00 1.0000e+00
       13  1    1    2    0    0 -1.1632115119e+03 -5.3637263698e+02 -6.2668958863e+02 1.4260071765e+03 0.0000000000e+00 0.0000e+00 -1.0000e+00
<mgrwt>
<rscale>  0 0.28006462E+04</rscale>
<asrwt>0</asrwt>
<pdfrwt beam="1">  1        2 0.20634997E+00 0.28006462E+04</pdfrwt>
<pdfrwt beam="2">  1       -2 0.22491860E+00 0.28006462E+04</pdfrwt>
<totfact> 0.13416458E+00</totfact>
</mgrwt>
<rwgt>
<wgt id='morphing_basis_vector_1'> +7.0478118e-05 </wgt>
<wgt id='morphing_basis_vector_2'> +6.7182127e-05 </wgt>
<wgt id='morphing_basis_vector_3'> +8.0642713e-05 </wgt>
<wgt id='morphing_basis_vector_4'> +2.9886207e-05 </wgt>
<wgt id='morphing_basis_vector_5'> +7.4810219e-05 </wgt>
</rwgt>
</event>
<event>
 4      1 +7.3133000e-09 3.03001700e+03 7.81860800e-03 7.74467200e-02
        2 -1    0    0  501    0 +0.0000000000e+00 +0.0000000000e+00 +2.0093479333e+03 2.0093479333e+03 0.0000000000e+00 0.0000e+00 1.0000e+00
       -2 -1    0    0    0  501 -0.0000000000e+00 -0.0000000000e+00 -1.1422864983e+03 1.1422864983e+03 0.0000000000e+00 0.0000e+00 -1.0000e+00
      -13  1    1    2    0    0 +1.0623253686e+03 -5.7708128769e+02 -5.1618544234e+02 1.3145361967e+03 0.0000000000e+00 0.0000e+00 -1.0000e+00
       13  1    1    2    0    0 -1.0623253686e+03 +5.7708128769e+02 +1.3832468773e+03 1.8370982350e+03 0.0000000000e+00 0.0000e+00 1.0000e+00
<mgrwt>
<rscale>  0 0.30300172E+04</rscale>
<asrwt>0</asrwt>
<pdfrwt beam="1">  1        2 0.30913045E+00 0.30300172E+04</pdfrwt>
<pdfrwt beam="2">  1       -2 0.17573638E+00 0.30300172E+04</pdfrwt>
<totfact> 0.12748630E+00</totfact>
</mgrwt>
<rwgt>
<wgt id='morphing_basis_vector_1'> +8.4623185e-05 </wgt>
<wgt id='morphing_basis_vector_2'> +5.7549640e-05 </wgt>
<wgt id='morphing_basis_vector_3'> +9.2339320e-05 </wgt>
<wgt id='morphing_basis_vector_4'> +6.5325647e-05 </wgt>
<wgt id='morphing_basis_vector_5'> +1.0478509e-04 </wgt>
</rwgt>
</event>
<event>
 4      1 +7.3133000e-09 2.79409200e+03 7.81860800e-03 7.80639500e-02
        2 -1    0    0  501    0 +0.0000000000e+00 +0.0000000000e+00 +1.0338022942e+03 1.0338022942e+03 0.0000000000e+00 0.0000e+00 -1.0000e+00
       -2 -1    0    0    0  501 -0.0000000000e+00 -0.0000000000e+00 -1.8879219387e+03 1.8879219387e+03 0.0000000000e+00 0.0000e+00 1.0000e+00
      -13  1    1    2    0    0 -5.1664211207e+02 -5.2653754987e+01 -1.7832402386e+03 1.8573199074e+03 0.0000000000e+00 0.0000e+00 1.0000e+00
       13  1    1    2    0    0 +5.1664211207e+02 +5.2653754987e+01 +9.2912059410e+02 1.0644043256e+03 0.0000000000e+00 0.0000e+00 -1.0000e+00
<mgrwt>
<rscale>  0 0.27940924E+04</rscale>
<asrwt>0</asrwt>
<pdfrwt beam="1">  1        2 0.15904651E+00 0.27940924E+04</pdfrwt>
<pdfrwt beam="2">  1       -2 0.29044953E+00 0.27940924E+04</pdfrwt>
<totfact> 0.71863849E-01</totfact>
</mgrwt>
<rwgt>
<wgt id='morphing_basis_vector_1'> +6.1231730e-05 </wgt>
<wgt id='morphing_basis_vector_2'> +4.1227472e-05 </wgt>
<wgt id='morphing_basis_vector_3'> +6.6550862e-05 </wgt>
<wgt id='morphing_basis_vector_4'> +4.7403232e-05 </wgt>
<wgt id='morphing_basis_vector_5'> +7.5561300e-05 </wgt>
</rwgt>
</event>
<event>
 4      1 +7.3133000e-09 2.89956200e+03 7.81860800e-03 7.77806500e-02
        2 -1    0    0  501    0 +0.0000000000e+00 +0.0000000000e+00 +2.7611818173e+03 2.7611818173e+03 0.0000000000e+00 0.0000e+00 -1.0000e+00
       -2 -1    0    0    0  501 -0.0000000000e+00 -0.0000000000e+00 -7.6121930020e+02 7.6121930020e+02 0.0000000000e+00 0.0000e+00 1.0000e+00
      -13  1    1    2    0    0 +1.1572020578e+03 -2.0076080362e+02 -3.2562169716e+01 1.1749390613e+03 0.0000000000e+00 0.0000e+00 1.0000e+00
       13  1    1    2    0    0 -1.1572020578e+03 +2.0076080362e+02 +2.0325246869e+03 2.3474620563e+03 0.0000000000e+00 0.0000e+00 -1.0000e+00
<mgrwt>
<rscale>  0 0.28995620E+04</rscale>
<asrwt>0</asrwt>
<pdfrwt beam="1">  1        2 0.42479720E+00 0.28995620E+04</pdfrwt>
<pdfrwt beam="2">  1       -2 0.11711066E+00 0.28995620E+04</pdfrwt>
<totfact> 0.14553028E+00</totfact>
</mgrwt>
<rwgt>
<wgt id='morphing_basis_vector_1'> +7.1099001e-05 </wgt>
<wgt id='morphing_basis_vector_2'> +4.8347994e-05 </wgt>
<wgt id='morphing_basis_vector_3'> +7.7472143e-05 </wgt>
<wgt id='morphing_basis_vector_4'> +5.4657459e-05 </wgt>
<wgt id='morphing_basis_vector_5'> +8.7728186e-05 </wgt>
</rwgt>
</event>
<event>
 4      1 +7.3133000e-09 2.67772900e+03 7.81860800e-03 7.83916200e-02
        2 -1    0    0  501    0 +0.0000000000e+00 +0.0000000000e+00 +2.6966658866e+03 2.6966658866e+03 0.0000000000e+00 0.0000e+00 -1.0000e+00
       -2 -1    0    0    0  501 -0.0000000000e+00 -0.0000000000e+00 -6.6473145847e+02 6.6473145847e+02 0.0000000000e+00 0.0000e+00 1.0000e+00
      -13  1    1    2    0    0 +5.6094054486e+02 +1.0031735836e+03 +1.5395044182e+02 1.1596172955e+03 0.0000000000e+00 0.0000e+00 1.0000e+00
       13  1    1    2    0    0 -5.6094054486e+02 -1.0031735836e+03 +1.8779839863e+03 2.2017800495e+03 0.0000000000e+00 0.0000e+00 -1.0000e+00
<mgrwt>
<rscale>  0 0.26777294E+04</rscale>
<asrwt>0</asrwt>
<pdfrwt beam="1">  1        2 0.41487167E+00 0.26777294E+04</pdfrwt>
<pdfrwt beam="2">  1       -2 0.10226638E+00 0.26777294E+04</pdfrwt>
<totfact> 0.22832362E+00</totfact>
</mgrwt>
<rwgt>
<wgt id='morphing_basis_vector_1'> +5.1960176e-05 </wgt>
<wgt id='morphing_basis_vector_2'> +3.5431319e-05 </wgt>
<wgt id='morphing_basis_vector_3'> +5.6474574e-05 </wgt>
<wgt id='morphing_basis_vector_4'> +3.9476122e-05 </wgt>
<wgt id='morphing_basis_vector_5'> +6.3587126e-05 </wgt>
</rwgt>
</event>
<event>
 4      1 +7.3133000e-09 2.88217800e+03 7.81860800e-03 7.78265000e-02
        2 -1    0    0  501    0 +0.0000000000e+00 +0.0000000000e+00 +1.5168714656e+03 1.5168714656e+03 0.0000000000e+00 0.0000e+00 -1.0000e+00
       -2 -1    0    0    0  501 -0.0000000000e+00 -0.0000000000e+00 -1.3690929852e+03 1.3690929852e+03 0.0000000000e+00 0.0000e+00 1.0000e+00
      -13  1    1    2    0    0 +8.7599256484e+02 +1.0066089107e+03 -4.7098879676e+02 1.4150812413e+03 0.0000000000e+00 0.0000e+00 1.0000e+00
       13  1    1    2    0    0 -8.7599256484e+02 -1.0066089107e+03 +6.1876727716e+02 1.4708832095e+03 0.0000000000e+00 0.0000e+00 -1.0000e+00
<mgrwt>
<rscale>  0 0.28821784E+04</rscale>
<asrwt>0</asrwt>
<pdfrwt beam="1">  1        2 0.23336484E+00 0.28821784E+04</pdfrwt>
<pdfrwt beam="2">  1       -2 0.21062969E+00 0.28821784E+04</pdfrwt>
<totfact> 0.13410682E+00</totfact>
</mgrwt>
<rwgt>
<wgt id='morphing_basis_vector_1'> +6.9798321e-05 </wgt>
<wgt id='morphing_basis_vector_2'> +4.8301754e-05 </wgt>
<wgt id='morphing_basis_vector_3'> +7.6212760e-05 </wgt>
<wgt id='morphing_basis_vector_4'> +5.2572767e-05 </wgt>
<wgt id='morphing_basis_vector_5'> +8.5560146e-05 </wgt>
</rwgt>
</event>
<event>
 4      1 +7.3133000e-09 2.90148900e+03 7.81860800e-03 7.77755900e-02
        2 -1    0    0  501    0 +0.0000000000e+00 +0.0000000000e+00 +1.9157674468e+03 1.9157674468e+03 0.0000000000e+00 0.0000e+00 -1.0000e+00
       -2 -1    0    0    0  501 -0.0000000000e+00 -0.0000000000e+00 -1.0985985634e+03 1.0985985634e+03 0.0000000000e+00 0.0000e+00 1.0000e+00
      -13  1    1    2    0    0 +4.2165474271e+02 +1.2191220378e+03 -2.8102201439e+02 1.3202365839e+03 0.0000000000e+00 0.0000e+00 1.0000e+00
       13  1    1    2    0    0 -4.2165474271e+02 -1.2191220378e+03 +1.0981908978e+03 1.6941294263e+03 0.0000000000e+00 0.0000e+00 -1.0000e+00
<mgrwt>
<rscale>  0 0.29014888E+04</rscale>
<asrwt>0</asrwt>
<pdfrwt beam="1">  1        2 0.29473345E+00 0.29014888E+04</pdfrwt>
<pdfrwt beam="2">  1       -2 0.16901516E+00 0.29014888E+04</pdfrwt>
<totfact> 0.16399688E+00</totfact>
</mgrwt>
<rwgt>
<wgt id='morphing_basis_vector_1'> +7.1485999e-05 </wgt>
<wgt id='morphing_basis_vector_2'> +4.9064309e-05 </wgt>
<wgt id='morphing_basis_vector_3'> +7.7989423e-05 </wgt>
<wgt id='morphing_basis_vector_4'> +5.4389577e-05 </wgt>
<wgt id='morphing_basis_vector_5'> +8.7929825e-05 </wgt>
</rwgt>
</event>
<event>
 4      1 +7.3133000e-09 2.67499200e+03 7.81860800e-03 7.83995300e-02
        2 -1    0    0  501    0 +0.0000000000e+00 +0.0000000000e+00 +4.3627788201e+03 4.3627788201e+03 0.0000000000e+00 0.0000e+00 -1.0000e+00
       -2 -1    0    0    0  501 -0.0000000000e+00 -0.0000000000e+00 -4.1003573939e+02 4.1003573939e+02 0.0000000000e+00 0.0000e+00 1.0000e+00
      -13  1    1    2    0    0 -8.3785901254e+02 -3.8478678785e+02 +2.4757130164e+02 9.5465184565e+02 0.0000000000e+00 0.0000e+00 1.0000e+00
       13  1    1    2    0    0 +8.3785901254e+02 +3.8478678785e+02 +3.7051717791e+03 3.8181627139e+03 0.0000000000e+00 0.0000e+00 -1.0000e+00
<mgrwt>
<rscale>  0 0.26749918E+04</rscale>
<asrwt>0</asrwt>
<pdfrwt beam="1">  1        2 0.67119671E+00 0.26749918E+04</pdfrwt>
<pdfrwt beam="2">  1       -2 0.63082425E-01 0.26749918E+04</pdfrwt>
<totfact> 0.37516438E-01</totfact>
</mgrwt>
<rwgt>
<wgt id='morphing_basis_vector_1'> +5.1588740e-05 </wgt>
<wgt id='morphing_basis_vector_2'> +3.4810626e-05 </wgt>
<wgt id='morphing_basis_vector_3'> +5.5994778e-05 </wgt>
<wgt id='morphing_basis_vector_4'> +3.9646701e-05 </wgt>
<wgt id='morphing_basis_vector_5'> +6.3351788e-05 </wgt>
</rwgt>
</event>
<event>
 4      1 +7.3133000e-09 2.71908000e+03 7.81860800e-03 7.82732700e-02
        2 -1    0    0  501    0 +0.0000000000e+00 +0.0000000000e+00 +2.4296268677e+03 2.4296268677e+03 0.0000000000e+00 0.0000e+00 -1.0000e+00
       -2 -1    0    0    0  501 -0.0000000000e+00 -0.0000000000e+00 -7.6075400382e+02 7.6075400382e+02 0.0000000000e+00 0.0000e+00 1.0000e+00
      -13  1    1    2    0    0 +1.1614421437e+03 -4.8932785910e+02 +2.3620000791e+02 1.2822558444e+03 0.0000000000e+00 0.0000e+00 1.0000e+00
       13  1    1    2    0    0 -1.1614421437e+03 +4.8932785910e+02 +1.4326728559e+03 1.9081250271e+03 0.0000000000e+00 0.0000e+00 -1.0000e+00
<mgrwt>
<rscale>  0 0.27190795E+04</rscale>
<asrwt>0</asrwt>
<pdfrwt beam="1">  1        2 0.37378874E+00 0.27190795E+04</pdfrwt>
<pdfrwt beam="2">  1       -2 0.11703908E+00 0.27190795E+04</pdfrwt>
<totfact> 0.23513590E+00</totfact>
</mgrwt>
<rwgt>
<wgt id='morphing_basis_vector_1'> +5.5429763e-05 </wgt>
<wgt id='morphing_basis_vector_2'> +3.8317167e-05 </wgt>
<wgt id='morphing_basis_vector_3'> +6.0386526e-05 </wgt>
<wgt id='morphing_basis_vector_4'> +4.1538681e-05 </wgt>
<wgt id='morphing_basis_vector_5'> +6.7614633e-05 </wgt>
</rwgt>
</event>
<event>
 4      1 +7.3133000e-09 2.73405200e+03 7.81860800e-03 7.82309500e-02
        2 -1    0    0  501    0 +0.0000000000e+00 +0.0000000000e+00 +1.9130904645e+03 1.9130904645e+03 0.0000000000e+00 0.0000e+00 -1.0000e+00
       -2 -1    0    0    0  501 -0.0000000000e+00 -0.0000000000e+00 -9.7682799317e+02 9.7682799317e+02 0.0000000000e+00 0.0000e+00 1.0000e+00
      -13  1    1    2    0    0 +5.5128589841e+02 -5.1446982457e+02 -7.3712121385e+02 1.0544870915e+03 0.0000000000e+00 0.0000e+00 1.0000e+00
       13  1    1    2    0    0 -5.5128589841e+02 +5.1446982457e+02 +1.6733836852e+03 1.8354313662e+03 0.0000000000e+00 0.0000e+00 -1.0000e+00
<mgrwt>
<rscale>  0 0.27340522E+04</rscale>
<asrwt>0</asrwt>
<pdfrwt beam="1">  1        2 0.29432161E+00 0.27340522E+04</pdfrwt>
<pdfrwt beam="2">  1       -2 0.15028123E+00 0.27340522E+04</pdfrwt>
<totfact> 0.23595915E+00</totfact>
</mgrwt>
<rwgt>
<wgt id='morphing_basis_vector_1'> +5.6203554e-05 </wgt>
<wgt id='morphing_basis_vector_2'> +3.7856478e-05 </wgt>
<wgt id='morphing_basis_vector_3'> +6.1040649e-05 </wgt>
<wgt id='morphing_basis_vector_4'> +4.3387713e-05 </wgt>
<wgt id='morphing_basis_vector_5'> +6.9207406e-05 </wgt>
</rwgt>
</event>
<event>
 4      1 +7.3133000e-09 2.68081100e+03 7.81860800e-03 7.83827200e-02
        2 -1    0    0  501    0 +0.0000000000e+00 +0.0000000000e+00 +1.7636347822e+03 1.7636347822e+03 0.0000000000e+00 0.0000e+00 -1.0000e+00
       -2 -1    0    0    0  501 -0.0000000000e+00 -0.0000000000e+00 -1.0187408103e+03 1.0187408103e+03 0.0000000000e+00 0.0000e+00 1.0000e+00
      -13  1    1    2    0    0 -2.0010158116e+02 -8.4288589676e+02 -6.8913795078e+02 1.1069816588e+03 0.0000000000e+00 0.0000e+00 1.0000e+00
       13  1    1    2    0    0 +2.0010158116e+02 +8.4288589676e+02 +1.4340319227e+03 1.6753939337e+03 0.0000000000e+00 0.0000e+00 -1.0000e+00
<mgrwt>
<rscale>  0 0.26808109E+04</rscale>
<asrwt>0</asrwt>
<pdfrwt beam="1">  1        2 0.27132843E+00 0.26808109E+04</pdfrwt>
<pdfrwt beam="2">  1       -2 0.15672936E+00 0.26808109E+04</pdfrwt>
<totfact> 0.25435741E+00</totfact>
</mgrwt>
<rwgt>
<wgt id='morphing_basis_vector_1'> +5.2018211e-05 </wgt>
<wgt id='morphing_basis_vector_2'> +3.5066649e-05 </wgt>
<wgt id='morphing_basis_vector_3'> +5.6458899e-05 </wgt>
<wgt id='morphing_basis_vector_4'> +4.0029083e-05 </wgt>
<wgt id='morphing_basis_vector_5'> +6.3913683e-05 </wgt>
</rwgt>
</event>
<event>
 4      1 +7.3133000e-09 2.79368700e+03 7.81860800e-03 7.80650600e-02
        2 -1    0    0  501    0 +0.0000000000e+00 +0.0000000000e+00 +3.1000053120e+03 3.1000053120e+03 0.0000000000e+00 0.0000e+00 1.0000e+00
       -2 -1    0    0    0  501 -0.0000000000e+00 -0.0000000000e+00 -6.2940905073e+02 6.2940905073e+02 0.0000000000e+00 0.0000e+00 -1.0000e+00
      -13  1    1    2    0    0 -1.0065291422e+03 -6.7073964339e+02 +3.0257574939e+02 1.2468138062e+03 0.0000000000e+00 0.0000e+00 -1.0000e+00
       13  1    1    2    0    0 +1.0065291422e+03 +6.7073964339e+02 +2.1680205119e+03 2.4826005565e+03 0.0000000000e+00 0.0000e+00 1.0000e+00
<mgrwt>
<rscale>  0 0.27936867E+04</rscale>
<asrwt>0</asrwt>
<pdfrwt beam="1">  1        2 0.47692388E+00 0.27936867E+04</pdfrwt>
<pdfrwt beam="2">  1       -2 0.96832164E-01 0.27936867E+04</pdfrwt>
<totfact> 0.14242040E+00</totfact>
</mgrwt>
<rwgt>
<wgt id='morphing_basis_vector_1'> +6.1466496e-05 </wgt>
<wgt id='morphing_basis_vector_2'> +4.1999190e-05 </wgt>
<wgt id='morphing_basis_vector_3'> +6.6931094e-05 </wgt>
<wgt id='morphing_basis_vector_4'> +4.6816500e-05 </wgt>
<wgt id='morphing_basis_vector_5'> +7.5471269e-05 </wgt>
</rwgt>
</event>
<event>
 4      1 +7.3133000e-09 2.96806500e+03 7.81860800e-03 7.76031100e-02
        2 -1    0    0  501    0 +0.0000000000e+00 +0.0000000000e+00 +3.3788895759e+03 3.3788895759e+03 0.0000000000e+00 0.0000e+00 1.0000e+00
       -2 -1    0    0    0  501 -0.0000000000e+00 -0.0000000000e+00 -6.5179762169e+02 6.5179762169e+02 0.0000000000e+00 0.0000e+00 -1.0000e+00
      -13  1    1    2    0    0 -1.1948070581e+03 -3.7696652047e+02 +2.8335804412e+02 1.2845074717e+03 0.0000000000e+00 0.0000e+00 -1.0000e+00
       13  1    1    2    0    0 +1.1948070581e+03 +3.7696652047e+02 +2.4437339101e+03 2.7461797259e+03 0.0000000000e+00 0.0000e+00 1.0000e+00
<mgrwt>
<rscale>  0 0.29680648E+04</rscale>
<asrwt>0</asrwt>
<pdfrwt beam="1">  1        2 0.51982915E+00 0.29680648E+04</pdfrwt>
<pdfrwt beam="2">  1       -2 0.10027656E+00 0.29680648E+04</pdfrwt>
<totfact> 0.83046247E-01</totfact>
</mgrwt>
<rwgt>
<wgt id='morphing_basis_vector_1'> +7.8063079e-05 </wgt>
<wgt id='morphing_basis_vector_2'> +5.3275326e-05 </wgt>
<wgt id='morphing_basis_vector_3'> +8.5165230e-05 </wgt>
<wgt id='morphing_basis_vector_4'> +5.9908480e-05 </wgt>
<wgt id='morphing_basis_vector_5'> +9.6388032e-05 </wgt>
</rwgt>
</event>
<event>
 4      1 +7.3133000e-09 3.03486000e+03 7.81860800e-03 7.74346600e-02
        2 -1    0    0  501    0 +0.0000000000e+00 +0.0000000000e+00 +3.3478236508e+03 3.3478236508e+03 0.0000000000e+00 0.0000e+00 1.0000e+00
       -2 -1    0    0    0  501 -0.0000000000e+00 -0.0000000000e+00 -6.8778803780e+02 6.8778803780e+02 0.0000000000e+00 0.0000e+00 -1.0000e+00
      -13  1    1    2    0    0 +3.8163963856e+02 +6.3415739175e+02 +3.0915199990e+03 3.1788835014e+03 0.0000000000e+00 0.0000e+00 1.0000e+00
       13  1    1    2    0    0 -3.8163963856e+02 -6.3415739175e+02 -4.3148438606e+02 8.5672818715e+02 0.0000000000e+00 0.0000e+00 -1.0000e+00
<mgrwt>
<rscale>  0 0.30348595E+04</rscale>
<asrwt>0</asrwt>
<pdfrwt beam="1">  1        2 0.51504978E+00 0.30348595E+04</pdfrwt>
<pdfrwt beam="2">  1       -2 0.10581355E+00 0.30348595E+04</pdfrwt>
<totfact> 0.76145300E-01</totfact>
</mgrwt>
<rwgt>
<wgt id='morphing_basis_vector_1'> +1.1517249e-04 </wgt>
<wgt id='morphing_basis_vector_2'> +1.4629684e-04 </wgt>
<wgt id='morphing_basis_vector_3'> +1.3996651e-04 </wgt>
<wgt id='morphing_basis_vector_4'> +3.2092907e-06 </wgt>
<wgt id='morphing_basis_vector_5'> +1.0031894e-04 </wgt>
</rwgt>
</event>
<event>
 4      1 +7.3133000e-09 3.11027100e+03 7.81860800e-03 7.72498000e-02
        2 -1    0    0  501    0 +0.0000000000e+00 +0.0000000000e+00 +1.2909021922e+03 1.2909021922e+03 0.0000000000e+00 0.0000e+00 1.0000e+00
       -2 -1    0    0    0  501 -0.0000000000e+00 -0.0000000000e+00 -1.8734540403e+03 1.8734540403e+03 0.0000000000e+00 0.0000e+00 -1.0000e+00
      -13  1    1    2    0    0 +6.9635441553e+02 -1.2714236006e+03 +2.8155898245e+02 1.4767203204e+03 0.0000000000e+00 0.0000e+00 1.0000e+00
       13  1    1    2    0    0 -6.9635441553e+02 +1.2714236006e+03 -8.6411083057e+02 1.6876359121e+03 0.0000000000e+00 0.0000e+00 -1.0000e+00
<mgrwt>
<rscale>  0 0.31102707E+04</rscale>
<asrwt>0</asrwt>
<pdfrwt beam="1">  1        2 0.19860034E+00 0.31102707E+04</pdfrwt>
<pdfrwt beam="2">  1       -2 0.28822370E+00 0.31102707E+04</pdfrwt>
<totfact> 0.51071050E-01</totfact>
</mgrwt>
<rwgt>
<wgt id='morphing_basis_vector_1'> +1.0522444e-04 </wgt>
<wgt id='morphing_basis_vector_2'> +9.7311442e-05 </wgt>
<wgt id='morphing_basis_vector_3'> +1.2036074e-04 </wgt>
<wgt id='morphing_basis_vector_4'> +4.8880022e-05 </wgt>
<wgt id='morphing_basis_vector_5'> +1.1448549e-04 </wgt>
</rwgt>
</event>
<event>
 4      1 +7.3133000e-09 2.98130800e+03 7.81860800e-03 7.75693500e-02
        2 -1    0    0  501    0 +0.0000000000e+00 +0.0000000000e+00 +3.1001335094e+03 3.1001335094e+03 0.0000000000e+00 0.0000e+00 -1.0000e+00
       -2 -1    0    0    0  501 -0.0000000000e+00 -0.0000000000e+00 -7.1675916088e+02 7.1675916088e+02 0.0000000000e+00 0.0000e+00 1.0000e+00
      -13  1    1    2    0    0 -5.2246351278e+02 +1.1291004849e+03 +1.4044758076e+02 1.2520229830e+03 0.0000000000e+00 0.0000e+00 1.0000e+00
       13  1    1    2    0    0 +5.2246351278e+02 -1.1291004849e+03 +2.2429267678e+03 2.5648696873e+03 0.0000000000e+00 0.0000e+00 -1.0000e+00
<mgrwt>
<rscale>  0 0.29813078E+04</rscale>
<asrwt>0</asrwt>
<pdfrwt beam="1">  1        2 0.47694361E+00 0.29813078E+04</pdfrwt>
<pdfrwt beam="2">  1       -2 0.11027064E+00 0.29813078E+04</pdfrwt>
<totfact> 0.10194068E+00</totfact>
</mgrwt>
<rwgt>
<wgt id='morphing_basis_vector_1'> +7.9429236e-05 </wgt>
<wgt id='morphing_basis_vector_2'> +5.4160050e-05 </wgt>
<wgt id='morphing_basis_vector_3'> +8.6658003e-05 </wgt>
<wgt id='morphing_basis_vector_4'> +6.1042988e-05 </wgt>
<wgt id='morphing_basis_vector_5'> +9.8139576e-05 </wgt>
</rwgt>
</event>
<event>
 4      1 +7.3133000e-09 2.78543800e+03 7.81860800e-03 7.80877600e-02
        2 -1    0    0  501    0 +0.0000000000e+00 +0.0000000000e+00 +1.4114614511e+03 1.4114614511e+03 0.0000000000e+00 0.0000e+00 -1.0000e+00
       -2 -1    0    0    0  501 -0.0000000000e+00 -0.0000000000e+00 -1.3742249438e+03 1.3742249438e+03 0.0000000000e+00 0.0000e+00 1.0000e+00
      -13  1    1    2    0    0 -5.2944439934e+01 +1.2211965631e+03 +6.8616675165e+02 1.4017663751e+03 0.0000000000e+00 0.0000e+00 1.0000e+00
       13  1    1    2    0    0 +5.2944439934e+01 -1.2211965631e+03 -6.4893024434e+02 1.3839200199e+03 0.0000000000e+00 0.0000e+00 -1.0000e+00
<mgrwt>
<rscale>  0 0.27854375E+04</rscale>
<asrwt>0</asrwt>
<pdfrwt beam="1">  1        2 0.21714791E+00 0.27854375E+04</pdfrwt>
<pdfrwt beam="2">  1       -2 0.21141922E+00 0.27854375E+04</pdfrwt>
<totfact> 0.15293509E+00</totfact>
</mgrwt>
<rwgt>
<wgt id='morphing_basis_vector_1'> +7.1017438e-05 </wgt>
<wgt id='morphing_basis_vector_2'> +7.1763909e-05 </wgt>
<wgt id='morphing_basis_vector_3'> +8.2067098e-05 </wgt>
<wgt id='morphing_basis_vector_4'> +2.5008885e-05 </wgt>
<wgt id='morphing_basis_vector_5'> +7.2837004e-05 </wgt>
</rwgt>
</event>
<event>
 4      1 +7.3133000e-09 3.04732900e+03 7.81860800e-03 7.74037100e-02
        2 -1    0    0  501    0 +0.0000000000e+00 +0.0000000000e+00 +1.7139602202e+03 1.7139602202e+03 0.0000000000e+00 0.0000e+00 -1.0000e+00
       -2 -1    0    0    0  501 -0.0000000000e+00 -0.0000000000e+00 -1.3544971249e+03 1.3544971249e+03 0.0000000000e+00 0.0000e+00 1.0000e+00
      -13  1    1    2    0    0 -5.0467869867e+02 +1.0678508171e+03 -7.8951597210e+02 1.4206834365e+03 0.0000000000e+00 0.0000e+00 1.0000e+00
       13  1    1    2    0    0 +5.0467869867e+02 -1.0678508171e+03 +1.1489790674e+03 1.6477739086e+03 0.0000000000e+00 0.0000e+00 -1.0000e+00
<mgrwt>
<rscale>  0 0.30473294E+04</rscale>
<asrwt>0</asrwt>
<pdfrwt beam="1">  1        2 0.26368619E+00 0.30473294E+04</pdfrwt>
<pdfrwt beam="2">  1       -2 0.20838417E+00 0.30473294E+04</pdfrwt>
<totfact> 0.10659689E+00</totfact>
</mgrwt>
<rwgt>
<wgt id='morphing_basis_vector_1'> +8.6519778e-05 </wgt>
<wgt id='morphing_basis_vector_2'> +5.8763569e-05 </wgt>
<wgt id='morphing_basis_vector_3'> +9.4409209e-05 </wgt>
<wgt id='morphing_basis_vector_4'> +6.6920554e-05 </wgt>
<wgt id='morphing_basis_vector_5'> +1.0722784e-04 </wgt>
</rwgt>
</event>
<event>
 4      1 +7.3133000e-09 2.85443200e+03 7.81860800e-03 7.79003600e-02
        2 -1    0    0  501    0 +0.0000000000e+00 +0.0000000000e+00 +2.0501312415e+03 2.0501312415e+03 0.0000000000e+00 0.0000e+00 1.0000e+00
       -2 -1    0    0    0  501 -0.0000000000e+00 -0.0000000000e+00 -9.9356817419e+02 9.9356817419e+02 0.0000000000e+00 0.0000e+00 -1.0000e+00
      -13  1    1    2    0    0 +2.3665380795e+02 +1.1001037123e+03 -4.0783118178e+02 1.1968957663e+03 0.0000000000e+00 0.0000e+00 -1.0000e+00
       13  1    1    2    0    0 -2.3665380795e+02 -1.1001037123e+03 +1.4643942491e+03 1.8468036494e+03 0.0000000000e+00 0.0000e+00 1.0000e+00
<mgrwt>
<rscale>  0 0.28544318E+04</rscale>
<asrwt>0</asrwt>
<pdfrwt beam="1">  1        2 0.31540480E+00 0.28544318E+04</pdfrwt>
<pdfrwt beam="2">  1       -2 0.15285664E+00 0.28544318E+04</pdfrwt>
<totfact> 0.18626138E+00</totfact>
</mgrwt>
<rwgt>
<wgt id='morphing_basis_vector_1'> +6.6786016e-05 </wgt>
<wgt id='morphing_basis_vector_2'> +4.5330367e-05 </wgt>
<wgt id='morphing_basis_vector_3'> +7.2716406e-05 </wgt>
<wgt id='morphing_basis_vector_4'> +5.1365487e-05 </wgt>
<wgt id='morphing_basis_vector_5'> +8.2347921e-05 </wgt>
</rwgt>
</event>
<event>
 4      1 +7.3133000e-09 3.09412700e+03 7.81860800e-03 7.72889200e-02
        2 -1    0    0  501    0 +0.0000000000e+00 +0.0000000000e+00 +3.5784834433e+03 3.5784834433e+03 0.0000000000e+00 0.0000e+00 1.0000e+00
       -2 -1    0    0    0  501 -0.0000000000e+00 -0.0000000000e+00 -6.6883222713e+02 6.6883222713e+02 0.0000000000e+00 0.0000e+00 -1.0000e+00
      -13  1    1    2    0    0 +5.1521037504e+02 -1.3221132546e+03 +6.0865734317e+02 1.5439847635e+03 0.0000000000e+00 0.0000e+00 1.0000e+00
       13  1    1    2    0    0 -5.1521037504e+02 +1.3221132546e+03 +2.3009938730e+03 2.7033309069e+03 0.0000000000e+00 0.0000e+00 -1.0000e+00
<mgrwt>
<rscale>  0 0.30941267E+04</rscale>
<asrwt>0</asrwt>
<pdfrwt beam="1">  1        2 0.55053590E+00 0.30941267E+04</pdfrwt>
<pdfrwt beam="2">  1       -2 0.10289727E+00 0.30941267E+04</pdfrwt>
<totfact> 0.55209072E-01</totfact>
</mgrwt>
<rwgt>
<wgt id='morphing_basis_vector_1'> +9.2398351e-05 </wgt>
<wgt id='morphing_basis_vector_2'> +6.3882944e-05 </wgt>
<wgt id='morphing_basis_vector_3'> +1.0110764e-04 </wgt>
<wgt id='morphing_basis_vector_4'> +7.0142754e-05 </wgt>
<wgt id='morphing_basis_vector_5'> +1.1394258e-04 </wgt>
</rwgt>
</event>
<event>
 4      1 +7.3133000e-09 2.91472300e+03 7.81860800e-03 7.77409300e-02
        2 -1    0    0  501    0 +0.0000000000e+00 +0.0000000000e+00 +1.6960372960e+03 1.6960372960e+03 0.0000000000e+00 0.0000e+00 1.0000e+00
       -2 -1    0    0    0  501 -0.0000000000e+00 -0.0000000000e+00 -1.2522734271e+03 1.2522734271e+03 0.0000000000e+00 0.0000e+00 -1.0000e+00
      -13  1    1    2    0    0 +2.5801574225e+01 -9.6323548883e+02 -8.8406722623e+02 1.3076938436e+03 0.0000000000e+00 0.0000e+00 -1.0000e+00
       13  1    1    2    0    0 -2.5801574225e+01 +9.6323548883e+02 +1.3278310951e+03 1.6406168795e+03 0.0000000000e+00 0.0000e+00 1.0000e+00
<mgrwt>
<rscale>  0 0.29147229E+04</rscale>
<asrwt>0</asrwt>
<pdfrwt beam="1">  1        2 0.26092881E+00 0.29147229E+04</pdfrwt>
<pdfrwt beam="2">  1       -2 0.19265745E+00 0.29147229E+04</pdfrwt>
<totfact> 0.14366848E+00</totfact>
</mgrwt>
<rwgt>
<wgt id='morphing_basis_vector_1'> +7.2443864e-05 </wgt>
<wgt id='morphing_basis_vector_2'> +4.8952857e-05 </wgt>
<wgt id='morphing_basis_vector_3'> +7.8886977e-05 </wgt>
<wgt id='morphing_basis_vector_4'> +5.6109583e-05 </wgt>
<wgt id='morphing_basis_vector_5'> +8.9618808e-05 </wgt>
</rwgt>
</event>
<event>
 4      1 +7.3133000e-09 2.75627700e+03 7.81860800e-03 7.81686300e-02
        2 -1    0    0  501    0 +0.0000000000e+00 +0.0000000000e+00 +8.3261555180e+02 8.3261555180e+02 0.0000000000e+00 0.0000e+00 1.0000e+00
       -2 -1    0    0    0  501 -0.0000000000e+00 -0.0000000000e+00 -2.2810834184e+03 2.2810834184e+03 0.0000000000e+00 0.0000e+00 -1.0000e+00
      -13  1    1    2    0    0 +1.7798690092e+00 -8.9957212260e+02 +4.5519962185e+02 1.0081864249e+03 0.0000000000e+00 0.0000e+00 1.0000e+00
       13  1    1    2    0    0 -1.7798690092e+00 +8.9957212260e+02 -1.9036674884e+03 2.1055125453e+03 0.0000000000e+00 0.0000e+00 -1.0000e+00
<mgrwt>
<rscale>  0 0.27562769E+04</rscale>
<asrwt>0</asrwt>
<pdfrwt beam="1">  1        2 0.12809470E+00 0.27562769E+04</pdfrwt>
<pdfrwt beam="2">  1       -2 0.35093591E+00 0.27562769E+04</pdfrwt>
<totfact> 0.38452319E-01</totfact>
</mgrwt>
<rwgt>
<wgt id='morphing_basis_vector_1'> +7.6339319e-05 </wgt>
<wgt id='morphing_basis_vector_2'> +9.3054633e-05 </wgt>
<wgt id='morphing_basis_vector_3'> +9.1400418e-05 </wgt>
<wgt id='morphing_basis_vector_4'> +6.9695854e-06 </wgt>
<wgt id='morphing_basis_vector_5'> +6.8416345e-05 </wgt>
</rwgt>
</event>
<event>
 4      1 +7.3133000e-09 2.71283700e+03 7.81860800e-03 7.82910000e-02
        2 -1    0    0  501    0 +0.0000000000e+00 +0.0000000000e+00 +2.9626491698e+03 2.9626491698e+03 0.0000000000e+00 0.0000e+00 1.0000e+00
       -2 -1    0    0    0  501 -0.0000000000e+00 -0.0000000000e+00 -6.2102217890e+02 6.2102217890e+02 0.0000000000e+00 0.0000e+00 -1.0000e+00
      -13  1    1    2    0    0 -1.2284599735e+03 -5.3397406049e+02 +8.8863541967e+02 1.6074560998e+03 0.0000000000e+00 0.0000e+00 -1.0000e+00
       13  1    1    2    0    0 +1.2284599735e+03 +5.3397406049e+02 +1.4529915712e+03 1.9762152488e+03 0.0000000000e+00 0.0000e+00 1.0000e+00
<mgrwt>
<rscale>  0 0.27128368E+04</rscale>
<asrwt>0</asrwt>
<pdfrwt beam="1">  1        2 0.45579217E+00 0.27128368E+04</pdfrwt>
<pdfrwt beam="2">  1       -2 0.95541875E-01 0.27128368E+04</pdfrwt>
<totfact> 0.18215994E+00</totfact>
</mgrwt>
<rwgt>
<wgt id='morphing_basis_vector_1'> +5.5590793e-05 </wgt>
<wgt id='morphing_basis_vector_2'> +3.9921931e-05 </wgt>
<wgt id='morphing_basis_vector_3'> +6.0858364e-05 </wgt>
<wgt id='morphing_basis_vector_4'> +3.9785736e-05 </wgt>
<wgt id='morphing_basis_vector_5'> +6.6877459e-05 </wgt>
</rwgt>
</event>
<event>
 4      1 +7.3133000e-09 2.77314300e+03 7.81860800e-03 7.81217300e-02
        2 -1    0    0  501    0 +0.0000000000e+00 +0.0000000000e+00 +1.9272111898e+03 1.9272111898e+03 0.0000000000e+00 0.0000e+00 -1.0000e+00
       -2 -1    0    0    0  501 -0.0000000000e+00 -0.0000000000e+00 -9.9759692511e+02 9.9759692511e+02 0.0000000000e+00 0.0000e+00 1.0000e+00
      -13  1    1    2    0    0 -5.4549760150e+02 +6.3539061518e+02 -7.0075323711e+02 1.0919450382e+03 0.0000000000e+00 0.0000e+00 1.0000e+00
       13  1    1    2    0    0 +5.4549760150e+02 -6.3539061518e+02 +1.6303675018e+03 1.8328630767e+03 0.0000000000e+00 0.0000e+00 -1.0000e+00
<mgrwt>
<rscale>  0 0.27731426E+04</rscale>
<asrwt>0</asrwt>
<pdfrwt beam="1">  1        2 0.29649403E+00 0.27731426E+04</pdfrwt>
<pdfrwt beam="2">  1       -2 0.15347645E+00 0.27731426E+04</pdfrwt>
<totfact> 0.21736870E+00</totfact>
</mgrwt>
<rwgt>
<wgt id='morphing_basis_vector_1'> +5.9462189e-05 </wgt>
<wgt id='morphing_basis_vector_2'> +4.0091039e-05 </wgt>
<wgt id='morphing_basis_vector_3'> +6.4621400e-05 </wgt>
<wgt id='morphing_basis_vector_4'> +4.5926646e-05 </wgt>
<wgt id='morphing_basis_vector_5'> +7.3293065e-05 </wgt>
</rwgt>
</event>
<event>
 4      1 +7.3133000e-09 2.83344100e+03 7.81860800e-03 7.79568000e-02
        2 -1    0    0  501    0 +0.0000000000e+00 +0.0000000000e+00 +2.2209103097e+03 2.2209103097e+03 0.0000000000e+00 0.0000e+00 -1.0000e+00
       -2 -1    0    0    0  501 -0.0000000000e+00 -0.0000000000e+00 -9.0372737207e+02 9.0372737207e+02 0.0000000000e+00 0.0000e+00 1.0000e+00
      -13  1    1    2    0    0 +8.8907440747e+02 +9.5417172633e+02 +4.8368773313e+01 1.3050810410e+03 0.0000000000e+00 0.0000e+00 1.0000e+00
       13  1    1    2    0    0 -8.8907440747e+02 -9.5417172633e+02 +1.2688141643e+03 1.8195566407e+03 0.0000000000e+00 0.0000e+00 -1.0000e+00
<mgrwt>
<rscale>  0 0.28334413E+04</rscale>
<asrwt>0</asrwt>
<pdfrwt beam="1">  1        2 0.34167851E+00 0.28334413E+04</pdfrwt>
<pdfrwt beam="2">  1       -2 0.13903498E+00 0.28334413E+04</pdfrwt>
<totfact> 0.19479461E+00</totfact>
</mgrwt>
<rwgt>
<wgt id='morphing_basis_vector_1'> +6.5209552e-05 </wgt>
<wgt id='morphing_basis_vector_2'> +4.5039922e-05 </wgt>
<wgt id='morphing_basis_vector_3'> +7.1141965e-05 </wgt>
<wgt id='morphing_basis_vector_4'> +4.9137452e-05 </wgt>
<wgt id='morphing_basis_vector_5'> +7.9870093e-05 </wgt>
</rwgt>
</event>
<event>
 4      1 +7.3133000e-09 2.78297000e+03 7.81860800e-03 7.80945600e-02
        2 -1    0    0  501    0 +0.0000000000e+00 +0.0000000000e+00 +1.1532030041e+03 1.1532030041e+03 0.0000000000e+00 0.0000e+00 -1.0000e+00
       -2 -1    0    0    0  501 -0.0000000000e+00 -0.0000000000e+00 -1.6790020714e+03 1.6790020714e+03 0.0000000000e+00 0.0000e+00 1.0000e+00
      -13  1    1    2    0    0 +1.2618159202e+03 +4.5059684871e+02 -6.4506041914e+02 1.4870507325e+03 0.0000000000e+00 0.0000e+00 1.0000e+00
       13  1    1    2    0    0 -1.2618159202e+03 -4.5059684871e+02 +1.1926135178e+02 1.3451543431e+03 0.0000000000e+00 0.0000e+00 -1.0000e+00
<mgrwt>
<rscale>  0 0.27829698E+04</rscale>
<asrwt>0</asrwt>
<pdfrwt beam="1">  1        2 0.17741585E+00 0.27829698E+04</pdfrwt>
<pdfrwt beam="2">  1       -2 0.25830801E+00 0.27829698E+04</pdfrwt>
<totfact> 0.10107549E+00</totfact>
</mgrwt>
<rwgt>
<wgt id='morphing_basis_vector_1'> +6.1052500e-05 </wgt>
<wgt id='morphing_basis_vector_2'> +4.2876104e-05 </wgt>
<wgt id='morphing_basis_vector_3'> +6.6707711e-05 </wgt>
<wgt id='morphing_basis_vector_4'> +4.5031240e-05 </wgt>
<wgt id='morphing_basis_vector_5'> +7.4221133e-05 </wgt>
</rwgt>
</event>
<event>
 4      1 +7.3133000e-09 2.73691900e+03 7.81860800e-03 7.82228800e-02
        2 -1    0    0  501    0 +0.0000000000e+00 +0.0000000000e+00 +3.4860996358e+03 3.4860996358e+03 0.0000000000e+00 0.0000e+00 1.0000e+00
       -2 -1    0    0    0  501 -0.0000000000e+00 -0.0000000000e+00 -5.3718508424e+02 5.3718508424e+02 0.0000000000e+00 0.0000e+00 -1.0000e+00
      -13  1    1    2    0    0 +5.1957784452e+02 -1.1192742308e+03 +6.0485900890e+02 1.3742599321e+03 0.0000000000e+00 0.0000e+00 -1.0000e+00
       13  1    1    2    0    0 -5.1957784452e+02 +1.1192742308e+03 +2.3440555427e+03 2.6490247880e+03 0.0000000000e+00 0.0000e+00 1.0000e+00
<mgrwt>
<rscale>  0 0.27369185E+04</rscale>
<asrwt>0</asrwt>
<pdfrwt beam="1">  1        2 0.53632301E+00 0.27369185E+04</pdfrwt>
<pdfrwt beam="2">  1       -2 0.82643861E-01 0.27369185E+04</pdfrwt>
<totfact> 0.11172707E+00</totfact>
</mgrwt>
<rwgt>
<wgt id='morphing_basis_vector_1'> +5.6773194e-05 </wgt>
<wgt id='morphing_basis_vector_2'> +3.9005666e-05 </wgt>
<wgt id='morphing_basis_vector_3'> +6.1816949e-05 </wgt>
<wgt id='morphing_basis_vector_4'> +4.2877026e-05 </wgt>
<wgt id='morphing_basis_vector_5'> +6.9444455e-05 </wgt>
</rwgt>
</event>
<event>
 4      1 +7.3133000e-09 2.85721300e+03 7.81860800e-03 7.78929200e-02
        2 -1    0    0  501    0 +0.0000000000e+00 +0.0000000000e+00 +1.3246442617e+03 1.3246442617e+03 0.0000000000e+00 0.0000e+00 -1.0000e+00
       -2 -1    0    0    0  501 -0.0000000000e+00 -0.0000000000e+00 -1.5407280790e+03 1.5407280790e+03 0.0000000000e+00 0.0000e+00 1.0000e+00
      -13  1    1    2    0    0 -1.2129310872e+03 +5.6829784073e+02 -6.0620217838e+02 1.4702534949e+03 0.0000000000e+00 0.0000e+00 1.0000e+00
       13  1    1    2    0    0 +1.2129310872e+03 -5.6829784073e+02 +3.9011836113e+02 1.3951188458e+03 0.0000000000e+00 0.0000e+00 -1.0000e+00
<mgrwt>
<rscale>  0 0.28572131E+04</rscale>
<asrwt>0</asrwt>
<pdfrwt beam="1">  1        2 0.20379143E+00 0.28572131E+04</pdfrwt>
<pdfrwt beam="2">  1       -2 0.23703509E+00 0.28572131E+04</pdfrwt>
<totfact> 0.11219117E+00</totfact>
</mgrwt>
<rwgt>
<wgt id='morphing_basis_vector_1'> +6.7512739e-05 </wgt>
<wgt id='morphing_basis_vector_2'> +4.6887442e-05 </wgt>
<wgt id='morphing_basis_vector_3'> +7.3729311e-05 </wgt>
<wgt id='morphing_basis_vector_4'> +5.0595722e-05 </wgt>
<wgt id='morphing_basis_vector_5'> +8.2592854e-05 </wgt>
</rwgt>
</event>
<event>
 4      1 +7.3133000e-09 2.89449000e+03 7.81860800e-03 7.77940000e-02
        2 -1    0    0  501    0 +0.0000000000e+00 +0.0000000000e+00 +3.1015907712e+03 3.1015907712e+03 0.0000000000e+00 0.0000e+00 1.0000e+00
       -2 -1    0    0    0  501 -0.0000000000e+00 -0.0000000000e+00 -6.7530447194e+02 6.7530447194e+02 0.0000000000e+00 0.0000e+00 -1.0000e+00
      -13  1    1    2    0    0 -7.3513330819e+02 +5.4488141697e+02 -2.4992753065e+02 9.4856760958e+02 0.0000000000e+00 0.0000e+00 -1.0000e+00
       13  1    1    2    0    0 +7.3513330819e+02 -5.4488141697e+02 +2.6762138299e+03 2.8283276336e+03 0.0000000000e+00 0.0000e+00 1.0000e+00
<mgrwt>
<rscale>  0 0.28944900E+04</rscale>
<asrwt>0</asrwt>
<pdfrwt beam="1">  1        2 0.47716780E+00 0.28944900E+04</pdfrwt>
<pdfrwt beam="2">  1       -2 0.10389300E+00 0.28944900E+04</pdfrwt>
<totfact> 0.11880619E+00</totfact>
</mgrwt>
<rwgt>
<wgt id='morphing_basis_vector_1'> +7.0460029e-05 </wgt>
<wgt id='morphing_basis_vector_2'> +4.7577056e-05 </wgt>
<wgt id='morphing_basis_vector_3'> +7.6701770e-05 </wgt>
<wgt id='morphing_basis_vector_4'> +5.4579042e-05 </wgt>
<wgt id='morphing_basis_vector_5'> +8.7135312e-05 </wgt>
</rwgt>
</event>
<event>
 4      1 +7.3133000e-09 2.76506700e+03 7.81860800e-03 7.81441400e-02
        2 -1    0    0  501    0 +0.0000000000e+00 +0.0000000000e+00 +2.4360182356e+03 2.4360182356e+03 0.0000000000e+00 0.0000e+00 -1.0000e+00
       -2 -1    0    0    0  501 -0.0000000000e+00 -0.0000000000e+00 -7.8464085710e+02 7.8464085710e+02 0.0000000000e+00 0.0000e+00 1.0000e+00
      -13  1    1    2    0    0 +1.0577922548e+03 +2.3485422217e+02 -1.7446465886e+02 1.0975057527e+03 0.0000000000e+00 0.0000e+00 1.0000e+00
       13  1    1    2    0    0 -1.0577922548e+03 -2.3485422217e+02 +1.8258420374e+03 2.1231533401e+03 0.0000000000e+00 0.0000e+00 -1.0000e+00
<mgrwt>
<rscale>  0 0.27650674E+04</rscale>
<asrwt>0</asrwt>
<pdfrwt beam="1">  1        2 0.37477203E+00 0.27650674E+04</pdfrwt>
<pdfrwt beam="2">  1       -2 0.12071398E+00 0.27650674E+04</pdfrwt>
<totfact> 0.21432181E+00</totfact>
</mgrwt>
<rwgt>
<wgt id='morphing_basis_vector_1'> +5.8879388e-05 </wgt>
<wgt id='morphing_basis_vector_2'> +3.9921329e-05 </wgt>
<wgt id='morphing_basis_vector_3'> +6.4026718e-05 </wgt>
<wgt id='morphing_basis_vector_4'> +4.5182861e-05 </wgt>
<wgt id='morphing_basis_vector_5'> +7.2417471e-05 </wgt>
</rwgt>
</event>
<event>
 4      1 +7.3133000e-09 3.06531000e+03 7.81860800e-03 7.73593600e-02
        2 -1    0    0  501    0 +0.0000000000e+00 +0.0000000000e+00 +3.6261190874e+03 3.6261190874e+03 0.0000000000e+00 0.0000e+00 1.0000e+00
       -2 -1    0    0    0  501 -0.0000000000e+00 -0.0000000000e+00 -6.4780878772e+02 6.4780878772e+02 0.0000000000e+00 0.0000e+00 -1.0000e+00
      -13  1    1    2    0    0 +9.6362877814e+02 -1.1790036609e+03 +1.7322647314e+03 2.3063761953e+03 0.0000000000e+00 0.0000e+00 -1.0000e+00
       13  1    1    2    0    0 -9.6362877814e+02 +1.1790036609e+03 +1.2460455683e+03 1.9675516799e+03 0.0000000000e+00 0.0000e+00 1.0000e+00
<mgrwt>
<rscale>  0 0.30653103E+04</rscale>
<asrwt>0</asrwt>
<pdfrwt beam="1">  1        2 0.55786446E+00 0.30653103E+04</pdfrwt>
<pdfrwt beam="2">  1       -2 0.99662893E-01 0.30653103E+04</pdfrwt>
<totfact> 0.55078780E-01</totfact>
</mgrwt>
<rwgt>
<wgt id='morphing_basis_vector_1'> +9.3227967e-05 </wgt>
<wgt id='morphing_basis_vector_2'> +7.3897833e-05 </wgt>
<wgt id='morphing_basis_vector_3'> +1.0397710e-04 </wgt>
<wgt id='morphing_basis_vector_4'> +5.8797216e-05 </wgt>
<wgt id='morphing_basis_vector_5'> +1.0900243e-04 </wgt>
</rwgt>
</event>
<event>
 4      1 +7.3133000e-09 2.80267400e+03 7.81860800e-03 7.80404300e-02
        2 -1    0    0  501    0 +0.0000000000e+00 +0.0000000000e+00 +3.8174963744e+03 3.8174963744e+03 0.0000000000e+00 0.0000e+00 -1.0000e+00
       -2 -1    0    0    0  501 -0.0000000000e+00 -0.0000000000e+00 -5.1440651367e+02 5.1440651367e+02 0.0000000000e+00 0.0000e+00 1.0000e+00
      -13  1    1    2    0    0 -5.5454116601e+02 -1.2142138232e+03 +9.9231168956e+02 1.6632839813e+03 0.0000000000e+00 0.0000e+00 1.0000e+00
       13  1    1    2    0    0 +5.5454116601e+02 +1.2142138232e+03 +2.3107781712e+03 2.6686189068e+03 0.0000000000e+00 0.0000e+00 -1.0000e+00
<mgrwt>
<rscale>  0 0.28026737E+04</rscale>
<asrwt>0</asrwt>
<pdfrwt beam="1">  1        2 0.58730712E+00 0.28026737E+04</pdfrwt>
<pdfrwt beam="2">  1       -2 0.79139466E-01 0.28026737E+04</pdfrwt>
<totfact> 0.68475048E-01</totfact>
</mgrwt>
<rwgt>
<wgt id='morphing_basis_vector_1'> +6.2672453e-05 </wgt>
<wgt id='morphing_basis_vector_2'> +4.3776228e-05 </wgt>
<wgt id='morphing_basis_vector_3'> +6.8447175e-05 </wgt>
<wgt id='morphing_basis_vector_4'> +4.6558946e-05 </wgt>
<wgt id='morphing_basis_vector_5'> +7.6386017e-05 </wgt>
</rwgt>
</event>
<event>
 4      1 +7.3133000e-09 2.74079500e+03 7.81860800e-03 7.82119800e-02
        2 -1    0    0  501    0 +0.0000000000e+00 +0.0000000000e+00 +2.1486951603e+03 2.1486951603e+03 0.0000000000e+00 0.0000e+00 -1.0000e+00
       -2 -1    0    0    0  501 -0.0000000000e+00 -0.0000000000e+00 -8.7401374943e+02 8.7401374943e+02 0.0000000000e+00 0.0000e+00 1.0000e+00
      -13  1    1    2    0    0 -1.0555630442e+02 +5.2959844701e+02 -7.5172368122e+02 9.2558367606e+02 0.0000000000e+00 0.0000e+00 1.0000e+00
       13  1    1    2    0    0 +1.0555630442e+02 -5.2959844701e+02 +2.0264050921e+03 2.0971252337e+03 0.0000000000e+00 0.0000e+00 -1.0000e+00
<mgrwt>
<rscale>  0 0.27407949E+04</rscale>
<asrwt>0</asrwt>
<pdfrwt beam="1">  1        2 0.33056848E+00 0.27407949E+04</pdfrwt>
<pdfrwt beam="2">  1       -2 0.13446365E+00 0.27407949E+04</pdfrwt>
<totfact> 0.23673285E+00</totfact>
</mgrwt>
<rwgt>
<wgt id='morphing_basis_vector_1'> +5.6739175e-05 </wgt>
<wgt id='morphing_basis_vector_2'> +3.8186067e-05 </wgt>
<wgt id='morphing_basis_vector_3'> +6.1621665e-05 </wgt>
<wgt id='morphing_basis_vector_4'> +4.3852342e-05 </wgt>
<wgt id='morphing_basis_vector_5'> +6.9902486e-05 </wgt>
</rwgt>
</event>
<event>
 4      1 +7.3133000e-09 2.77009900e+03 7.81860800e-03 7.81301700e-02
        2 -1    0    0  501    0 +0.0000000000e+00 +0.0000000000e+00 +1.7887625680e+03 1.7887625680e+03 0.0000000000e+00 0.0000e+00 1.0000e+00
       -2 -1    0    0    0  501 -0.0000000000e+00 -0.0000000000e+00 -1.0724519600e+03 1.0724519600e+03 0.0000000000e+00 0.0000e+00 -1.0000e+00
      -13  1    1    2    0    0 -1.1787004985e+03 +6.8755812480e+02 +1.1309431626e+02 1.3692557703e+03 0.0000000000e+00 0.0000e+00 -1.0000e+00
       13  1    1    2    0    0 +1.1787004985e+03 -6.8755812480e+02 +6.0321629169e+02 1.4919587577e+03 0.0000000000e+00 0.0000e+00 1.0000e+00
<mgrwt>
<rscale>  0 0.27700989E+04</rscale>
<asrwt>0</asrwt>
<pdfrwt beam="1">  1        2 0.27519424E+00 0.27700989E+04</pdfrwt>
<pdfrwt beam="2">  1       -2 0.16499261E+00 0.27700989E+04</pdfrwt>
<totfact> 0.20995749E+00</totfact>
</mgrwt>
<rwgt>
<wgt id='morphing_basis_vector_1'> +6.0317364e-05 </wgt>
<wgt id='morphing_basis_vector_2'> +4.3196602e-05 </wgt>
<wgt id='morphing_basis_vector_3'> +6.6063400e-05 </wgt>
<wgt id='morphing_basis_vector_4'> +4.3420326e-05 </wgt>
<wgt id='morphing_basis_vector_5'> +7.2780245e-05 </wgt>
</rwgt>
</event>
<event>
 4      1 +7.3133000e-09 2.71459400e+03 7.81860800e-03 7.82860100e-02
        2 -1    0    0  501    0 +0.0000000000e+00 +0.0000000000e+00 +2.5668431240e+03 2.5668431240e+03 0.0000000000e+00 0.0000e+00 -1.0000e+00
       -2 -1    0    0    0  501 -0.0000000000e+00 -0.0000000000e+00 -7.1771247910e+02 7.1771247910e+02 0.0000000000e+00 0.0000e+00 1.0000e+00
      -13  1    1    2    0    0 +1.1802770010e+03 +6.3929497148e+02 +6.8105471029e+02 1.5051868250e+03 0.0000000000e+00 0.0000e+00 1.0000e+00
       13  1    1    2    0    0 -1.1802770010e+03 -6.3929497148e+02 +1.1680759346e+03 1.7793687781e+03 0.0000000000e+00 0.0000e+00 -1.0000e+00
<mgrwt>
<rscale>  0 0.27145941E+04</rscale>
<asrwt>0</asrwt>
<pdfrwt beam="1">  1        2 0.39489894E+00 0.27145941E+04</pdfrwt>
<pdfrwt beam="2">  1       -2 0.11041731E+00 0.27145941E+04</pdfrwt>
<totfact> 0.22587279E+00</totfact>
</mgrwt>
<rwgt>
<wgt id='morphing_basis_vector_1'> +5.5773737e-05 </wgt>
<wgt id='morphing_basis_vector_2'> +4.0143900e-05 </wgt>
<wgt id='morphing_basis_vector_3'> +6.1078563e-05 </wgt>
<wgt id='morphing_basis_vector_4'> +3.9806663e-05 </wgt>
<wgt id='morphing_basis_vector_5'> +6.7045992e-05 </wgt>
</rwgt>
</event>
<event>
 4      1 +7.3133000e-09 2.70084300e+03 7.81860800e-03 7.83252000e-02
        2 -1    0    0  501    0 +0.0000000000e+00 +0.0000000000e+00 +1.2717782916e+03 1.2717782916e+03 0.0000000000e+00 0.0000e+00 1.0000e+00
       -2 -1    0    0    0  501 -0.0000000000e+00 -0.0000000000e+00 -1.4339281579e+03 1.4339281579e+03 0.0000000000e+00 0.0000e+00 -1.0000e+00
      -13  1    1    2    0    0 -5.3289428441e+02 -8.6369686009e+02 -9.7357193848e+02 1.4063395407e+03 0.0000000000e+00 0.0000e+00 -1.0000e+00
       13  1    1    2    0    0 +5.3289428441e+02 +8.6369686009e+02 +8.1142207214e+02 1.2993669088e+03 0.0000000000e+00 0.0000e+00 1.0000e+00
<mgrwt>
<rscale>  0 0.27008434E+04</rscale>
<asrwt>0</asrwt>
<pdfrwt beam="1">  1        2 0.19565820E+00 0.27008434E+04</pdfrwt>
<pdfrwt beam="2">  1       -2 0.22060433E+00 0.27008434E+04</pdfrwt>
<totfact> 0.15907556E+00</totfact>
</mgrwt>
<rwgt>
<wgt id='morphing_basis_vector_1'> +5.3624535e-05 </wgt>
<wgt id='morphing_basis_vector_2'> +3.6274783e-05 </wgt>
<wgt id='morphing_basis_vector_3'> +5.8244265e-05 </wgt>
<wgt id='morphing_basis_vector_4'> +4.1144988e-05 </wgt>
<wgt id='morphing_basis_vector_5'> +6.5858488e-05 </wgt>
</rwgt>
</event>
<event>
 4      1 +7.3133000e-09 2.67531700e+03 7.81860800e-03 7.83985900e-02
        2 -1    0    0  501    0 +0.0000000000e+00 +0.0000000000e+00 +2.2407190583e+03 2.2407190583e+03 0.0000000000e+00 0.0000e+00 -1.0000e+00
       -2 -1    0    0    0  501 -0.0000000000e+00 -0.0000000000e+00 -7.9855156273e+02 7.9855156273e+02 0.0000000000e+00 0.0000e+00 1.0000e+00
      -13  1    1    2    0    0 +7.6087979143e+02 +1.0201158647e+02 -5.2337971572e+02 9.2912364496e+02 0.0000000000e+00 0.0000e+00 1.0000e+00
       13  1    1    2    0    0 -7.6087979143e+02 -1.0201158647e+02 +1.9655472113e+03 2.1101469761e+03 0.0000000000e+00 0.0000e+00 -1.0000e+00
<mgrwt>
<rscale>  0 0.26753166E+04</rscale>
<asrwt>0</asrwt>
<pdfrwt beam="1">  1        2 0.34472601E+00 0.26753166E+04</pdfrwt>
<pdfrwt beam="2">  1       -2 0.12285409E+00 0.26753166E+04</pdfrwt>
<totfact> 0.26814426E+00</totfact>
</mgrwt>
<rwgt>
<wgt id='morphing_basis_vector_1'> +5.1580833e-05 </wgt>
<wgt id='morphing_basis_vector_2'> +3.4731094e-05 </wgt>
<wgt id='morphing_basis_vector_3'> +5.5971550e-05 </wgt>
<wgt id='morphing_basis_vector_4'> +3.9733588e-05 </wgt>
<wgt id='morphing_basis_vector_5'> +6.3388403e-05 </wgt>
</rwgt>
</event>
<event>
 4      1 +7.3133000e-09 2.91216300e+03 7.81860800e-03 7.77476200e-02
        2 -1    0    0  501    0 +0.0000000000e+00 +0.0000000000e+00 +2.5993022379e+03 2.5993022379e+03 0.0000000000e+00 0.0000e+00 -1.0000e+00
       -2 -1    0    0    0  501 -0.0000000000e+00 -0.0000000000e+00 -8.1567030865e+02 8.1567030865e+02 0.0000000000e+00 0.0000e+00 1.0000e+00
      -13  1    1    2    0    0 -1.7657314834e+02 +8.0665674826e+02 -5.1454341920e+02 9.7294815714e+02 0.0000000000e+00 0.0000e+00 1.0000e+00
       13  1    1    2    0    0 +1.7657314834e+02 -8.0665674826e+02 +2.2981753485e+03 2.4420243895e+03 0.0000000000e+00 0.0000e+00 -1.0000e+00
<mgrwt>
<rscale>  0 0.29121632E+04</rscale>
<asrwt>0</asrwt>
<pdfrwt beam="1">  1        2 0.39989265E+00 0.29121632E+04</pdfrwt>
<pdfrwt beam="2">  1       -2 0.12548774E+00 0.29121632E+04</pdfrwt>
<totfact> 0.15265306E+00</totfact>
</mgrwt>
<rwgt>
<wgt id='morphing_basis_vector_1'> +7.2159885e-05 </wgt>
<wgt id='morphing_basis_vector_2'> +4.8686715e-05 </wgt>
<wgt id='morphing_basis_vector_3'> +7.8560078e-05 </wgt>
<wgt id='morphing_basis_vector_4'> +5.5977992e-05 </wgt>
<wgt id='morphing_basis_vector_5'> +8.9306960e-05 </wgt>
</rwgt>
</event>
<event>
 4      1 +7.3133000e-09 2.97877600e+03 7.81860800e-03 7.75757900e-02
        2 -1    0    0  501    0 +0.0000000000e+00 +0.0000000000e+00 +1.6498725523e+03 1.6498725523e+03 0.0000000000e+00 0.0000e+00 -1.0000e+00
       -2 -1    0    0    0  501 -0.0000000000e+00 -0.0000000000e+00 -1.3445139342e+03 1.3445139342e+03 0.0000000000e+00 0.0000e+00 1.0000e+00
      -13  1    1    2    0    0 +8.5735548490e+02 +1.2112604064e+03 +2.5261600970e+01 1.4841995648e+03 0.0000000000e+00 0.0000e+00 1.0000e+00
       13  1    1    2    0    0 -8.5735548490e+02 -1.2112604064e+03 +2.8009701704e+02 1.5101869217e+03 0.0000000000e+00 0.0000e+00 -1.0000e+00
<mgrwt>
<rscale>  0 0.29787760E+04</rscale>
<asrwt>0</asrwt>
<pdfrwt beam="1">  1        2 0.25382655E+00 0.29787760E+04</pdfrwt>
<pdfrwt beam="2">  1       -2 0.20684830E+00 0.29787760E+04</pdfrwt>
<totfact> 0.11939922E+00</totfact>
</mgrwt>
<rwgt>
<wgt id='morphing_basis_vector_1'> +8.1015350e-05 </wgt>
<wgt id='morphing_basis_vector_2'> +5.9434987e-05 </wgt>
<wgt id='morphing_basis_vector_3'> +8.9262307e-05 </wgt>
<wgt id='morphing_basis_vector_4'> +5.6977773e-05 </wgt>
<wgt id='morphing_basis_vector_5'> +9.7486857e-05 </wgt>
</rwgt>
</event>
<event>
 4      1 +7.3133000e-09 2.78761700e+03 7.81860800e-03 7.80817600e-02
        2 -1    0    0  501    0 +0.0000000000e+00 +0.0000000000e+00 +6.7055476228e+02 6.7055476228e+02 0.0000000000e+00 0.0000e+00 -1.0000e+00
       -2 -1    0    0    0  501 -0.0000000000e+00 -0.0000000000e+00 -2.8971561781e+03 2.8971561781e+03 0.0000000000e+00 0.0000e+00 1.0000e+00
      -13  1    1    2    0    0 +3.2672777048e+01 -6.8431877972e+02 -2.6667904674e+03 2.7533853889e+03 0.0000000000e+00 0.0000e+00 1.0000e+00
       13  1    1    2    0    0 -3.2672777048e+01 +6.8431877972e+02 +4.4018905161e+02 8.1432555148e+02 0.0000000000e+00 0.0000e+00 -1.0000e+00
<mgrwt>
<rscale>  0 0.27876168E+04</rscale>
<asrwt>0</asrwt>
<pdfrwt beam="1">  1        2 0.10316227E+00 0.27876168E+04</pdfrwt>
<pdfrwt beam="2">  1       -2 0.44571633E+00 0.27876168E+04</pdfrwt>
<totfact> 0.12018853E-01</totfact>
</mgrwt>
<rwgt>
<wgt id='morphing_basis_vector_1'> +6.0680317e-05 </wgt>
<wgt id='morphing_basis_vector_2'> +4.0872847e-05 </wgt>
<wgt id='morphing_basis_vector_3'> +6.5949497e-05 </wgt>
<wgt id='morphing_basis_vector_4'> +4.6943663e-05 </wgt>
<wgt id='morphing_basis_vector_5'> +7.4854714e-05 </wgt>
</rwgt>
</event>
<event>
 4      1 +7.3133000e-09 3.17382700e+03 7.81860800e-03 7.70981600e-02
        2 -1    0    0  501    0 +0.0000000000e+00 +0.0000000000e+00 +1.6574661069e+03 1.6574661069e+03 0.0000000000e+00 0.0000e+00 -1.0000e+00
       -2 -1    0    0    0  501 -0.0000000000e+00 -0.0000000000e+00 -1.5193644065e+03 1.5193644065e+03 0.0000000000e+00 0.0000e+00 1.0000e+00
      -13  1    1    2    0    0 +4.3862362509e+02 -1.5692181526e+01 -1.4574030040e+03 1.5220579638e+03 0.0000000000e+00 0.0000e+00 1.0000e+00
       13  1    1    2    0    0 -4.3862362509e+02 +1.5692181526e+01 +1.5955047044e+03 1.6547725496e+03 0.0000000000e+00 0.0000e+00 -1.0000e+00
<mgrwt>
<rscale>  0 0.31738273E+04</rscale>
<asrwt>0</asrwt>
<pdfrwt beam="1">  1        2 0.25499478E+00 0.31738273E+04</pdfrwt>
<pdfrwt beam="2">  1       -2 0.23374837E+00 0.31738273E+04</pdfrwt>
<totfact> 0.74919525E-01</totfact>
</mgrwt>
<rwgt>
<wgt id='morphing_basis_vector_1'> +1.0145764e-04 </wgt>
<wgt id='morphing_basis_vector_2'> +6.8494716e-05 </wgt>
<wgt id='morphing_basis_vector_3'> +1.1075130e-04 </wgt>
<wgt id='morphing_basis_vector_4'> +7.9280918e-05 </wgt>
<wgt id='morphing_basis_vector_5'> +1.2637707e-04 </wgt>
</rwgt>
</event>
<event>
 4      1 +7.3133000e-09 2.87460700e+03 7.81860800e-03 7.78465700e-02
        2 -1    0    0  501    0 +0.0000000000e+00 +0.0000000000e+00 +1.5999392441e+03 1.5999392441e+03 0.0000000000e+00 0.0000e+00 -1.0000e+00
       -2 -1    0    0    0  501 -0.0000000000e+00 -0.0000000000e+00 -1.2911998207e+03 1.2911998207e+03 0.0000000000e+00 0.0000e+00 1.0000e+00
      -13  1    1    2    0    0 -2.2367997297e+02 -3.4928849918e+02 -1.2297009574e+03 1.2977671712e+03 0.0000000000e+00 0.0000e+00 1.0000e+00
       13  1    1    2    0    0 +2.2367997297e+02 +3.4928849918e+02 +1.5384403809e+03 1.5933718936e+03 0.0000000000e+00 0.0000e+00 -1.0000e+00
<mgrwt>
<rscale>  0 0.28746069E+04</rscale>
<asrwt>0</asrwt>
<pdfrwt beam="1">  1        2 0.24614450E+00 0.28746069E+04</pdfrwt>
<pdfrwt beam="2">  1       -2 0.19864613E+00 0.28746069E+04</pdfrwt>
<totfact> 0.14730625E+00</totfact>
</mgrwt>
<rwgt>
<wgt id='morphing_basis_vector_1'> +6.8518809e-05 </wgt>
<wgt id='morphing_basis_vector_2'> +4.6159859e-05 </wgt>
<wgt id='morphing_basis_vector_3'> +7.4549423e-05 </wgt>
<wgt id='morphing_basis_vector_4'> +5.3171534e-05 </wgt>
<wgt id='morphing_basis_vector_5'> +8.4750645e-05 </wgt>
</rwgt>
</event>
<event>
 4      1 +7.3133000e-09 2.69549100e+03 7.81860800e-03 7.83405200e-02
        2 -1    0    0  501    0 +0.0000000000e+00 +0.0000000000e+00 +1.1577160792e+03 1.1577160792e+03 0.0000000000e+00 0.0000e+00 1.0000e+00
       -2 -1    0    0    0  501 -0.0000000000e+00 -0.0000000000e+00 -1.5689668340e+03 1.5689668340e+03 0.0000000000e+00 0.0000e+00 -1.0000e+00
      -13  1    1    2    0    0 -8.6809302970e+02 +2.7400910356e+02 -1.2109830699e+03 1.5149740898e+03 0.0000000000e+00 0.0000e+00 -1.0000e+00
       13  1    1    2    0    0 +8.6809302970e+02 -2.7400910356e+02 +7.9973231515e+02 1.2117088235e+03 0.0000000000e+00 0.0000e+00 1.0000e+00
<mgrwt>
<rscale>  0 0.26954911E+04</rscale>
<asrwt>0</asrwt>
<pdfrwt beam="1">  1        2 0.17811017E+00 0.26954911E+04</pdfrwt>
<pdfrwt beam="2">  1       -2 0.24137951E+00 0.26954911E+04</pdfrwt>
<totfact> 0.13254013E+00</totfact>
</mgrwt>
<rwgt>
<wgt id='morphing_basis_vector_1'> +5.3164225e-05 </wgt>
<wgt id='morphing_basis_vector_2'> +3.5867852e-05 </wgt>
<wgt id='morphing_basis_vector_3'> +5.7720647e-05 </wgt>
<wgt id='morphing_basis_vector_4'> +4.0901466e-05 </wgt>
<wgt id='morphing_basis_vector_5'> +6.5339251e-05 </wgt>
</rwgt>
</event>
<event>
 4      1 +7.3133000e-09 2.92039200e+03 7.81860800e-03 7.77261400e-02
        2 -1    0    0  501    0 +0.0000000000e+00 +0.0000000000e+00 +3.2891498354e+03 3.2891498354e+03 0.0000000000e+00 0.0000e+00 1.0000e+00
       -2 -1    0    0    0  501 -0.0000000000e+00 -0.0000000000e+00 -6.4824426961e+02 6.4824426961e+02 0.0000000000e+00 0.0000e+00 -1.0000e+00
      -13  1    1    2    0    0 +8.0030805152e+02 -1.4451648618e+01 +2.9670033873e+03 3.0730784123e+03 0.0000000000e+00 0.0000e+00 1.0000e+00
       13  1    1    2    0    0 -8.0030805152e+02 +1.4451648618e+01 -3.2609782156e+02 8.6431569273e+02 0.0000000000e+00 0.0000e+00 -1.0000e+00
<mgrwt>
<rscale>  0 0.29203921E+04</rscale>
<asrwt>0</asrwt>
<pdfrwt beam="1">  1        2 0.50602304E+00 0.29203921E+04</pdfrwt>
<pdfrwt beam="2">  1       -2 0.99729889E-01 0.29203921E+04</pdfrwt>
<totfact> 0.97668058E-01</totfact>
</mgrwt>
<rwgt>
<wgt id='morphing_basis_vector_1'> +9.8156704e-05 </wgt>
<wgt id='morphing_basis_vector_2'> +1.2343007e-04 </wgt>
<wgt id='morphing_basis_vector_3'> +1.1874782e-04 </wgt>
<wgt id='morphing_basis_vector_4'> +4.2855353e-06 </wgt>
<wgt id='morphing_basis_vector_5'> +8.6036666e-05 </wgt>
</rwgt>
</event>
<event>
 4      1 +7.3133000e-09 2.76978800e+03 7.81860800e-03 7.81310300e-02
        2 -1    0    0  501    0 +0.0000000000e+00 +0.0000000000e+00 +2.5510934084e+03 2.5510934084e+03 0.0000000000e+00 0.0000e+00 -1.0000e+00
       -2 -1    0    0    0  501 -0.0000000000e+00 -0.0000000000e+00 -7.5180746473e+02 7.5180746473e+02 0.0000000000e+00 0.0000e+00 1.0000e+00
      -13  1    1    2    0    0 -5.3466010521e+02 -3.4766939358e+02 -5.6627406401e+02 8.5287850888e+02 0.0000000000e+00 0.0000e+00 1.0000e+00
       13  1    1    2    0    0 +5.3466010521e+02 +3.4766939358e+02 +2.3655600077e+03 2.4500223643e+03 0.0000000000e+00 0.0000e+00 -1.0000e+00
<mgrwt>
<rscale>  0 0.27697878E+04</rscale>
<asrwt>0</asrwt>
<pdfrwt beam="1">  1        2 0.39247591E+00 0.27697878E+04</pdfrwt>
<pdfrwt beam="2">  1       -2 0.11566269E+00 0.27697878E+04</pdfrwt>
<totfact> 0.20427347E+00</totfact>
</mgrwt>
<rwgt>
<wgt id='morphing_basis_vector_1'> +5.9155845e-05 </wgt>
<wgt id='morphing_basis_vector_2'> +3.9832882e-05 </wgt>
<wgt id='morphing_basis_vector_3'> +6.4275147e-05 </wgt>
<wgt id='morphing_basis_vector_4'> +4.5748441e-05 </wgt>
<wgt id='morphing_basis_vector_5'> +7.2939119e-05 </wgt>
</rwgt>
</event>
<event>
 4      1 +7.3133000e-09 3.20949900e+03 7.81860800e-03 7.70146500e-02
        2 -1    0    0  501    0 +0.0000000000e+00 +0.0000000000e+00 +3.5017290015e+03 3.5017290015e+03 0.0000000000e+00 0.0000e+00 -1.0000e+00
       -2 -1    0    0    0  501 -0.0000000000e+00 -0.0000000000e+00 -7.3541411294e+02 7.3541411294e+02 0.0000000000e+00 0.0000e+00 1.0000e+00
      -13  1    1    2    0    0 +3.2554564711e+02 +1.0984085258e+03 -1.0036049730e+02 1.1500232551e+03 0.0000000000e+00 0.0000e+00 1.0000e+00
       13  1    1    2    0    0 -3.2554564711e+02 -1.0984085258e+03 +2.8666753858e+03 3.0871198593e+03 0.0000000000e+00 0.0000e+00 -1.0000e+00
<mgrwt>
<rscale>  0 0.32094990E+04</rscale>
<asrwt>0</asrwt>
<pdfrwt beam="1">  1        2 0.53872753E+00 0.32094990E+04</pdfrwt>
<pdfrwt beam="2">  1       -2 0.11314063E+00 0.32094990E+04</pdfrwt>
<totfact> 0.49207430E-01</totfact>
</mgrwt>
<rwgt>
<wgt id='morphing_basis_vector_1'> +1.0619057e-04 </wgt>
<wgt id='morphing_basis_vector_2'> +7.2005398e-05 </wgt>
<wgt id='morphing_basis_vector_3'> +1.1602048e-04 </wgt>
<wgt id='morphing_basis_vector_4'> +8.2657299e-05 </wgt>
<wgt id='morphing_basis_vector_5'> +1.3217852e-04 </wgt>
</rwgt>
</event>
<event>
 4      1 +7.3133000e-09 2.69316600e+03 7.81860800e-03 7.83471900e-02
        2 -1    0    0  501    0 +0.0000000000e+00 +0.0000000000e+00 +2.2316907674e+03 2.2316907674e+03 0.0000000000e+00 0.0000e+00 -1.0000e+00
       -2 -1    0    0    0  501 -0.0000000000e+00 -0.0000000000e+00 -8.1251671621e+02 8.1251671621e+02 0.0000000000e+00 0.0000e+00 1.0000e+00
      -13  1    1    2    0    0 -5.8807964530e+02 +1.1474659869e+03 +2.7068373282e+02 1.3174921418e+03 0.0000000000e+00 0.0000e+00 1.0000e+00
       13  1    1    2    0    0 +5.8807964530e+02 -1.1474659869e+03 +1.1484903184e+03 1.7267153419e+03 0.0000000000e+00 0.0000e+00 -1.0000e+00
<mgrwt>
<rscale>  0 0.26931662E+04</rscale>
<asrwt>0</asrwt>
<pdfrwt beam="1">  1        2 0.34333704E+00 0.26931662E+04</pdfrwt>
<pdfrwt beam="2">  1       -2 0.12500257E+00 0.26931662E+04</pdfrwt>
<totfact> 0.25889420E+00</totfact>
</mgrwt>
<rwgt>
<wgt id='morphing_basis_vector_1'> +5.3570429e-05 </wgt>
<wgt id='morphing_basis_vector_2'> +3.7476432e-05 </wgt>
<wgt id='morphing_basis_vector_3'> +5.8428655e-05 </wgt>
<wgt id='morphing_basis_vector_4'> +3.9546759e-05 </wgt>
<wgt id='morphing_basis_vector_5'> +6.5012768e-05 </wgt>
</rwgt>
</event>
<event>
 4      1 +7.3133000e-09 2.97534800e+03 7.81860800e-03 7.75845200e-02
        2 -1    0    0  501    0 +0.0000000000e+00 +0.0000000000e+00 +1.6194503133e+03 1.6194503133e+03 0.0000000000e+00 0.0000e+00 -1.0000e+00
       -2 -1    0    0    0  501 -0.0000000000e+00 -0.0000000000e+00 -1.3666200324e+03 1.3666200324e+03 0.0000000000e+00 0.0000e+00 1.0000e+00
      -13  1    1    2    0    0 +1.3971161705e+03 +5.0144665722e+02 +2.2572069674e+02 1.5014433645e+03 0.0000000000e+00 0.0000e+00 1.0000e+00
       13  1    1    2    0    0 -1.3971161705e+03 -5.0144665722e+02 +2.7109584191e+01 1.4846269812e+03 0.0000000000e+00 0.0000e+00 -1.0000e+00
<mgrwt>
<rscale>  0 0.29753475E+04</rscale>
<asrwt>0</asrwt>
<pdfrwt beam="1">  1        2 0.24914620E+00 0.29753475E+04</pdfrwt>
<pdfrwt beam="2">  1       -2 0.21024924E+00 0.29753475E+04</pdfrwt>
<totfact> 0.11736357E+00</totfact>
</mgrwt>
<rwgt>
<wgt id='morphing_basis_vector_1'> +8.2189806e-05 </wgt>
<wgt id='morphing_basis_vector_2'> +6.3708819e-05 </wgt>
<wgt id='morphing_basis_vector_3'> +9.1265434e-05 </wgt>
<wgt id='morphing_basis_vector_4'> +5.3502142e-05 </wgt>
<wgt id='morphing_basis_vector_5'> +9.6771020e-05 </wgt>
</rwgt>
</event>
<event>
 4      1 +7.3133000e-09 3.14714100e+03 7.81860800e-03 7.71613800e-02
        2 -1    0    0  501    0 +0.0000000000e+00 +0.0000000000e+00 +3.3954479189e+03 3.3954479189e+03 0.0000000000e+00 0.0000e+00 1.0000e+00
       -2 -1    0    0    0  501 -0.0000000000e+00 -0.0000000000e+00 -7.2924808333e+02 7.2924808333e+02 0.0000000000e+00 0.0000e+00 -1.0000e+00
      -13  1    1    2    0    0 +1.0023141424e+03 -4.5719454043e+02 -1.3950132692e+02 1.1104598633e+03 0.0000000000e+00 0.0000e+00 -1.0000e+00
       13  1    1    2    0    0 -1.0023141424e+03 +4.5719454043e+02 +2.8057011625e+03 3.0142361389e+03 0.0000000000e+00 0.0000e+00 1.0000e+00
<mgrwt>
<rscale>  0 0.31471409E+04</rscale>
<asrwt>0</asrwt>
<pdfrwt beam="1">  1        2 0.52237659E+00 0.31471409E+04</pdfrwt>
<pdfrwt beam="2">  1       -2 0.11219201E+00 0.31471409E+04</pdfrwt>
<totfact> 0.60289730E-01</totfact>
</mgrwt>
<rwgt>
<wgt id='morphing_basis_vector_1'> +9.8224655e-05 </wgt>
<wgt id='morphing_basis_vector_2'> +6.6549429e-05 </wgt>
<wgt id='morphing_basis_vector_3'> +1.0724742e-04 </wgt>
<wgt id='morphing_basis_vector_4'> +7.6399164e-05 </wgt>
<wgt id='morphing_basis_vector_5'> +1.2212816e-04 </wgt>
</rwgt>
</event>
<event>
 4      1 +7.3133000e-09 2.67847400e+03 7.81860800e-03 7.83894700e-02
        2 -1    0    0  501    0 +0.0000000000e+00 +0.0000000000e+00 +3.0284040623e+03 3.0284040623e+03 0.0000000000e+00 0.0000e+00 1.0000e+00
       -2 -1    0    0    0  501 -0.0000000000e+00 -0.0000000000e+00 -5.9224465919e+02 5.9224465919e+02 0.0000000000e+00 0.0000e+00 -1.0000e+00
      -13  1    1    2    0    0 +1.2758347153e+03 +2.9604092477e+01 +6.6911701612e+02 1.4409539216e+03 0.0000000000e+00 0.0000e+00 1.0000e+00
       13  1    1    2    0    0 -1.2758347153e+03 -2.9604092477e+01 +1.7670423870e+03 2.1796947998e+03 0.0000000000e+00 0.0000e+00 -1.0000e+00
<mgrwt>
<rscale>  0 0.26784743E+04</rscale>
<asrwt>0</asrwt>
<pdfrwt beam="1">  1        2 0.46590831E+00 0.26784743E+04</pdfrwt>
<pdfrwt beam="2">  1       -2 0.91114565E-01 0.26784743E+04</pdfrwt>
<totfact> 0.18512692E+00</totfact>
</mgrwt>
<rwgt>
<wgt id='morphing_basis_vector_1'> +5.2385781e-05 </wgt>
<wgt id='morphing_basis_vector_2'> +3.6556821e-05 </wgt>
<wgt id='morphing_basis_vector_3'> +5.7105720e-05 </wgt>
<wgt id='morphing_basis_vector_4'> +3.8760498e-05 </wgt>
<wgt id='morphing_basis_vector_5'> +6.3596739e-05 </wgt>
</rwgt>
</event>
<event>
 4      1 +7.3133000e-09 2.83035400e+03 7.81860800e-03 7.79651400e-02
        2 -1    0    0  501    0 +0.0000000000e+00 +0.0000000000e+00 +1.5713573465e+03 1.5713573465e+03 0.0000000000e+00 0.0000e+00 -1.0000e+00
       -2 -1    0    0    0  501 -0.0000000000e+00 -0.0000000000e+00 -1.2745198210e+03 1.2745198210e+03 0.0000000000e+00 0.0000e+00 1.0000e+00
      -13  1    1    2    0    0 +1.4027124975e+03 -1.7240671968e+02 +2.2230413073e+02 1.4306451531e+03 0.0000000000e+00 0.0000e+00 1.0000e+00
       13  1    1    2    0    0 -1.4027124975e+03 +1.7240671968e+02 +7.4533394756e+01 1.4152320144e+03 0.0000000000e+00 0.0000e+00 -1.0000e+00
<mgrwt>
<rscale>  0 0.28303541E+04</rscale>
<asrwt>0</asrwt>
<pdfrwt beam="1">  1        2 0.24174728E+00 0.28303541E+04</pdfrwt>
<pdfrwt beam="2">  1       -2 0.19607997E+00 0.28303541E+04</pdfrwt>
<totfact> 0.16017796E+00</totfact>
</mgrwt>
<rwgt>
<wgt id='morphing_basis_vector_1'> +6.7281701e-05 </wgt>
<wgt id='morphing_basis_vector_2'> +5.1778451e-05 </wgt>
<wgt id='morphing_basis_vector_3'> +7.4489644e-05 </wgt>
<wgt id='morphing_basis_vector_4'> +4.4044281e-05 </wgt>
<wgt id='morphing_basis_vector_5'> +7.9119839e-05 </wgt>
</rwgt>
</event>
<event>
 4      1 +7.3133000e-09 3.20199400e+03 7.81860800e-03 7.70321200e-02
        2 -1    0    0  501    0 +0.0000000000e+00 +0.0000000000e+00 +2.8775099630e+03 2.8775099630e+03 0.0000000000e+00 0.0000e+00 -1.0000e+00
       -2 -1    0    0    0  501 -0.0000000000e+00 -0.0000000000e+00 -8.9076732474e+02 8.9076732474e+02 0.0000000000e+00 0.0000e+00 1.0000e+00
      -13  1    1    2    0    0 +1.0449327726e+03 -1.4319074368e+02 -4.2414033101e+02 1.1367863074e+03 0.0000000000e+00 0.0000e+00 1.0000e+00
       13  1    1    2    0    0 -1.0449327726e+03 +1.4319074368e+02 +2.4108829693e+03 2.6314909804e+03 0.0000000000e+00 0.0000e+00 -1.0000e+00
<mgrwt>
<rscale>  0 0.32019943E+04</rscale>
<asrwt>0</asrwt>
<pdfrwt beam="1">  1        2 0.44269384E+00 0.32019943E+04</pdfrwt>
<pdfrwt beam="2">  1       -2 0.13704113E+00 0.32019943E+04</pdfrwt>
<totfact> 0.78965795E-01</totfact>
</mgrwt>
<rwgt>
<wgt id='morphing_basis_vector_1'> +1.0516134e-04 </wgt>
<wgt id='morphing_basis_vector_2'> +7.1197102e-05 </wgt>
<wgt id='morphing_basis_vector_3'> +1.1486510e-04 </wgt>
<wgt id='morphing_basis_vector_4'> +8.1980106e-05 </wgt>
<wgt id='morphing_basis_vector_5'> +1.3094524e-04 </wgt>
</rwgt>
</event>
<event>
 4      1 +7.3133000e-09 2.75224600e+03 7.81860800e-03 7.81798900e-02
        2 -1    0    0  501    0 +0.0000000000e+00 +0.0000000000e+00 +1.9827783274e+03 1.9827783274e+03 0.0000000000e+00 0.0000e+00 -1.0000e+00
       -2 -1    0    0    0  501 -0.0000000000e+00 -0.0000000000e+00 -9.5508151341e+02 9.5508151341e+02 0.0000000000e+00 0.0000e+00 1.0000e+00
      -13  1    1    2    0    0 -7.3821360457e+02 -2.1591606413e+02 -7.0422068803e+02 1.0428354857e+03 0.0000000000e+00 0.0000e+00 1.0000e+00
       13  1    1    2    0    0 +7.3821360457e+02 +2.1591606413e+02 +1.7319175020e+03 1.8950243551e+03 0.0000000000e+00 0.0000e+00 -1.0000e+00
<mgrwt>
<rscale>  0 0.27522463E+04</rscale>
<asrwt>0</asrwt>
<pdfrwt beam="1">  1        2 0.30504282E+00 0.27522463E+04</pdfrwt>
<pdfrwt beam="2">  1       -2 0.14693562E+00 0.27522463E+04</pdfrwt>
<totfact> 0.22952478E+00</totfact>
</mgrwt>
<rwgt>
<wgt id='morphing_basis_vector_1'> +5.7699276e-05 </wgt>
<wgt id='morphing_basis_vector_2'> +3.8873426e-05 </wgt>
<wgt id='morphing_basis_vector_3'> +6.2682364e-05 </wgt>
<wgt id='morphing_basis_vector_4'> +4.4563820e-05 </wgt>
<wgt id='morphing_basis_vector_5'> +7.1087881e-05 </wgt>
</rwgt>
</event>
<event>
 4      1 +7.3133000e-09 3.12910200e+03 7.81860800e-03 7.72044800e-02
        2 -1    0    0  501    0 +0.0000000000e+00 +0.0000000000e+00 +2.5885099971e+03 2.5885099971e+03 0.0000000000e+00 0.0000e+00 -1.0000e+00
       -2 -1    0    0    0  501 -0.0000000000e+00 -0.0000000000e+00 -9.4564845642e+02 9.4564845642e+02 0.0000000000e+00 0.0000e+00 1.0000e+00
      -13  1    1    2    0    0 -1.4540489295e+03 +5.6881585115e+02 +9.3443609857e+02 1.8196100088e+03 0.0000000000e+00 0.0000e+00 1.0000e+00
       13  1    1    2    0    0 +1.4540489295e+03 -5.6881585115e+02 +7.0842544207e+02 1.7145484446e+03 0.0000000000e+00 0.0000e+00 -1.0000e+00
<mgrwt>
<rscale>  0 0.31291024E+04</rscale>
<asrwt>0</asrwt>
<pdfrwt beam="1">  1        2 0.39823230E+00 0.31291024E+04</pdfrwt>
<pdfrwt beam="2">  1       -2 0.14548438E+00 0.31291024E+04</pdfrwt>
<totfact> 0.10169757E+00</totfact>
</mgrwt>
<rwgt>
<wgt id='morphing_basis_vector_1'> +1.0032539e-04 </wgt>
<wgt id='morphing_basis_vector_2'> +7.7745722e-05 </wgt>
<wgt id='morphing_basis_vector_3'> +1.1159616e-04 </wgt>
<wgt id='morphing_basis_vector_4'> +6.5638433e-05 </wgt>
<wgt id='morphing_basis_vector_5'> +1.1858752e-04 </wgt>
</rwgt>
</event>
<event>
 4      1 +7.3133000e-09 2.70612100e+03 7.81860800e-03 7.83101300e-02
        2 -1    0    0  501    0 +0.0000000000e+00 +0.0000000000e+00 +2.3918581866e+03 2.3918581866e+03 0.0000000000e+00 0.0000e+00 1.0000e+00
       -2 -1    0    0    0  501 -0.0000000000e+00 -0.0000000000e+00 -7.6541837657e+02 7.6541837657e+02 0.0000000000e+00 0.0000e+00 -1.0000e+00
      -13  1    1    2    0    0 +3.1470050074e+02 +1.1250584852e+03 +1.6787825377e+01 1.1683641689e+03 0.0000000000e+00 0.0000e+00 -1.0000e+00
       13  1    1    2    0    0 -3.1470050074e+02 -1.1250584852e+03 +1.6096519847e+03 1.9889123942e+03 0.0000000000e+00 0.0000e+00 1.0000e+00
<mgrwt>
<rscale>  0 0.27061206E+04</rscale>
<asrwt>0</asrwt>
<pdfrwt beam="1">  1        2 0.36797818E+00 0.27061206E+04</pdfrwt>
<pdfrwt beam="2">  1       -2 0.11775667E+00 0.27061206E+04</pdfrwt>
<totfact> 0.24389633E+00</totfact>
</mgrwt>
<rwgt>
<wgt id='morphing_basis_vector_1'> +5.4183759e-05 </wgt>
<wgt id='morphing_basis_vector_2'> +3.6981120e-05 </wgt>
<wgt id='morphing_basis_vector_3'> +5.8922284e-05 </wgt>
<wgt id='morphing_basis_vector_4'> +4.1174463e-05 </wgt>
<wgt id='morphing_basis_vector_5'> +6.6356204e-05 </wgt>
</rwgt>
</event>
<event>
 4      1 +7.3133000e-09 2.72582200e+03 7.81860800e-03 7.82541800e-02
        2 -1    0    0  501    0 +0.0000000000e+00 +0.0000000000e+00 +2.4748611980e+03 2.4748611980e+03 0.0000000000e+00 0.0000e+00 1.0000e+00
       -2 -1    0    0    0  501 -0.0000000000e+00 -0.0000000000e+00 -7.5055802684e+02 7.5055802684e+02 0.0000000000e+00 0.0000e+00 -1.0000e+00
      -13  1    1    2    0    0 +4.8456859363e+02 -1.1090886613e+03 +1.2069231631e+02 1.2163268540e+03 0.0000000000e+00 0.0000e+00 -1.0000e+00
       13  1    1    2    0    0 -4.8456859363e+02 +1.1090886613e+03 +1.6036108549e+03 2.0090923708e+03 0.0000000000e+00 0.0000e+00 1.0000e+00
<mgrwt>
<rscale>  0 0.27258224E+04</rscale>
<asrwt>0</asrwt>
<pdfrwt beam="1">  1        2 0.38074787E+00 0.27258224E+04</pdfrwt>
<pdfrwt beam="2">  1       -2 0.11547047E+00 0.27258224E+04</pdfrwt>
<totfact> 0.22871656E+00</totfact>
</mgrwt>
<rwgt>
<wgt id='morphing_basis_vector_1'> +5.5823880e-05 </wgt>
<wgt id='morphing_basis_vector_2'> +3.8249768e-05 </wgt>
<wgt id='morphing_basis_vector_3'> +6.0752898e-05 </wgt>
<wgt id='morphing_basis_vector_4'> +4.2269964e-05 </wgt>
<wgt id='morphing_basis_vector_5'> +6.8320684e-05 </wgt>
</rwgt>
</event>
<event>
 4      1 +7.3133000e-09 2.71751500e+03 7.81860800e-03 7.82777100e-02
        2 -1    0    0  501    0 +0.0000000000e+00 +0.0000000000e+00 +1.0160864239e+03 1.0160864239e+03 0.0000000000e+00 0.0000e+00 -1.0000e+00
       -2 -1    0    0    0  501 -0.0000000000e+00 -0.0000000000e+00 -1.8169931283e+03 1.8169931283e+03 0.0000000000e+00 0.0000e+00 1.0000e+00
      -13  1    1    2    0    0 +1.0816736347e+02 +8.0712162403e+02 -1.5344015921e+03 1.7371049883e+03 0.0000000000e+00 0.0000e+00 1.0000e+00
       13  1    1    2    0    0 -1.0816736347e+02 -8.0712162403e+02 +7.3349488764e+02 1.0959745639e+03 0.0000000000e+00 0.0000e+00 -1.0000e+00
<mgrwt>
<rscale>  0 0.27175151E+04</rscale>
<asrwt>0</asrwt>
<pdfrwt beam="1">  1        2 0.15632099E+00 0.27175151E+04</pdfrwt>
<pdfrwt beam="2">  1       -2 0.27953740E+00 0.27175151E+04</pdfrwt>
<totfact> 0.87992279E-01</totfact>
</mgrwt>
<rwgt>
<wgt id='morphing_basis_vector_1'> +5.4879780e-05 </wgt>
<wgt id='morphing_basis_vector_2'> +3.6979759e-05 </wgt>
<wgt id='morphing_basis_vector_3'> +5.9592450e-05 </wgt>
<wgt id='morphing_basis_vector_4'> +4.2317860e-05 </wgt>
<wgt id='morphing_basis_vector_5'> +6.7528953e-05 </wgt>
</rwgt>
</event>
<event>
 4      1 +7.3133000e-09 2.70781100e+03 7.81860800e-03 7.83053100e-02
        2 -1    0    0  501    0 +0.0000000000e+00 +0.0000000000e+00 +2.8194937550e+03 2.8194937550e+03 0.0000000000e+00 0.0000e+00 -1.0000e+00
       -2 -1    0    0    0  501 -0.0000000000e+00 -0.0000000000e+00 -6.5013785824e+02 6.5013785824e+02 0.0000000000e+00 0.0000e+00 1.0000e+00
      -13  1    1    2    0    0 +7.5636199694e+02 -1.0010703952e+03 +4.3278553883e+02 1.3272259526e+03 0.0000000000e+00 0.0000e+00 1.0000e+00
       13  1    1    2    0    0 -7.5636199694e+02 +1.0010703952e+03 +1.7365703579e+03 2.1424056606e+03 0.0000000000e+00 0.0000e+00 -1.0000e+00
<mgrwt>
<rscale>  0 0.27078107E+04</rscale>
<asrwt>0</asrwt>
<pdfrwt beam="1">  1        2 0.43376826E+00 0.27078107E+04</pdfrwt>
<pdfrwt beam="2">  1       -2 0.10002121E+00 0.27078107E+04</pdfrwt>
<totfact> 0.20154942E+00</totfact>
</mgrwt>
<rwgt>
<wgt id='morphing_basis_vector_1'> +5.4525080e-05 </wgt>
<wgt id='morphing_basis_vector_2'> +3.7684425e-05 </wgt>
<wgt id='morphing_basis_vector_3'> +5.9389862e-05 </wgt>
<wgt id='morphing_basis_vector_4'> +4.0850334e-05 </wgt>
<wgt id='morphing_basis_vector_5'> +6.6488995e-05 </wgt>
</rwgt>
</event>
<event>
 4      1 +7.3133000e-09 3.09261600e+03 7.81860800e-03 7.72925900e-02
        2 -1    0    0  501    0 +0.0000000000e+00 +0.0000000000e+00 +1.8118246164e+03 1.8118246164e+03 0.0000000000e+00 0.0000e+00 -1.0000e+00
       -2 -1    0    0    0  501 -0.0000000000e+00 -0.0000000000e+00 -1.3197015046e+03 1.3197015046e+03 0.0000000000e+00 0.0000e+00 1.0000e+00
      -13  1    1    2    0    0 -1.2501369518e+03 +9.0663329672e+02 +1.6606542116e+02 1.5531915713e+03 0.0000000000e+00 0.0000e+00 1.0000e+00
       13  1    1    2    0    0 +1.2501369518e+03 -9.0663329672e+02 +3.2605769065e+02 1.5783345497e+03 0.0000000000e+00 0.0000e+00 -1.0000e+00
<mgrwt>
<rscale>  0 0.30926155E+04</rscale>
<asrwt>0</asrwt>
<pdfrwt beam="1">  1        2 0.27874225E+00 0.30926155E+04</pdfrwt>
<pdfrwt beam="2">  1       -2 0.20303100E+00 0.30926155E+04</pdfrwt>
<totfact> 0.10240944E+00</totfact>
</mgrwt>
<rwgt>
<wgt id='morphing_basis_vector_1'> +9.4334448e-05 </wgt>
<wgt id='morphing_basis_vector_2'> +6.9985823e-05 </wgt>
<wgt id='morphing_basis_vector_3'> +1.0423178e-04 </wgt>
<wgt id='morphing_basis_vector_4'> +6.5591855e-05 </wgt>
<wgt id='morphing_basis_vector_5'> +1.1335495e-04 </wgt>
</rwgt>
</event>
<event>
 4      1 +7.3133000e-09 2.72000300e+03 7.81860800e-03 7.82706500e-02
        2 -1    0    0  501    0 +0.0000000000e+00 +0.0000000000e+00 +1.9949970624e+03 1.9949970624e+03 0.0000000000e+00 0.0000e+00 1.0000e+00
       -2 -1    0    0    0  501 -0.0000000000e+00 -0.0000000000e+00 -9.2712151465e+02 9.2712151465e+02 0.0000000000e+00 0.0000e+00 -1.0000e+00
      -13  1    1    2    0    0 +8.6024425435e+02 +1.5399973638e+02 +1.6534195226e+03 1.8701690334e+03 0.0000000000e+00 0.0000e+00 1.0000e+00
       13  1    1    2    0    0 -8.6024425435e+02 -1.5399973638e+02 -5.8554397481e+02 1.0519495436e+03 0.0000000000e+00 0.0000e+00 -1.0000e+00
<mgrwt>
<rscale>  0 0.27200035E+04</rscale>
<asrwt>0</asrwt>
<pdfrwt beam="1">  1        2 0.30692262E+00 0.27200035E+04</pdfrwt>
<pdfrwt beam="2">  1       -2 0.14263408E+00 0.27200035E+04</pdfrwt>
<totfact> 0.24622803E+00</totfact>
</mgrwt>
<rwgt>
<wgt id='morphing_basis_vector_1'> +7.2645291e-05 </wgt>
<wgt id='morphing_basis_vector_2'> +8.8899181e-05 </wgt>
<wgt id='morphing_basis_vector_3'> +8.6967880e-05 </wgt>
<wgt id='morphing_basis_vector_4'> +6.1853577e-06 </wgt>
<wgt id='morphing_basis_vector_5'> +6.4817246e-05 </wgt>
</rwgt>
</event>
<event>
 4      1 +7.3133000e-09 3.10707800e+03 7.81860800e-03 7.72575200e-02
        2 -1    0    0  501    0 +0.0000000000e+00 +0.0000000000e+00 +2.9852147049e+03 2.9852147049e+03 0.0000000000e+00 0.0000e+00 1.0000e+00
       -2 -1    0    0    0  501 -0.0000000000e+00 -0.0000000000e+00 -8.0847918709e+02 8.0847918709e+02 0.0000000000e+00 0.0000e+00 -1.0000e+00
      -13  1    1    2    0    0 +1.1064433191e+03 +1.0637885288e+03 +7.9527784391e+02 1.7286785998e+03 0.0000000000e+00 0.0000e+00 -1.0000e+00
       13  1    1    2    0    0 -1.1064433191e+03 -1.0637885288e+03 +1.3814576739e+03 2.0650152923e+03 0.0000000000e+00 0.0000e+00 1.0000e+00
<mgrwt>
<rscale>  0 0.31070783E+04</rscale>
<asrwt>0</asrwt>
<pdfrwt beam="1">  1        2 0.45926380E+00 0.31070783E+04</pdfrwt>
<pdfrwt beam="2">  1       -2 0.12438141E+00 0.31070783E+04</pdfrwt>
<totfact> 0.88037961E-01</totfact>
</mgrwt>
<rwgt>
<wgt id='morphing_basis_vector_1'> +9.5177942e-05 </wgt>
<wgt id='morphing_basis_vector_2'> +6.8594811e-05 </wgt>
<wgt id='morphing_basis_vector_3'> +1.0475273e-04 </wgt>
<wgt id='morphing_basis_vector_4'> +6.8754188e-05 </wgt>
<wgt id='morphing_basis_vector_5'> +1.1566592e-04 </wgt>
</rwgt>
</event>
<event>
 4      1 +7.3133000e-09 3.00064000e+03 7.81860800e-03 7.75203900e-02
        2 -1    0    0  501    0 +0.0000000000e+00 +0.0000000000e+00 +1.2847783914e+03 1.2847783914e+03 0.0000000000e+00 0.0000e+00 -1.0000e+00
       -2 -1    0    0    0  501 -0.0000000000e+00 -0.0000000000e+00 -1.7520219813e+03 1.7520219813e+03 0.0000000000e+00 0.0000e+00 1.0000e+00
      -13  1    1    2    0    0 -1.4422885807e+03 -3.3823368821e+02 -4.7388874629e+02 1.5553677770e+03 0.0000000000e+00 0.0000e+00 1.0000e+00
       13  1    1    2    0    0 +1.4422885807e+03 +3.3823368821e+02 +6.6451563854e+00 1.4814325958e+03 0.0000000000e+00 0.0000e+00 -1.0000e+00
<mgrwt>
<rscale>  0 0.30006399E+04</rscale>
<asrwt>0</asrwt>
<pdfrwt beam="1">  1        2 0.19765822E+00 0.30006399E+04</pdfrwt>
<pdfrwt beam="2">  1       -2 0.26954184E+00 0.30006399E+04</pdfrwt>
<totfact> 0.69665368E-01</totfact>
</mgrwt>
<rwgt>
<wgt id='morphing_basis_vector_1'> +8.2867840e-05 </wgt>
<wgt id='morphing_basis_vector_2'> +5.9630036e-05 </wgt>
<wgt id='morphing_basis_vector_3'> +9.1082487e-05 </wgt>
<wgt id='morphing_basis_vector_4'> +5.9787717e-05 </wgt>
<wgt id='morphing_basis_vector_5'> +1.0049743e-04 </wgt>
</rwgt>
</event>
<event>
 4      1 +7.3133000e-09 2.84835200e+03 7.81860800e-03 7.79166500e-02
        2 -1    0    0  501    0 +0.0000000000e+00 +0.0000000000e+00 +3.6773561218e+03 3.6773561218e+03 0.0000000000e+00 0.0000e+00 -1.0000e+00
       -2 -1    0    0    0  501 -0.0000000000e+00 -0.0000000000e+00 -5.5155859026e+02 5.5155859026e+02 0.0000000000e+00 0.0000e+00 1.0000e+00
      -13  1    1    2    0    0 +5.2133255782e+02 -1.0613646521e+03 +3.8446889864e+02 1.2434222512e+03 0.0000000000e+00 0.0000e+00 1.0000e+00
       13  1    1    2    0    0 -5.2133255782e+02 +1.0613646521e+03 +2.7413286329e+03 2.9854924609e+03 0.0000000000e+00 0.0000e+00 -1.0000e+00
<mgrwt>
<rscale>  0 0.28483521E+04</rscale>
<asrwt>0</asrwt>
<pdfrwt beam="1">  1        2 0.56574708E+00 0.28483521E+04</pdfrwt>
<pdfrwt beam="2">  1       -2 0.84855170E-01 0.28483521E+04</pdfrwt>
<totfact> 0.74889009E-01</totfact>
</mgrwt>
<rwgt>
<wgt id='morphing_basis_vector_1'> +6.6288193e-05 </wgt>
<wgt id='morphing_basis_vector_2'> +4.5134640e-05 </wgt>
<wgt id='morphing_basis_vector_3'> +7.2198339e-05 </wgt>
<wgt id='morphing_basis_vector_4'> +5.0793042e-05 </wgt>
<wgt id='morphing_basis_vector_5'> +8.1630934e-05 </wgt>
</rwgt>
</event>
<event>
 4      1 +7.3133000e-09 2.69721500e+03 7.81860800e-03 7.83355800e-02
        2 -1    0    0  501    0 +0.0000000000e+00 +0.0000000000e+00 +3.2072146240e+03 3.2072146240e+03 0.0000000000e+00 0.0000e+00 1.0000e+00
       -2 -1    0    0    0  501 -0.0000000000e+00 -0.0000000000e+00 -5.6707822726e+02 5.6707822726e+02 0.0000000000e+00 0.0000e+00 -1.0000e+00
      -13  1    1    2    0    0 -3.6229148372e+02 -1.0261294420e+03 +2.0538550978e+02 1.1074204073e+03 0.0000000000e+00 0.0000e+00 -1.0000e+00
       13  1    1    2    0    0 +3.6229148372e+02 +1.0261294420e+03 +2.4347508869e+03 2.6668724440e+03 0.0000000000e+00 0.0000e+00 1.0000e+00
<mgrwt>
<rscale>  0 0.26972146E+04</rscale>
<asrwt>0</asrwt>
<pdfrwt beam="1">  1        2 0.49341762E+00 0.26972146E+04</pdfrwt>
<pdfrwt beam="2">  1       -2 0.87242806E-01 0.26972146E+04</pdfrwt>
<totfact> 0.15541745E+00</totfact>
</mgrwt>
<rwgt>
<wgt id='morphing_basis_vector_1'> +5.3391960e-05 </wgt>
<wgt id='morphing_basis_vector_2'> +3.6233921e-05 </wgt>
<wgt id='morphing_basis_vector_3'> +5.8012148e-05 </wgt>
<wgt id='morphing_basis_vector_4'> +4.0814968e-05 </wgt>
<wgt id='morphing_basis_vector_5'> +6.5492666e-05 </wgt>
</rwgt>
</event>
<event>
 4      1 +7.3133000e-09 2.97737300e+03 7.81860800e-03 7.75793600e-02
        2 -1    0    0  501    0 +0.0000000000e+00 +0.0000000000e+00 +2.0432955468e+03 2.0432955468e+03 0.0000000000e+00 0.0000e+00 1.0000e+00
       -2 -1    0    0    0  501 -0.0000000000e+00 -0.0000000000e+00 -1.0846141504e+03 1.0846141504e+03 0.0000000000e+00 0.0000e+00 -1.0000e+00
      -13  1    1    2    0    0 -1.1093929314e+03 +1.4975320625e+02 +1.5102870312e+03 1.8799323434e+03 0.0000000000e+00 0.0000e+00 1.0000e+00
       13  1    1    2    0    0 +1.1093929314e+03 -1.4975320625e+02 -5.5160563484e+02 1.2479773538e+03 0.0000000000e+00 0.0000e+00 -1.0000e+00
<mgrwt>
<rscale>  0 0.29773728E+04</rscale>
<asrwt>0</asrwt>
<pdfrwt beam="1">  1        2 0.31435316E+00 0.29773728E+04</pdfrwt>
<pdfrwt beam="2">  1       -2 0.16686372E+00 0.29773728E+04</pdfrwt>
<totfact> 0.14360567E+00</totfact>
</mgrwt>
<rwgt>
<wgt id='morphing_basis_vector_1'> +9.9842153e-05 </wgt>
<wgt id='morphing_basis_vector_2'> +1.1521971e-04 </wgt>
<wgt id='morphing_basis_vector_3'> +1.1877274e-04 </wgt>
<wgt id='morphing_basis_vector_4'> +1.7377903e-05 </wgt>
<wgt id='morphing_basis_vector_5'> +9.4057594e-05 </wgt>
</rwgt>
</event>
<event>
 4      1 +7.3133000e-09 2.77656300e+03 7.81860800e-03 7.81122600e-02
        2 -1    0    0  501    0 +0.0000000000e+00 +0.0000000000e+00 +2.7072852034e+03 2.7072852034e+03 0.0000000000e+00 0.0000e+00 -1.0000e+00
       -2 -1    0    0    0  501 -0.0000000000e+00 -0.0000000000e+00 -7.1190355991e+02 7.1190355991e+02 0.0000000000e+00 0.0000e+00 1.0000e+00
      -13  1    1    2    0    0 +1.6370735788e+02 +6.9168616454e+02 -4.7082953539e+02 8.5259034749e+02 0.0000000000e+00 0.0000e+00 1.0000e+00
       13  1    1    2    0    0 -1.6370735788e+02 -6.9168616454e+02 +2.4662111789e+03 2.5665984158e+03 0.0000000000e+00 0.0000e+00 -1.0000e+00
<mgrwt>
<rscale>  0 0.27765633E+04</rscale>
<asrwt>0</asrwt>
<pdfrwt beam="1">  1        2 0.41650541E+00 0.27765633E+04</pdfrwt>
<pdfrwt beam="2">  1       -2 0.10952363E+00 0.27765633E+04</pdfrwt>
<totfact> 0.18824523E+00</totfact>
</mgrwt>
<rwgt>
<wgt id='morphing_basis_vector_1'> +5.9735994e-05 </wgt>
<wgt id='morphing_basis_vector_2'> +4.0238231e-05 </wgt>
<wgt id='morphing_basis_vector_3'> +6.4914221e-05 </wgt>
<wgt id='morphing_basis_vector_4'> +4.6191168e-05 </wgt>
<wgt id='morphing_basis_vector_5'> +7.3662013e-05 </wgt>
</rwgt>
</event>
<event>
 4      1 +7.3133000e-09 2.92957000e+03 7.81860800e-03 7.77022700e-02
        2 -1    0    0  501    0 +0.0000000000e+00 +0.0000000000e+00 +8.7002535280e+02 8.7002535280e+02 0.0000000000e+00 0.0000e+00 1.0000e+00
       -2 -1    0    0    0  501 -0.0000000000e+00 -0.0000000000e+00 -2.4661290340e+03 2.4661290340e+03 0.0000000000e+00 0.0000e+00 -1.0000e+00
      -13  1    1    2    0    0 +3.9178225804e+02 +3.2541534922e+02 -2.3620523398e+03 2.4163360162e+03 0.0000000000e+00 0.0000e+00 -1.0000e+00
       13  1    1    2    0    0 -3.9178225804e+02 -3.2541534922e+02 +7.6594865862e+02 9.1981837059e+02 0.0000000000e+00 0.0000e+00 1.0000e+00
<mgrwt>
<rscale>  0 0.29295698E+04</rscale>
<asrwt>0</asrwt>
<pdfrwt beam="1">  1        2 0.13385006E+00 0.29295698E+04</pdfrwt>
<pdfrwt beam="2">  1       -2 0.37940446E+00 0.29295698E+04</pdfrwt>
<totfact> 0.23461771E-01</totfact>
</mgrwt>
<rwgt>
<wgt id='morphing_basis_vector_1'> +7.3858810e-05 </wgt>
<wgt id='morphing_basis_vector_2'> +4.9782986e-05 </wgt>
<wgt id='morphing_basis_vector_3'> +8.0414907e-05 </wgt>
<wgt id='morphing_basis_vector_4'> +5.7392808e-05 </wgt>
<wgt id='morphing_basis_vector_5'> +9.1486053e-05 </wgt>
</rwgt>
</event>
<event>
 4      1 +7.3133000e-09 2.69951200e+03 7.81860800e-03 7.83290100e-02
        2 -1    0    0  501    0 +0.0000000000e+00 +0.0000000000e+00 +2.2317958252e+03 2.2317958252e+03 0.0000000000e+00 0.0000e+00 1.0000e+00
       -2 -1    0    0    0  501 -0.0000000000e+00 -0.0000000000e+00 -8.1631180212e+02 8.1631180212e+02 0.0000000000e+00 0.0000e+00 -1.0000e+00
      -13  1    1    2    0    0 -7.5867888548e+02 -4.6926458136e+02 -4.3599673924e+02 9.9292298554e+02 0.0000000000e+00 0.0000e+00 -1.0000e+00
       13  1    1    2    0    0 +7.5867888548e+02 +4.6926458136e+02 +1.8514807623e+03 2.0551846418e+03 0.0000000000e+00 0.0000e+00 1.0000e+00
<mgrwt>
<rscale>  0 0.26995120E+04</rscale>
<asrwt>0</asrwt>
<pdfrwt beam="1">  1        2 0.34335320E+00 0.26995120E+04</pdfrwt>
<pdfrwt beam="2">  1       -2 0.12558643E+00 0.26995120E+04</pdfrwt>
<totfact> 0.25556560E+00</totfact>
</mgrwt>
<rwgt>
<wgt id='morphing_basis_vector_1'> +5.3473131e-05 </wgt>
<wgt id='morphing_basis_vector_2'> +3.6065287e-05 </wgt>
<wgt id='morphing_basis_vector_3'> +5.8057124e-05 </wgt>
<wgt id='morphing_basis_vector_4'> +4.1159940e-05 </wgt>
<wgt id='morphing_basis_vector_5'> +6.5735211e-05 </wgt>
</rwgt>
</event>
<event>
 4      1 +7.3133000e-09 2.81876400e+03 7.81860800e-03 7.79965600e-02
        2 -1    0    0  501    0 +0.0000000000e+00 +0.0000000000e+00 +2.0164546054e+03 2.0164546054e+03 0.0000000000e+00 0.0000e+00 1.0000e+00
       -2 -1    0    0    0  501 -0.0000000000e+00 -0.0000000000e+00 -9.8507433483e+02 9.8507433483e+02 0.0000000000e+00 0.0000e+00 -1.0000e+00
      -13  1    1    2    0    0 -3.4221638047e+02 -1.3568568025e+03 +3.3692010061e+02 1.4393358148e+03 0.0000000000e+00 0.0000e+00 1.0000e+00
       13  1    1    2    0    0 +3.4221638047e+02 +1.3568568025e+03 +6.9446016994e+02 1.5621931254e+03 0.0000000000e+00 0.0000e+00 -1.0000e+00
<mgrwt>
<rscale>  0 0.28187640E+04</rscale>
<asrwt>0</asrwt>
<pdfrwt beam="1">  1        2 0.31022378E+00 0.28187640E+04</pdfrwt>
<pdfrwt beam="2">  1       -2 0.15154990E+00 0.28187640E+04</pdfrwt>
<totfact> 0.20006774E+00</totfact>
</mgrwt>
<rwgt>
<wgt id='morphing_basis_vector_1'> +6.4894876e-05 </wgt>
<wgt id='morphing_basis_vector_2'> +4.7101488e-05 </wgt>
<wgt id='morphing_basis_vector_3'> +7.1252789e-05 </wgt>
<wgt id='morphing_basis_vector_4'> +4.6019585e-05 </wgt>
<wgt id='morphing_basis_vector_5'> +7.8040086e-05 </wgt>
</rwgt>
</event>
<event>
 4      1 +7.3133000e-09 3.00134700e+03 7.81860800e-03 7.75186100e-02
        2 -1    0    0  501    0 +0.0000000000e+00 +0.0000000000e+00 +2.2467904986e+03 2.2467904986e+03 0.0000000000e+00 0.0000e+00 -1.0000e+00
       -2 -1    0    0    0  501 -0.0000000000e+00 -0.0000000000e+00 -1.0023282002e+03 1.0023282002e+03 0.0000000000e+00 0.0000e+00 1.0000e+00
      -13  1    1    2    0    0 -7.5378136292e+02 -1.0948960077e+03 +1.3761717652e+03 1.9133301696e+03 0.0000000000e+00 0.0000e+00 1.0000e+00
       13  1    1    2    0    0 +7.5378136292e+02 +1.0948960077e+03 -1.3170946674e+02 1.3357885291e+03 0.0000000000e+00 0.0000e+00 -1.0000e+00
<mgrwt>
<rscale>  0 0.30013473E+04</rscale>
<asrwt>0</asrwt>
<pdfrwt beam="1">  1        2 0.34566007E+00 0.30013473E+04</pdfrwt>
<pdfrwt beam="2">  1       -2 0.15420434E+00 0.30013473E+04</pdfrwt>
<totfact> 0.13852552E+00</totfact>
</mgrwt>
<rwgt>
<wgt id='morphing_basis_vector_1'> +9.4874244e-05 </wgt>
<wgt id='morphing_basis_vector_2'> +9.4818098e-05 </wgt>
<wgt id='morphing_basis_vector_3'> +1.0984057e-04 </wgt>
<wgt id='morphing_basis_vector_4'> +3.5006894e-05 </wgt>
<wgt id='morphing_basis_vector_5'> +9.8551728e-05 </wgt>
</rwgt>
</event>
<event>
 4      1 +7.3133000e-09 3.14479000e+03 7.81860800e-03 7.71669800e-02
        2 -1    0    0  501    0 +0.0000000000e+00 +0.0000000000e+00 +1.4018189737e+03 1.4018189737e+03 0.0000000000e+00 0.0000e+00 -1.0000e+00
       -2 -1    0    0    0  501 -0.0000000000e+00 -0.0000000000e+00 -1.7637274245e+03 1.7637274245e+03 0.0000000000e+00 0.0000e+00 1.0000e+00
      -13  1    1    2    0    0 -3.2988056888e+02 -8.4650049542e+01 -1.7261558523e+03 1.7594319671e+03 0.0000000000e+00 0.0000e+00 1.0000e+00
       13  1    1    2    0    0 +3.2988056888e+02 +8.4650049542e+01 +1.3642474015e+03 1.4061144310e+03 0.0000000000e+00 0.0000e+00 -1.0000e+00
<mgrwt>
<rscale>  0 0.31447903E+04</rscale>
<asrwt>0</asrwt>
<pdfrwt beam="1">  1        2 0.21566446E+00 0.31447903E+04</pdfrwt>
<pdfrwt beam="2">  1       -2 0.27134268E+00 0.31447903E+04</pdfrwt>
<totfact> 0.57394408E-01</totfact>
</mgrwt>
<rwgt>
<wgt id='morphing_basis_vector_1'> +9.7823840e-05 </wgt>
<wgt id='morphing_basis_vector_2'> +6.6027324e-05 </wgt>
<wgt id='morphing_basis_vector_3'> +1.0675432e-04 </wgt>
<wgt id='morphing_basis_vector_4'> +7.6399407e-05 </wgt>
<wgt id='morphing_basis_vector_5'> +1.2177974e-04 </wgt>
</rwgt>
</event>
<event>
 4      1 +7.3133000e-09 2.88838300e+03 7.81860800e-03 7.78101000e-02
        2 -1    0    0  501    0 +0.0000000000e+00 +0.0000000000e+00 +1.3367551885e+03 1.3367551885e+03 0.0000000000e+00 0.0000e+00 -1.0000e+00
       -2 -1    0    0    0  501 -0.0000000000e+00 -0.0000000000e+00 -1.5602626614e+03 1.5602626614e+03 0.0000000000e+00 0.0000e+00 1.0000e+00
      -13  1    1    2    0    0 -5.1518733486e+01 +1.3454175477e+03 +4.1219346342e+02 1.4080859381e+03 0.0000000000e+00 0.0000e+00 1.0000e+00
       13  1    1    2    0    0 +5.1518733486e+01 -1.3454175477e+03 -6.3570093636e+02 1.4889319119e+03 0.0000000000e+00 0.0000e+00 -1.0000e+00
<mgrwt>
<rscale>  0 0.28883831E+04</rscale>
<asrwt>0</asrwt>
<pdfrwt beam="1">  1        2 0.20565464E+00 0.28883831E+04</pdfrwt>
<pdfrwt beam="2">  1       -2 0.24004041E+00 0.28883831E+04</pdfrwt>
<totfact> 0.10494380E+00</totfact>
</mgrwt>
<rwgt>
<wgt id='morphing_basis_vector_1'> +7.8458967e-05 </wgt>
<wgt id='morphing_basis_vector_2'> +7.2473770e-05 </wgt>
<wgt id='morphing_basis_vector_3'> +8.9435431e-05 </wgt>
<wgt id='morphing_basis_vector_4'> +3.6289949e-05 </wgt>
<wgt id='morphing_basis_vector_5'> +8.4933932e-05 </wgt>
</rwgt>
</event>
<event>
 4      1 +7.3133000e-09 2.67777400e+03 7.81860800e-03 7.83914900e-02
        2 -1    0    0  501    0 +0.0000000000e+00 +0.0000000000e+00 +3.0083465506e+03 3.0083465506e+03 0.0000000000e+00 0.0000e+00 -1.0000e+00
       -2 -1    0    0    0  501 -0.0000000000e+00 -0.0000000000e+00 -5.9588149200e+02 5.9588149200e+02 0.0000000000e+00 0.0000e+00 1.0000e+00
      -13  1    1    2    0    0 +7.1472520107e+02 +8.9571104262e+01 -3.1285461758e+02 7.8532356867e+02 0.0000000000e+00 0.0000e+00 1.0000e+00
       13  1    1    2    0    0 -7.1472520107e+02 -8.9571104262e+01 +2.7253196762e+03 2.8189044739e+03 0.0000000000e+00 0.0000e+00 -1.0000e+00
<mgrwt>
<rscale>  0 0.26777737E+04</rscale>
<asrwt>0</asrwt>
<pdfrwt beam="1">  1        2 0.46282254E+00 0.26777737E+04</pdfrwt>
<pdfrwt beam="2">  1       -2 0.91674077E-01 0.26777737E+04</pdfrwt>
<totfact> 0.18809118E+00</totfact>
</mgrwt>
<rwgt>
<wgt id='morphing_basis_vector_1'> +5.1762858e-05 </wgt>
<wgt id='morphing_basis_vector_2'> +3.4841846e-05 </wgt>
<wgt id='morphing_basis_vector_3'> +5.6168693e-05 </wgt>
<wgt id='morphing_basis_vector_4'> +3.9892843e-05 </wgt>
<wgt id='morphing_basis_vector_5'> +6.3625143e-05 </wgt>
</rwgt>
</event>
<event>
 4      1 +7.3133000e-09 2.73250100e+03 7.81860800e-03 7.82353200e-02
        2 -1    0    0  501    0 +0.0000000000e+00 +0.0000000000e+00 +1.6648061146e+03 1.6648061146e+03 0.0000000000e+00 0.0000e+00 -1.0000e+00
       -2 -1    0    0    0  501 -0.0000000000e+00 -0.0000000000e+00 -1.1212361321e+03 1.1212361321e+03 0.0000000000e+00 0.0000e+00 1.0000e+00
      -13  1    1    2    0    0 -9.5790047547e+02 +2.4661247637e+02 -6.8915191102e+02 1.2055378015e+03 0.0000000000e+00 0.0000e+00 1.0000e+00
       13  1    1    2    0    0 +9.5790047547e+02 -2.4661247637e+02 +1.2327218935e+03 1.5805044452e+03 0.0000000000e+00 0.0000e+00 -1.0000e+00
<mgrwt>
<rscale>  0 0.27325012E+04</rscale>
<asrwt>0</asrwt>
<pdfrwt beam="1">  1        2 0.25612402E+00 0.27325012E+04</pdfrwt>
<pdfrwt beam="2">  1       -2 0.17249787E+00 0.27325012E+04</pdfrwt>
<totfact> 0.21571725E+00</totfact>
</mgrwt>
<rwgt>
<wgt id='morphing_basis_vector_1'> +5.6135514e-05 </wgt>
<wgt id='morphing_basis_vector_2'> +3.7941974e-05 </wgt>
<wgt id='morphing_basis_vector_3'> +6.0992082e-05 </wgt>
<wgt id='morphing_basis_vector_4'> +4.3168481e-05 </wgt>
<wgt id='morphing_basis_vector_5'> +6.9039043e-05 </wgt>
</rwgt>
</event>
<event>
 4      1 +7.3133000e-09 2.68610600e+03 7.81860800e-03 7.83674700e-02
        2 -1    0    0  501    0 +0.0000000000e+00 +0.0000000000e+00 +1.8758498839e+03 1.8758498839e+03 0.0000000000e+00 0.0000e+00 -1.0000e+00
       -2 -1    0    0    0  501 -0.0000000000e+00 -0.0000000000e+00 -9.6158639660e+02 9.6158639660e+02 0.0000000000e+00 0.0000e+00 1.0000e+00
      -13  1    1    2    0    0 +3.4051128453e+02 -1.2873416260e+03 +2.7236214268e+02 1.3591826712e+03 0.0000000000e+00 0.0000e+00 1.0000e+00
       13  1    1    2    0    0 -3.4051128453e+02 +1.2873416260e+03 +6.4190134462e+02 1.4782536093e+03 0.0000000000e+00 0.0000e+00 -1.0000e+00
<mgrwt>
<rscale>  0 0.26861063E+04</rscale>
<asrwt>0</asrwt>
<pdfrwt beam="1">  1        2 0.28859229E+00 0.26861063E+04</pdfrwt>
<pdfrwt beam="2">  1       -2 0.14793637E+00 0.26861063E+04</pdfrwt>
<totfact> 0.25994416E+00</totfact>
</mgrwt>
<rwgt>
<wgt id='morphing_basis_vector_1'> +5.3573592e-05 </wgt>
<wgt id='morphing_basis_vector_2'> +3.8727437e-05 </wgt>
<wgt id='morphing_basis_vector_3'> +5.8677317e-05 </wgt>
<wgt id='morphing_basis_vector_4'> +3.7981142e-05 </wgt>
<wgt id='morphing_basis_vector_5'> +6.4232676e-05 </wgt>
</rwgt>
</event>
<event>
 4      1 +7.3133000e-09 2.97385600e+03 7.81860800e-03 7.75883200e-02
        2 -1    0    0  501    0 +0.0000000000e+00 +0.0000000000e+00 +3.4359158611e+03 3.4359158611e+03 0.0000000000e+00 0.0000e+00 1.0000e+00
       -2 -1    0    0    0  501 -0.0000000000e+00 -0.0000000000e+00 -6.4348348390e+02 6.4348348390e+02 0.0000000000e+00 0.0000e+00 -1.0000e+00
      -13  1    1    2    0    0 +7.3657112710e+02 +2.7926105914e+01 -3.7522681444e+02 8.2711066668e+02 0.0000000000e+00 0.0000e+00 -1.0000e+00
       13  1    1    2    0    0 -7.3657112710e+02 -2.7926105914e+01 +3.1676591917e+03 3.2522886783e+03 0.0000000000e+00 0.0000e+00 1.0000e+00
<mgrwt>
<rscale>  0 0.29738562E+04</rscale>
<asrwt>0</asrwt>
<pdfrwt beam="1">  1        2 0.52860243E+00 0.29738562E+04</pdfrwt>
<pdfrwt beam="2">  1       -2 0.98997461E-01 0.29738562E+04</pdfrwt>
<totfact> 0.77949894E-01</totfact>
</mgrwt>
<rwgt>
<wgt id='morphing_basis_vector_1'> +7.8395600e-05 </wgt>
<wgt id='morphing_basis_vector_2'> +5.2887072e-05 </wgt>
<wgt id='morphing_basis_vector_3'> +8.5404847e-05 </wgt>
<wgt id='morphing_basis_vector_4'> +6.0949320e-05 </wgt>
<wgt id='morphing_basis_vector_5'> +9.7196005e-05 </wgt>
</rwgt>
</event>
<event>
 4      1 +7.3133000e-09 2.90441600e+03 7.81860800e-03 7.77679100e-02
        2 -1    0    0  501    0 +0.0000000000e+00 +0.0000000000e+00 +1.8795195391e+03 1.8795195391e+03 0.0000000000e+00 0.0000e+00 -1.0000e+00
       -2 -1    0    0    0  501 -0.0000000000e+00 -0.0000000000e+00 -1.1220465254e+03 1.1220465254e+03 0.0000000000e+00 0.0000e+00 1.0000e+00
      -13  1    1    2    0    0 +8.0889337098e+02 +4.9041237160e+01 -8.6664238488e+02 1.1865001272e+03 0.0000000000e+00 0.0000e+00 1.0000e+00
       13  1    1    2    0    0 -8.0889337098e+02 -4.9041237160e+01 +1.6241153987e+03 1.8150659373e+03 0.0000000000e+00 0.0000e+00 -1.0000e+00
<mgrwt>
<rscale>  0 0.29044162E+04</rscale>
<asrwt>0</asrwt>
<pdfrwt beam="1">  1        2 0.28915685E+00 0.29044162E+04</pdfrwt>
<pdfrwt beam="2">  1       -2 0.17262254E+00 0.29044162E+04</pdfrwt>
<totfact> 0.16104765E+00</totfact>
</mgrwt>
<rwgt>
<wgt id='morphing_basis_vector_1'> +7.1400400e-05 </wgt>
<wgt id='morphing_basis_vector_2'> +4.8166705e-05 </wgt>
<wgt id='morphing_basis_vector_3'> +7.7724858e-05 </wgt>
<wgt id='morphing_basis_vector_4'> +5.5383524e-05 </wgt>
<wgt id='morphing_basis_vector_5'> +8.8351906e-05 </wgt>
</rwgt>
</event>
<event>
 4      1 +7.3133000e-09 3.09172800e+03 7.81860800e-03 7.72947500e-02
        2 -1    0    0  501    0 +0.0000000000e+00 +0.0000000000e+00 +2.1706184603e+03 2.1706184603e+03 0.0000000000e+00 0.0000e+00 1.0000e+00
       -2 -1    0    0    0  501 -0.0000000000e+00 -0.0000000000e+00 -1.1009282520e+03 1.1009282520e+03 0.0000000000e+00 0.0000e+00 -1.0000e+00
      -13  1    1    2    0    0 +1.3780947526e+03 +6.0841379182e+02 +9.0198697117e+02 1.7558168997e+03 0.0000000000e+00 0.0000e+00 1.0000e+00
       13  1    1    2    0    0 -1.3780947526e+03 -6.0841379182e+02 +1.6770323713e+02 1.5157298126e+03 0.0000000000e+00 0.0000e+00 -1.0000e+00
<mgrwt>
<rscale>  0 0.30917278E+04</rscale>
<asrwt>0</asrwt>
<pdfrwt beam="1">  1        2 0.33394130E+00 0.30917278E+04</pdfrwt>
<pdfrwt beam="2">  1       -2 0.16937358E+00 0.30917278E+04</pdfrwt>
<totfact> 0.11509301E+00</totfact>
</mgrwt>
<rwgt>
<wgt id='morphing_basis_vector_1'> +9.8731913e-05 </wgt>
<wgt id='morphing_basis_vector_2'> +8.3169626e-05 </wgt>
<wgt id='morphing_basis_vector_3'> +1.1118658e-04 </wgt>
<wgt id='morphing_basis_vector_4'> +5.6116808e-05 </wgt>
<wgt id='morphing_basis_vector_5'> +1.1244988e-04 </wgt>
</rwgt>
</event>
<event>
 4      1 +7.3133000e-09 2.73390100e+03 7.81860800e-03 7.82313700e-02
        2 -1    0    0  501    0 +0.0000000000e+00 +0.0000000000e+00 +1.7599376530e+03 1.7599376530e+03 0.0000000000e+00 0.0000e+00 1.0000e+00
       -2 -1    0    0    0  501 -0.0000000000e+00 -0.0000000000e+00 -1.0617159247e+03 1.0617159247e+03 0.0000000000e+00 0.0000e+00 -1.0000e+00
      -13  1    1    2    0    0 +5.4774964348e+02 +1.2460012073e+03 +2.1853864240e+02 1.3785165283e+03 0.0000000000e+00 0.0000e+00 -1.0000e+00
       13  1    1    2    0    0 -5.4774964348e+02 -1.2460012073e+03 +4.7968308596e+02 1.4431370494e+03 0.0000000000e+00 0.0000e+00 1.0000e+00
<mgrwt>
<rscale>  0 0.27339011E+04</rscale>
<asrwt>0</asrwt>
<pdfrwt beam="1">  1        2 0.27075964E+00 0.27339011E+04</pdfrwt>
<pdfrwt beam="2">  1       -2 0.16334091E+00 0.27339011E+04</pdfrwt>
<totfact> 0.22519818E+00</totfact>
</mgrwt>
<rwgt>
<wgt id='morphing_basis_vector_1'> +5.7639804e-05 </wgt>
<wgt id='morphing_basis_vector_2'> +4.2118073e-05 </wgt>
<wgt id='morphing_basis_vector_3'> +6.3268130e-05 </wgt>
<wgt id='morphing_basis_vector_4'> +4.0384262e-05 </wgt>
<wgt id='morphing_basis_vector_5'> +6.8947491e-05 </wgt>
</rwgt>
</event>
<event>
 4      1 +7.3133000e-09 2.72100000e+03 7.81860800e-03 7.82678300e-02
        2 -1    0    0  501    0 +0.0000000000e+00 +0.0000000000e+00 +2.5189847002e+03 2.5189847002e+03 0.0000000000e+00 0.0000e+00 -1.0000e+00
       -2 -1    0    0    0  501 -0.0000000000e+00 -0.0000000000e+00 -7.3480395553e+02 7.3480395553e+02 0.0000000000e+00 0.0000e+00 1.0000e+00
      -13  1    1    2    0    0 -9.8826288179e+02 -6.0464378499e+02 +3.9201036262e+01 1.1592214420e+03 0.0000000000e+00 0.0000e+00 1.0000e+00
       13  1    1    2    0    0 +9.8826288179e+02 +6.0464378499e+02 +1.7449797085e+03 2.0945672138e+03 0.0000000000e+00 0.0000e+00 -1.0000e+00
<mgrwt>
<rscale>  0 0.27209998E+04</rscale>
<asrwt>0</asrwt>
<pdfrwt beam="1">  1        2 0.38753610E+00 0.27209998E+04</pdfrwt>
<pdfrwt beam="2">  1       -2 0.11304676E+00 0.27209998E+04</pdfrwt>
<totfact> 0.22730379E+00</totfact>
</mgrwt>
<rwgt>
<wgt id='morphing_basis_vector_1'> +5.5347621e-05 </wgt>
<wgt id='morphing_basis_vector_2'> +3.7725883e-05 </wgt>
<wgt id='morphing_basis_vector_3'> +6.0190540e-05 </wgt>
<wgt id='morphing_basis_vector_4'> +4.2147324e-05 </wgt>
<wgt id='morphing_basis_vector_5'> +6.7847890e-05 </wgt>
</rwgt>
</event>
<event>
 4      1 +7.3133000e-09 3.13801800e+03 7.81860800e-03 7.71831400e-02
        2 -1    0    0  501    0 +0.0000000000e+00 +0.0000000000e+00 +2.6631252239e+03 2.6631252239e+03 0.0000000000e+00 0.0000e+00 -1.0000e+00
       -2 -1    0    0    0  501 -0.0000000000e+00 -0.0000000000e+00 -9.2439842890e+02 9.2439842890e+02 0.0000000000e+00 0.0000e+00 1.0000e+00
      -13  1    1    2    0    0 -1.5002025183e+03 +4.4877286065e+02 +9.8244702880e+02 1.8485688629e+03 0.0000000000e+00 0.0000e+00 1.0000e+00
       13  1    1    2    0    0 +1.5002025183e+03 -4.4877286065e+02 +7.5627976617e+02 1.7389547899e+03 0.0000000000e+00 0.0000e+00 -1.0000e+00
<mgrwt>
<rscale>  0 0.31380177E+04</rscale>
<asrwt>0</asrwt>
<pdfrwt beam="1">  1        2 0.40971157E+00 0.31380177E+04</pdfrwt>
<pdfrwt beam="2">  1       -2 0.14221514E+00 0.31380177E+04</pdfrwt>
<totfact> 0.97530502E-01</totfact>
</mgrwt>
<rwgt>
<wgt id='morphing_basis_vector_1'> +1.0144986e-04 </wgt>
<wgt id='morphing_basis_vector_2'> +7.8589768e-05 </wgt>
<wgt id='morphing_basis_vector_3'> +1.1285181e-04 </wgt>
<wgt id='morphing_basis_vector_4'> +6.6425246e-05 </wgt>
<wgt id='morphing_basis_vector_5'> +1.1995820e-04 </wgt>
</rwgt>
</event>
<event>
 4      1 +7.3133000e-09 2.72766900e+03 7.81860800e-03 7.82489600e-02
        2 -1    0    0  501    0 +0.0000000000e+00 +0.0000000000e+00 +1.5196557259e+03 1.5196557259e+03 0.0000000000e+00 0.0000e+00 1.0000e+00
       -2 -1    0    0    0  501 -0.0000000000e+00 -0.0000000000e+00 -1.2239905209e+03 1.2239905209e+03 0.0000000000e+00 0.0000e+00 -1.0000e+00
      -13  1    1    2    0    0 +3.1070579788e+01 +6.1428608640e+02 -1.0765615096e+03 1.2398780024e+03 0.0000000000e+00 0.0000e+00 -1.0000e+00
       13  1    1    2    0    0 -3.1070579788e+01 -6.1428608640e+02 +1.3722267146e+03 1.5037682445e+03 0.0000000000e+00 0.0000e+00 1.0000e+00
<mgrwt>
<rscale>  0 0.27276688E+04</rscale>
<asrwt>0</asrwt>
<pdfrwt beam="1">  1        2 0.23379319E+00 0.27276688E+04</pdfrwt>
<pdfrwt beam="2">  1       -2 0.18830623E+00 0.27276688E+04</pdfrwt>
<totfact> 0.19721997E+00</totfact>
</mgrwt>
<rwgt>
<wgt id='morphing_basis_vector_1'> +5.5674966e-05 </wgt>
<wgt id='morphing_basis_vector_2'> +3.7472638e-05 </wgt>
<wgt id='morphing_basis_vector_3'> +6.0455675e-05 </wgt>
<wgt id='morphing_basis_vector_4'> +4.3002933e-05 </wgt>
<wgt id='morphing_basis_vector_5'> +6.8558356e-05 </wgt>
</rwgt>
</event>
<event>
 4      1 +7.3133000e-09 2.83882700e+03 7.81860800e-03 7.79422700e-02
        2 -1    0    0  501    0 +0.0000000000e+00 +0.0000000000e+00 +1.7050379858e+03 1.7050379858e+03 0.0000000000e+00 0.0000e+00 -1.0000e+00
       -2 -1    0    0    0  501 -0.0000000000e+00 -0.0000000000e+00 -1.1816366429e+03 1.1816366429e+03 0.0000000000e+00 0.0000e+00 1.0000e+00
      -13  1    1    2    0    0 +1.3763779408e+03 -2.6051651437e+02 +4.9458094629e+02 1.4855623186e+03 0.0000000000e+00 0.0000e+00 1.0000e+00
       13  1    1    2    0    0 -1.3763779408e+03 +2.6051651437e+02 +2.8820396597e+01 1.4011123100e+03 0.0000000000e+00 0.0000e+00 -1.0000e+00
<mgrwt>
<rscale>  0 0.28388275E+04</rscale>
<asrwt>0</asrwt>
<pdfrwt beam="1">  1        2 0.26231354E+00 0.28388275E+04</pdfrwt>
<pdfrwt beam="2">  1       -2 0.18179025E+00 0.28388275E+04</pdfrwt>
<totfact> 0.17236243E+00</totfact>
</mgrwt>
<rwgt>
<wgt id='morphing_basis_vector_1'> +6.9409623e-05 </wgt>
<wgt id='morphing_basis_vector_2'> +5.6307641e-05 </wgt>
<wgt id='morphing_basis_vector_3'> +7.7449223e-05 </wgt>
<wgt id='morphing_basis_vector_4'> +4.1828216e-05 </wgt>
<wgt id='morphing_basis_vector_5'> +7.9855712e-05 </wgt>
</rwgt>
</event>
<event>
 4      1 +7.3133000e-09 2.78404500e+03 7.81860800e-03 7.80916000e-02
        2 -1    0    0  501    0 +0.0000000000e+00 +0.0000000000e+00 +2.9657342421e+03 2.9657342421e+03 0.0000000000e+00 0.0000e+00 -1.0000e+00
       -2 -1    0    0    0  501 -0.0000000000e+00 -0.0000000000e+00 -6.5337140477e+02 6.5337140477e+02 0.0000000000e+00 0.0000e+00 1.0000e+00
      -13  1    1    2    0    0 +3.2837078363e+02 -9.5026908879e+02 -9.5340725969e+01 1.0099151285e+03 0.0000000000e+00 0.0000e+00 1.0000e+00
       13  1    1    2    0    0 -3.2837078363e+02 +9.5026908879e+02 +2.4077035633e+03 2.6091905184e+03 0.0000000000e+00 0.0000e+00 -1.0000e+00
<mgrwt>
<rscale>  0 0.27840445E+04</rscale>
<asrwt>0</asrwt>
<pdfrwt beam="1">  1        2 0.45626680E+00 0.27840445E+04</pdfrwt>
<pdfrwt beam="2">  1       -2 0.10051868E+00 0.27840445E+04</pdfrwt>
<totfact> 0.15959957E+00</totfact>
</mgrwt>
<rwgt>
<wgt id='morphing_basis_vector_1'> +6.0442841e-05 </wgt>
<wgt id='morphing_basis_vector_2'> +4.0870094e-05 </wgt>
<wgt id='morphing_basis_vector_3'> +6.5720475e-05 </wgt>
<wgt id='morphing_basis_vector_4'> +4.6556783e-05 </wgt>
<wgt id='morphing_basis_vector_5'> +7.4456018e-05 </wgt>
</rwgt>
</event>
<event>
 4      1 +7.3133000e-09 2.78343300e+03 7.81860800e-03 7.80932900e-02
        2 -1    0    0  501    0 +0.0000000000e+00 +0.0000000000e+00 +1.9770541202e+03 1.9770541202e+03 0.0000000000e+00 0.0000e+00 1.0000e+00
       -2 -1    0    0    0  501 -0.0000000000e+00 -0.0000000000e+00 -9.7967692415e+02 9.7967692415e+02 0.0000000000e+00 0.0000e+00 -1.0000e+00
      -13  1    1    2    0    0 -1.0517619896e+03 -5.7555496855e+01 -4.6753567344e+02 1.1524346072e+03 0.0000000000e+00 0.0000e+00 -1.0000e+00
       13  1    1    2    0    0 +1.0517619896e+03 +5.7555496855e+01 +1.4649128694e+03 1.8042964371e+03 0.0000000000e+00 0.0000e+00 1.0000e+00
<mgrwt>
<rscale>  0 0.27834326E+04</rscale>
<asrwt>0</asrwt>
<pdfrwt beam="1">  1        2 0.30416217E+00 0.27834326E+04</pdfrwt>
<pdfrwt beam="2">  1       -2 0.15071953E+00 0.27834326E+04</pdfrwt>
<totfact> 0.21453709E+00</totfact>
</mgrwt>
<rwgt>
<wgt id='morphing_basis_vector_1'> +6.0416245e-05 </wgt>
<wgt id='morphing_basis_vector_2'> +4.0910854e-05 </wgt>
<wgt id='morphing_basis_vector_3'> +6.5703027e-05 </wgt>
<wgt id='morphing_basis_vector_4'> +4.6461713e-05 </wgt>
<wgt id='morphing_basis_vector_5'> +7.4385516e-05 </wgt>
</rwgt>
</event>
<event>
 4      1 +7.3133000e-09 2.99153800e+03 7.81860800e-03 7.75433900e-02
        2 -1    0    0  501    0 +0.0000000000e+00 +0.0000000000e+00 +1.0342264518e+03 1.0342264518e+03 0.0000000000e+00 0.0000e+00 -1.0000e+00
       -2 -1    0    0    0  501 -0.0000000000e+00 -0.0000000000e+00 -2.1632840399e+03 2.1632840399e+03 0.0000000000e+00 0.0000e+00 1.0000e+00
      -13  1    1    2    0    0 -1.3881290647e+03 +2.9278306648e+02 -1.0711930094e+03 1.7776610160e+03 0.0000000000e+00 0.0000e+00 1.0000e+00
       13  1    1    2    0    0 +1.3881290647e+03 -2.9278306648e+02 -5.7864578657e+01 1.4198494757e+03 0.0000000000e+00 0.0000e+00 -1.0000e+00
<mgrwt>
<rscale>  0 0.29915385E+04</rscale>
<asrwt>0</asrwt>
<pdfrwt beam="1">  1        2 0.15911176E+00 0.29915385E+04</pdfrwt>
<pdfrwt beam="2">  1       -2 0.33281292E+00 0.29915385E+04</pdfrwt>
<totfact> 0.36770648E-01</totfact>
</mgrwt>
<rwgt>
<wgt id='morphing_basis_vector_1'> +8.1097950e-05 </wgt>
<wgt id='morphing_basis_vector_2'> +5.6621264e-05 </wgt>
<wgt id='morphing_basis_vector_3'> +8.8765044e-05 </wgt>
<wgt id='morphing_basis_vector_4'> +6.0679155e-05 </wgt>
<wgt id='morphing_basis_vector_5'> +9.9406097e-05 </wgt>
</rwgt>
</event>
<event>
 4      1 +7.3133000e-09 3.09107200e+03 7.81860800e-03 7.72963500e-02
        2 -1    0    0  501    0 +0.0000000000e+00 +0.0000000000e+00 +5.0026565644e+03 5.0026565644e+03 0.0000000000e+00 0.0000e+00 1.0000e+00
       -2 -1    0    0    0  501 -0.0000000000e+00 -0.0000000000e+00 -4.7748273022e+02 4.7748273022e+02 0.0000000000e+00 0.0000e+00 -1.0000e+00
      -13  1    1    2    0    0 -1.4501020453e+03 -8.2755221850e+01 +1.3260737224e+03 1.9667526244e+03 0.0000000000e+00 0.0000e+00 -1.0000e+00
       13  1    1    2    0    0 +1.4501020453e+03 +8.2755221850e+01 +3.1991001118e+03 3.5133866702e+03 0.0000000000e+00 0.0000e+00 1.0000e+00
<mgrwt>
<rscale>  0 0.30910724E+04</rscale>
<asrwt>0</asrwt>
<pdfrwt beam="1">  1        2 0.76963943E+00 0.30910724E+04</pdfrwt>
<pdfrwt beam="2">  1       -2 0.73458885E-01 0.30910724E+04</pdfrwt>
<totfact> 0.49339621E-02</totfact>
</mgrwt>
<rwgt>
<wgt id='morphing_basis_vector_1'> +9.2234930e-05 </wgt>
<wgt id='morphing_basis_vector_2'> +6.4214308e-05 </wgt>
<wgt id='morphing_basis_vector_3'> +1.0101975e-04 </wgt>
<wgt id='morphing_basis_vector_4'> +6.9451318e-05 </wgt>
<wgt id='morphing_basis_vector_5'> +1.1345563e-04 </wgt>
</rwgt>
</event>
<event>
 4      1 +7.3133000e-09 2.94570300e+03 7.81860800e-03 7.76605300e-02
        2 -1    0    0  501    0 +0.0000000000e+00 +0.0000000000e+00 +2.2978666590e+03 2.2978666590e+03 0.0000000000e+00 0.0000e+00 -1.0000e+00
       -2 -1    0    0    0  501 -0.0000000000e+00 -0.0000000000e+00 -9.4404563339e+02 9.4404563339e+02 0.0000000000e+00 0.0000e+00 1.0000e+00
      -13  1    1    2    0    0 +5.0469124007e+02 +9.7046425275e+02 -4.0856236888e+02 1.1676631890e+03 0.0000000000e+00 0.0000e+00 1.0000e+00
       13  1    1    2    0    0 -5.0469124007e+02 -9.7046425275e+02 +1.7623833945e+03 2.0742491033e+03 0.0000000000e+00 0.0000e+00 -1.0000e+00
<mgrwt>
<rscale>  0 0.29457026E+04</rscale>
<asrwt>0</asrwt>
<pdfrwt beam="1">  1        2 0.35351795E+00 0.29457026E+04</pdfrwt>
<pdfrwt beam="2">  1       -2 0.14523779E+00 0.29457026E+04</pdfrwt>
<totfact> 0.15425456E+00</totfact>
</mgrwt>
<rwgt>
<wgt id='morphing_basis_vector_1'> +7.5600267e-05 </wgt>
<wgt id='morphing_basis_vector_2'> +5.1228255e-05 </wgt>
<wgt id='morphing_basis_vector_3'> +8.2382003e-05 </wgt>
<wgt id='morphing_basis_vector_4'> +5.8436398e-05 </wgt>
<wgt id='morphing_basis_vector_5'> +9.3517044e-05 </wgt>
</rwgt>
</event>
<event>
 4      1 +7.3133000e-09 2.94827500e+03 7.81860800e-03 7.76539000e-02
        2 -1    0    0  501    0 +0.0000000000e+00 +0.0000000000e+00 +1.5755560373e+03 1.5755560373e+03 0.0000000000e+00 0.0000e+00 -1.0000e+00
       -2 -1    0    0    0  501 -0.0000000000e+00 -0.0000000000e+00 -1.3792469145e+03 1.3792469145e+03 0.0000000000e+00 0.0000e+00 1.0000e+00
      -13  1    1    2    0    0 -1.3391898248e+03 +4.7429316226e+02 -2.9603227354e+02 1.4512127679e+03 0.0000000000e+00 0.0000e+00 1.0000e+00
       13  1    1    2    0    0 +1.3391898248e+03 -4.7429316226e+02 +4.9234139632e+02 1.5035901839e+03 0.0000000000e+00 0.0000e+00 -1.0000e+00
<mgrwt>
<rscale>  0 0.29482746E+04</rscale>
<asrwt>0</asrwt>
<pdfrwt beam="1">  1        2 0.24239324E+00 0.29482746E+04</pdfrwt>
<pdfrwt beam="2">  1       -2 0.21219183E+00 0.29482746E+04</pdfrwt>
<totfact> 0.12050767E+00</totfact>
</mgrwt>
<rwgt>
<wgt id='morphing_basis_vector_1'> +7.6739210e-05 </wgt>
<wgt id='morphing_basis_vector_2'> +5.3990140e-05 </wgt>
<wgt id='morphing_basis_vector_3'> +8.4039911e-05 </wgt>
<wgt id='morphing_basis_vector_4'> +5.6818840e-05 </wgt>
<wgt id='morphing_basis_vector_5'> +9.3697374e-05 </wgt>
</rwgt>
</event>
<event>
 4      1 +7.3133000e-09 2.87638200e+03 7.81860800e-03 7.78418600e-02
        2 -1    0    0  501    0 +0.0000000000e+00 +0.0000000000e+00 +1.1764690152e+03 1.1764690152e+03 0.0000000000e+00 0.0000e+00 1.0000e+00
       -2 -1    0    0    0  501 -0.0000000000e+00 -0.0000000000e+00 -1.7581364749e+03 1.7581364749e+03 0.0000000000e+00 0.0000e+00 -1.0000e+00
      -13  1    1    2    0    0 -9.9064259365e+02 -1.0001889894e+02 -1.3496348240e+03 1.6771674593e+03 0.0000000000e+00 0.0000e+00 -1.0000e+00
       13  1    1    2    0    0 +9.9064259365e+02 +1.0001889894e+02 +7.6796736435e+02 1.2574380308e+03 0.0000000000e+00 0.0000e+00 1.0000e+00
<mgrwt>
<rscale>  0 0.28763818E+04</rscale>
<asrwt>0</asrwt>
<pdfrwt beam="1">  1        2 0.18099523E+00 0.28763818E+04</pdfrwt>
<pdfrwt beam="2">  1       -2 0.27048254E+00 0.28763818E+04</pdfrwt>
<totfact> 0.80159455E-01</totfact>
</mgrwt>
<rwgt>
<wgt id='morphing_basis_vector_1'> +6.8758180e-05 </wgt>
<wgt id='morphing_basis_vector_2'> +4.6484656e-05 </wgt>
<wgt id='morphing_basis_vector_3'> +7.4845186e-05 </wgt>
<wgt id='morphing_basis_vector_4'> +5.3155472e-05 </wgt>
<wgt id='morphing_basis_vector_5'> +8.4949984e-05 </wgt>
</rwgt>
</event>
<event>
 4      1 +7.3133000e-09 2.71321400e+03 7.81860800e-03 7.82899300e-02
        2 -1    0    0  501    0 +0.0000000000e+00 +0.0000000000e+00 +1.8684881008e+03 1.8684881008e+03 0.0000000000e+00 0.0000e+00 1.0000e+00
       -2 -1    0    0    0  501 -0.0000000000e+00 -0.0000000000e+00 -9.8495843066e+02 9.8495843066e+02 0.0000000000e+00 0.0000e+00 -1.0000e+00
      -13  1    1    2    0    0 +4.0798395679e+02 -1.2459182642e+03 +7.4999818087e+01 1.3131596258e+03 0.0000000000e+00 0.0000e+00 -1.0000e+00
       13  1    1    2    0    0 -4.0798395679e+02 +1.2459182642e+03 +8.0852985208e+02 1.5402869057e+03 0.0000000000e+00 0.0000e+00 1.0000e+00
<mgrwt>
<rscale>  0 0.27132144E+04</rscale>
<asrwt>0</asrwt>
<pdfrwt beam="1">  1        2 0.28745971E+00 0.27132144E+04</pdfrwt>
<pdfrwt beam="2">  1       -2 0.15153207E+00 0.27132144E+04</pdfrwt>
<totfact> 0.24447345E+00</totfact>
</mgrwt>
<rwgt>
<wgt id='morphing_basis_vector_1'> +5.5256630e-05 </wgt>
<wgt id='morphing_basis_vector_2'> +3.8868679e-05 </wgt>
<wgt id='morphing_basis_vector_3'> +6.0328515e-05 </wgt>
<wgt id='morphing_basis_vector_4'> +4.0561535e-05 </wgt>
<wgt id='morphing_basis_vector_5'> +6.6976591e-05 </wgt>
</rwgt>
</event>
<event>
 4      1 +7.3133000e-09 2.70439600e+03 7.81860800e-03 7.83150500e-02
        2 -1    0    0  501    0 +0.0000000000e+00 +0.0000000000e+00 +1.5035743699e+03 1.5035743699e+03 0.0000000000e+00 0.0000e+00 1.0000e+00
       -2 -1    0    0    0  501 -0.0000000000e+00 -0.0000000000e+00 -1.2160617816e+03 1.2160617816e+03 0.0000000000e+00 0.0000e+00 -1.0000e+00
      -13  1    1    2    0    0 -9.3735415117e+02 +7.7948687159e+02 -4.4452469231e+02 1.2976265988e+03 0.0000000000e+00 0.0000e+00 -1.0000e+00
       13  1    1    2    0    0 +9.3735415117e+02 -7.7948687159e+02 +7.3203728063e+02 1.4220095527e+03 0.0000000000e+00 0.0000e+00 1.0000e+00
<mgrwt>
<rscale>  0 0.27043959E+04</rscale>
<asrwt>0</asrwt>
<pdfrwt beam="1">  1        2 0.23131913E+00 0.27043959E+04</pdfrwt>
<pdfrwt beam="2">  1       -2 0.18708643E+00 0.27043959E+04</pdfrwt>
<totfact> 0.20602600E+00</totfact>
</mgrwt>
<rwgt>
<wgt id='morphing_basis_vector_1'> +5.4150323e-05 </wgt>
<wgt id='morphing_basis_vector_2'> +3.7191111e-05 </wgt>
<wgt id='morphing_basis_vector_3'> +5.8931467e-05 </wgt>
<wgt id='morphing_basis_vector_4'> +4.0855753e-05 </wgt>
<wgt id='morphing_basis_vector_5'> +6.6168005e-05 </wgt>
</rwgt>
</event>
<event>
 4      1 +7.3133000e-09 2.87308500e+03 7.81860800e-03 7.78506100e-02
        2 -1    0    0  501    0 +0.0000000000e+00 +0.0000000000e+00 +2.1163091524e+03 2.1163091524e+03 0.0000000000e+00 0.0000e+00 -1.0000e+00
       -2 -1    0    0    0  501 -0.0000000000e+00 -0.0000000000e+00 -9.7511936129e+02 9.7511936129e+02 0.0000000000e+00 0.0000e+00 1.0000e+00
      -13  1    1    2    0    0 +2.6609175730e+02 +1.3798528028e+03 +2.4985513616e+02 1.4273143206e+03 0.0000000000e+00 0.0000e+00 1.0000e+00
       13  1    1    2    0    0 -2.6609175730e+02 -1.3798528028e+03 +8.9133465496e+02 1.6641141931e+03 0.0000000000e+00 0.0000e+00 -1.0000e+00
<mgrwt>
<rscale>  0 0.28730848E+04</rscale>
<asrwt>0</asrwt>
<pdfrwt beam="1">  1        2 0.32558602E+00 0.28730848E+04</pdfrwt>
<pdfrwt beam="2">  1       -2 0.15001836E+00 0.28730848E+04</pdfrwt>
<totfact> 0.18001541E+00</totfact>
</mgrwt>
<rwgt>
<wgt id='morphing_basis_vector_1'> +6.9519831e-05 </wgt>
<wgt id='morphing_basis_vector_2'> +4.9434893e-05 </wgt>
<wgt id='morphing_basis_vector_3'> +7.6174095e-05 </wgt>
<wgt id='morphing_basis_vector_4'> +5.0682564e-05 </wgt>
<wgt id='morphing_basis_vector_5'> +8.4374881e-05 </wgt>
</rwgt>
</event>
<event>
 4      1 +7.3133000e-09 3.08700400e+03 7.81860800e-03 7.73062600e-02
        2 -1    0    0  501    0 +0.0000000000e+00 +0.0000000000e+00 +1.3233276992e+03 1.3233276992e+03 0.0000000000e+00 0.0000e+00 -1.0000e+00
       -2 -1    0    0    0  501 -0.0000000000e+00 -0.0000000000e+00 -1.8003083990e+03 1.8003083990e+03 0.0000000000e+00 0.0000e+00 1.0000e+00
      -13  1    1    2    0    0 -2.8827160066e+02 -1.2341271626e+03 -1.1299831151e+03 1.6979494132e+03 0.0000000000e+00 0.0000e+00 1.0000e+00
       13  1    1    2    0    0 +2.8827160066e+02 +1.2341271626e+03 +6.5300241530e+02 1.4256866850e+03 0.0000000000e+00 0.0000e+00 -1.0000e+00
<mgrwt>
<rscale>  0 0.30870037E+04</rscale>
<asrwt>0</asrwt>
<pdfrwt beam="1">  1        2 0.20358888E+00 0.30870037E+04</pdfrwt>
<pdfrwt beam="2">  1       -2 0.27697052E+00 0.30870037E+04</pdfrwt>
<totfact> 0.58484130E-01</totfact>
</mgrwt>
<rwgt>
<wgt id='morphing_basis_vector_1'> +9.1160047e-05 </wgt>
<wgt id='morphing_basis_vector_2'> +6.2128104e-05 </wgt>
<wgt id='morphing_basis_vector_3'> +9.9555873e-05 </wgt>
<wgt id='morphing_basis_vector_4'> +7.0323403e-05 </wgt>
<wgt id='morphing_basis_vector_5'> +1.1295659e-04 </wgt>
</rwgt>
</event>
<event>
 4      1 +7.3133000e-09 2.78117800e+03 7.81860800e-03 7.80995100e-02
        2 -1    0    0  501    0 +0.0000000000e+00 +0.0000000000e+00 +1.9681604449e+03 1.9681604449e+03 0.0000000000e+00 0.0000e+00 1.0000e+00
       -2 -1    0    0    0  501 -0.0000000000e+00 -0.0000000000e+00 -9.8251013398e+02 9.8251013398e+02 0.0000000000e+00 0.0000e+00 -1.0000e+00
      -13  1    1    2    0    0 +1.2063854542e+03 +3.5699784928e+02 -1.3566525318e+02 1.2653925831e+03 0.0000000000e+00 0.0000e+00 -1.0000e+00
       13  1    1    2    0    0 -1.2063854542e+03 -3.5699784928e+02 +1.1213155640e+03 1.6852779957e+03 0.0000000000e+00 0.0000e+00 1.0000e+00
<mgrwt>
<rscale>  0 0.27811779E+04</rscale>
<asrwt>0</asrwt>
<pdfrwt beam="1">  1        2 0.30279391E+00 0.27811779E+04</pdfrwt>
<pdfrwt beam="2">  1       -2 0.15115541E+00 0.27811779E+04</pdfrwt>
<totfact> 0.21527209E+00</totfact>
</mgrwt>
<rwgt>
<wgt id='morphing_basis_vector_1'> +6.0505681e-05 </wgt>
<wgt id='morphing_basis_vector_2'> +4.1612813e-05 </wgt>
<wgt id='morphing_basis_vector_3'> +6.5929233e-05 </wgt>
<wgt id='morphing_basis_vector_4'> +4.5724287e-05 </wgt>
<wgt id='morphing_basis_vector_5'> +7.4094427e-05 </wgt>
</rwgt>
</event>
<event>
 4      1 +7.3133000e-09 2.98238600e+03 7.81860800e-03 7.75666100e-02
        2 -1    0    0  501    0 +0.0000000000e+00 +0.0000000000e+00 +3.5640364387e+03 3.5640364387e+03 0.0000000000e+00 0.0000e+00 1.0000e+00
       -2 -1    0    0    0  501 -0.0000000000e+00 -0.0000000000e+00 -6.2391514182e+02 6.2391514182e+02 0.0000000000e+00 0.0000e+00 -1.0000e+00
      -13  1    1    2    0    0 -4.3853859370e+02 -4.4586794882e+02 +3.3709848111e+03 3.4285059315e+03 0.0000000000e+00 0.0000e+00 1.0000e+00
       13  1    1    2    0    0 +4.3853859370e+02 +4.4586794882e+02 -4.3086351419e+02 7.5944564902e+02 0.0000000000e+00 0.0000e+00 -1.0000e+00
<mgrwt>
<rscale>  0 0.29823858E+04</rscale>
<asrwt>0</asrwt>
<pdfrwt beam="1">  1        2 0.54831329E+00 0.29823858E+04</pdfrwt>
<pdfrwt beam="2">  1       -2 0.95986947E-01 0.29823858E+04</pdfrwt>
<totfact> 0.67576153E-01</totfact>
</mgrwt>
<rwgt>
<wgt id='morphing_basis_vector_1'> +1.0804587e-04 </wgt>
<wgt id='morphing_basis_vector_2'> +1.3818658e-04 </wgt>
<wgt id='morphing_basis_vector_3'> +1.3136581e-04 </wgt>
<wgt id='morphing_basis_vector_4'> +1.8127529e-06 </wgt>
<wgt id='morphing_basis_vector_5'> +9.3409519e-05 </wgt>
</rwgt>
</event>
<event>
 4      1 +7.3133000e-09 3.01233300e+03 7.81860800e-03 7.74909700e-02
        2 -1    0    0  501    0 +0.0000000000e+00 +0.0000000000e+00 +3.2713377760e+03 3.2713377760e+03 0.0000000000e+00 0.0000e+00 1.0000e+00
       -2 -1    0    0    0  501 -0.0000000000e+00 -0.0000000000e+00 -6.9345861759e+02 6.9345861759e+02 0.0000000000e+00 0.0000e+00 -1.0000e+00
      -13  1    1    2    0    0 +5.2570312906e+02 -1.1066401575e+03 +1.3584985517e+02 1.2326684069e+03 0.0000000000e+00 0.0000e+00 -1.0000e+00
       13  1    1    2    0    0 -5.2570312906e+02 +1.1066401575e+03 +2.4420293033e+03 2.7321279868e+03 0.0000000000e+00 0.0000e+00 1.0000e+00
<mgrwt>
<rscale>  0 0.30123329E+04</rscale>
<asrwt>0</asrwt>
<pdfrwt beam="1">  1        2 0.50328273E+00 0.30123329E+04</pdfrwt>
<pdfrwt beam="2">  1       -2 0.10668594E+00 0.30123329E+04</pdfrwt>
<totfact> 0.84523644E-01</totfact>
</mgrwt>
<rwgt>
<wgt id='morphing_basis_vector_1'> +8.2710328e-05 </wgt>
<wgt id='morphing_basis_vector_2'> +5.6305587e-05 </wgt>
<wgt id='morphing_basis_vector_3'> +9.0247733e-05 </wgt>
<wgt id='morphing_basis_vector_4'> +6.3742552e-05 </wgt>
<wgt id='morphing_basis_vector_5'> +1.0233443e-04 </wgt>
</rwgt>
</event>
<event>
 4      1 +7.3133000e-09 3.09955500e+03 7.81860800e-03 7.72757400e-02
        2 -1    0    0  501    0 +0.0000000000e+00 +0.0000000000e+00 +1.2712046172e+03 1.2712046172e+03 0.0000000000e+00 0.0000e+00 1.0000e+00
       -2 -1    0    0    0  501 -0.0000000000e+00 -0.0000000000e+00 -1.8893975894e+03 1.8893975894e+03 0.0000000000e+00 0.0000e+00 -1.0000e+00
      -13  1    1    2    0    0 +1.3588946930e+03 +6.6810606954e+01 -1.0658399365e+03 1.7283151374e+03 0.0000000000e+00 0.0000e+00 -1.0000e+00
       13  1    1    2    0    0 -1.3588946930e+03 -6.6810606954e+01 +4.4764696435e+02 1.4322870692e+03 0.0000000000e+00 0.0000e+00 1.0000e+00
<mgrwt>
<rscale>  0 0.30995554E+04</rscale>
<asrwt>0</asrwt>
<pdfrwt beam="1">  1        2 0.19556994E+00 0.30995554E+04</pdfrwt>
<pdfrwt beam="2">  1       -2 0.29067655E+00 0.30995554E+04</pdfrwt>
<totfact> 0.50491940E-01</totfact>
</mgrwt>
<rwgt>
<wgt id='morphing_basis_vector_1'> +9.2821390e-05 </wgt>
<wgt id='morphing_basis_vector_2'> +6.3678460e-05 </wgt>
<wgt id='morphing_basis_vector_3'> +1.0147074e-04 </wgt>
<wgt id='morphing_basis_vector_4'> +7.1102693e-05 </wgt>
<wgt id='morphing_basis_vector_5'> +1.1478909e-04 </wgt>
</rwgt>
</event>
<event>
 4      1 +7.3133000e-09 2.77844000e+03 7.81860800e-03 7.81070700e-02
        2 -1    0    0  501    0 +0.0000000000e+00 +0.0000000000e+00 +1.8980414224e+03 1.8980414224e+03 0.0000000000e+00 0.0000e+00 1.0000e+00
       -2 -1    0    0    0  501 -0.0000000000e+00 -0.0000000000e+00 -1.0168019958e+03 1.0168019958e+03 0.0000000000e+00 0.0000e+00 -1.0000e+00
      -13  1    1    2    0    0 +1.1618496461e+03 +7.6159304825e+02 +4.3673167744e+02 1.4562462461e+03 0.0000000000e+00 0.0000e+00 1.0000e+00
       13  1    1    2    0    0 -1.1618496461e+03 -7.6159304825e+02 +4.4450774923e+02 1.4585971721e+03 0.0000000000e+00 0.0000e+00 -1.0000e+00
<mgrwt>
<rscale>  0 0.27784401E+04</rscale>
<asrwt>0</asrwt>
<pdfrwt beam="1">  1        2 0.29200637E+00 0.27784401E+04</pdfrwt>
<pdfrwt beam="2">  1       -2 0.15643108E+00 0.27784401E+04</pdfrwt>
<totfact> 0.21343385E+00</totfact>
</mgrwt>
<rwgt>
<wgt id='morphing_basis_vector_1'> +6.2058829e-05 </wgt>
<wgt id='morphing_basis_vector_2'> +4.6721233e-05 </wgt>
<wgt id='morphing_basis_vector_3'> +6.8443200e-05 </wgt>
<wgt id='morphing_basis_vector_4'> +4.1841109e-05 </wgt>
<wgt id='morphing_basis_vector_5'> +7.3497478e-05 </wgt>
</rwgt>
</event>
<event>
 4      1 +7.3133000e-09 2.72305600e+03 7.81860800e-03 7.82620100e-02
        2 -1    0    0  501    0 +0.0000000000e+00 +0.0000000000e+00 +1.3160005080e+03 1.3160005080e+03 0.0000000000e+00 0.0000e+00 1.0000e+00
       -2 -1    0    0    0  501 -0.0000000000e+00 -0.0000000000e+00 -1.4086300163e+03 1.4086300163e+03 0.0000000000e+00 0.0000e+00 -1.0000e+00
      -13  1    1    2    0    0 -6.7666052532e+02 +5.7682447867e+02 -1.0780085547e+03 1.3973898488e+03 0.0000000000e+00 0.0000e+00 -1.0000e+00
       13  1    1    2    0    0 +6.7666052532e+02 -5.7682447867e+02 +9.8537904633e+02 1.3272406755e+03 0.0000000000e+00 0.0000e+00 1.0000e+00
<mgrwt>
<rscale>  0 0.27230555E+04</rscale>
<asrwt>0</asrwt>
<pdfrwt beam="1">  1        2 0.20246162E+00 0.27230555E+04</pdfrwt>
<pdfrwt beam="2">  1       -2 0.21671231E+00 0.27230555E+04</pdfrwt>
<totfact> 0.15960955E+00</totfact>
</mgrwt>
<rwgt>
<wgt id='morphing_basis_vector_1'> +5.5338991e-05 </wgt>
<wgt id='morphing_basis_vector_2'> +3.7325865e-05 </wgt>
<wgt id='morphing_basis_vector_3'> +6.0103113e-05 </wgt>
<wgt id='morphing_basis_vector_4'> +4.2636157e-05 </wgt>
<wgt id='morphing_basis_vector_5'> +6.8084762e-05 </wgt>
</rwgt>
</event>
<event>
 4      1 +7.3133000e-09 2.68349000e+03 7.81860800e-03 7.83750000e-02
        2 -1    0    0  501    0 +0.0000000000e+00 +0.0000000000e+00 +1.6332355111e+03 1.6332355111e+03 0.0000000000e+00 0.0000e+00 1.0000e+00
       -2 -1    0    0    0  501 -0.0000000000e+00 -0.0000000000e+00 -1.1022780167e+03 1.1022780167e+03 0.0000000000e+00 0.0000e+00 -1.0000e+00
      -13  1    1    2    0    0 +7.6783814579e+02 +7.4034503042e+02 -5.6430027217e+02 1.2066983796e+03 0.0000000000e+00 0.0000e+00 -1.0000e+00
       13  1    1    2    0    0 -7.6783814579e+02 -7.4034503042e+02 +1.0952577665e+03 1.5288151482e+03 0.0000000000e+00 0.0000e+00 1.0000e+00
<mgrwt>
<rscale>  0 0.26834900E+04</rscale>
<asrwt>0</asrwt>
<pdfrwt beam="1">  1        2 0.25126700E+00 0.26834900E+04</pdfrwt>
<pdfrwt beam="2">  1       -2 0.16958123E+00 0.26834900E+04</pdfrwt>
<totfact> 0.23765210E+00</totfact>
</mgrwt>
<rwgt>
<wgt id='morphing_basis_vector_1'> +5.2312339e-05 </wgt>
<wgt id='morphing_basis_vector_2'> +3.5466550e-05 </wgt>
<wgt id='morphing_basis_vector_3'> +5.6820897e-05 </wgt>
<wgt id='morphing_basis_vector_4'> +4.0009001e-05 </wgt>
<wgt id='morphing_basis_vector_5'> +6.4157560e-05 </wgt>
</rwgt>
</event>
<event>
 4      1 +7.3133000e-09 2.67728700e+03 7.81860800e-03 7.83929000e-02
        2 -1    0    0  501    0 +0.0000000000e+00 +0.0000000000e+00 +3.3956394090e+03 3.3956394090e+03 0.0000000000e+00 0.0000e+00 -1.0000e+00
       -2 -1    0    0    0  501 -0.0000000000e+00 -0.0000000000e+00 -5.2772576823e+02 5.2772576823e+02 0.0000000000e+00 0.0000e+00 1.0000e+00
      -13  1    1    2    0    0 -1.2599425128e+03 -1.3382424777e+02 +8.0092963723e+02 1.4989504157e+03 0.0000000000e+00 0.0000e+00 1.0000e+00
       13  1    1    2    0    0 +1.2599425128e+03 +1.3382424777e+02 +2.0669840035e+03 2.4244147615e+03 0.0000000000e+00 0.0000e+00 -1.0000e+00
<mgrwt>
<rscale>  0 0.26772870E+04</rscale>
<asrwt>0</asrwt>
<pdfrwt beam="1">  1        2 0.52240605E+00 0.26772870E+04</pdfrwt>
<pdfrwt beam="2">  1       -2 0.81188582E-01 0.26772870E+04</pdfrwt>
<totfact> 0.13586771E+00</totfact>
</mgrwt>
<rwgt>
<wgt id='morphing_basis_vector_1'> +5.2247117e-05 </wgt>
<wgt id='morphing_basis_vector_2'> +3.6354108e-05 </wgt>
<wgt id='morphing_basis_vector_3'> +5.6932245e-05 </wgt>
<wgt id='morphing_basis_vector_4'> +3.8787815e-05 </wgt>
<wgt id='morphing_basis_vector_5'> +6.3490686e-05 </wgt>
</rwgt>
</event>
<event>
 4      1 +7.3133000e-09 2.79235400e+03 7.81860800e-03 7.80687300e-02
        2 -1    0    0  501    0 +0.0000000000e+00 +0.0000000000e+00 +1.0858986310e+03 1.0858986310e+03 0.0000000000e+00 0.0000e+00 -1.0000e+00
       -2 -1    0    0    0  501 -0.0000000000e+00 -0.0000000000e+00 -1.7951126215e+03 1.7951126215e+03 0.0000000000e+00 0.0000e+00 1.0000e+00
      -13  1    1    2    0    0 +1.0178929829e+03 +8.5341481646e+02 -7.9824432421e+02 1.5497151269e+03 0.0000000000e+00 0.0000e+00 1.0000e+00
       13  1    1    2    0    0 -1.0178929829e+03 -8.5341481646e+02 +8.9030333672e+01 1.3312961255e+03 0.0000000000e+00 0.0000e+00 -1.0000e+00
<mgrwt>
<rscale>  0 0.27923541E+04</rscale>
<asrwt>0</asrwt>
<pdfrwt beam="1">  1        2 0.16706133E+00 0.27923541E+04</pdfrwt>
<pdfrwt beam="2">  1       -2 0.27617117E+00 0.27923541E+04</pdfrwt>
<totfact> 0.83562536E-01</totfact>
</mgrwt>
<rwgt>
<wgt id='morphing_basis_vector_1'> +6.1753432e-05 </wgt>
<wgt id='morphing_basis_vector_2'> +4.3106885e-05 </wgt>
<wgt id='morphing_basis_vector_3'> +6.7428662e-05 </wgt>
<wgt id='morphing_basis_vector_4'> +4.5892124e-05 </wgt>
<wgt id='morphing_basis_vector_5'> +7.5257669e-05 </wgt>
</rwgt>
</event>
<event>
 4      1 +7.3133000e-09 2.69675500e+03 7.81860800e-03 7.83369000e-02
        2 -1    0    0  501    0 +0.0000000000e+00 +0.0000000000e+00 +3.3959169823e+03 3.3959169823e+03 0.0000000000e+00 0.0000e+00 -1.0000e+00
       -2 -1    0    0    0  501 -0.0000000000e+00 -0.0000000000e+00 -5.3538462173e+02 5.3538462173e+02 0.0000000000e+00 0.0000e+00 1.0000e+00
      -13  1    1    2    0    0 -1.2055441455e+03 -1.5966386455e+02 +2.2794114885e+03 2.5835142675e+03 0.0000000000e+00 0.0000e+00 1.0000e+00
       13  1    1    2    0    0 +1.2055441455e+03 +1.5966386455e+02 +5.8112087207e+02 1.3477873365e+03 0.0000000000e+00 0.0000e+00 -1.0000e+00
<mgrwt>
<rscale>  0 0.26967549E+04</rscale>
<asrwt>0</asrwt>
<pdfrwt beam="1">  1        2 0.52244875E+00 0.26967549E+04</pdfrwt>
<pdfrwt beam="2">  1       -2 0.82366867E-01 0.26967549E+04</pdfrwt>
<totfact> 0.13118640E+00</totfact>
</mgrwt>
<rwgt>
<wgt id='morphing_basis_vector_1'> +6.1322965e-05 </wgt>
<wgt id='morphing_basis_vector_2'> +5.9697487e-05 </wgt>
<wgt id='morphing_basis_vector_3'> +7.0274421e-05 </wgt>
<wgt id='morphing_basis_vector_4'> +2.4340940e-05 </wgt>
<wgt id='morphing_basis_vector_5'> +6.4106068e-05 </wgt>
</rwgt>
</event>
<event>
 4      1 +7.3133000e-09 2.90362200e+03 7.81860800e-03 7.77699900e-02
        2 -1    0    0  501    0 +0.0000000000e+00 +0.0000000000e+00 +2.3913384172e+03 2.3913384172e+03 0.0000000000e+00 0.0000e+00 1.0000e+00
       -2 -1    0    0    0  501 -0.0000000000e+00 -0.0000000000e+00 -8.8141205019e+02 8.8141205019e+02 0.0000000000e+00 0.0000e+00 -1.0000e+00
      -13  1    1    2    0    0 +1.9559442994e+02 +5.4497072544e+02 -7.4564228600e+02 9.4405121221e+02 0.0000000000e+00 0.0000e+00 -1.0000e+00
       13  1    1    2    0    0 -1.9559442994e+02 -5.4497072544e+02 +2.2555686531e+03 2.3286992552e+03 0.0000000000e+00 0.0000e+00 1.0000e+00
<mgrwt>
<rscale>  0 0.29036215E+04</rscale>
<asrwt>0</asrwt>
<pdfrwt beam="1">  1        2 0.36789822E+00 0.29036215E+04</pdfrwt>
<pdfrwt beam="2">  1       -2 0.13560185E+00 0.29036215E+04</pdfrwt>
<totfact> 0.16513880E+00</totfact>
</mgrwt>
<rwgt>
<wgt id='morphing_basis_vector_1'> +7.1303377e-05 </wgt>
<wgt id='morphing_basis_vector_2'> +4.8056275e-05 </wgt>
<wgt id='morphing_basis_vector_3'> +7.7609222e-05 </wgt>
<wgt id='morphing_basis_vector_4'> +5.5363229e-05 </wgt>
<wgt id='morphing_basis_vector_5'> +8.8257686e-05 </wgt>
</rwgt>
</event>
<event>
 4      1 +7.3133000e-09 2.79808400e+03 7.81860800e-03 7.80530000e-02
        2 -1    0    0  501    0 +0.0000000000e+00 +0.0000000000e+00 +1.8643503583e+03 1.8643503583e+03 0.0000000000e+00 0.0000e+00 1.0000e+00
       -2 -1    0    0    0  501 -0.0000000000e+00 -0.0000000000e+00 -1.0498658760e+03 1.0498658760e+03 0.0000000000e+00 0.0000e+00 -1.0000e+00
      -13  1    1    2    0    0 -1.0663954257e+03 -2.7100787774e+02 -4.9272443184e+02 1.2055794621e+03 0.0000000000e+00 0.0000e+00 -1.0000e+00
       13  1    1    2    0    0 +1.0663954257e+03 +2.7100787774e+02 +1.3072089142e+03 1.7086367721e+03 0.0000000000e+00 0.0000e+00 1.0000e+00
<mgrwt>
<rscale>  0 0.27980835E+04</rscale>
<asrwt>0</asrwt>
<pdfrwt beam="1">  1        2 0.28682313E+00 0.27980835E+04</pdfrwt>
<pdfrwt beam="2">  1       -2 0.16151783E+00 0.27980835E+04</pdfrwt>
<totfact> 0.20251178E+00</totfact>
</mgrwt>
<rwgt>
<wgt id='morphing_basis_vector_1'> +6.1714515e-05 </wgt>
<wgt id='morphing_basis_vector_2'> +4.1862881e-05 </wgt>
<wgt id='morphing_basis_vector_3'> +6.7142449e-05 </wgt>
<wgt id='morphing_basis_vector_4'> +4.7396052e-05 </wgt>
<wgt id='morphing_basis_vector_5'> +7.5975380e-05 </wgt>
</rwgt>
</event>
<event>
 4      1 +7.3133000e-09 2.71089500e+03 7.81860800e-03 7.82965300e-02
        2 -1    0    0  501    0 +0.0000000000e+00 +0.0000000000e+00 +1.5366145235e+03 1.5366145235e+03 0.0000000000e+00 0.0000e+00 -1.0000e+00
       -2 -1    0    0    0  501 -0.0000000000e+00 -0.0000000000e+00 -1.1956397300e+03 1.1956397300e+03 0.0000000000e+00 0.0000e+00 1.0000e+00
      -13  1    1    2    0    0 -2.7354300376e+02 +7.6642345576e+02 -9.2203072192e+02 1.2297850790e+03 0.0000000000e+00 0.0000e+00 1.0000e+00
       13  1    1    2    0    0 +2.7354300376e+02 -7.6642345576e+02 +1.2630055153e+03 1.5024691745e+03 0.0000000000e+00 0.0000e+00 -1.0000e+00
<mgrwt>
<rscale>  0 0.27108946E+04</rscale>
<asrwt>0</asrwt>
<pdfrwt beam="1">  1        2 0.23640224E+00 0.27108946E+04</pdfrwt>
<pdfrwt beam="2">  1       -2 0.18394457E+00 0.27108946E+04</pdfrwt>
<totfact> 0.20833005E+00</totfact>
</mgrwt>
<rwgt>
<wgt id='morphing_basis_vector_1'> +5.4353039e-05 </wgt>
<wgt id='morphing_basis_vector_2'> +3.6623021e-05 </wgt>
<wgt id='morphing_basis_vector_3'> +5.9014683e-05 </wgt>
<wgt id='morphing_basis_vector_4'> +4.1902178e-05 </wgt>
<wgt id='morphing_basis_vector_5'> +6.6866175e-05 </wgt>
</rwgt>
</event>
<event>
 4      1 +7.3133000e-09 2.97954200e+03 7.81860800e-03 7.75738400e-02
        2 -1    0    0  501    0 +0.0000000000e+00 +0.0000000000e+00 +2.4114945882e+03 2.4114945882e+03 0.0000000000e+00 0.0000e+00 1.0000e+00
       -2 -1    0    0    0  501 -0.0000000000e+00 -0.0000000000e+00 -9.2034950105e+02 9.2034950105e+02 0.0000000000e+00 0.0000e+00 -1.0000e+00
      -13  1    1    2    0    0 -2.8394045821e+02 +6.5127749029e+02 -7.1869610607e+02 1.0105981625e+03 0.0000000000e+00 0.0000e+00 -1.0000e+00
       13  1    1    2    0    0 +2.8394045821e+02 -6.5127749029e+02 +2.2098411932e+03 2.3212459267e+03 0.0000000000e+00 0.0000e+00 1.0000e+00
<mgrwt>
<rscale>  0 0.29795421E+04</rscale>
<asrwt>0</asrwt>
<pdfrwt beam="1">  1        2 0.37099917E+00 0.29795421E+04</pdfrwt>
<pdfrwt beam="2">  1       -2 0.14159223E+00 0.29795421E+04</pdfrwt>
<totfact> 0.14171243E+00</totfact>
</mgrwt>
<rwgt>
<wgt id='morphing_basis_vector_1'> +7.8988738e-05 </wgt>
<wgt id='morphing_basis_vector_2'> +5.3283581e-05 </wgt>
<wgt id='morphing_basis_vector_3'> +8.6055410e-05 </wgt>
<wgt id='morphing_basis_vector_4'> +6.1426291e-05 </wgt>
<wgt id='morphing_basis_vector_5'> +9.7948668e-05 </wgt>
</rwgt>
</event>
<event>
 4      1 +7.3133000e-09 2.68175100e+03 7.81860800e-03 7.83800100e-02
        2 -1    0    0  501    0 +0.0000000000e+00 +0.0000000000e+00 +2.0033232639e+03 2.0033232639e+03 0.0000000000e+00 0.0000e+00 -1.0000e+00
       -2 -1    0    0    0  501 -0.0000000000e+00 -0.0000000000e+00 -8.9748246420e+02 8.9748246420e+02 0.0000000000e+00 0.0000e+00 1.0000e+00
      -13  1    1    2    0    0 -1.6519978405e+02 -1.3180015216e+03 +3.5485558318e+02 1.3748968923e+03 0.0000000000e+00 0.0000e+00 1.0000e+00
       13  1    1    2    0    0 +1.6519978405e+02 +1.3180015216e+03 +7.5098521656e+02 1.5259088358e+03 0.0000000000e+00 0.0000e+00 -1.0000e+00
<mgrwt>
<rscale>  0 0.26817513E+04</rscale>
<asrwt>0</asrwt>
<pdfrwt beam="1">  1        2 0.30820358E+00 0.26817513E+04</pdfrwt>
<pdfrwt beam="2">  1       -2 0.13807423E+00 0.26817513E+04</pdfrwt>
<totfact> 0.26738990E+00</totfact>
</mgrwt>
<rwgt>
<wgt id='morphing_basis_vector_1'> +5.3202723e-05 </wgt>
<wgt id='morphing_basis_vector_2'> +3.8395148e-05 </wgt>
<wgt id='morphing_basis_vector_3'> +5.8254244e-05 </wgt>
<wgt id='morphing_basis_vector_4'> +3.7790947e-05 </wgt>
<wgt id='morphing_basis_vector_5'> +6.3817298e-05 </wgt>
</rwgt>
</event>
<event>
 4      1 +7.3133000e-09 3.07393000e+03 7.81860800e-03 7.73382000e-02
        2 -1    0    0  501    0 +0.0000000000e+00 +0.0000000000e+00 +3.8857304111e+03 3.8857304111e+03 0.0000000000e+00 0.0000e+00 1.0000e+00
       -2 -1    0    0    0  501 -0.0000000000e+00 -0.0000000000e+00 -6.0793248745e+02 6.0793248745e+02 0.0000000000e+00 0.0000e+00 -1.0000e+00
      -13  1    1    2    0    0 +4.8363849638e+02 +9.0463063693e+02 -3.4278330497e+01 1.0263711748e+03 0.0000000000e+00 0.0000e+00 -1.0000e+00
       13  1    1    2    0    0 -4.8363849638e+02 -9.0463063693e+02 +3.3120762541e+03 3.4672917237e+03 0.0000000000e+00 0.0000e+00 1.0000e+00
<mgrwt>
<rscale>  0 0.30739302E+04</rscale>
<asrwt>0</asrwt>
<pdfrwt beam="1">  1        2 0.59780466E+00 0.30739302E+04</pdfrwt>
<pdfrwt beam="2">  1       -2 0.93528077E-01 0.30739302E+04</pdfrwt>
<totfact> 0.39996361E-01</totfact>
</mgrwt>
<rwgt>
<wgt id='morphing_basis_vector_1'> +8.9446709e-05 </wgt>
<wgt id='morphing_basis_vector_2'> +6.0520740e-05 </wgt>
<wgt id='morphing_basis_vector_3'> +9.7579691e-05 </wgt>
<wgt id='morphing_basis_vector_4'> +6.9530456e-05 </wgt>
<wgt id='morphing_basis_vector_5'> +1.1107236e-04 </wgt>
</rwgt>
</event>
<event>
 4      1 +7.3133000e-09 2.83384200e+03 7.81860800e-03 7.79557200e-02
        2 -1    0    0  501    0 +0.0000000000e+00 +0.0000000000e+00 +2.7346554023e+03 2.7346554023e+03 0.0000000000e+00 0.0000e+00 1.0000e+00
       -2 -1    0    0    0  501 -0.0000000000e+00 -0.0000000000e+00 -7.3415655995e+02 7.3415655995e+02 0.0000000000e+00 0.0000e+00 -1.0000e+00
      -13  1    1    2    0    0 +1.1281251918e+03 -6.6947531642e+02 +3.4471444630e+02 1.3563523499e+03 0.0000000000e+00 0.0000e+00 -1.0000e+00
       13  1    1    2    0    0 -1.1281251918e+03 +6.6947531642e+02 +1.6557843960e+03 2.1124596123e+03 0.0000000000e+00 0.0000e+00 1.0000e+00
<mgrwt>
<rscale>  0 0.28338421E+04</rscale>
<asrwt>0</asrwt>
<pdfrwt beam="1">  1        2 0.42071621E+00 0.28338421E+04</pdfrwt>
<pdfrwt beam="2">  1       -2 0.11294716E+00 0.28338421E+04</pdfrwt>
<totfact> 0.16673326E+00</totfact>
</mgrwt>
<rwgt>
<wgt id='morphing_basis_vector_1'> +6.5275710e-05 </wgt>
<wgt id='morphing_basis_vector_2'> +4.5152622e-05 </wgt>
<wgt id='morphing_basis_vector_3'> +7.1228267e-05 </wgt>
<wgt id='morphing_basis_vector_4'> +4.9104090e-05 </wgt>
<wgt id='morphing_basis_vector_5'> +7.9910705e-05 </wgt>
</rwgt>
</event>
<event>
 4      1 +7.3133000e-09 2.90159000e+03 7.81860800e-03 7.77753300e-02
        2 -1    0    0  501    0 +0.0000000000e+00 +0.0000000000e+00 +2.9212331099e+03 2.9212331099e+03 0.0000000000e+00 0.0000e+00 1.0000e+00
       -2 -1    0    0    0  501 -0.0000000000e+00 -0.0000000000e+00 -7.2051959518e+02 7.2051959518e+02 0.0000000000e+00 0.0000e+00 -1.0000e+00
      -13  1    1    2    0    0 +5.9932923449e+02 +1.2569725348e+03 +5.8956458792e+02 1.5122043142e+03 0.0000000000e+00 0.0000e+00 -1.0000e+00
       13  1    1    2    0    0 -5.9932923449e+02 -1.2569725348e+03 +1.6111489268e+03 2.1295483909e+03 0.0000000000e+00 0.0000e+00 1.0000e+00
<mgrwt>
<rscale>  0 0.29015897E+04</rscale>
<asrwt>0</asrwt>
<pdfrwt beam="1">  1        2 0.44942047E+00 0.29015897E+04</pdfrwt>
<pdfrwt beam="2">  1       -2 0.11084917E+00 0.29015897E+04</pdfrwt>
<totfact> 0.13255785E+00</totfact>
</mgrwt>
<rwgt>
<wgt id='morphing_basis_vector_1'> +7.1984593e-05 </wgt>
<wgt id='morphing_basis_vector_2'> +5.0510967e-05 </wgt>
<wgt id='morphing_basis_vector_3'> +7.8762250e-05 </wgt>
<wgt id='morphing_basis_vector_4'> +5.3382134e-05 </wgt>
<wgt id='morphing_basis_vector_5'> +8.7858925e-05 </wgt>
</rwgt>
</event>
<event>
 4      1 +7.3133000e-09 2.74504500e+03 7.81860800e-03 7.82000500e-02
        2 -1    0    0  501    0 +0.0000000000e+00 +0.0000000000e+00 +1.6032558803e+03 1.6032558803e+03 0.0000000000e+00 0.0000e+00 1.0000e+00
       -2 -1    0    0    0  501 -0.0000000000e+00 -0.0000000000e+00 -1.1749950195e+03 1.1749950195e+03 0.0000000000e+00 0.0000e+00 -1.0000e+00
      -13  1    1    2    0    0 -4.0091053745e+02 -4.4211219447e+02 -1.0367921863e+03 1.1962986621e+03 0.0000000000e+00 0.0000e+00 -1.0000e+00
       13  1    1    2    0    0 +4.0091053745e+02 +4.4211219447e+02 +1.4650530471e+03 1.5819522377e+03 0.0000000000e+00 0.0000e+00 1.0000e+00
<mgrwt>
<rscale>  0 0.27450448E+04</rscale>
<asrwt>0</asrwt>
<pdfrwt beam="1">  1        2 0.24665475E+00 0.27450448E+04</pdfrwt>
<pdfrwt beam="2">  1       -2 0.18076846E+00 0.27450448E+04</pdfrwt>
<totfact> 0.20150779E+00</totfact>
</mgrwt>
<rwgt>
<wgt id='morphing_basis_vector_1'> +5.7090317e-05 </wgt>
<wgt id='morphing_basis_vector_2'> +3.8429013e-05 </wgt>
<wgt id='morphing_basis_vector_3'> +6.2007910e-05 </wgt>
<wgt id='morphing_basis_vector_4'> +4.4123165e-05 </wgt>
<wgt id='morphing_basis_vector_5'> +7.0341311e-05 </wgt>
</rwgt>
</event>
<event>
 4      1 +7.3133000e-09 2.73800000e+03 7.81860800e-03 7.82198300e-02
        2 -1    0    0  501    0 +0.0000000000e+00 +0.0000000000e+00 +3.5659078160e+03 3.5659078160e+03 0.0000000000e+00 0.0000e+00 -1.0000e+00
       -2 -1    0    0    0  501 -0.0000000000e+00 -0.0000000000e+00 -5.2557759710e+02 5.2557759710e+02 0.0000000000e+00 0.0000e+00 1.0000e+00
      -13  1    1    2    0    0 +5.0744288085e+02 -1.0839271807e+03 +5.2695046984e+02 1.3076976745e+03 0.0000000000e+00 0.0000e+00 1.0000e+00
       13  1    1    2    0    0 -5.0744288085e+02 +1.0839271807e+03 +2.5133797491e+03 2.7837877386e+03 0.0000000000e+00 0.0000e+00 -1.0000e+00
<mgrwt>
<rscale>  0 0.27380002E+04</rscale>
<asrwt>0</asrwt>
<pdfrwt beam="1">  1        2 0.54860119E+00 0.27380002E+04</pdfrwt>
<pdfrwt beam="2">  1       -2 0.80858094E-01 0.27380002E+04</pdfrwt>
<totfact> 0.10255960E+00</totfact>
</mgrwt>
<rwgt>
<wgt id='morphing_basis_vector_1'> +5.6779043e-05 </wgt>
<wgt id='morphing_basis_vector_2'> +3.8822484e-05 </wgt>
<wgt id='morphing_basis_vector_3'> +6.1786276e-05 </wgt>
<wgt id='morphing_basis_vector_4'> +4.3117070e-05 </wgt>
<wgt id='morphing_basis_vector_5'> +6.9569480e-05 </wgt>
</rwgt>
</event>
<event>
 4      1 +7.3133000e-09 3.00385100e+03 7.81860800e-03 7.75123000e-02
        2 -1    0    0  501    0 +0.0000000000e+00 +0.0000000000e+00 +2.3976224368e+03 2.3976224368e+03 0.0000000000e+00 0.0000e+00 1.0000e+00
       -2 -1    0    0    0  501 -0.0000000000e+00 -0.0000000000e+00 -9.4084039876e+02 9.4084039876e+02 0.0000000000e+00 0.0000e+00 -1.0000e+00
      -13  1    1    2    0    0 +1.1248223772e+03 -9.2849805206e+02 +3.3007430665e+02 1.4954206969e+03 0.0000000000e+00 0.0000e+00 -1.0000e+00
       13  1    1    2    0    0 -1.1248223772e+03 +9.2849805206e+02 +1.1267077314e+03 1.8430421387e+03 0.0000000000e+00 0.0000e+00 1.0000e+00
<mgrwt>
<rscale>  0 0.30038509E+04</rscale>
<asrwt>0</asrwt>
<pdfrwt beam="1">  1        2 0.36886499E+00 0.30038509E+04</pdfrwt>
<pdfrwt beam="2">  1       -2 0.14474468E+00 0.30038509E+04</pdfrwt>
<totfact> 0.13551438E+00</totfact>
</mgrwt>
<rwgt>
<wgt id='morphing_basis_vector_1'> +8.2766364e-05 </wgt>
<wgt id='morphing_basis_vector_2'> +5.8548919e-05 </wgt>
<wgt id='morphing_basis_vector_3'> +9.0762981e-05 </wgt>
<wgt id='morphing_basis_vector_4'> +6.0990610e-05 </wgt>
<wgt id='morphing_basis_vector_5'> +1.0100971e-04 </wgt>
</rwgt>
</event>
<event>
 4      1 +7.3133000e-09 2.95100700e+03 7.81860800e-03 7.76468600e-02
        2 -1    0    0  501    0 +0.0000000000e+00 +0.0000000000e+00 +1.0315566002e+03 1.0315566002e+03 0.0000000000e+00 0.0000e+00 1.0000e+00
       -2 -1    0    0    0  501 -0.0000000000e+00 -0.0000000000e+00 -2.1105093754e+03 2.1105093754e+03 0.0000000000e+00 0.0000e+00 -1.0000e+00
      -13  1    1    2    0    0 -2.0326895544e+01 -4.3228432199e+02 -2.0414170856e+03 2.0867838017e+03 0.0000000000e+00 0.0000e+00 -1.0000e+00
       13  1    1    2    0    0 +2.0326895544e+01 +4.3228432199e+02 +9.6246431045e+02 1.0552821739e+03 0.0000000000e+00 0.0000e+00 1.0000e+00
<mgrwt>
<rscale>  0 0.29510065E+04</rscale>
<asrwt>0</asrwt>
<pdfrwt beam="1">  1        2 0.15870102E+00 0.29510065E+04</pdfrwt>
<pdfrwt beam="2">  1       -2 0.32469375E+00 0.29510065E+04</pdfrwt>
<totfact> 0.41921360E-01</totfact>
</mgrwt>
<rwgt>
<wgt id='morphing_basis_vector_1'> +7.6021869e-05 </wgt>
<wgt id='morphing_basis_vector_2'> +5.1245637e-05 </wgt>
<wgt id='morphing_basis_vector_3'> +8.2790320e-05 </wgt>
<wgt id='morphing_basis_vector_4'> +5.9110100e-05 </wgt>
<wgt id='morphing_basis_vector_5'> +9.4218966e-05 </wgt>
</rwgt>
</event>
<event>
 4      1 +7.3133000e-09 3.10942500e+03 7.81860800e-03 7.72518500e-02
        2 -1    0    0  501    0 +0.0000000000e+00 +0.0000000000e+00 +2.2917500054e+03 2.2917500054e+03 0.0000000000e+00 0.0000e+00 -1.0000e+00
       -2 -1    0    0    0  501 -0.0000000000e+00 -0.0000000000e+00 -1.0547096551e+03 1.0547096551e+03 0.0000000000e+00 0.0000e+00 1.0000e+00
      -13  1    1    2    0    0 +9.5219494774e+02 -5.3977442754e+01 -7.0289788515e+02 1.1847591400e+03 0.0000000000e+00 0.0000e+00 1.0000e+00
       13  1    1    2    0    0 -9.5219494774e+02 +5.3977442754e+01 +1.9399382355e+03 2.1617005205e+03 0.0000000000e+00 0.0000e+00 -1.0000e+00
<mgrwt>
<rscale>  0 0.31094249E+04</rscale>
<asrwt>0</asrwt>
<pdfrwt beam="1">  1        2 0.35257692E+00 0.31094249E+04</pdfrwt>
<pdfrwt beam="2">  1       -2 0.16226302E+00 0.31094249E+04</pdfrwt>
<totfact> 0.11133017E+00</totfact>
</mgrwt>
<rwgt>
<wgt id='morphing_basis_vector_1'> +9.3584496e-05 </wgt>
<wgt id='morphing_basis_vector_2'> +6.3269651e-05 </wgt>
<wgt id='morphing_basis_vector_3'> +1.0211713e-04 </wgt>
<wgt id='morphing_basis_vector_4'> +7.2885508e-05 </wgt>
<wgt id='morphing_basis_vector_5'> +1.1634162e-04 </wgt>
</rwgt>
</event>
<event>
 4      1 +7.3133000e-09 2.73313100e+03 7.81860800e-03 7.82335400e-02
        2 -1    0    0  501    0 +0.0000000000e+00 +0.0000000000e+00 +2.1463062394e+03 2.1463062394e+03 0.0000000000e+00 0.0000e+00 -1.0000e+00
       -2 -1    0    0    0  501 -0.0000000000e+00 -0.0000000000e+00 -8.7010041469e+02 8.7010041469e+02 0.0000000000e+00 0.0000e+00 1.0000e+00
      -13  1    1    2    0    0 -1.2125838645e+03 -1.4285082605e+02 -3.9301313890e+01 1.2216016455e+03 0.0000000000e+00 0.0000e+00 1.0000e+00
       13  1    1    2    0    0 +1.2125838645e+03 +1.4285082605e+02 +1.3155071386e+03 1.7948050085e+03 0.0000000000e+00 0.0000e+00 -1.0000e+00
<mgrwt>
<rscale>  0 0.27331315E+04</rscale>
<asrwt>0</asrwt>
<pdfrwt beam="1">  1        2 0.33020096E+00 0.27331315E+04</pdfrwt>
<pdfrwt beam="2">  1       -2 0.13386160E+00 0.27331315E+04</pdfrwt>
<totfact> 0.24056435E+00</totfact>
</mgrwt>
<rwgt>
<wgt id='morphing_basis_vector_1'> +5.6435121e-05 </wgt>
<wgt id='morphing_basis_vector_2'> +3.8708957e-05 </wgt>
<wgt id='morphing_basis_vector_3'> +6.1432549e-05 </wgt>
<wgt id='morphing_basis_vector_4'> +4.2695438e-05 </wgt>
<wgt id='morphing_basis_vector_5'> +6.9061529e-05 </wgt>
</rwgt>
</event>
<event>
 4      1 +7.3133000e-09 3.08516200e+03 7.81860800e-03 7.73107500e-02
        2 -1    0    0  501    0 +0.0000000000e+00 +0.0000000000e+00 +1.6980389664e+03 1.6980389664e+03 0.0000000000e+00 0.0000e+00 -1.0000e+00
       -2 -1    0    0    0  501 -0.0000000000e+00 -0.0000000000e+00 -1.4013557317e+03 1.4013557317e+03 0.0000000000e+00 0.0000e+00 1.0000e+00
      -13  1    1    2    0    0 +1.2294543471e+03 +3.6690968490e+02 +1.0086659234e+03 1.6320501382e+03 0.0000000000e+00 0.0000e+00 1.0000e+00
       13  1    1    2    0    0 -1.2294543471e+03 -3.6690968490e+02 -7.1198268864e+02 1.4673445599e+03 0.0000000000e+00 0.0000e+00 -1.0000e+00
<mgrwt>
<rscale>  0 0.30851623E+04</rscale>
<asrwt>0</asrwt>
<pdfrwt beam="1">  1        2 0.26123676E+00 0.30851623E+04</pdfrwt>
<pdfrwt beam="2">  1       -2 0.21559319E+00 0.30851623E+04</pdfrwt>
<totfact> 0.96262848E-01</totfact>
</mgrwt>
<rwgt>
<wgt id='morphing_basis_vector_1'> +1.0994396e-04 </wgt>
<wgt id='morphing_basis_vector_2'> +1.1792254e-04 </wgt>
<wgt id='morphing_basis_vector_3'> +1.2914886e-04 </wgt>
<wgt id='morphing_basis_vector_4'> +3.0518456e-05 </wgt>
<wgt id='morphing_basis_vector_5'> +1.0942200e-04 </wgt>
</rwgt>
</event>
<event>
 4      1 +7.3133000e-09 2.70762300e+03 7.81860800e-03 7.83058500e-02
        2 -1    0    0  501    0 +0.0000000000e+00 +0.0000000000e+00 +2.0960352668e+03 2.0960352668e+03 0.0000000000e+00 0.0000e+00 -1.0000e+00
       -2 -1    0    0    0  501 -0.0000000000e+00 -0.0000000000e+00 -8.7441532248e+02 8.7441532248e+02 0.0000000000e+00 0.0000e+00 1.0000e+00
      -13  1    1    2    0    0 +8.2878780894e+02 -2.8550732324e+02 -5.2103499045e+02 1.0197456179e+03 0.0000000000e+00 0.0000e+00 1.0000e+00
       13  1    1    2    0    0 -8.2878780894e+02 +2.8550732324e+02 +1.7426549348e+03 1.9507049715e+03 0.0000000000e+00 0.0000e+00 -1.0000e+00
<mgrwt>
<rscale>  0 0.27076228E+04</rscale>
<asrwt>0</asrwt>
<pdfrwt beam="1">  1        2 0.32246696E+00 0.27076228E+04</pdfrwt>
<pdfrwt beam="2">  1       -2 0.13452543E+00 0.27076228E+04</pdfrwt>
<totfact> 0.25403661E+00</totfact>
</mgrwt>
<rwgt>
<wgt id='morphing_basis_vector_1'> +5.4106859e-05 </wgt>
<wgt id='morphing_basis_vector_2'> +3.6485179e-05 </wgt>
<wgt id='morphing_basis_vector_3'> +5.8750365e-05 </wgt>
<wgt id='morphing_basis_vector_4'> +4.1671619e-05 </wgt>
<wgt id='morphing_basis_vector_5'> +6.6538297e-05 </wgt>
</rwgt>
</event>
<event>
 4      1 +7.3133000e-09 2.89923200e+03 7.81860800e-03 7.77815200e-02
        2 -1    0    0  501    0 +0.0000000000e+00 +0.0000000000e+00 +1.2714800201e+03 1.2714800201e+03 0.0000000000e+00 0.0000e+00 1.0000e+00
       -2 -1    0    0    0  501 -0.0000000000e+00 -0.0000000000e+00 -1.6527085932e+03 1.6527085932e+03 0.0000000000e+00 0.0000e+00 -1.0000e+00
      -13  1    1    2    0    0 -1.2539299175e+03 -2.9533376820e+02 +4.7980572472e+02 1.3746911675e+03 0.0000000000e+00 0.0000e+00 1.0000e+00
       13  1    1    2    0    0 +1.2539299175e+03 +2.9533376820e+02 -8.6103429786e+02 1.5494974458e+03 0.0000000000e+00 0.0000e+00 -1.0000e+00
<mgrwt>
<rscale>  0 0.28992316E+04</rscale>
<asrwt>0</asrwt>
<pdfrwt beam="1">  1        2 0.19561231E+00 0.28992316E+04</pdfrwt>
<pdfrwt beam="2">  1       -2 0.25426286E+00 0.28992316E+04</pdfrwt>
<totfact> 0.91061423E-01</totfact>
</mgrwt>
<rwgt>
<wgt id='morphing_basis_vector_1'> +8.2528505e-05 </wgt>
<wgt id='morphing_basis_vector_2'> +8.2092331e-05 </wgt>
<wgt id='morphing_basis_vector_3'> +9.5304364e-05 </wgt>
<wgt id='morphing_basis_vector_4'> +3.0829413e-05 </wgt>
<wgt id='morphing_basis_vector_5'> +8.5735946e-05 </wgt>
</rwgt>
</event>
<event>
 4      1 +7.3133000e-09 2.73762300e+03 7.81860800e-03 7.82209000e-02
        2 -1    0    0  501    0 +0.0000000000e+00 +0.0000000000e+00 +2.1823135511e+03 2.1823135511e+03 0.0000000000e+00 0.0000e+00 -1.0000e+00
       -2 -1    0    0    0  501 -0.0000000000e+00 -0.0000000000e+00 -8.5855885593e+02 8.5855885593e+02 0.0000000000e+00 0.0000e+00 1.0000e+00
      -13  1    1    2    0    0 +8.1708214838e+02 -1.0860694949e+02 -5.5198052036e+02 9.9201875060e+02 0.0000000000e+00 0.0000e+00 1.0000e+00
       13  1    1    2    0    0 -8.1708214838e+02 +1.0860694949e+02 +1.8757352155e+03 2.0488536564e+03 0.0000000000e+00 0.0000e+00 -1.0000e+00
<mgrwt>
<rscale>  0 0.27376228E+04</rscale>
<asrwt>0</asrwt>
<pdfrwt beam="1">  1        2 0.33574054E+00 0.27376228E+04</pdfrwt>
<pdfrwt beam="2">  1       -2 0.13208598E+00 0.27376228E+04</pdfrwt>
<totfact> 0.23780944E+00</totfact>
</mgrwt>
<rwgt>
<wgt id='morphing_basis_vector_1'> +5.6504597e-05 </wgt>
<wgt id='morphing_basis_vector_2'> +3.8083452e-05 </wgt>
<wgt id='morphing_basis_vector_3'> +6.1375481e-05 </wgt>
<wgt id='morphing_basis_vector_4'> +4.3596343e-05 </wgt>
<wgt id='morphing_basis_vector_5'> +6.9571823e-05 </wgt>
</rwgt>
</event>
<event>
 4      1 +7.3133000e-09 2.86065800e+03 7.81860800e-03 7.78837100e-02
        2 -1    0    0  501    0 +0.0000000000e+00 +0.0000000000e+00 +2.1751502583e+03 2.1751502583e+03 0.0000000000e+00 0.0000e+00 -1.0000e+00
       -2 -1    0    0    0  501 -0.0000000000e+00 -0.0000000000e+00 -9.4055165744e+02 9.4055165744e+02 0.0000000000e+00 0.0000e+00 1.0000e+00
      -13  1    1    2    0    0 +8.3120135664e+02 -8.0533242262e+02 -2.9810033558e+02 1.1951233477e+03 0.0000000000e+00 0.0000e+00 1.0000e+00
       13  1    1    2    0    0 -8.3120135664e+02 +8.0533242262e+02 +1.5326989365e+03 1.9205785681e+03 0.0000000000e+00 0.0000e+00 -1.0000e+00
<mgrwt>
<rscale>  0 0.28606581E+04</rscale>
<asrwt>0</asrwt>
<pdfrwt beam="1">  1        2 0.33463850E+00 0.28606581E+04</pdfrwt>
<pdfrwt beam="2">  1       -2 0.14470025E+00 0.28606581E+04</pdfrwt>
<totfact> 0.18473521E+00</totfact>
</mgrwt>
<rwgt>
<wgt id='morphing_basis_vector_1'> +6.7393653e-05 </wgt>
<wgt id='morphing_basis_vector_2'> +4.5810621e-05 </wgt>
<wgt id='morphing_basis_vector_3'> +7.3397462e-05 </wgt>
<wgt id='morphing_basis_vector_4'> +5.1759514e-05 </wgt>
<wgt id='morphing_basis_vector_5'> +8.3070939e-05 </wgt>
</rwgt>
</event>
<event>
 4      1 +7.3133000e-09 2.67942800e+03 7.81860800e-03 7.83867100e-02
        2 -1    0    0  501    0 +0.0000000000e+00 +0.0000000000e+00 +1.0490307167e+03 1.0490307167e+03 0.0000000000e+00 0.0000e+00 -1.0000e+00
       -2 -1    0    0    0  501 -0.0000000000e+00 -0.0000000000e+00 -1.7109449802e+03 1.7109449802e+03 0.0000000000e+00 0.0000e+00 1.0000e+00
      -13  1    1    2    0    0 +3.3491398750e+02 +1.1894634127e+03 -8.6405075864e+02 1.5078376247e+03 0.0000000000e+00 0.0000e+00 1.0000e+00
       13  1    1    2    0    0 -3.3491398750e+02 -1.1894634127e+03 +2.0213649517e+02 1.2521380722e+03 0.0000000000e+00 0.0000e+00 -1.0000e+00
<mgrwt>
<rscale>  0 0.26794282E+04</rscale>
<asrwt>0</asrwt>
<pdfrwt beam="1">  1        2 0.16138934E+00 0.26794282E+04</pdfrwt>
<pdfrwt beam="2">  1       -2 0.26322230E+00 0.26794282E+04</pdfrwt>
<totfact> 0.10895072E+00</totfact>
</mgrwt>
<rwgt>
<wgt id='morphing_basis_vector_1'> +5.2279407e-05 </wgt>
<wgt id='morphing_basis_vector_2'> +3.6077392e-05 </wgt>
<wgt id='morphing_basis_vector_3'> +5.6909101e-05 </wgt>
<wgt id='morphing_basis_vector_4'> +3.9188083e-05 </wgt>
<wgt id='morphing_basis_vector_5'> +6.3718697e-05 </wgt>
</rwgt>
</event>
<event>
 4      1 +7.3133000e-09 3.04103800e+03 7.81860800e-03 7.74193100e-02
        2 -1    0    0  501    0 +0.0000000000e+00 +0.0000000000e+00 +1.3057197736e+03 1.3057197736e+03 0.0000000000e+00 0.0000e+00 -1.0000e+00
       -2 -1    0    0    0  501 -0.0000000000e+00 -0.0000000000e+00 -1.7706536586e+03 1.7706536586e+03 0.0000000000e+00 0.0000e+00 1.0000e+00
      -13  1    1    2    0    0 +9.0212086858e+02 -1.1172596682e+03 -7.3816169794e+02 1.6146126223e+03 0.0000000000e+00 0.0000e+00 1.0000e+00
       13  1    1    2    0    0 -9.0212086858e+02 +1.1172596682e+03 +2.7322781291e+02 1.4617608099e+03 0.0000000000e+00 0.0000e+00 -1.0000e+00
<mgrwt>
<rscale>  0 0.30410376E+04</rscale>
<asrwt>0</asrwt>
<pdfrwt beam="1">  1        2 0.20087997E+00 0.30410376E+04</pdfrwt>
<pdfrwt beam="2">  1       -2 0.27240825E+00 0.30410376E+04</pdfrwt>
<totfact> 0.64552790E-01</totfact>
</mgrwt>
<rwgt>
<wgt id='morphing_basis_vector_1'> +8.6503492e-05 </wgt>
<wgt id='morphing_basis_vector_2'> +6.0312789e-05 </wgt>
<wgt id='morphing_basis_vector_3'> +9.4713691e-05 </wgt>
<wgt id='morphing_basis_vector_4'> +6.4927388e-05 </wgt>
<wgt id='morphing_basis_vector_5'> +1.0621920e-04 </wgt>
</rwgt>
</event>
<event>
 4      1 +7.3133000e-09 2.77721700e+03 7.81860800e-03 7.81104600e-02
        2 -1    0    0  501    0 +0.0000000000e+00 +0.0000000000e+00 +3.1189419957e+03 3.1189419957e+03 0.0000000000e+00 0.0000e+00 -1.0000e+00
       -2 -1    0    0    0  501 -0.0000000000e+00 -0.0000000000e+00 -6.1823320154e+02 6.1823320154e+02 0.0000000000e+00 0.0000e+00 1.0000e+00
      -13  1    1    2    0    0 -5.9903319826e+02 +1.1488049892e+03 +1.9226969221e+03 2.3184816432e+03 0.0000000000e+00 0.0000e+00 1.0000e+00
       13  1    1    2    0    0 +5.9903319826e+02 -1.1488049892e+03 +5.7801187210e+02 1.4186935540e+03 0.0000000000e+00 0.0000e+00 -1.0000e+00
<mgrwt>
<rscale>  0 0.27772169E+04</rscale>
<asrwt>0</asrwt>
<pdfrwt beam="1">  1        2 0.47983722E+00 0.27772169E+04</pdfrwt>
<pdfrwt beam="2">  1       -2 0.95112802E-01 0.27772169E+04</pdfrwt>
<totfact> 0.14455736E+00</totfact>
</mgrwt>
<rwgt>
<wgt id='morphing_basis_vector_1'> +6.7122166e-05 </wgt>
<wgt id='morphing_basis_vector_2'> +6.1880990e-05 </wgt>
<wgt id='morphing_basis_vector_3'> +7.6340223e-05 </wgt>
<wgt id='morphing_basis_vector_4'> +3.1064322e-05 </wgt>
<wgt id='morphing_basis_vector_5'> +7.2491869e-05 </wgt>
</rwgt>
</event>
<event>
 4      1 +7.3133000e-09 2.70451900e+03 7.81860800e-03 7.83147000e-02
        2 -1    0    0  501    0 +0.0000000000e+00 +0.0000000000e+00 +6.3662723040e+02 6.3662723040e+02 0.0000000000e+00 0.0000e+00 -1.0000e+00
       -2 -1    0    0    0  501 -0.0000000000e+00 -0.0000000000e+00 -2.8723338391e+03 2.8723338391e+03 0.0000000000e+00 0.0000e+00 1.0000e+00
      -13  1    1    2    0    0 -6.8974818634e+02 +1.0332072673e+03 -1.8109069726e+03 2.1960541617e+03 0.0000000000e+00 0.0000e+00 1.0000e+00
       13  1    1    2    0    0 +6.8974818634e+02 -1.0332072673e+03 -4.2479963610e+02 1.3129069078e+03 0.0000000000e+00 0.0000e+00 -1.0000e+00
<mgrwt>
<rscale>  0 0.27045191E+04</rscale>
<asrwt>0</asrwt>
<pdfrwt beam="1">  1        2 0.97942652E-01 0.27045191E+04</pdfrwt>
<pdfrwt beam="2">  1       -2 0.44189751E+00 0.27045191E+04</pdfrwt>
<totfact> 0.13683511E-01</totfact>
</mgrwt>
<rwgt>
<wgt id='morphing_basis_vector_1'> +5.4225996e-05 </wgt>
<wgt id='morphing_basis_vector_2'> +3.7392180e-05 </wgt>
<wgt id='morphing_basis_vector_3'> +5.9044021e-05 </wgt>
<wgt id='morphing_basis_vector_4'> +4.0727178e-05 </wgt>
<wgt id='morphing_basis_vector_5'> +6.6169092e-05 </wgt>
</rwgt>
</event>
<event>
 4      1 +7.3133000e-09 2.88438200e+03 7.81860800e-03 7.78206700e-02
        2 -1    0    0  501    0 +0.0000000000e+00 +0.0000000000e+00 +1.8556161806e+03 1.8556161806e+03 0.0000000000e+00 0.0000e+00 -1.0000e+00
       -2 -1    0    0    0  501 -0.0000000000e+00 -0.0000000000e+00 -1.1208755148e+03 1.1208755148e+03 0.0000000000e+00 0.0000e+00 1.0000e+00
      -13  1    1    2    0    0 -6.5801688545e+02 +1.1663184881e+03 +9.1984518073e+02 1.6246230928e+03 0.0000000000e+00 0.0000e+00 1.0000e+00
       13  1    1    2    0    0 +6.5801688545e+02 -1.1663184881e+03 -1.8510451493e+02 1.3518686026e+03 0.0000000000e+00 0.0000e+00 -1.0000e+00
<mgrwt>
<rscale>  0 0.28843819E+04</rscale>
<asrwt>0</asrwt>
<pdfrwt beam="1">  1        2 0.28547941E+00 0.28843819E+04</pdfrwt>
<pdfrwt beam="2">  1       -2 0.17244239E+00 0.28843819E+04</pdfrwt>
<totfact> 0.16689323E+00</totfact>
</mgrwt>
<rwgt>
<wgt id='morphing_basis_vector_1'> +7.8282510e-05 </wgt>
<wgt id='morphing_basis_vector_2'> +7.2821573e-05 </wgt>
<wgt id='morphing_basis_vector_3'> +8.9334019e-05 </wgt>
<wgt id='morphing_basis_vector_4'> +3.5561941e-05 </wgt>
<wgt id='morphing_basis_vector_5'> +8.4416860e-05 </wgt>
</rwgt>
</event>
<event>
 4      1 +7.3133000e-09 2.79963600e+03 7.81860800e-03 7.80487500e-02
        2 -1    0    0  501    0 +0.0000000000e+00 +0.0000000000e+00 +1.5562152971e+03 1.5562152971e+03 0.0000000000e+00 0.0000e+00 1.0000e+00
       -2 -1    0    0    0  501 -0.0000000000e+00 -0.0000000000e+00 -1.2591388333e+03 1.2591388333e+03 0.0000000000e+00 0.0000e+00 -1.0000e+00
      -13  1    1    2    0    0 +1.9729131364e+02 -5.1569346943e+02 +1.4420831208e+03 1.5441720578e+03 0.0000000000e+00 0.0000e+00 1.0000e+00
       13  1    1    2    0    0 -1.9729131364e+02 +5.1569346943e+02 -1.1450066570e+03 1.2711820725e+03 0.0000000000e+00 0.0000e+00 -1.0000e+00
<mgrwt>
<rscale>  0 0.27996365E+04</rscale>
<asrwt>0</asrwt>
<pdfrwt beam="1">  1        2 0.23941774E+00 0.27996365E+04</pdfrwt>
<pdfrwt beam="2">  1       -2 0.19371367E+00 0.27996365E+04</pdfrwt>
<totfact> 0.17047010E+00</totfact>
</mgrwt>
<rwgt>
<wgt id='morphing_basis_vector_1'> +8.4213022e-05 </wgt>
<wgt id='morphing_basis_vector_2'> +1.0785957e-04 </wgt>
<wgt id='morphing_basis_vector_3'> +1.0199886e-04 </wgt>
<wgt id='morphing_basis_vector_4'> +1.1903855e-06 </wgt>
<wgt id='morphing_basis_vector_5'> +7.2357550e-05 </wgt>
</rwgt>
</event>
<event>
 4      1 +7.3133000e-09 2.88074100e+03 7.81860800e-03 7.78303000e-02
        2 -1    0    0  501    0 +0.0000000000e+00 +0.0000000000e+00 +1.5085023458e+03 1.5085023458e+03 0.0000000000e+00 0.0000e+00 -1.0000e+00
       -2 -1    0    0    0  501 -0.0000000000e+00 -0.0000000000e+00 -1.3753156809e+03 1.3753156809e+03 0.0000000000e+00 0.0000e+00 1.0000e+00
      -13  1    1    2    0    0 -6.5138778749e+02 +1.1730456016e+03 +5.9091315534e+02 1.4661242752e+03 0.0000000000e+00 0.0000e+00 1.0000e+00
       13  1    1    2    0    0 +6.5138778749e+02 -1.1730456016e+03 -4.5772649037e+02 1.4176937515e+03 0.0000000000e+00 0.0000e+00 -1.0000e+00
<mgrwt>
<rscale>  0 0.28807408E+04</rscale>
<asrwt>0</asrwt>
<pdfrwt beam="1">  1        2 0.23207728E+00 0.28807408E+04</pdfrwt>
<pdfrwt beam="2">  1       -2 0.21158703E+00 0.28807408E+04</pdfrwt>
<totfact> 0.13344481E+00</totfact>
</mgrwt>
<rwgt>
<wgt id='morphing_basis_vector_1'> +7.7690076e-05 </wgt>
<wgt id='morphing_basis_vector_2'> +7.1862634e-05 </wgt>
<wgt id='morphing_basis_vector_3'> +8.8568314e-05 </wgt>
<wgt id='morphing_basis_vector_4'> +3.5799903e-05 </wgt>
<wgt id='morphing_basis_vector_5'> +8.4021800e-05 </wgt>
</rwgt>
</event>
<event>
 4      1 +7.3133000e-09 2.80380300e+03 7.81860800e-03 7.80373400e-02
        2 -1    0    0  501    0 +0.0000000000e+00 +0.0000000000e+00 +1.0658349574e+03 1.0658349574e+03 0.0000000000e+00 0.0000e+00 -1.0000e+00
       -2 -1    0    0    0  501 -0.0000000000e+00 -0.0000000000e+00 -1.8439332248e+03 1.8439332248e+03 0.0000000000e+00 0.0000e+00 1.0000e+00
      -13  1    1    2    0    0 +1.6110936191e+02 +1.0921009297e+03 -1.2858176538e+03 1.6946880851e+03 0.0000000000e+00 0.0000e+00 1.0000e+00
       13  1    1    2    0    0 -1.6110936191e+02 -1.0921009297e+03 +5.0771938635e+02 1.2150800971e+03 0.0000000000e+00 0.0000e+00 -1.0000e+00
<mgrwt>
<rscale>  0 0.28038035E+04</rscale>
<asrwt>0</asrwt>
<pdfrwt beam="1">  1        2 0.16397461E+00 0.28038035E+04</pdfrwt>
<pdfrwt beam="2">  1       -2 0.28368203E+00 0.28038035E+04</pdfrwt>
<totfact> 0.76311899E-01</totfact>
</mgrwt>
<rwgt>
<wgt id='morphing_basis_vector_1'> +6.2216556e-05 </wgt>
<wgt id='morphing_basis_vector_2'> +4.2208117e-05 </wgt>
<wgt id='morphing_basis_vector_3'> +6.7694535e-05 </wgt>
<wgt id='morphing_basis_vector_4'> +4.7786308e-05 </wgt>
<wgt id='morphing_basis_vector_5'> +7.6604710e-05 </wgt>
</rwgt>
</event>
<event>
 4      1 +7.3133000e-09 2.98051000e+03 7.81860800e-03 7.75713800e-02
        2 -1    0    0  501    0 +0.0000000000e+00 +0.0000000000e+00 +1.5059800636e+03 1.5059800636e+03 0.0000000000e+00 0.0000e+00 1.0000e+00
       -2 -1    0    0    0  501 -0.0000000000e+00 -0.0000000000e+00 -1.4746941218e+03 1.4746941218e+03 0.0000000000e+00 0.0000e+00 -1.0000e+00
      -13  1    1    2    0    0 +5.6766059312e+02 +5.7472823719e+02 -1.2367474050e+03 1.4771916732e+03 0.0000000000e+00 0.0000e+00 -1.0000e+00
       13  1    1    2    0    0 -5.6766059312e+02 -5.7472823719e+02 +1.2680333469e+03 1.5034825121e+03 0.0000000000e+00 0.0000e+00 1.0000e+00
<mgrwt>
<rscale>  0 0.29805100E+04</rscale>
<asrwt>0</asrwt>
<pdfrwt beam="1">  1        2 0.23168924E+00 0.29805100E+04</pdfrwt>
<pdfrwt beam="2">  1       -2 0.22687602E+00 0.29805100E+04</pdfrwt>
<totfact> 0.10337216E+00</totfact>
</mgrwt>
<rwgt>
<wgt id='morphing_basis_vector_1'> +7.9101344e-05 </wgt>
<wgt id='morphing_basis_vector_2'> +5.3384604e-05 </wgt>
<wgt id='morphing_basis_vector_3'> +8.6184204e-05 </wgt>
<wgt id='morphing_basis_vector_4'> +6.1484222e-05 </wgt>
<wgt id='morphing_basis_vector_5'> +9.8075283e-05 </wgt>
</rwgt>
</event>
<event>
 4      1 +7.3133000e-09 2.74273300e+03 7.81860800e-03 7.82065300e-02
        2 -1    0    0  501    0 +0.0000000000e+00 +0.0000000000e+00 +3.9649212931e+03 3.9649212931e+03 0.0000000000e+00 0.0000e+00 -1.0000e+00
       -2 -1    0    0    0  501 -0.0000000000e+00 -0.0000000000e+00 -4.7432129956e+02 4.7432129956e+02 0.0000000000e+00 0.0000e+00 1.0000e+00
      -13  1    1    2    0    0 +7.7424011490e+01 -8.7561427251e+02 +4.1629056858e+01 8.8001580108e+02 0.0000000000e+00 0.0000e+00 1.0000e+00
       13  1    1    2    0    0 -7.7424011490e+01 +8.7561427251e+02 +3.4489709367e+03 3.5592267916e+03 0.0000000000e+00 0.0000e+00 -1.0000e+00
<mgrwt>
<rscale>  0 0.27427334E+04</rscale>
<asrwt>0</asrwt>
<pdfrwt beam="1">  1        2 0.60998787E+00 0.27427334E+04</pdfrwt>
<pdfrwt beam="2">  1       -2 0.72972510E-01 0.27427334E+04</pdfrwt>
<totfact> 0.62436563E-01</totfact>
</mgrwt>
<rwgt>
<wgt id='morphing_basis_vector_1'> +5.6934011e-05 </wgt>
<wgt id='morphing_basis_vector_2'> +3.8399523e-05 </wgt>
<wgt id='morphing_basis_vector_3'> +6.1851589e-05 </wgt>
<wgt id='morphing_basis_vector_4'> +4.3903634e-05 </wgt>
<wgt id='morphing_basis_vector_5'> +7.0096508e-05 </wgt>
</rwgt>
</event>
<event>
 4      1 +7.3133000e-09 2.75013300e+03 7.81860800e-03 7.81858000e-02
        2 -1    0    0  501    0 +0.0000000000e+00 +0.0000000000e+00 +1.2935750090e+03 1.2935750090e+03 0.0000000000e+00 0.0000e+00 -1.0000e+00
       -2 -1    0    0    0  501 -0.0000000000e+00 -0.0000000000e+00 -1.4616916798e+03 1.4616916798e+03 0.0000000000e+00 0.0000e+00 1.0000e+00
      -13  1    1    2    0    0 +1.2042908795e+03 -4.8240422760e+01 -7.4723369141e+02 1.4180979692e+03 0.0000000000e+00 0.0000e+00 1.0000e+00
       13  1    1    2    0    0 -1.2042908795e+03 +4.8240422760e+01 +5.7911702060e+02 1.3371687195e+03 0.0000000000e+00 0.0000e+00 -1.0000e+00
<mgrwt>
<rscale>  0 0.27501330E+04</rscale>
<asrwt>0</asrwt>
<pdfrwt beam="1">  1        2 0.19901154E+00 0.27501330E+04</pdfrwt>
<pdfrwt beam="2">  1       -2 0.22487564E+00 0.27501330E+04</pdfrwt>
<totfact> 0.14356297E+00</totfact>
</mgrwt>
<rwgt>
<wgt id='morphing_basis_vector_1'> +5.7787046e-05 </wgt>
<wgt id='morphing_basis_vector_2'> +3.9529550e-05 </wgt>
<wgt id='morphing_basis_vector_3'> +6.2897236e-05 </wgt>
<wgt id='morphing_basis_vector_4'> +4.3882111e-05 </wgt>
<wgt id='morphing_basis_vector_5'> +7.0823086e-05 </wgt>
</rwgt>
</event>
<event>
 4      1 +7.3133000e-09 2.67044900e+03 7.81860800e-03 7.84126800e-02
        2 -1    0    0  501    0 +0.0000000000e+00 +0.0000000000e+00 +1.8074415502e+03 1.8074415502e+03 0.0000000000e+00 0.0000e+00 -1.0000e+00
       -2 -1    0    0    0  501 -0.0000000000e+00 -0.0000000000e+00 -9.8638037307e+02 9.8638037307e+02 0.0000000000e+00 0.0000e+00 1.0000e+00
      -13  1    1    2    0    0 -6.7092015532e+02 -8.7473822015e+02 -3.7761513442e+02 1.1652870884e+03 0.0000000000e+00 0.0000e+00 1.0000e+00
       13  1    1    2    0    0 +6.7092015532e+02 +8.7473822015e+02 +1.1986763116e+03 1.6285348349e+03 0.0000000000e+00 0.0000e+00 -1.0000e+00
<mgrwt>
<rscale>  0 0.26704493E+04</rscale>
<asrwt>0</asrwt>
<pdfrwt beam="1">  1        2 0.27806793E+00 0.26704493E+04</pdfrwt>
<pdfrwt beam="2">  1       -2 0.15175083E+00 0.26704493E+04</pdfrwt>
<totfact> 0.26428912E+00</totfact>
</mgrwt>
<rwgt>
<wgt id='morphing_basis_vector_1'> +5.1350552e-05 </wgt>
<wgt id='morphing_basis_vector_2'> +3.4892433e-05 </wgt>
<wgt id='morphing_basis_vector_3'> +5.5781259e-05 </wgt>
<wgt id='morphing_basis_vector_4'> +3.9153747e-05 </wgt>
<wgt id='morphing_basis_vector_5'> +6.2899734e-05 </wgt>
</rwgt>
</event>
<event>
 4      1 +7.3133000e-09 3.04758400e+03 7.81860800e-03 7.74030900e-02
        2 -1    0    0  501    0 +0.0000000000e+00 +0.0000000000e+00 +2.6333554131e+03 2.6333554131e+03 0.0000000000e+00 0.0000e+00 -1.0000e+00
       -2 -1    0    0    0  501 -0.0000000000e+00 -0.0000000000e+00 -8.8174247066e+02 8.8174247066e+02 0.0000000000e+00 0.0000e+00 1.0000e+00
      -13  1    1    2    0    0 +1.1088420340e+02 +1.0184628548e+03 -4.2523196129e+02 1.1092268091e+03 0.0000000000e+00 0.0000e+00 1.0000e+00
       13  1    1    2    0    0 -1.1088420340e+02 -1.0184628548e+03 +2.1768449037e+03 2.4058710747e+03 0.0000000000e+00 0.0000e+00 -1.0000e+00
<mgrwt>
<rscale>  0 0.30475835E+04</rscale>
<asrwt>0</asrwt>
<pdfrwt beam="1">  1        2 0.40513160E+00 0.30475835E+04</pdfrwt>
<pdfrwt beam="2">  1       -2 0.13565269E+00 0.30475835E+04</pdfrwt>
<totfact> 0.11676041E+00</totfact>
</mgrwt>
<rwgt>
<wgt id='morphing_basis_vector_1'> +8.6448290e-05 </wgt>
<wgt id='morphing_basis_vector_2'> +5.8488360e-05 </wgt>
<wgt id='morphing_basis_vector_3'> +9.4283741e-05 </wgt>
<wgt id='morphing_basis_vector_4'> +6.7151688e-05 </wgt>
<wgt id='morphing_basis_vector_5'> +1.0728108e-04 </wgt>
</rwgt>
</event>
<event>
 4      1 +7.3133000e-09 2.84613100e+03 7.81860800e-03 7.79226200e-02
        2 -1    0    0  501    0 +0.0000000000e+00 +0.0000000000e+00 +2.7202340321e+03 2.7202340321e+03 0.0000000000e+00 0.0000e+00 1.0000e+00
       -2 -1    0    0    0  501 -0.0000000000e+00 -0.0000000000e+00 -7.4446385732e+02 7.4446385732e+02 0.0000000000e+00 0.0000e+00 -1.0000e+00
      -13  1    1    2    0    0 +1.0828650223e+03 -3.2718547842e+02 -6.3169336764e+01 1.1329772103e+03 0.0000000000e+00 0.0000e+00 -1.0000e+00
       13  1    1    2    0    0 -1.0828650223e+03 +3.2718547842e+02 +2.0389395115e+03 2.3317206791e+03 0.0000000000e+00 0.0000e+00 1.0000e+00
<mgrwt>
<rscale>  0 0.28461314E+04</rscale>
<asrwt>0</asrwt>
<pdfrwt beam="1">  1        2 0.41849754E+00 0.28461314E+04</pdfrwt>
<pdfrwt beam="2">  1       -2 0.11453290E+00 0.28461314E+04</pdfrwt>
<totfact> 0.16409756E+00</totfact>
</mgrwt>
<rwgt>
<wgt id='morphing_basis_vector_1'> +6.6028573e-05 </wgt>
<wgt id='morphing_basis_vector_2'> +4.4831948e-05 </wgt>
<wgt id='morphing_basis_vector_3'> +7.1887717e-05 </wgt>
<wgt id='morphing_basis_vector_4'> +5.0747809e-05 </wgt>
<wgt id='morphing_basis_vector_5'> +8.1383539e-05 </wgt>
</rwgt>
</event>
<event>
 4      1 +7.3133000e-09 3.19512400e+03 7.81860800e-03 7.70481700e-02
        2 -1    0    0  501    0 +0.0000000000e+00 +0.0000000000e+00 +2.1482628026e+03 2.1482628026e+03 0.0000000000e+00 0.0000e+00 -1.0000e+00
       -2 -1    0    0    0  501 -0.0000000000e+00 -0.0000000000e+00 -1.1880314902e+03 1.1880314902e+03 0.0000000000e+00 0.0000e+00 1.0000e+00
      -13  1    1    2    0    0 +1.0304449134e+03 -8.0947907383e+02 -4.7411621679e+02 1.3935061096e+03 0.0000000000e+00 0.0000e+00 1.0000e+00
       13  1    1    2    0    0 -1.0304449134e+03 +8.0947907383e+02 +1.4343475292e+03 1.9427881832e+03 0.0000000000e+00 0.0000e+00 -1.0000e+00
<mgrwt>
<rscale>  0 0.31951237E+04</rscale>
<asrwt>0</asrwt>
<pdfrwt beam="1">  1        2 0.33050197E+00 0.31951237E+04</pdfrwt>
<pdfrwt beam="2">  1       -2 0.18277408E+00 0.31951237E+04</pdfrwt>
<totfact> 0.92726745E-01</totfact>
</mgrwt>
<rwgt>
<wgt id='morphing_basis_vector_1'> +1.0449649e-04 </wgt>
<wgt id='morphing_basis_vector_2'> +7.1260122e-05 </wgt>
<wgt id='morphing_basis_vector_3'> +1.1424170e-04 </wgt>
<wgt id='morphing_basis_vector_4'> +8.0797377e-05 </wgt>
<wgt id='morphing_basis_vector_5'> +1.2977701e-04 </wgt>
</rwgt>
</event>
<event>
 4      1 +7.3133000e-09 2.72545700e+03 7.81860800e-03 7.82552100e-02
        2 -1    0    0  501    0 +0.0000000000e+00 +0.0000000000e+00 +3.6319657101e+03 3.6319657101e+03 0.0000000000e+00 0.0000e+00 -1.0000e+00
       -2 -1    0    0    0  501 -0.0000000000e+00 -0.0000000000e+00 -5.1130126580e+02 5.1130126580e+02 0.0000000000e+00 0.0000e+00 1.0000e+00
      -13  1    1    2    0    0 -4.4505312901e+02 +1.2825240687e+03 +1.7407728418e+03 2.2075394359e+03 0.0000000000e+00 0.0000e+00 1.0000e+00
       13  1    1    2    0    0 +4.4505312901e+02 -1.2825240687e+03 +1.3798916025e+03 1.9357275400e+03 0.0000000000e+00 0.0000e+00 -1.0000e+00
<mgrwt>
<rscale>  0 0.27254568E+04</rscale>
<asrwt>0</asrwt>
<pdfrwt beam="1">  1        2 0.55876394E+00 0.27254568E+04</pdfrwt>
<pdfrwt beam="2">  1       -2 0.78661735E-01 0.27254568E+04</pdfrwt>
<totfact> 0.97482261E-01</totfact>
</mgrwt>
<rwgt>
<wgt id='morphing_basis_vector_1'> +5.8262183e-05 </wgt>
<wgt id='morphing_basis_vector_2'> +4.5504408e-05 </wgt>
<wgt id='morphing_basis_vector_3'> +6.4536698e-05 </wgt>
<wgt id='morphing_basis_vector_4'> +3.7147847e-05 </wgt>
<wgt id='morphing_basis_vector_5'> +6.7867362e-05 </wgt>
</rwgt>
</event>
<event>
 4      1 +7.3133000e-09 3.15100900e+03 7.81860800e-03 7.71521800e-02
        2 -1    0    0  501    0 +0.0000000000e+00 +0.0000000000e+00 +2.3441053916e+03 2.3441053916e+03 0.0000000000e+00 0.0000e+00 1.0000e+00
       -2 -1    0    0    0  501 -0.0000000000e+00 -0.0000000000e+00 -1.0589173263e+03 1.0589173263e+03 0.0000000000e+00 0.0000e+00 -1.0000e+00
      -13  1    1    2    0    0 -8.6203114249e+02 -6.4512937667e+02 -5.9958084278e+02 1.2323906809e+03 0.0000000000e+00 0.0000e+00 -1.0000e+00
       13  1    1    2    0    0 +8.6203114249e+02 +6.4512937667e+02 +1.8847689081e+03 2.1706320370e+03 0.0000000000e+00 0.0000e+00 1.0000e+00
<mgrwt>
<rscale>  0 0.31510086E+04</rscale>
<asrwt>0</asrwt>
<pdfrwt beam="1">  1        2 0.36063160E+00 0.31510086E+04</pdfrwt>
<pdfrwt beam="2">  1       -2 0.16291036E+00 0.31510086E+04</pdfrwt>
<totfact> 0.10221209E+00</totfact>
</mgrwt>
<rwgt>
<wgt id='morphing_basis_vector_1'> +9.8690482e-05 </wgt>
<wgt id='morphing_basis_vector_2'> +6.6835082e-05 </wgt>
<wgt id='morphing_basis_vector_3'> +1.0775339e-04 </wgt>
<wgt id='morphing_basis_vector_4'> +7.6807477e-05 </wgt>
<wgt id='morphing_basis_vector_5'> +1.2273688e-04 </wgt>
</rwgt>
</event>
<event>
 4      1 +7.3133000e-09 3.07789700e+03 7.81860800e-03 7.73284900e-02
        2 -1    0    0  501    0 +0.0000000000e+00 +0.0000000000e+00 +1.0450037144e+03 1.0450037144e+03 0.0000000000e+00 0.0000e+00 -1.0000e+00
       -2 -1    0    0    0  501 -0.0000000000e+00 -0.0000000000e+00 -2.2663668467e+03 2.2663668467e+03 0.0000000000e+00 0.0000e+00 1.0000e+00
      -13  1    1    2    0    0 -1.1880674487e+03 -6.6089041214e+02 -1.3865523821e+03 1.9418568197e+03 0.0000000000e+00 0.0000e+00 1.0000e+00
       13  1    1    2    0    0 +1.1880674487e+03 +6.6089041214e+02 +1.6518924989e+02 1.3695137414e+03 0.0000000000e+00 0.0000e+00 -1.0000e+00
<mgrwt>
<rscale>  0 0.30778965E+04</rscale>
<asrwt>0</asrwt>
<pdfrwt beam="1">  1        2 0.16076980E+00 0.30778965E+04</pdfrwt>
<pdfrwt beam="2">  1       -2 0.34867182E+00 0.30778965E+04</pdfrwt>
<totfact> 0.28287343E-01</totfact>
</mgrwt>
<rwgt>
<wgt id='morphing_basis_vector_1'> +9.0299696e-05 </wgt>
<wgt id='morphing_basis_vector_2'> +6.1994039e-05 </wgt>
<wgt id='morphing_basis_vector_3'> +9.8703136e-05 </wgt>
<wgt id='morphing_basis_vector_4'> +6.9070227e-05 </wgt>
<wgt id='morphing_basis_vector_5'> +1.1158386e-04 </wgt>
</rwgt>
</event>
<event>
 4      1 +7.3133000e-09 2.82442700e+03 7.81860800e-03 7.79811900e-02
        2 -1    0    0  501    0 +0.0000000000e+00 +0.0000000000e+00 +1.1114321551e+03 1.1114321551e+03 0.0000000000e+00 0.0000e+00 -1.0000e+00
       -2 -1    0    0    0  501 -0.0000000000e+00 -0.0000000000e+00 -1.7943936909e+03 1.7943936909e+03 0.0000000000e+00 0.0000e+00 1.0000e+00
      -13  1    1    2    0    0 -1.0477190782e+02 -8.9182965845e+02 -1.4628514771e+03 1.7164707211e+03 0.0000000000e+00 0.0000e+00 1.0000e+00
       13  1    1    2    0    0 +1.0477190782e+02 +8.9182965845e+02 +7.7988994135e+02 1.1893551248e+03 0.0000000000e+00 0.0000e+00 -1.0000e+00
<mgrwt>
<rscale>  0 0.28244269E+04</rscale>
<asrwt>0</asrwt>
<pdfrwt beam="1">  1        2 0.17098956E+00 0.28244269E+04</pdfrwt>
<pdfrwt beam="2">  1       -2 0.27606057E+00 0.28244269E+04</pdfrwt>
<totfact> 0.80585709E-01</totfact>
</mgrwt>
<rwgt>
<wgt id='morphing_basis_vector_1'> +6.3945408e-05 </wgt>
<wgt id='morphing_basis_vector_2'> +4.3155875e-05 </wgt>
<wgt id='morphing_basis_vector_3'> +6.9547440e-05 </wgt>
<wgt id='morphing_basis_vector_4'> +4.9434725e-05 </wgt>
<wgt id='morphing_basis_vector_5'> +7.8924283e-05 </wgt>
</rwgt>
</event>
<event>
 4      1 +7.3133000e-09 3.00956000e+03 7.81860800e-03 7.74979300e-02
        2 -1    0    0  501    0 +0.0000000000e+00 +0.0000000000e+00 +1.9300529219e+03 1.9300529219e+03 0.0000000000e+00 0.0000e+00 -1.0000e+00
       -2 -1    0    0    0  501 -0.0000000000e+00 -0.0000000000e+00 -1.1732125453e+03 1.1732125453e+03 0.0000000000e+00 0.0000e+00 1.0000e+00
      -13  1    1    2    0    0 -1.3035164416e+03 +2.4458336800e+02 -3.5461977007e+02 1.3728551704e+03 0.0000000000e+00 0.0000e+00 1.0000e+00
       13  1    1    2    0    0 +1.3035164416e+03 -2.4458336800e+02 +1.1114601467e+03 1.7304102968e+03 0.0000000000e+00 0.0000e+00 -1.0000e+00
<mgrwt>
<rscale>  0 0.30095596E+04</rscale>
<asrwt>0</asrwt>
<pdfrwt beam="1">  1        2 0.29693122E+00 0.30095596E+04</pdfrwt>
<pdfrwt beam="2">  1       -2 0.18049424E+00 0.30095596E+04</pdfrwt>
<totfact> 0.13015696E+00</totfact>
</mgrwt>
<rwgt>
<wgt id='morphing_basis_vector_1'> +8.2600412e-05 </wgt>
<wgt id='morphing_basis_vector_2'> +5.6663306e-05 </wgt>
<wgt id='morphing_basis_vector_3'> +9.0215907e-05 </wgt>
<wgt id='morphing_basis_vector_4'> +6.3107303e-05 </wgt>
<wgt id='morphing_basis_vector_5'> +1.0192201e-04 </wgt>
</rwgt>
</event>
<event>
 4      1 +7.3133000e-09 2.73702100e+03 7.81860800e-03 7.82225900e-02
        2 -1    0    0  501    0 +0.0000000000e+00 +0.0000000000e+00 +2.3942887675e+03 2.3942887675e+03 0.0000000000e+00 0.0000e+00 -1.0000e+00
       -2 -1    0    0    0  501 -0.0000000000e+00 -0.0000000000e+00 -7.8220358622e+02 7.8220358622e+02 0.0000000000e+00 0.0000e+00 1.0000e+00
      -13  1    1    2    0    0 +7.5301051382e+00 -1.2097379278e+03 +1.5485312726e+03 1.9650627620e+03 0.0000000000e+00 0.0000e+00 -1.0000e+00
       13  1    1    2    0    0 -7.5301051382e+00 +1.2097379278e+03 +6.3553908637e+01 1.2114295917e+03 0.0000000000e+00 0.0000e+00 1.0000e+00
<mgrwt>
<rscale>  0 0.27370212E+04</rscale>
<asrwt>0</asrwt>
<pdfrwt beam="1">  1        2 0.36835212E+00 0.27370212E+04</pdfrwt>
<pdfrwt beam="2">  1       -2 0.12033901E+00 0.27370212E+04</pdfrwt>
<totfact> 0.22920279E+00</totfact>
</mgrwt>
<rwgt>
<wgt id='morphing_basis_vector_1'> +6.5939983e-05 </wgt>
<wgt id='morphing_basis_vector_2'> +6.6007790e-05 </wgt>
<wgt id='morphing_basis_vector_3'> +7.5996925e-05 </wgt>
<wgt id='morphing_basis_vector_4'> +2.3953556e-05 </wgt>
<wgt id='morphing_basis_vector_5'> +6.7909114e-05 </wgt>
</rwgt>
</event>
<event>
 4      1 +7.3133000e-09 2.99099600e+03 7.81860800e-03 7.75447700e-02
        2 -1    0    0  501    0 +0.0000000000e+00 +0.0000000000e+00 +1.7428660647e+03 1.7428660647e+03 0.0000000000e+00 0.0000e+00 -1.0000e+00
       -2 -1    0    0    0  501 -0.0000000000e+00 -0.0000000000e+00 -1.2832393336e+03 1.2832393336e+03 0.0000000000e+00 0.0000e+00 1.0000e+00
      -13  1    1    2    0    0 -5.5360898209e+02 -6.4141061953e+02 -1.0169766538e+03 1.3236812314e+03 0.0000000000e+00 0.0000e+00 1.0000e+00
       13  1    1    2    0    0 +5.5360898209e+02 +6.4141061953e+02 +1.4766033849e+03 1.7024241670e+03 0.0000000000e+00 0.0000e+00 -1.0000e+00
<mgrwt>
<rscale>  0 0.29909960E+04</rscale>
<asrwt>0</asrwt>
<pdfrwt beam="1">  1        2 0.26813324E+00 0.29909960E+04</pdfrwt>
<pdfrwt beam="2">  1       -2 0.19742144E+00 0.29909960E+04</pdfrwt>
<totfact> 0.12398520E+00</totfact>
</mgrwt>
<rwgt>
<wgt id='morphing_basis_vector_1'> +8.0215896e-05 </wgt>
<wgt id='morphing_basis_vector_2'> +5.4154155e-05 </wgt>
<wgt id='morphing_basis_vector_3'> +8.7411752e-05 </wgt>
<wgt id='morphing_basis_vector_4'> +6.2349585e-05 </wgt>
<wgt id='morphing_basis_vector_5'> +9.9474282e-05 </wgt>
</rwgt>
</event>
<event>
 4      1 +7.3133000e-09 2.89962500e+03 7.81860800e-03 7.77804900e-02
        2 -1    0    0  501    0 +0.0000000000e+00 +0.0000000000e+00 +3.3692012689e+03 3.3692012689e+03 0.0000000000e+00 0.0000e+00 -1.0000e+00
       -2 -1    0    0    0  501 -0.0000000000e+00 -0.0000000000e+00 -6.2387368579e+02 6.2387368579e+02 0.0000000000e+00 0.0000e+00 1.0000e+00
      -13  1    1    2    0    0 -9.8082841837e+00 -6.1704239404e+02 -4.3397379277e+02 7.5443407352e+02 0.0000000000e+00 0.0000e+00 1.0000e+00
       13  1    1    2    0    0 +9.8082841837e+00 +6.1704239404e+02 +3.1793013758e+03 3.2386408811e+03 0.0000000000e+00 0.0000e+00 -1.0000e+00
<mgrwt>
<rscale>  0 0.28996248E+04</rscale>
<asrwt>0</asrwt>
<pdfrwt beam="1">  1        2 0.51833865E+00 0.28996248E+04</pdfrwt>
<pdfrwt beam="2">  1       -2 0.95980569E-01 0.28996248E+04</pdfrwt>
<totfact> 0.94246549E-01</totfact>
</mgrwt>
<rwgt>
<wgt id='morphing_basis_vector_1'> +7.0917182e-05 </wgt>
<wgt id='morphing_basis_vector_2'> +4.7798538e-05 </wgt>
<wgt id='morphing_basis_vector_3'> +7.7185895e-05 </wgt>
<wgt id='morphing_basis_vector_4'> +5.5052519e-05 </wgt>
<wgt id='morphing_basis_vector_5'> +8.7767869e-05 </wgt>
</rwgt>
</event>
<event>
 4      1 +7.3133000e-09 2.75757900e+03 7.81860800e-03 7.81650000e-02
        2 -1    0    0  501    0 +0.0000000000e+00 +0.0000000000e+00 +1.9243270284e+03 1.9243270284e+03 0.0000000000e+00 0.0000e+00 -1.0000e+00
       -2 -1    0    0    0  501 -0.0000000000e+00 -0.0000000000e+00 -9.8790916246e+02 9.8790916246e+02 0.0000000000e+00 0.0000e+00 1.0000e+00
      -13  1    1    2    0    0 +2.7282767693e+01 -4.7256105968e+02 -8.9941106436e+02 1.0163653709e+03 0.0000000000e+00 0.0000e+00 1.0000e+00
       13  1    1    2    0    0 -2.7282767693e+01 +4.7256105968e+02 +1.8358289303e+03 1.8958708200e+03 0.0000000000e+00 0.0000e+00 -1.0000e+00
<mgrwt>
<rscale>  0 0.27575789E+04</rscale>
<asrwt>0</asrwt>
<pdfrwt beam="1">  1        2 0.29605031E+00 0.27575789E+04</pdfrwt>
<pdfrwt beam="2">  1       -2 0.15198603E+00 0.27575789E+04</pdfrwt>
<totfact> 0.22470685E+00</totfact>
</mgrwt>
<rwgt>
<wgt id='morphing_basis_vector_1'> +5.8124623e-05 </wgt>
<wgt id='morphing_basis_vector_2'> +3.9120335e-05 </wgt>
<wgt id='morphing_basis_vector_3'> +6.3140853e-05 </wgt>
<wgt id='morphing_basis_vector_4'> +4.4951595e-05 </wgt>
<wgt id='morphing_basis_vector_5'> +7.1649353e-05 </wgt>
</rwgt>
</event>
<event>
 4      1 +7.3133000e-09 2.72821400e+03 7.81860800e-03 7.82474200e-02
        2 -1    0    0  501    0 +0.0000000000e+00 +0.0000000000e+00 +2.1951703390e+03 2.1951703390e+03 0.0000000000e+00 0.0000e+00 1.0000e+00
       -2 -1    0    0    0  501 -0.0000000000e+00 -0.0000000000e+00 -8.4767355165e+02 8.4767355165e+02 0.0000000000e+00 0.0000e+00 -1.0000e+00
      -13  1    1    2    0    0 -4.1621604606e+02 +1.1240108313e+03 +1.4001249998e+03 1.8430914685e+03 0.0000000000e+00 0.0000e+00 1.0000e+00
       13  1    1    2    0    0 +4.1621604606e+02 -1.1240108313e+03 -5.2628212447e+01 1.1997524222e+03 0.0000000000e+00 0.0000e+00 -1.0000e+00
<mgrwt>
<rscale>  0 0.27282139E+04</rscale>
<asrwt>0</asrwt>
<pdfrwt beam="1">  1        2 0.33771851E+00 0.27282139E+04</pdfrwt>
<pdfrwt beam="2">  1       -2 0.13041132E+00 0.27282139E+04</pdfrwt>
<totfact> 0.24215393E+00</totfact>
</mgrwt>
<rwgt>
<wgt id='morphing_basis_vector_1'> +6.5366959e-05 </wgt>
<wgt id='morphing_basis_vector_2'> +6.5942923e-05 </wgt>
<wgt id='morphing_basis_vector_3'> +7.5425593e-05 </wgt>
<wgt id='morphing_basis_vector_4'> +2.3101344e-05 </wgt>
<wgt id='morphing_basis_vector_5'> +6.6986119e-05 </wgt>
</rwgt>
</event>
<event>
 4      1 +7.3133000e-09 2.88704500e+03 7.81860800e-03 7.78136300e-02
        2 -1    0    0  501    0 +0.0000000000e+00 +0.0000000000e+00 +3.3282661936e+03 3.3282661936e+03 0.0000000000e+00 0.0000e+00 -1.0000e+00
       -2 -1    0    0    0  501 -0.0000000000e+00 -0.0000000000e+00 -6.2607870522e+02 6.2607870522e+02 0.0000000000e+00 0.0000e+00 1.0000e+00
      -13  1    1    2    0    0 -5.2106462884e+02 +1.3458271718e+03 +1.3943520982e+03 2.0067328914e+03 0.0000000000e+00 0.0000e+00 1.0000e+00
       13  1    1    2    0    0 +5.2106462884e+02 -1.3458271718e+03 +1.3078353902e+03 1.9476120074e+03 0.0000000000e+00 0.0000e+00 -1.0000e+00
<mgrwt>
<rscale>  0 0.28870446E+04</rscale>
<asrwt>0</asrwt>
<pdfrwt beam="1">  1        2 0.51204094E+00 0.28870446E+04</pdfrwt>
<pdfrwt beam="2">  1       -2 0.96319803E-01 0.28870446E+04</pdfrwt>
<totfact> 0.99974275E-01</totfact>
</mgrwt>
<rwgt>
<wgt id='morphing_basis_vector_1'> +7.2467242e-05 </wgt>
<wgt id='morphing_basis_vector_2'> +5.5111875e-05 </wgt>
<wgt id='morphing_basis_vector_3'> +8.0157886e-05 </wgt>
<wgt id='morphing_basis_vector_4'> +4.8362610e-05 </wgt>
<wgt id='morphing_basis_vector_5'> +8.5770406e-05 </wgt>
</rwgt>
</event>
<event>
 4      1 +7.3133000e-09 2.77339200e+03 7.81860800e-03 7.81210400e-02
        2 -1    0    0  501    0 +0.0000000000e+00 +0.0000000000e+00 +2.8414880590e+03 2.8414880590e+03 0.0000000000e+00 0.0000e+00 1.0000e+00
       -2 -1    0    0    0  501 -0.0000000000e+00 -0.0000000000e+00 -6.7673186974e+02 6.7673186974e+02 0.0000000000e+00 0.0000e+00 -1.0000e+00
      -13  1    1    2    0    0 +9.1055590406e+02 -3.4169460927e+02 -1.7154813781e+02 9.8757076911e+02 0.0000000000e+00 0.0000e+00 -1.0000e+00
       13  1    1    2    0    0 -9.1055590406e+02 +3.4169460927e+02 +2.3363043271e+03 2.5306491597e+03 0.0000000000e+00 0.0000e+00 1.0000e+00
<mgrwt>
<rscale>  0 0.27733918E+04</rscale>
<asrwt>0</asrwt>
<pdfrwt beam="1">  1        2 0.43715200E+00 0.27733918E+04</pdfrwt>
<pdfrwt beam="2">  1       -2 0.10411260E+00 0.27733918E+04</pdfrwt>
<totfact> 0.17604745E+00</totfact>
</mgrwt>
<rwgt>
<wgt id='morphing_basis_vector_1'> +5.9520359e-05 </wgt>
<wgt id='morphing_basis_vector_2'> +4.0214497e-05 </wgt>
<wgt id='morphing_basis_vector_3'> +6.4701997e-05 </wgt>
<wgt id='morphing_basis_vector_4'> +4.5866720e-05 </wgt>
<wgt id='morphing_basis_vector_5'> +7.3313427e-05 </wgt>
</rwgt>
</event>
<event>
 4      1 +7.3133000e-09 2.79907400e+03 7.81860800e-03 7.80502900e-02
        2 -1    0    0  501    0 +0.0000000000e+00 +0.0000000000e+00 +2.0278479131e+03 2.0278479131e+03 0.0000000000e+00 0.0000e+00 1.0000e+00
       -2 -1    0    0    0  501 -0.0000000000e+00 -0.0000000000e+00 -9.6590261116e+02 9.6590261116e+02 0.0000000000e+00 0.0000e+00 -1.0000e+00
      -13  1    1    2    0    0 -1.3133203760e+03 +3.4475205771e+02 +1.6820865002e+02 1.3681953593e+03 0.0000000000e+00 0.0000e+00 -1.0000e+00
       13  1    1    2    0    0 +1.3133203760e+03 -3.4475205771e+02 +8.9373665192e+02 1.6255551649e+03 0.0000000000e+00 0.0000e+00 1.0000e+00
<mgrwt>
<rscale>  0 0.27990738E+04</rscale>
<asrwt>0</asrwt>
<pdfrwt beam="1">  1        2 0.31197660E+00 0.27990738E+04</pdfrwt>
<pdfrwt beam="2">  1       -2 0.14860040E+00 0.27990738E+04</pdfrwt>
<totfact> 0.20886642E+00</totfact>
</mgrwt>
<rwgt>
<wgt id='morphing_basis_vector_1'> +6.2559177e-05 </wgt>
<wgt id='morphing_basis_vector_2'> +4.4156242e-05 </wgt>
<wgt id='morphing_basis_vector_3'> +6.8414123e-05 </wgt>
<wgt id='morphing_basis_vector_4'> +4.5893787e-05 </wgt>
<wgt id='morphing_basis_vector_5'> +7.5955665e-05 </wgt>
</rwgt>
</event>
<event>
 4      1 +7.3133000e-09 2.67297400e+03 7.81860800e-03 7.84053700e-02
        2 -1    0    0  501    0 +0.0000000000e+00 +0.0000000000e+00 +1.3939342375e+03 1.3939342375e+03 0.0000000000e+00 0.0000e+00 -1.0000e+00
       -2 -1    0    0    0  501 -0.0000000000e+00 -0.0000000000e+00 -1.2814074554e+03 1.2814074554e+03 0.0000000000e+00 0.0000e+00 1.0000e+00
      -13  1    1    2    0    0 +6.7152704553e+02 -6.1485396357e+02 -9.2297107967e+02 1.2964835453e+03 0.0000000000e+00 0.0000e+00 1.0000e+00
       13  1    1    2    0    0 -6.7152704553e+02 +6.1485396357e+02 +1.0354978618e+03 1.3788581476e+03 0.0000000000e+00 0.0000e+00 -1.0000e+00
<mgrwt>
<rscale>  0 0.26729742E+04</rscale>
<asrwt>0</asrwt>
<pdfrwt beam="1">  1        2 0.21445142E+00 0.26729742E+04</pdfrwt>
<pdfrwt beam="2">  1       -2 0.19713961E+00 0.26729742E+04</pdfrwt>
<totfact> 0.20051449E+00</totfact>
</mgrwt>
<rwgt>
<wgt id='morphing_basis_vector_1'> +5.1431708e-05 </wgt>
<wgt id='morphing_basis_vector_2'> +3.4696378e-05 </wgt>
<wgt id='morphing_basis_vector_3'> +5.5821030e-05 </wgt>
<wgt id='morphing_basis_vector_4'> +3.9532805e-05 </wgt>
<wgt id='morphing_basis_vector_5'> +6.3159303e-05 </wgt>
</rwgt>
</event>
<event>
 4      1 +7.3133000e-09 2.80283700e+03 7.81860800e-03 7.80399800e-02
        2 -1    0    0  501    0 +0.0000000000e+00 +0.0000000000e+00 +1.3990256883e+03 1.3990256883e+03 0.0000000000e+00 0.0000e+00 -1.0000e+00
       -2 -1    0    0    0  501 -0.0000000000e+00 -0.0000000000e+00 -1.4038158337e+03 1.4038158337e+03 0.0000000000e+00 0.0000e+00 1.0000e+00
      -13  1    1    2    0    0 +8.3631099140e+02 -7.9244572431e+02 -8.0026095874e+02 1.4027843392e+03 0.0000000000e+00 0.0000e+00 1.0000e+00
       13  1    1    2    0    0 -8.3631099140e+02 +7.9244572431e+02 +7.9547081326e+02 1.4000571828e+03 0.0000000000e+00 0.0000e+00 -1.0000e+00
<mgrwt>
<rscale>  0 0.28028374E+04</rscale>
<asrwt>0</asrwt>
<pdfrwt beam="1">  1        2 0.21523472E+00 0.28028374E+04</pdfrwt>
<pdfrwt beam="2">  1       -2 0.21597167E+00 0.28028374E+04</pdfrwt>
<totfact> 0.14397030E+00</totfact>
</mgrwt>
<rwgt>
<wgt id='morphing_basis_vector_1'> +6.2179012e-05 </wgt>
<wgt id='morphing_basis_vector_2'> +4.2289531e-05 </wgt>
<wgt id='morphing_basis_vector_3'> +6.7674727e-05 </wgt>
<wgt id='morphing_basis_vector_4'> +4.7621929e-05 </wgt>
<wgt id='morphing_basis_vector_5'> +7.6490108e-05 </wgt>
</rwgt>
</event>
<event>
 4      1 +7.3133000e-09 2.69383500e+03 7.81860800e-03 7.83452700e-02
        2 -1    0    0  501    0 +0.0000000000e+00 +0.0000000000e+00 +2.6755643949e+03 2.6755643949e+03 0.0000000000e+00 0.0000e+00 -1.0000e+00
       -2 -1    0    0    0  501 -0.0000000000e+00 -0.0000000000e+00 -6.7805775496e+02 6.7805775496e+02 0.0000000000e+00 0.0000e+00 1.0000e+00
      -13  1    1    2    0    0 +9.5273114785e+02 -9.3462902702e+02 +1.2247650329e+03 1.8114296686e+03 0.0000000000e+00 0.0000e+00 1.0000e+00
       13  1    1    2    0    0 -9.5273114785e+02 +9.3462902702e+02 +7.7274160705e+02 1.5421924813e+03 0.0000000000e+00 0.0000e+00 -1.0000e+00
<mgrwt>
<rscale>  0 0.26938353E+04</rscale>
<asrwt>0</asrwt>
<pdfrwt beam="1">  1        2 0.41162529E+00 0.26938353E+04</pdfrwt>
<pdfrwt beam="2">  1       -2 0.10431658E+00 0.26938353E+04</pdfrwt>
<totfact> 0.22377617E+00</totfact>
</mgrwt>
<rwgt>
<wgt id='morphing_basis_vector_1'> +5.6107983e-05 </wgt>
<wgt id='morphing_basis_vector_2'> +4.4839516e-05 </wgt>
<wgt id='morphing_basis_vector_3'> +6.2323040e-05 </wgt>
<wgt id='morphing_basis_vector_4'> +3.4457530e-05 </wgt>
<wgt id='morphing_basis_vector_5'> +6.4659784e-05 </wgt>
</rwgt>
</event>
<event>
 4      1 +7.3133000e-09 3.09984800e+03 7.81860800e-03 7.72750300e-02
        2 -1    0    0  501    0 +0.0000000000e+00 +0.0000000000e+00 +1.0578556674e+03 1.0578556674e+03 0.0000000000e+00 0.0000e+00 -1.0000e+00
       -2 -1    0    0    0  501 -0.0000000000e+00 -0.0000000000e+00 -2.2708813191e+03 2.2708813191e+03 0.0000000000e+00 0.0000e+00 1.0000e+00
      -13  1    1    2    0    0 -1.0102453052e+03 +7.3317635841e+01 -1.8662925291e+03 2.1234450444e+03 0.0000000000e+00 0.0000e+00 1.0000e+00
       13  1    1    2    0    0 +1.0102453052e+03 -7.3317635841e+01 +6.5326687746e+02 1.2052919421e+03 0.0000000000e+00 0.0000e+00 -1.0000e+00
<mgrwt>
<rscale>  0 0.30998482E+04</rscale>
<asrwt>0</asrwt>
<pdfrwt beam="1">  1        2 0.16274703E+00 0.30998482E+04</pdfrwt>
<pdfrwt beam="2">  1       -2 0.34936635E+00 0.30998482E+04</pdfrwt>
<totfact> 0.27443827E-01</totfact>
</mgrwt>
<rwgt>
<wgt id='morphing_basis_vector_1'> +9.2466608e-05 </wgt>
<wgt id='morphing_basis_vector_2'> +6.2555463e-05 </wgt>
<wgt id='morphing_basis_vector_3'> +1.0089712e-04 </wgt>
<wgt id='morphing_basis_vector_4'> +7.1942723e-05 </wgt>
<wgt id='morphing_basis_vector_5'> +1.1489977e-04 </wgt>
</rwgt>
</event>
<event>
 4      1 +7.3133000e-09 2.97683900e+03 7.81860800e-03 7.75807200e-02
        2 -1    0    0  501    0 +0.0000000000e+00 +0.0000000000e+00 +1.4219601852e+03 1.4219601852e+03 0.0000000000e+00 0.0000e+00 1.0000e+00
       -2 -1    0    0    0  501 -0.0000000000e+00 -0.0000000000e+00 -1.5579849555e+03 1.5579849555e+03 0.0000000000e+00 0.0000e+00 -1.0000e+00
      -13  1    1    2    0    0 -9.1562956647e+02 +4.1038259166e+02 -1.1685235076e+03 1.5402073115e+03 0.0000000000e+00 0.0000e+00 -1.0000e+00
       13  1    1    2    0    0 +9.1562956647e+02 -4.1038259166e+02 +1.0324987373e+03 1.4397378293e+03 0.0000000000e+00 0.0000e+00 1.0000e+00
<mgrwt>
<rscale>  0 0.29768390E+04</rscale>
<asrwt>0</asrwt>
<pdfrwt beam="1">  1        2 0.21876311E+00 0.29768390E+04</pdfrwt>
<pdfrwt beam="2">  1       -2 0.23968999E+00 0.29768390E+04</pdfrwt>
<totfact> 0.93741543E-01</totfact>
</mgrwt>
<rwgt>
<wgt id='morphing_basis_vector_1'> +7.8764129e-05 </wgt>
<wgt id='morphing_basis_vector_2'> +5.3265021e-05 </wgt>
<wgt id='morphing_basis_vector_3'> +8.5836044e-05 </wgt>
<wgt id='morphing_basis_vector_4'> +6.1078927e-05 </wgt>
<wgt id='morphing_basis_vector_5'> +9.7580426e-05 </wgt>
</rwgt>
</event>
<event>
 4      1 +7.3133000e-09 2.74034200e+03 7.81860800e-03 7.82132500e-02
        2 -1    0    0  501    0 +0.0000000000e+00 +0.0000000000e+00 +1.9065061933e+03 1.9065061933e+03 0.0000000000e+00 0.0000e+00 -1.0000e+00
       -2 -1    0    0    0  501 -0.0000000000e+00 -0.0000000000e+00 -9.8471671120e+02 9.8471671120e+02 0.0000000000e+00 0.0000e+00 1.0000e+00
      -13  1    1    2    0    0 -8.4626272218e+02 +5.0689878310e+02 -5.4238916355e+02 1.1257410786e+03 0.0000000000e+00 0.0000e+00 1.0000e+00
       13  1    1    2    0    0 +8.4626272218e+02 -5.0689878310e+02 +1.4641786457e+03 1.7654818260e+03 0.0000000000e+00 0.0000e+00 -1.0000e+00
<mgrwt>
<rscale>  0 0.27403420E+04</rscale>
<asrwt>0</asrwt>
<pdfrwt beam="1">  1        2 0.29330864E+00 0.27403420E+04</pdfrwt>
<pdfrwt beam="2">  1       -2 0.15149488E+00 0.27403420E+04</pdfrwt>
<totfact> 0.23242275E+00</totfact>
</mgrwt>
<rwgt>
<wgt id='morphing_basis_vector_1'> +5.6773064e-05 </wgt>
<wgt id='morphing_basis_vector_2'> +3.8370159e-05 </wgt>
<wgt id='morphing_basis_vector_3'> +6.1690816e-05 </wgt>
<wgt id='morphing_basis_vector_4'> +4.3676344e-05 </wgt>
<wgt id='morphing_basis_vector_5'> +6.9843819e-05 </wgt>
</rwgt>
</event>
<event>
 4      1 +7.3133000e-09 2.94260400e+03 7.81860800e-03 7.76685200e-02
        2 -1    0    0  501    0 +0.0000000000e+00 +0.0000000000e+00 +1.6852710994e+03 1.6852710994e+03 0.0000000000e+00 0.0000e+00 -1.0000e+00
       -2 -1    0    0    0  501 -0.0000000000e+00 -0.0000000000e+00 -1.2844993080e+03 1.2844993080e+03 0.0000000000e+00 0.0000e+00 1.0000e+00
      -13  1    1    2    0    0 +2.2281902215e+02 +3.3701269773e+02 -1.2274202696e+03 1.2922021488e+03 0.0000000000e+00 0.0000e+00 1.0000e+00
       13  1    1    2    0    0 -2.2281902215e+02 -3.3701269773e+02 +1.6281920610e+03 1.6775682587e+03 0.0000000000e+00 0.0000e+00 -1.0000e+00
<mgrwt>
<rscale>  0 0.29426040E+04</rscale>
<asrwt>0</asrwt>
<pdfrwt beam="1">  1        2 0.25927248E+00 0.29426040E+04</pdfrwt>
<pdfrwt beam="2">  1       -2 0.19761528E+00 0.29426040E+04</pdfrwt>
<totfact> 0.13358830E+00</totfact>
</mgrwt>
<rwgt>
<wgt id='morphing_basis_vector_1'> +7.5167409e-05 </wgt>
<wgt id='morphing_basis_vector_2'> +5.0665563e-05 </wgt>
<wgt id='morphing_basis_vector_3'> +8.1851474e-05 </wgt>
<wgt id='morphing_basis_vector_4'> +5.8434555e-05 </wgt>
<wgt id='morphing_basis_vector_5'> +9.3140750e-05 </wgt>
</rwgt>
</event>
<event>
 4      1 +7.3133000e-09 3.08433700e+03 7.81860800e-03 7.73127600e-02
        2 -1    0    0  501    0 +0.0000000000e+00 +0.0000000000e+00 +1.8579750821e+03 1.8579750821e+03 0.0000000000e+00 0.0000e+00 -1.0000e+00
       -2 -1    0    0    0  501 -0.0000000000e+00 -0.0000000000e+00 -1.2800408448e+03 1.2800408448e+03 0.0000000000e+00 0.0000e+00 1.0000e+00
      -13  1    1    2    0    0 -6.8292272403e+02 +8.1785476773e+02 -8.4534173868e+02 1.3601001887e+03 0.0000000000e+00 0.0000e+00 1.0000e+00
       13  1    1    2    0    0 +6.8292272403e+02 -8.1785476773e+02 +1.4232759760e+03 1.7779157382e+03 0.0000000000e+00 0.0000e+00 -1.0000e+00
<mgrwt>
<rscale>  0 0.30843372E+04</rscale>
<asrwt>0</asrwt>
<pdfrwt beam="1">  1        2 0.28584232E+00 0.30843372E+04</pdfrwt>
<pdfrwt beam="2">  1       -2 0.19692936E+00 0.30843372E+04</pdfrwt>
<totfact> 0.10700819E+00</totfact>
</mgrwt>
<rwgt>
<wgt id='morphing_basis_vector_1'> +9.0669938e-05 </wgt>
<wgt id='morphing_basis_vector_2'> +6.1389660e-05 </wgt>
<wgt id='morphing_basis_vector_3'> +9.8932682e-05 </wgt>
<wgt id='morphing_basis_vector_4'> +7.0450602e-05 </wgt>
<wgt id='morphing_basis_vector_5'> +1.1259417e-04 </wgt>
</rwgt>
</event>
<event>
 4      1 +7.3133000e-09 2.73501400e+03 7.81860800e-03 7.82282400e-02
        2 -1    0    0  501    0 +0.0000000000e+00 +0.0000000000e+00 +1.2426266953e+03 1.2426266953e+03 0.0000000000e+00 0.0000e+00 1.0000e+00
       -2 -1    0    0    0  501 -0.0000000000e+00 -0.0000000000e+00 -1.5049375840e+03 1.5049375840e+03 0.0000000000e+00 0.0000e+00 -1.0000e+00
      -13  1    1    2    0    0 -5.5436608415e+02 -4.6450945133e+02 -1.2970778132e+03 1.4850931416e+03 0.0000000000e+00 0.0000e+00 -1.0000e+00
       13  1    1    2    0    0 +5.5436608415e+02 +4.6450945133e+02 +1.0347669245e+03 1.2624711378e+03 0.0000000000e+00 0.0000e+00 1.0000e+00
<mgrwt>
<rscale>  0 0.27350142E+04</rscale>
<asrwt>0</asrwt>
<pdfrwt beam="1">  1        2 0.19117334E+00 0.27350142E+04</pdfrwt>
<pdfrwt beam="2">  1       -2 0.23152886E+00 0.27350142E+04</pdfrwt>
<totfact> 0.13805733E+00</totfact>
</mgrwt>
<rwgt>
<wgt id='morphing_basis_vector_1'> +5.6278443e-05 </wgt>
<wgt id='morphing_basis_vector_2'> +3.7899551e-05 </wgt>
<wgt id='morphing_basis_vector_3'> +6.1121287e-05 </wgt>
<wgt id='morphing_basis_vector_4'> +4.3456456e-05 </wgt>
<wgt id='morphing_basis_vector_5'> +6.9306475e-05 </wgt>
</rwgt>
</event>
<event>
 4      1 +7.3133000e-09 2.84837400e+03 7.81860800e-03 7.79166000e-02
        2 -1    0    0  501    0 +0.0000000000e+00 +0.0000000000e+00 +3.0074508800e+03 3.0074508800e+03 0.0000000000e+00 0.0000e+00 1.0000e+00
       -2 -1    0    0    0  501 -0.0000000000e+00 -0.0000000000e+00 -6.7442761559e+02 6.7442761559e+02 0.0000000000e+00 0.0000e+00 -1.0000e+00
      -13  1    1    2    0    0 +1.2333386326e+03 +8.2435280703e+01 +2.0808901805e+03 2.4203354523e+03 0.0000000000e+00 0.0000e+00 -1.0000e+00
       13  1    1    2    0    0 -1.2333386326e+03 -8.2435280703e+01 +2.5213308397e+02 1.2615430434e+03 0.0000000000e+00 0.0000e+00 1.0000e+00
<mgrwt>
<rscale>  0 0.28483735E+04</rscale>
<asrwt>0</asrwt>
<pdfrwt beam="1">  1        2 0.46268474E+00 0.28483735E+04</pdfrwt>
<pdfrwt beam="2">  1       -2 0.10375810E+00 0.28483735E+04</pdfrwt>
<totfact> 0.13801952E+00</totfact>
</mgrwt>
<rwgt>
<wgt id='morphing_basis_vector_1'> +7.8145998e-05 </wgt>
<wgt id='morphing_basis_vector_2'> +8.0069625e-05 </wgt>
<wgt id='morphing_basis_vector_3'> +9.0641920e-05 </wgt>
<wgt id='morphing_basis_vector_4'> +2.6207265e-05 </wgt>
<wgt id='morphing_basis_vector_5'> +7.9619670e-05 </wgt>
</rwgt>
</event>
<event>
 4      1 +7.3133000e-09 2.83730500e+03 7.81860800e-03 7.79463700e-02
        2 -1    0    0  501    0 +0.0000000000e+00 +0.0000000000e+00 +1.5547253715e+03 1.5547253715e+03 0.0000000000e+00 0.0000e+00 1.0000e+00
       -2 -1    0    0    0  501 -0.0000000000e+00 -0.0000000000e+00 -1.2944888459e+03 1.2944888459e+03 0.0000000000e+00 0.0000e+00 -1.0000e+00
      -13  1    1    2    0    0 -1.4078258851e+03 +1.6051515846e+02 +6.0286362985e+01 1.4182289252e+03 0.0000000000e+00 0.0000e+00 -1.0000e+00
       13  1    1    2    0    0 +1.4078258851e+03 -1.6051515846e+02 +1.9995016254e+02 1.4309852921e+03 0.0000000000e+00 0.0000e+00 1.0000e+00
<mgrwt>
<rscale>  0 0.28373048E+04</rscale>
<asrwt>0</asrwt>
<pdfrwt beam="1">  1        2 0.23918852E+00 0.28373048E+04</pdfrwt>
<pdfrwt beam="2">  1       -2 0.19915213E+00 0.28373048E+04</pdfrwt>
<totfact> 0.15527844E+00</totfact>
</mgrwt>
<rwgt>
<wgt id='morphing_basis_vector_1'> +6.7061902e-05 </wgt>
<wgt id='morphing_basis_vector_2'> +4.9703757e-05 </wgt>
<wgt id='morphing_basis_vector_3'> +7.3861990e-05 </wgt>
<wgt id='morphing_basis_vector_4'> +4.6299642e-05 </wgt>
<wgt id='morphing_basis_vector_5'> +8.0056384e-05 </wgt>
</rwgt>
</event>
<event>
 4      1 +7.3133000e-09 2.68035100e+03 7.81860800e-03 7.83840500e-02
        2 -1    0    0  501    0 +0.0000000000e+00 +0.0000000000e+00 +2.4093551715e+03 2.4093551715e+03 0.0000000000e+00 0.0000e+00 -1.0000e+00
       -2 -1    0    0    0  501 -0.0000000000e+00 -0.0000000000e+00 -7.4545674793e+02 7.4545674793e+02 0.0000000000e+00 0.0000e+00 1.0000e+00
      -13  1    1    2    0    0 -6.8519842755e+01 +5.1928086992e+02 -6.1999378912e+02 8.1162792539e+02 0.0000000000e+00 0.0000e+00 1.0000e+00
       13  1    1    2    0    0 +6.8519842755e+01 -5.1928086992e+02 +2.2838922127e+03 2.3431839940e+03 0.0000000000e+00 0.0000e+00 -1.0000e+00
<mgrwt>
<rscale>  0 0.26803508E+04</rscale>
<asrwt>0</asrwt>
<pdfrwt beam="1">  1        2 0.37067002E+00 0.26803508E+04</pdfrwt>
<pdfrwt beam="2">  1       -2 0.11468565E+00 0.26803508E+04</pdfrwt>
<totfact> 0.25545499E+00</totfact>
</mgrwt>
<rwgt>
<wgt id='morphing_basis_vector_1'> +5.1948415e-05 </wgt>
<wgt id='morphing_basis_vector_2'> +3.4940978e-05 </wgt>
<wgt id='morphing_basis_vector_3'> +5.6366959e-05 </wgt>
<wgt id='morphing_basis_vector_4'> +4.0072489e-05 </wgt>
<wgt id='morphing_basis_vector_5'> +6.3875133e-05 </wgt>
</rwgt>
</event>
<event>
 4      1 +7.3133000e-09 3.02486900e+03 7.81860800e-03 7.74595700e-02
        2 -1    0    0  501    0 +0.0000000000e+00 +0.0000000000e+00 +2.1713021513e+03 2.1713021513e+03 0.0000000000e+00 0.0000e+00 1.0000e+00
       -2 -1    0    0    0  501 -0.0000000000e+00 -0.0000000000e+00 -1.0534958240e+03 1.0534958240e+03 0.0000000000e+00 0.0000e+00 -1.0000e+00
      -13  1    1    2    0    0 +7.5859383027e+00 -8.9009986585e+02 -7.4466682957e+02 1.1605447017e+03 0.0000000000e+00 0.0000e+00 -1.0000e+00
       13  1    1    2    0    0 -7.5859383027e+00 +8.9009986585e+02 +1.8624731568e+03 2.0642532736e+03 0.0000000000e+00 0.0000e+00 1.0000e+00
<mgrwt>
<rscale>  0 0.30248688E+04</rscale>
<asrwt>0</asrwt>
<pdfrwt beam="1">  1        2 0.33404648E+00 0.30248688E+04</pdfrwt>
<pdfrwt beam="2">  1       -2 0.16207628E+00 0.30248688E+04</pdfrwt>
<totfact> 0.13197828E+00</totfact>
</mgrwt>
<rwgt>
<wgt id='morphing_basis_vector_1'> +8.3884226e-05 </wgt>
<wgt id='morphing_basis_vector_2'> +5.6659183e-05 </wgt>
<wgt id='morphing_basis_vector_3'> +9.1446771e-05 </wgt>
<wgt id='morphing_basis_vector_4'> +6.5233993e-05 </wgt>
<wgt id='morphing_basis_vector_5'> +1.0409775e-04 </wgt>
</rwgt>
</event>
<event>
 4      1 +7.3133000e-09 2.78013600e+03 7.81860800e-03 7.81023900e-02
        2 -1    0    0  501    0 +0.0000000000e+00 +0.0000000000e+00 +1.2742572152e+03 1.2742572152e+03 0.0000000000e+00 0.0000e+00 1.0000e+00
       -2 -1    0    0    0  501 -0.0000000000e+00 -0.0000000000e+00 -1.5164046505e+03 1.5164046505e+03 0.0000000000e+00 0.0000e+00 -1.0000e+00
      -13  1    1    2    0    0 +7.0076128569e+02 -1.1921967106e+03 -2.6264024979e+02 1.4076147474e+03 0.0000000000e+00 0.0000e+00 -1.0000e+00
       13  1    1    2    0    0 -7.0076128569e+02 +1.1921967106e+03 +2.0492814469e+01 1.3830471184e+03 0.0000000000e+00 0.0000e+00 1.0000e+00
<mgrwt>
<rscale>  0 0.27801364E+04</rscale>
<asrwt>0</asrwt>
<pdfrwt beam="1">  1        2 0.19603957E+00 0.27801364E+04</pdfrwt>
<pdfrwt beam="2">  1       -2 0.23329302E+00 0.27801364E+04</pdfrwt>
<totfact> 0.12817488E+00</totfact>
</mgrwt>
<rwgt>
<wgt id='morphing_basis_vector_1'> +6.1543254e-05 </wgt>
<wgt id='morphing_basis_vector_2'> +4.4872933e-05 </wgt>
<wgt id='morphing_basis_vector_3'> +6.7578398e-05 </wgt>
<wgt id='morphing_basis_vector_4'> +4.3322150e-05 </wgt>
<wgt id='morphing_basis_vector_5'> +7.3791616e-05 </wgt>
</rwgt>
</event>
<event>
 4      1 +7.3133000e-09 2.94897700e+03 7.81860800e-03 7.76520900e-02
        2 -1    0    0  501    0 +0.0000000000e+00 +0.0000000000e+00 +1.6104383503e+03 1.6104383503e+03 0.0000000000e+00 0.0000e+00 -1.0000e+00
       -2 -1    0    0    0  501 -0.0000000000e+00 -0.0000000000e+00 -1.3500153639e+03 1.3500153639e+03 0.0000000000e+00 0.0000e+00 1.0000e+00
      -13  1    1    2    0    0 -7.2247724737e+01 -1.4487088101e+03 +3.9608092473e+02 1.5036146611e+03 0.0000000000e+00 0.0000e+00 1.0000e+00
       13  1    1    2    0    0 +7.2247724737e+01 +1.4487088101e+03 -1.3565793835e+02 1.4568390530e+03 0.0000000000e+00 0.0000e+00 -1.0000e+00
<mgrwt>
<rscale>  0 0.29489771E+04</rscale>
<asrwt>0</asrwt>
<pdfrwt beam="1">  1        2 0.24775974E+00 0.29489771E+04</pdfrwt>
<pdfrwt beam="2">  1       -2 0.20769467E+00 0.29489771E+04</pdfrwt>
<totfact> 0.12414624E+00</totfact>
</mgrwt>
<rwgt>
<wgt id='morphing_basis_vector_1'> +8.1018640e-05 </wgt>
<wgt id='morphing_basis_vector_2'> +6.6433290e-05 </wgt>
<wgt id='morphing_basis_vector_3'> +9.0691658e-05 </wgt>
<wgt id='morphing_basis_vector_4'> +4.8125369e-05 </wgt>
<wgt id='morphing_basis_vector_5'> +9.3069351e-05 </wgt>
</rwgt>
</event>
<event>
 4      1 +7.3133000e-09 2.90774100e+03 7.81860800e-03 7.77591900e-02
        2 -1    0    0  501    0 +0.0000000000e+00 +0.0000000000e+00 +1.8985256217e+03 1.8985256217e+03 0.0000000000e+00 0.0000e+00 1.0000e+00
       -2 -1    0    0    0  501 -0.0000000000e+00 -0.0000000000e+00 -1.1133586200e+03 1.1133586200e+03 0.0000000000e+00 0.0000e+00 -1.0000e+00
      -13  1    1    2    0    0 +6.8911200894e+02 -9.7194624743e+02 +1.2556020358e+03 1.7309221072e+03 0.0000000000e+00 0.0000e+00 -1.0000e+00
       13  1    1    2    0    0 -6.8911200894e+02 +9.7194624743e+02 -4.7043503414e+02 1.2809621345e+03 0.0000000000e+00 0.0000e+00 1.0000e+00
<mgrwt>
<rscale>  0 0.29077413E+04</rscale>
<asrwt>0</asrwt>
<pdfrwt beam="1">  1        2 0.29208087E+00 0.29077413E+04</pdfrwt>
<pdfrwt beam="2">  1       -2 0.17128594E+00 0.29077413E+04</pdfrwt>
<totfact> 0.16090932E+00</totfact>
</mgrwt>
<rwgt>
<wgt id='morphing_basis_vector_1'> +8.7613270e-05 </wgt>
<wgt id='morphing_basis_vector_2'> +9.5193677e-05 </wgt>
<wgt id='morphing_basis_vector_3'> +1.0285865e-04 </wgt>
<wgt id='morphing_basis_vector_4'> +2.2635907e-05 </wgt>
<wgt id='morphing_basis_vector_5'> +8.6054105e-05 </wgt>
</rwgt>
</event>
<event>
 4      1 +7.3133000e-09 2.70958800e+03 7.81860800e-03 7.83002500e-02
        2 -1    0    0  501    0 +0.0000000000e+00 +0.0000000000e+00 +1.4574578592e+03 1.4574578592e+03 0.0000000000e+00 0.0000e+00 -1.0000e+00
       -2 -1    0    0    0  501 -0.0000000000e+00 -0.0000000000e+00 -1.2593618155e+03 1.2593618155e+03 0.0000000000e+00 0.0000e+00 1.0000e+00
      -13  1    1    2    0    0 +2.4392777611e+02 -8.4979438652e+02 -9.3024694370e+02 1.2833591218e+03 0.0000000000e+00 0.0000e+00 1.0000e+00
       13  1    1    2    0    0 -2.4392777611e+02 +8.4979438652e+02 +1.1283429874e+03 1.4334605529e+03 0.0000000000e+00 0.0000e+00 -1.0000e+00
<mgrwt>
<rscale>  0 0.27095880E+04</rscale>
<asrwt>0</asrwt>
<pdfrwt beam="1">  1        2 0.22422429E+00 0.27095880E+04</pdfrwt>
<pdfrwt beam="2">  1       -2 0.19374797E+00 0.27095880E+04</pdfrwt>
<totfact> 0.19498227E+00</totfact>
</mgrwt>
<rwgt>
<wgt id='morphing_basis_vector_1'> +5.4264046e-05 </wgt>
<wgt id='morphing_basis_vector_2'> +3.6595704e-05 </wgt>
<wgt id='morphing_basis_vector_3'> +5.8923578e-05 </wgt>
<wgt id='morphing_basis_vector_4'> +4.1790533e-05 </wgt>
<wgt id='morphing_basis_vector_5'> +6.6733502e-05 </wgt>
</rwgt>
</event>
<event>
 4      1 +7.3133000e-09 2.83828900e+03 7.81860800e-03 7.79437200e-02
        2 -1    0    0  501    0 +0.0000000000e+00 +0.0000000000e+00 +3.3685836933e+03 3.3685836933e+03 0.0000000000e+00 0.0000e+00 1.0000e+00
       -2 -1    0    0    0  501 -0.0000000000e+00 -0.0000000000e+00 -5.9786874381e+02 5.9786874381e+02 0.0000000000e+00 0.0000e+00 -1.0000e+00
      -13  1    1    2    0    0 -1.4335225548e+02 -8.7977524163e+02 +2.9285556573e+03 3.0612077000e+03 0.0000000000e+00 0.0000e+00 1.0000e+00
       13  1    1    2    0    0 +1.4335225548e+02 +8.7977524163e+02 -1.5784070781e+02 9.0524473706e+02 0.0000000000e+00 0.0000e+00 -1.0000e+00
<mgrwt>
<rscale>  0 0.28382889E+04</rscale>
<asrwt>0</asrwt>
<pdfrwt beam="1">  1        2 0.51824363E+00 0.28382889E+04</pdfrwt>
<pdfrwt beam="2">  1       -2 0.91979809E-01 0.28382889E+04</pdfrwt>
<totfact> 0.10486127E+00</totfact>
</mgrwt>
<rwgt>
<wgt id='morphing_basis_vector_1'> +8.6302748e-05 </wgt>
<wgt id='morphing_basis_vector_2'> +1.0619672e-04 </wgt>
<wgt id='morphing_basis_vector_3'> +1.0373637e-04 </wgt>
<wgt id='morphing_basis_vector_4'> +6.6641307e-06 </wgt>
<wgt id='morphing_basis_vector_5'> +7.6917871e-05 </wgt>
</rwgt>
</event>
<event>
 4      1 +7.3133000e-09 2.73460100e+03 7.81860800e-03 7.82294000e-02
        2 -1    0    0  501    0 +0.0000000000e+00 +0.0000000000e+00 +9.8587917820e+02 9.8587917820e+02 0.0000000000e+00 0.0000e+00 -1.0000e+00
       -2 -1    0    0    0  501 -0.0000000000e+00 -0.0000000000e+00 -1.8962878673e+03 1.8962878673e+03 0.0000000000e+00 0.0000e+00 1.0000e+00
      -13  1    1    2    0    0 -1.0549868168e+02 -4.6480132662e+02 -1.8058977227e+03 1.8677357495e+03 0.0000000000e+00 0.0000e+00 1.0000e+00
       13  1    1    2    0    0 +1.0549868168e+02 +4.6480132662e+02 +8.9548903359e+02 1.0144312960e+03 0.0000000000e+00 0.0000e+00 -1.0000e+00
<mgrwt>
<rscale>  0 0.27346010E+04</rscale>
<asrwt>0</asrwt>
<pdfrwt beam="1">  1        2 0.15167372E+00 0.27346010E+04</pdfrwt>
<pdfrwt beam="2">  1       -2 0.29173660E+00 0.27346010E+04</pdfrwt>
<totfact> 0.75799967E-01</totfact>
</mgrwt>
<rwgt>
<wgt id='morphing_basis_vector_1'> +5.6231888e-05 </wgt>
<wgt id='morphing_basis_vector_2'> +3.7838643e-05 </wgt>
<wgt id='morphing_basis_vector_3'> +6.1064392e-05 </wgt>
<wgt id='morphing_basis_vector_4'> +4.3456658e-05 </wgt>
<wgt id='morphing_basis_vector_5'> +6.9266346e-05 </wgt>
</rwgt>
</event>
<event>
 4      1 +7.3133000e-09 2.69349700e+03 7.81860800e-03 7.83462400e-02
        2 -1    0    0  501    0 +0.0000000000e+00 +0.0000000000e+00 +2.8215248947e+03 2.8215248947e+03 0.0000000000e+00 0.0000e+00 -1.0000e+00
       -2 -1    0    0    0  501 -0.0000000000e+00 -0.0000000000e+00 -6.4281972280e+02 6.4281972280e+02 0.0000000000e+00 0.0000e+00 1.0000e+00
      -13  1    1    2    0    0 +5.9736909686e+02 -3.1494247724e+02 -4.0931523007e+02 7.8966927218e+02 0.0000000000e+00 0.0000e+00 1.0000e+00
       13  1    1    2    0    0 -5.9736909686e+02 +3.1494247724e+02 +2.5880204020e+03 2.6746753454e+03 0.0000000000e+00 0.0000e+00 -1.0000e+00
<mgrwt>
<rscale>  0 0.26934972E+04</rscale>
<asrwt>0</asrwt>
<pdfrwt beam="1">  1        2 0.43408075E+00 0.26934972E+04</pdfrwt>
<pdfrwt beam="2">  1       -2 0.98895344E-01 0.26934972E+04</pdfrwt>
<totfact> 0.20676481E+00</totfact>
</mgrwt>
<rwgt>
<wgt id='morphing_basis_vector_1'> +5.2970972e-05 </wgt>
<wgt id='morphing_basis_vector_2'> +3.5650640e-05 </wgt>
<wgt id='morphing_basis_vector_3'> +5.7491702e-05 </wgt>
<wgt id='morphing_basis_vector_4'> +4.0857479e-05 </wgt>
<wgt id='morphing_basis_vector_5'> +6.5150390e-05 </wgt>
</rwgt>
</event>
<event>
 4      1 +7.3133000e-09 2.94252400e+03 7.81860800e-03 7.76687300e-02
        2 -1    0    0  501    0 +0.0000000000e+00 +0.0000000000e+00 +2.6054373472e+03 2.6054373472e+03 0.0000000000e+00 0.0000e+00 -1.0000e+00
       -2 -1    0    0    0  501 -0.0000000000e+00 -0.0000000000e+00 -8.3080577914e+02 8.3080577914e+02 0.0000000000e+00 0.0000e+00 1.0000e+00
      -13  1    1    2    0    0 -9.1208430140e+02 -1.1355890849e+03 +1.1299011491e+03 1.8434036317e+03 0.0000000000e+00 0.0000e+00 1.0000e+00
       13  1    1    2    0    0 +9.1208430140e+02 +1.1355890849e+03 +6.4473041897e+02 1.5928394947e+03 0.0000000000e+00 0.0000e+00 -1.0000e+00
<mgrwt>
<rscale>  0 0.29425244E+04</rscale>
<asrwt>0</asrwt>
<pdfrwt beam="1">  1        2 0.40083651E+00 0.29425244E+04</pdfrwt>
<pdfrwt beam="2">  1       -2 0.12781627E+00 0.29425244E+04</pdfrwt>
<totfact> 0.14381282E+00</totfact>
</mgrwt>
<rwgt>
<wgt id='morphing_basis_vector_1'> +7.9687715e-05 </wgt>
<wgt id='morphing_basis_vector_2'> +6.3999009e-05 </wgt>
<wgt id='morphing_basis_vector_3'> +8.8914512e-05 </wgt>
<wgt id='morphing_basis_vector_4'> +4.9013226e-05 </wgt>
<wgt id='morphing_basis_vector_5'> +9.2357768e-05 </wgt>
</rwgt>
</event>
<event>
 4      1 +7.3133000e-09 2.85996600e+03 7.81860800e-03 7.78855600e-02
        2 -1    0    0  501    0 +0.0000000000e+00 +0.0000000000e+00 +1.7494932894e+03 1.7494932894e+03 0.0000000000e+00 0.0000e+00 -1.0000e+00
       -2 -1    0    0    0  501 -0.0000000000e+00 -0.0000000000e+00 -1.1688245605e+03 1.1688245605e+03 0.0000000000e+00 0.0000e+00 1.0000e+00
      -13  1    1    2    0    0 +4.5423874061e+02 +8.6480717413e+02 -7.7530389027e+02 1.2471248551e+03 0.0000000000e+00 0.0000e+00 1.0000e+00
       13  1    1    2    0    0 -4.5423874061e+02 -8.6480717413e+02 +1.3559726192e+03 1.6711929948e+03 0.0000000000e+00 0.0000e+00 -1.0000e+00
<mgrwt>
<rscale>  0 0.28599655E+04</rscale>
<asrwt>0</asrwt>
<pdfrwt beam="1">  1        2 0.26915282E+00 0.28599655E+04</pdfrwt>
<pdfrwt beam="2">  1       -2 0.17981916E+00 0.28599655E+04</pdfrwt>
<totfact> 0.16821413E+00</totfact>
</mgrwt>
<rwgt>
<wgt id='morphing_basis_vector_1'> +6.7212092e-05 </wgt>
<wgt id='morphing_basis_vector_2'> +4.5421809e-05 </wgt>
<wgt id='morphing_basis_vector_3'> +7.3144418e-05 </wgt>
<wgt id='morphing_basis_vector_4'> +5.1951597e-05 </wgt>
<wgt id='morphing_basis_vector_5'> +8.3009621e-05 </wgt>
</rwgt>
</event>
<event>
 4      1 +7.3133000e-09 3.08237400e+03 7.81860800e-03 7.73175500e-02
        2 -1    0    0  501    0 +0.0000000000e+00 +0.0000000000e+00 +1.5024016606e+03 1.5024016606e+03 0.0000000000e+00 0.0000e+00 -1.0000e+00
       -2 -1    0    0    0  501 -0.0000000000e+00 -0.0000000000e+00 -1.5809740476e+03 1.5809740476e+03 0.0000000000e+00 0.0000e+00 1.0000e+00
      -13  1    1    2    0    0 +9.9760880622e+02 -8.5653368954e+02 -8.4352791932e+02 1.5621820132e+03 0.0000000000e+00 0.0000e+00 1.0000e+00
       13  1    1    2    0    0 -9.9760880622e+02 +8.5653368954e+02 +7.6495553235e+02 1.5211936951e+03 0.0000000000e+00 0.0000e+00 -1.0000e+00
<mgrwt>
<rscale>  0 0.30823744E+04</rscale>
<asrwt>0</asrwt>
<pdfrwt beam="1">  1        2 0.23113872E+00 0.30823744E+04</pdfrwt>
<pdfrwt beam="2">  1       -2 0.24322678E+00 0.30823744E+04</pdfrwt>
<totfact> 0.79126729E-01</totfact>
</mgrwt>
<rwgt>
<wgt id='morphing_basis_vector_1'> +9.0706456e-05 </wgt>
<wgt id='morphing_basis_vector_2'> +6.2014703e-05 </wgt>
<wgt id='morphing_basis_vector_3'> +9.9097450e-05 </wgt>
<wgt id='morphing_basis_vector_4'> +6.9716940e-05 </wgt>
<wgt id='morphing_basis_vector_5'> +1.1225992e-04 </wgt>
</rwgt>
</event>
<event>
 4      1 +7.3133000e-09 2.78101000e+03 7.81860800e-03 7.80999700e-02
        2 -1    0    0  501    0 +0.0000000000e+00 +0.0000000000e+00 +1.8174773963e+03 1.8174773963e+03 0.0000000000e+00 0.0000e+00 -1.0000e+00
       -2 -1    0    0    0  501 -0.0000000000e+00 -0.0000000000e+00 -1.0638395158e+03 1.0638395158e+03 0.0000000000e+00 0.0000e+00 1.0000e+00
      -13  1    1    2    0    0 -1.0830098848e+03 +7.2672406086e+02 +8.7635654607e+02 1.5713176213e+03 0.0000000000e+00 0.0000e+00 1.0000e+00
       13  1    1    2    0    0 +1.0830098848e+03 -7.2672406086e+02 -1.2271866558e+02 1.3099992908e+03 0.0000000000e+00 0.0000e+00 -1.0000e+00
<mgrwt>
<rscale>  0 0.27810101E+04</rscale>
<asrwt>0</asrwt>
<pdfrwt beam="1">  1        2 0.27961191E+00 0.27810101E+04</pdfrwt>
<pdfrwt beam="2">  1       -2 0.16366762E+00 0.27810101E+04</pdfrwt>
<totfact> 0.20709920E+00</totfact>
</mgrwt>
<rwgt>
<wgt id='morphing_basis_vector_1'> +6.7193950e-05 </wgt>
<wgt id='morphing_basis_vector_2'> +6.1357308e-05 </wgt>
<wgt id='morphing_basis_vector_3'> +7.6306839e-05 </wgt>
<wgt id='morphing_basis_vector_4'> +3.1839978e-05 </wgt>
<wgt id='morphing_basis_vector_5'> +7.2942084e-05 </wgt>
</rwgt>
</event>
<event>
 4      1 +7.3133000e-09 2.69808300e+03 7.81860800e-03 7.83331000e-02
        2 -1    0    0  501    0 +0.0000000000e+00 +0.0000000000e+00 +3.1499212978e+03 3.1499212978e+03 0.0000000000e+00 0.0000e+00 1.0000e+00
       -2 -1    0    0    0  501 -0.0000000000e+00 -0.0000000000e+00 -5.7776466569e+02 5.7776466569e+02 0.0000000000e+00 0.0000e+00 -1.0000e+00
      -13  1    1    2    0    0 -1.1509622059e+03 +6.8765254279e+02 +1.4925495360e+03 2.0063110766e+03 0.0000000000e+00 0.0000e+00 1.0000e+00
       13  1    1    2    0    0 +1.1509622059e+03 -6.8765254279e+02 +1.0796070961e+03 1.7213748868e+03 0.0000000000e+00 0.0000e+00 -1.0000e+00
<mgrwt>
<rscale>  0 0.26980832E+04</rscale>
<asrwt>0</asrwt>
<pdfrwt beam="1">  1        2 0.48460326E+00 0.26980832E+04</pdfrwt>
<pdfrwt beam="2">  1       -2 0.88886874E-01 0.26980832E+04</pdfrwt>
<totfact> 0.16267244E+00</totfact>
</mgrwt>
<rwgt>
<wgt id='morphing_basis_vector_1'> +5.6209631e-05 </wgt>
<wgt id='morphing_basis_vector_2'> +4.4386776e-05 </wgt>
<wgt id='morphing_basis_vector_3'> +6.2332844e-05 </wgt>
<wgt id='morphing_basis_vector_4'> +3.5191938e-05 </wgt>
<wgt id='morphing_basis_vector_5'> +6.5114983e-05 </wgt>
</rwgt>
</event>
<event>
 4      1 +7.3133000e-09 2.99512700e+03 7.81860800e-03 7.75343100e-02
        2 -1    0    0  501    0 +0.0000000000e+00 +0.0000000000e+00 +3.6336754347e+03 3.6336754347e+03 0.0000000000e+00 0.0000e+00 -1.0000e+00
       -2 -1    0    0    0  501 -0.0000000000e+00 -0.0000000000e+00 -6.1719785491e+02 6.1719785491e+02 0.0000000000e+00 0.0000e+00 1.0000e+00
      -13  1    1    2    0    0 +1.4777764250e+03 -1.0422253030e+02 +1.8192199715e+03 2.3461131266e+03 0.0000000000e+00 0.0000e+00 1.0000e+00
       13  1    1    2    0    0 -1.4777764250e+03 +1.0422253030e+02 +1.1972576083e+03 1.9047601630e+03 0.0000000000e+00 0.0000e+00 -1.0000e+00
<mgrwt>
<rscale>  0 0.29951272E+04</rscale>
<asrwt>0</asrwt>
<pdfrwt beam="1">  1        2 0.55902698E+00 0.29951272E+04</pdfrwt>
<pdfrwt beam="2">  1       -2 0.94953518E-01 0.29951272E+04</pdfrwt>
<totfact> 0.61382460E-01</totfact>
</mgrwt>
<rwgt>
<wgt id='morphing_basis_vector_1'> +8.5570718e-05 </wgt>
<wgt id='morphing_basis_vector_2'> +6.8927723e-05 </wgt>
<wgt id='morphing_basis_vector_3'> +9.5586581e-05 </wgt>
<wgt id='morphing_basis_vector_4'> +5.2466029e-05 </wgt>
<wgt id='morphing_basis_vector_5'> +9.9189100e-05 </wgt>
</rwgt>
</event>
<event>
 4      1 +7.3133000e-09 2.79833600e+03 7.81860800e-03 7.80523100e-02
        2 -1    0    0  501    0 +0.0000000000e+00 +0.0000000000e+00 +2.2349000237e+03 2.2349000237e+03 0.0000000000e+00 0.0000e+00 1.0000e+00
       -2 -1    0    0    0  501 -0.0000000000e+00 -0.0000000000e+00 -8.7595488132e+02 8.7595488132e+02 0.0000000000e+00 0.0000e+00 -1.0000e+00
      -13  1    1    2    0    0 +2.9803109169e+02 +1.1595135673e+03 -1.2553840057e+02 1.2037666445e+03 0.0000000000e+00 0.0000e+00 -1.0000e+00
       13  1    1    2    0    0 -2.9803109169e+02 -1.1595135673e+03 +1.4844835430e+03 1.9070882606e+03 0.0000000000e+00 0.0000e+00 1.0000e+00
<mgrwt>
<rscale>  0 0.27983364E+04</rscale>
<asrwt>0</asrwt>
<pdfrwt beam="1">  1        2 0.34383077E+00 0.27983364E+04</pdfrwt>
<pdfrwt beam="2">  1       -2 0.13476229E+00 0.27983364E+04</pdfrwt>
<totfact> 0.20898750E+00</totfact>
</mgrwt>
<rwgt>
<wgt id='morphing_basis_vector_1'> +6.1848093e-05 </wgt>
<wgt id='morphing_basis_vector_2'> +4.2206547e-05 </wgt>
<wgt id='morphing_basis_vector_3'> +6.7339743e-05 </wgt>
<wgt id='morphing_basis_vector_4'> +4.7182455e-05 </wgt>
<wgt id='morphing_basis_vector_5'> +7.5984239e-05 </wgt>
</rwgt>
</event>
<event>
 4      1 +7.3133000e-09 2.78478300e+03 7.81860800e-03 7.80895600e-02
        2 -1    0    0  501    0 +0.0000000000e+00 +0.0000000000e+00 +2.6313270534e+03 2.6313270534e+03 0.0000000000e+00 0.0000e+00 1.0000e+00
       -2 -1    0    0    0  501 -0.0000000000e+00 -0.0000000000e+00 -7.3679685268e+02 7.3679685268e+02 0.0000000000e+00 0.0000e+00 -1.0000e+00
      -13  1    1    2    0    0 +1.7769993778e+02 -1.1504590492e+03 +2.3286474078e+01 1.1643348108e+03 0.0000000000e+00 0.0000e+00 -1.0000e+00
       13  1    1    2    0    0 -1.7769993778e+02 +1.1504590492e+03 +1.8712437266e+03 2.2037890952e+03 0.0000000000e+00 0.0000e+00 1.0000e+00
<mgrwt>
<rscale>  0 0.27847826E+04</rscale>
<asrwt>0</asrwt>
<pdfrwt beam="1">  1        2 0.40481954E+00 0.27847826E+04</pdfrwt>
<pdfrwt beam="2">  1       -2 0.11335336E+00 0.27847826E+04</pdfrwt>
<totfact> 0.19204175E+00</totfact>
</mgrwt>
<rwgt>
<wgt id='morphing_basis_vector_1'> +6.0631931e-05 </wgt>
<wgt id='morphing_basis_vector_2'> +4.1283565e-05 </wgt>
<wgt id='morphing_basis_vector_3'> +6.5985008e-05 </wgt>
<wgt id='morphing_basis_vector_4'> +4.6346580e-05 </wgt>
<wgt id='morphing_basis_vector_5'> +7.4514552e-05 </wgt>
</rwgt>
</event>
<event>
 4      1 +7.3133000e-09 2.82746800e+03 7.81860800e-03 7.79729500e-02
        2 -1    0    0  501    0 +0.0000000000e+00 +0.0000000000e+00 +2.2760234040e+03 2.2760234040e+03 0.0000000000e+00 0.0000e+00 -1.0000e+00
       -2 -1    0    0    0  501 -0.0000000000e+00 -0.0000000000e+00 -8.7812992771e+02 8.7812992771e+02 0.0000000000e+00 0.0000e+00 1.0000e+00
      -13  1    1    2    0    0 +4.2090288292e+02 -9.9482546676e+02 -3.1846425096e+02 1.1261689151e+03 0.0000000000e+00 0.0000e+00 1.0000e+00
       13  1    1    2    0    0 -4.2090288292e+02 +9.9482546676e+02 +1.7163577272e+03 2.0279844166e+03 0.0000000000e+00 0.0000e+00 -1.0000e+00
<mgrwt>
<rscale>  0 0.28274683E+04</rscale>
<asrwt>0</asrwt>
<pdfrwt beam="1">  1        2 0.35015745E+00 0.28274683E+04</pdfrwt>
<pdfrwt beam="2">  1       -2 0.13509691E+00 0.28274683E+04</pdfrwt>
<totfact> 0.19604254E+00</totfact>
</mgrwt>
<rwgt>
<wgt id='morphing_basis_vector_1'> +6.4296223e-05 </wgt>
<wgt id='morphing_basis_vector_2'> +4.3570435e-05 </wgt>
<wgt id='morphing_basis_vector_3'> +6.9968108e-05 </wgt>
<wgt id='morphing_basis_vector_4'> +4.9488903e-05 </wgt>
<wgt id='morphing_basis_vector_5'> +7.9254999e-05 </wgt>
</rwgt>
</event>
<event>
 4      1 +7.3133000e-09 2.68935300e+03 7.81860800e-03 7.83581300e-02
        2 -1    0    0  501    0 +0.0000000000e+00 +0.0000000000e+00 +1.5004827913e+03 1.5004827913e+03 0.0000000000e+00 0.0000e+00 1.0000e+00
       -2 -1    0    0    0  501 -0.0000000000e+00 -0.0000000000e+00 -1.2050485388e+03 1.2050485388e+03 0.0000000000e+00 0.0000e+00 -1.0000e+00
      -13  1    1    2    0    0 -1.2224161322e+03 +3.7560700900e+02 -2.7044282818e+02 1.3071041079e+03 0.0000000000e+00 0.0000e+00 -1.0000e+00
       13  1    1    2    0    0 +1.2224161322e+03 -3.7560700900e+02 +5.6587708061e+02 1.3984272222e+03 0.0000000000e+00 0.0000e+00 1.0000e+00
<mgrwt>
<rscale>  0 0.26893528E+04</rscale>
<asrwt>0</asrwt>
<pdfrwt beam="1">  1        2 0.23084351E+00 0.26893528E+04</pdfrwt>
<pdfrwt beam="2">  1       -2 0.18539208E+00 0.26893528E+04</pdfrwt>
<totfact> 0.21325237E+00</totfact>
</mgrwt>
<rwgt>
<wgt id='morphing_basis_vector_1'> +5.3217527e-05 </wgt>
<wgt id='morphing_basis_vector_2'> +3.7107867e-05 </wgt>
<wgt id='morphing_basis_vector_3'> +5.8015944e-05 </wgt>
<wgt id='morphing_basis_vector_4'> +3.9431330e-05 </wgt>
<wgt id='morphing_basis_vector_5'> +6.4650305e-05 </wgt>
</rwgt>
</event>
<event>
 4      1 +7.3133000e-09 3.14629000e+03 7.81860800e-03 7.71634100e-02
        2 -1    0    0  501    0 +0.0000000000e+00 +0.0000000000e+00 +3.3988775938e+03 3.3988775938e+03 0.0000000000e+00 0.0000e+00 1.0000e+00
       -2 -1    0    0    0  501 -0.0000000000e+00 -0.0000000000e+00 -7.2811853583e+02 7.2811853583e+02 0.0000000000e+00 0.0000e+00 -1.0000e+00
      -13  1    1    2    0    0 -9.6601531492e+01 -1.4285813922e+03 +2.1901114486e+03 2.6166323409e+03 0.0000000000e+00 0.0000e+00 -1.0000e+00
       13  1    1    2    0    0 +9.6601531492e+01 +1.4285813922e+03 +4.8064760933e+02 1.5103637887e+03 0.0000000000e+00 0.0000e+00 1.0000e+00
<mgrwt>
<rscale>  0 0.31462904E+04</rscale>
<asrwt>0</asrwt>
<pdfrwt beam="1">  1        2 0.52290424E+00 0.31462904E+04</pdfrwt>
<pdfrwt beam="2">  1       -2 0.11201824E+00 0.31462904E+04</pdfrwt>
<totfact> 0.60191005E-01</totfact>
</mgrwt>
<rwgt>
<wgt id='morphing_basis_vector_1'> +1.1220229e-04 </wgt>
<wgt id='morphing_basis_vector_2'> +1.0793698e-04 </wgt>
<wgt id='morphing_basis_vector_3'> +1.2928842e-04 </wgt>
<wgt id='morphing_basis_vector_4'> +4.6897982e-05 </wgt>
<wgt id='morphing_basis_vector_5'> +1.1957051e-04 </wgt>
</rwgt>
</event>
<event>
 4      1 +7.3133000e-09 2.76434000e+03 7.81860800e-03 7.81461700e-02
        2 -1    0    0  501    0 +0.0000000000e+00 +0.0000000000e+00 +1.8212249023e+03 1.8212249023e+03 0.0000000000e+00 0.0000e+00 1.0000e+00
       -2 -1    0    0    0  501 -0.0000000000e+00 -0.0000000000e+00 -1.0489611611e+03 1.0489611611e+03 0.0000000000e+00 0.0000e+00 -1.0000e+00
      -13  1    1    2    0    0 +7.0085220055e+02 -6.7011172000e+02 -6.3654434145e+02 1.1599276800e+03 0.0000000000e+00 0.0000e+00 -1.0000e+00
       13  1    1    2    0    0 -7.0085220055e+02 +6.7011172000e+02 +1.4088080827e+03 1.7102583834e+03 0.0000000000e+00 0.0000e+00 1.0000e+00
<mgrwt>
<rscale>  0 0.27643402E+04</rscale>
<asrwt>0</asrwt>
<pdfrwt beam="1">  1        2 0.28018845E+00 0.27643402E+04</pdfrwt>
<pdfrwt beam="2">  1       -2 0.16137864E+00 0.27643402E+04</pdfrwt>
<totfact> 0.21521388E+00</totfact>
</mgrwt>
<rwgt>
<wgt id='morphing_basis_vector_1'> +5.8755401e-05 </wgt>
<wgt id='morphing_basis_vector_2'> +3.9694636e-05 </wgt>
<wgt id='morphing_basis_vector_3'> +6.3862242e-05 </wgt>
<wgt id='morphing_basis_vector_4'> +4.5264641e-05 </wgt>
<wgt id='morphing_basis_vector_5'> +7.2351130e-05 </wgt>
</rwgt>
</event>
<event>
 4      1 +7.3133000e-09 2.93914600e+03 7.81860800e-03 7.76774600e-02
        2 -1    0    0  501    0 +0.0000000000e+00 +0.0000000000e+00 +2.3233824078e+03 2.3233824078e+03 0.0000000000e+00 0.0000e+00 1.0000e+00
       -2 -1    0    0    0  501 -0.0000000000e+00 -0.0000000000e+00 -9.2952602305e+02 9.2952602305e+02 0.0000000000e+00 0.0000e+00 -1.0000e+00
      -13  1    1    2    0    0 +2.7562648734e+02 +2.7295878314e+02 -8.7184022962e+02 9.5424412170e+02 0.0000000000e+00 0.0000e+00 -1.0000e+00
       13  1    1    2    0    0 -2.7562648734e+02 -2.7295878314e+02 +2.2656966144e+03 2.2986643091e+03 0.0000000000e+00 0.0000e+00 1.0000e+00
<mgrwt>
<rscale>  0 0.29391457E+04</rscale>
<asrwt>0</asrwt>
<pdfrwt beam="1">  1        2 0.35744345E+00 0.29391457E+04</pdfrwt>
<pdfrwt beam="2">  1       -2 0.14300400E+00 0.29391457E+04</pdfrwt>
<totfact> 0.15577386E+00</totfact>
</mgrwt>
<rwgt>
<wgt id='morphing_basis_vector_1'> +7.4817819e-05 </wgt>
<wgt id='morphing_basis_vector_2'> +5.0428188e-05 </wgt>
<wgt id='morphing_basis_vector_3'> +8.1467362e-05 </wgt>
<wgt id='morphing_basis_vector_4'> +5.8158253e-05 </wgt>
<wgt id='morphing_basis_vector_5'> +9.2699680e-05 </wgt>
</rwgt>
</event>
<event>
 4      1 +7.3133000e-09 2.83793200e+03 7.81860800e-03 7.79446800e-02
        2 -1    0    0  501    0 +0.0000000000e+00 +0.0000000000e+00 +2.1462335588e+03 2.1462335588e+03 0.0000000000e+00 0.0000e+00 -1.0000e+00
       -2 -1    0    0    0  501 -0.0000000000e+00 -0.0000000000e+00 -9.3813877072e+02 9.3813877072e+02 0.0000000000e+00 0.0000e+00 1.0000e+00
      -13  1    1    2    0    0 -5.4702831734e+02 +2.2600885285e+01 -8.1872018055e+02 9.8491294744e+02 0.0000000000e+00 0.0000e+00 1.0000e+00
       13  1    1    2    0    0 +5.4702831734e+02 -2.2600885285e+01 +2.0268149686e+03 2.0994593821e+03 0.0000000000e+00 0.0000e+00 -1.0000e+00
<mgrwt>
<rscale>  0 0.28379323E+04</rscale>
<asrwt>0</asrwt>
<pdfrwt beam="1">  1        2 0.33018978E+00 0.28379323E+04</pdfrwt>
<pdfrwt beam="2">  1       -2 0.14432904E+00 0.28379323E+04</pdfrwt>
<totfact> 0.19365142E+00</totfact>
</mgrwt>
<rwgt>
<wgt id='morphing_basis_vector_1'> +6.5124974e-05 </wgt>
<wgt id='morphing_basis_vector_2'> +4.3866993e-05 </wgt>
<wgt id='morphing_basis_vector_3'> +7.0824606e-05 </wgt>
<wgt id='morphing_basis_vector_4'> +5.0478520e-05 </wgt>
<wgt id='morphing_basis_vector_5'> +8.0466705e-05 </wgt>
</rwgt>
</event>
<event>
 4      1 +7.3133000e-09 2.88742800e+03 7.81860800e-03 7.78126200e-02
        2 -1    0    0  501    0 +0.0000000000e+00 +0.0000000000e+00 +1.3140551651e+03 1.3140551651e+03 0.0000000000e+00 0.0000e+00 1.0000e+00
       -2 -1    0    0    0  501 -0.0000000000e+00 -0.0000000000e+00 -1.5861664051e+03 1.5861664051e+03 0.0000000000e+00 0.0000e+00 -1.0000e+00
      -13  1    1    2    0    0 +5.7658693871e+02 +1.2603321033e+03 +2.6998873328e+02 1.4120139605e+03 0.0000000000e+00 0.0000e+00 -1.0000e+00
       13  1    1    2    0    0 -5.7658693871e+02 -1.2603321033e+03 -5.4209997330e+02 1.4882076097e+03 0.0000000000e+00 0.0000e+00 1.0000e+00
<mgrwt>
<rscale>  0 0.28874280E+04</rscale>
<asrwt>0</asrwt>
<pdfrwt beam="1">  1        2 0.20216233E+00 0.28874280E+04</pdfrwt>
<pdfrwt beam="2">  1       -2 0.24402560E+00 0.28874280E+04</pdfrwt>
<totfact> 0.10144300E+00</totfact>
</mgrwt>
<rwgt>
<wgt id='morphing_basis_vector_1'> +7.6401507e-05 </wgt>
<wgt id='morphing_basis_vector_2'> +6.6619612e-05 </wgt>
<wgt id='morphing_basis_vector_3'> +8.6271153e-05 </wgt>
<wgt id='morphing_basis_vector_4'> +4.0299798e-05 </wgt>
<wgt id='morphing_basis_vector_5'> +8.5153306e-05 </wgt>
</rwgt>
</event>
<event>
 4      1 +7.3133000e-09 3.02168600e+03 7.81860800e-03 7.74675300e-02
        2 -1    0    0  501    0 +0.0000000000e+00 +0.0000000000e+00 +4.5418067169e+03 4.5418067169e+03 0.0000000000e+00 0.0000e+00 1.0000e+00
       -2 -1    0    0    0  501 -0.0000000000e+00 -0.0000000000e+00 -5.0258549423e+02 5.0258549423e+02 0.0000000000e+00 0.0000e+00 -1.0000e+00
      -13  1    1    2    0    0 -1.3750032828e+03 +6.2474229210e+02 +2.0886278877e+03 2.5774606520e+03 0.0000000000e+00 0.0000e+00 -1.0000e+00
       13  1    1    2    0    0 +1.3750032828e+03 -6.2474229210e+02 +1.9505933349e+03 2.4669315591e+03 0.0000000000e+00 0.0000e+00 1.0000e+00
<mgrwt>
<rscale>  0 0.30216857E+04</rscale>
<asrwt>0</asrwt>
<pdfrwt beam="1">  1        2 0.69873947E+00 0.30216857E+04</pdfrwt>
<pdfrwt beam="2">  1       -2 0.77320848E-01 0.30216857E+04</pdfrwt>
<totfact> 0.15463018E-01</totfact>
</mgrwt>
<rwgt>
<wgt id='morphing_basis_vector_1'> +8.6879378e-05 </wgt>
<wgt id='morphing_basis_vector_2'> +6.6271361e-05 </wgt>
<wgt id='morphing_basis_vector_3'> +9.6301847e-05 </wgt>
<wgt id='morphing_basis_vector_4'> +5.7990372e-05 </wgt>
<wgt id='morphing_basis_vector_5'> +1.0308362e-04 </wgt>
</rwgt>
</event>
<event>
 4      1 +7.3133000e-09 2.74568600e+03 7.81860800e-03 7.81982500e-02
        2 -1    0    0  501    0 +0.0000000000e+00 +0.0000000000e+00 +2.0033645387e+03 2.0033645387e+03 0.0000000000e+00 0.0000e+00 -1.0000e+00
       -2 -1    0    0    0  501 -0.0000000000e+00 -0.0000000000e+00 -9.4076605749e+02 9.4076605749e+02 0.0000000000e+00 0.0000e+00 1.0000e+00
      -13  1    1    2    0    0 -4.2531279448e+02 -1.3048826526e+03 +4.9593611930e+02 1.4593020059e+03 0.0000000000e+00 0.0000e+00 1.0000e+00
       13  1    1    2    0    0 +4.2531279448e+02 +1.3048826526e+03 +5.6666236194e+02 1.4848285903e+03 0.0000000000e+00 0.0000e+00 -1.0000e+00
<mgrwt>
<rscale>  0 0.27456856E+04</rscale>
<asrwt>0</asrwt>
<pdfrwt beam="1">  1        2 0.30820993E+00 0.27456856E+04</pdfrwt>
<pdfrwt beam="2">  1       -2 0.14473324E+00 0.27456856E+04</pdfrwt>
<totfact> 0.23331334E+00</totfact>
</mgrwt>
<rwgt>
<wgt id='morphing_basis_vector_1'> +5.9058963e-05 </wgt>
<wgt id='morphing_basis_vector_2'> +4.4112082e-05 </wgt>
<wgt id='morphing_basis_vector_3'> +6.5031526e-05 </wgt>
<wgt id='morphing_basis_vector_4'> +4.0203651e-05 </wgt>
<wgt id='morphing_basis_vector_5'> +7.0084160e-05 </wgt>
</rwgt>
</event>
<event>
 4      1 +7.3133000e-09 2.86585700e+03 7.81860800e-03 7.78698400e-02
        2 -1    0    0  501    0 +0.0000000000e+00 +0.0000000000e+00 +1.7429189175e+03 1.7429189175e+03 0.0000000000e+00 0.0000e+00 -1.0000e+00
       -2 -1    0    0    0  501 -0.0000000000e+00 -0.0000000000e+00 -1.1780721392e+03 1.1780721392e+03 0.0000000000e+00 0.0000e+00 1.0000e+00
      -13  1    1    2    0    0 -9.8224835816e+02 -7.6148751195e+02 -4.4446508312e+02 1.3199334370e+03 0.0000000000e+00 0.0000e+00 1.0000e+00
       13  1    1    2    0    0 +9.8224835816e+02 +7.6148751195e+02 +1.0093118614e+03 1.6010576197e+03 0.0000000000e+00 0.0000e+00 -1.0000e+00
<mgrwt>
<rscale>  0 0.28658571E+04</rscale>
<asrwt>0</asrwt>
<pdfrwt beam="1">  1        2 0.26814137E+00 0.28658571E+04</pdfrwt>
<pdfrwt beam="2">  1       -2 0.18124187E+00 0.28658571E+04</pdfrwt>
<totfact> 0.16539427E+00</totfact>
</mgrwt>
<rwgt>
<wgt id='morphing_basis_vector_1'> +6.8001744e-05 </wgt>
<wgt id='morphing_basis_vector_2'> +4.6501852e-05 </wgt>
<wgt id='morphing_basis_vector_3'> +7.4121643e-05 </wgt>
<wgt id='morphing_basis_vector_4'> +5.1887817e-05 </wgt>
<wgt id='morphing_basis_vector_5'> +8.3661701e-05 </wgt>
</rwgt>
</event>
<event>
 4      1 +7.3133000e-09 2.95548700e+03 7.81860800e-03 7.76353400e-02
        2 -1    0    0  501    0 +0.0000000000e+00 +0.0000000000e+00 +2.6401951938e+03 2.6401951938e+03 0.0000000000e+00 0.0000e+00 -1.0000e+00
       -2 -1    0    0    0  501 -0.0000000000e+00 -0.0000000000e+00 -8.2710768637e+02 8.2710768637e+02 0.0000000000e+00 0.0000e+00 1.0000e+00
      -13  1    1    2    0    0 -3.0594131401e+01 +5.4286353693e+02 -7.0548936420e+02 8.9070312877e+02 0.0000000000e+00 0.0000e+00 1.0000e+00
       13  1    1    2    0    0 +3.0594131401e+01 -5.4286353693e+02 +2.5185768716e+03 2.5765997514e+03 0.0000000000e+00 0.0000e+00 -1.0000e+00
<mgrwt>
<rscale>  0 0.29554869E+04</rscale>
<asrwt>0</asrwt>
<pdfrwt beam="1">  1        2 0.40618387E+00 0.29554869E+04</pdfrwt>
<pdfrwt beam="2">  1       -2 0.12724734E+00 0.29554869E+04</pdfrwt>
<totfact> 0.13844652E+00</totfact>
</mgrwt>
<rwgt>
<wgt id='morphing_basis_vector_1'> +7.6482802e-05 </wgt>
<wgt id='morphing_basis_vector_2'> +5.1563873e-05 </wgt>
<wgt id='morphing_basis_vector_3'> +8.3297881e-05 </wgt>
<wgt id='morphing_basis_vector_4'> +5.9467822e-05 </wgt>
<wgt id='morphing_basis_vector_5'> +9.4797293e-05 </wgt>
</rwgt>
</event>
<event>
 4      1 +7.3133000e-09 2.77647500e+03 7.81860800e-03 7.81125100e-02
        2 -1    0    0  501    0 +0.0000000000e+00 +0.0000000000e+00 +1.5338499452e+03 1.5338499452e+03 0.0000000000e+00 0.0000e+00 -1.0000e+00
       -2 -1    0    0    0  501 -0.0000000000e+00 -0.0000000000e+00 -1.2564483004e+03 1.2564483004e+03 0.0000000000e+00 0.0000e+00 1.0000e+00
      -13  1    1    2    0    0 -1.0254898112e+03 +5.0390366268e+02 -6.5367563333e+02 1.3163738405e+03 0.0000000000e+00 0.0000e+00 1.0000e+00
       13  1    1    2    0    0 +1.0254898112e+03 -5.0390366268e+02 +9.3107727812e+02 1.4739244051e+03 0.0000000000e+00 0.0000e+00 -1.0000e+00
<mgrwt>
<rscale>  0 0.27764749E+04</rscale>
<asrwt>0</asrwt>
<pdfrwt beam="1">  1        2 0.23597691E+00 0.27764749E+04</pdfrwt>
<pdfrwt beam="2">  1       -2 0.19329974E+00 0.27764749E+04</pdfrwt>
<totfact> 0.17703591E+00</totfact>
</mgrwt>
<rwgt>
<wgt id='morphing_basis_vector_1'> +5.9897657e-05 </wgt>
<wgt id='morphing_basis_vector_2'> +4.0731794e-05 </wgt>
<wgt id='morphing_basis_vector_3'> +6.5168259e-05 </wgt>
<wgt id='morphing_basis_vector_4'> +4.5835072e-05 </wgt>
<wgt id='morphing_basis_vector_5'> +7.3623903e-05 </wgt>
</rwgt>
</event>
<event>
 4      1 +7.3133000e-09 3.02024200e+03 7.81860800e-03 7.74711400e-02
        2 -1    0    0  501    0 +0.0000000000e+00 +0.0000000000e+00 +1.9261866110e+03 1.9261866110e+03 0.0000000000e+00 0.0000e+00 -1.0000e+00
       -2 -1    0    0    0  501 -0.0000000000e+00 -0.0000000000e+00 -1.1839279341e+03 1.1839279341e+03 0.0000000000e+00 0.0000e+00 1.0000e+00
      -13  1    1    2    0    0 +1.0437111786e+03 -8.9838450394e+02 -2.6701937407e+02 1.4027569595e+03 0.0000000000e+00 0.0000e+00 1.0000e+00
       13  1    1    2    0    0 -1.0437111786e+03 +8.9838450394e+02 +1.0092780509e+03 1.7073575856e+03 0.0000000000e+00 0.0000e+00 -1.0000e+00
<mgrwt>
<rscale>  0 0.30202425E+04</rscale>
<asrwt>0</asrwt>
<pdfrwt beam="1">  1        2 0.29633640E+00 0.30202425E+04</pdfrwt>
<pdfrwt beam="2">  1       -2 0.18214276E+00 0.30202425E+04</pdfrwt>
<totfact> 0.12699030E+00</totfact>
</mgrwt>
<rwgt>
<wgt id='morphing_basis_vector_1'> +8.3921341e-05 </wgt>
<wgt id='morphing_basis_vector_2'> +5.7918271e-05 </wgt>
<wgt id='morphing_basis_vector_3'> +9.1741948e-05 </wgt>
<wgt id='morphing_basis_vector_4'> +6.3698114e-05 </wgt>
<wgt id='morphing_basis_vector_5'> +1.0336359e-04 </wgt>
</rwgt>
</event>
<event>
 4      1 +7.3133000e-09 2.89954100e+03 7.81860800e-03 7.77807100e-02
        2 -1    0    0  501    0 +0.0000000000e+00 +0.0000000000e+00 +2.3323743480e+03 2.3323743480e+03 0.0000000000e+00 0.0000e+00 1.0000e+00
       -2 -1    0    0    0  501 -0.0000000000e+00 -0.0000000000e+00 -9.0115668327e+02 9.0115668327e+02 0.0000000000e+00 0.0000e+00 -1.0000e+00
      -13  1    1    2    0    0 +1.1254986833e+03 +7.5119584165e+02 +1.3529105744e+02 1.3599066692e+03 0.0000000000e+00 0.0000e+00 -1.0000e+00
       13  1    1    2    0    0 -1.1254986833e+03 -7.5119584165e+02 +1.2959266073e+03 1.8736243621e+03 0.0000000000e+00 0.0000e+00 1.0000e+00
<mgrwt>
<rscale>  0 0.28995412E+04</rscale>
<asrwt>0</asrwt>
<pdfrwt beam="1">  1        2 0.35882682E+00 0.28995412E+04</pdfrwt>
<pdfrwt beam="2">  1       -2 0.13863949E+00 0.28995412E+04</pdfrwt>
<totfact> 0.16828568E+00</totfact>
</mgrwt>
<rwgt>
<wgt id='morphing_basis_vector_1'> +7.1529549e-05 </wgt>
<wgt id='morphing_basis_vector_2'> +4.9620975e-05 </wgt>
<wgt id='morphing_basis_vector_3'> +7.8144262e-05 </wgt>
<wgt id='morphing_basis_vector_4'> +5.3757529e-05 </wgt>
<wgt id='morphing_basis_vector_5'> +8.7651978e-05 </wgt>
</rwgt>
</event>
<event>
 4      1 +7.3133000e-09 2.88626600e+03 7.81860800e-03 7.78156900e-02
        2 -1    0    0  501    0 +0.0000000000e+00 +0.0000000000e+00 +1.9021723463e+03 1.9021723463e+03 0.0000000000e+00 0.0000e+00 -1.0000e+00
       -2 -1    0    0    0  501 -0.0000000000e+00 -0.0000000000e+00 -1.0948705644e+03 1.0948705644e+03 0.0000000000e+00 0.0000e+00 1.0000e+00
      -13  1    1    2    0    0 -2.1808645740e+02 -5.9014022251e+02 -9.4496764763e+02 1.1352493295e+03 0.0000000000e+00 0.0000e+00 1.0000e+00
       13  1    1    2    0    0 +2.1808645740e+02 +5.9014022251e+02 +1.7522694296e+03 1.8617935812e+03 0.0000000000e+00 0.0000e+00 -1.0000e+00
<mgrwt>
<rscale>  0 0.28862658E+04</rscale>
<asrwt>0</asrwt>
<pdfrwt beam="1">  1        2 0.29264190E+00 0.28862658E+04</pdfrwt>
<pdfrwt beam="2">  1       -2 0.16844163E+00 0.28862658E+04</pdfrwt>
<totfact> 0.16884356E+00</totfact>
</mgrwt>
<rwgt>
<wgt id='morphing_basis_vector_1'> +6.9632614e-05 </wgt>
<wgt id='morphing_basis_vector_2'> +4.6929487e-05 </wgt>
<wgt id='morphing_basis_vector_3'> +7.5775500e-05 </wgt>
<wgt id='morphing_basis_vector_4'> +5.4034059e-05 </wgt>
<wgt id='morphing_basis_vector_5'> +8.6146261e-05 </wgt>
</rwgt>
</event>
<event>
 4      1 +7.3133000e-09 2.77421200e+03 7.81860800e-03 7.81187700e-02
        2 -1    0    0  501    0 +0.0000000000e+00 +0.0000000000e+00 +9.6386617944e+02 9.6386617944e+02 0.0000000000e+00 0.0000e+00 -1.0000e+00
       -2 -1    0    0    0  501 -0.0000000000e+00 -0.0000000000e+00 -1.9961935506e+03 1.9961935506e+03 0.0000000000e+00 0.0000e+00 1.0000e+00
      -13  1    1    2    0    0 +8.3095327480e+02 +1.0577719497e+03 -8.7752350334e+02 1.6060548999e+03 0.0000000000e+00 0.0000e+00 1.0000e+00
       13  1    1    2    0    0 -8.3095327480e+02 -1.0577719497e+03 -1.5480386779e+02 1.3540048301e+03 0.0000000000e+00 0.0000e+00 -1.0000e+00
<mgrwt>
<rscale>  0 0.27742123E+04</rscale>
<asrwt>0</asrwt>
<pdfrwt beam="1">  1        2 0.14828711E+00 0.27742123E+04</pdfrwt>
<pdfrwt beam="2">  1       -2 0.30710670E+00 0.27742123E+04</pdfrwt>
<totfact> 0.61439818E-01</totfact>
</mgrwt>
<rwgt>
<wgt id='morphing_basis_vector_1'> +6.0382187e-05 </wgt>
<wgt id='morphing_basis_vector_2'> +4.2596493e-05 </wgt>
<wgt id='morphing_basis_vector_3'> +6.6006415e-05 </wgt>
<wgt id='morphing_basis_vector_4'> +4.4282413e-05 </wgt>
<wgt id='morphing_basis_vector_5'> +7.3267128e-05 </wgt>
</rwgt>
</event>
<event>
 4      1 +7.3133000e-09 3.02800700e+03 7.81860800e-03 7.74517400e-02
        2 -1    0    0  501    0 +0.0000000000e+00 +0.0000000000e+00 +1.5112963895e+03 1.5112963895e+03 0.0000000000e+00 0.0000e+00 -1.0000e+00
       -2 -1    0    0    0  501 -0.0000000000e+00 -0.0000000000e+00 -1.5167159515e+03 1.5167159515e+03 0.0000000000e+00 0.0000e+00 1.0000e+00
      -13  1    1    2    0    0 +1.5616152250e+02 -1.1108377054e+03 -1.0195007253e+03 1.5158260315e+03 0.0000000000e+00 0.0000e+00 1.0000e+00
       13  1    1    2    0    0 -1.5616152250e+02 +1.1108377054e+03 +1.0140811633e+03 1.5121863095e+03 0.0000000000e+00 0.0000e+00 -1.0000e+00
<mgrwt>
<rscale>  0 0.30280075E+04</rscale>
<asrwt>0</asrwt>
<pdfrwt beam="1">  1        2 0.23250714E+00 0.30280075E+04</pdfrwt>
<pdfrwt beam="2">  1       -2 0.23334092E+00 0.30280075E+04</pdfrwt>
<totfact> 0.92100509E-01</totfact>
</mgrwt>
<rwgt>
<wgt id='morphing_basis_vector_1'> +8.4323290e-05 </wgt>
<wgt id='morphing_basis_vector_2'> +5.7169128e-05 </wgt>
<wgt id='morphing_basis_vector_3'> +9.1973129e-05 </wgt>
<wgt id='morphing_basis_vector_4'> +6.5312734e-05 </wgt>
<wgt id='morphing_basis_vector_5'> +1.0451825e-04 </wgt>
</rwgt>
</event>
<event>
 4      1 +7.3133000e-09 2.79658000e+03 7.81860800e-03 7.80571200e-02
        2 -1    0    0  501    0 +0.0000000000e+00 +0.0000000000e+00 +3.1635434920e+03 3.1635434920e+03 0.0000000000e+00 0.0000e+00 -1.0000e+00
       -2 -1    0    0    0  501 -0.0000000000e+00 -0.0000000000e+00 -6.1804588669e+02 6.1804588669e+02 0.0000000000e+00 0.0000e+00 1.0000e+00
      -13  1    1    2    0    0 -8.6916478471e+02 +2.3273748242e+02 -1.7456858267e+02 9.1656333592e+02 0.0000000000e+00 0.0000e+00 1.0000e+00
       13  1    1    2    0    0 +8.6916478471e+02 -2.3273748242e+02 +2.7200661879e+03 2.8650260427e+03 0.0000000000e+00 0.0000e+00 -1.0000e+00
<mgrwt>
<rscale>  0 0.27965801E+04</rscale>
<asrwt>0</asrwt>
<pdfrwt beam="1">  1        2 0.48669899E+00 0.27965801E+04</pdfrwt>
<pdfrwt beam="2">  1       -2 0.95083984E-01 0.27965801E+04</pdfrwt>
<totfact> 0.13481125E+00</totfact>
</mgrwt>
<rwgt>
<wgt id='morphing_basis_vector_1'> +6.1488451e-05 </wgt>
<wgt id='morphing_basis_vector_2'> +4.1493650e-05 </wgt>
<wgt id='morphing_basis_vector_3'> +6.6851077e-05 </wgt>
<wgt id='morphing_basis_vector_4'> +4.7489804e-05 </wgt>
<wgt id='morphing_basis_vector_5'> +7.5826639e-05 </wgt>
</rwgt>
</event>
<event>
 4      1 +7.3133000e-09 2.96172800e+03 7.81860800e-03 7.76193200e-02
        2 -1    0    0  501    0 +0.0000000000e+00 +0.0000000000e+00 +2.9653543502e+03 2.9653543502e+03 0.0000000000e+00 0.0000e+00 -1.0000e+00
       -2 -1    0    0    0  501 -0.0000000000e+00 -0.0000000000e+00 -7.3952669756e+02 7.3952669756e+02 0.0000000000e+00 0.0000e+00 1.0000e+00
      -13  1    1    2    0    0 +1.1000648254e+03 +9.7824615722e+02 +1.3140378278e+03 1.9732723018e+03 0.0000000000e+00 0.0000e+00 1.0000e+00
       13  1    1    2    0    0 -1.1000648254e+03 -9.7824615722e+02 +9.1178982480e+02 1.7316087459e+03 0.0000000000e+00 0.0000e+00 -1.0000e+00
<mgrwt>
<rscale>  0 0.29617284E+04</rscale>
<asrwt>0</asrwt>
<pdfrwt beam="1">  1        2 0.45620836E+00 0.29617284E+04</pdfrwt>
<pdfrwt beam="2">  1       -2 0.11377334E+00 0.29617284E+04</pdfrwt>
<totfact> 0.11565811E+00</totfact>
</mgrwt>
<rwgt>
<wgt id='morphing_basis_vector_1'> +8.1275553e-05 </wgt>
<wgt id='morphing_basis_vector_2'> +6.4224913e-05 </wgt>
<wgt id='morphing_basis_vector_3'> +9.0490337e-05 </wgt>
<wgt id='morphing_basis_vector_4'> +5.1342301e-05 </wgt>
<wgt id='morphing_basis_vector_5'> +9.4898959e-05 </wgt>
</rwgt>
</event>
<event>
 4      1 +7.3133000e-09 2.78932200e+03 7.81860800e-03 7.80770600e-02
        2 -1    0    0  501    0 +0.0000000000e+00 +0.0000000000e+00 +6.7498300863e+02 6.7498300863e+02 0.0000000000e+00 0.0000e+00 -1.0000e+00
       -2 -1    0    0    0  501 -0.0000000000e+00 -0.0000000000e+00 -2.8816706279e+03 2.8816706279e+03 0.0000000000e+00 0.0000e+00 1.0000e+00
      -13  1    1    2    0    0 -8.9225781021e+02 -3.5077295422e+02 -2.3948552688e+03 2.5796312573e+03 0.0000000000e+00 0.0000e+00 1.0000e+00
       13  1    1    2    0    0 +8.9225781021e+02 +3.5077295422e+02 +1.8816764947e+02 9.7702237927e+02 0.0000000000e+00 0.0000e+00 -1.0000e+00
<mgrwt>
<rscale>  0 0.27893216E+04</rscale>
<asrwt>0</asrwt>
<pdfrwt beam="1">  1        2 0.10384354E+00 0.27893216E+04</pdfrwt>
<pdfrwt beam="2">  1       -2 0.44333395E+00 0.27893216E+04</pdfrwt>
<totfact> 0.12378911E-01</totfact>
</mgrwt>
<rwgt>
<wgt id='morphing_basis_vector_1'> +6.0877666e-05 </wgt>
<wgt id='morphing_basis_vector_2'> +4.1120847e-05 </wgt>
<wgt id='morphing_basis_vector_3'> +6.6188931e-05 </wgt>
<wgt id='morphing_basis_vector_4'> +4.6955537e-05 </wgt>
<wgt id='morphing_basis_vector_5'> +7.5031353e-05 </wgt>
</rwgt>
</event>
<event>
 4      1 +7.3133000e-09 3.04112300e+03 7.81860800e-03 7.74191000e-02
        2 -1    0    0  501    0 +0.0000000000e+00 +0.0000000000e+00 +1.3794402365e+03 1.3794402365e+03 0.0000000000e+00 0.0000e+00 -1.0000e+00
       -2 -1    0    0    0  501 -0.0000000000e+00 -0.0000000000e+00 -1.6761197955e+03 1.6761197955e+03 0.0000000000e+00 0.0000e+00 1.0000e+00
      -13  1    1    2    0    0 -8.9466222455e+02 -8.6177956696e+02 -1.0294422019e+03 1.6133306435e+03 0.0000000000e+00 0.0000e+00 1.0000e+00
       13  1    1    2    0    0 +8.9466222455e+02 +8.6177956696e+02 +7.3276264294e+02 1.4422293885e+03 0.0000000000e+00 0.0000e+00 -1.0000e+00
<mgrwt>
<rscale>  0 0.30411229E+04</rscale>
<asrwt>0</asrwt>
<pdfrwt beam="1">  1        2 0.21222157E+00 0.30411229E+04</pdfrwt>
<pdfrwt beam="2">  1       -2 0.25786459E+00 0.30411229E+04</pdfrwt>
<totfact> 0.73748593E-01</totfact>
</mgrwt>
<rwgt>
<wgt id='morphing_basis_vector_1'> +8.5896047e-05 </wgt>
<wgt id='morphing_basis_vector_2'> +5.8502429e-05 </wgt>
<wgt id='morphing_basis_vector_3'> +9.3757006e-05 </wgt>
<wgt id='morphing_basis_vector_4'> +6.6220734e-05 </wgt>
<wgt id='morphing_basis_vector_5'> +1.0633699e-04 </wgt>
</rwgt>
</event>
<event>
 4      1 +7.3133000e-09 2.89918900e+03 7.81860800e-03 7.77816300e-02
        2 -1    0    0  501    0 +0.0000000000e+00 +0.0000000000e+00 +1.1567052865e+03 1.1567052865e+03 0.0000000000e+00 0.0000e+00 1.0000e+00
       -2 -1    0    0    0  501 -0.0000000000e+00 -0.0000000000e+00 -1.8166456815e+03 1.8166456815e+03 0.0000000000e+00 0.0000e+00 -1.0000e+00
      -13  1    1    2    0    0 +3.7850388784e+02 +8.6538681800e+02 -1.4577188868e+03 1.7369812580e+03 0.0000000000e+00 0.0000e+00 -1.0000e+00
       13  1    1    2    0    0 -3.7850388784e+02 -8.6538681800e+02 +7.9777849173e+02 1.2363697100e+03 0.0000000000e+00 0.0000e+00 1.0000e+00
<mgrwt>
<rscale>  0 0.28991886E+04</rscale>
<asrwt>0</asrwt>
<pdfrwt beam="1">  1        2 0.17795466E+00 0.28991886E+04</pdfrwt>
<pdfrwt beam="2">  1       -2 0.27948395E+00 0.28991886E+04</pdfrwt>
<totfact> 0.71336272E-01</totfact>
</mgrwt>
<rwgt>
<wgt id='morphing_basis_vector_1'> +7.0922057e-05 </wgt>
<wgt id='morphing_basis_vector_2'> +4.7908725e-05 </wgt>
<wgt id='morphing_basis_vector_3'> +7.7212956e-05 </wgt>
<wgt id='morphing_basis_vector_4'> +5.4921229e-05 </wgt>
<wgt id='morphing_basis_vector_5'> +8.7706542e-05 </wgt>
</rwgt>
</event>
<event>
 4      1 +7.3133000e-09 2.72434300e+03 7.81860800e-03 7.82583600e-02
        2 -1    0    0  501    0 +0.0000000000e+00 +0.0000000000e+00 +1.2965796528e+03 1.2965796528e+03 0.0000000000e+00 0.0000e+00 1.0000e+00
       -2 -1    0    0    0  501 -0.0000000000e+00 -0.0000000000e+00 -1.4310813820e+03 1.4310813820e+03 0.0000000000e+00 0.0000e+00 -1.0000e+00
      -13  1    1    2    0    0 +4.7568629626e+02 +1.0362383070e+03 -8.1343956421e+02 1.4006252911e+03 0.0000000000e+00 0.0000e+00 -1.0000e+00
       13  1    1    2    0    0 -4.7568629626e+02 -1.0362383070e+03 +6.7893783495e+02 1.3270357437e+03 0.0000000000e+00 0.0000e+00 1.0000e+00
<mgrwt>
<rscale>  0 0.27243429E+04</rscale>
<asrwt>0</asrwt>
<pdfrwt beam="1">  1        2 0.19947379E+00 0.27243429E+04</pdfrwt>
<pdfrwt beam="2">  1       -2 0.22016637E+00 0.27243429E+04</pdfrwt>
<totfact> 0.15473753E+00</totfact>
</mgrwt>
<rwgt>
<wgt id='morphing_basis_vector_1'> +5.5591163e-05 </wgt>
<wgt id='morphing_basis_vector_2'> +3.7834239e-05 </wgt>
<wgt id='morphing_basis_vector_3'> +6.0446543e-05 </wgt>
<wgt id='morphing_basis_vector_4'> +4.2410659e-05 </wgt>
<wgt id='morphing_basis_vector_5'> +6.8189929e-05 </wgt>
</rwgt>
</event>
<event>
 4      1 +7.3133000e-09 2.72870600e+03 7.81860800e-03 7.82460300e-02
        2 -1    0    0  501    0 +0.0000000000e+00 +0.0000000000e+00 +1.2795370538e+03 1.2795370538e+03 0.0000000000e+00 0.0000e+00 1.0000e+00
       -2 -1    0    0    0  501 -0.0000000000e+00 -0.0000000000e+00 -1.4547906467e+03 1.4547906467e+03 0.0000000000e+00 0.0000e+00 -1.0000e+00
      -13  1    1    2    0    0 +1.2722328524e+03 +2.4467453431e+02 -5.1631248152e+02 1.3946399668e+03 0.0000000000e+00 0.0000e+00 -1.0000e+00
       13  1    1    2    0    0 -1.2722328524e+03 -2.4467453431e+02 +3.4105888859e+02 1.3396877337e+03 0.0000000000e+00 0.0000e+00 1.0000e+00
<mgrwt>
<rscale>  0 0.27287056E+04</rscale>
<asrwt>0</asrwt>
<pdfrwt beam="1">  1        2 0.19685186E+00 0.27287056E+04</pdfrwt>
<pdfrwt beam="2">  1       -2 0.22381394E+00 0.27287056E+04</pdfrwt>
<totfact> 0.14907303E+00</totfact>
</mgrwt>
<rwgt>
<wgt id='morphing_basis_vector_1'> +5.6353520e-05 </wgt>
<wgt id='morphing_basis_vector_2'> +3.9282703e-05 </wgt>
<wgt id='morphing_basis_vector_3'> +6.1467492e-05 </wgt>
<wgt id='morphing_basis_vector_4'> +4.1839971e-05 </wgt>
<wgt id='morphing_basis_vector_5'> +6.8563430e-05 </wgt>
</rwgt>
</event>
<event>
 4      1 +7.3133000e-09 2.85997500e+03 7.81860800e-03 7.78855300e-02
        2 -1    0    0  501    0 +0.0000000000e+00 +0.0000000000e+00 +2.1123722516e+03 2.1123722516e+03 0.0000000000e+00 0.0000e+00 -1.0000e+00
       -2 -1    0    0    0  501 -0.0000000000e+00 -0.0000000000e+00 -9.6804175591e+02 9.6804175591e+02 0.0000000000e+00 0.0000e+00 1.0000e+00
      -13  1    1    2    0    0 +6.1803737526e+02 -1.0388062672e+03 -2.5077802080e+02 1.2344951494e+03 0.0000000000e+00 0.0000e+00 1.0000e+00
       13  1    1    2    0    0 -6.1803737526e+02 +1.0388062672e+03 +1.3951085165e+03 1.8459188582e+03 0.0000000000e+00 0.0000e+00 -1.0000e+00
<mgrwt>
<rscale>  0 0.28599752E+04</rscale>
<asrwt>0</asrwt>
<pdfrwt beam="1">  1        2 0.32498034E+00 0.28599752E+04</pdfrwt>
<pdfrwt beam="2">  1       -2 0.14892950E+00 0.28599752E+04</pdfrwt>
<totfact> 0.18494754E+00</totfact>
</mgrwt>
<rwgt>
<wgt id='morphing_basis_vector_1'> +6.7396242e-05 </wgt>
<wgt id='morphing_basis_vector_2'> +4.5962355e-05 </wgt>
<wgt id='morphing_basis_vector_3'> +7.3430594e-05 </wgt>
<wgt id='morphing_basis_vector_4'> +5.1572145e-05 </wgt>
<wgt id='morphing_basis_vector_5'> +8.2979609e-05 </wgt>
</rwgt>
</event>
<event>
 4      1 +7.3133000e-09 3.10935500e+03 7.81860800e-03 7.72520100e-02
        2 -1    0    0  501    0 +0.0000000000e+00 +0.0000000000e+00 +9.1932394158e+02 9.1932394158e+02 0.0000000000e+00 0.0000e+00 -1.0000e+00
       -2 -1    0    0    0  501 -0.0000000000e+00 -0.0000000000e+00 -2.6291302824e+03 2.6291302824e+03 0.0000000000e+00 0.0000e+00 1.0000e+00
      -13  1    1    2    0    0 +4.0981608328e+02 +1.0483062795e+03 -2.0787915116e+03 2.3639520779e+03 0.0000000000e+00 0.0000e+00 1.0000e+00
       13  1    1    2    0    0 -4.0981608328e+02 -1.0483062795e+03 +3.6898517081e+02 1.1845021461e+03 0.0000000000e+00 0.0000e+00 -1.0000e+00
<mgrwt>
<rscale>  0 0.31093552E+04</rscale>
<asrwt>0</asrwt>
<pdfrwt beam="1">  1        2 0.14143446E+00 0.31093552E+04</pdfrwt>
<pdfrwt beam="2">  1       -2 0.40448157E+00 0.31093552E+04</pdfrwt>
<totfact> 0.14763777E-01</totfact>
</mgrwt>
<rwgt>
<wgt id='morphing_basis_vector_1'> +9.3651637e-05 </wgt>
<wgt id='morphing_basis_vector_2'> +6.3486186e-05 </wgt>
<wgt id='morphing_basis_vector_3'> +1.0222656e-04 </wgt>
<wgt id='morphing_basis_vector_4'> +7.2721394e-05 </wgt>
<wgt id='morphing_basis_vector_5'> +1.1631812e-04 </wgt>
</rwgt>
</event>
<event>
 4      1 +7.3133000e-09 2.79556000e+03 7.81860800e-03 7.80599200e-02
        2 -1    0    0  501    0 +0.0000000000e+00 +0.0000000000e+00 +2.3465442738e+03 2.3465442738e+03 0.0000000000e+00 0.0000e+00 -1.0000e+00
       -2 -1    0    0    0  501 -0.0000000000e+00 -0.0000000000e+00 -8.3262410977e+02 8.3262410977e+02 0.0000000000e+00 0.0000e+00 1.0000e+00
      -13  1    1    2    0    0 +7.3148576403e+02 -5.1767321542e+02 -4.6296126209e+02 1.0086575787e+03 0.0000000000e+00 0.0000e+00 1.0000e+00
       13  1    1    2    0    0 -7.3148576403e+02 +5.1767321542e+02 +1.9768814261e+03 2.1705108048e+03 0.0000000000e+00 0.0000e+00 -1.0000e+00
<mgrwt>
<rscale>  0 0.27955603E+04</rscale>
<asrwt>0</asrwt>
<pdfrwt beam="1">  1        2 0.36100681E+00 0.27955603E+04</pdfrwt>
<pdfrwt beam="2">  1       -2 0.12809602E+00 0.27955603E+04</pdfrwt>
<totfact> 0.20642359E+00</totfact>
</mgrwt>
<rwgt>
<wgt id='morphing_basis_vector_1'> +6.1398905e-05 </wgt>
<wgt id='morphing_basis_vector_2'> +4.1430938e-05 </wgt>
<wgt id='morphing_basis_vector_3'> +6.6752388e-05 </wgt>
<wgt id='morphing_basis_vector_4'> +4.7421625e-05 </wgt>
<wgt id='morphing_basis_vector_5'> +7.5715111e-05 </wgt>
</rwgt>
</event>
<event>
 4      1 +7.3133000e-09 2.75415300e+03 7.81860800e-03 7.81745600e-02
        2 -1    0    0  501    0 +0.0000000000e+00 +0.0000000000e+00 +1.6902981497e+03 1.6902981497e+03 0.0000000000e+00 0.0000e+00 -1.0000e+00
       -2 -1    0    0    0  501 -0.0000000000e+00 -0.0000000000e+00 -1.1218963404e+03 1.1218963404e+03 0.0000000000e+00 0.0000e+00 1.0000e+00
      -13  1    1    2    0    0 +2.7523394486e+02 +9.1698445211e+01 -1.0903399041e+03 1.1282745392e+03 0.0000000000e+00 0.0000e+00 1.0000e+00
       13  1    1    2    0    0 -2.7523394486e+02 -9.1698445211e+01 +1.6587417134e+03 1.6839199509e+03 0.0000000000e+00 0.0000e+00 -1.0000e+00
<mgrwt>
<rscale>  0 0.27541527E+04</rscale>
<asrwt>0</asrwt>
<pdfrwt beam="1">  1        2 0.26004587E+00 0.27541527E+04</pdfrwt>
<pdfrwt beam="2">  1       -2 0.17259944E+00 0.27541527E+04</pdfrwt>
<totfact> 0.20802140E+00</totfact>
</mgrwt>
<rwgt>
<wgt id='morphing_basis_vector_1'> +5.7837373e-05 </wgt>
<wgt id='morphing_basis_vector_2'> +3.8921194e-05 </wgt>
<wgt id='morphing_basis_vector_3'> +6.2824779e-05 </wgt>
<wgt id='morphing_basis_vector_4'> +4.4730494e-05 </wgt>
<wgt id='morphing_basis_vector_5'> +7.1290546e-05 </wgt>
</rwgt>
</event>
<event>
 4      1 +7.3133000e-09 2.74431100e+03 7.81860800e-03 7.82021100e-02
        2 -1    0    0  501    0 +0.0000000000e+00 +0.0000000000e+00 +2.6488272978e+03 2.6488272978e+03 0.0000000000e+00 0.0000e+00 -1.0000e+00
       -2 -1    0    0    0  501 -0.0000000000e+00 -0.0000000000e+00 -7.1080911349e+02 7.1080911349e+02 0.0000000000e+00 0.0000e+00 1.0000e+00
      -13  1    1    2    0    0 -1.1631793191e+02 -1.3546773553e+03 +1.1951749363e+03 1.8102827753e+03 0.0000000000e+00 0.0000e+00 1.0000e+00
       13  1    1    2    0    0 +1.1631793191e+02 +1.3546773553e+03 +7.4284324801e+02 1.5493536360e+03 0.0000000000e+00 0.0000e+00 -1.0000e+00
<mgrwt>
<rscale>  0 0.27443109E+04</rscale>
<asrwt>0</asrwt>
<pdfrwt beam="1">  1        2 0.40751189E+00 0.27443109E+04</pdfrwt>
<pdfrwt beam="2">  1       -2 0.10935525E+00 0.27443109E+04</pdfrwt>
<totfact> 0.20582450E+00</totfact>
</mgrwt>
<rwgt>
<wgt id='morphing_basis_vector_1'> +6.0382248e-05 </wgt>
<wgt id='morphing_basis_vector_2'> +4.8269473e-05 </wgt>
<wgt id='morphing_basis_vector_3'> +6.7130572e-05 </wgt>
<wgt id='morphing_basis_vector_4'> +3.7144855e-05 </wgt>
<wgt id='morphing_basis_vector_5'> +6.9699233e-05 </wgt>
</rwgt>
</event>
<event>
 4      1 +7.3133000e-09 2.96937900e+03 7.81860800e-03 7.75997500e-02
        2 -1    0    0  501    0 +0.0000000000e+00 +0.0000000000e+00 +1.4337168925e+03 1.4337168925e+03 0.0000000000e+00 0.0000e+00 -1.0000e+00
       -2 -1    0    0    0  501 -0.0000000000e+00 -0.0000000000e+00 -1.5374741352e+03 1.5374741352e+03 0.0000000000e+00 0.0000e+00 1.0000e+00
      -13  1    1    2    0    0 -7.8244236086e+02 -1.1552793167e+03 -5.5955035556e+02 1.5033239664e+03 0.0000000000e+00 0.0000e+00 1.0000e+00
       13  1    1    2    0    0 +7.8244236086e+02 +1.1552793167e+03 +4.5579311292e+02 1.4678670612e+03 0.0000000000e+00 0.0000e+00 -1.0000e+00
<mgrwt>
<rscale>  0 0.29693788E+04</rscale>
<asrwt>0</asrwt>
<pdfrwt beam="1">  1        2 0.22057183E+00 0.29693788E+04</pdfrwt>
<pdfrwt beam="2">  1       -2 0.23653448E+00 0.29693788E+04</pdfrwt>
<totfact> 0.97183107E-01</totfact>
</mgrwt>
<rwgt>
<wgt id='morphing_basis_vector_1'> +7.8657890e-05 </wgt>
<wgt id='morphing_basis_vector_2'> +5.4717665e-05 </wgt>
<wgt id='morphing_basis_vector_3'> +8.6031708e-05 </wgt>
<wgt id='morphing_basis_vector_4'> +5.9063190e-05 </wgt>
<wgt id='morphing_basis_vector_5'> +9.6482159e-05 </wgt>
</rwgt>
</event>
<event>
 4      1 +7.3133000e-09 3.00059900e+03 7.81860800e-03 7.75204900e-02
        2 -1    0    0  501    0 +0.0000000000e+00 +0.0000000000e+00 +1.2718264672e+03 1.2718264672e+03 0.0000000000e+00 0.0000e+00 1.0000e+00
       -2 -1    0    0    0  501 -0.0000000000e+00 -0.0000000000e+00 -1.7698163050e+03 1.7698163050e+03 0.0000000000e+00 0.0000e+00 -1.0000e+00
      -13  1    1    2    0    0 +1.2079522065e+03 -6.2416512372e+02 -8.9183693845e+02 1.6260700353e+03 0.0000000000e+00 0.0000e+00 -1.0000e+00
       13  1    1    2    0    0 -1.2079522065e+03 +6.2416512372e+02 +3.9384710069e+02 1.4155727369e+03 0.0000000000e+00 0.0000e+00 1.0000e+00
<mgrwt>
<rscale>  0 0.30005994E+04</rscale>
<asrwt>0</asrwt>
<pdfrwt beam="1">  1        2 0.19566561E+00 0.30005994E+04</pdfrwt>
<pdfrwt beam="2">  1       -2 0.27227943E+00 0.30005994E+04</pdfrwt>
<totfact> 0.67876031E-01</totfact>
</mgrwt>
<rwgt>
<wgt id='morphing_basis_vector_1'> +8.1746245e-05 </wgt>
<wgt id='morphing_basis_vector_2'> +5.6336657e-05 </wgt>
<wgt id='morphing_basis_vector_3'> +8.9328945e-05 </wgt>
<wgt id='morphing_basis_vector_4'> +6.2110506e-05 </wgt>
<wgt id='morphing_basis_vector_5'> +1.0068313e-04 </wgt>
</rwgt>
</event>
<event>
 4      1 +7.3133000e-09 2.72122800e+03 7.81860800e-03 7.82671800e-02
        2 -1    0    0  501    0 +0.0000000000e+00 +0.0000000000e+00 +2.1717150861e+03 2.1717150861e+03 0.0000000000e+00 0.0000e+00 -1.0000e+00
       -2 -1    0    0    0  501 -0.0000000000e+00 -0.0000000000e+00 -8.5244599564e+02 8.5244599564e+02 0.0000000000e+00 0.0000e+00 1.0000e+00
      -13  1    1    2    0    0 +6.6589692059e+01 +1.3441009029e+03 +8.8253269677e+02 1.6093182983e+03 0.0000000000e+00 0.0000e+00 1.0000e+00
       13  1    1    2    0    0 -6.6589692059e+01 -1.3441009029e+03 +4.3673639374e+02 1.4148427835e+03 0.0000000000e+00 0.0000e+00 -1.0000e+00
<mgrwt>
<rscale>  0 0.27212275E+04</rscale>
<asrwt>0</asrwt>
<pdfrwt beam="1">  1        2 0.33411001E+00 0.27212275E+04</pdfrwt>
<pdfrwt beam="2">  1       -2 0.13114554E+00 0.27212275E+04</pdfrwt>
<totfact> 0.24617323E+00</totfact>
</mgrwt>
<rwgt>
<wgt id='morphing_basis_vector_1'> +5.8542441e-05 </wgt>
<wgt id='morphing_basis_vector_2'> +4.7102432e-05 </wgt>
<wgt id='morphing_basis_vector_3'> +6.5121717e-05 </wgt>
<wgt id='morphing_basis_vector_4'> +3.5599232e-05 </wgt>
<wgt id='morphing_basis_vector_5'> +6.7335195e-05 </wgt>
</rwgt>
</event>
<event>
 4      1 +7.3133000e-09 2.72188600e+03 7.81860800e-03 7.82653200e-02
        2 -1    0    0  501    0 +0.0000000000e+00 +0.0000000000e+00 +7.3674894439e+02 7.3674894439e+02 0.0000000000e+00 0.0000e+00 -1.0000e+00
       -2 -1    0    0    0  501 -0.0000000000e+00 -0.0000000000e+00 -2.5139716541e+03 2.5139716541e+03 0.0000000000e+00 0.0000e+00 1.0000e+00
      -13  1    1    2    0    0 +2.3011937402e+02 -1.3074493721e+03 -1.2464743999e+03 1.8210099441e+03 0.0000000000e+00 0.0000e+00 1.0000e+00
       13  1    1    2    0    0 -2.3011937402e+02 +1.3074493721e+03 -5.3074830979e+02 1.4297106544e+03 0.0000000000e+00 0.0000e+00 -1.0000e+00
<mgrwt>
<rscale>  0 0.27218861E+04</rscale>
<asrwt>0</asrwt>
<pdfrwt beam="1">  1        2 0.11334599E+00 0.27218861E+04</pdfrwt>
<pdfrwt beam="2">  1       -2 0.38676488E+00 0.27218861E+04</pdfrwt>
<totfact> 0.26515199E-01</totfact>
</mgrwt>
<rwgt>
<wgt id='morphing_basis_vector_1'> +5.6081211e-05 </wgt>
<wgt id='morphing_basis_vector_2'> +3.9727034e-05 </wgt>
<wgt id='morphing_basis_vector_3'> +6.1292837e-05 </wgt>
<wgt id='morphing_basis_vector_4'> +4.0834692e-05 </wgt>
<wgt id='morphing_basis_vector_5'> +6.7825609e-05 </wgt>
</rwgt>
</event>
<event>
 4      1 +7.3133000e-09 2.74108700e+03 7.81860800e-03 7.82111600e-02
        2 -1    0    0  501    0 +0.0000000000e+00 +0.0000000000e+00 +2.5426310950e+03 2.5426310950e+03 0.0000000000e+00 0.0000e+00 1.0000e+00
       -2 -1    0    0    0  501 -0.0000000000e+00 -0.0000000000e+00 -7.3875822742e+02 7.3875822742e+02 0.0000000000e+00 0.0000e+00 -1.0000e+00
      -13  1    1    2    0    0 +7.1752566102e+02 +9.9241303125e+02 +1.6528621016e+02 1.2357371201e+03 0.0000000000e+00 0.0000e+00 -1.0000e+00
       13  1    1    2    0    0 -7.1752566102e+02 -9.9241303125e+02 +1.6385866574e+03 2.0456522023e+03 0.0000000000e+00 0.0000e+00 1.0000e+00
<mgrwt>
<rscale>  0 0.27410871E+04</rscale>
<asrwt>0</asrwt>
<pdfrwt beam="1">  1        2 0.39117401E+00 0.27410871E+04</pdfrwt>
<pdfrwt beam="2">  1       -2 0.11365511E+00 0.27410871E+04</pdfrwt>
<totfact> 0.21665040E+00</totfact>
</mgrwt>
<rwgt>
<wgt id='morphing_basis_vector_1'> +5.7088125e-05 </wgt>
<wgt id='morphing_basis_vector_2'> +3.9160303e-05 </wgt>
<wgt id='morphing_basis_vector_3'> +6.2150917e-05 </wgt>
<wgt id='morphing_basis_vector_4'> +4.3199378e-05 </wgt>
<wgt id='morphing_basis_vector_5'> +6.9877750e-05 </wgt>
</rwgt>
</event>
<event>
 4      1 +7.3133000e-09 2.80767500e+03 7.81860800e-03 7.80267600e-02
        2 -1    0    0  501    0 +0.0000000000e+00 +0.0000000000e+00 +1.0450068349e+03 1.0450068349e+03 0.0000000000e+00 0.0000e+00 -1.0000e+00
       -2 -1    0    0    0  501 -0.0000000000e+00 -0.0000000000e+00 -1.8858818093e+03 1.8858818093e+03 0.0000000000e+00 0.0000e+00 1.0000e+00
      -13  1    1    2    0    0 -7.4568032647e+02 -1.1563717508e+03 -1.2978616504e+02 1.3820561581e+03 0.0000000000e+00 0.0000e+00 1.0000e+00
       13  1    1    2    0    0 +7.4568032647e+02 +1.1563717508e+03 -7.1108880932e+02 1.5488324862e+03 0.0000000000e+00 0.0000e+00 -1.0000e+00
<mgrwt>
<rscale>  0 0.28076748E+04</rscale>
<asrwt>0</asrwt>
<pdfrwt beam="1">  1        2 0.16077029E+00 0.28076748E+04</pdfrwt>
<pdfrwt beam="2">  1       -2 0.29013566E+00 0.28076748E+04</pdfrwt>
<totfact> 0.71002915E-01</totfact>
</mgrwt>
<rwgt>
<wgt id='morphing_basis_vector_1'> +6.6976551e-05 </wgt>
<wgt id='morphing_basis_vector_2'> +5.5464025e-05 </wgt>
<wgt id='morphing_basis_vector_3'> +7.4930212e-05 </wgt>
<wgt id='morphing_basis_vector_4'> +3.8899226e-05 </wgt>
<wgt id='morphing_basis_vector_5'> +7.6284001e-05 </wgt>
</rwgt>
</event>
<event>
 4      1 +7.3133000e-09 3.09843300e+03 7.81860800e-03 7.72784600e-02
        2 -1    0    0  501    0 +0.0000000000e+00 +0.0000000000e+00 +1.7219553253e+03 1.7219553253e+03 0.0000000000e+00 0.0000e+00 1.0000e+00
       -2 -1    0    0    0  501 -0.0000000000e+00 -0.0000000000e+00 -1.3938060160e+03 1.3938060160e+03 0.0000000000e+00 0.0000e+00 -1.0000e+00
      -13  1    1    2    0    0 -9.7123649134e+02 +4.9339660671e+01 -1.0486287680e+03 1.4301597874e+03 0.0000000000e+00 0.0000e+00 -1.0000e+00
       13  1    1    2    0    0 +9.7123649134e+02 -4.9339660671e+01 +1.3767780774e+03 1.6856015539e+03 0.0000000000e+00 0.0000e+00 1.0000e+00
<mgrwt>
<rscale>  0 0.30984330E+04</rscale>
<asrwt>0</asrwt>
<pdfrwt beam="1">  1        2 0.26491620E+00 0.30984330E+04</pdfrwt>
<pdfrwt beam="2">  1       -2 0.21443169E+00 0.30984330E+04</pdfrwt>
<totfact> 0.95053673E-01</totfact>
</mgrwt>
<rwgt>
<wgt id='morphing_basis_vector_1'> +9.2285729e-05 </wgt>
<wgt id='morphing_basis_vector_2'> +6.2401744e-05 </wgt>
<wgt id='morphing_basis_vector_3'> +1.0069179e-04 </wgt>
<wgt id='morphing_basis_vector_4'> +7.1838688e-05 </wgt>
<wgt id='morphing_basis_vector_5'> +1.1469068e-04 </wgt>
</rwgt>
</event>
<event>
 4      1 +7.3133000e-09 2.96557700e+03 7.81860800e-03 7.76094700e-02
        2 -1    0    0  501    0 +0.0000000000e+00 +0.0000000000e+00 +1.3896861313e+03 1.3896861313e+03 0.0000000000e+00 0.0000e+00 -1.0000e+00
       -2 -1    0    0    0  501 -0.0000000000e+00 -0.0000000000e+00 -1.5821283772e+03 1.5821283772e+03 0.0000000000e+00 0.0000e+00 1.0000e+00
      -13  1    1    2    0    0 -5.5997823146e+02 -4.9859496954e+02 -1.3781651591e+03 1.5689205745e+03 0.0000000000e+00 0.0000e+00 1.0000e+00
       13  1    1    2    0    0 +5.5997823146e+02 +4.9859496954e+02 +1.1857229132e+03 1.4028939341e+03 0.0000000000e+00 0.0000e+00 -1.0000e+00
<mgrwt>
<rscale>  0 0.29655771E+04</rscale>
<asrwt>0</asrwt>
<pdfrwt beam="1">  1        2 0.21379787E+00 0.29655771E+04</pdfrwt>
<pdfrwt beam="2">  1       -2 0.24340437E+00 0.29655771E+04</pdfrwt>
<totfact> 0.92197351E-01</totfact>
</mgrwt>
<rwgt>
<wgt id='morphing_basis_vector_1'> +7.7535750e-05 </wgt>
<wgt id='morphing_basis_vector_2'> +5.2307189e-05 </wgt>
<wgt id='morphing_basis_vector_3'> +8.4460742e-05 </wgt>
<wgt id='morphing_basis_vector_4'> +6.0264387e-05 </wgt>
<wgt id='morphing_basis_vector_5'> +9.6108212e-05 </wgt>
</rwgt>
</event>
<event>
 4      1 +7.3133000e-09 2.97932700e+03 7.81860800e-03 7.75743900e-02
        2 -1    0    0  501    0 +0.0000000000e+00 +0.0000000000e+00 +2.0351208859e+03 2.0351208859e+03 0.0000000000e+00 0.0000e+00 -1.0000e+00
       -2 -1    0    0    0  501 -0.0000000000e+00 -0.0000000000e+00 -1.0904006332e+03 1.0904006332e+03 0.0000000000e+00 0.0000e+00 1.0000e+00
      -13  1    1    2    0    0 -7.3364716280e+02 +1.2637663307e+03 +7.7596315396e+02 1.6545278222e+03 0.0000000000e+00 0.0000e+00 1.0000e+00
       13  1    1    2    0    0 +7.3364716280e+02 -1.2637663307e+03 +1.6875709873e+02 1.4709936970e+03 0.0000000000e+00 0.0000e+00 -1.0000e+00
<mgrwt>
<rscale>  0 0.29793268E+04</rscale>
<asrwt>0</asrwt>
<pdfrwt beam="1">  1        2 0.31309552E+00 0.29793268E+04</pdfrwt>
<pdfrwt beam="2">  1       -2 0.16775394E+00 0.29793268E+04</pdfrwt>
<totfact> 0.14280465E+00</totfact>
</mgrwt>
<rwgt>
<wgt id='morphing_basis_vector_1'> +8.4647500e-05 </wgt>
<wgt id='morphing_basis_vector_2'> +7.0001628e-05 </wgt>
<wgt id='morphing_basis_vector_3'> +9.4916016e-05 </wgt>
<wgt id='morphing_basis_vector_4'> +4.9585296e-05 </wgt>
<wgt id='morphing_basis_vector_5'> +9.6948850e-05 </wgt>
</rwgt>
</event>
<event>
 4      1 +7.3133000e-09 2.69641000e+03 7.81860800e-03 7.83378900e-02
        2 -1    0    0  501    0 +0.0000000000e+00 +0.0000000000e+00 +2.1509398021e+03 2.1509398021e+03 0.0000000000e+00 0.0000e+00 -1.0000e+00
       -2 -1    0    0    0  501 -0.0000000000e+00 -0.0000000000e+00 -8.4505229713e+02 8.4505229713e+02 0.0000000000e+00 0.0000e+00 1.0000e+00
      -13  1    1    2    0    0 +6.2599988154e+02 -1.1904975855e+03 +5.5052750732e+02 1.4533550457e+03 0.0000000000e+00 0.0000e+00 -1.0000e+00
       13  1    1    2    0    0 -6.2599988154e+02 +1.1904975855e+03 +7.5535999764e+02 1.5426370535e+03 0.0000000000e+00 0.0000e+00 1.0000e+00
<mgrwt>
<rscale>  0 0.26964099E+04</rscale>
<asrwt>0</asrwt>
<pdfrwt beam="1">  1        2 0.33091381E+00 0.26964099E+04</pdfrwt>
<pdfrwt beam="2">  1       -2 0.13000805E+00 0.26964099E+04</pdfrwt>
<totfact> 0.25950094E+00</totfact>
</mgrwt>
<rwgt>
<wgt id='morphing_basis_vector_1'> +5.4706742e-05 </wgt>
<wgt id='morphing_basis_vector_2'> +4.0252775e-05 </wgt>
<wgt id='morphing_basis_vector_3'> +6.0070347e-05 </wgt>
<wgt id='morphing_basis_vector_4'> +3.7921766e-05 </wgt>
<wgt id='morphing_basis_vector_5'> +6.5181714e-05 </wgt>
</rwgt>
</event>
<event>
 4      1 +7.3133000e-09 2.84114200e+03 7.81860800e-03 7.79360400e-02
        2 -1    0    0  501    0 +0.0000000000e+00 +0.0000000000e+00 +1.8538152335e+03 1.8538152335e+03 0.0000000000e+00 0.0000e+00 1.0000e+00
       -2 -1    0    0    0  501 -0.0000000000e+00 -0.0000000000e+00 -1.0885774785e+03 1.0885774785e+03 0.0000000000e+00 0.0000e+00 -1.0000e+00
      -13  1    1    2    0    0 +6.7636472450e+02 -6.7289426694e+02 -7.0739412272e+02 1.1877130882e+03 0.0000000000e+00 0.0000e+00 -1.0000e+00
       13  1    1    2    0    0 -6.7636472450e+02 +6.7289426694e+02 +1.4726318777e+03 1.7546796238e+03 0.0000000000e+00 0.0000e+00 1.0000e+00
<mgrwt>
<rscale>  0 0.28411417E+04</rscale>
<asrwt>0</asrwt>
<pdfrwt beam="1">  1        2 0.28520234E+00 0.28411417E+04</pdfrwt>
<pdfrwt beam="2">  1       -2 0.16747346E+00 0.28411417E+04</pdfrwt>
<totfact> 0.18354348E+00</totfact>
</mgrwt>
<rwgt>
<wgt id='morphing_basis_vector_1'> +6.5471651e-05 </wgt>
<wgt id='morphing_basis_vector_2'> +4.4225756e-05 </wgt>
<wgt id='morphing_basis_vector_3'> +7.1230148e-05 </wgt>
<wgt id='morphing_basis_vector_4'> +5.0596305e-05 </wgt>
<wgt id='morphing_basis_vector_5'> +8.0825672e-05 </wgt>
</rwgt>
</event>
<event>
 4      1 +7.3133000e-09 2.76990000e+03 7.81860800e-03 7.81307200e-02
        2 -1    0    0  501    0 +0.0000000000e+00 +0.0000000000e+00 +3.2833596687e+03 3.2833596687e+03 0.0000000000e+00 0.0000e+00 -1.0000e+00
       -2 -1    0    0    0  501 -0.0000000000e+00 -0.0000000000e+00 -5.8418413727e+02 5.8418413727e+02 0.0000000000e+00 0.0000e+00 1.0000e+00
      -13  1    1    2    0    0 +2.9514148823e+02 -1.0884578682e+03 +2.2713713113e+02 1.1504087557e+03 0.0000000000e+00 0.0000e+00 1.0000e+00
       13  1    1    2    0    0 -2.9514148823e+02 +1.0884578682e+03 +2.4720384003e+03 2.7171350502e+03 0.0000000000e+00 0.0000e+00 -1.0000e+00
<mgrwt>
<rscale>  0 0.27699001E+04</rscale>
<asrwt>0</asrwt>
<pdfrwt beam="1">  1        2 0.50513225E+00 0.27699001E+04</pdfrwt>
<pdfrwt beam="2">  1       -2 0.89874484E-01 0.27699001E+04</pdfrwt>
<totfact> 0.12775251E+00</totfact>
</mgrwt>
<rwgt>
<wgt id='morphing_basis_vector_1'> +5.9325338e-05 </wgt>
<wgt id='morphing_basis_vector_2'> +4.0310886e-05 </wgt>
<wgt id='morphing_basis_vector_3'> +6.4533532e-05 </wgt>
<wgt id='morphing_basis_vector_4'> +4.5424890e-05 </wgt>
<wgt id='morphing_basis_vector_5'> +7.2924017e-05 </wgt>
</rwgt>
</event>
<event>
 4      1 +7.3133000e-09 2.78019500e+03 7.81860800e-03 7.81022300e-02
        2 -1    0    0  501    0 +0.0000000000e+00 +0.0000000000e+00 +2.2524742337e+03 2.2524742337e+03 0.0000000000e+00 0.0000e+00 -1.0000e+00
       -2 -1    0    0    0  501 -0.0000000000e+00 -0.0000000000e+00 -8.5788793569e+02 8.5788793569e+02 0.0000000000e+00 0.0000e+00 1.0000e+00
      -13  1    1    2    0    0 -5.8986625571e+02 -1.2554976298e+03 +5.9627011835e+02 1.5098856089e+03 0.0000000000e+00 0.0000e+00 1.0000e+00
       13  1    1    2    0    0 +5.8986625571e+02 +1.2554976298e+03 +7.9831617964e+02 1.6004765605e+03 0.0000000000e+00 0.0000e+00 -1.0000e+00
<mgrwt>
<rscale>  0 0.27801946E+04</rscale>
<asrwt>0</asrwt>
<pdfrwt beam="1">  1        2 0.34653450E+00 0.27801946E+04</pdfrwt>
<pdfrwt beam="2">  1       -2 0.13198276E+00 0.27801946E+04</pdfrwt>
<totfact> 0.21640885E+00</totfact>
</mgrwt>
<rwgt>
<wgt id='morphing_basis_vector_1'> +6.1769799e-05 </wgt>
<wgt id='morphing_basis_vector_2'> +4.5529325e-05 </wgt>
<wgt id='morphing_basis_vector_3'> +6.7927426e-05 </wgt>
<wgt id='morphing_basis_vector_4'> +4.2867482e-05 </wgt>
<wgt id='morphing_basis_vector_5'> +7.3760386e-05 </wgt>
</rwgt>
</event>
<event>
 4      1 +7.3133000e-09 2.71182300e+03 7.81860800e-03 7.82938900e-02
        2 -1    0    0  501    0 +0.0000000000e+00 +0.0000000000e+00 +2.9827192346e+03 2.9827192346e+03 0.0000000000e+00 0.0000e+00 -1.0000e+00
       -2 -1    0    0    0  501 -0.0000000000e+00 -0.0000000000e+00 -6.1638261804e+02 6.1638261804e+02 0.0000000000e+00 0.0000e+00 1.0000e+00
      -13  1    1    2    0    0 -6.0223154032e+02 -5.6693102724e+02 -2.4280509173e+02 8.6200227979e+02 0.0000000000e+00 0.0000e+00 1.0000e+00
       13  1    1    2    0    0 +6.0223154032e+02 +5.6693102724e+02 +2.6091417083e+03 2.7370995728e+03 0.0000000000e+00 0.0000e+00 -1.0000e+00
<mgrwt>
<rscale>  0 0.27118232E+04</rscale>
<asrwt>0</asrwt>
<pdfrwt beam="1">  1        2 0.45887987E+00 0.27118232E+04</pdfrwt>
<pdfrwt beam="2">  1       -2 0.94828097E-01 0.27118232E+04</pdfrwt>
<totfact> 0.17996768E+00</totfact>
</mgrwt>
<rwgt>
<wgt id='morphing_basis_vector_1'> +5.4429001e-05 </wgt>
<wgt id='morphing_basis_vector_2'> +3.6679709e-05 </wgt>
<wgt id='morphing_basis_vector_3'> +5.9099038e-05 </wgt>
<wgt id='morphing_basis_vector_4'> +4.1955531e-05 </wgt>
<wgt id='morphing_basis_vector_5'> +6.6958456e-05 </wgt>
</rwgt>
</event>
<event>
 4      1 +7.3133000e-09 2.89052900e+03 7.81860800e-03 7.78044300e-02
        2 -1    0    0  501    0 +0.0000000000e+00 +0.0000000000e+00 +2.3306229386e+03 2.3306229386e+03 0.0000000000e+00 0.0000e+00 1.0000e+00
       -2 -1    0    0    0  501 -0.0000000000e+00 -0.0000000000e+00 -8.9623670002e+02 8.9623670002e+02 0.0000000000e+00 0.0000e+00 -1.0000e+00
      -13  1    1    2    0    0 -4.7229309952e+02 +2.3789021994e+02 +2.2187385299e+03 2.2808886848e+03 0.0000000000e+00 0.0000e+00 1.0000e+00
       13  1    1    2    0    0 +4.7229309952e+02 -2.3789021994e+02 -7.8435229129e+02 9.4597095381e+02 0.0000000000e+00 0.0000e+00 -1.0000e+00
<mgrwt>
<rscale>  0 0.28905292E+04</rscale>
<asrwt>0</asrwt>
<pdfrwt beam="1">  1        2 0.35855737E+00 0.28905292E+04</pdfrwt>
<pdfrwt beam="2">  1       -2 0.13788257E+00 0.28905292E+04</pdfrwt>
<totfact> 0.17137195E+00</totfact>
</mgrwt>
<rwgt>
<wgt id='morphing_basis_vector_1'> +9.5686526e-05 </wgt>
<wgt id='morphing_basis_vector_2'> +1.2276140e-04 </wgt>
<wgt id='morphing_basis_vector_3'> +1.1618818e-04 </wgt>
<wgt id='morphing_basis_vector_4'> +1.1097975e-06 </wgt>
<wgt id='morphing_basis_vector_5'> +8.2295804e-05 </wgt>
</rwgt>
</event>
<event>
 4      1 +7.3133000e-09 2.74940800e+03 7.81860800e-03 7.81878300e-02
        2 -1    0    0  501    0 +0.0000000000e+00 +0.0000000000e+00 +2.5288000648e+03 2.5288000648e+03 0.0000000000e+00 0.0000e+00 -1.0000e+00
       -2 -1    0    0    0  501 -0.0000000000e+00 -0.0000000000e+00 -7.4731533808e+02 7.4731533808e+02 0.0000000000e+00 0.0000e+00 1.0000e+00
      -13  1    1    2    0    0 +1.3633290193e+03 +6.1390331561e+00 +1.1009031413e+03 1.7523388454e+03 0.0000000000e+00 0.0000e+00 1.0000e+00
       13  1    1    2    0    0 -1.3633290193e+03 -6.1390331561e+00 +6.8058158541e+02 1.5237765574e+03 0.0000000000e+00 0.0000e+00 -1.0000e+00
<mgrwt>
<rscale>  0 0.27494080E+04</rscale>
<asrwt>0</asrwt>
<pdfrwt beam="1">  1        2 0.38904616E+00 0.27494080E+04</pdfrwt>
<pdfrwt beam="2">  1       -2 0.11497159E+00 0.27494080E+04</pdfrwt>
<totfact> 0.21429567E+00</totfact>
</mgrwt>
<rwgt>
<wgt id='morphing_basis_vector_1'> +6.0754496e-05 </wgt>
<wgt id='morphing_basis_vector_2'> +4.8412481e-05 </wgt>
<wgt id='morphing_basis_vector_3'> +6.7518638e-05 </wgt>
<wgt id='morphing_basis_vector_4'> +3.7574792e-05 </wgt>
<wgt id='morphing_basis_vector_5'> +7.0236215e-05 </wgt>
</rwgt>
</event>
<event>
 4      1 +7.3133000e-09 3.11940700e+03 7.81860800e-03 7.72277800e-02
        2 -1    0    0  501    0 +0.0000000000e+00 +0.0000000000e+00 +3.2766700850e+03 3.2766700850e+03 0.0000000000e+00 0.0000e+00 1.0000e+00
       -2 -1    0    0    0  501 -0.0000000000e+00 -0.0000000000e+00 -7.4242278572e+02 7.4242278572e+02 0.0000000000e+00 0.0000e+00 -1.0000e+00
      -13  1    1    2    0    0 -7.7787208049e+02 -1.0748088688e+03 +2.1064197795e+02 1.3433797382e+03 0.0000000000e+00 0.0000e+00 -1.0000e+00
       13  1    1    2    0    0 +7.7787208049e+02 +1.0748088688e+03 +2.3236053213e+03 2.6757131325e+03 0.0000000000e+00 0.0000e+00 1.0000e+00
<mgrwt>
<rscale>  0 0.31194067E+04</rscale>
<asrwt>0</asrwt>
<pdfrwt beam="1">  1        2 0.50410308E+00 0.31194067E+04</pdfrwt>
<pdfrwt beam="2">  1       -2 0.11421889E+00 0.31194067E+04</pdfrwt>
<totfact> 0.69968088E-01</totfact>
</mgrwt>
<rwgt>
<wgt id='morphing_basis_vector_1'> +9.5097818e-05 </wgt>
<wgt id='morphing_basis_vector_2'> +6.5013785e-05 </wgt>
<wgt id='morphing_basis_vector_3'> +1.0393076e-04 </wgt>
<wgt id='morphing_basis_vector_4'> +7.3173609e-05 </wgt>
<wgt id='morphing_basis_vector_5'> +1.1780078e-04 </wgt>
</rwgt>
</event>
<event>
 4      1 +7.3133000e-09 2.85900600e+03 7.81860800e-03 7.78881200e-02
        2 -1    0    0  501    0 +0.0000000000e+00 +0.0000000000e+00 +4.0266221811e+03 4.0266221811e+03 0.0000000000e+00 0.0000e+00 -1.0000e+00
       -2 -1    0    0    0  501 -0.0000000000e+00 -0.0000000000e+00 -5.0749200873e+02 5.0749200873e+02 0.0000000000e+00 0.0000e+00 1.0000e+00
      -13  1    1    2    0    0 +9.1234358656e+02 -1.0409208262e+03 +2.3260501222e+03 2.7067316375e+03 0.0000000000e+00 0.0000e+00 1.0000e+00
       13  1    1    2    0    0 -9.1234358656e+02 +1.0409208262e+03 +1.1930800502e+03 1.8273825523e+03 0.0000000000e+00 0.0000e+00 -1.0000e+00
<mgrwt>
<rscale>  0 0.28590058E+04</rscale>
<asrwt>0</asrwt>
<pdfrwt beam="1">  1        2 0.61948031E+00 0.28590058E+04</pdfrwt>
<pdfrwt beam="2">  1       -2 0.78075696E-01 0.28590058E+04</pdfrwt>
<totfact> 0.47155180E-01</totfact>
</mgrwt>
<rwgt>
<wgt id='morphing_basis_vector_1'> +7.2868704e-05 </wgt>
<wgt id='morphing_basis_vector_2'> +6.2290966e-05 </wgt>
<wgt id='morphing_basis_vector_3'> +8.1988124e-05 </wgt>
<wgt id='morphing_basis_vector_4'> +3.9961530e-05 </wgt>
<wgt id='morphing_basis_vector_5'> +8.1920667e-05 </wgt>
</rwgt>
</event>
<event>
 4      1 +7.3133000e-09 3.09120100e+03 7.81860800e-03 7.72960300e-02
        2 -1    0    0  501    0 +0.0000000000e+00 +0.0000000000e+00 +1.2810191431e+03 1.2810191431e+03 0.0000000000e+00 0.0000e+00 1.0000e+00
       -2 -1    0    0    0  501 -0.0000000000e+00 -0.0000000000e+00 -1.8648285481e+03 1.8648285481e+03 0.0000000000e+00 0.0000e+00 -1.0000e+00
      -13  1    1    2    0    0 +2.9803518575e+02 -4.1450794570e+02 -1.7765429927e+03 1.8484444308e+03 0.0000000000e+00 0.0000e+00 -1.0000e+00
       13  1    1    2    0    0 -2.9803518575e+02 +4.1450794570e+02 +1.1927335877e+03 1.2974032605e+03 0.0000000000e+00 0.0000e+00 1.0000e+00
<mgrwt>
<rscale>  0 0.30912011E+04</rscale>
<asrwt>0</asrwt>
<pdfrwt beam="1">  1        2 0.19707987E+00 0.30912011E+04</pdfrwt>
<pdfrwt beam="2">  1       -2 0.28689670E+00 0.30912011E+04</pdfrwt>
<totfact> 0.52912526E-01</totfact>
</mgrwt>
<rwgt>
<wgt id='morphing_basis_vector_1'> +9.1379815e-05 </wgt>
<wgt id='morphing_basis_vector_2'> +6.1662339e-05 </wgt>
<wgt id='morphing_basis_vector_3'> +9.9669780e-05 </wgt>
<wgt id='morphing_basis_vector_4'> +7.1278921e-05 </wgt>
<wgt id='morphing_basis_vector_5'> +1.1362421e-04 </wgt>
</rwgt>
</event>
<event>
 4      1 +7.3133000e-09 3.10512200e+03 7.81860800e-03 7.72622500e-02
        2 -1    0    0  501    0 +0.0000000000e+00 +0.0000000000e+00 +3.6159518829e+03 3.6159518829e+03 0.0000000000e+00 0.0000e+00 -1.0000e+00
       -2 -1    0    0    0  501 -0.0000000000e+00 -0.0000000000e+00 -6.6661453274e+02 6.6661453274e+02 0.0000000000e+00 0.0000e+00 1.0000e+00
      -13  1    1    2    0    0 +3.2960117293e+01 -8.0712131521e+02 -3.5395493699e+02 8.8193836759e+02 0.0000000000e+00 0.0000e+00 1.0000e+00
       13  1    1    2    0    0 -3.2960117293e+01 +8.0712131521e+02 +3.3032922871e+03 3.4006280480e+03 0.0000000000e+00 0.0000e+00 -1.0000e+00
<mgrwt>
<rscale>  0 0.31051223E+04</rscale>
<asrwt>0</asrwt>
<pdfrwt beam="1">  1        2 0.55630028E+00 0.31051223E+04</pdfrwt>
<pdfrwt beam="2">  1       -2 0.10255608E+00 0.31051223E+04</pdfrwt>
<totfact> 0.52120322E-01</totfact>
</mgrwt>
<rwgt>
<wgt id='morphing_basis_vector_1'> +9.3043186e-05 </wgt>
<wgt id='morphing_basis_vector_2'> +6.2836697e-05 </wgt>
<wgt id='morphing_basis_vector_3'> +1.0150823e-04 </wgt>
<wgt id='morphing_basis_vector_4'> +7.2539717e-05 </wgt>
<wgt id='morphing_basis_vector_5'> +1.1569866e-04 </wgt>
</rwgt>
</event>
<event>
 4      1 +7.3133000e-09 2.93663000e+03 7.81860800e-03 7.76839700e-02
        2 -1    0    0  501    0 +0.0000000000e+00 +0.0000000000e+00 +1.6865102242e+03 1.6865102242e+03 0.0000000000e+00 0.0000e+00 1.0000e+00
       -2 -1    0    0    0  501 -0.0000000000e+00 -0.0000000000e+00 -1.2783491917e+03 1.2783491917e+03 0.0000000000e+00 0.0000e+00 -1.0000e+00
      -13  1    1    2    0    0 -7.2628473794e+02 -2.5206435589e+02 -1.0589136939e+03 1.3085580504e+03 0.0000000000e+00 0.0000e+00 -1.0000e+00
       13  1    1    2    0    0 +7.2628473794e+02 +2.5206435589e+02 +1.4670747265e+03 1.6563013654e+03 0.0000000000e+00 0.0000e+00 1.0000e+00
<mgrwt>
<rscale>  0 0.29366300E+04</rscale>
<asrwt>0</asrwt>
<pdfrwt beam="1">  1        2 0.25946311E+00 0.29366300E+04</pdfrwt>
<pdfrwt beam="2">  1       -2 0.19666911E+00 0.29366300E+04</pdfrwt>
<totfact> 0.13559363E+00</totfact>
</mgrwt>
<rwgt>
<wgt id='morphing_basis_vector_1'> +7.4582820e-05 </wgt>
<wgt id='morphing_basis_vector_2'> +5.0310646e-05 </wgt>
<wgt id='morphing_basis_vector_3'> +8.1217737e-05 </wgt>
<wgt id='morphing_basis_vector_4'> +5.7919332e-05 </wgt>
<wgt id='morphing_basis_vector_5'> +9.2376643e-05 </wgt>
</rwgt>
</event>
<event>
 4      1 +7.3133000e-09 2.86836400e+03 7.81860800e-03 7.78631600e-02
        2 -1    0    0  501    0 +0.0000000000e+00 +0.0000000000e+00 +2.9699217723e+03 2.9699217723e+03 0.0000000000e+00 0.0000e+00 1.0000e+00
       -2 -1    0    0    0  501 -0.0000000000e+00 -0.0000000000e+00 -6.9256991782e+02 6.9256991782e+02 0.0000000000e+00 0.0000e+00 -1.0000e+00
      -13  1    1    2    0    0 +7.8854963975e+02 +2.3370111747e+02 -3.6153715465e+02 8.9840740249e+02 0.0000000000e+00 0.0000e+00 -1.0000e+00
       13  1    1    2    0    0 -7.8854963975e+02 -2.3370111747e+02 +2.6388890091e+03 2.7640842876e+03 0.0000000000e+00 0.0000e+00 1.0000e+00
<mgrwt>
<rscale>  0 0.28683643E+04</rscale>
<asrwt>0</asrwt>
<pdfrwt beam="1">  1        2 0.45691103E+00 0.28683643E+04</pdfrwt>
<pdfrwt beam="2">  1       -2 0.10654922E+00 0.28683643E+04</pdfrwt>
<totfact> 0.13650745E+00</totfact>
</mgrwt>
<rwgt>
<wgt id='morphing_basis_vector_1'> +6.7957395e-05 </wgt>
<wgt id='morphing_basis_vector_2'> +4.5838373e-05 </wgt>
<wgt id='morphing_basis_vector_3'> +7.3944893e-05 </wgt>
<wgt id='morphing_basis_vector_4'> +5.2652901e-05 </wgt>
<wgt id='morphing_basis_vector_5'> +8.4005357e-05 </wgt>
</rwgt>
</event>
<event>
 4      1 +7.3133000e-09 2.80255300e+03 7.81860800e-03 7.80407600e-02
        2 -1    0    0  501    0 +0.0000000000e+00 +0.0000000000e+00 +2.9399571722e+03 2.9399571722e+03 0.0000000000e+00 0.0000e+00 1.0000e+00
       -2 -1    0    0    0  501 -0.0000000000e+00 -0.0000000000e+00 -6.6789270221e+02 6.6789270221e+02 0.0000000000e+00 0.0000e+00 -1.0000e+00
      -13  1    1    2    0    0 +1.2384831451e+03 -3.4856581714e+02 +1.8507543406e+03 2.2540253457e+03 0.0000000000e+00 0.0000e+00 1.0000e+00
       13  1    1    2    0    0 -1.2384831451e+03 +3.4856581714e+02 +4.2131012938e+02 1.3538245288e+03 0.0000000000e+00 0.0000e+00 -1.0000e+00
<mgrwt>
<rscale>  0 0.28025531E+04</rscale>
<asrwt>0</asrwt>
<pdfrwt beam="1">  1        2 0.45230110E+00 0.28025531E+04</pdfrwt>
<pdfrwt beam="2">  1       -2 0.10275273E+00 0.28025531E+04</pdfrwt>
<totfact> 0.15694207E+00</totfact>
</mgrwt>
<rwgt>
<wgt id='morphing_basis_vector_1'> +7.0466995e-05 </wgt>
<wgt id='morphing_basis_vector_2'> +6.6770772e-05 </wgt>
<wgt id='morphing_basis_vector_3'> +8.0550839e-05 </wgt>
<wgt id='morphing_basis_vector_4'> +3.0385317e-05 </wgt>
<wgt id='morphing_basis_vector_5'> +7.5050277e-05 </wgt>
</rwgt>
</event>
<event>
 4      1 +7.3133000e-09 3.11026700e+03 7.81860800e-03 7.72498100e-02
        2 -1    0    0  501    0 +0.0000000000e+00 +0.0000000000e+00 +3.2867716525e+03 3.2867716525e+03 0.0000000000e+00 0.0000e+00 -1.0000e+00
       -2 -1    0    0    0  501 -0.0000000000e+00 -0.0000000000e+00 -7.3581033480e+02 7.3581033480e+02 0.0000000000e+00 0.0000e+00 1.0000e+00
      -13  1    1    2    0    0 +5.6515811056e+02 +3.6375350249e+02 -5.3827381015e+02 8.6108013285e+02 0.0000000000e+00 0.0000e+00 1.0000e+00
       13  1    1    2    0    0 -5.6515811056e+02 -3.6375350249e+02 +3.0892351278e+03 3.1615018544e+03 0.0000000000e+00 0.0000e+00 -1.0000e+00
<mgrwt>
<rscale>  0 0.31102672E+04</rscale>
<asrwt>0</asrwt>
<pdfrwt beam="1">  1        2 0.50565717E+00 0.31102672E+04</pdfrwt>
<pdfrwt beam="2">  1       -2 0.11320159E+00 0.31102672E+04</pdfrwt>
<totfact> 0.70487706E-01</totfact>
</mgrwt>
<rwgt>
<wgt id='morphing_basis_vector_1'> +9.3642647e-05 </wgt>
<wgt id='morphing_basis_vector_2'> +6.3213065e-05 </wgt>
<wgt id='morphing_basis_vector_3'> +1.0216107e-04 </wgt>
<wgt id='morphing_basis_vector_4'> +7.3053721e-05 </wgt>
<wgt id='morphing_basis_vector_5'> +1.1647606e-04 </wgt>
</rwgt>
</event>
<event>
 4      1 +7.3133000e-09 2.75792800e+03 7.81860800e-03 7.81640200e-02
        2 -1    0    0  501    0 +0.0000000000e+00 +0.0000000000e+00 +1.9184518199e+03 1.9184518199e+03 0.0000000000e+00 0.0000e+00 1.0000e+00
       -2 -1    0    0    0  501 -0.0000000000e+00 -0.0000000000e+00 -9.9118536999e+02 9.9118536999e+02 0.0000000000e+00 0.0000e+00 -1.0000e+00
      -13  1    1    2    0    0 -1.0777851931e+02 +1.3505902386e+03 +1.9294350848e+02 1.3685530312e+03 0.0000000000e+00 0.0000e+00 -1.0000e+00
       13  1    1    2    0    0 +1.0777851931e+02 -1.3505902386e+03 +7.3432294145e+02 1.5410841587e+03 0.0000000000e+00 0.0000e+00 1.0000e+00
<mgrwt>
<rscale>  0 0.27579278E+04</rscale>
<asrwt>0</asrwt>
<pdfrwt beam="1">  1        2 0.29514643E+00 0.27579278E+04</pdfrwt>
<pdfrwt beam="2">  1       -2 0.15249006E+00 0.27579278E+04</pdfrwt>
<totfact> 0.22426149E+00</totfact>
</mgrwt>
<rwgt>
<wgt id='morphing_basis_vector_1'> +5.9212109e-05 </wgt>
<wgt id='morphing_basis_vector_2'> +4.2259614e-05 </wgt>
<wgt id='morphing_basis_vector_3'> +6.4812119e-05 </wgt>
<wgt id='morphing_basis_vector_4'> +4.2785514e-05 </wgt>
<wgt id='morphing_basis_vector_5'> +7.1507133e-05 </wgt>
</rwgt>
</event>
<event>
 4      1 +7.3133000e-09 2.97394000e+03 7.81860800e-03 7.75881100e-02
        2 -1    0    0  501    0 +0.0000000000e+00 +0.0000000000e+00 +1.3373620328e+03 1.3373620328e+03 0.0000000000e+00 0.0000e+00 1.0000e+00
       -2 -1    0    0    0  501 -0.0000000000e+00 -0.0000000000e+00 -1.6533141030e+03 1.6533141030e+03 0.0000000000e+00 0.0000e+00 -1.0000e+00
      -13  1    1    2    0    0 -3.4105653592e+02 -1.3412004687e+03 -7.0504233557e+02 1.5531332695e+03 0.0000000000e+00 0.0000e+00 -1.0000e+00
       13  1    1    2    0    0 +3.4105653592e+02 +1.3412004687e+03 +3.8909026530e+02 1.4375428663e+03 0.0000000000e+00 0.0000e+00 1.0000e+00
<mgrwt>
<rscale>  0 0.29739398E+04</rscale>
<asrwt>0</asrwt>
<pdfrwt beam="1">  1        2 0.20574801E+00 0.29739398E+04</pdfrwt>
<pdfrwt beam="2">  1       -2 0.25435601E+00 0.29739398E+04</pdfrwt>
<totfact> 0.82842571E-01</totfact>
</mgrwt>
<rwgt>
<wgt id='morphing_basis_vector_1'> +7.9061368e-05 </wgt>
<wgt id='morphing_basis_vector_2'> +5.4828177e-05 </wgt>
<wgt id='morphing_basis_vector_3'> +8.6441802e-05 </wgt>
<wgt id='morphing_basis_vector_4'> +5.9589132e-05 </wgt>
<wgt id='morphing_basis_vector_5'> +9.7094748e-05 </wgt>
</rwgt>
</event>
<event>
 4      1 +7.3133000e-09 3.11330000e+03 7.81860800e-03 7.72424900e-02
        2 -1    0    0  501    0 +0.0000000000e+00 +0.0000000000e+00 +1.3642651984e+03 1.3642651984e+03 0.0000000000e+00 0.0000e+00 -1.0000e+00
       -2 -1    0    0    0  501 -0.0000000000e+00 -0.0000000000e+00 -1.7761644538e+03 1.7761644538e+03 0.0000000000e+00 0.0000e+00 1.0000e+00
      -13  1    1    2    0    0 +8.2699546240e+02 +8.9183563369e+02 -1.1859438174e+03 1.6987510207e+03 0.0000000000e+00 0.0000e+00 1.0000e+00
       13  1    1    2    0    0 -8.2699546240e+02 -8.9183563369e+02 +7.7404456204e+02 1.4416786314e+03 0.0000000000e+00 0.0000e+00 -1.0000e+00
<mgrwt>
<rscale>  0 0.31133001E+04</rscale>
<asrwt>0</asrwt>
<pdfrwt beam="1">  1        2 0.20988695E+00 0.31133001E+04</pdfrwt>
<pdfrwt beam="2">  1       -2 0.27325607E+00 0.31133001E+04</pdfrwt>
<totfact> 0.58635056E-01</totfact>
</mgrwt>
<rwgt>
<wgt id='morphing_basis_vector_1'> +9.4199212e-05 </wgt>
<wgt id='morphing_basis_vector_2'> +6.4029956e-05 </wgt>
<wgt id='morphing_basis_vector_3'> +1.0286458e-04 </wgt>
<wgt id='morphing_basis_vector_4'> +7.2936665e-05 </wgt>
<wgt id='morphing_basis_vector_5'> +1.1690145e-04 </wgt>
</rwgt>
</event>
<event>
 4      1 +7.3133000e-09 2.67800600e+03 7.81860800e-03 7.83908200e-02
        2 -1    0    0  501    0 +0.0000000000e+00 +0.0000000000e+00 +1.9791235787e+03 1.9791235787e+03 0.0000000000e+00 0.0000e+00 -1.0000e+00
       -2 -1    0    0    0  501 -0.0000000000e+00 -0.0000000000e+00 -9.0592101252e+02 9.0592101252e+02 0.0000000000e+00 0.0000e+00 1.0000e+00
      -13  1    1    2    0    0 +7.5559311301e+01 -8.1839588550e+02 -6.0221767811e+02 1.0188950715e+03 0.0000000000e+00 0.0000e+00 1.0000e+00
       13  1    1    2    0    0 -7.5559311301e+01 +8.1839588550e+02 +1.6754202443e+03 1.8661495198e+03 0.0000000000e+00 0.0000e+00 -1.0000e+00
<mgrwt>
<rscale>  0 0.26780064E+04</rscale>
<asrwt>0</asrwt>
<pdfrwt beam="1">  1        2 0.30448055E+00 0.26780064E+04</pdfrwt>
<pdfrwt beam="2">  1       -2 0.13937246E+00 0.26780064E+04</pdfrwt>
<totfact> 0.26897061E+00</totfact>
</mgrwt>
<rwgt>
<wgt id='morphing_basis_vector_1'> +5.1794491e-05 </wgt>
<wgt id='morphing_basis_vector_2'> +3.4894711e-05 </wgt>
<wgt id='morphing_basis_vector_3'> +5.6209555e-05 </wgt>
<wgt id='morphing_basis_vector_4'> +3.9878312e-05 </wgt>
<wgt id='morphing_basis_vector_5'> +6.3645183e-05 </wgt>
</rwgt>
</event>
<event>
 4      1 +7.3133000e-09 2.94066600e+03 7.81860800e-03 7.76735300e-02
        2 -1    0    0  501    0 +0.0000000000e+00 +0.0000000000e+00 +2.0225239766e+03 2.0225239766e+03 0.0000000000e+00 0.0000e+00 -1.0000e+00
       -2 -1    0    0    0  501 -0.0000000000e+00 -0.0000000000e+00 -1.0689018950e+03 1.0689018950e+03 0.0000000000e+00 0.0000e+00 1.0000e+00
      -13  1    1    2    0    0 -5.8104760270e+02 -1.1435888205e+03 +1.2323115987e+03 1.7787646228e+03 0.0000000000e+00 0.0000e+00 -1.0000e+00
       13  1    1    2    0    0 +5.8104760270e+02 +1.1435888205e+03 -2.7868951712e+02 1.3126612487e+03 0.0000000000e+00 0.0000e+00 1.0000e+00
<mgrwt>
<rscale>  0 0.29406664E+04</rscale>
<asrwt>0</asrwt>
<pdfrwt beam="1">  1        2 0.31115753E+00 0.29406664E+04</pdfrwt>
<pdfrwt beam="2">  1       -2 0.16444645E+00 0.29406664E+04</pdfrwt>
<totfact> 0.15461612E+00</totfact>
</mgrwt>
<rwgt>
<wgt id='morphing_basis_vector_1'> +8.8378994e-05 </wgt>
<wgt id='morphing_basis_vector_2'> +9.0026588e-05 </wgt>
<wgt id='morphing_basis_vector_3'> +1.0257301e-04 </wgt>
<wgt id='morphing_basis_vector_4'> +3.0405137e-05 </wgt>
<wgt id='morphing_basis_vector_5'> +9.0605506e-05 </wgt>
</rwgt>
</event>
<event>
 4      1 +7.3133000e-09 2.85301300e+03 7.81860800e-03 7.79041600e-02
        2 -1    0    0  501    0 +0.0000000000e+00 +0.0000000000e+00 +1.5797965708e+03 1.5797965708e+03 0.0000000000e+00 0.0000e+00 -1.0000e+00
       -2 -1    0    0    0  501 -0.0000000000e+00 -0.0000000000e+00 -1.2880902688e+03 1.2880902688e+03 0.0000000000e+00 0.0000e+00 1.0000e+00
      -13  1    1    2    0    0 +1.0252495772e+03 -8.2290759156e+02 -4.1075467462e+02 1.3773282116e+03 0.0000000000e+00 0.0000e+00 1.0000e+00
       13  1    1    2    0    0 -1.0252495772e+03 +8.2290759156e+02 +7.0246097661e+02 1.4905586280e+03 0.0000000000e+00 0.0000e+00 -1.0000e+00
<mgrwt>
<rscale>  0 0.28530129E+04</rscale>
<asrwt>0</asrwt>
<pdfrwt beam="1">  1        2 0.24304563E+00 0.28530129E+04</pdfrwt>
<pdfrwt beam="2">  1       -2 0.19816773E+00 0.28530129E+04</pdfrwt>
<totfact> 0.15266628E+00</totfact>
</mgrwt>
<rwgt>
<wgt id='morphing_basis_vector_1'> +6.7017131e-05 </wgt>
<wgt id='morphing_basis_vector_2'> +4.6308719e-05 </wgt>
<wgt id='morphing_basis_vector_3'> +7.3135970e-05 </wgt>
<wgt id='morphing_basis_vector_4'> +5.0510627e-05 </wgt>
<wgt id='morphing_basis_vector_5'> +8.2121123e-05 </wgt>
</rwgt>
</event>
<event>
 4      1 +7.3133000e-09 2.85208400e+03 7.81860800e-03 7.79066400e-02
        2 -1    0    0  501    0 +0.0000000000e+00 +0.0000000000e+00 +2.8173895376e+03 2.8173895376e+03 0.0000000000e+00 0.0000e+00 1.0000e+00
       -2 -1    0    0    0  501 -0.0000000000e+00 -0.0000000000e+00 -7.2180155329e+02 7.2180155329e+02 0.0000000000e+00 0.0000e+00 -1.0000e+00
      -13  1    1    2    0    0 -1.0306356274e+03 -8.3555546932e+01 -1.7083455436e+02 1.0480342412e+03 0.0000000000e+00 0.0000e+00 -1.0000e+00
       13  1    1    2    0    0 +1.0306356274e+03 +8.3555546932e+01 +2.2664225387e+03 2.4911568497e+03 0.0000000000e+00 0.0000e+00 1.0000e+00
<mgrwt>
<rscale>  0 0.28520843E+04</rscale>
<asrwt>0</asrwt>
<pdfrwt beam="1">  1        2 0.43344454E+00 0.28520843E+04</pdfrwt>
<pdfrwt beam="2">  1       -2 0.11104639E+00 0.28520843E+04</pdfrwt>
<totfact> 0.15426841E+00</totfact>
</mgrwt>
<rwgt>
<wgt id='morphing_basis_vector_1'> +6.6507709e-05 </wgt>
<wgt id='morphing_basis_vector_2'> +4.5002091e-05 </wgt>
<wgt id='morphing_basis_vector_3'> +7.2382637e-05 </wgt>
<wgt id='morphing_basis_vector_4'> +5.1321787e-05 </wgt>
<wgt id='morphing_basis_vector_5'> +8.2085091e-05 </wgt>
</rwgt>
</event>
<event>
 4      1 +7.3133000e-09 3.06203900e+03 7.81860800e-03 7.73674000e-02
        2 -1    0    0  501    0 +0.0000000000e+00 +0.0000000000e+00 +2.3378697726e+03 2.3378697726e+03 0.0000000000e+00 0.0000e+00 -1.0000e+00
       -2 -1    0    0    0  501 -0.0000000000e+00 -0.0000000000e+00 -1.0026311272e+03 1.0026311272e+03 0.0000000000e+00 0.0000e+00 1.0000e+00
      -13  1    1    2    0    0 +8.9648107371e+02 +9.7193084025e+02 -1.7438077934e+02 1.3336928169e+03 0.0000000000e+00 0.0000e+00 1.0000e+00
       13  1    1    2    0    0 -8.9648107371e+02 -9.7193084025e+02 +1.5096194247e+03 2.0068080828e+03 0.0000000000e+00 0.0000e+00 -1.0000e+00
<mgrwt>
<rscale>  0 0.30620392E+04</rscale>
<asrwt>0</asrwt>
<pdfrwt beam="1">  1        2 0.35967227E+00 0.30620392E+04</pdfrwt>
<pdfrwt beam="2">  1       -2 0.15425094E+00 0.30620392E+04</pdfrwt>
<totfact> 0.12192935E+00</totfact>
</mgrwt>
<rwgt>
<wgt id='morphing_basis_vector_1'> +8.8391259e-05 </wgt>
<wgt id='morphing_basis_vector_2'> +6.0502026e-05 </wgt>
<wgt id='morphing_basis_vector_3'> +9.6563773e-05 </wgt>
<wgt id='morphing_basis_vector_4'> +6.7808332e-05 </wgt>
<wgt id='morphing_basis_vector_5'> +1.0929631e-04 </wgt>
</rwgt>
</event>
<event>
 4      1 +7.3133000e-09 2.99111500e+03 7.81860800e-03 7.75444600e-02
        2 -1    0    0  501    0 +0.0000000000e+00 +0.0000000000e+00 +1.6027238805e+03 1.6027238805e+03 0.0000000000e+00 0.0000e+00 1.0000e+00
       -2 -1    0    0    0  501 -0.0000000000e+00 -0.0000000000e+00 -1.3955566649e+03 1.3955566649e+03 0.0000000000e+00 0.0000e+00 -1.0000e+00
      -13  1    1    2    0    0 +5.6105731075e+02 +1.3089711847e+03 +5.6129674858e+02 1.5307661181e+03 0.0000000000e+00 0.0000e+00 1.0000e+00
       13  1    1    2    0    0 -5.6105731075e+02 -1.3089711847e+03 -3.5412953306e+02 1.4675144273e+03 0.0000000000e+00 0.0000e+00 -1.0000e+00
<mgrwt>
<rscale>  0 0.29911148E+04</rscale>
<asrwt>0</asrwt>
<pdfrwt beam="1">  1        2 0.24657290E+00 0.29911148E+04</pdfrwt>
<pdfrwt beam="2">  1       -2 0.21470103E+00 0.29911148E+04</pdfrwt>
<totfact> 0.11125496E+00</totfact>
</mgrwt>
<rwgt>
<wgt id='morphing_basis_vector_1'> +8.8512197e-05 </wgt>
<wgt id='morphing_basis_vector_2'> +7.8559793e-05 </wgt>
<wgt id='morphing_basis_vector_3'> +1.0038686e-04 </wgt>
<wgt id='morphing_basis_vector_4'> +4.5116094e-05 </wgt>
<wgt id='morphing_basis_vector_5'> +9.8073338e-05 </wgt>
</rwgt>
</event>
<event>
 4      1 +7.3133000e-09 3.08800500e+03 7.81860800e-03 7.73038100e-02
        2 -1    0    0  501    0 +0.0000000000e+00 +0.0000000000e+00 +1.8411971156e+03 1.8411971156e+03 0.0000000000e+00 0.0000e+00 -1.0000e+00
       -2 -1    0    0    0  501 -0.0000000000e+00 -0.0000000000e+00 -1.2947794604e+03 1.2947794604e+03 0.0000000000e+00 0.0000e+00 1.0000e+00
      -13  1    1    2    0    0 -9.7327943507e+02 +1.1707658514e+02 -9.3820295011e+02 1.3569099311e+03 0.0000000000e+00 0.0000e+00 1.0000e+00
       13  1    1    2    0    0 +9.7327943507e+02 -1.1707658514e+02 +1.4846206053e+03 1.7790666450e+03 0.0000000000e+00 0.0000e+00 -1.0000e+00
<mgrwt>
<rscale>  0 0.30880053E+04</rscale>
<asrwt>0</asrwt>
<pdfrwt beam="1">  1        2 0.28326109E+00 0.30880053E+04</pdfrwt>
<pdfrwt beam="2">  1       -2 0.19919684E+00 0.30880053E+04</pdfrwt>
<totfact> 0.10520769E+00</totfact>
</mgrwt>
<rwgt>
<wgt id='morphing_basis_vector_1'> +9.1063606e-05 </wgt>
<wgt id='morphing_basis_vector_2'> +6.1578997e-05 </wgt>
<wgt id='morphing_basis_vector_3'> +9.9349370e-05 </wgt>
<wgt id='morphing_basis_vector_4'> +7.0861498e-05 </wgt>
<wgt id='morphing_basis_vector_5'> +1.1314121e-04 </wgt>
</rwgt>
</event>
<event>
 4      1 +7.3133000e-09 2.81361600e+03 7.81860800e-03 7.80105600e-02
        2 -1    0    0  501    0 +0.0000000000e+00 +0.0000000000e+00 +1.1457625775e+03 1.1457625775e+03 0.0000000000e+00 0.0000e+00 -1.0000e+00
       -2 -1    0    0    0  501 -0.0000000000e+00 -0.0000000000e+00 -1.7273282316e+03 1.7273282316e+03 0.0000000000e+00 0.0000e+00 1.0000e+00
      -13  1    1    2    0    0 +3.7874778820e+02 +7.4575155599e+02 -1.4458491408e+03 1.6703517619e+03 0.0000000000e+00 0.0000e+00 1.0000e+00
       13  1    1    2    0    0 -3.7874778820e+02 -7.4575155599e+02 +8.6428348676e+02 1.2027390473e+03 0.0000000000e+00 0.0000e+00 -1.0000e+00
<mgrwt>
<rscale>  0 0.28136155E+04</rscale>
<asrwt>0</asrwt>
<pdfrwt beam="1">  1        2 0.17627117E+00 0.28136155E+04</pdfrwt>
<pdfrwt beam="2">  1       -2 0.26574280E+00 0.28136155E+04</pdfrwt>
<totfact> 0.90545751E-01</totfact>
</mgrwt>
<rwgt>
<wgt id='morphing_basis_vector_1'> +6.2969600e-05 </wgt>
<wgt id='morphing_basis_vector_2'> +4.2465518e-05 </wgt>
<wgt id='morphing_basis_vector_3'> +6.8470437e-05 </wgt>
<wgt id='morphing_basis_vector_4'> +4.8700225e-05 </wgt>
<wgt id='morphing_basis_vector_5'> +7.7712872e-05 </wgt>
</rwgt>
</event>
<event>
 4      1 +7.3133000e-09 2.73173900e+03 7.81860800e-03 7.82374700e-02
        2 -1    0    0  501    0 +0.0000000000e+00 +0.0000000000e+00 +1.9327788702e+03 1.9327788702e+03 0.0000000000e+00 0.0000e+00 -1.0000e+00
       -2 -1    0    0    0  501 -0.0000000000e+00 -0.0000000000e+00 -9.6524219319e+02 9.6524219319e+02 0.0000000000e+00 0.0000e+00 1.0000e+00
      -13  1    1    2    0    0 +2.1764854008e+01 +6.3514686331e+02 -7.9883858972e+02 1.0207978935e+03 0.0000000000e+00 0.0000e+00 1.0000e+00
       13  1    1    2    0    0 -2.1764854008e+01 -6.3514686331e+02 +1.7663752667e+03 1.8772231699e+03 0.0000000000e+00 0.0000e+00 -1.0000e+00
<mgrwt>
<rscale>  0 0.27317392E+04</rscale>
<asrwt>0</asrwt>
<pdfrwt beam="1">  1        2 0.29735060E+00 0.27317392E+04</pdfrwt>
<pdfrwt beam="2">  1       -2 0.14849880E+00 0.27317392E+04</pdfrwt>
<totfact> 0.23804137E+00</totfact>
</mgrwt>
<rwgt>
<wgt id='morphing_basis_vector_1'> +5.6005491e-05 </wgt>
<wgt id='morphing_basis_vector_2'> +3.7699085e-05 </wgt>
<wgt id='morphing_basis_vector_3'> +6.0818765e-05 </wgt>
<wgt id='morphing_basis_vector_4'> +4.3260596e-05 </wgt>
<wgt id='morphing_basis_vector_5'> +6.8972726e-05 </wgt>
</rwgt>
</event>
<event>
 4      1 +7.3133000e-09 2.86159800e+03 7.81860800e-03 7.78812000e-02
        2 -1    0    0  501    0 +0.0000000000e+00 +0.0000000000e+00 +8.3579132744e+02 8.3579132744e+02 0.0000000000e+00 0.0000e+00 -1.0000e+00
       -2 -1    0    0    0  501 -0.0000000000e+00 -0.0000000000e+00 -2.4493984122e+03 2.4493984122e+03 0.0000000000e+00 0.0000e+00 1.0000e+00
      -13  1    1    2    0    0 -8.7244895655e+02 +8.8139417132e+01 -2.1047588915e+03 2.2801196745e+03 0.0000000000e+00 0.0000e+00 1.0000e+00
       13  1    1    2    0    0 +8.7244895655e+02 -8.8139417132e+01 +4.9115180673e+02 1.0050700652e+03 0.0000000000e+00 0.0000e+00 -1.0000e+00
<mgrwt>
<rscale>  0 0.28615981E+04</rscale>
<asrwt>0</asrwt>
<pdfrwt beam="1">  1        2 0.12858328E+00 0.28615981E+04</pdfrwt>
<pdfrwt beam="2">  1       -2 0.37683053E+00 0.28615981E+04</pdfrwt>
<totfact> 0.25843609E-01</totfact>
</mgrwt>
<rwgt>
<wgt id='morphing_basis_vector_1'> +6.7335329e-05 </wgt>
<wgt id='morphing_basis_vector_2'> +4.5440246e-05 </wgt>
<wgt id='morphing_basis_vector_3'> +7.3266587e-05 </wgt>
<wgt id='morphing_basis_vector_4'> +5.2131261e-05 </wgt>
<wgt id='morphing_basis_vector_5'> +8.3206075e-05 </wgt>
</rwgt>
</event>
<event>
 4      1 +7.3133000e-09 2.81149300e+03 7.81860800e-03 7.80163500e-02
        2 -1    0    0  501    0 +0.0000000000e+00 +0.0000000000e+00 +2.2045454236e+03 2.2045454236e+03 0.0000000000e+00 0.0000e+00 -1.0000e+00
       -2 -1    0    0    0  501 -0.0000000000e+00 -0.0000000000e+00 -8.9638594374e+02 8.9638594374e+02 0.0000000000e+00 0.0000e+00 1.0000e+00
      -13  1    1    2    0    0 +1.6128911383e+02 +4.7285062209e+02 -7.9516297840e+02 9.3908788261e+02 0.0000000000e+00 0.0000e+00 1.0000e+00
       13  1    1    2    0    0 -1.6128911383e+02 -4.7285062209e+02 +2.1033224583e+03 2.1618434847e+03 0.0000000000e+00 0.0000e+00 -1.0000e+00
<mgrwt>
<rscale>  0 0.28114932E+04</rscale>
<asrwt>0</asrwt>
<pdfrwt beam="1">  1        2 0.33916083E+00 0.28114932E+04</pdfrwt>
<pdfrwt beam="2">  1       -2 0.13790553E+00 0.28114932E+04</pdfrwt>
<totfact> 0.20395292E+00</totfact>
</mgrwt>
<rwgt>
<wgt id='morphing_basis_vector_1'> +6.2754570e-05 </wgt>
<wgt id='morphing_basis_vector_2'> +4.2257885e-05 </wgt>
<wgt id='morphing_basis_vector_3'> +6.8221985e-05 </wgt>
<wgt id='morphing_basis_vector_4'> +4.8608387e-05 </wgt>
<wgt id='morphing_basis_vector_5'> +7.7480918e-05 </wgt>
</rwgt>
</event>
<event>
 4      1 +7.3133000e-09 2.83567600e+03 7.81860800e-03 7.79507700e-02
        2 -1    0    0  501    0 +0.0000000000e+00 +0.0000000000e+00 +1.5645166621e+03 1.5645166621e+03 0.0000000000e+00 0.0000e+00 -1.0000e+00
       -2 -1    0    0    0  501 -0.0000000000e+00 -0.0000000000e+00 -1.2849105802e+03 1.2849105802e+03 0.0000000000e+00 0.0000e+00 1.0000e+00
      -13  1    1    2    0    0 -5.8808914402e+02 -1.2302853771e+03 +5.3003290789e+02 1.4630057532e+03 0.0000000000e+00 0.0000e+00 1.0000e+00
       13  1    1    2    0    0 +5.8808914402e+02 +1.2302853771e+03 -2.5042682603e+02 1.3864214891e+03 0.0000000000e+00 0.0000e+00 -1.0000e+00
<mgrwt>
<rscale>  0 0.28356756E+04</rscale>
<asrwt>0</asrwt>
<pdfrwt beam="1">  1        2 0.24069487E+00 0.28356756E+04</pdfrwt>
<pdfrwt beam="2">  1       -2 0.19767855E+00 0.28356756E+04</pdfrwt>
<totfact> 0.15721258E+00</totfact>
</mgrwt>
<rwgt>
<wgt id='morphing_basis_vector_1'> +7.0998973e-05 </wgt>
<wgt id='morphing_basis_vector_2'> +6.1640401e-05 </wgt>
<wgt id='morphing_basis_vector_3'> +8.0049798e-05 </wgt>
<wgt id='morphing_basis_vector_4'> +3.7714557e-05 </wgt>
<wgt id='morphing_basis_vector_5'> +7.9176727e-05 </wgt>
</rwgt>
</event>
<event>
 4      1 +7.3133000e-09 3.05141300e+03 7.81860800e-03 7.73936100e-02
        2 -1    0    0  501    0 +0.0000000000e+00 +0.0000000000e+00 +2.4418627534e+03 2.4418627534e+03 0.0000000000e+00 0.0000e+00 1.0000e+00
       -2 -1    0    0    0  501 -0.0000000000e+00 -0.0000000000e+00 -9.5328086865e+02 9.5328086865e+02 0.0000000000e+00 0.0000e+00 -1.0000e+00
      -13  1    1    2    0    0 -5.3093750289e+02 +9.5096857998e+02 -4.4449494948e+02 1.1763552321e+03 0.0000000000e+00 0.0000e+00 -1.0000e+00
       13  1    1    2    0    0 +5.3093750289e+02 -9.5096857998e+02 +1.9330768343e+03 2.2187883899e+03 0.0000000000e+00 0.0000e+00 1.0000e+00
<mgrwt>
<rscale>  0 0.30514135E+04</rscale>
<asrwt>0</asrwt>
<pdfrwt beam="1">  1        2 0.37567119E+00 0.30514135E+04</pdfrwt>
<pdfrwt beam="2">  1       -2 0.14665860E+00 0.30514135E+04</pdfrwt>
<totfact> 0.12249000E+00</totfact>
</mgrwt>
<rwgt>
<wgt id='morphing_basis_vector_1'> +8.6910783e-05 </wgt>
<wgt id='morphing_basis_vector_2'> +5.8872995e-05 </wgt>
<wgt id='morphing_basis_vector_3'> +9.4806820e-05 </wgt>
<wgt id='morphing_basis_vector_4'> +6.7428217e-05 </wgt>
<wgt id='morphing_basis_vector_5'> +1.0782072e-04 </wgt>
</rwgt>
</event>
<event>
 4      1 +7.3133000e-09 3.05994300e+03 7.81860800e-03 7.73725600e-02
        2 -1    0    0  501    0 +0.0000000000e+00 +0.0000000000e+00 +1.9882012878e+03 1.9882012878e+03 0.0000000000e+00 0.0000e+00 -1.0000e+00
       -2 -1    0    0    0  501 -0.0000000000e+00 -0.0000000000e+00 -1.1773518098e+03 1.1773518098e+03 0.0000000000e+00 0.0000e+00 1.0000e+00
      -13  1    1    2    0    0 -1.0618073678e+03 -6.7404842703e+02 -4.9587148721e+02 1.3519114986e+03 0.0000000000e+00 0.0000e+00 1.0000e+00
       13  1    1    2    0    0 +1.0618073678e+03 +6.7404842703e+02 +1.3067209653e+03 1.8136415990e+03 0.0000000000e+00 0.0000e+00 -1.0000e+00
<mgrwt>
<rscale>  0 0.30599427E+04</rscale>
<asrwt>0</asrwt>
<pdfrwt beam="1">  1        2 0.30587712E+00 0.30599427E+04</pdfrwt>
<pdfrwt beam="2">  1       -2 0.18113105E+00 0.30599427E+04</pdfrwt>
<totfact> 0.11889198E+00</totfact>
</mgrwt>
<rwgt>
<wgt id='morphing_basis_vector_1'> +8.8034301e-05 </wgt>
<wgt id='morphing_basis_vector_2'> +5.9991876e-05 </wgt>
<wgt id='morphing_basis_vector_3'> +9.6115816e-05 </wgt>
<wgt id='morphing_basis_vector_4'> +6.7865731e-05 </wgt>
<wgt id='morphing_basis_vector_5'> +1.0901487e-04 </wgt>
</rwgt>
</event>
<event>
 4      1 +7.3133000e-09 2.90442900e+03 7.81860800e-03 7.77678800e-02
        2 -1    0    0  501    0 +0.0000000000e+00 +0.0000000000e+00 +3.9000549023e+03 3.9000549023e+03 0.0000000000e+00 0.0000e+00 1.0000e+00
       -2 -1    0    0    0  501 -0.0000000000e+00 -0.0000000000e+00 -5.4074281977e+02 5.4074281977e+02 0.0000000000e+00 0.0000e+00 -1.0000e+00
      -13  1    1    2    0    0 -7.1052434781e+02 +4.0442751207e+02 -1.5544480170e+02 8.3220763499e+02 0.0000000000e+00 0.0000e+00 -1.0000e+00
       13  1    1    2    0    0 +7.1052434781e+02 -4.0442751207e+02 +3.5147568843e+03 3.6085900871e+03 0.0000000000e+00 0.0000e+00 1.0000e+00
<mgrwt>
<rscale>  0 0.29044288E+04</rscale>
<asrwt>0</asrwt>
<pdfrwt beam="1">  1        2 0.60000843E+00 0.29044288E+04</pdfrwt>
<pdfrwt beam="2">  1       -2 0.83191206E-01 0.29044288E+04</pdfrwt>
<totfact> 0.51907156E-01</totfact>
</mgrwt>
<rwgt>
<wgt id='morphing_basis_vector_1'> +7.1402722e-05 </wgt>
<wgt id='morphing_basis_vector_2'> +4.8170758e-05 </wgt>
<wgt id='morphing_basis_vector_3'> +7.7727911e-05 </wgt>
<wgt id='morphing_basis_vector_4'> +5.5382225e-05 </wgt>
<wgt id='morphing_basis_vector_5'> +8.8353269e-05 </wgt>
</rwgt>
</event>
<event>
 4      1 +7.3133000e-09 2.95995400e+03 7.81860800e-03 7.76238700e-02
        2 -1    0    0  501    0 +0.0000000000e+00 +0.0000000000e+00 +2.2995595372e+03 2.2995595372e+03 0.0000000000e+00 0.0000e+00 -1.0000e+00
       -2 -1    0    0    0  501 -0.0000000000e+00 -0.0000000000e+00 -9.5250083015e+02 9.5250083015e+02 0.0000000000e+00 0.0000e+00 1.0000e+00
      -13  1    1    2    0    0 -5.9403038456e+02 -1.3490021928e+03 +8.1950728693e+02 1.6864967261e+03 0.0000000000e+00 0.0000e+00 1.0000e+00
       13  1    1    2    0    0 +5.9403038456e+02 +1.3490021928e+03 +5.2755142008e+02 1.5655636412e+03 0.0000000000e+00 0.0000e+00 -1.0000e+00
<mgrwt>
<rscale>  0 0.29599543E+04</rscale>
<asrwt>0</asrwt>
<pdfrwt beam="1">  1        2 0.35377839E+00 0.29599543E+04</pdfrwt>
<pdfrwt beam="2">  1       -2 0.14653859E+00 0.29599543E+04</pdfrwt>
<totfact> 0.14991223E+00</totfact>
</mgrwt>
<rwgt>
<wgt id='morphing_basis_vector_1'> +8.0820962e-05 </wgt>
<wgt id='morphing_basis_vector_2'> +6.3300724e-05 </wgt>
<wgt id='morphing_basis_vector_3'> +8.9864346e-05 </wgt>
<wgt id='morphing_basis_vector_4'> +5.1762957e-05 </wgt>
<wgt id='morphing_basis_vector_5'> +9.4714475e-05 </wgt>
</rwgt>
</event>
<event>
 4      1 +7.3133000e-09 2.80780000e+03 7.81860800e-03 7.80264200e-02
        2 -1    0    0  501    0 +0.0000000000e+00 +0.0000000000e+00 +1.1462276086e+03 1.1462276086e+03 0.0000000000e+00 0.0000e+00 -1.0000e+00
       -2 -1    0    0    0  501 -0.0000000000e+00 -0.0000000000e+00 -1.7194972628e+03 1.7194972628e+03 0.0000000000e+00 0.0000e+00 1.0000e+00
      -13  1    1    2    0    0 -1.0099051378e+03 -4.9683869015e+02 -1.1430997826e+03 1.6041926893e+03 0.0000000000e+00 0.0000e+00 1.0000e+00
       13  1    1    2    0    0 +1.0099051378e+03 +4.9683869015e+02 +5.6983012832e+02 1.2615321821e+03 0.0000000000e+00 0.0000e+00 -1.0000e+00
<mgrwt>
<rscale>  0 0.28078000E+04</rscale>
<asrwt>0</asrwt>
<pdfrwt beam="1">  1        2 0.17634271E+00 0.28078000E+04</pdfrwt>
<pdfrwt beam="2">  1       -2 0.26453804E+00 0.28078000E+04</pdfrwt>
<totfact> 0.92272682E-01</totfact>
</mgrwt>
<rwgt>
<wgt id='morphing_basis_vector_1'> +6.2586093e-05 </wgt>
<wgt id='morphing_basis_vector_2'> +4.2500529e-05 </wgt>
<wgt id='morphing_basis_vector_3'> +6.8108600e-05 </wgt>
<wgt id='morphing_basis_vector_4'> +4.8025304e-05 </wgt>
<wgt id='morphing_basis_vector_5'> +7.7043856e-05 </wgt>
</rwgt>
</event>
<event>
 4      1 +7.3133000e-09 2.67585400e+03 7.81860800e-03 7.83970400e-02
        2 -1    0    0  501    0 +0.0000000000e+00 +0.0000000000e+00 +9.4155105529e+02 9.4155105529e+02 0.0000000000e+00 0.0000e+00 -1.0000e+00
       -2 -1    0    0    0  501 -0.0000000000e+00 -0.0000000000e+00 -1.9011707114e+03 1.9011707114e+03 0.0000000000e+00 0.0000e+00 1.0000e+00
      -13  1    1    2    0    0 -5.6114137323e+02 -1.0104361408e+03 -1.1957717240e+03 1.6630486617e+03 0.0000000000e+00 0.0000e+00 1.0000e+00
       13  1    1    2    0    0 +5.6114137323e+02 +1.0104361408e+03 +2.3615206788e+02 1.1796731050e+03 0.0000000000e+00 0.0000e+00 -1.0000e+00
<mgrwt>
<rscale>  0 0.26758545E+04</rscale>
<asrwt>0</asrwt>
<pdfrwt beam="1">  1        2 0.14485401E+00 0.26758545E+04</pdfrwt>
<pdfrwt beam="2">  1       -2 0.29248780E+00 0.26758545E+04</pdfrwt>
<totfact> 0.80312696E-01</totfact>
</mgrwt>
<rwgt>
<wgt id='morphing_basis_vector_1'> +5.1827252e-05 </wgt>
<wgt id='morphing_basis_vector_2'> +3.5364502e-05 </wgt>
<wgt id='morphing_basis_vector_3'> +5.6333338e-05 </wgt>
<wgt id='morphing_basis_vector_4'> +3.9342206e-05 </wgt>
<wgt id='morphing_basis_vector_5'> +6.3405428e-05 </wgt>
</rwgt>
</event>
<event>
 4      1 +7.3133000e-09 2.68642300e+03 7.81860800e-03 7.83665600e-02
        2 -1    0    0  501    0 +0.0000000000e+00 +0.0000000000e+00 +3.2958048606e+03 3.2958048606e+03 0.0000000000e+00 0.0000e+00 -1.0000e+00
       -2 -1    0    0    0  501 -0.0000000000e+00 -0.0000000000e+00 -5.4742853567e+02 5.4742853567e+02 0.0000000000e+00 0.0000e+00 1.0000e+00
      -13  1    1    2    0    0 -6.1049495952e+02 +1.1914244981e+03 +1.2173339509e+03 1.8094469814e+03 0.0000000000e+00 0.0000e+00 1.0000e+00
       13  1    1    2    0    0 +6.1049495952e+02 -1.1914244981e+03 +1.5310423740e+03 2.0337864148e+03 0.0000000000e+00 0.0000e+00 -1.0000e+00
<mgrwt>
<rscale>  0 0.26864234E+04</rscale>
<asrwt>0</asrwt>
<pdfrwt beam="1">  1        2 0.50704689E+00 0.26864234E+04</pdfrwt>
<pdfrwt beam="2">  1       -2 0.84219777E-01 0.26864234E+04</pdfrwt>
<totfact> 0.14670735E+00</totfact>
</mgrwt>
<rwgt>
<wgt id='morphing_basis_vector_1'> +5.3837648e-05 </wgt>
<wgt id='morphing_basis_vector_2'> +3.9450394e-05 </wgt>
<wgt id='morphing_basis_vector_3'> +5.9073927e-05 </wgt>
<wgt id='morphing_basis_vector_4'> +3.7506001e-05 </wgt>
<wgt id='morphing_basis_vector_5'> +6.4223122e-05 </wgt>
</rwgt>
</event>
<event>
 4      1 +7.3133000e-09 3.08216200e+03 7.81860800e-03 7.73180700e-02
        2 -1    0    0  501    0 +0.0000000000e+00 +0.0000000000e+00 +2.5387069579e+03 2.5387069579e+03 0.0000000000e+00 0.0000e+00 -1.0000e+00
       -2 -1    0    0    0  501 -0.0000000000e+00 -0.0000000000e+00 -9.3548813737e+02 9.3548813737e+02 0.0000000000e+00 0.0000e+00 1.0000e+00
      -13  1    1    2    0    0 -1.4742720896e+03 +4.4879388842e+02 +8.0838147894e+02 1.7402226191e+03 0.0000000000e+00 0.0000e+00 -1.0000e+00
       13  1    1    2    0    0 +1.4742720896e+03 -4.4879388842e+02 +7.9483734155e+02 1.7339724761e+03 0.0000000000e+00 0.0000e+00 1.0000e+00
<mgrwt>
<rscale>  0 0.30821617E+04</rscale>
<asrwt>0</asrwt>
<pdfrwt beam="1">  1        2 0.39057030E+00 0.30821617E+04</pdfrwt>
<pdfrwt beam="2">  1       -2 0.14392125E+00 0.30821617E+04</pdfrwt>
<totfact> 0.11277475E+00</totfact>
</mgrwt>
<rwgt>
<wgt id='morphing_basis_vector_1'> +9.3686279e-05 </wgt>
<wgt id='morphing_basis_vector_2'> +7.0844632e-05 </wgt>
<wgt id='morphing_basis_vector_3'> +1.0378709e-04 </wgt>
<wgt id='morphing_basis_vector_4'> +6.3429761e-05 </wgt>
<wgt id='morphing_basis_vector_5'> +1.1171270e-04 </wgt>
</rwgt>
</event>
<event>
 4      1 +7.3133000e-09 2.85265600e+03 7.81860800e-03 7.79051100e-02
        2 -1    0    0  501    0 +0.0000000000e+00 +0.0000000000e+00 +2.8684270549e+03 2.8684270549e+03 0.0000000000e+00 0.0000e+00 -1.0000e+00
       -2 -1    0    0    0  501 -0.0000000000e+00 -0.0000000000e+00 -7.0924301017e+02 7.0924301017e+02 0.0000000000e+00 0.0000e+00 1.0000e+00
      -13  1    1    2    0    0 -1.0681434330e+03 +2.4381451014e+01 -1.0549188811e+02 1.0736169647e+03 0.0000000000e+00 0.0000e+00 1.0000e+00
       13  1    1    2    0    0 +1.0681434330e+03 -2.4381451014e+01 +2.2646759328e+03 2.5040531003e+03 0.0000000000e+00 0.0000e+00 -1.0000e+00
<mgrwt>
<rscale>  0 0.28526562E+04</rscale>
<asrwt>0</asrwt>
<pdfrwt beam="1">  1        2 0.44129646E+00 0.28526562E+04</pdfrwt>
<pdfrwt beam="2">  1       -2 0.10911431E+00 0.28526562E+04</pdfrwt>
<totfact> 0.14965745E+00</totfact>
</mgrwt>
<rwgt>
<wgt id='morphing_basis_vector_1'> +6.6579931e-05 </wgt>
<wgt id='morphing_basis_vector_2'> +4.5095195e-05 </wgt>
<wgt id='morphing_basis_vector_3'> +7.2470847e-05 </wgt>
<wgt id='morphing_basis_vector_4'> +5.1323136e-05 </wgt>
<wgt id='morphing_basis_vector_5'> +8.2148306e-05 </wgt>
</rwgt>
</event>
<event>
 4      1 +7.3133000e-09 2.73384900e+03 7.81860800e-03 7.82315200e-02
        2 -1    0    0  501    0 +0.0000000000e+00 +0.0000000000e+00 +1.9071079457e+03 1.9071079457e+03 0.0000000000e+00 0.0000e+00 -1.0000e+00
       -2 -1    0    0    0  501 -0.0000000000e+00 -0.0000000000e+00 -9.7974652397e+02 9.7974652397e+02 0.0000000000e+00 0.0000e+00 1.0000e+00
      -13  1    1    2    0    0 +1.0267027777e+03 +3.7710068664e+02 -4.0205703978e+02 1.1653211509e+03 0.0000000000e+00 0.0000e+00 1.0000e+00
       13  1    1    2    0    0 -1.0267027777e+03 -3.7710068664e+02 +1.3294184615e+03 1.7215333187e+03 0.0000000000e+00 0.0000e+00 -1.0000e+00
<mgrwt>
<rscale>  0 0.27338488E+04</rscale>
<asrwt>0</asrwt>
<pdfrwt beam="1">  1        2 0.29340122E+00 0.27338488E+04</pdfrwt>
<pdfrwt beam="2">  1       -2 0.15073023E+00 0.27338488E+04</pdfrwt>
<totfact> 0.23576866E+00</totfact>
</mgrwt>
<rwgt>
<wgt id='morphing_basis_vector_1'> +5.6310536e-05 </wgt>
<wgt id='morphing_basis_vector_2'> +3.8209365e-05 </wgt>
<wgt id='morphing_basis_vector_3'> +6.1213594e-05 </wgt>
<wgt id='morphing_basis_vector_4'> +4.3119396e-05 </wgt>
<wgt id='morphing_basis_vector_5'> +6.9165756e-05 </wgt>
</rwgt>
</event>
<event>
 4      1 +7.3133000e-09 2.77156200e+03 7.81860800e-03 7.81261100e-02
        2 -1    0    0  501    0 +0.0000000000e+00 +0.0000000000e+00 +1.5542456167e+03 1.5542456167e+03 0.0000000000e+00 0.0000e+00 -1.0000e+00
       -2 -1    0    0    0  501 -0.0000000000e+00 -0.0000000000e+00 -1.2355764064e+03 1.2355764064e+03 0.0000000000e+00 0.0000e+00 1.0000e+00
      -13  1    1    2    0    0 +7.4019053419e+02 -9.0812312182e+02 -5.8569005828e+02 1.3098100915e+03 0.0000000000e+00 0.0000e+00 1.0000e+00
       13  1    1    2    0    0 -7.4019053419e+02 +9.0812312182e+02 +9.0435926858e+02 1.4800119317e+03 0.0000000000e+00 0.0000e+00 -1.0000e+00
<mgrwt>
<rscale>  0 0.27715622E+04</rscale>
<asrwt>0</asrwt>
<pdfrwt beam="1">  1        2 0.23911471E+00 0.27715622E+04</pdfrwt>
<pdfrwt beam="2">  1       -2 0.19008868E+00 0.27715622E+04</pdfrwt>
<totfact> 0.18226732E+00</totfact>
</mgrwt>
<rwgt>
<wgt id='morphing_basis_vector_1'> +5.9517977e-05 </wgt>
<wgt id='morphing_basis_vector_2'> +4.0559487e-05 </wgt>
<wgt id='morphing_basis_vector_3'> +6.4768487e-05 </wgt>
<wgt id='morphing_basis_vector_4'> +4.5428278e-05 </wgt>
<wgt id='morphing_basis_vector_5'> +7.3092296e-05 </wgt>
</rwgt>
</event>
<event>
 4      1 +7.3133000e-09 2.76757900e+03 7.81860800e-03 7.81371600e-02
        2 -1    0    0  501    0 +0.0000000000e+00 +0.0000000000e+00 +2.6554350865e+03 2.6554350865e+03 0.0000000000e+00 0.0000e+00 -1.0000e+00
       -2 -1    0    0    0  501 -0.0000000000e+00 -0.0000000000e+00 -7.2111490931e+02 7.2111490931e+02 0.0000000000e+00 0.0000e+00 1.0000e+00
      -13  1    1    2    0    0 -1.0773359874e+03 +5.0576144850e+02 +1.8284980889e+03 2.1817086730e+03 0.0000000000e+00 0.0000e+00 1.0000e+00
       13  1    1    2    0    0 +1.0773359874e+03 -5.0576144850e+02 +1.0582208826e+02 1.1948413229e+03 0.0000000000e+00 0.0000e+00 -1.0000e+00
<mgrwt>
<rscale>  0 0.27675793E+04</rscale>
<asrwt>0</asrwt>
<pdfrwt beam="1">  1        2 0.40852847E+00 0.27675793E+04</pdfrwt>
<pdfrwt beam="2">  1       -2 0.11094076E+00 0.27675793E+04</pdfrwt>
<totfact> 0.19629854E+00</totfact>
</mgrwt>
<rwgt>
<wgt id='morphing_basis_vector_1'> +7.0125873e-05 </wgt>
<wgt id='morphing_basis_vector_2'> +7.2588921e-05 </wgt>
<wgt id='morphing_basis_vector_3'> +8.1359030e-05 </wgt>
<wgt id='morphing_basis_vector_4'> +2.2519224e-05 </wgt>
<wgt id='morphing_basis_vector_5'> +7.0817830e-05 </wgt>
</rwgt>
</event>
<event>
 4      1 +7.3133000e-09 2.82746500e+03 7.81860800e-03 7.79729600e-02
        2 -1    0    0  501    0 +0.0000000000e+00 +0.0000000000e+00 +1.9927394913e+03 1.9927394913e+03 0.0000000000e+00 0.0000e+00 1.0000e+00
       -2 -1    0    0    0  501 -0.0000000000e+00 -0.0000000000e+00 -1.0029610322e+03 1.0029610322e+03 0.0000000000e+00 0.0000e+00 -1.0000e+00
      -13  1    1    2    0    0 +1.1442607405e+03 -1.7633608894e+02 -3.6468687351e+02 1.2138466024e+03 0.0000000000e+00 0.0000e+00 -1.0000e+00
       13  1    1    2    0    0 -1.1442607405e+03 +1.7633608894e+02 +1.3544653326e+03 1.7818539210e+03 0.0000000000e+00 0.0000e+00 1.0000e+00
<mgrwt>
<rscale>  0 0.28274653E+04</rscale>
<asrwt>0</asrwt>
<pdfrwt beam="1">  1        2 0.30657531E+00 0.28274653E+04</pdfrwt>
<pdfrwt beam="2">  1       -2 0.15430170E+00 0.28274653E+04</pdfrwt>
<totfact> 0.19572639E+00</totfact>
</mgrwt>
<rwgt>
<wgt id='morphing_basis_vector_1'> +6.4365051e-05 </wgt>
<wgt id='morphing_basis_vector_2'> +4.3773861e-05 </wgt>
<wgt id='morphing_basis_vector_3'> +7.0075190e-05 </wgt>
<wgt id='morphing_basis_vector_4'> +4.9345482e-05 </wgt>
<wgt id='morphing_basis_vector_5'> +7.9242938e-05 </wgt>
</rwgt>
</event>
<event>
 4      1 +7.3133000e-09 2.93559600e+03 7.81860800e-03 7.76866500e-02
        2 -1    0    0  501    0 +0.0000000000e+00 +0.0000000000e+00 +8.5365601910e+02 8.5365601910e+02 0.0000000000e+00 0.0000e+00 1.0000e+00
       -2 -1    0    0    0  501 -0.0000000000e+00 -0.0000000000e+00 -2.5237697464e+03 2.5237697464e+03 0.0000000000e+00 0.0000e+00 -1.0000e+00
      -13  1    1    2    0    0 +1.3786625181e+00 -5.0815694960e+02 -2.4193379555e+03 2.4721289467e+03 0.0000000000e+00 0.0000e+00 -1.0000e+00
       13  1    1    2    0    0 -1.3786625181e+00 +5.0815694960e+02 +7.4922422817e+02 9.0529681885e+02 0.0000000000e+00 0.0000e+00 1.0000e+00
<mgrwt>
<rscale>  0 0.29355962E+04</rscale>
<asrwt>0</asrwt>
<pdfrwt beam="1">  1        2 0.13133169E+00 0.29355962E+04</pdfrwt>
<pdfrwt beam="2">  1       -2 0.38827227E+00 0.29355962E+04</pdfrwt>
<totfact> 0.21088418E-01</totfact>
</mgrwt>
<rwgt>
<wgt id='morphing_basis_vector_1'> +7.4462555e-05 </wgt>
<wgt id='morphing_basis_vector_2'> +5.0192136e-05 </wgt>
<wgt id='morphing_basis_vector_3'> +8.1078080e-05 </wgt>
<wgt id='morphing_basis_vector_4'> +5.7870931e-05 </wgt>
<wgt id='morphing_basis_vector_5'> +9.2248203e-05 </wgt>
</rwgt>
</event>
<event>
 4      1 +7.3133000e-09 3.07960900e+03 7.81860800e-03 7.73243100e-02
        2 -1    0    0  501    0 +0.0000000000e+00 +0.0000000000e+00 +2.2902168405e+03 2.2902168405e+03 0.0000000000e+00 0.0000e+00 -1.0000e+00
       -2 -1    0    0    0  501 -0.0000000000e+00 -0.0000000000e+00 -1.0352719193e+03 1.0352719193e+03 0.0000000000e+00 0.0000e+00 1.0000e+00
      -13  1    1    2    0    0 -1.5118996013e+02 +1.3275708275e+03 -1.9893748330e+02 1.3508807602e+03 0.0000000000e+00 0.0000e+00 1.0000e+00
       13  1    1    2    0    0 +1.5118996013e+02 -1.3275708275e+03 +1.4538824044e+03 1.9746079996e+03 0.0000000000e+00 0.0000e+00 -1.0000e+00
<mgrwt>
<rscale>  0 0.30796085E+04</rscale>
<asrwt>0</asrwt>
<pdfrwt beam="1">  1        2 0.35234105E+00 0.30796085E+04</pdfrwt>
<pdfrwt beam="2">  1       -2 0.15927260E+00 0.30796085E+04</pdfrwt>
<totfact> 0.11816192E+00</totfact>
</mgrwt>
<rwgt>
<wgt id='morphing_basis_vector_1'> +9.0434589e-05 </wgt>
<wgt id='morphing_basis_vector_2'> +6.1941823e-05 </wgt>
<wgt id='morphing_basis_vector_3'> +9.8821652e-05 </wgt>
<wgt id='morphing_basis_vector_4'> +6.9359719e-05 </wgt>
<wgt id='morphing_basis_vector_5'> +1.1184549e-04 </wgt>
</rwgt>
</event>
<event>
 4      1 +7.3133000e-09 2.90164000e+03 7.81860800e-03 7.77752000e-02
        2 -1    0    0  501    0 +0.0000000000e+00 +0.0000000000e+00 +2.7523137685e+03 2.7523137685e+03 0.0000000000e+00 0.0000e+00 -1.0000e+00
       -2 -1    0    0    0  501 -0.0000000000e+00 -0.0000000000e+00 -7.6476692091e+02 7.6476692091e+02 0.0000000000e+00 0.0000e+00 1.0000e+00
      -13  1    1    2    0    0 +3.5406401882e+02 +5.8154037203e+02 -5.5910160343e+02 8.8099099694e+02 0.0000000000e+00 0.0000e+00 1.0000e+00
       13  1    1    2    0    0 -3.5406401882e+02 -5.8154037203e+02 +2.5466484510e+03 2.6360896925e+03 0.0000000000e+00 0.0000e+00 -1.0000e+00
<mgrwt>
<rscale>  0 0.29016399E+04</rscale>
<asrwt>0</asrwt>
<pdfrwt beam="1">  1        2 0.42343288E+00 0.29016399E+04</pdfrwt>
<pdfrwt beam="2">  1       -2 0.11765645E+00 0.29016399E+04</pdfrwt>
<totfact> 0.14561093E+00</totfact>
</mgrwt>
<rwgt>
<wgt id='morphing_basis_vector_1'> +7.1116555e-05 </wgt>
<wgt id='morphing_basis_vector_2'> +4.7942662e-05 </wgt>
<wgt id='morphing_basis_vector_3'> +7.7406685e-05 </wgt>
<wgt id='morphing_basis_vector_4'> +5.5198924e-05 </wgt>
<wgt id='morphing_basis_vector_5'> +8.8013746e-05 </wgt>
</rwgt>
</event>
<event>
 4      1 +7.3133000e-09 2.81578300e+03 7.81860800e-03 7.80046600e-02
        2 -1    0    0  501    0 +0.0000000000e+00 +0.0000000000e+00 +1.5786998369e+03 1.5786998369e+03 0.0000000000e+00 0.0000e+00 -1.0000e+00
       -2 -1    0    0    0  501 -0.0000000000e+00 -0.0000000000e+00 -1.2555640914e+03 1.2555640914e+03 0.0000000000e+00 0.0000e+00 1.0000e+00
      -13  1    1    2    0    0 +9.5748791616e+02 -4.7679625285e+02 -7.5988624410e+02 1.3120765528e+03 0.0000000000e+00 0.0000e+00 1.0000e+00
       13  1    1    2    0    0 -9.5748791616e+02 +4.7679625285e+02 +1.0830219895e+03 1.5221873755e+03 0.0000000000e+00 0.0000e+00 -1.0000e+00
<mgrwt>
<rscale>  0 0.28157832E+04</rscale>
<asrwt>0</asrwt>
<pdfrwt beam="1">  1        2 0.24287690E+00 0.28157832E+04</pdfrwt>
<pdfrwt beam="2">  1       -2 0.19316371E+00 0.28157832E+04</pdfrwt>
<totfact> 0.16694815E+00</totfact>
</mgrwt>
<rwgt>
<wgt id='morphing_basis_vector_1'> +6.3246569e-05 </wgt>
<wgt id='morphing_basis_vector_2'> +4.2845556e-05 </wgt>
<wgt id='morphing_basis_vector_3'> +6.8813070e-05 </wgt>
<wgt id='morphing_basis_vector_4'> +4.8676491e-05 </wgt>
<wgt id='morphing_basis_vector_5'> +7.7940704e-05 </wgt>
</rwgt>
</event>
<event>
 4      1 +7.3133000e-09 2.80084900e+03 7.81860800e-03 7.80454200e-02
        2 -1    0    0  501    0 +0.0000000000e+00 +0.0000000000e+00 +2.9832426629e+03 2.9832426629e+03 0.0000000000e+00 0.0000e+00 1.0000e+00
       -2 -1    0    0    0  501 -0.0000000000e+00 -0.0000000000e+00 -6.5740173172e+02 6.5740173172e+02 0.0000000000e+00 0.0000e+00 -1.0000e+00
      -13  1    1    2    0    0 +1.1676948065e+03 -7.0667171285e+02 +7.5539997132e+02 1.5599760214e+03 0.0000000000e+00 0.0000e+00 -1.0000e+00
       13  1    1    2    0    0 -1.1676948065e+03 +7.0667171285e+02 +1.5704409599e+03 2.0806683732e+03 0.0000000000e+00 0.0000e+00 1.0000e+00
<mgrwt>
<rscale>  0 0.28008491E+04</rscale>
<asrwt>0</asrwt>
<pdfrwt beam="1">  1        2 0.45896040E+00 0.28008491E+04</pdfrwt>
<pdfrwt beam="2">  1       -2 0.10113873E+00 0.28008491E+04</pdfrwt>
<totfact> 0.15296029E+00</totfact>
</mgrwt>
<rwgt>
<wgt id='morphing_basis_vector_1'> +6.2786434e-05 </wgt>
<wgt id='morphing_basis_vector_2'> +4.4474293e-05 </wgt>
<wgt id='morphing_basis_vector_3'> +6.8696528e-05 </wgt>
<wgt id='morphing_basis_vector_4'> +4.5866393e-05 </wgt>
<wgt id='morphing_basis_vector_5'> +7.6138631e-05 </wgt>
</rwgt>
</event>
<event>
 4      1 +7.3133000e-09 2.75457400e+03 7.81860800e-03 7.81733800e-02
        2 -1    0    0  501    0 +0.0000000000e+00 +0.0000000000e+00 +1.7100856588e+03 1.7100856588e+03 0.0000000000e+00 0.0000e+00 1.0000e+00
       -2 -1    0    0    0  501 -0.0000000000e+00 -0.0000000000e+00 -1.1092537217e+03 1.1092537217e+03 0.0000000000e+00 0.0000e+00 -1.0000e+00
      -13  1    1    2    0    0 -1.2669399735e+03 +3.9070550121e+02 +6.8218899592e+02 1.4910296816e+03 0.0000000000e+00 0.0000e+00 -1.0000e+00
       13  1    1    2    0    0 +1.2669399735e+03 -3.9070550121e+02 -8.1357058861e+01 1.3283096989e+03 0.0000000000e+00 0.0000e+00 1.0000e+00
<mgrwt>
<rscale>  0 0.27545736E+04</rscale>
<asrwt>0</asrwt>
<pdfrwt beam="1">  1        2 0.26309010E+00 0.27545736E+04</pdfrwt>
<pdfrwt beam="2">  1       -2 0.17065442E+00 0.27545736E+04</pdfrwt>
<totfact> 0.20998361E+00</totfact>
</mgrwt>
<rwgt>
<wgt id='morphing_basis_vector_1'> +6.3240288e-05 </wgt>
<wgt id='morphing_basis_vector_2'> +5.4767017e-05 </wgt>
<wgt id='morphing_basis_vector_3'> +7.1176212e-05 </wgt>
<wgt id='morphing_basis_vector_4'> +3.3656674e-05 </wgt>
<wgt id='morphing_basis_vector_5'> +7.0427573e-05 </wgt>
</rwgt>
</event>
<event>
 4      1 +7.3133000e-09 2.82157700e+03 7.81860800e-03 7.79889200e-02
        2 -1    0    0  501    0 +0.0000000000e+00 +0.0000000000e+00 +2.5945817533e+03 2.5945817533e+03 0.0000000000e+00 0.0000e+00 -1.0000e+00
       -2 -1    0    0    0  501 -0.0000000000e+00 -0.0000000000e+00 -7.6710791389e+02 7.6710791389e+02 0.0000000000e+00 0.0000e+00 1.0000e+00
      -13  1    1    2    0    0 -6.2134090228e+01 +4.1944509203e+02 -6.8939218529e+02 8.0935555570e+02 0.0000000000e+00 0.0000e+00 1.0000e+00
       13  1    1    2    0    0 +6.2134090228e+01 -4.1944509203e+02 +2.5168660247e+03 2.5523341115e+03 0.0000000000e+00 0.0000e+00 -1.0000e+00
<mgrwt>
<rscale>  0 0.28215770E+04</rscale>
<asrwt>0</asrwt>
<pdfrwt beam="1">  1        2 0.39916642E+00 0.28215770E+04</pdfrwt>
<pdfrwt beam="2">  1       -2 0.11801660E+00 0.28215770E+04</pdfrwt>
<totfact> 0.18177766E+00</totfact>
</mgrwt>
<rwgt>
<wgt id='morphing_basis_vector_1'> +6.3648857e-05 </wgt>
<wgt id='morphing_basis_vector_2'> +4.2860432e-05 </wgt>
<wgt id='morphing_basis_vector_3'> +6.9202921e-05 </wgt>
<wgt id='morphing_basis_vector_4'> +4.9319534e-05 </wgt>
<wgt id='morphing_basis_vector_5'> +7.8610077e-05 </wgt>
</rwgt>
</event>
<event>
 4      1 +7.3133000e-09 2.67814200e+03 7.81860800e-03 7.83904300e-02
        2 -1    0    0  501    0 +0.0000000000e+00 +0.0000000000e+00 +2.3213719248e+03 2.3213719248e+03 0.0000000000e+00 0.0000e+00 1.0000e+00
       -2 -1    0    0    0  501 -0.0000000000e+00 -0.0000000000e+00 -7.7243582033e+02 7.7243582033e+02 0.0000000000e+00 0.0000e+00 -1.0000e+00
      -13  1    1    2    0    0 -1.0302414975e+03 -6.0943811130e+02 +8.1056662969e+01 1.1997426963e+03 0.0000000000e+00 0.0000e+00 -1.0000e+00
       13  1    1    2    0    0 +1.0302414975e+03 +6.0943811130e+02 +1.4678794415e+03 1.8940650489e+03 0.0000000000e+00 0.0000e+00 1.0000e+00
<mgrwt>
<rscale>  0 0.26781418E+04</rscale>
<asrwt>0</asrwt>
<pdfrwt beam="1">  1        2 0.35713414E+00 0.26781418E+04</pdfrwt>
<pdfrwt beam="2">  1       -2 0.11883628E+00 0.26781418E+04</pdfrwt>
<totfact> 0.26254961E+00</totfact>
</mgrwt>
<rwgt>
<wgt id='morphing_basis_vector_1'> +5.2076937e-05 </wgt>
<wgt id='morphing_basis_vector_2'> +3.5703979e-05 </wgt>
<wgt id='morphing_basis_vector_3'> +5.6640633e-05 </wgt>
<wgt id='morphing_basis_vector_4'> +3.9325135e-05 </wgt>
<wgt id='morphing_basis_vector_5'> +6.3612430e-05 </wgt>
</rwgt>
</event>
<event>
 4      1 +7.3133000e-09 2.74579900e+03 7.81860800e-03 7.81979400e-02
        2 -1    0    0  501    0 +0.0000000000e+00 +0.0000000000e+00 +1.1581249916e+03 1.1581249916e+03 0.0000000000e+00 0.0000e+00 1.0000e+00
       -2 -1    0    0    0  501 -0.0000000000e+00 -0.0000000000e+00 -1.6275035792e+03 1.6275035792e+03 0.0000000000e+00 0.0000e+00 -1.0000e+00
      -13  1    1    2    0    0 -3.3379568066e+02 -1.3130447606e+03 -4.6005226588e+02 1.4307879603e+03 0.0000000000e+00 0.0000e+00 -1.0000e+00
       13  1    1    2    0    0 +3.3379568066e+02 +1.3130447606e+03 -9.3263217286e+00 1.3548406106e+03 0.0000000000e+00 0.0000e+00 1.0000e+00
<mgrwt>
<rscale>  0 0.27457987E+04</rscale>
<asrwt>0</asrwt>
<pdfrwt beam="1">  1        2 0.17817308E+00 0.27457987E+04</pdfrwt>
<pdfrwt beam="2">  1       -2 0.25038516E+00 0.27457987E+04</pdfrwt>
<totfact> 0.11423075E+00</totfact>
</mgrwt>
<rwgt>
<wgt id='morphing_basis_vector_1'> +5.8292103e-05 </wgt>
<wgt id='morphing_basis_vector_2'> +4.1830530e-05 </wgt>
<wgt id='morphing_basis_vector_3'> +6.3840264e-05 </wgt>
<wgt id='morphing_basis_vector_4'> +4.1815745e-05 </wgt>
<wgt id='morphing_basis_vector_5'> +7.0226959e-05 </wgt>
</rwgt>
</event>
<event>
 4      1 +7.3133000e-09 2.92480400e+03 7.81860800e-03 7.77146600e-02
        2 -1    0    0  501    0 +0.0000000000e+00 +0.0000000000e+00 +1.2905115272e+03 1.2905115272e+03 0.0000000000e+00 0.0000e+00 1.0000e+00
       -2 -1    0    0    0  501 -0.0000000000e+00 -0.0000000000e+00 -1.6571873950e+03 1.6571873950e+03 0.0000000000e+00 0.0000e+00 -1.0000e+00
      -13  1    1    2    0    0 -1.3992289988e+03 -1.3792457297e+02 -5.8867330208e+02 1.5242707225e+03 0.0000000000e+00 0.0000e+00 -1.0000e+00
       13  1    1    2    0    0 +1.3992289988e+03 +1.3792457297e+02 +2.2199743422e+02 1.4234281997e+03 0.0000000000e+00 0.0000e+00 1.0000e+00
<mgrwt>
<rscale>  0 0.29248039E+04</rscale>
<asrwt>0</asrwt>
<pdfrwt beam="1">  1        2 0.19854024E+00 0.29248039E+04</pdfrwt>
<pdfrwt beam="2">  1       -2 0.25495191E+00 0.29248039E+04</pdfrwt>
<totfact> 0.87641292E-01</totfact>
</mgrwt>
<rwgt>
<wgt id='morphing_basis_vector_1'> +7.4314572e-05 </wgt>
<wgt id='morphing_basis_vector_2'> +5.2202590e-05 </wgt>
<wgt id='morphing_basis_vector_3'> +8.1345612e-05 </wgt>
<wgt id='morphing_basis_vector_4'> +5.5082827e-05 </wgt>
<wgt id='morphing_basis_vector_5'> +9.0727975e-05 </wgt>
</rwgt>
</event>
<event>
 4      1 +7.3133000e-09 2.72309800e+03 7.81860800e-03 7.82618900e-02
        2 -1    0    0  501    0 +0.0000000000e+00 +0.0000000000e+00 +1.4398323573e+03 1.4398323573e+03 0.0000000000e+00 0.0000e+00 -1.0000e+00
       -2 -1    0    0    0  501 -0.0000000000e+00 -0.0000000000e+00 -1.2875216339e+03 1.2875216339e+03 0.0000000000e+00 0.0000e+00 1.0000e+00
      -13  1    1    2    0    0 +1.4966257457e+01 +1.3334923078e+03 -1.9884543956e+02 1.3483194105e+03 0.0000000000e+00 0.0000e+00 1.0000e+00
       13  1    1    2    0    0 -1.4966257457e+01 -1.3334923078e+03 +3.5115616296e+02 1.3790345807e+03 0.0000000000e+00 0.0000e+00 -1.0000e+00
<mgrwt>
<rscale>  0 0.27230977E+04</rscale>
<asrwt>0</asrwt>
<pdfrwt beam="1">  1        2 0.22151267E+00 0.27230977E+04</pdfrwt>
<pdfrwt beam="2">  1       -2 0.19808025E+00 0.27230977E+04</pdfrwt>
<totfact> 0.18514477E+00</totfact>
</mgrwt>
<rwgt>
<wgt id='morphing_basis_vector_1'> +5.6247714e-05 </wgt>
<wgt id='morphing_basis_vector_2'> +3.9996967e-05 </wgt>
<wgt id='morphing_basis_vector_3'> +6.1506661e-05 </wgt>
<wgt id='morphing_basis_vector_4'> +4.0768387e-05 </wgt>
<wgt id='morphing_basis_vector_5'> +6.7936345e-05 </wgt>
</rwgt>
</event>
<event>
 4      1 +7.3133000e-09 2.73697600e+03 7.81860800e-03 7.82227200e-02
        2 -1    0    0  501    0 +0.0000000000e+00 +0.0000000000e+00 +2.8827802954e+03 2.8827802954e+03 0.0000000000e+00 0.0000e+00 -1.0000e+00
       -2 -1    0    0    0  501 -0.0000000000e+00 -0.0000000000e+00 -6.4963667772e+02 6.4963667772e+02 0.0000000000e+00 0.0000e+00 1.0000e+00
      -13  1    1    2    0    0 -4.8381462876e+02 +1.2468372427e+03 +7.4233408831e+02 1.5296207384e+03 0.0000000000e+00 0.0000e+00 1.0000e+00
       13  1    1    2    0    0 +4.8381462876e+02 -1.2468372427e+03 +1.4908095294e+03 2.0027962347e+03 0.0000000000e+00 0.0000e+00 -1.0000e+00
<mgrwt>
<rscale>  0 0.27369763E+04</rscale>
<asrwt>0</asrwt>
<pdfrwt beam="1">  1        2 0.44350465E+00 0.27369763E+04</pdfrwt>
<pdfrwt beam="2">  1       -2 0.99944106E-01 0.27369763E+04</pdfrwt>
<totfact> 0.18366766E+00</totfact>
</mgrwt>
<rwgt>
<wgt id='morphing_basis_vector_1'> +5.7351798e-05 </wgt>
<wgt id='morphing_basis_vector_2'> +4.0700527e-05 </wgt>
<wgt id='morphing_basis_vector_3'> +6.2710098e-05 </wgt>
<wgt id='morphing_basis_vector_4'> +4.1694540e-05 </wgt>
<wgt id='morphing_basis_vector_5'> +6.9353519e-05 </wgt>
</rwgt>
</event>
<event>
 4      1 +7.3133000e-09 2.92567100e+03 7.81860800e-03 7.77124000e-02
        2 -1    0    0  501    0 +0.0000000000e+00 +0.0000000000e+00 +2.1869110895e+03 2.1869110895e+03 0.0000000000e+00 0.0000e+00 -1.0000e+00
       -2 -1    0    0    0  501 -0.0000000000e+00 -0.0000000000e+00 -9.7849769122e+02 9.7849769122e+02 0.0000000000e+00 0.0000e+00 1.0000e+00
      -13  1    1    2    0    0 -1.2921258429e+03 +4.4678401356e+02 +4.1302779569e+01 1.3678125121e+03 0.0000000000e+00 0.0000e+00 1.0000e+00
       13  1    1    2    0    0 +1.2921258429e+03 -4.4678401356e+02 +1.1671106187e+03 1.7975962686e+03 0.0000000000e+00 0.0000e+00 -1.0000e+00
<mgrwt>
<rscale>  0 0.29256708E+04</rscale>
<asrwt>0</asrwt>
<pdfrwt beam="1">  1        2 0.33644786E+00 0.29256708E+04</pdfrwt>
<pdfrwt beam="2">  1       -2 0.15053811E+00 0.29256708E+04</pdfrwt>
<totfact> 0.16173576E+00</totfact>
</mgrwt>
<rwgt>
<wgt id='morphing_basis_vector_1'> +7.4127063e-05 </wgt>
<wgt id='morphing_basis_vector_2'> +5.1454694e-05 </wgt>
<wgt id='morphing_basis_vector_3'> +8.1013187e-05 </wgt>
<wgt id='morphing_basis_vector_4'> +5.5719883e-05 </wgt>
<wgt id='morphing_basis_vector_5'> +9.0883457e-05 </wgt>
</rwgt>
</event>
<event>
 4      1 +7.3133000e-09 3.00589500e+03 7.81860800e-03 7.75071500e-02
        2 -1    0    0  501    0 +0.0000000000e+00 +0.0000000000e+00 +1.8819439881e+03 1.8819439881e+03 0.0000000000e+00 0.0000e+00 -1.0000e+00
       -2 -1    0    0    0  501 -0.0000000000e+00 -0.0000000000e+00 -1.2002757130e+03 1.2002757130e+03 0.0000000000e+00 0.0000e+00 1.0000e+00
      -13  1    1    2    0    0 -1.0384791062e+03 -1.1427491019e+02 -7.6704156618e+02 1.2960904187e+03 0.0000000000e+00 0.0000e+00 1.0000e+00
       13  1    1    2    0    0 +1.0384791062e+03 +1.1427491019e+02 +1.4487098413e+03 1.7861292824e+03 0.0000000000e+00 0.0000e+00 -1.0000e+00
<mgrwt>
<rscale>  0 0.30058953E+04</rscale>
<asrwt>0</asrwt>
<pdfrwt beam="1">  1        2 0.28952984E+00 0.30058953E+04</pdfrwt>
<pdfrwt beam="2">  1       -2 0.18465780E+00 0.30058953E+04</pdfrwt>
<totfact> 0.12885750E+00</totfact>
</mgrwt>
<rwgt>
<wgt id='morphing_basis_vector_1'> +8.1869359e-05 </wgt>
<wgt id='morphing_basis_vector_2'> +5.5407823e-05 </wgt>
<wgt id='morphing_basis_vector_3'> +8.9256041e-05 </wgt>
<wgt id='morphing_basis_vector_4'> +6.3491572e-05 </wgt>
<wgt id='morphing_basis_vector_5'> +1.0147920e-04 </wgt>
</rwgt>
</event>
<event>
 4      1 +7.3133000e-09 2.71747800e+03 7.81860800e-03 7.82778200e-02
        2 -1    0    0  501    0 +0.0000000000e+00 +0.0000000000e+00 +2.0086272121e+03 2.0086272121e+03 0.0000000000e+00 0.0000e+00 1.0000e+00
       -2 -1    0    0    0  501 -0.0000000000e+00 -0.0000000000e+00 -9.1912099589e+02 9.1912099589e+02 0.0000000000e+00 0.0000e+00 -1.0000e+00
      -13  1    1    2    0    0 +2.2823155460e+02 -4.4142150283e+02 -8.1770457601e+02 9.5686120169e+02 0.0000000000e+00 0.0000e+00 -1.0000e+00
       13  1    1    2    0    0 -2.2823155460e+02 +4.4142150283e+02 +1.9072107922e+03 1.9708870063e+03 0.0000000000e+00 0.0000e+00 1.0000e+00
<mgrwt>
<rscale>  0 0.27174778E+04</rscale>
<asrwt>0</asrwt>
<pdfrwt beam="1">  1        2 0.30901957E+00 0.27174778E+04</pdfrwt>
<pdfrwt beam="2">  1       -2 0.14140323E+00 0.27174778E+04</pdfrwt>
<totfact> 0.24787302E+00</totfact>
</mgrwt>
<rwgt>
<wgt id='morphing_basis_vector_1'> +5.4852290e-05 </wgt>
<wgt id='morphing_basis_vector_2'> +3.6905475e-05 </wgt>
<wgt id='morphing_basis_vector_3'> +5.9551293e-05 </wgt>
<wgt id='morphing_basis_vector_4'> +4.2366154e-05 </wgt>
<wgt id='morphing_basis_vector_5'> +6.7529344e-05 </wgt>
</rwgt>
</event>
<event>
 4      1 +7.3133000e-09 3.18442200e+03 7.81860800e-03 7.70732400e-02
        2 -1    0    0  501    0 +0.0000000000e+00 +0.0000000000e+00 +1.6219268527e+03 1.6219268527e+03 0.0000000000e+00 0.0000e+00 -1.0000e+00
       -2 -1    0    0    0  501 -0.0000000000e+00 -0.0000000000e+00 -1.5630395119e+03 1.5630395119e+03 0.0000000000e+00 0.0000e+00 1.0000e+00
      -13  1    1    2    0    0 +2.6395727963e+01 -1.4763784903e+03 -5.6626337673e+02 1.5814690616e+03 0.0000000000e+00 0.0000e+00 1.0000e+00
       13  1    1    2    0    0 -2.6395727963e+01 +1.4763784903e+03 +6.2515071756e+02 1.6034973030e+03 0.0000000000e+00 0.0000e+00 -1.0000e+00
<mgrwt>
<rscale>  0 0.31844219E+04</rscale>
<asrwt>0</asrwt>
<pdfrwt beam="1">  1        2 0.24952721E+00 0.31844219E+04</pdfrwt>
<pdfrwt beam="2">  1       -2 0.24046762E+00 0.31844219E+04</pdfrwt>
<totfact> 0.70322868E-01</totfact>
</mgrwt>
<rwgt>
<wgt id='morphing_basis_vector_1'> +1.0365697e-04 </wgt>
<wgt id='morphing_basis_vector_2'> +7.1909783e-05 </wgt>
<wgt id='morphing_basis_vector_3'> +1.1357390e-04 </wgt>
<wgt id='morphing_basis_vector_4'> +7.8578358e-05 </wgt>
<wgt id='morphing_basis_vector_5'> +1.2794007e-04 </wgt>
</rwgt>
</event>
<event>
 4      1 +7.3133000e-09 2.88531200e+03 7.81860800e-03 7.78182100e-02
        2 -1    0    0  501    0 +0.0000000000e+00 +0.0000000000e+00 +3.7820257360e+03 3.7820257360e+03 0.0000000000e+00 0.0000e+00 -1.0000e+00
       -2 -1    0    0    0  501 -0.0000000000e+00 -0.0000000000e+00 -5.5030205417e+02 5.5030205417e+02 0.0000000000e+00 0.0000e+00 1.0000e+00
      -13  1    1    2    0    0 +1.3113291708e+03 +5.4738309375e+02 +1.2418557271e+03 1.8871719827e+03 0.0000000000e+00 0.0000e+00 1.0000e+00
       13  1    1    2    0    0 -1.3113291708e+03 -5.4738309375e+02 +1.9898679547e+03 2.4451558075e+03 0.0000000000e+00 0.0000e+00 -1.0000e+00
<mgrwt>
<rscale>  0 0.28853121E+04</rscale>
<asrwt>0</asrwt>
<pdfrwt beam="1">  1        2 0.58185010E+00 0.28853121E+04</pdfrwt>
<pdfrwt beam="2">  1       -2 0.84661857E-01 0.28853121E+04</pdfrwt>
<totfact> 0.62179724E-01</totfact>
</mgrwt>
<rwgt>
<wgt id='morphing_basis_vector_1'> +7.0871002e-05 </wgt>
<wgt id='morphing_basis_vector_2'> +5.0784583e-05 </wgt>
<wgt id='morphing_basis_vector_3'> +7.7746763e-05 </wgt>
<wgt id='morphing_basis_vector_4'> +5.1202071e-05 </wgt>
<wgt id='morphing_basis_vector_5'> +8.5805130e-05 </wgt>
</rwgt>
</event>
<event>
 4      1 +7.3133000e-09 2.69865500e+03 7.81860800e-03 7.83314600e-02
        2 -1    0    0  501    0 +0.0000000000e+00 +0.0000000000e+00 +1.3572767273e+03 1.3572767273e+03 0.0000000000e+00 0.0000e+00 -1.0000e+00
       -2 -1    0    0    0  501 -0.0000000000e+00 -0.0000000000e+00 -1.3414247041e+03 1.3414247041e+03 0.0000000000e+00 0.0000e+00 1.0000e+00
      -13  1    1    2    0    0 -1.3480283256e+03 +3.7412016998e+01 -3.7949681126e+01 1.3490812444e+03 0.0000000000e+00 0.0000e+00 1.0000e+00
       13  1    1    2    0    0 +1.3480283256e+03 -3.7412016998e+01 +5.3801704341e+01 1.3496201870e+03 0.0000000000e+00 0.0000e+00 -1.0000e+00
<mgrwt>
<rscale>  0 0.26986549E+04</rscale>
<asrwt>0</asrwt>
<pdfrwt beam="1">  1        2 0.20881180E+00 0.26986549E+04</pdfrwt>
<pdfrwt beam="2">  1       -2 0.20637303E+00 0.26986549E+04</pdfrwt>
<totfact> 0.17977998E+00</totfact>
</mgrwt>
<rwgt>
<wgt id='morphing_basis_vector_1'> +5.5092825e-05 </wgt>
<wgt id='morphing_basis_vector_2'> +4.0992724e-05 </wgt>
<wgt id='morphing_basis_vector_3'> +6.0588349e-05 </wgt>
<wgt id='morphing_basis_vector_4'> +3.7624886e-05 </wgt>
<wgt id='morphing_basis_vector_5'> +6.5366790e-05 </wgt>
</rwgt>
</event>
<event>
 4      1 +7.3133000e-09 2.67120300e+03 7.81860800e-03 7.84104900e-02
        2 -1    0    0  501    0 +0.0000000000e+00 +0.0000000000e+00 +9.0236152812e+02 9.0236152812e+02 0.0000000000e+00 0.0000e+00 1.0000e+00
       -2 -1    0    0    0  501 -0.0000000000e+00 -0.0000000000e+00 -1.9768482929e+03 1.9768482929e+03 0.0000000000e+00 0.0000e+00 -1.0000e+00
      -13  1    1    2    0    0 -3.4663819860e+02 -4.7767582928e+02 -1.8286645539e+03 1.9215478889e+03 0.0000000000e+00 0.0000e+00 -1.0000e+00
       13  1    1    2    0    0 +3.4663819860e+02 +4.7767582928e+02 +7.5417778914e+02 9.5766193212e+02 0.0000000000e+00 0.0000e+00 1.0000e+00
<mgrwt>
<rscale>  0 0.26712034E+04</rscale>
<asrwt>0</asrwt>
<pdfrwt beam="1">  1        2 0.13882485E+00 0.26712034E+04</pdfrwt>
<pdfrwt beam="2">  1       -2 0.30413050E+00 0.26712034E+04</pdfrwt>
<totfact> 0.71076477E-01</totfact>
</mgrwt>
<rwgt>
<wgt id='morphing_basis_vector_1'> +5.1253427e-05 </wgt>
<wgt id='morphing_basis_vector_2'> +3.4476171e-05 </wgt>
<wgt id='morphing_basis_vector_3'> +5.5606026e-05 </wgt>
<wgt id='morphing_basis_vector_4'> +3.9517097e-05 </wgt>
<wgt id='morphing_basis_vector_5'> +6.2997574e-05 </wgt>
</rwgt>
</event>
<event>
 4      1 +7.3133000e-09 2.73138900e+03 7.81860800e-03 7.82384600e-02
        2 -1    0    0  501    0 +0.0000000000e+00 +0.0000000000e+00 +3.5175117741e+03 3.5175117741e+03 0.0000000000e+00 0.0000e+00 1.0000e+00
       -2 -1    0    0    0  501 -0.0000000000e+00 -0.0000000000e+00 -5.3023880668e+02 5.3023880668e+02 0.0000000000e+00 0.0000e+00 -1.0000e+00
      -13  1    1    2    0    0 +7.9044092556e+01 -8.3590603052e+02 -1.0255269804e+02 8.4587464574e+02 0.0000000000e+00 0.0000e+00 -1.0000e+00
       13  1    1    2    0    0 -7.9044092556e+01 +8.3590603052e+02 +3.0898256655e+03 3.2018759350e+03 0.0000000000e+00 0.0000e+00 1.0000e+00
<mgrwt>
<rscale>  0 0.27313888E+04</rscale>
<asrwt>0</asrwt>
<pdfrwt beam="1">  1        2 0.54115564E+00 0.27313888E+04</pdfrwt>
<pdfrwt beam="2">  1       -2 0.81575203E-01 0.27313888E+04</pdfrwt>
<totfact> 0.10924409E+00</totfact>
</mgrwt>
<rwgt>
<wgt id='morphing_basis_vector_1'> +5.6000397e-05 </wgt>
<wgt id='morphing_basis_vector_2'> +3.7748566e-05 </wgt>
<wgt id='morphing_basis_vector_3'> +6.0823664e-05 </wgt>
<wgt id='morphing_basis_vector_4'> +4.3189993e-05 </wgt>
<wgt id='morphing_basis_vector_5'> +6.8933039e-05 </wgt>
</rwgt>
</event>
<event>
 4      1 +7.3133000e-09 2.76109700e+03 7.81860800e-03 7.81551900e-02
        2 -1    0    0  501    0 +0.0000000000e+00 +0.0000000000e+00 +3.8662288346e+03 3.8662288346e+03 0.0000000000e+00 0.0000e+00 1.0000e+00
       -2 -1    0    0    0  501 -0.0000000000e+00 -0.0000000000e+00 -4.9296471369e+02 4.9296471369e+02 0.0000000000e+00 0.0000e+00 -1.0000e+00
      -13  1    1    2    0    0 -3.4449366438e+02 +1.1969065184e+03 +7.4641861063e+02 1.4520336914e+03 0.0000000000e+00 0.0000e+00 -1.0000e+00
       13  1    1    2    0    0 +3.4449366438e+02 -1.1969065184e+03 +2.6268455103e+03 2.9071598569e+03 0.0000000000e+00 0.0000e+00 1.0000e+00
<mgrwt>
<rscale>  0 0.27610972E+04</rscale>
<asrwt>0</asrwt>
<pdfrwt beam="1">  1        2 0.59480442E+00 0.27610972E+04</pdfrwt>
<pdfrwt beam="2">  1       -2 0.75840728E-01 0.27610972E+04</pdfrwt>
<totfact> 0.69076690E-01</totfact>
</mgrwt>
<rwgt>
<wgt id='morphing_basis_vector_1'> +5.8785461e-05 </wgt>
<wgt id='morphing_basis_vector_2'> +4.0400694e-05 </wgt>
<wgt id='morphing_basis_vector_3'> +6.4031712e-05 </wgt>
<wgt id='morphing_basis_vector_4'> +4.4425010e-05 </wgt>
<wgt id='morphing_basis_vector_5'> +7.1957561e-05 </wgt>
</rwgt>
</event>
<event>
 4      1 +7.3133000e-09 2.72744300e+03 7.81860800e-03 7.82496000e-02
        2 -1    0    0  501    0 +0.0000000000e+00 +0.0000000000e+00 +2.2646402865e+03 2.2646402865e+03 0.0000000000e+00 0.0000e+00 -1.0000e+00
       -2 -1    0    0    0  501 -0.0000000000e+00 -0.0000000000e+00 -8.2120598417e+02 8.2120598417e+02 0.0000000000e+00 0.0000e+00 1.0000e+00
      -13  1    1    2    0    0 -7.9784056604e+02 -2.1847736339e+02 -5.0493517062e+02 9.6914470213e+02 0.0000000000e+00 0.0000e+00 1.0000e+00
       13  1    1    2    0    0 +7.9784056604e+02 +2.1847736339e+02 +1.9483694730e+03 2.1167015685e+03 0.0000000000e+00 0.0000e+00 -1.0000e+00
<mgrwt>
<rscale>  0 0.27274429E+04</rscale>
<asrwt>0</asrwt>
<pdfrwt beam="1">  1        2 0.34840619E+00 0.27274429E+04</pdfrwt>
<pdfrwt beam="2">  1       -2 0.12633938E+00 0.27274429E+04</pdfrwt>
<totfact> 0.24026756E+00</totfact>
</mgrwt>
<rwgt>
<wgt id='morphing_basis_vector_1'> +5.5678939e-05 </wgt>
<wgt id='morphing_basis_vector_2'> +3.7525755e-05 </wgt>
<wgt id='morphing_basis_vector_3'> +6.0470018e-05 </wgt>
<wgt id='morphing_basis_vector_4'> +4.2942647e-05 </wgt>
<wgt id='morphing_basis_vector_5'> +6.8531659e-05 </wgt>
</rwgt>
</event>
<event>
 4      1 +7.3133000e-09 2.91315100e+03 7.81860800e-03 7.77450400e-02
        2 -1    0    0  501    0 +0.0000000000e+00 +0.0000000000e+00 +1.7200971188e+03 1.7200971188e+03 0.0000000000e+00 0.0000e+00 1.0000e+00
       -2 -1    0    0    0  501 -0.0000000000e+00 -0.0000000000e+00 -1.2334256727e+03 1.2334256727e+03 0.0000000000e+00 0.0000e+00 -1.0000e+00
      -13  1    1    2    0    0 +2.6156530850e+02 +6.0416047420e+02 -1.0739726669e+03 1.2596997970e+03 0.0000000000e+00 0.0000e+00 -1.0000e+00
       13  1    1    2    0    0 -2.6156530850e+02 -6.0416047420e+02 +1.5606441130e+03 1.6938229945e+03 0.0000000000e+00 0.0000e+00 1.0000e+00
<mgrwt>
<rscale>  0 0.29131508E+04</rscale>
<asrwt>0</asrwt>
<pdfrwt beam="1">  1        2 0.26463032E+00 0.29131508E+04</pdfrwt>
<pdfrwt beam="2">  1       -2 0.18975780E+00 0.29131508E+04</pdfrwt>
<totfact> 0.14641775E+00</totfact>
</mgrwt>
<rwgt>
<wgt id='morphing_basis_vector_1'> +7.2238960e-05 </wgt>
<wgt id='morphing_basis_vector_2'> +4.8699751e-05 </wgt>
<wgt id='morphing_basis_vector_3'> +7.8638679e-05 </wgt>
<wgt id='morphing_basis_vector_4'> +5.6091888e-05 </wgt>
<wgt id='morphing_basis_vector_5'> +8.9432364e-05 </wgt>
</rwgt>
</event>
<event>
 4      1 +7.3133000e-09 2.85413100e+03 7.81860800e-03 7.79011600e-02
        2 -1    0    0  501    0 +0.0000000000e+00 +0.0000000000e+00 +1.9340830284e+03 1.9340830284e+03 0.0000000000e+00 0.0000e+00 1.0000e+00
       -2 -1    0    0    0  501 -0.0000000000e+00 -0.0000000000e+00 -1.0529620536e+03 1.0529620536e+03 0.0000000000e+00 0.0000e+00 -1.0000e+00
      -13  1    1    2    0    0 +8.8896130432e+02 +9.5798678849e+02 -1.5930265110e+02 1.3165744271e+03 0.0000000000e+00 0.0000e+00 -1.0000e+00
       13  1    1    2    0    0 -8.8896130432e+02 -9.5798678849e+02 +1.0404236259e+03 1.6704706549e+03 0.0000000000e+00 0.0000e+00 1.0000e+00
<mgrwt>
<rscale>  0 0.28541311E+04</rscale>
<asrwt>0</asrwt>
<pdfrwt beam="1">  1        2 0.29755123E+00 0.28541311E+04</pdfrwt>
<pdfrwt beam="2">  1       -2 0.16199416E+00 0.28541311E+04</pdfrwt>
<totfact> 0.18263088E+00</totfact>
</mgrwt>
<rwgt>
<wgt id='morphing_basis_vector_1'> +6.7089893e-05 </wgt>
<wgt id='morphing_basis_vector_2'> +4.6288789e-05 </wgt>
<wgt id='morphing_basis_vector_3'> +7.3201923e-05 </wgt>
<wgt id='morphing_basis_vector_4'> +5.0655565e-05 </wgt>
<wgt id='morphing_basis_vector_5'> +8.2256527e-05 </wgt>
</rwgt>
</event>
<event>
 4      1 +7.3133000e-09 2.73403900e+03 7.81860800e-03 7.82309900e-02
        2 -1    0    0  501    0 +0.0000000000e+00 +0.0000000000e+00 +1.9476505644e+03 1.9476505644e+03 0.0000000000e+00 0.0000e+00 1.0000e+00
       -2 -1    0    0    0  501 -0.0000000000e+00 -0.0000000000e+00 -9.5948531846e+02 9.5948531846e+02 0.0000000000e+00 0.0000e+00 -1.0000e+00
      -13  1    1    2    0    0 +1.2629695671e+03 -3.9022451499e+02 +1.2363658643e+02 1.3276495415e+03 0.0000000000e+00 0.0000e+00 -1.0000e+00
       13  1    1    2    0    0 -1.2629695671e+03 +3.9022451499e+02 +8.6452865956e+02 1.5794863414e+03 0.0000000000e+00 0.0000e+00 1.0000e+00
<mgrwt>
<rscale>  0 0.27340389E+04</rscale>
<asrwt>0</asrwt>
<pdfrwt beam="1">  1        2 0.29963855E+00 0.27340389E+04</pdfrwt>
<pdfrwt beam="2">  1       -2 0.14761313E+00 0.27340389E+04</pdfrwt>
<totfact> 0.23745797E+00</totfact>
</mgrwt>
<rwgt>
<wgt id='morphing_basis_vector_1'> +5.6960644e-05 </wgt>
<wgt id='morphing_basis_vector_2'> +4.0090649e-05 </wgt>
<wgt id='morphing_basis_vector_3'> +6.2212402e-05 </wgt>
<wgt id='morphing_basis_vector_4'> +4.1819896e-05 </wgt>
<wgt id='morphing_basis_vector_5'> +6.9078092e-05 </wgt>
</rwgt>
</event>
<event>
 4      1 +7.3133000e-09 2.74792400e+03 7.81860800e-03 7.81919800e-02
        2 -1    0    0  501    0 +0.0000000000e+00 +0.0000000000e+00 +3.2942088162e+03 3.2942088162e+03 0.0000000000e+00 0.0000e+00 1.0000e+00
       -2 -1    0    0    0  501 -0.0000000000e+00 -0.0000000000e+00 -5.7305750028e+02 5.7305750028e+02 0.0000000000e+00 0.0000e+00 -1.0000e+00
      -13  1    1    2    0    0 +7.2217789353e+02 -3.5160387344e+02 -2.0821844598e+02 8.2977172461e+02 0.0000000000e+00 0.0000e+00 -1.0000e+00
       13  1    1    2    0    0 -7.2217789353e+02 +3.5160387344e+02 +2.9293697619e+03 3.0374945918e+03 0.0000000000e+00 0.0000e+00 1.0000e+00
<mgrwt>
<rscale>  0 0.27479236E+04</rscale>
<asrwt>0</asrwt>
<pdfrwt beam="1">  1        2 0.50680135E+00 0.27479236E+04</pdfrwt>
<pdfrwt beam="2">  1       -2 0.88162694E-01 0.27479236E+04</pdfrwt>
<totfact> 0.13157563E+00</totfact>
</mgrwt>
<rwgt>
<wgt id='morphing_basis_vector_1'> +5.7346501e-05 </wgt>
<wgt id='morphing_basis_vector_2'> +3.8645507e-05 </wgt>
<wgt id='morphing_basis_vector_3'> +6.2297508e-05 </wgt>
<wgt id='morphing_basis_vector_4'> +4.4271368e-05 </wgt>
<wgt id='morphing_basis_vector_5'> +7.0636800e-05 </wgt>
</rwgt>
</event>
<event>
 4      1 +7.3133000e-09 2.74001200e+03 7.81860800e-03 7.82141800e-02
        2 -1    0    0  501    0 +0.0000000000e+00 +0.0000000000e+00 +3.5179493822e+03 3.5179493822e+03 0.0000000000e+00 0.0000e+00 1.0000e+00
       -2 -1    0    0    0  501 -0.0000000000e+00 -0.0000000000e+00 -5.3352553951e+02 5.3352553951e+02 0.0000000000e+00 0.0000e+00 -1.0000e+00
      -13  1    1    2    0    0 -7.4688355772e+02 +1.0644215017e+03 +2.1300633707e+03 2.4955957495e+03 0.0000000000e+00 0.0000e+00 -1.0000e+00
       13  1    1    2    0    0 +7.4688355772e+02 -1.0644215017e+03 +8.5436047201e+02 1.5558791721e+03 0.0000000000e+00 0.0000e+00 1.0000e+00
<mgrwt>
<rscale>  0 0.27400116E+04</rscale>
<asrwt>0</asrwt>
<pdfrwt beam="1">  1        2 0.54122297E+00 0.27400116E+04</pdfrwt>
<pdfrwt beam="2">  1       -2 0.82080854E-01 0.27400116E+04</pdfrwt>
<totfact> 0.10755200E+00</totfact>
</mgrwt>
<rwgt>
<wgt id='morphing_basis_vector_1'> +6.2723046e-05 </wgt>
<wgt id='morphing_basis_vector_2'> +5.5970245e-05 </wgt>
<wgt id='morphing_basis_vector_3'> +7.0910767e-05 </wgt>
<wgt id='morphing_basis_vector_4'> +3.1299548e-05 </wgt>
<wgt id='morphing_basis_vector_5'> +6.8800713e-05 </wgt>
</rwgt>
</event>
<event>
 4      1 +7.3133000e-09 2.80559300e+03 7.81860800e-03 7.80324500e-02
        2 -1    0    0  501    0 +0.0000000000e+00 +0.0000000000e+00 +1.7772642613e+03 1.7772642613e+03 0.0000000000e+00 0.0000e+00 -1.0000e+00
       -2 -1    0    0    0  501 -0.0000000000e+00 -0.0000000000e+00 -1.1072288734e+03 1.1072288734e+03 0.0000000000e+00 0.0000e+00 1.0000e+00
      -13  1    1    2    0    0 +9.6891181757e+02 -5.5291193945e+02 -5.3939212123e+02 1.2391309791e+03 0.0000000000e+00 0.0000e+00 1.0000e+00
       13  1    1    2    0    0 -9.6891181757e+02 +5.5291193945e+02 +1.2094275092e+03 1.6453621555e+03 0.0000000000e+00 0.0000e+00 -1.0000e+00
<mgrwt>
<rscale>  0 0.28055932E+04</rscale>
<asrwt>0</asrwt>
<pdfrwt beam="1">  1        2 0.27342527E+00 0.28055932E+04</pdfrwt>
<pdfrwt beam="2">  1       -2 0.17034290E+00 0.28055932E+04</pdfrwt>
<totfact> 0.19290522E+00</totfact>
</mgrwt>
<rwgt>
<wgt id='morphing_basis_vector_1'> +6.2383311e-05 </wgt>
<wgt id='morphing_basis_vector_2'> +4.2343224e-05 </wgt>
<wgt id='morphing_basis_vector_3'> +6.7882014e-05 </wgt>
<wgt id='morphing_basis_vector_4'> +4.7890176e-05 </wgt>
<wgt id='morphing_basis_vector_5'> +7.6800886e-05 </wgt>
</rwgt>
</event>
<event>
 4      1 +7.3133000e-09 2.72281900e+03 7.81860800e-03 7.82626800e-02
        2 -1    0    0  501    0 +0.0000000000e+00 +0.0000000000e+00 +7.9739344262e+02 7.9739344262e+02 0.0000000000e+00 0.0000e+00 -1.0000e+00
       -2 -1    0    0    0  501 -0.0000000000e+00 -0.0000000000e+00 -2.3243686038e+03 2.3243686038e+03 0.0000000000e+00 0.0000e+00 1.0000e+00
      -13  1    1    2    0    0 -1.1901106782e+03 -2.2949145738e+02 -1.4743349280e+03 1.9085840918e+03 0.0000000000e+00 0.0000e+00 1.0000e+00
       13  1    1    2    0    0 +1.1901106782e+03 +2.2949145738e+02 -5.2640233178e+01 1.2131779546e+03 0.0000000000e+00 0.0000e+00 -1.0000e+00
<mgrwt>
<rscale>  0 0.27228193E+04</rscale>
<asrwt>0</asrwt>
<pdfrwt beam="1">  1        2 0.12267592E+00 0.27228193E+04</pdfrwt>
<pdfrwt beam="2">  1       -2 0.35759517E+00 0.27228193E+04</pdfrwt>
<totfact> 0.36926200E-01</totfact>
</mgrwt>
<rwgt>
<wgt id='morphing_basis_vector_1'> +5.5587620e-05 </wgt>
<wgt id='morphing_basis_vector_2'> +3.8101870e-05 </wgt>
<wgt id='morphing_basis_vector_3'> +6.0496062e-05 </wgt>
<wgt id='morphing_basis_vector_4'> +4.2068317e-05 </wgt>
<wgt id='morphing_basis_vector_5'> +6.8015758e-05 </wgt>
</rwgt>
</event>
<event>
 4      1 +7.3133000e-09 3.04046200e+03 7.81860800e-03 7.74207400e-02
        2 -1    0    0  501    0 +0.0000000000e+00 +0.0000000000e+00 +2.1656839119e+03 2.1656839119e+03 0.0000000000e+00 0.0000e+00 -1.0000e+00
       -2 -1    0    0    0  501 -0.0000000000e+00 -0.0000000000e+00 -1.0671466405e+03 1.0671466405e+03 0.0000000000e+00 0.0000e+00 1.0000e+00
      -13  1    1    2    0    0 +1.3791976792e+03 +4.2848843457e+01 -1.2912735001e+02 1.3858918191e+03 0.0000000000e+00 0.0000e+00 1.0000e+00
       13  1    1    2    0    0 -1.3791976792e+03 -4.2848843457e+01 +1.2276646214e+03 1.8469387332e+03 0.0000000000e+00 0.0000e+00 -1.0000e+00
<mgrwt>
<rscale>  0 0.30404620E+04</rscale>
<asrwt>0</asrwt>
<pdfrwt beam="1">  1        2 0.33318214E+00 0.30404620E+04</pdfrwt>
<pdfrwt beam="2">  1       -2 0.16417641E+00 0.30404620E+04</pdfrwt>
<totfact> 0.12779314E+00</totfact>
</mgrwt>
<rwgt>
<wgt id='morphing_basis_vector_1'> +8.6144999e-05 </wgt>
<wgt id='morphing_basis_vector_2'> +5.9402745e-05 </wgt>
<wgt id='morphing_basis_vector_3'> +9.4181798e-05 </wgt>
<wgt id='morphing_basis_vector_4'> +6.5489696e-05 </wgt>
<wgt id='morphing_basis_vector_5'> +1.0618844e-04 </wgt>
</rwgt>
</event>
<event>
 4      1 +7.3133000e-09 2.93221100e+03 7.81860800e-03 7.76954200e-02
        2 -1    0    0  501    0 +0.0000000000e+00 +0.0000000000e+00 +1.9964281879e+03 1.9964281879e+03 0.0000000000e+00 0.0000e+00 1.0000e+00
       -2 -1    0    0    0  501 -0.0000000000e+00 -0.0000000000e+00 -1.0766554013e+03 1.0766554013e+03 0.0000000000e+00 0.0000e+00 -1.0000e+00
      -13  1    1    2    0    0 -1.2476497631e+02 +1.1520846378e+03 -4.8137066501e+02 1.2548239036e+03 0.0000000000e+00 0.0000e+00 -1.0000e+00
       13  1    1    2    0    0 +1.2476497631e+02 -1.1520846378e+03 +1.4011434517e+03 1.8182596856e+03 0.0000000000e+00 0.0000e+00 1.0000e+00
<mgrwt>
<rscale>  0 0.29322109E+04</rscale>
<asrwt>0</asrwt>
<pdfrwt beam="1">  1        2 0.30714280E+00 0.29322109E+04</pdfrwt>
<pdfrwt beam="2">  1       -2 0.16563929E+00 0.29322109E+04</pdfrwt>
<totfact> 0.15662595E+00</totfact>
</mgrwt>
<rwgt>
<wgt id='morphing_basis_vector_1'> +7.4293111e-05 </wgt>
<wgt id='morphing_basis_vector_2'> +5.0463235e-05 </wgt>
<wgt id='morphing_basis_vector_3'> +8.0970670e-05 </wgt>
<wgt id='morphing_basis_vector_4'> +5.7248297e-05 </wgt>
<wgt id='morphing_basis_vector_5'> +9.1790464e-05 </wgt>
</rwgt>
</event>
<event>
 4      1 +7.3133000e-09 2.92694500e+03 7.81860800e-03 7.77090900e-02
        2 -1    0    0  501    0 +0.0000000000e+00 +0.0000000000e+00 +1.6510051588e+03 1.6510051588e+03 0.0000000000e+00 0.0000e+00 -1.0000e+00
       -2 -1    0    0    0  501 -0.0000000000e+00 -0.0000000000e+00 -1.2972407443e+03 1.2972407443e+03 0.0000000000e+00 0.0000e+00 1.0000e+00
      -13  1    1    2    0    0 -4.9628903192e+02 +4.4483367059e+02 -1.1355087303e+03 1.3166472095e+03 0.0000000000e+00 0.0000e+00 1.0000e+00
       13  1    1    2    0    0 +4.9628903192e+02 -4.4483367059e+02 +1.4892731447e+03 1.6315986937e+03 0.0000000000e+00 0.0000e+00 -1.0000e+00
<mgrwt>
<rscale>  0 0.29269446E+04</rscale>
<asrwt>0</asrwt>
<pdfrwt beam="1">  1        2 0.25400079E+00 0.29269446E+04</pdfrwt>
<pdfrwt beam="2">  1       -2 0.19957550E+00 0.29269446E+04</pdfrwt>
<totfact> 0.13523126E+00</totfact>
</mgrwt>
<rwgt>
<wgt id='morphing_basis_vector_1'> +7.3603929e-05 </wgt>
<wgt id='morphing_basis_vector_2'> +4.9626060e-05 </wgt>
<wgt id='morphing_basis_vector_3'> +8.0138166e-05 </wgt>
<wgt id='morphing_basis_vector_4'> +5.7170978e-05 </wgt>
<wgt id='morphing_basis_vector_5'> +9.1154336e-05 </wgt>
</rwgt>
</event>
<event>
 4      1 +7.3133000e-09 2.71085000e+03 7.81860800e-03 7.82966600e-02
        2 -1    0    0  501    0 +0.0000000000e+00 +0.0000000000e+00 +9.8046885221e+02 9.8046885221e+02 0.0000000000e+00 0.0000e+00 -1.0000e+00
       -2 -1    0    0    0  501 -0.0000000000e+00 -0.0000000000e+00 -1.8737736851e+03 1.8737736851e+03 0.0000000000e+00 0.0000e+00 1.0000e+00
      -13  1    1    2    0    0 -2.4174015247e+01 +1.2725790755e+03 -9.3727798177e+02 1.5806745084e+03 0.0000000000e+00 0.0000e+00 1.0000e+00
       13  1    1    2    0    0 +2.4174015247e+01 -1.2725790755e+03 +4.3973148892e+01 1.2735680289e+03 0.0000000000e+00 0.0000e+00 -1.0000e+00
<mgrwt>
<rscale>  0 0.27108499E+04</rscale>
<asrwt>0</asrwt>
<pdfrwt beam="1">  1        2 0.15084136E+00 0.27108499E+04</pdfrwt>
<pdfrwt beam="2">  1       -2 0.28827287E+00 0.27108499E+04</pdfrwt>
<totfact> 0.80806828E-01</totfact>
</mgrwt>
<rwgt>
<wgt id='morphing_basis_vector_1'> +5.4836283e-05 </wgt>
<wgt id='morphing_basis_vector_2'> +3.8055687e-05 </wgt>
<wgt id='morphing_basis_vector_3'> +5.9762997e-05 </wgt>
<wgt id='morphing_basis_vector_4'> +4.0894051e-05 </wgt>
<wgt id='morphing_basis_vector_5'> +6.6779676e-05 </wgt>
</rwgt>
</event>
<event>
 4      1 +7.3133000e-09 3.20824100e+03 7.81860800e-03 7.70175700e-02
        2 -1    0    0  501    0 +0.0000000000e+00 +0.0000000000e+00 +2.7850420503e+03 2.7850420503e+03 0.0000000000e+00 0.0000e+00 1.0000e+00
       -2 -1    0    0    0  501 -0.0000000000e+00 -0.0000000000e+00 -9.2393675653e+02 9.2393675653e+02 0.0000000000e+00 0.0000e+00 -1.0000e+00
      -13  1    1    2    0    0 +7.5398198648e+02 +2.4569022683e+02 +2.5425881387e+03 2.6633826174e+03 0.0000000000e+00 0.0000e+00 1.0000e+00
       13  1    1    2    0    0 -7.5398198648e+02 -2.4569022683e+02 -6.8148284492e+02 1.0455961895e+03 0.0000000000e+00 0.0000e+00 -1.0000e+00
<mgrwt>
<rscale>  0 0.32082411E+04</rscale>
<asrwt>0</asrwt>
<pdfrwt beam="1">  1        2 0.42846801E+00 0.32082411E+04</pdfrwt>
<pdfrwt beam="2">  1       -2 0.14214412E+00 0.32082411E+04</pdfrwt>
<totfact> 0.81600863E-01</totfact>
</mgrwt>
<rwgt>
<wgt id='morphing_basis_vector_1'> +1.4347608e-04 </wgt>
<wgt id='morphing_basis_vector_2'> +1.8212819e-04 </wgt>
<wgt id='morphing_basis_vector_3'> +1.7487680e-04 </wgt>
<wgt id='morphing_basis_vector_4'> +4.1974279e-06 </wgt>
<wgt id='morphing_basis_vector_5'> +1.2550688e-04 </wgt>
</rwgt>
</event>
<event>
 4      1 +7.3133000e-09 2.77269900e+03 7.81860800e-03 7.81229600e-02
        2 -1    0    0  501    0 +0.0000000000e+00 +0.0000000000e+00 +1.1998191083e+03 1.1998191083e+03 0.0000000000e+00 0.0000e+00 -1.0000e+00
       -2 -1    0    0    0  501 -0.0000000000e+00 -0.0000000000e+00 -1.6018792641e+03 1.6018792641e+03 0.0000000000e+00 0.0000e+00 1.0000e+00
      -13  1    1    2    0    0 -5.8165046279e+02 -1.1180861688e+03 -7.8459203742e+02 1.4845937515e+03 0.0000000000e+00 0.0000e+00 1.0000e+00
       13  1    1    2    0    0 +5.8165046279e+02 +1.1180861688e+03 +3.8253188160e+02 1.3171046208e+03 0.0000000000e+00 0.0000e+00 -1.0000e+00
<mgrwt>
<rscale>  0 0.27726993E+04</rscale>
<asrwt>0</asrwt>
<pdfrwt beam="1">  1        2 0.18458755E+00 0.27726993E+04</pdfrwt>
<pdfrwt beam="2">  1       -2 0.24644296E+00 0.27726993E+04</pdfrwt>
<totfact> 0.11471103E+00</totfact>
</mgrwt>
<rwgt>
<wgt id='morphing_basis_vector_1'> +5.9796669e-05 </wgt>
<wgt id='morphing_basis_vector_2'> +4.1162187e-05 </wgt>
<wgt id='morphing_basis_vector_3'> +6.5156868e-05 </wgt>
<wgt id='morphing_basis_vector_4'> +4.5127043e-05 </wgt>
<wgt id='morphing_basis_vector_5'> +7.3182788e-05 </wgt>
</rwgt>
</event>
<event>
 4      1 +7.3133000e-09 2.67299100e+03 7.81860800e-03 7.84053200e-02
        2 -1    0    0  501    0 +0.0000000000e+00 +0.0000000000e+00 +1.1312210500e+03 1.1312210500e+03 0.0000000000e+00 0.0000e+00 1.0000e+00
       -2 -1    0    0    0  501 -0.0000000000e+00 -0.0000000000e+00 -1.5790198488e+03 1.5790198488e+03 0.0000000000e+00 0.0000e+00 -1.0000e+00
      -13  1    1    2    0    0 +1.0347359215e+02 +8.9781705415e+02 -1.2222209350e+03 1.5200678475e+03 0.0000000000e+00 0.0000e+00 -1.0000e+00
       13  1    1    2    0    0 -1.0347359215e+02 -8.9781705415e+02 +7.7442213623e+02 1.1901730513e+03 0.0000000000e+00 0.0000e+00 1.0000e+00
<mgrwt>
<rscale>  0 0.26729912E+04</rscale>
<asrwt>0</asrwt>
<pdfrwt beam="1">  1        2 0.17403401E+00 0.26729912E+04</pdfrwt>
<pdfrwt beam="2">  1       -2 0.24292613E+00 0.26729912E+04</pdfrwt>
<totfact> 0.13431290E+00</totfact>
</mgrwt>
<rwgt>
<wgt id='morphing_basis_vector_1'> +5.1431029e-05 </wgt>
<wgt id='morphing_basis_vector_2'> +3.4691435e-05 </wgt>
<wgt id='morphing_basis_vector_3'> +5.5819406e-05 </wgt>
<wgt id='morphing_basis_vector_4'> +3.9537898e-05 </wgt>
<wgt id='morphing_basis_vector_5'> +6.3161263e-05 </wgt>
</rwgt>
</event>
<event>
 4      1 +7.3133000e-09 2.80831000e+03 7.81860800e-03 7.80250300e-02
        2 -1    0    0  501    0 +0.0000000000e+00 +0.0000000000e+00 +1.5852829739e+03 1.5852829739e+03 0.0000000000e+00 0.0000e+00 -1.0000e+00
       -2 -1    0    0    0  501 -0.0000000000e+00 -0.0000000000e+00 -1.2437222530e+03 1.2437222530e+03 0.0000000000e+00 0.0000e+00 1.0000e+00
      -13  1    1    2    0    0 -1.1048081477e+03 -2.0209036883e+02 -6.7816959906e+02 1.3120044076e+03 0.0000000000e+00 0.0000e+00 1.0000e+00
       13  1    1    2    0    0 +1.1048081477e+03 +2.0209036883e+02 +1.0197303200e+03 1.5170008194e+03 0.0000000000e+00 0.0000e+00 -1.0000e+00
<mgrwt>
<rscale>  0 0.28083103E+04</rscale>
<asrwt>0</asrwt>
<pdfrwt beam="1">  1        2 0.24388969E+00 0.28083103E+04</pdfrwt>
<pdfrwt beam="2">  1       -2 0.19134188E+00 0.28083103E+04</pdfrwt>
<totfact> 0.17088797E+00</totfact>
</mgrwt>
<rwgt>
<wgt id='morphing_basis_vector_1'> +6.2628724e-05 </wgt>
<wgt id='morphing_basis_vector_2'> +4.2524202e-05 </wgt>
<wgt id='morphing_basis_vector_3'> +6.8154352e-05 </wgt>
<wgt id='morphing_basis_vector_4'> +4.8065561e-05 </wgt>
<wgt id='morphing_basis_vector_5'> +7.7100856e-05 </wgt>
</rwgt>
</event>
<event>
 4      1 +7.3133000e-09 2.72645800e+03 7.81860800e-03 7.82523800e-02
        2 -1    0    0  501    0 +0.0000000000e+00 +0.0000000000e+00 +1.7302590718e+03 1.7302590718e+03 0.0000000000e+00 0.0000e+00 -1.0000e+00
       -2 -1    0    0    0  501 -0.0000000000e+00 -0.0000000000e+00 -1.0740552831e+03 1.0740552831e+03 0.0000000000e+00 0.0000e+00 1.0000e+00
      -13  1    1    2    0    0 -1.3176688519e+03 +2.9774548727e+02 +5.1633129301e+02 1.4462024694e+03 0.0000000000e+00 0.0000e+00 1.0000e+00
       13  1    1    2    0    0 +1.3176688519e+03 -2.9774548727e+02 +1.3987249563e+02 1.3581118855e+03 0.0000000000e+00 0.0000e+00 -1.0000e+00
<mgrwt>
<rscale>  0 0.27264584E+04</rscale>
<asrwt>0</asrwt>
<pdfrwt beam="1">  1        2 0.26619370E+00 0.27264584E+04</pdfrwt>
<pdfrwt beam="2">  1       -2 0.16523927E+00 0.27264584E+04</pdfrwt>
<totfact> 0.22613350E+00</totfact>
</mgrwt>
<rwgt>
<wgt id='morphing_basis_vector_1'> +5.8838452e-05 </wgt>
<wgt id='morphing_basis_vector_2'> +4.7019836e-05 </wgt>
<wgt id='morphing_basis_vector_3'> +6.5391812e-05 </wgt>
<wgt id='morphing_basis_vector_4'> +3.6187458e-05 </wgt>
<wgt id='morphing_basis_vector_5'> +6.7885335e-05 </wgt>
</rwgt>
</event>
<event>
 4      1 +7.3133000e-09 2.96069000e+03 7.81860800e-03 7.76219900e-02
        2 -1    0    0  501    0 +0.0000000000e+00 +0.0000000000e+00 +2.4467593937e+03 2.4467593937e+03 0.0000000000e+00 0.0000e+00 -1.0000e+00
       -2 -1    0    0    0  501 -0.0000000000e+00 -0.0000000000e+00 -8.9564244364e+02 8.9564244364e+02 0.0000000000e+00 0.0000e+00 1.0000e+00
      -13  1    1    2    0    0 +5.6972008136e+02 +2.6787683815e+02 -7.3698517946e+02 9.6927092511e+02 0.0000000000e+00 0.0000e+00 1.0000e+00
       13  1    1    2    0    0 -5.6972008136e+02 -2.6787683815e+02 +2.2881021295e+03 2.3731309123e+03 0.0000000000e+00 0.0000e+00 -1.0000e+00
<mgrwt>
<rscale>  0 0.29606902E+04</rscale>
<asrwt>0</asrwt>
<pdfrwt beam="1">  1        2 0.37642452E+00 0.29606902E+04</pdfrwt>
<pdfrwt beam="2">  1       -2 0.13779115E+00 0.29606902E+04</pdfrwt>
<totfact> 0.14585979E+00</totfact>
</mgrwt>
<rwgt>
<wgt id='morphing_basis_vector_1'> +7.7021417e-05 </wgt>
<wgt id='morphing_basis_vector_2'> +5.1937319e-05 </wgt>
<wgt id='morphing_basis_vector_3'> +8.3891322e-05 </wgt>
<wgt id='morphing_basis_vector_4'> +5.9883866e-05 </wgt>
<wgt id='morphing_basis_vector_5'> +9.5472134e-05 </wgt>
</rwgt>
</event>
<event>
 4      1 +7.3133000e-09 2.77736400e+03 7.81860800e-03 7.81100500e-02
        2 -1    0    0  501    0 +0.0000000000e+00 +0.0000000000e+00 +2.0293047323e+03 2.0293047323e+03 0.0000000000e+00 0.0000e+00 1.0000e+00
       -2 -1    0    0    0  501 -0.0000000000e+00 -0.0000000000e+00 -9.5029502580e+02 9.5029502580e+02 0.0000000000e+00 0.0000e+00 -1.0000e+00
      -13  1    1    2    0    0 +4.2883743631e+02 -7.1154471169e+02 -6.5428428245e+02 1.0574901162e+03 0.0000000000e+00 0.0000e+00 -1.0000e+00
       13  1    1    2    0    0 -4.2883743631e+02 +7.1154471169e+02 +1.7332939890e+03 1.9221096420e+03 0.0000000000e+00 0.0000e+00 1.0000e+00
<mgrwt>
<rscale>  0 0.27773644E+04</rscale>
<asrwt>0</asrwt>
<pdfrwt beam="1">  1        2 0.31220073E+00 0.27773644E+04</pdfrwt>
<pdfrwt beam="2">  1       -2 0.14619924E+00 0.27773644E+04</pdfrwt>
<totfact> 0.21870131E+00</totfact>
</mgrwt>
<rwgt>
<wgt id='morphing_basis_vector_1'> +5.9819819e-05 </wgt>
<wgt id='morphing_basis_vector_2'> +4.0330437e-05 </wgt>
<wgt id='morphing_basis_vector_3'> +6.5013276e-05 </wgt>
<wgt id='morphing_basis_vector_4'> +4.6212768e-05 </wgt>
<wgt id='morphing_basis_vector_5'> +7.3745299e-05 </wgt>
</rwgt>
</event>
<event>
 4      1 +7.3133000e-09 3.02820100e+03 7.81860800e-03 7.74512500e-02
        2 -1    0    0  501    0 +0.0000000000e+00 +0.0000000000e+00 +4.4976107685e+02 4.4976107685e+02 0.0000000000e+00 0.0000e+00 -1.0000e+00
       -2 -1    0    0    0  501 -0.0000000000e+00 -0.0000000000e+00 -5.0971518002e+03 5.0971518002e+03 0.0000000000e+00 0.0000e+00 1.0000e+00
      -13  1    1    2    0    0 -5.5948081164e+02 -9.0789323252e+02 -4.2924763114e+03 4.4229675314e+03 0.0000000000e+00 0.0000e+00 1.0000e+00
       13  1    1    2    0    0 +5.5948081164e+02 +9.0789323252e+02 -3.5491441203e+02 1.1239453457e+03 0.0000000000e+00 0.0000e+00 -1.0000e+00
<mgrwt>
<rscale>  0 0.30282011E+04</rscale>
<asrwt>0</asrwt>
<pdfrwt beam="1">  1        2 0.69194014E-01 0.30282011E+04</pdfrwt>
<pdfrwt beam="2">  1       -2 0.78417718E+00 0.30282011E+04</pdfrwt>
<totfact> 0.68693481E-03</totfact>
</mgrwt>
<rwgt>
<wgt id='morphing_basis_vector_1'> +8.4311247e-05 </wgt>
<wgt id='morphing_basis_vector_2'> +5.7085281e-05 </wgt>
<wgt id='morphing_basis_vector_3'> +9.1944277e-05 </wgt>
<wgt id='morphing_basis_vector_4'> +6.5399211e-05 </wgt>
<wgt id='morphing_basis_vector_5'> +1.0455095e-04 </wgt>
</rwgt>
</event>
<event>
 4      1 +7.3133000e-09 2.88551900e+03 7.81860800e-03 7.78176600e-02
        2 -1    0    0  501    0 +0.0000000000e+00 +0.0000000000e+00 +1.9212909730e+03 1.9212909730e+03 0.0000000000e+00 0.0000e+00 -1.0000e+00
       -2 -1    0    0    0  501 -0.0000000000e+00 -0.0000000000e+00 -1.0834147683e+03 1.0834147683e+03 0.0000000000e+00 0.0000e+00 1.0000e+00
      -13  1    1    2    0    0 +1.1968754112e+03 +7.9851969288e+02 +5.3017056951e+02 1.5333705627e+03 0.0000000000e+00 0.0000e+00 1.0000e+00
       13  1    1    2    0    0 -1.1968754112e+03 -7.9851969288e+02 +3.0770563525e+02 1.4713351786e+03 0.0000000000e+00 0.0000e+00 -1.0000e+00
<mgrwt>
<rscale>  0 0.28855190E+04</rscale>
<asrwt>0</asrwt>
<pdfrwt beam="1">  1        2 0.29558322E+00 0.28855190E+04</pdfrwt>
<pdfrwt beam="2">  1       -2 0.16667920E+00 0.28855190E+04</pdfrwt>
<totfact> 0.17005938E+00</totfact>
</mgrwt>
<rwgt>
<wgt id='morphing_basis_vector_1'> +7.2875503e-05 </wgt>
<wgt id='morphing_basis_vector_2'> +5.6645380e-05 </wgt>
<wgt id='morphing_basis_vector_3'> +8.0860703e-05 </wgt>
<wgt id='morphing_basis_vector_4'> +4.7097362e-05 </wgt>
<wgt id='morphing_basis_vector_5'> +8.5492277e-05 </wgt>
</rwgt>
</event>
<event>
 4      1 +7.3133000e-09 3.09480600e+03 7.81860800e-03 7.72872700e-02
        2 -1    0    0  501    0 +0.0000000000e+00 +0.0000000000e+00 +1.3141252702e+03 1.3141252702e+03 0.0000000000e+00 0.0000e+00 -1.0000e+00
       -2 -1    0    0    0  501 -0.0000000000e+00 -0.0000000000e+00 -1.8220906594e+03 1.8220906594e+03 0.0000000000e+00 0.0000e+00 1.0000e+00
      -13  1    1    2    0    0 +2.7515894926e+02 -1.2830607675e+03 -1.0850153408e+03 1.7027083339e+03 0.0000000000e+00 0.0000e+00 1.0000e+00
       13  1    1    2    0    0 -2.7515894926e+02 +1.2830607675e+03 +5.7704995161e+02 1.4335075958e+03 0.0000000000e+00 0.0000e+00 -1.0000e+00
<mgrwt>
<rscale>  0 0.30948056E+04</rscale>
<asrwt>0</asrwt>
<pdfrwt beam="1">  1        2 0.20217312E+00 0.30948056E+04</pdfrwt>
<pdfrwt beam="2">  1       -2 0.28032164E+00 0.30948056E+04</pdfrwt>
<totfact> 0.56129155E-01</totfact>
</mgrwt>
<rwgt>
<wgt id='morphing_basis_vector_1'> +9.2149660e-05 </wgt>
<wgt id='morphing_basis_vector_2'> +6.2969802e-05 </wgt>
<wgt id='morphing_basis_vector_3'> +1.0067946e-04 </wgt>
<wgt id='morphing_basis_vector_4'> +7.0891562e-05 </wgt>
<wgt id='morphing_basis_vector_5'> +1.1409999e-04 </wgt>
</rwgt>
</event>
<event>
 4      1 +7.3133000e-09 2.73904500e+03 7.81860800e-03 7.82169000e-02
        2 -1    0    0  501    0 +0.0000000000e+00 +0.0000000000e+00 +1.0000041911e+03 1.0000041911e+03 0.0000000000e+00 0.0000e+00 1.0000e+00
       -2 -1    0    0    0  501 -0.0000000000e+00 -0.0000000000e+00 -1.8755833959e+03 1.8755833959e+03 0.0000000000e+00 0.0000e+00 -1.0000e+00
      -13  1    1    2    0    0 -2.8927036326e+01 -1.2531937948e+03 -1.0168845682e+03 1.6141207160e+03 0.0000000000e+00 0.0000e+00 -1.0000e+00
       13  1    1    2    0    0 +2.8927036326e+01 +1.2531937948e+03 +1.4130536341e+02 1.2614668709e+03 0.0000000000e+00 0.0000e+00 1.0000e+00
<mgrwt>
<rscale>  0 0.27390445E+04</rscale>
<asrwt>0</asrwt>
<pdfrwt beam="1">  1        2 0.15384680E+00 0.27390445E+04</pdfrwt>
<pdfrwt beam="2">  1       -2 0.28855129E+00 0.27390445E+04</pdfrwt>
<totfact> 0.78039148E-01</totfact>
</mgrwt>
<rwgt>
<wgt id='morphing_basis_vector_1'> +5.7001554e-05 </wgt>
<wgt id='morphing_basis_vector_2'> +3.9284651e-05 </wgt>
<wgt id='morphing_basis_vector_3'> +6.2092191e-05 </wgt>
<wgt id='morphing_basis_vector_4'> +4.2900847e-05 </wgt>
<wgt id='morphing_basis_vector_5'> +6.9653726e-05 </wgt>
</rwgt>
</event>
<event>
 4      1 +7.3133000e-09 2.91533700e+03 7.81860800e-03 7.77393300e-02
        2 -1    0    0  501    0 +0.0000000000e+00 +0.0000000000e+00 +1.2676969245e+03 1.2676969245e+03 0.0000000000e+00 0.0000e+00 1.0000e+00
       -2 -1    0    0    0  501 -0.0000000000e+00 -0.0000000000e+00 -1.6761085548e+03 1.6761085548e+03 0.0000000000e+00 0.0000e+00 -1.0000e+00
      -13  1    1    2    0    0 -2.9825592708e+02 -2.0703962136e+02 -1.6297192707e+03 1.6696726937e+03 0.0000000000e+00 0.0000e+00 -1.0000e+00
       13  1    1    2    0    0 +2.9825592708e+02 +2.0703962136e+02 +1.2213076404e+03 1.2741327856e+03 0.0000000000e+00 0.0000e+00 1.0000e+00
<mgrwt>
<rscale>  0 0.29153371E+04</rscale>
<asrwt>0</asrwt>
<pdfrwt beam="1">  1        2 0.19503030E+00 0.29153371E+04</pdfrwt>
<pdfrwt beam="2">  1       -2 0.25786286E+00 0.29153371E+04</pdfrwt>
<totfact> 0.86319957E-01</totfact>
</mgrwt>
<rwgt>
<wgt id='morphing_basis_vector_1'> +7.2445119e-05 </wgt>
<wgt id='morphing_basis_vector_2'> +4.8819455e-05 </wgt>
<wgt id='morphing_basis_vector_3'> +7.8861035e-05 </wgt>
<wgt id='morphing_basis_vector_4'> +5.6280407e-05 </wgt>
<wgt id='morphing_basis_vector_5'> +8.9705179e-05 </wgt>
</rwgt>
</event>
<event>
 4      1 +7.3133000e-09 2.83255600e+03 7.81860800e-03 7.79591900e-02
        2 -1    0    0  501    0 +0.0000000000e+00 +0.0000000000e+00 +2.0073130082e+03 2.0073130082e+03 0.0000000000e+00 0.0000e+00 -1.0000e+00
       -2 -1    0    0    0  501 -0.0000000000e+00 -0.0000000000e+00 -9.9926761459e+02 9.9926761459e+02 0.0000000000e+00 0.0000e+00 1.0000e+00
      -13  1    1    2    0    0 +5.1074729950e+01 +4.8483518153e+02 -9.0739741344e+02 1.0300698264e+03 0.0000000000e+00 0.0000e+00 1.0000e+00
       13  1    1    2    0    0 -5.1074729950e+01 -4.8483518153e+02 +1.9154428070e+03 1.9765107964e+03 0.0000000000e+00 0.0000e+00 -1.0000e+00
<mgrwt>
<rscale>  0 0.28325557E+04</rscale>
<asrwt>0</asrwt>
<pdfrwt beam="1">  1        2 0.30881739E+00 0.28325557E+04</pdfrwt>
<pdfrwt beam="2">  1       -2 0.15373348E+00 0.28325557E+04</pdfrwt>
<totfact> 0.19404381E+00</totfact>
</mgrwt>
<rwgt>
<wgt id='morphing_basis_vector_1'> +6.4636164e-05 </wgt>
<wgt id='morphing_basis_vector_2'> +4.3531980e-05 </wgt>
<wgt id='morphing_basis_vector_3'> +7.0287232e-05 </wgt>
<wgt id='morphing_basis_vector_4'> +5.0096826e-05 </wgt>
<wgt id='morphing_basis_vector_5'> +7.9852906e-05 </wgt>
</rwgt>
</event>
<event>
 4      1 +7.3133000e-09 2.79159800e+03 7.81860800e-03 7.80708000e-02
        2 -1    0    0  501    0 +0.0000000000e+00 +0.0000000000e+00 +1.8243729640e+03 1.8243729640e+03 0.0000000000e+00 0.0000e+00 -1.0000e+00
       -2 -1    0    0    0  501 -0.0000000000e+00 -0.0000000000e+00 -1.0679039511e+03 1.0679039511e+03 0.0000000000e+00 0.0000e+00 1.0000e+00
      -13  1    1    2    0    0 -8.4264632655e+02 +9.8220039886e+02 -1.6358350251e+02 1.3044270840e+03 0.0000000000e+00 0.0000e+00 1.0000e+00
       13  1    1    2    0    0 +8.4264632655e+02 -9.8220039886e+02 +9.2005251534e+02 1.5878498311e+03 0.0000000000e+00 0.0000e+00 -1.0000e+00
<mgrwt>
<rscale>  0 0.27915982E+04</rscale>
<asrwt>0</asrwt>
<pdfrwt beam="1">  1        2 0.28067276E+00 0.27915982E+04</pdfrwt>
<pdfrwt beam="2">  1       -2 0.16429292E+00 0.27915982E+04</pdfrwt>
<totfact> 0.20276865E+00</totfact>
</mgrwt>
<rwgt>
<wgt id='morphing_basis_vector_1'> +6.1515174e-05 </wgt>
<wgt id='morphing_basis_vector_2'> +4.2553197e-05 </wgt>
<wgt id='morphing_basis_vector_3'> +6.7088685e-05 </wgt>
<wgt id='morphing_basis_vector_4'> +4.6198313e-05 </wgt>
<wgt id='morphing_basis_vector_5'> +7.5204523e-05 </wgt>
</rwgt>
</event>
<event>
 4      1 +7.3133000e-09 2.93882600e+03 7.81860800e-03 7.76782900e-02
        2 -1    0    0  501    0 +0.0000000000e+00 +0.0000000000e+00 +2.0671611653e+03 2.0671611653e+03 0.0000000000e+00 0.0000e+00 -1.0000e+00
       -2 -1    0    0    0  501 -0.0000000000e+00 -0.0000000000e+00 -1.0445116289e+03 1.0445116289e+03 0.0000000000e+00 0.0000e+00 1.0000e+00
      -13  1    1    2    0    0 +7.6184533235e+02 -8.0695040298e+02 -5.0843927723e+02 1.2206915097e+03 0.0000000000e+00 0.0000e+00 1.0000e+00
       13  1    1    2    0    0 -7.6184533235e+02 +8.0695040298e+02 +1.5310888136e+03 1.8909812845e+03 0.0000000000e+00 0.0000e+00 -1.0000e+00
<mgrwt>
<rscale>  0 0.29388255E+04</rscale>
<asrwt>0</asrwt>
<pdfrwt beam="1">  1        2 0.31802479E+00 0.29388255E+04</pdfrwt>
<pdfrwt beam="2">  1       -2 0.16069410E+00 0.29388255E+04</pdfrwt>
<totfact> 0.15627517E+00</totfact>
</mgrwt>
<rwgt>
<wgt id='morphing_basis_vector_1'> +7.4915954e-05 </wgt>
<wgt id='morphing_basis_vector_2'> +5.0790489e-05 </wgt>
<wgt id='morphing_basis_vector_3'> +8.1635544e-05 </wgt>
<wgt id='morphing_basis_vector_4'> +5.7861543e-05 </wgt>
<wgt id='morphing_basis_vector_5'> +9.2636663e-05 </wgt>
</rwgt>
</event>
<event>
 4      1 +7.3133000e-09 3.15633600e+03 7.81860800e-03 7.71395200e-02
        2 -1    0    0  501    0 +0.0000000000e+00 +0.0000000000e+00 +4.1528801972e+03 4.1528801972e+03 0.0000000000e+00 0.0000e+00 1.0000e+00
       -2 -1    0    0    0  501 -0.0000000000e+00 -0.0000000000e+00 -5.9973194618e+02 5.9973194618e+02 0.0000000000e+00 0.0000e+00 -1.0000e+00
      -13  1    1    2    0    0 +1.2383062783e+03 -4.4665876901e+02 +4.6588364946e+02 1.3964075586e+03 0.0000000000e+00 0.0000e+00 -1.0000e+00
       13  1    1    2    0    0 -1.2383062783e+03 +4.4665876901e+02 +3.0872646016e+03 3.3562045848e+03 0.0000000000e+00 0.0000e+00 1.0000e+00
<mgrwt>
<rscale>  0 0.31563364E+04</rscale>
<asrwt>0</asrwt>
<pdfrwt beam="1">  1        2 0.63890463E+00 0.31563364E+04</pdfrwt>
<pdfrwt beam="2">  1       -2 0.92266456E-01 0.31563364E+04</pdfrwt>
<totfact> 0.24215024E-01</totfact>
</mgrwt>
<rwgt>
<wgt id='morphing_basis_vector_1'> +9.9590870e-05 </wgt>
<wgt id='morphing_basis_vector_2'> +6.7983669e-05 </wgt>
<wgt id='morphing_basis_vector_3'> +1.0885618e-04 </wgt>
<wgt id='morphing_basis_vector_4'> +7.6837720e-05 </wgt>
<wgt id='morphing_basis_vector_5'> +1.2353501e-04 </wgt>
</rwgt>
</event>
</LesHouchesEvents>
