<LesHouchesEvents version="3.0">
<header>
<!--
#*********************************************************************
#                                                                    *
#                        MadGraph5_aMC@NLO                           *
#                                                                    *
#                           Going Beyond                             *
#                                                                    *
#                   http://madgraph.hep.uiuc.edu                     *
#                   http://madgraph.phys.ucl.ac.be                   *
#                   http://amcatnlo.cern.ch                          *
#                                                                    *
#                     The MadGraph5_aMC@NLO team                     *
#                                                                    *
#....................................................................*
#                                                                    *
# This file contains all the information necessary to reproduce      *
# the events generated:                                              *
#                                                                    *
# 1. software version                                                *
# 2. proc_card          : code generation info including model       *
# 3. param_card         : model primary parameters in the LH format  *
# 4. run_card           : running parameters (collider and cuts)     *
# 5. pythia_card        : present only if pythia has been run        *
# 6. pgs_card           : present only if pgs has been run           *
# 7. delphes_cards      : present only if delphes has been run       *
#                                                                    *
#                                                                    *
#*********************************************************************
-->
<MGVersion>
2.6.4
</MGVersion>
<MG5ProcCard>
<![CDATA[
#************************************************************
#*                     MadGraph5_aMC@NLO                    *
#*                                                          *
#*                *                       *                 *
#*                  *        * *        *                   *
#*                    * * * * 5 * * * *                     *
#*                  *        * *        *                   *
#*                *                       *                 *
#*                                                          *
#*                                                          *
#*         VERSION 2.6.4                 2018-11-09         *
#*                                                          *
#*    The MadGraph5_aMC@NLO Development Team - Find us at   *
#*    https://server06.fynu.ucl.ac.be/projects/madgraph     *
#*                                                          *
#************************************************************
#*                                                          *
#*               Command File for MadGraph5_aMC@NLO         *
#*                                                          *
#*     run as ./bin/mg5_aMC  filename                       *
#*                                                          *
#************************************************************
set default_unset_couplings 99
set group_subprocesses Auto
set ignore_six_quark_processes False
set loop_optimized_output True
set loop_color_flows False
set gauge unitary
set complex_mass_scheme False
set max_npoint_for_channel 0
import model SM4fLL_UFO
define p = g u c d s u~ c~ d~ s~
define j = g u c d s u~ c~ d~ s~
define l+ = e+ mu+
define l- = e- mu-
define vl = ve vm vt
define vl~ = ve~ vm~ vt~
generate u u~ > mu+ mu- NP=2 QED=99 QCD=0
output /Users/dpappadopulo/Projects/~Physics/madminer/examples/example\
4_systematics_DY/data/mg_processes/DY_sys/
]]>
</MG5ProcCard>
<MGProcCard>
#*********************************************************************
#                        MadGraph/MadEvent                           *
#                   http://madgraph.hep.uiuc.edu                     *
#                                                                    *
#                          proc_card.dat                             *
#*********************************************************************
#                                                                    *
#            This Files is generated by MADGRAPH 5                   *
#                                                                    *
# WARNING: This Files is generated for MADEVENT (compatibility issue)*
#          This files is NOT a valid MG4 proc_card.dat               *
#          Running this in MG4 will NEVER reproduce the result of MG5*
#                                                                    *
#*********************************************************************
#*********************************************************************
# Process(es) requested : mg2 input                                  *
#*********************************************************************
# Begin PROCESS # This is TAG. Do not modify this line
u u~ > mu+ mu-           #Process
# Be carefull the coupling are here in MG5 convention
NP=2
QED=99
QCD=0
          
end_coup           # End the couplings input

done               # this tells MG there are no more procs
# End PROCESS  # This is TAG. Do not modify this line
#*********************************************************************
# Model information                                                  *
#*********************************************************************
# Begin MODEL  # This is TAG. Do not modify this line
SM4fLL_UFO
# End   MODEL  # This is TAG. Do not modify this line
#*********************************************************************
# Start multiparticle definitions                                    *
#*********************************************************************
# Begin MULTIPARTICLES # This is TAG. Do not modify this line

# End  MULTIPARTICLES # This is TAG. Do not modify this line
</MGProcCard>
<MGRunCard>
<![CDATA[
#*********************************************************************
#                       MadGraph5_aMC@NLO                            *
#                                                                    *
#                     run_card.dat MadEvent                          *
#                                                                    *
#  This file is used to set the parameters of the run.               *
#                                                                    *
#  Some notation/conventions:                                        *
#                                                                    *
#   Lines starting with a '# ' are info or comments                  *
#                                                                    *
#   mind the format:   value    = variable     ! comment             *
#*********************************************************************
#
#*******************                                                 
# Running parameters
#*******************                                                 
#                                                                    
#*********************************************************************
# Tag name for the run (one word)                                    *
#*********************************************************************
  tag_1     = run_tag ! name of the run 
#*********************************************************************
# Run to generate the grid pack                                      *
#*********************************************************************
  False     = gridpack  !True = setting up the grid pack
#*********************************************************************
# Number of events and rnd seed                                      *
# Warning: Do not generate more than 1M events in a single run       *
# If you want to run Pythia, avoid more than 50k events in a run.    *
#*********************************************************************
  1000 = nevents ! Number of unweighted events requested
 165 = iseed   ! rnd seed (0=assigned automatically=default))
#*********************************************************************
# Collider type and energy                                           *
# lpp: 0=No PDF, 1=proton, -1=antiproton, 2=photon from proton,      *
#                                         3=photon from electron     *
#*********************************************************************
     1        = lpp1    ! beam 1 type 
     1        = lpp2    ! beam 2 type
     6500.0     = ebeam1  ! beam 1 total energy in GeV
     6500.0     = ebeam2  ! beam 2 total energy in GeV
#*********************************************************************
# Beam polarization from -100 (left-handed) to 100 (right-handed)    *
#*********************************************************************
     0.0     = polbeam1 ! beam polarization for beam 1
     0.0     = polbeam2 ! beam polarization for beam 2
#*********************************************************************
# PDF CHOICE: this automatically fixes also alpha_s and its evol.    *
#*********************************************************************
     lhapdf    = pdlabel     ! PDF set
     90900   = lhaid     ! if pdlabel=lhapdf, this is the lhapdf number
#*********************************************************************
# Renormalization and factorization scales                           *
#*********************************************************************
 False = fixed_ren_scale  ! if .true. use fixed ren scale
 False        = fixed_fac_scale  ! if .true. use fixed fac scale
 91.188  = scale            ! fixed ren scale
 91.188  = dsqrt_q2fact1    ! fixed fact scale for pdf1
 91.188  = dsqrt_q2fact2    ! fixed fact scale for pdf2
 -1 = dynamical_scale_choice ! Choose one of the preselected dynamical choices
 1.0  = scalefact        ! scale factor for event-by-event scales
#*********************************************************************
# Type and output format
#*********************************************************************
  False     = gridpack  !True = setting up the grid pack
  -1.0 = time_of_flight ! threshold (in mm) below which the invariant livetime is not written (-1 means not written)
  3.0 = lhe_version       ! Change the way clustering information pass to shower.        
  True = clusinfo         ! include clustering tag in output
  sum =  event_norm       ! average/sum. Normalization of the weight in the LHEF
#*********************************************************************
# Matching - Warning! ickkw > 1 is still beta
#*********************************************************************
 0 = ickkw            ! 0 no matching, 1 MLM, 2 CKKW matching
 1 = highestmult      ! for ickkw=2, highest mult group
 1 = ktscheme         ! for ickkw=1, 1 Durham kT, 2 Pythia pTE
 1.0 = alpsfact         ! scale factor for QCD emission vx
 False = chcluster        ! cluster only according to channel diag
 True = pdfwgt           ! for ickkw=1, perform pdf reweighting
 4 = asrwgtflavor     ! highest quark flavor for a_s reweight    
#*********************************************************************
#**********************************************************
#
#**********************************************************
# Automatic ptj and mjj cuts if xqcut > 0
# (turn off for VBF and single top processes)
#**********************************************************
   False  = auto_ptj_mjj  ! Automatic setting of ptj and mjj
#**********************************************************
#                                                                    
#**********************************
# BW cutoff (M+/-bwcutoff*Gamma)
#**********************************
  15.0  = bwcutoff      ! (M+/-bwcutoff*Gamma)
#**********************************************************
# Apply pt/E/eta/dr/mij/kt_durham cuts on decay products or not
# (note that etmiss/ptll/ptheavy/ht/sorted cuts always apply)
#*************************************************************
   False  = cut_decays    ! Cut decay products 
#*************************************************************
# Number of helicities to sum per event (0 = all helicities)
# 0 gives more stable result, but longer run time (needed for
# long decay chains e.g.).
# Use >=2 if most helicities contribute, e.g. pure QCD.
#*************************************************************
   0  = nhel          ! Number of helicities used per event
#*******************                                                 
# Standard Cuts
#*******************                                                 
#                                                                    
#*********************************************************************
# Minimum and maximum pt's (for max, -1 means no cut)                *
#*********************************************************************
 15.0  = ptj       ! minimum pt for the jets
 0.0  = ptb       ! minimum pt for the b 
 0.0 = pta       ! minimum pt for the photons
 25.0  = ptl       ! minimum pt for the charged leptons
 0.0  = misset    ! minimum missing Et (sum of neutrino's momenta)
 0.0  = ptheavy   ! minimum pt for one heavy final state
 -1.0  = ptjmax    ! maximum pt for the jets
 -1.0  = ptbmax    ! maximum pt for the b
 -1.0 = ptamax       ! maximum pt for the photons
 -1.0  = ptlmax    ! maximum pt for the charged leptons
 -1.0  = missetmax ! maximum missing Et (sum of neutrino's momenta)
#*********************************************************************
# Minimum and maximum E's (in the center of mass frame)              *
#*********************************************************************
  0.0  = ej     ! minimum E for the jets 
  0.0  = eb     ! minimum E for the b 
  0.0  = ea     ! minimum E for the photons 
  0.0  = el     ! minimum E for the charged leptons 
  -1.0   = ejmax ! maximum E for the jets
 -1.0   = ebmax ! maximum E for the b
 -1.0   = eamax ! maximum E for the photons
 -1.0   = elmax ! maximum E for the charged leptons
#*********************************************************************
# Maximum and minimum absolute rapidity (for max, -1 means no cut)   *
#*********************************************************************
 2.5 = etaj    ! max rap for the jets
  -1.0  = etab    ! max rap for the b
 3.0  = etaa    ! max rap for the photons
 2.5  = etal    ! max rap for the charged leptons
 0.0  = etajmin ! min rap for the jets
 0.0  = etabmin ! min rap for the b
 0.0  = etaamin ! min rap for the photons
 0.0  = etalmin ! main rap for the charged leptons
#*********************************************************************
# Minimum and maximum DeltaR distance                                *
#*********************************************************************
 0.0 = drjj    ! min distance between jets
 0.0 = drbb    ! min distance between b's
 0.0 = drll    ! min distance between leptons
 0.0 = draa    ! min distance between gammas
 0.0 = drbj    ! min distance between b and jet
 0.0 = draj    ! min distance between gamma and jet
 0.0 = drjl    ! min distance between jet and lepton
 0.0 = drab    ! min distance between gamma and b
 0.0 = drbl    ! min distance between b and lepton
 0.0 = dral    ! min distance between gamma and lepton
 -1.0  = drjjmax ! max distance between jets
 -1.0  = drbbmax ! max distance between b's
 -1.0  = drllmax ! max distance between leptons
 -1.0  = draamax ! max distance between gammas
 -1.0  = drbjmax ! max distance between b and jet
 -1.0  = drajmax ! max distance between gamma and jet
 -1.0  = drjlmax ! max distance between jet and lepton
 -1.0  = drabmax ! max distance between gamma and b
 -1.0  = drblmax ! max distance between b and lepton
 -1.0  = dralmax ! maxdistance between gamma and lepton
#*********************************************************************
# Minimum and maximum invariant mass for pairs                       *
# WARNING: for four lepton final state mmll cut require to have      *
#          different lepton masses for each flavor!                  *           
#*********************************************************************
 0.0   = mmjj    ! min invariant mass of a jet pair 
 0.0   = mmbb    ! min invariant mass of a b pair 
 0.0   = mmaa    ! min invariant mass of gamma gamma pair
 5550   = mmll    ! min invariant mass of l+l- (same flavour) lepton pair
 -1.0  = mmjjmax ! max invariant mass of a jet pair
 -1.0  = mmbbmax ! max invariant mass of a b pair
 -1.0  = mmaamax ! max invariant mass of gamma gamma pair
 6660  = mmllmax ! max invariant mass of l+l- (same flavour) lepton pair
#*********************************************************************
# Minimum and maximum invariant mass for all letpons                 *
#*********************************************************************
 0.0   = mmnl    ! min invariant mass for all letpons (l+- and vl) 
 -1.0  = mmnlmax ! max invariant mass for all letpons (l+- and vl) 
#*********************************************************************
# Minimum and maximum pt for 4-momenta sum of leptons                *
#*********************************************************************
 0.0   = ptllmin  ! Minimum pt for 4-momenta sum of leptons(l and vl)
 -1.0  = ptllmax  ! Maximum pt for 4-momenta sum of leptons(l and vl)
#*********************************************************************
# Inclusive cuts                                                     *
#*********************************************************************
 0.0  = xptj ! minimum pt for at least one jet  
 0.0  = xptb ! minimum pt for at least one b 
 0.0  = xpta ! minimum pt for at least one photon 
 0.0  = xptl ! minimum pt for at least one charged lepton 
#*********************************************************************
# Control the pt's of the jets sorted by pt                          *
#*********************************************************************
 0.0   = ptj1min ! minimum pt for the leading jet in pt
 0.0   = ptj2min ! minimum pt for the second jet in pt
 0.0   = ptj3min ! minimum pt for the third jet in pt
 0.0   = ptj4min ! minimum pt for the fourth jet in pt
 -1.0  = ptj1max ! maximum pt for the leading jet in pt 
 -1.0  = ptj2max ! maximum pt for the second jet in pt
 -1.0  = ptj3max ! maximum pt for the third jet in pt
 -1.0  = ptj4max ! maximum pt for the fourth jet in pt
 0   = cutuse  ! reject event if fails any (0) / all (1) jet pt cuts
#*********************************************************************
# Control the pt's of leptons sorted by pt                           *
#*********************************************************************
 0.0   = ptl1min ! minimum pt for the leading lepton in pt
 0.0   = ptl2min ! minimum pt for the second lepton in pt
 0.0   = ptl3min ! minimum pt for the third lepton in pt
 0.0   = ptl4min ! minimum pt for the fourth lepton in pt
 -1.0  = ptl1max ! maximum pt for the leading lepton in pt 
 -1.0  = ptl2max ! maximum pt for the second lepton in pt
 -1.0  = ptl3max ! maximum pt for the third lepton in pt
 -1.0  = ptl4max ! maximum pt for the fourth lepton in pt
#*********************************************************************
# Control the Ht(k)=Sum of k leading jets                            *
#*********************************************************************
 0.0   = htjmin ! minimum jet HT=Sum(jet pt)
 -1.0  = htjmax ! maximum jet HT=Sum(jet pt)
 0.0   = ihtmin  !inclusive Ht for all partons (including b)
 -1.0  = ihtmax  !inclusive Ht for all partons (including b)
 0.0   = ht2min ! minimum Ht for the two leading jets
 0.0   = ht3min ! minimum Ht for the three leading jets
 0.0   = ht4min ! minimum Ht for the four leading jets
 -1.0  = ht2max ! maximum Ht for the two leading jets
 -1.0  = ht3max ! maximum Ht for the three leading jets
 -1.0  = ht4max ! maximum Ht for the four leading jets
#***********************************************************************
# Photon-isolation cuts, according to hep-ph/9801442                   *
# When ptgmin=0, all the other parameters are ignored                  *
# When ptgmin>0, pta and draj are not going to be used                 *
#***********************************************************************
 0.0 = ptgmin ! Min photon transverse momentum
 0.4 = R0gamma ! Radius of isolation code
 1.0 = xn ! n parameter of eq.(3.4) in hep-ph/9801442
 1.0 = epsgamma ! epsilon_gamma parameter of eq.(3.4) in hep-ph/9801442
 True = isoEM ! isolate photons from EM energy (photons and leptons)
#*********************************************************************
# WBF cuts                                                           *
#*********************************************************************
 0.0   = xetamin ! minimum rapidity for two jets in the WBF case  
 0.0   = deltaeta ! minimum rapidity for two jets in the WBF case 
#*********************************************************************
# KT DURHAM CUT                                                      *
#*********************************************************************
 -1.0    =  ktdurham        
 0.4  =  dparameter 
#*********************************************************************
# maximal pdg code for quark to be considered as a light jet         *
# (otherwise b cuts are applied)                                     *
#*********************************************************************
 4 = maxjetflavor    ! Maximum jet pdg code
#*********************************************************************
# Jet measure cuts                                                   *
#*********************************************************************
 0.0   = xqcut   ! minimum kt jet measure between partons
#*********************************************************************
#
#*********************************************************************
# Store info for systematics studies                                 *
# WARNING: If use_syst is T, matched Pythia output is                *
#          meaningful ONLY if plotted taking matchscale              *
#          reweighting into account!                                 *
#*********************************************************************
#    False  = use_syst      ! Enable systematics studies # Commented out by MadMiner
#
#**************************************
# Parameter of the systematics study
#  will be used by SysCalc (if installed)
#**************************************                                  
#
0.5 1 2 = sys_scalefact  # factorization/renormalization scale factor
None = sys_alpsfact  # \alpha_s emission scale factors
30 50 = sys_matchscale # variation of merging scale
# PDF sets and number of members (0 or none for all members).
NNPDF23_lo_as_0130_qed = sys_pdf # matching scales
# MSTW2008nlo68cl.LHgrid 1  = sys_pdf


#*********************************************************************
# MadMiner systematics setup                                         *
#*********************************************************************
True = use_syst
systematics = systematics_program
['--pdf=90900'] = systematics_arguments
]]>
</MGRunCard>
<slha>
######################################################################
## PARAM_CARD AUTOMATICALY GENERATED BY MG5 FOLLOWING UFO MODEL   ####
######################################################################
##                                                                  ##
##  Width set on Auto will be computed following the information    ##
##        present in the decay.py files of the model.               ##
##        See  arXiv:1402.1178 for more details.                    ##
##                                                                  ##
######################################################################

###################################
## INFORMATION FOR CKMBLOCK
###################################
Block ckmblock 
    1 2.277360e-01 # cabi 

###################################
## INFORMATION FOR MASS
###################################
Block mass 
    5 4.700000e+00 # MB 
    6 1.720000e+02 # MT 
   15 1.777000e+00 # MTA 
   23 9.118760e+01 # MZ 
   25 1.250000e+02 # MH 
## Dependent parameters, given by model restrictions.
## Those values should be edited following the 
## analytical expression. MG5 ignores those values 
## but they are important for interfacing the output of MG5
## to external program such as Pythia.
  1 0.000000 # d : 0.0 
  2 0.000000 # u : 0.0 
  3 0.000000 # s : 0.0 
  4 0.000000 # c : 0.0 
  11 0.000000 # e- : 0.0 
  12 0.000000 # ve : 0.0 
  13 0.000000 # mu- : 0.0 
  14 0.000000 # vm : 0.0 
  16 0.000000 # vt : 0.0 
  21 0.000000 # g : 0.0 
  22 0.000000 # a : 0.0 
  24 79.824360 # w+ : cmath.sqrt(MZ__exp__2/2. + cmath.sqrt(MZ__exp__4/4. - (aEW*cmath.pi*MZ__exp__2)/(Gf*sqrt__2))) 

###################################
## INFORMATION FOR OBLIQUE
###################################
Block oblique 
    1    0.0    # MadMiner
    2    0.0    # MadMiner

###################################
## INFORMATION FOR SMINPUTS
###################################
Block sminputs 
    1 1.279000e+02 # aEWM1 
    2 1.166370e-05 # Gf 
    3 1.184000e-01 # aS 

###################################
## INFORMATION FOR YUKAWA
###################################
Block yukawa 
    5 4.700000e+00 # ymb 
    6 1.720000e+02 # ymt 
   15 1.777000e+00 # ymtau 

###################################
## INFORMATION FOR DECAY
###################################
DECAY   6 1.508336e+00 # WT 
DECAY  23 2.495200e+00 # WZ 
DECAY  24 2.085000e+00 # WW 
DECAY  25 4.070000e-03 # WH 
## Dependent parameters, given by model restrictions.
## Those values should be edited following the 
## analytical expression. MG5 ignores those values 
## but they are important for interfacing the output of MG5
## to external program such as Pythia.
DECAY  1 0.000000 # d : 0.0 
DECAY  2 0.000000 # u : 0.0 
DECAY  3 0.000000 # s : 0.0 
DECAY  4 0.000000 # c : 0.0 
DECAY  5 0.000000 # b : 0.0 
DECAY  11 0.000000 # e- : 0.0 
DECAY  12 0.000000 # ve : 0.0 
DECAY  13 0.000000 # mu- : 0.0 
DECAY  14 0.000000 # vm : 0.0 
DECAY  15 0.000000 # ta- : 0.0 
DECAY  16 0.000000 # vt : 0.0 
DECAY  21 0.000000 # g : 0.0 
DECAY  22 0.000000 # a : 0.0
</slha>
<initrwgt>
<weightgroup name='mg_reweighting' weight_name_strategy='includeIdInWeightName'>
<weight id='morphing_basis_vector_1'>set param_card oblique 1 -0.06391685 # orig: 0.0
set param_card oblique 2 -0.08653588 # orig: 0.0
</weight>
<weight id='morphing_basis_vector_2'>set param_card oblique 1 0.0342439 # orig: 0.0
set param_card oblique 2 -0.09831893 # orig: 0.0
</weight>
<weight id='morphing_basis_vector_3'>set param_card oblique 1 -0.08145691 # orig: 0.0
set param_card oblique 2 0.09700122 # orig: 0.0
</weight>
<weight id='morphing_basis_vector_4'>set param_card oblique 1 0.09132942 # orig: 0.0
set param_card oblique 2 -0.005442744 # orig: 0.0
</weight>
<weight id='morphing_basis_vector_5'>set param_card oblique 1 0.08535809 # orig: 0.0
set param_card oblique 2 0.08156918 # orig: 0.0
</weight>
</weightgroup>
</initrwgt>
<MGGenerationInfo>
#  Number of Events        :       1000
#  Integrated weight (pb)  :       9.0096e-09
</MGGenerationInfo>
</header>
<init>
2212 2212 6.500000e+03 6.500000e+03 0 0 90900 90900 -3 1
9.009600e-09 3.675381e-11 9.009600e-12 1
<generator name='MadGraph5_aMC@NLO' version='2.6.4'>please cite 1405.0301 </generator>
</init>
<event>
 4      1 +9.0096000e-12 6.01049800e+03 7.81860800e-03 7.26055600e-02
        2 -1    0    0  501    0 +0.0000000000e+00 +0.0000000000e+00 +3.5300599405e+03 3.5300599405e+03 0.0000000000e+00 0.0000e+00 -1.0000e+00
       -2 -1    0    0    0  501 -0.0000000000e+00 -0.0000000000e+00 -2.5584612373e+03 2.5584612373e+03 0.0000000000e+00 0.0000e+00 1.0000e+00
      -13  1    1    2    0    0 +2.1051572886e+03 +1.1534737464e+03 +2.3174005507e+03 3.3365452501e+03 0.0000000000e+00 0.0000e+00 -1.0000e+00
       13  1    1    2    0    0 -2.1051572886e+03 -1.1534737464e+03 -1.3458018476e+03 2.7519759277e+03 0.0000000000e+00 0.0000e+00 1.0000e+00
<mgrwt>
<rscale>  0 0.60104980E+04</rscale>
<asrwt>0</asrwt>
<pdfrwt beam="1">  1        2 0.54308615E+00 0.60104980E+04</pdfrwt>
<pdfrwt beam="2">  1       -2 0.39360942E+00 0.60104980E+04</pdfrwt>
<totfact> 0.35706884E-03</totfact>
</mgrwt>
<rwgt>
<wgt id='morphing_basis_vector_1'> +1.9663955e-06 </wgt>
<wgt id='morphing_basis_vector_2'> +2.1884162e-06 </wgt>
<wgt id='morphing_basis_vector_3'> +2.3699522e-06 </wgt>
<wgt id='morphing_basis_vector_4'> +4.6263031e-07 </wgt>
<wgt id='morphing_basis_vector_5'> +1.9574571e-06 </wgt>
</rwgt>
</event>
<event>
 4      1 +9.0096000e-12 6.63832900e+03 7.81860800e-03 7.19542400e-02
        2 -1    0    0  501    0 +0.0000000000e+00 +0.0000000000e+00 +2.9973507827e+03 2.9973507827e+03 0.0000000000e+00 0.0000e+00 -1.0000e+00
       -2 -1    0    0    0  501 -0.0000000000e+00 -0.0000000000e+00 -3.6755306056e+03 3.6755306056e+03 0.0000000000e+00 0.0000e+00 1.0000e+00
      -13  1    1    2    0    0 +1.0273964175e+03 -1.4776831584e+02 -3.5081928004e+03 3.6585236912e+03 0.0000000000e+00 0.0000e+00 1.0000e+00
       13  1    1    2    0    0 -1.0273964175e+03 +1.4776831584e+02 +2.8300129774e+03 3.0143576971e+03 0.0000000000e+00 0.0000e+00 -1.0000e+00
<mgrwt>
<rscale>  0 0.66383295E+04</rscale>
<asrwt>0</asrwt>
<pdfrwt beam="1">  1        2 0.46113089E+00 0.66383295E+04</pdfrwt>
<pdfrwt beam="2">  1       -2 0.56546625E+00 0.66383295E+04</pdfrwt>
<totfact> 0.47917625E-04</totfact>
</mgrwt>
<rwgt>
<wgt id='morphing_basis_vector_1'> +2.3622575e-06 </wgt>
<wgt id='morphing_basis_vector_2'> +1.6069868e-06 </wgt>
<wgt id='morphing_basis_vector_3'> +2.6090023e-06 </wgt>
<wgt id='morphing_basis_vector_4'> +1.8915064e-06 </wgt>
<wgt id='morphing_basis_vector_5'> +3.0160919e-06 </wgt>
</rwgt>
</event>
<event>
 4      1 +9.0096000e-12 5.70176300e+03 7.81860800e-03 7.29562500e-02
        2 -1    0    0  501    0 +0.0000000000e+00 +0.0000000000e+00 +4.7496950239e+03 4.7496950239e+03 0.0000000000e+00 0.0000e+00 1.0000e+00
       -2 -1    0    0    0  501 -0.0000000000e+00 -0.0000000000e+00 -1.7111677517e+03 1.7111677517e+03 0.0000000000e+00 0.0000e+00 -1.0000e+00
      -13  1    1    2    0    0 -2.1627697976e+03 +1.6162997263e+03 +2.5562684240e+03 3.7181320926e+03 0.0000000000e+00 0.0000e+00 -1.0000e+00
       13  1    1    2    0    0 +2.1627697976e+03 -1.6162997263e+03 +4.8225884822e+02 2.7427306830e+03 0.0000000000e+00 0.0000e+00 1.0000e+00
<mgrwt>
<rscale>  0 0.57017629E+04</rscale>
<asrwt>0</asrwt>
<pdfrwt beam="1">  1        2 0.73072231E+00 0.57017629E+04</pdfrwt>
<pdfrwt beam="2">  1       -2 0.26325658E+00 0.57017629E+04</pdfrwt>
<totfact> 0.20367774E-03</totfact>
</mgrwt>
<rwgt>
<wgt id='morphing_basis_vector_1'> +1.4279018e-06 </wgt>
<wgt id='morphing_basis_vector_2'> +1.2875864e-06 </wgt>
<wgt id='morphing_basis_vector_3'> +1.6491976e-06 </wgt>
<wgt id='morphing_basis_vector_4'> +7.2785696e-07 </wgt>
<wgt id='morphing_basis_vector_5'> +1.6141831e-06 </wgt>
</rwgt>
</event>
<event>
 4      1 +9.0096000e-12 5.87745300e+03 7.81860800e-03 7.27539900e-02
        2 -1    0    0  501    0 +0.0000000000e+00 +0.0000000000e+00 +3.0293800986e+03 3.0293800986e+03 0.0000000000e+00 0.0000e+00 1.0000e+00
       -2 -1    0    0    0  501 -0.0000000000e+00 -0.0000000000e+00 -2.8507856670e+03 2.8507856670e+03 0.0000000000e+00 0.0000e+00 -1.0000e+00
      -13  1    1    2    0    0 +2.4424007732e+03 +1.5076901626e+03 +7.2019290915e+02 2.9592446654e+03 0.0000000000e+00 0.0000e+00 1.0000e+00
       13  1    1    2    0    0 -2.4424007732e+03 -1.5076901626e+03 -5.4159847754e+02 2.9209211003e+03 0.0000000000e+00 0.0000e+00 -1.0000e+00
<mgrwt>
<rscale>  0 0.58774530E+04</rscale>
<asrwt>0</asrwt>
<pdfrwt beam="1">  1        2 0.46605848E+00 0.58774530E+04</pdfrwt>
<pdfrwt beam="2">  1       -2 0.43858241E+00 0.58774530E+04</pdfrwt>
<totfact> 0.40415955E-03</totfact>
</mgrwt>
<rwgt>
<wgt id='morphing_basis_vector_1'> +1.5654850e-06 </wgt>
<wgt id='morphing_basis_vector_2'> +1.3177751e-06 </wgt>
<wgt id='morphing_basis_vector_3'> +1.7867367e-06 </wgt>
<wgt id='morphing_basis_vector_4'> +9.2088881e-07 </wgt>
<wgt id='morphing_basis_vector_5'> +1.8313440e-06 </wgt>
</rwgt>
</event>
<event>
 4      1 +9.0096000e-12 5.55607200e+03 7.81860800e-03 7.31296900e-02
        2 -1    0    0  501    0 +0.0000000000e+00 +0.0000000000e+00 +4.1653133028e+03 4.1653133028e+03 0.0000000000e+00 0.0000e+00 1.0000e+00
       -2 -1    0    0    0  501 -0.0000000000e+00 -0.0000000000e+00 -1.8527982797e+03 1.8527982797e+03 0.0000000000e+00 0.0000e+00 -1.0000e+00
      -13  1    1    2    0    0 -1.7358552894e+03 -1.5397444484e+03 -4.9834721661e+02 2.3732586249e+03 0.0000000000e+00 0.0000e+00 -1.0000e+00
       13  1    1    2    0    0 +1.7358552894e+03 +1.5397444484e+03 +2.8108622396e+03 3.6448529576e+03 0.0000000000e+00 0.0000e+00 1.0000e+00
<mgrwt>
<rscale>  0 0.55560725E+04</rscale>
<asrwt>0</asrwt>
<pdfrwt beam="1">  1        2 0.64081743E+00 0.55560725E+04</pdfrwt>
<pdfrwt beam="2">  1       -2 0.28504589E+00 0.55560725E+04</pdfrwt>
<totfact> 0.57922990E-03</totfact>
</mgrwt>
<rwgt>
<wgt id='morphing_basis_vector_1'> +1.1649999e-06 </wgt>
<wgt id='morphing_basis_vector_2'> +8.0062829e-07 </wgt>
<wgt id='morphing_basis_vector_3'> +1.2868413e-06 </wgt>
<wgt id='morphing_basis_vector_4'> +9.1840810e-07 </wgt>
<wgt id='morphing_basis_vector_5'> +1.4770867e-06 </wgt>
</rwgt>
</event>
<event>
 4      1 +9.0096000e-12 5.69432600e+03 7.81860800e-03 7.29649700e-02
        2 -1    0    0  501    0 +0.0000000000e+00 +0.0000000000e+00 +4.0299845747e+03 4.0299845747e+03 0.0000000000e+00 0.0000e+00 -1.0000e+00
       -2 -1    0    0    0  501 -0.0000000000e+00 -0.0000000000e+00 -2.0115059184e+03 2.0115059184e+03 0.0000000000e+00 0.0000e+00 1.0000e+00
      -13  1    1    2    0    0 +2.2610969451e+03 +7.2654759513e+02 -6.5681860919e+02 2.4641106892e+03 0.0000000000e+00 0.0000e+00 1.0000e+00
       13  1    1    2    0    0 -2.2610969451e+03 -7.2654759513e+02 +2.6752972654e+03 3.5773798039e+03 0.0000000000e+00 0.0000e+00 -1.0000e+00
<mgrwt>
<rscale>  0 0.56943262E+04</rscale>
<asrwt>0</asrwt>
<pdfrwt beam="1">  1        2 0.61999762E+00 0.56943262E+04</pdfrwt>
<pdfrwt beam="2">  1       -2 0.30946245E+00 0.56943262E+04</pdfrwt>
<totfact> 0.51660200E-03</totfact>
</mgrwt>
<rwgt>
<wgt id='morphing_basis_vector_1'> +1.2849873e-06 </wgt>
<wgt id='morphing_basis_vector_2'> +8.8313009e-07 </wgt>
<wgt id='morphing_basis_vector_3'> +1.4196986e-06 </wgt>
<wgt id='morphing_basis_vector_4'> +1.0136208e-06 </wgt>
<wgt id='morphing_basis_vector_5'> +1.6300938e-06 </wgt>
</rwgt>
</event>
<event>
 4      1 +9.0096000e-12 6.11156300e+03 7.81860800e-03 7.24954000e-02
        2 -1    0    0  501    0 +0.0000000000e+00 +0.0000000000e+00 +3.7074638065e+03 3.7074638065e+03 0.0000000000e+00 0.0000e+00 1.0000e+00
       -2 -1    0    0    0  501 -0.0000000000e+00 -0.0000000000e+00 -2.5186489589e+03 2.5186489589e+03 0.0000000000e+00 0.0000e+00 -1.0000e+00
      -13  1    1    2    0    0 -2.7122297731e+03 +1.3890953768e+03 +3.6204564623e+02 3.0686891922e+03 0.0000000000e+00 0.0000e+00 -1.0000e+00
       13  1    1    2    0    0 +2.7122297731e+03 -1.3890953768e+03 +8.2676920133e+02 3.1574235732e+03 0.0000000000e+00 0.0000e+00 1.0000e+00
<mgrwt>
<rscale>  0 0.61115628E+04</rscale>
<asrwt>0</asrwt>
<pdfrwt beam="1">  1        2 0.57037904E+00 0.61115628E+04</pdfrwt>
<pdfrwt beam="2">  1       -2 0.38748446E+00 0.61115628E+04</pdfrwt>
<totfact> 0.28481101E-03</totfact>
</mgrwt>
<rwgt>
<wgt id='morphing_basis_vector_1'> +1.7457554e-06 </wgt>
<wgt id='morphing_basis_vector_2'> +1.2943160e-06 </wgt>
<wgt id='morphing_basis_vector_3'> +1.9520873e-06 </wgt>
<wgt id='morphing_basis_vector_4'> +1.2562950e-06 </wgt>
<wgt id='morphing_basis_vector_5'> +2.1568394e-06 </wgt>
</rwgt>
</event>
<event>
 4      1 +9.0096000e-12 5.68179500e+03 7.81860800e-03 7.29797000e-02
        2 -1    0    0  501    0 +0.0000000000e+00 +0.0000000000e+00 +4.0893185080e+03 4.0893185080e+03 0.0000000000e+00 0.0000e+00 -1.0000e+00
       -2 -1    0    0    0  501 -0.0000000000e+00 -0.0000000000e+00 -1.9736049992e+03 1.9736049992e+03 0.0000000000e+00 0.0000e+00 1.0000e+00
      -13  1    1    2    0    0 +1.7809555901e+03 +2.0823640552e+03 +1.8582772607e+03 3.3107759287e+03 0.0000000000e+00 0.0000e+00 1.0000e+00
       13  1    1    2    0    0 -1.7809555901e+03 -2.0823640552e+03 +2.5743624808e+02 2.7521475785e+03 0.0000000000e+00 0.0000e+00 -1.0000e+00
<mgrwt>
<rscale>  0 0.56817953E+04</rscale>
<asrwt>0</asrwt>
<pdfrwt beam="1">  1        2 0.62912593E+00 0.56817953E+04</pdfrwt>
<pdfrwt beam="2">  1       -2 0.30363154E+00 0.56817953E+04</pdfrwt>
<totfact> 0.50235819E-03</totfact>
</mgrwt>
<rwgt>
<wgt id='morphing_basis_vector_1'> +1.3849691e-06 </wgt>
<wgt id='morphing_basis_vector_2'> +1.2019051e-06 </wgt>
<wgt id='morphing_basis_vector_3'> +1.5885689e-06 </wgt>
<wgt id='morphing_basis_vector_4'> +7.6702298e-07 </wgt>
<wgt id='morphing_basis_vector_5'> +1.5957828e-06 </wgt>
</rwgt>
</event>
<event>
 4      1 +9.0096000e-12 5.69893700e+03 7.81860800e-03 7.29595600e-02
        2 -1    0    0  501    0 +0.0000000000e+00 +0.0000000000e+00 +2.9657897910e+03 2.9657897910e+03 0.0000000000e+00 0.0000e+00 -1.0000e+00
       -2 -1    0    0    0  501 -0.0000000000e+00 -0.0000000000e+00 -2.7377091885e+03 2.7377091885e+03 0.0000000000e+00 0.0000e+00 1.0000e+00
      -13  1    1    2    0    0 -5.6631762444e+02 -1.3492217823e+03 -2.3329845447e+03 2.7538939622e+03 0.0000000000e+00 0.0000e+00 1.0000e+00
       13  1    1    2    0    0 +5.6631762444e+02 +1.3492217823e+03 +2.5610651472e+03 2.9496050173e+03 0.0000000000e+00 0.0000e+00 -1.0000e+00
<mgrwt>
<rscale>  0 0.56989367E+04</rscale>
<asrwt>0</asrwt>
<pdfrwt beam="1">  1        2 0.45627536E+00 0.56989367E+04</pdfrwt>
<pdfrwt beam="2">  1       -2 0.42118603E+00 0.56989367E+04</pdfrwt>
<totfact> 0.58999123E-03</totfact>
</mgrwt>
<rwgt>
<wgt id='morphing_basis_vector_1'> +1.2851022e-06 </wgt>
<wgt id='morphing_basis_vector_2'> +8.7412759e-07 </wgt>
<wgt id='morphing_basis_vector_3'> +1.4177128e-06 </wgt>
<wgt id='morphing_basis_vector_4'> +1.0255518e-06 </wgt>
<wgt id='morphing_basis_vector_5'> +1.6361182e-06 </wgt>
</rwgt>
</event>
<event>
 4      1 +9.0096000e-12 5.61823200e+03 7.81860800e-03 7.30550300e-02
        2 -1    0    0  501    0 +0.0000000000e+00 +0.0000000000e+00 +3.5911331583e+03 3.5911331583e+03 0.0000000000e+00 0.0000e+00 -1.0000e+00
       -2 -1    0    0    0  501 -0.0000000000e+00 -0.0000000000e+00 -2.1973936631e+03 2.1973936631e+03 0.0000000000e+00 0.0000e+00 1.0000e+00
      -13  1    1    2    0    0 +1.1347053136e+03 -6.9668743213e+02 -1.8516049892e+03 2.2806513462e+03 0.0000000000e+00 0.0000e+00 1.0000e+00
       13  1    1    2    0    0 -1.1347053136e+03 +6.9668743213e+02 +3.2453444845e+03 3.5078754752e+03 0.0000000000e+00 0.0000e+00 -1.0000e+00
<mgrwt>
<rscale>  0 0.56182322E+04</rscale>
<asrwt>0</asrwt>
<pdfrwt beam="1">  1        2 0.55248203E+00 0.56182322E+04</pdfrwt>
<pdfrwt beam="2">  1       -2 0.33806056E+00 0.56182322E+04</pdfrwt>
<totfact> 0.75666307E-03</totfact>
</mgrwt>
<rwgt>
<wgt id='morphing_basis_vector_1'> +1.2139277e-06 </wgt>
<wgt id='morphing_basis_vector_2'> +8.2544020e-07 </wgt>
<wgt id='morphing_basis_vector_3'> +1.3389635e-06 </wgt>
<wgt id='morphing_basis_vector_4'> +9.6873807e-07 </wgt>
<wgt id='morphing_basis_vector_5'> +1.5451878e-06 </wgt>
</rwgt>
</event>
<event>
 4      1 +9.0096000e-12 5.94594900e+03 7.81860800e-03 7.26770800e-02
        2 -1    0    0  501    0 +0.0000000000e+00 +0.0000000000e+00 +5.1070187284e+03 5.1070187284e+03 0.0000000000e+00 0.0000e+00 -1.0000e+00
       -2 -1    0    0    0  501 -0.0000000000e+00 -0.0000000000e+00 -1.7306725256e+03 1.7306725256e+03 0.0000000000e+00 0.0000e+00 1.0000e+00
      -13  1    1    2    0    0 -1.9280399437e+03 +1.6768425323e+03 -5.9424658771e+01 2.5559088780e+03 0.0000000000e+00 0.0000e+00 1.0000e+00
       13  1    1    2    0    0 +1.9280399437e+03 -1.6768425323e+03 +3.4357708615e+03 4.2817823760e+03 0.0000000000e+00 0.0000e+00 -1.0000e+00
<mgrwt>
<rscale>  0 0.59459489E+04</rscale>
<asrwt>0</asrwt>
<pdfrwt beam="1">  1        2 0.78569518E+00 0.59459489E+04</pdfrwt>
<pdfrwt beam="2">  1       -2 0.26625732E+00 0.59459489E+04</pdfrwt>
<totfact> 0.66166690E-04</totfact>
</mgrwt>
<rwgt>
<wgt id='morphing_basis_vector_1'> +1.5282598e-06 </wgt>
<wgt id='morphing_basis_vector_2'> +1.0534770e-06 </wgt>
<wgt id='morphing_basis_vector_3'> +1.6898227e-06 </wgt>
<wgt id='morphing_basis_vector_4'> +1.2027372e-06 </wgt>
<wgt id='morphing_basis_vector_5'> +1.9384372e-06 </wgt>
</rwgt>
</event>
<event>
 4      1 +9.0096000e-12 6.37164800e+03 7.81860800e-03 7.22215800e-02
        2 -1    0    0  501    0 +0.0000000000e+00 +0.0000000000e+00 +2.8954655887e+03 2.8954655887e+03 0.0000000000e+00 0.0000e+00 1.0000e+00
       -2 -1    0    0    0  501 -0.0000000000e+00 -0.0000000000e+00 -3.5052997257e+03 3.5052997257e+03 0.0000000000e+00 0.0000e+00 -1.0000e+00
      -13  1    1    2    0    0 +1.9740740869e+03 +8.7815175864e+02 +2.0470114519e+03 2.9763022185e+03 0.0000000000e+00 0.0000e+00 1.0000e+00
       13  1    1    2    0    0 -1.9740740869e+03 -8.7815175864e+02 -2.6568455889e+03 3.4244630959e+03 0.0000000000e+00 0.0000e+00 -1.0000e+00
<mgrwt>
<rscale>  0 0.63716481E+04</rscale>
<asrwt>0</asrwt>
<pdfrwt beam="1">  1        2 0.44545625E+00 0.63716481E+04</pdfrwt>
<pdfrwt beam="2">  1       -2 0.53927688E+00 0.63716481E+04</pdfrwt>
<totfact> 0.87677936E-04</totfact>
</mgrwt>
<rwgt>
<wgt id='morphing_basis_vector_1'> +2.6195607e-06 </wgt>
<wgt id='morphing_basis_vector_2'> +3.1660170e-06 </wgt>
<wgt id='morphing_basis_vector_3'> +3.2185326e-06 </wgt>
<wgt id='morphing_basis_vector_4'> +2.9015485e-07 </wgt>
<wgt id='morphing_basis_vector_5'> +2.4483938e-06 </wgt>
</rwgt>
</event>
<event>
 4      1 +9.0096000e-12 5.66416200e+03 7.81860800e-03 7.30005000e-02
        2 -1    0    0  501    0 +0.0000000000e+00 +0.0000000000e+00 +3.3258974108e+03 3.3258974108e+03 0.0000000000e+00 0.0000e+00 1.0000e+00
       -2 -1    0    0    0  501 -0.0000000000e+00 -0.0000000000e+00 -2.4115842122e+03 2.4115842122e+03 0.0000000000e+00 0.0000e+00 -1.0000e+00
      -13  1    1    2    0    0 +1.1058656084e+03 +1.1648081142e+03 -1.9056253124e+03 2.4922127754e+03 0.0000000000e+00 0.0000e+00 -1.0000e+00
       13  1    1    2    0    0 -1.1058656084e+03 -1.1648081142e+03 +2.8199385111e+03 3.2452688476e+03 0.0000000000e+00 0.0000e+00 1.0000e+00
<mgrwt>
<rscale>  0 0.56641616E+04</rscale>
<asrwt>0</asrwt>
<pdfrwt beam="1">  1        2 0.51167652E+00 0.56641616E+04</pdfrwt>
<pdfrwt beam="2">  1       -2 0.37101296E+00 0.56641616E+04</pdfrwt>
<totfact> 0.71926551E-03</totfact>
</mgrwt>
<rwgt>
<wgt id='morphing_basis_vector_1'> +1.2542794e-06 </wgt>
<wgt id='morphing_basis_vector_2'> +8.5353572e-07 </wgt>
<wgt id='morphing_basis_vector_3'> +1.3837236e-06 </wgt>
<wgt id='morphing_basis_vector_4'> +1.0003046e-06 </wgt>
<wgt id='morphing_basis_vector_5'> +1.5964194e-06 </wgt>
</rwgt>
</event>
<event>
 4      1 +9.0096000e-12 6.34267200e+03 7.81860800e-03 7.22514200e-02
        2 -1    0    0  501    0 +0.0000000000e+00 +0.0000000000e+00 +5.2137256329e+03 5.2137256329e+03 0.0000000000e+00 0.0000e+00 1.0000e+00
       -2 -1    0    0    0  501 -0.0000000000e+00 -0.0000000000e+00 -1.9290185179e+03 1.9290185179e+03 0.0000000000e+00 0.0000e+00 -1.0000e+00
      -13  1    1    2    0    0 +4.7595789860e+02 +3.1046797605e+03 +1.1491590880e+03 3.3445685740e+03 0.0000000000e+00 0.0000e+00 -1.0000e+00
       13  1    1    2    0    0 -4.7595789860e+02 -3.1046797605e+03 +2.1355480270e+03 3.7981755768e+03 0.0000000000e+00 0.0000e+00 1.0000e+00
<mgrwt>
<rscale>  0 0.63426724E+04</rscale>
<asrwt>0</asrwt>
<pdfrwt beam="1">  1        2 0.80211163E+00 0.63426724E+04</pdfrwt>
<pdfrwt beam="2">  1       -2 0.29677208E+00 0.63426724E+04</pdfrwt>
<totfact> 0.27716658E-04</totfact>
</mgrwt>
<rwgt>
<wgt id='morphing_basis_vector_1'> +2.0127873e-06 </wgt>
<wgt id='morphing_basis_vector_2'> +1.4667593e-06 </wgt>
<wgt id='morphing_basis_vector_3'> +2.2453297e-06 </wgt>
<wgt id='morphing_basis_vector_4'> +1.4829739e-06 </wgt>
<wgt id='morphing_basis_vector_5'> +2.5049331e-06 </wgt>
</rwgt>
</event>
<event>
 4      1 +9.0096000e-12 5.83872600e+03 7.81860800e-03 7.27979500e-02
        2 -1    0    0  501    0 +0.0000000000e+00 +0.0000000000e+00 +4.1448236196e+03 4.1448236196e+03 0.0000000000e+00 0.0000e+00 -1.0000e+00
       -2 -1    0    0    0  501 -0.0000000000e+00 -0.0000000000e+00 -2.0562225328e+03 2.0562225328e+03 0.0000000000e+00 0.0000e+00 1.0000e+00
      -13  1    1    2    0    0 -5.4352001376e+02 -2.2376664871e+03 -8.6152233011e+02 2.4586146583e+03 0.0000000000e+00 0.0000e+00 1.0000e+00
       13  1    1    2    0    0 +5.4352001376e+02 +2.2376664871e+03 +2.9501234169e+03 3.7424314941e+03 0.0000000000e+00 0.0000e+00 -1.0000e+00
<mgrwt>
<rscale>  0 0.58387258E+04</rscale>
<asrwt>0</asrwt>
<pdfrwt beam="1">  1        2 0.63766517E+00 0.58387258E+04</pdfrwt>
<pdfrwt beam="2">  1       -2 0.31634193E+00 0.58387258E+04</pdfrwt>
<totfact> 0.36430286E-03</totfact>
</mgrwt>
<rwgt>
<wgt id='morphing_basis_vector_1'> +1.4185041e-06 </wgt>
<wgt id='morphing_basis_vector_2'> +9.7163036e-07 </wgt>
<wgt id='morphing_basis_vector_3'> +1.5667818e-06 </wgt>
<wgt id='morphing_basis_vector_4'> +1.1239143e-06 </wgt>
<wgt id='morphing_basis_vector_5'> +1.8025393e-06 </wgt>
</rwgt>
</event>
<event>
 4      1 +9.0096000e-12 5.58232700e+03 7.81860800e-03 7.30980300e-02
        2 -1    0    0  501    0 +0.0000000000e+00 +0.0000000000e+00 +4.5219588923e+03 4.5219588923e+03 0.0000000000e+00 0.0000e+00 1.0000e+00
       -2 -1    0    0    0  501 -0.0000000000e+00 -0.0000000000e+00 -1.7228360983e+03 1.7228360983e+03 0.0000000000e+00 0.0000e+00 -1.0000e+00
      -13  1    1    2    0    0 +8.2041295903e+02 -1.3599488074e+03 -1.1680428656e+03 1.9715126979e+03 0.0000000000e+00 0.0000e+00 -1.0000e+00
       13  1    1    2    0    0 -8.2041295903e+02 +1.3599488074e+03 +3.9671656596e+03 4.2732822927e+03 0.0000000000e+00 0.0000e+00 1.0000e+00
<mgrwt>
<rscale>  0 0.55823271E+04</rscale>
<asrwt>0</asrwt>
<pdfrwt beam="1">  1        2 0.69568598E+00 0.55823271E+04</pdfrwt>
<pdfrwt beam="2">  1       -2 0.26505171E+00 0.55823271E+04</pdfrwt>
<totfact> 0.35620325E-03</totfact>
</mgrwt>
<rwgt>
<wgt id='morphing_basis_vector_1'> +1.1835356e-06 </wgt>
<wgt id='morphing_basis_vector_2'> +8.0533733e-07 </wgt>
<wgt id='morphing_basis_vector_3'> +1.3054980e-06 </wgt>
<wgt id='morphing_basis_vector_4'> +9.4358632e-07 </wgt>
<wgt id='morphing_basis_vector_5'> +1.5059198e-06 </wgt>
</rwgt>
</event>
<event>
 4      1 +9.0096000e-12 5.61789900e+03 7.81860800e-03 7.30554300e-02
        2 -1    0    0  501    0 +0.0000000000e+00 +0.0000000000e+00 +3.7593411896e+03 3.7593411896e+03 0.0000000000e+00 0.0000e+00 -1.0000e+00
       -2 -1    0    0    0  501 -0.0000000000e+00 -0.0000000000e+00 -2.0988247284e+03 2.0988247284e+03 0.0000000000e+00 0.0000e+00 1.0000e+00
      -13  1    1    2    0    0 -1.9472970081e+03 -8.8619850780e+02 -1.0677184960e+03 2.3910951925e+03 0.0000000000e+00 0.0000e+00 1.0000e+00
       13  1    1    2    0    0 +1.9472970081e+03 +8.8619850780e+02 +2.7282349573e+03 3.4670707255e+03 0.0000000000e+00 0.0000e+00 -1.0000e+00
<mgrwt>
<rscale>  0 0.56178993E+04</rscale>
<asrwt>0</asrwt>
<pdfrwt beam="1">  1        2 0.57836018E+00 0.56178993E+04</pdfrwt>
<pdfrwt beam="2">  1       -2 0.32289611E+00 0.56178993E+04</pdfrwt>
<totfact> 0.70669664E-03</totfact>
</mgrwt>
<rwgt>
<wgt id='morphing_basis_vector_1'> +1.2156924e-06 </wgt>
<wgt id='morphing_basis_vector_2'> +8.3126774e-07 </wgt>
<wgt id='morphing_basis_vector_3'> +1.3419897e-06 </wgt>
<wgt id='morphing_basis_vector_4'> +9.6412475e-07 </wgt>
<wgt id='morphing_basis_vector_5'> +1.5444524e-06 </wgt>
</rwgt>
</event>
<event>
 4      1 +9.0096000e-12 5.65682700e+03 7.81860800e-03 7.30091700e-02
        2 -1    0    0  501    0 +0.0000000000e+00 +0.0000000000e+00 +3.9195189254e+03 3.9195189254e+03 0.0000000000e+00 0.0000e+00 1.0000e+00
       -2 -1    0    0    0  501 -0.0000000000e+00 -0.0000000000e+00 -2.0410471896e+03 2.0410471896e+03 0.0000000000e+00 0.0000e+00 -1.0000e+00
      -13  1    1    2    0    0 -8.4027431842e+02 -1.8167547651e+03 -1.1663775275e+03 2.3166992345e+03 0.0000000000e+00 0.0000e+00 -1.0000e+00
       13  1    1    2    0    0 +8.4027431842e+02 +1.8167547651e+03 +3.0448492633e+03 3.6438668805e+03 0.0000000000e+00 0.0000e+00 1.0000e+00
<mgrwt>
<rscale>  0 0.56568271E+04</rscale>
<asrwt>0</asrwt>
<pdfrwt beam="1">  1        2 0.60300291E+00 0.56568271E+04</pdfrwt>
<pdfrwt beam="2">  1       -2 0.31400726E+00 0.56568271E+04</pdfrwt>
<totfact> 0.59898786E-03</totfact>
</mgrwt>
<rwgt>
<wgt id='morphing_basis_vector_1'> +1.2488386e-06 </wgt>
<wgt id='morphing_basis_vector_2'> +8.5214157e-07 </wgt>
<wgt id='morphing_basis_vector_3'> +1.3782450e-06 </wgt>
<wgt id='morphing_basis_vector_4'> +9.9292729e-07 </wgt>
<wgt id='morphing_basis_vector_5'> +1.5879619e-06 </wgt>
</rwgt>
</event>
<event>
 4      1 +9.0096000e-12 6.44964800e+03 7.81860800e-03 7.21420300e-02
        2 -1    0    0  501    0 +0.0000000000e+00 +0.0000000000e+00 +4.2738841111e+03 4.2738841111e+03 0.0000000000e+00 0.0000e+00 1.0000e+00
       -2 -1    0    0    0  501 -0.0000000000e+00 -0.0000000000e+00 -2.4332641422e+03 2.4332641422e+03 0.0000000000e+00 0.0000e+00 -1.0000e+00
      -13  1    1    2    0    0 +2.4389133486e+02 -1.2217505948e+03 -2.1728904343e+03 2.5047176166e+03 0.0000000000e+00 0.0000e+00 -1.0000e+00
       13  1    1    2    0    0 -2.4389133486e+02 +1.2217505948e+03 +4.0135104033e+03 4.2024306367e+03 0.0000000000e+00 0.0000e+00 1.0000e+00
<mgrwt>
<rscale>  0 0.64496477E+04</rscale>
<asrwt>0</asrwt>
<pdfrwt beam="1">  1        2 0.65752063E+00 0.64496477E+04</pdfrwt>
<pdfrwt beam="2">  1       -2 0.37434833E+00 0.64496477E+04</pdfrwt>
<totfact> 0.11089137E-03</totfact>
</mgrwt>
<rwgt>
<wgt id='morphing_basis_vector_1'> +2.1054721e-06 </wgt>
<wgt id='morphing_basis_vector_2'> +1.4322966e-06 </wgt>
<wgt id='morphing_basis_vector_3'> +2.3249576e-06 </wgt>
<wgt id='morphing_basis_vector_4'> +1.6849224e-06 </wgt>
<wgt id='morphing_basis_vector_5'> +2.6869418e-06 </wgt>
</rwgt>
</event>
<event>
 4      1 +9.0096000e-12 5.90688900e+03 7.81860800e-03 7.27208100e-02
        2 -1    0    0  501    0 +0.0000000000e+00 +0.0000000000e+00 +2.6609776907e+03 2.6609776907e+03 0.0000000000e+00 0.0000e+00 -1.0000e+00
       -2 -1    0    0    0  501 -0.0000000000e+00 -0.0000000000e+00 -3.2780564764e+03 3.2780564764e+03 0.0000000000e+00 0.0000e+00 1.0000e+00
      -13  1    1    2    0    0 +1.3516923382e+03 +2.0283424723e+03 -1.9854253871e+03 3.1437492473e+03 0.0000000000e+00 0.0000e+00 1.0000e+00
       13  1    1    2    0    0 -1.3516923382e+03 -2.0283424723e+03 +1.3683466014e+03 2.7952849199e+03 0.0000000000e+00 0.0000e+00 -1.0000e+00
<mgrwt>
<rscale>  0 0.59068892E+04</rscale>
<asrwt>0</asrwt>
<pdfrwt beam="1">  1        2 0.40938118E+00 0.59068892E+04</pdfrwt>
<pdfrwt beam="2">  1       -2 0.50431638E+00 0.59068892E+04</pdfrwt>
<totfact> 0.23037054E-03</totfact>
</mgrwt>
<rwgt>
<wgt id='morphing_basis_vector_1'> +1.4869701e-06 </wgt>
<wgt id='morphing_basis_vector_2'> +1.0213425e-06 </wgt>
<wgt id='morphing_basis_vector_3'> +1.6432198e-06 </wgt>
<wgt id='morphing_basis_vector_4'> +1.1748363e-06 </wgt>
<wgt id='morphing_basis_vector_5'> +1.8881805e-06 </wgt>
</rwgt>
</event>
<event>
 4      1 +9.0096000e-12 5.56685900e+03 7.81860800e-03 7.31166600e-02
        2 -1    0    0  501    0 +0.0000000000e+00 +0.0000000000e+00 +2.7363782008e+03 2.7363782008e+03 0.0000000000e+00 0.0000e+00 -1.0000e+00
       -2 -1    0    0    0  501 -0.0000000000e+00 -0.0000000000e+00 -2.8312893771e+03 2.8312893771e+03 0.0000000000e+00 0.0000e+00 1.0000e+00
      -13  1    1    2    0    0 +1.4875435829e+03 -3.5639430549e+02 -2.3732345157e+03 2.8234809861e+03 0.0000000000e+00 0.0000e+00 1.0000e+00
       13  1    1    2    0    0 -1.4875435829e+03 +3.5639430549e+02 +2.2783233394e+03 2.7441865919e+03 0.0000000000e+00 0.0000e+00 -1.0000e+00
<mgrwt>
<rscale>  0 0.55668586E+04</rscale>
<asrwt>0</asrwt>
<pdfrwt beam="1">  1        2 0.42098126E+00 0.55668586E+04</pdfrwt>
<pdfrwt beam="2">  1       -2 0.43558298E+00 0.55668586E+04</pdfrwt>
<totfact> 0.66666168E-03</totfact>
</mgrwt>
<rwgt>
<wgt id='morphing_basis_vector_1'> +1.1704360e-06 </wgt>
<wgt id='morphing_basis_vector_2'> +7.9625117e-07 </wgt>
<wgt id='morphing_basis_vector_3'> +1.2909761e-06 </wgt>
<wgt id='morphing_basis_vector_4'> +9.3329515e-07 </wgt>
<wgt id='morphing_basis_vector_5'> +1.4892680e-06 </wgt>
</rwgt>
</event>
<event>
 4      1 +9.0096000e-12 6.33854400e+03 7.81860800e-03 7.22556900e-02
        2 -1    0    0  501    0 +0.0000000000e+00 +0.0000000000e+00 +3.2781016374e+03 3.2781016374e+03 0.0000000000e+00 0.0000e+00 1.0000e+00
       -2 -1    0    0    0  501 -0.0000000000e+00 -0.0000000000e+00 -3.0640555339e+03 3.0640555339e+03 0.0000000000e+00 0.0000e+00 -1.0000e+00
      -13  1    1    2    0    0 -7.1812682116e+02 -1.8751672918e+03 +2.5604253988e+03 3.2538802569e+03 0.0000000000e+00 0.0000e+00 1.0000e+00
       13  1    1    2    0    0 +7.1812682116e+02 +1.8751672918e+03 -2.3463792952e+03 3.0882769145e+03 0.0000000000e+00 0.0000e+00 -1.0000e+00
<mgrwt>
<rscale>  0 0.63385441E+04</rscale>
<asrwt>0</asrwt>
<pdfrwt beam="1">  1        2 0.50432333E+00 0.63385441E+04</pdfrwt>
<pdfrwt beam="2">  1       -2 0.47139316E+00 0.63385441E+04</pdfrwt>
<totfact> 0.15581360E-03</totfact>
</mgrwt>
<rwgt>
<wgt id='morphing_basis_vector_1'> +2.5992731e-06 </wgt>
<wgt id='morphing_basis_vector_2'> +3.1995181e-06 </wgt>
<wgt id='morphing_basis_vector_3'> +3.2070613e-06 </wgt>
<wgt id='morphing_basis_vector_4'> +2.1217575e-07 </wgt>
<wgt id='morphing_basis_vector_5'> +2.3917564e-06 </wgt>
</rwgt>
</event>
<event>
 4      1 +9.0096000e-12 6.00094000e+03 7.81860800e-03 7.26160900e-02
        2 -1    0    0  501    0 +0.0000000000e+00 +0.0000000000e+00 +1.4936105848e+03 1.4936105848e+03 0.0000000000e+00 0.0000e+00 -1.0000e+00
       -2 -1    0    0    0  501 -0.0000000000e+00 -0.0000000000e+00 -6.0275542945e+03 6.0275542945e+03 0.0000000000e+00 0.0000e+00 1.0000e+00
      -13  1    1    2    0    0 +2.5956638145e+03 -1.2985795760e+03 -3.2206896646e+03 4.3355070602e+03 0.0000000000e+00 0.0000e+00 1.0000e+00
       13  1    1    2    0    0 -2.5956638145e+03 +1.2985795760e+03 -1.3132540451e+03 3.1856578191e+03 0.0000000000e+00 0.0000e+00 -1.0000e+00
<mgrwt>
<rscale>  0 0.60009396E+04</rscale>
<asrwt>0</asrwt>
<pdfrwt beam="1">  1        2 0.22978624E+00 0.60009396E+04</pdfrwt>
<pdfrwt beam="2">  1       -2 0.92731604E+00 0.60009396E+04</pdfrwt>
<totfact> 0.85607884E-05</totfact>
</mgrwt>
<rwgt>
<wgt id='morphing_basis_vector_1'> +1.6007926e-06 </wgt>
<wgt id='morphing_basis_vector_2'> +1.1379874e-06 </wgt>
<wgt id='morphing_basis_vector_3'> +1.7782516e-06 </wgt>
<wgt id='morphing_basis_vector_4'> +1.2151326e-06 </wgt>
<wgt id='morphing_basis_vector_5'> +2.0085519e-06 </wgt>
</rwgt>
</event>
<event>
 4      1 +9.0096000e-12 5.77468500e+03 7.81860800e-03 7.28714100e-02
        2 -1    0    0  501    0 +0.0000000000e+00 +0.0000000000e+00 +3.9697463086e+03 3.9697463086e+03 0.0000000000e+00 0.0000e+00 -1.0000e+00
       -2 -1    0    0    0  501 -0.0000000000e+00 -0.0000000000e+00 -2.1000702691e+03 2.1000702691e+03 0.0000000000e+00 0.0000e+00 1.0000e+00
      -13  1    1    2    0    0 -2.1132025590e+03 +8.3747129826e+02 -9.3653634233e+02 2.4584717918e+03 0.0000000000e+00 0.0000e+00 1.0000e+00
       13  1    1    2    0    0 +2.1132025590e+03 -8.3747129826e+02 +2.8062123818e+03 3.6113447859e+03 0.0000000000e+00 0.0000e+00 -1.0000e+00
<mgrwt>
<rscale>  0 0.57746848E+04</rscale>
<asrwt>0</asrwt>
<pdfrwt beam="1">  1        2 0.61073020E+00 0.57746848E+04</pdfrwt>
<pdfrwt beam="2">  1       -2 0.32308774E+00 0.57746848E+04</pdfrwt>
<totfact> 0.46895890E-03</totfact>
</mgrwt>
<rwgt>
<wgt id='morphing_basis_vector_1'> +1.3573935e-06 </wgt>
<wgt id='morphing_basis_vector_2'> +9.2962441e-07 </wgt>
<wgt id='morphing_basis_vector_3'> +1.4991111e-06 </wgt>
<wgt id='morphing_basis_vector_4'> +1.0753836e-06 </wgt>
<wgt id='morphing_basis_vector_5'> +1.7245759e-06 </wgt>
</rwgt>
</event>
<event>
 4      1 +9.0096000e-12 5.69921100e+03 7.81860800e-03 7.29592400e-02
        2 -1    0    0  501    0 +0.0000000000e+00 +0.0000000000e+00 +4.4713568838e+03 4.4713568838e+03 0.0000000000e+00 0.0000e+00 -1.0000e+00
       -2 -1    0    0    0  501 -0.0000000000e+00 -0.0000000000e+00 -1.8160597980e+03 1.8160597980e+03 0.0000000000e+00 0.0000e+00 1.0000e+00
      -13  1    1    2    0    0 -1.7153197092e+03 -1.7727619729e+03 -2.4621048849e+02 2.4790373781e+03 0.0000000000e+00 0.0000e+00 1.0000e+00
       13  1    1    2    0    0 +1.7153197092e+03 +1.7727619729e+03 +2.9015075743e+03 3.8083793037e+03 0.0000000000e+00 0.0000e+00 -1.0000e+00
<mgrwt>
<rscale>  0 0.56992110E+04</rscale>
<asrwt>0</asrwt>
<pdfrwt beam="1">  1        2 0.68790106E+00 0.56992110E+04</pdfrwt>
<pdfrwt beam="2">  1       -2 0.27939382E+00 0.56992110E+04</pdfrwt>
<totfact> 0.31783593E-03</totfact>
</mgrwt>
<rwgt>
<wgt id='morphing_basis_vector_1'> +1.2907889e-06 </wgt>
<wgt id='morphing_basis_vector_2'> +8.9026501e-07 </wgt>
<wgt id='morphing_basis_vector_3'> +1.4268548e-06 </wgt>
<wgt id='morphing_basis_vector_4'> +1.0141241e-06 </wgt>
<wgt id='morphing_basis_vector_5'> +1.6354569e-06 </wgt>
</rwgt>
</event>
<event>
 4      1 +9.0096000e-12 6.05337500e+03 7.81860800e-03 7.25585600e-02
        2 -1    0    0  501    0 +0.0000000000e+00 +0.0000000000e+00 +3.7989316153e+03 3.7989316153e+03 0.0000000000e+00 0.0000e+00 -1.0000e+00
       -2 -1    0    0    0  501 -0.0000000000e+00 -0.0000000000e+00 -2.4114244432e+03 2.4114244432e+03 0.0000000000e+00 0.0000e+00 1.0000e+00
      -13  1    1    2    0    0 +1.2613552033e+03 +1.8328092573e+03 -1.4114420879e+03 2.6348387977e+03 0.0000000000e+00 0.0000e+00 1.0000e+00
       13  1    1    2    0    0 -1.2613552033e+03 -1.8328092573e+03 +2.7989492599e+03 3.5755172608e+03 0.0000000000e+00 0.0000e+00 -1.0000e+00
<mgrwt>
<rscale>  0 0.60533748E+04</rscale>
<asrwt>0</asrwt>
<pdfrwt beam="1">  1        2 0.58445101E+00 0.60533748E+04</pdfrwt>
<pdfrwt beam="2">  1       -2 0.37098838E+00 0.60533748E+04</pdfrwt>
<totfact> 0.30959482E-03</totfact>
</mgrwt>
<rwgt>
<wgt id='morphing_basis_vector_1'> +1.6370044e-06 </wgt>
<wgt id='morphing_basis_vector_2'> +1.1185300e-06 </wgt>
<wgt id='morphing_basis_vector_3'> +1.8079917e-06 </wgt>
<wgt id='morphing_basis_vector_4'> +1.3017839e-06 </wgt>
<wgt id='morphing_basis_vector_5'> +2.0834979e-06 </wgt>
</rwgt>
</event>
<event>
 4      1 +9.0096000e-12 5.55510100e+03 7.81860800e-03 7.31308600e-02
        2 -1    0    0  501    0 +0.0000000000e+00 +0.0000000000e+00 +3.5436969958e+03 3.5436969958e+03 0.0000000000e+00 0.0000e+00 -1.0000e+00
       -2 -1    0    0    0  501 -0.0000000000e+00 -0.0000000000e+00 -2.1770445064e+03 2.1770445064e+03 0.0000000000e+00 0.0000e+00 1.0000e+00
      -13  1    1    2    0    0 -1.0848147017e+03 +2.2164622254e+03 -6.2954333831e+02 2.5467337019e+03 0.0000000000e+00 0.0000e+00 1.0000e+00
       13  1    1    2    0    0 +1.0848147017e+03 -2.2164622254e+03 +1.9961958278e+03 3.1740078003e+03 0.0000000000e+00 0.0000e+00 -1.0000e+00
<mgrwt>
<rscale>  0 0.55551007E+04</rscale>
<asrwt>0</asrwt>
<pdfrwt beam="1">  1        2 0.54518415E+00 0.55551007E+04</pdfrwt>
<pdfrwt beam="2">  1       -2 0.33492992E+00 0.55551007E+04</pdfrwt>
<totfact> 0.86530263E-03</totfact>
</mgrwt>
<rwgt>
<wgt id='morphing_basis_vector_1'> +1.1666475e-06 </wgt>
<wgt id='morphing_basis_vector_2'> +8.0729158e-07 </wgt>
<wgt id='morphing_basis_vector_3'> +1.2899493e-06 </wgt>
<wgt id='morphing_basis_vector_4'> +9.1250924e-07 </wgt>
<wgt id='morphing_basis_vector_5'> +1.4756096e-06 </wgt>
</rwgt>
</event>
<event>
 4      1 +9.0096000e-12 5.73312800e+03 7.81860800e-03 7.29196000e-02
        2 -1    0    0  501    0 +0.0000000000e+00 +0.0000000000e+00 +2.6960205018e+03 2.6960205018e+03 0.0000000000e+00 0.0000e+00 -1.0000e+00
       -2 -1    0    0    0  501 -0.0000000000e+00 -0.0000000000e+00 -3.0478955238e+03 3.0478955238e+03 0.0000000000e+00 0.0000e+00 1.0000e+00
      -13  1    1    2    0    0 +2.6261110066e+03 +1.1481063395e+03 -1.2503212286e+02 2.8688395246e+03 0.0000000000e+00 0.0000e+00 1.0000e+00
       13  1    1    2    0    0 -2.6261110066e+03 -1.1481063395e+03 -2.2684289911e+02 2.8750765010e+03 0.0000000000e+00 0.0000e+00 -1.0000e+00
<mgrwt>
<rscale>  0 0.57331279E+04</rscale>
<asrwt>0</asrwt>
<pdfrwt beam="1">  1        2 0.41477239E+00 0.57331279E+04</pdfrwt>
<pdfrwt beam="2">  1       -2 0.46890700E+00 0.57331279E+04</pdfrwt>
<totfact> 0.40705895E-03</totfact>
</mgrwt>
<rwgt>
<wgt id='morphing_basis_vector_1'> +1.3674588e-06 </wgt>
<wgt id='morphing_basis_vector_2'> +1.0459150e-06 </wgt>
<wgt id='morphing_basis_vector_3'> +1.5357182e-06 </wgt>
<wgt id='morphing_basis_vector_4'> +9.4076492e-07 </wgt>
<wgt id='morphing_basis_vector_5'> +1.6666154e-06 </wgt>
</rwgt>
</event>
<event>
 4      1 +9.0096000e-12 5.58009100e+03 7.81860800e-03 7.31007200e-02
        2 -1    0    0  501    0 +0.0000000000e+00 +0.0000000000e+00 +2.5984848809e+03 2.5984848809e+03 0.0000000000e+00 0.0000e+00 1.0000e+00
       -2 -1    0    0    0  501 -0.0000000000e+00 -0.0000000000e+00 -2.9957277953e+03 2.9957277953e+03 0.0000000000e+00 0.0000e+00 -1.0000e+00
      -13  1    1    2    0    0 -3.9684329217e+02 -1.3606180464e+03 -2.6079486524e+03 2.9681917459e+03 0.0000000000e+00 0.0000e+00 -1.0000e+00
       13  1    1    2    0    0 +3.9684329217e+02 +1.3606180464e+03 +2.2107057380e+03 2.6260209303e+03 0.0000000000e+00 0.0000e+00 1.0000e+00
<mgrwt>
<rscale>  0 0.55800908E+04</rscale>
<asrwt>0</asrwt>
<pdfrwt beam="1">  1        2 0.39976690E+00 0.55800908E+04</pdfrwt>
<pdfrwt beam="2">  1       -2 0.46088120E+00 0.55800908E+04</pdfrwt>
<totfact> 0.53971310E-03</totfact>
</mgrwt>
<rwgt>
<wgt id='morphing_basis_vector_1'> +1.1814544e-06 </wgt>
<wgt id='morphing_basis_vector_2'> +8.0348870e-07 </wgt>
<wgt id='morphing_basis_vector_3'> +1.3030968e-06 </wgt>
<wgt id='morphing_basis_vector_4'> +9.4247912e-07 </wgt>
<wgt id='morphing_basis_vector_5'> +1.5035363e-06 </wgt>
</rwgt>
</event>
<event>
 4      1 +9.0096000e-12 5.56257600e+03 7.81860800e-03 7.31218300e-02
        2 -1    0    0  501    0 +0.0000000000e+00 +0.0000000000e+00 +2.0659782930e+03 2.0659782930e+03 0.0000000000e+00 0.0000e+00 1.0000e+00
       -2 -1    0    0    0  501 -0.0000000000e+00 -0.0000000000e+00 -3.7442608381e+03 3.7442608381e+03 0.0000000000e+00 0.0000e+00 -1.0000e+00
      -13  1    1    2    0    0 -5.1340056732e+02 +1.4509627097e+03 -3.2588956718e+03 3.6040635298e+03 0.0000000000e+00 0.0000e+00 -1.0000e+00
       13  1    1    2    0    0 +5.1340056732e+02 -1.4509627097e+03 +1.5806131266e+03 2.2061756012e+03 0.0000000000e+00 0.0000e+00 1.0000e+00
<mgrwt>
<rscale>  0 0.55625755E+04</rscale>
<asrwt>0</asrwt>
<pdfrwt beam="1">  1        2 0.31784282E+00 0.55625755E+04</pdfrwt>
<pdfrwt beam="2">  1       -2 0.57604013E+00 0.55625755E+04</pdfrwt>
<totfact> 0.15781870E-03</totfact>
</mgrwt>
<rwgt>
<wgt id='morphing_basis_vector_1'> +1.1668606e-06 </wgt>
<wgt id='morphing_basis_vector_2'> +7.9384408e-07 </wgt>
<wgt id='morphing_basis_vector_3'> +1.2870295e-06 </wgt>
<wgt id='morphing_basis_vector_4'> +9.3039141e-07 </wgt>
<wgt id='morphing_basis_vector_5'> +1.4846760e-06 </wgt>
</rwgt>
</event>
<event>
 4      1 +9.0096000e-12 5.83859700e+03 7.81860800e-03 7.27980900e-02
        2 -1    0    0  501    0 +0.0000000000e+00 +0.0000000000e+00 +3.4925677875e+03 3.4925677875e+03 0.0000000000e+00 0.0000e+00 -1.0000e+00
       -2 -1    0    0    0  501 -0.0000000000e+00 -0.0000000000e+00 -2.4401257196e+03 2.4401257196e+03 0.0000000000e+00 0.0000e+00 1.0000e+00
      -13  1    1    2    0    0 +4.0637268552e+02 +2.7485914369e+03 +1.4364314203e+03 3.1278153513e+03 0.0000000000e+00 0.0000e+00 1.0000e+00
       13  1    1    2    0    0 -4.0637268552e+02 -2.7485914369e+03 -3.8398935240e+02 2.8048781559e+03 0.0000000000e+00 0.0000e+00 -1.0000e+00
<mgrwt>
<rscale>  0 0.58385973E+04</rscale>
<asrwt>0</asrwt>
<pdfrwt beam="1">  1        2 0.53731812E+00 0.58385973E+04</pdfrwt>
<pdfrwt beam="2">  1       -2 0.37540396E+00 0.58385973E+04</pdfrwt>
<totfact> 0.50545196E-03</totfact>
</mgrwt>
<rwgt>
<wgt id='morphing_basis_vector_1'> +1.5628595e-06 </wgt>
<wgt id='morphing_basis_vector_2'> +1.3956476e-06 </wgt>
<wgt id='morphing_basis_vector_3'> +1.8023720e-06 </wgt>
<wgt id='morphing_basis_vector_4'> +8.1490822e-07 </wgt>
<wgt id='morphing_basis_vector_5'> +1.7764083e-06 </wgt>
</rwgt>
</event>
<event>
 4      1 +9.0096000e-12 5.91763200e+03 7.81860800e-03 7.27087500e-02
        2 -1    0    0  501    0 +0.0000000000e+00 +0.0000000000e+00 +1.6917626198e+03 1.6917626198e+03 0.0000000000e+00 0.0000e+00 -1.0000e+00
       -2 -1    0    0    0  501 -0.0000000000e+00 -0.0000000000e+00 -5.1748351134e+03 5.1748351134e+03 0.0000000000e+00 0.0000e+00 1.0000e+00
      -13  1    1    2    0    0 +5.1992328324e+02 -1.5939870752e+03 -4.5704125286e+03 4.8682425677e+03 0.0000000000e+00 0.0000e+00 1.0000e+00
       13  1    1    2    0    0 -5.1992328324e+02 +1.5939870752e+03 +1.0873400350e+03 1.9983551656e+03 0.0000000000e+00 0.0000e+00 -1.0000e+00
<mgrwt>
<rscale>  0 0.59176322E+04</rscale>
<asrwt>0</asrwt>
<pdfrwt beam="1">  1        2 0.26027118E+00 0.59176322E+04</pdfrwt>
<pdfrwt beam="2">  1       -2 0.79612847E+00 0.59176322E+04</pdfrwt>
<totfact> 0.82428668E-04</totfact>
</mgrwt>
<rwgt>
<wgt id='morphing_basis_vector_1'> +1.4936757e-06 </wgt>
<wgt id='morphing_basis_vector_2'> +1.0167048e-06 </wgt>
<wgt id='morphing_basis_vector_3'> +1.6484872e-06 </wgt>
<wgt id='morphing_basis_vector_4'> +1.1922275e-06 </wgt>
<wgt id='morphing_basis_vector_5'> +1.9027258e-06 </wgt>
</rwgt>
</event>
<event>
 4      1 +9.0096000e-12 6.18251400e+03 7.81860800e-03 7.24193500e-02
        2 -1    0    0  501    0 +0.0000000000e+00 +0.0000000000e+00 +3.7761444873e+03 3.7761444873e+03 0.0000000000e+00 0.0000e+00 -1.0000e+00
       -2 -1    0    0    0  501 -0.0000000000e+00 -0.0000000000e+00 -2.5305890796e+03 2.5305890796e+03 0.0000000000e+00 0.0000e+00 1.0000e+00
      -13  1    1    2    0    0 +2.6311089867e+03 -5.0942348459e+02 -9.4883402993e+02 2.8429795643e+03 0.0000000000e+00 0.0000e+00 1.0000e+00
       13  1    1    2    0    0 -2.6311089867e+03 +5.0942348459e+02 +2.1943894377e+03 3.4637540026e+03 0.0000000000e+00 0.0000e+00 -1.0000e+00
<mgrwt>
<rscale>  0 0.61825141E+04</rscale>
<asrwt>0</asrwt>
<pdfrwt beam="1">  1        2 0.58094531E+00 0.61825141E+04</pdfrwt>
<pdfrwt beam="2">  1       -2 0.38932140E+00 0.61825141E+04</pdfrwt>
<totfact> 0.24343861E-03</totfact>
</mgrwt>
<rwgt>
<wgt id='morphing_basis_vector_1'> +1.7862803e-06 </wgt>
<wgt id='morphing_basis_vector_2'> +1.2327790e-06 </wgt>
<wgt id='morphing_basis_vector_3'> +1.9760526e-06 </wgt>
<wgt id='morphing_basis_vector_4'> +1.4052071e-06 </wgt>
<wgt id='morphing_basis_vector_5'> +2.2664973e-06 </wgt>
</rwgt>
</event>
<event>
 4      1 +9.0096000e-12 5.70348600e+03 7.81860800e-03 7.29542300e-02
        2 -1    0    0  501    0 +0.0000000000e+00 +0.0000000000e+00 +2.8719416993e+03 2.8719416993e+03 0.0000000000e+00 0.0000e+00 -1.0000e+00
       -2 -1    0    0    0  501 -0.0000000000e+00 -0.0000000000e+00 -2.8316864412e+03 2.8316864412e+03 0.0000000000e+00 0.0000e+00 1.0000e+00
      -13  1    1    2    0    0 +7.1253054123e+01 -9.1667620130e+02 -2.6793962406e+03 2.8327612801e+03 0.0000000000e+00 0.0000e+00 1.0000e+00
       13  1    1    2    0    0 -7.1253054123e+01 +9.1667620130e+02 +2.7196514987e+03 2.8708668604e+03 0.0000000000e+00 0.0000e+00 -1.0000e+00
<mgrwt>
<rscale>  0 0.57034861E+04</rscale>
<asrwt>0</asrwt>
<pdfrwt beam="1">  1        2 0.44183718E+00 0.57034861E+04</pdfrwt>
<pdfrwt beam="2">  1       -2 0.43564407E+00 0.57034861E+04</pdfrwt>
<totfact> 0.54184363E-03</totfact>
</mgrwt>
<rwgt>
<wgt id='morphing_basis_vector_1'> +1.2889327e-06 </wgt>
<wgt id='morphing_basis_vector_2'> +8.7613407e-07 </wgt>
<wgt id='morphing_basis_vector_3'> +1.4218082e-06 </wgt>
<wgt id='morphing_basis_vector_4'> +1.0294099e-06 </wgt>
<wgt id='morphing_basis_vector_5'> +1.6414096e-06 </wgt>
</rwgt>
</event>
<event>
 4      1 +9.0096000e-12 5.92792100e+03 7.81860800e-03 7.26972200e-02
        2 -1    0    0  501    0 +0.0000000000e+00 +0.0000000000e+00 +3.7672768794e+03 3.7672768794e+03 0.0000000000e+00 0.0000e+00 1.0000e+00
       -2 -1    0    0    0  501 -0.0000000000e+00 -0.0000000000e+00 -2.3319392867e+03 2.3319392867e+03 0.0000000000e+00 0.0000e+00 -1.0000e+00
      -13  1    1    2    0    0 -2.2077323619e+03 +4.4664130699e+02 -1.2645236028e+03 2.5831358038e+03 0.0000000000e+00 0.0000e+00 -1.0000e+00
       13  1    1    2    0    0 +2.2077323619e+03 -4.4664130699e+02 +2.6998611955e+03 3.5160803622e+03 0.0000000000e+00 0.0000e+00 1.0000e+00
<mgrwt>
<rscale>  0 0.59279207E+04</rscale>
<asrwt>0</asrwt>
<pdfrwt beam="1">  1        2 0.57958106E+00 0.59279207E+04</pdfrwt>
<pdfrwt beam="2">  1       -2 0.35875989E+00 0.59279207E+04</pdfrwt>
<totfact> 0.39682973E-03</totfact>
</mgrwt>
<rwgt>
<wgt id='morphing_basis_vector_1'> +1.5062462e-06 </wgt>
<wgt id='morphing_basis_vector_2'> +1.0301866e-06 </wgt>
<wgt id='morphing_basis_vector_3'> +1.6635383e-06 </wgt>
<wgt id='morphing_basis_vector_4'> +1.1958964e-06 </wgt>
<wgt id='morphing_basis_vector_5'> +1.9156308e-06 </wgt>
</rwgt>
</event>
<event>
 4      1 +9.0096000e-12 5.96083500e+03 7.81860800e-03 7.26605100e-02
        2 -1    0    0  501    0 +0.0000000000e+00 +0.0000000000e+00 +3.5048098205e+03 3.5048098205e+03 0.0000000000e+00 0.0000e+00 -1.0000e+00
       -2 -1    0    0    0  501 -0.0000000000e+00 -0.0000000000e+00 -2.5344852892e+03 2.5344852892e+03 0.0000000000e+00 0.0000e+00 1.0000e+00
      -13  1    1    2    0    0 -2.3884467973e+03 -1.5780202961e+03 +1.3255760576e+03 3.1546755844e+03 0.0000000000e+00 0.0000e+00 1.0000e+00
       13  1    1    2    0    0 +2.3884467973e+03 +1.5780202961e+03 -3.5525152635e+02 2.8846195252e+03 0.0000000000e+00 0.0000e+00 -1.0000e+00
<mgrwt>
<rscale>  0 0.59608352E+04</rscale>
<asrwt>0</asrwt>
<pdfrwt beam="1">  1        2 0.53920151E+00 0.59608352E+04</pdfrwt>
<pdfrwt beam="2">  1       -2 0.38992081E+00 0.59608352E+04</pdfrwt>
<totfact> 0.39527171E-03</totfact>
</mgrwt>
<rwgt>
<wgt id='morphing_basis_vector_1'> +1.6835859e-06 </wgt>
<wgt id='morphing_basis_vector_2'> +1.4749878e-06 </wgt>
<wgt id='morphing_basis_vector_3'> +1.9353619e-06 </wgt>
<wgt id='morphing_basis_vector_4'> +9.1541053e-07 </wgt>
<wgt id='morphing_basis_vector_5'> +1.9327819e-06 </wgt>
</rwgt>
</event>
<event>
 4      1 +9.0096000e-12 5.90379400e+03 7.81860800e-03 7.27242900e-02
        2 -1    0    0  501    0 +0.0000000000e+00 +0.0000000000e+00 +2.7134175161e+03 2.7134175161e+03 0.0000000000e+00 0.0000e+00 -1.0000e+00
       -2 -1    0    0    0  501 -0.0000000000e+00 -0.0000000000e+00 -3.2113356875e+03 3.2113356875e+03 0.0000000000e+00 0.0000e+00 1.0000e+00
      -13  1    1    2    0    0 -1.1433002328e+03 -1.1025538077e+03 -2.7459513527e+03 3.1722246378e+03 0.0000000000e+00 0.0000e+00 1.0000e+00
       13  1    1    2    0    0 +1.1433002328e+03 +1.1025538077e+03 +2.2480331813e+03 2.7525285658e+03 0.0000000000e+00 0.0000e+00 -1.0000e+00
<mgrwt>
<rscale>  0 0.59037935E+04</rscale>
<asrwt>0</asrwt>
<pdfrwt beam="1">  1        2 0.41744885E+00 0.59037935E+04</pdfrwt>
<pdfrwt beam="2">  1       -2 0.49405164E+00 0.59037935E+04</pdfrwt>
<totfact> 0.25548235E-03</totfact>
</mgrwt>
<rwgt>
<wgt id='morphing_basis_vector_1'> +1.4796615e-06 </wgt>
<wgt id='morphing_basis_vector_2'> +1.0068734e-06 </wgt>
<wgt id='morphing_basis_vector_3'> +1.6329215e-06 </wgt>
<wgt id='morphing_basis_vector_4'> +1.1813542e-06 </wgt>
<wgt id='morphing_basis_vector_5'> +1.8849719e-06 </wgt>
</rwgt>
</event>
<event>
 4      1 +9.0096000e-12 6.17592300e+03 7.81860800e-03 7.24263700e-02
        2 -1    0    0  501    0 +0.0000000000e+00 +0.0000000000e+00 +2.7101401951e+03 2.7101401951e+03 0.0000000000e+00 0.0000e+00 -1.0000e+00
       -2 -1    0    0    0  501 -0.0000000000e+00 -0.0000000000e+00 -3.5184550553e+03 3.5184550553e+03 0.0000000000e+00 0.0000e+00 1.0000e+00
      -13  1    1    2    0    0 +2.5420004872e+03 -7.8609710932e+02 -1.9846190824e+03 3.3194017600e+03 0.0000000000e+00 0.0000e+00 1.0000e+00
       13  1    1    2    0    0 -2.5420004872e+03 +7.8609710932e+02 +1.1763042222e+03 2.9091934905e+03 0.0000000000e+00 0.0000e+00 -1.0000e+00
<mgrwt>
<rscale>  0 0.61759231E+04</rscale>
<asrwt>0</asrwt>
<pdfrwt beam="1">  1        2 0.41694465E+00 0.61759231E+04</pdfrwt>
<pdfrwt beam="2">  1       -2 0.54130077E+00 0.61759231E+04</pdfrwt>
<totfact> 0.11244959E-03</totfact>
</mgrwt>
<rwgt>
<wgt id='morphing_basis_vector_1'> +1.7783152e-06 </wgt>
<wgt id='morphing_basis_vector_2'> +1.2264302e-06 </wgt>
<wgt id='morphing_basis_vector_3'> +1.9670254e-06 </wgt>
<wgt id='morphing_basis_vector_4'> +1.4000181e-06 </wgt>
<wgt id='morphing_basis_vector_5'> +2.2568957e-06 </wgt>
</rwgt>
</event>
<event>
 4      1 +9.0096000e-12 5.80338800e+03 7.81860800e-03 7.28383600e-02
        2 -1    0    0  501    0 +0.0000000000e+00 +0.0000000000e+00 +4.1582768672e+03 4.1582768672e+03 0.0000000000e+00 0.0000e+00 -1.0000e+00
       -2 -1    0    0    0  501 -0.0000000000e+00 -0.0000000000e+00 -2.0248360839e+03 2.0248360839e+03 0.0000000000e+00 0.0000e+00 1.0000e+00
      -13  1    1    2    0    0 -2.7553358800e+03 -8.7802111570e+02 +1.3211604244e+03 3.1793492665e+03 0.0000000000e+00 0.0000e+00 1.0000e+00
       13  1    1    2    0    0 +2.7553358800e+03 +8.7802111570e+02 +8.1228035887e+02 3.0037636846e+03 0.0000000000e+00 0.0000e+00 -1.0000e+00
<mgrwt>
<rscale>  0 0.58033883E+04</rscale>
<asrwt>0</asrwt>
<pdfrwt beam="1">  1        2 0.63973490E+00 0.58033883E+04</pdfrwt>
<pdfrwt beam="2">  1       -2 0.31151325E+00 0.58033883E+04</pdfrwt>
<totfact> 0.38260318E-03</totfact>
</mgrwt>
<rwgt>
<wgt id='morphing_basis_vector_1'> +1.4494613e-06 </wgt>
<wgt id='morphing_basis_vector_2'> +1.1388684e-06 </wgt>
<wgt id='morphing_basis_vector_3'> +1.6350785e-06 </wgt>
<wgt id='morphing_basis_vector_4'> +9.5813436e-07 </wgt>
<wgt id='morphing_basis_vector_5'> +1.7475313e-06 </wgt>
</rwgt>
</event>
<event>
 4      1 +9.0096000e-12 6.01334600e+03 7.81860800e-03 7.26024300e-02
        2 -1    0    0  501    0 +0.0000000000e+00 +0.0000000000e+00 +3.1448093272e+03 3.1448093272e+03 0.0000000000e+00 0.0000e+00 -1.0000e+00
       -2 -1    0    0    0  501 -0.0000000000e+00 -0.0000000000e+00 -2.8746042117e+03 2.8746042117e+03 0.0000000000e+00 0.0000e+00 1.0000e+00
      -13  1    1    2    0    0 +2.8506760027e+03 -5.9503396379e+01 -8.1989773428e+02 2.9668378151e+03 0.0000000000e+00 0.0000e+00 1.0000e+00
       13  1    1    2    0    0 -2.8506760027e+03 +5.9503396379e+01 +1.0901028497e+03 3.0525757238e+03 0.0000000000e+00 0.0000e+00 -1.0000e+00
<mgrwt>
<rscale>  0 0.60133459E+04</rscale>
<asrwt>0</asrwt>
<pdfrwt beam="1">  1        2 0.48381682E+00 0.60133459E+04</pdfrwt>
<pdfrwt beam="2">  1       -2 0.44224680E+00 0.60133459E+04</pdfrwt>
<totfact> 0.31657332E-03</totfact>
</mgrwt>
<rwgt>
<wgt id='morphing_basis_vector_1'> +1.6088156e-06 </wgt>
<wgt id='morphing_basis_vector_2'> +1.1320797e-06 </wgt>
<wgt id='morphing_basis_vector_3'> +1.7844688e-06 </wgt>
<wgt id='morphing_basis_vector_4'> +1.2364129e-06 </wgt>
<wgt id='morphing_basis_vector_5'> +2.0261903e-06 </wgt>
</rwgt>
</event>
<event>
 4      1 +9.0096000e-12 5.71386400e+03 7.81860800e-03 7.29420800e-02
        2 -1    0    0  501    0 +0.0000000000e+00 +0.0000000000e+00 +4.0568643497e+03 4.0568643497e+03 0.0000000000e+00 0.0000e+00 -1.0000e+00
       -2 -1    0    0    0  501 -0.0000000000e+00 -0.0000000000e+00 -2.0119134722e+03 2.0119134722e+03 0.0000000000e+00 0.0000e+00 1.0000e+00
      -13  1    1    2    0    0 -3.9179237256e+02 +2.3626253594e+03 -6.3202498977e+02 2.4768842201e+03 0.0000000000e+00 0.0000e+00 1.0000e+00
       13  1    1    2    0    0 +3.9179237256e+02 -2.3626253594e+03 +2.6769758673e+03 3.5918936018e+03 0.0000000000e+00 0.0000e+00 -1.0000e+00
<mgrwt>
<rscale>  0 0.57138639E+04</rscale>
<asrwt>0</asrwt>
<pdfrwt beam="1">  1        2 0.62413297E+00 0.57138639E+04</pdfrwt>
<pdfrwt beam="2">  1       -2 0.30952515E+00 0.57138639E+04</pdfrwt>
<totfact> 0.48847271E-03</totfact>
</mgrwt>
<rwgt>
<wgt id='morphing_basis_vector_1'> +1.3028281e-06 </wgt>
<wgt id='morphing_basis_vector_2'> +8.9576840e-07 </wgt>
<wgt id='morphing_basis_vector_3'> +1.4395406e-06 </wgt>
<wgt id='morphing_basis_vector_4'> +1.0272966e-06 </wgt>
<wgt id='morphing_basis_vector_5'> +1.6526075e-06 </wgt>
</rwgt>
</event>
<event>
 4      1 +9.0096000e-12 6.42661800e+03 7.81860800e-03 7.21654000e-02
        2 -1    0    0  501    0 +0.0000000000e+00 +0.0000000000e+00 +3.6349970855e+03 3.6349970855e+03 0.0000000000e+00 0.0000e+00 1.0000e+00
       -2 -1    0    0    0  501 -0.0000000000e+00 -0.0000000000e+00 -2.8405397912e+03 2.8405397912e+03 0.0000000000e+00 0.0000e+00 -1.0000e+00
      -13  1    1    2    0    0 -1.9677184623e+03 -2.5104571872e+03 +7.8882900308e+02 3.2858122940e+03 0.0000000000e+00 0.0000e+00 -1.0000e+00
       13  1    1    2    0    0 +1.9677184623e+03 +2.5104571872e+03 +5.6282912212e+00 3.1897245826e+03 0.0000000000e+00 0.0000e+00 1.0000e+00
<mgrwt>
<rscale>  0 0.64266177E+04</rscale>
<asrwt>0</asrwt>
<pdfrwt beam="1">  1        2 0.55923032E+00 0.64266177E+04</pdfrwt>
<pdfrwt beam="2">  1       -2 0.43700612E+00 0.64266177E+04</pdfrwt>
<totfact> 0.14890091E-03</totfact>
</mgrwt>
<rwgt>
<wgt id='morphing_basis_vector_1'> +2.1924941e-06 </wgt>
<wgt id='morphing_basis_vector_2'> +1.7549622e-06 </wgt>
<wgt id='morphing_basis_vector_3'> +2.4831120e-06 </wgt>
<wgt id='morphing_basis_vector_4'> +1.4106410e-06 </wgt>
<wgt id='morphing_basis_vector_5'> +2.6276232e-06 </wgt>
</rwgt>
</event>
<event>
 4      1 +9.0096000e-12 5.75959100e+03 7.81860800e-03 7.28888600e-02
        2 -1    0    0  501    0 +0.0000000000e+00 +0.0000000000e+00 +2.8966764045e+03 2.8966764045e+03 0.0000000000e+00 0.0000e+00 -1.0000e+00
       -2 -1    0    0    0  501 -0.0000000000e+00 -0.0000000000e+00 -2.8630131514e+03 2.8630131514e+03 0.0000000000e+00 0.0000e+00 1.0000e+00
      -13  1    1    2    0    0 +1.4988404555e+03 +1.9389164912e+03 -1.4955773481e+03 2.8710053074e+03 0.0000000000e+00 0.0000e+00 -1.0000e+00
       13  1    1    2    0    0 -1.4988404555e+03 -1.9389164912e+03 +1.5292406012e+03 2.8886842485e+03 0.0000000000e+00 0.0000e+00 1.0000e+00
<mgrwt>
<rscale>  0 0.57595912E+04</rscale>
<asrwt>0</asrwt>
<pdfrwt beam="1">  1        2 0.44564252E+00 0.57595912E+04</pdfrwt>
<pdfrwt beam="2">  1       -2 0.44046356E+00 0.57595912E+04</pdfrwt>
<totfact> 0.48242349E-03</totfact>
</mgrwt>
<rwgt>
<wgt id='morphing_basis_vector_1'> +1.3454839e-06 </wgt>
<wgt id='morphing_basis_vector_2'> +9.2638624e-07 </wgt>
<wgt id='morphing_basis_vector_3'> +1.4870758e-06 </wgt>
<wgt id='morphing_basis_vector_4'> +1.0594739e-06 </wgt>
<wgt id='morphing_basis_vector_5'> +1.7061796e-06 </wgt>
</rwgt>
</event>
<event>
 4      1 +9.0096000e-12 5.72648200e+03 7.81860800e-03 7.29273400e-02
        2 -1    0    0  501    0 +0.0000000000e+00 +0.0000000000e+00 +3.9791830846e+03 3.9791830846e+03 0.0000000000e+00 0.0000e+00 -1.0000e+00
       -2 -1    0    0    0  501 -0.0000000000e+00 -0.0000000000e+00 -2.0602592308e+03 2.0602592308e+03 0.0000000000e+00 0.0000e+00 1.0000e+00
      -13  1    1    2    0    0 +1.4174360705e+03 +1.9397669491e+03 -6.8333426822e+02 2.4977523001e+03 0.0000000000e+00 0.0000e+00 1.0000e+00
       13  1    1    2    0    0 -1.4174360705e+03 -1.9397669491e+03 +2.6022581220e+03 3.5416900152e+03 0.0000000000e+00 0.0000e+00 -1.0000e+00
<mgrwt>
<rscale>  0 0.57264819E+04</rscale>
<asrwt>0</asrwt>
<pdfrwt beam="1">  1        2 0.61218201E+00 0.57264819E+04</pdfrwt>
<pdfrwt beam="2">  1       -2 0.31696296E+00 0.57264819E+04</pdfrwt>
<totfact> 0.50747209E-03</totfact>
</mgrwt>
<rwgt>
<wgt id='morphing_basis_vector_1'> +1.3143772e-06 </wgt>
<wgt id='morphing_basis_vector_2'> +9.0379270e-07 </wgt>
<wgt id='morphing_basis_vector_3'> +1.4523488e-06 </wgt>
<wgt id='morphing_basis_vector_4'> +1.0363546e-06 </wgt>
<wgt id='morphing_basis_vector_5'> +1.6672837e-06 </wgt>
</rwgt>
</event>
<event>
 4      1 +9.0096000e-12 6.12714300e+03 7.81860800e-03 7.24786100e-02
        2 -1    0    0  501    0 +0.0000000000e+00 +0.0000000000e+00 +2.4447623338e+03 2.4447623338e+03 0.0000000000e+00 0.0000e+00 -1.0000e+00
       -2 -1    0    0    0  501 -0.0000000000e+00 -0.0000000000e+00 -3.8390115860e+03 3.8390115860e+03 0.0000000000e+00 0.0000e+00 1.0000e+00
      -13  1    1    2    0    0 +8.4672434798e+02 +2.7499446715e+03 -1.7758365410e+03 3.3812325029e+03 0.0000000000e+00 0.0000e+00 1.0000e+00
       13  1    1    2    0    0 -8.4672434798e+02 -2.7499446715e+03 +3.8158728879e+02 2.9025414169e+03 0.0000000000e+00 0.0000e+00 -1.0000e+00
<mgrwt>
<rscale>  0 0.61271432E+04</rscale>
<asrwt>0</asrwt>
<pdfrwt beam="1">  1        2 0.37611728E+00 0.61271432E+04</pdfrwt>
<pdfrwt beam="2">  1       -2 0.59061717E+00 0.61271432E+04</pdfrwt>
<totfact> 0.70167564E-04</totfact>
</mgrwt>
<rwgt>
<wgt id='morphing_basis_vector_1'> +1.7318423e-06 </wgt>
<wgt id='morphing_basis_vector_2'> +1.2143814e-06 </wgt>
<wgt id='morphing_basis_vector_3'> +1.9202082e-06 </wgt>
<wgt id='morphing_basis_vector_4'> +1.3371112e-06 </wgt>
<wgt id='morphing_basis_vector_5'> +2.1846798e-06 </wgt>
</rwgt>
</event>
<event>
 4      1 +9.0096000e-12 5.90623900e+03 7.81860800e-03 7.27215400e-02
        2 -1    0    0  501    0 +0.0000000000e+00 +0.0000000000e+00 +3.9365557399e+03 3.9365557399e+03 0.0000000000e+00 0.0000e+00 -1.0000e+00
       -2 -1    0    0    0  501 -0.0000000000e+00 -0.0000000000e+00 -2.2153668449e+03 2.2153668449e+03 0.0000000000e+00 0.0000e+00 1.0000e+00
      -13  1    1    2    0    0 +1.6010069450e+03 +3.0200905343e+02 -1.7048836259e+03 2.3581901714e+03 0.0000000000e+00 0.0000e+00 1.0000e+00
       13  1    1    2    0    0 -1.6010069450e+03 -3.0200905343e+02 +3.4260725209e+03 3.7937324135e+03 0.0000000000e+00 0.0000e+00 -1.0000e+00
<mgrwt>
<rscale>  0 0.59062391E+04</rscale>
<asrwt>0</asrwt>
<pdfrwt beam="1">  1        2 0.60562396E+00 0.59062391E+04</pdfrwt>
<pdfrwt beam="2">  1       -2 0.34082567E+00 0.59062391E+04</pdfrwt>
<totfact> 0.37839022E-03</totfact>
</mgrwt>
<rwgt>
<wgt id='morphing_basis_vector_1'> +1.4821647e-06 </wgt>
<wgt id='morphing_basis_vector_2'> +1.0087047e-06 </wgt>
<wgt id='morphing_basis_vector_3'> +1.6357193e-06 </wgt>
<wgt id='morphing_basis_vector_4'> +1.1831981e-06 </wgt>
<wgt id='morphing_basis_vector_5'> +1.8880942e-06 </wgt>
</rwgt>
</event>
<event>
 4      1 +9.0096000e-12 6.21316100e+03 7.81860800e-03 7.23868200e-02
        2 -1    0    0  501    0 +0.0000000000e+00 +0.0000000000e+00 +4.3883115771e+03 4.3883115771e+03 0.0000000000e+00 0.0000e+00 -1.0000e+00
       -2 -1    0    0    0  501 -0.0000000000e+00 -0.0000000000e+00 -2.1992155879e+03 2.1992155879e+03 0.0000000000e+00 0.0000e+00 1.0000e+00
      -13  1    1    2    0    0 -2.1425261773e+02 -2.7971202564e+03 +2.5095229088e+03 3.7639727872e+03 0.0000000000e+00 0.0000e+00 1.0000e+00
       13  1    1    2    0    0 +2.1425261773e+02 +2.7971202564e+03 -3.2042691966e+02 2.8235543777e+03 0.0000000000e+00 0.0000e+00 -1.0000e+00
<mgrwt>
<rscale>  0 0.62131613E+04</rscale>
<asrwt>0</asrwt>
<pdfrwt beam="1">  1        2 0.67512486E+00 0.62131613E+04</pdfrwt>
<pdfrwt beam="2">  1       -2 0.33834086E+00 0.62131613E+04</pdfrwt>
<totfact> 0.14948480E-03</totfact>
</mgrwt>
<rwgt>
<wgt id='morphing_basis_vector_1'> +2.0889282e-06 </wgt>
<wgt id='morphing_basis_vector_2'> +2.0411398e-06 </wgt>
<wgt id='morphing_basis_vector_3'> +2.4519699e-06 </wgt>
<wgt id='morphing_basis_vector_4'> +8.6174899e-07 </wgt>
<wgt id='morphing_basis_vector_5'> +2.2637655e-06 </wgt>
</rwgt>
</event>
<event>
 4      1 +9.0096000e-12 6.33218400e+03 7.81860800e-03 7.22622600e-02
        2 -1    0    0  501    0 +0.0000000000e+00 +0.0000000000e+00 +3.1319367200e+03 3.1319367200e+03 0.0000000000e+00 0.0000e+00 -1.0000e+00
       -2 -1    0    0    0  501 -0.0000000000e+00 -0.0000000000e+00 -3.2006197520e+03 3.2006197520e+03 0.0000000000e+00 0.0000e+00 1.0000e+00
      -13  1    1    2    0    0 +5.3182378836e+02 -2.4522029879e+03 -1.9652586793e+03 3.1872210015e+03 0.0000000000e+00 0.0000e+00 1.0000e+00
       13  1    1    2    0    0 -5.3182378836e+02 +2.4522029879e+03 +1.8965756473e+03 3.1453354705e+03 0.0000000000e+00 0.0000e+00 -1.0000e+00
<mgrwt>
<rscale>  0 0.63321840E+04</rscale>
<asrwt>0</asrwt>
<pdfrwt beam="1">  1        2 0.48183642E+00 0.63321840E+04</pdfrwt>
<pdfrwt beam="2">  1       -2 0.49240304E+00 0.63321840E+04</pdfrwt>
<totfact> 0.13708159E-03</totfact>
</mgrwt>
<rwgt>
<wgt id='morphing_basis_vector_1'> +1.9610557e-06 </wgt>
<wgt id='morphing_basis_vector_2'> +1.3441637e-06 </wgt>
<wgt id='morphing_basis_vector_3'> +2.1675965e-06 </wgt>
<wgt id='morphing_basis_vector_4'> +1.5555558e-06 </wgt>
<wgt id='morphing_basis_vector_5'> +2.4953080e-06 </wgt>
</rwgt>
</event>
<event>
 4      1 +9.0096000e-12 5.93148900e+03 7.81860800e-03 7.26932300e-02
        2 -1    0    0  501    0 +0.0000000000e+00 +0.0000000000e+00 +2.8850274987e+03 2.8850274987e+03 0.0000000000e+00 0.0000e+00 -1.0000e+00
       -2 -1    0    0    0  501 -0.0000000000e+00 -0.0000000000e+00 -3.0487198567e+03 3.0487198567e+03 0.0000000000e+00 0.0000e+00 1.0000e+00
      -13  1    1    2    0    0 +1.0041291742e+03 +1.1121222677e+03 -2.6422247079e+03 3.0375060072e+03 0.0000000000e+00 0.0000e+00 1.0000e+00
       13  1    1    2    0    0 -1.0041291742e+03 -1.1121222677e+03 +2.4785323500e+03 2.8962413482e+03 0.0000000000e+00 0.0000e+00 -1.0000e+00
<mgrwt>
<rscale>  0 0.59314891E+04</rscale>
<asrwt>0</asrwt>
<pdfrwt beam="1">  1        2 0.44385039E+00 0.59314891E+04</pdfrwt>
<pdfrwt beam="2">  1       -2 0.46903382E+00 0.59314891E+04</pdfrwt>
<totfact> 0.30469282E-03</totfact>
</mgrwt>
<rwgt>
<wgt id='morphing_basis_vector_1'> +1.5074421e-06 </wgt>
<wgt id='morphing_basis_vector_2'> +1.0255470e-06 </wgt>
<wgt id='morphing_basis_vector_3'> +1.6635875e-06 </wgt>
<wgt id='morphing_basis_vector_4'> +1.2039726e-06 </wgt>
<wgt id='morphing_basis_vector_5'> +1.9206941e-06 </wgt>
</rwgt>
</event>
<event>
 4      1 +9.0096000e-12 5.62595000e+03 7.81860800e-03 7.30458300e-02
        2 -1    0    0  501    0 +0.0000000000e+00 +0.0000000000e+00 +2.2972393672e+03 2.2972393672e+03 0.0000000000e+00 0.0000e+00 -1.0000e+00
       -2 -1    0    0    0  501 -0.0000000000e+00 -0.0000000000e+00 -3.4444938999e+03 3.4444938999e+03 0.0000000000e+00 0.0000e+00 1.0000e+00
      -13  1    1    2    0    0 -1.6287553404e+03 -1.2126802665e+03 -2.5603250722e+03 3.2678283099e+03 0.0000000000e+00 0.0000e+00 1.0000e+00
       13  1    1    2    0    0 +1.6287553404e+03 +1.2126802665e+03 +1.4130705395e+03 2.4739049572e+03 0.0000000000e+00 0.0000e+00 -1.0000e+00
<mgrwt>
<rscale>  0 0.56259495E+04</rscale>
<asrwt>0</asrwt>
<pdfrwt beam="1">  1        2 0.35342144E+00 0.56259495E+04</pdfrwt>
<pdfrwt beam="2">  1       -2 0.52992214E+00 0.56259495E+04</pdfrwt>
<totfact> 0.24976679E-03</totfact>
</mgrwt>
<rwgt>
<wgt id='morphing_basis_vector_1'> +1.2220393e-06 </wgt>
<wgt id='morphing_basis_vector_2'> +8.3422333e-07 </wgt>
<wgt id='morphing_basis_vector_3'> +1.3486898e-06 </wgt>
<wgt id='morphing_basis_vector_4'> +9.7099688e-07 </wgt>
<wgt id='morphing_basis_vector_5'> +1.5534572e-06 </wgt>
</rwgt>
</event>
<event>
 4      1 +9.0096000e-12 5.63992500e+03 7.81860800e-03 7.30292100e-02
        2 -1    0    0  501    0 +0.0000000000e+00 +0.0000000000e+00 +2.8249005789e+03 2.8249005789e+03 0.0000000000e+00 0.0000e+00 -1.0000e+00
       -2 -1    0    0    0  501 -0.0000000000e+00 -0.0000000000e+00 -2.8150333202e+03 2.8150333202e+03 0.0000000000e+00 0.0000e+00 1.0000e+00
      -13  1    1    2    0    0 -1.3779112645e+03 +2.6090632606e+02 -2.4415937081e+03 2.8156866657e+03 0.0000000000e+00 0.0000e+00 1.0000e+00
       13  1    1    2    0    0 +1.3779112645e+03 -2.6090632606e+02 +2.4514609667e+03 2.8242472334e+03 0.0000000000e+00 0.0000e+00 -1.0000e+00
<mgrwt>
<rscale>  0 0.56399253E+04</rscale>
<asrwt>0</asrwt>
<pdfrwt beam="1">  1        2 0.43460009E+00 0.56399253E+04</pdfrwt>
<pdfrwt beam="2">  1       -2 0.43308205E+00 0.56399253E+04</pdfrwt>
<totfact> 0.60690249E-03</totfact>
</mgrwt>
<rwgt>
<wgt id='morphing_basis_vector_1'> +1.2327860e-06 </wgt>
<wgt id='morphing_basis_vector_2'> +8.3839633e-07 </wgt>
<wgt id='morphing_basis_vector_3'> +1.3598413e-06 </wgt>
<wgt id='morphing_basis_vector_4'> +9.8371732e-07 </wgt>
<wgt id='morphing_basis_vector_5'> +1.5692429e-06 </wgt>
</rwgt>
</event>
<event>
 4      1 +9.0096000e-12 5.68889400e+03 7.81860800e-03 7.29713500e-02
        2 -1    0    0  501    0 +0.0000000000e+00 +0.0000000000e+00 +2.7561751434e+03 2.7561751434e+03 0.0000000000e+00 0.0000e+00 1.0000e+00
       -2 -1    0    0    0  501 -0.0000000000e+00 -0.0000000000e+00 -2.9355460913e+03 2.9355460913e+03 0.0000000000e+00 0.0000e+00 -1.0000e+00
      -13  1    1    2    0    0 +1.4796062990e+03 -8.7078680541e+02 -2.3587134496e+03 2.9173675801e+03 0.0000000000e+00 0.0000e+00 -1.0000e+00
       13  1    1    2    0    0 -1.4796062990e+03 +8.7078680541e+02 +2.1793425017e+03 2.7743536545e+03 0.0000000000e+00 0.0000e+00 1.0000e+00
<mgrwt>
<rscale>  0 0.56888942E+04</rscale>
<asrwt>0</asrwt>
<pdfrwt beam="1">  1        2 0.42402694E+00 0.56888942E+04</pdfrwt>
<pdfrwt beam="2">  1       -2 0.45162248E+00 0.56888942E+04</pdfrwt>
<totfact> 0.49799403E-03</totfact>
</mgrwt>
<rwgt>
<wgt id='morphing_basis_vector_1'> +1.2764488e-06 </wgt>
<wgt id='morphing_basis_vector_2'> +8.6904014e-07 </wgt>
<wgt id='morphing_basis_vector_3'> +1.4083318e-06 </wgt>
<wgt id='morphing_basis_vector_4'> +1.0175592e-06 </wgt>
<wgt id='morphing_basis_vector_5'> +1.6245238e-06 </wgt>
</rwgt>
</event>
<event>
 4      1 +9.0096000e-12 5.81713300e+03 7.81860800e-03 7.28226100e-02
        2 -1    0    0  501    0 +0.0000000000e+00 +0.0000000000e+00 +3.6292681932e+03 3.6292681932e+03 0.0000000000e+00 0.0000e+00 -1.0000e+00
       -2 -1    0    0    0  501 -0.0000000000e+00 -0.0000000000e+00 -2.3309817683e+03 2.3309817683e+03 0.0000000000e+00 0.0000e+00 1.0000e+00
      -13  1    1    2    0    0 +2.4424473241e+03 +1.4918028130e+03 +1.1799423040e+02 2.8644279013e+03 0.0000000000e+00 0.0000e+00 1.0000e+00
       13  1    1    2    0    0 -2.4424473241e+03 -1.4918028130e+03 +1.1802921946e+03 3.0958220601e+03 0.0000000000e+00 0.0000e+00 -1.0000e+00
<mgrwt>
<rscale>  0 0.58171326E+04</rscale>
<asrwt>0</asrwt>
<pdfrwt beam="1">  1        2 0.55834895E+00 0.58171326E+04</pdfrwt>
<pdfrwt beam="2">  1       -2 0.35861258E+00 0.58171326E+04</pdfrwt>
<totfact> 0.51312670E-03</totfact>
</mgrwt>
<rwgt>
<wgt id='morphing_basis_vector_1'> +1.4207779e-06 </wgt>
<wgt id='morphing_basis_vector_2'> +1.0251332e-06 </wgt>
<wgt id='morphing_basis_vector_3'> +1.5814070e-06 </wgt>
<wgt id='morphing_basis_vector_4'> +1.0579751e-06 </wgt>
<wgt id='morphing_basis_vector_5'> +1.7718099e-06 </wgt>
</rwgt>
</event>
<event>
 4      1 +9.0096000e-12 6.34556500e+03 7.81860800e-03 7.22484300e-02
        2 -1    0    0  501    0 +0.0000000000e+00 +0.0000000000e+00 +2.7441506231e+03 2.7441506231e+03 0.0000000000e+00 0.0000e+00 -1.0000e+00
       -2 -1    0    0    0  501 -0.0000000000e+00 -0.0000000000e+00 -3.6683659903e+03 3.6683659903e+03 0.0000000000e+00 0.0000e+00 1.0000e+00
      -13  1    1    2    0    0 -3.0154334613e+03 +4.1566827878e+02 -1.3664969844e+03 3.3366050239e+03 0.0000000000e+00 0.0000e+00 1.0000e+00
       13  1    1    2    0    0 +3.0154334613e+03 -4.1566827878e+02 +4.4228161717e+02 3.0759115895e+03 0.0000000000e+00 0.0000e+00 -1.0000e+00
<mgrwt>
<rscale>  0 0.63455650E+04</rscale>
<asrwt>0</asrwt>
<pdfrwt beam="1">  1        2 0.42217702E+00 0.63455650E+04</pdfrwt>
<pdfrwt beam="2">  1       -2 0.56436400E+00 0.63455650E+04</pdfrwt>
<totfact> 0.72220794E-04</totfact>
</mgrwt>
<rwgt>
<wgt id='morphing_basis_vector_1'> +1.9973909e-06 </wgt>
<wgt id='morphing_basis_vector_2'> +1.4134873e-06 </wgt>
<wgt id='morphing_basis_vector_3'> +2.2182554e-06 </wgt>
<wgt id='morphing_basis_vector_4'> +1.5265037e-06 </wgt>
<wgt id='morphing_basis_vector_5'> +2.5129508e-06 </wgt>
</rwgt>
</event>
<event>
 4      1 +9.0096000e-12 5.77088400e+03 7.81860800e-03 7.28758000e-02
        2 -1    0    0  501    0 +0.0000000000e+00 +0.0000000000e+00 +3.9547973967e+03 3.9547973967e+03 0.0000000000e+00 0.0000e+00 -1.0000e+00
       -2 -1    0    0    0  501 -0.0000000000e+00 -0.0000000000e+00 -2.1052342850e+03 2.1052342850e+03 0.0000000000e+00 0.0000e+00 1.0000e+00
      -13  1    1    2    0    0 +1.7049091937e+03 -1.0013498227e+02 -1.5174810810e+03 2.2846205822e+03 0.0000000000e+00 0.0000e+00 1.0000e+00
       13  1    1    2    0    0 -1.7049091937e+03 +1.0013498227e+02 +3.3670441928e+03 3.7754110994e+03 0.0000000000e+00 0.0000e+00 -1.0000e+00
<mgrwt>
<rscale>  0 0.57708838E+04</rscale>
<asrwt>0</asrwt>
<pdfrwt beam="1">  1        2 0.60843037E+00 0.57708838E+04</pdfrwt>
<pdfrwt beam="2">  1       -2 0.32388220E+00 0.57708838E+04</pdfrwt>
<totfact> 0.47707632E-03</totfact>
</mgrwt>
<rwgt>
<wgt id='morphing_basis_vector_1'> +1.3513821e-06 </wgt>
<wgt id='morphing_basis_vector_2'> +9.1998993e-07 </wgt>
<wgt id='morphing_basis_vector_3'> +1.4911727e-06 </wgt>
<wgt id='morphing_basis_vector_4'> +1.0777855e-06 </wgt>
<wgt id='morphing_basis_vector_5'> +1.7204693e-06 </wgt>
</rwgt>
</event>
<event>
 4      1 +9.0096000e-12 5.76955600e+03 7.81860800e-03 7.28773300e-02
        2 -1    0    0  501    0 +0.0000000000e+00 +0.0000000000e+00 +4.3994138448e+03 4.3994138448e+03 0.0000000000e+00 0.0000e+00 -1.0000e+00
       -2 -1    0    0    0  501 -0.0000000000e+00 -0.0000000000e+00 -1.8916030304e+03 1.8916030304e+03 0.0000000000e+00 0.0000e+00 1.0000e+00
      -13  1    1    2    0    0 +2.6524853919e+03 -1.0420559940e+03 +7.6580275096e+02 2.9509343101e+03 0.0000000000e+00 0.0000e+00 1.0000e+00
       13  1    1    2    0    0 -2.6524853919e+03 +1.0420559940e+03 +1.7420080634e+03 3.3400825652e+03 0.0000000000e+00 0.0000e+00 -1.0000e+00
<mgrwt>
<rscale>  0 0.57695562E+04</rscale>
<asrwt>0</asrwt>
<pdfrwt beam="1">  1        2 0.67683290E+00 0.57695562E+04</pdfrwt>
<pdfrwt beam="2">  1       -2 0.29101585E+00 0.57695562E+04</pdfrwt>
<totfact> 0.31151657E-03</totfact>
</mgrwt>
<rwgt>
<wgt id='morphing_basis_vector_1'> +1.3773683e-06 </wgt>
<wgt id='morphing_basis_vector_2'> +9.9906628e-07 </wgt>
<wgt id='morphing_basis_vector_3'> +1.5342069e-06 </wgt>
<wgt id='morphing_basis_vector_4'> +1.0185934e-06 </wgt>
<wgt id='morphing_basis_vector_5'> +1.7139906e-06 </wgt>
</rwgt>
</event>
<event>
 4      1 +9.0096000e-12 5.59557700e+03 7.81860800e-03 7.30821300e-02
        2 -1    0    0  501    0 +0.0000000000e+00 +0.0000000000e+00 +3.1907997417e+03 3.1907997417e+03 0.0000000000e+00 0.0000e+00 1.0000e+00
       -2 -1    0    0    0  501 -0.0000000000e+00 -0.0000000000e+00 -2.4531842059e+03 2.4531842059e+03 0.0000000000e+00 0.0000e+00 -1.0000e+00
      -13  1    1    2    0    0 +1.0523167987e+03 +1.2483934408e+03 -1.9227981639e+03 2.5225006654e+03 0.0000000000e+00 0.0000e+00 -1.0000e+00
       13  1    1    2    0    0 -1.0523167987e+03 -1.2483934408e+03 +2.6604136997e+03 3.1214832822e+03 0.0000000000e+00 0.0000e+00 1.0000e+00
<mgrwt>
<rscale>  0 0.55955767E+04</rscale>
<asrwt>0</asrwt>
<pdfrwt beam="1">  1        2 0.49089227E+00 0.55955767E+04</pdfrwt>
<pdfrwt beam="2">  1       -2 0.37741295E+00 0.55955767E+04</pdfrwt>
<totfact> 0.81508926E-03</totfact>
</mgrwt>
<rwgt>
<wgt id='morphing_basis_vector_1'> +1.1948432e-06 </wgt>
<wgt id='morphing_basis_vector_2'> +8.1318131e-07 </wgt>
<wgt id='morphing_basis_vector_3'> +1.3180337e-06 </wgt>
<wgt id='morphing_basis_vector_4'> +9.5246881e-07 </wgt>
<wgt id='morphing_basis_vector_5'> +1.5202935e-06 </wgt>
</rwgt>
</event>
<event>
 4      1 +9.0096000e-12 5.72349400e+03 7.81860800e-03 7.29308300e-02
        2 -1    0    0  501    0 +0.0000000000e+00 +0.0000000000e+00 +2.2298691667e+03 2.2298691667e+03 0.0000000000e+00 0.0000e+00 -1.0000e+00
       -2 -1    0    0    0  501 -0.0000000000e+00 -0.0000000000e+00 -3.6726797111e+03 3.6726797111e+03 0.0000000000e+00 0.0000e+00 1.0000e+00
      -13  1    1    2    0    0 +1.3701719559e+02 +1.2497939561e+03 -3.3725954649e+03 3.5993275503e+03 0.0000000000e+00 0.0000e+00 1.0000e+00
       13  1    1    2    0    0 -1.3701719559e+02 -1.2497939561e+03 +1.9297849204e+03 2.3032213275e+03 0.0000000000e+00 0.0000e+00 -1.0000e+00
<mgrwt>
<rscale>  0 0.57234938E+04</rscale>
<asrwt>0</asrwt>
<pdfrwt beam="1">  1        2 0.34305680E+00 0.57234938E+04</pdfrwt>
<pdfrwt beam="2">  1       -2 0.56502764E+00 0.57234938E+04</pdfrwt>
<totfact> 0.15147855E-03</totfact>
</mgrwt>
<rwgt>
<wgt id='morphing_basis_vector_1'> +1.3071811e-06 </wgt>
<wgt id='morphing_basis_vector_2'> +8.8881224e-07 </wgt>
<wgt id='morphing_basis_vector_3'> +1.4420450e-06 </wgt>
<wgt id='morphing_basis_vector_4'> +1.0437238e-06 </wgt>
<wgt id='morphing_basis_vector_5'> +1.6645995e-06 </wgt>
</rwgt>
</event>
<event>
 4      1 +9.0096000e-12 5.91336900e+03 7.81860800e-03 7.27135300e-02
        2 -1    0    0  501    0 +0.0000000000e+00 +0.0000000000e+00 +3.0363468956e+03 3.0363468956e+03 0.0000000000e+00 0.0000e+00 -1.0000e+00
       -2 -1    0    0    0  501 -0.0000000000e+00 -0.0000000000e+00 -2.8791116658e+03 2.8791116658e+03 0.0000000000e+00 0.0000e+00 1.0000e+00
      -13  1    1    2    0    0 +3.7670815393e+02 -2.0951527607e+03 -1.9740354181e+03 2.9031689506e+03 0.0000000000e+00 0.0000e+00 1.0000e+00
       13  1    1    2    0    0 -3.7670815393e+02 +2.0951527607e+03 +2.1312706479e+03 3.0122896107e+03 0.0000000000e+00 0.0000e+00 -1.0000e+00
<mgrwt>
<rscale>  0 0.59133685E+04</rscale>
<asrwt>0</asrwt>
<pdfrwt beam="1">  1        2 0.46713029E+00 0.59133685E+04</pdfrwt>
<pdfrwt beam="2">  1       -2 0.44294026E+00 0.59133685E+04</pdfrwt>
<totfact> 0.37239845E-03</totfact>
</mgrwt>
<rwgt>
<wgt id='morphing_basis_vector_1'> +1.4907981e-06 </wgt>
<wgt id='morphing_basis_vector_2'> +1.0179263e-06 </wgt>
<wgt id='morphing_basis_vector_3'> +1.6460474e-06 </wgt>
<wgt id='morphing_basis_vector_4'> +1.1857671e-06 </wgt>
<wgt id='morphing_basis_vector_5'> +1.8969816e-06 </wgt>
</rwgt>
</event>
<event>
 4      1 +9.0096000e-12 5.60067100e+03 7.81860800e-03 7.30760200e-02
        2 -1    0    0  501    0 +0.0000000000e+00 +0.0000000000e+00 +2.7199929513e+03 2.7199929513e+03 0.0000000000e+00 0.0000e+00 1.0000e+00
       -2 -1    0    0    0  501 -0.0000000000e+00 -0.0000000000e+00 -2.8830516805e+03 2.8830516805e+03 0.0000000000e+00 0.0000e+00 -1.0000e+00
      -13  1    1    2    0    0 +5.4144261214e+02 -5.3118906946e+02 -2.7783270387e+03 2.8800040041e+03 0.0000000000e+00 0.0000e+00 -1.0000e+00
       13  1    1    2    0    0 -5.4144261214e+02 +5.3118906946e+02 +2.6152683095e+03 2.7230406277e+03 0.0000000000e+00 0.0000e+00 1.0000e+00
<mgrwt>
<rscale>  0 0.56006715E+04</rscale>
<asrwt>0</asrwt>
<pdfrwt beam="1">  1        2 0.41846046E+00 0.56006715E+04</pdfrwt>
<pdfrwt beam="2">  1       -2 0.44354641E+00 0.56006715E+04</pdfrwt>
<totfact> 0.60056083E-03</totfact>
</mgrwt>
<rwgt>
<wgt id='morphing_basis_vector_1'> +1.1986807e-06 </wgt>
<wgt id='morphing_basis_vector_2'> +8.1465065e-07 </wgt>
<wgt id='morphing_basis_vector_3'> +1.3220109e-06 </wgt>
<wgt id='morphing_basis_vector_4'> +9.5703774e-07 </wgt>
<wgt id='morphing_basis_vector_5'> +1.5259434e-06 </wgt>
</rwgt>
</event>
<event>
 4      1 +9.0096000e-12 5.66584500e+03 7.81860800e-03 7.29985100e-02
        2 -1    0    0  501    0 +0.0000000000e+00 +0.0000000000e+00 +2.2696280701e+03 2.2696280701e+03 0.0000000000e+00 0.0000e+00 1.0000e+00
       -2 -1    0    0    0  501 -0.0000000000e+00 -0.0000000000e+00 -3.5360195389e+03 3.5360195389e+03 0.0000000000e+00 0.0000e+00 -1.0000e+00
      -13  1    1    2    0    0 -1.3469335377e+03 +1.4091806102e+03 -2.7395015078e+03 3.3622742985e+03 0.0000000000e+00 0.0000e+00 -1.0000e+00
       13  1    1    2    0    0 +1.3469335377e+03 -1.4091806102e+03 +1.4731100391e+03 2.4433733105e+03 0.0000000000e+00 0.0000e+00 1.0000e+00
<mgrwt>
<rscale>  0 0.56658448E+04</rscale>
<asrwt>0</asrwt>
<pdfrwt beam="1">  1        2 0.34917355E+00 0.56658448E+04</pdfrwt>
<pdfrwt beam="2">  1       -2 0.54400301E+00 0.56658448E+04</pdfrwt>
<totfact> 0.20443004E-03</totfact>
</mgrwt>
<rwgt>
<wgt id='morphing_basis_vector_1'> +1.2565815e-06 </wgt>
<wgt id='morphing_basis_vector_2'> +8.5694020e-07 </wgt>
<wgt id='morphing_basis_vector_3'> +1.3866962e-06 </wgt>
<wgt id='morphing_basis_vector_4'> +9.9975693e-07 </wgt>
<wgt id='morphing_basis_vector_5'> +1.5981763e-06 </wgt>
</rwgt>
</event>
<event>
 4      1 +9.0096000e-12 5.79826200e+03 7.81860800e-03 7.28442500e-02
        2 -1    0    0  501    0 +0.0000000000e+00 +0.0000000000e+00 +2.8573518021e+03 2.8573518021e+03 0.0000000000e+00 0.0000e+00 1.0000e+00
       -2 -1    0    0    0  501 -0.0000000000e+00 -0.0000000000e+00 -2.9415209397e+03 2.9415209397e+03 0.0000000000e+00 0.0000e+00 -1.0000e+00
      -13  1    1    2    0    0 -6.3250456733e+02 +1.5645070013e+02 -2.8673461425e+03 2.9404443117e+03 0.0000000000e+00 0.0000e+00 -1.0000e+00
       13  1    1    2    0    0 +6.3250456733e+02 -1.5645070013e+02 +2.7831770049e+03 2.8584284301e+03 0.0000000000e+00 0.0000e+00 1.0000e+00
<mgrwt>
<rscale>  0 0.57982619E+04</rscale>
<asrwt>0</asrwt>
<pdfrwt beam="1">  1        2 0.43959259E+00 0.57982619E+04</pdfrwt>
<pdfrwt beam="2">  1       -2 0.45254168E+00 0.57982619E+04</pdfrwt>
<totfact> 0.42037644E-03</totfact>
</mgrwt>
<rwgt>
<wgt id='morphing_basis_vector_1'> +1.3765070e-06 </wgt>
<wgt id='morphing_basis_vector_2'> +9.3568060e-07 </wgt>
<wgt id='morphing_basis_vector_3'> +1.5186256e-06 </wgt>
<wgt id='morphing_basis_vector_4'> +1.0997980e-06 </wgt>
<wgt id='morphing_basis_vector_5'> +1.7535445e-06 </wgt>
</rwgt>
</event>
<event>
 4      1 +9.0096000e-12 6.01941000e+03 7.81860800e-03 7.25957600e-02
        2 -1    0    0  501    0 +0.0000000000e+00 +0.0000000000e+00 +3.0045226271e+03 3.0045226271e+03 0.0000000000e+00 0.0000e+00 -1.0000e+00
       -2 -1    0    0    0  501 -0.0000000000e+00 -0.0000000000e+00 -3.0148964556e+03 3.0148964556e+03 0.0000000000e+00 0.0000e+00 1.0000e+00
      -13  1    1    2    0    0 +2.2169990896e+03 +9.7071706490e+01 -2.0383689075e+03 3.0132135143e+03 0.0000000000e+00 0.0000e+00 1.0000e+00
       13  1    1    2    0    0 -2.2169990896e+03 -9.7071706490e+01 +2.0279950790e+03 3.0062055685e+03 0.0000000000e+00 0.0000e+00 -1.0000e+00
<mgrwt>
<rscale>  0 0.60194101E+04</rscale>
<asrwt>0</asrwt>
<pdfrwt beam="1">  1        2 0.46223425E+00 0.60194101E+04</pdfrwt>
<pdfrwt beam="2">  1       -2 0.46383022E+00 0.60194101E+04</pdfrwt>
<totfact> 0.27644831E-03</totfact>
</mgrwt>
<rwgt>
<wgt id='morphing_basis_vector_1'> +1.6006968e-06 </wgt>
<wgt id='morphing_basis_vector_2'> +1.0937851e-06 </wgt>
<wgt id='morphing_basis_vector_3'> +1.7678301e-06 </wgt>
<wgt id='morphing_basis_vector_4'> +1.2726594e-06 </wgt>
<wgt id='morphing_basis_vector_5'> +2.0370218e-06 </wgt>
</rwgt>
</event>
<event>
 4      1 +9.0096000e-12 6.53844700e+03 7.81860800e-03 7.20528500e-02
        2 -1    0    0  501    0 +0.0000000000e+00 +0.0000000000e+00 +3.4094372598e+03 3.4094372598e+03 0.0000000000e+00 0.0000e+00 1.0000e+00
       -2 -1    0    0    0  501 -0.0000000000e+00 -0.0000000000e+00 -3.1347758140e+03 3.1347758140e+03 0.0000000000e+00 0.0000e+00 -1.0000e+00
      -13  1    1    2    0    0 -4.4293175324e+02 -9.1231986636e+02 -2.9733525128e+03 3.1415507702e+03 0.0000000000e+00 0.0000e+00 -1.0000e+00
       13  1    1    2    0    0 +4.4293175324e+02 +9.1231986636e+02 +3.2480139586e+03 3.4026623035e+03 0.0000000000e+00 0.0000e+00 1.0000e+00
<mgrwt>
<rscale>  0 0.65384467E+04</rscale>
<asrwt>0</asrwt>
<pdfrwt beam="1">  1        2 0.52452881E+00 0.65384467E+04</pdfrwt>
<pdfrwt beam="2">  1       -2 0.48227320E+00 0.65384467E+04</pdfrwt>
<totfact> 0.10319561E-03</totfact>
</mgrwt>
<rwgt>
<wgt id='morphing_basis_vector_1'> +2.2235143e-06 </wgt>
<wgt id='morphing_basis_vector_2'> +1.5124927e-06 </wgt>
<wgt id='morphing_basis_vector_3'> +2.4555021e-06 </wgt>
<wgt id='morphing_basis_vector_4'> +1.7800206e-06 </wgt>
<wgt id='morphing_basis_vector_5'> +2.8383094e-06 </wgt>
</rwgt>
</event>
<event>
 4      1 +9.0096000e-12 5.59622600e+03 7.81860800e-03 7.30813500e-02
        2 -1    0    0  501    0 +0.0000000000e+00 +0.0000000000e+00 +2.6513106522e+03 2.6513106522e+03 0.0000000000e+00 0.0000e+00 -1.0000e+00
       -2 -1    0    0    0  501 -0.0000000000e+00 -0.0000000000e+00 -2.9530436800e+03 2.9530436800e+03 0.0000000000e+00 0.0000e+00 1.0000e+00
      -13  1    1    2    0    0 +8.8954400426e+02 +2.6515987406e+03 -6.6057332520e+01 2.7976111216e+03 0.0000000000e+00 0.0000e+00 1.0000e+00
       13  1    1    2    0    0 -8.8954400426e+02 -2.6515987406e+03 -2.3567569533e+02 2.8067432106e+03 0.0000000000e+00 0.0000e+00 -1.0000e+00
<mgrwt>
<rscale>  0 0.55962259E+04</rscale>
<asrwt>0</asrwt>
<pdfrwt beam="1">  1        2 0.40789394E+00 0.55962259E+04</pdfrwt>
<pdfrwt beam="2">  1       -2 0.45431441E+00 0.55962259E+04</pdfrwt>
<totfact> 0.55724709E-03</totfact>
</mgrwt>
<rwgt>
<wgt id='morphing_basis_vector_1'> +1.2439002e-06 </wgt>
<wgt id='morphing_basis_vector_2'> +9.5595052e-07 </wgt>
<wgt id='morphing_basis_vector_3'> +1.3976792e-06 </wgt>
<wgt id='morphing_basis_vector_4'> +8.4929511e-07 </wgt>
<wgt id='morphing_basis_vector_5'> +1.5122954e-06 </wgt>
</rwgt>
</event>
<event>
 4      1 +9.0096000e-12 5.61989100e+03 7.81860800e-03 7.30530500e-02
        2 -1    0    0  501    0 +0.0000000000e+00 +0.0000000000e+00 +3.5298385568e+03 3.5298385568e+03 0.0000000000e+00 0.0000e+00 1.0000e+00
       -2 -1    0    0    0  501 -0.0000000000e+00 -0.0000000000e+00 -2.2368707093e+03 2.2368707093e+03 0.0000000000e+00 0.0000e+00 -1.0000e+00
      -13  1    1    2    0    0 -3.2859196350e+02 -2.7833562382e+03 +4.3934937508e+02 2.8369124944e+03 0.0000000000e+00 0.0000e+00 -1.0000e+00
       13  1    1    2    0    0 +3.2859196350e+02 +2.7833562382e+03 +8.5361847237e+02 2.9297967717e+03 0.0000000000e+00 0.0000e+00 1.0000e+00
<mgrwt>
<rscale>  0 0.56198906E+04</rscale>
<asrwt>0</asrwt>
<pdfrwt beam="1">  1        2 0.54305209E+00 0.56198906E+04</pdfrwt>
<pdfrwt beam="2">  1       -2 0.34413395E+00 0.56198906E+04</pdfrwt>
<totfact> 0.76747965E-03</totfact>
</mgrwt>
<rwgt>
<wgt id='morphing_basis_vector_1'> +1.2495599e-06 </wgt>
<wgt id='morphing_basis_vector_2'> +9.2681955e-07 </wgt>
<wgt id='morphing_basis_vector_3'> +1.3962822e-06 </wgt>
<wgt id='morphing_basis_vector_4'> +8.9681433e-07 </wgt>
<wgt id='morphing_basis_vector_5'> +1.5408779e-06 </wgt>
</rwgt>
</event>
<event>
 4      1 +9.0096000e-12 5.78681600e+03 7.81860800e-03 7.28574200e-02
        2 -1    0    0  501    0 +0.0000000000e+00 +0.0000000000e+00 +5.0324843674e+03 5.0324843674e+03 0.0000000000e+00 0.0000e+00 -1.0000e+00
       -2 -1    0    0    0  501 -0.0000000000e+00 -0.0000000000e+00 -1.6635542461e+03 1.6635542461e+03 0.0000000000e+00 0.0000e+00 1.0000e+00
      -13  1    1    2    0    0 -1.5171101875e+03 +1.2728532632e+02 -1.1626102428e+03 1.9155906275e+03 0.0000000000e+00 0.0000e+00 1.0000e+00
       13  1    1    2    0    0 +1.5171101875e+03 -1.2728532632e+02 +4.5315403641e+03 4.7804479860e+03 0.0000000000e+00 0.0000e+00 -1.0000e+00
<mgrwt>
<rscale>  0 0.57868163E+04</rscale>
<asrwt>0</asrwt>
<pdfrwt beam="1">  1        2 0.77422836E+00 0.57868163E+04</pdfrwt>
<pdfrwt beam="2">  1       -2 0.25593142E+00 0.57868163E+04</pdfrwt>
<totfact> 0.10017169E-03</totfact>
</mgrwt>
<rwgt>
<wgt id='morphing_basis_vector_1'> +1.3660522e-06 </wgt>
<wgt id='morphing_basis_vector_2'> +9.2936465e-07 </wgt>
<wgt id='morphing_basis_vector_3'> +1.5072518e-06 </wgt>
<wgt id='morphing_basis_vector_4'> +1.0903603e-06 </wgt>
<wgt id='morphing_basis_vector_5'> +1.7396434e-06 </wgt>
</rwgt>
</event>
<event>
 4      1 +9.0096000e-12 5.77809900e+03 7.81860800e-03 7.28674700e-02
        2 -1    0    0  501    0 +0.0000000000e+00 +0.0000000000e+00 +4.2087251395e+03 4.2087251395e+03 0.0000000000e+00 0.0000e+00 -1.0000e+00
       -2 -1    0    0    0  501 -0.0000000000e+00 -0.0000000000e+00 -1.9831676921e+03 1.9831676921e+03 0.0000000000e+00 0.0000e+00 1.0000e+00
      -13  1    1    2    0    0 +2.0011136641e+03 -6.6949510168e+01 -1.1190798324e+03 2.2937475460e+03 0.0000000000e+00 0.0000e+00 1.0000e+00
       13  1    1    2    0    0 -2.0011136641e+03 +6.6949510168e+01 +3.3446372799e+03 3.8981452856e+03 0.0000000000e+00 0.0000e+00 -1.0000e+00
<mgrwt>
<rscale>  0 0.57780992E+04</rscale>
<asrwt>0</asrwt>
<pdfrwt beam="1">  1        2 0.64749617E+00 0.57780992E+04</pdfrwt>
<pdfrwt beam="2">  1       -2 0.30510272E+00 0.57780992E+04</pdfrwt>
<totfact> 0.38068593E-03</totfact>
</mgrwt>
<rwgt>
<wgt id='morphing_basis_vector_1'> +1.3589526e-06 </wgt>
<wgt id='morphing_basis_vector_2'> +9.2699063e-07 </wgt>
<wgt id='morphing_basis_vector_3'> +1.4999743e-06 </wgt>
<wgt id='morphing_basis_vector_4'> +1.0814541e-06 </wgt>
<wgt id='morphing_basis_vector_5'> +1.7289638e-06 </wgt>
</rwgt>
</event>
<event>
 4      1 +9.0096000e-12 6.02227400e+03 7.81860800e-03 7.25926100e-02
        2 -1    0    0  501    0 +0.0000000000e+00 +0.0000000000e+00 +3.6658353991e+03 3.6658353991e+03 0.0000000000e+00 0.0000e+00 -1.0000e+00
       -2 -1    0    0    0  501 -0.0000000000e+00 -0.0000000000e+00 -2.4733642593e+03 2.4733642593e+03 0.0000000000e+00 0.0000e+00 1.0000e+00
      -13  1    1    2    0    0 +6.8688331344e+02 +6.2549032454e+02 -2.3236202376e+03 2.5024503673e+03 0.0000000000e+00 0.0000e+00 1.0000e+00
       13  1    1    2    0    0 -6.8688331344e+02 -6.2549032454e+02 +3.5160913773e+03 3.6367492911e+03 0.0000000000e+00 0.0000e+00 -1.0000e+00
<mgrwt>
<rscale>  0 0.60222741E+04</rscale>
<asrwt>0</asrwt>
<pdfrwt beam="1">  1        2 0.56397467E+00 0.60222741E+04</pdfrwt>
<pdfrwt beam="2">  1       -2 0.38051758E+00 0.60222741E+04</pdfrwt>
<totfact> 0.34254076E-03</totfact>
</mgrwt>
<rwgt>
<wgt id='morphing_basis_vector_1'> +1.6013349e-06 </wgt>
<wgt id='morphing_basis_vector_2'> +1.0888115e-06 </wgt>
<wgt id='morphing_basis_vector_3'> +1.7672714e-06 </wgt>
<wgt id='morphing_basis_vector_4'> +1.2802303e-06 </wgt>
<wgt id='morphing_basis_vector_5'> +2.0413423e-06 </wgt>
</rwgt>
</event>
<event>
 4      1 +9.0096000e-12 6.48720200e+03 7.81860800e-03 7.21041400e-02
        2 -1    0    0  501    0 +0.0000000000e+00 +0.0000000000e+00 +3.5646718903e+03 3.5646718903e+03 0.0000000000e+00 0.0000e+00 1.0000e+00
       -2 -1    0    0    0  501 -0.0000000000e+00 -0.0000000000e+00 -2.9514490605e+03 2.9514490605e+03 0.0000000000e+00 0.0000e+00 -1.0000e+00
      -13  1    1    2    0    0 -4.5213955273e+02 +7.4664669688e+02 -2.8312602348e+03 2.9627598591e+03 0.0000000000e+00 0.0000e+00 -1.0000e+00
       13  1    1    2    0    0 +4.5213955273e+02 -7.4664669688e+02 +3.4444830646e+03 3.5533610917e+03 0.0000000000e+00 0.0000e+00 1.0000e+00
<mgrwt>
<rscale>  0 0.64872020E+04</rscale>
<asrwt>0</asrwt>
<pdfrwt beam="1">  1        2 0.54841106E+00 0.64872020E+04</pdfrwt>
<pdfrwt beam="2">  1       -2 0.45406908E+00 0.64872020E+04</pdfrwt>
<totfact> 0.12769107E-03</totfact>
</mgrwt>
<rwgt>
<wgt id='morphing_basis_vector_1'> +2.1547291e-06 </wgt>
<wgt id='morphing_basis_vector_2'> +1.4655918e-06 </wgt>
<wgt id='morphing_basis_vector_3'> +2.3793911e-06 </wgt>
<wgt id='morphing_basis_vector_4'> +1.7248248e-06 </wgt>
<wgt id='morphing_basis_vector_5'> +2.7502126e-06 </wgt>
</rwgt>
</event>
<event>
 4      1 +9.0096000e-12 5.76546000e+03 7.81860800e-03 7.28820700e-02
        2 -1    0    0  501    0 +0.0000000000e+00 +0.0000000000e+00 +3.5739472843e+03 3.5739472843e+03 0.0000000000e+00 0.0000e+00 -1.0000e+00
       -2 -1    0    0    0  501 -0.0000000000e+00 -0.0000000000e+00 -2.3251969424e+03 2.3251969424e+03 0.0000000000e+00 0.0000e+00 1.0000e+00
      -13  1    1    2    0    0 -2.6160285294e+03 +8.1972021017e+02 +1.5364389409e+03 3.1426407858e+03 0.0000000000e+00 0.0000e+00 1.0000e+00
       13  1    1    2    0    0 +2.6160285294e+03 -8.1972021017e+02 -2.8768859899e+02 2.7565034409e+03 0.0000000000e+00 0.0000e+00 -1.0000e+00
<mgrwt>
<rscale>  0 0.57654597E+04</rscale>
<asrwt>0</asrwt>
<pdfrwt beam="1">  1        2 0.54983805E+00 0.57654597E+04</pdfrwt>
<pdfrwt beam="2">  1       -2 0.35772261E+00 0.57654597E+04</pdfrwt>
<totfact> 0.57459129E-03</totfact>
</mgrwt>
<rwgt>
<wgt id='morphing_basis_vector_1'> +1.4872512e-06 </wgt>
<wgt id='morphing_basis_vector_2'> +1.3302349e-06 </wgt>
<wgt id='morphing_basis_vector_3'> +1.7154251e-06 </wgt>
<wgt id='morphing_basis_vector_4'> +7.7248546e-07 </wgt>
<wgt id='morphing_basis_vector_5'> +1.6886722e-06 </wgt>
</rwgt>
</event>
<event>
 4      1 +9.0096000e-12 6.02800800e+03 7.81860800e-03 7.25863200e-02
        2 -1    0    0  501    0 +0.0000000000e+00 +0.0000000000e+00 +1.7393973519e+03 1.7393973519e+03 0.0000000000e+00 0.0000e+00 1.0000e+00
       -2 -1    0    0    0  501 -0.0000000000e+00 -0.0000000000e+00 -5.2226242422e+03 5.2226242422e+03 0.0000000000e+00 0.0000e+00 -1.0000e+00
      -13  1    1    2    0    0 +1.6591377856e+03 +7.9080387291e+02 -4.5004860125e+03 4.8613252623e+03 0.0000000000e+00 0.0000e+00 -1.0000e+00
       13  1    1    2    0    0 -1.6591377856e+03 -7.9080387291e+02 +1.0172591222e+03 2.1006963319e+03 0.0000000000e+00 0.0000e+00 1.0000e+00
<mgrwt>
<rscale>  0 0.60280076E+04</rscale>
<asrwt>0</asrwt>
<pdfrwt beam="1">  1        2 0.26759959E+00 0.60280076E+04</pdfrwt>
<pdfrwt beam="2">  1       -2 0.80348065E+00 0.60280076E+04</pdfrwt>
<totfact> 0.74598294E-04</totfact>
</mgrwt>
<rwgt>
<wgt id='morphing_basis_vector_1'> +1.6082656e-06 </wgt>
<wgt id='morphing_basis_vector_2'> +1.0954189e-06 </wgt>
<wgt id='morphing_basis_vector_3'> +1.7753781e-06 </wgt>
<wgt id='morphing_basis_vector_4'> +1.2833310e-06 </wgt>
<wgt id='morphing_basis_vector_5'> +2.0489935e-06 </wgt>
</rwgt>
</event>
<event>
 4      1 +9.0096000e-12 6.42590900e+03 7.81860800e-03 7.21661200e-02
        2 -1    0    0  501    0 +0.0000000000e+00 +0.0000000000e+00 +3.1077584165e+03 3.1077584165e+03 0.0000000000e+00 0.0000e+00 -1.0000e+00
       -2 -1    0    0    0  501 -0.0000000000e+00 -0.0000000000e+00 -3.3217109654e+03 3.3217109654e+03 0.0000000000e+00 0.0000e+00 1.0000e+00
      -13  1    1    2    0    0 -3.0671515291e+03 +1.4154696200e+02 -1.0538733280e+03 3.2462444511e+03 0.0000000000e+00 0.0000e+00 1.0000e+00
       13  1    1    2    0    0 +3.0671515291e+03 -1.4154696200e+02 +8.3992077897e+02 3.1832249308e+03 0.0000000000e+00 0.0000e+00 -1.0000e+00
<mgrwt>
<rscale>  0 0.64259086E+04</rscale>
<asrwt>0</asrwt>
<pdfrwt beam="1">  1        2 0.47811668E+00 0.64259086E+04</pdfrwt>
<pdfrwt beam="2">  1       -2 0.51103246E+00 0.64259086E+04</pdfrwt>
<totfact> 0.10244950E-03</totfact>
</mgrwt>
<rwgt>
<wgt id='morphing_basis_vector_1'> +2.0989555e-06 </wgt>
<wgt id='morphing_basis_vector_2'> +1.4825101e-06 </wgt>
<wgt id='morphing_basis_vector_3'> +2.3305885e-06 </wgt>
<wgt id='morphing_basis_vector_4'> +1.6082720e-06 </wgt>
<wgt id='morphing_basis_vector_5'> +2.6431533e-06 </wgt>
</rwgt>
</event>
<event>
 4      1 +9.0096000e-12 6.01648100e+03 7.81860800e-03 7.25989800e-02
        2 -1    0    0  501    0 +0.0000000000e+00 +0.0000000000e+00 +4.2602256109e+03 4.2602256109e+03 0.0000000000e+00 0.0000e+00 -1.0000e+00
       -2 -1    0    0    0  501 -0.0000000000e+00 -0.0000000000e+00 -2.1241855685e+03 2.1241855685e+03 0.0000000000e+00 0.0000e+00 1.0000e+00
      -13  1    1    2    0    0 +2.9370223504e+02 -2.0811303757e+03 -1.2158395971e+03 2.4280919606e+03 0.0000000000e+00 0.0000e+00 1.0000e+00
       13  1    1    2    0    0 -2.9370223504e+02 +2.0811303757e+03 +3.3518796394e+03 3.9563192188e+03 0.0000000000e+00 0.0000e+00 -1.0000e+00
<mgrwt>
<rscale>  0 0.60164806E+04</rscale>
<asrwt>0</asrwt>
<pdfrwt beam="1">  1        2 0.65541933E+00 0.60164806E+04</pdfrwt>
<pdfrwt beam="2">  1       -2 0.32679778E+00 0.60164806E+04</pdfrwt>
<totfact> 0.24008308E-03</totfact>
</mgrwt>
<rwgt>
<wgt id='morphing_basis_vector_1'> +1.5969437e-06 </wgt>
<wgt id='morphing_basis_vector_2'> +1.0897622e-06 </wgt>
<wgt id='morphing_basis_vector_3'> +1.7633362e-06 </wgt>
<wgt id='morphing_basis_vector_4'> +1.2715612e-06 </wgt>
<wgt id='morphing_basis_vector_5'> +2.0331668e-06 </wgt>
</rwgt>
</event>
<event>
 4      1 +9.0096000e-12 5.66280300e+03 7.81860800e-03 7.30021000e-02
        2 -1    0    0  501    0 +0.0000000000e+00 +0.0000000000e+00 +3.2783598781e+03 3.2783598781e+03 0.0000000000e+00 0.0000e+00 1.0000e+00
       -2 -1    0    0    0  501 -0.0000000000e+00 -0.0000000000e+00 -2.4453792468e+03 2.4453792468e+03 0.0000000000e+00 0.0000e+00 -1.0000e+00
      -13  1    1    2    0    0 -1.2811292326e+03 -9.3993642980e+02 -1.9522424757e+03 2.5171458612e+03 0.0000000000e+00 0.0000e+00 -1.0000e+00
       13  1    1    2    0    0 +1.2811292326e+03 +9.3993642980e+02 +2.7852231070e+03 3.2065932636e+03 0.0000000000e+00 0.0000e+00 1.0000e+00
<mgrwt>
<rscale>  0 0.56628026E+04</rscale>
<asrwt>0</asrwt>
<pdfrwt beam="1">  1        2 0.50436306E+00 0.56628026E+04</pdfrwt>
<pdfrwt beam="2">  1       -2 0.37621219E+00 0.56628026E+04</pdfrwt>
<totfact> 0.71885164E-03</totfact>
</mgrwt>
<rwgt>
<wgt id='morphing_basis_vector_1'> +1.2530554e-06 </wgt>
<wgt id='morphing_basis_vector_2'> +8.5264791e-07 </wgt>
<wgt id='morphing_basis_vector_3'> +1.3823576e-06 </wgt>
<wgt id='morphing_basis_vector_4'> +9.9939332e-07 </wgt>
<wgt id='morphing_basis_vector_5'> +1.5948883e-06 </wgt>
</rwgt>
</event>
<event>
 4      1 +9.0096000e-12 5.86422300e+03 7.81860800e-03 7.27689700e-02
        2 -1    0    0  501    0 +0.0000000000e+00 +0.0000000000e+00 +3.2530026652e+03 3.2530026652e+03 0.0000000000e+00 0.0000e+00 1.0000e+00
       -2 -1    0    0    0  501 -0.0000000000e+00 -0.0000000000e+00 -2.6428745334e+03 2.6428745334e+03 0.0000000000e+00 0.0000e+00 -1.0000e+00
      -13  1    1    2    0    0 -6.7296665072e+02 +8.4596602433e+02 -2.4352187810e+03 2.6643635522e+03 0.0000000000e+00 0.0000e+00 -1.0000e+00
       13  1    1    2    0    0 +6.7296665072e+02 -8.4596602433e+02 +3.0453469128e+03 3.2315136464e+03 0.0000000000e+00 0.0000e+00 1.0000e+00
<mgrwt>
<rscale>  0 0.58642230E+04</rscale>
<asrwt>0</asrwt>
<pdfrwt beam="1">  1        2 0.50046195E+00 0.58642230E+04</pdfrwt>
<pdfrwt beam="2">  1       -2 0.40659608E+00 0.58642230E+04</pdfrwt>
<totfact> 0.46786629E-03</totfact>
</mgrwt>
<rwgt>
<wgt id='morphing_basis_vector_1'> +1.4401316e-06 </wgt>
<wgt id='morphing_basis_vector_2'> +9.7914925e-07 </wgt>
<wgt id='morphing_basis_vector_3'> +1.5890178e-06 </wgt>
<wgt id='morphing_basis_vector_4'> +1.1506758e-06 </wgt>
<wgt id='morphing_basis_vector_5'> +1.8348910e-06 </wgt>
</rwgt>
</event>
<event>
 4      1 +9.0096000e-12 5.68541000e+03 7.81860800e-03 7.29754500e-02
        2 -1    0    0  501    0 +0.0000000000e+00 +0.0000000000e+00 +3.1065277351e+03 3.1065277351e+03 0.0000000000e+00 0.0000e+00 -1.0000e+00
       -2 -1    0    0    0  501 -0.0000000000e+00 -0.0000000000e+00 -2.6012874156e+03 2.6012874156e+03 0.0000000000e+00 0.0000e+00 1.0000e+00
      -13  1    1    2    0    0 -1.4971070308e+03 +1.5576612088e+03 +2.1074218567e+03 3.0180895920e+03 0.0000000000e+00 0.0000e+00 1.0000e+00
       13  1    1    2    0    0 +1.4971070308e+03 -1.5576612088e+03 -1.6021815372e+03 2.6897255587e+03 0.0000000000e+00 0.0000e+00 -1.0000e+00
<mgrwt>
<rscale>  0 0.56854099E+04</rscale>
<asrwt>0</asrwt>
<pdfrwt beam="1">  1        2 0.47792735E+00 0.56854099E+04</pdfrwt>
<pdfrwt beam="2">  1       -2 0.40019806E+00 0.56854099E+04</pdfrwt>
<totfact> 0.65633849E-03</totfact>
</mgrwt>
<rwgt>
<wgt id='morphing_basis_vector_1'> +1.6078864e-06 </wgt>
<wgt id='morphing_basis_vector_2'> +1.8490209e-06 </wgt>
<wgt id='morphing_basis_vector_3'> +1.9502913e-06 </wgt>
<wgt id='morphing_basis_vector_4'> +3.0013731e-07 </wgt>
<wgt id='morphing_basis_vector_5'> +1.5604556e-06 </wgt>
</rwgt>
</event>
<event>
 4      1 +9.0096000e-12 5.65117700e+03 7.81860800e-03 7.30158600e-02
        2 -1    0    0  501    0 +0.0000000000e+00 +0.0000000000e+00 +2.5175491798e+03 2.5175491798e+03 0.0000000000e+00 0.0000e+00 -1.0000e+00
       -2 -1    0    0    0  501 -0.0000000000e+00 -0.0000000000e+00 -3.1713184876e+03 3.1713184876e+03 0.0000000000e+00 0.0000e+00 1.0000e+00
      -13  1    1    2    0    0 +3.9845296225e+02 +6.2419046173e+02 +2.4181264734e+03 2.5289749182e+03 0.0000000000e+00 0.0000e+00 -1.0000e+00
       13  1    1    2    0    0 -3.9845296225e+02 -6.2419046173e+02 -3.0718957813e+03 3.1598927492e+03 0.0000000000e+00 0.0000e+00 1.0000e+00
<mgrwt>
<rscale>  0 0.56511770E+04</rscale>
<asrwt>0</asrwt>
<pdfrwt beam="1">  1        2 0.38731526E+00 0.56511770E+04</pdfrwt>
<pdfrwt beam="2">  1       -2 0.48789515E+00 0.56511770E+04</pdfrwt>
<totfact> 0.38080232E-03</totfact>
</mgrwt>
<rwgt>
<wgt id='morphing_basis_vector_1'> +1.7020206e-06 </wgt>
<wgt id='morphing_basis_vector_2'> +2.1937008e-06 </wgt>
<wgt id='morphing_basis_vector_3'> +2.1195069e-06 </wgt>
<wgt id='morphing_basis_vector_4'> +1.0028758e-08 </wgt>
<wgt id='morphing_basis_vector_5'> +1.4993509e-06 </wgt>
</rwgt>
</event>
<event>
 4      1 +9.0096000e-12 5.56082900e+03 7.81860800e-03 7.31239400e-02
        2 -1    0    0  501    0 +0.0000000000e+00 +0.0000000000e+00 +3.4678119350e+03 3.4678119350e+03 0.0000000000e+00 0.0000e+00 1.0000e+00
       -2 -1    0    0    0  501 -0.0000000000e+00 -0.0000000000e+00 -2.2292742104e+03 2.2292742104e+03 0.0000000000e+00 0.0000e+00 -1.0000e+00
      -13  1    1    2    0    0 -9.1846730291e+02 -7.9641562455e+02 -1.9425714904e+03 2.2916029387e+03 0.0000000000e+00 0.0000e+00 -1.0000e+00
       13  1    1    2    0    0 +9.1846730291e+02 +7.9641562455e+02 +3.1811092150e+03 3.4054832067e+03 0.0000000000e+00 0.0000e+00 1.0000e+00
<mgrwt>
<rscale>  0 0.55608286E+04</rscale>
<asrwt>0</asrwt>
<pdfrwt beam="1">  1        2 0.53350953E+00 0.55608286E+04</pdfrwt>
<pdfrwt beam="2">  1       -2 0.34296527E+00 0.55608286E+04</pdfrwt>
<totfact> 0.87087854E-03</totfact>
</mgrwt>
<rwgt>
<wgt id='morphing_basis_vector_1'> +1.1651378e-06 </wgt>
<wgt id='morphing_basis_vector_2'> +7.9208043e-07 </wgt>
<wgt id='morphing_basis_vector_3'> +1.2849876e-06 </wgt>
<wgt id='morphing_basis_vector_4'> +9.2977903e-07 </wgt>
<wgt id='morphing_basis_vector_5'> +1.4828540e-06 </wgt>
</rwgt>
</event>
<event>
 4      1 +9.0096000e-12 6.29546100e+03 7.81860800e-03 7.23003900e-02
        2 -1    0    0  501    0 +0.0000000000e+00 +0.0000000000e+00 +3.4047640120e+03 3.4047640120e+03 0.0000000000e+00 0.0000e+00 -1.0000e+00
       -2 -1    0    0    0  501 -0.0000000000e+00 -0.0000000000e+00 -2.9101011853e+03 2.9101011853e+03 0.0000000000e+00 0.0000e+00 1.0000e+00
      -13  1    1    2    0    0 +1.1800891744e+03 -2.6085918083e+03 +1.5593561052e+03 3.2602075309e+03 0.0000000000e+00 0.0000e+00 1.0000e+00
       13  1    1    2    0    0 -1.1800891744e+03 +2.6085918083e+03 -1.0646932784e+03 3.0546576664e+03 0.0000000000e+00 0.0000e+00 -1.0000e+00
<mgrwt>
<rscale>  0 0.62954612E+04</rscale>
<asrwt>0</asrwt>
<pdfrwt beam="1">  1        2 0.52380985E+00 0.62954612E+04</pdfrwt>
<pdfrwt beam="2">  1       -2 0.44770787E+00 0.62954612E+04</pdfrwt>
<totfact> 0.18774575E-03</totfact>
</mgrwt>
<rwgt>
<wgt id='morphing_basis_vector_1'> +2.1899293e-06 </wgt>
<wgt id='morphing_basis_vector_2'> +2.1170785e-06 </wgt>
<wgt id='morphing_basis_vector_3'> +2.5655287e-06 </wgt>
<wgt id='morphing_basis_vector_4'> +9.3336634e-07 </wgt>
<wgt id='morphing_basis_vector_5'> +2.3884585e-06 </wgt>
</rwgt>
</event>
<event>
 4      1 +9.0096000e-12 6.39243300e+03 7.81860800e-03 7.22002700e-02
        2 -1    0    0  501    0 +0.0000000000e+00 +0.0000000000e+00 +2.6433774143e+03 2.6433774143e+03 0.0000000000e+00 0.0000e+00 -1.0000e+00
       -2 -1    0    0    0  501 -0.0000000000e+00 -0.0000000000e+00 -3.8646766135e+03 3.8646766135e+03 0.0000000000e+00 0.0000e+00 1.0000e+00
      -13  1    1    2    0    0 -2.1286775243e+03 -2.3379451670e+03 -1.0865912398e+03 3.3433420598e+03 0.0000000000e+00 0.0000e+00 1.0000e+00
       13  1    1    2    0    0 +2.1286775243e+03 +2.3379451670e+03 -1.3470795935e+02 3.1647119680e+03 0.0000000000e+00 0.0000e+00 -1.0000e+00
<mgrwt>
<rscale>  0 0.63924327E+04</rscale>
<asrwt>0</asrwt>
<pdfrwt beam="1">  1        2 0.40667345E+00 0.63924327E+04</pdfrwt>
<pdfrwt beam="2">  1       -2 0.59456564E+00 0.63924327E+04</pdfrwt>
<totfact> 0.48365634E-04</totfact>
</mgrwt>
<rwgt>
<wgt id='morphing_basis_vector_1'> +2.0751826e-06 </wgt>
<wgt id='morphing_basis_vector_2'> +1.5092262e-06 </wgt>
<wgt id='morphing_basis_vector_3'> +2.3143611e-06 </wgt>
<wgt id='morphing_basis_vector_4'> +1.5331169e-06 </wgt>
<wgt id='morphing_basis_vector_5'> +2.5848775e-06 </wgt>
</rwgt>
</event>
<event>
 4      1 +9.0096000e-12 5.76125800e+03 7.81860800e-03 7.28869300e-02
        2 -1    0    0  501    0 +0.0000000000e+00 +0.0000000000e+00 +3.4987213498e+03 3.4987213498e+03 0.0000000000e+00 0.0000e+00 -1.0000e+00
       -2 -1    0    0    0  501 -0.0000000000e+00 -0.0000000000e+00 -2.3717302103e+03 2.3717302103e+03 0.0000000000e+00 0.0000e+00 1.0000e+00
      -13  1    1    2    0    0 -1.7683451483e+03 -1.3525163956e+03 -1.2991768749e+03 2.5776356834e+03 0.0000000000e+00 0.0000e+00 1.0000e+00
       13  1    1    2    0    0 +1.7683451483e+03 +1.3525163956e+03 +2.4261680144e+03 3.2928158767e+03 0.0000000000e+00 0.0000e+00 -1.0000e+00
<mgrwt>
<rscale>  0 0.57612579E+04</rscale>
<asrwt>0</asrwt>
<pdfrwt beam="1">  1        2 0.53826482E+00 0.57612579E+04</pdfrwt>
<pdfrwt beam="2">  1       -2 0.36488157E+00 0.57612579E+04</pdfrwt>
<totfact> 0.58798148E-03</totfact>
</mgrwt>
<rwgt>
<wgt id='morphing_basis_vector_1'> +1.3445041e-06 </wgt>
<wgt id='morphing_basis_vector_2'> +9.2001952e-07 </wgt>
<wgt id='morphing_basis_vector_3'> +1.4846649e-06 </wgt>
<wgt id='morphing_basis_vector_4'> +1.0661200e-06 </wgt>
<wgt id='morphing_basis_vector_5'> +1.7086155e-06 </wgt>
</rwgt>
</event>
<event>
 4      1 +9.0096000e-12 6.49733500e+03 7.81860800e-03 7.20939600e-02
        2 -1    0    0  501    0 +0.0000000000e+00 +0.0000000000e+00 +3.0920234743e+03 3.0920234743e+03 0.0000000000e+00 0.0000e+00 -1.0000e+00
       -2 -1    0    0    0  501 -0.0000000000e+00 -0.0000000000e+00 -3.4132472959e+03 3.4132472959e+03 0.0000000000e+00 0.0000e+00 1.0000e+00
      -13  1    1    2    0    0 +1.9475818490e+03 +2.3587945467e+03 +9.3473250823e+02 3.1985483636e+03 0.0000000000e+00 0.0000e+00 1.0000e+00
       13  1    1    2    0    0 -1.9475818490e+03 -2.3587945467e+03 -1.2559563298e+03 3.3067224066e+03 0.0000000000e+00 0.0000e+00 -1.0000e+00
<mgrwt>
<rscale>  0 0.64973351E+04</rscale>
<asrwt>0</asrwt>
<pdfrwt beam="1">  1        2 0.47569592E+00 0.64973351E+04</pdfrwt>
<pdfrwt beam="2">  1       -2 0.52511497E+00 0.64973351E+04</pdfrwt>
<totfact> 0.82071563E-04</totfact>
</mgrwt>
<rwgt>
<wgt id='morphing_basis_vector_1'> +2.4169184e-06 </wgt>
<wgt id='morphing_basis_vector_2'> +2.2046822e-06 </wgt>
<wgt id='morphing_basis_vector_3'> +2.8012482e-06 </wgt>
<wgt id='morphing_basis_vector_4'> +1.2028928e-06 </wgt>
<wgt id='morphing_basis_vector_5'> +2.7226075e-06 </wgt>
</rwgt>
</event>
<event>
 4      1 +9.0096000e-12 5.99870000e+03 7.81860800e-03 7.26185700e-02
        2 -1    0    0  501    0 +0.0000000000e+00 +0.0000000000e+00 +2.5923382427e+03 2.5923382427e+03 0.0000000000e+00 0.0000e+00 -1.0000e+00
       -2 -1    0    0    0  501 -0.0000000000e+00 -0.0000000000e+00 -3.4702652794e+03 3.4702652794e+03 0.0000000000e+00 0.0000e+00 1.0000e+00
      -13  1    1    2    0    0 +3.0464088647e+02 -2.8423550366e+03 -1.3565523540e+03 3.1641780154e+03 0.0000000000e+00 0.0000e+00 1.0000e+00
       13  1    1    2    0    0 -3.0464088647e+02 +2.8423550366e+03 +4.7862531735e+02 2.8984255067e+03 0.0000000000e+00 0.0000e+00 -1.0000e+00
<mgrwt>
<rscale>  0 0.59987003E+04</rscale>
<asrwt>0</asrwt>
<pdfrwt beam="1">  1        2 0.39882127E+00 0.59987003E+04</pdfrwt>
<pdfrwt beam="2">  1       -2 0.53388697E+00 0.59987003E+04</pdfrwt>
<totfact> 0.15196762E-03</totfact>
</mgrwt>
<rwgt>
<wgt id='morphing_basis_vector_1'> +1.5943228e-06 </wgt>
<wgt id='morphing_basis_vector_2'> +1.1242947e-06 </wgt>
<wgt id='morphing_basis_vector_3'> +1.7689253e-06 </wgt>
<wgt id='morphing_basis_vector_4'> +1.2220592e-06 </wgt>
<wgt id='morphing_basis_vector_5'> +2.0062845e-06 </wgt>
</rwgt>
</event>
<event>
 4      1 +9.0096000e-12 5.64387900e+03 7.81860800e-03 7.30245100e-02
        2 -1    0    0  501    0 +0.0000000000e+00 +0.0000000000e+00 +3.1052278945e+03 3.1052278945e+03 0.0000000000e+00 0.0000e+00 -1.0000e+00
       -2 -1    0    0    0  501 -0.0000000000e+00 -0.0000000000e+00 -2.5644953280e+03 2.5644953280e+03 0.0000000000e+00 0.0000e+00 1.0000e+00
      -13  1    1    2    0    0 -9.5860828555e+02 -1.0794944491e+03 +2.7061557636e+03 3.0671676067e+03 0.0000000000e+00 0.0000e+00 -1.0000e+00
       13  1    1    2    0    0 +9.5860828555e+02 +1.0794944491e+03 -2.1654231971e+03 2.6025556158e+03 0.0000000000e+00 0.0000e+00 1.0000e+00
<mgrwt>
<rscale>  0 0.56438790E+04</rscale>
<asrwt>0</asrwt>
<pdfrwt beam="1">  1        2 0.47772737E+00 0.56438790E+04</pdfrwt>
<pdfrwt beam="2">  1       -2 0.39453774E+00 0.56438790E+04</pdfrwt>
<totfact> 0.71819425E-03</totfact>
</mgrwt>
<rwgt>
<wgt id='morphing_basis_vector_1'> +1.6718955e-06 </wgt>
<wgt id='morphing_basis_vector_2'> +2.1196753e-06 </wgt>
<wgt id='morphing_basis_vector_3'> +2.0737253e-06 </wgt>
<wgt id='morphing_basis_vector_4'> +5.5643023e-08 </wgt>
<wgt id='morphing_basis_vector_5'> +1.4954407e-06 </wgt>
</rwgt>
</event>
<event>
 4      1 +9.0096000e-12 5.89879100e+03 7.81860800e-03 7.27299200e-02
        2 -1    0    0  501    0 +0.0000000000e+00 +0.0000000000e+00 +3.5624866533e+03 3.5624866533e+03 0.0000000000e+00 0.0000e+00 1.0000e+00
       -2 -1    0    0    0  501 -0.0000000000e+00 -0.0000000000e+00 -2.4418150771e+03 2.4418150771e+03 0.0000000000e+00 0.0000e+00 -1.0000e+00
      -13  1    1    2    0    0 +2.9293800002e+03 -2.5846947863e+02 +7.8989119827e+02 3.0449961843e+03 0.0000000000e+00 0.0000e+00 -1.0000e+00
       13  1    1    2    0    0 -2.9293800002e+03 +2.5846947863e+02 +3.3078037800e+02 2.9593055462e+03 0.0000000000e+00 0.0000e+00 1.0000e+00
<mgrwt>
<rscale>  0 0.58987909E+04</rscale>
<asrwt>0</asrwt>
<pdfrwt beam="1">  1        2 0.54807487E+00 0.58987909E+04</pdfrwt>
<pdfrwt beam="2">  1       -2 0.37566386E+00 0.58987909E+04</pdfrwt>
<totfact> 0.44498471E-03</totfact>
</mgrwt>
<rwgt>
<wgt id='morphing_basis_vector_1'> +1.5454402e-06 </wgt>
<wgt id='morphing_basis_vector_2'> +1.2112163e-06 </wgt>
<wgt id='morphing_basis_vector_3'> +1.7429044e-06 </wgt>
<wgt id='morphing_basis_vector_4'> +1.0259943e-06 </wgt>
<wgt id='morphing_basis_vector_5'> +1.8658493e-06 </wgt>
</rwgt>
</event>
<event>
 4      1 +9.0096000e-12 5.61708800e+03 7.81860800e-03 7.30564000e-02
        2 -1    0    0  501    0 +0.0000000000e+00 +0.0000000000e+00 +2.9300436086e+03 2.9300436086e+03 0.0000000000e+00 0.0000e+00 1.0000e+00
       -2 -1    0    0    0  501 -0.0000000000e+00 -0.0000000000e+00 -2.6920824328e+03 2.6920824328e+03 0.0000000000e+00 0.0000e+00 -1.0000e+00
      -13  1    1    2    0    0 -7.6017159119e+02 +2.4667245562e+03 -9.8895764494e+02 2.7641686105e+03 0.0000000000e+00 0.0000e+00 -1.0000e+00
       13  1    1    2    0    0 +7.6017159119e+02 -2.4667245562e+03 +1.2269188208e+03 2.8579574309e+03 0.0000000000e+00 0.0000e+00 1.0000e+00
<mgrwt>
<rscale>  0 0.56170878E+04</rscale>
<asrwt>0</asrwt>
<pdfrwt beam="1">  1        2 0.45077594E+00 0.56170878E+04</pdfrwt>
<pdfrwt beam="2">  1       -2 0.41416653E+00 0.56170878E+04</pdfrwt>
<totfact> 0.69679147E-03</totfact>
</mgrwt>
<rwgt>
<wgt id='morphing_basis_vector_1'> +1.2219123e-06 </wgt>
<wgt id='morphing_basis_vector_2'> +8.5110365e-07 </wgt>
<wgt id='morphing_basis_vector_3'> +1.3524920e-06 </wgt>
<wgt id='morphing_basis_vector_4'> +9.4878173e-07 </wgt>
<wgt id='morphing_basis_vector_5'> +1.5423157e-06 </wgt>
</rwgt>
</event>
<event>
 4      1 +9.0096000e-12 5.66758700e+03 7.81860800e-03 7.29964500e-02
        2 -1    0    0  501    0 +0.0000000000e+00 +0.0000000000e+00 +3.5450172627e+03 3.5450172627e+03 0.0000000000e+00 0.0000e+00 -1.0000e+00
       -2 -1    0    0    0  501 -0.0000000000e+00 -0.0000000000e+00 -2.2652599737e+03 2.2652599737e+03 0.0000000000e+00 0.0000e+00 1.0000e+00
      -13  1    1    2    0    0 -1.8233736280e+02 -2.0430536593e+03 -1.3646155950e+03 2.4636336763e+03 0.0000000000e+00 0.0000e+00 1.0000e+00
       13  1    1    2    0    0 +1.8233736280e+02 +2.0430536593e+03 +2.6443728840e+03 3.3466435601e+03 0.0000000000e+00 0.0000e+00 -1.0000e+00
<mgrwt>
<rscale>  0 0.56675870E+04</rscale>
<asrwt>0</asrwt>
<pdfrwt beam="1">  1        2 0.54538727E+00 0.56675870E+04</pdfrwt>
<pdfrwt beam="2">  1       -2 0.34850153E+00 0.56675870E+04</pdfrwt>
<totfact> 0.69803694E-03</totfact>
</mgrwt>
<rwgt>
<wgt id='morphing_basis_vector_1'> +1.2585509e-06 </wgt>
<wgt id='morphing_basis_vector_2'> +8.5924725e-07 </wgt>
<wgt id='morphing_basis_vector_3'> +1.3890985e-06 </wgt>
<wgt id='morphing_basis_vector_4'> +1.0000777e-06 </wgt>
<wgt id='morphing_basis_vector_5'> +1.6000711e-06 </wgt>
</rwgt>
</event>
<event>
 4      1 +9.0096000e-12 6.00731300e+03 7.81860800e-03 7.26090700e-02
        2 -1    0    0  501    0 +0.0000000000e+00 +0.0000000000e+00 +3.6124316712e+03 3.6124316712e+03 0.0000000000e+00 0.0000e+00 -1.0000e+00
       -2 -1    0    0    0  501 -0.0000000000e+00 -0.0000000000e+00 -2.4974738408e+03 2.4974738408e+03 0.0000000000e+00 0.0000e+00 1.0000e+00
      -13  1    1    2    0    0 +7.3303764340e+02 -2.2305070164e+03 -1.3478659821e+03 2.7072584735e+03 0.0000000000e+00 0.0000e+00 1.0000e+00
       13  1    1    2    0    0 -7.3303764340e+02 +2.2305070164e+03 +2.4628238126e+03 3.4026470385e+03 0.0000000000e+00 0.0000e+00 -1.0000e+00
<mgrwt>
<rscale>  0 0.60073134E+04</rscale>
<asrwt>0</asrwt>
<pdfrwt beam="1">  1        2 0.55575872E+00 0.60073134E+04</pdfrwt>
<pdfrwt beam="2">  1       -2 0.38422674E+00 0.60073134E+04</pdfrwt>
<totfact> 0.35639461E-03</totfact>
</mgrwt>
<rwgt>
<wgt id='morphing_basis_vector_1'> +1.5889379e-06 </wgt>
<wgt id='morphing_basis_vector_2'> +1.0880811e-06 </wgt>
<wgt id='morphing_basis_vector_3'> +1.7553632e-06 </wgt>
<wgt id='morphing_basis_vector_4'> +1.2602125e-06 </wgt>
<wgt id='morphing_basis_vector_5'> +2.0204737e-06 </wgt>
</rwgt>
</event>
<event>
 4      1 +9.0096000e-12 5.69125800e+03 7.81860800e-03 7.29685700e-02
        2 -1    0    0  501    0 +0.0000000000e+00 +0.0000000000e+00 +2.0430468022e+03 2.0430468022e+03 0.0000000000e+00 0.0000e+00 -1.0000e+00
       -2 -1    0    0    0  501 -0.0000000000e+00 -0.0000000000e+00 -3.9634944537e+03 3.9634944537e+03 0.0000000000e+00 0.0000e+00 1.0000e+00
      -13  1    1    2    0    0 +2.4025754450e+03 +1.4686047114e+02 -2.5620895884e+03 3.5154288253e+03 0.0000000000e+00 0.0000e+00 1.0000e+00
       13  1    1    2    0    0 -2.4025754450e+03 -1.4686047114e+02 +6.4164193693e+02 2.4911124306e+03 0.0000000000e+00 0.0000e+00 -1.0000e+00
<mgrwt>
<rscale>  0 0.56912581E+04</rscale>
<asrwt>0</asrwt>
<pdfrwt beam="1">  1        2 0.31431489E+00 0.56912581E+04</pdfrwt>
<pdfrwt beam="2">  1       -2 0.60976838E+00 0.56912581E+04</pdfrwt>
<totfact> 0.81306290E-04</totfact>
</mgrwt>
<rwgt>
<wgt id='morphing_basis_vector_1'> +1.2826913e-06 </wgt>
<wgt id='morphing_basis_vector_2'> +8.8259298e-07 </wgt>
<wgt id='morphing_basis_vector_3'> +1.4173985e-06 </wgt>
<wgt id='morphing_basis_vector_4'> +1.0104408e-06 </wgt>
<wgt id='morphing_basis_vector_5'> +1.6264914e-06 </wgt>
</rwgt>
</event>
<event>
 4      1 +9.0096000e-12 5.82047100e+03 7.81860800e-03 7.28187900e-02
        2 -1    0    0  501    0 +0.0000000000e+00 +0.0000000000e+00 +2.0968548493e+03 2.0968548493e+03 0.0000000000e+00 0.0000e+00 1.0000e+00
       -2 -1    0    0    0  501 -0.0000000000e+00 -0.0000000000e+00 -4.0391310188e+03 4.0391310188e+03 0.0000000000e+00 0.0000e+00 -1.0000e+00
      -13  1    1    2    0    0 -1.0547653859e+03 -1.9223927814e+03 -2.9883274589e+03 3.7065111665e+03 0.0000000000e+00 0.0000e+00 -1.0000e+00
       13  1    1    2    0    0 +1.0547653859e+03 +1.9223927814e+03 +1.0460512895e+03 2.4294747016e+03 0.0000000000e+00 0.0000e+00 1.0000e+00
<mgrwt>
<rscale>  0 0.58204713E+04</rscale>
<asrwt>0</asrwt>
<pdfrwt beam="1">  1        2 0.32259306E+00 0.58204713E+04</pdfrwt>
<pdfrwt beam="2">  1       -2 0.62140477E+00 0.58204713E+04</pdfrwt>
<totfact> 0.54741318E-04</totfact>
</mgrwt>
<rwgt>
<wgt id='morphing_basis_vector_1'> +1.4000849e-06 </wgt>
<wgt id='morphing_basis_vector_2'> +9.5718446e-07 </wgt>
<wgt id='morphing_basis_vector_3'> +1.5459689e-06 </wgt>
<wgt id='morphing_basis_vector_4'> +1.1116142e-06 </wgt>
<wgt id='morphing_basis_vector_5'> +1.7801953e-06 </wgt>
</rwgt>
</event>
<event>
 4      1 +9.0096000e-12 5.73202100e+03 7.81860800e-03 7.29208900e-02
        2 -1    0    0  501    0 +0.0000000000e+00 +0.0000000000e+00 +3.4629550671e+03 3.4629550671e+03 0.0000000000e+00 0.0000e+00 -1.0000e+00
       -2 -1    0    0    0  501 -0.0000000000e+00 -0.0000000000e+00 -2.3719676362e+03 2.3719676362e+03 0.0000000000e+00 0.0000e+00 1.0000e+00
      -13  1    1    2    0    0 -2.7898065972e+03 -4.1866986320e+01 -1.2143473342e+02 2.7927620896e+03 0.0000000000e+00 0.0000e+00 1.0000e+00
       13  1    1    2    0    0 +2.7898065972e+03 +4.1866986320e+01 +1.2124221643e+03 3.0421606136e+03 0.0000000000e+00 0.0000e+00 -1.0000e+00
<mgrwt>
<rscale>  0 0.57320214E+04</rscale>
<asrwt>0</asrwt>
<pdfrwt beam="1">  1        2 0.53276232E+00 0.57320214E+04</pdfrwt>
<pdfrwt beam="2">  1       -2 0.36491810E+00 0.57320214E+04</pdfrwt>
<totfact> 0.62529605E-03</totfact>
</mgrwt>
<rwgt>
<wgt id='morphing_basis_vector_1'> +1.3351200e-06 </wgt>
<wgt id='morphing_basis_vector_2'> +9.5326816e-07 </wgt>
<wgt id='morphing_basis_vector_3'> +1.4835158e-06 </wgt>
<wgt id='morphing_basis_vector_4'> +1.0069050e-06 </wgt>
<wgt id='morphing_basis_vector_5'> +1.6709465e-06 </wgt>
</rwgt>
</event>
<event>
 4      1 +9.0096000e-12 5.93524900e+03 7.81860800e-03 7.26890300e-02
        2 -1    0    0  501    0 +0.0000000000e+00 +0.0000000000e+00 +3.8189501217e+03 3.8189501217e+03 0.0000000000e+00 0.0000e+00 -1.0000e+00
       -2 -1    0    0    0  501 -0.0000000000e+00 -0.0000000000e+00 -2.3060774860e+03 2.3060774860e+03 0.0000000000e+00 0.0000e+00 1.0000e+00
      -13  1    1    2    0    0 -2.3427057931e+03 -1.7760276105e+03 +3.3819944586e+02 2.9592099235e+03 0.0000000000e+00 0.0000e+00 1.0000e+00
       13  1    1    2    0    0 +2.3427057931e+03 +1.7760276105e+03 +1.1746731898e+03 3.1658176841e+03 0.0000000000e+00 0.0000e+00 -1.0000e+00
<mgrwt>
<rscale>  0 0.59352489E+04</rscale>
<asrwt>0</asrwt>
<pdfrwt beam="1">  1        2 0.58753079E+00 0.59352489E+04</pdfrwt>
<pdfrwt beam="2">  1       -2 0.35478115E+00 0.59352489E+04</pdfrwt>
<totfact> 0.38266830E-03</totfact>
</mgrwt>
<rwgt>
<wgt id='morphing_basis_vector_1'> +1.5444390e-06 </wgt>
<wgt id='morphing_basis_vector_2'> +1.1255395e-06 </wgt>
<wgt id='morphing_basis_vector_3'> +1.7219701e-06 </wgt>
<wgt id='morphing_basis_vector_4'> +1.1360721e-06 </wgt>
<wgt id='morphing_basis_vector_5'> +1.9196118e-06 </wgt>
</rwgt>
</event>
<event>
 4      1 +9.0096000e-12 5.64452900e+03 7.81860800e-03 7.30237400e-02
        2 -1    0    0  501    0 +0.0000000000e+00 +0.0000000000e+00 +4.0028914593e+03 4.0028914593e+03 0.0000000000e+00 0.0000e+00 1.0000e+00
       -2 -1    0    0    0  501 -0.0000000000e+00 -0.0000000000e+00 -1.9898560772e+03 1.9898560772e+03 0.0000000000e+00 0.0000e+00 -1.0000e+00
      -13  1    1    2    0    0 -1.2892054342e+03 +2.0855774099e+03 -4.7738116416e+02 2.4979144421e+03 0.0000000000e+00 0.0000e+00 -1.0000e+00
       13  1    1    2    0    0 +1.2892054342e+03 -2.0855774099e+03 +2.4904165462e+03 3.4948330944e+03 0.0000000000e+00 0.0000e+00 1.0000e+00
<mgrwt>
<rscale>  0 0.56445294E+04</rscale>
<asrwt>0</asrwt>
<pdfrwt beam="1">  1        2 0.61582945E+00 0.56445294E+04</pdfrwt>
<pdfrwt beam="2">  1       -2 0.30613171E+00 0.56445294E+04</pdfrwt>
<totfact> 0.57590425E-03</totfact>
</mgrwt>
<rwgt>
<wgt id='morphing_basis_vector_1'> +1.2422405e-06 </wgt>
<wgt id='morphing_basis_vector_2'> +8.5708842e-07 </wgt>
<wgt id='morphing_basis_vector_3'> +1.3731440e-06 </wgt>
<wgt id='morphing_basis_vector_4'> +9.7532954e-07 </wgt>
<wgt id='morphing_basis_vector_5'> +1.5734104e-06 </wgt>
</rwgt>
</event>
<event>
 4      1 +9.0096000e-12 5.79821300e+03 7.81860800e-03 7.28443100e-02
        2 -1    0    0  501    0 +0.0000000000e+00 +0.0000000000e+00 +2.5693767042e+03 2.5693767042e+03 0.0000000000e+00 0.0000e+00 -1.0000e+00
       -2 -1    0    0    0  501 -0.0000000000e+00 -0.0000000000e+00 -3.2711505028e+03 3.2711505028e+03 0.0000000000e+00 0.0000e+00 1.0000e+00
      -13  1    1    2    0    0 -1.5700982802e+03 -1.2789224593e+03 -2.4406273500e+03 3.1713582466e+03 0.0000000000e+00 0.0000e+00 1.0000e+00
       13  1    1    2    0    0 +1.5700982802e+03 +1.2789224593e+03 +1.7388535514e+03 2.6691689605e+03 0.0000000000e+00 0.0000e+00 -1.0000e+00
<mgrwt>
<rscale>  0 0.57982128E+04</rscale>
<asrwt>0</asrwt>
<pdfrwt beam="1">  1        2 0.39528873E+00 0.57982128E+04</pdfrwt>
<pdfrwt beam="2">  1       -2 0.50325392E+00 0.57982128E+04</pdfrwt>
<totfact> 0.26889539E-03</totfact>
</mgrwt>
<rwgt>
<wgt id='morphing_basis_vector_1'> +1.3779925e-06 </wgt>
<wgt id='morphing_basis_vector_2'> +9.4014615e-07 </wgt>
<wgt id='morphing_basis_vector_3'> +1.5210733e-06 </wgt>
<wgt id='morphing_basis_vector_4'> +1.0964855e-06 </wgt>
<wgt id='morphing_basis_vector_5'> +1.7532097e-06 </wgt>
</rwgt>
</event>
<event>
 4      1 +9.0096000e-12 5.78746400e+03 7.81860800e-03 7.28566700e-02
        2 -1    0    0  501    0 +0.0000000000e+00 +0.0000000000e+00 +2.8597871014e+03 2.8597871014e+03 0.0000000000e+00 0.0000e+00 -1.0000e+00
       -2 -1    0    0    0  501 -0.0000000000e+00 -0.0000000000e+00 -2.9280799218e+03 2.9280799218e+03 0.0000000000e+00 0.0000e+00 1.0000e+00
      -13  1    1    2    0    0 -9.3969980473e+02 -1.2697420838e+03 -2.4588573284e+03 2.9225434203e+03 0.0000000000e+00 0.0000e+00 1.0000e+00
       13  1    1    2    0    0 +9.3969980473e+02 +1.2697420838e+03 +2.3905645079e+03 2.8653236028e+03 0.0000000000e+00 0.0000e+00 -1.0000e+00
<mgrwt>
<rscale>  0 0.57874641E+04</rscale>
<asrwt>0</asrwt>
<pdfrwt beam="1">  1        2 0.43996725E+00 0.57874641E+04</pdfrwt>
<pdfrwt beam="2">  1       -2 0.45047383E+00 0.57874641E+04</pdfrwt>
<totfact> 0.43342663E-03</totfact>
</mgrwt>
<rwgt>
<wgt id='morphing_basis_vector_1'> +1.3667319e-06 </wgt>
<wgt id='morphing_basis_vector_2'> +9.2998419e-07 </wgt>
<wgt id='morphing_basis_vector_3'> +1.5080399e-06 </wgt>
<wgt id='morphing_basis_vector_4'> +1.0907014e-06 </wgt>
<wgt id='morphing_basis_vector_5'> +1.7404119e-06 </wgt>
</rwgt>
</event>
<event>
 4      1 +9.0096000e-12 5.62358100e+03 7.81860800e-03 7.30486500e-02
        2 -1    0    0  501    0 +0.0000000000e+00 +0.0000000000e+00 +3.2801364140e+03 3.2801364140e+03 0.0000000000e+00 0.0000e+00 -1.0000e+00
       -2 -1    0    0    0  501 -0.0000000000e+00 -0.0000000000e+00 -2.4103157352e+03 2.4103157352e+03 0.0000000000e+00 0.0000e+00 1.0000e+00
      -13  1    1    2    0    0 -9.9136695711e+02 +1.2037821877e+03 -1.9326264953e+03 2.4833334793e+03 0.0000000000e+00 0.0000e+00 1.0000e+00
       13  1    1    2    0    0 +9.9136695711e+02 -1.2037821877e+03 +2.8024471740e+03 3.2071186698e+03 0.0000000000e+00 0.0000e+00 -1.0000e+00
<mgrwt>
<rscale>  0 0.56235805E+04</rscale>
<asrwt>0</asrwt>
<pdfrwt beam="1">  1        2 0.50463637E+00 0.56235805E+04</pdfrwt>
<pdfrwt beam="2">  1       -2 0.37081780E+00 0.56235805E+04</pdfrwt>
<totfact> 0.77873388E-03</totfact>
</mgrwt>
<rwgt>
<wgt id='morphing_basis_vector_1'> +1.2187615e-06 </wgt>
<wgt id='morphing_basis_vector_2'> +8.2922130e-07 </wgt>
<wgt id='morphing_basis_vector_3'> +1.3444219e-06 </wgt>
<wgt id='morphing_basis_vector_4'> +9.7197783e-07 </wgt>
<wgt id='morphing_basis_vector_5'> +1.5510559e-06 </wgt>
</rwgt>
</event>
<event>
 4      1 +9.0096000e-12 6.49204600e+03 7.81860800e-03 7.20992700e-02
        2 -1    0    0  501    0 +0.0000000000e+00 +0.0000000000e+00 +3.8438787568e+03 3.8438787568e+03 0.0000000000e+00 0.0000e+00 -1.0000e+00
       -2 -1    0    0    0  501 -0.0000000000e+00 -0.0000000000e+00 -2.7411543047e+03 2.7411543047e+03 0.0000000000e+00 0.0000e+00 1.0000e+00
      -13  1    1    2    0    0 +2.8049444370e+03 -5.4423221559e+01 -1.1048104260e+03 3.0151751623e+03 0.0000000000e+00 0.0000e+00 1.0000e+00
       13  1    1    2    0    0 -2.8049444370e+03 +5.4423221559e+01 +2.2075348782e+03 3.5698578992e+03 0.0000000000e+00 0.0000e+00 -1.0000e+00
<mgrwt>
<rscale>  0 0.64920458E+04</rscale>
<asrwt>0</asrwt>
<pdfrwt beam="1">  1        2 0.59136596E+00 0.64920458E+04</pdfrwt>
<pdfrwt beam="2">  1       -2 0.42171605E+00 0.64920458E+04</pdfrwt>
<totfact> 0.12868415E-03</totfact>
</mgrwt>
<rwgt>
<wgt id='morphing_basis_vector_1'> +2.1706736e-06 </wgt>
<wgt id='morphing_basis_vector_2'> +1.4978923e-06 </wgt>
<wgt id='morphing_basis_vector_3'> +2.4020717e-06 </wgt>
<wgt id='morphing_basis_vector_4'> +1.7096124e-06 </wgt>
<wgt id='morphing_basis_vector_5'> +2.7567353e-06 </wgt>
</rwgt>
</event>
<event>
 4      1 +9.0096000e-12 5.81929600e+03 7.81860800e-03 7.28201300e-02
        2 -1    0    0  501    0 +0.0000000000e+00 +0.0000000000e+00 +4.3069476397e+03 4.3069476397e+03 0.0000000000e+00 0.0000e+00 -1.0000e+00
       -2 -1    0    0    0  501 -0.0000000000e+00 -0.0000000000e+00 -1.9656730326e+03 1.9656730326e+03 0.0000000000e+00 0.0000e+00 1.0000e+00
      -13  1    1    2    0    0 -1.3834480451e+03 +2.5271803931e+03 +1.6091209930e+03 3.2999756973e+03 0.0000000000e+00 0.0000e+00 1.0000e+00
       13  1    1    2    0    0 +1.3834480451e+03 -2.5271803931e+03 +7.3215361397e+02 2.9726449750e+03 0.0000000000e+00 0.0000e+00 -1.0000e+00
<mgrwt>
<rscale>  0 0.58192958E+04</rscale>
<asrwt>0</asrwt>
<pdfrwt beam="1">  1        2 0.66260733E+00 0.58192958E+04</pdfrwt>
<pdfrwt beam="2">  1       -2 0.30241124E+00 0.58192958E+04</pdfrwt>
<totfact> 0.31999719E-03</totfact>
</mgrwt>
<rwgt>
<wgt id='morphing_basis_vector_1'> +1.4805150e-06 </wgt>
<wgt id='morphing_basis_vector_2'> +1.1958174e-06 </wgt>
<wgt id='morphing_basis_vector_3'> +1.6777746e-06 </wgt>
<wgt id='morphing_basis_vector_4'> +9.3634942e-07 </wgt>
<wgt id='morphing_basis_vector_5'> +1.7640950e-06 </wgt>
</rwgt>
</event>
<event>
 4      1 +9.0096000e-12 5.98832100e+03 7.81860800e-03 7.26300300e-02
        2 -1    0    0  501    0 +0.0000000000e+00 +0.0000000000e+00 +4.8694109189e+03 4.8694109189e+03 0.0000000000e+00 0.0000e+00 -1.0000e+00
       -2 -1    0    0    0  501 -0.0000000000e+00 -0.0000000000e+00 -1.8410846172e+03 1.8410846172e+03 0.0000000000e+00 0.0000e+00 1.0000e+00
      -13  1    1    2    0    0 +1.5671243976e+03 +2.1716830582e+03 +3.0146386824e+03 4.0323854687e+03 0.0000000000e+00 0.0000e+00 1.0000e+00
       13  1    1    2    0    0 -1.5671243976e+03 -2.1716830582e+03 +1.3687619326e+01 2.6781100675e+03 0.0000000000e+00 0.0000e+00 -1.0000e+00
<mgrwt>
<rscale>  0 0.59883211E+04</rscale>
<asrwt>0</asrwt>
<pdfrwt beam="1">  1        2 0.74914014E+00 0.59883211E+04</pdfrwt>
<pdfrwt beam="2">  1       -2 0.28324379E+00 0.59883211E+04</pdfrwt>
<totfact> 0.10446325E-03</totfact>
</mgrwt>
<rwgt>
<wgt id='morphing_basis_vector_1'> +1.8154862e-06 </wgt>
<wgt id='morphing_basis_vector_2'> +1.7979295e-06 </wgt>
<wgt id='morphing_basis_vector_3'> +2.1357486e-06 </wgt>
<wgt id='morphing_basis_vector_4'> +7.1703465e-07 </wgt>
<wgt id='morphing_basis_vector_5'> +1.9506382e-06 </wgt>
</rwgt>
</event>
<event>
 4      1 +9.0096000e-12 6.46021600e+03 7.81860800e-03 7.21313400e-02
        2 -1    0    0  501    0 +0.0000000000e+00 +0.0000000000e+00 +3.9593996347e+03 3.9593996347e+03 0.0000000000e+00 0.0000e+00 -1.0000e+00
       -2 -1    0    0    0  501 -0.0000000000e+00 -0.0000000000e+00 -2.6351463773e+03 2.6351463773e+03 0.0000000000e+00 0.0000e+00 1.0000e+00
      -13  1    1    2    0    0 -9.1747232135e+02 +3.4915219314e+02 -2.4791874597e+03 2.6664645460e+03 0.0000000000e+00 0.0000e+00 1.0000e+00
       13  1    1    2    0    0 +9.1747232135e+02 -3.4915219314e+02 +3.8034407171e+03 3.9280814659e+03 0.0000000000e+00 0.0000e+00 -1.0000e+00
<mgrwt>
<rscale>  0 0.64602160E+04</rscale>
<asrwt>0</asrwt>
<pdfrwt beam="1">  1        2 0.60913840E+00 0.64602160E+04</pdfrwt>
<pdfrwt beam="2">  1       -2 0.40540714E+00 0.64602160E+04</pdfrwt>
<totfact> 0.13270145E-03</totfact>
</mgrwt>
<rwgt>
<wgt id='morphing_basis_vector_1'> +2.1191880e-06 </wgt>
<wgt id='morphing_basis_vector_2'> +1.4414346e-06 </wgt>
<wgt id='morphing_basis_vector_3'> +2.3400836e-06 </wgt>
<wgt id='morphing_basis_vector_4'> +1.6962075e-06 </wgt>
<wgt id='morphing_basis_vector_5'> +2.7046462e-06 </wgt>
</rwgt>
</event>
<event>
 4      1 +9.0096000e-12 6.04346700e+03 7.81860800e-03 7.25693800e-02
        2 -1    0    0  501    0 +0.0000000000e+00 +0.0000000000e+00 +3.1986563418e+03 3.1986563418e+03 0.0000000000e+00 0.0000e+00 1.0000e+00
       -2 -1    0    0    0  501 -0.0000000000e+00 -0.0000000000e+00 -2.8545965688e+03 2.8545965688e+03 0.0000000000e+00 0.0000e+00 -1.0000e+00
      -13  1    1    2    0    0 -2.1165825608e+03 -1.1940156643e+02 +2.3288152363e+03 3.1492155968e+03 0.0000000000e+00 0.0000e+00 1.0000e+00
       13  1    1    2    0    0 +2.1165825608e+03 +1.1940156643e+02 -1.9847554632e+03 2.9040373137e+03 0.0000000000e+00 0.0000e+00 -1.0000e+00
<mgrwt>
<rscale>  0 0.60434670E+04</rscale>
<asrwt>0</asrwt>
<pdfrwt beam="1">  1        2 0.49210097E+00 0.60434670E+04</pdfrwt>
<pdfrwt beam="2">  1       -2 0.43916870E+00 0.60434670E+04</pdfrwt>
<totfact> 0.30487842E-03</totfact>
</mgrwt>
<rwgt>
<wgt id='morphing_basis_vector_1'> +2.1037952e-06 </wgt>
<wgt id='morphing_basis_vector_2'> +2.5126352e-06 </wgt>
<wgt id='morphing_basis_vector_3'> +2.5759542e-06 </wgt>
<wgt id='morphing_basis_vector_4'> +2.7178411e-07 </wgt>
<wgt id='morphing_basis_vector_5'> +1.9839330e-06 </wgt>
</rwgt>
</event>
<event>
 4      1 +9.0096000e-12 5.62545200e+03 7.81860800e-03 7.30464200e-02
        2 -1    0    0  501    0 +0.0000000000e+00 +0.0000000000e+00 +2.7614543142e+03 2.7614543142e+03 0.0000000000e+00 0.0000e+00 -1.0000e+00
       -2 -1    0    0    0  501 -0.0000000000e+00 -0.0000000000e+00 -2.8649493247e+03 2.8649493247e+03 0.0000000000e+00 0.0000e+00 1.0000e+00
      -13  1    1    2    0    0 -2.7492327100e+03 +4.5266182058e+02 -4.3683662721e+02 2.8202853501e+03 0.0000000000e+00 0.0000e+00 1.0000e+00
       13  1    1    2    0    0 +2.7492327100e+03 -4.5266182058e+02 +3.3334161668e+02 2.8061182888e+03 0.0000000000e+00 0.0000e+00 -1.0000e+00
<mgrwt>
<rscale>  0 0.56254517E+04</rscale>
<asrwt>0</asrwt>
<pdfrwt beam="1">  1        2 0.42483913E+00 0.56254517E+04</pdfrwt>
<pdfrwt beam="2">  1       -2 0.44076143E+00 0.56254517E+04</pdfrwt>
<totfact> 0.59033983E-03</totfact>
</mgrwt>
<rwgt>
<wgt id='morphing_basis_vector_1'> +1.2469860e-06 </wgt>
<wgt id='morphing_basis_vector_2'> +9.0842957e-07 </wgt>
<wgt id='morphing_basis_vector_3'> +1.3895714e-06 </wgt>
<wgt id='morphing_basis_vector_4'> +9.1643228e-07 </wgt>
<wgt id='morphing_basis_vector_5'> +1.5483502e-06 </wgt>
</rwgt>
</event>
<event>
 4      1 +9.0096000e-12 5.56924200e+03 7.81860800e-03 7.31137900e-02
        2 -1    0    0  501    0 +0.0000000000e+00 +0.0000000000e+00 +2.5195143712e+03 2.5195143712e+03 0.0000000000e+00 0.0000e+00 1.0000e+00
       -2 -1    0    0    0  501 -0.0000000000e+00 -0.0000000000e+00 -3.0776229447e+03 3.0776229447e+03 0.0000000000e+00 0.0000e+00 -1.0000e+00
      -13  1    1    2    0    0 +1.1504783205e+03 +1.8569688026e+03 +1.4564947694e+03 2.6255114765e+03 0.0000000000e+00 0.0000e+00 -1.0000e+00
       13  1    1    2    0    0 -1.1504783205e+03 -1.8569688026e+03 -2.0146033430e+03 2.9716258394e+03 0.0000000000e+00 0.0000e+00 1.0000e+00
<mgrwt>
<rscale>  0 0.55692424E+04</rscale>
<asrwt>0</asrwt>
<pdfrwt beam="1">  1        2 0.38761760E+00 0.55692424E+04</pdfrwt>
<pdfrwt beam="2">  1       -2 0.47348045E+00 0.55692424E+04</pdfrwt>
<totfact> 0.48844432E-03</totfact>
</mgrwt>
<rwgt>
<wgt id='morphing_basis_vector_1'> +1.4621639e-06 </wgt>
<wgt id='morphing_basis_vector_2'> +1.6481742e-06 </wgt>
<wgt id='morphing_basis_vector_3'> +1.7652059e-06 </wgt>
<wgt id='morphing_basis_vector_4'> +3.1602724e-07 </wgt>
<wgt id='morphing_basis_vector_5'> +1.4398357e-06 </wgt>
</rwgt>
</event>
<event>
 4      1 +9.0096000e-12 5.60303900e+03 7.81860800e-03 7.30731900e-02
        2 -1    0    0  501    0 +0.0000000000e+00 +0.0000000000e+00 +3.1615224037e+03 3.1615224037e+03 0.0000000000e+00 0.0000e+00 -1.0000e+00
       -2 -1    0    0    0  501 -0.0000000000e+00 -0.0000000000e+00 -2.4825099840e+03 2.4825099840e+03 0.0000000000e+00 0.0000e+00 1.0000e+00
      -13  1    1    2    0    0 +1.3614703964e+03 -2.3154018888e+03 -4.6244878557e+02 2.7255359888e+03 0.0000000000e+00 0.0000e+00 1.0000e+00
       13  1    1    2    0    0 -1.3614703964e+03 +2.3154018888e+03 +1.1414612053e+03 2.9184963989e+03 0.0000000000e+00 0.0000e+00 -1.0000e+00
<mgrwt>
<rscale>  0 0.56030388E+04</rscale>
<asrwt>0</asrwt>
<pdfrwt beam="1">  1        2 0.48638806E+00 0.56030388E+04</pdfrwt>
<pdfrwt beam="2">  1       -2 0.38192461E+00 0.56030388E+04</pdfrwt>
<totfact> 0.79732972E-03</totfact>
</mgrwt>
<rwgt>
<wgt id='morphing_basis_vector_1'> +1.2154292e-06 </wgt>
<wgt id='morphing_basis_vector_2'> +8.5925803e-07 </wgt>
<wgt id='morphing_basis_vector_3'> +1.3482429e-06 </wgt>
<wgt id='morphing_basis_vector_4'> +9.2720164e-07 </wgt>
<wgt id='morphing_basis_vector_5'> +1.5258883e-06 </wgt>
</rwgt>
</event>
<event>
 4      1 +9.0096000e-12 5.59867700e+03 7.81860800e-03 7.30784100e-02
        2 -1    0    0  501    0 +0.0000000000e+00 +0.0000000000e+00 +2.5039009428e+03 2.5039009428e+03 0.0000000000e+00 0.0000e+00 -1.0000e+00
       -2 -1    0    0    0  501 -0.0000000000e+00 -0.0000000000e+00 -3.1296352528e+03 3.1296352528e+03 0.0000000000e+00 0.0000e+00 1.0000e+00
      -13  1    1    2    0    0 +1.7599662594e+03 +1.1189115395e+03 -2.1918051147e+03 3.0254675553e+03 0.0000000000e+00 0.0000e+00 1.0000e+00
       13  1    1    2    0    0 -1.7599662594e+03 -1.1189115395e+03 +1.5660708047e+03 2.6080686403e+03 0.0000000000e+00 0.0000e+00 -1.0000e+00
<mgrwt>
<rscale>  0 0.55986772E+04</rscale>
<asrwt>0</asrwt>
<pdfrwt beam="1">  1        2 0.38521553E+00 0.55986772E+04</pdfrwt>
<pdfrwt beam="2">  1       -2 0.48148235E+00 0.55986772E+04</pdfrwt>
<totfact> 0.43473196E-03</totfact>
</mgrwt>
<rwgt>
<wgt id='morphing_basis_vector_1'> +1.1989040e-06 </wgt>
<wgt id='morphing_basis_vector_2'> +8.1914387e-07 </wgt>
<wgt id='morphing_basis_vector_3'> +1.3232663e-06 </wgt>
<wgt id='morphing_basis_vector_4'> +9.5155928e-07 </wgt>
<wgt id='morphing_basis_vector_5'> +1.5234201e-06 </wgt>
</rwgt>
</event>
<event>
 4      1 +9.0096000e-12 5.62853700e+03 7.81860800e-03 7.30427500e-02
        2 -1    0    0  501    0 +0.0000000000e+00 +0.0000000000e+00 +2.5518692311e+03 2.5518692311e+03 0.0000000000e+00 0.0000e+00 -1.0000e+00
       -2 -1    0    0    0  501 -0.0000000000e+00 -0.0000000000e+00 -3.1036489944e+03 3.1036489944e+03 0.0000000000e+00 0.0000e+00 1.0000e+00
      -13  1    1    2    0    0 +2.6624882113e+03 -1.3541275771e+02 -1.1818362447e+03 2.9161476299e+03 0.0000000000e+00 0.0000e+00 1.0000e+00
       13  1    1    2    0    0 -2.6624882113e+03 +1.3541275771e+02 +6.3005648129e+02 2.7393705956e+03 0.0000000000e+00 0.0000e+00 -1.0000e+00
<mgrwt>
<rscale>  0 0.56285367E+04</rscale>
<asrwt>0</asrwt>
<pdfrwt beam="1">  1        2 0.39259526E+00 0.56285367E+04</pdfrwt>
<pdfrwt beam="2">  1       -2 0.47748446E+00 0.56285367E+04</pdfrwt>
<totfact> 0.43453015E-03</totfact>
</mgrwt>
<rwgt>
<wgt id='morphing_basis_vector_1'> +1.2354975e-06 </wgt>
<wgt id='morphing_basis_vector_2'> +8.6867936e-07 </wgt>
<wgt id='morphing_basis_vector_3'> +1.3694488e-06 </wgt>
<wgt id='morphing_basis_vector_4'> +9.4882846e-07 </wgt>
<wgt id='morphing_basis_vector_5'> +1.5543106e-06 </wgt>
</rwgt>
</event>
<event>
 4      1 +9.0096000e-12 5.75197200e+03 7.81860800e-03 7.28976900e-02
        2 -1    0    0  501    0 +0.0000000000e+00 +0.0000000000e+00 +4.5796543044e+03 4.5796543044e+03 0.0000000000e+00 0.0000e+00 1.0000e+00
       -2 -1    0    0    0  501 -0.0000000000e+00 -0.0000000000e+00 -1.8060963370e+03 1.8060963370e+03 0.0000000000e+00 0.0000e+00 -1.0000e+00
      -13  1    1    2    0    0 -2.7376191426e+03 -8.7839747672e+02 +1.4664973936e+03 3.2274998532e+03 0.0000000000e+00 0.0000e+00 -1.0000e+00
       13  1    1    2    0    0 +2.7376191426e+03 +8.7839747672e+02 +1.3070605738e+03 3.1582507882e+03 0.0000000000e+00 0.0000e+00 1.0000e+00
<mgrwt>
<rscale>  0 0.57519725E+04</rscale>
<asrwt>0</asrwt>
<pdfrwt beam="1">  1        2 0.70456220E+00 0.57519725E+04</pdfrwt>
<pdfrwt beam="2">  1       -2 0.27786098E+00 0.57519725E+04</pdfrwt>
<totfact> 0.24970509E-03</totfact>
</mgrwt>
<rwgt>
<wgt id='morphing_basis_vector_1'> +1.3868532e-06 </wgt>
<wgt id='morphing_basis_vector_2'> +1.0637434e-06 </wgt>
<wgt id='morphing_basis_vector_3'> +1.5582491e-06 </wgt>
<wgt id='morphing_basis_vector_4'> +9.5029235e-07 </wgt>
<wgt id='morphing_basis_vector_5'> +1.6884424e-06 </wgt>
</rwgt>
</event>
<event>
 4      1 +9.0096000e-12 6.41430200e+03 7.81860800e-03 7.21779400e-02
        2 -1    0    0  501    0 +0.0000000000e+00 +0.0000000000e+00 +4.2801998231e+03 4.2801998231e+03 0.0000000000e+00 0.0000e+00 1.0000e+00
       -2 -1    0    0    0  501 -0.0000000000e+00 -0.0000000000e+00 -2.4031164155e+03 2.4031164155e+03 0.0000000000e+00 0.0000e+00 -1.0000e+00
      -13  1    1    2    0    0 +2.2903208542e+03 +1.7243330331e+03 -5.5943440802e+02 2.9209349327e+03 0.0000000000e+00 0.0000e+00 -1.0000e+00
       13  1    1    2    0    0 -2.2903208542e+03 -1.7243330331e+03 +2.4365178156e+03 3.7623813058e+03 0.0000000000e+00 0.0000e+00 1.0000e+00
<mgrwt>
<rscale>  0 0.64143023E+04</rscale>
<asrwt>0</asrwt>
<pdfrwt beam="1">  1        2 0.65849228E+00 0.64143023E+04</pdfrwt>
<pdfrwt beam="2">  1       -2 0.36971022E+00 0.64143023E+04</pdfrwt>
<totfact> 0.11745522E-03</totfact>
</mgrwt>
<rwgt>
<wgt id='morphing_basis_vector_1'> +2.0716771e-06 </wgt>
<wgt id='morphing_basis_vector_2'> +1.4360769e-06 </wgt>
<wgt id='morphing_basis_vector_3'> +2.2938660e-06 </wgt>
<wgt id='morphing_basis_vector_4'> +1.6227577e-06 </wgt>
<wgt id='morphing_basis_vector_5'> +2.6262697e-06 </wgt>
</rwgt>
</event>
<event>
 4      1 +9.0096000e-12 5.68473400e+03 7.81860800e-03 7.29762400e-02
        2 -1    0    0  501    0 +0.0000000000e+00 +0.0000000000e+00 +2.8020358699e+03 2.8020358699e+03 0.0000000000e+00 0.0000e+00 1.0000e+00
       -2 -1    0    0    0  501 -0.0000000000e+00 -0.0000000000e+00 -2.8832783410e+03 2.8832783410e+03 0.0000000000e+00 0.0000e+00 -1.0000e+00
      -13  1    1    2    0    0 -2.1658720973e+03 -1.8376052245e+03 +6.5476503394e+01 2.8411409812e+03 0.0000000000e+00 0.0000e+00 1.0000e+00
       13  1    1    2    0    0 +2.1658720973e+03 +1.8376052245e+03 -1.4671897447e+02 2.8441732297e+03 0.0000000000e+00 0.0000e+00 -1.0000e+00
<mgrwt>
<rscale>  0 0.56847337E+04</rscale>
<asrwt>0</asrwt>
<pdfrwt beam="1">  1        2 0.43108244E+00 0.56847337E+04</pdfrwt>
<pdfrwt beam="2">  1       -2 0.44358128E+00 0.56847337E+04</pdfrwt>
<totfact> 0.53021056E-03</totfact>
</mgrwt>
<rwgt>
<wgt id='morphing_basis_vector_1'> +1.3255925e-06 </wgt>
<wgt id='morphing_basis_vector_2'> +1.0216894e-06 </wgt>
<wgt id='morphing_basis_vector_3'> +1.4903984e-06 </wgt>
<wgt id='morphing_basis_vector_4'> +9.0161100e-07 </wgt>
<wgt id='morphing_basis_vector_5'> +1.6102714e-06 </wgt>
</rwgt>
</event>
<event>
 4      1 +9.0096000e-12 5.56531600e+03 7.81860800e-03 7.31185200e-02
        2 -1    0    0  501    0 +0.0000000000e+00 +0.0000000000e+00 +3.6894420362e+03 3.6894420362e+03 0.0000000000e+00 0.0000e+00 -1.0000e+00
       -2 -1    0    0    0  501 -0.0000000000e+00 -0.0000000000e+00 -2.0987416293e+03 2.0987416293e+03 0.0000000000e+00 0.0000e+00 1.0000e+00
      -13  1    1    2    0    0 +1.8894739792e+03 -2.0406100664e+03 +6.9676927788e+02 2.8669999629e+03 0.0000000000e+00 0.0000e+00 1.0000e+00
       13  1    1    2    0    0 -1.8894739792e+03 +2.0406100664e+03 +8.9393112902e+02 2.9211837026e+03 0.0000000000e+00 0.0000e+00 -1.0000e+00
<mgrwt>
<rscale>  0 0.55653160E+04</rscale>
<asrwt>0</asrwt>
<pdfrwt beam="1">  1        2 0.56760647E+00 0.55653160E+04</pdfrwt>
<pdfrwt beam="2">  1       -2 0.32288333E+00 0.55653160E+04</pdfrwt>
<totfact> 0.80477212E-03</totfact>
</mgrwt>
<rwgt>
<wgt id='morphing_basis_vector_1'> +1.2067867e-06 </wgt>
<wgt id='morphing_basis_vector_2'> +9.0588261e-07 </wgt>
<wgt id='morphing_basis_vector_3'> +1.3508735e-06 </wgt>
<wgt id='morphing_basis_vector_4'> +8.5185030e-07 </wgt>
<wgt id='morphing_basis_vector_5'> +1.4808588e-06 </wgt>
</rwgt>
</event>
<event>
 4      1 +9.0096000e-12 6.30642000e+03 7.81860800e-03 7.22889900e-02
        2 -1    0    0  501    0 +0.0000000000e+00 +0.0000000000e+00 +4.4619101501e+03 4.4619101501e+03 0.0000000000e+00 0.0000e+00 1.0000e+00
       -2 -1    0    0    0  501 -0.0000000000e+00 -0.0000000000e+00 -2.2283582239e+03 2.2283582239e+03 0.0000000000e+00 0.0000e+00 -1.0000e+00
      -13  1    1    2    0    0 -4.1014513271e+02 -2.8221092366e+03 -3.1055820312e+02 2.8686174319e+03 0.0000000000e+00 0.0000e+00 -1.0000e+00
       13  1    1    2    0    0 +4.1014513271e+02 +2.8221092366e+03 +2.5441101294e+03 3.8216509421e+03 0.0000000000e+00 0.0000e+00 1.0000e+00
<mgrwt>
<rscale>  0 0.63064203E+04</rscale>
<asrwt>0</asrwt>
<pdfrwt beam="1">  1        2 0.68644771E+00 0.63064203E+04</pdfrwt>
<pdfrwt beam="2">  1       -2 0.34282434E+00 0.63064203E+04</pdfrwt>
<totfact> 0.11705171E-03</totfact>
</mgrwt>
<rwgt>
<wgt id='morphing_basis_vector_1'> +1.9372914e-06 </wgt>
<wgt id='morphing_basis_vector_2'> +1.3456015e-06 </wgt>
<wgt id='morphing_basis_vector_3'> +2.1454422e-06 </wgt>
<wgt id='morphing_basis_vector_4'> +1.5134480e-06 </wgt>
<wgt id='morphing_basis_vector_5'> +2.4534430e-06 </wgt>
</rwgt>
</event>
<event>
 4      1 +9.0096000e-12 5.92293500e+03 7.81860800e-03 7.27028000e-02
        2 -1    0    0  501    0 +0.0000000000e+00 +0.0000000000e+00 +4.0572697125e+03 4.0572697125e+03 0.0000000000e+00 0.0000e+00 -1.0000e+00
       -2 -1    0    0    0  501 -0.0000000000e+00 -0.0000000000e+00 -2.1616233678e+03 2.1616233678e+03 0.0000000000e+00 0.0000e+00 1.0000e+00
      -13  1    1    2    0    0 -5.4126641246e+02 -2.8961540256e+03 +1.2621331283e+03 3.2052546705e+03 0.0000000000e+00 0.0000e+00 1.0000e+00
       13  1    1    2    0    0 +5.4126641246e+02 +2.8961540256e+03 +6.3351321646e+02 3.0136384098e+03 0.0000000000e+00 0.0000e+00 -1.0000e+00
<mgrwt>
<rscale>  0 0.59229348E+04</rscale>
<asrwt>0</asrwt>
<pdfrwt beam="1">  1        2 0.62419534E+00 0.59229348E+04</pdfrwt>
<pdfrwt beam="2">  1       -2 0.33255744E+00 0.59229348E+04</pdfrwt>
<totfact> 0.33792046E-03</totfact>
</mgrwt>
<rwgt>
<wgt id='morphing_basis_vector_1'> +1.5773204e-06 </wgt>
<wgt id='morphing_basis_vector_2'> +1.2501715e-06 </wgt>
<wgt id='morphing_basis_vector_3'> +1.7822015e-06 </wgt>
<wgt id='morphing_basis_vector_4'> +1.0290687e-06 </wgt>
<wgt id='morphing_basis_vector_5'> +1.8954887e-06 </wgt>
</rwgt>
</event>
<event>
 4      1 +9.0096000e-12 6.17163000e+03 7.81860800e-03 7.24309500e-02
        2 -1    0    0  501    0 +0.0000000000e+00 +0.0000000000e+00 +2.1663360062e+03 2.1663360062e+03 0.0000000000e+00 0.0000e+00 1.0000e+00
       -2 -1    0    0    0  501 -0.0000000000e+00 -0.0000000000e+00 -4.3955567710e+03 4.3955567710e+03 0.0000000000e+00 0.0000e+00 -1.0000e+00
      -13  1    1    2    0    0 -7.0984520812e+02 -9.7866121019e+02 -4.1332608343e+03 4.3064490137e+03 0.0000000000e+00 0.0000e+00 -1.0000e+00
       13  1    1    2    0    0 +7.0984520812e+02 +9.7866121019e+02 +1.9040400695e+03 2.2554437634e+03 0.0000000000e+00 0.0000e+00 1.0000e+00
<mgrwt>
<rscale>  0 0.61716296E+04</rscale>
<asrwt>0</asrwt>
<pdfrwt beam="1">  1        2 0.33328247E+00 0.61716296E+04</pdfrwt>
<pdfrwt beam="2">  1       -2 0.67623950E+00 0.61716296E+04</pdfrwt>
<totfact> 0.73313584E-05</totfact>
</mgrwt>
<rwgt>
<wgt id='morphing_basis_vector_1'> +1.7658954e-06 </wgt>
<wgt id='morphing_basis_vector_2'> +1.2010418e-06 </wgt>
<wgt id='morphing_basis_vector_3'> +1.9493217e-06 </wgt>
<wgt id='morphing_basis_vector_4'> +1.4121521e-06 </wgt>
<wgt id='morphing_basis_vector_5'> +2.2519622e-06 </wgt>
</rwgt>
</event>
<event>
 4      1 +9.0096000e-12 6.28836000e+03 7.81860800e-03 7.23078000e-02
        2 -1    0    0  501    0 +0.0000000000e+00 +0.0000000000e+00 +3.5081191377e+03 3.5081191377e+03 0.0000000000e+00 0.0000e+00 -1.0000e+00
       -2 -1    0    0    0  501 -0.0000000000e+00 -0.0000000000e+00 -2.8179962393e+03 2.8179962393e+03 0.0000000000e+00 0.0000e+00 1.0000e+00
      -13  1    1    2    0    0 +6.1532179123e+02 -3.0308267644e+03 -2.2520601090e+02 3.1008465828e+03 0.0000000000e+00 0.0000e+00 1.0000e+00
       13  1    1    2    0    0 -6.1532179123e+02 +3.0308267644e+03 +9.1532890927e+02 3.2252687942e+03 0.0000000000e+00 0.0000e+00 -1.0000e+00
<mgrwt>
<rscale>  0 0.62883596E+04</rscale>
<asrwt>0</asrwt>
<pdfrwt beam="1">  1        2 0.53971064E+00 0.62883596E+04</pdfrwt>
<pdfrwt beam="2">  1       -2 0.43353788E+00 0.62883596E+04</pdfrwt>
<totfact> 0.19768577E-03</totfact>
</mgrwt>
<rwgt>
<wgt id='morphing_basis_vector_1'> +1.9385258e-06 </wgt>
<wgt id='morphing_basis_vector_2'> +1.3986085e-06 </wgt>
<wgt id='morphing_basis_vector_3'> +2.1590432e-06 </wgt>
<wgt id='morphing_basis_vector_4'> +1.4462991e-06 </wgt>
<wgt id='morphing_basis_vector_5'> +2.4212067e-06 </wgt>
</rwgt>
</event>
<event>
 4      1 +9.0096000e-12 5.56269000e+03 7.81860800e-03 7.31216900e-02
        2 -1    0    0  501    0 +0.0000000000e+00 +0.0000000000e+00 +3.3506049898e+03 3.3506049898e+03 0.0000000000e+00 0.0000e+00 -1.0000e+00
       -2 -1    0    0    0  501 -0.0000000000e+00 -0.0000000000e+00 -2.3088011930e+03 2.3088011930e+03 0.0000000000e+00 0.0000e+00 1.0000e+00
      -13  1    1    2    0    0 -5.0316749595e+02 +1.6044041879e+03 -1.7331524572e+03 2.4147686778e+03 0.0000000000e+00 0.0000e+00 1.0000e+00
       13  1    1    2    0    0 +5.0316749595e+02 -1.6044041879e+03 +2.7749562540e+03 3.2446375050e+03 0.0000000000e+00 0.0000e+00 -1.0000e+00
<mgrwt>
<rscale>  0 0.55626903E+04</rscale>
<asrwt>0</asrwt>
<pdfrwt beam="1">  1        2 0.51547769E+00 0.55626903E+04</pdfrwt>
<pdfrwt beam="2">  1       -2 0.35520018E+00 0.55626903E+04</pdfrwt>
<totfact> 0.88018583E-03</totfact>
</mgrwt>
<rwgt>
<wgt id='morphing_basis_vector_1'> +1.1671713e-06 </wgt>
<wgt id='morphing_basis_vector_2'> +7.9453980e-07 </wgt>
<wgt id='morphing_basis_vector_3'> +1.2874854e-06 </wgt>
<wgt id='morphing_basis_vector_4'> +9.3000980e-07 </wgt>
<wgt id='morphing_basis_vector_5'> +1.4847603e-06 </wgt>
</rwgt>
</event>
<event>
 4      1 +9.0096000e-12 5.56296600e+03 7.81860800e-03 7.31213600e-02
        2 -1    0    0  501    0 +0.0000000000e+00 +0.0000000000e+00 +2.3305356337e+03 2.3305356337e+03 0.0000000000e+00 0.0000e+00 1.0000e+00
       -2 -1    0    0    0  501 -0.0000000000e+00 -0.0000000000e+00 -3.3196864793e+03 3.3196864793e+03 0.0000000000e+00 0.0000e+00 -1.0000e+00
      -13  1    1    2    0    0 +7.4066994564e+02 -1.7202268528e+02 -3.2120721802e+03 3.3008470827e+03 0.0000000000e+00 0.0000e+00 -1.0000e+00
       13  1    1    2    0    0 -7.4066994564e+02 +1.7202268528e+02 +2.2229213346e+03 2.3493750302e+03 0.0000000000e+00 0.0000e+00 1.0000e+00
<mgrwt>
<rscale>  0 0.55629660E+04</rscale>
<asrwt>0</asrwt>
<pdfrwt beam="1">  1        2 0.35854395E+00 0.55629660E+04</pdfrwt>
<pdfrwt beam="2">  1       -2 0.51072099E+00 0.55629660E+04</pdfrwt>
<totfact> 0.33325558E-03</totfact>
</mgrwt>
<rwgt>
<wgt id='morphing_basis_vector_1'> +1.1668095e-06 </wgt>
<wgt id='morphing_basis_vector_2'> +7.9295740e-07 </wgt>
<wgt id='morphing_basis_vector_3'> +1.2867752e-06 </wgt>
<wgt id='morphing_basis_vector_4'> +9.3146048e-07 </wgt>
<wgt id='morphing_basis_vector_5'> +1.4851618e-06 </wgt>
</rwgt>
</event>
<event>
 4      1 +9.0096000e-12 6.01876700e+03 7.81860800e-03 7.25964700e-02
        2 -1    0    0  501    0 +0.0000000000e+00 +0.0000000000e+00 +2.8605997398e+03 2.8605997398e+03 0.0000000000e+00 0.0000e+00 1.0000e+00
       -2 -1    0    0    0  501 -0.0000000000e+00 -0.0000000000e+00 -3.1659056234e+03 3.1659056234e+03 0.0000000000e+00 0.0000e+00 -1.0000e+00
      -13  1    1    2    0    0 -7.6717410502e+02 -1.7957115385e+03 +2.1401061246e+03 2.8971003196e+03 0.0000000000e+00 0.0000e+00 1.0000e+00
       13  1    1    2    0    0 +7.6717410502e+02 +1.7957115385e+03 -2.4454120083e+03 3.1294050437e+03 0.0000000000e+00 0.0000e+00 -1.0000e+00
<mgrwt>
<rscale>  0 0.60187669E+04</rscale>
<asrwt>0</asrwt>
<pdfrwt beam="1">  1        2 0.44009227E+00 0.60187669E+04</pdfrwt>
<pdfrwt beam="2">  1       -2 0.48706241E+00 0.60187669E+04</pdfrwt>
<totfact> 0.23107026E-03</totfact>
</mgrwt>
<rwgt>
<wgt id='morphing_basis_vector_1'> +2.1053783e-06 </wgt>
<wgt id='morphing_basis_vector_2'> +2.5766439e-06 </wgt>
<wgt id='morphing_basis_vector_3'> +2.5923253e-06 </wgt>
<wgt id='morphing_basis_vector_4'> +1.9101040e-07 </wgt>
<wgt id='morphing_basis_vector_5'> +1.9452108e-06 </wgt>
</rwgt>
</event>
<event>
 4      1 +9.0096000e-12 6.04224000e+03 7.81860800e-03 7.25707300e-02
        2 -1    0    0  501    0 +0.0000000000e+00 +0.0000000000e+00 +3.9594241193e+03 3.9594241193e+03 0.0000000000e+00 0.0000e+00 -1.0000e+00
       -2 -1    0    0    0  501 -0.0000000000e+00 -0.0000000000e+00 -2.3051753048e+03 2.3051753048e+03 0.0000000000e+00 0.0000e+00 1.0000e+00
      -13  1    1    2    0    0 -2.6755688851e+03 -1.2663704549e+03 +2.0090727598e+02 2.9669389481e+03 0.0000000000e+00 0.0000e+00 1.0000e+00
       13  1    1    2    0    0 +2.6755688851e+03 +1.2663704549e+03 +1.4533415384e+03 3.2976604761e+03 0.0000000000e+00 0.0000e+00 -1.0000e+00
<mgrwt>
<rscale>  0 0.60422402E+04</rscale>
<asrwt>0</asrwt>
<pdfrwt beam="1">  1        2 0.60914217E+00 0.60422402E+04</pdfrwt>
<pdfrwt beam="2">  1       -2 0.35464235E+00 0.60422402E+04</pdfrwt>
<totfact> 0.29155473E-03</totfact>
</mgrwt>
<rwgt>
<wgt id='morphing_basis_vector_1'> +1.6506992e-06 </wgt>
<wgt id='morphing_basis_vector_2'> +1.1857019e-06 </wgt>
<wgt id='morphing_basis_vector_3'> +1.8366657e-06 </wgt>
<wgt id='morphing_basis_vector_4'> +1.2372742e-06 </wgt>
<wgt id='morphing_basis_vector_5'> +2.0635562e-06 </wgt>
</rwgt>
</event>
<event>
 4      1 +9.0096000e-12 6.00729000e+03 7.81860800e-03 7.26090900e-02
        2 -1    0    0  501    0 +0.0000000000e+00 +0.0000000000e+00 +2.6416596291e+03 2.6416596291e+03 0.0000000000e+00 0.0000e+00 -1.0000e+00
       -2 -1    0    0    0  501 -0.0000000000e+00 -0.0000000000e+00 -3.4152335451e+03 3.4152335451e+03 0.0000000000e+00 0.0000e+00 1.0000e+00
      -13  1    1    2    0    0 +1.0469876750e+03 +8.4345784376e+02 -3.0949062421e+03 3.3743220020e+03 0.0000000000e+00 0.0000e+00 1.0000e+00
       13  1    1    2    0    0 -1.0469876750e+03 -8.4345784376e+02 +2.3213323261e+03 2.6825711722e+03 0.0000000000e+00 0.0000e+00 -1.0000e+00
<mgrwt>
<rscale>  0 0.60072904E+04</rscale>
<asrwt>0</asrwt>
<pdfrwt beam="1">  1        2 0.40640918E+00 0.60072904E+04</pdfrwt>
<pdfrwt beam="2">  1       -2 0.52542054E+00 0.60072904E+04</pdfrwt>
<totfact> 0.16361653E-03</totfact>
</mgrwt>
<rwgt>
<wgt id='morphing_basis_vector_1'> +1.5856549e-06 </wgt>
<wgt id='morphing_basis_vector_2'> +1.0784995e-06 </wgt>
<wgt id='morphing_basis_vector_3'> +1.7500151e-06 </wgt>
<wgt id='morphing_basis_vector_4'> +1.2671642e-06 </wgt>
<wgt id='morphing_basis_vector_5'> +2.0210291e-06 </wgt>
</rwgt>
</event>
<event>
 4      1 +9.0096000e-12 5.89469600e+03 7.81860800e-03 7.27345300e-02
        2 -1    0    0  501    0 +0.0000000000e+00 +0.0000000000e+00 +2.9858433674e+03 2.9858433674e+03 0.0000000000e+00 0.0000e+00 1.0000e+00
       -2 -1    0    0    0  501 -0.0000000000e+00 -0.0000000000e+00 -2.9093484793e+03 2.9093484793e+03 0.0000000000e+00 0.0000e+00 -1.0000e+00
      -13  1    1    2    0    0 +5.7963126487e+02 -9.1925537052e+02 -2.7016649646e+03 2.9120433411e+03 0.0000000000e+00 0.0000e+00 -1.0000e+00
       13  1    1    2    0    0 -5.7963126487e+02 +9.1925537052e+02 +2.7781598527e+03 2.9831485056e+03 0.0000000000e+00 0.0000e+00 1.0000e+00
<mgrwt>
<rscale>  0 0.58946955E+04</rscale>
<asrwt>0</asrwt>
<pdfrwt beam="1">  1        2 0.45936052E+00 0.58946955E+04</pdfrwt>
<pdfrwt beam="2">  1       -2 0.44759208E+00 0.58946955E+04</pdfrwt>
<totfact> 0.37371067E-03</totfact>
</mgrwt>
<rwgt>
<wgt id='morphing_basis_vector_1'> +1.4702269e-06 </wgt>
<wgt id='morphing_basis_vector_2'> +9.9964123e-07 </wgt>
<wgt id='morphing_basis_vector_3'> +1.6222993e-06 </wgt>
<wgt id='morphing_basis_vector_4'> +1.1748346e-06 </wgt>
<wgt id='morphing_basis_vector_5'> +1.8734172e-06 </wgt>
</rwgt>
</event>
<event>
 4      1 +9.0096000e-12 6.62944100e+03 7.81860800e-03 7.19629400e-02
        2 -1    0    0  501    0 +0.0000000000e+00 +0.0000000000e+00 +3.8186347741e+03 3.8186347741e+03 0.0000000000e+00 0.0000e+00 -1.0000e+00
       -2 -1    0    0    0  501 -0.0000000000e+00 -0.0000000000e+00 -2.8773040588e+03 2.8773040588e+03 0.0000000000e+00 0.0000e+00 1.0000e+00
      -13  1    1    2    0    0 +2.8831093322e+03 +2.9395430985e+02 -1.1543997700e+03 3.1195139664e+03 0.0000000000e+00 0.0000e+00 1.0000e+00
       13  1    1    2    0    0 -2.8831093322e+03 -2.9395430985e+02 +2.0957304853e+03 3.5764248664e+03 0.0000000000e+00 0.0000e+00 -1.0000e+00
<mgrwt>
<rscale>  0 0.66294414E+04</rscale>
<asrwt>0</asrwt>
<pdfrwt beam="1">  1        2 0.58748227E+00 0.66294414E+04</pdfrwt>
<pdfrwt beam="2">  1       -2 0.44266216E+00 0.66294414E+04</pdfrwt>
<totfact> 0.96406268E-04</totfact>
</mgrwt>
<rwgt>
<wgt id='morphing_basis_vector_1'> +2.3609713e-06 </wgt>
<wgt id='morphing_basis_vector_2'> +1.6316121e-06 </wgt>
<wgt id='morphing_basis_vector_3'> +2.6135835e-06 </wgt>
<wgt id='morphing_basis_vector_4'> +1.8571326e-06 </wgt>
<wgt id='morphing_basis_vector_5'> +2.9979002e-06 </wgt>
</rwgt>
</event>
<event>
 4      1 +9.0096000e-12 5.64883100e+03 7.81860800e-03 7.30186400e-02
        2 -1    0    0  501    0 +0.0000000000e+00 +0.0000000000e+00 +3.5177468927e+03 3.5177468927e+03 0.0000000000e+00 0.0000e+00 1.0000e+00
       -2 -1    0    0    0  501 -0.0000000000e+00 -0.0000000000e+00 -2.2677364150e+03 2.2677364150e+03 0.0000000000e+00 0.0000e+00 -1.0000e+00
      -13  1    1    2    0    0 +1.8430858369e+03 -1.5397933361e+03 -8.9735570770e+02 2.5638206229e+03 0.0000000000e+00 0.0000e+00 -1.0000e+00
       13  1    1    2    0    0 -1.8430858369e+03 +1.5397933361e+03 +2.1473661854e+03 3.2216626848e+03 0.0000000000e+00 0.0000e+00 1.0000e+00
<mgrwt>
<rscale>  0 0.56488309E+04</rscale>
<asrwt>0</asrwt>
<pdfrwt beam="1">  1        2 0.54119183E+00 0.56488309E+04</pdfrwt>
<pdfrwt beam="2">  1       -2 0.34888252E+00 0.56488309E+04</pdfrwt>
<totfact> 0.72813261E-03</totfact>
</mgrwt>
<rwgt>
<wgt id='morphing_basis_vector_1'> +1.2451487e-06 </wgt>
<wgt id='morphing_basis_vector_2'> +8.5713803e-07 </wgt>
<wgt id='morphing_basis_vector_3'> +1.3759108e-06 </wgt>
<wgt id='morphing_basis_vector_4'> +9.8017899e-07 </wgt>
<wgt id='morphing_basis_vector_5'> +1.5783809e-06 </wgt>
</rwgt>
</event>
<event>
 4      1 +9.0096000e-12 5.93207100e+03 7.81860800e-03 7.26925800e-02
        2 -1    0    0  501    0 +0.0000000000e+00 +0.0000000000e+00 +4.2605853637e+03 4.2605853637e+03 0.0000000000e+00 0.0000e+00 -1.0000e+00
       -2 -1    0    0    0  501 -0.0000000000e+00 -0.0000000000e+00 -2.0648254936e+03 2.0648254936e+03 0.0000000000e+00 0.0000e+00 1.0000e+00
      -13  1    1    2    0    0 -2.5315994241e+03 +1.5027684756e+03 +7.1333372836e+02 3.0292166881e+03 0.0000000000e+00 0.0000e+00 1.0000e+00
       13  1    1    2    0    0 +2.5315994241e+03 -1.5027684756e+03 +1.4824261417e+03 3.2961941692e+03 0.0000000000e+00 0.0000e+00 -1.0000e+00
<mgrwt>
<rscale>  0 0.59320706E+04</rscale>
<asrwt>0</asrwt>
<pdfrwt beam="1">  1        2 0.65547467E+00 0.59320706E+04</pdfrwt>
<pdfrwt beam="2">  1       -2 0.31766546E+00 0.59320706E+04</pdfrwt>
<totfact> 0.27752574E-03</totfact>
</mgrwt>
<rwgt>
<wgt id='morphing_basis_vector_1'> +1.5431092e-06 </wgt>
<wgt id='morphing_basis_vector_2'> +1.1289099e-06 </wgt>
<wgt id='morphing_basis_vector_3'> +1.7214970e-06 </wgt>
<wgt id='morphing_basis_vector_4'> +1.1294262e-06 </wgt>
<wgt id='morphing_basis_vector_5'> +1.9151402e-06 </wgt>
</rwgt>
</event>
<event>
 4      1 +9.0096000e-12 5.64517300e+03 7.81860800e-03 7.30229800e-02
        2 -1    0    0  501    0 +0.0000000000e+00 +0.0000000000e+00 +2.2858640378e+03 2.2858640378e+03 0.0000000000e+00 0.0000e+00 1.0000e+00
       -2 -1    0    0    0  501 -0.0000000000e+00 -0.0000000000e+00 -3.4853323261e+03 3.4853323261e+03 0.0000000000e+00 0.0000e+00 -1.0000e+00
      -13  1    1    2    0    0 +2.7306305653e+03 +2.2719314220e+02 +9.2912679767e+01 2.7416405261e+03 0.0000000000e+00 0.0000e+00 -1.0000e+00
       13  1    1    2    0    0 -2.7306305653e+03 -2.2719314220e+02 -1.2923809680e+03 3.0295558378e+03 0.0000000000e+00 0.0000e+00 1.0000e+00
<mgrwt>
<rscale>  0 0.56451735E+04</rscale>
<asrwt>0</asrwt>
<pdfrwt beam="1">  1        2 0.35167139E+00 0.56451735E+04</pdfrwt>
<pdfrwt beam="2">  1       -2 0.53620497E+00 0.56451735E+04</pdfrwt>
<totfact> 0.22782034E-03</totfact>
</mgrwt>
<rwgt>
<wgt id='morphing_basis_vector_1'> +1.3412115e-06 </wgt>
<wgt id='morphing_basis_vector_2'> +1.1463600e-06 </wgt>
<wgt id='morphing_basis_vector_3'> +1.5341602e-06 </wgt>
<wgt id='morphing_basis_vector_4'> +7.6551870e-07 </wgt>
<wgt id='morphing_basis_vector_5'> +1.5564626e-06 </wgt>
</rwgt>
</event>
<event>
 4      1 +9.0096000e-12 5.59605200e+03 7.81860800e-03 7.30815600e-02
        2 -1    0    0  501    0 +0.0000000000e+00 +0.0000000000e+00 +2.8695160660e+03 2.8695160660e+03 0.0000000000e+00 0.0000e+00 -1.0000e+00
       -2 -1    0    0    0  501 -0.0000000000e+00 -0.0000000000e+00 -2.7283174473e+03 2.7283174473e+03 0.0000000000e+00 0.0000e+00 1.0000e+00
      -13  1    1    2    0    0 -6.6395373675e+02 -1.0008979538e+03 -2.4573218303e+03 2.7351529859e+03 0.0000000000e+00 0.0000e+00 1.0000e+00
       13  1    1    2    0    0 +6.6395373675e+02 +1.0008979538e+03 +2.5985204490e+03 2.8626805274e+03 0.0000000000e+00 0.0000e+00 -1.0000e+00
<mgrwt>
<rscale>  0 0.55960524E+04</rscale>
<asrwt>0</asrwt>
<pdfrwt beam="1">  1        2 0.44146401E+00 0.55960524E+04</pdfrwt>
<pdfrwt beam="2">  1       -2 0.41974115E+00 0.55960524E+04</pdfrwt>
<totfact> 0.70076929E-03</totfact>
</mgrwt>
<rwgt>
<wgt id='morphing_basis_vector_1'> +1.1948502e-06 </wgt>
<wgt id='morphing_basis_vector_2'> +8.1228818e-07 </wgt>
<wgt id='morphing_basis_vector_3'> +1.3178329e-06 </wgt>
<wgt id='morphing_basis_vector_4'> +9.5364461e-07 </wgt>
<wgt id='morphing_basis_vector_5'> +1.5208835e-06 </wgt>
</rwgt>
</event>
<event>
 4      1 +9.0096000e-12 5.65620200e+03 7.81860800e-03 7.30099100e-02
        2 -1    0    0  501    0 +0.0000000000e+00 +0.0000000000e+00 +3.8559111408e+03 3.8559111408e+03 0.0000000000e+00 0.0000e+00 -1.0000e+00
       -2 -1    0    0    0  501 -0.0000000000e+00 -0.0000000000e+00 -2.0742578269e+03 2.0742578269e+03 0.0000000000e+00 0.0000e+00 1.0000e+00
      -13  1    1    2    0    0 -7.9279322125e+02 -1.5028752688e+03 -1.4794283905e+03 2.2529677157e+03 0.0000000000e+00 0.0000e+00 1.0000e+00
       13  1    1    2    0    0 +7.9279322125e+02 +1.5028752688e+03 +3.2610817045e+03 3.6772012521e+03 0.0000000000e+00 0.0000e+00 -1.0000e+00
<mgrwt>
<rscale>  0 0.56562015E+04</rscale>
<asrwt>0</asrwt>
<pdfrwt beam="1">  1        2 0.59321710E+00 0.56562015E+04</pdfrwt>
<pdfrwt beam="2">  1       -2 0.31911659E+00 0.56562015E+04</pdfrwt>
<totfact> 0.62472141E-03</totfact>
</mgrwt>
<rwgt>
<wgt id='morphing_basis_vector_1'> +1.2474179e-06 </wgt>
<wgt id='morphing_basis_vector_2'> +8.4921168e-07 </wgt>
<wgt id='morphing_basis_vector_3'> +1.3762178e-06 </wgt>
<wgt id='morphing_basis_vector_4'> +9.9434564e-07 </wgt>
<wgt id='morphing_basis_vector_5'> +1.5874141e-06 </wgt>
</rwgt>
</event>
<event>
 4      1 +9.0096000e-12 5.58016600e+03 7.81860800e-03 7.31006300e-02
        2 -1    0    0  501    0 +0.0000000000e+00 +0.0000000000e+00 +3.4345642738e+03 3.4345642738e+03 0.0000000000e+00 0.0000e+00 -1.0000e+00
       -2 -1    0    0    0  501 -0.0000000000e+00 -0.0000000000e+00 -2.2665356008e+03 2.2665356008e+03 0.0000000000e+00 0.0000e+00 1.0000e+00
      -13  1    1    2    0    0 -2.6458132052e+03 -8.8384309230e+02 +6.4049415318e+02 2.8621213966e+03 0.0000000000e+00 0.0000e+00 1.0000e+00
       13  1    1    2    0    0 +2.6458132052e+03 +8.8384309230e+02 +5.2753451974e+02 2.8389784780e+03 0.0000000000e+00 0.0000e+00 -1.0000e+00
<mgrwt>
<rscale>  0 0.55801657E+04</rscale>
<asrwt>0</asrwt>
<pdfrwt beam="1">  1        2 0.52839450E+00 0.55801657E+04</pdfrwt>
<pdfrwt beam="2">  1       -2 0.34869779E+00 0.55801657E+04</pdfrwt>
<totfact> 0.84359703E-03</totfact>
</mgrwt>
<rwgt>
<wgt id='morphing_basis_vector_1'> +1.2279451e-06 </wgt>
<wgt id='morphing_basis_vector_2'> +9.3982934e-07 </wgt>
<wgt id='morphing_basis_vector_3'> +1.3788101e-06 </wgt>
<wgt id='morphing_basis_vector_4'> +8.4335443e-07 </wgt>
<wgt id='morphing_basis_vector_5'> +1.4952852e-06 </wgt>
</rwgt>
</event>
<event>
 4      1 +9.0096000e-12 6.31806700e+03 7.81860800e-03 7.22768900e-02
        2 -1    0    0  501    0 +0.0000000000e+00 +0.0000000000e+00 +2.9791003981e+03 2.9791003981e+03 0.0000000000e+00 0.0000e+00 -1.0000e+00
       -2 -1    0    0    0  501 -0.0000000000e+00 -0.0000000000e+00 -3.3498343467e+03 3.3498343467e+03 0.0000000000e+00 0.0000e+00 1.0000e+00
      -13  1    1    2    0    0 -3.5866379550e+01 +1.6431340205e+03 -2.8878431323e+03 3.3227719998e+03 0.0000000000e+00 0.0000e+00 1.0000e+00
       13  1    1    2    0    0 +3.5866379550e+01 -1.6431340205e+03 +2.5171091837e+03 3.0061627450e+03 0.0000000000e+00 0.0000e+00 -1.0000e+00
<mgrwt>
<rscale>  0 0.63180671E+04</rscale>
<asrwt>0</asrwt>
<pdfrwt beam="1">  1        2 0.45832314E+00 0.63180671E+04</pdfrwt>
<pdfrwt beam="2">  1       -2 0.51535913E+00 0.63180671E+04</pdfrwt>
<totfact> 0.11646476E-03</totfact>
</mgrwt>
<rwgt>
<wgt id='morphing_basis_vector_1'> +1.9395268e-06 </wgt>
<wgt id='morphing_basis_vector_2'> +1.3200907e-06 </wgt>
<wgt id='morphing_basis_vector_3'> +2.1415723e-06 </wgt>
<wgt id='morphing_basis_vector_4'> +1.5505573e-06 </wgt>
<wgt id='morphing_basis_vector_5'> +2.4738318e-06 </wgt>
</rwgt>
</event>
<event>
 4      1 +9.0096000e-12 6.23462600e+03 7.81860800e-03 7.23641500e-02
        2 -1    0    0  501    0 +0.0000000000e+00 +0.0000000000e+00 +3.4210757340e+03 3.4210757340e+03 0.0000000000e+00 0.0000e+00 1.0000e+00
       -2 -1    0    0    0  501 -0.0000000000e+00 -0.0000000000e+00 -2.8405214708e+03 2.8405214708e+03 0.0000000000e+00 0.0000e+00 -1.0000e+00
      -13  1    1    2    0    0 +1.2423132823e+03 -1.6338080683e+02 -2.5764720144e+03 2.8650032496e+03 0.0000000000e+00 0.0000e+00 -1.0000e+00
       13  1    1    2    0    0 -1.2423132823e+03 +1.6338080683e+02 +3.1570262775e+03 3.3965939552e+03 0.0000000000e+00 0.0000e+00 1.0000e+00
<mgrwt>
<rscale>  0 0.62346256E+04</rscale>
<asrwt>0</asrwt>
<pdfrwt beam="1">  1        2 0.52631935E+00 0.62346256E+04</pdfrwt>
<pdfrwt beam="2">  1       -2 0.43700330E+00 0.62346256E+04</pdfrwt>
<totfact> 0.21741136E-03</totfact>
</mgrwt>
<rwgt>
<wgt id='morphing_basis_vector_1'> +1.8389630e-06 </wgt>
<wgt id='morphing_basis_vector_2'> +1.2508382e-06 </wgt>
<wgt id='morphing_basis_vector_3'> +2.0301519e-06 </wgt>
<wgt id='morphing_basis_vector_4'> +1.4707856e-06 </wgt>
<wgt id='morphing_basis_vector_5'> +2.3455192e-06 </wgt>
</rwgt>
</event>
<event>
 4      1 +9.0096000e-12 6.08925800e+03 7.81860800e-03 7.25195300e-02
        2 -1    0    0  501    0 +0.0000000000e+00 +0.0000000000e+00 +3.6572118715e+03 3.6572118715e+03 0.0000000000e+00 0.0000e+00 -1.0000e+00
       -2 -1    0    0    0  501 -0.0000000000e+00 -0.0000000000e+00 -2.5346534021e+03 2.5346534021e+03 0.0000000000e+00 0.0000e+00 1.0000e+00
      -13  1    1    2    0    0 -1.1069794915e+03 -1.2006988548e+03 -2.0515882295e+03 2.6222310345e+03 0.0000000000e+00 0.0000e+00 1.0000e+00
       13  1    1    2    0    0 +1.1069794915e+03 +1.2006988548e+03 +3.1741466990e+03 3.5696342391e+03 0.0000000000e+00 0.0000e+00 -1.0000e+00
<mgrwt>
<rscale>  0 0.60892576E+04</rscale>
<asrwt>0</asrwt>
<pdfrwt beam="1">  1        2 0.56264798E+00 0.60892576E+04</pdfrwt>
<pdfrwt beam="2">  1       -2 0.38994668E+00 0.60892576E+04</pdfrwt>
<totfact> 0.30067271E-03</totfact>
</mgrwt>
<rwgt>
<wgt id='morphing_basis_vector_1'> +1.6740571e-06 </wgt>
<wgt id='morphing_basis_vector_2'> +1.1393345e-06 </wgt>
<wgt id='morphing_basis_vector_3'> +1.8479374e-06 </wgt>
<wgt id='morphing_basis_vector_4'> +1.3373150e-06 </wgt>
<wgt id='morphing_basis_vector_5'> +2.1338127e-06 </wgt>
</rwgt>
</event>
<event>
 4      1 +9.0096000e-12 6.04385800e+03 7.81860800e-03 7.25689600e-02
        2 -1    0    0  501    0 +0.0000000000e+00 +0.0000000000e+00 +2.7081164591e+03 2.7081164591e+03 0.0000000000e+00 0.0000e+00 -1.0000e+00
       -2 -1    0    0    0  501 -0.0000000000e+00 -0.0000000000e+00 -3.3721052912e+03 3.3721052912e+03 0.0000000000e+00 0.0000e+00 1.0000e+00
      -13  1    1    2    0    0 -2.1803165946e+03 -4.3097843340e+02 -2.3918811060e+03 3.2650601967e+03 0.0000000000e+00 0.0000e+00 1.0000e+00
       13  1    1    2    0    0 +2.1803165946e+03 +4.3097843340e+02 +1.7278922739e+03 2.8151615536e+03 0.0000000000e+00 0.0000e+00 -1.0000e+00
<mgrwt>
<rscale>  0 0.60438577E+04</rscale>
<asrwt>0</asrwt>
<pdfrwt beam="1">  1        2 0.41663330E+00 0.60438577E+04</pdfrwt>
<pdfrwt beam="2">  1       -2 0.51878543E+00 0.60438577E+04</pdfrwt>
<totfact> 0.16629631E-03</totfact>
</mgrwt>
<rwgt>
<wgt id='morphing_basis_vector_1'> +1.6267640e-06 </wgt>
<wgt id='morphing_basis_vector_2'> +1.1115393e-06 </wgt>
<wgt id='morphing_basis_vector_3'> +1.7966614e-06 </wgt>
<wgt id='morphing_basis_vector_4'> +1.2935842e-06 </wgt>
<wgt id='morphing_basis_vector_5'> +2.0703966e-06 </wgt>
</rwgt>
</event>
<event>
 4      1 +9.0096000e-12 6.05811500e+03 7.81860800e-03 7.25533900e-02
        2 -1    0    0  501    0 +0.0000000000e+00 +0.0000000000e+00 +4.5674168904e+03 4.5674168904e+03 0.0000000000e+00 0.0000e+00 1.0000e+00
       -2 -1    0    0    0  501 -0.0000000000e+00 -0.0000000000e+00 -2.0088355426e+03 2.0088355426e+03 0.0000000000e+00 0.0000e+00 -1.0000e+00
      -13  1    1    2    0    0 -7.3682361173e+02 -2.2140762337e+03 -8.1725303998e+02 2.4724370841e+03 0.0000000000e+00 0.0000e+00 -1.0000e+00
       13  1    1    2    0    0 +7.3682361173e+02 +2.2140762337e+03 +3.3758343878e+03 4.1038153488e+03 0.0000000000e+00 0.0000e+00 1.0000e+00
<mgrwt>
<rscale>  0 0.60581150E+04</rscale>
<asrwt>0</asrwt>
<pdfrwt beam="1">  1        2 0.70267952E+00 0.60581150E+04</pdfrwt>
<pdfrwt beam="2">  1       -2 0.30905162E+00 0.60581150E+04</pdfrwt>
<totfact> 0.15481296E-03</totfact>
</mgrwt>
<rwgt>
<wgt id='morphing_basis_vector_1'> +1.6429323e-06 </wgt>
<wgt id='morphing_basis_vector_2'> +1.1243998e-06 </wgt>
<wgt id='morphing_basis_vector_3'> +1.8149769e-06 </wgt>
<wgt id='morphing_basis_vector_4'> +1.3041508e-06 </wgt>
<wgt id='morphing_basis_vector_5'> +2.0899008e-06 </wgt>
</rwgt>
</event>
<event>
 4      1 +9.0096000e-12 5.59127700e+03 7.81860800e-03 7.30872800e-02
        2 -1    0    0  501    0 +0.0000000000e+00 +0.0000000000e+00 +3.1926655024e+03 3.1926655024e+03 0.0000000000e+00 0.0000e+00 1.0000e+00
       -2 -1    0    0    0  501 -0.0000000000e+00 -0.0000000000e+00 -2.4479840123e+03 2.4479840123e+03 0.0000000000e+00 0.0000e+00 -1.0000e+00
      -13  1    1    2    0    0 -2.5548269748e+03 +1.1336257087e+03 +4.3069604413e+02 2.8280288544e+03 0.0000000000e+00 0.0000e+00 -1.0000e+00
       13  1    1    2    0    0 +2.5548269748e+03 -1.1336257087e+03 +3.1398544598e+02 2.8126206604e+03 0.0000000000e+00 0.0000e+00 1.0000e+00
<mgrwt>
<rscale>  0 0.55912768E+04</rscale>
<asrwt>0</asrwt>
<pdfrwt beam="1">  1        2 0.49117931E+00 0.55912768E+04</pdfrwt>
<pdfrwt beam="2">  1       -2 0.37661292E+00 0.55912768E+04</pdfrwt>
<totfact> 0.82268439E-03</totfact>
</mgrwt>
<rwgt>
<wgt id='morphing_basis_vector_1'> +1.2378767e-06 </wgt>
<wgt id='morphing_basis_vector_2'> +9.4776153e-07 </wgt>
<wgt id='morphing_basis_vector_3'> +1.3900675e-06 </wgt>
<wgt id='morphing_basis_vector_4'> +8.4979214e-07 </wgt>
<wgt id='morphing_basis_vector_5'> +1.5072339e-06 </wgt>
</rwgt>
</event>
<event>
 4      1 +9.0096000e-12 6.01367900e+03 7.81860800e-03 7.26020600e-02
        2 -1    0    0  501    0 +0.0000000000e+00 +0.0000000000e+00 +2.6659134512e+03 2.6659134512e+03 0.0000000000e+00 0.0000e+00 -1.0000e+00
       -2 -1    0    0    0  501 -0.0000000000e+00 -0.0000000000e+00 -3.3913646887e+03 3.3913646887e+03 0.0000000000e+00 0.0000e+00 1.0000e+00
      -13  1    1    2    0    0 -2.7938737988e+03 +2.0025834445e+02 -1.4639269396e+03 3.1605246863e+03 0.0000000000e+00 0.0000e+00 1.0000e+00
       13  1    1    2    0    0 +2.7938737988e+03 -2.0025834445e+02 +7.3847570215e+02 2.8967534536e+03 0.0000000000e+00 0.0000e+00 -1.0000e+00
<mgrwt>
<rscale>  0 0.60136793E+04</rscale>
<asrwt>0</asrwt>
<pdfrwt beam="1">  1        2 0.41014053E+00 0.60136793E+04</pdfrwt>
<pdfrwt beam="2">  1       -2 0.52174841E+00 0.60136793E+04</pdfrwt>
<totfact> 0.16822096E-03</totfact>
</mgrwt>
<rwgt>
<wgt id='morphing_basis_vector_1'> +1.6060377e-06 </wgt>
<wgt id='morphing_basis_vector_2'> +1.1231321e-06 </wgt>
<wgt id='morphing_basis_vector_3'> +1.7797471e-06 </wgt>
<wgt id='morphing_basis_vector_4'> +1.2433919e-06 </wgt>
<wgt id='morphing_basis_vector_5'> +2.0272046e-06 </wgt>
</rwgt>
</event>
<event>
 4      1 +9.0096000e-12 6.50978300e+03 7.81860800e-03 7.20814800e-02
        2 -1    0    0  501    0 +0.0000000000e+00 +0.0000000000e+00 +3.4891400985e+03 3.4891400985e+03 0.0000000000e+00 0.0000e+00 1.0000e+00
       -2 -1    0    0    0  501 -0.0000000000e+00 -0.0000000000e+00 -3.0363699245e+03 3.0363699245e+03 0.0000000000e+00 0.0000e+00 -1.0000e+00
      -13  1    1    2    0    0 -2.8262250728e+00 +9.4446532269e+02 -2.8959909884e+03 3.0461100667e+03 0.0000000000e+00 0.0000e+00 -1.0000e+00
       13  1    1    2    0    0 +2.8262250728e+00 -9.4446532269e+02 +3.3487611625e+03 3.4793999564e+03 0.0000000000e+00 0.0000e+00 1.0000e+00
<mgrwt>
<rscale>  0 0.65097834E+04</rscale>
<asrwt>0</asrwt>
<pdfrwt beam="1">  1        2 0.53679078E+00 0.65097834E+04</pdfrwt>
<pdfrwt beam="2">  1       -2 0.46713384E+00 0.65097834E+04</pdfrwt>
<totfact> 0.11694657E-03</totfact>
</mgrwt>
<rwgt>
<wgt id='morphing_basis_vector_1'> +2.1848403e-06 </wgt>
<wgt id='morphing_basis_vector_2'> +1.4861234e-06 </wgt>
<wgt id='morphing_basis_vector_3'> +2.4127091e-06 </wgt>
<wgt id='morphing_basis_vector_4'> +1.7489861e-06 </wgt>
<wgt id='morphing_basis_vector_5'> +2.7887766e-06 </wgt>
</rwgt>
</event>
<event>
 4      1 +9.0096000e-12 5.76252600e+03 7.81860800e-03 7.28854600e-02
        2 -1    0    0  501    0 +0.0000000000e+00 +0.0000000000e+00 +4.0373542637e+03 4.0373542637e+03 0.0000000000e+00 0.0000e+00 -1.0000e+00
       -2 -1    0    0    0  501 -0.0000000000e+00 -0.0000000000e+00 -2.0562169669e+03 2.0562169669e+03 0.0000000000e+00 0.0000e+00 1.0000e+00
      -13  1    1    2    0    0 -9.7036014506e+02 -1.3387771603e+03 -1.5045947298e+03 2.2355599739e+03 0.0000000000e+00 0.0000e+00 1.0000e+00
       13  1    1    2    0    0 +9.7036014506e+02 +1.3387771603e+03 +3.4857320266e+03 3.8580112567e+03 0.0000000000e+00 0.0000e+00 -1.0000e+00
<mgrwt>
<rscale>  0 0.57625260E+04</rscale>
<asrwt>0</asrwt>
<pdfrwt beam="1">  1        2 0.62113142E+00 0.57625260E+04</pdfrwt>
<pdfrwt beam="2">  1       -2 0.31634107E+00 0.57625260E+04</pdfrwt>
<totfact> 0.45562302E-03</totfact>
</mgrwt>
<rwgt>
<wgt id='morphing_basis_vector_1'> +1.3435004e-06 </wgt>
<wgt id='morphing_basis_vector_2'> +9.1441521e-07 </wgt>
<wgt id='morphing_basis_vector_3'> +1.4824088e-06 </wgt>
<wgt id='morphing_basis_vector_4'> +1.0717315e-06 </wgt>
<wgt id='morphing_basis_vector_5'> +1.7105164e-06 </wgt>
</rwgt>
</event>
<event>
 4      1 +9.0096000e-12 6.09275900e+03 7.81860800e-03 7.25157300e-02
        2 -1    0    0  501    0 +0.0000000000e+00 +0.0000000000e+00 +4.5739293949e+03 4.5739293949e+03 0.0000000000e+00 0.0000e+00 1.0000e+00
       -2 -1    0    0    0  501 -0.0000000000e+00 -0.0000000000e+00 -2.0289837778e+03 2.0289837778e+03 0.0000000000e+00 0.0000e+00 -1.0000e+00
      -13  1    1    2    0    0 +6.6197291431e+02 +1.8953593180e+03 +3.7555735433e+03 4.2585123837e+03 0.0000000000e+00 0.0000e+00 1.0000e+00
       13  1    1    2    0    0 -6.6197291431e+02 -1.8953593180e+03 -1.2106279262e+03 2.3444007889e+03 0.0000000000e+00 0.0000e+00 -1.0000e+00
<mgrwt>
<rscale>  0 0.60927592E+04</rscale>
<asrwt>0</asrwt>
<pdfrwt beam="1">  1        2 0.70368144E+00 0.60927592E+04</pdfrwt>
<pdfrwt beam="2">  1       -2 0.31215135E+00 0.60927592E+04</pdfrwt>
<totfact> 0.14486437E-03</totfact>
</mgrwt>
<rwgt>
<wgt id='morphing_basis_vector_1'> +2.2041423e-06 </wgt>
<wgt id='morphing_basis_vector_2'> +2.6865119e-06 </wgt>
<wgt id='morphing_basis_vector_3'> +2.7118193e-06 </wgt>
<wgt id='morphing_basis_vector_4'> +2.1439463e-07 </wgt>
<wgt id='morphing_basis_vector_5'> +2.0440028e-06 </wgt>
</rwgt>
</event>
<event>
 4      1 +9.0096000e-12 6.08581900e+03 7.81860800e-03 7.25232500e-02
        2 -1    0    0  501    0 +0.0000000000e+00 +0.0000000000e+00 +4.4412644893e+03 4.4412644893e+03 0.0000000000e+00 0.0000e+00 -1.0000e+00
       -2 -1    0    0    0  501 -0.0000000000e+00 -0.0000000000e+00 -2.0848340965e+03 2.0848340965e+03 0.0000000000e+00 0.0000e+00 1.0000e+00
      -13  1    1    2    0    0 +2.1497750580e+03 +6.9444762337e+02 -1.0077673822e+03 2.4737391532e+03 0.0000000000e+00 0.0000e+00 1.0000e+00
       13  1    1    2    0    0 -2.1497750580e+03 -6.9444762337e+02 +3.3641977749e+03 4.0523594325e+03 0.0000000000e+00 0.0000e+00 -1.0000e+00
<mgrwt>
<rscale>  0 0.60858195E+04</rscale>
<asrwt>0</asrwt>
<pdfrwt beam="1">  1        2 0.68327146E+00 0.60858195E+04</pdfrwt>
<pdfrwt beam="2">  1       -2 0.32074371E+00 0.60858195E+04</pdfrwt>
<totfact> 0.17454230E-03</totfact>
</mgrwt>
<rwgt>
<wgt id='morphing_basis_vector_1'> +1.6724550e-06 </wgt>
<wgt id='morphing_basis_vector_2'> +1.1431265e-06 </wgt>
<wgt id='morphing_basis_vector_3'> +1.8473080e-06 </wgt>
<wgt id='morphing_basis_vector_4'> +1.3296539e-06 </wgt>
<wgt id='morphing_basis_vector_5'> +2.1285972e-06 </wgt>
</rwgt>
</event>
<event>
 4      1 +9.0096000e-12 5.84157300e+03 7.81860800e-03 7.27947100e-02
        2 -1    0    0  501    0 +0.0000000000e+00 +0.0000000000e+00 +3.6324962940e+03 3.6324962940e+03 0.0000000000e+00 0.0000e+00 -1.0000e+00
       -2 -1    0    0    0  501 -0.0000000000e+00 -0.0000000000e+00 -2.3485208092e+03 2.3485208092e+03 0.0000000000e+00 0.0000e+00 1.0000e+00
      -13  1    1    2    0    0 +2.8498716272e+03 -6.2348892821e+02 +4.9544035387e+02 2.9590484753e+03 0.0000000000e+00 0.0000e+00 1.0000e+00
       13  1    1    2    0    0 -2.8498716272e+03 +6.2348892821e+02 +7.8853513101e+02 3.0219686279e+03 0.0000000000e+00 0.0000e+00 -1.0000e+00
<mgrwt>
<rscale>  0 0.58415728E+04</rscale>
<asrwt>0</asrwt>
<pdfrwt beam="1">  1        2 0.55884558E+00 0.58415728E+04</pdfrwt>
<pdfrwt beam="2">  1       -2 0.36131090E+00 0.58415728E+04</pdfrwt>
<totfact> 0.48935123E-03</totfact>
</mgrwt>
<rwgt>
<wgt id='morphing_basis_vector_1'> +1.4616681e-06 </wgt>
<wgt id='morphing_basis_vector_2'> +1.0921196e-06 </wgt>
<wgt id='morphing_basis_vector_3'> +1.6357588e-06 </wgt>
<wgt id='morphing_basis_vector_4'> +1.0397304e-06 </wgt>
<wgt id='morphing_basis_vector_5'> +1.7988029e-06 </wgt>
</rwgt>
</event>
<event>
 4      1 +9.0096000e-12 6.44111200e+03 7.81860800e-03 7.21506800e-02
        2 -1    0    0  501    0 +0.0000000000e+00 +0.0000000000e+00 +3.9765967942e+03 3.9765967942e+03 0.0000000000e+00 0.0000e+00 -1.0000e+00
       -2 -1    0    0    0  501 -0.0000000000e+00 -0.0000000000e+00 -2.6082553043e+03 2.6082553043e+03 0.0000000000e+00 0.0000e+00 1.0000e+00
      -13  1    1    2    0    0 +2.1528109630e+03 +4.0464128404e+02 -1.7293723065e+03 2.7908884223e+03 0.0000000000e+00 0.0000e+00 1.0000e+00
       13  1    1    2    0    0 -2.1528109630e+03 -4.0464128404e+02 +3.0977137965e+03 3.7939636762e+03 0.0000000000e+00 0.0000e+00 -1.0000e+00
<mgrwt>
<rscale>  0 0.64411116E+04</rscale>
<asrwt>0</asrwt>
<pdfrwt beam="1">  1        2 0.61178412E+00 0.64411116E+04</pdfrwt>
<pdfrwt beam="2">  1       -2 0.40127005E+00 0.64411116E+04</pdfrwt>
<totfact> 0.13679627E-03</totfact>
</mgrwt>
<rwgt>
<wgt id='morphing_basis_vector_1'> +2.0962561e-06 </wgt>
<wgt id='morphing_basis_vector_2'> +1.4302709e-06 </wgt>
<wgt id='morphing_basis_vector_3'> +2.3157611e-06 </wgt>
<wgt id='morphing_basis_vector_4'> +1.6719635e-06 </wgt>
<wgt id='morphing_basis_vector_5'> +2.6723782e-06 </wgt>
</rwgt>
</event>
<event>
 4      1 +9.0096000e-12 5.79337200e+03 7.81860800e-03 7.28498700e-02
        2 -1    0    0  501    0 +0.0000000000e+00 +0.0000000000e+00 +1.6517574747e+03 1.6517574747e+03 0.0000000000e+00 0.0000e+00 1.0000e+00
       -2 -1    0    0    0  501 -0.0000000000e+00 -0.0000000000e+00 -5.0799160043e+03 5.0799160043e+03 0.0000000000e+00 0.0000e+00 -1.0000e+00
      -13  1    1    2    0    0 +2.6465136131e+03 -1.1632460692e+03 -1.5010454403e+03 3.2573475614e+03 0.0000000000e+00 0.0000e+00 1.0000e+00
       13  1    1    2    0    0 -2.6465136131e+03 +1.1632460692e+03 -1.9271130893e+03 3.4743259175e+03 0.0000000000e+00 0.0000e+00 -1.0000e+00
<mgrwt>
<rscale>  0 0.57933718E+04</rscale>
<asrwt>0</asrwt>
<pdfrwt beam="1">  1        2 0.25411654E+00 0.57933718E+04</pdfrwt>
<pdfrwt beam="2">  1       -2 0.78152553E+00 0.57933718E+04</pdfrwt>
<totfact> 0.89859301E-04</totfact>
</mgrwt>
<rwgt>
<wgt id='morphing_basis_vector_1'> +1.4351457e-06 </wgt>
<wgt id='morphing_basis_vector_2'> +1.1182413e-06 </wgt>
<wgt id='morphing_basis_vector_3'> +1.6167070e-06 </wgt>
<wgt id='morphing_basis_vector_4'> +9.6083960e-07 </wgt>
<wgt id='morphing_basis_vector_5'> +1.7362531e-06 </wgt>
</rwgt>
</event>
<event>
 4      1 +9.0096000e-12 6.21118500e+03 7.81860800e-03 7.23889100e-02
        2 -1    0    0  501    0 +0.0000000000e+00 +0.0000000000e+00 +4.8775004258e+03 4.8775004258e+03 0.0000000000e+00 0.0000e+00 -1.0000e+00
       -2 -1    0    0    0  501 -0.0000000000e+00 -0.0000000000e+00 -1.9773867073e+03 1.9773867073e+03 0.0000000000e+00 0.0000e+00 1.0000e+00
      -13  1    1    2    0    0 -1.8302755388e+03 -7.3078479440e+02 -1.1988418192e+03 2.3067675807e+03 0.0000000000e+00 0.0000e+00 1.0000e+00
       13  1    1    2    0    0 +1.8302755388e+03 +7.3078479440e+02 +4.0989555377e+03 4.5481195525e+03 0.0000000000e+00 0.0000e+00 -1.0000e+00
<mgrwt>
<rscale>  0 0.62111849E+04</rscale>
<asrwt>0</asrwt>
<pdfrwt beam="1">  1        2 0.75038467E+00 0.62111849E+04</pdfrwt>
<pdfrwt beam="2">  1       -2 0.30421334E+00 0.62111849E+04</pdfrwt>
<totfact> 0.72427813E-04</totfact>
</mgrwt>
<rwgt>
<wgt id='morphing_basis_vector_1'> +1.8125903e-06 </wgt>
<wgt id='morphing_basis_vector_2'> +1.2352884e-06 </wgt>
<wgt id='morphing_basis_vector_3'> +2.0015450e-06 </wgt>
<wgt id='morphing_basis_vector_4'> +1.4464570e-06 </wgt>
<wgt id='morphing_basis_vector_5'> +2.3101794e-06 </wgt>
</rwgt>
</event>
<event>
 4      1 +9.0096000e-12 5.55911600e+03 7.81860800e-03 7.31260100e-02
        2 -1    0    0  501    0 +0.0000000000e+00 +0.0000000000e+00 +2.5346771443e+03 2.5346771443e+03 0.0000000000e+00 0.0000e+00 -1.0000e+00
       -2 -1    0    0    0  501 -0.0000000000e+00 -0.0000000000e+00 -3.0480971849e+03 3.0480971849e+03 0.0000000000e+00 0.0000e+00 1.0000e+00
      -13  1    1    2    0    0 +7.8573319346e+01 -2.0787130549e+03 +1.5946977230e+03 2.6211223854e+03 0.0000000000e+00 0.0000e+00 1.0000e+00
       13  1    1    2    0    0 -7.8573319346e+01 +2.0787130549e+03 -2.1081177635e+03 2.9616519438e+03 0.0000000000e+00 0.0000e+00 -1.0000e+00
<mgrwt>
<rscale>  0 0.55591159E+04</rscale>
<asrwt>0</asrwt>
<pdfrwt beam="1">  1        2 0.38995033E+00 0.55591159E+04</pdfrwt>
<pdfrwt beam="2">  1       -2 0.46893803E+00 0.55591159E+04</pdfrwt>
<totfact> 0.51667831E-03</totfact>
</mgrwt>
<rwgt>
<wgt id='morphing_basis_vector_1'> +1.4782177e-06 </wgt>
<wgt id='morphing_basis_vector_2'> +1.7144288e-06 </wgt>
<wgt id='morphing_basis_vector_3'> +1.7957700e-06 </wgt>
<wgt id='morphing_basis_vector_4'> +2.5684571e-07 </wgt>
<wgt id='morphing_basis_vector_5'> +1.4245884e-06 </wgt>
</rwgt>
</event>
<event>
 4      1 +9.0096000e-12 6.59328700e+03 7.81860800e-03 7.19984900e-02
        2 -1    0    0  501    0 +0.0000000000e+00 +0.0000000000e+00 +3.8682229329e+03 3.8682229329e+03 0.0000000000e+00 0.0000e+00 -1.0000e+00
       -2 -1    0    0    0  501 -0.0000000000e+00 -0.0000000000e+00 -2.8095221019e+03 2.8095221019e+03 0.0000000000e+00 0.0000e+00 1.0000e+00
      -13  1    1    2    0    0 -9.1541059321e+02 +3.0503959091e+03 +1.3917066418e+03 3.4755919112e+03 0.0000000000e+00 0.0000e+00 1.0000e+00
       13  1    1    2    0    0 +9.1541059321e+02 -3.0503959091e+03 -3.3300581083e+02 3.2021531235e+03 0.0000000000e+00 0.0000e+00 -1.0000e+00
<mgrwt>
<rscale>  0 0.65932868E+04</rscale>
<asrwt>0</asrwt>
<pdfrwt beam="1">  1        2 0.59511123E+00 0.65932868E+04</pdfrwt>
<pdfrwt beam="2">  1       -2 0.43223417E+00 0.65932868E+04</pdfrwt>
<totfact> 0.10377271E-03</totfact>
</mgrwt>
<rwgt>
<wgt id='morphing_basis_vector_1'> +2.5042163e-06 </wgt>
<wgt id='morphing_basis_vector_2'> +2.1663347e-06 </wgt>
<wgt id='morphing_basis_vector_3'> +2.8749536e-06 </wgt>
<wgt id='morphing_basis_vector_4'> +1.4007447e-06 </wgt>
<wgt id='morphing_basis_vector_5'> +2.8978716e-06 </wgt>
</rwgt>
</event>
<event>
 4      1 +9.0096000e-12 5.66869700e+03 7.81860800e-03 7.29951400e-02
        2 -1    0    0  501    0 +0.0000000000e+00 +0.0000000000e+00 +3.1289616156e+03 3.1289616156e+03 0.0000000000e+00 0.0000e+00 1.0000e+00
       -2 -1    0    0    0  501 -0.0000000000e+00 -0.0000000000e+00 -2.5674749599e+03 2.5674749599e+03 0.0000000000e+00 0.0000e+00 -1.0000e+00
      -13  1    1    2    0    0 +2.7538143400e+03 -6.6109291851e+02 +1.6619722281e+02 2.8369277014e+03 0.0000000000e+00 0.0000e+00 -1.0000e+00
       13  1    1    2    0    0 -2.7538143400e+03 +6.6109291851e+02 +3.9528943289e+02 2.8595088742e+03 0.0000000000e+00 0.0000e+00 1.0000e+00
<mgrwt>
<rscale>  0 0.56686967E+04</rscale>
<asrwt>0</asrwt>
<pdfrwt beam="1">  1        2 0.48137871E+00 0.56686967E+04</pdfrwt>
<pdfrwt beam="2">  1       -2 0.39499615E+00 0.56686967E+04</pdfrwt>
<totfact> 0.68643323E-03</totfact>
</mgrwt>
<rwgt>
<wgt id='morphing_basis_vector_1'> +1.2978260e-06 </wgt>
<wgt id='morphing_basis_vector_2'> +9.7232859e-07 </wgt>
<wgt id='morphing_basis_vector_3'> +1.4526059e-06 </wgt>
<wgt id='morphing_basis_vector_4'> +9.1904029e-07 </wgt>
<wgt id='morphing_basis_vector_5'> +1.5944517e-06 </wgt>
</rwgt>
</event>
<event>
 4      1 +9.0096000e-12 5.89115300e+03 7.81860800e-03 7.27385200e-02
        2 -1    0    0  501    0 +0.0000000000e+00 +0.0000000000e+00 +2.3043632537e+03 2.3043632537e+03 0.0000000000e+00 0.0000e+00 1.0000e+00
       -2 -1    0    0    0  501 -0.0000000000e+00 -0.0000000000e+00 -3.7652137740e+03 3.7652137740e+03 0.0000000000e+00 0.0000e+00 -1.0000e+00
      -13  1    1    2    0    0 -2.4326517456e+03 -1.2345569823e+03 +4.1430397670e+02 2.7592704187e+03 0.0000000000e+00 0.0000e+00 -1.0000e+00
       13  1    1    2    0    0 +2.4326517456e+03 +1.2345569823e+03 -1.8751544970e+03 3.3103066090e+03 0.0000000000e+00 0.0000e+00 1.0000e+00
<mgrwt>
<rscale>  0 0.58911528E+04</rscale>
<asrwt>0</asrwt>
<pdfrwt beam="1">  1        2 0.35451743E+00 0.58911528E+04</pdfrwt>
<pdfrwt beam="2">  1       -2 0.57926365E+00 0.58911528E+04</pdfrwt>
<totfact> 0.10626523E-03</totfact>
</mgrwt>
<rwgt>
<wgt id='morphing_basis_vector_1'> +1.6571460e-06 </wgt>
<wgt id='morphing_basis_vector_2'> +1.5562489e-06 </wgt>
<wgt id='morphing_basis_vector_3'> +1.9292029e-06 </wgt>
<wgt id='morphing_basis_vector_4'> +7.6476131e-07 </wgt>
<wgt id='morphing_basis_vector_5'> +1.8346626e-06 </wgt>
</rwgt>
</event>
<event>
 4      1 +9.0096000e-12 5.60269300e+03 7.81860800e-03 7.30736000e-02
        2 -1    0    0  501    0 +0.0000000000e+00 +0.0000000000e+00 +4.4863976749e+03 4.4863976749e+03 0.0000000000e+00 0.0000e+00 1.0000e+00
       -2 -1    0    0    0  501 -0.0000000000e+00 -0.0000000000e+00 -1.7491855654e+03 1.7491855654e+03 0.0000000000e+00 0.0000e+00 -1.0000e+00
      -13  1    1    2    0    0 +1.4603734120e+03 -2.3547173148e+03 +9.0950706040e+02 2.9162625445e+03 0.0000000000e+00 0.0000e+00 -1.0000e+00
       13  1    1    2    0    0 -1.4603734120e+03 +2.3547173148e+03 +1.8277050490e+03 3.3193206958e+03 0.0000000000e+00 0.0000e+00 1.0000e+00
<mgrwt>
<rscale>  0 0.56026929E+04</rscale>
<asrwt>0</asrwt>
<pdfrwt beam="1">  1        2 0.69021502E+00 0.56026929E+04</pdfrwt>
<pdfrwt beam="2">  1       -2 0.26910547E+00 0.56026929E+04</pdfrwt>
<totfact> 0.36319688E-03</totfact>
</mgrwt>
<rwgt>
<wgt id='morphing_basis_vector_1'> +1.2259417e-06 </wgt>
<wgt id='morphing_basis_vector_2'> +8.9078608e-07 </wgt>
<wgt id='morphing_basis_vector_3'> +1.3655278e-06 </wgt>
<wgt id='morphing_basis_vector_4'> +9.0387479e-07 </wgt>
<wgt id='morphing_basis_vector_5'> +1.5235701e-06 </wgt>
</rwgt>
</event>
<event>
 4      1 +9.0096000e-12 5.60023400e+03 7.81860800e-03 7.30765500e-02
        2 -1    0    0  501    0 +0.0000000000e+00 +0.0000000000e+00 +2.8090262259e+03 2.8090262259e+03 0.0000000000e+00 0.0000e+00 -1.0000e+00
       -2 -1    0    0    0  501 -0.0000000000e+00 -0.0000000000e+00 -2.7912357079e+03 2.7912357079e+03 0.0000000000e+00 0.0000e+00 1.0000e+00
      -13  1    1    2    0    0 +1.9454405840e+03 +1.1651374276e+03 -1.6337846388e+03 2.7949126170e+03 0.0000000000e+00 0.0000e+00 1.0000e+00
       13  1    1    2    0    0 -1.9454405840e+03 -1.1651374276e+03 +1.6515751567e+03 2.8053493168e+03 0.0000000000e+00 0.0000e+00 -1.0000e+00
<mgrwt>
<rscale>  0 0.56002337E+04</rscale>
<asrwt>0</asrwt>
<pdfrwt beam="1">  1        2 0.43215788E+00 0.56002337E+04</pdfrwt>
<pdfrwt beam="2">  1       -2 0.42942088E+00 0.56002337E+04</pdfrwt>
<totfact> 0.65928644E-03</totfact>
</mgrwt>
<rwgt>
<wgt id='morphing_basis_vector_1'> +1.2015887e-06 </wgt>
<wgt id='morphing_basis_vector_2'> +8.2403039e-07 </wgt>
<wgt id='morphing_basis_vector_3'> +1.3269452e-06 </wgt>
<wgt id='morphing_basis_vector_4'> +9.4972701e-07 </wgt>
<wgt id='morphing_basis_vector_5'> +1.5248761e-06 </wgt>
</rwgt>
</event>
<event>
 4      1 +9.0096000e-12 6.04016500e+03 7.81860800e-03 7.25730000e-02
        2 -1    0    0  501    0 +0.0000000000e+00 +0.0000000000e+00 +4.7336947093e+03 4.7336947093e+03 0.0000000000e+00 0.0000e+00 -1.0000e+00
       -2 -1    0    0    0  501 -0.0000000000e+00 -0.0000000000e+00 -1.9268033787e+03 1.9268033787e+03 0.0000000000e+00 0.0000e+00 1.0000e+00
      -13  1    1    2    0    0 +2.1620864719e+03 -4.6271027426e+02 +3.6719518521e+03 4.2862511725e+03 0.0000000000e+00 0.0000e+00 -1.0000e+00
       13  1    1    2    0    0 -2.1620864719e+03 +4.6271027426e+02 -8.6506052150e+02 2.3742469155e+03 0.0000000000e+00 0.0000e+00 1.0000e+00
<mgrwt>
<rscale>  0 0.60401652E+04</rscale>
<asrwt>0</asrwt>
<pdfrwt beam="1">  1        2 0.72826072E+00 0.60401652E+04</pdfrwt>
<pdfrwt beam="2">  1       -2 0.29643129E+00 0.60401652E+04</pdfrwt>
<totfact> 0.12317739E-03</totfact>
</mgrwt>
<rwgt>
<wgt id='morphing_basis_vector_1'> +2.0736458e-06 </wgt>
<wgt id='morphing_basis_vector_2'> +2.4321197e-06 </wgt>
<wgt id='morphing_basis_vector_3'> +2.5285692e-06 </wgt>
<wgt id='morphing_basis_vector_4'> +3.2588516e-07 </wgt>
<wgt id='morphing_basis_vector_5'> +1.9841933e-06 </wgt>
</rwgt>
</event>
<event>
 4      1 +9.0096000e-12 5.79698000e+03 7.81860800e-03 7.28457200e-02
        2 -1    0    0  501    0 +0.0000000000e+00 +0.0000000000e+00 +2.3617827676e+03 2.3617827676e+03 0.0000000000e+00 0.0000e+00 1.0000e+00
       -2 -1    0    0    0  501 -0.0000000000e+00 -0.0000000000e+00 -3.5571627659e+03 3.5571627659e+03 0.0000000000e+00 0.0000e+00 -1.0000e+00
      -13  1    1    2    0    0 +1.8567846231e+03 +1.5649270686e+03 -2.2135795772e+03 3.2858150299e+03 0.0000000000e+00 0.0000e+00 -1.0000e+00
       13  1    1    2    0    0 -1.8567846231e+03 -1.5649270686e+03 +1.0181995789e+03 2.6331305036e+03 0.0000000000e+00 0.0000e+00 1.0000e+00
<mgrwt>
<rscale>  0 0.57969805E+04</rscale>
<asrwt>0</asrwt>
<pdfrwt beam="1">  1        2 0.36335120E+00 0.57969805E+04</pdfrwt>
<pdfrwt beam="2">  1       -2 0.54725581E+00 0.57969805E+04</pdfrwt>
<totfact> 0.16951145E-03</totfact>
</mgrwt>
<rwgt>
<wgt id='morphing_basis_vector_1'> +1.3800862e-06 </wgt>
<wgt id='morphing_basis_vector_2'> +9.4892298e-07 </wgt>
<wgt id='morphing_basis_vector_3'> +1.5251017e-06 </wgt>
<wgt id='morphing_basis_vector_4'> +1.0885784e-06 </wgt>
<wgt id='morphing_basis_vector_5'> +1.7511300e-06 </wgt>
</rwgt>
</event>
<event>
 4      1 +9.0096000e-12 5.61737500e+03 7.81860800e-03 7.30560500e-02
        2 -1    0    0  501    0 +0.0000000000e+00 +0.0000000000e+00 +3.9506130868e+03 3.9506130868e+03 0.0000000000e+00 0.0000e+00 1.0000e+00
       -2 -1    0    0    0  501 -0.0000000000e+00 -0.0000000000e+00 -1.9968355379e+03 1.9968355379e+03 0.0000000000e+00 0.0000e+00 -1.0000e+00
      -13  1    1    2    0    0 +1.5684218495e+03 -2.7587843727e+02 -1.4726396515e+03 2.1690374717e+03 0.0000000000e+00 0.0000e+00 -1.0000e+00
       13  1    1    2    0    0 -1.5684218495e+03 +2.7587843727e+02 +3.4264172004e+03 3.7784111531e+03 0.0000000000e+00 0.0000e+00 1.0000e+00
<mgrwt>
<rscale>  0 0.56173747E+04</rscale>
<asrwt>0</asrwt>
<pdfrwt beam="1">  1        2 0.60778663E+00 0.56173747E+04</pdfrwt>
<pdfrwt beam="2">  1       -2 0.30720547E+00 0.56173747E+04</pdfrwt>
<totfact> 0.62847398E-03</totfact>
</mgrwt>
<rwgt>
<wgt id='morphing_basis_vector_1'> +1.2134514e-06 </wgt>
<wgt id='morphing_basis_vector_2'> +8.2570806e-07 </wgt>
<wgt id='morphing_basis_vector_3'> +1.3385744e-06 </wgt>
<wgt id='morphing_basis_vector_4'> +9.6758411e-07 </wgt>
<wgt id='morphing_basis_vector_5'> +1.5441951e-06 </wgt>
</rwgt>
</event>
<event>
 4      1 +9.0096000e-12 5.61557000e+03 7.81860800e-03 7.30582100e-02
        2 -1    0    0  501    0 +0.0000000000e+00 +0.0000000000e+00 +2.6131993805e+03 2.6131993805e+03 0.0000000000e+00 0.0000e+00 1.0000e+00
       -2 -1    0    0    0  501 -0.0000000000e+00 -0.0000000000e+00 -3.0168594592e+03 3.0168594592e+03 0.0000000000e+00 0.0000e+00 -1.0000e+00
      -13  1    1    2    0    0 +7.8884070649e+02 -5.9235216795e+02 -2.8373966862e+03 3.0039924610e+03 0.0000000000e+00 0.0000e+00 -1.0000e+00
       13  1    1    2    0    0 -7.8884070649e+02 +5.9235216795e+02 +2.4337366075e+03 2.6260663788e+03 0.0000000000e+00 0.0000e+00 1.0000e+00
<mgrwt>
<rscale>  0 0.56155695E+04</rscale>
<asrwt>0</asrwt>
<pdfrwt beam="1">  1        2 0.40203067E+00 0.56155695E+04</pdfrwt>
<pdfrwt beam="2">  1       -2 0.46413223E+00 0.56155695E+04</pdfrwt>
<totfact> 0.49973534E-03</totfact>
</mgrwt>
<rwgt>
<wgt id='morphing_basis_vector_1'> +1.2114879e-06 </wgt>
<wgt id='morphing_basis_vector_2'> +8.2344920e-07 </wgt>
<wgt id='morphing_basis_vector_3'> +1.3361893e-06 </wgt>
<wgt id='morphing_basis_vector_4'> +9.6721053e-07 </wgt>
<wgt id='morphing_basis_vector_5'> +1.5422795e-06 </wgt>
</rwgt>
</event>
<event>
 4      1 +9.0096000e-12 5.72392200e+03 7.81860800e-03 7.29303300e-02
        2 -1    0    0  501    0 +0.0000000000e+00 +0.0000000000e+00 +2.3752782087e+03 2.3752782087e+03 0.0000000000e+00 0.0000e+00 1.0000e+00
       -2 -1    0    0    0  501 -0.0000000000e+00 -0.0000000000e+00 -3.4483628452e+03 3.4483628452e+03 0.0000000000e+00 0.0000e+00 -1.0000e+00
      -13  1    1    2    0    0 +2.7327647314e+02 -1.7892424296e+03 -2.7920884497e+03 3.3274354109e+03 0.0000000000e+00 0.0000e+00 -1.0000e+00
       13  1    1    2    0    0 -2.7327647314e+02 +1.7892424296e+03 +1.7190038131e+03 2.4962056430e+03 0.0000000000e+00 0.0000e+00 1.0000e+00
<mgrwt>
<rscale>  0 0.57239221E+04</rscale>
<asrwt>0</asrwt>
<pdfrwt beam="1">  1        2 0.36542742E+00 0.57239221E+04</pdfrwt>
<pdfrwt beam="2">  1       -2 0.53051736E+00 0.57239221E+04</pdfrwt>
<totfact> 0.22105676E-03</totfact>
</mgrwt>
<rwgt>
<wgt id='morphing_basis_vector_1'> +1.3082787e-06 </wgt>
<wgt id='morphing_basis_vector_2'> +8.9115404e-07 </wgt>
<wgt id='morphing_basis_vector_3'> +1.4436298e-06 </wgt>
<wgt id='morphing_basis_vector_4'> +1.0425256e-06 </wgt>
<wgt id='morphing_basis_vector_5'> +1.6649721e-06 </wgt>
</rwgt>
</event>
<event>
 4      1 +9.0096000e-12 5.64569600e+03 7.81860800e-03 7.30223600e-02
        2 -1    0    0  501    0 +0.0000000000e+00 +0.0000000000e+00 +4.6152114224e+03 4.6152114224e+03 0.0000000000e+00 0.0000e+00 1.0000e+00
       -2 -1    0    0    0  501 -0.0000000000e+00 -0.0000000000e+00 -1.7265666078e+03 1.7265666078e+03 0.0000000000e+00 0.0000e+00 -1.0000e+00
      -13  1    1    2    0    0 -7.1590274102e+02 +2.2407448615e+03 -3.0852637713e+02 2.3724760893e+03 0.0000000000e+00 0.0000e+00 -1.0000e+00
       13  1    1    2    0    0 +7.1590274102e+02 -2.2407448615e+03 +3.1971711917e+03 3.9693019409e+03 0.0000000000e+00 0.0000e+00 1.0000e+00
<mgrwt>
<rscale>  0 0.56456957E+04</rscale>
<asrwt>0</asrwt>
<pdfrwt beam="1">  1        2 0.71003252E+00 0.56456957E+04</pdfrwt>
<pdfrwt beam="2">  1       -2 0.26562563E+00 0.56456957E+04</pdfrwt>
<totfact> 0.27929712E-03</totfact>
</mgrwt>
<rwgt>
<wgt id='morphing_basis_vector_1'> +1.2417293e-06 </wgt>
<wgt id='morphing_basis_vector_2'> +8.5328837e-07 </wgt>
<wgt id='morphing_basis_vector_3'> +1.3717763e-06 </wgt>
<wgt id='morphing_basis_vector_4'> +9.7941892e-07 </wgt>
<wgt id='morphing_basis_vector_5'> +1.5749902e-06 </wgt>
</rwgt>
</event>
<event>
 4      1 +9.0096000e-12 5.77587400e+03 7.81860800e-03 7.28700300e-02
        2 -1    0    0  501    0 +0.0000000000e+00 +0.0000000000e+00 +3.3567367752e+03 3.3567367752e+03 0.0000000000e+00 0.0000e+00 -1.0000e+00
       -2 -1    0    0    0  501 -0.0000000000e+00 -0.0000000000e+00 -2.4846099104e+03 2.4846099104e+03 0.0000000000e+00 0.0000e+00 1.0000e+00
      -13  1    1    2    0    0 -1.4910776909e+03 -3.0888834207e+02 -2.0456179542e+03 2.5501524470e+03 0.0000000000e+00 0.0000e+00 1.0000e+00
       13  1    1    2    0    0 +1.4910776909e+03 +3.0888834207e+02 +2.9177448190e+03 3.2911942387e+03 0.0000000000e+00 0.0000e+00 -1.0000e+00
<mgrwt>
<rscale>  0 0.57758745E+04</rscale>
<asrwt>0</asrwt>
<pdfrwt beam="1">  1        2 0.51642104E+00 0.57758745E+04</pdfrwt>
<pdfrwt beam="2">  1       -2 0.38224768E+00 0.57758745E+04</pdfrwt>
<totfact> 0.57429261E-03</totfact>
</mgrwt>
<rwgt>
<wgt id='morphing_basis_vector_1'> +1.3557785e-06 </wgt>
<wgt id='morphing_basis_vector_2'> +9.2237273e-07 </wgt>
<wgt id='morphing_basis_vector_3'> +1.4958920e-06 </wgt>
<wgt id='morphing_basis_vector_4'> +1.0821103e-06 </wgt>
<wgt id='morphing_basis_vector_5'> +1.7264916e-06 </wgt>
</rwgt>
</event>
<event>
 4      1 +9.0096000e-12 5.65992700e+03 7.81860800e-03 7.30055000e-02
        2 -1    0    0  501    0 +0.0000000000e+00 +0.0000000000e+00 +3.8321895510e+03 3.8321895510e+03 0.0000000000e+00 0.0000e+00 1.0000e+00
       -2 -1    0    0    0  501 -0.0000000000e+00 -0.0000000000e+00 -2.0898476831e+03 2.0898476831e+03 0.0000000000e+00 0.0000e+00 -1.0000e+00
      -13  1    1    2    0    0 -1.3264459057e+03 -1.0138986842e+03 -1.5196513216e+03 2.2576070122e+03 0.0000000000e+00 0.0000e+00 -1.0000e+00
       13  1    1    2    0    0 +1.3264459057e+03 +1.0138986842e+03 +3.2619931894e+03 3.6644302218e+03 0.0000000000e+00 0.0000e+00 1.0000e+00
<mgrwt>
<rscale>  0 0.56599267E+04</rscale>
<asrwt>0</asrwt>
<pdfrwt beam="1">  1        2 0.58956762E+00 0.56599267E+04</pdfrwt>
<pdfrwt beam="2">  1       -2 0.32151503E+00 0.56599267E+04</pdfrwt>
<totfact> 0.62930161E-03</totfact>
</mgrwt>
<rwgt>
<wgt id='morphing_basis_vector_1'> +1.2506439e-06 </wgt>
<wgt id='morphing_basis_vector_2'> +8.5128744e-07 </wgt>
<wgt id='morphing_basis_vector_3'> +1.3797567e-06 </wgt>
<wgt id='morphing_basis_vector_4'> +9.9709151e-07 </wgt>
<wgt id='morphing_basis_vector_5'> +1.5916203e-06 </wgt>
</rwgt>
</event>
<event>
 4      1 +9.0096000e-12 5.55212300e+03 7.81860800e-03 7.31344600e-02
        2 -1    0    0  501    0 +0.0000000000e+00 +0.0000000000e+00 +2.4361064228e+03 2.4361064228e+03 0.0000000000e+00 0.0000e+00 -1.0000e+00
       -2 -1    0    0    0  501 -0.0000000000e+00 -0.0000000000e+00 -3.1634568252e+03 3.1634568252e+03 0.0000000000e+00 0.0000e+00 1.0000e+00
      -13  1    1    2    0    0 +1.4609308718e+02 +2.4302086855e+03 -1.7089617126e+03 2.9745264464e+03 0.0000000000e+00 0.0000e+00 1.0000e+00
       13  1    1    2    0    0 -1.4609308718e+02 -2.4302086855e+03 +9.8161131029e+02 2.6250368016e+03 0.0000000000e+00 0.0000e+00 -1.0000e+00
<mgrwt>
<rscale>  0 0.55521230E+04</rscale>
<asrwt>0</asrwt>
<pdfrwt beam="1">  1        2 0.37478560E+00 0.55521230E+04</pdfrwt>
<pdfrwt beam="2">  1       -2 0.48668566E+00 0.55521230E+04</pdfrwt>
<totfact> 0.43791690E-03</totfact>
</mgrwt>
<rwgt>
<wgt id='morphing_basis_vector_1'> +1.1634936e-06 </wgt>
<wgt id='morphing_basis_vector_2'> +8.0362311e-07 </wgt>
<wgt id='morphing_basis_vector_3'> +1.2861091e-06 </wgt>
<wgt id='morphing_basis_vector_4'> +9.1196140e-07 </wgt>
<wgt id='morphing_basis_vector_5'> +1.4725587e-06 </wgt>
</rwgt>
</event>
<event>
 4      1 +9.0096000e-12 5.71966900e+03 7.81860800e-03 7.29352900e-02
        2 -1    0    0  501    0 +0.0000000000e+00 +0.0000000000e+00 +4.2330490734e+03 4.2330490734e+03 0.0000000000e+00 0.0000e+00 1.0000e+00
       -2 -1    0    0    0  501 -0.0000000000e+00 -0.0000000000e+00 -1.9320951533e+03 1.9320951533e+03 0.0000000000e+00 0.0000e+00 -1.0000e+00
      -13  1    1    2    0    0 +1.9253470503e+03 -1.0141023290e+03 +3.1506108250e+03 3.8290616825e+03 0.0000000000e+00 0.0000e+00 1.0000e+00
       13  1    1    2    0    0 -1.9253470503e+03 +1.0141023290e+03 -8.4965690489e+02 2.3360825443e+03 0.0000000000e+00 0.0000e+00 -1.0000e+00
<mgrwt>
<rscale>  0 0.57196691E+04</rscale>
<asrwt>0</asrwt>
<pdfrwt beam="1">  1        2 0.65123832E+00 0.57196691E+04</pdfrwt>
<pdfrwt beam="2">  1       -2 0.29724541E+00 0.57196691E+04</pdfrwt>
<totfact> 0.41001672E-03</totfact>
</mgrwt>
<rwgt>
<wgt id='morphing_basis_vector_1'> +1.6461612e-06 </wgt>
<wgt id='morphing_basis_vector_2'> +1.8917461e-06 </wgt>
<wgt id='morphing_basis_vector_3'> +1.9965969e-06 </wgt>
<wgt id='morphing_basis_vector_4'> +3.0901805e-07 </wgt>
<wgt id='morphing_basis_vector_5'> +1.5986278e-06 </wgt>
</rwgt>
</event>
<event>
 4      1 +9.0096000e-12 5.57027400e+03 7.81860800e-03 7.31125400e-02
        2 -1    0    0  501    0 +0.0000000000e+00 +0.0000000000e+00 +3.9877394836e+03 3.9877394836e+03 0.0000000000e+00 0.0000e+00 -1.0000e+00
       -2 -1    0    0    0  501 -0.0000000000e+00 -0.0000000000e+00 -1.9452091293e+03 1.9452091293e+03 0.0000000000e+00 0.0000e+00 1.0000e+00
      -13  1    1    2    0    0 +2.2498137870e+03 +5.3154906383e+01 -7.2645494501e+02 2.3647884276e+03 0.0000000000e+00 0.0000e+00 1.0000e+00
       13  1    1    2    0    0 -2.2498137870e+03 -5.3154906383e+01 +2.7689852992e+03 3.5681601853e+03 0.0000000000e+00 0.0000e+00 -1.0000e+00
<mgrwt>
<rscale>  0 0.55702737E+04</rscale>
<asrwt>0</asrwt>
<pdfrwt beam="1">  1        2 0.61349838E+00 0.55702737E+04</pdfrwt>
<pdfrwt beam="2">  1       -2 0.29926294E+00 0.55702737E+04</pdfrwt>
<totfact> 0.66349189E-03</totfact>
</mgrwt>
<rwgt>
<wgt id='morphing_basis_vector_1'> +1.1760990e-06 </wgt>
<wgt id='morphing_basis_vector_2'> +8.0641261e-07 </wgt>
<wgt id='morphing_basis_vector_3'> +1.2987013e-06 </wgt>
<wgt id='morphing_basis_vector_4'> +9.2962119e-07 </wgt>
<wgt id='morphing_basis_vector_5'> +1.4924335e-06 </wgt>
</rwgt>
</event>
<event>
 4      1 +9.0096000e-12 6.15154000e+03 7.81860800e-03 7.24524200e-02
        2 -1    0    0  501    0 +0.0000000000e+00 +0.0000000000e+00 +3.7498916810e+03 3.7498916810e+03 0.0000000000e+00 0.0000e+00 1.0000e+00
       -2 -1    0    0    0  501 -0.0000000000e+00 -0.0000000000e+00 -2.5228355149e+03 2.5228355149e+03 0.0000000000e+00 0.0000e+00 -1.0000e+00
      -13  1    1    2    0    0 +2.5919060315e+03 +4.7758980367e+02 -1.0033614388e+03 2.8200714661e+03 0.0000000000e+00 0.0000e+00 -1.0000e+00
       13  1    1    2    0    0 -2.5919060315e+03 -4.7758980367e+02 +2.2304176049e+03 3.4526557299e+03 0.0000000000e+00 0.0000e+00 1.0000e+00
<mgrwt>
<rscale>  0 0.61515396E+04</rscale>
<asrwt>0</asrwt>
<pdfrwt beam="1">  1        2 0.57690641E+00 0.61515396E+04</pdfrwt>
<pdfrwt beam="2">  1       -2 0.38812854E+00 0.61515396E+04</pdfrwt>
<totfact> 0.26054865E-03</totfact>
</mgrwt>
<rwgt>
<wgt id='morphing_basis_vector_1'> +1.7501398e-06 </wgt>
<wgt id='morphing_basis_vector_2'> +1.2062624e-06 </wgt>
<wgt id='morphing_basis_vector_3'> +1.9356299e-06 </wgt>
<wgt id='morphing_basis_vector_4'> +1.3786728e-06 </wgt>
<wgt id='morphing_basis_vector_5'> +2.2214478e-06 </wgt>
</rwgt>
</event>
<event>
 4      1 +9.0096000e-12 5.78676200e+03 7.81860800e-03 7.28574800e-02
        2 -1    0    0  501    0 +0.0000000000e+00 +0.0000000000e+00 +3.3378109829e+03 3.3378109829e+03 0.0000000000e+00 0.0000e+00 1.0000e+00
       -2 -1    0    0    0  501 -0.0000000000e+00 -0.0000000000e+00 -2.5081268374e+03 2.5081268374e+03 0.0000000000e+00 0.0000e+00 -1.0000e+00
      -13  1    1    2    0    0 +2.4753720377e+02 -2.8100504807e+03 +1.0648461663e+03 3.0152206767e+03 0.0000000000e+00 0.0000e+00 -1.0000e+00
       13  1    1    2    0    0 -2.4753720377e+02 +2.8100504807e+03 -2.3516202072e+02 2.8307171436e+03 0.0000000000e+00 0.0000e+00 1.0000e+00
<mgrwt>
<rscale>  0 0.57867619E+04</rscale>
<asrwt>0</asrwt>
<pdfrwt beam="1">  1        2 0.51350938E+00 0.57867619E+04</pdfrwt>
<pdfrwt beam="2">  1       -2 0.38586567E+00 0.57867619E+04</pdfrwt>
<totfact> 0.56065416E-03</totfact>
</mgrwt>
<rwgt>
<wgt id='morphing_basis_vector_1'> +1.4740570e-06 </wgt>
<wgt id='morphing_basis_vector_2'> +1.2465213e-06 </wgt>
<wgt id='morphing_basis_vector_3'> +1.6834485e-06 </wgt>
<wgt id='morphing_basis_vector_4'> +8.5932845e-07 </wgt>
<wgt id='morphing_basis_vector_5'> +1.7201597e-06 </wgt>
</rwgt>
</event>
<event>
 4      1 +9.0096000e-12 5.95364200e+03 7.81860800e-03 7.26685100e-02
        2 -1    0    0  501    0 +0.0000000000e+00 +0.0000000000e+00 +2.7138828538e+03 2.7138828538e+03 0.0000000000e+00 0.0000e+00 -1.0000e+00
       -2 -1    0    0    0  501 -0.0000000000e+00 -0.0000000000e+00 -3.2652344109e+03 3.2652344109e+03 0.0000000000e+00 0.0000e+00 1.0000e+00
      -13  1    1    2    0    0 -1.8577407857e+03 -1.5643200893e+02 -2.6063368811e+03 3.2044755793e+03 0.0000000000e+00 0.0000e+00 1.0000e+00
       13  1    1    2    0    0 +1.8577407857e+03 +1.5643200893e+02 +2.0549853240e+03 2.7746416854e+03 0.0000000000e+00 0.0000e+00 -1.0000e+00
<mgrwt>
<rscale>  0 0.59536421E+04</rscale>
<asrwt>0</asrwt>
<pdfrwt beam="1">  1        2 0.41752044E+00 0.59536421E+04</pdfrwt>
<pdfrwt beam="2">  1       -2 0.50234376E+00 0.59536421E+04</pdfrwt>
<totfact> 0.22037358E-03</totfact>
</mgrwt>
<rwgt>
<wgt id='morphing_basis_vector_1'> +1.5306551e-06 </wgt>
<wgt id='morphing_basis_vector_2'> +1.0427582e-06 </wgt>
<wgt id='morphing_basis_vector_3'> +1.6895874e-06 </wgt>
<wgt id='morphing_basis_vector_4'> +1.2207751e-06 </wgt>
<wgt id='morphing_basis_vector_5'> +1.9495029e-06 </wgt>
</rwgt>
</event>
<event>
 4      1 +9.0096000e-12 6.11346500e+03 7.81860800e-03 7.24933500e-02
        2 -1    0    0  501    0 +0.0000000000e+00 +0.0000000000e+00 +2.7017892003e+03 2.7017892003e+03 0.0000000000e+00 0.0000e+00 1.0000e+00
       -2 -1    0    0    0  501 -0.0000000000e+00 -0.0000000000e+00 -3.4583057517e+03 3.4583057517e+03 0.0000000000e+00 0.0000e+00 -1.0000e+00
      -13  1    1    2    0    0 -1.6306880612e+03 +1.1467719491e+03 -2.7131255905e+03 3.3667907458e+03 0.0000000000e+00 0.0000e+00 -1.0000e+00
       13  1    1    2    0    0 +1.6306880612e+03 -1.1467719491e+03 +1.9566090391e+03 2.7933042062e+03 0.0000000000e+00 0.0000e+00 1.0000e+00
<mgrwt>
<rscale>  0 0.61134649E+04</rscale>
<asrwt>0</asrwt>
<pdfrwt beam="1">  1        2 0.41565988E+00 0.61134649E+04</pdfrwt>
<pdfrwt beam="2">  1       -2 0.53204704E+00 0.61134649E+04</pdfrwt>
<totfact> 0.13325367E-03</totfact>
</mgrwt>
<rwgt>
<wgt id='morphing_basis_vector_1'> +1.7015932e-06 </wgt>
<wgt id='morphing_basis_vector_2'> +1.1599401e-06 </wgt>
<wgt id='morphing_basis_vector_3'> +1.8788276e-06 </wgt>
<wgt id='morphing_basis_vector_4'> +1.3570057e-06 </wgt>
<wgt id='morphing_basis_vector_5'> +2.1678729e-06 </wgt>
</rwgt>
</event>
<event>
 4      1 +9.0096000e-12 5.98902200e+03 7.81860800e-03 7.26292500e-02
        2 -1    0    0  501    0 +0.0000000000e+00 +0.0000000000e+00 +2.6722140701e+03 2.6722140701e+03 0.0000000000e+00 0.0000e+00 1.0000e+00
       -2 -1    0    0    0  501 -0.0000000000e+00 -0.0000000000e+00 -3.3556806626e+03 3.3556806626e+03 0.0000000000e+00 0.0000e+00 -1.0000e+00
      -13  1    1    2    0    0 -4.9996610892e+02 +9.1488801117e+02 -3.1671069604e+03 3.3342994289e+03 0.0000000000e+00 0.0000e+00 -1.0000e+00
       13  1    1    2    0    0 +4.9996610892e+02 -9.1488801117e+02 +2.4836403680e+03 2.6935953038e+03 0.0000000000e+00 0.0000e+00 1.0000e+00
<mgrwt>
<rscale>  0 0.59890223E+04</rscale>
<asrwt>0</asrwt>
<pdfrwt beam="1">  1        2 0.41110986E+00 0.59890223E+04</pdfrwt>
<pdfrwt beam="2">  1       -2 0.51625856E+00 0.59890223E+04</pdfrwt>
<totfact> 0.18344744E-03</totfact>
</mgrwt>
<rwgt>
<wgt id='morphing_basis_vector_1'> +1.5663657e-06 </wgt>
<wgt id='morphing_basis_vector_2'> +1.0650622e-06 </wgt>
<wgt id='morphing_basis_vector_3'> +1.7286112e-06 </wgt>
<wgt id='morphing_basis_vector_4'> +1.2520719e-06 </wgt>
<wgt id='morphing_basis_vector_5'> +1.9965276e-06 </wgt>
</rwgt>
</event>
<event>
 4      1 +9.0096000e-12 5.96742000e+03 7.81860800e-03 7.26531900e-02
        2 -1    0    0  501    0 +0.0000000000e+00 +0.0000000000e+00 +2.6818526234e+03 2.6818526234e+03 0.0000000000e+00 0.0000e+00 -1.0000e+00
       -2 -1    0    0    0  501 -0.0000000000e+00 -0.0000000000e+00 -3.3195430839e+03 3.3195430839e+03 0.0000000000e+00 0.0000e+00 1.0000e+00
      -13  1    1    2    0    0 -7.2769573469e+02 +1.4581452887e+03 -2.8324346520e+03 3.2677843905e+03 0.0000000000e+00 0.0000e+00 1.0000e+00
       13  1    1    2    0    0 +7.2769573469e+02 -1.4581452887e+03 +2.1947441915e+03 2.7336113168e+03 0.0000000000e+00 0.0000e+00 -1.0000e+00
<mgrwt>
<rscale>  0 0.59674200E+04</rscale>
<asrwt>0</asrwt>
<pdfrwt beam="1">  1        2 0.41259271E+00 0.59674200E+04</pdfrwt>
<pdfrwt beam="2">  1       -2 0.51069893E+00 0.59674200E+04</pdfrwt>
<totfact> 0.19947127E-03</totfact>
</mgrwt>
<rwgt>
<wgt id='morphing_basis_vector_1'> +1.5443658e-06 </wgt>
<wgt id='morphing_basis_vector_2'> +1.0510432e-06 </wgt>
<wgt id='morphing_basis_vector_3'> +1.7045051e-06 </wgt>
<wgt id='morphing_basis_vector_4'> +1.2331542e-06 </wgt>
<wgt id='morphing_basis_vector_5'> +1.9677376e-06 </wgt>
</rwgt>
</event>
<event>
 4      1 +9.0096000e-12 6.01949100e+03 7.81860800e-03 7.25956700e-02
        2 -1    0    0  501    0 +0.0000000000e+00 +0.0000000000e+00 +3.1828376887e+03 3.1828376887e+03 0.0000000000e+00 0.0000e+00 -1.0000e+00
       -2 -1    0    0    0  501 -0.0000000000e+00 -0.0000000000e+00 -2.8460667613e+03 2.8460667613e+03 0.0000000000e+00 0.0000e+00 1.0000e+00
      -13  1    1    2    0    0 -3.6143222704e+02 +2.9815719318e+03 +3.6404733603e+02 3.0253817779e+03 0.0000000000e+00 0.0000e+00 1.0000e+00
       13  1    1    2    0    0 +3.6143222704e+02 -2.9815719318e+03 -2.7276408710e+01 3.0035226721e+03 0.0000000000e+00 0.0000e+00 -1.0000e+00
<mgrwt>
<rscale>  0 0.60194912E+04</rscale>
<asrwt>0</asrwt>
<pdfrwt beam="1">  1        2 0.48966734E+00 0.60194912E+04</pdfrwt>
<pdfrwt beam="2">  1       -2 0.43785643E+00 0.60194912E+04</pdfrwt>
<totfact> 0.31959336E-03</totfact>
</mgrwt>
<rwgt>
<wgt id='morphing_basis_vector_1'> +1.6724877e-06 </wgt>
<wgt id='morphing_basis_vector_2'> +1.3043093e-06 </wgt>
<wgt id='morphing_basis_vector_3'> +1.8850185e-06 </wgt>
<wgt id='morphing_basis_vector_4'> +1.1193327e-06 </wgt>
<wgt id='morphing_basis_vector_5'> +2.0242287e-06 </wgt>
</rwgt>
</event>
<event>
 4      1 +9.0096000e-12 5.78175900e+03 7.81860800e-03 7.28632500e-02
        2 -1    0    0  501    0 +0.0000000000e+00 +0.0000000000e+00 +3.8698211995e+03 3.8698211995e+03 0.0000000000e+00 0.0000e+00 -1.0000e+00
       -2 -1    0    0    0  501 -0.0000000000e+00 -0.0000000000e+00 -2.1595787325e+03 2.1595787325e+03 0.0000000000e+00 0.0000e+00 1.0000e+00
      -13  1    1    2    0    0 +1.4058061050e+03 -1.0919053830e+03 -1.5203003715e+03 2.3409103763e+03 0.0000000000e+00 0.0000e+00 1.0000e+00
       13  1    1    2    0    0 -1.4058061050e+03 +1.0919053830e+03 +3.2305428385e+03 3.6884895556e+03 0.0000000000e+00 0.0000e+00 -1.0000e+00
<mgrwt>
<rscale>  0 0.57817588E+04</rscale>
<asrwt>0</asrwt>
<pdfrwt beam="1">  1        2 0.59535711E+00 0.57817588E+04</pdfrwt>
<pdfrwt beam="2">  1       -2 0.33224288E+00 0.57817588E+04</pdfrwt>
<totfact> 0.49371200E-03</totfact>
</mgrwt>
<rwgt>
<wgt id='morphing_basis_vector_1'> +1.3617124e-06 </wgt>
<wgt id='morphing_basis_vector_2'> +9.2734952e-07 </wgt>
<wgt id='morphing_basis_vector_3'> +1.5026718e-06 </wgt>
<wgt id='morphing_basis_vector_4'> +1.0856515e-06 </wgt>
<wgt id='morphing_basis_vector_5'> +1.7334803e-06 </wgt>
</rwgt>
</event>
<event>
 4      1 +9.0096000e-12 5.79478100e+03 7.81860800e-03 7.28482500e-02
        2 -1    0    0  501    0 +0.0000000000e+00 +0.0000000000e+00 +2.5232763297e+03 2.5232763297e+03 0.0000000000e+00 0.0000e+00 -1.0000e+00
       -2 -1    0    0    0  501 -0.0000000000e+00 -0.0000000000e+00 -3.3269728634e+03 3.3269728634e+03 0.0000000000e+00 0.0000e+00 1.0000e+00
      -13  1    1    2    0    0 +4.9437350209e+02 +1.1313790814e+03 -3.0480921364e+03 3.2886607392e+03 0.0000000000e+00 0.0000e+00 1.0000e+00
       13  1    1    2    0    0 -4.9437350209e+02 -1.1313790814e+03 +2.2443956028e+03 2.5615884539e+03 0.0000000000e+00 0.0000e+00 -1.0000e+00
<mgrwt>
<rscale>  0 0.57947811E+04</rscale>
<asrwt>0</asrwt>
<pdfrwt beam="1">  1        2 0.38819636E+00 0.57947811E+04</pdfrwt>
<pdfrwt beam="2">  1       -2 0.51184198E+00 0.57947811E+04</pdfrwt>
<totfact> 0.24721441E-03</totfact>
</mgrwt>
<rwgt>
<wgt id='morphing_basis_vector_1'> +1.3733438e-06 </wgt>
<wgt id='morphing_basis_vector_2'> +9.3382301e-07 </wgt>
<wgt id='morphing_basis_vector_3'> +1.5151968e-06 </wgt>
<wgt id='morphing_basis_vector_4'> +1.0968730e-06 </wgt>
<wgt id='morphing_basis_vector_5'> +1.7493041e-06 </wgt>
</rwgt>
</event>
<event>
 4      1 +9.0096000e-12 5.70491400e+03 7.81860800e-03 7.29525500e-02
        2 -1    0    0  501    0 +0.0000000000e+00 +0.0000000000e+00 +3.4646027016e+03 3.4646027016e+03 0.0000000000e+00 0.0000e+00 -1.0000e+00
       -2 -1    0    0    0  501 -0.0000000000e+00 -0.0000000000e+00 -2.3484690509e+03 2.3484690509e+03 0.0000000000e+00 0.0000e+00 1.0000e+00
      -13  1    1    2    0    0 +1.2707771185e+03 -2.6322433551e+02 -2.0302386379e+03 2.4095705972e+03 0.0000000000e+00 0.0000e+00 1.0000e+00
       13  1    1    2    0    0 -1.2707771185e+03 +2.6322433551e+02 +3.1463722886e+03 3.4035011553e+03 0.0000000000e+00 0.0000e+00 -1.0000e+00
<mgrwt>
<rscale>  0 0.57049144E+04</rscale>
<asrwt>0</asrwt>
<pdfrwt beam="1">  1        2 0.53301580E+00 0.57049144E+04</pdfrwt>
<pdfrwt beam="2">  1       -2 0.36130293E+00 0.57049144E+04</pdfrwt>
<totfact> 0.65915684E-03</totfact>
</mgrwt>
<rwgt>
<wgt id='morphing_basis_vector_1'> +1.2903582e-06 </wgt>
<wgt id='morphing_basis_vector_2'> +8.7741374e-07 </wgt>
<wgt id='morphing_basis_vector_3'> +1.4234564e-06 </wgt>
<wgt id='morphing_basis_vector_4'> +1.0301509e-06 </wgt>
<wgt id='morphing_basis_vector_5'> +1.6430339e-06 </wgt>
</rwgt>
</event>
<event>
 4      1 +9.0096000e-12 5.97742600e+03 7.81860800e-03 7.26420900e-02
        2 -1    0    0  501    0 +0.0000000000e+00 +0.0000000000e+00 +3.7782544080e+03 3.7782544080e+03 0.0000000000e+00 0.0000e+00 1.0000e+00
       -2 -1    0    0    0  501 -0.0000000000e+00 -0.0000000000e+00 -2.3641622251e+03 2.3641622251e+03 0.0000000000e+00 0.0000e+00 -1.0000e+00
      -13  1    1    2    0    0 +1.6333271658e+03 -2.0602764936e+02 -1.8562399283e+03 2.4810948580e+03 0.0000000000e+00 0.0000e+00 -1.0000e+00
       13  1    1    2    0    0 -1.6333271658e+03 +2.0602764936e+02 +3.2703321112e+03 3.6613217750e+03 0.0000000000e+00 0.0000e+00 1.0000e+00
<mgrwt>
<rscale>  0 0.59774263E+04</rscale>
<asrwt>0</asrwt>
<pdfrwt beam="1">  1        2 0.58126991E+00 0.59774263E+04</pdfrwt>
<pdfrwt beam="2">  1       -2 0.36371727E+00 0.59774263E+04</pdfrwt>
<totfact> 0.36011759E-03</totfact>
</mgrwt>
<rwgt>
<wgt id='morphing_basis_vector_1'> +1.5547469e-06 </wgt>
<wgt id='morphing_basis_vector_2'> +1.0581643e-06 </wgt>
<wgt id='morphing_basis_vector_3'> +1.7159983e-06 </wgt>
<wgt id='morphing_basis_vector_4'> +1.2414204e-06 </wgt>
<wgt id='morphing_basis_vector_5'> +1.9809948e-06 </wgt>
</rwgt>
</event>
<event>
 4      1 +9.0096000e-12 5.55047500e+03 7.81860800e-03 7.31364600e-02
        2 -1    0    0  501    0 +0.0000000000e+00 +0.0000000000e+00 +2.5982247423e+03 2.5982247423e+03 0.0000000000e+00 0.0000e+00 -1.0000e+00
       -2 -1    0    0    0  501 -0.0000000000e+00 -0.0000000000e+00 -2.9643093628e+03 2.9643093628e+03 0.0000000000e+00 0.0000e+00 1.0000e+00
      -13  1    1    2    0    0 +1.3680466252e+03 +5.3335952967e+02 -2.5431362630e+03 2.9365908821e+03 0.0000000000e+00 0.0000e+00 1.0000e+00
       13  1    1    2    0    0 -1.3680466252e+03 -5.3335952967e+02 +2.1770516425e+03 2.6259432231e+03 0.0000000000e+00 0.0000e+00 -1.0000e+00
<mgrwt>
<rscale>  0 0.55504745E+04</rscale>
<asrwt>0</asrwt>
<pdfrwt beam="1">  1        2 0.39972689E+00 0.55504745E+04</pdfrwt>
<pdfrwt beam="2">  1       -2 0.45604759E+00 0.55504745E+04</pdfrwt>
<totfact> 0.58566122E-03</totfact>
</mgrwt>
<rwgt>
<wgt id='morphing_basis_vector_1'> +1.1566914e-06 </wgt>
<wgt id='morphing_basis_vector_2'> +7.8674463e-07 </wgt>
<wgt id='morphing_basis_vector_3'> +1.2757457e-06 </wgt>
<wgt id='morphing_basis_vector_4'> +9.2246267e-07 </wgt>
<wgt id='morphing_basis_vector_5'> +1.4717795e-06 </wgt>
</rwgt>
</event>
<event>
 4      1 +9.0096000e-12 5.60044200e+03 7.81860800e-03 7.30763000e-02
        2 -1    0    0  501    0 +0.0000000000e+00 +0.0000000000e+00 +4.2472948152e+03 4.2472948152e+03 0.0000000000e+00 0.0000e+00 -1.0000e+00
       -2 -1    0    0    0  501 -0.0000000000e+00 -0.0000000000e+00 -1.8461724196e+03 1.8461724196e+03 0.0000000000e+00 0.0000e+00 1.0000e+00
      -13  1    1    2    0    0 +1.3626210747e+03 +2.0767740132e+03 -2.0612396763e+02 2.4924312598e+03 0.0000000000e+00 0.0000e+00 1.0000e+00
       13  1    1    2    0    0 -1.3626210747e+03 -2.0767740132e+03 +2.6072463632e+03 3.6010359750e+03 0.0000000000e+00 0.0000e+00 -1.0000e+00
<mgrwt>
<rscale>  0 0.56004423E+04</rscale>
<asrwt>0</asrwt>
<pdfrwt beam="1">  1        2 0.65342997E+00 0.56004423E+04</pdfrwt>
<pdfrwt beam="2">  1       -2 0.28402653E+00 0.56004423E+04</pdfrwt>
<totfact> 0.49310650E-03</totfact>
</mgrwt>
<rwgt>
<wgt id='morphing_basis_vector_1'> +1.2050128e-06 </wgt>
<wgt id='morphing_basis_vector_2'> +8.3368095e-07 </wgt>
<wgt id='morphing_basis_vector_3'> +1.3324314e-06 </wgt>
<wgt id='morphing_basis_vector_4'> +9.4293546e-07 </wgt>
<wgt id='morphing_basis_vector_5'> +1.5245214e-06 </wgt>
</rwgt>
</event>
<event>
 4      1 +9.0096000e-12 5.81127500e+03 7.81860800e-03 7.28293200e-02
        2 -1    0    0  501    0 +0.0000000000e+00 +0.0000000000e+00 +3.6368018156e+03 3.6368018156e+03 0.0000000000e+00 0.0000e+00 1.0000e+00
       -2 -1    0    0    0  501 -0.0000000000e+00 -0.0000000000e+00 -2.3214707504e+03 2.3214707504e+03 0.0000000000e+00 0.0000e+00 -1.0000e+00
      -13  1    1    2    0    0 +2.7624822860e+03 -1.7688552515e+02 +1.5632584951e+03 3.1790523732e+03 0.0000000000e+00 0.0000e+00 -1.0000e+00
       13  1    1    2    0    0 -2.7624822860e+03 +1.7688552515e+02 -2.4792742987e+02 2.7792201928e+03 0.0000000000e+00 0.0000e+00 1.0000e+00
<mgrwt>
<rscale>  0 0.58112749E+04</rscale>
<asrwt>0</asrwt>
<pdfrwt beam="1">  1        2 0.55950797E+00 0.58112749E+04</pdfrwt>
<pdfrwt beam="2">  1       -2 0.35714935E+00 0.58112749E+04</pdfrwt>
<totfact> 0.51773531E-03</totfact>
</mgrwt>
<rwgt>
<wgt id='morphing_basis_vector_1'> +1.5325641e-06 </wgt>
<wgt id='morphing_basis_vector_2'> +1.3658854e-06 </wgt>
<wgt id='morphing_basis_vector_3'> +1.7667069e-06 </wgt>
<wgt id='morphing_basis_vector_4'> +8.0253973e-07 </wgt>
<wgt id='morphing_basis_vector_5'> +1.7435515e-06 </wgt>
</rwgt>
</event>
<event>
 4      1 +9.0096000e-12 5.55595900e+03 7.81860800e-03 7.31298200e-02
        2 -1    0    0  501    0 +0.0000000000e+00 +0.0000000000e+00 +2.0075550363e+03 2.0075550363e+03 0.0000000000e+00 0.0000e+00 -1.0000e+00
       -2 -1    0    0    0  501 -0.0000000000e+00 -0.0000000000e+00 -3.8440637899e+03 3.8440637899e+03 0.0000000000e+00 0.0000e+00 1.0000e+00
      -13  1    1    2    0    0 -3.4470299130e+02 -1.2561785921e+03 +1.6659592618e+03 2.1147635966e+03 0.0000000000e+00 0.0000e+00 -1.0000e+00
       13  1    1    2    0    0 +3.4470299130e+02 +1.2561785921e+03 -3.5024680154e+03 3.7368552295e+03 0.0000000000e+00 0.0000e+00 1.0000e+00
<mgrwt>
<rscale>  0 0.55559588E+04</rscale>
<asrwt>0</asrwt>
<pdfrwt beam="1">  1        2 0.30885462E+00 0.55559588E+04</pdfrwt>
<pdfrwt beam="2">  1       -2 0.59139443E+00 0.55559588E+04</pdfrwt>
<totfact> 0.12877516E-03</totfact>
</mgrwt>
<rwgt>
<wgt id='morphing_basis_vector_1'> +1.5771646e-06 </wgt>
<wgt id='morphing_basis_vector_2'> +2.0108525e-06 </wgt>
<wgt id='morphing_basis_vector_3'> +1.9583289e-06 </wgt>
<wgt id='morphing_basis_vector_4'> +3.7769490e-08 </wgt>
<wgt id='morphing_basis_vector_5'> +1.4029927e-06 </wgt>
</rwgt>
</event>
<event>
 4      1 +9.0096000e-12 5.85149300e+03 7.81860800e-03 7.27834200e-02
        2 -1    0    0  501    0 +0.0000000000e+00 +0.0000000000e+00 +2.4389395201e+03 2.4389395201e+03 0.0000000000e+00 0.0000e+00 -1.0000e+00
       -2 -1    0    0    0  501 -0.0000000000e+00 -0.0000000000e+00 -3.5097189442e+03 3.5097189442e+03 0.0000000000e+00 0.0000e+00 1.0000e+00
      -13  1    1    2    0    0 -2.3342021096e+03 +1.1279403320e+03 -1.9140966211e+03 3.2225013198e+03 0.0000000000e+00 0.0000e+00 1.0000e+00
       13  1    1    2    0    0 +2.3342021096e+03 -1.1279403320e+03 +8.4331719702e+02 2.7261571444e+03 0.0000000000e+00 0.0000e+00 -1.0000e+00
<mgrwt>
<rscale>  0 0.58514929E+04</rscale>
<asrwt>0</asrwt>
<pdfrwt beam="1">  1        2 0.37522147E+00 0.58514929E+04</pdfrwt>
<pdfrwt beam="2">  1       -2 0.53995676E+00 0.58514929E+04</pdfrwt>
<totfact> 0.17164153E-03</totfact>
</mgrwt>
<rwgt>
<wgt id='morphing_basis_vector_1'> +1.4353456e-06 </wgt>
<wgt id='morphing_basis_vector_2'> +9.9313422e-07 </wgt>
<wgt id='morphing_basis_vector_3'> +1.5877471e-06 </wgt>
<wgt id='morphing_basis_vector_4'> +1.1243403e-06 </wgt>
<wgt id='morphing_basis_vector_5'> +1.8175984e-06 </wgt>
</rwgt>
</event>
<event>
 4      1 +9.0096000e-12 6.64046200e+03 7.81860800e-03 7.19521500e-02
        2 -1    0    0  501    0 +0.0000000000e+00 +0.0000000000e+00 +2.0026161978e+03 2.0026161978e+03 0.0000000000e+00 0.0000e+00 -1.0000e+00
       -2 -1    0    0    0  501 -0.0000000000e+00 -0.0000000000e+00 -5.5047668582e+03 5.5047668582e+03 0.0000000000e+00 0.0000e+00 1.0000e+00
      -13  1    1    2    0    0 -1.2384212182e+03 +1.0209809627e+03 -5.0370427103e+03 5.2865762555e+03 0.0000000000e+00 0.0000e+00 1.0000e+00
       13  1    1    2    0    0 +1.2384212182e+03 -1.0209809627e+03 +1.5348920500e+03 2.2208068005e+03 0.0000000000e+00 0.0000e+00 -1.0000e+00
<mgrwt>
<rscale>  0 0.66404624E+04</rscale>
<asrwt>0</asrwt>
<pdfrwt beam="1">  1        2 0.30809480E+00 0.66404624E+04</pdfrwt>
<pdfrwt beam="2">  1       -2 0.84688720E+00 0.66404624E+04</pdfrwt>
<totfact> 0.32761536E-04</totfact>
</mgrwt>
<rwgt>
<wgt id='morphing_basis_vector_1'> +2.3656520e-06 </wgt>
<wgt id='morphing_basis_vector_2'> +1.6101161e-06 </wgt>
<wgt id='morphing_basis_vector_3'> +2.6129504e-06 </wgt>
<wgt id='morphing_basis_vector_4'> +1.8931657e-06 </wgt>
<wgt id='morphing_basis_vector_5'> +3.0199117e-06 </wgt>
</rwgt>
</event>
<event>
 4      1 +9.0096000e-12 5.78784600e+03 7.81860800e-03 7.28562300e-02
        2 -1    0    0  501    0 +0.0000000000e+00 +0.0000000000e+00 +3.1680865371e+03 3.1680865371e+03 0.0000000000e+00 0.0000e+00 -1.0000e+00
       -2 -1    0    0    0  501 -0.0000000000e+00 -0.0000000000e+00 -2.6434850567e+03 2.6434850567e+03 0.0000000000e+00 0.0000e+00 1.0000e+00
      -13  1    1    2    0    0 +1.0660948489e+03 +1.0811292009e+02 -2.4369419757e+03 2.6621293777e+03 0.0000000000e+00 0.0000e+00 1.0000e+00
       13  1    1    2    0    0 -1.0660948489e+03 -1.0811292009e+02 +2.9615434561e+03 3.1494422162e+03 0.0000000000e+00 0.0000e+00 -1.0000e+00
<mgrwt>
<rscale>  0 0.57878457E+04</rscale>
<asrwt>0</asrwt>
<pdfrwt beam="1">  1        2 0.48739793E+00 0.57878457E+04</pdfrwt>
<pdfrwt beam="2">  1       -2 0.40669001E+00 0.57878457E+04</pdfrwt>
<totfact> 0.53697167E-03</totfact>
</mgrwt>
<rwgt>
<wgt id='morphing_basis_vector_1'> +1.3667329e-06 </wgt>
<wgt id='morphing_basis_vector_2'> +9.2917667e-07 </wgt>
<wgt id='morphing_basis_vector_3'> +1.5078527e-06 </wgt>
<wgt id='morphing_basis_vector_4'> +1.0917562e-06 </wgt>
<wgt id='morphing_basis_vector_5'> +1.7409364e-06 </wgt>
</rwgt>
</event>
<event>
 4      1 +9.0096000e-12 6.52651600e+03 7.81860800e-03 7.20647500e-02
        2 -1    0    0  501    0 +0.0000000000e+00 +0.0000000000e+00 +3.4395527519e+03 3.4395527519e+03 0.0000000000e+00 0.0000e+00 1.0000e+00
       -2 -1    0    0    0  501 -0.0000000000e+00 -0.0000000000e+00 -3.0959994529e+03 3.0959994529e+03 0.0000000000e+00 0.0000e+00 -1.0000e+00
      -13  1    1    2    0    0 -1.5247239201e+03 +2.4497633765e+03 -1.3543838676e+03 3.1875506732e+03 0.0000000000e+00 0.0000e+00 -1.0000e+00
       13  1    1    2    0    0 +1.5247239201e+03 -2.4497633765e+03 +1.6979371666e+03 3.3480015315e+03 0.0000000000e+00 0.0000e+00 1.0000e+00
<mgrwt>
<rscale>  0 0.65265162E+04</rscale>
<asrwt>0</asrwt>
<pdfrwt beam="1">  1        2 0.52916196E+00 0.65265162E+04</pdfrwt>
<pdfrwt beam="2">  1       -2 0.47630761E+00 0.65265162E+04</pdfrwt>
<totfact> 0.10874731E-03</totfact>
</mgrwt>
<rwgt>
<wgt id='morphing_basis_vector_1'> +2.2190432e-06 </wgt>
<wgt id='morphing_basis_vector_2'> +1.5357754e-06 </wgt>
<wgt id='morphing_basis_vector_3'> +2.4567479e-06 </wgt>
<wgt id='morphing_basis_vector_4'> +1.7420160e-06 </wgt>
<wgt id='morphing_basis_vector_5'> +2.8155045e-06 </wgt>
</rwgt>
</event>
<event>
 4      1 +9.0096000e-12 5.75747300e+03 7.81860800e-03 7.28913200e-02
        2 -1    0    0  501    0 +0.0000000000e+00 +0.0000000000e+00 +1.5127355063e+03 1.5127355063e+03 0.0000000000e+00 0.0000e+00 -1.0000e+00
       -2 -1    0    0    0  501 -0.0000000000e+00 -0.0000000000e+00 -5.4782377355e+03 5.4782377355e+03 0.0000000000e+00 0.0000e+00 1.0000e+00
      -13  1    1    2    0    0 -2.1148669443e+03 -2.2839059062e+02 +3.7247405469e+02 2.1595280446e+03 0.0000000000e+00 0.0000e+00 1.0000e+00
       13  1    1    2    0    0 +2.1148669443e+03 +2.2839059062e+02 -4.3379762839e+03 4.8314451972e+03 0.0000000000e+00 0.0000e+00 -1.0000e+00
<mgrwt>
<rscale>  0 0.57574733E+04</rscale>
<asrwt>0</asrwt>
<pdfrwt beam="1">  1        2 0.23272854E+00 0.57574733E+04</pdfrwt>
<pdfrwt beam="2">  1       -2 0.84280581E+00 0.57574733E+04</pdfrwt>
<totfact> 0.69651328E-04</totfact>
</mgrwt>
<rwgt>
<wgt id='morphing_basis_vector_1'> +1.7075081e-06 </wgt>
<wgt id='morphing_basis_vector_2'> +1.9935307e-06 </wgt>
<wgt id='morphing_basis_vector_3'> +2.0785259e-06 </wgt>
<wgt id='morphing_basis_vector_4'> +2.7987429e-07 </wgt>
<wgt id='morphing_basis_vector_5'> +1.6382655e-06 </wgt>
</rwgt>
</event>
<event>
 4      1 +9.0096000e-12 5.75206500e+03 7.81860800e-03 7.28975900e-02
        2 -1    0    0  501    0 +0.0000000000e+00 +0.0000000000e+00 +2.7778096259e+03 2.7778096259e+03 0.0000000000e+00 0.0000e+00 1.0000e+00
       -2 -1    0    0    0  501 -0.0000000000e+00 -0.0000000000e+00 -2.9777287906e+03 2.9777287906e+03 0.0000000000e+00 0.0000e+00 -1.0000e+00
      -13  1    1    2    0    0 +2.3940748509e+03 -1.2032476325e+03 -1.1456573201e+03 2.9140916169e+03 0.0000000000e+00 0.0000e+00 -1.0000e+00
       13  1    1    2    0    0 -2.3940748509e+03 +1.2032476325e+03 +9.4573815534e+02 2.8414467996e+03 0.0000000000e+00 0.0000e+00 1.0000e+00
<mgrwt>
<rscale>  0 0.57520653E+04</rscale>
<asrwt>0</asrwt>
<pdfrwt beam="1">  1        2 0.42735533E+00 0.57520653E+04</pdfrwt>
<pdfrwt beam="2">  1       -2 0.45811212E+00 0.57520653E+04</pdfrwt>
<totfact> 0.43242874E-03</totfact>
</mgrwt>
<rwgt>
<wgt id='morphing_basis_vector_1'> +1.3448602e-06 </wgt>
<wgt id='morphing_basis_vector_2'> +9.4028009e-07 </wgt>
<wgt id='morphing_basis_vector_3'> +1.4897204e-06 </wgt>
<wgt id='morphing_basis_vector_4'> +1.0403024e-06 </wgt>
<wgt id='morphing_basis_vector_5'> +1.6961124e-06 </wgt>
</rwgt>
</event>
<event>
 4      1 +9.0096000e-12 5.99204500e+03 7.81860800e-03 7.26259100e-02
        2 -1    0    0  501    0 +0.0000000000e+00 +0.0000000000e+00 +3.2463212045e+03 3.2463212045e+03 0.0000000000e+00 0.0000e+00 -1.0000e+00
       -2 -1    0    0    0  501 -0.0000000000e+00 -0.0000000000e+00 -2.7650228126e+03 2.7650228126e+03 0.0000000000e+00 0.0000e+00 1.0000e+00
      -13  1    1    2    0    0 +1.3025447755e+03 -3.4812757471e+02 -2.4434745718e+03 2.7907675796e+03 0.0000000000e+00 0.0000e+00 1.0000e+00
       13  1    1    2    0    0 -1.3025447755e+03 +3.4812757471e+02 +2.9247729638e+03 3.2205764375e+03 0.0000000000e+00 0.0000e+00 -1.0000e+00
<mgrwt>
<rscale>  0 0.59920455E+04</rscale>
<asrwt>0</asrwt>
<pdfrwt beam="1">  1        2 0.49943403E+00 0.59920455E+04</pdfrwt>
<pdfrwt beam="2">  1       -2 0.42538813E+00 0.59920455E+04</pdfrwt>
<totfact> 0.35172150E-03</totfact>
</mgrwt>
<rwgt>
<wgt id='morphing_basis_vector_1'> +1.5696615e-06 </wgt>
<wgt id='morphing_basis_vector_2'> +1.0676172e-06 </wgt>
<wgt id='morphing_basis_vector_3'> +1.7323288e-06 </wgt>
<wgt id='morphing_basis_vector_4'> +1.2543123e-06 </wgt>
<wgt id='morphing_basis_vector_5'> +2.0005460e-06 </wgt>
</rwgt>
</event>
<event>
 4      1 +9.0096000e-12 6.07872100e+03 7.81860800e-03 7.25309600e-02
        2 -1    0    0  501    0 +0.0000000000e+00 +0.0000000000e+00 +4.5726219025e+03 4.5726219025e+03 0.0000000000e+00 0.0000e+00 -1.0000e+00
       -2 -1    0    0    0  501 -0.0000000000e+00 -0.0000000000e+00 -2.0202221790e+03 2.0202221790e+03 0.0000000000e+00 0.0000e+00 1.0000e+00
      -13  1    1    2    0    0 -1.5008769482e+03 -4.5347978795e+02 -1.5477527154e+03 2.2031373084e+03 0.0000000000e+00 0.0000e+00 1.0000e+00
       13  1    1    2    0    0 +1.5008769482e+03 +4.5347978795e+02 +4.1001524389e+03 4.3897067731e+03 0.0000000000e+00 0.0000e+00 -1.0000e+00
<mgrwt>
<rscale>  0 0.60787210E+04</rscale>
<asrwt>0</asrwt>
<pdfrwt beam="1">  1        2 0.70348029E+00 0.60787210E+04</pdfrwt>
<pdfrwt beam="2">  1       -2 0.31080341E+00 0.60787210E+04</pdfrwt>
<totfact> 0.14853850E-03</totfact>
</mgrwt>
<rwgt>
<wgt id='morphing_basis_vector_1'> +1.6624444e-06 </wgt>
<wgt id='morphing_basis_vector_2'> +1.1312368e-06 </wgt>
<wgt id='morphing_basis_vector_3'> +1.8350489e-06 </wgt>
<wgt id='morphing_basis_vector_4'> +1.3282379e-06 </wgt>
<wgt id='morphing_basis_vector_5'> +2.1190652e-06 </wgt>
</rwgt>
</event>
<event>
 4      1 +9.0096000e-12 6.04997800e+03 7.81860800e-03 7.25622700e-02
        2 -1    0    0  501    0 +0.0000000000e+00 +0.0000000000e+00 +2.5267590894e+03 2.5267590894e+03 0.0000000000e+00 0.0000e+00 1.0000e+00
       -2 -1    0    0    0  501 -0.0000000000e+00 -0.0000000000e+00 -3.6214605075e+03 3.6214605075e+03 0.0000000000e+00 0.0000e+00 -1.0000e+00
      -13  1    1    2    0    0 -7.4291658134e+02 +6.1272825636e+02 -3.4615277688e+03 3.5929841994e+03 0.0000000000e+00 0.0000e+00 -1.0000e+00
       13  1    1    2    0    0 +7.4291658134e+02 -6.1272825636e+02 +2.3668263506e+03 2.5552353975e+03 0.0000000000e+00 0.0000e+00 1.0000e+00
<mgrwt>
<rscale>  0 0.60499779E+04</rscale>
<asrwt>0</asrwt>
<pdfrwt beam="1">  1        2 0.38873217E+00 0.60499779E+04</pdfrwt>
<pdfrwt beam="2">  1       -2 0.55714777E+00 0.60499779E+04</pdfrwt>
<totfact> 0.11290967E-03</totfact>
</mgrwt>
<rwgt>
<wgt id='morphing_basis_vector_1'> +1.6309431e-06 </wgt>
<wgt id='morphing_basis_vector_2'> +1.1089846e-06 </wgt>
<wgt id='morphing_basis_vector_3'> +1.8000206e-06 </wgt>
<wgt id='morphing_basis_vector_4'> +1.3039891e-06 </wgt>
<wgt id='morphing_basis_vector_5'> +2.0792468e-06 </wgt>
</rwgt>
</event>
<event>
 4      1 +9.0096000e-12 5.72172100e+03 7.81860800e-03 7.29329000e-02
        2 -1    0    0  501    0 +0.0000000000e+00 +0.0000000000e+00 +4.0199710946e+03 4.0199710946e+03 0.0000000000e+00 0.0000e+00 1.0000e+00
       -2 -1    0    0    0  501 -0.0000000000e+00 -0.0000000000e+00 -2.0359656687e+03 2.0359656687e+03 0.0000000000e+00 0.0000e+00 -1.0000e+00
      -13  1    1    2    0    0 +1.6229584935e+03 +1.5405644692e+03 +2.8785871077e+03 3.6460385204e+03 0.0000000000e+00 0.0000e+00 1.0000e+00
       13  1    1    2    0    0 -1.6229584935e+03 -1.5405644692e+03 -8.9458168180e+02 2.4098982428e+03 0.0000000000e+00 0.0000e+00 -1.0000e+00
<mgrwt>
<rscale>  0 0.57217211E+04</rscale>
<asrwt>0</asrwt>
<pdfrwt beam="1">  1        2 0.61845709E+00 0.57217211E+04</pdfrwt>
<pdfrwt beam="2">  1       -2 0.31322549E+00 0.57217211E+04</pdfrwt>
<totfact> 0.49625021E-03</totfact>
</mgrwt>
<rwgt>
<wgt id='morphing_basis_vector_1'> +1.6305713e-06 </wgt>
<wgt id='morphing_basis_vector_2'> +1.8417709e-06 </wgt>
<wgt id='morphing_basis_vector_3'> +1.9702026e-06 </wgt>
<wgt id='morphing_basis_vector_4'> +3.4782086e-07 </wgt>
<wgt id='morphing_basis_vector_5'> +1.6041523e-06 </wgt>
</rwgt>
</event>
<event>
 4      1 +9.0096000e-12 5.71658500e+03 7.81860800e-03 7.29389000e-02
        2 -1    0    0  501    0 +0.0000000000e+00 +0.0000000000e+00 +1.5383428135e+03 1.5383428135e+03 0.0000000000e+00 0.0000e+00 -1.0000e+00
       -2 -1    0    0    0  501 -0.0000000000e+00 -0.0000000000e+00 -5.3108033555e+03 5.3108033555e+03 0.0000000000e+00 0.0000e+00 1.0000e+00
      -13  1    1    2    0    0 -1.7206656187e+03 -8.1059341070e+02 -4.4424896239e+03 4.8325423855e+03 0.0000000000e+00 0.0000e+00 1.0000e+00
       13  1    1    2    0    0 +1.7206656187e+03 +8.1059341070e+02 +6.7002908187e+02 2.0166037835e+03 0.0000000000e+00 0.0000e+00 -1.0000e+00
<mgrwt>
<rscale>  0 0.57165851E+04</rscale>
<asrwt>0</asrwt>
<pdfrwt beam="1">  1        2 0.23666812E+00 0.57165851E+04</pdfrwt>
<pdfrwt beam="2">  1       -2 0.81704668E+00 0.57165851E+04</pdfrwt>
<totfact> 0.90168978E-04</totfact>
</mgrwt>
<rwgt>
<wgt id='morphing_basis_vector_1'> +1.3018624e-06 </wgt>
<wgt id='morphing_basis_vector_2'> +8.8736722e-07 </wgt>
<wgt id='morphing_basis_vector_3'> +1.4366705e-06 </wgt>
<wgt id='morphing_basis_vector_4'> +1.0366180e-06 </wgt>
<wgt id='morphing_basis_vector_5'> +1.6563840e-06 </wgt>
</rwgt>
</event>
<event>
 4      1 +9.0096000e-12 5.69637800e+03 7.81860800e-03 7.29625600e-02
        2 -1    0    0  501    0 +0.0000000000e+00 +0.0000000000e+00 +4.5963559799e+03 4.5963559799e+03 0.0000000000e+00 0.0000e+00 -1.0000e+00
       -2 -1    0    0    0  501 -0.0000000000e+00 -0.0000000000e+00 -1.7649158590e+03 1.7649158590e+03 0.0000000000e+00 0.0000e+00 1.0000e+00
      -13  1    1    2    0    0 -1.3609062158e+03 -1.7565588219e+03 -5.7399456714e+02 2.2950020449e+03 0.0000000000e+00 0.0000e+00 1.0000e+00
       13  1    1    2    0    0 +1.3609062158e+03 +1.7565588219e+03 +3.4054346881e+03 4.0662697940e+03 0.0000000000e+00 0.0000e+00 -1.0000e+00
<mgrwt>
<rscale>  0 0.56963783E+04</rscale>
<asrwt>0</asrwt>
<pdfrwt beam="1">  1        2 0.70713169E+00 0.56963783E+04</pdfrwt>
<pdfrwt beam="2">  1       -2 0.27152552E+00 0.56963783E+04</pdfrwt>
<totfact> 0.26574199E-03</totfact>
</mgrwt>
<rwgt>
<wgt id='morphing_basis_vector_1'> +1.2852613e-06 </wgt>
<wgt id='morphing_basis_vector_2'> +8.7978026e-07 </wgt>
<wgt id='morphing_basis_vector_3'> +1.4191788e-06 </wgt>
<wgt id='morphing_basis_vector_4'> +1.0184512e-06 </wgt>
<wgt id='morphing_basis_vector_5'> +1.6327334e-06 </wgt>
</rwgt>
</event>
<event>
 4      1 +9.0096000e-12 5.56782100e+03 7.81860800e-03 7.31155000e-02
        2 -1    0    0  501    0 +0.0000000000e+00 +0.0000000000e+00 +2.9199821095e+03 2.9199821095e+03 0.0000000000e+00 0.0000e+00 -1.0000e+00
       -2 -1    0    0    0  501 -0.0000000000e+00 -0.0000000000e+00 -2.6541800865e+03 2.6541800865e+03 0.0000000000e+00 0.0000e+00 1.0000e+00
      -13  1    1    2    0    0 +2.5468957142e+03 +4.9485816780e+02 -8.7750354694e+02 2.7389003012e+03 0.0000000000e+00 0.0000e+00 1.0000e+00
       13  1    1    2    0    0 -2.5468957142e+03 -4.9485816780e+02 +1.1433055700e+03 2.8352618947e+03 0.0000000000e+00 0.0000e+00 -1.0000e+00
<mgrwt>
<rscale>  0 0.55678212E+04</rscale>
<asrwt>0</asrwt>
<pdfrwt beam="1">  1        2 0.44922802E+00 0.55678212E+04</pdfrwt>
<pdfrwt beam="2">  1       -2 0.40833539E+00 0.55678212E+04</pdfrwt>
<totfact> 0.77553113E-03</totfact>
</mgrwt>
<rwgt>
<wgt id='morphing_basis_vector_1'> +1.1810879e-06 </wgt>
<wgt id='morphing_basis_vector_2'> +8.2570146e-07 </wgt>
<wgt id='morphing_basis_vector_3'> +1.3079071e-06 </wgt>
<wgt id='morphing_basis_vector_4'> +9.1291492e-07 </wgt>
<wgt id='morphing_basis_vector_5'> +1.4885345e-06 </wgt>
</rwgt>
</event>
<event>
 4      1 +9.0096000e-12 5.90394300e+03 7.81860800e-03 7.27241200e-02
        2 -1    0    0  501    0 +0.0000000000e+00 +0.0000000000e+00 +3.3946090929e+03 3.3946090929e+03 0.0000000000e+00 0.0000e+00 -1.0000e+00
       -2 -1    0    0    0  501 -0.0000000000e+00 -0.0000000000e+00 -2.5670517002e+03 2.5670517002e+03 0.0000000000e+00 0.0000e+00 1.0000e+00
      -13  1    1    2    0    0 +2.8908345895e+03 -4.8734205745e+02 +7.6315266284e+02 3.0293281255e+03 0.0000000000e+00 0.0000e+00 -1.0000e+00
       13  1    1    2    0    0 -2.8908345895e+03 +4.8734205745e+02 +6.4404729873e+01 2.9323326677e+03 0.0000000000e+00 0.0000e+00 1.0000e+00
<mgrwt>
<rscale>  0 0.59039434E+04</rscale>
<asrwt>0</asrwt>
<pdfrwt beam="1">  1        2 0.52224755E+00 0.59039434E+04</pdfrwt>
<pdfrwt beam="2">  1       -2 0.39493103E+00 0.59039434E+04</pdfrwt>
<totfact> 0.44239737E-03</totfact>
</mgrwt>
<rwgt>
<wgt id='morphing_basis_vector_1'> +1.5616985e-06 </wgt>
<wgt id='morphing_basis_vector_2'> +1.2473381e-06 </wgt>
<wgt id='morphing_basis_vector_3'> +1.7667345e-06 </wgt>
<wgt id='morphing_basis_vector_4'> +1.0063585e-06 </wgt>
<wgt id='morphing_basis_vector_5'> +1.8704380e-06 </wgt>
</rwgt>
</event>
<event>
 4      1 +9.0096000e-12 5.82110600e+03 7.81860800e-03 7.28180600e-02
        2 -1    0    0  501    0 +0.0000000000e+00 +0.0000000000e+00 +2.0203320534e+03 2.0203320534e+03 0.0000000000e+00 0.0000e+00 -1.0000e+00
       -2 -1    0    0    0  501 -0.0000000000e+00 -0.0000000000e+00 -4.1930327059e+03 4.1930327059e+03 0.0000000000e+00 0.0000e+00 1.0000e+00
      -13  1    1    2    0    0 -2.5988861610e+03 -1.6636690774e+02 -2.4737180958e+03 3.5918196563e+03 0.0000000000e+00 0.0000e+00 1.0000e+00
       13  1    1    2    0    0 +2.5988861610e+03 +1.6636690774e+02 +3.0101744329e+02 2.6215451030e+03 0.0000000000e+00 0.0000e+00 -1.0000e+00
<mgrwt>
<rscale>  0 0.58211059E+04</rscale>
<asrwt>0</asrwt>
<pdfrwt beam="1">  1        2 0.31082032E+00 0.58211059E+04</pdfrwt>
<pdfrwt beam="2">  1       -2 0.64508195E+00 0.58211059E+04</pdfrwt>
<totfact> 0.26372016E-04</totfact>
</mgrwt>
<rwgt>
<wgt id='morphing_basis_vector_1'> +1.4064977e-06 </wgt>
<wgt id='morphing_basis_vector_2'> +9.7463755e-07 </wgt>
<wgt id='morphing_basis_vector_3'> +1.5561113e-06 </wgt>
<wgt id='morphing_basis_vector_4'> +1.0996924e-06 </wgt>
<wgt id='morphing_basis_vector_5'> +1.7799304e-06 </wgt>
</rwgt>
</event>
<event>
 4      1 +9.0096000e-12 5.60377200e+03 7.81860800e-03 7.30723100e-02
        2 -1    0    0  501    0 +0.0000000000e+00 +0.0000000000e+00 +3.0856414220e+03 3.0856414220e+03 0.0000000000e+00 0.0000e+00 1.0000e+00
       -2 -1    0    0    0  501 -0.0000000000e+00 -0.0000000000e+00 -2.5442250057e+03 2.5442250057e+03 0.0000000000e+00 0.0000e+00 -1.0000e+00
      -13  1    1    2    0    0 +1.3219984597e+03 -4.0390645690e+02 -2.1777998372e+03 2.5794636040e+03 0.0000000000e+00 0.0000e+00 -1.0000e+00
       13  1    1    2    0    0 -1.3219984597e+03 +4.0390645690e+02 +2.7192162535e+03 3.0504028237e+03 0.0000000000e+00 0.0000e+00 1.0000e+00
<mgrwt>
<rscale>  0 0.56037723E+04</rscale>
<asrwt>0</asrwt>
<pdfrwt beam="1">  1        2 0.47471407E+00 0.56037723E+04</pdfrwt>
<pdfrwt beam="2">  1       -2 0.39141923E+00 0.56037723E+04</pdfrwt>
<totfact> 0.77778510E-03</totfact>
</mgrwt>
<rwgt>
<wgt id='morphing_basis_vector_1'> +1.2015506e-06 </wgt>
<wgt id='morphing_basis_vector_2'> +8.1710038e-07 </wgt>
<wgt id='morphing_basis_vector_3'> +1.3252991e-06 </wgt>
<wgt id='morphing_basis_vector_4'> +9.5869417e-07 </wgt>
<wgt id='morphing_basis_vector_5'> +1.5292946e-06 </wgt>
</rwgt>
</event>
<event>
 4      1 +9.0096000e-12 5.92201200e+03 7.81860800e-03 7.27038400e-02
        2 -1    0    0  501    0 +0.0000000000e+00 +0.0000000000e+00 +2.7969159834e+03 2.7969159834e+03 0.0000000000e+00 0.0000e+00 -1.0000e+00
       -2 -1    0    0    0  501 -0.0000000000e+00 -0.0000000000e+00 -3.1347227122e+03 3.1347227122e+03 0.0000000000e+00 0.0000e+00 1.0000e+00
      -13  1    1    2    0    0 -1.1477424026e+03 -1.2937833042e+03 -2.5762179792e+03 3.1029158766e+03 0.0000000000e+00 0.0000e+00 1.0000e+00
       13  1    1    2    0    0 +1.1477424026e+03 +1.2937833042e+03 +2.2384112504e+03 2.8287228190e+03 0.0000000000e+00 0.0000e+00 -1.0000e+00
<mgrwt>
<rscale>  0 0.59220118E+04</rscale>
<asrwt>0</asrwt>
<pdfrwt beam="1">  1        2 0.43029476E+00 0.59220118E+04</pdfrwt>
<pdfrwt beam="2">  1       -2 0.48226504E+00 0.59220118E+04</pdfrwt>
<totfact> 0.27712408E-03</totfact>
</mgrwt>
<rwgt>
<wgt id='morphing_basis_vector_1'> +1.4981831e-06 </wgt>
<wgt id='morphing_basis_vector_2'> +1.0199821e-06 </wgt>
<wgt id='morphing_basis_vector_3'> +1.6535205e-06 </wgt>
<wgt id='morphing_basis_vector_4'> +1.1955743e-06 </wgt>
<wgt id='morphing_basis_vector_5'> +1.9083613e-06 </wgt>
</rwgt>
</event>
<event>
 4      1 +9.0096000e-12 5.91360700e+03 7.81860800e-03 7.27132600e-02
        2 -1    0    0  501    0 +0.0000000000e+00 +0.0000000000e+00 +4.0717414032e+03 4.0717414032e+03 0.0000000000e+00 0.0000e+00 1.0000e+00
       -2 -1    0    0    0  501 -0.0000000000e+00 -0.0000000000e+00 -2.1471616612e+03 2.1471616612e+03 0.0000000000e+00 0.0000e+00 -1.0000e+00
      -13  1    1    2    0    0 +2.0428024859e+02 +1.4708729826e+03 +3.6511413899e+03 3.9415772477e+03 0.0000000000e+00 0.0000e+00 1.0000e+00
       13  1    1    2    0    0 -2.0428024859e+02 -1.4708729826e+03 -1.7265616479e+03 2.2773258166e+03 0.0000000000e+00 0.0000e+00 -1.0000e+00
<mgrwt>
<rscale>  0 0.59136070E+04</rscale>
<asrwt>0</asrwt>
<pdfrwt beam="1">  1        2 0.62642175E+00 0.59136070E+04</pdfrwt>
<pdfrwt beam="2">  1       -2 0.33033256E+00 0.59136070E+04</pdfrwt>
<totfact> 0.33975178E-03</totfact>
</mgrwt>
<rwgt>
<wgt id='morphing_basis_vector_1'> +2.0163910e-06 </wgt>
<wgt id='morphing_basis_vector_2'> +2.5601502e-06 </wgt>
<wgt id='morphing_basis_vector_3'> +2.5037780e-06 </wgt>
<wgt id='morphing_basis_vector_4'> +6.2453715e-08 </wgt>
<wgt id='morphing_basis_vector_5'> +1.8028088e-06 </wgt>
</rwgt>
</event>
<event>
 4      1 +9.0096000e-12 5.87816900e+03 7.81860800e-03 7.27531800e-02
        2 -1    0    0  501    0 +0.0000000000e+00 +0.0000000000e+00 +1.6537368120e+03 1.6537368120e+03 0.0000000000e+00 0.0000e+00 -1.0000e+00
       -2 -1    0    0    0  501 -0.0000000000e+00 -0.0000000000e+00 -5.2234530337e+03 5.2234530337e+03 0.0000000000e+00 0.0000e+00 1.0000e+00
      -13  1    1    2    0    0 +2.2372208736e+03 -1.3937128301e+03 -3.3060796739e+03 4.2282094911e+03 0.0000000000e+00 0.0000e+00 1.0000e+00
       13  1    1    2    0    0 -2.2372208736e+03 +1.3937128301e+03 -2.6363654786e+02 2.6489803547e+03 0.0000000000e+00 0.0000e+00 -1.0000e+00
<mgrwt>
<rscale>  0 0.58781686E+04</rscale>
<asrwt>0</asrwt>
<pdfrwt beam="1">  1        2 0.25442105E+00 0.58781686E+04</pdfrwt>
<pdfrwt beam="2">  1       -2 0.80360815E+00 0.58781686E+04</pdfrwt>
<totfact> 0.84029617E-04</totfact>
</mgrwt>
<rwgt>
<wgt id='morphing_basis_vector_1'> +1.4625044e-06 </wgt>
<wgt id='morphing_basis_vector_2'> +1.0139012e-06 </wgt>
<wgt id='morphing_basis_vector_3'> +1.6183132e-06 </wgt>
<wgt id='morphing_basis_vector_4'> +1.1431721e-06 </wgt>
<wgt id='morphing_basis_vector_5'> +1.8508912e-06 </wgt>
</rwgt>
</event>
<event>
 4      1 +9.0096000e-12 5.57355100e+03 7.81860800e-03 7.31085900e-02
        2 -1    0    0  501    0 +0.0000000000e+00 +0.0000000000e+00 +2.1845925977e+03 2.1845925977e+03 0.0000000000e+00 0.0000e+00 -1.0000e+00
       -2 -1    0    0    0  501 -0.0000000000e+00 -0.0000000000e+00 -3.5549505083e+03 3.5549505083e+03 0.0000000000e+00 0.0000e+00 1.0000e+00
      -13  1    1    2    0    0 -2.7489743952e+03 -2.9190553166e+02 -3.2248290310e+02 2.7831752169e+03 0.0000000000e+00 0.0000e+00 1.0000e+00
       13  1    1    2    0    0 +2.7489743952e+03 +2.9190553166e+02 -1.0478750075e+03 2.9563678892e+03 0.0000000000e+00 0.0000e+00 -1.0000e+00
<mgrwt>
<rscale>  0 0.55735513E+04</rscale>
<asrwt>0</asrwt>
<pdfrwt beam="1">  1        2 0.33609117E+00 0.55735513E+04</pdfrwt>
<pdfrwt beam="2">  1       -2 0.54691546E+00 0.55735513E+04</pdfrwt>
<totfact> 0.21941480E-03</totfact>
</mgrwt>
<rwgt>
<wgt id='morphing_basis_vector_1'> +1.2431919e-06 </wgt>
<wgt id='morphing_basis_vector_2'> +9.9716429e-07 </wgt>
<wgt id='morphing_basis_vector_3'> +1.4065675e-06 </wgt>
<wgt id='morphing_basis_vector_4'> +7.9440296e-07 </wgt>
<wgt id='morphing_basis_vector_5'> +1.4844140e-06 </wgt>
</rwgt>
</event>
<event>
 4      1 +9.0096000e-12 6.04433400e+03 7.81860800e-03 7.25684400e-02
        2 -1    0    0  501    0 +0.0000000000e+00 +0.0000000000e+00 +3.4174597788e+03 3.4174597788e+03 0.0000000000e+00 0.0000e+00 -1.0000e+00
       -2 -1    0    0    0  501 -0.0000000000e+00 -0.0000000000e+00 -2.6725975363e+03 2.6725975363e+03 0.0000000000e+00 0.0000e+00 1.0000e+00
      -13  1    1    2    0    0 +2.3357312552e+03 -4.7448727366e+02 -1.4997735296e+03 2.8160432010e+03 0.0000000000e+00 0.0000e+00 1.0000e+00
       13  1    1    2    0    0 -2.3357312552e+03 +4.7448727366e+02 +2.2446357722e+03 3.2740141141e+03 0.0000000000e+00 0.0000e+00 -1.0000e+00
<mgrwt>
<rscale>  0 0.60443344E+04</rscale>
<asrwt>0</asrwt>
<pdfrwt beam="1">  1        2 0.52576304E+00 0.60443344E+04</pdfrwt>
<pdfrwt beam="2">  1       -2 0.41116885E+00 0.60443344E+04</pdfrwt>
<totfact> 0.33004015E-03</totfact>
</mgrwt>
<rwgt>
<wgt id='morphing_basis_vector_1'> +1.6285875e-06 </wgt>
<wgt id='morphing_basis_vector_2'> +1.1157387e-06 </wgt>
<wgt id='morphing_basis_vector_3'> +1.7993700e-06 </wgt>
<wgt id='morphing_basis_vector_4'> +1.2911877e-06 </wgt>
<wgt id='morphing_basis_vector_5'> +2.0708154e-06 </wgt>
</rwgt>
</event>
<event>
 4      1 +9.0096000e-12 6.06358300e+03 7.81860800e-03 7.25474300e-02
        2 -1    0    0  501    0 +0.0000000000e+00 +0.0000000000e+00 +2.9930193894e+03 2.9930193894e+03 0.0000000000e+00 0.0000e+00 -1.0000e+00
       -2 -1    0    0    0  501 -0.0000000000e+00 -0.0000000000e+00 -3.0710654590e+03 3.0710654590e+03 0.0000000000e+00 0.0000e+00 1.0000e+00
      -13  1    1    2    0    0 -6.1635326430e+01 -2.7481307348e+03 -1.3180883218e+03 3.0485042682e+03 0.0000000000e+00 0.0000e+00 1.0000e+00
       13  1    1    2    0    0 +6.1635326430e+01 +2.7481307348e+03 +1.2400422521e+03 3.0155805803e+03 0.0000000000e+00 0.0000e+00 -1.0000e+00
<mgrwt>
<rscale>  0 0.60635826E+04</rscale>
<asrwt>0</asrwt>
<pdfrwt beam="1">  1        2 0.46046452E+00 0.60635826E+04</pdfrwt>
<pdfrwt beam="2">  1       -2 0.47247161E+00 0.60635826E+04</pdfrwt>
<totfact> 0.24263688E-03</totfact>
</mgrwt>
<rwgt>
<wgt id='morphing_basis_vector_1'> +1.6565050e-06 </wgt>
<wgt id='morphing_basis_vector_2'> +1.1509051e-06 </wgt>
<wgt id='morphing_basis_vector_3'> +1.8340268e-06 </wgt>
<wgt id='morphing_basis_vector_4'> +1.2925145e-06 </wgt>
<wgt id='morphing_basis_vector_5'> +2.0960957e-06 </wgt>
</rwgt>
</event>
<event>
 4      1 +9.0096000e-12 5.57418100e+03 7.81860800e-03 7.31078300e-02
        2 -1    0    0  501    0 +0.0000000000e+00 +0.0000000000e+00 +3.5565064502e+03 3.5565064502e+03 0.0000000000e+00 0.0000e+00 1.0000e+00
       -2 -1    0    0    0  501 -0.0000000000e+00 -0.0000000000e+00 -2.1841302775e+03 2.1841302775e+03 0.0000000000e+00 0.0000e+00 -1.0000e+00
      -13  1    1    2    0    0 -1.3178799731e+03 +2.3062950394e+03 -1.8285245175e+02 2.6625625723e+03 0.0000000000e+00 0.0000e+00 -1.0000e+00
       13  1    1    2    0    0 +1.3178799731e+03 -2.3062950394e+03 +1.5552286244e+03 3.0780741555e+03 0.0000000000e+00 0.0000e+00 1.0000e+00
<mgrwt>
<rscale>  0 0.55741810E+04</rscale>
<asrwt>0</asrwt>
<pdfrwt beam="1">  1        2 0.54715484E+00 0.55741810E+04</pdfrwt>
<pdfrwt beam="2">  1       -2 0.33602004E+00 0.55741810E+04</pdfrwt>
<totfact> 0.83136935E-03</totfact>
</mgrwt>
<rwgt>
<wgt id='morphing_basis_vector_1'> +1.1895527e-06 </wgt>
<wgt id='morphing_basis_vector_2'> +8.3849955e-07 </wgt>
<wgt id='morphing_basis_vector_3'> +1.3189000e-06 </wgt>
<wgt id='morphing_basis_vector_4'> +9.1053802e-07 </wgt>
<wgt id='morphing_basis_vector_5'> +1.4948130e-06 </wgt>
</rwgt>
</event>
<event>
 4      1 +9.0096000e-12 5.68629200e+03 7.81860800e-03 7.29744100e-02
        2 -1    0    0  501    0 +0.0000000000e+00 +0.0000000000e+00 +2.7975659752e+03 2.7975659752e+03 0.0000000000e+00 0.0000e+00 -1.0000e+00
       -2 -1    0    0    0  501 -0.0000000000e+00 -0.0000000000e+00 -2.8894684345e+03 2.8894684345e+03 0.0000000000e+00 0.0000e+00 1.0000e+00
      -13  1    1    2    0    0 -1.2387857594e+03 -1.4335272300e+03 -2.1661073482e+03 2.8777789215e+03 0.0000000000e+00 0.0000e+00 1.0000e+00
       13  1    1    2    0    0 +1.2387857594e+03 +1.4335272300e+03 +2.0742048890e+03 2.8092554883e+03 0.0000000000e+00 0.0000e+00 -1.0000e+00
<mgrwt>
<rscale>  0 0.56862918E+04</rscale>
<asrwt>0</asrwt>
<pdfrwt beam="1">  1        2 0.43039477E+00 0.56862918E+04</pdfrwt>
<pdfrwt beam="2">  1       -2 0.44453360E+00 0.56862918E+04</pdfrwt>
<totfact> 0.52559674E-03</totfact>
</mgrwt>
<rwgt>
<wgt id='morphing_basis_vector_1'> +1.2745625e-06 </wgt>
<wgt id='morphing_basis_vector_2'> +8.6874956e-07 </wgt>
<wgt id='morphing_basis_vector_3'> +1.4064772e-06 </wgt>
<wgt id='morphing_basis_vector_4'> +1.0147501e-06 </wgt>
<wgt id='morphing_basis_vector_5'> +1.6214667e-06 </wgt>
</rwgt>
</event>
<event>
 4      1 +9.0096000e-12 5.72172700e+03 7.81860800e-03 7.29328900e-02
        2 -1    0    0  501    0 +0.0000000000e+00 +0.0000000000e+00 +4.0934026460e+03 4.0934026460e+03 0.0000000000e+00 0.0000e+00 -1.0000e+00
       -2 -1    0    0    0  501 -0.0000000000e+00 -0.0000000000e+00 -1.9994468861e+03 1.9994468861e+03 0.0000000000e+00 0.0000e+00 1.0000e+00
      -13  1    1    2    0    0 -1.6617925603e+02 -2.6633653361e+03 +2.1450827167e+03 3.4238151702e+03 0.0000000000e+00 0.0000e+00 1.0000e+00
       13  1    1    2    0    0 +1.6617925603e+02 +2.6633653361e+03 -5.1126956763e+01 2.6690343618e+03 0.0000000000e+00 0.0000e+00 -1.0000e+00
<mgrwt>
<rscale>  0 0.57217274E+04</rscale>
<asrwt>0</asrwt>
<pdfrwt beam="1">  1        2 0.62975425E+00 0.57217274E+04</pdfrwt>
<pdfrwt beam="2">  1       -2 0.30760721E+00 0.57217274E+04</pdfrwt>
<totfact> 0.46713689E-03</totfact>
</mgrwt>
<rwgt>
<wgt id='morphing_basis_vector_1'> +1.4665500e-06 </wgt>
<wgt id='morphing_basis_vector_2'> +1.3602700e-06 </wgt>
<wgt id='morphing_basis_vector_3'> +1.7027514e-06 </wgt>
<wgt id='morphing_basis_vector_4'> +6.9838780e-07 </wgt>
<wgt id='morphing_basis_vector_5'> +1.6336240e-06 </wgt>
</rwgt>
</event>
<event>
 4      1 +9.0096000e-12 6.22044200e+03 7.81860800e-03 7.23791200e-02
        2 -1    0    0  501    0 +0.0000000000e+00 +0.0000000000e+00 +4.4335682492e+03 4.4335682492e+03 0.0000000000e+00 0.0000e+00 1.0000e+00
       -2 -1    0    0    0  501 -0.0000000000e+00 -0.0000000000e+00 -2.1818710894e+03 2.1818710894e+03 0.0000000000e+00 0.0000e+00 -1.0000e+00
      -13  1    1    2    0    0 +2.8338273850e+03 +9.2704142002e+02 +2.0672057679e+03 3.6281294256e+03 0.0000000000e+00 0.0000e+00 -1.0000e+00
       13  1    1    2    0    0 -2.8338273850e+03 -9.2704142002e+02 +1.8449139185e+02 2.9873099129e+03 0.0000000000e+00 0.0000e+00 1.0000e+00
<mgrwt>
<rscale>  0 0.62204419E+04</rscale>
<asrwt>0</asrwt>
<pdfrwt beam="1">  1        2 0.68208742E+00 0.62204419E+04</pdfrwt>
<pdfrwt beam="2">  1       -2 0.33567248E+00 0.62204419E+04</pdfrwt>
<totfact> 0.14019697E-03</totfact>
</mgrwt>
<rwgt>
<wgt id='morphing_basis_vector_1'> +1.9994030e-06 </wgt>
<wgt id='morphing_basis_vector_2'> +1.7592309e-06 </wgt>
<wgt id='morphing_basis_vector_3'> +2.3011713e-06 </wgt>
<wgt id='morphing_basis_vector_4'> +1.0783802e-06 </wgt>
<wgt id='morphing_basis_vector_5'> +2.2923058e-06 </wgt>
</rwgt>
</event>
<event>
 4      1 +9.0096000e-12 5.76757000e+03 7.81860800e-03 7.28796300e-02
        2 -1    0    0  501    0 +0.0000000000e+00 +0.0000000000e+00 +3.8687728701e+03 3.8687728701e+03 0.0000000000e+00 0.0000e+00 -1.0000e+00
       -2 -1    0    0    0  501 -0.0000000000e+00 -0.0000000000e+00 -2.1495749462e+03 2.1495749462e+03 0.0000000000e+00 0.0000e+00 1.0000e+00
      -13  1    1    2    0    0 +8.3699512649e+02 -2.0002127638e+03 +2.8435311768e+03 3.5759028924e+03 0.0000000000e+00 0.0000e+00 -1.0000e+00
       13  1    1    2    0    0 -8.3699512649e+02 +2.0002127638e+03 -1.1243332530e+03 2.4424449239e+03 0.0000000000e+00 0.0000e+00 1.0000e+00
<mgrwt>
<rscale>  0 0.57675705E+04</rscale>
<asrwt>0</asrwt>
<pdfrwt beam="1">  1        2 0.59519582E+00 0.57675705E+04</pdfrwt>
<pdfrwt beam="2">  1       -2 0.33070384E+00 0.57675705E+04</pdfrwt>
<totfact> 0.50691047E-03</totfact>
</mgrwt>
<rwgt>
<wgt id='morphing_basis_vector_1'> +1.7092903e-06 </wgt>
<wgt id='morphing_basis_vector_2'> +1.9775873e-06 </wgt>
<wgt id='morphing_basis_vector_3'> +2.0765330e-06 </wgt>
<wgt id='morphing_basis_vector_4'> +3.0364511e-07 </wgt>
<wgt id='morphing_basis_vector_5'> +1.6516462e-06 </wgt>
</rwgt>
</event>
<event>
 4      1 +9.0096000e-12 6.44560800e+03 7.81860800e-03 7.21461200e-02
        2 -1    0    0  501    0 +0.0000000000e+00 +0.0000000000e+00 +3.9859981012e+03 3.9859981012e+03 0.0000000000e+00 0.0000e+00 1.0000e+00
       -2 -1    0    0    0  501 -0.0000000000e+00 -0.0000000000e+00 -2.6057373579e+03 2.6057373579e+03 0.0000000000e+00 0.0000e+00 -1.0000e+00
      -13  1    1    2    0    0 -1.1954131340e+03 +1.5000461278e+03 -1.9584319980e+03 2.7412783217e+03 0.0000000000e+00 0.0000e+00 -1.0000e+00
       13  1    1    2    0    0 +1.1954131340e+03 -1.5000461278e+03 +3.3386927413e+03 3.8504571374e+03 0.0000000000e+00 0.0000e+00 1.0000e+00
<mgrwt>
<rscale>  0 0.64456075E+04</rscale>
<asrwt>0</asrwt>
<pdfrwt beam="1">  1        2 0.61323048E+00 0.64456075E+04</pdfrwt>
<pdfrwt beam="2">  1       -2 0.40088267E+00 0.64456075E+04</pdfrwt>
<totfact> 0.13504910E-03</totfact>
</mgrwt>
<rwgt>
<wgt id='morphing_basis_vector_1'> +2.1010885e-06 </wgt>
<wgt id='morphing_basis_vector_2'> +1.4312868e-06 </wgt>
<wgt id='morphing_basis_vector_3'> +2.3205724e-06 </wgt>
<wgt id='morphing_basis_vector_4'> +1.6788190e-06 </wgt>
<wgt id='morphing_basis_vector_5'> +2.6800446e-06 </wgt>
</rwgt>
</event>
<event>
 4      1 +9.0096000e-12 5.72773200e+03 7.81860800e-03 7.29258800e-02
        2 -1    0    0  501    0 +0.0000000000e+00 +0.0000000000e+00 +2.9773479338e+03 2.9773479338e+03 0.0000000000e+00 0.0000e+00 -1.0000e+00
       -2 -1    0    0    0  501 -0.0000000000e+00 -0.0000000000e+00 -2.7547093493e+03 2.7547093493e+03 0.0000000000e+00 0.0000e+00 1.0000e+00
      -13  1    1    2    0    0 +1.7372562692e+03 -1.2520949465e+03 -1.7916758184e+03 2.7921144923e+03 0.0000000000e+00 0.0000e+00 1.0000e+00
       13  1    1    2    0    0 -1.7372562692e+03 +1.2520949465e+03 +2.0143144029e+03 2.9399427909e+03 0.0000000000e+00 0.0000e+00 -1.0000e+00
<mgrwt>
<rscale>  0 0.57277319E+04</rscale>
<asrwt>0</asrwt>
<pdfrwt beam="1">  1        2 0.45805353E+00 0.57277319E+04</pdfrwt>
<pdfrwt beam="2">  1       -2 0.42380144E+00 0.57277319E+04</pdfrwt>
<totfact> 0.55589741E-03</totfact>
</mgrwt>
<rwgt>
<wgt id='morphing_basis_vector_1'> +1.3130690e-06 </wgt>
<wgt id='morphing_basis_vector_2'> +8.9737936e-07 </wgt>
<wgt id='morphing_basis_vector_3'> +1.4496166e-06 </wgt>
<wgt id='morphing_basis_vector_4'> +1.0425055e-06 </wgt>
<wgt id='morphing_basis_vector_5'> +1.6691842e-06 </wgt>
</rwgt>
</event>
<event>
 4      1 +9.0096000e-12 6.40061900e+03 7.81860800e-03 7.21919000e-02
        2 -1    0    0  501    0 +0.0000000000e+00 +0.0000000000e+00 +2.8433924000e+03 2.8433924000e+03 0.0000000000e+00 0.0000e+00 -1.0000e+00
       -2 -1    0    0    0  501 -0.0000000000e+00 -0.0000000000e+00 -3.6020284681e+03 3.6020284681e+03 0.0000000000e+00 0.0000e+00 1.0000e+00
      -13  1    1    2    0    0 +1.5654235540e+03 +2.7745955982e+03 -6.8649210195e+02 3.2588653000e+03 0.0000000000e+00 0.0000e+00 1.0000e+00
       13  1    1    2    0    0 -1.5654235540e+03 -2.7745955982e+03 -7.2143966077e+01 3.1865555682e+03 0.0000000000e+00 0.0000e+00 -1.0000e+00
<mgrwt>
<rscale>  0 0.64006188E+04</rscale>
<asrwt>0</asrwt>
<pdfrwt beam="1">  1        2 0.43744499E+00 0.64006188E+04</pdfrwt>
<pdfrwt beam="2">  1       -2 0.55415822E+00 0.64006188E+04</pdfrwt>
<totfact> 0.73848781E-04</totfact>
</mgrwt>
<rwgt>
<wgt id='morphing_basis_vector_1'> +2.0951405e-06 </wgt>
<wgt id='morphing_basis_vector_2'> +1.5443431e-06 </wgt>
<wgt id='morphing_basis_vector_3'> +2.3414976e-06 </wgt>
<wgt id='morphing_basis_vector_4'> +1.5210224e-06 </wgt>
<wgt id='morphing_basis_vector_5'> +2.5964874e-06 </wgt>
</rwgt>
</event>
<event>
 4      1 +9.0096000e-12 5.67087600e+03 7.81860800e-03 7.29925700e-02
        2 -1    0    0  501    0 +0.0000000000e+00 +0.0000000000e+00 +2.8858928564e+03 2.8858928564e+03 0.0000000000e+00 0.0000e+00 -1.0000e+00
       -2 -1    0    0    0  501 -0.0000000000e+00 -0.0000000000e+00 -2.7858655745e+03 2.7858655745e+03 0.0000000000e+00 0.0000e+00 1.0000e+00
      -13  1    1    2    0    0 -2.6119761151e+03 +3.3334100226e+02 +1.1019253627e+03 2.8544307584e+03 0.0000000000e+00 0.0000e+00 1.0000e+00
       13  1    1    2    0    0 +2.6119761151e+03 -3.3334100226e+02 -1.0018980807e+03 2.8173276724e+03 0.0000000000e+00 0.0000e+00 -1.0000e+00
<mgrwt>
<rscale>  0 0.56708763E+04</rscale>
<asrwt>0</asrwt>
<pdfrwt beam="1">  1        2 0.44398352E+00 0.56708763E+04</pdfrwt>
<pdfrwt beam="2">  1       -2 0.42859470E+00 0.56708763E+04</pdfrwt>
<totfact> 0.59379602E-03</totfact>
</mgrwt>
<rwgt>
<wgt id='morphing_basis_vector_1'> +1.4202894e-06 </wgt>
<wgt id='morphing_basis_vector_2'> +1.3274771e-06 </wgt>
<wgt id='morphing_basis_vector_3'> +1.6512240e-06 </wgt>
<wgt id='morphing_basis_vector_4'> +6.6302982e-07 </wgt>
<wgt id='morphing_basis_vector_5'> +1.5752781e-06 </wgt>
</rwgt>
</event>
<event>
 4      1 +9.0096000e-12 5.86137700e+03 7.81860800e-03 7.27722000e-02
        2 -1    0    0  501    0 +0.0000000000e+00 +0.0000000000e+00 +3.5180825170e+03 3.5180825170e+03 0.0000000000e+00 0.0000e+00 -1.0000e+00
       -2 -1    0    0    0  501 -0.0000000000e+00 -0.0000000000e+00 -2.4413680523e+03 2.4413680523e+03 0.0000000000e+00 0.0000e+00 1.0000e+00
      -13  1    1    2    0    0 +1.5163660690e+03 -1.3460801940e+03 -1.6130914678e+03 2.5910156363e+03 0.0000000000e+00 0.0000e+00 1.0000e+00
       13  1    1    2    0    0 -1.5163660690e+03 +1.3460801940e+03 +2.6898059325e+03 3.3684349331e+03 0.0000000000e+00 0.0000e+00 -1.0000e+00
<mgrwt>
<rscale>  0 0.58613767E+04</rscale>
<asrwt>0</asrwt>
<pdfrwt beam="1">  1        2 0.54124346E+00 0.58613767E+04</pdfrwt>
<pdfrwt beam="2">  1       -2 0.37559509E+00 0.58613767E+04</pdfrwt>
<totfact> 0.48199123E-03</totfact>
</mgrwt>
<rwgt>
<wgt id='morphing_basis_vector_1'> +1.4387925e-06 </wgt>
<wgt id='morphing_basis_vector_2'> +9.8150230e-07 </wgt>
<wgt id='morphing_basis_vector_3'> +1.5882986e-06 </wgt>
<wgt id='morphing_basis_vector_4'> +1.1453419e-06 </wgt>
<wgt id='morphing_basis_vector_5'> +1.8310627e-06 </wgt>
</rwgt>
</event>
<event>
 4      1 +9.0096000e-12 5.97441900e+03 7.81860800e-03 7.26454200e-02
        2 -1    0    0  501    0 +0.0000000000e+00 +0.0000000000e+00 +5.0227692679e+03 5.0227692679e+03 0.0000000000e+00 0.0000e+00 -1.0000e+00
       -2 -1    0    0    0  501 -0.0000000000e+00 -0.0000000000e+00 -1.7765936957e+03 1.7765936957e+03 0.0000000000e+00 0.0000e+00 1.0000e+00
      -13  1    1    2    0    0 -1.6870601187e+03 -2.3405503181e+03 +7.4221685509e+02 2.9791330107e+03 0.0000000000e+00 0.0000e+00 1.0000e+00
       13  1    1    2    0    0 +1.6870601187e+03 +2.3405503181e+03 +2.5039587171e+03 3.8202299528e+03 0.0000000000e+00 0.0000e+00 -1.0000e+00
<mgrwt>
<rscale>  0 0.59744189E+04</rscale>
<asrwt>0</asrwt>
<pdfrwt beam="1">  1        2 0.77273373E+00 0.59744189E+04</pdfrwt>
<pdfrwt beam="2">  1       -2 0.27332211E+00 0.59744189E+04</pdfrwt>
<totfact> 0.77330642E-04</totfact>
</mgrwt>
<rwgt>
<wgt id='morphing_basis_vector_1'> +1.5722605e-06 </wgt>
<wgt id='morphing_basis_vector_2'> +1.1166007e-06 </wgt>
<wgt id='morphing_basis_vector_3'> +1.7462344e-06 </wgt>
<wgt id='morphing_basis_vector_4'> +1.1947849e-06 </wgt>
<wgt id='morphing_basis_vector_5'> +1.9732902e-06 </wgt>
</rwgt>
</event>
<event>
 4      1 +9.0096000e-12 5.61434500e+03 7.81860800e-03 7.30596700e-02
        2 -1    0    0  501    0 +0.0000000000e+00 +0.0000000000e+00 +2.7204317838e+03 2.7204317838e+03 0.0000000000e+00 0.0000e+00 -1.0000e+00
       -2 -1    0    0    0  501 -0.0000000000e+00 -0.0000000000e+00 -2.8966785214e+03 2.8966785214e+03 0.0000000000e+00 0.0000e+00 1.0000e+00
      -13  1    1    2    0    0 +1.3393525006e+03 -1.1729997144e+03 -2.2595433773e+03 2.8766872831e+03 0.0000000000e+00 0.0000e+00 1.0000e+00
       13  1    1    2    0    0 -1.3393525006e+03 +1.1729997144e+03 +2.0832966398e+03 2.7404230221e+03 0.0000000000e+00 0.0000e+00 -1.0000e+00
<mgrwt>
<rscale>  0 0.56143446E+04</rscale>
<asrwt>0</asrwt>
<pdfrwt beam="1">  1        2 0.41852797E+00 0.56143446E+04</pdfrwt>
<pdfrwt beam="2">  1       -2 0.44564285E+00 0.56143446E+04</pdfrwt>
<totfact> 0.57996585E-03</totfact>
</mgrwt>
<rwgt>
<wgt id='morphing_basis_vector_1'> +1.2111887e-06 </wgt>
<wgt id='morphing_basis_vector_2'> +8.2494723e-07 </wgt>
<wgt id='morphing_basis_vector_3'> +1.3362539e-06 </wgt>
<wgt id='morphing_basis_vector_4'> +9.6475248e-07 </wgt>
<wgt id='morphing_basis_vector_5'> +1.5407954e-06 </wgt>
</rwgt>
</event>
<event>
 4      1 +9.0096000e-12 6.52336500e+03 7.81860800e-03 7.20679000e-02
        2 -1    0    0  501    0 +0.0000000000e+00 +0.0000000000e+00 +3.0862209358e+03 3.0862209358e+03 0.0000000000e+00 0.0000e+00 -1.0000e+00
       -2 -1    0    0    0  501 -0.0000000000e+00 -0.0000000000e+00 -3.4471192949e+03 3.4471192949e+03 0.0000000000e+00 0.0000e+00 1.0000e+00
      -13  1    1    2    0    0 -3.0641164963e+03 -6.7526251057e+02 -1.0727562664e+03 3.3159607006e+03 0.0000000000e+00 0.0000e+00 1.0000e+00
       13  1    1    2    0    0 +3.0641164963e+03 +6.7526251057e+02 +7.1185790732e+02 3.2173795301e+03 0.0000000000e+00 0.0000e+00 -1.0000e+00
<mgrwt>
<rscale>  0 0.65233647E+04</rscale>
<asrwt>0</asrwt>
<pdfrwt beam="1">  1        2 0.47480322E+00 0.65233647E+04</pdfrwt>
<pdfrwt beam="2">  1       -2 0.53032604E+00 0.65233647E+04</pdfrwt>
<totfact> 0.75654476E-04</totfact>
</mgrwt>
<rwgt>
<wgt id='morphing_basis_vector_1'> +2.2313898e-06 </wgt>
<wgt id='morphing_basis_vector_2'> +1.5815914e-06 </wgt>
<wgt id='morphing_basis_vector_3'> +2.4792048e-06 </wgt>
<wgt id='morphing_basis_vector_4'> +1.7030431e-06 </wgt>
<wgt id='morphing_basis_vector_5'> +2.8070619e-06 </wgt>
</rwgt>
</event>
<event>
 4      1 +9.0096000e-12 6.49202300e+03 7.81860800e-03 7.20992900e-02
        2 -1    0    0  501    0 +0.0000000000e+00 +0.0000000000e+00 +3.9232706298e+03 3.9232706298e+03 0.0000000000e+00 0.0000e+00 -1.0000e+00
       -2 -1    0    0    0  501 -0.0000000000e+00 -0.0000000000e+00 -2.6856651887e+03 2.6856651887e+03 0.0000000000e+00 0.0000e+00 1.0000e+00
      -13  1    1    2    0    0 -2.2449285901e+03 -1.0073120098e+03 +2.7740521850e+03 3.7080651808e+03 0.0000000000e+00 0.0000e+00 -1.0000e+00
       13  1    1    2    0    0 +2.2449285901e+03 +1.0073120098e+03 -1.5364467440e+03 2.9008706377e+03 0.0000000000e+00 0.0000e+00 1.0000e+00
<mgrwt>
<rscale>  0 0.64920232E+04</rscale>
<asrwt>0</asrwt>
<pdfrwt beam="1">  1        2 0.60358010E+00 0.64920232E+04</pdfrwt>
<pdfrwt beam="2">  1       -2 0.41317926E+00 0.64920232E+04</pdfrwt>
<totfact> 0.12615407E-03</totfact>
</mgrwt>
<rwgt>
<wgt id='morphing_basis_vector_1'> +2.7330333e-06 </wgt>
<wgt id='morphing_basis_vector_2'> +3.1483118e-06 </wgt>
<wgt id='morphing_basis_vector_3'> +3.3222023e-06 </wgt>
<wgt id='morphing_basis_vector_4'> +5.0498046e-07 </wgt>
<wgt id='morphing_basis_vector_5'> +2.6552623e-06 </wgt>
</rwgt>
</event>
<event>
 4      1 +9.0096000e-12 5.82253300e+03 7.81860800e-03 7.28164300e-02
        2 -1    0    0  501    0 +0.0000000000e+00 +0.0000000000e+00 +3.5664551582e+03 3.5664551582e+03 0.0000000000e+00 0.0000e+00 1.0000e+00
       -2 -1    0    0    0  501 -0.0000000000e+00 -0.0000000000e+00 -2.3764413082e+03 2.3764413082e+03 0.0000000000e+00 0.0000e+00 -1.0000e+00
      -13  1    1    2    0    0 -2.2756499514e+03 +6.5480059794e+02 +2.3235701272e+03 3.3175781318e+03 0.0000000000e+00 0.0000e+00 1.0000e+00
       13  1    1    2    0    0 +2.2756499514e+03 -6.5480059794e+02 -1.1335562772e+03 2.6253183346e+03 0.0000000000e+00 0.0000e+00 -1.0000e+00
<mgrwt>
<rscale>  0 0.58225326E+04</rscale>
<asrwt>0</asrwt>
<pdfrwt beam="1">  1        2 0.54868541E+00 0.58225326E+04</pdfrwt>
<pdfrwt beam="2">  1       -2 0.36560636E+00 0.58225326E+04</pdfrwt>
<totfact> 0.51581513E-03</totfact>
</mgrwt>
<rwgt>
<wgt id='morphing_basis_vector_1'> +1.7173086e-06 </wgt>
<wgt id='morphing_basis_vector_2'> +1.8839052e-06 </wgt>
<wgt id='morphing_basis_vector_3'> +2.0624584e-06 </wgt>
<wgt id='morphing_basis_vector_4'> +4.3921778e-07 </wgt>
<wgt id='morphing_basis_vector_5'> +1.7260612e-06 </wgt>
</rwgt>
</event>
<event>
 4      1 +9.0096000e-12 5.88653100e+03 7.81860800e-03 7.27437400e-02
        2 -1    0    0  501    0 +0.0000000000e+00 +0.0000000000e+00 +3.2369250954e+03 3.2369250954e+03 0.0000000000e+00 0.0000e+00 -1.0000e+00
       -2 -1    0    0    0  501 -0.0000000000e+00 -0.0000000000e+00 -2.6762476598e+03 2.6762476598e+03 0.0000000000e+00 0.0000e+00 1.0000e+00
      -13  1    1    2    0    0 -8.2604880119e+02 +1.9431176598e+03 -1.7794904527e+03 2.7612767216e+03 0.0000000000e+00 0.0000e+00 1.0000e+00
       13  1    1    2    0    0 +8.2604880119e+02 -1.9431176598e+03 +2.3401678883e+03 3.1518960337e+03 0.0000000000e+00 0.0000e+00 -1.0000e+00
<mgrwt>
<rscale>  0 0.58865315E+04</rscale>
<asrwt>0</asrwt>
<pdfrwt beam="1">  1        2 0.49798848E+00 0.58865315E+04</pdfrwt>
<pdfrwt beam="2">  1       -2 0.41173041E+00 0.58865315E+04</pdfrwt>
<totfact> 0.44326073E-03</totfact>
</mgrwt>
<rwgt>
<wgt id='morphing_basis_vector_1'> +1.4639415e-06 </wgt>
<wgt id='morphing_basis_vector_2'> +9.9947236e-07 </wgt>
<wgt id='morphing_basis_vector_3'> +1.6163077e-06 </wgt>
<wgt id='morphing_basis_vector_4'> +1.1644259e-06 </wgt>
<wgt id='morphing_basis_vector_5'> +1.8627087e-06 </wgt>
</rwgt>
</event>
<event>
 4      1 +9.0096000e-12 5.71636900e+03 7.81860800e-03 7.29391500e-02
        2 -1    0    0  501    0 +0.0000000000e+00 +0.0000000000e+00 +1.4883152467e+03 1.4883152467e+03 0.0000000000e+00 0.0000e+00 -1.0000e+00
       -2 -1    0    0    0  501 -0.0000000000e+00 -0.0000000000e+00 -5.4889029602e+03 5.4889029602e+03 0.0000000000e+00 0.0000e+00 1.0000e+00
      -13  1    1    2    0    0 -2.6933902636e+02 -2.8376199693e+03 -2.2580256278e+03 3.6363869895e+03 0.0000000000e+00 0.0000e+00 1.0000e+00
       13  1    1    2    0    0 +2.6933902636e+02 +2.8376199693e+03 -1.7425620857e+03 3.3408312174e+03 0.0000000000e+00 0.0000e+00 -1.0000e+00
<mgrwt>
<rscale>  0 0.57163688E+04</rscale>
<asrwt>0</asrwt>
<pdfrwt beam="1">  1        2 0.22897157E+00 0.57163688E+04</pdfrwt>
<pdfrwt beam="2">  1       -2 0.84444662E+00 0.57163688E+04</pdfrwt>
<totfact> 0.70350835E-04</totfact>
</mgrwt>
<rwgt>
<wgt id='morphing_basis_vector_1'> +1.3370911e-06 </wgt>
<wgt id='morphing_basis_vector_2'> +9.9122463e-07 </wgt>
<wgt id='morphing_basis_vector_3'> +1.4942147e-06 </wgt>
<wgt id='morphing_basis_vector_4'> +9.6075069e-07 </wgt>
<wgt id='morphing_basis_vector_5'> +1.6497695e-06 </wgt>
</rwgt>
</event>
<event>
 4      1 +9.0096000e-12 6.01230900e+03 7.81860800e-03 7.26035700e-02
        2 -1    0    0  501    0 +0.0000000000e+00 +0.0000000000e+00 +4.7493345931e+03 4.7493345931e+03 0.0000000000e+00 0.0000e+00 -1.0000e+00
       -2 -1    0    0    0  501 -0.0000000000e+00 -0.0000000000e+00 -1.9027852589e+03 1.9027852589e+03 0.0000000000e+00 0.0000e+00 1.0000e+00
      -13  1    1    2    0    0 -1.2538547873e+03 -1.2876144929e+03 -1.2429056023e+03 2.1851584030e+03 0.0000000000e+00 0.0000e+00 1.0000e+00
       13  1    1    2    0    0 +1.2538547873e+03 +1.2876144929e+03 +4.0894549364e+03 4.4669614490e+03 0.0000000000e+00 0.0000e+00 -1.0000e+00
<mgrwt>
<rscale>  0 0.60123087E+04</rscale>
<asrwt>0</asrwt>
<pdfrwt beam="1">  1        2 0.73066686E+00 0.60123087E+04</pdfrwt>
<pdfrwt beam="2">  1       -2 0.29273619E+00 0.60123087E+04</pdfrwt>
<totfact> 0.12538291E-03</totfact>
</mgrwt>
<rwgt>
<wgt id='morphing_basis_vector_1'> +1.5915327e-06 </wgt>
<wgt id='morphing_basis_vector_2'> +1.0838211e-06 </wgt>
<wgt id='morphing_basis_vector_3'> +1.7568241e-06 </wgt>
<wgt id='morphing_basis_vector_4'> +1.2701616e-06 </wgt>
<wgt id='morphing_basis_vector_5'> +2.0277003e-06 </wgt>
</rwgt>
</event>
<event>
 4      1 +9.0096000e-12 6.36744400e+03 7.81860800e-03 7.22259000e-02
        2 -1    0    0  501    0 +0.0000000000e+00 +0.0000000000e+00 +3.9465212184e+03 3.9465212184e+03 0.0000000000e+00 0.0000e+00 1.0000e+00
       -2 -1    0    0    0  501 -0.0000000000e+00 -0.0000000000e+00 -2.5683596713e+03 2.5683596713e+03 0.0000000000e+00 0.0000e+00 -1.0000e+00
      -13  1    1    2    0    0 -8.7139045655e+02 -1.9707823262e+03 -1.7088547931e+03 2.7501798139e+03 0.0000000000e+00 0.0000e+00 -1.0000e+00
       13  1    1    2    0    0 +8.7139045655e+02 +1.9707823262e+03 +3.0870163402e+03 3.7647010758e+03 0.0000000000e+00 0.0000e+00 1.0000e+00
<mgrwt>
<rscale>  0 0.63674441E+04</rscale>
<asrwt>0</asrwt>
<pdfrwt beam="1">  1        2 0.60715711E+00 0.63674441E+04</pdfrwt>
<pdfrwt beam="2">  1       -2 0.39513226E+00 0.63674441E+04</pdfrwt>
<totfact> 0.15987732E-03</totfact>
</mgrwt>
<rwgt>
<wgt id='morphing_basis_vector_1'> +2.0021223e-06 </wgt>
<wgt id='morphing_basis_vector_2'> +1.3658523e-06 </wgt>
<wgt id='morphing_basis_vector_3'> +2.2115518e-06 </wgt>
<wgt id='morphing_basis_vector_4'> +1.5967468e-06 </wgt>
<wgt id='morphing_basis_vector_5'> +2.5519853e-06 </wgt>
</rwgt>
</event>
<event>
 4      1 +9.0096000e-12 5.59939100e+03 7.81860800e-03 7.30775600e-02
        2 -1    0    0  501    0 +0.0000000000e+00 +0.0000000000e+00 +2.6704139260e+03 2.6704139260e+03 0.0000000000e+00 0.0000e+00 -1.0000e+00
       -2 -1    0    0    0  501 -0.0000000000e+00 -0.0000000000e+00 -2.9352354944e+03 2.9352354944e+03 0.0000000000e+00 0.0000e+00 1.0000e+00
      -13  1    1    2    0    0 +1.6461215695e+03 +2.0329568280e+03 -1.1313558006e+03 2.8500167777e+03 0.0000000000e+00 0.0000e+00 1.0000e+00
       13  1    1    2    0    0 -1.6461215695e+03 -2.0329568280e+03 +8.6653423215e+02 2.7556326427e+03 0.0000000000e+00 0.0000e+00 -1.0000e+00
<mgrwt>
<rscale>  0 0.55993906E+04</rscale>
<asrwt>0</asrwt>
<pdfrwt beam="1">  1        2 0.41083291E+00 0.55993906E+04</pdfrwt>
<pdfrwt beam="2">  1       -2 0.45157469E+00 0.55993906E+04</pdfrwt>
<totfact> 0.56686024E-03</totfact>
</mgrwt>
<rwgt>
<wgt id='morphing_basis_vector_1'> +1.2083228e-06 </wgt>
<wgt id='morphing_basis_vector_2'> +8.4542236e-07 </wgt>
<wgt id='morphing_basis_vector_3'> +1.3382952e-06 </wgt>
<wgt id='morphing_basis_vector_4'> +9.3322632e-07 </wgt>
<wgt id='morphing_basis_vector_5'> +1.5226175e-06 </wgt>
</rwgt>
</event>
<event>
 4      1 +9.0096000e-12 6.32089500e+03 7.81860800e-03 7.22739600e-02
        2 -1    0    0  501    0 +0.0000000000e+00 +0.0000000000e+00 +4.6860876129e+03 4.6860876129e+03 0.0000000000e+00 0.0000e+00 -1.0000e+00
       -2 -1    0    0    0  501 -0.0000000000e+00 -0.0000000000e+00 -2.1315067637e+03 2.1315067637e+03 0.0000000000e+00 0.0000e+00 1.0000e+00
      -13  1    1    2    0    0 +2.5749813725e+03 +8.9625857152e+01 -6.9679659818e+02 2.6690986048e+03 0.0000000000e+00 0.0000e+00 1.0000e+00
       13  1    1    2    0    0 -2.5749813725e+03 -8.9625857152e+01 +3.2513774474e+03 4.1484957718e+03 0.0000000000e+00 0.0000e+00 -1.0000e+00
<mgrwt>
<rscale>  0 0.63208947E+04</rscale>
<asrwt>0</asrwt>
<pdfrwt beam="1">  1        2 0.72093655E+00 0.63208947E+04</pdfrwt>
<pdfrwt beam="2">  1       -2 0.32792412E+00 0.63208947E+04</pdfrwt>
<totfact> 0.84241022E-04</totfact>
</mgrwt>
<rwgt>
<wgt id='morphing_basis_vector_1'> +1.9480996e-06 </wgt>
<wgt id='morphing_basis_vector_2'> +1.3374377e-06 </wgt>
<wgt id='morphing_basis_vector_3'> +2.1537563e-06 </wgt>
<wgt id='morphing_basis_vector_4'> +1.5424090e-06 </wgt>
<wgt id='morphing_basis_vector_5'> +2.4773520e-06 </wgt>
</rwgt>
</event>
<event>
 4      1 +9.0096000e-12 5.84112100e+03 7.81860800e-03 7.27952200e-02
        2 -1    0    0  501    0 +0.0000000000e+00 +0.0000000000e+00 +3.4158493974e+03 3.4158493974e+03 0.0000000000e+00 0.0000e+00 -1.0000e+00
       -2 -1    0    0    0  501 -0.0000000000e+00 -0.0000000000e+00 -2.4970874193e+03 2.4970874193e+03 0.0000000000e+00 0.0000e+00 1.0000e+00
      -13  1    1    2    0    0 +4.2402165422e+02 -2.2989993218e+03 -1.3127081811e+03 2.6811182394e+03 0.0000000000e+00 0.0000e+00 1.0000e+00
       13  1    1    2    0    0 -4.2402165422e+02 +2.2989993218e+03 +2.2314701592e+03 3.2318185772e+03 0.0000000000e+00 0.0000e+00 -1.0000e+00
<mgrwt>
<rscale>  0 0.58411213E+04</rscale>
<asrwt>0</asrwt>
<pdfrwt beam="1">  1        2 0.52551529E+00 0.58411213E+04</pdfrwt>
<pdfrwt beam="2">  1       -2 0.38416730E+00 0.58411213E+04</pdfrwt>
<totfact> 0.50409290E-03</totfact>
</mgrwt>
<rwgt>
<wgt id='morphing_basis_vector_1'> +1.4211589e-06 </wgt>
<wgt id='morphing_basis_vector_2'> +9.7419622e-07 </wgt>
<wgt id='morphing_basis_vector_3'> +1.5698945e-06 </wgt>
<wgt id='morphing_basis_vector_4'> +1.1250562e-06 </wgt>
<wgt id='morphing_basis_vector_5'> +1.8054466e-06 </wgt>
</rwgt>
</event>
<event>
 4      1 +9.0096000e-12 6.06720200e+03 7.81860800e-03 7.25434900e-02
        2 -1    0    0  501    0 +0.0000000000e+00 +0.0000000000e+00 +3.3756007720e+03 3.3756007720e+03 0.0000000000e+00 0.0000e+00 -1.0000e+00
       -2 -1    0    0    0  501 -0.0000000000e+00 -0.0000000000e+00 -2.7262506715e+03 2.7262506715e+03 0.0000000000e+00 0.0000e+00 1.0000e+00
      -13  1    1    2    0    0 +1.1595197988e+03 +2.9871204550e+02 -2.4785391830e+03 2.7526117655e+03 0.0000000000e+00 0.0000e+00 1.0000e+00
       13  1    1    2    0    0 -1.1595197988e+03 -2.9871204550e+02 +3.1278892835e+03 3.3492396779e+03 0.0000000000e+00 0.0000e+00 -1.0000e+00
<mgrwt>
<rscale>  0 0.60672016E+04</rscale>
<asrwt>0</asrwt>
<pdfrwt beam="1">  1        2 0.51932320E+00 0.60672016E+04</pdfrwt>
<pdfrwt beam="2">  1       -2 0.41942318E+00 0.60672016E+04</pdfrwt>
<totfact> 0.31127787E-03</totfact>
</mgrwt>
<rwgt>
<wgt id='morphing_basis_vector_1'> +1.6496257e-06 </wgt>
<wgt id='morphing_basis_vector_2'> +1.1218693e-06 </wgt>
<wgt id='morphing_basis_vector_3'> +1.8207218e-06 </wgt>
<wgt id='morphing_basis_vector_4'> +1.3187782e-06 </wgt>
<wgt id='morphing_basis_vector_5'> +2.1030643e-06 </wgt>
</rwgt>
</event>
<event>
 4      1 +9.0096000e-12 5.60637600e+03 7.81860800e-03 7.30691900e-02
        2 -1    0    0  501    0 +0.0000000000e+00 +0.0000000000e+00 +3.0071896885e+03 3.0071896885e+03 0.0000000000e+00 0.0000e+00 -1.0000e+00
       -2 -1    0    0    0  501 -0.0000000000e+00 -0.0000000000e+00 -2.6130257977e+03 2.6130257977e+03 0.0000000000e+00 0.0000e+00 1.0000e+00
      -13  1    1    2    0    0 +8.4062853990e+01 +2.7277621531e+03 +8.3906207040e+02 2.8551318858e+03 0.0000000000e+00 0.0000e+00 1.0000e+00
       13  1    1    2    0    0 -8.4062853990e+01 -2.7277621531e+03 -4.4489817969e+02 2.7650836004e+03 0.0000000000e+00 0.0000e+00 -1.0000e+00
<mgrwt>
<rscale>  0 0.56063765E+04</rscale>
<asrwt>0</asrwt>
<pdfrwt beam="1">  1        2 0.46264457E+00 0.56063765E+04</pdfrwt>
<pdfrwt beam="2">  1       -2 0.40200397E+00 0.56063765E+04</pdfrwt>
<totfact> 0.74721906E-03</totfact>
</mgrwt>
<rwgt>
<wgt id='morphing_basis_vector_1'> +1.3010248e-06 </wgt>
<wgt id='morphing_basis_vector_2'> +1.1040985e-06 </wgt>
<wgt id='morphing_basis_vector_3'> +1.4862274e-06 </wgt>
<wgt id='morphing_basis_vector_4'> +7.5273305e-07 </wgt>
<wgt id='morphing_basis_vector_5'> +1.5146915e-06 </wgt>
</rwgt>
</event>
<event>
 4      1 +9.0096000e-12 5.79732100e+03 7.81860800e-03 7.28453300e-02
        2 -1    0    0  501    0 +0.0000000000e+00 +0.0000000000e+00 +3.3392915023e+03 3.3392915023e+03 0.0000000000e+00 0.0000e+00 1.0000e+00
       -2 -1    0    0    0  501 -0.0000000000e+00 -0.0000000000e+00 -2.5161725693e+03 2.5161725693e+03 0.0000000000e+00 0.0000e+00 -1.0000e+00
      -13  1    1    2    0    0 +1.9715730073e+02 +2.0217270315e+03 -1.6770243376e+03 2.6341339791e+03 0.0000000000e+00 0.0000e+00 -1.0000e+00
       13  1    1    2    0    0 -1.9715730073e+02 -2.0217270315e+03 +2.5001432706e+03 3.2213300925e+03 0.0000000000e+00 0.0000e+00 1.0000e+00
<mgrwt>
<rscale>  0 0.57973213E+04</rscale>
<asrwt>0</asrwt>
<pdfrwt beam="1">  1        2 0.51373716E+00 0.57973213E+04</pdfrwt>
<pdfrwt beam="2">  1       -2 0.38710347E+00 0.57973213E+04</pdfrwt>
<totfact> 0.54864718E-03</totfact>
</mgrwt>
<rwgt>
<wgt id='morphing_basis_vector_1'> +1.3771755e-06 </wgt>
<wgt id='morphing_basis_vector_2'> +9.3965121e-07 </wgt>
<wgt id='morphing_basis_vector_3'> +1.5201841e-06 </wgt>
<wgt id='morphing_basis_vector_4'> +1.0957497e-06 </wgt>
<wgt id='morphing_basis_vector_5'> +1.7521241e-06 </wgt>
</rwgt>
</event>
<event>
 4      1 +9.0096000e-12 6.51642900e+03 7.81860800e-03 7.20748300e-02
        2 -1    0    0  501    0 +0.0000000000e+00 +0.0000000000e+00 +2.1121213890e+03 2.1121213890e+03 0.0000000000e+00 0.0000e+00 -1.0000e+00
       -2 -1    0    0    0  501 -0.0000000000e+00 -0.0000000000e+00 -5.0262076905e+03 5.0262076905e+03 0.0000000000e+00 0.0000e+00 1.0000e+00
      -13  1    1    2    0    0 +2.8717598812e+03 +1.0148465843e+02 -3.1394045498e+03 4.2559563999e+03 0.0000000000e+00 0.0000e+00 1.0000e+00
       13  1    1    2    0    0 -2.8717598812e+03 -1.0148465843e+02 +2.2531824831e+02 2.8823726796e+03 0.0000000000e+00 0.0000e+00 -1.0000e+00
<mgrwt>
<rscale>  0 0.65164287E+04</rscale>
<asrwt>0</asrwt>
<pdfrwt beam="1">  1        2 0.32494175E+00 0.65164287E+04</pdfrwt>
<pdfrwt beam="2">  1       -2 0.77326272E+00 0.65164287E+04</pdfrwt>
<totfact> 0.47116232E-04</totfact>
</mgrwt>
<rwgt>
<wgt id='morphing_basis_vector_1'> +2.2051297e-06 </wgt>
<wgt id='morphing_basis_vector_2'> +1.5255690e-06 </wgt>
<wgt id='morphing_basis_vector_3'> +2.4411825e-06 </wgt>
<wgt id='morphing_basis_vector_4'> +1.7317924e-06 </wgt>
<wgt id='morphing_basis_vector_5'> +2.7981514e-06 </wgt>
</rwgt>
</event>
<event>
 4      1 +9.0096000e-12 5.96081900e+03 7.81860800e-03 7.26605200e-02
        2 -1    0    0  501    0 +0.0000000000e+00 +0.0000000000e+00 +4.1646507687e+03 4.1646507687e+03 0.0000000000e+00 0.0000e+00 -1.0000e+00
       -2 -1    0    0    0  501 -0.0000000000e+00 -0.0000000000e+00 -2.1329137664e+03 2.1329137664e+03 0.0000000000e+00 0.0000e+00 1.0000e+00
      -13  1    1    2    0    0 -7.7661774493e+02 +1.9369263375e+03 -1.2322591198e+03 2.4234853614e+03 0.0000000000e+00 0.0000e+00 1.0000e+00
       13  1    1    2    0    0 +7.7661774493e+02 -1.9369263375e+03 +3.2639961221e+03 3.8740791736e+03 0.0000000000e+00 0.0000e+00 -1.0000e+00
<mgrwt>
<rscale>  0 0.59608191E+04</rscale>
<asrwt>0</asrwt>
<pdfrwt beam="1">  1        2 0.64071550E+00 0.59608191E+04</pdfrwt>
<pdfrwt beam="2">  1       -2 0.32814058E+00 0.59608191E+04</pdfrwt>
<totfact> 0.28934483E-03</totfact>
</mgrwt>
<rwgt>
<wgt id='morphing_basis_vector_1'> +1.5388143e-06 </wgt>
<wgt id='morphing_basis_vector_2'> +1.0500873e-06 </wgt>
<wgt id='morphing_basis_vector_3'> +1.6990252e-06 </wgt>
<wgt id='morphing_basis_vector_4'> +1.2250116e-06 </wgt>
<wgt id='morphing_basis_vector_5'> +1.9588005e-06 </wgt>
</rwgt>
</event>
<event>
 4      1 +9.0096000e-12 5.80716300e+03 7.81860800e-03 7.28340300e-02
        2 -1    0    0  501    0 +0.0000000000e+00 +0.0000000000e+00 +5.1999256475e+03 5.1999256475e+03 0.0000000000e+00 0.0000e+00 1.0000e+00
       -2 -1    0    0    0  501 -0.0000000000e+00 -0.0000000000e+00 -1.6213279595e+03 1.6213279595e+03 0.0000000000e+00 0.0000e+00 -1.0000e+00
      -13  1    1    2    0    0 -1.4532019523e+03 -6.0718352900e+02 +4.6545998522e+03 4.9138343009e+03 0.0000000000e+00 0.0000e+00 1.0000e+00
       13  1    1    2    0    0 +1.4532019523e+03 +6.0718352900e+02 -1.0760021642e+03 1.9074193061e+03 0.0000000000e+00 0.0000e+00 -1.0000e+00
<mgrwt>
<rscale>  0 0.58071628E+04</rscale>
<asrwt>0</asrwt>
<pdfrwt beam="1">  1        2 0.79998855E+00 0.58071628E+04</pdfrwt>
<pdfrwt beam="2">  1       -2 0.24943507E+00 0.58071628E+04</pdfrwt>
<totfact> 0.63821183E-04</totfact>
</mgrwt>
<rwgt>
<wgt id='morphing_basis_vector_1'> +1.8658692e-06 </wgt>
<wgt id='morphing_basis_vector_2'> +2.3531065e-06 </wgt>
<wgt id='morphing_basis_vector_3'> +2.3124819e-06 </wgt>
<wgt id='morphing_basis_vector_4'> +7.8471125e-08 </wgt>
<wgt id='morphing_basis_vector_5'> +1.6779296e-06 </wgt>
</rwgt>
</event>
<event>
 4      1 +9.0096000e-12 5.66256300e+03 7.81860800e-03 7.30023900e-02
        2 -1    0    0  501    0 +0.0000000000e+00 +0.0000000000e+00 +3.6886897528e+03 3.6886897528e+03 0.0000000000e+00 0.0000e+00 1.0000e+00
       -2 -1    0    0    0  501 -0.0000000000e+00 -0.0000000000e+00 -2.1731713264e+03 2.1731713264e+03 0.0000000000e+00 0.0000e+00 -1.0000e+00
      -13  1    1    2    0    0 +1.6972353354e+02 +7.1154037637e+02 -2.0736589841e+03 2.1988991263e+03 0.0000000000e+00 0.0000e+00 -1.0000e+00
       13  1    1    2    0    0 -1.6972353354e+02 -7.1154037637e+02 +3.5891774105e+03 3.6629619530e+03 0.0000000000e+00 0.0000e+00 1.0000e+00
<mgrwt>
<rscale>  0 0.56625630E+04</rscale>
<asrwt>0</asrwt>
<pdfrwt beam="1">  1        2 0.56749073E+00 0.56625630E+04</pdfrwt>
<pdfrwt beam="2">  1       -2 0.33433405E+00 0.56625630E+04</pdfrwt>
<totfact> 0.67226209E-03</totfact>
</mgrwt>
<rwgt>
<wgt id='morphing_basis_vector_1'> +1.2524046e-06 </wgt>
<wgt id='morphing_basis_vector_2'> +8.5121417e-07 </wgt>
<wgt id='morphing_basis_vector_3'> +1.3814076e-06 </wgt>
<wgt id='morphing_basis_vector_4'> +1.0001624e-06 </wgt>
<wgt id='morphing_basis_vector_5'> +1.5946966e-06 </wgt>
</rwgt>
</event>
<event>
 4      1 +9.0096000e-12 5.59756500e+03 7.81860800e-03 7.30797400e-02
        2 -1    0    0  501    0 +0.0000000000e+00 +0.0000000000e+00 +4.1440086446e+03 4.1440086446e+03 0.0000000000e+00 0.0000e+00 1.0000e+00
       -2 -1    0    0    0  501 -0.0000000000e+00 -0.0000000000e+00 -1.8902428153e+03 1.8902428153e+03 0.0000000000e+00 0.0000e+00 -1.0000e+00
      -13  1    1    2    0    0 +1.8862348299e+03 -2.0656259209e+03 +1.2262140732e+03 3.0542254717e+03 0.0000000000e+00 0.0000e+00 1.0000e+00
       13  1    1    2    0    0 -1.8862348299e+03 +2.0656259209e+03 +1.0275517561e+03 2.9800259882e+03 0.0000000000e+00 0.0000e+00 -1.0000e+00
<mgrwt>
<rscale>  0 0.55975647E+04</rscale>
<asrwt>0</asrwt>
<pdfrwt beam="1">  1        2 0.63753979E+00 0.55975647E+04</pdfrwt>
<pdfrwt beam="2">  1       -2 0.29080659E+00 0.55975647E+04</pdfrwt>
<totfact> 0.55156660E-03</totfact>
</mgrwt>
<rwgt>
<wgt id='morphing_basis_vector_1'> +1.2455541e-06 </wgt>
<wgt id='morphing_basis_vector_2'> +9.5823326e-07 </wgt>
<wgt id='morphing_basis_vector_3'> +1.3997771e-06 </wgt>
<wgt id='morphing_basis_vector_4'> +8.4911393e-07 </wgt>
<wgt id='morphing_basis_vector_5'> +1.5136630e-06 </wgt>
</rwgt>
</event>
<event>
 4      1 +9.0096000e-12 6.30929800e+03 7.81860800e-03 7.22860000e-02
        2 -1    0    0  501    0 +0.0000000000e+00 +0.0000000000e+00 +1.8237889284e+03 1.8237889284e+03 0.0000000000e+00 0.0000e+00 -1.0000e+00
       -2 -1    0    0    0  501 -0.0000000000e+00 -0.0000000000e+00 -5.4566674700e+03 5.4566674700e+03 0.0000000000e+00 0.0000e+00 1.0000e+00
      -13  1    1    2    0    0 -6.8457271362e+02 -1.1866444283e+03 -5.0955044641e+03 5.2764505629e+03 0.0000000000e+00 0.0000e+00 1.0000e+00
       13  1    1    2    0    0 +6.8457271362e+02 +1.1866444283e+03 +1.4626259225e+03 2.0040058355e+03 0.0000000000e+00 0.0000e+00 -1.0000e+00
<mgrwt>
<rscale>  0 0.63092978E+04</rscale>
<asrwt>0</asrwt>
<pdfrwt beam="1">  1        2 0.28058292E+00 0.63092978E+04</pdfrwt>
<pdfrwt beam="2">  1       -2 0.83948729E+00 0.63092978E+04</pdfrwt>
<totfact> 0.47117832E-04</totfact>
</mgrwt>
<rwgt>
<wgt id='morphing_basis_vector_1'> +1.9285295e-06 </wgt>
<wgt id='morphing_basis_vector_2'> +1.3119793e-06 </wgt>
<wgt id='morphing_basis_vector_3'> +2.1292613e-06 </wgt>
<wgt id='morphing_basis_vector_4'> +1.5425362e-06 </wgt>
<wgt id='morphing_basis_vector_5'> +2.4601482e-06 </wgt>
</rwgt>
</event>
<event>
 4      1 +9.0096000e-12 5.80785600e+03 7.81860800e-03 7.28332400e-02
        2 -1    0    0  501    0 +0.0000000000e+00 +0.0000000000e+00 +3.6795829231e+03 3.6795829231e+03 0.0000000000e+00 0.0000e+00 -1.0000e+00
       -2 -1    0    0    0  501 -0.0000000000e+00 -0.0000000000e+00 -2.2917805571e+03 2.2917805571e+03 0.0000000000e+00 0.0000e+00 1.0000e+00
      -13  1    1    2    0    0 -4.7276791701e+02 -6.4144976956e+02 -2.1771739729e+03 2.3184162307e+03 0.0000000000e+00 0.0000e+00 1.0000e+00
       13  1    1    2    0    0 +4.7276791701e+02 +6.4144976956e+02 +3.5649763390e+03 3.6529472495e+03 0.0000000000e+00 0.0000e+00 -1.0000e+00
<mgrwt>
<rscale>  0 0.58078556E+04</rscale>
<asrwt>0</asrwt>
<pdfrwt beam="1">  1        2 0.56608968E+00 0.58078556E+04</pdfrwt>
<pdfrwt beam="2">  1       -2 0.35258162E+00 0.58078556E+04</pdfrwt>
<totfact> 0.51394522E-03</totfact>
</mgrwt>
<rwgt>
<wgt id='morphing_basis_vector_1'> +1.3856296e-06 </wgt>
<wgt id='morphing_basis_vector_2'> +9.4191843e-07 </wgt>
<wgt id='morphing_basis_vector_3'> +1.5287196e-06 </wgt>
<wgt id='morphing_basis_vector_4'> +1.1070857e-06 </wgt>
<wgt id='morphing_basis_vector_5'> +1.7652042e-06 </wgt>
</rwgt>
</event>
<event>
 4      1 +9.0096000e-12 5.72265900e+03 7.81860800e-03 7.29318000e-02
        2 -1    0    0  501    0 +0.0000000000e+00 +0.0000000000e+00 +2.9877126040e+03 2.9877126040e+03 0.0000000000e+00 0.0000e+00 1.0000e+00
       -2 -1    0    0    0  501 -0.0000000000e+00 -0.0000000000e+00 -2.7402925114e+03 2.7402925114e+03 0.0000000000e+00 0.0000e+00 -1.0000e+00
      -13  1    1    2    0    0 -1.3989165619e+03 +2.4901715722e+03 +2.9499696865e+02 2.8714012638e+03 0.0000000000e+00 0.0000e+00 -1.0000e+00
       13  1    1    2    0    0 +1.3989165619e+03 -2.4901715722e+03 -4.7576876127e+01 2.8566038516e+03 0.0000000000e+00 0.0000e+00 1.0000e+00
<mgrwt>
<rscale>  0 0.57226590E+04</rscale>
<asrwt>0</asrwt>
<pdfrwt beam="1">  1        2 0.45964810E+00 0.57226590E+04</pdfrwt>
<pdfrwt beam="2">  1       -2 0.42158346E+00 0.57226590E+04</pdfrwt>
<totfact> 0.56649555E-03</totfact>
</mgrwt>
<rwgt>
<wgt id='morphing_basis_vector_1'> +1.3657801e-06 </wgt>
<wgt id='morphing_basis_vector_2'> +1.0625454e-06 </wgt>
<wgt id='morphing_basis_vector_3'> +1.5379944e-06 </wgt>
<wgt id='morphing_basis_vector_4'> +9.1624861e-07 </wgt>
<wgt id='morphing_basis_vector_5'> +1.6529633e-06 </wgt>
</rwgt>
</event>
<event>
 4      1 +9.0096000e-12 5.76265000e+03 7.81860800e-03 7.28853200e-02
        2 -1    0    0  501    0 +0.0000000000e+00 +0.0000000000e+00 +3.4161639824e+03 3.4161639824e+03 0.0000000000e+00 0.0000e+00 -1.0000e+00
       -2 -1    0    0    0  501 -0.0000000000e+00 -0.0000000000e+00 -2.4302212565e+03 2.4302212565e+03 0.0000000000e+00 0.0000e+00 1.0000e+00
      -13  1    1    2    0    0 +1.7274736428e+03 -1.4785827815e+03 -1.3023930775e+03 2.6204198054e+03 0.0000000000e+00 0.0000e+00 1.0000e+00
       13  1    1    2    0    0 -1.7274736428e+03 +1.4785827815e+03 +2.2883358035e+03 3.2259654334e+03 0.0000000000e+00 0.0000e+00 -1.0000e+00
<mgrwt>
<rscale>  0 0.57626502E+04</rscale>
<asrwt>0</asrwt>
<pdfrwt beam="1">  1        2 0.52556369E+00 0.57626502E+04</pdfrwt>
<pdfrwt beam="2">  1       -2 0.37388019E+00 0.57626502E+04</pdfrwt>
<totfact> 0.59052634E-03</totfact>
</mgrwt>
<rwgt>
<wgt id='morphing_basis_vector_1'> +1.3461894e-06 </wgt>
<wgt id='morphing_basis_vector_2'> +9.2204826e-07 </wgt>
<wgt id='morphing_basis_vector_3'> +1.4867338e-06 </wgt>
<wgt id='morphing_basis_vector_4'> +1.0663233e-06 </wgt>
<wgt id='morphing_basis_vector_5'> +1.7102019e-06 </wgt>
</rwgt>
</event>
<event>
 4      1 +9.0096000e-12 5.73459800e+03 7.81860800e-03 7.29178900e-02
        2 -1    0    0  501    0 +0.0000000000e+00 +0.0000000000e+00 +3.2188690325e+03 3.2188690325e+03 0.0000000000e+00 0.0000e+00 1.0000e+00
       -2 -1    0    0    0  501 -0.0000000000e+00 -0.0000000000e+00 -2.5541279270e+03 2.5541279270e+03 0.0000000000e+00 0.0000e+00 -1.0000e+00
      -13  1    1    2    0    0 +1.2945543743e+03 -1.8481039874e+03 -1.4486690324e+03 2.6814177857e+03 0.0000000000e+00 0.0000e+00 -1.0000e+00
       13  1    1    2    0    0 -1.2945543743e+03 +1.8481039874e+03 +2.1134101379e+03 3.0915791737e+03 0.0000000000e+00 0.0000e+00 1.0000e+00
<mgrwt>
<rscale>  0 0.57345979E+04</rscale>
<asrwt>0</asrwt>
<pdfrwt beam="1">  1        2 0.49521062E+00 0.57345979E+04</pdfrwt>
<pdfrwt beam="2">  1       -2 0.39294276E+00 0.57345979E+04</pdfrwt>
<totfact> 0.61229611E-03</totfact>
</mgrwt>
<rwgt>
<wgt id='morphing_basis_vector_1'> +1.3201764e-06 </wgt>
<wgt id='morphing_basis_vector_2'> +9.0408056e-07 </wgt>
<wgt id='morphing_basis_vector_3'> +1.4579093e-06 </wgt>
<wgt id='morphing_basis_vector_4'> +1.0457813e-06 </wgt>
<wgt id='morphing_basis_vector_5'> +1.6770750e-06 </wgt>
</rwgt>
</event>
<event>
 4      1 +9.0096000e-12 6.19707200e+03 7.81860800e-03 7.24038700e-02
        2 -1    0    0  501    0 +0.0000000000e+00 +0.0000000000e+00 +2.9867804572e+03 2.9867804572e+03 0.0000000000e+00 0.0000e+00 1.0000e+00
       -2 -1    0    0    0  501 -0.0000000000e+00 -0.0000000000e+00 -3.2144728424e+03 3.2144728424e+03 0.0000000000e+00 0.0000e+00 -1.0000e+00
      -13  1    1    2    0    0 +2.8199090377e+02 +1.0503774081e+03 -3.0172024044e+03 3.2072296329e+03 0.0000000000e+00 0.0000e+00 -1.0000e+00
       13  1    1    2    0    0 -2.8199090377e+02 -1.0503774081e+03 +2.7895100192e+03 2.9940236666e+03 0.0000000000e+00 0.0000e+00 1.0000e+00
<mgrwt>
<rscale>  0 0.61970718E+04</rscale>
<asrwt>0</asrwt>
<pdfrwt beam="1">  1        2 0.45950469E+00 0.61970718E+04</pdfrwt>
<pdfrwt beam="2">  1       -2 0.49453428E+00 0.61970718E+04</pdfrwt>
<totfact> 0.16639035E-03</totfact>
</mgrwt>
<rwgt>
<wgt id='morphing_basis_vector_1'> +1.7950837e-06 </wgt>
<wgt id='morphing_basis_vector_2'> +1.2208118e-06 </wgt>
<wgt id='morphing_basis_vector_3'> +1.9815819e-06 </wgt>
<wgt id='morphing_basis_vector_4'> +1.4357331e-06 </wgt>
<wgt id='morphing_basis_vector_5'> +2.2894135e-06 </wgt>
</rwgt>
</event>
<event>
 4      1 +9.0096000e-12 5.73559100e+03 7.81860800e-03 7.29167300e-02
        2 -1    0    0  501    0 +0.0000000000e+00 +0.0000000000e+00 +3.5897392261e+03 3.5897392261e+03 0.0000000000e+00 0.0000e+00 1.0000e+00
       -2 -1    0    0    0  501 -0.0000000000e+00 -0.0000000000e+00 -2.2910439334e+03 2.2910439334e+03 0.0000000000e+00 0.0000e+00 -1.0000e+00
      -13  1    1    2    0    0 +2.7163644255e+02 -2.6139543919e+03 -5.2762489776e+02 2.6804723375e+03 0.0000000000e+00 0.0000e+00 -1.0000e+00
       13  1    1    2    0    0 -2.7163644255e+02 +2.6139543919e+03 +1.8263201905e+03 3.2003108220e+03 0.0000000000e+00 0.0000e+00 1.0000e+00
<mgrwt>
<rscale>  0 0.57355907E+04</rscale>
<asrwt>0</asrwt>
<pdfrwt beam="1">  1        2 0.55226757E+00 0.57355907E+04</pdfrwt>
<pdfrwt beam="2">  1       -2 0.35246830E+00 0.57355907E+04</pdfrwt>
<totfact> 0.60591326E-03</totfact>
</mgrwt>
<rwgt>
<wgt id='morphing_basis_vector_1'> +1.3277719e-06 </wgt>
<wgt id='morphing_basis_vector_2'> +9.2432510e-07 </wgt>
<wgt id='morphing_basis_vector_3'> +1.4698174e-06 </wgt>
<wgt id='morphing_basis_vector_4'> +1.0322230e-06 </wgt>
<wgt id='morphing_basis_vector_5'> +1.6770389e-06 </wgt>
</rwgt>
</event>
<event>
 4      1 +9.0096000e-12 6.17797700e+03 7.81860800e-03 7.24241800e-02
        2 -1    0    0  501    0 +0.0000000000e+00 +0.0000000000e+00 +4.6510267933e+03 4.6510267933e+03 0.0000000000e+00 0.0000e+00 1.0000e+00
       -2 -1    0    0    0  501 -0.0000000000e+00 -0.0000000000e+00 -2.0515575838e+03 2.0515575838e+03 0.0000000000e+00 0.0000e+00 -1.0000e+00
      -13  1    1    2    0    0 +2.3403983186e+03 -1.7931605861e+03 +3.0010373095e+02 2.9636044653e+03 0.0000000000e+00 0.0000e+00 -1.0000e+00
       13  1    1    2    0    0 -2.3403983186e+03 +1.7931605861e+03 +2.2993654785e+03 3.7389799118e+03 0.0000000000e+00 0.0000e+00 1.0000e+00
<mgrwt>
<rscale>  0 0.61779768E+04</rscale>
<asrwt>0</asrwt>
<pdfrwt beam="1">  1        2 0.71554258E+00 0.61779768E+04</pdfrwt>
<pdfrwt beam="2">  1       -2 0.31562424E+00 0.61779768E+04</pdfrwt>
<totfact> 0.11245340E-03</totfact>
</mgrwt>
<rwgt>
<wgt id='morphing_basis_vector_1'> +1.7935443e-06 </wgt>
<wgt id='morphing_basis_vector_2'> +1.2658273e-06 </wgt>
<wgt id='morphing_basis_vector_3'> +1.9906703e-06 </wgt>
<wgt id='morphing_basis_vector_4'> +1.3743453e-06 </wgt>
<wgt id='morphing_basis_vector_5'> +2.2575879e-06 </wgt>
</rwgt>
</event>
<event>
 4      1 +9.0096000e-12 5.65122200e+03 7.81860800e-03 7.30158100e-02
        2 -1    0    0  501    0 +0.0000000000e+00 +0.0000000000e+00 +2.8323970596e+03 2.8323970596e+03 0.0000000000e+00 0.0000e+00 -1.0000e+00
       -2 -1    0    0    0  501 -0.0000000000e+00 -0.0000000000e+00 -2.8188414284e+03 2.8188414284e+03 0.0000000000e+00 0.0000e+00 1.0000e+00
      -13  1    1    2    0    0 +4.8613750424e+02 +1.2956967183e+03 -2.4567467802e+03 2.8197099852e+03 0.0000000000e+00 0.0000e+00 1.0000e+00
       13  1    1    2    0    0 -4.8613750424e+02 -1.2956967183e+03 +2.4703024114e+03 2.8315285029e+03 0.0000000000e+00 0.0000e+00 -1.0000e+00
<mgrwt>
<rscale>  0 0.56512222E+04</rscale>
<asrwt>0</asrwt>
<pdfrwt beam="1">  1        2 0.43575339E+00 0.56512222E+04</pdfrwt>
<pdfrwt beam="2">  1       -2 0.43366791E+00 0.56512222E+04</pdfrwt>
<totfact> 0.59436947E-03</totfact>
</mgrwt>
<rwgt>
<wgt id='morphing_basis_vector_1'> +1.2426500e-06 </wgt>
<wgt id='morphing_basis_vector_2'> +8.4507622e-07 </wgt>
<wgt id='morphing_basis_vector_3'> +1.3707392e-06 </wgt>
<wgt id='morphing_basis_vector_4'> +9.9167899e-07 </wgt>
<wgt id='morphing_basis_vector_5'> +1.5818883e-06 </wgt>
</rwgt>
</event>
<event>
 4      1 +9.0096000e-12 6.12079500e+03 7.81860800e-03 7.24854400e-02
        2 -1    0    0  501    0 +0.0000000000e+00 +0.0000000000e+00 +1.9723740963e+03 1.9723740963e+03 0.0000000000e+00 0.0000e+00 -1.0000e+00
       -2 -1    0    0    0  501 -0.0000000000e+00 -0.0000000000e+00 -4.7486092936e+03 4.7486092936e+03 0.0000000000e+00 0.0000e+00 1.0000e+00
      -13  1    1    2    0    0 +2.0861608113e+03 +1.9699778868e+03 -2.1923885520e+02 2.8776631979e+03 0.0000000000e+00 0.0000e+00 1.0000e+00
       13  1    1    2    0    0 -2.0861608113e+03 -1.9699778868e+03 -2.5569963421e+03 3.8433201920e+03 0.0000000000e+00 0.0000e+00 -1.0000e+00
<mgrwt>
<rscale>  0 0.61207954E+04</rscale>
<asrwt>0</asrwt>
<pdfrwt beam="1">  1        2 0.30344217E+00 0.61207954E+04</pdfrwt>
<pdfrwt beam="2">  1       -2 0.73055527E+00 0.61207954E+04</pdfrwt>
<totfact> 0.36763088E-04</totfact>
</mgrwt>
<rwgt>
<wgt id='morphing_basis_vector_1'> +1.9112805e-06 </wgt>
<wgt id='morphing_basis_vector_2'> +1.7570075e-06 </wgt>
<wgt id='morphing_basis_vector_3'> +2.2170988e-06 </wgt>
<wgt id='morphing_basis_vector_4'> +9.3228910e-07 </wgt>
<wgt id='morphing_basis_vector_5'> +2.1420272e-06 </wgt>
</rwgt>
</event>
<event>
 4      1 +9.0096000e-12 5.57926300e+03 7.81860800e-03 7.31017200e-02
        2 -1    0    0  501    0 +0.0000000000e+00 +0.0000000000e+00 +3.0400550923e+03 3.0400550923e+03 0.0000000000e+00 0.0000e+00 -1.0000e+00
       -2 -1    0    0    0  501 -0.0000000000e+00 -0.0000000000e+00 -2.5598363794e+03 2.5598363794e+03 0.0000000000e+00 0.0000e+00 1.0000e+00
      -13  1    1    2    0    0 -2.7789044695e+03 -2.3873964832e+02 +2.9261866014e+02 2.8044486714e+03 0.0000000000e+00 0.0000e+00 1.0000e+00
       13  1    1    2    0    0 +2.7789044695e+03 +2.3873964832e+02 +1.8760005275e+02 2.7954428003e+03 0.0000000000e+00 0.0000e+00 -1.0000e+00
<mgrwt>
<rscale>  0 0.55792629E+04</rscale>
<asrwt>0</asrwt>
<pdfrwt beam="1">  1        2 0.46770078E+00 0.55792629E+04</pdfrwt>
<pdfrwt beam="2">  1       -2 0.39382098E+00 0.55792629E+04</pdfrwt>
<totfact> 0.80567644E-03</totfact>
</mgrwt>
<rwgt>
<wgt id='morphing_basis_vector_1'> +1.2269762e-06 </wgt>
<wgt id='morphing_basis_vector_2'> +9.3870381e-07 </wgt>
<wgt id='morphing_basis_vector_3'> +1.3776303e-06 </wgt>
<wgt id='morphing_basis_vector_4'> +8.4318461e-07 </wgt>
<wgt id='morphing_basis_vector_5'> +1.4943470e-06 </wgt>
</rwgt>
</event>
<event>
 4      1 +9.0096000e-12 5.77125400e+03 7.81860800e-03 7.28753700e-02
        2 -1    0    0  501    0 +0.0000000000e+00 +0.0000000000e+00 +3.4511780104e+03 3.4511780104e+03 0.0000000000e+00 0.0000e+00 1.0000e+00
       -2 -1    0    0    0  501 -0.0000000000e+00 -0.0000000000e+00 -2.4127535640e+03 2.4127535640e+03 0.0000000000e+00 0.0000e+00 -1.0000e+00
      -13  1    1    2    0    0 +1.2979985732e+02 -2.8152041574e+03 -1.1092398815e+02 2.8203770284e+03 0.0000000000e+00 0.0000e+00 -1.0000e+00
       13  1    1    2    0    0 -1.2979985732e+02 +2.8152041574e+03 +1.1493484346e+03 3.0435545461e+03 0.0000000000e+00 0.0000e+00 1.0000e+00
<mgrwt>
<rscale>  0 0.57712536E+04</rscale>
<asrwt>0</asrwt>
<pdfrwt beam="1">  1        2 0.53095046E+00 0.57712536E+04</pdfrwt>
<pdfrwt beam="2">  1       -2 0.37119286E+00 0.57712536E+04</pdfrwt>
<totfact> 0.57942742E-03</totfact>
</mgrwt>
<rwgt>
<wgt id='morphing_basis_vector_1'> +1.3731382e-06 </wgt>
<wgt id='morphing_basis_vector_2'> +9.8307539e-07 </wgt>
<wgt id='morphing_basis_vector_3'> +1.5264755e-06 </wgt>
<wgt id='morphing_basis_vector_4'> +1.0322955e-06 </wgt>
<wgt id='morphing_basis_vector_5'> +1.7170641e-06 </wgt>
</rwgt>
</event>
<event>
 4      1 +9.0096000e-12 5.79880500e+03 7.81860800e-03 7.28436300e-02
        2 -1    0    0  501    0 +0.0000000000e+00 +0.0000000000e+00 +4.0231043808e+03 4.0231043808e+03 0.0000000000e+00 0.0000e+00 -1.0000e+00
       -2 -1    0    0    0  501 -0.0000000000e+00 -0.0000000000e+00 -2.0895638424e+03 2.0895638424e+03 0.0000000000e+00 0.0000e+00 1.0000e+00
      -13  1    1    2    0    0 +5.8281880059e+02 -2.7587539870e+03 +2.5483962041e+02 2.8311383837e+03 0.0000000000e+00 0.0000e+00 1.0000e+00
       13  1    1    2    0    0 -5.8281880059e+02 +2.7587539870e+03 +1.6787009180e+03 3.2815298395e+03 0.0000000000e+00 0.0000e+00 -1.0000e+00
<mgrwt>
<rscale>  0 0.57988045E+04</rscale>
<asrwt>0</asrwt>
<pdfrwt beam="1">  1        2 0.61893914E+00 0.57988045E+04</pdfrwt>
<pdfrwt beam="2">  1       -2 0.32147136E+00 0.57988045E+04</pdfrwt>
<totfact> 0.43210934E-03</totfact>
</mgrwt>
<rwgt>
<wgt id='morphing_basis_vector_1'> +1.3979070e-06 </wgt>
<wgt id='morphing_basis_vector_2'> +9.9733958e-07 </wgt>
<wgt id='morphing_basis_vector_3'> +1.5532639e-06 </wgt>
<wgt id='morphing_basis_vector_4'> +1.0555612e-06 </wgt>
<wgt id='morphing_basis_vector_5'> +1.7504490e-06 </wgt>
</rwgt>
</event>
<event>
 4      1 +9.0096000e-12 5.68999000e+03 7.81860800e-03 7.29700600e-02
        2 -1    0    0  501    0 +0.0000000000e+00 +0.0000000000e+00 +3.3119507582e+03 3.3119507582e+03 0.0000000000e+00 0.0000e+00 1.0000e+00
       -2 -1    0    0    0  501 -0.0000000000e+00 -0.0000000000e+00 -2.4438756380e+03 2.4438756380e+03 0.0000000000e+00 0.0000e+00 -1.0000e+00
      -13  1    1    2    0    0 -1.2078698408e+02 +1.0976456990e+03 -2.2182419829e+03 2.4779049761e+03 0.0000000000e+00 0.0000e+00 -1.0000e+00
       13  1    1    2    0    0 +1.2078698408e+02 -1.0976456990e+03 +3.0863171031e+03 3.2779214202e+03 0.0000000000e+00 0.0000e+00 1.0000e+00
<mgrwt>
<rscale>  0 0.56899897E+04</rscale>
<asrwt>0</asrwt>
<pdfrwt beam="1">  1        2 0.50953089E+00 0.56899897E+04</pdfrwt>
<pdfrwt beam="2">  1       -2 0.37598086E+00 0.56899897E+04</pdfrwt>
<totfact> 0.68210743E-03</totfact>
</mgrwt>
<rwgt>
<wgt id='morphing_basis_vector_1'> +1.2768540e-06 </wgt>
<wgt id='morphing_basis_vector_2'> +8.6801841e-07 </wgt>
<wgt id='morphing_basis_vector_3'> +1.4084778e-06 </wgt>
<wgt id='morphing_basis_vector_4'> +1.0195760e-06 </wgt>
<wgt id='morphing_basis_vector_5'> +1.6258820e-06 </wgt>
</rwgt>
</event>
<event>
 4      1 +9.0096000e-12 5.67534100e+03 7.81860800e-03 7.29873000e-02
        2 -1    0    0  501    0 +0.0000000000e+00 +0.0000000000e+00 +4.5358102328e+03 4.5358102328e+03 0.0000000000e+00 0.0000e+00 -1.0000e+00
       -2 -1    0    0    0  501 -0.0000000000e+00 -0.0000000000e+00 -1.7752889836e+03 1.7752889836e+03 0.0000000000e+00 0.0000e+00 1.0000e+00
      -13  1    1    2    0    0 +1.0081514269e+03 +2.3828738847e+03 +8.4425917817e+01 2.5887419697e+03 0.0000000000e+00 0.0000e+00 1.0000e+00
       13  1    1    2    0    0 -1.0081514269e+03 -2.3828738847e+03 +2.6760953314e+03 3.7223572468e+03 0.0000000000e+00 0.0000e+00 -1.0000e+00
<mgrwt>
<rscale>  0 0.56753410E+04</rscale>
<asrwt>0</asrwt>
<pdfrwt beam="1">  1        2 0.69781695E+00 0.56753410E+04</pdfrwt>
<pdfrwt beam="2">  1       -2 0.27312138E+00 0.56753410E+04</pdfrwt>
<totfact> 0.30119952E-03</totfact>
</mgrwt>
<rwgt>
<wgt id='morphing_basis_vector_1'> +1.2725485e-06 </wgt>
<wgt id='morphing_basis_vector_2'> +8.8483727e-07 </wgt>
<wgt id='morphing_basis_vector_3'> +1.4083113e-06 </wgt>
<wgt id='morphing_basis_vector_4'> +9.9037399e-07 </wgt>
<wgt id='morphing_basis_vector_5'> +1.6075897e-06 </wgt>
</rwgt>
</event>
<event>
 4      1 +9.0096000e-12 6.24777500e+03 7.81860800e-03 7.23503100e-02
        2 -1    0    0  501    0 +0.0000000000e+00 +0.0000000000e+00 +2.7158148482e+03 2.7158148482e+03 0.0000000000e+00 0.0000e+00 -1.0000e+00
       -2 -1    0    0    0  501 -0.0000000000e+00 -0.0000000000e+00 -3.5932757527e+03 3.5932757527e+03 0.0000000000e+00 0.0000e+00 1.0000e+00
      -13  1    1    2    0    0 -1.1124544071e+03 +3.5256673431e+02 -3.3648945016e+03 3.5615127568e+03 0.0000000000e+00 0.0000e+00 1.0000e+00
       13  1    1    2    0    0 +1.1124544071e+03 -3.5256673431e+02 +2.4874335970e+03 2.7475778441e+03 0.0000000000e+00 0.0000e+00 -1.0000e+00
<mgrwt>
<rscale>  0 0.62477745E+04</rscale>
<asrwt>0</asrwt>
<pdfrwt beam="1">  1        2 0.41781767E+00 0.62477745E+04</pdfrwt>
<pdfrwt beam="2">  1       -2 0.55281166E+00 0.62477745E+04</pdfrwt>
<totfact> 0.91684559E-04</totfact>
</mgrwt>
<rwgt>
<wgt id='morphing_basis_vector_1'> +1.8544528e-06 </wgt>
<wgt id='morphing_basis_vector_2'> +1.2612976e-06 </wgt>
<wgt id='morphing_basis_vector_3'> +2.0472649e-06 </wgt>
<wgt id='morphing_basis_vector_4'> +1.4833430e-06 </wgt>
<wgt id='morphing_basis_vector_5'> +2.3654166e-06 </wgt>
</rwgt>
</event>
<event>
 4      1 +9.0096000e-12 5.55463300e+03 7.81860800e-03 7.31314300e-02
        2 -1    0    0  501    0 +0.0000000000e+00 +0.0000000000e+00 +3.3792385015e+03 3.3792385015e+03 0.0000000000e+00 0.0000e+00 1.0000e+00
       -2 -1    0    0    0  501 -0.0000000000e+00 -0.0000000000e+00 -2.2826109988e+03 2.2826109988e+03 0.0000000000e+00 0.0000e+00 -1.0000e+00
      -13  1    1    2    0    0 -2.7132981752e+03 -2.6451091224e+02 +7.4743224366e+00 2.7261711017e+03 0.0000000000e+00 0.0000e+00 -1.0000e+00
       13  1    1    2    0    0 +2.7132981752e+03 +2.6451091224e+02 +1.0891531802e+03 2.9356783986e+03 0.0000000000e+00 0.0000e+00 1.0000e+00
<mgrwt>
<rscale>  0 0.55546330E+04</rscale>
<asrwt>0</asrwt>
<pdfrwt beam="1">  1        2 0.51988285E+00 0.55546330E+04</pdfrwt>
<pdfrwt beam="2">  1       -2 0.35117092E+00 0.55546330E+04</pdfrwt>
<totfact> 0.89245814E-03</totfact>
</mgrwt>
<rwgt>
<wgt id='morphing_basis_vector_1'> +1.1806452e-06 </wgt>
<wgt id='morphing_basis_vector_2'> +8.4926396e-07 </wgt>
<wgt id='morphing_basis_vector_3'> +1.3129560e-06 </wgt>
<wgt id='morphing_basis_vector_4'> +8.8146618e-07 </wgt>
<wgt id='morphing_basis_vector_5'> +1.4725295e-06 </wgt>
</rwgt>
</event>
<event>
 4      1 +9.0096000e-12 5.78574400e+03 7.81860800e-03 7.28586500e-02
        2 -1    0    0  501    0 +0.0000000000e+00 +0.0000000000e+00 +2.4274250524e+03 2.4274250524e+03 0.0000000000e+00 0.0000e+00 -1.0000e+00
       -2 -1    0    0    0  501 -0.0000000000e+00 -0.0000000000e+00 -3.4475656121e+03 3.4475656121e+03 0.0000000000e+00 0.0000e+00 1.0000e+00
      -13  1    1    2    0    0 -1.2715048965e+03 +2.5961614754e+03 -6.2097047997e+02 2.9567521785e+03 0.0000000000e+00 0.0000e+00 -1.0000e+00
       13  1    1    2    0    0 +1.2715048965e+03 -2.5961614754e+03 -3.9917007971e+02 2.9182384859e+03 0.0000000000e+00 0.0000e+00 1.0000e+00
<mgrwt>
<rscale>  0 0.57857436E+04</rscale>
<asrwt>0</asrwt>
<pdfrwt beam="1">  1        2 0.37345001E+00 0.57857436E+04</pdfrwt>
<pdfrwt beam="2">  1       -2 0.53039470E+00 0.57857436E+04</pdfrwt>
<totfact> 0.20548149E-03</totfact>
</mgrwt>
<rwgt>
<wgt id='morphing_basis_vector_1'> +1.4084879e-06 </wgt>
<wgt id='morphing_basis_vector_2'> +1.0562090e-06 </wgt>
<wgt id='morphing_basis_vector_3'> +1.5770001e-06 </wgt>
<wgt id='morphing_basis_vector_4'> +9.9667647e-07 </wgt>
<wgt id='morphing_basis_vector_5'> +1.7305434e-06 </wgt>
</rwgt>
</event>
<event>
 4      1 +9.0096000e-12 5.80451400e+03 7.81860800e-03 7.28370700e-02
        2 -1    0    0  501    0 +0.0000000000e+00 +0.0000000000e+00 +4.0260474160e+03 4.0260474160e+03 0.0000000000e+00 0.0000e+00 -1.0000e+00
       -2 -1    0    0    0  501 -0.0000000000e+00 -0.0000000000e+00 -2.0921499028e+03 2.0921499028e+03 0.0000000000e+00 0.0000e+00 1.0000e+00
      -13  1    1    2    0    0 +1.6754457542e+03 -8.2667704964e+02 -1.3740154176e+03 2.3191446241e+03 0.0000000000e+00 0.0000e+00 1.0000e+00
       13  1    1    2    0    0 -1.6754457542e+03 +8.2667704964e+02 +3.3079129308e+03 3.7990526948e+03 0.0000000000e+00 0.0000e+00 -1.0000e+00
<mgrwt>
<rscale>  0 0.58045137E+04</rscale>
<asrwt>0</asrwt>
<pdfrwt beam="1">  1        2 0.61939191E+00 0.58045137E+04</pdfrwt>
<pdfrwt beam="2">  1       -2 0.32186922E+00 0.58045137E+04</pdfrwt>
<totfact> 0.42681122E-03</totfact>
</mgrwt>
<rwgt>
<wgt id='morphing_basis_vector_1'> +1.3834267e-06 </wgt>
<wgt id='morphing_basis_vector_2'> +9.4261872e-07 </wgt>
<wgt id='morphing_basis_vector_3'> +1.5267964e-06 </wgt>
<wgt id='morphing_basis_vector_4'> +1.1024479e-06 </wgt>
<wgt id='morphing_basis_vector_5'> +1.7609599e-06 </wgt>
</rwgt>
</event>
<event>
 4      1 +9.0096000e-12 6.01919700e+03 7.81860800e-03 7.25959900e-02
        2 -1    0    0  501    0 +0.0000000000e+00 +0.0000000000e+00 +2.7633590560e+03 2.7633590560e+03 0.0000000000e+00 0.0000e+00 -1.0000e+00
       -2 -1    0    0    0  501 -0.0000000000e+00 -0.0000000000e+00 -3.2777798529e+03 3.2777798529e+03 0.0000000000e+00 0.0000e+00 1.0000e+00
      -13  1    1    2    0    0 +1.3668545843e+03 -1.3736538589e+03 -2.5683130361e+03 3.2173666608e+03 0.0000000000e+00 0.0000e+00 1.0000e+00
       13  1    1    2    0    0 -1.3668545843e+03 +1.3736538589e+03 +2.0538922392e+03 2.8237722481e+03 0.0000000000e+00 0.0000e+00 -1.0000e+00
<mgrwt>
<rscale>  0 0.60191968E+04</rscale>
<asrwt>0</asrwt>
<pdfrwt beam="1">  1        2 0.42513216E+00 0.60191968E+04</pdfrwt>
<pdfrwt beam="2">  1       -2 0.50427382E+00 0.60191968E+04</pdfrwt>
<totfact> 0.19764806E-03</totfact>
</mgrwt>
<rwgt>
<wgt id='morphing_basis_vector_1'> +1.5991854e-06 </wgt>
<wgt id='morphing_basis_vector_2'> +1.0898584e-06 </wgt>
<wgt id='morphing_basis_vector_3'> +1.7654811e-06 </wgt>
<wgt id='morphing_basis_vector_4'> +1.2752277e-06 </wgt>
<wgt id='morphing_basis_vector_5'> +2.0369637e-06 </wgt>
</rwgt>
</event>
<event>
 4      1 +9.0096000e-12 5.56955700e+03 7.81860800e-03 7.31134100e-02
        2 -1    0    0  501    0 +0.0000000000e+00 +0.0000000000e+00 +2.2148608976e+03 2.2148608976e+03 0.0000000000e+00 0.0000e+00 -1.0000e+00
       -2 -1    0    0    0  501 -0.0000000000e+00 -0.0000000000e+00 -3.5013443632e+03 3.5013443632e+03 0.0000000000e+00 0.0000e+00 1.0000e+00
      -13  1    1    2    0    0 +5.7192886139e+02 -2.7148058687e+03 -8.8981147172e+02 2.9135953704e+03 0.0000000000e+00 0.0000e+00 1.0000e+00
       13  1    1    2    0    0 -5.7192886139e+02 +2.7148058687e+03 -3.9667199392e+02 2.8026098904e+03 0.0000000000e+00 0.0000e+00 -1.0000e+00
<mgrwt>
<rscale>  0 0.55695568E+04</rscale>
<asrwt>0</asrwt>
<pdfrwt beam="1">  1        2 0.34074783E+00 0.55695568E+04</pdfrwt>
<pdfrwt beam="2">  1       -2 0.53866837E+00 0.55695568E+04</pdfrwt>
<totfact> 0.24170868E-03</totfact>
</mgrwt>
<rwgt>
<wgt id='morphing_basis_vector_1'> +1.2037673e-06 </wgt>
<wgt id='morphing_basis_vector_2'> +8.8899712e-07 </wgt>
<wgt id='morphing_basis_vector_3'> +1.3440934e-06 </wgt>
<wgt id='morphing_basis_vector_4'> +8.6875084e-07 </wgt>
<wgt id='morphing_basis_vector_5'> +1.4865900e-06 </wgt>
</rwgt>
</event>
<event>
 4      1 +9.0096000e-12 6.14923000e+03 7.81860800e-03 7.24548900e-02
        2 -1    0    0  501    0 +0.0000000000e+00 +0.0000000000e+00 +3.9236748549e+03 3.9236748549e+03 0.0000000000e+00 0.0000e+00 1.0000e+00
       -2 -1    0    0    0  501 -0.0000000000e+00 -0.0000000000e+00 -2.4092869773e+03 2.4092869773e+03 0.0000000000e+00 0.0000e+00 -1.0000e+00
      -13  1    1    2    0    0 +2.0259857181e+03 -7.8202693064e+02 -1.4843187893e+03 2.6304726797e+03 0.0000000000e+00 0.0000e+00 -1.0000e+00
       13  1    1    2    0    0 -2.0259857181e+03 +7.8202693064e+02 +2.9987066669e+03 3.7024891525e+03 0.0000000000e+00 0.0000e+00 1.0000e+00
<mgrwt>
<rscale>  0 0.61492304E+04</rscale>
<asrwt>0</asrwt>
<pdfrwt beam="1">  1        2 0.60364228E+00 0.61492304E+04</pdfrwt>
<pdfrwt beam="2">  1       -2 0.37065954E+00 0.61492304E+04</pdfrwt>
<totfact> 0.24442085E-03</totfact>
</mgrwt>
<rwgt>
<wgt id='morphing_basis_vector_1'> +1.7424044e-06 </wgt>
<wgt id='morphing_basis_vector_2'> +1.1894419e-06 </wgt>
<wgt id='morphing_basis_vector_3'> +1.9243683e-06 </wgt>
<wgt id='morphing_basis_vector_4'> +1.3875454e-06 </wgt>
<wgt id='morphing_basis_vector_5'> +2.2190282e-06 </wgt>
</rwgt>
</event>
<event>
 4      1 +9.0096000e-12 6.07061400e+03 7.81860800e-03 7.25397700e-02
        2 -1    0    0  501    0 +0.0000000000e+00 +0.0000000000e+00 +1.8748934290e+03 1.8748934290e+03 0.0000000000e+00 0.0000e+00 1.0000e+00
       -2 -1    0    0    0  501 -0.0000000000e+00 -0.0000000000e+00 -4.9139266782e+03 4.9139266782e+03 0.0000000000e+00 0.0000e+00 -1.0000e+00
      -13  1    1    2    0    0 +2.8446187116e+03 +8.4034643153e+02 -2.2399809157e+03 3.7169277962e+03 0.0000000000e+00 0.0000e+00 1.0000e+00
       13  1    1    2    0    0 -2.8446187116e+03 -8.4034643153e+02 -7.9905233343e+02 3.0718923111e+03 0.0000000000e+00 0.0000e+00 -1.0000e+00
<mgrwt>
<rscale>  0 0.60706141E+04</rscale>
<asrwt>0</asrwt>
<pdfrwt beam="1">  1        2 0.28844514E+00 0.60706141E+04</pdfrwt>
<pdfrwt beam="2">  1       -2 0.75598873E+00 0.60706141E+04</pdfrwt>
<totfact> 0.60639289E-04</totfact>
</mgrwt>
<rwgt>
<wgt id='morphing_basis_vector_1'> +1.6804802e-06 </wgt>
<wgt id='morphing_basis_vector_2'> +1.2040765e-06 </wgt>
<wgt id='morphing_basis_vector_3'> +1.8691642e-06 </wgt>
<wgt id='morphing_basis_vector_4'> +1.2636677e-06 </wgt>
<wgt id='morphing_basis_vector_5'> +2.1029233e-06 </wgt>
</rwgt>
</event>
<event>
 4      1 +9.0096000e-12 5.57305000e+03 7.81860800e-03 7.31092000e-02
        2 -1    0    0  501    0 +0.0000000000e+00 +0.0000000000e+00 +2.7116029087e+03 2.7116029087e+03 0.0000000000e+00 0.0000e+00 -1.0000e+00
       -2 -1    0    0    0  501 -0.0000000000e+00 -0.0000000000e+00 -2.8635176339e+03 2.8635176339e+03 0.0000000000e+00 0.0000e+00 1.0000e+00
      -13  1    1    2    0    0 +3.4416517583e+02 +2.5988706189e+03 -1.0208422682e+03 2.8133071462e+03 0.0000000000e+00 0.0000e+00 1.0000e+00
       13  1    1    2    0    0 -3.4416517583e+02 -2.5988706189e+03 +8.6892754302e+02 2.7618133965e+03 0.0000000000e+00 0.0000e+00 -1.0000e+00
<mgrwt>
<rscale>  0 0.55730504E+04</rscale>
<asrwt>0</asrwt>
<pdfrwt beam="1">  1        2 0.41716968E+00 0.55730504E+04</pdfrwt>
<pdfrwt beam="2">  1       -2 0.44054117E+00 0.55730504E+04</pdfrwt>
<totfact> 0.63862016E-03</totfact>
</mgrwt>
<rwgt>
<wgt id='morphing_basis_vector_1'> +1.1866541e-06 </wgt>
<wgt id='morphing_basis_vector_2'> +8.3213554e-07 </wgt>
<wgt id='morphing_basis_vector_3'> +1.3146756e-06 </wgt>
<wgt id='morphing_basis_vector_4'> +9.1393400e-07 </wgt>
<wgt id='morphing_basis_vector_5'> +1.4939451e-06 </wgt>
</rwgt>
</event>
<event>
 4      1 +9.0096000e-12 5.80984900e+03 7.81860800e-03 7.28309500e-02
        2 -1    0    0  501    0 +0.0000000000e+00 +0.0000000000e+00 +3.0434911160e+03 3.0434911160e+03 0.0000000000e+00 0.0000e+00 -1.0000e+00
       -2 -1    0    0    0  501 -0.0000000000e+00 -0.0000000000e+00 -2.7726663131e+03 2.7726663131e+03 0.0000000000e+00 0.0000e+00 1.0000e+00
      -13  1    1    2    0    0 -1.3413032219e+03 +2.9702966733e+02 -2.4269107287e+03 2.7887661504e+03 0.0000000000e+00 0.0000e+00 1.0000e+00
       13  1    1    2    0    0 +1.3413032219e+03 -2.9702966733e+02 +2.6977355316e+03 3.0273912787e+03 0.0000000000e+00 0.0000e+00 -1.0000e+00
<mgrwt>
<rscale>  0 0.58098486E+04</rscale>
<asrwt>0</asrwt>
<pdfrwt beam="1">  1        2 0.46822940E+00 0.58098486E+04</pdfrwt>
<pdfrwt beam="2">  1       -2 0.42656405E+00 0.58098486E+04</pdfrwt>
<totfact> 0.47935863E-03</totfact>
</mgrwt>
<rwgt>
<wgt id='morphing_basis_vector_1'> +1.3877327e-06 </wgt>
<wgt id='morphing_basis_vector_2'> +9.4381183e-07 </wgt>
<wgt id='morphing_basis_vector_3'> +1.5311528e-06 </wgt>
<wgt id='morphing_basis_vector_4'> +1.1081719e-06 </wgt>
<wgt id='morphing_basis_vector_5'> +1.7675973e-06 </wgt>
</rwgt>
</event>
<event>
 4      1 +9.0096000e-12 5.60207000e+03 7.81860800e-03 7.30743500e-02
        2 -1    0    0  501    0 +0.0000000000e+00 +0.0000000000e+00 +2.3971466212e+03 2.3971466212e+03 0.0000000000e+00 0.0000e+00 -1.0000e+00
       -2 -1    0    0    0  501 -0.0000000000e+00 -0.0000000000e+00 -3.2729738123e+03 3.2729738123e+03 0.0000000000e+00 0.0000e+00 1.0000e+00
      -13  1    1    2    0    0 -2.7635446622e+02 +9.5446743389e+02 -3.0885838606e+03 3.2444922773e+03 0.0000000000e+00 0.0000e+00 1.0000e+00
       13  1    1    2    0    0 +2.7635446622e+02 -9.5446743389e+02 +2.2127566696e+03 2.4256281562e+03 0.0000000000e+00 0.0000e+00 -1.0000e+00
<mgrwt>
<rscale>  0 0.56020704E+04</rscale>
<asrwt>0</asrwt>
<pdfrwt beam="1">  1        2 0.36879179E+00 0.56020704E+04</pdfrwt>
<pdfrwt beam="2">  1       -2 0.50353444E+00 0.56020704E+04</pdfrwt>
<totfact> 0.34386553E-03</totfact>
</mgrwt>
<rwgt>
<wgt id='morphing_basis_vector_1'> +1.1999132e-06 </wgt>
<wgt id='morphing_basis_vector_2'> +8.1557444e-07 </wgt>
<wgt id='morphing_basis_vector_3'> +1.3233933e-06 </wgt>
<wgt id='morphing_basis_vector_4'> +9.5791628e-07 </wgt>
<wgt id='morphing_basis_vector_5'> +1.5274656e-06 </wgt>
</rwgt>
</event>
<event>
 4      1 +9.0096000e-12 6.08632700e+03 7.81860800e-03 7.25227000e-02
        2 -1    0    0  501    0 +0.0000000000e+00 +0.0000000000e+00 +4.3725056562e+03 4.3725056562e+03 0.0000000000e+00 0.0000e+00 -1.0000e+00
       -2 -1    0    0    0  501 -0.0000000000e+00 -0.0000000000e+00 -2.1179719680e+03 2.1179719680e+03 0.0000000000e+00 0.0000e+00 1.0000e+00
      -13  1    1    2    0    0 -4.9328915997e+02 -2.2876005521e+03 -9.4726227909e+02 2.5246299346e+03 0.0000000000e+00 0.0000e+00 1.0000e+00
       13  1    1    2    0    0 +4.9328915997e+02 +2.2876005521e+03 +3.2017959672e+03 3.9658476896e+03 0.0000000000e+00 0.0000e+00 -1.0000e+00
<mgrwt>
<rscale>  0 0.60863271E+04</rscale>
<asrwt>0</asrwt>
<pdfrwt beam="1">  1        2 0.67269318E+00 0.60863271E+04</pdfrwt>
<pdfrwt beam="2">  1       -2 0.32584184E+00 0.60863271E+04</pdfrwt>
<totfact> 0.18905560E-03</totfact>
</mgrwt>
<rwgt>
<wgt id='morphing_basis_vector_1'> +1.6736449e-06 </wgt>
<wgt id='morphing_basis_vector_2'> +1.1453655e-06 </wgt>
<wgt id='morphing_basis_vector_3'> +1.8489583e-06 </wgt>
<wgt id='morphing_basis_vector_4'> +1.3287442e-06 </wgt>
<wgt id='morphing_basis_vector_5'> +2.1291951e-06 </wgt>
</rwgt>
</event>
<event>
 4      1 +9.0096000e-12 5.66558200e+03 7.81860800e-03 7.29988200e-02
        2 -1    0    0  501    0 +0.0000000000e+00 +0.0000000000e+00 +3.2730751253e+03 3.2730751253e+03 0.0000000000e+00 0.0000e+00 1.0000e+00
       -2 -1    0    0    0  501 -0.0000000000e+00 -0.0000000000e+00 -2.4517324748e+03 2.4517324748e+03 0.0000000000e+00 0.0000e+00 -1.0000e+00
      -13  1    1    2    0    0 +4.9181883015e+02 +2.7878345238e+03 +3.0567414238e+02 2.8473397716e+03 0.0000000000e+00 0.0000e+00 -1.0000e+00
       13  1    1    2    0    0 -4.9181883015e+02 -2.7878345238e+03 +5.1566850812e+02 2.8774678285e+03 0.0000000000e+00 0.0000e+00 1.0000e+00
<mgrwt>
<rscale>  0 0.56655819E+04</rscale>
<asrwt>0</asrwt>
<pdfrwt beam="1">  1        2 0.50355002E+00 0.56655819E+04</pdfrwt>
<pdfrwt beam="2">  1       -2 0.37718961E+00 0.56655819E+04</pdfrwt>
<totfact> 0.71435656E-03</totfact>
</mgrwt>
<rwgt>
<wgt id='morphing_basis_vector_1'> +1.2955032e-06 </wgt>
<wgt id='morphing_basis_vector_2'> +9.7172241e-07 </wgt>
<wgt id='morphing_basis_vector_3'> +1.4502632e-06 </wgt>
<wgt id='morphing_basis_vector_4'> +9.1590606e-07 </wgt>
<wgt id='morphing_basis_vector_5'> +1.5908482e-06 </wgt>
</rwgt>
</event>
<event>
 4      1 +9.0096000e-12 6.52893900e+03 7.81860800e-03 7.20623300e-02
        2 -1    0    0  501    0 +0.0000000000e+00 +0.0000000000e+00 +3.6172868737e+03 3.6172868737e+03 0.0000000000e+00 0.0000e+00 -1.0000e+00
       -2 -1    0    0    0  501 -0.0000000000e+00 -0.0000000000e+00 -2.9460646317e+03 2.9460646317e+03 0.0000000000e+00 0.0000e+00 1.0000e+00
      -13  1    1    2    0    0 -5.9872218223e+02 +2.4937144914e+03 -1.6948568540e+03 3.0740234175e+03 0.0000000000e+00 0.0000e+00 1.0000e+00
       13  1    1    2    0    0 +5.9872218223e+02 -2.4937144914e+03 +2.3660790960e+03 3.4893280878e+03 0.0000000000e+00 0.0000e+00 -1.0000e+00
<mgrwt>
<rscale>  0 0.65289389E+04</rscale>
<asrwt>0</asrwt>
<pdfrwt beam="1">  1        2 0.55650568E+00 0.65289389E+04</pdfrwt>
<pdfrwt beam="2">  1       -2 0.45324071E+00 0.65289389E+04</pdfrwt>
<totfact> 0.11776852E-03</totfact>
</mgrwt>
<rwgt>
<wgt id='morphing_basis_vector_1'> +2.2155597e-06 </wgt>
<wgt id='morphing_basis_vector_2'> +1.5181762e-06 </wgt>
<wgt id='morphing_basis_vector_3'> +2.4493128e-06 </wgt>
<wgt id='morphing_basis_vector_4'> +1.7591194e-06 </wgt>
<wgt id='morphing_basis_vector_5'> +2.8209172e-06 </wgt>
</rwgt>
</event>
<event>
 4      1 +9.0096000e-12 5.62939000e+03 7.81860800e-03 7.30417300e-02
        2 -1    0    0  501    0 +0.0000000000e+00 +0.0000000000e+00 +3.0649692614e+03 3.0649692614e+03 0.0000000000e+00 0.0000e+00 1.0000e+00
       -2 -1    0    0    0  501 -0.0000000000e+00 -0.0000000000e+00 -2.5848575599e+03 2.5848575599e+03 0.0000000000e+00 0.0000e+00 -1.0000e+00
      -13  1    1    2    0    0 -7.2481418904e+02 +2.5288632738e+03 +1.2446912494e+03 2.9102854452e+03 0.0000000000e+00 0.0000e+00 -1.0000e+00
       13  1    1    2    0    0 +7.2481418904e+02 -2.5288632738e+03 -7.6457954782e+02 2.7395413761e+03 0.0000000000e+00 0.0000e+00 1.0000e+00
<mgrwt>
<rscale>  0 0.56293904E+04</rscale>
<asrwt>0</asrwt>
<pdfrwt beam="1">  1        2 0.47153373E+00 0.56293904E+04</pdfrwt>
<pdfrwt beam="2">  1       -2 0.39767039E+00 0.56293904E+04</pdfrwt>
<totfact> 0.72950807E-03</totfact>
</mgrwt>
<rwgt>
<wgt id='morphing_basis_vector_1'> +1.3721512e-06 </wgt>
<wgt id='morphing_basis_vector_2'> +1.2681775e-06 </wgt>
<wgt id='morphing_basis_vector_3'> +1.5917713e-06 </wgt>
<wgt id='morphing_basis_vector_4'> +6.5903919e-07 </wgt>
<wgt id='morphing_basis_vector_5'> +1.5308579e-06 </wgt>
</rwgt>
</event>
<event>
 4      1 +9.0096000e-12 6.01088800e+03 7.81860800e-03 7.26051300e-02
        2 -1    0    0  501    0 +0.0000000000e+00 +0.0000000000e+00 +3.0777414794e+03 3.0777414794e+03 0.0000000000e+00 0.0000e+00 1.0000e+00
       -2 -1    0    0    0  501 -0.0000000000e+00 -0.0000000000e+00 -2.9348447591e+03 2.9348447591e+03 0.0000000000e+00 0.0000e+00 -1.0000e+00
      -13  1    1    2    0    0 +1.9632938229e+03 -1.7064183477e+03 +1.5772996317e+03 3.0420815802e+03 0.0000000000e+00 0.0000e+00 -1.0000e+00
       13  1    1    2    0    0 -1.9632938229e+03 +1.7064183477e+03 -1.4344029114e+03 2.9705046583e+03 0.0000000000e+00 0.0000e+00 1.0000e+00
<mgrwt>
<rscale>  0 0.60108879E+04</rscale>
<asrwt>0</asrwt>
<pdfrwt beam="1">  1        2 0.47349869E+00 0.60108879E+04</pdfrwt>
<pdfrwt beam="2">  1       -2 0.45151458E+00 0.60108879E+04</pdfrwt>
<totfact> 0.30277911E-03</totfact>
</mgrwt>
<rwgt>
<wgt id='morphing_basis_vector_1'> +1.8835465e-06 </wgt>
<wgt id='morphing_basis_vector_2'> +1.9443126e-06 </wgt>
<wgt id='morphing_basis_vector_3'> +2.2344506e-06 </wgt>
<wgt id='morphing_basis_vector_4'> +6.4107101e-07 </wgt>
<wgt id='morphing_basis_vector_5'> +1.9729656e-06 </wgt>
</rwgt>
</event>
<event>
 4      1 +9.0096000e-12 6.02103500e+03 7.81860800e-03 7.25939700e-02
        2 -1    0    0  501    0 +0.0000000000e+00 +0.0000000000e+00 +4.8621144096e+03 4.8621144096e+03 0.0000000000e+00 0.0000e+00 -1.0000e+00
       -2 -1    0    0    0  501 -0.0000000000e+00 -0.0000000000e+00 -1.8640483876e+03 1.8640483876e+03 0.0000000000e+00 0.0000e+00 1.0000e+00
      -13  1    1    2    0    0 +1.1713136261e+03 -2.5242368850e+03 +2.1582870857e+02 2.7911161735e+03 0.0000000000e+00 0.0000e+00 1.0000e+00
       13  1    1    2    0    0 -1.1713136261e+03 +2.5242368850e+03 +2.7822373134e+03 3.9350466237e+03 0.0000000000e+00 0.0000e+00 -1.0000e+00
<mgrwt>
<rscale>  0 0.60210353E+04</rscale>
<asrwt>0</asrwt>
<pdfrwt beam="1">  1        2 0.74801760E+00 0.60210353E+04</pdfrwt>
<pdfrwt beam="2">  1       -2 0.28677668E+00 0.60210353E+04</pdfrwt>
<totfact> 0.10067964E-03</totfact>
</mgrwt>
<rwgt>
<wgt id='morphing_basis_vector_1'> +1.6128028e-06 </wgt>
<wgt id='morphing_basis_vector_2'> +1.1254344e-06 </wgt>
<wgt id='morphing_basis_vector_3'> +1.7866912e-06 </wgt>
<wgt id='morphing_basis_vector_4'> +1.2518305e-06 </wgt>
<wgt id='morphing_basis_vector_5'> +2.0373594e-06 </wgt>
</rwgt>
</event>
<event>
 4      1 +9.0096000e-12 5.68684700e+03 7.81860800e-03 7.29737600e-02
        2 -1    0    0  501    0 +0.0000000000e+00 +0.0000000000e+00 +5.0978554505e+03 5.0978554505e+03 0.0000000000e+00 0.0000e+00 -1.0000e+00
       -2 -1    0    0    0  501 -0.0000000000e+00 -0.0000000000e+00 -1.5859719782e+03 1.5859719782e+03 0.0000000000e+00 0.0000e+00 1.0000e+00
      -13  1    1    2    0    0 -4.6434686589e+02 +1.4929222785e+03 -1.0354267902e+03 1.8752449385e+03 0.0000000000e+00 0.0000e+00 1.0000e+00
       13  1    1    2    0    0 +4.6434686589e+02 -1.4929222785e+03 +4.5473102624e+03 4.8085824901e+03 0.0000000000e+00 0.0000e+00 -1.0000e+00
<mgrwt>
<rscale>  0 0.56868465E+04</rscale>
<asrwt>0</asrwt>
<pdfrwt beam="1">  1        2 0.78428545E+00 0.56868465E+04</pdfrwt>
<pdfrwt beam="2">  1       -2 0.24399569E+00 0.56868465E+04</pdfrwt>
<totfact> 0.99044801E-04</totfact>
</mgrwt>
<rwgt>
<wgt id='morphing_basis_vector_1'> +1.2743746e-06 </wgt>
<wgt id='morphing_basis_vector_2'> +8.6708007e-07 </wgt>
<wgt id='morphing_basis_vector_3'> +1.4059108e-06 </wgt>
<wgt id='morphing_basis_vector_4'> +1.0166090e-06 </wgt>
<wgt id='morphing_basis_vector_5'> +1.6222239e-06 </wgt>
</rwgt>
</event>
<event>
 4      1 +9.0096000e-12 6.07204200e+03 7.81860800e-03 7.25382200e-02
        2 -1    0    0  501    0 +0.0000000000e+00 +0.0000000000e+00 +5.0528707306e+03 5.0528707306e+03 0.0000000000e+00 0.0000e+00 1.0000e+00
       -2 -1    0    0    0  501 -0.0000000000e+00 -0.0000000000e+00 -1.8241952516e+03 1.8241952516e+03 0.0000000000e+00 0.0000e+00 -1.0000e+00
      -13  1    1    2    0    0 -2.6541022023e+03 +1.4158030472e+03 +1.1491992847e+03 3.2201577236e+03 0.0000000000e+00 0.0000e+00 -1.0000e+00
       13  1    1    2    0    0 +2.6541022023e+03 -1.4158030472e+03 +2.0794761943e+03 3.6569082586e+03 0.0000000000e+00 0.0000e+00 1.0000e+00
<mgrwt>
<rscale>  0 0.60720418E+04</rscale>
<asrwt>0</asrwt>
<pdfrwt beam="1">  1        2 0.77736472E+00 0.60720418E+04</pdfrwt>
<pdfrwt beam="2">  1       -2 0.28064543E+00 0.60720418E+04</pdfrwt>
<totfact> 0.62245113E-04</totfact>
</mgrwt>
<rwgt>
<wgt id='morphing_basis_vector_1'> +1.6916515e-06 </wgt>
<wgt id='morphing_basis_vector_2'> +1.2333661e-06 </wgt>
<wgt id='morphing_basis_vector_3'> +1.8865927e-06 </wgt>
<wgt id='morphing_basis_vector_4'> +1.2443334e-06 </wgt>
<wgt id='morphing_basis_vector_5'> +2.1031797e-06 </wgt>
</rwgt>
</event>
<event>
 4      1 +9.0096000e-12 6.02097900e+03 7.81860800e-03 7.25940400e-02
        2 -1    0    0  501    0 +0.0000000000e+00 +0.0000000000e+00 +4.4719224923e+03 4.4719224923e+03 0.0000000000e+00 0.0000e+00 -1.0000e+00
       -2 -1    0    0    0  501 -0.0000000000e+00 -0.0000000000e+00 -2.0266559257e+03 2.0266559257e+03 0.0000000000e+00 0.0000e+00 1.0000e+00
      -13  1    1    2    0    0 +7.0182947025e+02 +2.6211136326e+03 -1.8473326360e+02 2.7197293356e+03 0.0000000000e+00 0.0000e+00 1.0000e+00
       13  1    1    2    0    0 -7.0182947025e+02 -2.6211136326e+03 +2.6299998302e+03 3.7788490823e+03 0.0000000000e+00 0.0000e+00 -1.0000e+00
<mgrwt>
<rscale>  0 0.60209794E+04</rscale>
<asrwt>0</asrwt>
<pdfrwt beam="1">  1        2 0.68798807E+00 0.60209794E+04</pdfrwt>
<pdfrwt beam="2">  1       -2 0.31179322E+00 0.60209794E+04</pdfrwt>
<totfact> 0.18726487E-03</totfact>
</mgrwt>
<rwgt>
<wgt id='morphing_basis_vector_1'> +1.6099798e-06 </wgt>
<wgt id='morphing_basis_vector_2'> +1.1172820e-06 </wgt>
<wgt id='morphing_basis_vector_3'> +1.7821125e-06 </wgt>
<wgt id='morphing_basis_vector_4'> +1.2576953e-06 </wgt>
<wgt id='morphing_basis_vector_5'> +2.0377808e-06 </wgt>
</rwgt>
</event>
<event>
 4      1 +9.0096000e-12 5.77448600e+03 7.81860800e-03 7.28716400e-02
        2 -1    0    0  501    0 +0.0000000000e+00 +0.0000000000e+00 +4.2010542795e+03 4.2010542795e+03 0.0000000000e+00 0.0000e+00 -1.0000e+00
       -2 -1    0    0    0  501 -0.0000000000e+00 -0.0000000000e+00 -1.9843045746e+03 1.9843045746e+03 0.0000000000e+00 0.0000e+00 1.0000e+00
      -13  1    1    2    0    0 +8.8769870877e+02 -1.8832558588e+03 -1.0343357748e+03 2.3247606591e+03 0.0000000000e+00 0.0000e+00 1.0000e+00
       13  1    1    2    0    0 -8.8769870877e+02 +1.8832558588e+03 +3.2510854797e+03 3.8605981950e+03 0.0000000000e+00 0.0000e+00 -1.0000e+00
<mgrwt>
<rscale>  0 0.57744857E+04</rscale>
<asrwt>0</asrwt>
<pdfrwt beam="1">  1        2 0.64631604E+00 0.57744857E+04</pdfrwt>
<pdfrwt beam="2">  1       -2 0.30527763E+00 0.57744857E+04</pdfrwt>
<totfact> 0.38597383E-03</totfact>
</mgrwt>
<rwgt>
<wgt id='morphing_basis_vector_1'> +1.3559288e-06 </wgt>
<wgt id='morphing_basis_vector_2'> +9.2574487e-07 </wgt>
<wgt id='morphing_basis_vector_3'> +1.4968199e-06 </wgt>
<wgt id='morphing_basis_vector_4'> +1.0779668e-06 </wgt>
<wgt id='morphing_basis_vector_5'> +1.7245671e-06 </wgt>
</rwgt>
</event>
<event>
 4      1 +9.0096000e-12 5.57142000e+03 7.81860800e-03 7.31111600e-02
        2 -1    0    0  501    0 +0.0000000000e+00 +0.0000000000e+00 +3.3471943336e+03 3.3471943336e+03 0.0000000000e+00 0.0000e+00 1.0000e+00
       -2 -1    0    0    0  501 -0.0000000000e+00 -0.0000000000e+00 -2.3184135283e+03 2.3184135283e+03 0.0000000000e+00 0.0000e+00 -1.0000e+00
      -13  1    1    2    0    0 +1.3321129948e+03 -1.3807426112e+03 -1.5394580269e+03 2.4598589809e+03 0.0000000000e+00 0.0000e+00 -1.0000e+00
       13  1    1    2    0    0 -1.3321129948e+03 +1.3807426112e+03 +2.5682388322e+03 3.2057488810e+03 0.0000000000e+00 0.0000e+00 1.0000e+00
<mgrwt>
<rscale>  0 0.55714202E+04</rscale>
<asrwt>0</asrwt>
<pdfrwt beam="1">  1        2 0.51495297E+00 0.55714202E+04</pdfrwt>
<pdfrwt beam="2">  1       -2 0.35667901E+00 0.55714202E+04</pdfrwt>
<totfact> 0.86524022E-03</totfact>
</mgrwt>
<rwgt>
<wgt id='morphing_basis_vector_1'> +1.1750973e-06 </wgt>
<wgt id='morphing_basis_vector_2'> +8.0129965e-07 </wgt>
<wgt id='morphing_basis_vector_3'> +1.2965651e-06 </wgt>
<wgt id='morphing_basis_vector_4'> +9.3459161e-07 </wgt>
<wgt id='morphing_basis_vector_5'> +1.4940188e-06 </wgt>
</rwgt>
</event>
<event>
 4      1 +9.0096000e-12 5.68774900e+03 7.81860800e-03 7.29727000e-02
        2 -1    0    0  501    0 +0.0000000000e+00 +0.0000000000e+00 +2.8536620711e+03 2.8536620711e+03 0.0000000000e+00 0.0000e+00 1.0000e+00
       -2 -1    0    0    0  501 -0.0000000000e+00 -0.0000000000e+00 -2.8341204358e+03 2.8341204358e+03 0.0000000000e+00 0.0000e+00 -1.0000e+00
      -13  1    1    2    0    0 +2.2496760857e+03 -7.5296886395e+02 -1.5585551771e+03 2.8385029224e+03 0.0000000000e+00 0.0000e+00 -1.0000e+00
       13  1    1    2    0    0 -2.2496760857e+03 +7.5296886395e+02 +1.5780968124e+03 2.8492795844e+03 0.0000000000e+00 0.0000e+00 1.0000e+00
<mgrwt>
<rscale>  0 0.56877489E+04</rscale>
<asrwt>0</asrwt>
<pdfrwt beam="1">  1        2 0.43902494E+00 0.56877489E+04</pdfrwt>
<pdfrwt beam="2">  1       -2 0.43601853E+00 0.56877489E+04</pdfrwt>
<totfact> 0.55392514E-03</totfact>
</mgrwt>
<rwgt>
<wgt id='morphing_basis_vector_1'> +1.2790772e-06 </wgt>
<wgt id='morphing_basis_vector_2'> +8.7906584e-07 </wgt>
<wgt id='morphing_basis_vector_3'> +1.4131542e-06 </wgt>
<wgt id='morphing_basis_vector_4'> +1.0089311e-06 </wgt>
<wgt id='morphing_basis_vector_5'> +1.6225567e-06 </wgt>
</rwgt>
</event>
<event>
 4      1 +9.0096000e-12 5.81021500e+03 7.81860800e-03 7.28305300e-02
        2 -1    0    0  501    0 +0.0000000000e+00 +0.0000000000e+00 +3.5165534380e+03 3.5165534380e+03 0.0000000000e+00 0.0000e+00 -1.0000e+00
       -2 -1    0    0    0  501 -0.0000000000e+00 -0.0000000000e+00 -2.3999773635e+03 2.3999773635e+03 0.0000000000e+00 0.0000e+00 1.0000e+00
      -13  1    1    2    0    0 -1.8637542318e+03 -2.0266459626e+03 -3.8536998376e+02 2.7801769222e+03 0.0000000000e+00 0.0000e+00 1.0000e+00
       13  1    1    2    0    0 +1.8637542318e+03 +2.0266459626e+03 +1.5019460582e+03 3.1363538793e+03 0.0000000000e+00 0.0000e+00 -1.0000e+00
<mgrwt>
<rscale>  0 0.58102147E+04</rscale>
<asrwt>0</asrwt>
<pdfrwt beam="1">  1        2 0.54100822E+00 0.58102147E+04</pdfrwt>
<pdfrwt beam="2">  1       -2 0.36922729E+00 0.58102147E+04</pdfrwt>
<totfact> 0.53305827E-03</totfact>
</mgrwt>
<rwgt>
<wgt id='morphing_basis_vector_1'> +1.4025465e-06 </wgt>
<wgt id='morphing_basis_vector_2'> +9.8650985e-07 </wgt>
<wgt id='morphing_basis_vector_3'> +1.5551356e-06 </wgt>
<wgt id='morphing_basis_vector_4'> +1.0775280e-06 </wgt>
<wgt id='morphing_basis_vector_5'> +1.7654441e-06 </wgt>
</rwgt>
</event>
<event>
 4      1 +9.0096000e-12 5.56638000e+03 7.81860800e-03 7.31172400e-02
        2 -1    0    0  501    0 +0.0000000000e+00 +0.0000000000e+00 +4.7193664398e+03 4.7193664398e+03 0.0000000000e+00 0.0000e+00 -1.0000e+00
       -2 -1    0    0    0  501 -0.0000000000e+00 -0.0000000000e+00 -1.6413528074e+03 1.6413528074e+03 0.0000000000e+00 0.0000e+00 1.0000e+00
      -13  1    1    2    0    0 +1.2981133438e+01 -1.6930032293e+03 -9.8523364642e+02 1.9588552224e+03 0.0000000000e+00 0.0000e+00 1.0000e+00
       13  1    1    2    0    0 -1.2981133438e+01 +1.6930032293e+03 +4.0632472788e+03 4.4018640248e+03 0.0000000000e+00 0.0000e+00 -1.0000e+00
<mgrwt>
<rscale>  0 0.55663796E+04</rscale>
<asrwt>0</asrwt>
<pdfrwt beam="1">  1        2 0.72605637E+00 0.55663796E+04</pdfrwt>
<pdfrwt beam="2">  1       -2 0.25251582E+00 0.55663796E+04</pdfrwt>
<totfact> 0.26451121E-03</totfact>
</mgrwt>
<rwgt>
<wgt id='morphing_basis_vector_1'> +1.1702819e-06 </wgt>
<wgt id='morphing_basis_vector_2'> +7.9670446e-07 </wgt>
<wgt id='morphing_basis_vector_3'> +1.2909354e-06 </wgt>
<wgt id='morphing_basis_vector_4'> +9.3244420e-07 </wgt>
<wgt id='morphing_basis_vector_5'> +1.4887097e-06 </wgt>
</rwgt>
</event>
<event>
 4      1 +9.0096000e-12 5.92464900e+03 7.81860800e-03 7.27008800e-02
        2 -1    0    0  501    0 +0.0000000000e+00 +0.0000000000e+00 +3.3176132597e+03 3.3176132597e+03 0.0000000000e+00 0.0000e+00 -1.0000e+00
       -2 -1    0    0    0  501 -0.0000000000e+00 -0.0000000000e+00 -2.6450841885e+03 2.6450841885e+03 0.0000000000e+00 0.0000e+00 1.0000e+00
      -13  1    1    2    0    0 +7.9983969758e+02 +5.9823591842e+02 +3.1430341433e+03 3.2979225858e+03 0.0000000000e+00 0.0000e+00 -1.0000e+00
       13  1    1    2    0    0 -7.9983969758e+02 -5.9823591842e+02 -2.4705050721e+03 2.6647748624e+03 0.0000000000e+00 0.0000e+00 1.0000e+00
<mgrwt>
<rscale>  0 0.59246490E+04</rscale>
<asrwt>0</asrwt>
<pdfrwt beam="1">  1        2 0.51040204E+00 0.59246490E+04</pdfrwt>
<pdfrwt beam="2">  1       -2 0.40693603E+00 0.59246490E+04</pdfrwt>
<totfact> 0.41786797E-03</totfact>
</mgrwt>
<rwgt>
<wgt id='morphing_basis_vector_1'> +2.0522746e-06 </wgt>
<wgt id='morphing_basis_vector_2'> +2.6403871e-06 </wgt>
<wgt id='morphing_basis_vector_3'> +2.5565386e-06 </wgt>
<wgt id='morphing_basis_vector_4'> +1.8402090e-08 </wgt>
<wgt id='morphing_basis_vector_5'> +1.8125953e-06 </wgt>
</rwgt>
</event>
<event>
 4      1 +9.0096000e-12 6.09512400e+03 7.81860800e-03 7.25131700e-02
        2 -1    0    0  501    0 +0.0000000000e+00 +0.0000000000e+00 +2.4629401441e+03 2.4629401441e+03 0.0000000000e+00 0.0000e+00 1.0000e+00
       -2 -1    0    0    0  501 -0.0000000000e+00 -0.0000000000e+00 -3.7709542276e+03 3.7709542276e+03 0.0000000000e+00 0.0000e+00 -1.0000e+00
      -13  1    1    2    0    0 -1.4112886182e+03 -5.1799460014e+02 -3.3653209468e+03 3.6858430575e+03 0.0000000000e+00 0.0000e+00 -1.0000e+00
       13  1    1    2    0    0 +1.4112886182e+03 +5.1799460014e+02 +2.0573068634e+03 2.5480513142e+03 0.0000000000e+00 0.0000e+00 1.0000e+00
<mgrwt>
<rscale>  0 0.60951241E+04</rscale>
<asrwt>0</asrwt>
<pdfrwt beam="1">  1        2 0.37891387E+00 0.60951241E+04</pdfrwt>
<pdfrwt beam="2">  1       -2 0.58014680E+00 0.60951241E+04</pdfrwt>
<totfact> 0.83167843E-04</totfact>
</mgrwt>
<rwgt>
<wgt id='morphing_basis_vector_1'> +1.6803446e-06 </wgt>
<wgt id='morphing_basis_vector_2'> +1.1432613e-06 </wgt>
<wgt id='morphing_basis_vector_3'> +1.8548086e-06 </wgt>
<wgt id='morphing_basis_vector_4'> +1.3428268e-06 </wgt>
<wgt id='morphing_basis_vector_5'> +2.1420938e-06 </wgt>
</rwgt>
</event>
<event>
 4      1 +9.0096000e-12 5.85231900e+03 7.81860800e-03 7.27824800e-02
        2 -1    0    0  501    0 +0.0000000000e+00 +0.0000000000e+00 +3.1539031246e+03 3.1539031246e+03 0.0000000000e+00 0.0000e+00 1.0000e+00
       -2 -1    0    0    0  501 -0.0000000000e+00 -0.0000000000e+00 -2.7148608737e+03 2.7148608737e+03 0.0000000000e+00 0.0000e+00 -1.0000e+00
      -13  1    1    2    0    0 -2.5841342075e+03 -1.3360770610e+03 +5.3593380733e+02 2.9580528328e+03 0.0000000000e+00 0.0000e+00 -1.0000e+00
       13  1    1    2    0    0 +2.5841342075e+03 +1.3360770610e+03 -9.6891556451e+01 2.9107111656e+03 0.0000000000e+00 0.0000e+00 1.0000e+00
<mgrwt>
<rscale>  0 0.58523186E+04</rscale>
<asrwt>0</asrwt>
<pdfrwt beam="1">  1        2 0.48521586E+00 0.58523186E+04</pdfrwt>
<pdfrwt beam="2">  1       -2 0.41767091E+00 0.58523186E+04</pdfrwt>
<totfact> 0.46238561E-03</totfact>
</mgrwt>
<rwgt>
<wgt id='morphing_basis_vector_1'> +1.5053798e-06 </wgt>
<wgt id='morphing_basis_vector_2'> +1.1968967e-06 </wgt>
<wgt id='morphing_basis_vector_3'> +1.7015974e-06 </wgt>
<wgt id='morphing_basis_vector_4'> +9.7696101e-07 </wgt>
<wgt id='morphing_basis_vector_5'> +1.8061818e-06 </wgt>
</rwgt>
</event>
<event>
 4      1 +9.0096000e-12 6.37944400e+03 7.81860800e-03 7.22135700e-02
        2 -1    0    0  501    0 +0.0000000000e+00 +0.0000000000e+00 +3.9824769277e+03 3.9824769277e+03 0.0000000000e+00 0.0000e+00 -1.0000e+00
       -2 -1    0    0    0  501 -0.0000000000e+00 -0.0000000000e+00 -2.5547734392e+03 2.5547734392e+03 0.0000000000e+00 0.0000e+00 1.0000e+00
      -13  1    1    2    0    0 -2.0464233222e+03 -2.0232980145e+03 -6.9595023961e+02 2.9607313294e+03 0.0000000000e+00 0.0000e+00 1.0000e+00
       13  1    1    2    0    0 +2.0464233222e+03 +2.0232980145e+03 +2.1236537281e+03 3.5765190375e+03 0.0000000000e+00 0.0000e+00 -1.0000e+00
<mgrwt>
<rscale>  0 0.63794439E+04</rscale>
<asrwt>0</asrwt>
<pdfrwt beam="1">  1        2 0.61268876E+00 0.63794439E+04</pdfrwt>
<pdfrwt beam="2">  1       -2 0.39304207E+00 0.63794439E+04</pdfrwt>
<totfact> 0.15370940E-03</totfact>
</mgrwt>
<rwgt>
<wgt id='morphing_basis_vector_1'> +2.0281128e-06 </wgt>
<wgt id='morphing_basis_vector_2'> +1.4081173e-06 </wgt>
<wgt id='morphing_basis_vector_3'> +2.2460719e-06 </wgt>
<wgt id='morphing_basis_vector_4'> +1.5855299e-06 </wgt>
<wgt id='morphing_basis_vector_5'> +2.5693526e-06 </wgt>
</rwgt>
</event>
<event>
 4      1 +9.0096000e-12 6.16788000e+03 7.81860800e-03 7.24349500e-02
        2 -1    0    0  501    0 +0.0000000000e+00 +0.0000000000e+00 +3.5380325595e+03 3.5380325595e+03 0.0000000000e+00 0.0000e+00 -1.0000e+00
       -2 -1    0    0    0  501 -0.0000000000e+00 -0.0000000000e+00 -2.6881282037e+03 2.6881282037e+03 0.0000000000e+00 0.0000e+00 1.0000e+00
      -13  1    1    2    0    0 +2.2773868326e+03 -1.9423293734e+02 -1.6649897585e+03 2.8277920919e+03 0.0000000000e+00 0.0000e+00 1.0000e+00
       13  1    1    2    0    0 -2.2773868326e+03 +1.9423293734e+02 +2.5148941143e+03 3.3983686712e+03 0.0000000000e+00 0.0000e+00 -1.0000e+00
<mgrwt>
<rscale>  0 0.61678797E+04</rscale>
<asrwt>0</asrwt>
<pdfrwt beam="1">  1        2 0.54431270E+00 0.61678797E+04</pdfrwt>
<pdfrwt beam="2">  1       -2 0.41355819E+00 0.61678797E+04</pdfrwt>
<totfact> 0.25766964E-03</totfact>
</mgrwt>
<rwgt>
<wgt id='morphing_basis_vector_1'> +1.7642647e-06 </wgt>
<wgt id='morphing_basis_vector_2'> +1.2058995e-06 </wgt>
<wgt id='morphing_basis_vector_3'> +1.9489160e-06 </wgt>
<wgt id='morphing_basis_vector_4'> +1.4030492e-06 </wgt>
<wgt id='morphing_basis_vector_5'> +2.2460059e-06 </wgt>
</rwgt>
</event>
<event>
 4      1 +9.0096000e-12 5.59357800e+03 7.81860800e-03 7.30845200e-02
        2 -1    0    0  501    0 +0.0000000000e+00 +0.0000000000e+00 +1.9648424609e+03 1.9648424609e+03 0.0000000000e+00 0.0000e+00 -1.0000e+00
       -2 -1    0    0    0  501 -0.0000000000e+00 -0.0000000000e+00 -3.9809954928e+03 3.9809954928e+03 0.0000000000e+00 0.0000e+00 1.0000e+00
      -13  1    1    2    0    0 -7.4959071447e+02 -9.3592759694e+02 -3.6938909403e+03 3.8836422318e+03 0.0000000000e+00 0.0000e+00 1.0000e+00
       13  1    1    2    0    0 +7.4959071447e+02 +9.3592759694e+02 +1.6777379084e+03 2.0621957218e+03 0.0000000000e+00 0.0000e+00 -1.0000e+00
<mgrwt>
<rscale>  0 0.55935781E+04</rscale>
<asrwt>0</asrwt>
<pdfrwt beam="1">  1        2 0.30228345E+00 0.55935781E+04</pdfrwt>
<pdfrwt beam="2">  1       -2 0.61246085E+00 0.55935781E+04</pdfrwt>
<totfact> 0.84677965E-04</totfact>
</mgrwt>
<rwgt>
<wgt id='morphing_basis_vector_1'> +1.1927432e-06 </wgt>
<wgt id='morphing_basis_vector_2'> +8.1085197e-07 </wgt>
<wgt id='morphing_basis_vector_3'> +1.3155029e-06 </wgt>
<wgt id='morphing_basis_vector_4'> +9.5195636e-07 </wgt>
<wgt id='morphing_basis_vector_5'> +1.5181887e-06 </wgt>
</rwgt>
</event>
<event>
 4      1 +9.0096000e-12 6.35280200e+03 7.81860800e-03 7.22409700e-02
        2 -1    0    0  501    0 +0.0000000000e+00 +0.0000000000e+00 +3.8035785619e+03 3.8035785619e+03 0.0000000000e+00 0.0000e+00 -1.0000e+00
       -2 -1    0    0    0  501 -0.0000000000e+00 -0.0000000000e+00 -2.6526395815e+03 2.6526395815e+03 0.0000000000e+00 0.0000e+00 1.0000e+00
      -13  1    1    2    0    0 +4.7260767661e+02 +7.1803043990e+02 -2.5321837935e+03 2.6741130291e+03 0.0000000000e+00 0.0000e+00 1.0000e+00
       13  1    1    2    0    0 -4.7260767661e+02 -7.1803043990e+02 +3.6831227739e+03 3.7821051143e+03 0.0000000000e+00 0.0000e+00 -1.0000e+00
<mgrwt>
<rscale>  0 0.63528019E+04</rscale>
<asrwt>0</asrwt>
<pdfrwt beam="1">  1        2 0.58516593E+00 0.63528019E+04</pdfrwt>
<pdfrwt beam="2">  1       -2 0.40809840E+00 0.63528019E+04</pdfrwt>
<totfact> 0.17236697E-03</totfact>
</mgrwt>
<rwgt>
<wgt id='morphing_basis_vector_1'> +1.9819696e-06 </wgt>
<wgt id='morphing_basis_vector_2'> +1.3479495e-06 </wgt>
<wgt id='morphing_basis_vector_3'> +2.1882774e-06 </wgt>
<wgt id='morphing_basis_vector_4'> +1.5860169e-06 </wgt>
<wgt id='morphing_basis_vector_5'> +2.5288783e-06 </wgt>
</rwgt>
</event>
<event>
 4      1 +9.0096000e-12 5.67032800e+03 7.81860800e-03 7.29932200e-02
        2 -1    0    0  501    0 +0.0000000000e+00 +0.0000000000e+00 +4.2565980557e+03 4.2565980557e+03 0.0000000000e+00 0.0000e+00 -1.0000e+00
       -2 -1    0    0    0  501 -0.0000000000e+00 -0.0000000000e+00 -1.8883987907e+03 1.8883987907e+03 0.0000000000e+00 0.0000e+00 1.0000e+00
      -13  1    1    2    0    0 -2.4172059757e+03 +1.1178686038e+03 +2.2379436477e+03 3.4786357548e+03 0.0000000000e+00 0.0000e+00 1.0000e+00
       13  1    1    2    0    0 +2.4172059757e+03 -1.1178686038e+03 +1.3025561728e+02 2.6663610915e+03 0.0000000000e+00 0.0000e+00 -1.0000e+00
<mgrwt>
<rscale>  0 0.56703279E+04</rscale>
<asrwt>0</asrwt>
<pdfrwt beam="1">  1        2 0.65486124E+00 0.56703279E+04</pdfrwt>
<pdfrwt beam="2">  1       -2 0.29052289E+00 0.56703279E+04</pdfrwt>
<totfact> 0.43435573E-03</totfact>
</mgrwt>
<rwgt>
<wgt id='morphing_basis_vector_1'> +1.4065294e-06 </wgt>
<wgt id='morphing_basis_vector_2'> +1.2881793e-06 </wgt>
<wgt id='morphing_basis_vector_3'> +1.6290476e-06 </wgt>
<wgt id='morphing_basis_vector_4'> +6.9100490e-07 </wgt>
<wgt id='morphing_basis_vector_5'> +1.5770399e-06 </wgt>
</rwgt>
</event>
<event>
 4      1 +9.0096000e-12 5.65699300e+03 7.81860800e-03 7.30089700e-02
        2 -1    0    0  501    0 +0.0000000000e+00 +0.0000000000e+00 +2.9209308658e+03 2.9209308658e+03 0.0000000000e+00 0.0000e+00 -1.0000e+00
       -2 -1    0    0    0  501 -0.0000000000e+00 -0.0000000000e+00 -2.7389868345e+03 2.7389868345e+03 0.0000000000e+00 0.0000e+00 1.0000e+00
      -13  1    1    2    0    0 -2.6692135397e+03 +4.0972805363e+02 -7.5077935866e+02 2.8028998634e+03 0.0000000000e+00 0.0000e+00 1.0000e+00
       13  1    1    2    0    0 +2.6692135397e+03 -4.0972805363e+02 +9.3272338998e+02 2.8570178370e+03 0.0000000000e+00 0.0000e+00 -1.0000e+00
<mgrwt>
<rscale>  0 0.56569926E+04</rscale>
<asrwt>0</asrwt>
<pdfrwt beam="1">  1        2 0.44937398E+00 0.56569926E+04</pdfrwt>
<pdfrwt beam="2">  1       -2 0.42138259E+00 0.56569926E+04</pdfrwt>
<totfact> 0.63069817E-03</totfact>
</mgrwt>
<rwgt>
<wgt id='morphing_basis_vector_1'> +1.2619641e-06 </wgt>
<wgt id='morphing_basis_vector_2'> +8.9034466e-07 </wgt>
<wgt id='morphing_basis_vector_3'> +1.3995632e-06 </wgt>
<wgt id='morphing_basis_vector_4'> +9.6530945e-07 </wgt>
<wgt id='morphing_basis_vector_5'> +1.5858176e-06 </wgt>
</rwgt>
</event>
<event>
 4      1 +9.0096000e-12 5.58729400e+03 7.81860800e-03 7.30920600e-02
        2 -1    0    0  501    0 +0.0000000000e+00 +0.0000000000e+00 +3.8581994343e+03 3.8581994343e+03 0.0000000000e+00 0.0000e+00 -1.0000e+00
       -2 -1    0    0    0  501 -0.0000000000e+00 -0.0000000000e+00 -2.0228253440e+03 2.0228253440e+03 0.0000000000e+00 0.0000e+00 1.0000e+00
      -13  1    1    2    0    0 +1.8946747653e+03 -3.4060639294e+02 -1.2132584751e+03 2.2754782593e+03 0.0000000000e+00 0.0000e+00 1.0000e+00
       13  1    1    2    0    0 -1.8946747653e+03 +3.4060639294e+02 +3.0486325655e+03 3.6055465190e+03 0.0000000000e+00 0.0000e+00 -1.0000e+00
<mgrwt>
<rscale>  0 0.55872940E+04</rscale>
<asrwt>0</asrwt>
<pdfrwt beam="1">  1        2 0.59356914E+00 0.55872940E+04</pdfrwt>
<pdfrwt beam="2">  1       -2 0.31120390E+00 0.55872940E+04</pdfrwt>
<totfact> 0.70608958E-03</totfact>
</mgrwt>
<rwgt>
<wgt id='morphing_basis_vector_1'> +1.1885146e-06 </wgt>
<wgt id='morphing_basis_vector_2'> +8.1047153e-07 </wgt>
<wgt id='morphing_basis_vector_3'> +1.3114080e-06 </wgt>
<wgt id='morphing_basis_vector_4'> +9.4530769e-07 </wgt>
<wgt id='morphing_basis_vector_5'> +1.5111616e-06 </wgt>
</rwgt>
</event>
<event>
 4      1 +9.0096000e-12 5.66571100e+03 7.81860800e-03 7.29986700e-02
        2 -1    0    0  501    0 +0.0000000000e+00 +0.0000000000e+00 +2.6233361706e+03 2.6233361706e+03 0.0000000000e+00 0.0000e+00 -1.0000e+00
       -2 -1    0    0    0  501 -0.0000000000e+00 -0.0000000000e+00 -3.0591084977e+03 3.0591084977e+03 0.0000000000e+00 0.0000e+00 1.0000e+00
      -13  1    1    2    0    0 +3.4839934066e+02 +2.1699659422e+03 +1.5748313687e+03 2.7037433552e+03 0.0000000000e+00 0.0000e+00 -1.0000e+00
       13  1    1    2    0    0 -3.4839934066e+02 -2.1699659422e+03 -2.0106036959e+03 2.9787013131e+03 0.0000000000e+00 0.0000e+00 1.0000e+00
<mgrwt>
<rscale>  0 0.56657109E+04</rscale>
<asrwt>0</asrwt>
<pdfrwt beam="1">  1        2 0.40359018E+00 0.56657109E+04</pdfrwt>
<pdfrwt beam="2">  1       -2 0.47063208E+00 0.56657109E+04</pdfrwt>
<totfact> 0.44035819E-03</totfact>
</mgrwt>
<rwgt>
<wgt id='morphing_basis_vector_1'> +1.5731204e-06 </wgt>
<wgt id='morphing_basis_vector_2'> +1.7864371e-06 </wgt>
<wgt id='morphing_basis_vector_3'> +1.9027396e-06 </wgt>
<wgt id='morphing_basis_vector_4'> +3.2302779e-07 </wgt>
<wgt id='morphing_basis_vector_5'> +1.5411639e-06 </wgt>
</rwgt>
</event>
<event>
 4      1 +9.0096000e-12 5.74018800e+03 7.81860800e-03 7.29113800e-02
        2 -1    0    0  501    0 +0.0000000000e+00 +0.0000000000e+00 +3.0198929036e+03 3.0198929036e+03 0.0000000000e+00 0.0000e+00 -1.0000e+00
       -2 -1    0    0    0  501 -0.0000000000e+00 -0.0000000000e+00 -2.7277258225e+03 2.7277258225e+03 0.0000000000e+00 0.0000e+00 1.0000e+00
      -13  1    1    2    0    0 +1.7529836806e+03 +2.1924910165e+03 -4.5257938532e+02 2.8433776995e+03 0.0000000000e+00 0.0000e+00 1.0000e+00
       13  1    1    2    0    0 -1.7529836806e+03 -2.1924910165e+03 +7.4474646643e+02 2.9042410267e+03 0.0000000000e+00 0.0000e+00 -1.0000e+00
<mgrwt>
<rscale>  0 0.57401881E+04</rscale>
<asrwt>0</asrwt>
<pdfrwt beam="1">  1        2 0.46459891E+00 0.57401881E+04</pdfrwt>
<pdfrwt beam="2">  1       -2 0.41965012E+00 0.57401881E+04</pdfrwt>
<totfact> 0.55524481E-03</totfact>
</mgrwt>
<rwgt>
<wgt id='morphing_basis_vector_1'> +1.3444601e-06 </wgt>
<wgt id='morphing_basis_vector_2'> +9.6379680e-07 </wgt>
<wgt id='morphing_basis_vector_3'> +1.4948159e-06 </wgt>
<wgt id='morphing_basis_vector_4'> +1.0089628e-06 </wgt>
<wgt id='morphing_basis_vector_5'> +1.6802010e-06 </wgt>
</rwgt>
</event>
<event>
 4      1 +9.0096000e-12 5.60995300e+03 7.81860800e-03 7.30649200e-02
        2 -1    0    0  501    0 +0.0000000000e+00 +0.0000000000e+00 +3.3863700261e+03 3.3863700261e+03 0.0000000000e+00 0.0000e+00 -1.0000e+00
       -2 -1    0    0    0  501 -0.0000000000e+00 -0.0000000000e+00 -2.3234002690e+03 2.3234002690e+03 0.0000000000e+00 0.0000e+00 1.0000e+00
      -13  1    1    2    0    0 -1.8758852644e+03 +1.1009604733e+03 +2.3341089010e+03 3.1904739226e+03 0.0000000000e+00 0.0000e+00 1.0000e+00
       13  1    1    2    0    0 +1.8758852644e+03 -1.1009604733e+03 -1.2711391439e+03 2.5192963725e+03 0.0000000000e+00 0.0000e+00 -1.0000e+00
<mgrwt>
<rscale>  0 0.56099530E+04</rscale>
<asrwt>0</asrwt>
<pdfrwt beam="1">  1        2 0.52098000E+00 0.56099530E+04</pdfrwt>
<pdfrwt beam="2">  1       -2 0.35744620E+00 0.56099530E+04</pdfrwt>
<totfact> 0.80016093E-03</totfact>
</mgrwt>
<rwgt>
<wgt id='morphing_basis_vector_1'> +1.5125437e-06 </wgt>
<wgt id='morphing_basis_vector_2'> +1.7181338e-06 </wgt>
<wgt id='morphing_basis_vector_3'> +1.8293072e-06 </wgt>
<wgt id='morphing_basis_vector_4'> +3.0985805e-07 </wgt>
<wgt id='morphing_basis_vector_5'> +1.4811973e-06 </wgt>
</rwgt>
</event>
<event>
 4      1 +9.0096000e-12 5.78375900e+03 7.81860800e-03 7.28609400e-02
        2 -1    0    0  501    0 +0.0000000000e+00 +0.0000000000e+00 +2.7923498713e+03 2.7923498713e+03 0.0000000000e+00 0.0000e+00 -1.0000e+00
       -2 -1    0    0    0  501 -0.0000000000e+00 -0.0000000000e+00 -2.9949567655e+03 2.9949567655e+03 0.0000000000e+00 0.0000e+00 1.0000e+00
      -13  1    1    2    0    0 -5.8671785506e+02 +4.0080725116e+01 -2.9344926091e+03 2.9928399855e+03 0.0000000000e+00 0.0000e+00 1.0000e+00
       13  1    1    2    0    0 +5.8671785506e+02 -4.0080725116e+01 +2.7318857149e+03 2.7944666513e+03 0.0000000000e+00 0.0000e+00 -1.0000e+00
<mgrwt>
<rscale>  0 0.57837590E+04</rscale>
<asrwt>0</asrwt>
<pdfrwt beam="1">  1        2 0.42959229E+00 0.57837590E+04</pdfrwt>
<pdfrwt beam="2">  1       -2 0.46076258E+00 0.57837590E+04</pdfrwt>
<totfact> 0.40448334E-03</totfact>
</mgrwt>
<rwgt>
<wgt id='morphing_basis_vector_1'> +1.3628170e-06 </wgt>
<wgt id='morphing_basis_vector_2'> +9.2635391e-07 </wgt>
<wgt id='morphing_basis_vector_3'> +1.5034861e-06 </wgt>
<wgt id='morphing_basis_vector_4'> +1.0888173e-06 </wgt>
<wgt id='morphing_basis_vector_5'> +1.7360256e-06 </wgt>
</rwgt>
</event>
<event>
 4      1 +9.0096000e-12 5.85308200e+03 7.81860800e-03 7.27816100e-02
        2 -1    0    0  501    0 +0.0000000000e+00 +0.0000000000e+00 +3.8352265344e+03 3.8352265344e+03 0.0000000000e+00 0.0000e+00 -1.0000e+00
       -2 -1    0    0    0  501 -0.0000000000e+00 -0.0000000000e+00 -2.2331518317e+03 2.2331518317e+03 0.0000000000e+00 0.0000e+00 1.0000e+00
      -13  1    1    2    0    0 +4.0689034560e+02 -1.0679274906e+03 -1.9922452652e+03 2.2967520709e+03 0.0000000000e+00 0.0000e+00 1.0000e+00
       13  1    1    2    0    0 -4.0689034560e+02 +1.0679274906e+03 +3.5943199679e+03 3.7716262951e+03 0.0000000000e+00 0.0000e+00 -1.0000e+00
<mgrwt>
<rscale>  0 0.58530823E+04</rscale>
<asrwt>0</asrwt>
<pdfrwt beam="1">  1        2 0.59003485E+00 0.58530823E+04</pdfrwt>
<pdfrwt beam="2">  1       -2 0.34356182E+00 0.58530823E+04</pdfrwt>
<totfact> 0.44160947E-03</totfact>
</mgrwt>
<rwgt>
<wgt id='morphing_basis_vector_1'> +1.4292670e-06 </wgt>
<wgt id='morphing_basis_vector_2'> +9.7180122e-07 </wgt>
<wgt id='morphing_basis_vector_3'> +1.5770149e-06 </wgt>
<wgt id='morphing_basis_vector_4'> +1.1418900e-06 </wgt>
<wgt id='morphing_basis_vector_5'> +1.8209513e-06 </wgt>
</rwgt>
</event>
<event>
 4      1 +9.0096000e-12 5.93688500e+03 7.81860800e-03 7.26872000e-02
        2 -1    0    0  501    0 +0.0000000000e+00 +0.0000000000e+00 +1.7088572270e+03 1.7088572270e+03 0.0000000000e+00 0.0000e+00 1.0000e+00
       -2 -1    0    0    0  501 -0.0000000000e+00 -0.0000000000e+00 -5.1564584438e+03 5.1564584438e+03 0.0000000000e+00 0.0000e+00 -1.0000e+00
      -13  1    1    2    0    0 -3.9163501865e+02 +1.9202771915e+03 +8.5439220695e+02 2.1379496073e+03 0.0000000000e+00 0.0000e+00 1.0000e+00
       13  1    1    2    0    0 +3.9163501865e+02 -1.9202771915e+03 -4.3019934237e+03 4.7273660635e+03 0.0000000000e+00 0.0000e+00 -1.0000e+00
<mgrwt>
<rscale>  0 0.59368851E+04</rscale>
<asrwt>0</asrwt>
<pdfrwt beam="1">  1        2 0.26290112E+00 0.59368851E+04</pdfrwt>
<pdfrwt beam="2">  1       -2 0.79330128E+00 0.59368851E+04</pdfrwt>
<totfact> 0.81259193E-04</totfact>
</mgrwt>
<rwgt>
<wgt id='morphing_basis_vector_1'> +1.9868463e-06 </wgt>
<wgt id='morphing_basis_vector_2'> +2.4203691e-06 </wgt>
<wgt id='morphing_basis_vector_3'> +2.4432600e-06 </wgt>
<wgt id='morphing_basis_vector_4'> +1.9477524e-07 </wgt>
<wgt id='morphing_basis_vector_5'> +1.8424667e-06 </wgt>
</rwgt>
</event>
<event>
 4      1 +9.0096000e-12 5.83374200e+03 7.81860800e-03 7.28036300e-02
        2 -1    0    0  501    0 +0.0000000000e+00 +0.0000000000e+00 +3.3587397075e+03 3.3587397075e+03 0.0000000000e+00 0.0000e+00 -1.0000e+00
       -2 -1    0    0    0  501 -0.0000000000e+00 -0.0000000000e+00 -2.5331337298e+03 2.5331337298e+03 0.0000000000e+00 0.0000e+00 1.0000e+00
      -13  1    1    2    0    0 +1.8320841914e+03 +2.1241069090e+03 +1.2206321768e+03 3.0591347725e+03 0.0000000000e+00 0.0000e+00 1.0000e+00
       13  1    1    2    0    0 -1.8320841914e+03 -2.1241069090e+03 -3.9502619916e+02 2.8327386648e+03 0.0000000000e+00 0.0000e+00 -1.0000e+00
<mgrwt>
<rscale>  0 0.58337421E+04</rscale>
<asrwt>0</asrwt>
<pdfrwt beam="1">  1        2 0.51672918E+00 0.58337421E+04</pdfrwt>
<pdfrwt beam="2">  1       -2 0.38971288E+00 0.58337421E+04</pdfrwt>
<totfact> 0.50989721E-03</totfact>
</mgrwt>
<rwgt>
<wgt id='morphing_basis_vector_1'> +1.5430734e-06 </wgt>
<wgt id='morphing_basis_vector_2'> +1.3481424e-06 </wgt>
<wgt id='morphing_basis_vector_3'> +1.7725502e-06 </wgt>
<wgt id='morphing_basis_vector_4'> +8.4342434e-07 </wgt>
<wgt id='morphing_basis_vector_5'> +1.7731192e-06 </wgt>
</rwgt>
</event>
<event>
 4      1 +9.0096000e-12 5.63156800e+03 7.81860800e-03 7.30391400e-02
        2 -1    0    0  501    0 +0.0000000000e+00 +0.0000000000e+00 +3.5168935212e+03 3.5168935212e+03 0.0000000000e+00 0.0000e+00 1.0000e+00
       -2 -1    0    0    0  501 -0.0000000000e+00 -0.0000000000e+00 -2.2544438344e+03 2.2544438344e+03 0.0000000000e+00 0.0000e+00 -1.0000e+00
      -13  1    1    2    0    0 -2.4796692594e+03 -6.0411025036e+02 -5.8780583685e+02 2.6190121291e+03 0.0000000000e+00 0.0000e+00 -1.0000e+00
       13  1    1    2    0    0 +2.4796692594e+03 +6.0411025036e+02 +1.8502555237e+03 3.1523252265e+03 0.0000000000e+00 0.0000e+00 1.0000e+00
<mgrwt>
<rscale>  0 0.56315678E+04</rscale>
<asrwt>0</asrwt>
<pdfrwt beam="1">  1        2 0.54106054E+00 0.56315678E+04</pdfrwt>
<pdfrwt beam="2">  1       -2 0.34683751E+00 0.56315678E+04</pdfrwt>
<totfact> 0.75274875E-03</totfact>
</mgrwt>
<rwgt>
<wgt id='morphing_basis_vector_1'> +1.2333712e-06 </wgt>
<wgt id='morphing_basis_vector_2'> +8.5650942e-07 </wgt>
<wgt id='morphing_basis_vector_3'> +1.3646060e-06 </wgt>
<wgt id='morphing_basis_vector_4'> +9.6109759e-07 </wgt>
<wgt id='morphing_basis_vector_5'> +1.5585284e-06 </wgt>
</rwgt>
</event>
<event>
 4      1 +9.0096000e-12 6.36224400e+03 7.81860800e-03 7.22312400e-02
        2 -1    0    0  501    0 +0.0000000000e+00 +0.0000000000e+00 +3.8036949471e+03 3.8036949471e+03 0.0000000000e+00 0.0000e+00 -1.0000e+00
       -2 -1    0    0    0  501 -0.0000000000e+00 -0.0000000000e+00 -2.6604494338e+03 2.6604494338e+03 0.0000000000e+00 0.0000e+00 1.0000e+00
      -13  1    1    2    0    0 -3.0116731181e+03 -1.0174378349e+03 +6.9262408088e+02 3.2534724274e+03 0.0000000000e+00 0.0000e+00 1.0000e+00
       13  1    1    2    0    0 +3.0116731181e+03 +1.0174378349e+03 +4.5062143243e+02 3.2106719536e+03 0.0000000000e+00 0.0000e+00 -1.0000e+00
<mgrwt>
<rscale>  0 0.63622443E+04</rscale>
<asrwt>0</asrwt>
<pdfrwt beam="1">  1        2 0.58518384E+00 0.63622443E+04</pdfrwt>
<pdfrwt beam="2">  1       -2 0.40929991E+00 0.63622443E+04</pdfrwt>
<totfact> 0.16910240E-03</totfact>
</mgrwt>
<rwgt>
<wgt id='morphing_basis_vector_1'> +2.0776656e-06 </wgt>
<wgt id='morphing_basis_vector_2'> +1.6022358e-06 </wgt>
<wgt id='morphing_basis_vector_3'> +2.3385387e-06 </wgt>
<wgt id='morphing_basis_vector_4'> +1.4158111e-06 </wgt>
<wgt id='morphing_basis_vector_5'> +2.5288509e-06 </wgt>
</rwgt>
</event>
<event>
 4      1 +9.0096000e-12 5.56997900e+03 7.81860800e-03 7.31129000e-02
        2 -1    0    0  501    0 +0.0000000000e+00 +0.0000000000e+00 +2.7210381403e+03 2.7210381403e+03 0.0000000000e+00 0.0000e+00 -1.0000e+00
       -2 -1    0    0    0  501 -0.0000000000e+00 -0.0000000000e+00 -2.8504443231e+03 2.8504443231e+03 0.0000000000e+00 0.0000e+00 1.0000e+00
      -13  1    1    2    0    0 -1.0322162071e+03 -1.9811073017e+02 -2.6444394664e+03 2.8456595459e+03 0.0000000000e+00 0.0000e+00 1.0000e+00
       13  1    1    2    0    0 +1.0322162071e+03 +1.9811073017e+02 +2.5150332837e+03 2.7258229175e+03 0.0000000000e+00 0.0000e+00 -1.0000e+00
<mgrwt>
<rscale>  0 0.55699794E+04</rscale>
<asrwt>0</asrwt>
<pdfrwt beam="1">  1        2 0.41862125E+00 0.55699794E+04</pdfrwt>
<pdfrwt beam="2">  1       -2 0.43852989E+00 0.55699794E+04</pdfrwt>
<totfact> 0.65049219E-03</totfact>
</mgrwt>
<rwgt>
<wgt id='morphing_basis_vector_1'> +1.1727417e-06 </wgt>
<wgt id='morphing_basis_vector_2'> +7.9711399e-07 </wgt>
<wgt id='morphing_basis_vector_3'> +1.2933611e-06 </wgt>
<wgt id='morphing_basis_vector_4'> +9.3606618e-07 </wgt>
<wgt id='morphing_basis_vector_5'> +1.4926754e-06 </wgt>
</rwgt>
</event>
<event>
 4      1 +9.0096000e-12 5.65965000e+03 7.81860800e-03 7.30058300e-02
        2 -1    0    0  501    0 +0.0000000000e+00 +0.0000000000e+00 +3.6955121083e+03 3.6955121083e+03 0.0000000000e+00 0.0000e+00 1.0000e+00
       -2 -1    0    0    0  501 -0.0000000000e+00 -0.0000000000e+00 -2.1669283937e+03 2.1669283937e+03 0.0000000000e+00 0.0000e+00 -1.0000e+00
      -13  1    1    2    0    0 -1.2461475685e+03 +2.1812201558e+03 -5.8519544035e+02 2.5793524059e+03 0.0000000000e+00 0.0000e+00 -1.0000e+00
       13  1    1    2    0    0 +1.2461475685e+03 -2.1812201558e+03 +2.1137791550e+03 3.2830880961e+03 0.0000000000e+00 0.0000e+00 1.0000e+00
<mgrwt>
<rscale>  0 0.56596502E+04</rscale>
<asrwt>0</asrwt>
<pdfrwt beam="1">  1        2 0.56854032E+00 0.56596502E+04</pdfrwt>
<pdfrwt beam="2">  1       -2 0.33337360E+00 0.56596502E+04</pdfrwt>
<totfact> 0.67402418E-03</totfact>
</mgrwt>
<rwgt>
<wgt id='morphing_basis_vector_1'> +1.2566924e-06 </wgt>
<wgt id='morphing_basis_vector_2'> +8.6959275e-07 </wgt>
<wgt id='morphing_basis_vector_3'> +1.3897436e-06 </wgt>
<wgt id='morphing_basis_vector_4'> +9.8345131e-07 </wgt>
<wgt id='morphing_basis_vector_5'> +1.5901788e-06 </wgt>
</rwgt>
</event>
<event>
 4      1 +9.0096000e-12 5.62778200e+03 7.81860800e-03 7.30436500e-02
        2 -1    0    0  501    0 +0.0000000000e+00 +0.0000000000e+00 +4.1741004668e+03 4.1741004668e+03 0.0000000000e+00 0.0000e+00 -1.0000e+00
       -2 -1    0    0    0  501 -0.0000000000e+00 -0.0000000000e+00 -1.8969311940e+03 1.8969311940e+03 0.0000000000e+00 0.0000e+00 1.0000e+00
      -13  1    1    2    0    0 -1.8407245000e+03 -1.9009790877e+03 +1.0612902241e+02 2.6482544338e+03 0.0000000000e+00 0.0000e+00 1.0000e+00
       13  1    1    2    0    0 +1.8407245000e+03 +1.9009790877e+03 +2.1710402504e+03 3.4227772270e+03 0.0000000000e+00 0.0000e+00 -1.0000e+00
<mgrwt>
<rscale>  0 0.56277816E+04</rscale>
<asrwt>0</asrwt>
<pdfrwt beam="1">  1        2 0.64216930E+00 0.56277816E+04</pdfrwt>
<pdfrwt beam="2">  1       -2 0.29183557E+00 0.56277816E+04</pdfrwt>
<totfact> 0.50871898E-03</totfact>
</mgrwt>
<rwgt>
<wgt id='morphing_basis_vector_1'> +1.2337737e-06 </wgt>
<wgt id='morphing_basis_vector_2'> +8.6509432e-07 </wgt>
<wgt id='morphing_basis_vector_3'> +1.3669823e-06 </wgt>
<wgt id='morphing_basis_vector_4'> +9.5058844e-07 </wgt>
<wgt id='morphing_basis_vector_5'> +1.5536654e-06 </wgt>
</rwgt>
</event>
<event>
 4      1 +9.0096000e-12 5.71714500e+03 7.81860800e-03 7.29382400e-02
        2 -1    0    0  501    0 +0.0000000000e+00 +0.0000000000e+00 +2.4670365837e+03 2.4670365837e+03 0.0000000000e+00 0.0000e+00 1.0000e+00
       -2 -1    0    0    0  501 -0.0000000000e+00 -0.0000000000e+00 -3.3122483377e+03 3.3122483377e+03 0.0000000000e+00 0.0000e+00 -1.0000e+00
      -13  1    1    2    0    0 +2.4829157891e+03 +1.1132545755e+03 -1.3080435866e+03 3.0191363981e+03 0.0000000000e+00 0.0000e+00 -1.0000e+00
       13  1    1    2    0    0 -2.4829157891e+03 -1.1132545755e+03 +4.6283183258e+02 2.7601485233e+03 0.0000000000e+00 0.0000e+00 1.0000e+00
<mgrwt>
<rscale>  0 0.57171454E+04</rscale>
<asrwt>0</asrwt>
<pdfrwt beam="1">  1        2 0.37954409E+00 0.57171454E+04</pdfrwt>
<pdfrwt beam="2">  1       -2 0.50957666E+00 0.57171454E+04</pdfrwt>
<totfact> 0.27931756E-03</totfact>
</mgrwt>
<rwgt>
<wgt id='morphing_basis_vector_1'> +1.3157932e-06 </wgt>
<wgt id='morphing_basis_vector_2'> +9.2711419e-07 </wgt>
<wgt id='morphing_basis_vector_3'> +1.4591181e-06 </wgt>
<wgt id='morphing_basis_vector_4'> +1.0083410e-06 </wgt>
<wgt id='morphing_basis_vector_5'> +1.6546242e-06 </wgt>
</rwgt>
</event>
<event>
 4      1 +9.0096000e-12 6.19289200e+03 7.81860800e-03 7.24083100e-02
        2 -1    0    0  501    0 +0.0000000000e+00 +0.0000000000e+00 +1.6265915275e+03 1.6265915275e+03 0.0000000000e+00 0.0000e+00 1.0000e+00
       -2 -1    0    0    0  501 -0.0000000000e+00 -0.0000000000e+00 -5.8945204026e+03 5.8945204026e+03 0.0000000000e+00 0.0000e+00 -1.0000e+00
      -13  1    1    2    0    0 -1.2511309820e+03 +2.8267433375e+03 -2.3517937024e+03 3.8841653220e+03 0.0000000000e+00 0.0000e+00 -1.0000e+00
       13  1    1    2    0    0 +1.2511309820e+03 -2.8267433375e+03 -1.9161351727e+03 3.6369466081e+03 0.0000000000e+00 0.0000e+00 1.0000e+00
<mgrwt>
<rscale>  0 0.61928917E+04</rscale>
<asrwt>0</asrwt>
<pdfrwt beam="1">  1        2 0.25024485E+00 0.61928917E+04</pdfrwt>
<pdfrwt beam="2">  1       -2 0.90684930E+00 0.61928917E+04</pdfrwt>
<totfact> 0.14112646E-04</totfact>
</mgrwt>
<rwgt>
<wgt id='morphing_basis_vector_1'> +1.8435471e-06 </wgt>
<wgt id='morphing_basis_vector_2'> +1.3739331e-06 </wgt>
<wgt id='morphing_basis_vector_3'> +2.0633325e-06 </wgt>
<wgt id='morphing_basis_vector_4'> +1.3177949e-06 </wgt>
<wgt id='morphing_basis_vector_5'> +2.2736316e-06 </wgt>
</rwgt>
</event>
<event>
 4      1 +9.0096000e-12 5.71926400e+03 7.81860800e-03 7.29357700e-02
        2 -1    0    0  501    0 +0.0000000000e+00 +0.0000000000e+00 +3.0926098825e+03 3.0926098825e+03 0.0000000000e+00 0.0000e+00 -1.0000e+00
       -2 -1    0    0    0  501 -0.0000000000e+00 -0.0000000000e+00 -2.6442054707e+03 2.6442054707e+03 0.0000000000e+00 0.0000e+00 1.0000e+00
      -13  1    1    2    0    0 +2.5994913349e+03 +1.0905589725e+03 -2.5771142455e+02 2.8307400536e+03 0.0000000000e+00 0.0000e+00 1.0000e+00
       13  1    1    2    0    0 -2.5994913349e+03 -1.0905589725e+03 +7.0611583627e+02 2.9060752996e+03 0.0000000000e+00 0.0000e+00 -1.0000e+00
<mgrwt>
<rscale>  0 0.57192643E+04</rscale>
<asrwt>0</asrwt>
<pdfrwt beam="1">  1        2 0.47578614E+00 0.57192643E+04</pdfrwt>
<pdfrwt beam="2">  1       -2 0.40680084E+00 0.57192643E+04</pdfrwt>
<totfact> 0.60537188E-03</totfact>
</mgrwt>
<rwgt>
<wgt id='morphing_basis_vector_1'> +1.3287751e-06 </wgt>
<wgt id='morphing_basis_vector_2'> +9.6088168e-07 </wgt>
<wgt id='morphing_basis_vector_3'> +1.4792755e-06 </wgt>
<wgt id='morphing_basis_vector_4'> +9.8625601e-07 </wgt>
<wgt id='morphing_basis_vector_5'> +1.6551023e-06 </wgt>
</rwgt>
</event>
<event>
 4      1 +9.0096000e-12 5.72641000e+03 7.81860800e-03 7.29274300e-02
        2 -1    0    0  501    0 +0.0000000000e+00 +0.0000000000e+00 +2.7705132581e+03 2.7705132581e+03 0.0000000000e+00 0.0000e+00 -1.0000e+00
       -2 -1    0    0    0  501 -0.0000000000e+00 -0.0000000000e+00 -2.9589976891e+03 2.9589976891e+03 0.0000000000e+00 0.0000e+00 1.0000e+00
      -13  1    1    2    0    0 +9.0185824617e+02 -2.1413369484e+03 -1.7682502250e+03 2.9198255224e+03 0.0000000000e+00 0.0000e+00 1.0000e+00
       13  1    1    2    0    0 -9.0185824617e+02 +2.1413369484e+03 +1.5797657940e+03 2.8096854248e+03 0.0000000000e+00 0.0000e+00 -1.0000e+00
<mgrwt>
<rscale>  0 0.57264098E+04</rscale>
<asrwt>0</asrwt>
<pdfrwt beam="1">  1        2 0.42623281E+00 0.57264098E+04</pdfrwt>
<pdfrwt beam="2">  1       -2 0.45523041E+00 0.57264098E+04</pdfrwt>
<totfact> 0.45888791E-03</totfact>
</mgrwt>
<rwgt>
<wgt id='morphing_basis_vector_1'> +1.3133437e-06 </wgt>
<wgt id='morphing_basis_vector_2'> +9.0090716e-07 </wgt>
<wgt id='morphing_basis_vector_3'> +1.4506981e-06 </wgt>
<wgt id='morphing_basis_vector_4'> +1.0383701e-06 </wgt>
<wgt id='morphing_basis_vector_5'> +1.6673734e-06 </wgt>
</rwgt>
</event>
<event>
 4      1 +9.0096000e-12 6.14798000e+03 7.81860800e-03 7.24562300e-02
        2 -1    0    0  501    0 +0.0000000000e+00 +0.0000000000e+00 +2.8297093547e+03 2.8297093547e+03 0.0000000000e+00 0.0000e+00 -1.0000e+00
       -2 -1    0    0    0  501 -0.0000000000e+00 -0.0000000000e+00 -3.3393584493e+03 3.3393584493e+03 0.0000000000e+00 0.0000e+00 1.0000e+00
      -13  1    1    2    0    0 -1.6683444372e+03 -2.4223295380e+03 -1.1513994484e+03 3.1586032105e+03 0.0000000000e+00 0.0000e+00 1.0000e+00
       13  1    1    2    0    0 +1.6683444372e+03 +2.4223295380e+03 +6.4175035382e+02 3.0104645935e+03 0.0000000000e+00 0.0000e+00 -1.0000e+00
<mgrwt>
<rscale>  0 0.61479798E+04</rscale>
<asrwt>0</asrwt>
<pdfrwt beam="1">  1        2 0.43533990E+00 0.61479798E+04</pdfrwt>
<pdfrwt beam="2">  1       -2 0.51374745E+00 0.61479798E+04</pdfrwt>
<totfact> 0.15108849E-03</totfact>
</mgrwt>
<rwgt>
<wgt id='morphing_basis_vector_1'> +1.7596975e-06 </wgt>
<wgt id='morphing_basis_vector_2'> +1.2433812e-06 </wgt>
<wgt id='morphing_basis_vector_3'> +1.9533695e-06 </wgt>
<wgt id='morphing_basis_vector_4'> +1.3463805e-06 </wgt>
<wgt id='morphing_basis_vector_5'> +2.2138511e-06 </wgt>
</rwgt>
</event>
<event>
 4      1 +9.0096000e-12 6.54810200e+03 7.81860800e-03 7.20432400e-02
        2 -1    0    0  501    0 +0.0000000000e+00 +0.0000000000e+00 +3.7357405856e+03 3.7357405856e+03 0.0000000000e+00 0.0000e+00 -1.0000e+00
       -2 -1    0    0    0  501 -0.0000000000e+00 -0.0000000000e+00 -2.8694202984e+03 2.8694202984e+03 0.0000000000e+00 0.0000e+00 1.0000e+00
      -13  1    1    2    0    0 +2.3878059034e+03 -1.7621606083e+03 -9.6185233319e+02 3.1196132697e+03 0.0000000000e+00 0.0000e+00 1.0000e+00
       13  1    1    2    0    0 -2.3878059034e+03 +1.7621606083e+03 +1.8281726204e+03 3.4855476143e+03 0.0000000000e+00 0.0000e+00 -1.0000e+00
<mgrwt>
<rscale>  0 0.65481020E+04</rscale>
<asrwt>0</asrwt>
<pdfrwt beam="1">  1        2 0.57472932E+00 0.65481020E+04</pdfrwt>
<pdfrwt beam="2">  1       -2 0.44144928E+00 0.65481020E+04</pdfrwt>
<totfact> 0.11503795E-03</totfact>
</mgrwt>
<rwgt>
<wgt id='morphing_basis_vector_1'> +2.2514026e-06 </wgt>
<wgt id='morphing_basis_vector_2'> +1.5647281e-06 </wgt>
<wgt id='morphing_basis_vector_3'> +2.4941761e-06 </wgt>
<wgt id='morphing_basis_vector_4'> +1.7589775e-06 </wgt>
<wgt id='morphing_basis_vector_5'> +2.8524818e-06 </wgt>
</rwgt>
</event>
<event>
 4      1 +9.0096000e-12 5.83511700e+03 7.81860800e-03 7.28020600e-02
        2 -1    0    0  501    0 +0.0000000000e+00 +0.0000000000e+00 +2.2807581720e+03 2.2807581720e+03 0.0000000000e+00 0.0000e+00 1.0000e+00
       -2 -1    0    0    0  501 -0.0000000000e+00 -0.0000000000e+00 -3.7321564920e+03 3.7321564920e+03 0.0000000000e+00 0.0000e+00 -1.0000e+00
      -13  1    1    2    0    0 -2.6459111669e+03 +8.8941862170e+02 +1.4882663171e+02 2.7953641541e+03 0.0000000000e+00 0.0000e+00 -1.0000e+00
       13  1    1    2    0    0 +2.6459111669e+03 -8.8941862170e+02 -1.6002249517e+03 3.2175505099e+03 0.0000000000e+00 0.0000e+00 1.0000e+00
<mgrwt>
<rscale>  0 0.58351166E+04</rscale>
<asrwt>0</asrwt>
<pdfrwt beam="1">  1        2 0.35088588E+00 0.58351166E+04</pdfrwt>
<pdfrwt beam="2">  1       -2 0.57417791E+00 0.58351166E+04</pdfrwt>
<totfact> 0.12039815E-03</totfact>
</mgrwt>
<rwgt>
<wgt id='morphing_basis_vector_1'> +1.5518328e-06 </wgt>
<wgt id='morphing_basis_vector_2'> +1.3708638e-06 </wgt>
<wgt id='morphing_basis_vector_3'> +1.7861457e-06 </wgt>
<wgt id='morphing_basis_vector_4'> +8.2859604e-07 </wgt>
<wgt id='morphing_basis_vector_5'> +1.7734809e-06 </wgt>
</rwgt>
</event>
<event>
 4      1 +9.0096000e-12 6.46480200e+03 7.81860800e-03 7.21267100e-02
        2 -1    0    0  501    0 +0.0000000000e+00 +0.0000000000e+00 +3.7247774028e+03 3.7247774028e+03 0.0000000000e+00 0.0000e+00 -1.0000e+00
       -2 -1    0    0    0  501 -0.0000000000e+00 -0.0000000000e+00 -2.8051117637e+03 2.8051117637e+03 0.0000000000e+00 0.0000e+00 1.0000e+00
      -13  1    1    2    0    0 -1.5663095934e+03 +1.4282278441e+03 -2.0050756642e+03 2.9177883638e+03 0.0000000000e+00 0.0000e+00 1.0000e+00
       13  1    1    2    0    0 +1.5663095934e+03 -1.4282278441e+03 +2.9247413033e+03 3.6121008026e+03 0.0000000000e+00 0.0000e+00 -1.0000e+00
<mgrwt>
<rscale>  0 0.64648022E+04</rscale>
<asrwt>0</asrwt>
<pdfrwt beam="1">  1        2 0.57304268E+00 0.64648022E+04</pdfrwt>
<pdfrwt beam="2">  1       -2 0.43155565E+00 0.64648022E+04</pdfrwt>
<totfact> 0.13783571E-03</totfact>
</mgrwt>
<rwgt>
<wgt id='morphing_basis_vector_1'> +2.1268396e-06 </wgt>
<wgt id='morphing_basis_vector_2'> +1.4503397e-06 </wgt>
<wgt id='morphing_basis_vector_3'> +2.3494167e-06 </wgt>
<wgt id='morphing_basis_vector_4'> +1.6975273e-06 </wgt>
<wgt id='morphing_basis_vector_5'> +2.7120536e-06 </wgt>
</rwgt>
</event>
<event>
 4      1 +9.0096000e-12 5.58609800e+03 7.81860800e-03 7.30935000e-02
        2 -1    0    0  501    0 +0.0000000000e+00 +0.0000000000e+00 +4.3122268268e+03 4.3122268268e+03 0.0000000000e+00 0.0000e+00 -1.0000e+00
       -2 -1    0    0    0  501 -0.0000000000e+00 -0.0000000000e+00 -1.8090704189e+03 1.8090704189e+03 0.0000000000e+00 0.0000e+00 1.0000e+00
      -13  1    1    2    0    0 -1.0957018477e+02 -2.3323141055e+03 -4.2806076594e+02 2.3738009039e+03 0.0000000000e+00 0.0000e+00 1.0000e+00
       13  1    1    2    0    0 +1.0957018477e+02 +2.3323141055e+03 +2.9312171739e+03 3.7474963419e+03 0.0000000000e+00 0.0000e+00 -1.0000e+00
<mgrwt>
<rscale>  0 0.55860977E+04</rscale>
<asrwt>0</asrwt>
<pdfrwt beam="1">  1        2 0.66341951E+00 0.55860977E+04</pdfrwt>
<pdfrwt beam="2">  1       -2 0.27831853E+00 0.55860977E+04</pdfrwt>
<totfact> 0.46860905E-03</totfact>
</mgrwt>
<rwgt>
<wgt id='morphing_basis_vector_1'> +1.1903448e-06 </wgt>
<wgt id='morphing_basis_vector_2'> +8.1813066e-07 </wgt>
<wgt id='morphing_basis_vector_3'> +1.3149210e-06 </wgt>
<wgt id='morphing_basis_vector_4'> +9.3841876e-07 </wgt>
<wgt id='morphing_basis_vector_5'> +1.5093540e-06 </wgt>
</rwgt>
</event>
<event>
 4      1 +9.0096000e-12 5.86300200e+03 7.81860800e-03 7.27703500e-02
        2 -1    0    0  501    0 +0.0000000000e+00 +0.0000000000e+00 +3.9640460278e+03 3.9640460278e+03 0.0000000000e+00 0.0000e+00 1.0000e+00
       -2 -1    0    0    0  501 -0.0000000000e+00 -0.0000000000e+00 -2.1679110383e+03 2.1679110383e+03 0.0000000000e+00 0.0000e+00 -1.0000e+00
      -13  1    1    2    0    0 -2.9445339554e+02 -2.8829181295e+03 +4.3530033717e+02 2.9304276355e+03 0.0000000000e+00 0.0000e+00 1.0000e+00
       13  1    1    2    0    0 +2.9445339554e+02 +2.8829181295e+03 +1.3608346523e+03 3.2015294305e+03 0.0000000000e+00 0.0000e+00 -1.0000e+00
<mgrwt>
<rscale>  0 0.58630024E+04</rscale>
<asrwt>0</asrwt>
<pdfrwt beam="1">  1        2 0.60985324E+00 0.58630024E+04</pdfrwt>
<pdfrwt beam="2">  1       -2 0.33352477E+00 0.58630024E+04</pdfrwt>
<totfact> 0.40198286E-03</totfact>
</mgrwt>
<rwgt>
<wgt id='morphing_basis_vector_1'> +1.4690557e-06 </wgt>
<wgt id='morphing_basis_vector_2'> +1.0667475e-06 </wgt>
<wgt id='morphing_basis_vector_3'> +1.6368440e-06 </wgt>
<wgt id='morphing_basis_vector_4'> +1.0853125e-06 </wgt>
<wgt id='morphing_basis_vector_5'> +1.8279450e-06 </wgt>
</rwgt>
</event>
<event>
 4      1 +9.0096000e-12 6.06576500e+03 7.81860800e-03 7.25450500e-02
        2 -1    0    0  501    0 +0.0000000000e+00 +0.0000000000e+00 +3.8402636824e+03 3.8402636824e+03 0.0000000000e+00 0.0000e+00 1.0000e+00
       -2 -1    0    0    0  501 -0.0000000000e+00 -0.0000000000e+00 -2.3952463147e+03 2.3952463147e+03 0.0000000000e+00 0.0000e+00 -1.0000e+00
      -13  1    1    2    0    0 -9.8477334458e+02 -1.1401924661e+03 -1.9833671465e+03 2.4906952117e+03 0.0000000000e+00 0.0000e+00 -1.0000e+00
       13  1    1    2    0    0 +9.8477334458e+02 +1.1401924661e+03 +3.4283845142e+03 3.7448147854e+03 0.0000000000e+00 0.0000e+00 1.0000e+00
<mgrwt>
<rscale>  0 0.60657654E+04</rscale>
<asrwt>0</asrwt>
<pdfrwt beam="1">  1        2 0.59080980E+00 0.60657654E+04</pdfrwt>
<pdfrwt beam="2">  1       -2 0.36849943E+00 0.60657654E+04</pdfrwt>
<totfact> 0.29727702E-03</totfact>
</mgrwt>
<rwgt>
<wgt id='morphing_basis_vector_1'> +1.6482839e-06 </wgt>
<wgt id='morphing_basis_vector_2'> +1.1214429e-06 </wgt>
<wgt id='morphing_basis_vector_3'> +1.8193518e-06 </wgt>
<wgt id='morphing_basis_vector_4'> +1.3170647e-06 </wgt>
<wgt id='morphing_basis_vector_5'> +2.1010304e-06 </wgt>
</rwgt>
</event>
<event>
 4      1 +9.0096000e-12 5.67167200e+03 7.81860800e-03 7.29916300e-02
        2 -1    0    0  501    0 +0.0000000000e+00 +0.0000000000e+00 +3.7475847149e+03 3.7475847149e+03 0.0000000000e+00 0.0000e+00 1.0000e+00
       -2 -1    0    0    0  501 -0.0000000000e+00 -0.0000000000e+00 -2.1459059986e+03 2.1459059986e+03 0.0000000000e+00 0.0000e+00 -1.0000e+00
      -13  1    1    2    0    0 +1.6944325543e+03 -7.5451407799e+01 -1.5607470373e+03 2.3049351207e+03 0.0000000000e+00 0.0000e+00 -1.0000e+00
       13  1    1    2    0    0 -1.6944325543e+03 +7.5451407799e+01 +3.1624257536e+03 3.5885555929e+03 0.0000000000e+00 0.0000e+00 1.0000e+00
<mgrwt>
<rscale>  0 0.56716715E+04</rscale>
<asrwt>0</asrwt>
<pdfrwt beam="1">  1        2 0.57655150E+00 0.56716715E+04</pdfrwt>
<pdfrwt beam="2">  1       -2 0.33013938E+00 0.56716715E+04</pdfrwt>
<totfact> 0.64405764E-03</totfact>
</mgrwt>
<rwgt>
<wgt id='morphing_basis_vector_1'> +1.2610714e-06 </wgt>
<wgt id='morphing_basis_vector_2'> +8.5848903e-07 </wgt>
<wgt id='morphing_basis_vector_3'> +1.3913100e-06 </wgt>
<wgt id='morphing_basis_vector_4'> +1.0053258e-06 </wgt>
<wgt id='morphing_basis_vector_5'> +1.6048980e-06 </wgt>
</rwgt>
</event>
<event>
 4      1 +9.0096000e-12 6.27965300e+03 7.81860800e-03 7.23168900e-02
        2 -1    0    0  501    0 +0.0000000000e+00 +0.0000000000e+00 +2.9986316652e+03 2.9986316652e+03 0.0000000000e+00 0.0000e+00 1.0000e+00
       -2 -1    0    0    0  501 -0.0000000000e+00 -0.0000000000e+00 -3.2876698346e+03 3.2876698346e+03 0.0000000000e+00 0.0000e+00 -1.0000e+00
      -13  1    1    2    0    0 +1.4088179278e+03 -1.8612024485e+03 +1.9576251713e+03 3.0464961545e+03 0.0000000000e+00 0.0000e+00 1.0000e+00
       13  1    1    2    0    0 -1.4088179278e+03 +1.8612024485e+03 -2.2466633407e+03 3.2398053452e+03 0.0000000000e+00 0.0000e+00 -1.0000e+00
<mgrwt>
<rscale>  0 0.62796531E+04</rscale>
<asrwt>0</asrwt>
<pdfrwt beam="1">  1        2 0.46132795E+00 0.62796531E+04</pdfrwt>
<pdfrwt beam="2">  1       -2 0.50579536E+00 0.62796531E+04</pdfrwt>
<totfact> 0.13374113E-03</totfact>
</mgrwt>
<rwgt>
<wgt id='morphing_basis_vector_1'> +2.4096793e-06 </wgt>
<wgt id='morphing_basis_vector_2'> +2.8050474e-06 </wgt>
<wgt id='morphing_basis_vector_3'> +2.9348439e-06 </wgt>
<wgt id='morphing_basis_vector_4'> +4.0675038e-07 </wgt>
<wgt id='morphing_basis_vector_5'> +2.3209763e-06 </wgt>
</rwgt>
</event>
<event>
 4      1 +9.0096000e-12 5.78693200e+03 7.81860800e-03 7.28572800e-02
        2 -1    0    0  501    0 +0.0000000000e+00 +0.0000000000e+00 +3.6271884377e+03 3.6271884377e+03 0.0000000000e+00 0.0000e+00 1.0000e+00
       -2 -1    0    0    0  501 -0.0000000000e+00 -0.0000000000e+00 -2.3081635261e+03 2.3081635261e+03 0.0000000000e+00 0.0000e+00 -1.0000e+00
      -13  1    1    2    0    0 -1.1098099208e+03 -2.1824839614e+03 -9.2185834017e+02 2.6162448474e+03 0.0000000000e+00 0.0000e+00 1.0000e+00
       13  1    1    2    0    0 +1.1098099208e+03 +2.1824839614e+03 +2.2408832518e+03 3.3191071164e+03 0.0000000000e+00 0.0000e+00 -1.0000e+00
<mgrwt>
<rscale>  0 0.57869315E+04</rscale>
<asrwt>0</asrwt>
<pdfrwt beam="1">  1        2 0.55802899E+00 0.57869315E+04</pdfrwt>
<pdfrwt beam="2">  1       -2 0.35510208E+00 0.57869315E+04</pdfrwt>
<totfact> 0.54380823E-03</totfact>
</mgrwt>
<rwgt>
<wgt id='morphing_basis_vector_1'> +1.3709282e-06 </wgt>
<wgt id='morphing_basis_vector_2'> +9.4343314e-07 </wgt>
<wgt id='morphing_basis_vector_3'> +1.5151482e-06 </wgt>
<wgt id='morphing_basis_vector_4'> +1.0802559e-06 </wgt>
<wgt id='morphing_basis_vector_5'> +1.7389255e-06 </wgt>
</rwgt>
</event>
<event>
 4      1 +9.0096000e-12 5.57964900e+03 7.81860800e-03 7.31012500e-02
        2 -1    0    0  501    0 +0.0000000000e+00 +0.0000000000e+00 +2.1598864931e+03 2.1598864931e+03 0.0000000000e+00 0.0000e+00 -1.0000e+00
       -2 -1    0    0    0  501 -0.0000000000e+00 -0.0000000000e+00 -3.6034857907e+03 3.6034857907e+03 0.0000000000e+00 0.0000e+00 1.0000e+00
      -13  1    1    2    0    0 -2.6767960131e+02 +1.8135978194e+03 -2.8939777093e+03 3.4257694612e+03 0.0000000000e+00 0.0000e+00 1.0000e+00
       13  1    1    2    0    0 +2.6767960131e+02 -1.8135978194e+03 +1.4503784117e+03 2.3376028226e+03 0.0000000000e+00 0.0000e+00 -1.0000e+00
<mgrwt>
<rscale>  0 0.55796488E+04</rscale>
<asrwt>0</asrwt>
<pdfrwt beam="1">  1        2 0.33229023E+00 0.55796488E+04</pdfrwt>
<pdfrwt beam="2">  1       -2 0.55438242E+00 0.55796488E+04</pdfrwt>
<totfact> 0.20031782E-03</totfact>
</mgrwt>
<rwgt>
<wgt id='morphing_basis_vector_1'> +1.1817627e-06 </wgt>
<wgt id='morphing_basis_vector_2'> +8.0523537e-07 </wgt>
<wgt id='morphing_basis_vector_3'> +1.3037945e-06 </wgt>
<wgt id='morphing_basis_vector_4'> +9.4072385e-07 </wgt>
<wgt id='morphing_basis_vector_5'> +1.5029364e-06 </wgt>
</rwgt>
</event>
<event>
 4      1 +9.0096000e-12 6.54726400e+03 7.81860800e-03 7.20440700e-02
        2 -1    0    0  501    0 +0.0000000000e+00 +0.0000000000e+00 +2.0358253678e+03 2.0358253678e+03 0.0000000000e+00 0.0000e+00 1.0000e+00
       -2 -1    0    0    0  501 -0.0000000000e+00 -0.0000000000e+00 -5.2640400964e+03 5.2640400964e+03 0.0000000000e+00 0.0000e+00 -1.0000e+00
      -13  1    1    2    0    0 +1.7427682693e+03 -1.9890547228e+03 -3.7654350429e+03 4.6013129640e+03 0.0000000000e+00 0.0000e+00 -1.0000e+00
       13  1    1    2    0    0 -1.7427682693e+03 +1.9890547228e+03 +5.3722031428e+02 2.6985525003e+03 0.0000000000e+00 0.0000e+00 1.0000e+00
<mgrwt>
<rscale>  0 0.65472640E+04</rscale>
<asrwt>0</asrwt>
<pdfrwt beam="1">  1        2 0.31320391E+00 0.65472640E+04</pdfrwt>
<pdfrwt beam="2">  1       -2 0.80985231E+00 0.65472640E+04</pdfrwt>
<totfact> 0.47388143E-04</totfact>
</mgrwt>
<rwgt>
<wgt id='morphing_basis_vector_1'> +2.2415051e-06 </wgt>
<wgt id='morphing_basis_vector_2'> +1.5382575e-06 </wgt>
<wgt id='morphing_basis_vector_3'> +2.4785847e-06 </wgt>
<wgt id='morphing_basis_vector_4'> +1.7768144e-06 </wgt>
<wgt id='morphing_basis_vector_5'> +2.8525972e-06 </wgt>
</rwgt>
</event>
<event>
 4      1 +9.0096000e-12 5.68043800e+03 7.81860800e-03 7.29813000e-02
        2 -1    0    0  501    0 +0.0000000000e+00 +0.0000000000e+00 +4.1427863461e+03 4.1427863461e+03 0.0000000000e+00 0.0000e+00 -1.0000e+00
       -2 -1    0    0    0  501 -0.0000000000e+00 -0.0000000000e+00 -1.9472024114e+03 1.9472024114e+03 0.0000000000e+00 0.0000e+00 1.0000e+00
      -13  1    1    2    0    0 +1.0995593908e+03 +5.5527606783e+01 -1.7091267409e+03 2.0330342804e+03 0.0000000000e+00 0.0000e+00 1.0000e+00
       13  1    1    2    0    0 -1.0995593908e+03 -5.5527606783e+01 +3.9047106756e+03 4.0569544770e+03 0.0000000000e+00 0.0000e+00 -1.0000e+00
<mgrwt>
<rscale>  0 0.56804379E+04</rscale>
<asrwt>0</asrwt>
<pdfrwt beam="1">  1        2 0.63735174E+00 0.56804379E+04</pdfrwt>
<pdfrwt beam="2">  1       -2 0.29956960E+00 0.56804379E+04</pdfrwt>
<totfact> 0.47954186E-03</totfact>
</mgrwt>
<rwgt>
<wgt id='morphing_basis_vector_1'> +1.2683228e-06 </wgt>
<wgt id='morphing_basis_vector_2'> +8.6220878e-07 </wgt>
<wgt id='morphing_basis_vector_3'> +1.3990447e-06 </wgt>
<wgt id='morphing_basis_vector_4'> +1.0127316e-06 </wgt>
<wgt id='morphing_basis_vector_5'> +1.6149654e-06 </wgt>
</rwgt>
</event>
<event>
 4      1 +9.0096000e-12 6.37000700e+03 7.81860800e-03 7.22232600e-02
        2 -1    0    0  501    0 +0.0000000000e+00 +0.0000000000e+00 +2.5282055486e+03 2.5282055486e+03 0.0000000000e+00 0.0000e+00 1.0000e+00
       -2 -1    0    0    0  501 -0.0000000000e+00 -0.0000000000e+00 -4.0124293720e+03 4.0124293720e+03 0.0000000000e+00 0.0000e+00 -1.0000e+00
      -13  1    1    2    0    0 -3.0583429718e+03 -7.0054986490e+02 -1.7970449344e+02 3.1426939958e+03 0.0000000000e+00 0.0000e+00 -1.0000e+00
       13  1    1    2    0    0 +3.0583429718e+03 +7.0054986490e+02 -1.3045193300e+03 3.3979409248e+03 0.0000000000e+00 0.0000e+00 1.0000e+00
<mgrwt>
<rscale>  0 0.63700067E+04</rscale>
<asrwt>0</asrwt>
<pdfrwt beam="1">  1        2 0.38895470E+00 0.63700067E+04</pdfrwt>
<pdfrwt beam="2">  1       -2 0.61729683E+00 0.63700067E+04</pdfrwt>
<totfact> 0.33227018E-04</totfact>
</mgrwt>
<rwgt>
<wgt id='morphing_basis_vector_1'> +2.1378699e-06 </wgt>
<wgt id='morphing_basis_vector_2'> +1.7569973e-06 </wgt>
<wgt id='morphing_basis_vector_3'> +2.4318536e-06 </wgt>
<wgt id='morphing_basis_vector_4'> +1.3155380e-06 </wgt>
<wgt id='morphing_basis_vector_5'> +2.5322137e-06 </wgt>
</rwgt>
</event>
<event>
 4      1 +9.0096000e-12 5.61723000e+03 7.81860800e-03 7.30562300e-02
        2 -1    0    0  501    0 +0.0000000000e+00 +0.0000000000e+00 +1.4754247018e+03 1.4754247018e+03 0.0000000000e+00 0.0000e+00 -1.0000e+00
       -2 -1    0    0    0  501 -0.0000000000e+00 -0.0000000000e+00 -5.3464722844e+03 5.3464722844e+03 0.0000000000e+00 0.0000e+00 1.0000e+00
      -13  1    1    2    0    0 -6.6591988291e+02 -2.1460369103e+03 +1.1090092863e+02 2.2497161436e+03 0.0000000000e+00 0.0000e+00 1.0000e+00
       13  1    1    2    0    0 +6.6591988291e+02 +2.1460369103e+03 -3.9819485112e+03 4.5721808425e+03 0.0000000000e+00 0.0000e+00 -1.0000e+00
<mgrwt>
<rscale>  0 0.56172297E+04</rscale>
<asrwt>0</asrwt>
<pdfrwt beam="1">  1        2 0.22698842E+00 0.56172297E+04</pdfrwt>
<pdfrwt beam="2">  1       -2 0.82253419E+00 0.56172297E+04</pdfrwt>
<totfact> 0.93890481E-04</totfact>
</mgrwt>
<rwgt>
<wgt id='morphing_basis_vector_1'> +1.4999537e-06 </wgt>
<wgt id='morphing_basis_vector_2'> +1.6670635e-06 </wgt>
<wgt id='morphing_basis_vector_3'> +1.8055325e-06 </wgt>
<wgt id='morphing_basis_vector_4'> +3.5512488e-07 </wgt>
<wgt id='morphing_basis_vector_5'> +1.4925833e-06 </wgt>
</rwgt>
</event>
<event>
 4      1 +9.0096000e-12 5.90657100e+03 7.81860800e-03 7.27211700e-02
        2 -1    0    0  501    0 +0.0000000000e+00 +0.0000000000e+00 +3.1585406298e+03 3.1585406298e+03 0.0000000000e+00 0.0000e+00 1.0000e+00
       -2 -1    0    0    0  501 -0.0000000000e+00 -0.0000000000e+00 -2.7613684232e+03 2.7613684232e+03 0.0000000000e+00 0.0000e+00 -1.0000e+00
      -13  1    1    2    0    0 +1.9639104720e+03 +1.0172793152e+03 -1.7628956707e+03 2.8283568892e+03 0.0000000000e+00 0.0000e+00 -1.0000e+00
       13  1    1    2    0    0 -1.9639104720e+03 -1.0172793152e+03 +2.1600678773e+03 3.0915521638e+03 0.0000000000e+00 0.0000e+00 1.0000e+00
<mgrwt>
<rscale>  0 0.59065707E+04</rscale>
<asrwt>0</asrwt>
<pdfrwt beam="1">  1        2 0.48592933E+00 0.59065707E+04</pdfrwt>
<pdfrwt beam="2">  1       -2 0.42482591E+00 0.59065707E+04</pdfrwt>
<totfact> 0.40975544E-03</totfact>
</mgrwt>
<rwgt>
<wgt id='morphing_basis_vector_1'> +1.4844835e-06 </wgt>
<wgt id='morphing_basis_vector_2'> +1.0147626e-06 </wgt>
<wgt id='morphing_basis_vector_3'> +1.6393292e-06 </wgt>
<wgt id='morphing_basis_vector_4'> +1.1792158e-06 </wgt>
<wgt id='morphing_basis_vector_5'> +1.8881620e-06 </wgt>
</rwgt>
</event>
<event>
 4      1 +9.0096000e-12 5.69556600e+03 7.81860800e-03 7.29635100e-02
        2 -1    0    0  501    0 +0.0000000000e+00 +0.0000000000e+00 +3.7823013158e+03 3.7823013158e+03 0.0000000000e+00 0.0000e+00 -1.0000e+00
       -2 -1    0    0    0  501 -0.0000000000e+00 -0.0000000000e+00 -2.1441626771e+03 2.1441626771e+03 0.0000000000e+00 0.0000e+00 1.0000e+00
      -13  1    1    2    0    0 -1.4765283038e+03 -1.0206405444e+03 -1.4814479421e+03 2.3273441856e+03 0.0000000000e+00 0.0000e+00 1.0000e+00
       13  1    1    2    0    0 +1.4765283038e+03 +1.0206405444e+03 +3.1195865808e+03 3.5991198074e+03 0.0000000000e+00 0.0000e+00 -1.0000e+00
<mgrwt>
<rscale>  0 0.56955665E+04</rscale>
<asrwt>0</asrwt>
<pdfrwt beam="1">  1        2 0.58189251E+00 0.56955665E+04</pdfrwt>
<pdfrwt beam="2">  1       -2 0.32987118E+00 0.56955665E+04</pdfrwt>
<totfact> 0.60595348E-03</totfact>
</mgrwt>
<rwgt>
<wgt id='morphing_basis_vector_1'> +1.2825962e-06 </wgt>
<wgt id='morphing_basis_vector_2'> +8.7360063e-07 </wgt>
<wgt id='morphing_basis_vector_3'> +1.4152162e-06 </wgt>
<wgt id='morphing_basis_vector_4'> +1.0220033e-06 </wgt>
<wgt id='morphing_basis_vector_5'> +1.6321479e-06 </wgt>
</rwgt>
</event>
<event>
 4      1 +9.0096000e-12 6.11001200e+03 7.81860800e-03 7.24970700e-02
        2 -1    0    0  501    0 +0.0000000000e+00 +0.0000000000e+00 +4.3263786270e+03 4.3263786270e+03 0.0000000000e+00 0.0000e+00 -1.0000e+00
       -2 -1    0    0    0  501 -0.0000000000e+00 -0.0000000000e+00 -2.1572457574e+03 2.1572457574e+03 0.0000000000e+00 0.0000e+00 1.0000e+00
      -13  1    1    2    0    0 -2.5757888229e+03 -1.0451144539e+03 -2.6025113327e+02 2.7918959390e+03 0.0000000000e+00 0.0000e+00 1.0000e+00
       13  1    1    2    0    0 +2.5757888229e+03 +1.0451144539e+03 +2.4293840028e+03 3.6917284455e+03 0.0000000000e+00 0.0000e+00 -1.0000e+00
<mgrwt>
<rscale>  0 0.61100121E+04</rscale>
<asrwt>0</asrwt>
<pdfrwt beam="1">  1        2 0.66559671E+00 0.61100121E+04</pdfrwt>
<pdfrwt beam="2">  1       -2 0.33188396E+00 0.61100121E+04</pdfrwt>
<totfact> 0.19093470E-03</totfact>
</mgrwt>
<rwgt>
<wgt id='morphing_basis_vector_1'> +1.7080937e-06 </wgt>
<wgt id='morphing_basis_vector_2'> +1.1876518e-06 </wgt>
<wgt id='morphing_basis_vector_3'> +1.8914677e-06 </wgt>
<wgt id='morphing_basis_vector_4'> +1.3318257e-06 </wgt>
<wgt id='morphing_basis_vector_5'> +2.1611089e-06 </wgt>
</rwgt>
</event>
<event>
 4      1 +9.0096000e-12 5.67669300e+03 7.81860800e-03 7.29857100e-02
        2 -1    0    0  501    0 +0.0000000000e+00 +0.0000000000e+00 +4.3825118854e+03 4.3825118854e+03 0.0000000000e+00 0.0000e+00 -1.0000e+00
       -2 -1    0    0    0  501 -0.0000000000e+00 -0.0000000000e+00 -1.8382635469e+03 1.8382635469e+03 0.0000000000e+00 0.0000e+00 1.0000e+00
      -13  1    1    2    0    0 -2.2894397011e+03 +1.5965669989e+03 +7.0731044827e+02 2.8793833363e+03 0.0000000000e+00 0.0000e+00 1.0000e+00
       13  1    1    2    0    0 +2.2894397011e+03 -1.5965669989e+03 +1.8369378902e+03 3.3413920960e+03 0.0000000000e+00 0.0000e+00 -1.0000e+00
<mgrwt>
<rscale>  0 0.56766933E+04</rscale>
<asrwt>0</asrwt>
<pdfrwt beam="1">  1        2 0.67423260E+00 0.56766933E+04</pdfrwt>
<pdfrwt beam="2">  1       -2 0.28280978E+00 0.56766933E+04</pdfrwt>
<totfact> 0.37063313E-03</totfact>
</mgrwt>
<rwgt>
<wgt id='morphing_basis_vector_1'> +1.2884633e-06 </wgt>
<wgt id='morphing_basis_vector_2'> +9.2884646e-07 </wgt>
<wgt id='morphing_basis_vector_3'> +1.4336248e-06 </wgt>
<wgt id='morphing_basis_vector_4'> +9.5989857e-07 </wgt>
<wgt id='morphing_basis_vector_5'> +1.6064856e-06 </wgt>
</rwgt>
</event>
<event>
 4      1 +9.0096000e-12 5.55647300e+03 7.81860800e-03 7.31292000e-02
        2 -1    0    0  501    0 +0.0000000000e+00 +0.0000000000e+00 +3.2223643943e+03 3.2223643943e+03 0.0000000000e+00 0.0000e+00 1.0000e+00
       -2 -1    0    0    0  501 -0.0000000000e+00 -0.0000000000e+00 -2.3953214723e+03 2.3953214723e+03 0.0000000000e+00 0.0000e+00 -1.0000e+00
      -13  1    1    2    0    0 +1.3126394879e+03 +1.8887785384e+03 -1.1618783169e+03 2.5769105564e+03 0.0000000000e+00 0.0000e+00 -1.0000e+00
       13  1    1    2    0    0 -1.3126394879e+03 -1.8887785384e+03 +1.9889212390e+03 3.0407753102e+03 0.0000000000e+00 0.0000e+00 1.0000e+00
<mgrwt>
<rscale>  0 0.55564732E+04</rscale>
<asrwt>0</asrwt>
<pdfrwt beam="1">  1        2 0.49574837E+00 0.55564732E+04</pdfrwt>
<pdfrwt beam="2">  1       -2 0.36851100E+00 0.55564732E+04</pdfrwt>
<totfact> 0.88763828E-03</totfact>
</mgrwt>
<rwgt>
<wgt id='morphing_basis_vector_1'> +1.1650928e-06 </wgt>
<wgt id='morphing_basis_vector_2'> +8.0014757e-07 </wgt>
<wgt id='morphing_basis_vector_3'> +1.2868177e-06 </wgt>
<wgt id='morphing_basis_vector_4'> +9.1919140e-07 </wgt>
<wgt id='morphing_basis_vector_5'> +1.4775575e-06 </wgt>
</rwgt>
</event>
<event>
 4      1 +9.0096000e-12 5.60827300e+03 7.81860800e-03 7.30669200e-02
        2 -1    0    0  501    0 +0.0000000000e+00 +0.0000000000e+00 +2.9051289798e+03 2.9051289798e+03 0.0000000000e+00 0.0000e+00 -1.0000e+00
       -2 -1    0    0    0  501 -0.0000000000e+00 -0.0000000000e+00 -2.7066549754e+03 2.7066549754e+03 0.0000000000e+00 0.0000e+00 1.0000e+00
      -13  1    1    2    0    0 +1.6679125674e+03 +4.1824273862e+02 -2.1171716352e+03 2.7275034471e+03 0.0000000000e+00 0.0000e+00 1.0000e+00
       13  1    1    2    0    0 -1.6679125674e+03 -4.1824273862e+02 +2.3156456396e+03 2.8842805081e+03 0.0000000000e+00 0.0000e+00 -1.0000e+00
<mgrwt>
<rscale>  0 0.56082731E+04</rscale>
<asrwt>0</asrwt>
<pdfrwt beam="1">  1        2 0.44694292E+00 0.56082731E+04</pdfrwt>
<pdfrwt beam="2">  1       -2 0.41640846E+00 0.56082731E+04</pdfrwt>
<totfact> 0.69911803E-03</totfact>
</mgrwt>
<rwgt>
<wgt id='morphing_basis_vector_1'> +1.2058443e-06 </wgt>
<wgt id='morphing_basis_vector_2'> +8.2101461e-07 </wgt>
<wgt id='morphing_basis_vector_3'> +1.3302766e-06 </wgt>
<wgt id='morphing_basis_vector_4'> +9.6084766e-07 </wgt>
<wgt id='morphing_basis_vector_5'> +1.5341473e-06 </wgt>
</rwgt>
</event>
<event>
 4      1 +9.0096000e-12 5.80647400e+03 7.81860800e-03 7.28348200e-02
        2 -1    0    0  501    0 +0.0000000000e+00 +0.0000000000e+00 +4.0039235719e+03 4.0039235719e+03 0.0000000000e+00 0.0000e+00 -1.0000e+00
       -2 -1    0    0    0  501 -0.0000000000e+00 -0.0000000000e+00 -2.1051313246e+03 2.1051313246e+03 0.0000000000e+00 0.0000e+00 1.0000e+00
      -13  1    1    2    0    0 +1.6899270574e+02 +1.3247588495e+03 -1.7627737887e+03 2.2115415379e+03 0.0000000000e+00 0.0000e+00 1.0000e+00
       13  1    1    2    0    0 -1.6899270574e+02 -1.3247588495e+03 +3.6615660360e+03 3.8975133585e+03 0.0000000000e+00 0.0000e+00 -1.0000e+00
<mgrwt>
<rscale>  0 0.58064739E+04</rscale>
<asrwt>0</asrwt>
<pdfrwt beam="1">  1        2 0.61598824E+00 0.58064739E+04</pdfrwt>
<pdfrwt beam="2">  1       -2 0.32386636E+00 0.58064739E+04</pdfrwt>
<totfact> 0.43243061E-03</totfact>
</mgrwt>
<rwgt>
<wgt id='morphing_basis_vector_1'> +1.3844925e-06 </wgt>
<wgt id='morphing_basis_vector_2'> +9.4154491e-07 </wgt>
<wgt id='morphing_basis_vector_3'> +1.5275556e-06 </wgt>
<wgt id='morphing_basis_vector_4'> +1.1056504e-06 </wgt>
<wgt id='morphing_basis_vector_5'> +1.7634892e-06 </wgt>
</rwgt>
</event>
<event>
 4      1 +9.0096000e-12 5.63348400e+03 7.81860800e-03 7.30368600e-02
        2 -1    0    0  501    0 +0.0000000000e+00 +0.0000000000e+00 +2.9405497672e+03 2.9405497672e+03 0.0000000000e+00 0.0000e+00 1.0000e+00
       -2 -1    0    0    0  501 -0.0000000000e+00 -0.0000000000e+00 -2.6981468373e+03 2.6981468373e+03 0.0000000000e+00 0.0000e+00 -1.0000e+00
      -13  1    1    2    0    0 +1.8592851407e+03 -1.9949468195e+03 +8.2703552378e+02 2.8496915280e+03 0.0000000000e+00 0.0000e+00 -1.0000e+00
       13  1    1    2    0    0 -1.8592851407e+03 +1.9949468195e+03 -5.8463259392e+02 2.7890050765e+03 0.0000000000e+00 0.0000e+00 1.0000e+00
<mgrwt>
<rscale>  0 0.56334838E+04</rscale>
<asrwt>0</asrwt>
<pdfrwt beam="1">  1        2 0.45239227E+00 0.56334838E+04</pdfrwt>
<pdfrwt beam="2">  1       -2 0.41509951E+00 0.56334838E+04</pdfrwt>
<totfact> 0.67553042E-03</totfact>
</mgrwt>
<rwgt>
<wgt id='morphing_basis_vector_1'> +1.3337122e-06 </wgt>
<wgt id='morphing_basis_vector_2'> +1.1473218e-06 </wgt>
<wgt id='morphing_basis_vector_3'> +1.5272675e-06 </wgt>
<wgt id='morphing_basis_vector_4'> +7.5160426e-07 </wgt>
<wgt id='morphing_basis_vector_5'> +1.5429426e-06 </wgt>
</rwgt>
</event>
<event>
 4      1 +9.0096000e-12 5.89013900e+03 7.81860800e-03 7.27396700e-02
        2 -1    0    0  501    0 +0.0000000000e+00 +0.0000000000e+00 +3.1321541752e+03 3.1321541752e+03 0.0000000000e+00 0.0000e+00 -1.0000e+00
       -2 -1    0    0    0  501 -0.0000000000e+00 -0.0000000000e+00 -2.7691598250e+03 2.7691598250e+03 0.0000000000e+00 0.0000e+00 1.0000e+00
      -13  1    1    2    0    0 +9.1890531260e+02 -2.3392049816e+03 -1.3567228948e+03 2.8560399039e+03 0.0000000000e+00 0.0000e+00 1.0000e+00
       13  1    1    2    0    0 -9.1890531260e+02 +2.3392049816e+03 +1.7197172449e+03 3.0452740963e+03 0.0000000000e+00 0.0000e+00 -1.0000e+00
<mgrwt>
<rscale>  0 0.58901394E+04</rscale>
<asrwt>0</asrwt>
<pdfrwt beam="1">  1        2 0.48186988E+00 0.58901394E+04</pdfrwt>
<pdfrwt beam="2">  1       -2 0.42602459E+00 0.58901394E+04</pdfrwt>
<totfact> 0.41955836E-03</totfact>
</mgrwt>
<rwgt>
<wgt id='morphing_basis_vector_1'> +1.4714850e-06 </wgt>
<wgt id='morphing_basis_vector_2'> +1.0135455e-06 </wgt>
<wgt id='morphing_basis_vector_3'> +1.6267355e-06 </wgt>
<wgt id='morphing_basis_vector_4'> +1.1588223e-06 </wgt>
<wgt id='morphing_basis_vector_5'> +1.8665780e-06 </wgt>
</rwgt>
</event>
<event>
 4      1 +9.0096000e-12 6.47434600e+03 7.81860800e-03 7.21170800e-02
        2 -1    0    0  501    0 +0.0000000000e+00 +0.0000000000e+00 +1.9388804905e+03 1.9388804905e+03 0.0000000000e+00 0.0000e+00 -1.0000e+00
       -2 -1    0    0    0  501 -0.0000000000e+00 -0.0000000000e+00 -5.4048147238e+03 5.4048147238e+03 0.0000000000e+00 0.0000e+00 1.0000e+00
      -13  1    1    2    0    0 +1.6715233911e+03 +1.5524716453e+03 -4.3381328309e+03 4.9013829799e+03 0.0000000000e+00 0.0000e+00 1.0000e+00
       13  1    1    2    0    0 -1.6715233911e+03 -1.5524716453e+03 +8.7219859764e+02 2.4423122344e+03 0.0000000000e+00 0.0000e+00 -1.0000e+00
<mgrwt>
<rscale>  0 0.64743462E+04</rscale>
<asrwt>0</asrwt>
<pdfrwt beam="1">  1        2 0.29828931E+00 0.64743462E+04</pdfrwt>
<pdfrwt beam="2">  1       -2 0.83150996E+00 0.64743462E+04</pdfrwt>
<totfact> 0.44383382E-04</totfact>
</mgrwt>
<rwgt>
<wgt id='morphing_basis_vector_1'> +2.1402178e-06 </wgt>
<wgt id='morphing_basis_vector_2'> +1.4613103e-06 </wgt>
<wgt id='morphing_basis_vector_3'> +2.3646540e-06 </wgt>
<wgt id='morphing_basis_vector_4'> +1.7058455e-06 </wgt>
<wgt id='morphing_basis_vector_5'> +2.7279878e-06 </wgt>
</rwgt>
</event>
<event>
 4      1 +9.0096000e-12 6.60530600e+03 7.81860800e-03 7.19866500e-02
        2 -1    0    0  501    0 +0.0000000000e+00 +0.0000000000e+00 +2.2513267694e+03 2.2513267694e+03 0.0000000000e+00 0.0000e+00 1.0000e+00
       -2 -1    0    0    0  501 -0.0000000000e+00 -0.0000000000e+00 -4.8449277137e+03 4.8449277137e+03 0.0000000000e+00 0.0000e+00 -1.0000e+00
      -13  1    1    2    0    0 +2.7230270012e+03 -1.4844167478e+02 -3.2982232069e+03 4.2796246684e+03 0.0000000000e+00 0.0000e+00 -1.0000e+00
       13  1    1    2    0    0 -2.7230270012e+03 +1.4844167478e+02 +7.0462226259e+02 2.8166298147e+03 0.0000000000e+00 0.0000e+00 1.0000e+00
<mgrwt>
<rscale>  0 0.66053056E+04</rscale>
<asrwt>0</asrwt>
<pdfrwt beam="1">  1        2 0.34635797E+00 0.66053056E+04</pdfrwt>
<pdfrwt beam="2">  1       -2 0.74537349E+00 0.66053056E+04</pdfrwt>
<totfact> 0.32214224E-04</totfact>
</mgrwt>
<rwgt>
<wgt id='morphing_basis_vector_1'> +2.3229165e-06 </wgt>
<wgt id='morphing_basis_vector_2'> +1.5964848e-06 </wgt>
<wgt id='morphing_basis_vector_3'> +2.5693112e-06 </wgt>
<wgt id='morphing_basis_vector_4'> +1.8385937e-06 </wgt>
<wgt id='morphing_basis_vector_5'> +2.9551104e-06 </wgt>
</rwgt>
</event>
<event>
 4      1 +9.0096000e-12 5.63924800e+03 7.81860800e-03 7.30300100e-02
        2 -1    0    0  501    0 +0.0000000000e+00 +0.0000000000e+00 +4.2888848641e+03 4.2888848641e+03 0.0000000000e+00 0.0000e+00 -1.0000e+00
       -2 -1    0    0    0  501 -0.0000000000e+00 -0.0000000000e+00 -1.8536936581e+03 1.8536936581e+03 0.0000000000e+00 0.0000e+00 1.0000e+00
      -13  1    1    2    0    0 -1.5716454521e+03 +2.3088328039e+03 +7.9643220612e+02 2.9043213670e+03 0.0000000000e+00 0.0000e+00 1.0000e+00
       13  1    1    2    0    0 +1.5716454521e+03 -2.3088328039e+03 +1.6387589999e+03 3.2382571552e+03 0.0000000000e+00 0.0000e+00 -1.0000e+00
<mgrwt>
<rscale>  0 0.56392477E+04</rscale>
<asrwt>0</asrwt>
<pdfrwt beam="1">  1        2 0.65982844E+00 0.56392477E+04</pdfrwt>
<pdfrwt beam="2">  1       -2 0.28518364E+00 0.56392477E+04</pdfrwt>
<totfact> 0.44121761E-03</totfact>
</mgrwt>
<rwgt>
<wgt id='morphing_basis_vector_1'> +1.2592064e-06 </wgt>
<wgt id='morphing_basis_vector_2'> +9.1728884e-07 </wgt>
<wgt id='morphing_basis_vector_3'> +1.4032118e-06 </wgt>
<wgt id='morphing_basis_vector_4'> +9.2553139e-07 </wgt>
<wgt id='morphing_basis_vector_5'> +1.5636377e-06 </wgt>
</rwgt>
</event>
<event>
 4      1 +9.0096000e-12 5.78994000e+03 7.81860800e-03 7.28538200e-02
        2 -1    0    0  501    0 +0.0000000000e+00 +0.0000000000e+00 +3.0539621704e+03 3.0539621704e+03 0.0000000000e+00 0.0000e+00 1.0000e+00
       -2 -1    0    0    0  501 -0.0000000000e+00 -0.0000000000e+00 -2.7442547475e+03 2.7442547475e+03 0.0000000000e+00 0.0000e+00 -1.0000e+00
      -13  1    1    2    0    0 -7.6009629638e+02 -2.5283695446e+03 -1.0344683217e+03 2.8355817115e+03 0.0000000000e+00 0.0000e+00 -1.0000e+00
       13  1    1    2    0    0 +7.6009629638e+02 +2.5283695446e+03 +1.3441757446e+03 2.9626352064e+03 0.0000000000e+00 0.0000e+00 1.0000e+00
<mgrwt>
<rscale>  0 0.57899396E+04</rscale>
<asrwt>0</asrwt>
<pdfrwt beam="1">  1        2 0.46984033E+00 0.57899396E+04</pdfrwt>
<pdfrwt beam="2">  1       -2 0.42219304E+00 0.57899396E+04</pdfrwt>
<totfact> 0.50531798E-03</totfact>
</mgrwt>
<rwgt>
<wgt id='morphing_basis_vector_1'> +1.3782302e-06 </wgt>
<wgt id='morphing_basis_vector_2'> +9.5847544e-07 </wgt>
<wgt id='morphing_basis_vector_3'> +1.5255694e-06 </wgt>
<wgt id='morphing_basis_vector_4'> +1.0729828e-06 </wgt>
<wgt id='morphing_basis_vector_5'> +1.7417517e-06 </wgt>
</rwgt>
</event>
<event>
 4      1 +9.0096000e-12 5.76197200e+03 7.81860800e-03 7.28861100e-02
        2 -1    0    0  501    0 +0.0000000000e+00 +0.0000000000e+00 +2.9203691139e+03 2.9203691139e+03 0.0000000000e+00 0.0000e+00 -1.0000e+00
       -2 -1    0    0    0  501 -0.0000000000e+00 -0.0000000000e+00 -2.8421340339e+03 2.8421340339e+03 0.0000000000e+00 0.0000e+00 1.0000e+00
      -13  1    1    2    0    0 +1.3647716115e+03 +2.4862316821e+03 +5.4525797627e+02 2.8881232296e+03 0.0000000000e+00 0.0000e+00 1.0000e+00
       13  1    1    2    0    0 -1.3647716115e+03 -2.4862316821e+03 -4.6702289621e+02 2.8743799182e+03 0.0000000000e+00 0.0000e+00 -1.0000e+00
<mgrwt>
<rscale>  0 0.57619720E+04</rscale>
<asrwt>0</asrwt>
<pdfrwt beam="1">  1        2 0.44928756E+00 0.57619720E+04</pdfrwt>
<pdfrwt beam="2">  1       -2 0.43725139E+00 0.57619720E+04</pdfrwt>
<totfact> 0.48988627E-03</totfact>
</mgrwt>
<rwgt>
<wgt id='morphing_basis_vector_1'> +1.4336242e-06 </wgt>
<wgt id='morphing_basis_vector_2'> +1.1801320e-06 </wgt>
<wgt id='morphing_basis_vector_3'> +1.6296639e-06 </wgt>
<wgt id='morphing_basis_vector_4'> +8.7757607e-07 </wgt>
<wgt id='morphing_basis_vector_5'> +1.6935715e-06 </wgt>
</rwgt>
</event>
<event>
 4      1 +9.0096000e-12 5.67948700e+03 7.81860800e-03 7.29824200e-02
        2 -1    0    0  501    0 +0.0000000000e+00 +0.0000000000e+00 +2.5008147223e+03 2.5008147223e+03 0.0000000000e+00 0.0000e+00 1.0000e+00
       -2 -1    0    0    0  501 -0.0000000000e+00 -0.0000000000e+00 -3.2246067497e+03 3.2246067497e+03 0.0000000000e+00 0.0000e+00 -1.0000e+00
      -13  1    1    2    0    0 -2.4644123558e+03 -7.4879289663e+02 -1.5674462812e+03 3.0151130834e+03 0.0000000000e+00 0.0000e+00 -1.0000e+00
       13  1    1    2    0    0 +2.4644123558e+03 +7.4879289663e+02 +8.4365425381e+02 2.7103083886e+03 0.0000000000e+00 0.0000e+00 1.0000e+00
<mgrwt>
<rscale>  0 0.56794873E+04</rscale>
<asrwt>0</asrwt>
<pdfrwt beam="1">  1        2 0.38474073E+00 0.56794873E+04</pdfrwt>
<pdfrwt beam="2">  1       -2 0.49609335E+00 0.56794873E+04</pdfrwt>
<totfact> 0.33759098E-03</totfact>
</mgrwt>
<rwgt>
<wgt id='morphing_basis_vector_1'> +1.2758317e-06 </wgt>
<wgt id='morphing_basis_vector_2'> +8.8616039e-07 </wgt>
<wgt id='morphing_basis_vector_3'> +1.4117296e-06 </wgt>
<wgt id='morphing_basis_vector_4'> +9.9419752e-07 </wgt>
<wgt id='morphing_basis_vector_5'> +1.6123816e-06 </wgt>
</rwgt>
</event>
<event>
 4      1 +9.0096000e-12 5.63233100e+03 7.81860800e-03 7.30382300e-02
        2 -1    0    0  501    0 +0.0000000000e+00 +0.0000000000e+00 +2.8244565609e+03 2.8244565609e+03 0.0000000000e+00 0.0000e+00 -1.0000e+00
       -2 -1    0    0    0  501 -0.0000000000e+00 -0.0000000000e+00 -2.8078985362e+03 2.8078985362e+03 0.0000000000e+00 0.0000e+00 1.0000e+00
      -13  1    1    2    0    0 +1.9363262754e+03 +3.6783900984e+02 -2.0032272466e+03 2.8102641128e+03 0.0000000000e+00 0.0000e+00 1.0000e+00
       13  1    1    2    0    0 -1.9363262754e+03 -3.6783900984e+02 +2.0197852713e+03 2.8220909844e+03 0.0000000000e+00 0.0000e+00 -1.0000e+00
<mgrwt>
<rscale>  0 0.56323308E+04</rscale>
<asrwt>0</asrwt>
<pdfrwt beam="1">  1        2 0.43453178E+00 0.56323308E+04</pdfrwt>
<pdfrwt beam="2">  1       -2 0.43198439E+00 0.56323308E+04</pdfrwt>
<totfact> 0.61810374E-03</totfact>
</mgrwt>
<rwgt>
<wgt id='morphing_basis_vector_1'> +1.2273124e-06 </wgt>
<wgt id='morphing_basis_vector_2'> +8.3722915e-07 </wgt>
<wgt id='morphing_basis_vector_3'> +1.3543843e-06 </wgt>
<wgt id='morphing_basis_vector_4'> +9.7598944e-07 </wgt>
<wgt id='morphing_basis_vector_5'> +1.5605827e-06 </wgt>
</rwgt>
</event>
<event>
 4      1 +9.0096000e-12 6.11026700e+03 7.81860800e-03 7.24968000e-02
        2 -1    0    0  501    0 +0.0000000000e+00 +0.0000000000e+00 +2.7054385744e+03 2.7054385744e+03 0.0000000000e+00 0.0000e+00 1.0000e+00
       -2 -1    0    0    0  501 -0.0000000000e+00 -0.0000000000e+00 -3.4500286035e+03 3.4500286035e+03 0.0000000000e+00 0.0000e+00 -1.0000e+00
      -13  1    1    2    0    0 +1.2349544621e+03 -1.0021043173e+03 -3.0001380549e+03 3.3956080361e+03 0.0000000000e+00 0.0000e+00 -1.0000e+00
       13  1    1    2    0    0 -1.2349544621e+03 +1.0021043173e+03 +2.2555480258e+03 2.7598591418e+03 0.0000000000e+00 0.0000e+00 1.0000e+00
<mgrwt>
<rscale>  0 0.61102669E+04</rscale>
<asrwt>0</asrwt>
<pdfrwt beam="1">  1        2 0.41622132E+00 0.61102669E+04</pdfrwt>
<pdfrwt beam="2">  1       -2 0.53077363E+00 0.61102669E+04</pdfrwt>
<totfact> 0.13549603E-03</totfact>
</mgrwt>
<rwgt>
<wgt id='morphing_basis_vector_1'> +1.6971635e-06 </wgt>
<wgt id='morphing_basis_vector_2'> +1.1549345e-06 </wgt>
<wgt id='morphing_basis_vector_3'> +1.8734626e-06 </wgt>
<wgt id='morphing_basis_vector_4'> +1.3560455e-06 </wgt>
<wgt id='morphing_basis_vector_5'> +2.1634892e-06 </wgt>
</rwgt>
</event>
<event>
 4      1 +9.0096000e-12 5.93746300e+03 7.81860800e-03 7.26865500e-02
        2 -1    0    0  501    0 +0.0000000000e+00 +0.0000000000e+00 +2.8100082172e+03 2.8100082172e+03 0.0000000000e+00 0.0000e+00 -1.0000e+00
       -2 -1    0    0    0  501 -0.0000000000e+00 -0.0000000000e+00 -3.1364205537e+03 3.1364205537e+03 0.0000000000e+00 0.0000e+00 1.0000e+00
      -13  1    1    2    0    0 -2.6766207807e+03 -1.2636880717e+03 -3.9193925898e+02 2.9857700395e+03 0.0000000000e+00 0.0000e+00 1.0000e+00
       13  1    1    2    0    0 +2.6766207807e+03 +1.2636880717e+03 +6.5526922540e+01 2.9606587314e+03 0.0000000000e+00 0.0000e+00 -1.0000e+00
<mgrwt>
<rscale>  0 0.59374633E+04</rscale>
<asrwt>0</asrwt>
<pdfrwt beam="1">  1        2 0.43230896E+00 0.59374633E+04</pdfrwt>
<pdfrwt beam="2">  1       -2 0.48252624E+00 0.59374633E+04</pdfrwt>
<totfact> 0.27040649E-03</totfact>
</mgrwt>
<rwgt>
<wgt id='morphing_basis_vector_1'> +1.5552163e-06 </wgt>
<wgt id='morphing_basis_vector_2'> +1.1520990e-06 </wgt>
<wgt id='morphing_basis_vector_3'> +1.7383780e-06 </wgt>
<wgt id='morphing_basis_vector_4'> +1.1196433e-06 </wgt>
<wgt id='morphing_basis_vector_5'> +1.9209600e-06 </wgt>
</rwgt>
</event>
<event>
 4      1 +9.0096000e-12 5.98832600e+03 7.81860800e-03 7.26300200e-02
        2 -1    0    0  501    0 +0.0000000000e+00 +0.0000000000e+00 +4.6836503129e+03 4.6836503129e+03 0.0000000000e+00 0.0000e+00 -1.0000e+00
       -2 -1    0    0    0  501 -0.0000000000e+00 -0.0000000000e+00 -1.9141080921e+03 1.9141080921e+03 0.0000000000e+00 0.0000e+00 1.0000e+00
      -13  1    1    2    0    0 +2.9480162870e+03 +5.5709876617e+01 +8.1109971350e+02 3.0580690580e+03 0.0000000000e+00 0.0000e+00 1.0000e+00
       13  1    1    2    0    0 -2.9480162870e+03 -5.5709876617e+01 +1.9584425072e+03 3.5396893469e+03 0.0000000000e+00 0.0000e+00 -1.0000e+00
<mgrwt>
<rscale>  0 0.59883263E+04</rscale>
<asrwt>0</asrwt>
<pdfrwt beam="1">  1        2 0.72056158E+00 0.59883263E+04</pdfrwt>
<pdfrwt beam="2">  1       -2 0.29447817E+00 0.59883263E+04</pdfrwt>
<totfact> 0.14540016E-03</totfact>
</mgrwt>
<rwgt>
<wgt id='morphing_basis_vector_1'> +1.5956264e-06 </wgt>
<wgt id='morphing_basis_vector_2'> +1.1525856e-06 </wgt>
<wgt id='morphing_basis_vector_3'> +1.7767694e-06 </wgt>
<wgt id='morphing_basis_vector_4'> +1.1873444e-06 </wgt>
<wgt id='morphing_basis_vector_5'> +1.9902025e-06 </wgt>
</rwgt>
</event>
<event>
 4      1 +9.0096000e-12 5.81728300e+03 7.81860800e-03 7.28224400e-02
        2 -1    0    0  501    0 +0.0000000000e+00 +0.0000000000e+00 +3.2823135862e+03 3.2823135862e+03 0.0000000000e+00 0.0000e+00 -1.0000e+00
       -2 -1    0    0    0  501 -0.0000000000e+00 -0.0000000000e+00 -2.5775100973e+03 2.5775100973e+03 0.0000000000e+00 0.0000e+00 1.0000e+00
      -13  1    1    2    0    0 +5.0362164754e+02 -2.8643382184e+03 +3.9887170871e+02 2.9355011213e+03 0.0000000000e+00 0.0000e+00 1.0000e+00
       13  1    1    2    0    0 -5.0362164754e+02 +2.8643382184e+03 +3.0593178023e+02 2.9243225621e+03 0.0000000000e+00 0.0000e+00 -1.0000e+00
<mgrwt>
<rscale>  0 0.58172834E+04</rscale>
<asrwt>0</asrwt>
<pdfrwt beam="1">  1        2 0.50497132E+00 0.58172834E+04</pdfrwt>
<pdfrwt beam="2">  1       -2 0.39654001E+00 0.58172834E+04</pdfrwt>
<totfact> 0.52136016E-03</totfact>
</mgrwt>
<rwgt>
<wgt id='morphing_basis_vector_1'> +1.4489639e-06 </wgt>
<wgt id='morphing_basis_vector_2'> +1.1075453e-06 </wgt>
<wgt id='morphing_basis_vector_3'> +1.6273136e-06 </wgt>
<wgt id='morphing_basis_vector_4'> +9.9813986e-07 </wgt>
<wgt id='morphing_basis_vector_5'> +1.7669543e-06 </wgt>
</rwgt>
</event>
<event>
 4      1 +9.0096000e-12 5.59891700e+03 7.81860800e-03 7.30781200e-02
        2 -1    0    0  501    0 +0.0000000000e+00 +0.0000000000e+00 +2.1182798665e+03 2.1182798665e+03 0.0000000000e+00 0.0000e+00 -1.0000e+00
       -2 -1    0    0    0  501 -0.0000000000e+00 -0.0000000000e+00 -3.6996848778e+03 3.6996848778e+03 0.0000000000e+00 0.0000e+00 1.0000e+00
      -13  1    1    2    0    0 +5.6384105627e+02 -1.6697887991e+03 -3.0508508557e+03 3.5233226242e+03 0.0000000000e+00 0.0000e+00 1.0000e+00
       13  1    1    2    0    0 -5.6384105627e+02 +1.6697887991e+03 +1.4694458444e+03 2.2946421202e+03 0.0000000000e+00 0.0000e+00 -1.0000e+00
<mgrwt>
<rscale>  0 0.55989170E+04</rscale>
<asrwt>0</asrwt>
<pdfrwt beam="1">  1        2 0.32588921E+00 0.55989170E+04</pdfrwt>
<pdfrwt beam="2">  1       -2 0.56918229E+00 0.55989170E+04</pdfrwt>
<totfact> 0.16520304E-03</totfact>
</mgrwt>
<rwgt>
<wgt id='morphing_basis_vector_1'> +1.1979352e-06 </wgt>
<wgt id='morphing_basis_vector_2'> +8.1583860e-07 </wgt>
<wgt id='morphing_basis_vector_3'> +1.3215806e-06 </wgt>
<wgt id='morphing_basis_vector_4'> +9.5422998e-07 </wgt>
<wgt id='morphing_basis_vector_5'> +1.5238925e-06 </wgt>
</rwgt>
</event>
<event>
 4      1 +9.0096000e-12 5.63002800e+03 7.81860800e-03 7.30409700e-02
        2 -1    0    0  501    0 +0.0000000000e+00 +0.0000000000e+00 +4.3022921972e+03 4.3022921972e+03 0.0000000000e+00 0.0000e+00 -1.0000e+00
       -2 -1    0    0    0  501 -0.0000000000e+00 -0.0000000000e+00 -1.8418794451e+03 1.8418794451e+03 0.0000000000e+00 0.0000e+00 1.0000e+00
      -13  1    1    2    0    0 +3.3865218570e+02 -1.8406173196e+03 -1.0646192699e+03 2.1531306532e+03 0.0000000000e+00 0.0000e+00 1.0000e+00
       13  1    1    2    0    0 -3.3865218570e+02 +1.8406173196e+03 +3.5250320220e+03 3.9910409890e+03 0.0000000000e+00 0.0000e+00 -1.0000e+00
<mgrwt>
<rscale>  0 0.56300279E+04</rscale>
<asrwt>0</asrwt>
<pdfrwt beam="1">  1        2 0.66189110E+00 0.56300279E+04</pdfrwt>
<pdfrwt beam="2">  1       -2 0.28336607E+00 0.56300279E+04</pdfrwt>
<totfact> 0.44111480E-03</totfact>
</mgrwt>
<rwgt>
<wgt id='morphing_basis_vector_1'> +1.2249729e-06 </wgt>
<wgt id='morphing_basis_vector_2'> +8.3486774e-07 </wgt>
<wgt id='morphing_basis_vector_3'> +1.3516190e-06 </wgt>
<wgt id='morphing_basis_vector_4'> +9.7511406e-07 </wgt>
<wgt id='morphing_basis_vector_5'> +1.5580865e-06 </wgt>
</rwgt>
</event>
<event>
 4      1 +9.0096000e-12 5.81875300e+03 7.81860800e-03 7.28207500e-02
        2 -1    0    0  501    0 +0.0000000000e+00 +0.0000000000e+00 +2.6545398257e+03 2.6545398257e+03 0.0000000000e+00 0.0000e+00 1.0000e+00
       -2 -1    0    0    0  501 -0.0000000000e+00 -0.0000000000e+00 -3.1886777153e+03 3.1886777153e+03 0.0000000000e+00 0.0000e+00 -1.0000e+00
      -13  1    1    2    0    0 -6.7719679935e+02 -2.1674906674e+03 -2.0934682319e+03 3.0885628594e+03 0.0000000000e+00 0.0000e+00 -1.0000e+00
       13  1    1    2    0    0 +6.7719679935e+02 +2.1674906674e+03 +1.5593303423e+03 2.7546546816e+03 0.0000000000e+00 0.0000e+00 1.0000e+00
<mgrwt>
<rscale>  0 0.58187531E+04</rscale>
<asrwt>0</asrwt>
<pdfrwt beam="1">  1        2 0.40839074E+00 0.58187531E+04</pdfrwt>
<pdfrwt beam="2">  1       -2 0.49056580E+00 0.58187531E+04</pdfrwt>
<totfact> 0.29677189E-03</totfact>
</mgrwt>
<rwgt>
<wgt id='morphing_basis_vector_1'> +1.3990298e-06 </wgt>
<wgt id='morphing_basis_vector_2'> +9.5779737e-07 </wgt>
<wgt id='morphing_basis_vector_3'> +1.5451124e-06 </wgt>
<wgt id='morphing_basis_vector_4'> +1.1090309e-06 </wgt>
<wgt id='morphing_basis_vector_5'> +1.7779827e-06 </wgt>
</rwgt>
</event>
<event>
 4      1 +9.0096000e-12 5.59155100e+03 7.81860800e-03 7.30869500e-02
        2 -1    0    0  501    0 +0.0000000000e+00 +0.0000000000e+00 +2.6481698954e+03 2.6481698954e+03 0.0000000000e+00 0.0000e+00 1.0000e+00
       -2 -1    0    0    0  501 -0.0000000000e+00 -0.0000000000e+00 -2.9516086902e+03 2.9516086902e+03 0.0000000000e+00 0.0000e+00 -1.0000e+00
      -13  1    1    2    0    0 -1.5677176990e+03 -1.3431705018e+03 -2.0398357493e+03 2.9022018649e+03 0.0000000000e+00 0.0000e+00 -1.0000e+00
       13  1    1    2    0    0 +1.5677176990e+03 +1.3431705018e+03 +1.7363969545e+03 2.6975767207e+03 0.0000000000e+00 0.0000e+00 1.0000e+00
<mgrwt>
<rscale>  0 0.55915512E+04</rscale>
<asrwt>0</asrwt>
<pdfrwt beam="1">  1        2 0.40741075E+00 0.55915512E+04</pdfrwt>
<pdfrwt beam="2">  1       -2 0.45409364E+00 0.55915512E+04</pdfrwt>
<totfact> 0.56192038E-03</totfact>
</mgrwt>
<rwgt>
<wgt id='morphing_basis_vector_1'> +1.1927282e-06 </wgt>
<wgt id='morphing_basis_vector_2'> +8.1469361e-07 </wgt>
<wgt id='morphing_basis_vector_3'> +1.3163811e-06 </wgt>
<wgt id='morphing_basis_vector_4'> +9.4692458e-07 </wgt>
<wgt id='morphing_basis_vector_5'> +1.5156772e-06 </wgt>
</rwgt>
</event>
<event>
 4      1 +9.0096000e-12 5.57740000e+03 7.81860800e-03 7.31039600e-02
        2 -1    0    0  501    0 +0.0000000000e+00 +0.0000000000e+00 +3.3501692972e+03 3.3501692972e+03 0.0000000000e+00 0.0000e+00 -1.0000e+00
       -2 -1    0    0    0  501 -0.0000000000e+00 -0.0000000000e+00 -2.3213296471e+03 2.3213296471e+03 0.0000000000e+00 0.0000e+00 1.0000e+00
      -13  1    1    2    0    0 -5.3735986802e+02 +2.0509902707e+02 -2.2603588624e+03 2.3323900672e+03 0.0000000000e+00 0.0000e+00 1.0000e+00
       13  1    1    2    0    0 +5.3735986802e+02 -2.0509902707e+02 +3.2891985125e+03 3.3391088771e+03 0.0000000000e+00 0.0000e+00 -1.0000e+00
<mgrwt>
<rscale>  0 0.55773999E+04</rscale>
<asrwt>0</asrwt>
<pdfrwt beam="1">  1        2 0.51541066E+00 0.55773999E+04</pdfrwt>
<pdfrwt beam="2">  1       -2 0.35712764E+00 0.55773999E+04</pdfrwt>
<totfact> 0.85496395E-03</totfact>
</mgrwt>
<rwgt>
<wgt id='morphing_basis_vector_1'> +1.1789216e-06 </wgt>
<wgt id='morphing_basis_vector_2'> +8.0117399e-07 </wgt>
<wgt id='morphing_basis_vector_3'> +1.3001594e-06 </wgt>
<wgt id='morphing_basis_vector_4'> +9.4121638e-07 </wgt>
<wgt id='morphing_basis_vector_5'> +1.5006777e-06 </wgt>
</rwgt>
</event>
<event>
 4      1 +9.0096000e-12 5.87134200e+03 7.81860800e-03 7.27609000e-02
        2 -1    0    0  501    0 +0.0000000000e+00 +0.0000000000e+00 +3.9555981890e+03 3.9555981890e+03 0.0000000000e+00 0.0000e+00 1.0000e+00
       -2 -1    0    0    0  501 -0.0000000000e+00 -0.0000000000e+00 -2.1787255373e+03 2.1787255373e+03 0.0000000000e+00 0.0000e+00 -1.0000e+00
      -13  1    1    2    0    0 +1.3639126689e+03 +4.4011952188e+02 -1.7883903134e+03 2.2917903209e+03 0.0000000000e+00 0.0000e+00 -1.0000e+00
       13  1    1    2    0    0 -1.3639126689e+03 -4.4011952188e+02 +3.5652629651e+03 3.8425334054e+03 0.0000000000e+00 0.0000e+00 1.0000e+00
<mgrwt>
<rscale>  0 0.58713415E+04</rscale>
<asrwt>0</asrwt>
<pdfrwt beam="1">  1        2 0.60855357E+00 0.58713415E+04</pdfrwt>
<pdfrwt beam="2">  1       -2 0.33518854E+00 0.58713415E+04</pdfrwt>
<totfact> 0.39819527E-03</totfact>
</mgrwt>
<rwgt>
<wgt id='morphing_basis_vector_1'> +1.4473144e-06 </wgt>
<wgt id='morphing_basis_vector_2'> +9.8447778e-07 </wgt>
<wgt id='morphing_basis_vector_3'> +1.5970631e-06 </wgt>
<wgt id='morphing_basis_vector_4'> +1.1558706e-06 </wgt>
<wgt id='morphing_basis_vector_5'> +1.8438023e-06 </wgt>
</rwgt>
</event>
<event>
 4      1 +9.0096000e-12 5.97088600e+03 7.81860800e-03 7.26493400e-02
        2 -1    0    0  501    0 +0.0000000000e+00 +0.0000000000e+00 +3.2038797501e+03 3.2038797501e+03 0.0000000000e+00 0.0000e+00 -1.0000e+00
       -2 -1    0    0    0  501 -0.0000000000e+00 -0.0000000000e+00 -2.7818990391e+03 2.7818990391e+03 0.0000000000e+00 0.0000e+00 1.0000e+00
      -13  1    1    2    0    0 +1.3415872501e+03 +2.6664809214e+03 +1.5706823533e+02 2.9890880355e+03 0.0000000000e+00 0.0000e+00 1.0000e+00
       13  1    1    2    0    0 -1.3415872501e+03 -2.6664809214e+03 +2.6491247559e+02 2.9966907537e+03 0.0000000000e+00 0.0000e+00 -1.0000e+00
<mgrwt>
<rscale>  0 0.59708860E+04</rscale>
<asrwt>0</asrwt>
<pdfrwt beam="1">  1        2 0.49290458E+00 0.59708860E+04</pdfrwt>
<pdfrwt beam="2">  1       -2 0.42798447E+00 0.59708860E+04</pdfrwt>
<totfact> 0.36190218E-03</totfact>
</mgrwt>
<rwgt>
<wgt id='morphing_basis_vector_1'> +1.6008412e-06 </wgt>
<wgt id='morphing_basis_vector_2'> +1.2087360e-06 </wgt>
<wgt id='morphing_basis_vector_3'> +1.7948213e-06 </wgt>
<wgt id='morphing_basis_vector_4'> +1.1228935e-06 </wgt>
<wgt id='morphing_basis_vector_5'> +1.9628081e-06 </wgt>
</rwgt>
</event>
<event>
 4      1 +9.0096000e-12 5.73179600e+03 7.81860800e-03 7.29211500e-02
        2 -1    0    0  501    0 +0.0000000000e+00 +0.0000000000e+00 +2.2458598630e+03 2.2458598630e+03 0.0000000000e+00 0.0000e+00 1.0000e+00
       -2 -1    0    0    0  501 -0.0000000000e+00 -0.0000000000e+00 -3.6571164548e+03 3.6571164548e+03 0.0000000000e+00 0.0000e+00 -1.0000e+00
      -13  1    1    2    0    0 +2.4041042183e+02 -2.2358273704e+03 +1.1241291760e+03 2.5140381075e+03 0.0000000000e+00 0.0000e+00 1.0000e+00
       13  1    1    2    0    0 -2.4041042183e+02 +2.2358273704e+03 -2.5353857679e+03 3.3889382103e+03 0.0000000000e+00 0.0000e+00 -1.0000e+00
<mgrwt>
<rscale>  0 0.57317959E+04</rscale>
<asrwt>0</asrwt>
<pdfrwt beam="1">  1        2 0.34551690E+00 0.57317959E+04</pdfrwt>
<pdfrwt beam="2">  1       -2 0.56263330E+00 0.57317959E+04</pdfrwt>
<totfact> 0.15422019E-03</totfact>
</mgrwt>
<rwgt>
<wgt id='morphing_basis_vector_1'> +1.6398695e-06 </wgt>
<wgt id='morphing_basis_vector_2'> +1.8483281e-06 </wgt>
<wgt id='morphing_basis_vector_3'> +1.9805663e-06 </wgt>
<wgt id='morphing_basis_vector_4'> +3.5495810e-07 </wgt>
<wgt id='morphing_basis_vector_5'> +1.6158992e-06 </wgt>
</rwgt>
</event>
<event>
 4      1 +9.0096000e-12 5.64454000e+03 7.81860800e-03 7.30237300e-02
        2 -1    0    0  501    0 +0.0000000000e+00 +0.0000000000e+00 +2.7218112391e+03 2.7218112391e+03 0.0000000000e+00 0.0000e+00 -1.0000e+00
       -2 -1    0    0    0  501 -0.0000000000e+00 -0.0000000000e+00 -2.9264363437e+03 2.9264363437e+03 0.0000000000e+00 0.0000e+00 1.0000e+00
      -13  1    1    2    0    0 +2.6169234085e+03 -1.0195372637e+03 +1.7619197981e+02 2.8140341099e+03 0.0000000000e+00 0.0000e+00 1.0000e+00
       13  1    1    2    0    0 -2.6169234085e+03 +1.0195372637e+03 -3.8081708434e+02 2.8342134729e+03 0.0000000000e+00 0.0000e+00 -1.0000e+00
<mgrwt>
<rscale>  0 0.56445398E+04</rscale>
<asrwt>0</asrwt>
<pdfrwt beam="1">  1        2 0.41874019E+00 0.56445398E+04</pdfrwt>
<pdfrwt beam="2">  1       -2 0.45022098E+00 0.56445398E+04</pdfrwt>
<totfact> 0.53677160E-03</totfact>
</mgrwt>
<rwgt>
<wgt id='morphing_basis_vector_1'> +1.3010834e-06 </wgt>
<wgt id='morphing_basis_vector_2'> +1.0298083e-06 </wgt>
<wgt id='morphing_basis_vector_3'> +1.4690460e-06 </wgt>
<wgt id='morphing_basis_vector_4'> +8.4963032e-07 </wgt>
<wgt id='morphing_basis_vector_5'> +1.5628590e-06 </wgt>
</rwgt>
</event>
<event>
 4      1 +9.0096000e-12 5.75231300e+03 7.81860800e-03 7.28973000e-02
        2 -1    0    0  501    0 +0.0000000000e+00 +0.0000000000e+00 +1.4389922907e+03 1.4389922907e+03 0.0000000000e+00 0.0000e+00 -1.0000e+00
       -2 -1    0    0    0  501 -0.0000000000e+00 -0.0000000000e+00 -5.7486589588e+03 5.7486589588e+03 0.0000000000e+00 0.0000e+00 1.0000e+00
      -13  1    1    2    0    0 -1.6711216211e+03 -2.1853070676e+03 -3.2032883082e+03 4.2224720766e+03 0.0000000000e+00 0.0000e+00 1.0000e+00
       13  1    1    2    0    0 +1.6711216211e+03 +2.1853070676e+03 -1.1063783599e+03 2.9651791729e+03 0.0000000000e+00 0.0000e+00 -1.0000e+00
<mgrwt>
<rscale>  0 0.57523129E+04</rscale>
<asrwt>0</asrwt>
<pdfrwt beam="1">  1        2 0.22138343E+00 0.57523129E+04</pdfrwt>
<pdfrwt beam="2">  1       -2 0.88440907E+00 0.57523129E+04</pdfrwt>
<totfact> 0.34258797E-04</totfact>
</mgrwt>
<rwgt>
<wgt id='morphing_basis_vector_1'> +1.3493464e-06 </wgt>
<wgt id='morphing_basis_vector_2'> +9.5293284e-07 </wgt>
<wgt id='morphing_basis_vector_3'> +1.4969164e-06 </wgt>
<wgt id='morphing_basis_vector_4'> +1.0313868e-06 </wgt>
<wgt id='morphing_basis_vector_5'> +1.6956407e-06 </wgt>
</rwgt>
</event>
<event>
 4      1 +9.0096000e-12 6.16673900e+03 7.81860800e-03 7.24361700e-02
        2 -1    0    0  501    0 +0.0000000000e+00 +0.0000000000e+00 +4.2411376190e+03 4.2411376190e+03 0.0000000000e+00 0.0000e+00 -1.0000e+00
       -2 -1    0    0    0  501 -0.0000000000e+00 -0.0000000000e+00 -2.2416549780e+03 2.2416549780e+03 0.0000000000e+00 0.0000e+00 1.0000e+00
      -13  1    1    2    0    0 -1.9888498748e+02 +1.1848681714e+03 -1.9854607244e+03 2.3206727709e+03 0.0000000000e+00 0.0000e+00 1.0000e+00
       13  1    1    2    0    0 +1.9888498748e+02 -1.1848681714e+03 +3.9849433653e+03 4.1621198261e+03 0.0000000000e+00 0.0000e+00 -1.0000e+00
<mgrwt>
<rscale>  0 0.61667389E+04</rscale>
<asrwt>0</asrwt>
<pdfrwt beam="1">  1        2 0.65248271E+00 0.61667389E+04</pdfrwt>
<pdfrwt beam="2">  1       -2 0.34487000E+00 0.61667389E+04</pdfrwt>
<totfact> 0.18823209E-03</totfact>
</mgrwt>
<rwgt>
<wgt id='morphing_basis_vector_1'> +1.7603137e-06 </wgt>
<wgt id='morphing_basis_vector_2'> +1.1972339e-06 </wgt>
<wgt id='morphing_basis_vector_3'> +1.9431463e-06 </wgt>
<wgt id='morphing_basis_vector_4'> +1.4076784e-06 </wgt>
<wgt id='morphing_basis_vector_5'> +2.2448182e-06 </wgt>
</rwgt>
</event>
<event>
 4      1 +9.0096000e-12 5.78338600e+03 7.81860800e-03 7.28613700e-02
        2 -1    0    0  501    0 +0.0000000000e+00 +0.0000000000e+00 +3.0049002158e+03 3.0049002158e+03 0.0000000000e+00 0.0000e+00 -1.0000e+00
       -2 -1    0    0    0  501 -0.0000000000e+00 -0.0000000000e+00 -2.7827505432e+03 2.7827505432e+03 0.0000000000e+00 0.0000e+00 1.0000e+00
      -13  1    1    2    0    0 -7.8179646426e+02 -5.0220830873e+02 -2.6292777854e+03 2.7886413484e+03 0.0000000000e+00 0.0000e+00 1.0000e+00
       13  1    1    2    0    0 +7.8179646426e+02 +5.0220830873e+02 +2.8514274580e+03 2.9990094106e+03 0.0000000000e+00 0.0000e+00 -1.0000e+00
<mgrwt>
<rscale>  0 0.57833858E+04</rscale>
<asrwt>0</asrwt>
<pdfrwt beam="1">  1        2 0.46229234E+00 0.57833858E+04</pdfrwt>
<pdfrwt beam="2">  1       -2 0.42811547E+00 0.57833858E+04</pdfrwt>
<totfact> 0.49707877E-03</totfact>
</mgrwt>
<rwgt>
<wgt id='morphing_basis_vector_1'> +1.3625012e-06 </wgt>
<wgt id='morphing_basis_vector_2'> +9.2621809e-07 </wgt>
<wgt id='morphing_basis_vector_3'> +1.5031553e-06 </wgt>
<wgt id='morphing_basis_vector_4'> +1.0884606e-06 </wgt>
<wgt id='morphing_basis_vector_5'> +1.7355701e-06 </wgt>
</rwgt>
</event>
<event>
 4      1 +9.0096000e-12 5.80224800e+03 7.81860800e-03 7.28396700e-02
        2 -1    0    0  501    0 +0.0000000000e+00 +0.0000000000e+00 +3.7239386877e+03 3.7239386877e+03 0.0000000000e+00 0.0000e+00 -1.0000e+00
       -2 -1    0    0    0  501 -0.0000000000e+00 -0.0000000000e+00 -2.2601122727e+03 2.2601122727e+03 0.0000000000e+00 0.0000e+00 1.0000e+00
      -13  1    1    2    0    0 -1.2648314752e+03 +1.6082480497e+03 -1.3892911134e+03 2.4731336899e+03 0.0000000000e+00 0.0000e+00 1.0000e+00
       13  1    1    2    0    0 +1.2648314752e+03 -1.6082480497e+03 +2.8531175284e+03 3.5109172706e+03 0.0000000000e+00 0.0000e+00 -1.0000e+00
<mgrwt>
<rscale>  0 0.58022477E+04</rscale>
<asrwt>0</asrwt>
<pdfrwt beam="1">  1        2 0.57291364E+00 0.58022477E+04</pdfrwt>
<pdfrwt beam="2">  1       -2 0.34770958E+00 0.58022477E+04</pdfrwt>
<totfact> 0.51070067E-03</totfact>
</mgrwt>
<rwgt>
<wgt id='morphing_basis_vector_1'> +1.3819083e-06 </wgt>
<wgt id='morphing_basis_vector_2'> +9.4301411e-07 </wgt>
<wgt id='morphing_basis_vector_3'> +1.5254505e-06 </wgt>
<wgt id='morphing_basis_vector_4'> +1.0993652e-06 </wgt>
<wgt id='morphing_basis_vector_5'> +1.7580910e-06 </wgt>
</rwgt>
</event>
<event>
 4      1 +9.0096000e-12 5.72002000e+03 7.81860800e-03 7.29348800e-02
        2 -1    0    0  501    0 +0.0000000000e+00 +0.0000000000e+00 +3.7819479764e+03 3.7819479764e+03 0.0000000000e+00 0.0000e+00 -1.0000e+00
       -2 -1    0    0    0  501 -0.0000000000e+00 -0.0000000000e+00 -2.1628161515e+03 2.1628161515e+03 0.0000000000e+00 0.0000e+00 1.0000e+00
      -13  1    1    2    0    0 -4.0973552453e+01 +2.1314800743e+03 -1.1718499858e+03 2.4327183414e+03 0.0000000000e+00 0.0000e+00 1.0000e+00
       13  1    1    2    0    0 +4.0973552453e+01 -2.1314800743e+03 +2.7909818108e+03 3.5120457866e+03 0.0000000000e+00 0.0000e+00 -1.0000e+00
<mgrwt>
<rscale>  0 0.57200203E+04</rscale>
<asrwt>0</asrwt>
<pdfrwt beam="1">  1        2 0.58183815E+00 0.57200203E+04</pdfrwt>
<pdfrwt beam="2">  1       -2 0.33274095E+00 0.57200203E+04</pdfrwt>
<totfact> 0.57945246E-03</totfact>
</mgrwt>
<rwgt>
<wgt id='morphing_basis_vector_1'> +1.3059893e-06 </wgt>
<wgt id='morphing_basis_vector_2'> +8.9244310e-07 </wgt>
<wgt id='morphing_basis_vector_3'> +1.4417612e-06 </wgt>
<wgt id='morphing_basis_vector_4'> +1.0369752e-06 </wgt>
<wgt id='morphing_basis_vector_5'> +1.6601987e-06 </wgt>
</rwgt>
</event>
<event>
 4      1 +9.0096000e-12 6.16481200e+03 7.81860800e-03 7.24382200e-02
        2 -1    0    0  501    0 +0.0000000000e+00 +0.0000000000e+00 +3.5403234988e+03 3.5403234988e+03 0.0000000000e+00 0.0000e+00 -1.0000e+00
       -2 -1    0    0    0  501 -0.0000000000e+00 -0.0000000000e+00 -2.6837174215e+03 2.6837174215e+03 0.0000000000e+00 0.0000e+00 1.0000e+00
      -13  1    1    2    0    0 -2.4738729319e+03 -1.8147795654e+03 +7.2738501216e+02 3.1531826953e+03 0.0000000000e+00 0.0000e+00 1.0000e+00
       13  1    1    2    0    0 +2.4738729319e+03 +1.8147795654e+03 +1.2922106514e+02 3.0708582249e+03 0.0000000000e+00 0.0000e+00 -1.0000e+00
<mgrwt>
<rscale>  0 0.61648124E+04</rscale>
<asrwt>0</asrwt>
<pdfrwt beam="1">  1        2 0.54466515E+00 0.61648124E+04</pdfrwt>
<pdfrwt beam="2">  1       -2 0.41287960E+00 0.61648124E+04</pdfrwt>
<totfact> 0.25937930E-03</totfact>
</mgrwt>
<rwgt>
<wgt id='morphing_basis_vector_1'> +1.8489461e-06 </wgt>
<wgt id='morphing_basis_vector_2'> +1.4623156e-06 </wgt>
<wgt id='morphing_basis_vector_3'> +2.0891337e-06 </wgt>
<wgt id='morphing_basis_vector_4'> +1.2115343e-06 </wgt>
<wgt id='morphing_basis_vector_5'> +2.2256519e-06 </wgt>
</rwgt>
</event>
<event>
 4      1 +9.0096000e-12 6.46007400e+03 7.81860800e-03 7.21314900e-02
        2 -1    0    0  501    0 +0.0000000000e+00 +0.0000000000e+00 +4.1340590958e+03 4.1340590958e+03 0.0000000000e+00 0.0000e+00 1.0000e+00
       -2 -1    0    0    0  501 -0.0000000000e+00 -0.0000000000e+00 -2.5237032672e+03 2.5237032672e+03 0.0000000000e+00 0.0000e+00 -1.0000e+00
      -13  1    1    2    0    0 -5.2740903668e+02 +1.3007081783e+03 +3.8033494644e+03 4.0540682290e+03 0.0000000000e+00 0.0000e+00 1.0000e+00
       13  1    1    2    0    0 +5.2740903668e+02 -1.3007081783e+03 -2.1929936358e+03 2.6036941341e+03 0.0000000000e+00 0.0000e+00 -1.0000e+00
<mgrwt>
<rscale>  0 0.64600738E+04</rscale>
<asrwt>0</asrwt>
<pdfrwt beam="1">  1        2 0.63600909E+00 0.64600738E+04</pdfrwt>
<pdfrwt beam="2">  1       -2 0.38826204E+00 0.64600738E+04</pdfrwt>
<totfact> 0.12110235E-03</totfact>
</mgrwt>
<rwgt>
<wgt id='morphing_basis_vector_1'> +2.8862157e-06 </wgt>
<wgt id='morphing_basis_vector_2'> +3.6928649e-06 </wgt>
<wgt id='morphing_basis_vector_3'> +3.5950196e-06 </wgt>
<wgt id='morphing_basis_vector_4'> +5.2853522e-08 </wgt>
<wgt id='morphing_basis_vector_5'> +2.5660498e-06 </wgt>
</rwgt>
</event>
<event>
 4      1 +9.0096000e-12 6.22191600e+03 7.81860800e-03 7.23775600e-02
        2 -1    0    0  501    0 +0.0000000000e+00 +0.0000000000e+00 +3.1323620990e+03 3.1323620990e+03 0.0000000000e+00 0.0000e+00 -1.0000e+00
       -2 -1    0    0    0  501 -0.0000000000e+00 -0.0000000000e+00 -3.0896996718e+03 3.0896996718e+03 0.0000000000e+00 0.0000e+00 1.0000e+00
      -13  1    1    2    0    0 +2.1361152240e+03 -1.8635440778e+03 -1.2602110533e+03 3.1022438136e+03 0.0000000000e+00 0.0000e+00 1.0000e+00
       13  1    1    2    0    0 -2.1361152240e+03 +1.8635440778e+03 +1.3028734805e+03 3.1198179572e+03 0.0000000000e+00 0.0000e+00 -1.0000e+00
<mgrwt>
<rscale>  0 0.62219155E+04</rscale>
<asrwt>0</asrwt>
<pdfrwt beam="1">  1        2 0.48190186E+00 0.62219155E+04</pdfrwt>
<pdfrwt beam="2">  1       -2 0.47533841E+00 0.62219155E+04</pdfrwt>
<totfact> 0.18484669E-03</totfact>
</mgrwt>
<rwgt>
<wgt id='morphing_basis_vector_1'> +1.8365918e-06 </wgt>
<wgt id='morphing_basis_vector_2'> +1.2775034e-06 </wgt>
<wgt id='morphing_basis_vector_3'> +2.0341576e-06 </wgt>
<wgt id='morphing_basis_vector_4'> +1.4319477e-06 </wgt>
<wgt id='morphing_basis_vector_5'> +2.3241521e-06 </wgt>
</rwgt>
</event>
<event>
 4      1 +9.0096000e-12 5.79995300e+03 7.81860800e-03 7.28423100e-02
        2 -1    0    0  501    0 +0.0000000000e+00 +0.0000000000e+00 +5.2707299970e+03 5.2707299970e+03 0.0000000000e+00 0.0000e+00 1.0000e+00
       -2 -1    0    0    0  501 -0.0000000000e+00 -0.0000000000e+00 -1.5955785343e+03 1.5955785343e+03 0.0000000000e+00 0.0000e+00 -1.0000e+00
      -13  1    1    2    0    0 -2.8179702540e+03 -6.5952017984e+02 +1.6194748270e+03 3.3164170328e+03 0.0000000000e+00 0.0000e+00 -1.0000e+00
       13  1    1    2    0    0 +2.8179702540e+03 +6.5952017984e+02 +2.0556766357e+03 3.5498914984e+03 0.0000000000e+00 0.0000e+00 1.0000e+00
<mgrwt>
<rscale>  0 0.57999530E+04</rscale>
<asrwt>0</asrwt>
<pdfrwt beam="1">  1        2 0.81088153E+00 0.57999530E+04</pdfrwt>
<pdfrwt beam="2">  1       -2 0.24547362E+00 0.57999530E+04</pdfrwt>
<totfact> 0.52860381E-04</totfact>
</mgrwt>
<rwgt>
<wgt id='morphing_basis_vector_1'> +1.4183387e-06 </wgt>
<wgt id='morphing_basis_vector_2'> +1.0548610e-06 </wgt>
<wgt id='morphing_basis_vector_3'> +1.5860212e-06 </wgt>
<wgt id='morphing_basis_vector_4'> +1.0150833e-06 </wgt>
<wgt id='morphing_basis_vector_5'> +1.7483660e-06 </wgt>
</rwgt>
</event>
<event>
 4      1 +9.0096000e-12 5.67156600e+03 7.81860800e-03 7.29917600e-02
        2 -1    0    0  501    0 +0.0000000000e+00 +0.0000000000e+00 +2.7492969800e+03 2.7492969800e+03 0.0000000000e+00 0.0000e+00 -1.0000e+00
       -2 -1    0    0    0  501 -0.0000000000e+00 -0.0000000000e+00 -2.9249896186e+03 2.9249896186e+03 0.0000000000e+00 0.0000e+00 1.0000e+00
      -13  1    1    2    0    0 +1.3418761282e+03 +8.0460950893e+02 -2.4540679718e+03 2.9104084964e+03 0.0000000000e+00 0.0000e+00 1.0000e+00
       13  1    1    2    0    0 -1.3418761282e+03 -8.0460950893e+02 +2.2783753332e+03 2.7638781023e+03 0.0000000000e+00 0.0000e+00 -1.0000e+00
<mgrwt>
<rscale>  0 0.56715660E+04</rscale>
<asrwt>0</asrwt>
<pdfrwt beam="1">  1        2 0.42296877E+00 0.56715660E+04</pdfrwt>
<pdfrwt beam="2">  1       -2 0.44999840E+00 0.56715660E+04</pdfrwt>
<totfact> 0.51691332E-03</totfact>
</mgrwt>
<rwgt>
<wgt id='morphing_basis_vector_1'> +1.2607742e-06 </wgt>
<wgt id='morphing_basis_vector_2'> +8.5782755e-07 </wgt>
<wgt id='morphing_basis_vector_3'> +1.3908745e-06 </wgt>
<wgt id='morphing_basis_vector_4'> +1.0056858e-06 </wgt>
<wgt id='morphing_basis_vector_5'> +1.6048147e-06 </wgt>
</rwgt>
</event>
<event>
 4      1 +9.0096000e-12 5.65503200e+03 7.81860800e-03 7.30112900e-02
        2 -1    0    0  501    0 +0.0000000000e+00 +0.0000000000e+00 +3.9254885130e+03 3.9254885130e+03 0.0000000000e+00 0.0000e+00 -1.0000e+00
       -2 -1    0    0    0  501 -0.0000000000e+00 -0.0000000000e+00 -2.0366504253e+03 2.0366504253e+03 0.0000000000e+00 0.0000e+00 1.0000e+00
      -13  1    1    2    0    0 -1.3888915971e+03 +9.2482113232e+02 -1.4622041957e+03 2.2186381195e+03 0.0000000000e+00 0.0000e+00 1.0000e+00
       13  1    1    2    0    0 +1.3888915971e+03 -9.2482113232e+02 +3.3510422834e+03 3.7435008188e+03 0.0000000000e+00 0.0000e+00 -1.0000e+00
<mgrwt>
<rscale>  0 0.56550324E+04</rscale>
<asrwt>0</asrwt>
<pdfrwt beam="1">  1        2 0.60392131E+00 0.56550324E+04</pdfrwt>
<pdfrwt beam="2">  1       -2 0.31333084E+00 0.56550324E+04</pdfrwt>
<totfact> 0.59846183E-03</totfact>
</mgrwt>
<rwgt>
<wgt id='morphing_basis_vector_1'> +1.2463356e-06 </wgt>
<wgt id='morphing_basis_vector_2'> +8.4835225e-07 </wgt>
<wgt id='morphing_basis_vector_3'> +1.3749926e-06 </wgt>
<wgt id='morphing_basis_vector_4'> +9.9363698e-07 </wgt>
<wgt id='morphing_basis_vector_5'> +1.5861084e-06 </wgt>
</rwgt>
</event>
<event>
 4      1 +9.0096000e-12 5.76222000e+03 7.81860800e-03 7.28858200e-02
        2 -1    0    0  501    0 +0.0000000000e+00 +0.0000000000e+00 +1.5599185313e+03 1.5599185313e+03 0.0000000000e+00 0.0000e+00 1.0000e+00
       -2 -1    0    0    0  501 -0.0000000000e+00 -0.0000000000e+00 -5.3213004651e+03 5.3213004651e+03 0.0000000000e+00 0.0000e+00 -1.0000e+00
      -13  1    1    2    0    0 +2.6452125307e+03 -1.0213198397e+03 -2.4902593809e+03 3.7738091277e+03 0.0000000000e+00 0.0000e+00 -1.0000e+00
       13  1    1    2    0    0 -2.6452125307e+03 +1.0213198397e+03 -1.2711225528e+03 3.1074098687e+03 0.0000000000e+00 0.0000e+00 1.0000e+00
<mgrwt>
<rscale>  0 0.57622201E+04</rscale>
<asrwt>0</asrwt>
<pdfrwt beam="1">  1        2 0.23998746E+00 0.57622201E+04</pdfrwt>
<pdfrwt beam="2">  1       -2 0.81866162E+00 0.57622201E+04</pdfrwt>
<totfact> 0.86299158E-04</totfact>
</mgrwt>
<rwgt>
<wgt id='morphing_basis_vector_1'> +1.3681179e-06 </wgt>
<wgt id='morphing_basis_vector_2'> +9.8732045e-07 </wgt>
<wgt id='morphing_basis_vector_3'> +1.5227075e-06 </wgt>
<wgt id='morphing_basis_vector_4'> +1.0182749e-06 </wgt>
<wgt id='morphing_basis_vector_5'> +1.7056781e-06 </wgt>
</rwgt>
</event>
<event>
 4      1 +9.0096000e-12 5.89057800e+03 7.81860800e-03 7.27391700e-02
        2 -1    0    0  501    0 +0.0000000000e+00 +0.0000000000e+00 +3.9607755204e+03 3.9607755204e+03 0.0000000000e+00 0.0000e+00 1.0000e+00
       -2 -1    0    0    0  501 -0.0000000000e+00 -0.0000000000e+00 -2.1901588268e+03 2.1901588268e+03 0.0000000000e+00 0.0000e+00 -1.0000e+00
      -13  1    1    2    0    0 +2.3495571720e+02 +2.8930426889e+03 +3.6338935004e+02 2.9252268302e+03 0.0000000000e+00 0.0000e+00 -1.0000e+00
       13  1    1    2    0    0 -2.3495571720e+02 -2.8930426889e+03 +1.4072273435e+03 3.2257075170e+03 0.0000000000e+00 0.0000e+00 1.0000e+00
<mgrwt>
<rscale>  0 0.58905781E+04</rscale>
<asrwt>0</asrwt>
<pdfrwt beam="1">  1        2 0.60935008E+00 0.58905781E+04</pdfrwt>
<pdfrwt beam="2">  1       -2 0.33694751E+00 0.58905781E+04</pdfrwt>
<totfact> 0.38331799E-03</totfact>
</mgrwt>
<rwgt>
<wgt id='morphing_basis_vector_1'> +1.4946607e-06 </wgt>
<wgt id='morphing_basis_vector_2'> +1.0805912e-06 </wgt>
<wgt id='morphing_basis_vector_3'> +1.6643287e-06 </wgt>
<wgt id='morphing_basis_vector_4'> +1.1105443e-06 </wgt>
<wgt id='morphing_basis_vector_5'> +1.8630467e-06 </wgt>
</rwgt>
</event>
<event>
 4      1 +9.0096000e-12 6.14895600e+03 7.81860800e-03 7.24551900e-02
        2 -1    0    0  501    0 +0.0000000000e+00 +0.0000000000e+00 +4.7064273081e+03 4.7064273081e+03 0.0000000000e+00 0.0000e+00 -1.0000e+00
       -2 -1    0    0    0  501 -0.0000000000e+00 -0.0000000000e+00 -2.0084058201e+03 2.0084058201e+03 0.0000000000e+00 0.0000e+00 1.0000e+00
      -13  1    1    2    0    0 -1.1909937136e+03 -1.2739822697e+03 -1.4159818052e+03 2.2464419249e+03 0.0000000000e+00 0.0000e+00 1.0000e+00
       13  1    1    2    0    0 +1.1909937136e+03 +1.2739822697e+03 +4.1140032932e+03 4.4683912033e+03 0.0000000000e+00 0.0000e+00 -1.0000e+00
<mgrwt>
<rscale>  0 0.61489563E+04</rscale>
<asrwt>0</asrwt>
<pdfrwt beam="1">  1        2 0.72406574E+00 0.61489563E+04</pdfrwt>
<pdfrwt beam="2">  1       -2 0.30898551E+00 0.61489563E+04</pdfrwt>
<totfact> 0.10813662E-03</totfact>
</mgrwt>
<rwgt>
<wgt id='morphing_basis_vector_1'> +1.7406856e-06 </wgt>
<wgt id='morphing_basis_vector_2'> +1.1850950e-06 </wgt>
<wgt id='morphing_basis_vector_3'> +1.9217233e-06 </wgt>
<wgt id='morphing_basis_vector_4'> +1.3903126e-06 </wgt>
<wgt id='morphing_basis_vector_5'> +2.2188854e-06 </wgt>
</rwgt>
</event>
<event>
 4      1 +9.0096000e-12 6.45120300e+03 7.81860800e-03 7.21404600e-02
        2 -1    0    0  501    0 +0.0000000000e+00 +0.0000000000e+00 +3.0797370077e+03 3.0797370077e+03 0.0000000000e+00 0.0000e+00 -1.0000e+00
       -2 -1    0    0    0  501 -0.0000000000e+00 -0.0000000000e+00 -3.3783742851e+03 3.3783742851e+03 0.0000000000e+00 0.0000e+00 1.0000e+00
      -13  1    1    2    0    0 +7.2541704634e+02 +2.8975391440e+03 -1.3682190867e+03 3.2854202854e+03 0.0000000000e+00 0.0000e+00 1.0000e+00
       13  1    1    2    0    0 -7.2541704634e+02 -2.8975391440e+03 +1.0695818093e+03 3.1726910075e+03 0.0000000000e+00 0.0000e+00 -1.0000e+00
<mgrwt>
<rscale>  0 0.64512028E+04</rscale>
<asrwt>0</asrwt>
<pdfrwt beam="1">  1        2 0.47380570E+00 0.64512028E+04</pdfrwt>
<pdfrwt beam="2">  1       -2 0.51974989E+00 0.64512028E+04</pdfrwt>
<totfact> 0.91911574E-04</totfact>
</mgrwt>
<rwgt>
<wgt id='morphing_basis_vector_1'> +2.1245680e-06 </wgt>
<wgt id='morphing_basis_vector_2'> +1.4837692e-06 </wgt>
<wgt id='morphing_basis_vector_3'> +2.3551233e-06 </wgt>
<wgt id='morphing_basis_vector_4'> +1.6499944e-06 </wgt>
<wgt id='morphing_basis_vector_5'> +2.6864610e-06 </wgt>
</rwgt>
</event>
<event>
 4      1 +9.0096000e-12 5.70420000e+03 7.81860800e-03 7.29533900e-02
        2 -1    0    0  501    0 +0.0000000000e+00 +0.0000000000e+00 +2.9693304716e+03 2.9693304716e+03 0.0000000000e+00 0.0000e+00 1.0000e+00
       -2 -1    0    0    0  501 -0.0000000000e+00 -0.0000000000e+00 -2.7394981367e+03 2.7394981367e+03 0.0000000000e+00 0.0000e+00 -1.0000e+00
      -13  1    1    2    0    0 -1.1526991446e+03 +2.5677220648e+03 +5.7633620958e+02 2.8729906624e+03 0.0000000000e+00 0.0000e+00 1.0000e+00
       13  1    1    2    0    0 +1.1526991446e+03 -2.5677220648e+03 -3.4650387477e+02 2.8358379459e+03 0.0000000000e+00 0.0000e+00 -1.0000e+00
<mgrwt>
<rscale>  0 0.57042003E+04</rscale>
<asrwt>0</asrwt>
<pdfrwt beam="1">  1        2 0.45682007E+00 0.57042003E+04</pdfrwt>
<pdfrwt beam="2">  1       -2 0.42146125E+00 0.57042003E+04</pdfrwt>
<totfact> 0.58418218E-03</totfact>
</mgrwt>
<rwgt>
<wgt id='morphing_basis_vector_1'> +1.3730704e-06 </wgt>
<wgt id='morphing_basis_vector_2'> +1.1216719e-06 </wgt>
<wgt id='morphing_basis_vector_3'> +1.5586498e-06 </wgt>
<wgt id='morphing_basis_vector_4'> +8.5149319e-07 </wgt>
<wgt id='morphing_basis_vector_5'> +1.6272376e-06 </wgt>
</rwgt>
</event>
<event>
 4      1 +9.0096000e-12 5.90436300e+03 7.81860800e-03 7.27236500e-02
        2 -1    0    0  501    0 +0.0000000000e+00 +0.0000000000e+00 +3.3703317404e+03 3.3703317404e+03 0.0000000000e+00 0.0000e+00 1.0000e+00
       -2 -1    0    0    0  501 -0.0000000000e+00 -0.0000000000e+00 -2.5859106454e+03 2.5859106454e+03 0.0000000000e+00 0.0000e+00 -1.0000e+00
      -13  1    1    2    0    0 -1.1002927356e+03 +1.5424131061e+03 -1.8916818614e+03 2.6773387082e+03 0.0000000000e+00 0.0000e+00 -1.0000e+00
       13  1    1    2    0    0 +1.1002927356e+03 -1.5424131061e+03 +2.6761029563e+03 3.2789036776e+03 0.0000000000e+00 0.0000e+00 1.0000e+00
<mgrwt>
<rscale>  0 0.59043634E+04</rscale>
<asrwt>0</asrwt>
<pdfrwt beam="1">  1        2 0.51851258E+00 0.59043634E+04</pdfrwt>
<pdfrwt beam="2">  1       -2 0.39783240E+00 0.59043634E+04</pdfrwt>
<totfact> 0.44072201E-03</totfact>
</mgrwt>
<rwgt>
<wgt id='morphing_basis_vector_1'> +1.4808432e-06 </wgt>
<wgt id='morphing_basis_vector_2'> +1.0090572e-06 </wgt>
<wgt id='morphing_basis_vector_3'> +1.6345502e-06 </wgt>
<wgt id='morphing_basis_vector_4'> +1.1805034e-06 </wgt>
<wgt id='morphing_basis_vector_5'> +1.8855914e-06 </wgt>
</rwgt>
</event>
<event>
 4      1 +9.0096000e-12 5.74046800e+03 7.81860800e-03 7.29110500e-02
        2 -1    0    0  501    0 +0.0000000000e+00 +0.0000000000e+00 +2.4594765650e+03 2.4594765650e+03 0.0000000000e+00 0.0000e+00 -1.0000e+00
       -2 -1    0    0    0  501 -0.0000000000e+00 -0.0000000000e+00 -3.3495926242e+03 3.3495926242e+03 0.0000000000e+00 0.0000e+00 1.0000e+00
      -13  1    1    2    0    0 -1.0282266298e+03 +2.6797354209e+03 -4.4146126676e+02 2.9039834673e+03 0.0000000000e+00 0.0000e+00 1.0000e+00
       13  1    1    2    0    0 +1.0282266298e+03 -2.6797354209e+03 -4.4865479244e+02 2.9050857218e+03 0.0000000000e+00 0.0000e+00 -1.0000e+00
<mgrwt>
<rscale>  0 0.57404685E+04</rscale>
<asrwt>0</asrwt>
<pdfrwt beam="1">  1        2 0.37838101E+00 0.57404685E+04</pdfrwt>
<pdfrwt beam="2">  1       -2 0.51532194E+00 0.57404685E+04</pdfrwt>
<totfact> 0.25515062E-03</totfact>
</mgrwt>
<rwgt>
<wgt id='morphing_basis_vector_1'> +1.3714762e-06 </wgt>
<wgt id='morphing_basis_vector_2'> +1.0425215e-06 </wgt>
<wgt id='morphing_basis_vector_3'> +1.5387367e-06 </wgt>
<wgt id='morphing_basis_vector_4'> +9.5197726e-07 </wgt>
<wgt id='morphing_basis_vector_5'> +1.6757236e-06 </wgt>
</rwgt>
</event>
<event>
 4      1 +9.0096000e-12 5.57506100e+03 7.81860800e-03 7.31067800e-02
        2 -1    0    0  501    0 +0.0000000000e+00 +0.0000000000e+00 +2.9306853962e+03 2.9306853962e+03 0.0000000000e+00 0.0000e+00 1.0000e+00
       -2 -1    0    0    0  501 -0.0000000000e+00 -0.0000000000e+00 -2.6513681540e+03 2.6513681540e+03 0.0000000000e+00 0.0000e+00 -1.0000e+00
      -13  1    1    2    0    0 +8.6772263495e+02 -1.4929982354e+03 +2.3306307759e+03 2.9006596001e+03 0.0000000000e+00 0.0000e+00 1.0000e+00
       13  1    1    2    0    0 -8.6772263495e+02 +1.4929982354e+03 -2.0513135336e+03 2.6813939501e+03 0.0000000000e+00 0.0000e+00 -1.0000e+00
<mgrwt>
<rscale>  0 0.55750609E+04</rscale>
<asrwt>0</asrwt>
<pdfrwt beam="1">  1        2 0.45087468E+00 0.55750609E+04</pdfrwt>
<pdfrwt beam="2">  1       -2 0.40790279E+00 0.55750609E+04</pdfrwt>
<totfact> 0.76795737E-03</totfact>
</mgrwt>
<rwgt>
<wgt id='morphing_basis_vector_1'> +1.5628159e-06 </wgt>
<wgt id='morphing_basis_vector_2'> +1.9326247e-06 </wgt>
<wgt id='morphing_basis_vector_3'> +1.9266455e-06 </wgt>
<wgt id='morphing_basis_vector_4'> +1.1538883e-07 </wgt>
<wgt id='morphing_basis_vector_5'> +1.4289094e-06 </wgt>
</rwgt>
</event>
<event>
 4      1 +9.0096000e-12 5.71082400e+03 7.81860800e-03 7.29456300e-02
        2 -1    0    0  501    0 +0.0000000000e+00 +0.0000000000e+00 +3.5342512347e+03 3.5342512347e+03 0.0000000000e+00 0.0000e+00 1.0000e+00
       -2 -1    0    0    0  501 -0.0000000000e+00 -0.0000000000e+00 -2.3069601471e+03 2.3069601471e+03 0.0000000000e+00 0.0000e+00 -1.0000e+00
      -13  1    1    2    0    0 +3.1685183449e+02 +9.0612568329e+02 -2.1369764783e+03 2.3426752459e+03 0.0000000000e+00 0.0000e+00 -1.0000e+00
       13  1    1    2    0    0 -3.1685183449e+02 -9.0612568329e+02 +3.3642675659e+03 3.4985361359e+03 0.0000000000e+00 0.0000e+00 1.0000e+00
<mgrwt>
<rscale>  0 0.57108237E+04</rscale>
<asrwt>0</asrwt>
<pdfrwt beam="1">  1        2 0.54373096E+00 0.57108237E+04</pdfrwt>
<pdfrwt beam="2">  1       -2 0.35491694E+00 0.57108237E+04</pdfrwt>
<totfact> 0.64420246E-03</totfact>
</mgrwt>
<rwgt>
<wgt id='morphing_basis_vector_1'> +1.2955693e-06 </wgt>
<wgt id='morphing_basis_vector_2'> +8.8066958e-07 </wgt>
<wgt id='morphing_basis_vector_3'> +1.4291504e-06 </wgt>
<wgt id='morphing_basis_vector_4'> +1.0347137e-06 </wgt>
<wgt id='morphing_basis_vector_5'> +1.6498920e-06 </wgt>
</rwgt>
</event>
<event>
 4      1 +9.0096000e-12 5.58604200e+03 7.81860800e-03 7.30935700e-02
        2 -1    0    0  501    0 +0.0000000000e+00 +0.0000000000e+00 +3.3896615530e+03 3.3896615530e+03 0.0000000000e+00 0.0000e+00 -1.0000e+00
       -2 -1    0    0    0  501 -0.0000000000e+00 -0.0000000000e+00 -2.3013995435e+03 2.3013995435e+03 0.0000000000e+00 0.0000e+00 1.0000e+00
      -13  1    1    2    0    0 +2.7290631467e+03 -3.6784455587e+02 +6.8589899702e+01 2.7545961320e+03 0.0000000000e+00 0.0000e+00 1.0000e+00
       13  1    1    2    0    0 -2.7290631467e+03 +3.6784455587e+02 +1.0196721098e+03 2.9364649645e+03 0.0000000000e+00 0.0000e+00 -1.0000e+00
<mgrwt>
<rscale>  0 0.55860417E+04</rscale>
<asrwt>0</asrwt>
<pdfrwt beam="1">  1        2 0.52148639E+00 0.55860417E+04</pdfrwt>
<pdfrwt beam="2">  1       -2 0.35406147E+00 0.55860417E+04</pdfrwt>
<totfact> 0.83845033E-03</totfact>
</mgrwt>
<rwgt>
<wgt id='morphing_basis_vector_1'> +1.2095994e-06 </wgt>
<wgt id='morphing_basis_vector_2'> +8.7476328e-07 </wgt>
<wgt id='morphing_basis_vector_3'> +1.3463181e-06 </wgt>
<wgt id='morphing_basis_vector_4'> +8.9714808e-07 </wgt>
<wgt id='morphing_basis_vector_5'> +1.5058291e-06 </wgt>
</rwgt>
</event>
<event>
 4      1 +9.0096000e-12 5.64454500e+03 7.81860800e-03 7.30237200e-02
        2 -1    0    0  501    0 +0.0000000000e+00 +0.0000000000e+00 +3.2212044586e+03 3.2212044586e+03 0.0000000000e+00 0.0000e+00 -1.0000e+00
       -2 -1    0    0    0  501 -0.0000000000e+00 -0.0000000000e+00 -2.4727468207e+03 2.4727468207e+03 0.0000000000e+00 0.0000e+00 1.0000e+00
      -13  1    1    2    0    0 +1.9125675952e+03 -3.4738992771e+02 -1.6898058743e+03 2.5756627226e+03 0.0000000000e+00 0.0000e+00 1.0000e+00
       13  1    1    2    0    0 -1.9125675952e+03 +3.4738992771e+02 +2.4382635122e+03 3.1182885567e+03 0.0000000000e+00 0.0000e+00 -1.0000e+00
<mgrwt>
<rscale>  0 0.56445454E+04</rscale>
<asrwt>0</asrwt>
<pdfrwt beam="1">  1        2 0.49556992E+00 0.56445454E+04</pdfrwt>
<pdfrwt beam="2">  1       -2 0.38042259E+00 0.56445454E+04</pdfrwt>
<totfact> 0.74035652E-03</totfact>
</mgrwt>
<rwgt>
<wgt id='morphing_basis_vector_1'> +1.2378470e-06 </wgt>
<wgt id='morphing_basis_vector_2'> +8.4415911e-07 </wgt>
<wgt id='morphing_basis_vector_3'> +1.3659758e-06 </wgt>
<wgt id='morphing_basis_vector_4'> +9.8475808e-07 </wgt>
<wgt id='morphing_basis_vector_5'> +1.5742197e-06 </wgt>
</rwgt>
</event>
<event>
 4      1 +9.0096000e-12 5.71148800e+03 7.81860800e-03 7.29448600e-02
        2 -1    0    0  501    0 +0.0000000000e+00 +0.0000000000e+00 +3.0196573516e+03 3.0196573516e+03 0.0000000000e+00 0.0000e+00 -1.0000e+00
       -2 -1    0    0    0  501 -0.0000000000e+00 -0.0000000000e+00 -2.7007285502e+03 2.7007285502e+03 0.0000000000e+00 0.0000e+00 1.0000e+00
      -13  1    1    2    0    0 -1.6116616329e+03 +1.7322030949e+03 -1.4421809776e+03 2.7708963808e+03 0.0000000000e+00 0.0000e+00 1.0000e+00
       13  1    1    2    0    0 +1.6116616329e+03 -1.7322030949e+03 +1.7611097789e+03 2.9494895210e+03 0.0000000000e+00 0.0000e+00 -1.0000e+00
<mgrwt>
<rscale>  0 0.57114884E+04</rscale>
<asrwt>0</asrwt>
<pdfrwt beam="1">  1        2 0.46456267E+00 0.57114884E+04</pdfrwt>
<pdfrwt beam="2">  1       -2 0.41549670E+00 0.57114884E+04</pdfrwt>
<totfact> 0.59305138E-03</totfact>
</mgrwt>
<rwgt>
<wgt id='morphing_basis_vector_1'> +1.3003019e-06 </wgt>
<wgt id='morphing_basis_vector_2'> +8.9320566e-07 </wgt>
<wgt id='morphing_basis_vector_3'> +1.4365511e-06 </wgt>
<wgt id='morphing_basis_vector_4'> +1.0263683e-06 </wgt>
<wgt id='morphing_basis_vector_5'> +1.6499201e-06 </wgt>
</rwgt>
</event>
<event>
 4      1 +9.0096000e-12 6.51655700e+03 7.81860800e-03 7.20747000e-02
        2 -1    0    0  501    0 +0.0000000000e+00 +0.0000000000e+00 +4.0117891315e+03 4.0117891315e+03 0.0000000000e+00 0.0000e+00 -1.0000e+00
       -2 -1    0    0    0  501 -0.0000000000e+00 -0.0000000000e+00 -2.6462953829e+03 2.6462953829e+03 0.0000000000e+00 0.0000e+00 1.0000e+00
      -13  1    1    2    0    0 +1.2855822862e+03 +2.4264732443e+02 -2.3661496488e+03 2.7037499328e+03 0.0000000000e+00 0.0000e+00 1.0000e+00
       13  1    1    2    0    0 -1.2855822862e+03 -2.4264732443e+02 +3.7316433974e+03 3.9543345817e+03 0.0000000000e+00 0.0000e+00 -1.0000e+00
<mgrwt>
<rscale>  0 0.65165571E+04</rscale>
<asrwt>0</asrwt>
<pdfrwt beam="1">  1        2 0.61719833E+00 0.65165571E+04</pdfrwt>
<pdfrwt beam="2">  1       -2 0.40712237E+00 0.65165571E+04</pdfrwt>
<totfact> 0.11622782E-03</totfact>
</mgrwt>
<rwgt>
<wgt id='morphing_basis_vector_1'> +2.1940601e-06 </wgt>
<wgt id='morphing_basis_vector_2'> +1.4926944e-06 </wgt>
<wgt id='morphing_basis_vector_3'> +2.4229777e-06 </wgt>
<wgt id='morphing_basis_vector_4'> +1.7560126e-06 </wgt>
<wgt id='morphing_basis_vector_5'> +2.8004004e-06 </wgt>
</rwgt>
</event>
<event>
 4      1 +9.0096000e-12 6.23917900e+03 7.81860800e-03 7.23593500e-02
        2 -1    0    0  501    0 +0.0000000000e+00 +0.0000000000e+00 +3.9637293200e+03 3.9637293200e+03 0.0000000000e+00 0.0000e+00 -1.0000e+00
       -2 -1    0    0    0  501 -0.0000000000e+00 -0.0000000000e+00 -2.4552229136e+03 2.4552229136e+03 0.0000000000e+00 0.0000e+00 1.0000e+00
      -13  1    1    2    0    0 +1.2814894669e+03 -1.3034326304e+03 -1.8465678318e+03 2.5982618484e+03 0.0000000000e+00 0.0000e+00 1.0000e+00
       13  1    1    2    0    0 -1.2814894669e+03 +1.3034326304e+03 +3.3550742381e+03 3.8206903851e+03 0.0000000000e+00 0.0000e+00 -1.0000e+00
<mgrwt>
<rscale>  0 0.62391791E+04</rscale>
<asrwt>0</asrwt>
<pdfrwt beam="1">  1        2 0.60980451E+00 0.62391791E+04</pdfrwt>
<pdfrwt beam="2">  1       -2 0.37772660E+00 0.62391791E+04</pdfrwt>
<totfact> 0.20242605E-03</totfact>
</mgrwt>
<rwgt>
<wgt id='morphing_basis_vector_1'> +1.8450102e-06 </wgt>
<wgt id='morphing_basis_vector_2'> +1.2564898e-06 </wgt>
<wgt id='morphing_basis_vector_3'> +2.0372004e-06 </wgt>
<wgt id='morphing_basis_vector_4'> +1.4736397e-06 </wgt>
<wgt id='morphing_basis_vector_5'> +2.3522705e-06 </wgt>
</rwgt>
</event>
<event>
 4      1 +9.0096000e-12 5.69250400e+03 7.81860800e-03 7.29671100e-02
        2 -1    0    0  501    0 +0.0000000000e+00 +0.0000000000e+00 +2.6783560988e+03 2.6783560988e+03 0.0000000000e+00 0.0000e+00 1.0000e+00
       -2 -1    0    0    0  501 -0.0000000000e+00 -0.0000000000e+00 -3.0246726670e+03 3.0246726670e+03 0.0000000000e+00 0.0000e+00 -1.0000e+00
      -13  1    1    2    0    0 +8.1872888554e+02 -1.7492254741e+03 -2.2677278684e+03 2.9787071747e+03 0.0000000000e+00 0.0000e+00 -1.0000e+00
       13  1    1    2    0    0 -8.1872888554e+02 +1.7492254741e+03 +1.9214113003e+03 2.7243215911e+03 0.0000000000e+00 0.0000e+00 1.0000e+00
<mgrwt>
<rscale>  0 0.56925040E+04</rscale>
<asrwt>0</asrwt>
<pdfrwt beam="1">  1        2 0.41205479E+00 0.56925040E+04</pdfrwt>
<pdfrwt beam="2">  1       -2 0.46533425E+00 0.56925040E+04</pdfrwt>
<totfact> 0.44436963E-03</totfact>
</mgrwt>
<rwgt>
<wgt id='morphing_basis_vector_1'> +1.2802408e-06 </wgt>
<wgt id='morphing_basis_vector_2'> +8.7288182e-07 </wgt>
<wgt id='morphing_basis_vector_3'> +1.4128178e-06 </wgt>
<wgt id='morphing_basis_vector_4'> +1.0189597e-06 </wgt>
<wgt id='morphing_basis_vector_5'> +1.6285611e-06 </wgt>
</rwgt>
</event>
<event>
 4      1 +9.0096000e-12 6.24967400e+03 7.81860800e-03 7.23483100e-02
        2 -1    0    0  501    0 +0.0000000000e+00 +0.0000000000e+00 +3.7784470953e+03 3.7784470953e+03 0.0000000000e+00 0.0000e+00 -1.0000e+00
       -2 -1    0    0    0  501 -0.0000000000e+00 -0.0000000000e+00 -2.5842906541e+03 2.5842906541e+03 0.0000000000e+00 0.0000e+00 1.0000e+00
      -13  1    1    2    0    0 -2.7404470200e+02 +6.1251117601e+02 +3.7042309780e+03 3.7645182398e+03 0.0000000000e+00 0.0000e+00 -1.0000e+00
       13  1    1    2    0    0 +2.7404470200e+02 -6.1251117601e+02 -2.5100745368e+03 2.5982195095e+03 0.0000000000e+00 0.0000e+00 1.0000e+00
<mgrwt>
<rscale>  0 0.62496738E+04</rscale>
<asrwt>0</asrwt>
<pdfrwt beam="1">  1        2 0.58129955E+00 0.62496738E+04</pdfrwt>
<pdfrwt beam="2">  1       -2 0.39758318E+00 0.62496738E+04</pdfrwt>
<totfact> 0.21313634E-03</totfact>
</mgrwt>
<rwgt>
<wgt id='morphing_basis_vector_1'> +2.5446495e-06 </wgt>
<wgt id='morphing_basis_vector_2'> +3.2818951e-06 </wgt>
<wgt id='morphing_basis_vector_3'> +3.1742889e-06 </wgt>
<wgt id='morphing_basis_vector_4'> +1.2504267e-08 </wgt>
<wgt id='morphing_basis_vector_5'> +2.2443586e-06 </wgt>
</rwgt>
</event>
<event>
 4      1 +9.0096000e-12 5.62550900e+03 7.81860800e-03 7.30463500e-02
        2 -1    0    0  501    0 +0.0000000000e+00 +0.0000000000e+00 +2.5122945166e+03 2.5122945166e+03 0.0000000000e+00 0.0000e+00 -1.0000e+00
       -2 -1    0    0    0  501 -0.0000000000e+00 -0.0000000000e+00 -3.1491485105e+03 3.1491485105e+03 0.0000000000e+00 0.0000e+00 1.0000e+00
      -13  1    1    2    0    0 +4.9362556370e+02 -7.5163967771e+02 -3.0005888896e+03 3.1324370842e+03 0.0000000000e+00 0.0000e+00 1.0000e+00
       13  1    1    2    0    0 -4.9362556370e+02 +7.5163967771e+02 +2.3637348957e+03 2.5290059429e+03 0.0000000000e+00 0.0000e+00 -1.0000e+00
<mgrwt>
<rscale>  0 0.56255092E+04</rscale>
<asrwt>0</asrwt>
<pdfrwt beam="1">  1        2 0.38650685E+00 0.56255092E+04</pdfrwt>
<pdfrwt beam="2">  1       -2 0.48448438E+00 0.56255092E+04</pdfrwt>
<totfact> 0.40743876E-03</totfact>
</mgrwt>
<rwgt>
<wgt id='morphing_basis_vector_1'> +1.2200479e-06 </wgt>
<wgt id='morphing_basis_vector_2'> +8.2923644e-07 </wgt>
<wgt id='morphing_basis_vector_3'> +1.3456441e-06 </wgt>
<wgt id='morphing_basis_vector_4'> +9.7413171e-07 </wgt>
<wgt id='morphing_basis_vector_5'> +1.5532588e-06 </wgt>
</rwgt>
</event>
<event>
 4      1 +9.0096000e-12 5.61666800e+03 7.81860800e-03 7.30569000e-02
        2 -1    0    0  501    0 +0.0000000000e+00 +0.0000000000e+00 +3.0905934524e+03 3.0905934524e+03 0.0000000000e+00 0.0000e+00 1.0000e+00
       -2 -1    0    0    0  501 -0.0000000000e+00 -0.0000000000e+00 -2.5518531634e+03 2.5518531634e+03 0.0000000000e+00 0.0000e+00 -1.0000e+00
      -13  1    1    2    0    0 +6.4115003382e+02 +1.7746662627e+03 +2.3588747501e+03 3.0207290174e+03 0.0000000000e+00 0.0000e+00 1.0000e+00
       13  1    1    2    0    0 -6.4115003382e+02 -1.7746662627e+03 -1.8201344611e+03 2.6217175985e+03 0.0000000000e+00 0.0000e+00 -1.0000e+00
<mgrwt>
<rscale>  0 0.56166683E+04</rscale>
<asrwt>0</asrwt>
<pdfrwt beam="1">  1        2 0.47547592E+00 0.56166683E+04</pdfrwt>
<pdfrwt beam="2">  1       -2 0.39259279E+00 0.56166683E+04</pdfrwt>
<totfact> 0.75774411E-03</totfact>
</mgrwt>
<rwgt>
<wgt id='morphing_basis_vector_1'> +1.5867623e-06 </wgt>
<wgt id='morphing_basis_vector_2'> +1.9229945e-06 </wgt>
<wgt id='morphing_basis_vector_3'> +1.9472497e-06 </wgt>
<wgt id='morphing_basis_vector_4'> +1.6824519e-07 </wgt>
<wgt id='morphing_basis_vector_5'> +1.4762952e-06 </wgt>
</rwgt>
</event>
<event>
 4      1 +9.0096000e-12 5.66792200e+03 7.81860800e-03 7.29960600e-02
        2 -1    0    0  501    0 +0.0000000000e+00 +0.0000000000e+00 +3.4565544037e+03 3.4565544037e+03 0.0000000000e+00 0.0000e+00 -1.0000e+00
       -2 -1    0    0    0  501 -0.0000000000e+00 -0.0000000000e+00 -2.3235093128e+03 2.3235093128e+03 0.0000000000e+00 0.0000e+00 1.0000e+00
      -13  1    1    2    0    0 -4.0662448174e+02 +1.4017436463e+03 -1.9107597047e+03 2.4044191332e+03 0.0000000000e+00 0.0000e+00 1.0000e+00
       13  1    1    2    0    0 +4.0662448174e+02 -1.4017436463e+03 +3.0438047956e+03 3.3756445833e+03 0.0000000000e+00 0.0000e+00 -1.0000e+00
<mgrwt>
<rscale>  0 0.56679225E+04</rscale>
<asrwt>0</asrwt>
<pdfrwt beam="1">  1        2 0.53177760E+00 0.56679225E+04</pdfrwt>
<pdfrwt beam="2">  1       -2 0.35746297E+00 0.56679225E+04</pdfrwt>
<totfact> 0.70915575E-03</totfact>
</mgrwt>
<rwgt>
<wgt id='morphing_basis_vector_1'> +1.2574290e-06 </wgt>
<wgt id='morphing_basis_vector_2'> +8.5528462e-07 </wgt>
<wgt id='morphing_basis_vector_3'> +1.3871141e-06 </wgt>
<wgt id='morphing_basis_vector_4'> +1.0033474e-06 </wgt>
<wgt id='morphing_basis_vector_5'> +1.6007058e-06 </wgt>
</rwgt>
</event>
<event>
 4      1 +9.0096000e-12 5.77779200e+03 7.81860800e-03 7.28678200e-02
        2 -1    0    0  501    0 +0.0000000000e+00 +0.0000000000e+00 +2.3733414846e+03 2.3733414846e+03 0.0000000000e+00 0.0000e+00 1.0000e+00
       -2 -1    0    0    0  501 -0.0000000000e+00 -0.0000000000e+00 -3.5164431662e+03 3.5164431662e+03 0.0000000000e+00 0.0000e+00 -1.0000e+00
      -13  1    1    2    0    0 +2.8041937042e+03 +1.0984287456e+02 -1.2705182898e+03 3.0805493848e+03 0.0000000000e+00 0.0000e+00 -1.0000e+00
       13  1    1    2    0    0 -2.8041937042e+03 -1.0984287456e+02 +1.2741660829e+02 2.8092352660e+03 0.0000000000e+00 0.0000e+00 1.0000e+00
<mgrwt>
<rscale>  0 0.57777921E+04</rscale>
<asrwt>0</asrwt>
<pdfrwt beam="1">  1        2 0.36512946E+00 0.57777921E+04</pdfrwt>
<pdfrwt beam="2">  1       -2 0.54099126E+00 0.57777921E+04</pdfrwt>
<totfact> 0.18543264E-03</totfact>
</mgrwt>
<rwgt>
<wgt id='morphing_basis_vector_1'> +1.3774382e-06 </wgt>
<wgt id='morphing_basis_vector_2'> +9.8190322e-07 </wgt>
<wgt id='morphing_basis_vector_3'> +1.5302765e-06 </wgt>
<wgt id='morphing_basis_vector_4'> +1.0410922e-06 </wgt>
<wgt id='morphing_basis_vector_5'> +1.7252218e-06 </wgt>
</rwgt>
</event>
<event>
 4      1 +9.0096000e-12 5.65306800e+03 7.81860800e-03 7.30136200e-02
        2 -1    0    0  501    0 +0.0000000000e+00 +0.0000000000e+00 +2.5967711991e+03 2.5967711991e+03 0.0000000000e+00 0.0000e+00 1.0000e+00
       -2 -1    0    0    0  501 -0.0000000000e+00 -0.0000000000e+00 -3.0766258120e+03 3.0766258120e+03 0.0000000000e+00 0.0000e+00 -1.0000e+00
      -13  1    1    2    0    0 +1.2837837006e+03 +1.4757772485e+03 -2.2876752858e+03 3.0098965581e+03 0.0000000000e+00 0.0000e+00 -1.0000e+00
       13  1    1    2    0    0 -1.2837837006e+03 -1.4757772485e+03 +1.8078206729e+03 2.6635004529e+03 0.0000000000e+00 0.0000e+00 1.0000e+00
<mgrwt>
<rscale>  0 0.56530676E+04</rscale>
<asrwt>0</asrwt>
<pdfrwt beam="1">  1        2 0.39950326E+00 0.56530676E+04</pdfrwt>
<pdfrwt beam="2">  1       -2 0.47332705E+00 0.56530676E+04</pdfrwt>
<totfact> 0.43717769E-03</totfact>
</mgrwt>
<rwgt>
<wgt id='morphing_basis_vector_1'> +1.2453543e-06 </wgt>
<wgt id='morphing_basis_vector_2'> +8.4936347e-07 </wgt>
<wgt id='morphing_basis_vector_3'> +1.3742981e-06 </wgt>
<wgt id='morphing_basis_vector_4'> +9.9066056e-07 </wgt>
<wgt id='morphing_basis_vector_5'> +1.5837660e-06 </wgt>
</rwgt>
</event>
<event>
 4      1 +9.0096000e-12 6.18065000e+03 7.81860800e-03 7.24213300e-02
        2 -1    0    0  501    0 +0.0000000000e+00 +0.0000000000e+00 +3.4866748586e+03 3.4866748586e+03 0.0000000000e+00 0.0000e+00 -1.0000e+00
       -2 -1    0    0    0  501 -0.0000000000e+00 -0.0000000000e+00 -2.7390303959e+03 2.7390303959e+03 0.0000000000e+00 0.0000e+00 1.0000e+00
      -13  1    1    2    0    0 -1.7063886368e+03 -2.3228916962e+03 -7.4898751626e+02 2.9780144915e+03 0.0000000000e+00 0.0000e+00 1.0000e+00
       13  1    1    2    0    0 +1.7063886368e+03 +2.3228916962e+03 +1.4966319790e+03 3.2476907630e+03 0.0000000000e+00 0.0000e+00 -1.0000e+00
<mgrwt>
<rscale>  0 0.61806499E+04</rscale>
<asrwt>0</asrwt>
<pdfrwt beam="1">  1        2 0.53641152E+00 0.61806499E+04</pdfrwt>
<pdfrwt beam="2">  1       -2 0.42138929E+00 0.61806499E+04</pdfrwt>
<totfact> 0.24915611E-03</totfact>
</mgrwt>
<rwgt>
<wgt id='morphing_basis_vector_1'> +1.7917408e-06 </wgt>
<wgt id='morphing_basis_vector_2'> +1.2536272e-06 </wgt>
<wgt id='morphing_basis_vector_3'> +1.9861054e-06 </wgt>
<wgt id='morphing_basis_vector_4'> +1.3872241e-06 </wgt>
<wgt id='morphing_basis_vector_5'> +2.2623890e-06 </wgt>
</rwgt>
</event>
<event>
 4      1 +9.0096000e-12 6.41252900e+03 7.81860800e-03 7.21797400e-02
        2 -1    0    0  501    0 +0.0000000000e+00 +0.0000000000e+00 +3.2659720823e+03 3.2659720823e+03 0.0000000000e+00 0.0000e+00 -1.0000e+00
       -2 -1    0    0    0  501 -0.0000000000e+00 -0.0000000000e+00 -3.1476487395e+03 3.1476487395e+03 0.0000000000e+00 0.0000e+00 1.0000e+00
      -13  1    1    2    0    0 -2.8604427129e+03 +1.2927608633e+03 -5.9422569301e+02 3.1947562251e+03 0.0000000000e+00 0.0000e+00 1.0000e+00
       13  1    1    2    0    0 +2.8604427129e+03 -1.2927608633e+03 +7.1254903576e+02 3.2188645967e+03 0.0000000000e+00 0.0000e+00 -1.0000e+00
<mgrwt>
<rscale>  0 0.64125293E+04</rscale>
<asrwt>0</asrwt>
<pdfrwt beam="1">  1        2 0.50245724E+00 0.64125293E+04</pdfrwt>
<pdfrwt beam="2">  1       -2 0.48425365E+00 0.64125293E+04</pdfrwt>
<totfact> 0.12702927E-03</totfact>
</mgrwt>
<rwgt>
<wgt id='morphing_basis_vector_1'> +2.0924877e-06 </wgt>
<wgt id='morphing_basis_vector_2'> +1.5022715e-06 </wgt>
<wgt id='morphing_basis_vector_3'> +2.3291083e-06 </wgt>
<wgt id='morphing_basis_vector_4'> +1.5715006e-06 </wgt>
<wgt id='morphing_basis_vector_5'> +2.6191974e-06 </wgt>
</rwgt>
</event>
<event>
 4      1 +9.0096000e-12 5.88085800e+03 7.81860800e-03 7.27501400e-02
        2 -1    0    0  501    0 +0.0000000000e+00 +0.0000000000e+00 +3.0588121240e+03 3.0588121240e+03 0.0000000000e+00 0.0000e+00 -1.0000e+00
       -2 -1    0    0    0  501 -0.0000000000e+00 -0.0000000000e+00 -2.8266273139e+03 2.8266273139e+03 0.0000000000e+00 0.0000e+00 1.0000e+00
      -13  1    1    2    0    0 -1.9281233255e+03 +8.3690663523e+02 -1.9417317479e+03 2.8615370791e+03 0.0000000000e+00 0.0000e+00 1.0000e+00
       13  1    1    2    0    0 +1.9281233255e+03 -8.3690663523e+02 +2.1739165581e+03 3.0239023588e+03 0.0000000000e+00 0.0000e+00 -1.0000e+00
<mgrwt>
<rscale>  0 0.58808577E+04</rscale>
<asrwt>0</asrwt>
<pdfrwt beam="1">  1        2 0.47058648E+00 0.58808577E+04</pdfrwt>
<pdfrwt beam="2">  1       -2 0.43486574E+00 0.58808577E+04</pdfrwt>
<totfact> 0.40960861E-03</totfact>
</mgrwt>
<rwgt>
<wgt id='morphing_basis_vector_1'> +1.4582810e-06 </wgt>
<wgt id='morphing_basis_vector_2'> +9.9551675e-07 </wgt>
<wgt id='morphing_basis_vector_3'> +1.6100242e-06 </wgt>
<wgt id='morphing_basis_vector_4'> +1.1600142e-06 </wgt>
<wgt id='morphing_basis_vector_5'> +1.8555280e-06 </wgt>
</rwgt>
</event>
<event>
 4      1 +9.0096000e-12 5.94844600e+03 7.81860800e-03 7.26743000e-02
        2 -1    0    0  501    0 +0.0000000000e+00 +0.0000000000e+00 +3.3777396425e+03 3.3777396425e+03 0.0000000000e+00 0.0000e+00 1.0000e+00
       -2 -1    0    0    0  501 -0.0000000000e+00 -0.0000000000e+00 -2.6189116686e+03 2.6189116686e+03 0.0000000000e+00 0.0000e+00 -1.0000e+00
      -13  1    1    2    0    0 -1.2943079017e+03 -2.5315721353e+03 -5.0053502829e+02 2.8869751878e+03 0.0000000000e+00 0.0000e+00 -1.0000e+00
       13  1    1    2    0    0 +1.2943079017e+03 +2.5315721353e+03 +1.2593630022e+03 3.1096761233e+03 0.0000000000e+00 0.0000e+00 1.0000e+00
<mgrwt>
<rscale>  0 0.59484458E+04</rscale>
<asrwt>0</asrwt>
<pdfrwt beam="1">  1        2 0.51965225E+00 0.59484458E+04</pdfrwt>
<pdfrwt beam="2">  1       -2 0.40290949E+00 0.59484458E+04</pdfrwt>
<totfact> 0.40208716E-03</totfact>
</mgrwt>
<rwgt>
<wgt id='morphing_basis_vector_1'> +1.5423760e-06 </wgt>
<wgt id='morphing_basis_vector_2'> +1.0891583e-06 </wgt>
<wgt id='morphing_basis_vector_3'> +1.7115230e-06 </wgt>
<wgt id='morphing_basis_vector_4'> +1.1800526e-06 </wgt>
<wgt id='morphing_basis_vector_5'> +1.9396244e-06 </wgt>
</rwgt>
</event>
<event>
 4      1 +9.0096000e-12 5.89362000e+03 7.81860800e-03 7.27357400e-02
        2 -1    0    0  501    0 +0.0000000000e+00 +0.0000000000e+00 +2.5441092001e+03 2.5441092001e+03 0.0000000000e+00 0.0000e+00 -1.0000e+00
       -2 -1    0    0    0  501 -0.0000000000e+00 -0.0000000000e+00 -3.4132529731e+03 3.4132529731e+03 0.0000000000e+00 0.0000e+00 1.0000e+00
      -13  1    1    2    0    0 +1.6191528595e+03 -1.2547807311e+03 -2.5758689146e+03 3.2910836104e+03 0.0000000000e+00 0.0000e+00 1.0000e+00
       13  1    1    2    0    0 -1.6191528595e+03 +1.2547807311e+03 +1.7067251416e+03 2.6662785628e+03 0.0000000000e+00 0.0000e+00 -1.0000e+00
<mgrwt>
<rscale>  0 0.58936197E+04</rscale>
<asrwt>0</asrwt>
<pdfrwt beam="1">  1        2 0.39140142E+00 0.58936197E+04</pdfrwt>
<pdfrwt beam="2">  1       -2 0.52511584E+00 0.58936197E+04</pdfrwt>
<totfact> 0.19001121E-03</totfact>
</mgrwt>
<rwgt>
<wgt id='morphing_basis_vector_1'> +1.4706780e-06 </wgt>
<wgt id='morphing_basis_vector_2'> +1.0033786e-06 </wgt>
<wgt id='morphing_basis_vector_3'> +1.6235987e-06 </wgt>
<wgt id='morphing_basis_vector_4'> +1.1707215e-06 </wgt>
<wgt id='morphing_basis_vector_5'> +1.8717732e-06 </wgt>
</rwgt>
</event>
<event>
 4      1 +9.0096000e-12 5.64867800e+03 7.81860800e-03 7.30188200e-02
        2 -1    0    0  501    0 +0.0000000000e+00 +0.0000000000e+00 +5.4907105557e+03 5.4907105557e+03 0.0000000000e+00 0.0000e+00 -1.0000e+00
       -2 -1    0    0    0  501 -0.0000000000e+00 -0.0000000000e+00 -1.4527975354e+03 1.4527975354e+03 0.0000000000e+00 0.0000e+00 1.0000e+00
      -13  1    1    2    0    0 +3.2607177365e+02 -2.7984505989e+03 +2.2624620470e+03 3.6133617408e+03 0.0000000000e+00 0.0000e+00 1.0000e+00
       13  1    1    2    0    0 -3.2607177365e+02 +2.7984505989e+03 +1.7754509732e+03 3.3301463503e+03 0.0000000000e+00 0.0000e+00 -1.0000e+00
<mgrwt>
<rscale>  0 0.56486780E+04</rscale>
<asrwt>0</asrwt>
<pdfrwt beam="1">  1        2 0.84472469E+00 0.56486780E+04</pdfrwt>
<pdfrwt beam="2">  1       -2 0.22350732E+00 0.56486780E+04</pdfrwt>
<totfact> 0.31707577E-04</totfact>
</mgrwt>
<rwgt>
<wgt id='morphing_basis_vector_1'> +1.2987719e-06 </wgt>
<wgt id='morphing_basis_vector_2'> +1.0148576e-06 </wgt>
<wgt id='morphing_basis_vector_3'> +1.4633826e-06 </wgt>
<wgt id='morphing_basis_vector_4'> +8.6520980e-07 </wgt>
<wgt id='morphing_basis_vector_5'> +1.5685575e-06 </wgt>
</rwgt>
</event>
<event>
 4      1 +9.0096000e-12 5.85801800e+03 7.81860800e-03 7.27760100e-02
        2 -1    0    0  501    0 +0.0000000000e+00 +0.0000000000e+00 +3.9111134318e+03 3.9111134318e+03 0.0000000000e+00 0.0000e+00 1.0000e+00
       -2 -1    0    0    0  501 -0.0000000000e+00 -0.0000000000e+00 -2.1935172087e+03 2.1935172087e+03 0.0000000000e+00 0.0000e+00 -1.0000e+00
      -13  1    1    2    0    0 -1.0757541515e+03 +2.7196857307e+03 +1.0240853724e+03 3.0988204721e+03 0.0000000000e+00 0.0000e+00 -1.0000e+00
       13  1    1    2    0    0 +1.0757541515e+03 -2.7196857307e+03 +6.9351085073e+02 3.0058101684e+03 0.0000000000e+00 0.0000e+00 1.0000e+00
<mgrwt>
<rscale>  0 0.58580183E+04</rscale>
<asrwt>0</asrwt>
<pdfrwt beam="1">  1        2 0.60170976E+00 0.58580183E+04</pdfrwt>
<pdfrwt beam="2">  1       -2 0.33746419E+00 0.58580183E+04</pdfrwt>
<totfact> 0.41944378E-03</totfact>
</mgrwt>
<rwgt>
<wgt id='morphing_basis_vector_1'> +1.4980272e-06 </wgt>
<wgt id='morphing_basis_vector_2'> +1.1627795e-06 </wgt>
<wgt id='morphing_basis_vector_3'> +1.6866798e-06 </wgt>
<wgt id='morphing_basis_vector_4'> +1.0090300e-06 </wgt>
<wgt id='morphing_basis_vector_5'> +1.8156198e-06 </wgt>
</rwgt>
</event>
<event>
 4      1 +9.0096000e-12 6.23158200e+03 7.81860800e-03 7.23673600e-02
        2 -1    0    0  501    0 +0.0000000000e+00 +0.0000000000e+00 +1.8391519184e+03 1.8391519184e+03 0.0000000000e+00 0.0000e+00 -1.0000e+00
       -2 -1    0    0    0  501 -0.0000000000e+00 -0.0000000000e+00 -5.2786025650e+03 5.2786025650e+03 0.0000000000e+00 0.0000e+00 1.0000e+00
      -13  1    1    2    0    0 -1.6265599423e+03 +2.5228207892e+03 -2.6738817024e+03 4.0199459373e+03 0.0000000000e+00 0.0000e+00 1.0000e+00
       13  1    1    2    0    0 +1.6265599423e+03 -2.5228207892e+03 -7.6556894426e+02 3.0978085462e+03 0.0000000000e+00 0.0000e+00 -1.0000e+00
<mgrwt>
<rscale>  0 0.62315815E+04</rscale>
<asrwt>0</asrwt>
<pdfrwt beam="1">  1        2 0.28294645E+00 0.62315815E+04</pdfrwt>
<pdfrwt beam="2">  1       -2 0.81209270E+00 0.62315815E+04</pdfrwt>
<totfact> 0.61444110E-04</totfact>
</mgrwt>
<rwgt>
<wgt id='morphing_basis_vector_1'> +1.8593436e-06 </wgt>
<wgt id='morphing_basis_vector_2'> +1.3187256e-06 </wgt>
<wgt id='morphing_basis_vector_3'> +2.0653561e-06 </wgt>
<wgt id='morphing_basis_vector_4'> +1.4166183e-06 </wgt>
<wgt id='morphing_basis_vector_5'> +2.3366158e-06 </wgt>
</rwgt>
</event>
<event>
 4      1 +9.0096000e-12 5.60216300e+03 7.81860800e-03 7.30742400e-02
        2 -1    0    0  501    0 +0.0000000000e+00 +0.0000000000e+00 +2.7839089299e+03 2.7839089299e+03 0.0000000000e+00 0.0000e+00 -1.0000e+00
       -2 -1    0    0    0  501 -0.0000000000e+00 -0.0000000000e+00 -2.8183599752e+03 2.8183599752e+03 0.0000000000e+00 0.0000e+00 1.0000e+00
      -13  1    1    2    0    0 +1.8949518587e+03 -1.9052269861e+01 -2.0799937778e+03 2.8138194064e+03 0.0000000000e+00 0.0000e+00 1.0000e+00
       13  1    1    2    0    0 -1.8949518587e+03 +1.9052269861e+01 +2.0455427326e+03 2.7884494987e+03 0.0000000000e+00 0.0000e+00 -1.0000e+00
<mgrwt>
<rscale>  0 0.56021630E+04</rscale>
<asrwt>0</asrwt>
<pdfrwt beam="1">  1        2 0.42829368E+00 0.56021630E+04</pdfrwt>
<pdfrwt beam="2">  1       -2 0.43359384E+00 0.56021630E+04</pdfrwt>
<totfact> 0.64067516E-03</totfact>
</mgrwt>
<rwgt>
<wgt id='morphing_basis_vector_1'> +1.2010643e-06 </wgt>
<wgt id='morphing_basis_vector_2'> +8.1877525e-07 </wgt>
<wgt id='morphing_basis_vector_3'> +1.3252275e-06 </wgt>
<wgt id='morphing_basis_vector_4'> +9.5568973e-07 </wgt>
<wgt id='morphing_basis_vector_5'> +1.5273745e-06 </wgt>
</rwgt>
</event>
<event>
 4      1 +9.0096000e-12 5.57538700e+03 7.81860800e-03 7.31063800e-02
        2 -1    0    0  501    0 +0.0000000000e+00 +0.0000000000e+00 +4.1536523945e+03 4.1536523945e+03 0.0000000000e+00 0.0000e+00 -1.0000e+00
       -2 -1    0    0    0  501 -0.0000000000e+00 -0.0000000000e+00 -1.8709404602e+03 1.8709404602e+03 0.0000000000e+00 0.0000e+00 1.0000e+00
      -13  1    1    2    0    0 +4.4432113513e+02 -6.8914366547e+02 -1.7376864101e+03 1.9214302804e+03 0.0000000000e+00 0.0000e+00 1.0000e+00
       13  1    1    2    0    0 -4.4432113513e+02 +6.8914366547e+02 +4.0203983444e+03 4.1031625742e+03 0.0000000000e+00 0.0000e+00 -1.0000e+00
<mgrwt>
<rscale>  0 0.55753875E+04</rscale>
<asrwt>0</asrwt>
<pdfrwt beam="1">  1        2 0.63902344E+00 0.55753875E+04</pdfrwt>
<pdfrwt beam="2">  1       -2 0.28783699E+00 0.55753875E+04</pdfrwt>
<totfact> 0.56727295E-03</totfact>
</mgrwt>
<rwgt>
<wgt id='morphing_basis_vector_1'> +1.1772445e-06 </wgt>
<wgt id='morphing_basis_vector_2'> +8.0007509e-07 </wgt>
<wgt id='morphing_basis_vector_3'> +1.2983152e-06 </wgt>
<wgt id='morphing_basis_vector_4'> +9.3981488e-07 </wgt>
<wgt id='morphing_basis_vector_5'> +1.4985041e-06 </wgt>
</rwgt>
</event>
<event>
 4      1 +9.0096000e-12 5.86935800e+03 7.81860800e-03 7.27631500e-02
        2 -1    0    0  501    0 +0.0000000000e+00 +0.0000000000e+00 +3.6962079617e+03 3.6962079617e+03 0.0000000000e+00 0.0000e+00 -1.0000e+00
       -2 -1    0    0    0  501 -0.0000000000e+00 -0.0000000000e+00 -2.3300474859e+03 2.3300474859e+03 0.0000000000e+00 0.0000e+00 1.0000e+00
      -13  1    1    2    0    0 -1.2414349038e+03 +2.6271111201e+03 +1.1057479064e+03 3.1089470710e+03 0.0000000000e+00 0.0000e+00 1.0000e+00
       13  1    1    2    0    0 +1.2414349038e+03 -2.6271111201e+03 +2.6041256943e+02 2.9173083766e+03 0.0000000000e+00 0.0000e+00 -1.0000e+00
<mgrwt>
<rscale>  0 0.58693577E+04</rscale>
<asrwt>0</asrwt>
<pdfrwt beam="1">  1        2 0.56864738E+00 0.58693577E+04</pdfrwt>
<pdfrwt beam="2">  1       -2 0.35846884E+00 0.58693577E+04</pdfrwt>
<totfact> 0.45504798E-03</totfact>
</mgrwt>
<rwgt>
<wgt id='morphing_basis_vector_1'> +1.5321358e-06 </wgt>
<wgt id='morphing_basis_vector_2'> +1.2378538e-06 </wgt>
<wgt id='morphing_basis_vector_3'> +1.7365017e-06 </wgt>
<wgt id='morphing_basis_vector_4'> +9.6876378e-07 </wgt>
<wgt id='morphing_basis_vector_5'> +1.8257049e-06 </wgt>
</rwgt>
</event>
<event>
 4      1 +9.0096000e-12 5.69141700e+03 7.81860800e-03 7.29683900e-02
        2 -1    0    0  501    0 +0.0000000000e+00 +0.0000000000e+00 +2.8069994124e+03 2.8069994124e+03 0.0000000000e+00 0.0000e+00 1.0000e+00
       -2 -1    0    0    0  501 -0.0000000000e+00 -0.0000000000e+00 -2.8849511909e+03 2.8849511909e+03 0.0000000000e+00 0.0000e+00 -1.0000e+00
      -13  1    1    2    0    0 +6.0792643118e+02 +2.1882520457e+03 +1.6758378789e+03 2.8224907719e+03 0.0000000000e+00 0.0000e+00 1.0000e+00
       13  1    1    2    0    0 -6.0792643118e+02 -2.1882520457e+03 -1.7537896573e+03 2.8694598313e+03 0.0000000000e+00 0.0000e+00 -1.0000e+00
<mgrwt>
<rscale>  0 0.56914168E+04</rscale>
<asrwt>0</asrwt>
<pdfrwt beam="1">  1        2 0.43184606E+00 0.56914168E+04</pdfrwt>
<pdfrwt beam="2">  1       -2 0.44383864E+00 0.56914168E+04</pdfrwt>
<totfact> 0.52401459E-03</totfact>
</mgrwt>
<rwgt>
<wgt id='morphing_basis_vector_1'> +1.5823370e-06 </wgt>
<wgt id='morphing_basis_vector_2'> +1.7619003e-06 </wgt>
<wgt id='morphing_basis_vector_3'> +1.9058369e-06 </wgt>
<wgt id='morphing_basis_vector_4'> +3.7051692e-07 </wgt>
<wgt id='morphing_basis_vector_5'> +1.5728838e-06 </wgt>
</rwgt>
</event>
<event>
 4      1 +9.0096000e-12 5.66696400e+03 7.81860800e-03 7.29971900e-02
        2 -1    0    0  501    0 +0.0000000000e+00 +0.0000000000e+00 +3.0735517469e+03 3.0735517469e+03 0.0000000000e+00 0.0000e+00 -1.0000e+00
       -2 -1    0    0    0  501 -0.0000000000e+00 -0.0000000000e+00 -2.6121640962e+03 2.6121640962e+03 0.0000000000e+00 0.0000e+00 1.0000e+00
      -13  1    1    2    0    0 +2.7846153550e+03 +4.0803239491e+02 -9.9101012368e+01 2.8160955455e+03 0.0000000000e+00 0.0000e+00 1.0000e+00
       13  1    1    2    0    0 -2.7846153550e+03 -4.0803239491e+02 +5.6048866312e+02 2.8696202976e+03 0.0000000000e+00 0.0000e+00 -1.0000e+00
<mgrwt>
<rscale>  0 0.56669645E+04</rscale>
<asrwt>0</asrwt>
<pdfrwt beam="1">  1        2 0.47285412E+00 0.56669645E+04</pdfrwt>
<pdfrwt beam="2">  1       -2 0.40187140E+00 0.56669645E+04</pdfrwt>
<totfact> 0.67406427E-03</totfact>
</mgrwt>
<rwgt>
<wgt id='morphing_basis_vector_1'> +1.2864124e-06 </wgt>
<wgt id='morphing_basis_vector_2'> +9.4227939e-07 </wgt>
<wgt id='morphing_basis_vector_3'> +1.4348040e-06 </wgt>
<wgt id='morphing_basis_vector_4'> +9.3892386e-07 </wgt>
<wgt id='morphing_basis_vector_5'> +1.5942644e-06 </wgt>
</rwgt>
</event>
<event>
 4      1 +9.0096000e-12 6.55406000e+03 7.81860800e-03 7.20373200e-02
        2 -1    0    0  501    0 +0.0000000000e+00 +0.0000000000e+00 +4.9234352003e+03 4.9234352003e+03 0.0000000000e+00 0.0000e+00 1.0000e+00
       -2 -1    0    0    0  501 -0.0000000000e+00 -0.0000000000e+00 -2.1811855366e+03 2.1811855366e+03 0.0000000000e+00 0.0000e+00 -1.0000e+00
      -13  1    1    2    0    0 +1.8153485521e+03 +9.9159947362e+01 +4.3266193308e+03 4.6930755262e+03 0.0000000000e+00 0.0000e+00 1.0000e+00
       13  1    1    2    0    0 -1.8153485521e+03 -9.9159947362e+01 -1.5843696672e+03 2.4115452107e+03 0.0000000000e+00 0.0000e+00 -1.0000e+00
<mgrwt>
<rscale>  0 0.65540600E+04</rscale>
<asrwt>0</asrwt>
<pdfrwt beam="1">  1        2 0.75745156E+00 0.65540600E+04</pdfrwt>
<pdfrwt beam="2">  1       -2 0.33556701E+00 0.65540600E+04</pdfrwt>
<totfact> 0.38240837E-04</totfact>
</mgrwt>
<rwgt>
<wgt id='morphing_basis_vector_1'> +3.0186255e-06 </wgt>
<wgt id='morphing_basis_vector_2'> +3.7979129e-06 </wgt>
<wgt id='morphing_basis_vector_3'> +3.7454500e-06 </wgt>
<wgt id='morphing_basis_vector_4'> +1.3935691e-07 </wgt>
<wgt id='morphing_basis_vector_5'> +2.7259586e-06 </wgt>
</rwgt>
</event>
<event>
 4      1 +9.0096000e-12 5.72186000e+03 7.81860800e-03 7.29327400e-02
        2 -1    0    0  501    0 +0.0000000000e+00 +0.0000000000e+00 +3.6582609225e+03 3.6582609225e+03 0.0000000000e+00 0.0000e+00 1.0000e+00
       -2 -1    0    0    0  501 -0.0000000000e+00 -0.0000000000e+00 -2.2373800663e+03 2.2373800663e+03 0.0000000000e+00 0.0000e+00 -1.0000e+00
      -13  1    1    2    0    0 -1.3495295045e+03 +1.6047381303e+03 +2.7159640704e+03 3.4311623660e+03 0.0000000000e+00 0.0000e+00 1.0000e+00
       13  1    1    2    0    0 +1.3495295045e+03 -1.6047381303e+03 -1.2950832142e+03 2.4644786227e+03 0.0000000000e+00 0.0000e+00 -1.0000e+00
<mgrwt>
<rscale>  0 0.57218599E+04</rscale>
<asrwt>0</asrwt>
<pdfrwt beam="1">  1        2 0.56280937E+00 0.57218599E+04</pdfrwt>
<pdfrwt beam="2">  1       -2 0.34421232E+00 0.57218599E+04</pdfrwt>
<totfact> 0.60860150E-03</totfact>
</mgrwt>
<rwgt>
<wgt id='morphing_basis_vector_1'> +1.6701670e-06 </wgt>
<wgt id='morphing_basis_vector_2'> +1.9577200e-06 </wgt>
<wgt id='morphing_basis_vector_3'> +2.0347003e-06 </wgt>
<wgt id='morphing_basis_vector_4'> +2.6356698e-07 </wgt>
<wgt id='morphing_basis_vector_5'> +1.5972240e-06 </wgt>
</rwgt>
</event>
<event>
 4      1 +9.0096000e-12 5.61695700e+03 7.81860800e-03 7.30565500e-02
        2 -1    0    0  501    0 +0.0000000000e+00 +0.0000000000e+00 +4.0378456625e+03 4.0378456625e+03 0.0000000000e+00 0.0000e+00 -1.0000e+00
       -2 -1    0    0    0  501 -0.0000000000e+00 -0.0000000000e+00 -1.9534061466e+03 1.9534061466e+03 0.0000000000e+00 0.0000e+00 1.0000e+00
      -13  1    1    2    0    0 -2.4448198865e+03 -9.8247363352e+02 +2.0791933379e+03 3.3564033808e+03 0.0000000000e+00 0.0000e+00 1.0000e+00
       13  1    1    2    0    0 +2.4448198865e+03 +9.8247363352e+02 +5.2461780375e+00 2.6348484284e+03 0.0000000000e+00 0.0000e+00 -1.0000e+00
<mgrwt>
<rscale>  0 0.56169574E+04</rscale>
<asrwt>0</asrwt>
<pdfrwt beam="1">  1        2 0.62120702E+00 0.56169574E+04</pdfrwt>
<pdfrwt beam="2">  1       -2 0.30052402E+00 0.56169574E+04</pdfrwt>
<totfact> 0.58732940E-03</totfact>
</mgrwt>
<rwgt>
<wgt id='morphing_basis_vector_1'> +1.3558490e-06 </wgt>
<wgt id='morphing_basis_vector_2'> +1.2445499e-06 </wgt>
<wgt id='morphing_basis_vector_3'> +1.5708178e-06 </wgt>
<wgt id='morphing_basis_vector_4'> +6.6230540e-07 </wgt>
<wgt id='morphing_basis_vector_5'> +1.5181091e-06 </wgt>
</rwgt>
</event>
<event>
 4      1 +9.0096000e-12 5.77572900e+03 7.81860800e-03 7.28702000e-02
        2 -1    0    0  501    0 +0.0000000000e+00 +0.0000000000e+00 +2.6195367280e+03 2.6195367280e+03 0.0000000000e+00 0.0000e+00 1.0000e+00
       -2 -1    0    0    0  501 -0.0000000000e+00 -0.0000000000e+00 -3.1836780046e+03 3.1836780046e+03 0.0000000000e+00 0.0000e+00 -1.0000e+00
      -13  1    1    2    0    0 +3.5544676141e+02 -1.8987643211e+03 -2.4389377895e+03 3.1112804259e+03 0.0000000000e+00 0.0000e+00 -1.0000e+00
       13  1    1    2    0    0 -3.5544676141e+02 +1.8987643211e+03 +1.8747965129e+03 2.6919343068e+03 0.0000000000e+00 0.0000e+00 1.0000e+00
<mgrwt>
<rscale>  0 0.57757290E+04</rscale>
<asrwt>0</asrwt>
<pdfrwt beam="1">  1        2 0.40300565E+00 0.57757290E+04</pdfrwt>
<pdfrwt beam="2">  1       -2 0.48979661E+00 0.57757290E+04</pdfrwt>
<totfact> 0.31689687E-03</totfact>
</mgrwt>
<rwgt>
<wgt id='morphing_basis_vector_1'> +1.3564746e-06 </wgt>
<wgt id='morphing_basis_vector_2'> +9.2472334e-07 </wgt>
<wgt id='morphing_basis_vector_3'> +1.4970990e-06 </wgt>
<wgt id='morphing_basis_vector_4'> +1.0802218e-06 </wgt>
<wgt id='morphing_basis_vector_5'> +1.7261677e-06 </wgt>
</rwgt>
</event>
<event>
 4      1 +9.0096000e-12 6.12972200e+03 7.81860800e-03 7.24758400e-02
        2 -1    0    0  501    0 +0.0000000000e+00 +0.0000000000e+00 +2.4743387041e+03 2.4743387041e+03 0.0000000000e+00 0.0000e+00 -1.0000e+00
       -2 -1    0    0    0  501 -0.0000000000e+00 -0.0000000000e+00 -3.7963162042e+03 3.7963162042e+03 0.0000000000e+00 0.0000e+00 1.0000e+00
      -13  1    1    2    0    0 -1.3204993542e+03 -3.9688115406e+02 -3.4610984920e+03 3.7256457113e+03 0.0000000000e+00 0.0000e+00 1.0000e+00
       13  1    1    2    0    0 +1.3204993542e+03 +3.9688115406e+02 +2.1391209919e+03 2.5450091970e+03 0.0000000000e+00 0.0000e+00 -1.0000e+00
<mgrwt>
<rscale>  0 0.61297217E+04</rscale>
<asrwt>0</asrwt>
<pdfrwt beam="1">  1        2 0.38066749E+00 0.61297217E+04</pdfrwt>
<pdfrwt beam="2">  1       -2 0.58404864E+00 0.61297217E+04</pdfrwt>
<totfact> 0.76143122E-04</totfact>
</mgrwt>
<rwgt>
<wgt id='morphing_basis_vector_1'> +1.7186213e-06 </wgt>
<wgt id='morphing_basis_vector_2'> +1.1690775e-06 </wgt>
<wgt id='morphing_basis_vector_3'> +1.8970863e-06 </wgt>
<wgt id='morphing_basis_vector_4'> +1.3738893e-06 </wgt>
<wgt id='morphing_basis_vector_5'> +2.1912720e-06 </wgt>
</rwgt>
</event>
<event>
 4      1 +9.0096000e-12 6.03020700e+03 7.81860800e-03 7.25839100e-02
        2 -1    0    0  501    0 +0.0000000000e+00 +0.0000000000e+00 +3.3442750633e+03 3.3442750633e+03 0.0000000000e+00 0.0000e+00 1.0000e+00
       -2 -1    0    0    0  501 -0.0000000000e+00 -0.0000000000e+00 -2.7183318026e+03 2.7183318026e+03 0.0000000000e+00 0.0000e+00 -1.0000e+00
      -13  1    1    2    0    0 -2.0688450815e+03 +1.9048027321e+03 -7.8027877912e+02 2.9184290967e+03 0.0000000000e+00 0.0000e+00 -1.0000e+00
       13  1    1    2    0    0 +2.0688450815e+03 -1.9048027321e+03 +1.4062220398e+03 3.1441777693e+03 0.0000000000e+00 0.0000e+00 1.0000e+00
<mgrwt>
<rscale>  0 0.60302070E+04</rscale>
<asrwt>0</asrwt>
<pdfrwt beam="1">  1        2 0.51450386E+00 0.60302070E+04</pdfrwt>
<pdfrwt beam="2">  1       -2 0.41820489E+00 0.60302070E+04</pdfrwt>
<totfact> 0.33463526E-03</totfact>
</mgrwt>
<rwgt>
<wgt id='morphing_basis_vector_1'> +1.6239125e-06 </wgt>
<wgt id='morphing_basis_vector_2'> +1.1360654e-06 </wgt>
<wgt id='morphing_basis_vector_3'> +1.7996962e-06 </wgt>
<wgt id='morphing_basis_vector_4'> +1.2567481e-06 </wgt>
<wgt id='morphing_basis_vector_5'> +2.0495981e-06 </wgt>
</rwgt>
</event>
<event>
 4      1 +9.0096000e-12 5.78957300e+03 7.81860800e-03 7.28542400e-02
        2 -1    0    0  501    0 +0.0000000000e+00 +0.0000000000e+00 +1.8669179176e+03 1.8669179176e+03 0.0000000000e+00 0.0000e+00 1.0000e+00
       -2 -1    0    0    0  501 -0.0000000000e+00 -0.0000000000e+00 -4.4885692027e+03 4.4885692027e+03 0.0000000000e+00 0.0000e+00 -1.0000e+00
      -13  1    1    2    0    0 +1.4136591788e+03 +1.4189960485e+03 -3.6050403144e+03 4.1241117502e+03 0.0000000000e+00 0.0000e+00 -1.0000e+00
       13  1    1    2    0    0 -1.4136591788e+03 -1.4189960485e+03 +9.8338902932e+02 2.2313753701e+03 0.0000000000e+00 0.0000e+00 1.0000e+00
<mgrwt>
<rscale>  0 0.57895735E+04</rscale>
<asrwt>0</asrwt>
<pdfrwt beam="1">  1        2 0.28721814E+00 0.57895735E+04</pdfrwt>
<pdfrwt beam="2">  1       -2 0.69054910E+00 0.57895735E+04</pdfrwt>
<totfact> 0.12744449E-04</totfact>
</mgrwt>
<rwgt>
<wgt id='morphing_basis_vector_1'> +1.3697397e-06 </wgt>
<wgt id='morphing_basis_vector_2'> +9.3433070e-07 </wgt>
<wgt id='morphing_basis_vector_3'> +1.5119015e-06 </wgt>
<wgt id='morphing_basis_vector_4'> +1.0901177e-06 </wgt>
<wgt id='morphing_basis_vector_5'> +1.7427735e-06 </wgt>
</rwgt>
</event>
<event>
 4      1 +9.0096000e-12 6.31436200e+03 7.81860800e-03 7.22807400e-02
        2 -1    0    0  501    0 +0.0000000000e+00 +0.0000000000e+00 +2.8784949429e+03 2.8784949429e+03 0.0000000000e+00 0.0000e+00 -1.0000e+00
       -2 -1    0    0    0  501 -0.0000000000e+00 -0.0000000000e+00 -3.4628484568e+03 3.4628484568e+03 0.0000000000e+00 0.0000e+00 1.0000e+00
      -13  1    1    2    0    0 +2.6488237212e+03 -3.6430850191e+02 -1.9782802802e+03 3.3260457991e+03 0.0000000000e+00 0.0000e+00 1.0000e+00
       13  1    1    2    0    0 -2.6488237212e+03 +3.6430850191e+02 +1.3939267663e+03 3.0152976006e+03 0.0000000000e+00 0.0000e+00 -1.0000e+00
<mgrwt>
<rscale>  0 0.63143620E+04</rscale>
<asrwt>0</asrwt>
<pdfrwt beam="1">  1        2 0.44284538E+00 0.63143620E+04</pdfrwt>
<pdfrwt beam="2">  1       -2 0.53274592E+00 0.63143620E+04</pdfrwt>
<totfact> 0.10058588E-03</totfact>
</mgrwt>
<rwgt>
<wgt id='morphing_basis_vector_1'> +1.9418145e-06 </wgt>
<wgt id='morphing_basis_vector_2'> +1.3370267e-06 </wgt>
<wgt id='morphing_basis_vector_3'> +2.1477115e-06 </wgt>
<wgt id='morphing_basis_vector_4'> +1.5323060e-06 </wgt>
<wgt id='morphing_basis_vector_5'> +2.4667927e-06 </wgt>
</rwgt>
</event>
<event>
 4      1 +9.0096000e-12 5.81367200e+03 7.81860800e-03 7.28265700e-02
        2 -1    0    0  501    0 +0.0000000000e+00 +0.0000000000e+00 +2.8641098446e+03 2.8641098446e+03 0.0000000000e+00 0.0000e+00 -1.0000e+00
       -2 -1    0    0    0  501 -0.0000000000e+00 -0.0000000000e+00 -2.9501998600e+03 2.9501998600e+03 0.0000000000e+00 0.0000e+00 1.0000e+00
      -13  1    1    2    0    0 +2.1948099863e+03 +2.7880068836e+02 -1.9286630135e+03 2.9350743976e+03 0.0000000000e+00 0.0000e+00 1.0000e+00
       13  1    1    2    0    0 -2.1948099863e+03 -2.7880068836e+02 +1.8425729981e+03 2.8792353070e+03 0.0000000000e+00 0.0000e+00 -1.0000e+00
<mgrwt>
<rscale>  0 0.58136723E+04</rscale>
<asrwt>0</asrwt>
<pdfrwt beam="1">  1        2 0.44063228E+00 0.58136723E+04</pdfrwt>
<pdfrwt beam="2">  1       -2 0.45387690E+00 0.58136723E+04</pdfrwt>
<totfact> 0.40688160E-03</totfact>
</mgrwt>
<rwgt>
<wgt id='morphing_basis_vector_1'> +1.3937240e-06 </wgt>
<wgt id='morphing_basis_vector_2'> +9.5317532e-07 </wgt>
<wgt id='morphing_basis_vector_3'> +1.5390099e-06 </wgt>
<wgt id='morphing_basis_vector_4'> +1.1060890e-06 </wgt>
<wgt id='morphing_basis_vector_5'> +1.7718450e-06 </wgt>
</rwgt>
</event>
<event>
 4      1 +9.0096000e-12 5.80693600e+03 7.81860800e-03 7.28342900e-02
        2 -1    0    0  501    0 +0.0000000000e+00 +0.0000000000e+00 +4.2209570418e+03 4.2209570418e+03 0.0000000000e+00 0.0000e+00 -1.0000e+00
       -2 -1    0    0    0  501 -0.0000000000e+00 -0.0000000000e+00 -1.9972072846e+03 1.9972072846e+03 0.0000000000e+00 0.0000e+00 1.0000e+00
      -13  1    1    2    0    0 -1.6040825858e+03 +7.1628586162e+02 -1.3635375395e+03 2.2238212607e+03 0.0000000000e+00 0.0000e+00 1.0000e+00
       13  1    1    2    0    0 +1.6040825858e+03 -7.1628586162e+02 +3.5872872966e+03 3.9943430657e+03 0.0000000000e+00 0.0000e+00 -1.0000e+00
<mgrwt>
<rscale>  0 0.58069359E+04</rscale>
<asrwt>0</asrwt>
<pdfrwt beam="1">  1        2 0.64937801E+00 0.58069359E+04</pdfrwt>
<pdfrwt beam="2">  1       -2 0.30726266E+00 0.58069359E+04</pdfrwt>
<totfact> 0.35797822E-03</totfact>
</mgrwt>
<rwgt>
<wgt id='morphing_basis_vector_1'> +1.3854603e-06 </wgt>
<wgt id='morphing_basis_vector_2'> +9.4339512e-07 </wgt>
<wgt id='morphing_basis_vector_3'> +1.5289035e-06 </wgt>
<wgt id='morphing_basis_vector_4'> +1.1048736e-06 </wgt>
<wgt id='morphing_basis_vector_5'> +1.7639568e-06 </wgt>
</rwgt>
</event>
<event>
 4      1 +9.0096000e-12 6.20039500e+03 7.81860800e-03 7.24003500e-02
        2 -1    0    0  501    0 +0.0000000000e+00 +0.0000000000e+00 +2.8328716974e+03 2.8328716974e+03 0.0000000000e+00 0.0000e+00 -1.0000e+00
       -2 -1    0    0    0  501 -0.0000000000e+00 -0.0000000000e+00 -3.3927493332e+03 3.3927493332e+03 0.0000000000e+00 0.0000e+00 1.0000e+00
      -13  1    1    2    0    0 -2.8175752081e+03 +1.2932062989e+03 -2.9051626279e+02 3.1137617577e+03 0.0000000000e+00 0.0000e+00 1.0000e+00
       13  1    1    2    0    0 +2.8175752081e+03 -1.2932062989e+03 -2.6936137301e+02 3.1118592728e+03 0.0000000000e+00 0.0000e+00 -1.0000e+00
<mgrwt>
<rscale>  0 0.62003947E+04</rscale>
<asrwt>0</asrwt>
<pdfrwt beam="1">  1        2 0.43582641E+00 0.62003947E+04</pdfrwt>
<pdfrwt beam="2">  1       -2 0.52196144E+00 0.62003947E+04</pdfrwt>
<totfact> 0.13018325E-03</totfact>
</mgrwt>
<rwgt>
<wgt id='morphing_basis_vector_1'> +1.8642832e-06 </wgt>
<wgt id='morphing_basis_vector_2'> +1.4152436e-06 </wgt>
<wgt id='morphing_basis_vector_3'> +2.0926432e-06 </wgt>
<wgt id='morphing_basis_vector_4'> +1.2989389e-06 </wgt>
<wgt id='morphing_basis_vector_5'> +2.2825664e-06 </wgt>
</rwgt>
</event>
<event>
 4      1 +9.0096000e-12 5.61228400e+03 7.81860800e-03 7.30621300e-02
        2 -1    0    0  501    0 +0.0000000000e+00 +0.0000000000e+00 +2.4001367722e+03 2.4001367722e+03 0.0000000000e+00 0.0000e+00 -1.0000e+00
       -2 -1    0    0    0  501 -0.0000000000e+00 -0.0000000000e+00 -3.2808268537e+03 3.2808268537e+03 0.0000000000e+00 0.0000e+00 1.0000e+00
      -13  1    1    2    0    0 +8.5742369219e+02 +2.6719044961e+03 -4.5408132099e+02 2.8426112766e+03 0.0000000000e+00 0.0000e+00 1.0000e+00
       13  1    1    2    0    0 -8.5742369219e+02 -2.6719044961e+03 -4.2660876057e+02 2.8383523493e+03 0.0000000000e+00 0.0000e+00 -1.0000e+00
<mgrwt>
<rscale>  0 0.56122841E+04</rscale>
<asrwt>0</asrwt>
<pdfrwt beam="1">  1        2 0.36925181E+00 0.56122841E+04</pdfrwt>
<pdfrwt beam="2">  1       -2 0.50474259E+00 0.56122841E+04</pdfrwt>
<totfact> 0.33515166E-03</totfact>
</mgrwt>
<rwgt>
<wgt id='morphing_basis_vector_1'> +1.2523373e-06 </wgt>
<wgt id='morphing_basis_vector_2'> +9.4974015e-07 </wgt>
<wgt id='morphing_basis_vector_3'> +1.4042371e-06 </wgt>
<wgt id='morphing_basis_vector_4'> +8.7163727e-07 </wgt>
<wgt id='morphing_basis_vector_5'> +1.5308246e-06 </wgt>
</rwgt>
</event>
<event>
 4      1 +9.0096000e-12 5.63111700e+03 7.81860800e-03 7.30396800e-02
        2 -1    0    0  501    0 +0.0000000000e+00 +0.0000000000e+00 +3.5104348133e+03 3.5104348133e+03 0.0000000000e+00 0.0000e+00 -1.0000e+00
       -2 -1    0    0    0  501 -0.0000000000e+00 -0.0000000000e+00 -2.2582301845e+03 2.2582301845e+03 0.0000000000e+00 0.0000e+00 1.0000e+00
      -13  1    1    2    0    0 +2.6105150433e+03 -7.2109578152e+02 -1.6250771657e+02 2.7131488487e+03 0.0000000000e+00 0.0000e+00 1.0000e+00
       13  1    1    2    0    0 -2.6105150433e+03 +7.2109578152e+02 +1.4147123453e+03 3.0555161491e+03 0.0000000000e+00 0.0000e+00 -1.0000e+00
<mgrwt>
<rscale>  0 0.56311171E+04</rscale>
<asrwt>0</asrwt>
<pdfrwt beam="1">  1        2 0.54006690E+00 0.56311171E+04</pdfrwt>
<pdfrwt beam="2">  1       -2 0.34742003E+00 0.56311171E+04</pdfrwt>
<totfact> 0.75444651E-03</totfact>
</mgrwt>
<rwgt>
<wgt id='morphing_basis_vector_1'> +1.2406060e-06 </wgt>
<wgt id='morphing_basis_vector_2'> +8.7863002e-07 </wgt>
<wgt id='morphing_basis_vector_3'> +1.3766018e-06 </wgt>
<wgt id='morphing_basis_vector_4'> +9.4449068e-07 </wgt>
<wgt id='morphing_basis_vector_5'> +1.5566588e-06 </wgt>
</rwgt>
</event>
<event>
 4      1 +9.0096000e-12 5.67889000e+03 7.81860800e-03 7.29831200e-02
        2 -1    0    0  501    0 +0.0000000000e+00 +0.0000000000e+00 +2.6355599272e+03 2.6355599272e+03 0.0000000000e+00 0.0000e+00 1.0000e+00
       -2 -1    0    0    0  501 -0.0000000000e+00 -0.0000000000e+00 -3.0591027364e+03 3.0591027364e+03 0.0000000000e+00 0.0000e+00 -1.0000e+00
      -13  1    1    2    0    0 +5.7879732800e+02 +1.4984453084e+03 -2.5596636368e+03 3.0219567540e+03 0.0000000000e+00 0.0000e+00 -1.0000e+00
       13  1    1    2    0    0 -5.7879732800e+02 -1.4984453084e+03 +2.1361208277e+03 2.6727059096e+03 0.0000000000e+00 0.0000e+00 1.0000e+00
<mgrwt>
<rscale>  0 0.56788902E+04</rscale>
<asrwt>0</asrwt>
<pdfrwt beam="1">  1        2 0.40547076E+00 0.56788902E+04</pdfrwt>
<pdfrwt beam="2">  1       -2 0.47063119E+00 0.56788902E+04</pdfrwt>
<totfact> 0.43244749E-03</totfact>
</mgrwt>
<rwgt>
<wgt id='morphing_basis_vector_1'> +1.2673371e-06 </wgt>
<wgt id='morphing_basis_vector_2'> +8.6242233e-07 </wgt>
<wgt id='morphing_basis_vector_3'> +1.3981605e-06 </wgt>
<wgt id='morphing_basis_vector_4'> +1.0107873e-06 </wgt>
<wgt id='morphing_basis_vector_5'> +1.6131314e-06 </wgt>
</rwgt>
</event>
<event>
 4      1 +9.0096000e-12 6.27295800e+03 7.81860800e-03 7.23238900e-02
        2 -1    0    0  501    0 +0.0000000000e+00 +0.0000000000e+00 +3.4571026642e+03 3.4571026642e+03 0.0000000000e+00 0.0000e+00 -1.0000e+00
       -2 -1    0    0    0  501 -0.0000000000e+00 -0.0000000000e+00 -2.8455910720e+03 2.8455910720e+03 0.0000000000e+00 0.0000e+00 1.0000e+00
      -13  1    1    2    0    0 +9.5673686876e+02 -2.2546706753e+03 -1.6627700163e+03 2.9603529210e+03 0.0000000000e+00 0.0000e+00 1.0000e+00
       13  1    1    2    0    0 -9.5673686876e+02 +2.2546706753e+03 +2.2742816085e+03 3.3423408151e+03 0.0000000000e+00 0.0000e+00 -1.0000e+00
<mgrwt>
<rscale>  0 0.62729580E+04</rscale>
<asrwt>0</asrwt>
<pdfrwt beam="1">  1        2 0.53186195E+00 0.62729580E+04</pdfrwt>
<pdfrwt beam="2">  1       -2 0.43778324E+00 0.62729580E+04</pdfrwt>
<totfact> 0.20171322E-03</totfact>
</mgrwt>
<rwgt>
<wgt id='morphing_basis_vector_1'> +1.8884490e-06 </wgt>
<wgt id='morphing_basis_vector_2'> +1.2934178e-06 </wgt>
<wgt id='morphing_basis_vector_3'> +2.0869734e-06 </wgt>
<wgt id='morphing_basis_vector_4'> +1.4989342e-06 </wgt>
<wgt id='morphing_basis_vector_5'> +2.4031470e-06 </wgt>
</rwgt>
</event>
<event>
 4      1 +9.0096000e-12 6.62921600e+03 7.81860800e-03 7.19631600e-02
        2 -1    0    0  501    0 +0.0000000000e+00 +0.0000000000e+00 +3.3882836883e+03 3.3882836883e+03 0.0000000000e+00 0.0000e+00 1.0000e+00
       -2 -1    0    0    0  501 -0.0000000000e+00 -0.0000000000e+00 -3.2425341600e+03 3.2425341600e+03 0.0000000000e+00 0.0000e+00 -1.0000e+00
      -13  1    1    2    0    0 -2.7296896426e+03 +1.0243896356e+03 -1.5042262603e+03 3.2807432561e+03 0.0000000000e+00 0.0000e+00 -1.0000e+00
       13  1    1    2    0    0 +2.7296896426e+03 -1.0243896356e+03 +1.6499757886e+03 3.3500745922e+03 0.0000000000e+00 0.0000e+00 1.0000e+00
<mgrwt>
<rscale>  0 0.66292158E+04</rscale>
<asrwt>0</asrwt>
<pdfrwt beam="1">  1        2 0.52127441E+00 0.66292158E+04</pdfrwt>
<pdfrwt beam="2">  1       -2 0.49885141E+00 0.66292158E+04</pdfrwt>
<totfact> 0.79815835E-04</totfact>
</mgrwt>
<rwgt>
<wgt id='morphing_basis_vector_1'> +2.3612312e-06 </wgt>
<wgt id='morphing_basis_vector_2'> +1.6330943e-06 </wgt>
<wgt id='morphing_basis_vector_3'> +2.6141784e-06 </wgt>
<wgt id='morphing_basis_vector_4'> +1.8556351e-06 </wgt>
<wgt id='morphing_basis_vector_5'> +2.9973867e-06 </wgt>
</rwgt>
</event>
<event>
 4      1 +9.0096000e-12 5.55548100e+03 7.81860800e-03 7.31304000e-02
        2 -1    0    0  501    0 +0.0000000000e+00 +0.0000000000e+00 +3.4949480919e+03 3.4949480919e+03 0.0000000000e+00 0.0000e+00 1.0000e+00
       -2 -1    0    0    0  501 -0.0000000000e+00 -0.0000000000e+00 -2.2077130144e+03 2.2077130144e+03 0.0000000000e+00 0.0000e+00 -1.0000e+00
      -13  1    1    2    0    0 +7.8023102571e+02 -3.0199383418e+02 -2.0753061676e+03 2.2376005940e+03 0.0000000000e+00 0.0000e+00 -1.0000e+00
       13  1    1    2    0    0 -7.8023102571e+02 +3.0199383418e+02 +3.3625412450e+03 3.4650605123e+03 0.0000000000e+00 0.0000e+00 1.0000e+00
<mgrwt>
<rscale>  0 0.55554810E+04</rscale>
<asrwt>0</asrwt>
<pdfrwt beam="1">  1        2 0.53768432E+00 0.55554810E+04</pdfrwt>
<pdfrwt beam="2">  1       -2 0.33964816E+00 0.55554810E+04</pdfrwt>
<totfact> 0.87515553E-03</totfact>
</mgrwt>
<rwgt>
<wgt id='morphing_basis_vector_1'> +1.1605680e-06 </wgt>
<wgt id='morphing_basis_vector_2'> +7.8872893e-07 </wgt>
<wgt id='morphing_basis_vector_3'> +1.2798795e-06 </wgt>
<wgt id='morphing_basis_vector_4'> +9.2642593e-07 </wgt>
<wgt id='morphing_basis_vector_5'> +1.4771628e-06 </wgt>
</rwgt>
</event>
<event>
 4      1 +9.0096000e-12 6.33207100e+03 7.81860800e-03 7.22623800e-02
        2 -1    0    0  501    0 +0.0000000000e+00 +0.0000000000e+00 +4.9069510252e+03 4.9069510252e+03 0.0000000000e+00 0.0000e+00 1.0000e+00
       -2 -1    0    0    0  501 -0.0000000000e+00 -0.0000000000e+00 -2.0427715237e+03 2.0427715237e+03 0.0000000000e+00 0.0000e+00 -1.0000e+00
      -13  1    1    2    0    0 -2.2068082620e+03 +2.2484589002e+03 +1.0881369218e+03 3.3331084728e+03 0.0000000000e+00 0.0000e+00 -1.0000e+00
       13  1    1    2    0    0 +2.2068082620e+03 -2.2484589002e+03 +1.7760425796e+03 3.6166140761e+03 0.0000000000e+00 0.0000e+00 1.0000e+00
<mgrwt>
<rscale>  0 0.63320707E+04</rscale>
<asrwt>0</asrwt>
<pdfrwt beam="1">  1        2 0.75491554E+00 0.63320707E+04</pdfrwt>
<pdfrwt beam="2">  1       -2 0.31427254E+00 0.63320707E+04</pdfrwt>
<totfact> 0.56452219E-04</totfact>
</mgrwt>
<rwgt>
<wgt id='morphing_basis_vector_1'> +2.0062995e-06 </wgt>
<wgt id='morphing_basis_vector_2'> +1.4772617e-06 </wgt>
<wgt id='morphing_basis_vector_3'> +2.2416516e-06 </wgt>
<wgt id='morphing_basis_vector_4'> +1.4582728e-06 </wgt>
<wgt id='morphing_basis_vector_5'> +2.4869494e-06 </wgt>
</rwgt>
</event>
<event>
 4      1 +9.0096000e-12 6.17425400e+03 7.81860800e-03 7.24281500e-02
        2 -1    0    0  501    0 +0.0000000000e+00 +0.0000000000e+00 +2.7845366503e+03 2.7845366503e+03 0.0000000000e+00 0.0000e+00 -1.0000e+00
       -2 -1    0    0    0  501 -0.0000000000e+00 -0.0000000000e+00 -3.4225991542e+03 3.4225991542e+03 0.0000000000e+00 0.0000e+00 1.0000e+00
      -13  1    1    2    0    0 -2.8436845294e+03 +1.1173732064e+03 +1.2523647259e+02 3.0578994030e+03 0.0000000000e+00 0.0000e+00 1.0000e+00
       13  1    1    2    0    0 +2.8436845294e+03 -1.1173732064e+03 -7.6329897650e+02 3.1492364015e+03 0.0000000000e+00 0.0000e+00 -1.0000e+00
<mgrwt>
<rscale>  0 0.61742539E+04</rscale>
<asrwt>0</asrwt>
<pdfrwt beam="1">  1        2 0.42839026E+00 0.61742539E+04</pdfrwt>
<pdfrwt beam="2">  1       -2 0.52655371E+00 0.61742539E+04</pdfrwt>
<totfact> 0.12939121E-03</totfact>
</mgrwt>
<rwgt>
<wgt id='morphing_basis_vector_1'> +1.8763697e-06 </wgt>
<wgt id='morphing_basis_vector_2'> +1.5185237e-06 </wgt>
<wgt id='morphing_basis_vector_3'> +2.1282653e-06 </wgt>
<wgt id='morphing_basis_vector_4'> +1.1845409e-06 </wgt>
<wgt id='morphing_basis_vector_5'> +2.2364473e-06 </wgt>
</rwgt>
</event>
<event>
 4      1 +9.0096000e-12 6.46835600e+03 7.81860800e-03 7.21231200e-02
        2 -1    0    0  501    0 +0.0000000000e+00 +0.0000000000e+00 +3.7607413952e+03 3.7607413952e+03 0.0000000000e+00 0.0000e+00 -1.0000e+00
       -2 -1    0    0    0  501 -0.0000000000e+00 -0.0000000000e+00 -2.7813417285e+03 2.7813417285e+03 0.0000000000e+00 0.0000e+00 1.0000e+00
      -13  1    1    2    0    0 +2.0159355718e+03 +1.6214228734e+03 -1.4732722200e+03 2.9771696959e+03 0.0000000000e+00 0.0000e+00 1.0000e+00
       13  1    1    2    0    0 -2.0159355718e+03 -1.6214228734e+03 +2.4526718866e+03 3.5649134278e+03 0.0000000000e+00 0.0000e+00 -1.0000e+00
<mgrwt>
<rscale>  0 0.64683559E+04</rscale>
<asrwt>0</asrwt>
<pdfrwt beam="1">  1        2 0.57857560E+00 0.64683559E+04</pdfrwt>
<pdfrwt beam="2">  1       -2 0.42789873E+00 0.64683559E+04</pdfrwt>
<totfact> 0.13662705E-03</totfact>
</mgrwt>
<rwgt>
<wgt id='morphing_basis_vector_1'> +2.1352182e-06 </wgt>
<wgt id='morphing_basis_vector_2'> +1.4644092e-06 </wgt>
<wgt id='morphing_basis_vector_3'> +2.3606517e-06 </wgt>
<wgt id='morphing_basis_vector_4'> +1.6933291e-06 </wgt>
<wgt id='morphing_basis_vector_5'> +2.7173645e-06 </wgt>
</rwgt>
</event>
<event>
 4      1 +9.0096000e-12 6.52301600e+03 7.81860800e-03 7.20682500e-02
        2 -1    0    0  501    0 +0.0000000000e+00 +0.0000000000e+00 +2.6414059419e+03 2.6414059419e+03 0.0000000000e+00 0.0000e+00 -1.0000e+00
       -2 -1    0    0    0  501 -0.0000000000e+00 -0.0000000000e+00 -4.0271869313e+03 4.0271869313e+03 0.0000000000e+00 0.0000e+00 1.0000e+00
      -13  1    1    2    0    0 -2.2281619604e+03 -1.1373072931e+03 +1.4464809633e+03 2.8897198442e+03 0.0000000000e+00 0.0000e+00 1.0000e+00
       13  1    1    2    0    0 +2.2281619604e+03 +1.1373072931e+03 -2.8322619526e+03 3.7788730290e+03 0.0000000000e+00 0.0000e+00 -1.0000e+00
<mgrwt>
<rscale>  0 0.65230163E+04</rscale>
<asrwt>0</asrwt>
<pdfrwt beam="1">  1        2 0.40637015E+00 0.65230163E+04</pdfrwt>
<pdfrwt beam="2">  1       -2 0.61956722E+00 0.65230163E+04</pdfrwt>
<totfact> 0.26324172E-04</totfact>
</mgrwt>
<rwgt>
<wgt id='morphing_basis_vector_1'> +2.7731237e-06 </wgt>
<wgt id='morphing_basis_vector_2'> +3.1724564e-06 </wgt>
<wgt id='morphing_basis_vector_3'> +3.3659213e-06 </wgt>
<wgt id='morphing_basis_vector_4'> +5.4121111e-07 </wgt>
<wgt id='morphing_basis_vector_5'> +2.7086534e-06 </wgt>
</rwgt>
</event>
<event>
 4      1 +9.0096000e-12 6.56359900e+03 7.81860800e-03 7.20278500e-02
        2 -1    0    0  501    0 +0.0000000000e+00 +0.0000000000e+00 +3.1505327685e+03 3.1505327685e+03 0.0000000000e+00 0.0000e+00 1.0000e+00
       -2 -1    0    0    0  501 -0.0000000000e+00 -0.0000000000e+00 -3.4185358263e+03 3.4185358263e+03 0.0000000000e+00 0.0000e+00 -1.0000e+00
      -13  1    1    2    0    0 -9.8567294835e+02 +2.6465543320e+03 +1.5390397340e+03 3.2162780191e+03 0.0000000000e+00 0.0000e+00 1.0000e+00
       13  1    1    2    0    0 +9.8567294835e+02 -2.6465543320e+03 -1.8070427918e+03 3.3527905757e+03 0.0000000000e+00 0.0000e+00 -1.0000e+00
<mgrwt>
<rscale>  0 0.65635994E+04</rscale>
<asrwt>0</asrwt>
<pdfrwt beam="1">  1        2 0.48469735E+00 0.65635994E+04</pdfrwt>
<pdfrwt beam="2">  1       -2 0.52592859E+00 0.65635994E+04</pdfrwt>
<totfact> 0.73623572E-04</totfact>
</mgrwt>
<rwgt>
<wgt id='morphing_basis_vector_1'> +2.6854768e-06 </wgt>
<wgt id='morphing_basis_vector_2'> +2.7907789e-06 </wgt>
<wgt id='morphing_basis_vector_3'> +3.1933333e-06 </wgt>
<wgt id='morphing_basis_vector_4'> +8.9153538e-07 </wgt>
<wgt id='morphing_basis_vector_5'> +2.8051683e-06 </wgt>
</rwgt>
</event>
<event>
 4      1 +9.0096000e-12 5.56017400e+03 7.81860800e-03 7.31247300e-02
        2 -1    0    0  501    0 +0.0000000000e+00 +0.0000000000e+00 +2.8573081654e+03 2.8573081654e+03 0.0000000000e+00 0.0000e+00 1.0000e+00
       -2 -1    0    0    0  501 -0.0000000000e+00 -0.0000000000e+00 -2.7049529964e+03 2.7049529964e+03 0.0000000000e+00 0.0000e+00 -1.0000e+00
      -13  1    1    2    0    0 +1.7235350107e+03 -1.2959775058e+03 -1.6791187591e+03 2.7330514880e+03 0.0000000000e+00 0.0000e+00 -1.0000e+00
       13  1    1    2    0    0 -1.7235350107e+03 +1.2959775058e+03 +1.8314739282e+03 2.8292096738e+03 0.0000000000e+00 0.0000e+00 1.0000e+00
<mgrwt>
<rscale>  0 0.55601742E+04</rscale>
<asrwt>0</asrwt>
<pdfrwt beam="1">  1        2 0.43958587E+00 0.55601742E+04</pdfrwt>
<pdfrwt beam="2">  1       -2 0.41614662E+00 0.55601742E+04</pdfrwt>
<totfact> 0.75566939E-03</totfact>
</mgrwt>
<rwgt>
<wgt id='morphing_basis_vector_1'> +1.1668774e-06 </wgt>
<wgt id='morphing_basis_vector_2'> +7.9842065e-07 </wgt>
<wgt id='morphing_basis_vector_3'> +1.2881079e-06 </wgt>
<wgt id='morphing_basis_vector_4'> +9.2445639e-07 </wgt>
<wgt id='morphing_basis_vector_5'> +1.4817440e-06 </wgt>
</rwgt>
</event>
<event>
 4      1 +9.0096000e-12 5.75723200e+03 7.81860800e-03 7.28916000e-02
        2 -1    0    0  501    0 +0.0000000000e+00 +0.0000000000e+00 +3.5524754749e+03 3.5524754749e+03 0.0000000000e+00 0.0000e+00 -1.0000e+00
       -2 -1    0    0    0  501 -0.0000000000e+00 -0.0000000000e+00 -2.3325790773e+03 2.3325790773e+03 0.0000000000e+00 0.0000e+00 1.0000e+00
      -13  1    1    2    0    0 +1.4213129660e+03 -2.2430149405e+03 -5.2611498900e+02 2.7070359348e+03 0.0000000000e+00 0.0000e+00 1.0000e+00
       13  1    1    2    0    0 -1.4213129660e+03 +2.2430149405e+03 +1.7460113866e+03 3.1780186174e+03 0.0000000000e+00 0.0000e+00 -1.0000e+00
<mgrwt>
<rscale>  0 0.57572320E+04</rscale>
<asrwt>0</asrwt>
<pdfrwt beam="1">  1        2 0.54653468E+00 0.57572320E+04</pdfrwt>
<pdfrwt beam="2">  1       -2 0.35885832E+00 0.57572320E+04</pdfrwt>
<totfact> 0.58680791E-03</totfact>
</mgrwt>
<rwgt>
<wgt id='morphing_basis_vector_1'> +1.3485433e-06 </wgt>
<wgt id='morphing_basis_vector_2'> +9.4030295e-07 </wgt>
<wgt id='morphing_basis_vector_3'> +1.4932148e-06 </wgt>
<wgt id='morphing_basis_vector_4'> +1.0464980e-06 </wgt>
<wgt id='morphing_basis_vector_5'> +1.7024346e-06 </wgt>
</rwgt>
</event>
<event>
 4      1 +9.0096000e-12 6.38284700e+03 7.81860800e-03 7.22100900e-02
        2 -1    0    0  501    0 +0.0000000000e+00 +0.0000000000e+00 +3.1095921175e+03 3.1095921175e+03 0.0000000000e+00 0.0000e+00 1.0000e+00
       -2 -1    0    0    0  501 -0.0000000000e+00 -0.0000000000e+00 -3.2754080205e+03 3.2754080205e+03 0.0000000000e+00 0.0000e+00 -1.0000e+00
      -13  1    1    2    0    0 -4.8893007374e+02 -1.0456016988e+03 -3.0592852798e+03 3.2697953992e+03 0.0000000000e+00 0.0000e+00 -1.0000e+00
       13  1    1    2    0    0 +4.8893007374e+02 +1.0456016988e+03 +2.8934693768e+03 3.1152047387e+03 0.0000000000e+00 0.0000e+00 1.0000e+00
<mgrwt>
<rscale>  0 0.63828467E+04</rscale>
<asrwt>0</asrwt>
<pdfrwt beam="1">  1        2 0.47839879E+00 0.63828467E+04</pdfrwt>
<pdfrwt beam="2">  1       -2 0.50390893E+00 0.63828467E+04</pdfrwt>
<totfact> 0.11586464E-03</totfact>
</mgrwt>
<rwgt>
<wgt id='morphing_basis_vector_1'> +2.0197245e-06 </wgt>
<wgt id='morphing_basis_vector_2'> +1.3738200e-06 </wgt>
<wgt id='morphing_basis_vector_3'> +2.2300801e-06 </wgt>
<wgt id='morphing_basis_vector_4'> +1.6161391e-06 </wgt>
<wgt id='morphing_basis_vector_5'> +2.5771409e-06 </wgt>
</rwgt>
</event>
<event>
 4      1 +9.0096000e-12 6.43961400e+03 7.81860800e-03 7.21522000e-02
        2 -1    0    0  501    0 +0.0000000000e+00 +0.0000000000e+00 +3.6594954689e+03 3.6594954689e+03 0.0000000000e+00 0.0000e+00 -1.0000e+00
       -2 -1    0    0    0  501 -0.0000000000e+00 -0.0000000000e+00 -2.8329468226e+03 2.8329468226e+03 0.0000000000e+00 0.0000e+00 1.0000e+00
      -13  1    1    2    0    0 +3.0084929767e+03 -4.8835926942e+02 -6.3333206611e+02 3.1129783605e+03 0.0000000000e+00 0.0000e+00 1.0000e+00
       13  1    1    2    0    0 -3.0084929767e+03 +4.8835926942e+02 +1.4598807123e+03 3.3794639310e+03 0.0000000000e+00 0.0000e+00 -1.0000e+00
<mgrwt>
<rscale>  0 0.64396137E+04</rscale>
<asrwt>0</asrwt>
<pdfrwt beam="1">  1        2 0.56299930E+00 0.64396137E+04</pdfrwt>
<pdfrwt beam="2">  1       -2 0.43583797E+00 0.64396137E+04</pdfrwt>
<totfact> 0.14511076E-03</totfact>
</mgrwt>
<rwgt>
<wgt id='morphing_basis_vector_1'> +2.1141133e-06 </wgt>
<wgt id='morphing_basis_vector_2'> +1.4870575e-06 </wgt>
<wgt id='morphing_basis_vector_3'> +2.3460020e-06 </wgt>
<wgt id='morphing_basis_vector_4'> +1.6279950e-06 </wgt>
<wgt id='morphing_basis_vector_5'> +2.6663175e-06 </wgt>
</rwgt>
</event>
<event>
 4      1 +9.0096000e-12 5.62652600e+03 7.81860800e-03 7.30451400e-02
        2 -1    0    0  501    0 +0.0000000000e+00 +0.0000000000e+00 +3.1623364934e+03 3.1623364934e+03 0.0000000000e+00 0.0000e+00 -1.0000e+00
       -2 -1    0    0    0  501 -0.0000000000e+00 -0.0000000000e+00 -2.5027221557e+03 2.5027221557e+03 0.0000000000e+00 0.0000e+00 1.0000e+00
      -13  1    1    2    0    0 -1.1068208675e+02 -8.3209378586e+02 -2.3736919792e+03 2.5177458579e+03 0.0000000000e+00 0.0000e+00 1.0000e+00
       13  1    1    2    0    0 +1.1068208675e+02 +8.3209378586e+02 +3.0333063170e+03 3.1473127912e+03 0.0000000000e+00 0.0000e+00 -1.0000e+00
<mgrwt>
<rscale>  0 0.56265263E+04</rscale>
<asrwt>0</asrwt>
<pdfrwt beam="1">  1        2 0.48651331E+00 0.56265263E+04</pdfrwt>
<pdfrwt beam="2">  1       -2 0.38503418E+00 0.56265263E+04</pdfrwt>
<totfact> 0.75892360E-03</totfact>
</mgrwt>
<rwgt>
<wgt id='morphing_basis_vector_1'> +1.2209190e-06 </wgt>
<wgt id='morphing_basis_vector_2'> +8.2980890e-07 </wgt>
<wgt id='morphing_basis_vector_3'> +1.3466025e-06 </wgt>
<wgt id='morphing_basis_vector_4'> +9.7485761e-07 </wgt>
<wgt id='morphing_basis_vector_5'> +1.5543868e-06 </wgt>
</rwgt>
</event>
<event>
 4      1 +9.0096000e-12 6.24700300e+03 7.81860800e-03 7.23511200e-02
        2 -1    0    0  501    0 +0.0000000000e+00 +0.0000000000e+00 +3.0574851839e+03 3.0574851839e+03 0.0000000000e+00 0.0000e+00 -1.0000e+00
       -2 -1    0    0    0  501 -0.0000000000e+00 -0.0000000000e+00 -3.1909435205e+03 3.1909435205e+03 0.0000000000e+00 0.0000e+00 1.0000e+00
      -13  1    1    2    0    0 -9.7781649825e+01 -2.1286024889e+03 -2.3510525281e+03 3.1730045378e+03 0.0000000000e+00 0.0000e+00 1.0000e+00
       13  1    1    2    0    0 +9.7781649825e+01 +2.1286024889e+03 +2.2175941915e+03 3.0754241667e+03 0.0000000000e+00 0.0000e+00 -1.0000e+00
<mgrwt>
<rscale>  0 0.62470033E+04</rscale>
<asrwt>0</asrwt>
<pdfrwt beam="1">  1        2 0.47038234E+00 0.62470033E+04</pdfrwt>
<pdfrwt beam="2">  1       -2 0.49091439E+00 0.62470033E+04</pdfrwt>
<totfact> 0.15861056E-03</totfact>
</mgrwt>
<rwgt>
<wgt id='morphing_basis_vector_1'> +1.8552547e-06 </wgt>
<wgt id='morphing_basis_vector_2'> +1.2657103e-06 </wgt>
<wgt id='morphing_basis_vector_3'> +2.0490585e-06 </wgt>
<wgt id='morphing_basis_vector_4'> +1.4789371e-06 </wgt>
<wgt id='morphing_basis_vector_5'> +2.3639374e-06 </wgt>
</rwgt>
</event>
<event>
 4      1 +9.0096000e-12 5.94677500e+03 7.81860800e-03 7.26761600e-02
        2 -1    0    0  501    0 +0.0000000000e+00 +0.0000000000e+00 +4.5292012020e+03 4.5292012020e+03 0.0000000000e+00 0.0000e+00 -1.0000e+00
       -2 -1    0    0    0  501 -0.0000000000e+00 -0.0000000000e+00 -1.9520071506e+03 1.9520071506e+03 0.0000000000e+00 0.0000e+00 1.0000e+00
      -13  1    1    2    0    0 -1.3643318760e+03 +1.7978360845e+03 -8.2119911775e+02 2.4016627668e+03 0.0000000000e+00 0.0000e+00 1.0000e+00
       13  1    1    2    0    0 +1.3643318760e+03 -1.7978360845e+03 +3.3983931691e+03 4.0795455858e+03 0.0000000000e+00 0.0000e+00 -1.0000e+00
<mgrwt>
<rscale>  0 0.59467750E+04</rscale>
<asrwt>0</asrwt>
<pdfrwt beam="1">  1        2 0.69680018E+00 0.59467750E+04</pdfrwt>
<pdfrwt beam="2">  1       -2 0.30030879E+00 0.59467750E+04</pdfrwt>
<totfact> 0.19611757E-03</totfact>
</mgrwt>
<rwgt>
<wgt id='morphing_basis_vector_1'> +1.5254352e-06 </wgt>
<wgt id='morphing_basis_vector_2'> +1.0432833e-06 </wgt>
<wgt id='morphing_basis_vector_3'> +1.6847673e-06 </wgt>
<wgt id='morphing_basis_vector_4'> +1.2112613e-06 </wgt>
<wgt id='morphing_basis_vector_5'> +1.9401776e-06 </wgt>
</rwgt>
</event>
<event>
 4      1 +9.0096000e-12 5.91171100e+03 7.81860800e-03 7.27153900e-02
        2 -1    0    0  501    0 +0.0000000000e+00 +0.0000000000e+00 +2.9157686576e+03 2.9157686576e+03 0.0000000000e+00 0.0000e+00 1.0000e+00
       -2 -1    0    0    0  501 -0.0000000000e+00 -0.0000000000e+00 -2.9964932694e+03 2.9964932694e+03 0.0000000000e+00 0.0000e+00 -1.0000e+00
      -13  1    1    2    0    0 -1.9112024215e+03 +7.9361989610e+02 -2.1511404842e+03 2.9849510245e+03 0.0000000000e+00 0.0000e+00 -1.0000e+00
       13  1    1    2    0    0 +1.9112024215e+03 -7.9361989610e+02 +2.0704158724e+03 2.9273109025e+03 0.0000000000e+00 0.0000e+00 1.0000e+00
<mgrwt>
<rscale>  0 0.59117108E+04</rscale>
<asrwt>0</asrwt>
<pdfrwt beam="1">  1        2 0.44857980E+00 0.59117108E+04</pdfrwt>
<pdfrwt beam="2">  1       -2 0.46099896E+00 0.59117108E+04</pdfrwt>
<totfact> 0.33328465E-03</totfact>
</mgrwt>
<rwgt>
<wgt id='morphing_basis_vector_1'> +1.4888414e-06 </wgt>
<wgt id='morphing_basis_vector_2'> +1.0159363e-06 </wgt>
<wgt id='morphing_basis_vector_3'> +1.6437300e-06 </wgt>
<wgt id='morphing_basis_vector_4'> +1.1850545e-06 </wgt>
<wgt id='morphing_basis_vector_5'> +1.8949027e-06 </wgt>
</rwgt>
</event>
<event>
 4      1 +9.0096000e-12 6.43694900e+03 7.81860800e-03 7.21549000e-02
        2 -1    0    0  501    0 +0.0000000000e+00 +0.0000000000e+00 +3.7058865071e+03 3.7058865071e+03 0.0000000000e+00 0.0000e+00 -1.0000e+00
       -2 -1    0    0    0  501 -0.0000000000e+00 -0.0000000000e+00 -2.7951691222e+03 2.7951691222e+03 0.0000000000e+00 0.0000e+00 1.0000e+00
      -13  1    1    2    0    0 -3.0842873678e+03 -6.9722353439e+02 -1.5030554167e+02 3.1656817560e+03 0.0000000000e+00 0.0000e+00 1.0000e+00
       13  1    1    2    0    0 +3.0842873678e+03 +6.9722353439e+02 +1.0610229266e+03 3.3353738733e+03 0.0000000000e+00 0.0000e+00 -1.0000e+00
<mgrwt>
<rscale>  0 0.64369494E+04</rscale>
<asrwt>0</asrwt>
<pdfrwt beam="1">  1        2 0.57013639E+00 0.64369494E+04</pdfrwt>
<pdfrwt beam="2">  1       -2 0.43002601E+00 0.64369494E+04</pdfrwt>
<totfact> 0.14630786E-03</totfact>
</mgrwt>
<rwgt>
<wgt id='morphing_basis_vector_1'> +2.1270269e-06 </wgt>
<wgt id='morphing_basis_vector_2'> +1.5327391e-06 </wgt>
<wgt id='morphing_basis_vector_3'> +2.3689551e-06 </wgt>
<wgt id='morphing_basis_vector_4'> +1.5901675e-06 </wgt>
<wgt id='morphing_basis_vector_5'> +2.6589416e-06 </wgt>
</rwgt>
</event>
<event>
 4      1 +9.0096000e-12 5.57243300e+03 7.81860800e-03 7.31099400e-02
        2 -1    0    0  501    0 +0.0000000000e+00 +0.0000000000e+00 +2.3354968497e+03 2.3354968497e+03 0.0000000000e+00 0.0000e+00 1.0000e+00
       -2 -1    0    0    0  501 -0.0000000000e+00 -0.0000000000e+00 -3.3239184177e+03 3.3239184177e+03 0.0000000000e+00 0.0000e+00 -1.0000e+00
      -13  1    1    2    0    0 -2.3588367283e+03 -1.5851342718e+02 -1.9915938563e+03 3.0912268286e+03 0.0000000000e+00 0.0000e+00 -1.0000e+00
       13  1    1    2    0    0 +2.3588367283e+03 +1.5851342718e+02 +1.0031722883e+03 2.5681884388e+03 0.0000000000e+00 0.0000e+00 1.0000e+00
<mgrwt>
<rscale>  0 0.55724325E+04</rscale>
<asrwt>0</asrwt>
<pdfrwt beam="1">  1        2 0.35930721E+00 0.55724325E+04</pdfrwt>
<pdfrwt beam="2">  1       -2 0.51137206E+00 0.55724325E+04</pdfrwt>
<totfact> 0.32711475E-03</totfact>
</mgrwt>
<rwgt>
<wgt id='morphing_basis_vector_1'> +1.1792376e-06 </wgt>
<wgt id='morphing_basis_vector_2'> +8.1153503e-07 </wgt>
<wgt id='morphing_basis_vector_3'> +1.3028648e-06 </wgt>
<wgt id='morphing_basis_vector_4'> +9.2824878e-07 </wgt>
<wgt id='morphing_basis_vector_5'> +1.4945176e-06 </wgt>
</rwgt>
</event>
<event>
 4      1 +9.0096000e-12 5.64056700e+03 7.81860800e-03 7.30284500e-02
        2 -1    0    0  501    0 +0.0000000000e+00 +0.0000000000e+00 +5.1926254880e+03 5.1926254880e+03 0.0000000000e+00 0.0000e+00 -1.0000e+00
       -2 -1    0    0    0  501 -0.0000000000e+00 -0.0000000000e+00 -1.5317873404e+03 1.5317873404e+03 0.0000000000e+00 0.0000e+00 1.0000e+00
      -13  1    1    2    0    0 +2.1772906274e+03 -2.4361872749e+01 -3.0643151114e+02 2.1988834093e+03 0.0000000000e+00 0.0000e+00 1.0000e+00
       13  1    1    2    0    0 -2.1772906274e+03 +2.4361872749e+01 +3.9672696588e+03 4.5255294191e+03 0.0000000000e+00 0.0000e+00 -1.0000e+00
<mgrwt>
<rscale>  0 0.56405666E+04</rscale>
<asrwt>0</asrwt>
<pdfrwt beam="1">  1        2 0.79886545E+00 0.56405666E+04</pdfrwt>
<pdfrwt beam="2">  1       -2 0.23565959E+00 0.56405666E+04</pdfrwt>
<totfact> 0.82691732E-04</totfact>
</mgrwt>
<rwgt>
<wgt id='morphing_basis_vector_1'> +1.2355811e-06 </wgt>
<wgt id='morphing_basis_vector_2'> +8.4534046e-07 </wgt>
<wgt id='morphing_basis_vector_3'> +1.3641036e-06 </wgt>
<wgt id='morphing_basis_vector_4'> +9.7938921e-07 </wgt>
<wgt id='morphing_basis_vector_5'> +1.5695573e-06 </wgt>
</rwgt>
</event>
<event>
 4      1 +9.0096000e-12 5.93955400e+03 7.81860800e-03 7.26842200e-02
        2 -1    0    0  501    0 +0.0000000000e+00 +0.0000000000e+00 +2.8191885160e+03 2.8191885160e+03 0.0000000000e+00 0.0000e+00 1.0000e+00
       -2 -1    0    0    0  501 -0.0000000000e+00 -0.0000000000e+00 -3.1284090859e+03 3.1284090859e+03 0.0000000000e+00 0.0000e+00 -1.0000e+00
      -13  1    1    2    0    0 -6.1967446525e+02 +1.3638986507e+03 -2.7223292480e+03 3.1072966558e+03 0.0000000000e+00 0.0000e+00 -1.0000e+00
       13  1    1    2    0    0 +6.1967446525e+02 -1.3638986507e+03 +2.4131086781e+03 2.8403009461e+03 0.0000000000e+00 0.0000e+00 1.0000e+00
<mgrwt>
<rscale>  0 0.59395538E+04</rscale>
<asrwt>0</asrwt>
<pdfrwt beam="1">  1        2 0.43372131E+00 0.59395538E+04</pdfrwt>
<pdfrwt beam="2">  1       -2 0.48129370E+00 0.59395538E+04</pdfrwt>
<totfact> 0.27245916E-03</totfact>
</mgrwt>
<rwgt>
<wgt id='morphing_basis_vector_1'> +1.5156356e-06 </wgt>
<wgt id='morphing_basis_vector_2'> +1.0311238e-06 </wgt>
<wgt id='morphing_basis_vector_3'> +1.6726483e-06 </wgt>
<wgt id='morphing_basis_vector_4'> +1.2105535e-06 </wgt>
<wgt id='morphing_basis_vector_5'> +1.9311854e-06 </wgt>
</rwgt>
</event>
<event>
 4      1 +9.0096000e-12 6.01778200e+03 7.81860800e-03 7.25975500e-02
        2 -1    0    0  501    0 +0.0000000000e+00 +0.0000000000e+00 +1.6964423923e+03 1.6964423923e+03 0.0000000000e+00 0.0000e+00 1.0000e+00
       -2 -1    0    0    0  501 -0.0000000000e+00 -0.0000000000e+00 -5.3367122223e+03 5.3367122223e+03 0.0000000000e+00 0.0000e+00 -1.0000e+00
      -13  1    1    2    0    0 -6.0511094791e+02 +1.3688143215e+03 -4.8708556115e+03 5.0955908680e+03 0.0000000000e+00 0.0000e+00 -1.0000e+00
       13  1    1    2    0    0 +6.0511094791e+02 -1.3688143215e+03 +1.2305857815e+03 1.9375637465e+03 0.0000000000e+00 0.0000e+00 1.0000e+00
<mgrwt>
<rscale>  0 0.60177819E+04</rscale>
<asrwt>0</asrwt>
<pdfrwt beam="1">  1        2 0.26099114E+00 0.60177819E+04</pdfrwt>
<pdfrwt beam="2">  1       -2 0.82103265E+00 0.60177819E+04</pdfrwt>
<totfact> 0.69716342E-04</totfact>
</mgrwt>
<rwgt>
<wgt id='morphing_basis_vector_1'> +1.5968606e-06 </wgt>
<wgt id='morphing_basis_vector_2'> +1.0864130e-06 </wgt>
<wgt id='morphing_basis_vector_3'> +1.7624745e-06 </wgt>
<wgt id='morphing_basis_vector_4'> +1.2757917e-06 </wgt>
<wgt id='morphing_basis_vector_5'> +2.0351934e-06 </wgt>
</rwgt>
</event>
<event>
 4      1 +9.0096000e-12 5.85411300e+03 7.81860800e-03 7.27804400e-02
        2 -1    0    0  501    0 +0.0000000000e+00 +0.0000000000e+00 +2.2259993844e+03 2.2259993844e+03 0.0000000000e+00 0.0000e+00 1.0000e+00
       -2 -1    0    0    0  501 -0.0000000000e+00 -0.0000000000e+00 -3.8489046058e+03 3.8489046058e+03 0.0000000000e+00 0.0000e+00 -1.0000e+00
      -13  1    1    2    0    0 -7.6590022091e+02 +9.2355406646e+02 -3.5819984733e+03 3.7776008689e+03 0.0000000000e+00 0.0000e+00 -1.0000e+00
       13  1    1    2    0    0 +7.6590022091e+02 -9.2355406646e+02 +1.9590932518e+03 2.2973031214e+03 0.0000000000e+00 0.0000e+00 1.0000e+00
<mgrwt>
<rscale>  0 0.58541128E+04</rscale>
<asrwt>0</asrwt>
<pdfrwt beam="1">  1        2 0.34246144E+00 0.58541128E+04</pdfrwt>
<pdfrwt beam="2">  1       -2 0.59213918E+00 0.58541128E+04</pdfrwt>
<totfact> 0.93263272E-04</totfact>
</mgrwt>
<rwgt>
<wgt id='morphing_basis_vector_1'> +1.4302950e-06 </wgt>
<wgt id='morphing_basis_vector_2'> +9.7255426e-07 </wgt>
<wgt id='morphing_basis_vector_3'> +1.5781640e-06 </wgt>
<wgt id='morphing_basis_vector_4'> +1.1426459e-06 </wgt>
<wgt id='morphing_basis_vector_5'> +1.8222327e-06 </wgt>
</rwgt>
</event>
<event>
 4      1 +9.0096000e-12 5.85924900e+03 7.81860800e-03 7.27746100e-02
        2 -1    0    0  501    0 +0.0000000000e+00 +0.0000000000e+00 +3.2755973805e+03 3.2755973805e+03 0.0000000000e+00 0.0000e+00 -1.0000e+00
       -2 -1    0    0    0  501 -0.0000000000e+00 -0.0000000000e+00 -2.6201934578e+03 2.6201934578e+03 0.0000000000e+00 0.0000e+00 1.0000e+00
      -13  1    1    2    0    0 +2.1171660611e+03 -1.0666896697e+03 -1.4042180803e+03 2.7553670171e+03 0.0000000000e+00 0.0000e+00 1.0000e+00
       13  1    1    2    0    0 -2.1171660611e+03 +1.0666896697e+03 +2.0596220030e+03 3.1404238212e+03 0.0000000000e+00 0.0000e+00 -1.0000e+00
<mgrwt>
<rscale>  0 0.58592487E+04</rscale>
<asrwt>0</asrwt>
<pdfrwt beam="1">  1        2 0.50393806E+00 0.58592487E+04</pdfrwt>
<pdfrwt beam="2">  1       -2 0.40310668E+00 0.58592487E+04</pdfrwt>
<totfact> 0.47595014E-03</totfact>
</mgrwt>
<rwgt>
<wgt id='morphing_basis_vector_1'> +1.4391164e-06 </wgt>
<wgt id='morphing_basis_vector_2'> +9.8714512e-07 </wgt>
<wgt id='morphing_basis_vector_3'> +1.5899216e-06 </wgt>
<wgt id='morphing_basis_vector_4'> +1.1385286e-06 </wgt>
<wgt id='morphing_basis_vector_5'> +1.8279661e-06 </wgt>
</rwgt>
</event>
<event>
 4      1 +9.0096000e-12 5.70754800e+03 7.81860800e-03 7.29494700e-02
        2 -1    0    0  501    0 +0.0000000000e+00 +0.0000000000e+00 +3.9382618919e+03 3.9382618919e+03 0.0000000000e+00 0.0000e+00 1.0000e+00
       -2 -1    0    0    0  501 -0.0000000000e+00 -0.0000000000e+00 -2.0679239254e+03 2.0679239254e+03 0.0000000000e+00 0.0000e+00 -1.0000e+00
      -13  1    1    2    0    0 +2.2138852825e+03 -1.6257541256e+03 +1.2027283448e+02 2.7493326601e+03 0.0000000000e+00 0.0000e+00 -1.0000e+00
       13  1    1    2    0    0 -2.2138852825e+03 +1.6257541256e+03 +1.7500651321e+03 3.2568531572e+03 0.0000000000e+00 0.0000e+00 1.0000e+00
<mgrwt>
<rscale>  0 0.57075480E+04</rscale>
<asrwt>0</asrwt>
<pdfrwt beam="1">  1        2 0.60588644E+00 0.57075480E+04</pdfrwt>
<pdfrwt beam="2">  1       -2 0.31814214E+00 0.57075480E+04</pdfrwt>
<totfact> 0.54025734E-03</totfact>
</mgrwt>
<rwgt>
<wgt id='morphing_basis_vector_1'> +1.3093075e-06 </wgt>
<wgt id='morphing_basis_vector_2'> +9.2767832e-07 </wgt>
<wgt id='morphing_basis_vector_3'> +1.4531043e-06 </wgt>
<wgt id='morphing_basis_vector_4'> +9.9664469e-07 </wgt>
<wgt id='morphing_basis_vector_5'> +1.6431009e-06 </wgt>
</rwgt>
</event>
<event>
 4      1 +9.0096000e-12 5.91053300e+03 7.81860800e-03 7.27167100e-02
        2 -1    0    0  501    0 +0.0000000000e+00 +0.0000000000e+00 +3.2445637165e+03 3.2445637165e+03 0.0000000000e+00 0.0000e+00 1.0000e+00
       -2 -1    0    0    0  501 -0.0000000000e+00 -0.0000000000e+00 -2.6917638848e+03 2.6917638848e+03 0.0000000000e+00 0.0000e+00 -1.0000e+00
      -13  1    1    2    0    0 +1.1907472073e+03 -1.1402568516e+03 -2.1869627361e+03 2.7387717335e+03 0.0000000000e+00 0.0000e+00 -1.0000e+00
       13  1    1    2    0    0 -1.1907472073e+03 +1.1402568516e+03 +2.7397625679e+03 3.1975558678e+03 0.0000000000e+00 0.0000e+00 1.0000e+00
<mgrwt>
<rscale>  0 0.59105328E+04</rscale>
<asrwt>0</asrwt>
<pdfrwt beam="1">  1        2 0.49916365E+00 0.59105328E+04</pdfrwt>
<pdfrwt beam="2">  1       -2 0.41411752E+00 0.59105328E+04</pdfrwt>
<totfact> 0.42158751E-03</totfact>
</mgrwt>
<rwgt>
<wgt id='morphing_basis_vector_1'> +1.4864964e-06 </wgt>
<wgt id='morphing_basis_vector_2'> +1.0117184e-06 </wgt>
<wgt id='morphing_basis_vector_3'> +1.6405248e-06 </wgt>
<wgt id='morphing_basis_vector_4'> +1.1865918e-06 </wgt>
<wgt id='morphing_basis_vector_5'> +1.8935982e-06 </wgt>
</rwgt>
</event>
<event>
 4      1 +9.0096000e-12 5.60052000e+03 7.81860800e-03 7.30762000e-02
        2 -1    0    0  501    0 +0.0000000000e+00 +0.0000000000e+00 +3.0393313601e+03 3.0393313601e+03 0.0000000000e+00 0.0000e+00 1.0000e+00
       -2 -1    0    0    0  501 -0.0000000000e+00 -0.0000000000e+00 -2.5799933565e+03 2.5799933565e+03 0.0000000000e+00 0.0000e+00 -1.0000e+00
      -13  1    1    2    0    0 +1.9897694004e+03 -1.7841429656e+03 -6.0926429288e+02 2.7410858008e+03 0.0000000000e+00 0.0000e+00 -1.0000e+00
       13  1    1    2    0    0 -1.9897694004e+03 +1.7841429656e+03 +1.0686022965e+03 2.8782389158e+03 0.0000000000e+00 0.0000e+00 1.0000e+00
<mgrwt>
<rscale>  0 0.56005195E+04</rscale>
<asrwt>0</asrwt>
<pdfrwt beam="1">  1        2 0.46758944E+00 0.56005195E+04</pdfrwt>
<pdfrwt beam="2">  1       -2 0.39692205E+00 0.56005195E+04</pdfrwt>
<totfact> 0.76868856E-03</totfact>
</mgrwt>
<rwgt>
<wgt id='morphing_basis_vector_1'> +1.2123800e-06 </wgt>
<wgt id='morphing_basis_vector_2'> +8.5515988e-07 </wgt>
<wgt id='morphing_basis_vector_3'> +1.3444014e-06 </wgt>
<wgt id='morphing_basis_vector_4'> +9.2739076e-07 </wgt>
<wgt id='morphing_basis_vector_5'> +1.5232952e-06 </wgt>
</rwgt>
</event>
<event>
 4      1 +9.0096000e-12 5.59269800e+03 7.81860800e-03 7.30855800e-02
        2 -1    0    0  501    0 +0.0000000000e+00 +0.0000000000e+00 +2.7860882116e+03 2.7860882116e+03 0.0000000000e+00 0.0000e+00 -1.0000e+00
       -2 -1    0    0    0  501 -0.0000000000e+00 -0.0000000000e+00 -2.8066472867e+03 2.8066472867e+03 0.0000000000e+00 0.0000e+00 1.0000e+00
      -13  1    1    2    0    0 +1.7195987617e+03 -1.2148960959e+02 -2.2120635422e+03 2.8044615778e+03 0.0000000000e+00 0.0000e+00 1.0000e+00
       13  1    1    2    0    0 -1.7195987617e+03 +1.2148960959e+02 +2.1915044671e+03 2.7882739205e+03 0.0000000000e+00 0.0000e+00 -1.0000e+00
<mgrwt>
<rscale>  0 0.55926977E+04</rscale>
<asrwt>0</asrwt>
<pdfrwt beam="1">  1        2 0.42862896E+00 0.55926977E+04</pdfrwt>
<pdfrwt beam="2">  1       -2 0.43179189E+00 0.55926977E+04</pdfrwt>
<totfact> 0.65729424E-03</totfact>
</mgrwt>
<rwgt>
<wgt id='morphing_basis_vector_1'> +1.1925574e-06 </wgt>
<wgt id='morphing_basis_vector_2'> +8.1199480e-07 </wgt>
<wgt id='morphing_basis_vector_3'> +1.3155923e-06 </wgt>
<wgt id='morphing_basis_vector_4'> +9.5015309e-07 </wgt>
<wgt id='morphing_basis_vector_5'> +1.5171296e-06 </wgt>
</rwgt>
</event>
<event>
 4      1 +9.0096000e-12 5.80132200e+03 7.81860800e-03 7.28407400e-02
        2 -1    0    0  501    0 +0.0000000000e+00 +0.0000000000e+00 +2.2133931304e+03 2.2133931304e+03 0.0000000000e+00 0.0000e+00 -1.0000e+00
       -2 -1    0    0    0  501 -0.0000000000e+00 -0.0000000000e+00 -3.8013289630e+03 3.8013289630e+03 0.0000000000e+00 0.0000e+00 1.0000e+00
      -13  1    1    2    0    0 +6.2453801088e+01 -7.5706468998e+02 -3.6963702392e+03 3.7736190014e+03 0.0000000000e+00 0.0000e+00 1.0000e+00
       13  1    1    2    0    0 -6.2453801088e+01 +7.5706468998e+02 +2.1084344067e+03 2.2411030921e+03 0.0000000000e+00 0.0000e+00 -1.0000e+00
<mgrwt>
<rscale>  0 0.58013224E+04</rscale>
<asrwt>0</asrwt>
<pdfrwt beam="1">  1        2 0.34052202E+00 0.58013224E+04</pdfrwt>
<pdfrwt beam="2">  1       -2 0.58481984E+00 0.58013224E+04</pdfrwt>
<totfact> 0.10925509E-03</totfact>
</mgrwt>
<rwgt>
<wgt id='morphing_basis_vector_1'> +1.3794168e-06 </wgt>
<wgt id='morphing_basis_vector_2'> +9.3768024e-07 </wgt>
<wgt id='morphing_basis_vector_3'> +1.5218476e-06 </wgt>
<wgt id='morphing_basis_vector_4'> +1.1021095e-06 </wgt>
<wgt id='morphing_basis_vector_5'> +1.7572570e-06 </wgt>
</rwgt>
</event>
<event>
 4      1 +9.0096000e-12 5.66910700e+03 7.81860800e-03 7.29946600e-02
        2 -1    0    0  501    0 +0.0000000000e+00 +0.0000000000e+00 +4.6228121914e+03 4.6228121914e+03 0.0000000000e+00 0.0000e+00 -1.0000e+00
       -2 -1    0    0    0  501 -0.0000000000e+00 -0.0000000000e+00 -1.7380531129e+03 1.7380531129e+03 0.0000000000e+00 0.0000e+00 1.0000e+00
      -13  1    1    2    0    0 +2.2376130389e+02 +2.8256262476e+03 +1.4664522858e+03 3.1913500464e+03 0.0000000000e+00 0.0000e+00 1.0000e+00
       13  1    1    2    0    0 -2.2376130389e+02 -2.8256262476e+03 +1.4183067928e+03 3.1695152580e+03 0.0000000000e+00 0.0000e+00 -1.0000e+00
<mgrwt>
<rscale>  0 0.56691069E+04</rscale>
<asrwt>0</asrwt>
<pdfrwt beam="1">  1        2 0.71120187E+00 0.56691069E+04</pdfrwt>
<pdfrwt beam="2">  1       -2 0.26739279E+00 0.56691069E+04</pdfrwt>
<totfact> 0.26599691E-03</totfact>
</mgrwt>
<rwgt>
<wgt id='morphing_basis_vector_1'> +1.3057758e-06 </wgt>
<wgt id='morphing_basis_vector_2'> +9.9484708e-07 </wgt>
<wgt id='morphing_basis_vector_3'> +1.4653745e-06 </wgt>
<wgt id='morphing_basis_vector_4'> +9.0312023e-07 </wgt>
<wgt id='morphing_basis_vector_5'> +1.5935541e-06 </wgt>
</rwgt>
</event>
<event>
 4      1 +9.0096000e-12 5.76964500e+03 7.81860800e-03 7.28772300e-02
        2 -1    0    0  501    0 +0.0000000000e+00 +0.0000000000e+00 +4.0428070238e+03 4.0428070238e+03 0.0000000000e+00 0.0000e+00 -1.0000e+00
       -2 -1    0    0    0  501 -0.0000000000e+00 -0.0000000000e+00 -2.0585205314e+03 2.0585205314e+03 0.0000000000e+00 0.0000e+00 1.0000e+00
      -13  1    1    2    0    0 +6.0697039934e+02 -2.7963549906e+03 +6.0476930562e+02 2.9246812155e+03 0.0000000000e+00 0.0000e+00 1.0000e+00
       13  1    1    2    0    0 -6.0697039934e+02 +2.7963549906e+03 +1.3795171868e+03 3.1766463397e+03 0.0000000000e+00 0.0000e+00 -1.0000e+00
<mgrwt>
<rscale>  0 0.57696451E+04</rscale>
<asrwt>0</asrwt>
<pdfrwt beam="1">  1        2 0.62197031E+00 0.57696451E+04</pdfrwt>
<pdfrwt beam="2">  1       -2 0.31669547E+00 0.57696451E+04</pdfrwt>
<totfact> 0.44802232E-03</totfact>
</mgrwt>
<rwgt>
<wgt id='morphing_basis_vector_1'> +1.3806405e-06 </wgt>
<wgt id='morphing_basis_vector_2'> +1.0084846e-06 </wgt>
<wgt id='morphing_basis_vector_3'> +1.5395003e-06 </wgt>
<wgt id='morphing_basis_vector_4'> +1.0118429e-06 </wgt>
<wgt id='morphing_basis_vector_5'> +1.7135239e-06 </wgt>
</rwgt>
</event>
<event>
 4      1 +9.0096000e-12 6.04054700e+03 7.81860800e-03 7.25725800e-02
        2 -1    0    0  501    0 +0.0000000000e+00 +0.0000000000e+00 +1.7500452070e+03 1.7500452070e+03 0.0000000000e+00 0.0000e+00 -1.0000e+00
       -2 -1    0    0    0  501 -0.0000000000e+00 -0.0000000000e+00 -5.2124672469e+03 5.2124672469e+03 0.0000000000e+00 0.0000e+00 1.0000e+00
      -13  1    1    2    0    0 -2.1051703895e+03 +3.4021056942e+02 -4.1964823023e+03 4.7072231001e+03 0.0000000000e+00 0.0000e+00 1.0000e+00
       13  1    1    2    0    0 +2.1051703895e+03 -3.4021056942e+02 +7.3406026246e+02 2.2552893538e+03 0.0000000000e+00 0.0000e+00 -1.0000e+00
<mgrwt>
<rscale>  0 0.60405474E+04</rscale>
<asrwt>0</asrwt>
<pdfrwt beam="1">  1        2 0.26923773E+00 0.60405474E+04</pdfrwt>
<pdfrwt beam="2">  1       -2 0.80191803E+00 0.60405474E+04</pdfrwt>
<totfact> 0.74101325E-04</totfact>
</mgrwt>
<rwgt>
<wgt id='morphing_basis_vector_1'> +1.6227012e-06 </wgt>
<wgt id='morphing_basis_vector_2'> +1.1076121e-06 </wgt>
<wgt id='morphing_basis_vector_3'> +1.7918965e-06 </wgt>
<wgt id='morphing_basis_vector_4'> +1.2918371e-06 </wgt>
<wgt id='morphing_basis_vector_5'> +2.0659465e-06 </wgt>
</rwgt>
</event>
<event>
 4      1 +9.0096000e-12 5.58703800e+03 7.81860800e-03 7.30923700e-02
        2 -1    0    0  501    0 +0.0000000000e+00 +0.0000000000e+00 +3.8779110648e+03 3.8779110648e+03 0.0000000000e+00 0.0000e+00 1.0000e+00
       -2 -1    0    0    0  501 -0.0000000000e+00 -0.0000000000e+00 -2.0123584452e+03 2.0123584452e+03 0.0000000000e+00 0.0000e+00 -1.0000e+00
      -13  1    1    2    0    0 -1.5871772422e+03 +1.1013307974e+03 -1.1945823482e+03 2.2713626109e+03 0.0000000000e+00 0.0000e+00 -1.0000e+00
       13  1    1    2    0    0 +1.5871772422e+03 -1.1013307974e+03 +3.0601349678e+03 3.6189068991e+03 0.0000000000e+00 0.0000e+00 1.0000e+00
<mgrwt>
<rscale>  0 0.55870375E+04</rscale>
<asrwt>0</asrwt>
<pdfrwt beam="1">  1        2 0.59660170E+00 0.55870375E+04</pdfrwt>
<pdfrwt beam="2">  1       -2 0.30959361E+00 0.55870375E+04</pdfrwt>
<totfact> 0.69749318E-03</totfact>
</mgrwt>
<rwgt>
<wgt id='morphing_basis_vector_1'> +1.1883215e-06 </wgt>
<wgt id='morphing_basis_vector_2'> +8.1039494e-07 </wgt>
<wgt id='morphing_basis_vector_3'> +1.3112073e-06 </wgt>
<wgt id='morphing_basis_vector_4'> +9.4508126e-07 </wgt>
<wgt id='morphing_basis_vector_5'> +1.5108791e-06 </wgt>
</rwgt>
</event>
<event>
 4      1 +9.0096000e-12 5.78270200e+03 7.81860800e-03 7.28621600e-02
        2 -1    0    0  501    0 +0.0000000000e+00 +0.0000000000e+00 +2.9363883176e+03 2.9363883176e+03 0.0000000000e+00 0.0000e+00 -1.0000e+00
       -2 -1    0    0    0  501 -0.0000000000e+00 -0.0000000000e+00 -2.8470047159e+03 2.8470047159e+03 0.0000000000e+00 0.0000e+00 1.0000e+00
      -13  1    1    2    0    0 -2.8563819220e+03 +3.5296988095e+01 -4.0229315427e+02 2.8847882667e+03 0.0000000000e+00 0.0000e+00 1.0000e+00
       13  1    1    2    0    0 +2.8563819220e+03 -3.5296988095e+01 +4.9167675599e+02 2.8986047668e+03 0.0000000000e+00 0.0000e+00 -1.0000e+00
<mgrwt>
<rscale>  0 0.57827023E+04</rscale>
<asrwt>0</asrwt>
<pdfrwt beam="1">  1        2 0.45175205E+00 0.57827023E+04</pdfrwt>
<pdfrwt beam="2">  1       -2 0.43800072E+00 0.57827023E+04</pdfrwt>
<totfact> 0.47209038E-03</totfact>
</mgrwt>
<rwgt>
<wgt id='morphing_basis_vector_1'> +1.3899990e-06 </wgt>
<wgt id='morphing_basis_vector_2'> +1.0083846e-06 </wgt>
<wgt id='morphing_basis_vector_3'> +1.5483443e-06 </wgt>
<wgt id='morphing_basis_vector_4'> +1.0277907e-06 </wgt>
<wgt id='morphing_basis_vector_5'> +1.7296911e-06 </wgt>
</rwgt>
</event>
<event>
 4      1 +9.0096000e-12 5.99251700e+03 7.81860800e-03 7.26253900e-02
        2 -1    0    0  501    0 +0.0000000000e+00 +0.0000000000e+00 +3.0224871260e+03 3.0224871260e+03 0.0000000000e+00 0.0000e+00 1.0000e+00
       -2 -1    0    0    0  501 -0.0000000000e+00 -0.0000000000e+00 -2.9702578278e+03 2.9702578278e+03 0.0000000000e+00 0.0000e+00 -1.0000e+00
      -13  1    1    2    0    0 -1.0071617038e+02 +2.0319988959e+03 -2.1736058632e+03 2.9772009855e+03 0.0000000000e+00 0.0000e+00 -1.0000e+00
       13  1    1    2    0    0 +1.0071617038e+02 -2.0319988959e+03 +2.2258351613e+03 3.0155439684e+03 0.0000000000e+00 0.0000e+00 1.0000e+00
<mgrwt>
<rscale>  0 0.59925173E+04</rscale>
<asrwt>0</asrwt>
<pdfrwt beam="1">  1        2 0.46499802E+00 0.59925173E+04</pdfrwt>
<pdfrwt beam="2">  1       -2 0.45696274E+00 0.59925173E+04</pdfrwt>
<totfact> 0.30183311E-03</totfact>
</mgrwt>
<rwgt>
<wgt id='morphing_basis_vector_1'> +1.5714546e-06 </wgt>
<wgt id='morphing_basis_vector_2'> +1.0717683e-06 </wgt>
<wgt id='morphing_basis_vector_3'> +1.7349968e-06 </wgt>
<wgt id='morphing_basis_vector_4'> +1.2519280e-06 </wgt>
<wgt id='morphing_basis_vector_5'> +2.0009438e-06 </wgt>
</rwgt>
</event>
<event>
 4      1 +9.0096000e-12 5.88172300e+03 7.81860800e-03 7.27491600e-02
        2 -1    0    0  501    0 +0.0000000000e+00 +0.0000000000e+00 +2.7781191557e+03 2.7781191557e+03 0.0000000000e+00 0.0000e+00 -1.0000e+00
       -2 -1    0    0    0  501 -0.0000000000e+00 -0.0000000000e+00 -3.1131373103e+03 3.1131373103e+03 0.0000000000e+00 0.0000e+00 1.0000e+00
      -13  1    1    2    0    0 -1.6584241439e+03 -1.8256467854e+03 +1.4367453692e+03 2.8543990755e+03 0.0000000000e+00 0.0000e+00 -1.0000e+00
       13  1    1    2    0    0 +1.6584241439e+03 +1.8256467854e+03 -1.7717635238e+03 3.0368573905e+03 0.0000000000e+00 0.0000e+00 1.0000e+00
<mgrwt>
<rscale>  0 0.58817230E+04</rscale>
<asrwt>0</asrwt>
<pdfrwt beam="1">  1        2 0.42740295E+00 0.58817230E+04</pdfrwt>
<pdfrwt beam="2">  1       -2 0.47894420E+00 0.58817230E+04</pdfrwt>
<totfact> 0.30221189E-03</totfact>
</mgrwt>
<rwgt>
<wgt id='morphing_basis_vector_1'> +1.7595345e-06 </wgt>
<wgt id='morphing_basis_vector_2'> +1.8778642e-06 </wgt>
<wgt id='morphing_basis_vector_3'> +2.1011942e-06 </wgt>
<wgt id='morphing_basis_vector_4'> +5.1834237e-07 </wgt>
<wgt id='morphing_basis_vector_5'> +1.8026093e-06 </wgt>
</rwgt>
</event>
<event>
 4      1 +9.0096000e-12 6.16529400e+03 7.81860800e-03 7.24377100e-02
        2 -1    0    0  501    0 +0.0000000000e+00 +0.0000000000e+00 +3.1585137230e+03 3.1585137230e+03 0.0000000000e+00 0.0000e+00 -1.0000e+00
       -2 -1    0    0    0  501 -0.0000000000e+00 -0.0000000000e+00 -3.0086024850e+03 3.0086024850e+03 0.0000000000e+00 0.0000e+00 1.0000e+00
      -13  1    1    2    0    0 +2.2228973921e+03 -1.9349121404e+03 -8.2949880044e+02 3.0615724827e+03 0.0000000000e+00 0.0000e+00 1.0000e+00
       13  1    1    2    0    0 -2.2228973921e+03 +1.9349121404e+03 +9.7941003843e+02 3.1055437254e+03 0.0000000000e+00 0.0000e+00 -1.0000e+00
<mgrwt>
<rscale>  0 0.61652939E+04</rscale>
<asrwt>0</asrwt>
<pdfrwt beam="1">  1        2 0.48592519E+00 0.61652939E+04</pdfrwt>
<pdfrwt beam="2">  1       -2 0.46286192E+00 0.61652939E+04</pdfrwt>
<totfact> 0.21966192E-03</totfact>
</mgrwt>
<rwgt>
<wgt id='morphing_basis_vector_1'> +1.7793267e-06 </wgt>
<wgt id='morphing_basis_vector_2'> +1.2567468e-06 </wgt>
<wgt id='morphing_basis_vector_3'> +1.9750833e-06 </wgt>
<wgt id='morphing_basis_vector_4'> +1.3621437e-06 </wgt>
<wgt id='morphing_basis_vector_5'> +2.2389901e-06 </wgt>
</rwgt>
</event>
<event>
 4      1 +9.0096000e-12 5.69347100e+03 7.81860800e-03 7.29659700e-02
        2 -1    0    0  501    0 +0.0000000000e+00 +0.0000000000e+00 +3.4898139788e+03 3.4898139788e+03 0.0000000000e+00 0.0000e+00 -1.0000e+00
       -2 -1    0    0    0  501 -0.0000000000e+00 -0.0000000000e+00 -2.3221588236e+03 2.3221588236e+03 0.0000000000e+00 0.0000e+00 1.0000e+00
      -13  1    1    2    0    0 +2.0416977043e+03 -1.4927087979e+03 -7.4996354200e+02 2.6380209221e+03 0.0000000000e+00 0.0000e+00 1.0000e+00
       13  1    1    2    0    0 -2.0416977043e+03 +1.4927087979e+03 +1.9176186972e+03 3.1739518804e+03 0.0000000000e+00 0.0000e+00 -1.0000e+00
<mgrwt>
<rscale>  0 0.56934708E+04</rscale>
<asrwt>0</asrwt>
<pdfrwt beam="1">  1        2 0.53689446E+00 0.56934708E+04</pdfrwt>
<pdfrwt beam="2">  1       -2 0.35725520E+00 0.56934708E+04</pdfrwt>
<totfact> 0.67158154E-03</totfact>
</mgrwt>
<rwgt>
<wgt id='morphing_basis_vector_1'> +1.2869727e-06 </wgt>
<wgt id='morphing_basis_vector_2'> +8.9068895e-07 </wgt>
<wgt id='morphing_basis_vector_3'> +1.4233381e-06 </wgt>
<wgt id='morphing_basis_vector_4'> +1.0071219e-06 </wgt>
<wgt id='morphing_basis_vector_5'> +1.6286171e-06 </wgt>
</rwgt>
</event>
<event>
 4      1 +9.0096000e-12 5.86511200e+03 7.81860800e-03 7.27679600e-02
        2 -1    0    0  501    0 +0.0000000000e+00 +0.0000000000e+00 +3.1419519450e+03 3.1419519450e+03 0.0000000000e+00 0.0000e+00 -1.0000e+00
       -2 -1    0    0    0  501 -0.0000000000e+00 -0.0000000000e+00 -2.7371156427e+03 2.7371156427e+03 0.0000000000e+00 0.0000e+00 1.0000e+00
      -13  1    1    2    0    0 -1.2944026209e+03 +2.8663816241e+02 -2.4195744660e+03 2.7589817284e+03 0.0000000000e+00 0.0000e+00 1.0000e+00
       13  1    1    2    0    0 +1.2944026209e+03 -2.8663816241e+02 +2.8244107683e+03 3.1200858593e+03 0.0000000000e+00 0.0000e+00 -1.0000e+00
<mgrwt>
<rscale>  0 0.58651124E+04</rscale>
<asrwt>0</asrwt>
<pdfrwt beam="1">  1        2 0.48337723E+00 0.58651124E+04</pdfrwt>
<pdfrwt beam="2">  1       -2 0.42109471E+00 0.58651124E+04</pdfrwt>
<totfact> 0.44657028E-03</totfact>
</mgrwt>
<rwgt>
<wgt id='morphing_basis_vector_1'> +1.4411168e-06 </wgt>
<wgt id='morphing_basis_vector_2'> +9.8007586e-07 </wgt>
<wgt id='morphing_basis_vector_3'> +1.5901670e-06 </wgt>
<wgt id='morphing_basis_vector_4'> +1.1511330e-06 </wgt>
<wgt id='morphing_basis_vector_5'> +1.8359865e-06 </wgt>
</rwgt>
</event>
<event>
 4      1 +9.0096000e-12 6.07533200e+03 7.81860800e-03 7.25346400e-02
        2 -1    0    0  501    0 +0.0000000000e+00 +0.0000000000e+00 +4.0998020705e+03 4.0998020705e+03 0.0000000000e+00 0.0000e+00 1.0000e+00
       -2 -1    0    0    0  501 -0.0000000000e+00 -0.0000000000e+00 -2.2506976719e+03 2.2506976719e+03 0.0000000000e+00 0.0000e+00 -1.0000e+00
      -13  1    1    2    0    0 +1.7243773512e+03 +1.8235115151e+03 -8.6431684345e+02 2.6543765936e+03 0.0000000000e+00 0.0000e+00 -1.0000e+00
       13  1    1    2    0    0 -1.7243773512e+03 -1.8235115151e+03 +2.7134212420e+03 3.6961231488e+03 0.0000000000e+00 0.0000e+00 1.0000e+00
<mgrwt>
<rscale>  0 0.60753321E+04</rscale>
<asrwt>0</asrwt>
<pdfrwt beam="1">  1        2 0.63073878E+00 0.60753321E+04</pdfrwt>
<pdfrwt beam="2">  1       -2 0.34626118E+00 0.60753321E+04</pdfrwt>
<totfact> 0.24937006E-03</totfact>
</mgrwt>
<rwgt>
<wgt id='morphing_basis_vector_1'> +1.6635873e-06 </wgt>
<wgt id='morphing_basis_vector_2'> +1.1429209e-06 </wgt>
<wgt id='morphing_basis_vector_3'> +1.8388645e-06 </wgt>
<wgt id='morphing_basis_vector_4'> +1.3149190e-06 </wgt>
<wgt id='morphing_basis_vector_5'> +2.1134625e-06 </wgt>
</rwgt>
</event>
<event>
 4      1 +9.0096000e-12 5.59710300e+03 7.81860800e-03 7.30803000e-02
        2 -1    0    0  501    0 +0.0000000000e+00 +0.0000000000e+00 +2.7751425061e+03 2.7751425061e+03 0.0000000000e+00 0.0000e+00 1.0000e+00
       -2 -1    0    0    0  501 -0.0000000000e+00 -0.0000000000e+00 -2.8221582411e+03 2.8221582411e+03 0.0000000000e+00 0.0000e+00 -1.0000e+00
      -13  1    1    2    0    0 +5.0909974194e+02 +4.4420791721e+02 -2.7393702502e+03 2.8214628456e+03 0.0000000000e+00 0.0000e+00 -1.0000e+00
       13  1    1    2    0    0 -5.0909974194e+02 -4.4420791721e+02 +2.6923545152e+03 2.7758379017e+03 0.0000000000e+00 0.0000e+00 1.0000e+00
<mgrwt>
<rscale>  0 0.55971033E+04</rscale>
<asrwt>0</asrwt>
<pdfrwt beam="1">  1        2 0.42694500E+00 0.55971033E+04</pdfrwt>
<pdfrwt beam="2">  1       -2 0.43417819E+00 0.55971033E+04</pdfrwt>
<totfact> 0.64317002E-03</totfact>
</mgrwt>
<rwgt>
<wgt id='morphing_basis_vector_1'> +1.1956302e-06 </wgt>
<wgt id='morphing_basis_vector_2'> +8.1255900e-07 </wgt>
<wgt id='morphing_basis_vector_3'> +1.3186347e-06 </wgt>
<wgt id='morphing_basis_vector_4'> +9.5460948e-07 </wgt>
<wgt id='morphing_basis_vector_5'> +1.5220498e-06 </wgt>
</rwgt>
</event>
<event>
 4      1 +9.0096000e-12 5.82031400e+03 7.81860800e-03 7.28189700e-02
        2 -1    0    0  501    0 +0.0000000000e+00 +0.0000000000e+00 +2.9265151612e+03 2.9265151612e+03 0.0000000000e+00 0.0000e+00 -1.0000e+00
       -2 -1    0    0    0  501 -0.0000000000e+00 -0.0000000000e+00 -2.8938899947e+03 2.8938899947e+03 0.0000000000e+00 0.0000e+00 1.0000e+00
      -13  1    1    2    0    0 -1.9210246426e+03 -2.2211117922e+02 -2.1584270538e+03 2.8980124914e+03 0.0000000000e+00 0.0000e+00 1.0000e+00
       13  1    1    2    0    0 +1.9210246426e+03 +2.2211117922e+02 +2.1910522203e+03 2.9223926645e+03 0.0000000000e+00 0.0000e+00 -1.0000e+00
<mgrwt>
<rscale>  0 0.58203137E+04</rscale>
<asrwt>0</asrwt>
<pdfrwt beam="1">  1        2 0.45023310E+00 0.58203137E+04</pdfrwt>
<pdfrwt beam="2">  1       -2 0.44521385E+00 0.58203137E+04</pdfrwt>
<totfact> 0.42632186E-03</totfact>
</mgrwt>
<rwgt>
<wgt id='morphing_basis_vector_1'> +1.3986981e-06 </wgt>
<wgt id='morphing_basis_vector_2'> +9.5345412e-07 </wgt>
<wgt id='morphing_basis_vector_3'> +1.5437859e-06 </wgt>
<wgt id='morphing_basis_vector_4'> +1.1141351e-06 </wgt>
<wgt id='morphing_basis_vector_5'> +1.7802242e-06 </wgt>
</rwgt>
</event>
<event>
 4      1 +9.0096000e-12 5.78427600e+03 7.81860800e-03 7.28603400e-02
        2 -1    0    0  501    0 +0.0000000000e+00 +0.0000000000e+00 +3.0017863317e+03 3.0017863317e+03 0.0000000000e+00 0.0000e+00 -1.0000e+00
       -2 -1    0    0    0  501 -0.0000000000e+00 -0.0000000000e+00 -2.7864949632e+03 2.7864949632e+03 0.0000000000e+00 0.0000e+00 1.0000e+00
      -13  1    1    2    0    0 +1.0349360818e+03 +2.6164281443e+03 +7.7719310201e+02 2.9190440294e+03 0.0000000000e+00 0.0000e+00 1.0000e+00
       13  1    1    2    0    0 -1.0349360818e+03 -2.6164281443e+03 -5.6190173347e+02 2.8692372655e+03 0.0000000000e+00 0.0000e+00 -1.0000e+00
<mgrwt>
<rscale>  0 0.57842761E+04</rscale>
<asrwt>0</asrwt>
<pdfrwt beam="1">  1        2 0.46181328E+00 0.57842761E+04</pdfrwt>
<pdfrwt beam="2">  1       -2 0.42869153E+00 0.57842761E+04</pdfrwt>
<totfact> 0.49495691E-03</totfact>
</mgrwt>
<rwgt>
<wgt id='morphing_basis_vector_1'> +1.4747841e-06 </wgt>
<wgt id='morphing_basis_vector_2'> +1.2539304e-06 </wgt>
<wgt id='morphing_basis_vector_3'> +1.6858612e-06 </wgt>
<wgt id='morphing_basis_vector_4'> +8.5089750e-07 </wgt>
<wgt id='morphing_basis_vector_5'> +1.7166146e-06 </wgt>
</rwgt>
</event>
<event>
 4      1 +9.0096000e-12 5.61045400e+03 7.81860800e-03 7.30643200e-02
        2 -1    0    0  501    0 +0.0000000000e+00 +0.0000000000e+00 +3.5484075487e+03 3.5484075487e+03 0.0000000000e+00 0.0000e+00 1.0000e+00
       -2 -1    0    0    0  501 -0.0000000000e+00 -0.0000000000e+00 -2.2176988005e+03 2.2176988005e+03 0.0000000000e+00 0.0000e+00 -1.0000e+00
      -13  1    1    2    0    0 -1.5038143654e+03 +2.3599054761e+03 +4.6320571210e+02 2.8364010706e+03 0.0000000000e+00 0.0000e+00 -1.0000e+00
       13  1    1    2    0    0 +1.5038143654e+03 -2.3599054761e+03 +8.6750303611e+02 2.9297052786e+03 0.0000000000e+00 0.0000e+00 1.0000e+00
<mgrwt>
<rscale>  0 0.56104542E+04</rscale>
<asrwt>0</asrwt>
<pdfrwt beam="1">  1        2 0.54590885E+00 0.56104542E+04</pdfrwt>
<pdfrwt beam="2">  1       -2 0.34118443E+00 0.56104542E+04</pdfrwt>
<totfact> 0.77772881E-03</totfact>
</mgrwt>
<rwgt>
<wgt id='morphing_basis_vector_1'> +1.2414292e-06 </wgt>
<wgt id='morphing_basis_vector_2'> +9.2126117e-07 </wgt>
<wgt id='morphing_basis_vector_3'> +1.3872843e-06 </wgt>
<wgt id='morphing_basis_vector_4'> +8.9032353e-07 </wgt>
<wgt id='morphing_basis_vector_5'> +1.5304899e-06 </wgt>
</rwgt>
</event>
<event>
 4      1 +9.0096000e-12 5.55793500e+03 7.81860800e-03 7.31274300e-02
        2 -1    0    0  501    0 +0.0000000000e+00 +0.0000000000e+00 +4.6096914791e+03 4.6096914791e+03 0.0000000000e+00 0.0000e+00 -1.0000e+00
       -2 -1    0    0    0  501 -0.0000000000e+00 -0.0000000000e+00 -1.6753098937e+03 1.6753098937e+03 0.0000000000e+00 0.0000e+00 1.0000e+00
      -13  1    1    2    0    0 +4.2699742437e+02 +6.2735171328e+02 -1.5558681758e+03 1.7310756058e+03 0.0000000000e+00 0.0000e+00 1.0000e+00
       13  1    1    2    0    0 -4.2699742437e+02 -6.2735171328e+02 +4.4902497612e+03 4.5539257669e+03 0.0000000000e+00 0.0000e+00 -1.0000e+00
<mgrwt>
<rscale>  0 0.55579355E+04</rscale>
<asrwt>0</asrwt>
<pdfrwt beam="1">  1        2 0.70918330E+00 0.55579355E+04</pdfrwt>
<pdfrwt beam="2">  1       -2 0.25773999E+00 0.55579355E+04</pdfrwt>
<totfact> 0.32294792E-03</totfact>
</mgrwt>
<rwgt>
<wgt id='morphing_basis_vector_1'> +1.1626058e-06 </wgt>
<wgt id='morphing_basis_vector_2'> +7.9009580e-07 </wgt>
<wgt id='morphing_basis_vector_3'> +1.2821278e-06 </wgt>
<wgt id='morphing_basis_vector_4'> +9.2808760e-07 </wgt>
<wgt id='morphing_basis_vector_5'> +1.4797833e-06 </wgt>
</rwgt>
</event>
<event>
 4      1 +9.0096000e-12 6.35327400e+03 7.81860800e-03 7.22404800e-02
        2 -1    0    0  501    0 +0.0000000000e+00 +0.0000000000e+00 +3.0936155952e+03 3.0936155952e+03 0.0000000000e+00 0.0000e+00 1.0000e+00
       -2 -1    0    0    0  501 -0.0000000000e+00 -0.0000000000e+00 -3.2618867347e+03 3.2618867347e+03 0.0000000000e+00 0.0000e+00 -1.0000e+00
      -13  1    1    2    0    0 -5.2868833476e+02 +8.2365058520e+02 -3.1072992860e+03 3.2577938078e+03 0.0000000000e+00 0.0000e+00 -1.0000e+00
       13  1    1    2    0    0 +5.2868833476e+02 -8.2365058520e+02 +2.9390281465e+03 3.0977085221e+03 0.0000000000e+00 0.0000e+00 1.0000e+00
<mgrwt>
<rscale>  0 0.63532743E+04</rscale>
<asrwt>0</asrwt>
<pdfrwt beam="1">  1        2 0.47594086E+00 0.63532743E+04</pdfrwt>
<pdfrwt beam="2">  1       -2 0.50182873E+00 0.63532743E+04</pdfrwt>
<totfact> 0.12334227E-03</totfact>
</mgrwt>
<rwgt>
<wgt id='morphing_basis_vector_1'> +1.9825791e-06 </wgt>
<wgt id='morphing_basis_vector_2'> +1.3484120e-06 </wgt>
<wgt id='morphing_basis_vector_3'> +2.1889628e-06 </wgt>
<wgt id='morphing_basis_vector_4'> +1.5864445e-06 </wgt>
<wgt id='morphing_basis_vector_5'> +2.5296282e-06 </wgt>
</rwgt>
</event>
<event>
 4      1 +9.0096000e-12 6.02225600e+03 7.81860800e-03 7.25926300e-02
        2 -1    0    0  501    0 +0.0000000000e+00 +0.0000000000e+00 +4.4246968941e+03 4.4246968941e+03 0.0000000000e+00 0.0000e+00 -1.0000e+00
       -2 -1    0    0    0  501 -0.0000000000e+00 -0.0000000000e+00 -2.0491552234e+03 2.0491552234e+03 0.0000000000e+00 0.0000e+00 1.0000e+00
      -13  1    1    2    0    0 -8.2454740614e+02 -1.9128692546e+03 -1.1496651638e+03 2.3792177704e+03 0.0000000000e+00 0.0000e+00 1.0000e+00
       13  1    1    2    0    0 +8.2454740614e+02 +1.9128692546e+03 +3.5252068346e+03 4.0946343471e+03 0.0000000000e+00 0.0000e+00 -1.0000e+00
<mgrwt>
<rscale>  0 0.60222556E+04</rscale>
<asrwt>0</asrwt>
<pdfrwt beam="1">  1        2 0.68072260E+00 0.60222556E+04</pdfrwt>
<pdfrwt beam="2">  1       -2 0.31525465E+00 0.60222556E+04</pdfrwt>
<totfact> 0.19822513E-03</totfact>
</mgrwt>
<rwgt>
<wgt id='morphing_basis_vector_1'> +1.6029739e-06 </wgt>
<wgt id='morphing_basis_vector_2'> +1.0936664e-06 </wgt>
<wgt id='morphing_basis_vector_3'> +1.7699583e-06 </wgt>
<wgt id='morphing_basis_vector_4'> +1.2766664e-06 </wgt>
<wgt id='morphing_basis_vector_5'> +2.0410188e-06 </wgt>
</rwgt>
</event>
<event>
 4      1 +9.0096000e-12 5.61332700e+03 7.81860800e-03 7.30608900e-02
        2 -1    0    0  501    0 +0.0000000000e+00 +0.0000000000e+00 +3.3009489547e+03 3.3009489547e+03 0.0000000000e+00 0.0000e+00 1.0000e+00
       -2 -1    0    0    0  501 -0.0000000000e+00 -0.0000000000e+00 -2.3863928146e+03 2.3863928146e+03 0.0000000000e+00 0.0000e+00 -1.0000e+00
      -13  1    1    2    0    0 -2.5254337412e+03 +5.6833936186e+02 -6.4170627848e+02 2.6669480984e+03 0.0000000000e+00 0.0000e+00 -1.0000e+00
       13  1    1    2    0    0 +2.5254337412e+03 -5.6833936186e+02 +1.5562624187e+03 3.0203936709e+03 0.0000000000e+00 0.0000e+00 1.0000e+00
<mgrwt>
<rscale>  0 0.56133273E+04</rscale>
<asrwt>0</asrwt>
<pdfrwt beam="1">  1        2 0.50783830E+00 0.56133273E+04</pdfrwt>
<pdfrwt beam="2">  1       -2 0.36713735E+00 0.56133273E+04</pdfrwt>
<totfact> 0.79601708E-03</totfact>
</mgrwt>
<rwgt>
<wgt id='morphing_basis_vector_1'> +1.2189818e-06 </wgt>
<wgt id='morphing_basis_vector_2'> +8.4979769e-07 </wgt>
<wgt id='morphing_basis_vector_3'> +1.3494118e-06 </wgt>
<wgt id='morphing_basis_vector_4'> +9.4553252e-07 </wgt>
<wgt id='morphing_basis_vector_5'> +1.5381201e-06 </wgt>
</rwgt>
</event>
<event>
 4      1 +9.0096000e-12 5.67464300e+03 7.81860800e-03 7.29881300e-02
        2 -1    0    0  501    0 +0.0000000000e+00 +0.0000000000e+00 +2.8998890264e+03 2.8998890264e+03 0.0000000000e+00 0.0000e+00 1.0000e+00
       -2 -1    0    0    0  501 -0.0000000000e+00 -0.0000000000e+00 -2.7761036542e+03 2.7761036542e+03 0.0000000000e+00 0.0000e+00 -1.0000e+00
      -13  1    1    2    0    0 -2.6579839885e+00 +2.2048499958e+03 -1.7243154263e+03 2.7990416678e+03 0.0000000000e+00 0.0000e+00 -1.0000e+00
       13  1    1    2    0    0 +2.6579839885e+00 -2.2048499958e+03 +1.8481007985e+03 2.8769510128e+03 0.0000000000e+00 0.0000e+00 1.0000e+00
<mgrwt>
<rscale>  0 0.56746427E+04</rscale>
<asrwt>0</asrwt>
<pdfrwt beam="1">  1        2 0.44613677E+00 0.56746427E+04</pdfrwt>
<pdfrwt beam="2">  1       -2 0.42709287E+00 0.56746427E+04</pdfrwt>
<totfact> 0.59516045E-03</totfact>
</mgrwt>
<rwgt>
<wgt id='morphing_basis_vector_1'> +1.2657385e-06 </wgt>
<wgt id='morphing_basis_vector_2'> +8.6624465e-07 </wgt>
<wgt id='morphing_basis_vector_3'> +1.3975352e-06 </wgt>
<wgt id='morphing_basis_vector_4'> +1.0031028e-06 </wgt>
<wgt id='morphing_basis_vector_5'> +1.6079075e-06 </wgt>
</rwgt>
</event>
<event>
 4      1 +9.0096000e-12 5.91796900e+03 7.81860800e-03 7.27083700e-02
        2 -1    0    0  501    0 +0.0000000000e+00 +0.0000000000e+00 +4.7719077773e+03 4.7719077773e+03 0.0000000000e+00 0.0000e+00 -1.0000e+00
       -2 -1    0    0    0  501 -0.0000000000e+00 -0.0000000000e+00 -1.8348192325e+03 1.8348192325e+03 0.0000000000e+00 0.0000e+00 1.0000e+00
      -13  1    1    2    0    0 +1.2553798530e+03 +4.8955831097e+02 -1.4724327535e+03 1.9959218744e+03 0.0000000000e+00 0.0000e+00 1.0000e+00
       13  1    1    2    0    0 -1.2553798530e+03 -4.8955831097e+02 +4.4095212984e+03 4.6108051354e+03 0.0000000000e+00 0.0000e+00 -1.0000e+00
<mgrwt>
<rscale>  0 0.59179686E+04</rscale>
<asrwt>0</asrwt>
<pdfrwt beam="1">  1        2 0.73413965E+00 0.59179686E+04</pdfrwt>
<pdfrwt beam="2">  1       -2 0.28227988E+00 0.59179686E+04</pdfrwt>
<totfact> 0.13990347E-03</totfact>
</mgrwt>
<rwgt>
<wgt id='morphing_basis_vector_1'> +1.4936521e-06 </wgt>
<wgt id='morphing_basis_vector_2'> +1.0158715e-06 </wgt>
<wgt id='morphing_basis_vector_3'> +1.6482703e-06 </wgt>
<wgt id='morphing_basis_vector_4'> +1.1932747e-06 </wgt>
<wgt id='morphing_basis_vector_5'> +1.9032247e-06 </wgt>
</rwgt>
</event>
<event>
 4      1 +9.0096000e-12 5.88188300e+03 7.81860800e-03 7.27489800e-02
        2 -1    0    0  501    0 +0.0000000000e+00 +0.0000000000e+00 +3.6752194988e+03 3.6752194988e+03 0.0000000000e+00 0.0000e+00 -1.0000e+00
       -2 -1    0    0    0  501 -0.0000000000e+00 -0.0000000000e+00 -2.3533657339e+03 2.3533657339e+03 0.0000000000e+00 0.0000e+00 1.0000e+00
      -13  1    1    2    0    0 -5.5825166191e+02 +2.9595025123e+02 -2.2829761958e+03 2.3687996496e+03 0.0000000000e+00 0.0000e+00 1.0000e+00
       13  1    1    2    0    0 +5.5825166191e+02 -2.9595025123e+02 +3.6048299607e+03 3.6597855832e+03 0.0000000000e+00 0.0000e+00 -1.0000e+00
<mgrwt>
<rscale>  0 0.58818826E+04</rscale>
<asrwt>0</asrwt>
<pdfrwt beam="1">  1        2 0.56541838E+00 0.58818826E+04</pdfrwt>
<pdfrwt beam="2">  1       -2 0.36205627E+00 0.58818826E+04</pdfrwt>
<totfact> 0.44751193E-03</totfact>
</mgrwt>
<rwgt>
<wgt id='morphing_basis_vector_1'> +1.4574445e-06 </wgt>
<wgt id='morphing_basis_vector_2'> +9.9077735e-07 </wgt>
<wgt id='morphing_basis_vector_3'> +1.6081262e-06 </wgt>
<wgt id='morphing_basis_vector_4'> +1.1647826e-06 </wgt>
<wgt id='morphing_basis_vector_5'> +1.8571575e-06 </wgt>
</rwgt>
</event>
<event>
 4      1 +9.0096000e-12 6.01438300e+03 7.81860800e-03 7.26012900e-02
        2 -1    0    0  501    0 +0.0000000000e+00 +0.0000000000e+00 +3.4631586657e+03 3.4631586657e+03 0.0000000000e+00 0.0000e+00 -1.0000e+00
       -2 -1    0    0    0  501 -0.0000000000e+00 -0.0000000000e+00 -2.6112582237e+03 2.6112582237e+03 0.0000000000e+00 0.0000e+00 1.0000e+00
      -13  1    1    2    0    0 +4.3572702005e+02 +1.8103795360e+03 -1.9589476834e+03 2.7027408545e+03 0.0000000000e+00 0.0000e+00 1.0000e+00
       13  1    1    2    0    0 -4.3572702005e+02 -1.8103795360e+03 +2.8108481255e+03 3.3716760350e+03 0.0000000000e+00 0.0000e+00 -1.0000e+00
<mgrwt>
<rscale>  0 0.60143833E+04</rscale>
<asrwt>0</asrwt>
<pdfrwt beam="1">  1        2 0.53279364E+00 0.60143833E+04</pdfrwt>
<pdfrwt beam="2">  1       -2 0.40173204E+00 0.60143833E+04</pdfrwt>
<totfact> 0.35362122E-03</totfact>
</mgrwt>
<rwgt>
<wgt id='morphing_basis_vector_1'> +1.5938779e-06 </wgt>
<wgt id='morphing_basis_vector_2'> +1.0857637e-06 </wgt>
<wgt id='morphing_basis_vector_3'> +1.7594987e-06 </wgt>
<wgt id='morphing_basis_vector_4'> +1.2715935e-06 </wgt>
<wgt id='morphing_basis_vector_5'> +2.0304792e-06 </wgt>
</rwgt>
</event>
<event>
 4      1 +9.0096000e-12 5.66088700e+03 7.81860800e-03 7.30043700e-02
        2 -1    0    0  501    0 +0.0000000000e+00 +0.0000000000e+00 +4.0136936759e+03 4.0136936759e+03 0.0000000000e+00 0.0000e+00 1.0000e+00
       -2 -1    0    0    0  501 -0.0000000000e+00 -0.0000000000e+00 -1.9960192961e+03 1.9960192961e+03 0.0000000000e+00 0.0000e+00 -1.0000e+00
      -13  1    1    2    0    0 -2.5474398226e+03 -1.0087202234e+03 +2.5482965366e+02 2.7517093399e+03 0.0000000000e+00 0.0000e+00 -1.0000e+00
       13  1    1    2    0    0 +2.5474398226e+03 +1.0087202234e+03 +1.7628447261e+03 3.2580036322e+03 0.0000000000e+00 0.0000e+00 1.0000e+00
<mgrwt>
<rscale>  0 0.56608869E+04</rscale>
<asrwt>0</asrwt>
<pdfrwt beam="1">  1        2 0.61749134E+00 0.56608869E+04</pdfrwt>
<pdfrwt beam="2">  1       -2 0.30707989E+00 0.56608869E+04</pdfrwt>
<totfact> 0.55489955E-03</totfact>
</mgrwt>
<rwgt>
<wgt id='morphing_basis_vector_1'> +1.2685480e-06 </wgt>
<wgt id='morphing_basis_vector_2'> +9.0193825e-07 </wgt>
<wgt id='morphing_basis_vector_3'> +1.4084970e-06 </wgt>
<wgt id='morphing_basis_vector_4'> +9.6132238e-07 </wgt>
<wgt id='morphing_basis_vector_5'> +1.5896405e-06 </wgt>
</rwgt>
</event>
<event>
 4      1 +9.0096000e-12 5.73416400e+03 7.81860800e-03 7.29183900e-02
        2 -1    0    0  501    0 +0.0000000000e+00 +0.0000000000e+00 +2.8428446473e+03 2.8428446473e+03 0.0000000000e+00 0.0000e+00 -1.0000e+00
       -2 -1    0    0    0  501 -0.0000000000e+00 -0.0000000000e+00 -2.8915259154e+03 2.8915259154e+03 0.0000000000e+00 0.0000e+00 1.0000e+00
      -13  1    1    2    0    0 +1.1915958514e+03 -1.6091369378e+03 +2.0277899943e+03 2.8497639584e+03 0.0000000000e+00 0.0000e+00 1.0000e+00
       13  1    1    2    0    0 -1.1915958514e+03 +1.6091369378e+03 -2.0764712624e+03 2.8846066043e+03 0.0000000000e+00 0.0000e+00 -1.0000e+00
<mgrwt>
<rscale>  0 0.57341639E+04</rscale>
<asrwt>0</asrwt>
<pdfrwt beam="1">  1        2 0.43736072E+00 0.57341639E+04</pdfrwt>
<pdfrwt beam="2">  1       -2 0.44485014E+00 0.57341639E+04</pdfrwt>
<totfact> 0.48796811E-03</totfact>
</mgrwt>
<rwgt>
<wgt id='morphing_basis_vector_1'> +1.7078953e-06 </wgt>
<wgt id='morphing_basis_vector_2'> +2.0431279e-06 </wgt>
<wgt id='morphing_basis_vector_3'> +2.0903628e-06 </wgt>
<wgt id='morphing_basis_vector_4'> +2.1593499e-07 </wgt>
<wgt id='morphing_basis_vector_5'> +1.6068427e-06 </wgt>
</rwgt>
</event>
<event>
 4      1 +9.0096000e-12 6.45672000e+03 7.81860800e-03 7.21348800e-02
        2 -1    0    0  501    0 +0.0000000000e+00 +0.0000000000e+00 +4.2863069623e+03 4.2863069623e+03 0.0000000000e+00 0.0000e+00 1.0000e+00
       -2 -1    0    0    0  501 -0.0000000000e+00 -0.0000000000e+00 -2.4315355988e+03 2.4315355988e+03 0.0000000000e+00 0.0000e+00 -1.0000e+00
      -13  1    1    2    0    0 -3.8375169479e+02 -1.9707683361e+03 -1.7029197581e+03 2.6327037244e+03 0.0000000000e+00 0.0000e+00 -1.0000e+00
       13  1    1    2    0    0 +3.8375169479e+02 +1.9707683361e+03 +3.5576911217e+03 4.0851388367e+03 0.0000000000e+00 0.0000e+00 1.0000e+00
<mgrwt>
<rscale>  0 0.64567199E+04</rscale>
<asrwt>0</asrwt>
<pdfrwt beam="1">  1        2 0.65943184E+00 0.64567199E+04</pdfrwt>
<pdfrwt beam="2">  1       -2 0.37408240E+00 0.64567199E+04</pdfrwt>
<totfact> 0.10830181E-03</totfact>
</mgrwt>
<rwgt>
<wgt id='morphing_basis_vector_1'> +2.1158401e-06 </wgt>
<wgt id='morphing_basis_vector_2'> +1.4419192e-06 </wgt>
<wgt id='morphing_basis_vector_3'> +2.3370296e-06 </wgt>
<wgt id='morphing_basis_vector_4'> +1.6899047e-06 </wgt>
<wgt id='morphing_basis_vector_5'> +2.6985639e-06 </wgt>
</rwgt>
</event>
<event>
 4      1 +9.0096000e-12 5.56978500e+03 7.81860800e-03 7.31131300e-02
        2 -1    0    0  501    0 +0.0000000000e+00 +0.0000000000e+00 +4.3700403577e+03 4.3700403577e+03 0.0000000000e+00 0.0000e+00 -1.0000e+00
       -2 -1    0    0    0  501 -0.0000000000e+00 -0.0000000000e+00 -1.7747264610e+03 1.7747264610e+03 0.0000000000e+00 0.0000e+00 1.0000e+00
      -13  1    1    2    0    0 +2.3895439200e+03 -8.0665050892e+02 -5.3818843293e+00 2.5220297686e+03 0.0000000000e+00 0.0000e+00 1.0000e+00
       13  1    1    2    0    0 -2.3895439200e+03 +8.0665050892e+02 +2.6006957810e+03 3.6227370501e+03 0.0000000000e+00 0.0000e+00 -1.0000e+00
<mgrwt>
<rscale>  0 0.55697850E+04</rscale>
<asrwt>0</asrwt>
<pdfrwt beam="1">  1        2 0.67231390E+00 0.55697850E+04</pdfrwt>
<pdfrwt beam="2">  1       -2 0.27303484E+00 0.55697850E+04</pdfrwt>
<totfact> 0.44800071E-03</totfact>
</mgrwt>
<rwgt>
<wgt id='morphing_basis_vector_1'> +1.1802057e-06 </wgt>
<wgt id='morphing_basis_vector_2'> +8.1939456e-07 </wgt>
<wgt id='morphing_basis_vector_3'> +1.3056069e-06 </wgt>
<wgt id='morphing_basis_vector_4'> +9.1964278e-07 </wgt>
<wgt id='morphing_basis_vector_5'> +1.4910977e-06 </wgt>
</rwgt>
</event>
<event>
 4      1 +9.0096000e-12 5.67459100e+03 7.81860800e-03 7.29881900e-02
        2 -1    0    0  501    0 +0.0000000000e+00 +0.0000000000e+00 +4.0526199327e+03 4.0526199327e+03 0.0000000000e+00 0.0000e+00 1.0000e+00
       -2 -1    0    0    0  501 -0.0000000000e+00 -0.0000000000e+00 -1.9864297088e+03 1.9864297088e+03 0.0000000000e+00 0.0000e+00 -1.0000e+00
      -13  1    1    2    0    0 +1.1609672728e+03 -7.4354231849e+02 -1.6060030074e+03 2.1165882566e+03 0.0000000000e+00 0.0000e+00 -1.0000e+00
       13  1    1    2    0    0 -1.1609672728e+03 +7.4354231849e+02 +3.6721932313e+03 3.9224613849e+03 0.0000000000e+00 0.0000e+00 1.0000e+00
<mgrwt>
<rscale>  0 0.56745906E+04</rscale>
<asrwt>0</asrwt>
<pdfrwt beam="1">  1        2 0.62347999E+00 0.56745906E+04</pdfrwt>
<pdfrwt beam="2">  1       -2 0.30560457E+00 0.56745906E+04</pdfrwt>
<totfact> 0.52490547E-03</totfact>
</mgrwt>
<rwgt>
<wgt id='morphing_basis_vector_1'> +1.2632697e-06 </wgt>
<wgt id='morphing_basis_vector_2'> +8.5910152e-07 </wgt>
<wgt id='morphing_basis_vector_3'> +1.3935349e-06 </wgt>
<wgt id='morphing_basis_vector_4'> +1.0082424e-06 </wgt>
<wgt id='morphing_basis_vector_5'> +1.6082833e-06 </wgt>
</rwgt>
</event>
<event>
 4      1 +9.0096000e-12 5.78558400e+03 7.81860800e-03 7.28588400e-02
        2 -1    0    0  501    0 +0.0000000000e+00 +0.0000000000e+00 +2.4389803434e+03 2.4389803434e+03 0.0000000000e+00 0.0000e+00 1.0000e+00
       -2 -1    0    0    0  501 -0.0000000000e+00 -0.0000000000e+00 -3.4310424839e+03 3.4310424839e+03 0.0000000000e+00 0.0000e+00 -1.0000e+00
      -13  1    1    2    0    0 -1.5138595904e+03 -2.2644104980e+03 -1.4843730954e+03 3.1020459779e+03 0.0000000000e+00 0.0000e+00 -1.0000e+00
       13  1    1    2    0    0 +1.5138595904e+03 +2.2644104980e+03 +4.9231095488e+02 2.7679768494e+03 0.0000000000e+00 0.0000e+00 1.0000e+00
<mgrwt>
<rscale>  0 0.57855839E+04</rscale>
<asrwt>0</asrwt>
<pdfrwt beam="1">  1        2 0.37522774E+00 0.57855839E+04</pdfrwt>
<pdfrwt beam="2">  1       -2 0.52785269E+00 0.57855839E+04</pdfrwt>
<totfact> 0.21121435E-03</totfact>
</mgrwt>
<rwgt>
<wgt id='morphing_basis_vector_1'> +1.3778961e-06 </wgt>
<wgt id='morphing_basis_vector_2'> +9.6674754e-07 </wgt>
<wgt id='morphing_basis_vector_3'> +1.5271801e-06 </wgt>
<wgt id='morphing_basis_vector_4'> +1.0616302e-06 </wgt>
<wgt id='morphing_basis_vector_5'> +1.7358214e-06 </wgt>
</rwgt>
</event>
<event>
 4      1 +9.0096000e-12 5.98140300e+03 7.81860800e-03 7.26376800e-02
        2 -1    0    0  501    0 +0.0000000000e+00 +0.0000000000e+00 +3.2191889793e+03 3.2191889793e+03 0.0000000000e+00 0.0000e+00 1.0000e+00
       -2 -1    0    0    0  501 -0.0000000000e+00 -0.0000000000e+00 -2.7784316700e+03 2.7784316700e+03 0.0000000000e+00 0.0000e+00 -1.0000e+00
      -13  1    1    2    0    0 -2.9659120309e+02 +2.1554198049e+03 -1.8371340087e+03 2.8476064059e+03 0.0000000000e+00 0.0000e+00 -1.0000e+00
       13  1    1    2    0    0 +2.9659120309e+02 -2.1554198049e+03 +2.2778913180e+03 3.1500142434e+03 0.0000000000e+00 0.0000e+00 1.0000e+00
<mgrwt>
<rscale>  0 0.59814034E+04</rscale>
<asrwt>0</asrwt>
<pdfrwt beam="1">  1        2 0.49525985E+00 0.59814034E+04</pdfrwt>
<pdfrwt beam="2">  1       -2 0.42745102E+00 0.59814034E+04</pdfrwt>
<totfact> 0.35593444E-03</totfact>
</mgrwt>
<rwgt>
<wgt id='morphing_basis_vector_1'> +1.5605614e-06 </wgt>
<wgt id='morphing_basis_vector_2'> +1.0659182e-06 </wgt>
<wgt id='morphing_basis_vector_3'> +1.7233155e-06 </wgt>
<wgt id='morphing_basis_vector_4'> +1.2411367e-06 </wgt>
<wgt id='morphing_basis_vector_5'> +1.9859814e-06 </wgt>
</rwgt>
</event>
<event>
 4      1 +9.0096000e-12 5.82570300e+03 7.81860800e-03 7.28128100e-02
        2 -1    0    0  501    0 +0.0000000000e+00 +0.0000000000e+00 +2.7840668813e+03 2.7840668813e+03 0.0000000000e+00 0.0000e+00 1.0000e+00
       -2 -1    0    0    0  501 -0.0000000000e+00 -0.0000000000e+00 -3.0475936973e+03 3.0475936973e+03 0.0000000000e+00 0.0000e+00 -1.0000e+00
      -13  1    1    2    0    0 -3.2688547210e+02 +2.5847365210e+03 -1.4357803174e+03 2.9747574884e+03 0.0000000000e+00 0.0000e+00 -1.0000e+00
       13  1    1    2    0    0 +3.2688547210e+02 -2.5847365210e+03 +1.1722535015e+03 2.8569030902e+03 0.0000000000e+00 0.0000e+00 1.0000e+00
<mgrwt>
<rscale>  0 0.58257033E+04</rscale>
<asrwt>0</asrwt>
<pdfrwt beam="1">  1        2 0.42831798E+00 0.58257033E+04</pdfrwt>
<pdfrwt beam="2">  1       -2 0.46886057E+00 0.58257033E+04</pdfrwt>
<totfact> 0.35671976E-03</totfact>
</mgrwt>
<rwgt>
<wgt id='morphing_basis_vector_1'> +1.4109094e-06 </wgt>
<wgt id='morphing_basis_vector_2'> +9.7764044e-07 </wgt>
<wgt id='morphing_basis_vector_3'> +1.5609899e-06 </wgt>
<wgt id='morphing_basis_vector_4'> +1.1032344e-06 </wgt>
<wgt id='morphing_basis_vector_5'> +1.7855780e-06 </wgt>
</rwgt>
</event>
<event>
 4      1 +9.0096000e-12 5.63556000e+03 7.81860800e-03 7.30343900e-02
        2 -1    0    0  501    0 +0.0000000000e+00 +0.0000000000e+00 +2.9329119208e+03 2.9329119208e+03 0.0000000000e+00 0.0000e+00 -1.0000e+00
       -2 -1    0    0    0  501 -0.0000000000e+00 -0.0000000000e+00 -2.7071677012e+03 2.7071677012e+03 0.0000000000e+00 0.0000e+00 1.0000e+00
      -13  1    1    2    0    0 +2.3132192825e+02 +2.0352496502e+03 -1.8236560154e+03 2.7425302616e+03 0.0000000000e+00 0.0000e+00 1.0000e+00
       13  1    1    2    0    0 -2.3132192825e+02 -2.0352496502e+03 +2.0494002350e+03 2.8975493605e+03 0.0000000000e+00 0.0000e+00 -1.0000e+00
<mgrwt>
<rscale>  0 0.56355601E+04</rscale>
<asrwt>0</asrwt>
<pdfrwt beam="1">  1        2 0.45121722E+00 0.56355601E+04</pdfrwt>
<pdfrwt beam="2">  1       -2 0.41648734E+00 0.56355601E+04</pdfrwt>
<totfact> 0.66883317E-03</totfact>
</mgrwt>
<rwgt>
<wgt id='morphing_basis_vector_1'> +1.2304575e-06 </wgt>
<wgt id='morphing_basis_vector_2'> +8.4013292e-07 </wgt>
<wgt id='morphing_basis_vector_3'> +1.3580389e-06 </wgt>
<wgt id='morphing_basis_vector_4'> +9.7751908e-07 </wgt>
<wgt id='morphing_basis_vector_5'> +1.5641137e-06 </wgt>
</rwgt>
</event>
<event>
 4      1 +9.0096000e-12 5.72021800e+03 7.81860800e-03 7.29346500e-02
        2 -1    0    0  501    0 +0.0000000000e+00 +0.0000000000e+00 +3.9366260276e+03 3.9366260276e+03 0.0000000000e+00 0.0000e+00 -1.0000e+00
       -2 -1    0    0    0  501 -0.0000000000e+00 -0.0000000000e+00 -2.0779786290e+03 2.0779786290e+03 0.0000000000e+00 0.0000e+00 1.0000e+00
      -13  1    1    2    0    0 +8.2592972555e+02 +2.0147453431e+03 -1.0205303376e+03 2.4047538084e+03 0.0000000000e+00 0.0000e+00 1.0000e+00
       13  1    1    2    0    0 -8.2592972555e+02 -2.0147453431e+03 +2.8791777362e+03 3.6098508482e+03 0.0000000000e+00 0.0000e+00 -1.0000e+00
<mgrwt>
<rscale>  0 0.57202184E+04</rscale>
<asrwt>0</asrwt>
<pdfrwt beam="1">  1        2 0.60563477E+00 0.57202184E+04</pdfrwt>
<pdfrwt beam="2">  1       -2 0.31968902E+00 0.57202184E+04</pdfrwt>
<totfact> 0.52877136E-03</totfact>
</mgrwt>
<rwgt>
<wgt id='morphing_basis_vector_1'> +1.3064595e-06 </wgt>
<wgt id='morphing_basis_vector_2'> +8.9341724e-07 </wgt>
<wgt id='morphing_basis_vector_3'> +1.4424334e-06 </wgt>
<wgt id='morphing_basis_vector_4'> +1.0364999e-06 </wgt>
<wgt id='morphing_basis_vector_5'> +1.6603772e-06 </wgt>
</rwgt>
</event>
<event>
 4      1 +9.0096000e-12 6.26593900e+03 7.81860800e-03 7.23312400e-02
        2 -1    0    0  501    0 +0.0000000000e+00 +0.0000000000e+00 +3.5141093135e+03 3.5141093135e+03 0.0000000000e+00 0.0000e+00 -1.0000e+00
       -2 -1    0    0    0  501 -0.0000000000e+00 -0.0000000000e+00 -2.7931677041e+03 2.7931677041e+03 0.0000000000e+00 0.0000e+00 1.0000e+00
      -13  1    1    2    0    0 -2.3321826508e+03 +2.0832469249e+03 +1.6815281675e+02 3.1316559576e+03 0.0000000000e+00 0.0000e+00 1.0000e+00
       13  1    1    2    0    0 +2.3321826508e+03 -2.0832469249e+03 +5.5278879265e+02 3.1756210599e+03 0.0000000000e+00 0.0000e+00 -1.0000e+00
<mgrwt>
<rscale>  0 0.62659386E+04</rscale>
<asrwt>0</asrwt>
<pdfrwt beam="1">  1        2 0.54063220E+00 0.62659386E+04</pdfrwt>
<pdfrwt beam="2">  1       -2 0.42971811E+00 0.62659386E+04</pdfrwt>
<totfact> 0.20799588E-03</totfact>
</mgrwt>
<rwgt>
<wgt id='morphing_basis_vector_1'> +1.9312596e-06 </wgt>
<wgt id='morphing_basis_vector_2'> +1.4380023e-06 </wgt>
<wgt id='morphing_basis_vector_3'> +2.1613988e-06 </wgt>
<wgt id='morphing_basis_vector_4'> +1.3825501e-06 </wgt>
<wgt id='morphing_basis_vector_5'> +2.3831564e-06 </wgt>
</rwgt>
</event>
<event>
 4      1 +9.0096000e-12 6.64558500e+03 7.81860800e-03 7.19471400e-02
        2 -1    0    0  501    0 +0.0000000000e+00 +0.0000000000e+00 +2.0250097311e+03 2.0250097311e+03 0.0000000000e+00 0.0000e+00 1.0000e+00
       -2 -1    0    0    0  501 -0.0000000000e+00 -0.0000000000e+00 -5.4522948235e+03 5.4522948235e+03 0.0000000000e+00 0.0000e+00 -1.0000e+00
      -13  1    1    2    0    0 +1.2366227667e+03 -2.9597153557e+03 -7.3806277448e+02 3.2914871279e+03 0.0000000000e+00 0.0000e+00 1.0000e+00
       13  1    1    2    0    0 -1.2366227667e+03 +2.9597153557e+03 -2.6892223179e+03 4.1858174267e+03 0.0000000000e+00 0.0000e+00 -1.0000e+00
<mgrwt>
<rscale>  0 0.66455850E+04</rscale>
<asrwt>0</asrwt>
<pdfrwt beam="1">  1        2 0.31153997E+00 0.66455850E+04</pdfrwt>
<pdfrwt beam="2">  1       -2 0.83881457E+00 0.66455850E+04</pdfrwt>
<totfact> 0.35833671E-04</totfact>
</mgrwt>
<rwgt>
<wgt id='morphing_basis_vector_1'> +2.5863156e-06 </wgt>
<wgt id='morphing_basis_vector_2'> +2.2412305e-06 </wgt>
<wgt id='morphing_basis_vector_3'> +2.9703192e-06 </wgt>
<wgt id='morphing_basis_vector_4'> +1.4418394e-06 </wgt>
<wgt id='morphing_basis_vector_5'> +2.9907489e-06 </wgt>
</rwgt>
</event>
<event>
 4      1 +9.0096000e-12 5.90436500e+03 7.81860800e-03 7.27236500e-02
        2 -1    0    0  501    0 +0.0000000000e+00 +0.0000000000e+00 +3.3021159317e+03 3.3021159317e+03 0.0000000000e+00 0.0000e+00 -1.0000e+00
       -2 -1    0    0    0  501 -0.0000000000e+00 -0.0000000000e+00 -2.6393321377e+03 2.6393321377e+03 0.0000000000e+00 0.0000e+00 1.0000e+00
      -13  1    1    2    0    0 -1.4288979199e+03 +1.2152904573e+03 -1.9625529622e+03 2.7148285932e+03 0.0000000000e+00 0.0000e+00 1.0000e+00
       13  1    1    2    0    0 +1.4288979199e+03 -1.2152904573e+03 +2.6253367562e+03 3.2266194762e+03 0.0000000000e+00 0.0000e+00 -1.0000e+00
<mgrwt>
<rscale>  0 0.59043647E+04</rscale>
<asrwt>0</asrwt>
<pdfrwt beam="1">  1        2 0.50801784E+00 0.59043647E+04</pdfrwt>
<pdfrwt beam="2">  1       -2 0.40605110E+00 0.59043647E+04</pdfrwt>
<totfact> 0.43485399E-03</totfact>
</mgrwt>
<rwgt>
<wgt id='morphing_basis_vector_1'> +1.4807915e-06 </wgt>
<wgt id='morphing_basis_vector_2'> +1.0089023e-06 </wgt>
<wgt id='morphing_basis_vector_3'> +1.6344651e-06 </wgt>
<wgt id='morphing_basis_vector_4'> +1.1806179e-06 </wgt>
<wgt id='morphing_basis_vector_5'> +1.8856027e-06 </wgt>
</rwgt>
</event>
<event>
 4      1 +9.0096000e-12 5.58136600e+03 7.81860800e-03 7.30991900e-02
        2 -1    0    0  501    0 +0.0000000000e+00 +0.0000000000e+00 +2.0059546223e+03 2.0059546223e+03 0.0000000000e+00 0.0000e+00 1.0000e+00
       -2 -1    0    0    0  501 -0.0000000000e+00 -0.0000000000e+00 -3.8823965013e+03 3.8823965013e+03 0.0000000000e+00 0.0000e+00 -1.0000e+00
      -13  1    1    2    0    0 +1.2657840634e+03 +2.3048704321e+03 +4.7669201175e+01 2.6300017788e+03 0.0000000000e+00 0.0000e+00 1.0000e+00
       13  1    1    2    0    0 -1.2657840634e+03 -2.3048704321e+03 -1.9241110803e+03 3.2583493448e+03 0.0000000000e+00 0.0000e+00 -1.0000e+00
<mgrwt>
<rscale>  0 0.55813659E+04</rscale>
<asrwt>0</asrwt>
<pdfrwt beam="1">  1        2 0.30860840E+00 0.55813659E+04</pdfrwt>
<pdfrwt beam="2">  1       -2 0.59729177E+00 0.55813659E+04</pdfrwt>
<totfact> 0.11436827E-03</totfact>
</mgrwt>
<rwgt>
<wgt id='morphing_basis_vector_1'> +1.3170744e-06 </wgt>
<wgt id='morphing_basis_vector_2'> +1.1992006e-06 </wgt>
<wgt id='morphing_basis_vector_3'> +1.5234975e-06 </wgt>
<wgt id='morphing_basis_vector_4'> +6.5594029e-07 </wgt>
<wgt id='morphing_basis_vector_5'> +1.4807689e-06 </wgt>
</rwgt>
</event>
<event>
 4      1 +9.0096000e-12 5.68055400e+03 7.81860800e-03 7.29811600e-02
        2 -1    0    0  501    0 +0.0000000000e+00 +0.0000000000e+00 +4.0965480092e+03 4.0965480092e+03 0.0000000000e+00 0.0000e+00 1.0000e+00
       -2 -1    0    0    0  501 -0.0000000000e+00 -0.0000000000e+00 -1.9692614812e+03 1.9692614812e+03 0.0000000000e+00 0.0000e+00 -1.0000e+00
      -13  1    1    2    0    0 -1.3574460909e+03 +2.0974152020e+03 -3.7904589241e+02 2.5269519600e+03 0.0000000000e+00 0.0000e+00 -1.0000e+00
       13  1    1    2    0    0 +1.3574460909e+03 -2.0974152020e+03 +2.5063324204e+03 3.5388575305e+03 0.0000000000e+00 0.0000e+00 1.0000e+00
<mgrwt>
<rscale>  0 0.56805543E+04</rscale>
<asrwt>0</asrwt>
<pdfrwt beam="1">  1        2 0.63023815E+00 0.56805543E+04</pdfrwt>
<pdfrwt beam="2">  1       -2 0.30296331E+00 0.56805543E+04</pdfrwt>
<totfact> 0.50022669E-03</totfact>
</mgrwt>
<rwgt>
<wgt id='morphing_basis_vector_1'> +1.2747957e-06 </wgt>
<wgt id='morphing_basis_vector_2'> +8.8097663e-07 </wgt>
<wgt id='morphing_basis_vector_3'> +1.4095424e-06 </wgt>
<wgt id='morphing_basis_vector_4'> +9.9920442e-07 </wgt>
<wgt id='morphing_basis_vector_5'> +1.6139543e-06 </wgt>
</rwgt>
</event>
<event>
 4      1 +9.0096000e-12 5.64954700e+03 7.81860800e-03 7.30177900e-02
        2 -1    0    0  501    0 +0.0000000000e+00 +0.0000000000e+00 +2.8286729490e+03 2.8286729490e+03 0.0000000000e+00 0.0000e+00 1.0000e+00
       -2 -1    0    0    0  501 -0.0000000000e+00 -0.0000000000e+00 -2.8208794022e+03 2.8208794022e+03 0.0000000000e+00 0.0000e+00 -1.0000e+00
      -13  1    1    2    0    0 +1.2282363554e+03 -2.0841802844e+03 -1.4545192519e+03 2.8227642935e+03 0.0000000000e+00 0.0000e+00 -1.0000e+00
       13  1    1    2    0    0 -1.2282363554e+03 +2.0841802844e+03 +1.4623127986e+03 2.8267880577e+03 0.0000000000e+00 0.0000e+00 1.0000e+00
<mgrwt>
<rscale>  0 0.56495470E+04</rscale>
<asrwt>0</asrwt>
<pdfrwt beam="1">  1        2 0.43518045E+00 0.56495470E+04</pdfrwt>
<pdfrwt beam="2">  1       -2 0.43398145E+00 0.56495470E+04</pdfrwt>
<totfact> 0.59475308E-03</totfact>
</mgrwt>
<rwgt>
<wgt id='morphing_basis_vector_1'> +1.2460478e-06 </wgt>
<wgt id='morphing_basis_vector_2'> +8.5836277e-07 </wgt>
<wgt id='morphing_basis_vector_3'> +1.3770474e-06 </wgt>
<wgt id='morphing_basis_vector_4'> +9.8010190e-07 </wgt>
<wgt id='morphing_basis_vector_5'> +1.5791350e-06 </wgt>
</rwgt>
</event>
<event>
 4      1 +9.0096000e-12 6.06127300e+03 7.81860800e-03 7.25499400e-02
        2 -1    0    0  501    0 +0.0000000000e+00 +0.0000000000e+00 +3.2106258125e+03 3.2106258125e+03 0.0000000000e+00 0.0000e+00 -1.0000e+00
       -2 -1    0    0    0  501 -0.0000000000e+00 -0.0000000000e+00 -2.8607370837e+03 2.8607370837e+03 0.0000000000e+00 0.0000e+00 1.0000e+00
      -13  1    1    2    0    0 +9.9319328342e+02 -1.1623964826e+03 -2.4461191614e+03 2.8846312473e+03 0.0000000000e+00 0.0000e+00 1.0000e+00
       13  1    1    2    0    0 -9.9319328342e+02 +1.1623964826e+03 +2.7960078901e+03 3.1867316489e+03 0.0000000000e+00 0.0000e+00 -1.0000e+00
<mgrwt>
<rscale>  0 0.60612726E+04</rscale>
<asrwt>0</asrwt>
<pdfrwt beam="1">  1        2 0.49394244E+00 0.60612726E+04</pdfrwt>
<pdfrwt beam="2">  1       -2 0.44011339E+00 0.60612726E+04</pdfrwt>
<totfact> 0.29440272E-03</totfact>
</mgrwt>
<rwgt>
<wgt id='morphing_basis_vector_1'> +1.6434417e-06 </wgt>
<wgt id='morphing_basis_vector_2'> +1.1181998e-06 </wgt>
<wgt id='morphing_basis_vector_3'> +1.8140089e-06 </wgt>
<wgt id='morphing_basis_vector_4'> +1.3131056e-06 </wgt>
<wgt id='morphing_basis_vector_5'> +2.0947947e-06 </wgt>
</rwgt>
</event>
<event>
 4      1 +9.0096000e-12 5.93451100e+03 7.81860800e-03 7.26898500e-02
        2 -1    0    0  501    0 +0.0000000000e+00 +0.0000000000e+00 +4.4598831008e+03 4.4598831008e+03 0.0000000000e+00 0.0000e+00 -1.0000e+00
       -2 -1    0    0    0  501 -0.0000000000e+00 -0.0000000000e+00 -1.9741787074e+03 1.9741787074e+03 0.0000000000e+00 0.0000e+00 1.0000e+00
      -13  1    1    2    0    0 +1.4009048977e+03 -1.6458590636e+03 -9.6131485898e+02 2.3654836393e+03 0.0000000000e+00 0.0000e+00 1.0000e+00
       13  1    1    2    0    0 -1.4009048977e+03 +1.6458590636e+03 +3.4470192524e+03 4.0685781689e+03 0.0000000000e+00 0.0000e+00 -1.0000e+00
<mgrwt>
<rscale>  0 0.59345114E+04</rscale>
<asrwt>0</asrwt>
<pdfrwt beam="1">  1        2 0.68613586E+00 0.59345114E+04</pdfrwt>
<pdfrwt beam="2">  1       -2 0.30371980E+00 0.59345114E+04</pdfrwt>
<totfact> 0.21962212E-03</totfact>
</mgrwt>
<rwgt>
<wgt id='morphing_basis_vector_1'> +1.5123226e-06 </wgt>
<wgt id='morphing_basis_vector_2'> +1.0329584e-06 </wgt>
<wgt id='morphing_basis_vector_3'> +1.6699395e-06 </wgt>
<wgt id='morphing_basis_vector_4'> +1.2025564e-06 </wgt>
<wgt id='morphing_basis_vector_5'> +1.9242945e-06 </wgt>
</rwgt>
</event>
<event>
 4      1 +9.0096000e-12 5.91950400e+03 7.81860800e-03 7.27066500e-02
        2 -1    0    0  501    0 +0.0000000000e+00 +0.0000000000e+00 +4.3206804909e+03 4.3206804909e+03 0.0000000000e+00 0.0000e+00 1.0000e+00
       -2 -1    0    0    0  501 -0.0000000000e+00 -0.0000000000e+00 -2.0274886508e+03 2.0274886508e+03 0.0000000000e+00 0.0000e+00 -1.0000e+00
      -13  1    1    2    0    0 +1.5483535278e+03 -2.0514899526e+03 -4.2738059488e+02 2.6055064470e+03 0.0000000000e+00 0.0000e+00 -1.0000e+00
       13  1    1    2    0    0 -1.5483535278e+03 +2.0514899526e+03 +2.7205724350e+03 3.7426626947e+03 0.0000000000e+00 0.0000e+00 1.0000e+00
<mgrwt>
<rscale>  0 0.59195036E+04</rscale>
<asrwt>0</asrwt>
<pdfrwt beam="1">  1        2 0.66472007E+00 0.59195036E+04</pdfrwt>
<pdfrwt beam="2">  1       -2 0.31192133E+00 0.59195036E+04</pdfrwt>
<totfact> 0.26604734E-03</totfact>
</mgrwt>
<rwgt>
<wgt id='morphing_basis_vector_1'> +1.5018476e-06 </wgt>
<wgt id='morphing_basis_vector_2'> +1.0364414e-06 </wgt>
<wgt id='morphing_basis_vector_3'> +1.6608332e-06 </wgt>
<wgt id='morphing_basis_vector_4'> +1.1802965e-06 </wgt>
<wgt id='morphing_basis_vector_5'> +1.9040087e-06 </wgt>
</rwgt>
</event>
<event>
 4      1 +9.0096000e-12 5.72959300e+03 7.81860800e-03 7.29237200e-02
        2 -1    0    0  501    0 +0.0000000000e+00 +0.0000000000e+00 +1.8391441180e+03 1.8391441180e+03 0.0000000000e+00 0.0000e+00 1.0000e+00
       -2 -1    0    0    0  501 -0.0000000000e+00 -0.0000000000e+00 -4.4624337163e+03 4.4624337163e+03 0.0000000000e+00 0.0000e+00 -1.0000e+00
      -13  1    1    2    0    0 -1.3190374383e+03 +2.9773244698e+02 -4.0893533061e+03 4.3071237312e+03 0.0000000000e+00 0.0000e+00 -1.0000e+00
       13  1    1    2    0    0 +1.3190374383e+03 -2.9773244698e+02 +1.4660637079e+03 1.9944541031e+03 0.0000000000e+00 0.0000e+00 1.0000e+00
<mgrwt>
<rscale>  0 0.57295929E+04</rscale>
<asrwt>0</asrwt>
<pdfrwt beam="1">  1        2 0.28294525E+00 0.57295929E+04</pdfrwt>
<pdfrwt beam="2">  1       -2 0.68652826E+00 0.57295929E+04</pdfrwt>
<totfact> 0.11955373E-04</totfact>
</mgrwt>
<rwgt>
<wgt id='morphing_basis_vector_1'> +1.3128064e-06 </wgt>
<wgt id='morphing_basis_vector_2'> +8.9277488e-07 </wgt>
<wgt id='morphing_basis_vector_3'> +1.4482960e-06 </wgt>
<wgt id='morphing_basis_vector_4'> +1.0480653e-06 </wgt>
<wgt id='morphing_basis_vector_5'> +1.6717130e-06 </wgt>
</rwgt>
</event>
<event>
 4      1 +9.0096000e-12 5.58078400e+03 7.81860800e-03 7.30998900e-02
        2 -1    0    0  501    0 +0.0000000000e+00 +0.0000000000e+00 +3.4806975942e+03 3.4806975942e+03 0.0000000000e+00 0.0000e+00 -1.0000e+00
       -2 -1    0    0    0  501 -0.0000000000e+00 -0.0000000000e+00 -2.2369904984e+03 2.2369904984e+03 0.0000000000e+00 0.0000e+00 1.0000e+00
      -13  1    1    2    0    0 +1.1060368580e+03 +1.6477507266e+03 -1.3878704995e+03 2.4216904244e+03 0.0000000000e+00 0.0000e+00 1.0000e+00
       13  1    1    2    0    0 -1.1060368580e+03 -1.6477507266e+03 +2.6315775953e+03 3.2959976681e+03 0.0000000000e+00 0.0000e+00 -1.0000e+00
<mgrwt>
<rscale>  0 0.55807840E+04</rscale>
<asrwt>0</asrwt>
<pdfrwt beam="1">  1        2 0.53549194E+00 0.55807840E+04</pdfrwt>
<pdfrwt beam="2">  1       -2 0.34415238E+00 0.55807840E+04</pdfrwt>
<totfact> 0.83600091E-03</totfact>
</mgrwt>
<rwgt>
<wgt id='morphing_basis_vector_1'> +1.1832366e-06 </wgt>
<wgt id='morphing_basis_vector_2'> +8.0740039e-07 </wgt>
<wgt id='morphing_basis_vector_3'> +1.3056938e-06 </wgt>
<wgt id='morphing_basis_vector_4'> +9.4039262e-07 </wgt>
<wgt id='morphing_basis_vector_5'> +1.5040707e-06 </wgt>
</rwgt>
</event>
<event>
 4      1 +9.0096000e-12 5.60832100e+03 7.81860800e-03 7.30668700e-02
        2 -1    0    0  501    0 +0.0000000000e+00 +0.0000000000e+00 +4.4468086235e+03 4.4468086235e+03 0.0000000000e+00 0.0000e+00 1.0000e+00
       -2 -1    0    0    0  501 -0.0000000000e+00 -0.0000000000e+00 -1.7683055540e+03 1.7683055540e+03 0.0000000000e+00 0.0000e+00 -1.0000e+00
      -13  1    1    2    0    0 +1.0144676191e+03 -2.5134993280e+03 +2.1356830658e+03 3.4507920221e+03 0.0000000000e+00 0.0000e+00 -1.0000e+00
       13  1    1    2    0    0 -1.0144676191e+03 +2.5134993280e+03 +5.4282000377e+02 2.7643221554e+03 0.0000000000e+00 0.0000e+00 1.0000e+00
<mgrwt>
<rscale>  0 0.56083211E+04</rscale>
<asrwt>0</asrwt>
<pdfrwt beam="1">  1        2 0.68412440E+00 0.56083211E+04</pdfrwt>
<pdfrwt beam="2">  1       -2 0.27204701E+00 0.56083211E+04</pdfrwt>
<totfact> 0.38043922E-03</totfact>
</mgrwt>
<rwgt>
<wgt id='morphing_basis_vector_1'> +1.3121532e-06 </wgt>
<wgt id='morphing_basis_vector_2'> +1.1330100e-06 </wgt>
<wgt id='morphing_basis_vector_3'> +1.5034904e-06 </wgt>
<wgt id='morphing_basis_vector_4'> +7.3385450e-07 </wgt>
<wgt id='morphing_basis_vector_5'> +1.5151252e-06 </wgt>
</rwgt>
</event>
<event>
 4      1 +9.0096000e-12 5.97969400e+03 7.81860800e-03 7.26395800e-02
        2 -1    0    0  501    0 +0.0000000000e+00 +0.0000000000e+00 +3.3012251295e+03 3.3012251295e+03 0.0000000000e+00 0.0000e+00 -1.0000e+00
       -2 -1    0    0    0  501 -0.0000000000e+00 -0.0000000000e+00 -2.7078384211e+03 2.7078384211e+03 0.0000000000e+00 0.0000e+00 1.0000e+00
      -13  1    1    2    0    0 -4.7909376061e+02 -2.7773852649e+03 -7.0609790172e+02 2.9055075268e+03 0.0000000000e+00 0.0000e+00 1.0000e+00
       13  1    1    2    0    0 +4.7909376061e+02 +2.7773852649e+03 +1.2994846101e+03 3.1035560238e+03 0.0000000000e+00 0.0000e+00 -1.0000e+00
<mgrwt>
<rscale>  0 0.59796937E+04</rscale>
<asrwt>0</asrwt>
<pdfrwt beam="1">  1        2 0.50788079E+00 0.59796937E+04</pdfrwt>
<pdfrwt beam="2">  1       -2 0.41659052E+00 0.59796937E+04</pdfrwt>
<totfact> 0.36902475E-03</totfact>
</mgrwt>
<rwgt>
<wgt id='morphing_basis_vector_1'> +1.5720375e-06 </wgt>
<wgt id='morphing_basis_vector_2'> +1.1036087e-06 </wgt>
<wgt id='morphing_basis_vector_3'> +1.7429884e-06 </wgt>
<wgt id='morphing_basis_vector_4'> +1.2113616e-06 </wgt>
<wgt id='morphing_basis_vector_5'> +1.9813219e-06 </wgt>
</rwgt>
</event>
<event>
 4      1 +9.0096000e-12 6.31436700e+03 7.81860800e-03 7.22807300e-02
        2 -1    0    0  501    0 +0.0000000000e+00 +0.0000000000e+00 +3.9036041444e+03 3.9036041444e+03 0.0000000000e+00 0.0000e+00 -1.0000e+00
       -2 -1    0    0    0  501 -0.0000000000e+00 -0.0000000000e+00 -2.5534881460e+03 2.5534881460e+03 0.0000000000e+00 0.0000e+00 1.0000e+00
      -13  1    1    2    0    0 -3.1372829258e+02 +8.0832906143e+02 -2.4293449226e+03 2.5794453020e+03 0.0000000000e+00 0.0000e+00 1.0000e+00
       13  1    1    2    0    0 +3.1372829258e+02 -8.0832906143e+02 +3.7794609210e+03 3.8776469884e+03 0.0000000000e+00 0.0000e+00 -1.0000e+00
<mgrwt>
<rscale>  0 0.63143668E+04</rscale>
<asrwt>0</asrwt>
<pdfrwt beam="1">  1        2 0.60055448E+00 0.63143668E+04</pdfrwt>
<pdfrwt beam="2">  1       -2 0.39284433E+00 0.63143668E+04</pdfrwt>
<totfact> 0.18033040E-03</totfact>
</mgrwt>
<rwgt>
<wgt id='morphing_basis_vector_1'> +1.9345367e-06 </wgt>
<wgt id='morphing_basis_vector_2'> +1.3156543e-06 </wgt>
<wgt id='morphing_basis_vector_3'> +2.1358088e-06 </wgt>
<wgt id='morphing_basis_vector_4'> +1.5479051e-06 </wgt>
<wgt id='morphing_basis_vector_5'> +2.4681129e-06 </wgt>
</rwgt>
</event>
<event>
 4      1 +9.0096000e-12 5.85476900e+03 7.81860800e-03 7.27797000e-02
        2 -1    0    0  501    0 +0.0000000000e+00 +0.0000000000e+00 +4.5640224775e+03 4.5640224775e+03 0.0000000000e+00 0.0000e+00 -1.0000e+00
       -2 -1    0    0    0  501 -0.0000000000e+00 -0.0000000000e+00 -1.8776373997e+03 1.8776373997e+03 0.0000000000e+00 0.0000e+00 1.0000e+00
      -13  1    1    2    0    0 -5.9007742952e+02 +2.6730481704e+03 +2.0180054877e+02 2.7448317536e+03 0.0000000000e+00 0.0000e+00 1.0000e+00
       13  1    1    2    0    0 +5.9007742952e+02 -2.6730481704e+03 +2.4845845290e+03 3.6968281236e+03 0.0000000000e+00 0.0000e+00 -1.0000e+00
<mgrwt>
<rscale>  0 0.58547688E+04</rscale>
<asrwt>0</asrwt>
<pdfrwt beam="1">  1        2 0.70215730E+00 0.58547688E+04</pdfrwt>
<pdfrwt beam="2">  1       -2 0.28886729E+00 0.58547688E+04</pdfrwt>
<totfact> 0.21677635E-03</totfact>
</mgrwt>
<rwgt>
<wgt id='morphing_basis_vector_1'> +1.4437767e-06 </wgt>
<wgt id='morphing_basis_vector_2'> +1.0106860e-06 </wgt>
<wgt id='morphing_basis_vector_3'> +1.5998258e-06 </wgt>
<wgt id='morphing_basis_vector_4'> +1.1157005e-06 </wgt>
<wgt id='morphing_basis_vector_5'> +1.8207427e-06 </wgt>
</rwgt>
</event>
<event>
 4      1 +9.0096000e-12 5.84848200e+03 7.81860800e-03 7.27868400e-02
        2 -1    0    0  501    0 +0.0000000000e+00 +0.0000000000e+00 +3.5690338826e+03 3.5690338826e+03 0.0000000000e+00 0.0000e+00 1.0000e+00
       -2 -1    0    0    0  501 -0.0000000000e+00 -0.0000000000e+00 -2.3959387533e+03 2.3959387533e+03 0.0000000000e+00 0.0000e+00 -1.0000e+00
      -13  1    1    2    0    0 -1.3796879244e+03 -1.7074561279e+03 -1.3838330729e+03 2.5949834626e+03 0.0000000000e+00 0.0000e+00 -1.0000e+00
       13  1    1    2    0    0 +1.3796879244e+03 +1.7074561279e+03 +2.5569282021e+03 3.3699891733e+03 0.0000000000e+00 0.0000e+00 1.0000e+00
<mgrwt>
<rscale>  0 0.58484824E+04</rscale>
<asrwt>0</asrwt>
<pdfrwt beam="1">  1        2 0.54908214E+00 0.58484824E+04</pdfrwt>
<pdfrwt beam="2">  1       -2 0.36860596E+00 0.58484824E+04</pdfrwt>
<totfact> 0.49024630E-03</totfact>
</mgrwt>
<rwgt>
<wgt id='morphing_basis_vector_1'> +1.4271112e-06 </wgt>
<wgt id='morphing_basis_vector_2'> +9.7556623e-07 </wgt>
<wgt id='morphing_basis_vector_3'> +1.5758513e-06 </wgt>
<wgt id='morphing_basis_vector_4'> +1.1333336e-06 </wgt>
<wgt id='morphing_basis_vector_5'> +1.8148032e-06 </wgt>
</rwgt>
</event>
<event>
 4      1 +9.0096000e-12 5.70639700e+03 7.81860800e-03 7.29508200e-02
        2 -1    0    0  501    0 +0.0000000000e+00 +0.0000000000e+00 +3.4292976360e+03 3.4292976360e+03 0.0000000000e+00 0.0000e+00 -1.0000e+00
       -2 -1    0    0    0  501 -0.0000000000e+00 -0.0000000000e+00 -2.3738801434e+03 2.3738801434e+03 0.0000000000e+00 0.0000e+00 1.0000e+00
      -13  1    1    2    0    0 -8.7482844302e+02 +2.9539670469e+02 -2.2177364050e+03 2.4022778315e+03 0.0000000000e+00 0.0000e+00 1.0000e+00
       13  1    1    2    0    0 +8.7482844302e+02 -2.9539670469e+02 +3.2731538976e+03 3.4008999479e+03 0.0000000000e+00 0.0000e+00 -1.0000e+00
<mgrwt>
<rscale>  0 0.57063970E+04</rscale>
<asrwt>0</asrwt>
<pdfrwt beam="1">  1        2 0.52758425E+00 0.57063970E+04</pdfrwt>
<pdfrwt beam="2">  1       -2 0.36521233E+00 0.57063970E+04</pdfrwt>
<totfact> 0.65972887E-03</totfact>
</mgrwt>
<rwgt>
<wgt id='morphing_basis_vector_1'> +1.2915600e-06 </wgt>
<wgt id='morphing_basis_vector_2'> +8.7792413e-07 </wgt>
<wgt id='morphing_basis_vector_3'> +1.4247136e-06 </wgt>
<wgt id='morphing_basis_vector_4'> +1.0315167e-06 </wgt>
<wgt id='morphing_basis_vector_5'> +1.6447712e-06 </wgt>
</rwgt>
</event>
<event>
 4      1 +9.0096000e-12 5.55910400e+03 7.81860800e-03 7.31260200e-02
        2 -1    0    0  501    0 +0.0000000000e+00 +0.0000000000e+00 +2.4449493986e+03 2.4449493986e+03 0.0000000000e+00 0.0000e+00 -1.0000e+00
       -2 -1    0    0    0  501 -0.0000000000e+00 -0.0000000000e+00 -3.1599466336e+03 3.1599466336e+03 0.0000000000e+00 0.0000e+00 1.0000e+00
      -13  1    1    2    0    0 +8.7655735106e+02 -1.7239564354e+03 -2.3703228471e+03 3.0592170534e+03 0.0000000000e+00 0.0000e+00 1.0000e+00
       13  1    1    2    0    0 -8.7655735106e+02 +1.7239564354e+03 +1.6553256121e+03 2.5456789787e+03 0.0000000000e+00 0.0000e+00 -1.0000e+00
<mgrwt>
<rscale>  0 0.55591041E+04</rscale>
<asrwt>0</asrwt>
<pdfrwt beam="1">  1        2 0.37614606E+00 0.55591041E+04</pdfrwt>
<pdfrwt beam="2">  1       -2 0.48614564E+00 0.55591041E+04</pdfrwt>
<totfact> 0.43646728E-03</totfact>
</mgrwt>
<rwgt>
<wgt id='morphing_basis_vector_1'> +1.1648385e-06 </wgt>
<wgt id='morphing_basis_vector_2'> +7.9445068e-07 </wgt>
<wgt id='morphing_basis_vector_3'> +1.2852543e-06 </wgt>
<wgt id='morphing_basis_vector_4'> +9.2618499e-07 </wgt>
<wgt id='morphing_basis_vector_5'> +1.4808059e-06 </wgt>
</rwgt>
</event>
<event>
 4      1 +9.0096000e-12 6.05477200e+03 7.81860800e-03 7.25570300e-02
        2 -1    0    0  501    0 +0.0000000000e+00 +0.0000000000e+00 +4.3725153835e+03 4.3725153835e+03 0.0000000000e+00 0.0000e+00 1.0000e+00
       -2 -1    0    0    0  501 -0.0000000000e+00 -0.0000000000e+00 -2.0960628930e+03 2.0960628930e+03 0.0000000000e+00 0.0000e+00 -1.0000e+00
      -13  1    1    2    0    0 -2.4428676564e+03 -4.0351743846e+01 -7.7164151275e+02 2.5621594942e+03 0.0000000000e+00 0.0000e+00 -1.0000e+00
       13  1    1    2    0    0 +2.4428676564e+03 +4.0351743846e+01 +3.0480940032e+03 3.9064187822e+03 0.0000000000e+00 0.0000e+00 1.0000e+00
<mgrwt>
<rscale>  0 0.60547724E+04</rscale>
<asrwt>0</asrwt>
<pdfrwt beam="1">  1        2 0.67269467E+00 0.60547724E+04</pdfrwt>
<pdfrwt beam="2">  1       -2 0.32247121E+00 0.60547724E+04</pdfrwt>
<totfact> 0.19948320E-03</totfact>
</mgrwt>
<rwgt>
<wgt id='morphing_basis_vector_1'> +1.6404610e-06 </wgt>
<wgt id='morphing_basis_vector_2'> +1.1252789e-06 </wgt>
<wgt id='morphing_basis_vector_3'> +1.8128427e-06 </wgt>
<wgt id='morphing_basis_vector_4'> +1.2988222e-06 </wgt>
<wgt id='morphing_basis_vector_5'> +2.0850764e-06 </wgt>
</rwgt>
</event>
<event>
 4      1 +9.0096000e-12 5.75360700e+03 7.81860800e-03 7.28958000e-02
        2 -1    0    0  501    0 +0.0000000000e+00 +0.0000000000e+00 +3.3461865321e+03 3.3461865321e+03 0.0000000000e+00 0.0000e+00 -1.0000e+00
       -2 -1    0    0    0  501 -0.0000000000e+00 -0.0000000000e+00 -2.4732628198e+03 2.4732628198e+03 0.0000000000e+00 0.0000e+00 1.0000e+00
      -13  1    1    2    0    0 -1.1207677404e+03 +1.8323129218e+03 -1.4992065714e+03 2.6193723132e+03 0.0000000000e+00 0.0000e+00 1.0000e+00
       13  1    1    2    0    0 +1.1207677404e+03 -1.8323129218e+03 +2.3721302836e+03 3.2000770388e+03 0.0000000000e+00 0.0000e+00 -1.0000e+00
<mgrwt>
<rscale>  0 0.57536071E+04</rscale>
<asrwt>0</asrwt>
<pdfrwt beam="1">  1        2 0.51479793E+00 0.57536071E+04</pdfrwt>
<pdfrwt beam="2">  1       -2 0.38050197E+00 0.57536071E+04</pdfrwt>
<totfact> 0.60061106E-03</totfact>
</mgrwt>
<rwgt>
<wgt id='morphing_basis_vector_1'> +1.3368777e-06 </wgt>
<wgt id='morphing_basis_vector_2'> +9.1363098e-07 </wgt>
<wgt id='morphing_basis_vector_3'> +1.4759532e-06 </wgt>
<wgt id='morphing_basis_vector_4'> +1.0615589e-06 </wgt>
<wgt id='morphing_basis_vector_5'> +1.6996288e-06 </wgt>
</rwgt>
</event>
<event>
 4      1 +9.0096000e-12 5.76417500e+03 7.81860800e-03 7.28835600e-02
        2 -1    0    0  501    0 +0.0000000000e+00 +0.0000000000e+00 +2.5823389567e+03 2.5823389567e+03 0.0000000000e+00 0.0000e+00 -1.0000e+00
       -2 -1    0    0    0  501 -0.0000000000e+00 -0.0000000000e+00 -3.2166300954e+03 3.2166300954e+03 0.0000000000e+00 0.0000e+00 1.0000e+00
      -13  1    1    2    0    0 +1.0932849606e+03 -2.2490052768e+03 -1.7586702965e+03 3.0571584768e+03 0.0000000000e+00 0.0000e+00 1.0000e+00
       13  1    1    2    0    0 -1.0932849606e+03 +2.2490052768e+03 +1.1243791578e+03 2.7418105753e+03 0.0000000000e+00 0.0000e+00 -1.0000e+00
<mgrwt>
<rscale>  0 0.57641753E+04</rscale>
<asrwt>0</asrwt>
<pdfrwt beam="1">  1        2 0.39728291E+00 0.57641753E+04</pdfrwt>
<pdfrwt beam="2">  1       -2 0.49486617E+00 0.57641753E+04</pdfrwt>
<totfact> 0.30611578E-03</totfact>
</mgrwt>
<rwgt>
<wgt id='morphing_basis_vector_1'> +1.3506145e-06 </wgt>
<wgt id='morphing_basis_vector_2'> +9.3183884e-07 </wgt>
<wgt id='morphing_basis_vector_3'> +1.4932056e-06 </wgt>
<wgt id='morphing_basis_vector_4'> +1.0610363e-06 </wgt>
<wgt id='morphing_basis_vector_5'> +1.7114778e-06 </wgt>
</rwgt>
</event>
<event>
 4      1 +9.0096000e-12 5.73813800e+03 7.81860800e-03 7.29137700e-02
        2 -1    0    0  501    0 +0.0000000000e+00 +0.0000000000e+00 +2.4024974051e+03 2.4024974051e+03 0.0000000000e+00 0.0000e+00 -1.0000e+00
       -2 -1    0    0    0  501 -0.0000000000e+00 -0.0000000000e+00 -3.4262503428e+03 3.4262503428e+03 0.0000000000e+00 0.0000e+00 1.0000e+00
      -13  1    1    2    0    0 +1.2867767129e+03 -1.7318508743e+03 -2.4328911607e+03 3.2517781535e+03 0.0000000000e+00 0.0000e+00 1.0000e+00
       13  1    1    2    0    0 -1.2867767129e+03 +1.7318508743e+03 +1.4091382230e+03 2.5769695945e+03 0.0000000000e+00 0.0000e+00 -1.0000e+00
<mgrwt>
<rscale>  0 0.57381382E+04</rscale>
<asrwt>0</asrwt>
<pdfrwt beam="1">  1        2 0.36961499E+00 0.57381382E+04</pdfrwt>
<pdfrwt beam="2">  1       -2 0.52711544E+00 0.57381382E+04</pdfrwt>
<totfact> 0.22552627E-03</totfact>
</mgrwt>
<rwgt>
<wgt id='morphing_basis_vector_1'> +1.3226898e-06 </wgt>
<wgt id='morphing_basis_vector_2'> +9.0413604e-07 </wgt>
<wgt id='morphing_basis_vector_3'> +1.4603030e-06 </wgt>
<wgt id='morphing_basis_vector_4'> +1.0499573e-06 </wgt>
<wgt id='morphing_basis_vector_5'> +1.6813635e-06 </wgt>
</rwgt>
</event>
<event>
 4      1 +9.0096000e-12 5.83577400e+03 7.81860800e-03 7.28013100e-02
        2 -1    0    0  501    0 +0.0000000000e+00 +0.0000000000e+00 +3.1777024885e+03 3.1777024885e+03 0.0000000000e+00 0.0000e+00 1.0000e+00
       -2 -1    0    0    0  501 -0.0000000000e+00 -0.0000000000e+00 -2.6793142519e+03 2.6793142519e+03 0.0000000000e+00 0.0000e+00 -1.0000e+00
      -13  1    1    2    0    0 -1.6285651468e+03 +3.9907082903e+02 -2.1475064552e+03 2.7245671105e+03 0.0000000000e+00 0.0000e+00 -1.0000e+00
       13  1    1    2    0    0 +1.6285651468e+03 -3.9907082903e+02 +2.6458946918e+03 3.1324496300e+03 0.0000000000e+00 0.0000e+00 1.0000e+00
<mgrwt>
<rscale>  0 0.58357737E+04</rscale>
<asrwt>0</asrwt>
<pdfrwt beam="1">  1        2 0.48887731E+00 0.58357737E+04</pdfrwt>
<pdfrwt beam="2">  1       -2 0.41220219E+00 0.58357737E+04</pdfrwt>
<totfact> 0.48483361E-03</totfact>
</mgrwt>
<rwgt>
<wgt id='morphing_basis_vector_1'> +1.4129522e-06 </wgt>
<wgt id='morphing_basis_vector_2'> +9.6176636e-07 </wgt>
<wgt id='morphing_basis_vector_3'> +1.5592237e-06 </wgt>
<wgt id='morphing_basis_vector_4'> +1.1273936e-06 </wgt>
<wgt id='morphing_basis_vector_5'> +1.7993719e-06 </wgt>
</rwgt>
</event>
<event>
 4      1 +9.0096000e-12 6.07548000e+03 7.81860800e-03 7.25344800e-02
        2 -1    0    0  501    0 +0.0000000000e+00 +0.0000000000e+00 +3.0909953283e+03 3.0909953283e+03 0.0000000000e+00 0.0000e+00 -1.0000e+00
       -2 -1    0    0    0  501 -0.0000000000e+00 -0.0000000000e+00 -2.9854024392e+03 2.9854024392e+03 0.0000000000e+00 0.0000e+00 1.0000e+00
      -13  1    1    2    0    0 +1.3422009782e+03 -2.5732220471e+03 +9.5008845779e+02 3.0537916181e+03 0.0000000000e+00 0.0000e+00 1.0000e+00
       13  1    1    2    0    0 -1.3422009782e+03 +2.5732220471e+03 -8.4449556871e+02 3.0226061495e+03 0.0000000000e+00 0.0000e+00 -1.0000e+00
<mgrwt>
<rscale>  0 0.60754802E+04</rscale>
<asrwt>0</asrwt>
<pdfrwt beam="1">  1        2 0.47553774E+00 0.60754802E+04</pdfrwt>
<pdfrwt beam="2">  1       -2 0.45929268E+00 0.60754802E+04</pdfrwt>
<totfact> 0.26022205E-03</totfact>
</mgrwt>
<rwgt>
<wgt id='morphing_basis_vector_1'> +1.8254545e-06 </wgt>
<wgt id='morphing_basis_vector_2'> +1.6176535e-06 </wgt>
<wgt id='morphing_basis_vector_3'> +2.1031739e-06 </wgt>
<wgt id='morphing_basis_vector_4'> +9.6906077e-07 </wgt>
<wgt id='morphing_basis_vector_5'> +2.0845618e-06 </wgt>
</rwgt>
</event>
<event>
 4      1 +9.0096000e-12 5.66326900e+03 7.81860800e-03 7.30015500e-02
        2 -1    0    0  501    0 +0.0000000000e+00 +0.0000000000e+00 +4.1757975562e+03 4.1757975562e+03 0.0000000000e+00 0.0000e+00 -1.0000e+00
       -2 -1    0    0    0  501 -0.0000000000e+00 -0.0000000000e+00 -1.9201493774e+03 1.9201493774e+03 0.0000000000e+00 0.0000e+00 1.0000e+00
      -13  1    1    2    0    0 -8.2917321489e+02 -2.7600969155e+02 -1.7713618361e+03 1.9752043754e+03 0.0000000000e+00 0.0000e+00 1.0000e+00
       13  1    1    2    0    0 +8.2917321489e+02 +2.7600969155e+02 +4.0270100149e+03 4.1207425582e+03 0.0000000000e+00 0.0000e+00 -1.0000e+00
<mgrwt>
<rscale>  0 0.56632694E+04</rscale>
<asrwt>0</asrwt>
<pdfrwt beam="1">  1        2 0.64243039E+00 0.56632694E+04</pdfrwt>
<pdfrwt beam="2">  1       -2 0.29540760E+00 0.56632694E+04</pdfrwt>
<totfact> 0.47822614E-03</totfact>
</mgrwt>
<rwgt>
<wgt id='morphing_basis_vector_1'> +1.2530449e-06 </wgt>
<wgt id='morphing_basis_vector_2'> +8.5168787e-07 </wgt>
<wgt id='morphing_basis_vector_3'> +1.3821243e-06 </wgt>
<wgt id='morphing_basis_vector_4'> +1.0006270e-06 </wgt>
<wgt id='morphing_basis_vector_5'> +1.5954915e-06 </wgt>
</rwgt>
</event>
<event>
 4      1 +9.0096000e-12 6.00342000e+03 7.81860800e-03 7.26133600e-02
        2 -1    0    0  501    0 +0.0000000000e+00 +0.0000000000e+00 +2.6296516723e+03 2.6296516723e+03 0.0000000000e+00 0.0000e+00 -1.0000e+00
       -2 -1    0    0    0  501 -0.0000000000e+00 -0.0000000000e+00 -3.4264090908e+03 3.4264090908e+03 0.0000000000e+00 0.0000e+00 1.0000e+00
      -13  1    1    2    0    0 +1.2624218586e+03 +1.7987466136e+03 -2.4610732548e+03 3.2994059911e+03 0.0000000000e+00 0.0000e+00 1.0000e+00
       13  1    1    2    0    0 -1.2624218586e+03 -1.7987466136e+03 +1.6643158363e+03 2.7566547720e+03 0.0000000000e+00 0.0000e+00 -1.0000e+00
<mgrwt>
<rscale>  0 0.60034198E+04</rscale>
<asrwt>0</asrwt>
<pdfrwt beam="1">  1        2 0.40456180E+00 0.60034198E+04</pdfrwt>
<pdfrwt beam="2">  1       -2 0.52713986E+00 0.60034198E+04</pdfrwt>
<totfact> 0.16165874E-03</totfact>
</mgrwt>
<rwgt>
<wgt id='morphing_basis_vector_1'> +1.5836953e-06 </wgt>
<wgt id='morphing_basis_vector_2'> +1.0819295e-06 </wgt>
<wgt id='morphing_basis_vector_3'> +1.7489615e-06 </wgt>
<wgt id='morphing_basis_vector_4'> +1.2593727e-06 </wgt>
<wgt id='morphing_basis_vector_5'> +2.0154336e-06 </wgt>
</rwgt>
</event>
<event>
 4      1 +9.0096000e-12 5.58152900e+03 7.81860800e-03 7.30989900e-02
        2 -1    0    0  501    0 +0.0000000000e+00 +0.0000000000e+00 +4.4060982309e+03 4.4060982309e+03 0.0000000000e+00 0.0000e+00 1.0000e+00
       -2 -1    0    0    0  501 -0.0000000000e+00 -0.0000000000e+00 -1.7676336753e+03 1.7676336753e+03 0.0000000000e+00 0.0000e+00 -1.0000e+00
      -13  1    1    2    0    0 +2.3706889242e+03 -1.5445933659e+01 -3.0939043979e+02 2.3908423194e+03 0.0000000000e+00 0.0000e+00 -1.0000e+00
       13  1    1    2    0    0 -2.3706889242e+03 +1.5445933659e+01 +2.9478549954e+03 3.7828895868e+03 0.0000000000e+00 0.0000e+00 1.0000e+00
<mgrwt>
<rscale>  0 0.55815294E+04</rscale>
<asrwt>0</asrwt>
<pdfrwt beam="1">  1        2 0.67786126E+00 0.55815294E+04</pdfrwt>
<pdfrwt beam="2">  1       -2 0.27194364E+00 0.55815294E+04</pdfrwt>
<totfact> 0.41949365E-03</totfact>
</mgrwt>
<rwgt>
<wgt id='morphing_basis_vector_1'> +1.1869756e-06 </wgt>
<wgt id='morphing_basis_vector_2'> +8.1695672e-07 </wgt>
<wgt id='morphing_basis_vector_3'> +1.3114559e-06 </wgt>
<wgt id='morphing_basis_vector_4'> +9.3425643e-07 </wgt>
<wgt id='morphing_basis_vector_5'> +1.5043186e-06 </wgt>
</rwgt>
</event>
<event>
 4      1 +9.0096000e-12 5.72952000e+03 7.81860800e-03 7.29238000e-02
        2 -1    0    0  501    0 +0.0000000000e+00 +0.0000000000e+00 +3.4451779990e+03 3.4451779990e+03 0.0000000000e+00 0.0000e+00 1.0000e+00
       -2 -1    0    0    0  501 -0.0000000000e+00 -0.0000000000e+00 -2.3821265695e+03 2.3821265695e+03 0.0000000000e+00 0.0000e+00 -1.0000e+00
      -13  1    1    2    0    0 +1.8827858529e+03 -2.1360816389e+03 +8.5173657814e+02 2.9720670474e+03 0.0000000000e+00 0.0000e+00 -1.0000e+00
       13  1    1    2    0    0 -1.8827858529e+03 +2.1360816389e+03 +2.1131485137e+02 2.8552375211e+03 0.0000000000e+00 0.0000e+00 1.0000e+00
<mgrwt>
<rscale>  0 0.57295201E+04</rscale>
<asrwt>0</asrwt>
<pdfrwt beam="1">  1        2 0.53002739E+00 0.57295201E+04</pdfrwt>
<pdfrwt beam="2">  1       -2 0.36648101E+00 0.57295201E+04</pdfrwt>
<totfact> 0.62951040E-03</totfact>
</mgrwt>
<rwgt>
<wgt id='morphing_basis_vector_1'> +1.3837456e-06 </wgt>
<wgt id='morphing_basis_vector_2'> +1.1011676e-06 </wgt>
<wgt id='morphing_basis_vector_3'> +1.5640070e-06 </wgt>
<wgt id='morphing_basis_vector_4'> +8.9625278e-07 </wgt>
<wgt id='morphing_basis_vector_5'> +1.6588723e-06 </wgt>
</rwgt>
</event>
<event>
 4      1 +9.0096000e-12 6.08343600e+03 7.81860800e-03 7.25258400e-02
        2 -1    0    0  501    0 +0.0000000000e+00 +0.0000000000e+00 +3.2427334015e+03 3.2427334015e+03 0.0000000000e+00 0.0000e+00 1.0000e+00
       -2 -1    0    0    0  501 -0.0000000000e+00 -0.0000000000e+00 -2.8531638895e+03 2.8531638895e+03 0.0000000000e+00 0.0000e+00 -1.0000e+00
      -13  1    1    2    0    0 +8.5603282224e+02 -2.7540524292e+02 -2.7169217208e+03 2.8618706955e+03 0.0000000000e+00 0.0000e+00 -1.0000e+00
       13  1    1    2    0    0 -8.5603282224e+02 +2.7540524292e+02 +3.1064912328e+03 3.2340265955e+03 0.0000000000e+00 0.0000e+00 1.0000e+00
<mgrwt>
<rscale>  0 0.60834365E+04</rscale>
<asrwt>0</asrwt>
<pdfrwt beam="1">  1        2 0.49888206E+00 0.60834365E+04</pdfrwt>
<pdfrwt beam="2">  1       -2 0.43894829E+00 0.60834365E+04</pdfrwt>
<totfact> 0.28456704E-03</totfact>
</mgrwt>
<rwgt>
<wgt id='morphing_basis_vector_1'> +1.6672271e-06 </wgt>
<wgt id='morphing_basis_vector_2'> +1.1336612e-06 </wgt>
<wgt id='morphing_basis_vector_3'> +1.8401440e-06 </wgt>
<wgt id='morphing_basis_vector_4'> +1.3331651e-06 </wgt>
<wgt id='morphing_basis_vector_5'> +2.1257289e-06 </wgt>
</rwgt>
</event>
<event>
 4      1 +9.0096000e-12 5.56597200e+03 7.81860800e-03 7.31177300e-02
        2 -1    0    0  501    0 +0.0000000000e+00 +0.0000000000e+00 +2.6243639541e+03 2.6243639541e+03 0.0000000000e+00 0.0000e+00 -1.0000e+00
       -2 -1    0    0    0  501 -0.0000000000e+00 -0.0000000000e+00 -2.9511955840e+03 2.9511955840e+03 0.0000000000e+00 0.0000e+00 1.0000e+00
      -13  1    1    2    0    0 -2.3752465607e+03 -1.7537549780e+02 -1.6054991486e+03 2.8723127103e+03 0.0000000000e+00 0.0000e+00 1.0000e+00
       13  1    1    2    0    0 +2.3752465607e+03 +1.7537549780e+02 +1.2786675187e+03 2.7032468279e+03 0.0000000000e+00 0.0000e+00 -1.0000e+00
<mgrwt>
<rscale>  0 0.55659721E+04</rscale>
<asrwt>0</asrwt>
<pdfrwt beam="1">  1        2 0.40374830E+00 0.55659721E+04</pdfrwt>
<pdfrwt beam="2">  1       -2 0.45403009E+00 0.55659721E+04</pdfrwt>
<totfact> 0.58274825E-03</totfact>
</mgrwt>
<rwgt>
<wgt id='morphing_basis_vector_1'> +1.1740928e-06 </wgt>
<wgt id='morphing_basis_vector_2'> +8.0866239e-07 </wgt>
<wgt id='morphing_basis_vector_3'> +1.2973227e-06 </wgt>
<wgt id='morphing_basis_vector_4'> +9.2330045e-07 </wgt>
<wgt id='morphing_basis_vector_5'> +1.4875276e-06 </wgt>
</rwgt>
</event>
<event>
 4      1 +9.0096000e-12 5.70994700e+03 7.81860800e-03 7.29466600e-02
        2 -1    0    0  501    0 +0.0000000000e+00 +0.0000000000e+00 +2.9816266136e+03 2.9816266136e+03 0.0000000000e+00 0.0000e+00 1.0000e+00
       -2 -1    0    0    0  501 -0.0000000000e+00 -0.0000000000e+00 -2.7337005414e+03 2.7337005414e+03 0.0000000000e+00 0.0000e+00 -1.0000e+00
      -13  1    1    2    0    0 +7.6669275746e+02 -1.8746574655e+03 -1.8900749303e+03 2.7702963090e+03 0.0000000000e+00 0.0000e+00 -1.0000e+00
       13  1    1    2    0    0 -7.6669275746e+02 +1.8746574655e+03 +2.1380010026e+03 2.9450308461e+03 0.0000000000e+00 0.0000e+00 1.0000e+00
<mgrwt>
<rscale>  0 0.57099472E+04</rscale>
<asrwt>0</asrwt>
<pdfrwt beam="1">  1        2 0.45871179E+00 0.57099472E+04</pdfrwt>
<pdfrwt beam="2">  1       -2 0.42056931E+00 0.57099472E+04</pdfrwt>
<totfact> 0.58118699E-03</totfact>
</mgrwt>
<rwgt>
<wgt id='morphing_basis_vector_1'> +1.2963103e-06 </wgt>
<wgt id='morphing_basis_vector_2'> +8.8463331e-07 </wgt>
<wgt id='morphing_basis_vector_3'> +1.4307749e-06 </wgt>
<wgt id='morphing_basis_vector_4'> +1.0307983e-06 </wgt>
<wgt id='morphing_basis_vector_5'> +1.6486013e-06 </wgt>
</rwgt>
</event>
<event>
 4      1 +9.0096000e-12 5.55249500e+03 7.81860800e-03 7.31340100e-02
        2 -1    0    0  501    0 +0.0000000000e+00 +0.0000000000e+00 +3.4447341750e+03 3.4447341750e+03 0.0000000000e+00 0.0000e+00 1.0000e+00
       -2 -1    0    0    0  501 -0.0000000000e+00 -0.0000000000e+00 -2.2374872974e+03 2.2374872974e+03 0.0000000000e+00 0.0000e+00 -1.0000e+00
      -13  1    1    2    0    0 +5.7901924621e+02 -3.6030773840e+02 -2.1504352320e+03 2.2559824115e+03 0.0000000000e+00 0.0000e+00 -1.0000e+00
       13  1    1    2    0    0 -5.7901924621e+02 +3.6030773840e+02 +3.3576821095e+03 3.4262390609e+03 0.0000000000e+00 0.0000e+00 1.0000e+00
<mgrwt>
<rscale>  0 0.55524946E+04</rscale>
<asrwt>0</asrwt>
<pdfrwt beam="1">  1        2 0.52995910E+00 0.55524946E+04</pdfrwt>
<pdfrwt beam="2">  1       -2 0.34422882E+00 0.55524946E+04</pdfrwt>
<totfact> 0.88860655E-03</totfact>
</mgrwt>
<rwgt>
<wgt id='morphing_basis_vector_1'> +1.1580658e-06 </wgt>
<wgt id='morphing_basis_vector_2'> +7.8699120e-07 </wgt>
<wgt id='morphing_basis_vector_3'> +1.2771052e-06 </wgt>
<wgt id='morphing_basis_vector_4'> +9.2446310e-07 </wgt>
<wgt id='morphing_basis_vector_5'> +1.4739836e-06 </wgt>
</rwgt>
</event>
<event>
 4      1 +9.0096000e-12 6.44682200e+03 7.81860800e-03 7.21448900e-02
        2 -1    0    0  501    0 +0.0000000000e+00 +0.0000000000e+00 +4.5637213797e+03 4.5637213797e+03 0.0000000000e+00 0.0000e+00 1.0000e+00
       -2 -1    0    0    0  501 -0.0000000000e+00 -0.0000000000e+00 -2.2767339145e+03 2.2767339145e+03 0.0000000000e+00 0.0000e+00 -1.0000e+00
      -13  1    1    2    0    0 -2.8943566003e+03 +1.1987621779e+03 +3.3817317937e+02 3.1509827019e+03 0.0000000000e+00 0.0000e+00 -1.0000e+00
       13  1    1    2    0    0 +2.8943566003e+03 -1.1987621779e+03 +1.9488142858e+03 3.6894725923e+03 0.0000000000e+00 0.0000e+00 1.0000e+00
<mgrwt>
<rscale>  0 0.64468222E+04</rscale>
<asrwt>0</asrwt>
<pdfrwt beam="1">  1        2 0.70211098E+00 0.64468222E+04</pdfrwt>
<pdfrwt beam="2">  1       -2 0.35026676E+00 0.64468222E+04</pdfrwt>
<totfact> 0.81170387E-04</totfact>
</mgrwt>
<rwgt>
<wgt id='morphing_basis_vector_1'> +2.1332245e-06 </wgt>
<wgt id='morphing_basis_vector_2'> +1.5220354e-06 </wgt>
<wgt id='morphing_basis_vector_3'> +2.3723064e-06 </wgt>
<wgt id='morphing_basis_vector_4'> +1.6146475e-06 </wgt>
<wgt id='morphing_basis_vector_5'> +2.6765594e-06 </wgt>
</rwgt>
</event>
<event>
 4      1 +9.0096000e-12 5.66752100e+03 7.81860800e-03 7.29965300e-02
        2 -1    0    0  501    0 +0.0000000000e+00 +0.0000000000e+00 +2.5660537445e+03 2.5660537445e+03 0.0000000000e+00 0.0000e+00 -1.0000e+00
       -2 -1    0    0    0  501 -0.0000000000e+00 -0.0000000000e+00 -3.1293962800e+03 3.1293962800e+03 0.0000000000e+00 0.0000e+00 1.0000e+00
      -13  1    1    2    0    0 +8.3272421146e+02 -1.5411908057e+03 -2.5200903889e+03 3.0691292381e+03 0.0000000000e+00 0.0000e+00 1.0000e+00
       13  1    1    2    0    0 -8.3272421146e+02 +1.5411908057e+03 +1.9567478533e+03 2.6263207865e+03 0.0000000000e+00 0.0000e+00 -1.0000e+00
<mgrwt>
<rscale>  0 0.56675212E+04</rscale>
<asrwt>0</asrwt>
<pdfrwt beam="1">  1        2 0.39477750E+00 0.56675212E+04</pdfrwt>
<pdfrwt beam="2">  1       -2 0.48144558E+00 0.56675212E+04</pdfrwt>
<totfact> 0.39713657E-03</totfact>
</mgrwt>
<rwgt>
<wgt id='morphing_basis_vector_1'> +1.2575063e-06 </wgt>
<wgt id='morphing_basis_vector_2'> +8.5631220e-07 </wgt>
<wgt id='morphing_basis_vector_3'> +1.3874263e-06 </wgt>
<wgt id='morphing_basis_vector_4'> +1.0021385e-06 </wgt>
<wgt id='morphing_basis_vector_5'> +1.6001737e-06 </wgt>
</rwgt>
</event>
<event>
 4      1 +9.0096000e-12 6.10365100e+03 7.81860800e-03 7.25039500e-02
        2 -1    0    0  501    0 +0.0000000000e+00 +0.0000000000e+00 +4.3942056605e+03 4.3942056605e+03 0.0000000000e+00 0.0000e+00 -1.0000e+00
       -2 -1    0    0    0  501 -0.0000000000e+00 -0.0000000000e+00 -2.1195269739e+03 2.1195269739e+03 0.0000000000e+00 0.0000e+00 1.0000e+00
      -13  1    1    2    0    0 -1.2194488660e+03 -2.2422338815e+03 -6.4807624362e+02 2.6333763752e+03 0.0000000000e+00 0.0000e+00 1.0000e+00
       13  1    1    2    0    0 +1.2194488660e+03 +2.2422338815e+03 +2.9227549303e+03 3.8803562592e+03 0.0000000000e+00 0.0000e+00 -1.0000e+00
<mgrwt>
<rscale>  0 0.61036505E+04</rscale>
<asrwt>0</asrwt>
<pdfrwt beam="1">  1        2 0.67603163E+00 0.61036505E+04</pdfrwt>
<pdfrwt beam="2">  1       -2 0.32608108E+00 0.61036505E+04</pdfrwt>
<totfact> 0.17907896E-03</totfact>
</mgrwt>
<rwgt>
<wgt id='morphing_basis_vector_1'> +1.6952382e-06 </wgt>
<wgt id='morphing_basis_vector_2'> +1.1657869e-06 </wgt>
<wgt id='morphing_basis_vector_3'> +1.8741799e-06 </wgt>
<wgt id='morphing_basis_vector_4'> +1.3386196e-06 </wgt>
<wgt id='morphing_basis_vector_5'> +2.1531421e-06 </wgt>
</rwgt>
</event>
<event>
 4      1 +9.0096000e-12 5.95868500e+03 7.81860800e-03 7.26629000e-02
        2 -1    0    0  501    0 +0.0000000000e+00 +0.0000000000e+00 +2.7138618704e+03 2.7138618704e+03 0.0000000000e+00 0.0000e+00 -1.0000e+00
       -2 -1    0    0    0  501 -0.0000000000e+00 -0.0000000000e+00 -3.2707929510e+03 3.2707929510e+03 0.0000000000e+00 0.0000e+00 1.0000e+00
      -13  1    1    2    0    0 +1.3021040185e+03 -1.0474211585e+03 -2.7557749897e+03 3.2228654568e+03 0.0000000000e+00 0.0000e+00 1.0000e+00
       13  1    1    2    0    0 -1.3021040185e+03 +1.0474211585e+03 +2.1988439091e+03 2.7617893647e+03 0.0000000000e+00 0.0000e+00 -1.0000e+00
<mgrwt>
<rscale>  0 0.59586845E+04</rscale>
<asrwt>0</asrwt>
<pdfrwt beam="1">  1        2 0.41751721E+00 0.59586845E+04</pdfrwt>
<pdfrwt beam="2">  1       -2 0.50319892E+00 0.59586845E+04</pdfrwt>
<totfact> 0.21706942E-03</totfact>
</mgrwt>
<rwgt>
<wgt id='morphing_basis_vector_1'> +1.5354301e-06 </wgt>
<wgt id='morphing_basis_vector_2'> +1.0451033e-06 </wgt>
<wgt id='morphing_basis_vector_3'> +1.6946565e-06 </wgt>
<wgt id='morphing_basis_vector_4'> +1.2257914e-06 </wgt>
<wgt id='morphing_basis_vector_5'> +1.9562034e-06 </wgt>
</rwgt>
</event>
<event>
 4      1 +9.0096000e-12 6.11367800e+03 7.81860800e-03 7.24931200e-02
        2 -1    0    0  501    0 +0.0000000000e+00 +0.0000000000e+00 +4.4969627616e+03 4.4969627616e+03 0.0000000000e+00 0.0000e+00 1.0000e+00
       -2 -1    0    0    0  501 -0.0000000000e+00 -0.0000000000e+00 -2.0779059869e+03 2.0779059869e+03 0.0000000000e+00 0.0000e+00 -1.0000e+00
      -13  1    1    2    0    0 +3.4034675946e+02 -1.6518296091e+03 +3.9513390743e+03 4.2962143166e+03 0.0000000000e+00 0.0000e+00 1.0000e+00
       13  1    1    2    0    0 -3.4034675946e+02 +1.6518296091e+03 -1.5322822995e+03 2.2786544319e+03 0.0000000000e+00 0.0000e+00 -1.0000e+00
<mgrwt>
<rscale>  0 0.61136784E+04</rscale>
<asrwt>0</asrwt>
<pdfrwt beam="1">  1        2 0.69184042E+00 0.61136784E+04</pdfrwt>
<pdfrwt beam="2">  1       -2 0.31967784E+00 0.61136784E+04</pdfrwt>
<totfact> 0.15526345E-03</totfact>
</mgrwt>
<rwgt>
<wgt id='morphing_basis_vector_1'> +2.2878528e-06 </wgt>
<wgt id='morphing_basis_vector_2'> +2.8801126e-06 </wgt>
<wgt id='morphing_basis_vector_3'> +2.8364636e-06 </wgt>
<wgt id='morphing_basis_vector_4'> +1.0319739e-07 </wgt>
<wgt id='morphing_basis_vector_5'> +2.0626701e-06 </wgt>
</rwgt>
</event>
<event>
 4      1 +9.0096000e-12 5.72894800e+03 7.81860800e-03 7.29244700e-02
        2 -1    0    0  501    0 +0.0000000000e+00 +0.0000000000e+00 +4.1211631278e+03 4.1211631278e+03 0.0000000000e+00 0.0000e+00 -1.0000e+00
       -2 -1    0    0    0  501 -0.0000000000e+00 -0.0000000000e+00 -1.9909940476e+03 1.9909940476e+03 0.0000000000e+00 0.0000e+00 1.0000e+00
      -13  1    1    2    0    0 -2.7094100220e+03 +3.0151077548e+02 +1.2682784131e+02 2.7290834939e+03 0.0000000000e+00 0.0000e+00 1.0000e+00
       13  1    1    2    0    0 +2.7094100220e+03 -3.0151077548e+02 +2.0033412389e+03 3.3830736815e+03 0.0000000000e+00 0.0000e+00 -1.0000e+00
<mgrwt>
<rscale>  0 0.57289480E+04</rscale>
<asrwt>0</asrwt>
<pdfrwt beam="1">  1        2 0.63402509E+00 0.57289480E+04</pdfrwt>
<pdfrwt beam="2">  1       -2 0.30630678E+00 0.57289480E+04</pdfrwt>
<totfact> 0.45010664E-03</totfact>
</mgrwt>
<rwgt>
<wgt id='morphing_basis_vector_1'> +1.3266276e-06 </wgt>
<wgt id='morphing_basis_vector_2'> +9.3467596e-07 </wgt>
<wgt id='morphing_basis_vector_3'> +1.4711426e-06 </wgt>
<wgt id='morphing_basis_vector_4'> +1.0167929e-06 </wgt>
<wgt id='morphing_basis_vector_5'> +1.6683699e-06 </wgt>
</rwgt>
</event>
<event>
 4      1 +9.0096000e-12 6.56023400e+03 7.81860800e-03 7.20311900e-02
        2 -1    0    0  501    0 +0.0000000000e+00 +0.0000000000e+00 +3.3645197824e+03 3.3645197824e+03 0.0000000000e+00 0.0000e+00 1.0000e+00
       -2 -1    0    0    0  501 -0.0000000000e+00 -0.0000000000e+00 -3.1978320414e+03 3.1978320414e+03 0.0000000000e+00 0.0000e+00 -1.0000e+00
      -13  1    1    2    0    0 -4.2492628924e+02 +3.1803452005e+03 -5.9805967168e+02 3.2638678461e+03 0.0000000000e+00 0.0000e+00 -1.0000e+00
       13  1    1    2    0    0 +4.2492628924e+02 -3.1803452005e+03 +7.6474741277e+02 3.2984839777e+03 0.0000000000e+00 0.0000e+00 1.0000e+00
<mgrwt>
<rscale>  0 0.65602345E+04</rscale>
<asrwt>0</asrwt>
<pdfrwt beam="1">  1        2 0.51761843E+00 0.65602345E+04</pdfrwt>
<pdfrwt beam="2">  1       -2 0.49197416E+00 0.65602345E+04</pdfrwt>
<totfact> 0.93920336E-04</totfact>
</mgrwt>
<rwgt>
<wgt id='morphing_basis_vector_1'> +2.2910406e-06 </wgt>
<wgt id='morphing_basis_vector_2'> +1.6436622e-06 </wgt>
<wgt id='morphing_basis_vector_3'> +2.5502507e-06 </wgt>
<wgt id='morphing_basis_vector_4'> +1.7229341e-06 </wgt>
<wgt id='morphing_basis_vector_5'> +2.8695820e-06 </wgt>
</rwgt>
</event>
<event>
 4      1 +9.0096000e-12 5.77980800e+03 7.81860800e-03 7.28654900e-02
        2 -1    0    0  501    0 +0.0000000000e+00 +0.0000000000e+00 +2.9332522134e+03 2.9332522134e+03 0.0000000000e+00 0.0000e+00 1.0000e+00
       -2 -1    0    0    0  501 -0.0000000000e+00 -0.0000000000e+00 -2.8471964975e+03 2.8471964975e+03 0.0000000000e+00 0.0000e+00 -1.0000e+00
      -13  1    1    2    0    0 +5.7817859341e+02 +2.8051989562e+03 -3.4187030096e+02 2.8844942316e+03 0.0000000000e+00 0.0000e+00 -1.0000e+00
       13  1    1    2    0    0 -5.7817859341e+02 -2.8051989562e+03 +4.2792601690e+02 2.8959544792e+03 0.0000000000e+00 0.0000e+00 1.0000e+00
<mgrwt>
<rscale>  0 0.57798081E+04</rscale>
<asrwt>0</asrwt>
<pdfrwt beam="1">  1        2 0.45126957E+00 0.57798081E+04</pdfrwt>
<pdfrwt beam="2">  1       -2 0.43803023E+00 0.57798081E+04</pdfrwt>
<totfact> 0.47417205E-03</totfact>
</mgrwt>
<rwgt>
<wgt id='morphing_basis_vector_1'> +1.3896391e-06 </wgt>
<wgt id='morphing_basis_vector_2'> +1.0134555e-06 </wgt>
<wgt id='morphing_basis_vector_3'> +1.5491841e-06 </wgt>
<wgt id='morphing_basis_vector_4'> +1.0205698e-06 </wgt>
<wgt id='morphing_basis_vector_5'> +1.7257890e-06 </wgt>
</rwgt>
</event>
<event>
 4      1 +9.0096000e-12 5.60066200e+03 7.81860800e-03 7.30760300e-02
        2 -1    0    0  501    0 +0.0000000000e+00 +0.0000000000e+00 +2.5680231675e+03 2.5680231675e+03 0.0000000000e+00 0.0000e+00 -1.0000e+00
       -2 -1    0    0    0  501 -0.0000000000e+00 -0.0000000000e+00 -3.0536536976e+03 3.0536536976e+03 0.0000000000e+00 0.0000e+00 1.0000e+00
      -13  1    1    2    0    0 -1.1168898414e+03 -2.2853738723e+03 -1.4183101753e+03 2.9123839732e+03 0.0000000000e+00 0.0000e+00 1.0000e+00
       13  1    1    2    0    0 +1.1168898414e+03 +2.2853738723e+03 +9.3267964516e+02 2.7092928920e+03 0.0000000000e+00 0.0000e+00 -1.0000e+00
<mgrwt>
<rscale>  0 0.56006619E+04</rscale>
<asrwt>0</asrwt>
<pdfrwt beam="1">  1        2 0.39508049E+00 0.56006619E+04</pdfrwt>
<pdfrwt beam="2">  1       -2 0.46979287E+00 0.56006619E+04</pdfrwt>
<totfact> 0.48481624E-03</totfact>
</mgrwt>
<rwgt>
<wgt id='morphing_basis_vector_1'> +1.2067498e-06 </wgt>
<wgt id='morphing_basis_vector_2'> +8.3835749e-07 </wgt>
<wgt id='morphing_basis_vector_3'> +1.3351636e-06 </wgt>
<wgt id='morphing_basis_vector_4'> +9.3977564e-07 </wgt>
<wgt id='morphing_basis_vector_5'> +1.5244831e-06 </wgt>
</rwgt>
</event>
<event>
 4      1 +9.0096000e-12 5.96874800e+03 7.81860800e-03 7.26517100e-02
        2 -1    0    0  501    0 +0.0000000000e+00 +0.0000000000e+00 +3.1525342763e+03 3.1525342763e+03 0.0000000000e+00 0.0000e+00 1.0000e+00
       -2 -1    0    0    0  501 -0.0000000000e+00 -0.0000000000e+00 -2.8251839533e+03 2.8251839533e+03 0.0000000000e+00 0.0000e+00 -1.0000e+00
      -13  1    1    2    0    0 +6.3569180058e+02 +1.9672636210e+03 +2.3191779476e+03 3.1068982237e+03 0.0000000000e+00 0.0000e+00 1.0000e+00
       13  1    1    2    0    0 -6.3569180058e+02 -1.9672636210e+03 -1.9918276246e+03 2.8708200058e+03 0.0000000000e+00 0.0000e+00 -1.0000e+00
<mgrwt>
<rscale>  0 0.59687484E+04</rscale>
<asrwt>0</asrwt>
<pdfrwt beam="1">  1        2 0.48500527E+00 0.59687484E+04</pdfrwt>
<pdfrwt beam="2">  1       -2 0.43464369E+00 0.59687484E+04</pdfrwt>
<totfact> 0.35364797E-03</totfact>
</mgrwt>
<rwgt>
<wgt id='morphing_basis_vector_1'> +2.0083129e-06 </wgt>
<wgt id='morphing_basis_vector_2'> +2.4097366e-06 </wgt>
<wgt id='morphing_basis_vector_3'> +2.4612230e-06 </wgt>
<wgt id='morphing_basis_vector_4'> +2.4483734e-07 </wgt>
<wgt id='morphing_basis_vector_5'> +1.8862785e-06 </wgt>
</rwgt>
</event>
<event>
 4      1 +9.0096000e-12 6.18064900e+03 7.81860800e-03 7.24213300e-02
        2 -1    0    0  501    0 +0.0000000000e+00 +0.0000000000e+00 +2.9934205108e+03 2.9934205108e+03 0.0000000000e+00 0.0000e+00 -1.0000e+00
       -2 -1    0    0    0  501 -0.0000000000e+00 -0.0000000000e+00 -3.1903658035e+03 3.1903658035e+03 0.0000000000e+00 0.0000e+00 1.0000e+00
      -13  1    1    2    0    0 -1.7119593767e+03 -4.3627002893e+02 -2.6353009320e+03 3.1726877325e+03 0.0000000000e+00 0.0000e+00 1.0000e+00
       13  1    1    2    0    0 +1.7119593767e+03 +4.3627002893e+02 +2.4383556393e+03 3.0110985818e+03 0.0000000000e+00 0.0000e+00 -1.0000e+00
<mgrwt>
<rscale>  0 0.61806493E+04</rscale>
<asrwt>0</asrwt>
<pdfrwt beam="1">  1        2 0.46052623E+00 0.61806493E+04</pdfrwt>
<pdfrwt beam="2">  1       -2 0.49082551E+00 0.61806493E+04</pdfrwt>
<totfact> 0.17583671E-03</totfact>
</mgrwt>
<rwgt>
<wgt id='morphing_basis_vector_1'> +1.7767985e-06 </wgt>
<wgt id='morphing_basis_vector_2'> +1.2097732e-06 </wgt>
<wgt id='morphing_basis_vector_3'> +1.9616876e-06 </wgt>
<wgt id='morphing_basis_vector_4'> +1.4192022e-06 </wgt>
<wgt id='morphing_basis_vector_5'> +2.2650790e-06 </wgt>
</rwgt>
</event>
<event>
 4      1 +9.0096000e-12 5.70530000e+03 7.81860800e-03 7.29521000e-02
        2 -1    0    0  501    0 +0.0000000000e+00 +0.0000000000e+00 +2.9264668047e+03 2.9264668047e+03 0.0000000000e+00 0.0000e+00 -1.0000e+00
       -2 -1    0    0    0  501 -0.0000000000e+00 -0.0000000000e+00 -2.7806953896e+03 2.7806953896e+03 0.0000000000e+00 0.0000e+00 1.0000e+00
      -13  1    1    2    0    0 +2.2378630735e+03 +1.3043326185e+03 -1.1226185566e+03 2.8230457203e+03 0.0000000000e+00 0.0000e+00 1.0000e+00
       13  1    1    2    0    0 -2.2378630735e+03 -1.3043326185e+03 +1.2683899716e+03 2.8841164740e+03 0.0000000000e+00 0.0000e+00 -1.0000e+00
<mgrwt>
<rscale>  0 0.57053003E+04</rscale>
<asrwt>0</asrwt>
<pdfrwt beam="1">  1        2 0.45022566E+00 0.57053003E+04</pdfrwt>
<pdfrwt beam="2">  1       -2 0.42779929E+00 0.57053003E+04</pdfrwt>
<totfact> 0.56477886E-03</totfact>
</mgrwt>
<rwgt>
<wgt id='morphing_basis_vector_1'> +1.2992144e-06 </wgt>
<wgt id='morphing_basis_vector_2'> +9.0262658e-07 </wgt>
<wgt id='morphing_basis_vector_3'> +1.4377131e-06 </wgt>
<wgt id='morphing_basis_vector_4'> +1.0122477e-06 </wgt>
<wgt id='morphing_basis_vector_5'> +1.6419514e-06 </wgt>
</rwgt>
</event>
<event>
 4      1 +9.0096000e-12 5.90236700e+03 7.81860800e-03 7.27258900e-02
        2 -1    0    0  501    0 +0.0000000000e+00 +0.0000000000e+00 +5.4469501820e+03 5.4469501820e+03 0.0000000000e+00 0.0000e+00 -1.0000e+00
       -2 -1    0    0    0  501 -0.0000000000e+00 -0.0000000000e+00 -1.5989653672e+03 1.5989653672e+03 0.0000000000e+00 0.0000e+00 1.0000e+00
      -13  1    1    2    0    0 +2.2489470500e+03 +8.3068347527e+02 -1.3038757419e+02 2.4009995396e+03 0.0000000000e+00 0.0000e+00 1.0000e+00
       13  1    1    2    0    0 -2.2489470500e+03 -8.3068347527e+02 +3.9783723891e+03 4.6449160096e+03 0.0000000000e+00 0.0000e+00 -1.0000e+00
<mgrwt>
<rscale>  0 0.59023672E+04</rscale>
<asrwt>0</asrwt>
<pdfrwt beam="1">  1        2 0.83799233E+00 0.59023672E+04</pdfrwt>
<pdfrwt beam="2">  1       -2 0.24599467E+00 0.59023672E+04</pdfrwt>
<totfact> 0.26040761E-04</totfact>
</mgrwt>
<rwgt>
<wgt id='morphing_basis_vector_1'> +1.4819534e-06 </wgt>
<wgt id='morphing_basis_vector_2'> +1.0168147e-06 </wgt>
<wgt id='morphing_basis_vector_3'> +1.6374122e-06 </wgt>
<wgt id='morphing_basis_vector_4'> +1.1722597e-06 </wgt>
<wgt id='morphing_basis_vector_5'> +1.8824783e-06 </wgt>
</rwgt>
</event>
<event>
 4      1 +9.0096000e-12 5.80540300e+03 7.81860800e-03 7.28360500e-02
        2 -1    0    0  501    0 +0.0000000000e+00 +0.0000000000e+00 +2.8778955423e+03 2.8778955423e+03 0.0000000000e+00 0.0000e+00 1.0000e+00
       -2 -1    0    0    0  501 -0.0000000000e+00 -0.0000000000e+00 -2.9277210943e+03 2.9277210943e+03 0.0000000000e+00 0.0000e+00 -1.0000e+00
      -13  1    1    2    0    0 +2.6622340999e+03 +2.6509916439e+02 -1.1509682420e+03 2.9124724657e+03 0.0000000000e+00 0.0000e+00 -1.0000e+00
       13  1    1    2    0    0 -2.6622340999e+03 -2.6509916439e+02 +1.1011426900e+03 2.8931441708e+03 0.0000000000e+00 0.0000e+00 1.0000e+00
<mgrwt>
<rscale>  0 0.58054028E+04</rscale>
<asrwt>0</asrwt>
<pdfrwt beam="1">  1        2 0.44275316E+00 0.58054028E+04</pdfrwt>
<pdfrwt beam="2">  1       -2 0.45041863E+00 0.58054028E+04</pdfrwt>
<totfact> 0.42189403E-03</totfact>
</mgrwt>
<rwgt>
<wgt id='morphing_basis_vector_1'> +1.3940405e-06 </wgt>
<wgt id='morphing_basis_vector_2'> +9.7186908e-07 </wgt>
<wgt id='morphing_basis_vector_3'> +1.5436665e-06 </wgt>
<wgt id='morphing_basis_vector_4'> +1.0822428e-06 </wgt>
<wgt id='morphing_basis_vector_5'> +1.7602861e-06 </wgt>
</rwgt>
</event>
<event>
 4      1 +9.0096000e-12 6.29860300e+03 7.81860800e-03 7.22971200e-02
        2 -1    0    0  501    0 +0.0000000000e+00 +0.0000000000e+00 +3.3550151525e+03 3.3550151525e+03 0.0000000000e+00 0.0000e+00 1.0000e+00
       -2 -1    0    0    0  501 -0.0000000000e+00 -0.0000000000e+00 -2.9562009520e+03 2.9562009520e+03 0.0000000000e+00 0.0000e+00 -1.0000e+00
      -13  1    1    2    0    0 -2.4628652193e+03 +1.8108983482e+03 -5.5910359995e+02 3.1076767450e+03 0.0000000000e+00 0.0000e+00 -1.0000e+00
       13  1    1    2    0    0 +2.4628652193e+03 -1.8108983482e+03 +9.5791780047e+02 3.2035393596e+03 0.0000000000e+00 0.0000e+00 1.0000e+00
<mgrwt>
<rscale>  0 0.62986027E+04</rscale>
<asrwt>0</asrwt>
<pdfrwt beam="1">  1        2 0.51615618E+00 0.62986027E+04</pdfrwt>
<pdfrwt beam="2">  1       -2 0.45480015E+00 0.62986027E+04</pdfrwt>
<totfact> 0.18164430E-03</totfact>
</mgrwt>
<rwgt>
<wgt id='morphing_basis_vector_1'> +1.9435023e-06 </wgt>
<wgt id='morphing_basis_vector_2'> +1.3852576e-06 </wgt>
<wgt id='morphing_basis_vector_3'> +2.1606232e-06 </wgt>
<wgt id='morphing_basis_vector_4'> +1.4721608e-06 </wgt>
<wgt id='morphing_basis_vector_5'> +2.4384326e-06 </wgt>
</rwgt>
</event>
<event>
 4      1 +9.0096000e-12 6.27198100e+03 7.81860800e-03 7.23249100e-02
        2 -1    0    0  501    0 +0.0000000000e+00 +0.0000000000e+00 +3.8160805579e+03 3.8160805579e+03 0.0000000000e+00 0.0000e+00 -1.0000e+00
       -2 -1    0    0    0  501 -0.0000000000e+00 -0.0000000000e+00 -2.5771042606e+03 2.5771042606e+03 0.0000000000e+00 0.0000e+00 1.0000e+00
      -13  1    1    2    0    0 +4.6616339151e+00 -1.6231458185e+03 -2.1156113019e+03 2.6665399415e+03 0.0000000000e+00 0.0000e+00 1.0000e+00
       13  1    1    2    0    0 -4.6616339151e+00 +1.6231458185e+03 +3.3545875992e+03 3.7266448770e+03 0.0000000000e+00 0.0000e+00 -1.0000e+00
<mgrwt>
<rscale>  0 0.62719813E+04</rscale>
<asrwt>0</asrwt>
<pdfrwt beam="1">  1        2 0.58708932E+00 0.62719813E+04</pdfrwt>
<pdfrwt beam="2">  1       -2 0.39647758E+00 0.62719813E+04</pdfrwt>
<totfact> 0.20187894E-03</totfact>
</mgrwt>
<rwgt>
<wgt id='morphing_basis_vector_1'> +1.8836563e-06 </wgt>
<wgt id='morphing_basis_vector_2'> +1.2819908e-06 </wgt>
<wgt id='morphing_basis_vector_3'> +2.0797574e-06 </wgt>
<wgt id='morphing_basis_vector_4'> +1.5057472e-06 </wgt>
<wgt id='morphing_basis_vector_5'> +2.4022999e-06 </wgt>
</rwgt>
</event>
<event>
 4      1 +9.0096000e-12 5.59609800e+03 7.81860800e-03 7.30815000e-02
        2 -1    0    0  501    0 +0.0000000000e+00 +0.0000000000e+00 +3.2490208123e+03 3.2490208123e+03 0.0000000000e+00 0.0000e+00 -1.0000e+00
       -2 -1    0    0    0  501 -0.0000000000e+00 -0.0000000000e+00 -2.4096727341e+03 2.4096727341e+03 0.0000000000e+00 0.0000e+00 1.0000e+00
      -13  1    1    2    0    0 -7.6310737354e+02 -2.6875224965e+03 +2.6313011810e+02 2.8061267776e+03 0.0000000000e+00 0.0000e+00 1.0000e+00
       13  1    1    2    0    0 +7.6310737354e+02 +2.6875224965e+03 +5.7621796005e+02 2.8525667688e+03 0.0000000000e+00 0.0000e+00 -1.0000e+00
<mgrwt>
<rscale>  0 0.55960975E+04</rscale>
<asrwt>0</asrwt>
<pdfrwt beam="1">  1        2 0.49984935E+00 0.55960975E+04</pdfrwt>
<pdfrwt beam="2">  1       -2 0.37071889E+00 0.55960975E+04</pdfrwt>
<totfact> 0.82117659E-03</totfact>
</mgrwt>
<rwgt>
<wgt id='morphing_basis_vector_1'> +1.2307177e-06 </wgt>
<wgt id='morphing_basis_vector_2'> +9.1749742e-07 </wgt>
<wgt id='morphing_basis_vector_3'> +1.3762564e-06 </wgt>
<wgt id='morphing_basis_vector_4'> +8.7713503e-07 </wgt>
<wgt id='morphing_basis_vector_5'> +1.5145019e-06 </wgt>
</rwgt>
</event>
<event>
 4      1 +9.0096000e-12 5.65229200e+03 7.81860800e-03 7.30145400e-02
        2 -1    0    0  501    0 +0.0000000000e+00 +0.0000000000e+00 +3.2765609877e+03 3.2765609877e+03 0.0000000000e+00 0.0000e+00 -1.0000e+00
       -2 -1    0    0    0  501 -0.0000000000e+00 -0.0000000000e+00 -2.4376475527e+03 2.4376475527e+03 0.0000000000e+00 0.0000e+00 1.0000e+00
      -13  1    1    2    0    0 -1.9754046210e+03 -1.0842350762e+03 -1.3048981071e+03 2.6039485761e+03 0.0000000000e+00 0.0000e+00 1.0000e+00
       13  1    1    2    0    0 +1.9754046210e+03 +1.0842350762e+03 +2.1438115421e+03 3.1102599642e+03 0.0000000000e+00 0.0000e+00 -1.0000e+00
<mgrwt>
<rscale>  0 0.56522919E+04</rscale>
<asrwt>0</asrwt>
<pdfrwt beam="1">  1        2 0.50408630E+00 0.56522919E+04</pdfrwt>
<pdfrwt beam="2">  1       -2 0.37502270E+00 0.56522919E+04</pdfrwt>
<totfact> 0.73432339E-03</totfact>
</mgrwt>
<rwgt>
<wgt id='morphing_basis_vector_1'> +1.2464365e-06 </wgt>
<wgt id='morphing_basis_vector_2'> +8.5407571e-07 </wgt>
<wgt id='morphing_basis_vector_3'> +1.3764190e-06 </wgt>
<wgt id='morphing_basis_vector_4'> +9.8634687e-07 </wgt>
<wgt id='morphing_basis_vector_5'> +1.5825780e-06 </wgt>
</rwgt>
</event>
<event>
 4      1 +9.0096000e-12 5.59557500e+03 7.81860800e-03 7.30821300e-02
        2 -1    0    0  501    0 +0.0000000000e+00 +0.0000000000e+00 +4.2701968053e+03 4.2701968053e+03 0.0000000000e+00 0.0000e+00 -1.0000e+00
       -2 -1    0    0    0  501 -0.0000000000e+00 -0.0000000000e+00 -1.8330806073e+03 1.8330806073e+03 0.0000000000e+00 0.0000e+00 1.0000e+00
      -13  1    1    2    0    0 +1.9537969011e+03 -1.2612670080e+03 -4.7804804528e+02 2.3741623217e+03 0.0000000000e+00 0.0000e+00 1.0000e+00
       13  1    1    2    0    0 -1.9537969011e+03 +1.2612670080e+03 +2.9151642432e+03 3.7291150909e+03 0.0000000000e+00 0.0000e+00 -1.0000e+00
<mgrwt>
<rscale>  0 0.55955750E+04</rscale>
<asrwt>0</asrwt>
<pdfrwt beam="1">  1        2 0.65695335E+00 0.55955750E+04</pdfrwt>
<pdfrwt beam="2">  1       -2 0.28201240E+00 0.55955750E+04</pdfrwt>
<totfact> 0.48450214E-03</totfact>
</mgrwt>
<rwgt>
<wgt id='morphing_basis_vector_1'> +1.1982574e-06 </wgt>
<wgt id='morphing_basis_vector_2'> +8.2320742e-07 </wgt>
<wgt id='morphing_basis_vector_3'> +1.3235976e-06 </wgt>
<wgt id='morphing_basis_vector_4'> +9.4517115e-07 </wgt>
<wgt id='morphing_basis_vector_5'> +1.5196787e-06 </wgt>
</rwgt>
</event>
<event>
 4      1 +9.0096000e-12 6.05279400e+03 7.81860800e-03 7.25591900e-02
        2 -1    0    0  501    0 +0.0000000000e+00 +0.0000000000e+00 +3.7914455289e+03 3.7914455289e+03 0.0000000000e+00 0.0000e+00 1.0000e+00
       -2 -1    0    0    0  501 -0.0000000000e+00 -0.0000000000e+00 -2.4157217198e+03 2.4157217198e+03 0.0000000000e+00 0.0000e+00 -1.0000e+00
      -13  1    1    2    0    0 -7.8782471211e+02 -2.7526371590e+03 -3.1765469211e+02 2.8807262295e+03 0.0000000000e+00 0.0000e+00 -1.0000e+00
       13  1    1    2    0    0 +7.8782471211e+02 +2.7526371590e+03 +1.6933785012e+03 3.3264410192e+03 0.0000000000e+00 0.0000e+00 1.0000e+00
<mgrwt>
<rscale>  0 0.60527935E+04</rscale>
<asrwt>0</asrwt>
<pdfrwt beam="1">  1        2 0.58329931E+00 0.60527935E+04</pdfrwt>
<pdfrwt beam="2">  1       -2 0.37164950E+00 0.60527935E+04</pdfrwt>
<totfact> 0.31084014E-03</totfact>
</mgrwt>
<rwgt>
<wgt id='morphing_basis_vector_1'> +1.6508539e-06 </wgt>
<wgt id='morphing_basis_vector_2'> +1.1605918e-06 </wgt>
<wgt id='morphing_basis_vector_3'> +1.8309413e-06 </wgt>
<wgt id='morphing_basis_vector_4'> +1.2703104e-06 </wgt>
<wgt id='morphing_basis_vector_5'> +2.0800906e-06 </wgt>
</rwgt>
</event>
<event>
 4      1 +9.0096000e-12 5.82042000e+03 7.81860800e-03 7.28188500e-02
        2 -1    0    0  501    0 +0.0000000000e+00 +0.0000000000e+00 +4.5971311710e+03 4.5971311710e+03 0.0000000000e+00 0.0000e+00 -1.0000e+00
       -2 -1    0    0    0  501 -0.0000000000e+00 -0.0000000000e+00 -1.8423062024e+03 1.8423062024e+03 0.0000000000e+00 0.0000e+00 1.0000e+00
      -13  1    1    2    0    0 +8.2005582670e+02 -2.6916121522e+03 +5.5538746643e+02 2.8680520871e+03 0.0000000000e+00 0.0000e+00 1.0000e+00
       13  1    1    2    0    0 -8.2005582670e+02 +2.6916121522e+03 +2.1994375022e+03 3.5713852863e+03 0.0000000000e+00 0.0000e+00 -1.0000e+00
<mgrwt>
<rscale>  0 0.58204204E+04</rscale>
<asrwt>0</asrwt>
<pdfrwt beam="1">  1        2 0.70725094E+00 0.58204204E+04</pdfrwt>
<pdfrwt beam="2">  1       -2 0.28343173E+00 0.58204204E+04</pdfrwt>
<totfact> 0.21799038E-03</totfact>
</mgrwt>
<rwgt>
<wgt id='morphing_basis_vector_1'> +1.4169626e-06 </wgt>
<wgt id='morphing_basis_vector_2'> +1.0068373e-06 </wgt>
<wgt id='morphing_basis_vector_3'> +1.5735291e-06 </wgt>
<wgt id='morphing_basis_vector_4'> +1.0753873e-06 </wgt>
<wgt id='morphing_basis_vector_5'> +1.7770904e-06 </wgt>
</rwgt>
</event>
<event>
 4      1 +9.0096000e-12 5.74284800e+03 7.81860800e-03 7.29082900e-02
        2 -1    0    0  501    0 +0.0000000000e+00 +0.0000000000e+00 +2.7818946377e+03 2.7818946377e+03 0.0000000000e+00 0.0000e+00 -1.0000e+00
       -2 -1    0    0    0  501 -0.0000000000e+00 -0.0000000000e+00 -2.9638348161e+03 2.9638348161e+03 0.0000000000e+00 0.0000e+00 1.0000e+00
      -13  1    1    2    0    0 +4.7797769797e+02 -2.2238222271e+03 -1.8443413523e+03 2.9283857330e+03 0.0000000000e+00 0.0000e+00 1.0000e+00
       13  1    1    2    0    0 -4.7797769797e+02 +2.2238222271e+03 +1.6624011739e+03 2.8173437207e+03 0.0000000000e+00 0.0000e+00 -1.0000e+00
<mgrwt>
<rscale>  0 0.57428481E+04</rscale>
<asrwt>0</asrwt>
<pdfrwt beam="1">  1        2 0.42798379E+00 0.57428481E+04</pdfrwt>
<pdfrwt beam="2">  1       -2 0.45597459E+00 0.57428481E+04</pdfrwt>
<totfact> 0.44545406E-03</totfact>
</mgrwt>
<rwgt>
<wgt id='morphing_basis_vector_1'> +1.3279028e-06 </wgt>
<wgt id='morphing_basis_vector_2'> +9.0967625e-07 </wgt>
<wgt id='morphing_basis_vector_3'> +1.4665309e-06 </wgt>
<wgt id='morphing_basis_vector_4'> +1.0515450e-06 </wgt>
<wgt id='morphing_basis_vector_5'> +1.6867466e-06 </wgt>
</rwgt>
</event>
<event>
 4      1 +9.0096000e-12 5.82895400e+03 7.81860800e-03 7.28091000e-02
        2 -1    0    0  501    0 +0.0000000000e+00 +0.0000000000e+00 +4.2330712944e+03 4.2330712944e+03 0.0000000000e+00 0.0000e+00 -1.0000e+00
       -2 -1    0    0    0  501 -0.0000000000e+00 -0.0000000000e+00 -2.0066222953e+03 2.0066222953e+03 0.0000000000e+00 0.0000e+00 1.0000e+00
      -13  1    1    2    0    0 -1.8892417640e+03 +7.5347438624e+02 -1.1212595634e+03 2.3225376428e+03 0.0000000000e+00 0.0000e+00 1.0000e+00
       13  1    1    2    0    0 +1.8892417640e+03 -7.5347438624e+02 +3.3477085625e+03 3.9171559469e+03 0.0000000000e+00 0.0000e+00 -1.0000e+00
<mgrwt>
<rscale>  0 0.58289537E+04</rscale>
<asrwt>0</asrwt>
<pdfrwt beam="1">  1        2 0.65124173E+00 0.58289537E+04</pdfrwt>
<pdfrwt beam="2">  1       -2 0.30871112E+00 0.58289537E+04</pdfrwt>
<totfact> 0.34056221E-03</totfact>
</mgrwt>
<rwgt>
<wgt id='morphing_basis_vector_1'> +1.4073687e-06 </wgt>
<wgt id='morphing_basis_vector_2'> +9.6020035e-07 </wgt>
<wgt id='morphing_basis_vector_3'> +1.5535705e-06 </wgt>
<wgt id='morphing_basis_vector_4'> +1.1199956e-06 </wgt>
<wgt id='morphing_basis_vector_5'> +1.7907771e-06 </wgt>
</rwgt>
</event>
<event>
 4      1 +9.0096000e-12 5.56091300e+03 7.81860800e-03 7.31238400e-02
        2 -1    0    0  501    0 +0.0000000000e+00 +0.0000000000e+00 +3.5906100906e+03 3.5906100906e+03 0.0000000000e+00 0.0000e+00 -1.0000e+00
       -2 -1    0    0    0  501 -0.0000000000e+00 -0.0000000000e+00 -2.1530991536e+03 2.1530991536e+03 0.0000000000e+00 0.0000e+00 1.0000e+00
      -13  1    1    2    0    0 -1.3729019971e+03 -2.2048456638e+03 -3.0620249838e+02 2.6153325342e+03 0.0000000000e+00 0.0000e+00 1.0000e+00
       13  1    1    2    0    0 +1.3729019971e+03 +2.2048456638e+03 +1.7437134353e+03 3.1283767099e+03 0.0000000000e+00 0.0000e+00 -1.0000e+00
<mgrwt>
<rscale>  0 0.55609134E+04</rscale>
<asrwt>0</asrwt>
<pdfrwt beam="1">  1        2 0.55240155E+00 0.55609134E+04</pdfrwt>
<pdfrwt beam="2">  1       -2 0.33124602E+00 0.55609134E+04</pdfrwt>
<totfact> 0.84330798E-03</totfact>
</mgrwt>
<rwgt>
<wgt id='morphing_basis_vector_1'> +1.1755134e-06 </wgt>
<wgt id='morphing_basis_vector_2'> +8.2238051e-07 </wgt>
<wgt id='morphing_basis_vector_3'> +1.3018533e-06 </wgt>
<wgt id='morphing_basis_vector_4'> +9.0782531e-07 </wgt>
<wgt id='morphing_basis_vector_5'> +1.4810956e-06 </wgt>
</rwgt>
</event>
<event>
 4      1 +9.0096000e-12 5.86560800e+03 7.81860800e-03 7.27674000e-02
        2 -1    0    0  501    0 +0.0000000000e+00 +0.0000000000e+00 +3.3872716781e+03 3.3872716781e+03 0.0000000000e+00 0.0000e+00 -1.0000e+00
       -2 -1    0    0    0  501 -0.0000000000e+00 -0.0000000000e+00 -2.5393117931e+03 2.5393117931e+03 0.0000000000e+00 0.0000e+00 1.0000e+00
      -13  1    1    2    0    0 +2.7930544780e+03 -8.8846161669e+02 +3.1887182386e+02 2.9482531440e+03 0.0000000000e+00 0.0000e+00 1.0000e+00
       13  1    1    2    0    0 -2.7930544780e+03 +8.8846161669e+02 +5.2908806112e+02 2.9783303272e+03 0.0000000000e+00 0.0000e+00 -1.0000e+00
<mgrwt>
<rscale>  0 0.58656079E+04</rscale>
<asrwt>0</asrwt>
<pdfrwt beam="1">  1        2 0.52111872E+00 0.58656079E+04</pdfrwt>
<pdfrwt beam="2">  1       -2 0.39066335E+00 0.58656079E+04</pdfrwt>
<totfact> 0.47867305E-03</totfact>
</mgrwt>
<rwgt>
<wgt id='morphing_basis_vector_1'> +1.4880736e-06 </wgt>
<wgt id='morphing_basis_vector_2'> +1.1168147e-06 </wgt>
<wgt id='morphing_basis_vector_3'> +1.6665348e-06 </wgt>
<wgt id='morphing_basis_vector_4'> +1.0521567e-06 </wgt>
<wgt id='morphing_basis_vector_5'> +1.8282535e-06 </wgt>
</rwgt>
</event>
<event>
 4      1 +9.0096000e-12 5.56119900e+03 7.81860800e-03 7.31234900e-02
        2 -1    0    0  501    0 +0.0000000000e+00 +0.0000000000e+00 +2.6270872772e+03 2.6270872772e+03 0.0000000000e+00 0.0000e+00 -1.0000e+00
       -2 -1    0    0    0  501 -0.0000000000e+00 -0.0000000000e+00 -2.9430821699e+03 2.9430821699e+03 0.0000000000e+00 0.0000e+00 1.0000e+00
      -13  1    1    2    0    0 +7.4407303999e+02 -4.1246369093e+02 -2.8095232555e+03 2.9355053923e+03 0.0000000000e+00 0.0000e+00 1.0000e+00
       13  1    1    2    0    0 -7.4407303999e+02 +4.1246369093e+02 +2.4935283628e+03 2.6346640547e+03 0.0000000000e+00 0.0000e+00 -1.0000e+00
<mgrwt>
<rscale>  0 0.55611991E+04</rscale>
<asrwt>0</asrwt>
<pdfrwt beam="1">  1        2 0.40416727E+00 0.55611991E+04</pdfrwt>
<pdfrwt beam="2">  1       -2 0.45278187E+00 0.55611991E+04</pdfrwt>
<totfact> 0.59258421E-03</totfact>
</mgrwt>
<rwgt>
<wgt id='morphing_basis_vector_1'> +1.1653425e-06 </wgt>
<wgt id='morphing_basis_vector_2'> +7.9198315e-07 </wgt>
<wgt id='morphing_basis_vector_3'> +1.2851590e-06 </wgt>
<wgt id='morphing_basis_vector_4'> +9.3025163e-07 </wgt>
<wgt id='morphing_basis_vector_5'> +1.4832690e-06 </wgt>
</rwgt>
</event>
<event>
 4      1 +9.0096000e-12 5.63571500e+03 7.81860800e-03 7.30342100e-02
        2 -1    0    0  501    0 +0.0000000000e+00 +0.0000000000e+00 +3.3815319931e+03 3.3815319931e+03 0.0000000000e+00 0.0000e+00 1.0000e+00
       -2 -1    0    0    0  501 -0.0000000000e+00 -0.0000000000e+00 -2.3481430063e+03 2.3481430063e+03 0.0000000000e+00 0.0000e+00 -1.0000e+00
      -13  1    1    2    0    0 -4.3642961827e+02 +1.8086558339e+03 -1.6348621593e+03 2.4767884482e+03 0.0000000000e+00 0.0000e+00 -1.0000e+00
       13  1    1    2    0    0 +4.3642961827e+02 -1.8086558339e+03 +2.6682511460e+03 3.2528865512e+03 0.0000000000e+00 0.0000e+00 1.0000e+00
<mgrwt>
<rscale>  0 0.56357149E+04</rscale>
<asrwt>0</asrwt>
<pdfrwt beam="1">  1        2 0.52023569E+00 0.56357149E+04</pdfrwt>
<pdfrwt beam="2">  1       -2 0.36125277E+00 0.56357149E+04</pdfrwt>
<totfact> 0.76081275E-03</totfact>
</mgrwt>
<rwgt>
<wgt id='morphing_basis_vector_1'> +1.2298792e-06 </wgt>
<wgt id='morphing_basis_vector_2'> +8.3813169e-07 </wgt>
<wgt id='morphing_basis_vector_3'> +1.3570259e-06 </wgt>
<wgt id='morphing_basis_vector_4'> +9.7915041e-07 </wgt>
<wgt id='morphing_basis_vector_5'> +1.5644140e-06 </wgt>
</rwgt>
</event>
<event>
 4      1 +9.0096000e-12 5.77053300e+03 7.81860800e-03 7.28762000e-02
        2 -1    0    0  501    0 +0.0000000000e+00 +0.0000000000e+00 +3.5120466800e+03 3.5120466800e+03 0.0000000000e+00 0.0000e+00 1.0000e+00
       -2 -1    0    0    0  501 -0.0000000000e+00 -0.0000000000e+00 -2.3703454987e+03 2.3703454987e+03 0.0000000000e+00 0.0000e+00 -1.0000e+00
      -13  1    1    2    0    0 +2.1059833821e+03 +1.9618912452e+03 +3.6549894763e+02 2.9013398189e+03 0.0000000000e+00 0.0000e+00 -1.0000e+00
       13  1    1    2    0    0 -2.1059833821e+03 -1.9618912452e+03 +7.7620223368e+02 2.9810523597e+03 0.0000000000e+00 0.0000e+00 1.0000e+00
<mgrwt>
<rscale>  0 0.57705334E+04</rscale>
<asrwt>0</asrwt>
<pdfrwt beam="1">  1        2 0.54031488E+00 0.57705334E+04</pdfrwt>
<pdfrwt beam="2">  1       -2 0.36466854E+00 0.57705334E+04</pdfrwt>
<totfact> 0.57634001E-03</totfact>
</mgrwt>
<rwgt>
<wgt id='morphing_basis_vector_1'> +1.3889401e-06 </wgt>
<wgt id='morphing_basis_vector_2'> +1.0309778e-06 </wgt>
<wgt id='morphing_basis_vector_3'> +1.5526015e-06 </wgt>
<wgt id='morphing_basis_vector_4'> +9.9654007e-07 </wgt>
<wgt id='morphing_basis_vector_5'> +1.7132430e-06 </wgt>
</rwgt>
</event>
<event>
 4      1 +9.0096000e-12 6.40918600e+03 7.81860800e-03 7.21831500e-02
        2 -1    0    0  501    0 +0.0000000000e+00 +0.0000000000e+00 +3.0429060754e+03 3.0429060754e+03 0.0000000000e+00 0.0000e+00 1.0000e+00
       -2 -1    0    0    0  501 -0.0000000000e+00 -0.0000000000e+00 -3.3748707652e+03 3.3748707652e+03 0.0000000000e+00 0.0000e+00 -1.0000e+00
      -13  1    1    2    0    0 +2.5587343361e+01 -2.7630934618e+03 -1.7911411352e+03 3.2929510712e+03 0.0000000000e+00 0.0000e+00 -1.0000e+00
       13  1    1    2    0    0 -2.5587343361e+01 +2.7630934618e+03 +1.4591764454e+03 3.1248257695e+03 0.0000000000e+00 0.0000e+00 1.0000e+00
<mgrwt>
<rscale>  0 0.64091855E+04</rscale>
<asrwt>0</asrwt>
<pdfrwt beam="1">  1        2 0.46813940E+00 0.64091855E+04</pdfrwt>
<pdfrwt beam="2">  1       -2 0.51921089E+00 0.64091855E+04</pdfrwt>
<totfact> 0.98401824E-04</totfact>
</mgrwt>
<rwgt>
<wgt id='morphing_basis_vector_1'> +2.0620020e-06 </wgt>
<wgt id='morphing_basis_vector_2'> +1.4224479e-06 </wgt>
<wgt id='morphing_basis_vector_3'> +2.2815088e-06 </wgt>
<wgt id='morphing_basis_vector_4'> +1.6241843e-06 </wgt>
<wgt id='morphing_basis_vector_5'> +2.6184399e-06 </wgt>
</rwgt>
</event>
<event>
 4      1 +9.0096000e-12 5.59189800e+03 7.81860800e-03 7.30865400e-02
        2 -1    0    0  501    0 +0.0000000000e+00 +0.0000000000e+00 +2.4112092771e+03 2.4112092771e+03 0.0000000000e+00 0.0000e+00 -1.0000e+00
       -2 -1    0    0    0  501 -0.0000000000e+00 -0.0000000000e+00 -3.2420791446e+03 3.2420791446e+03 0.0000000000e+00 0.0000e+00 1.0000e+00
      -13  1    1    2    0    0 +6.8117204405e+02 +1.1861915156e+03 -2.8807065305e+03 3.1889678236e+03 0.0000000000e+00 0.0000e+00 1.0000e+00
       13  1    1    2    0    0 -6.8117204405e+02 -1.1861915156e+03 +2.0498366629e+03 2.4643205981e+03 0.0000000000e+00 0.0000e+00 -1.0000e+00
<mgrwt>
<rscale>  0 0.55918982E+04</rscale>
<asrwt>0</asrwt>
<pdfrwt beam="1">  1        2 0.37095527E+00 0.55918982E+04</pdfrwt>
<pdfrwt beam="2">  1       -2 0.49878141E+00 0.55918982E+04</pdfrwt>
<totfact> 0.36655439E-03</totfact>
</mgrwt>
<rwgt>
<wgt id='morphing_basis_vector_1'> +1.1914164e-06 </wgt>
<wgt id='morphing_basis_vector_2'> +8.1017766e-07 </wgt>
<wgt id='morphing_basis_vector_3'> +1.3140892e-06 </wgt>
<wgt id='morphing_basis_vector_4'> +9.5059335e-07 </wgt>
<wgt id='morphing_basis_vector_5'> +1.5163428e-06 </wgt>
</rwgt>
</event>
<event>
 4      1 +9.0096000e-12 5.64599100e+03 7.81860800e-03 7.30220100e-02
        2 -1    0    0  501    0 +0.0000000000e+00 +0.0000000000e+00 +2.1216997121e+03 2.1216997121e+03 0.0000000000e+00 0.0000e+00 1.0000e+00
       -2 -1    0    0    0  501 -0.0000000000e+00 -0.0000000000e+00 -3.7560942924e+03 3.7560942924e+03 0.0000000000e+00 0.0000e+00 -1.0000e+00
      -13  1    1    2    0    0 -7.8377716668e+02 -2.4424521966e+03 -2.0443304365e+03 3.2801168140e+03 0.0000000000e+00 0.0000e+00 -1.0000e+00
       13  1    1    2    0    0 +7.8377716668e+02 +2.4424521966e+03 +4.0993585621e+02 2.5976771905e+03 0.0000000000e+00 0.0000e+00 1.0000e+00
<mgrwt>
<rscale>  0 0.56459912E+04</rscale>
<asrwt>0</asrwt>
<pdfrwt beam="1">  1        2 0.32641534E+00 0.56459912E+04</pdfrwt>
<pdfrwt beam="2">  1       -2 0.57786066E+00 0.56459912E+04</pdfrwt>
<totfact> 0.14124583E-03</totfact>
</mgrwt>
<rwgt>
<wgt id='morphing_basis_vector_1'> +1.2462159e-06 </wgt>
<wgt id='morphing_basis_vector_2'> +8.6587641e-07 </wgt>
<wgt id='morphing_basis_vector_3'> +1.3789535e-06 </wgt>
<wgt id='morphing_basis_vector_4'> +9.7059238e-07 </wgt>
<wgt id='morphing_basis_vector_5'> +1.5745619e-06 </wgt>
</rwgt>
</event>
<event>
 4      1 +9.0096000e-12 5.80588400e+03 7.81860800e-03 7.28355000e-02
        2 -1    0    0  501    0 +0.0000000000e+00 +0.0000000000e+00 +5.0531907156e+03 5.0531907156e+03 0.0000000000e+00 0.0000e+00 -1.0000e+00
       -2 -1    0    0    0  501 -0.0000000000e+00 -0.0000000000e+00 -1.6676736042e+03 1.6676736042e+03 0.0000000000e+00 0.0000e+00 1.0000e+00
      -13  1    1    2    0    0 +2.1532431707e+03 +1.3446032690e+03 +6.2784330571e+01 2.5393613322e+03 0.0000000000e+00 0.0000e+00 1.0000e+00
       13  1    1    2    0    0 -2.1532431707e+03 -1.3446032690e+03 +3.3227327808e+03 4.1815029876e+03 0.0000000000e+00 0.0000e+00 -1.0000e+00
<mgrwt>
<rscale>  0 0.58058842E+04</rscale>
<asrwt>0</asrwt>
<pdfrwt beam="1">  1        2 0.77741395E+00 0.58058842E+04</pdfrwt>
<pdfrwt beam="2">  1       -2 0.25656517E+00 0.58058842E+04</pdfrwt>
<totfact> 0.92754425E-04</totfact>
</mgrwt>
<rwgt>
<wgt id='morphing_basis_vector_1'> +1.3904442e-06 </wgt>
<wgt id='morphing_basis_vector_2'> +9.6028040e-07 </wgt>
<wgt id='morphing_basis_vector_3'> +1.5375593e-06 </wgt>
<wgt id='morphing_basis_vector_4'> +1.0912771e-06 </wgt>
<wgt id='morphing_basis_vector_5'> +1.7616006e-06 </wgt>
</rwgt>
</event>
<event>
 4      1 +9.0096000e-12 5.61338100e+03 7.81860800e-03 7.30608200e-02
        2 -1    0    0  501    0 +0.0000000000e+00 +0.0000000000e+00 +2.8376268402e+03 2.8376268402e+03 0.0000000000e+00 0.0000e+00 1.0000e+00
       -2 -1    0    0    0  501 -0.0000000000e+00 -0.0000000000e+00 -2.7760917118e+03 2.7760917118e+03 0.0000000000e+00 0.0000e+00 -1.0000e+00
      -13  1    1    2    0    0 +7.0337952822e+02 +9.2976038184e+02 -2.5224849756e+03 2.7788716380e+03 0.0000000000e+00 0.0000e+00 -1.0000e+00
       13  1    1    2    0    0 -7.0337952822e+02 -9.2976038184e+02 +2.5840201039e+03 2.8348469140e+03 0.0000000000e+00 0.0000e+00 1.0000e+00
<mgrwt>
<rscale>  0 0.56133813E+04</rscale>
<asrwt>0</asrwt>
<pdfrwt beam="1">  1        2 0.43655798E+00 0.56133813E+04</pdfrwt>
<pdfrwt beam="2">  1       -2 0.42709103E+00 0.56133813E+04</pdfrwt>
<totfact> 0.65498701E-03</totfact>
</mgrwt>
<rwgt>
<wgt id='morphing_basis_vector_1'> +1.2096627e-06 </wgt>
<wgt id='morphing_basis_vector_2'> +8.2233525e-07 </wgt>
<wgt id='morphing_basis_vector_3'> +1.3342011e-06 </wgt>
<wgt id='morphing_basis_vector_4'> +9.6557823e-07 </wgt>
<wgt id='morphing_basis_vector_5'> +1.5398607e-06 </wgt>
</rwgt>
</event>
<event>
 4      1 +9.0096000e-12 5.90811300e+03 7.81860800e-03 7.27194300e-02
        2 -1    0    0  501    0 +0.0000000000e+00 +0.0000000000e+00 +3.0651373206e+03 3.0651373206e+03 0.0000000000e+00 0.0000e+00 1.0000e+00
       -2 -1    0    0    0  501 -0.0000000000e+00 -0.0000000000e+00 -2.8470012963e+03 2.8470012963e+03 0.0000000000e+00 0.0000e+00 -1.0000e+00
      -13  1    1    2    0    0 -1.1578495159e+02 +1.6044585862e+03 -2.3702715617e+03 2.8645908584e+03 0.0000000000e+00 0.0000e+00 -1.0000e+00
       13  1    1    2    0    0 +1.1578495159e+02 -1.6044585862e+03 +2.5884075859e+03 3.0475477585e+03 0.0000000000e+00 0.0000e+00 1.0000e+00
<mgrwt>
<rscale>  0 0.59081130E+04</rscale>
<asrwt>0</asrwt>
<pdfrwt beam="1">  1        2 0.47155959E+00 0.59081130E+04</pdfrwt>
<pdfrwt beam="2">  1       -2 0.43800020E+00 0.59081130E+04</pdfrwt>
<totfact> 0.38546373E-03</totfact>
</mgrwt>
<rwgt>
<wgt id='morphing_basis_vector_1'> +1.4840122e-06 </wgt>
<wgt id='morphing_basis_vector_2'> +1.0098963e-06 </wgt>
<wgt id='morphing_basis_vector_3'> +1.6377470e-06 </wgt>
<wgt id='morphing_basis_vector_4'> +1.1847679e-06 </wgt>
<wgt id='morphing_basis_vector_5'> +1.8905024e-06 </wgt>
</rwgt>
</event>
<event>
 4      1 +9.0096000e-12 6.09389400e+03 7.81860800e-03 7.25145000e-02
        2 -1    0    0  501    0 +0.0000000000e+00 +0.0000000000e+00 +3.3296207404e+03 3.3296207404e+03 0.0000000000e+00 0.0000e+00 -1.0000e+00
       -2 -1    0    0    0  501 -0.0000000000e+00 -0.0000000000e+00 -2.7882715578e+03 2.7882715578e+03 0.0000000000e+00 0.0000e+00 1.0000e+00
      -13  1    1    2    0    0 +2.5317580622e+03 -1.6873055039e+03 +1.0544194293e+02 3.0443253361e+03 0.0000000000e+00 0.0000e+00 1.0000e+00
       13  1    1    2    0    0 -2.5317580622e+03 +1.6873055039e+03 +4.3590723962e+02 3.0735669621e+03 0.0000000000e+00 0.0000e+00 -1.0000e+00
<mgrwt>
<rscale>  0 0.60938943E+04</rscale>
<asrwt>0</asrwt>
<pdfrwt beam="1">  1        2 0.51224935E+00 0.60938943E+04</pdfrwt>
<pdfrwt beam="2">  1       -2 0.42896485E+00 0.60938943E+04</pdfrwt>
<totfact> 0.28912031E-03</totfact>
</mgrwt>
<rwgt>
<wgt id='morphing_basis_vector_1'> +1.7294305e-06 </wgt>
<wgt id='morphing_basis_vector_2'> +1.2903816e-06 </wgt>
<wgt id='morphing_basis_vector_3'> +1.9357058e-06 </wgt>
<wgt id='morphing_basis_vector_4'> +1.2338158e-06 </wgt>
<wgt id='morphing_basis_vector_5'> +2.1312818e-06 </wgt>
</rwgt>
</event>
<event>
 4      1 +9.0096000e-12 5.83547200e+03 7.81860800e-03 7.28016600e-02
        2 -1    0    0  501    0 +0.0000000000e+00 +0.0000000000e+00 +2.9062761953e+03 2.9062761953e+03 0.0000000000e+00 0.0000e+00 -1.0000e+00
       -2 -1    0    0    0  501 -0.0000000000e+00 -0.0000000000e+00 -2.9292409638e+03 2.9292409638e+03 0.0000000000e+00 0.0000e+00 1.0000e+00
      -13  1    1    2    0    0 +1.8066825022e+03 +8.2594281229e+02 -2.1485296039e+03 2.9261685959e+03 0.0000000000e+00 0.0000e+00 1.0000e+00
       13  1    1    2    0    0 -1.8066825022e+03 -8.2594281229e+02 +2.1255648355e+03 2.9093485633e+03 0.0000000000e+00 0.0000e+00 -1.0000e+00
<mgrwt>
<rscale>  0 0.58354720E+04</rscale>
<asrwt>0</asrwt>
<pdfrwt beam="1">  1        2 0.44711942E+00 0.58354720E+04</pdfrwt>
<pdfrwt beam="2">  1       -2 0.45065245E+00 0.58354720E+04</pdfrwt>
<totfact> 0.40222858E-03</totfact>
</mgrwt>
<rwgt>
<wgt id='morphing_basis_vector_1'> +1.4134591e-06 </wgt>
<wgt id='morphing_basis_vector_2'> +9.6391089e-07 </wgt>
<wgt id='morphing_basis_vector_3'> +1.5602037e-06 </wgt>
<wgt id='morphing_basis_vector_4'> +1.1254532e-06 </wgt>
<wgt id='morphing_basis_vector_5'> +1.7988555e-06 </wgt>
</rwgt>
</event>
<event>
 4      1 +9.0096000e-12 6.34529100e+03 7.81860800e-03 7.22487200e-02
        2 -1    0    0  501    0 +0.0000000000e+00 +0.0000000000e+00 +3.5292350543e+03 3.5292350543e+03 0.0000000000e+00 0.0000e+00 1.0000e+00
       -2 -1    0    0    0  501 -0.0000000000e+00 -0.0000000000e+00 -2.8520852490e+03 2.8520852490e+03 0.0000000000e+00 0.0000e+00 -1.0000e+00
      -13  1    1    2    0    0 +1.3836822823e+03 -2.4114299314e+03 -1.1985370093e+03 3.0275504843e+03 0.0000000000e+00 0.0000e+00 -1.0000e+00
       13  1    1    2    0    0 -1.3836822823e+03 +2.4114299314e+03 +1.8756868146e+03 3.3537698190e+03 0.0000000000e+00 0.0000e+00 1.0000e+00
<mgrwt>
<rscale>  0 0.63452909E+04</rscale>
<asrwt>0</asrwt>
<pdfrwt beam="1">  1        2 0.54295924E+00 0.63452909E+04</pdfrwt>
<pdfrwt beam="2">  1       -2 0.43878235E+00 0.63452909E+04</pdfrwt>
<totfact> 0.17496653E-03</totfact>
</mgrwt>
<rwgt>
<wgt id='morphing_basis_vector_1'> +1.9823367e-06 </wgt>
<wgt id='morphing_basis_vector_2'> +1.3700725e-06 </wgt>
<wgt id='morphing_basis_vector_3'> +2.1938178e-06 </wgt>
<wgt id='morphing_basis_vector_4'> +1.5577358e-06 </wgt>
<wgt id='morphing_basis_vector_5'> +2.5151672e-06 </wgt>
</rwgt>
</event>
<event>
 4      1 +9.0096000e-12 6.54689500e+03 7.81860800e-03 7.20444400e-02
        2 -1    0    0  501    0 +0.0000000000e+00 +0.0000000000e+00 +3.2387362279e+03 3.2387362279e+03 0.0000000000e+00 0.0000e+00 -1.0000e+00
       -2 -1    0    0    0  501 -0.0000000000e+00 -0.0000000000e+00 -3.3085312078e+03 3.3085312078e+03 0.0000000000e+00 0.0000e+00 1.0000e+00
      -13  1    1    2    0    0 +2.7863745410e+02 +1.8027129023e+03 -2.7531481981e+03 3.3026107308e+03 0.0000000000e+00 0.0000e+00 1.0000e+00
       13  1    1    2    0    0 -2.7863745410e+02 -1.8027129023e+03 +2.6833532182e+03 3.2446567049e+03 0.0000000000e+00 0.0000e+00 -1.0000e+00
<mgrwt>
<rscale>  0 0.65468954E+04</rscale>
<asrwt>0</asrwt>
<pdfrwt beam="1">  1        2 0.49826711E+00 0.65468954E+04</pdfrwt>
<pdfrwt beam="2">  1       -2 0.50900480E+00 0.65468954E+04</pdfrwt>
<totfact> 0.85749786E-04</totfact>
</mgrwt>
<rwgt>
<wgt id='morphing_basis_vector_1'> +2.2357327e-06 </wgt>
<wgt id='morphing_basis_vector_2'> +1.5224495e-06 </wgt>
<wgt id='morphing_basis_vector_3'> +2.4694044e-06 </wgt>
<wgt id='morphing_basis_vector_4'> +1.7877004e-06 </wgt>
<wgt id='morphing_basis_vector_5'> +2.8529043e-06 </wgt>
</rwgt>
</event>
<event>
 4      1 +9.0096000e-12 5.56045900e+03 7.81860800e-03 7.31243900e-02
        2 -1    0    0  501    0 +0.0000000000e+00 +0.0000000000e+00 +2.6825135885e+03 2.6825135885e+03 0.0000000000e+00 0.0000e+00 -1.0000e+00
       -2 -1    0    0    0  501 -0.0000000000e+00 -0.0000000000e+00 -2.8815051523e+03 2.8815051523e+03 0.0000000000e+00 0.0000e+00 1.0000e+00
      -13  1    1    2    0    0 +2.1321662388e+03 +3.9747282585e+02 +1.6410311636e+03 2.7197611654e+03 0.0000000000e+00 0.0000e+00 -1.0000e+00
       13  1    1    2    0    0 -2.1321662388e+03 -3.9747282585e+02 -1.8400227275e+03 2.8442575753e+03 0.0000000000e+00 0.0000e+00 1.0000e+00
<mgrwt>
<rscale>  0 0.55604592E+04</rscale>
<asrwt>0</asrwt>
<pdfrwt beam="1">  1        2 0.41269440E+00 0.55604592E+04</pdfrwt>
<pdfrwt beam="2">  1       -2 0.44330848E+00 0.55604592E+04</pdfrwt>
<totfact> 0.63770890E-03</totfact>
</mgrwt>
<rwgt>
<wgt id='morphing_basis_vector_1'> +1.4564025e-06 </wgt>
<wgt id='morphing_basis_vector_2'> +1.6478538e-06 </wgt>
<wgt id='morphing_basis_vector_3'> +1.7596474e-06 </wgt>
<wgt id='morphing_basis_vector_4'> +3.0673660e-07 </wgt>
<wgt id='morphing_basis_vector_5'> +1.4301396e-06 </wgt>
</rwgt>
</event>
<event>
 4      1 +9.0096000e-12 5.65586300e+03 7.81860800e-03 7.30103100e-02
        2 -1    0    0  501    0 +0.0000000000e+00 +0.0000000000e+00 +3.3797000408e+03 3.3797000408e+03 0.0000000000e+00 0.0000e+00 1.0000e+00
       -2 -1    0    0    0  501 -0.0000000000e+00 -0.0000000000e+00 -2.3662442815e+03 2.3662442815e+03 0.0000000000e+00 0.0000e+00 -1.0000e+00
      -13  1    1    2    0    0 -1.1296922882e+03 -2.4256579297e+03 -4.2281757947e+02 2.7090211818e+03 0.0000000000e+00 0.0000e+00 -1.0000e+00
       13  1    1    2    0    0 +1.1296922882e+03 +2.4256579297e+03 +1.4362733388e+03 3.0369231405e+03 0.0000000000e+00 0.0000e+00 1.0000e+00
<mgrwt>
<rscale>  0 0.56558628E+04</rscale>
<asrwt>0</asrwt>
<pdfrwt beam="1">  1        2 0.51995385E+00 0.56558628E+04</pdfrwt>
<pdfrwt beam="2">  1       -2 0.36403758E+00 0.56558628E+04</pdfrwt>
<totfact> 0.73120245E-03</totfact>
</mgrwt>
<rwgt>
<wgt id='morphing_basis_vector_1'> +1.2594236e-06 </wgt>
<wgt id='morphing_basis_vector_2'> +8.8512735e-07 </wgt>
<wgt id='morphing_basis_vector_3'> +1.3959430e-06 </wgt>
<wgt id='morphing_basis_vector_4'> +9.6781720e-07 </wgt>
<wgt id='morphing_basis_vector_5'> +1.5848237e-06 </wgt>
</rwgt>
</event>
<event>
 4      1 +9.0096000e-12 5.80253900e+03 7.81860800e-03 7.28393400e-02
        2 -1    0    0  501    0 +0.0000000000e+00 +0.0000000000e+00 +2.5760788544e+03 2.5760788544e+03 0.0000000000e+00 0.0000e+00 -1.0000e+00
       -2 -1    0    0    0  501 -0.0000000000e+00 -0.0000000000e+00 -3.2675100143e+03 3.2675100143e+03 0.0000000000e+00 0.0000e+00 1.0000e+00
      -13  1    1    2    0    0 -2.0477140984e+03 -2.0538197505e+03 -2.6735212077e+02 2.9125222322e+03 0.0000000000e+00 0.0000e+00 1.0000e+00
       13  1    1    2    0    0 +2.0477140984e+03 +2.0538197505e+03 -4.2407903910e+02 2.9310666365e+03 0.0000000000e+00 0.0000e+00 -1.0000e+00
<mgrwt>
<rscale>  0 0.58025386E+04</rscale>
<asrwt>0</asrwt>
<pdfrwt beam="1">  1        2 0.39631982E+00 0.58025386E+04</pdfrwt>
<pdfrwt beam="2">  1       -2 0.50269385E+00 0.58025386E+04</pdfrwt>
<totfact> 0.26890414E-03</totfact>
</mgrwt>
<rwgt>
<wgt id='morphing_basis_vector_1'> +1.4365135e-06 </wgt>
<wgt id='morphing_basis_vector_2'> +1.1026807e-06 </wgt>
<wgt id='morphing_basis_vector_3'> +1.6143808e-06 </wgt>
<wgt id='morphing_basis_vector_4'> +9.8344178e-07 </wgt>
<wgt id='morphing_basis_vector_5'> +1.7486804e-06 </wgt>
</rwgt>
</event>
<event>
 4      1 +9.0096000e-12 5.73364700e+03 7.81860800e-03 7.29189900e-02
        2 -1    0    0  501    0 +0.0000000000e+00 +0.0000000000e+00 +2.9936514292e+03 2.9936514292e+03 0.0000000000e+00 0.0000e+00 -1.0000e+00
       -2 -1    0    0    0  501 -0.0000000000e+00 -0.0000000000e+00 -2.7453682552e+03 2.7453682552e+03 0.0000000000e+00 0.0000e+00 1.0000e+00
      -13  1    1    2    0    0 +1.1224154081e+03 -1.1831979321e+03 -2.2358002773e+03 2.7674133364e+03 0.0000000000e+00 0.0000e+00 1.0000e+00
       13  1    1    2    0    0 -1.1224154081e+03 +1.1831979321e+03 +2.4840834513e+03 2.9716063480e+03 0.0000000000e+00 0.0000e+00 -1.0000e+00
<mgrwt>
<rscale>  0 0.57336465E+04</rscale>
<asrwt>0</asrwt>
<pdfrwt beam="1">  1        2 0.46056176E+00 0.57336465E+04</pdfrwt>
<pdfrwt beam="2">  1       -2 0.42236435E+00 0.57336465E+04</pdfrwt>
<totfact> 0.55433744E-03</totfact>
</mgrwt>
<rwgt>
<wgt id='morphing_basis_vector_1'> +1.3168136e-06 </wgt>
<wgt id='morphing_basis_vector_2'> +8.9617445e-07 </wgt>
<wgt id='morphing_basis_vector_3'> +1.4528832e-06 </wgt>
<wgt id='morphing_basis_vector_4'> +1.0504060e-06 </wgt>
<wgt id='morphing_basis_vector_5'> +1.6764069e-06 </wgt>
</rwgt>
</event>
<event>
 4      1 +9.0096000e-12 5.56944700e+03 7.81860800e-03 7.31135400e-02
        2 -1    0    0  501    0 +0.0000000000e+00 +0.0000000000e+00 +3.3478717393e+03 3.3478717393e+03 0.0000000000e+00 0.0000e+00 1.0000e+00
       -2 -1    0    0    0  501 -0.0000000000e+00 -0.0000000000e+00 -2.3163030924e+03 2.3163030924e+03 0.0000000000e+00 0.0000e+00 -1.0000e+00
      -13  1    1    2    0    0 +2.2524610211e+03 -6.9684966788e+02 -9.9114132536e+02 2.5576436886e+03 0.0000000000e+00 0.0000e+00 -1.0000e+00
       13  1    1    2    0    0 -2.2524610211e+03 +6.9684966788e+02 +2.0227099723e+03 3.1065311431e+03 0.0000000000e+00 0.0000e+00 1.0000e+00
<mgrwt>
<rscale>  0 0.55694472E+04</rscale>
<asrwt>0</asrwt>
<pdfrwt beam="1">  1        2 0.51505719E+00 0.55694472E+04</pdfrwt>
<pdfrwt beam="2">  1       -2 0.35635432E+00 0.55694472E+04</pdfrwt>
<totfact> 0.86860272E-03</totfact>
</mgrwt>
<rwgt>
<wgt id='morphing_basis_vector_1'> +1.1766475e-06 </wgt>
<wgt id='morphing_basis_vector_2'> +8.0958827e-07 </wgt>
<wgt id='morphing_basis_vector_3'> +1.2999585e-06 </wgt>
<wgt id='morphing_basis_vector_4'> +9.2640984e-07 </wgt>
<wgt id='morphing_basis_vector_5'> +1.4913224e-06 </wgt>
</rwgt>
</event>
<event>
 4      1 +9.0096000e-12 6.20717700e+03 7.81860800e-03 7.23931500e-02
        2 -1    0    0  501    0 +0.0000000000e+00 +0.0000000000e+00 +3.5073482780e+03 3.5073482780e+03 0.0000000000e+00 0.0000e+00 1.0000e+00
       -2 -1    0    0    0  501 -0.0000000000e+00 -0.0000000000e+00 -2.7463089115e+03 2.7463089115e+03 0.0000000000e+00 0.0000e+00 -1.0000e+00
      -13  1    1    2    0    0 +2.1320861338e+03 +8.3013333998e+02 -1.7321685431e+03 2.8697248136e+03 0.0000000000e+00 0.0000e+00 -1.0000e+00
       13  1    1    2    0    0 -2.1320861338e+03 -8.3013333998e+02 +2.4932079096e+03 3.3839323759e+03 0.0000000000e+00 0.0000e+00 1.0000e+00
<mgrwt>
<rscale>  0 0.62071771E+04</rscale>
<asrwt>0</asrwt>
<pdfrwt beam="1">  1        2 0.53959204E+00 0.62071771E+04</pdfrwt>
<pdfrwt beam="2">  1       -2 0.42250906E+00 0.62071771E+04</pdfrwt>
<totfact> 0.23608981E-03</totfact>
</mgrwt>
<rwgt>
<wgt id='morphing_basis_vector_1'> +1.8094718e-06 </wgt>
<wgt id='morphing_basis_vector_2'> +1.2366414e-06 </wgt>
<wgt id='morphing_basis_vector_3'> +1.9989103e-06 </wgt>
<wgt id='morphing_basis_vector_4'> +1.4394121e-06 </wgt>
<wgt id='morphing_basis_vector_5'> +2.3039319e-06 </wgt>
</rwgt>
</event>
<event>
 4      1 +9.0096000e-12 5.65642300e+03 7.81860800e-03 7.30096500e-02
        2 -1    0    0  501    0 +0.0000000000e+00 +0.0000000000e+00 +3.2715267675e+03 3.2715267675e+03 0.0000000000e+00 0.0000e+00 -1.0000e+00
       -2 -1    0    0    0  501 -0.0000000000e+00 -0.0000000000e+00 -2.4449684381e+03 2.4449684381e+03 0.0000000000e+00 0.0000e+00 1.0000e+00
      -13  1    1    2    0    0 -1.0591995508e+03 -7.8541894257e+02 -2.1152904052e+03 2.4926371782e+03 0.0000000000e+00 0.0000e+00 1.0000e+00
       13  1    1    2    0    0 +1.0591995508e+03 +7.8541894257e+02 +2.9418487346e+03 3.2238580274e+03 0.0000000000e+00 0.0000e+00 -1.0000e+00
<mgrwt>
<rscale>  0 0.56564228E+04</rscale>
<asrwt>0</asrwt>
<pdfrwt beam="1">  1        2 0.50331181E+00 0.56564228E+04</pdfrwt>
<pdfrwt beam="2">  1       -2 0.37614899E+00 0.56564228E+04</pdfrwt>
<totfact> 0.72776364E-03</totfact>
</mgrwt>
<rwgt>
<wgt id='morphing_basis_vector_1'> +1.2471708e-06 </wgt>
<wgt id='morphing_basis_vector_2'> +8.4804741e-07 </wgt>
<wgt id='morphing_basis_vector_3'> +1.3757129e-06 </wgt>
<wgt id='morphing_basis_vector_4'> +9.9544570e-07 </wgt>
<wgt id='morphing_basis_vector_5'> +1.5877424e-06 </wgt>
</rwgt>
</event>
<event>
 4      1 +9.0096000e-12 5.59345000e+03 7.81860800e-03 7.30846800e-02
        2 -1    0    0  501    0 +0.0000000000e+00 +0.0000000000e+00 +4.0845287467e+03 4.0845287467e+03 0.0000000000e+00 0.0000e+00 1.0000e+00
       -2 -1    0    0    0  501 -0.0000000000e+00 -0.0000000000e+00 -1.9149505601e+03 1.9149505601e+03 0.0000000000e+00 0.0000e+00 -1.0000e+00
      -13  1    1    2    0    0 +1.5270782437e+03 -2.3429621979e+03 +1.1010835698e+03 3.0056321883e+03 0.0000000000e+00 0.0000e+00 -1.0000e+00
       13  1    1    2    0    0 -1.5270782437e+03 +2.3429621979e+03 +1.0684946167e+03 2.9938471186e+03 0.0000000000e+00 0.0000e+00 1.0000e+00
<mgrwt>
<rscale>  0 0.55934500E+04</rscale>
<asrwt>0</asrwt>
<pdfrwt beam="1">  1        2 0.62838903E+00 0.55934500E+04</pdfrwt>
<pdfrwt beam="2">  1       -2 0.29460778E+00 0.55934500E+04</pdfrwt>
<totfact> 0.58730959E-03</totfact>
</mgrwt>
<rwgt>
<wgt id='morphing_basis_vector_1'> +1.2372801e-06 </wgt>
<wgt id='morphing_basis_vector_2'> +9.4184443e-07 </wgt>
<wgt id='morphing_basis_vector_3'> +1.3881288e-06 </wgt>
<wgt id='morphing_basis_vector_4'> +8.5649444e-07 </wgt>
<wgt id='morphing_basis_vector_5'> +1.5100362e-06 </wgt>
</rwgt>
</event>
<event>
 4      1 +9.0096000e-12 5.90193400e+03 7.81860800e-03 7.27263800e-02
        2 -1    0    0  501    0 +0.0000000000e+00 +0.0000000000e+00 +4.0315146859e+03 4.0315146859e+03 0.0000000000e+00 0.0000e+00 -1.0000e+00
       -2 -1    0    0    0  501 -0.0000000000e+00 -0.0000000000e+00 -2.1600336074e+03 2.1600336074e+03 0.0000000000e+00 0.0000e+00 1.0000e+00
      -13  1    1    2    0    0 +2.5430419583e+02 +7.8539279398e+02 -2.0364268541e+03 2.1973954576e+03 0.0000000000e+00 0.0000e+00 1.0000e+00
       13  1    1    2    0    0 -2.5430419583e+02 -7.8539279398e+02 +3.9079079327e+03 3.9941528357e+03 0.0000000000e+00 0.0000e+00 -1.0000e+00
<mgrwt>
<rscale>  0 0.59019343E+04</rscale>
<asrwt>0</asrwt>
<pdfrwt beam="1">  1        2 0.62023303E+00 0.59019343E+04</pdfrwt>
<pdfrwt beam="2">  1       -2 0.33231286E+00 0.59019343E+04</pdfrwt>
<totfact> 0.35760242E-03</totfact>
</mgrwt>
<rwgt>
<wgt id='morphing_basis_vector_1'> +1.4773895e-06 </wgt>
<wgt id='morphing_basis_vector_2'> +1.0043933e-06 </wgt>
<wgt id='morphing_basis_vector_3'> +1.6301911e-06 </wgt>
<wgt id='morphing_basis_vector_4'> +1.1807476e-06 </wgt>
<wgt id='morphing_basis_vector_5'> +1.8826675e-06 </wgt>
</rwgt>
</event>
<event>
 4      1 +9.0096000e-12 5.80280700e+03 7.81860800e-03 7.28390300e-02
        2 -1    0    0  501    0 +0.0000000000e+00 +0.0000000000e+00 +3.6254430324e+03 3.6254430324e+03 0.0000000000e+00 0.0000e+00 -1.0000e+00
       -2 -1    0    0    0  501 -0.0000000000e+00 -0.0000000000e+00 -2.3219624673e+03 2.3219624673e+03 0.0000000000e+00 0.0000e+00 1.0000e+00
      -13  1    1    2    0    0 -1.3386648953e+03 -1.9028495501e+02 -1.9793101630e+03 2.3970608643e+03 0.0000000000e+00 0.0000e+00 1.0000e+00
       13  1    1    2    0    0 +1.3386648953e+03 +1.9028495501e+02 +3.2827907281e+03 3.5503446354e+03 0.0000000000e+00 0.0000e+00 -1.0000e+00
<mgrwt>
<rscale>  0 0.58028071E+04</rscale>
<asrwt>0</asrwt>
<pdfrwt beam="1">  1        2 0.55776046E+00 0.58028071E+04</pdfrwt>
<pdfrwt beam="2">  1       -2 0.35722500E+00 0.58028071E+04</pdfrwt>
<totfact> 0.52788981E-03</totfact>
</mgrwt>
<rwgt>
<wgt id='morphing_basis_vector_1'> +1.3810190e-06 </wgt>
<wgt id='morphing_basis_vector_2'> +9.3920634e-07 </wgt>
<wgt id='morphing_basis_vector_3'> +1.5237208e-06 </wgt>
<wgt id='morphing_basis_vector_4'> +1.1028280e-06 </wgt>
<wgt id='morphing_basis_vector_5'> +1.7590262e-06 </wgt>
</rwgt>
</event>
<event>
 4      1 +9.0096000e-12 5.57231600e+03 7.81860800e-03 7.31100800e-02
        2 -1    0    0  501    0 +0.0000000000e+00 +0.0000000000e+00 +3.3198038069e+03 3.3198038069e+03 0.0000000000e+00 0.0000e+00 1.0000e+00
       -2 -1    0    0    0  501 -0.0000000000e+00 -0.0000000000e+00 -2.3382936434e+03 2.3382936434e+03 0.0000000000e+00 0.0000e+00 -1.0000e+00
      -13  1    1    2    0    0 +1.5727397943e+03 -1.8420048831e+03 -9.0746294437e+02 2.5864998445e+03 0.0000000000e+00 0.0000e+00 -1.0000e+00
       13  1    1    2    0    0 -1.5727397943e+03 +1.8420048831e+03 +1.8889731079e+03 3.0715976058e+03 0.0000000000e+00 0.0000e+00 1.0000e+00
<mgrwt>
<rscale>  0 0.55723159E+04</rscale>
<asrwt>0</asrwt>
<pdfrwt beam="1">  1        2 0.51073905E+00 0.55723159E+04</pdfrwt>
<pdfrwt beam="2">  1       -2 0.35973748E+00 0.55723159E+04</pdfrwt>
<totfact> 0.86423682E-03</totfact>
</mgrwt>
<rwgt>
<wgt id='morphing_basis_vector_1'> +1.1800665e-06 </wgt>
<wgt id='morphing_basis_vector_2'> +8.1418939e-07 </wgt>
<wgt id='morphing_basis_vector_3'> +1.3042665e-06 </wgt>
<wgt id='morphing_basis_vector_4'> +9.2619018e-07 </wgt>
<wgt id='morphing_basis_vector_5'> +1.4942259e-06 </wgt>
</rwgt>
</event>
<event>
 4      1 +9.0096000e-12 5.76561900e+03 7.81860800e-03 7.28818800e-02
        2 -1    0    0  501    0 +0.0000000000e+00 +0.0000000000e+00 +2.9302741832e+03 2.9302741832e+03 0.0000000000e+00 0.0000e+00 -1.0000e+00
       -2 -1    0    0    0  501 -0.0000000000e+00 -0.0000000000e+00 -2.8361140759e+03 2.8361140759e+03 0.0000000000e+00 0.0000e+00 1.0000e+00
      -13  1    1    2    0    0 +1.7765070020e+03 +1.3448870514e+03 -1.7823422423e+03 2.8533212539e+03 0.0000000000e+00 0.0000e+00 1.0000e+00
       13  1    1    2    0    0 -1.7765070020e+03 -1.3448870514e+03 +1.8765023496e+03 2.9130670053e+03 0.0000000000e+00 0.0000e+00 -1.0000e+00
<mgrwt>
<rscale>  0 0.57656194E+04</rscale>
<asrwt>0</asrwt>
<pdfrwt beam="1">  1        2 0.45081141E+00 0.57656194E+04</pdfrwt>
<pdfrwt beam="2">  1       -2 0.43632524E+00 0.57656194E+04</pdfrwt>
<totfact> 0.48968846E-03</totfact>
</mgrwt>
<rwgt>
<wgt id='morphing_basis_vector_1'> +1.3485715e-06 </wgt>
<wgt id='morphing_basis_vector_2'> +9.2281021e-07 </wgt>
<wgt id='morphing_basis_vector_3'> +1.4891676e-06 </wgt>
<wgt id='morphing_basis_vector_4'> +1.0693565e-06 </wgt>
<wgt id='morphing_basis_vector_5'> +1.7138074e-06 </wgt>
</rwgt>
</event>
<event>
 4      1 +9.0096000e-12 5.62831600e+03 7.81860800e-03 7.30430100e-02
        2 -1    0    0  501    0 +0.0000000000e+00 +0.0000000000e+00 +3.1356805842e+03 3.1356805842e+03 0.0000000000e+00 0.0000e+00 1.0000e+00
       -2 -1    0    0    0  501 -0.0000000000e+00 -0.0000000000e+00 -2.5256032927e+03 2.5256032927e+03 0.0000000000e+00 0.0000e+00 -1.0000e+00
      -13  1    1    2    0    0 +2.5164662990e+03 -5.4193594780e+01 +1.5709596207e+03 2.9670614603e+03 0.0000000000e+00 0.0000e+00 1.0000e+00
       13  1    1    2    0    0 -2.5164662990e+03 +5.4193594780e+01 -9.6088232917e+02 2.6942224166e+03 0.0000000000e+00 0.0000e+00 -1.0000e+00
<mgrwt>
<rscale>  0 0.56283160E+04</rscale>
<asrwt>0</asrwt>
<pdfrwt beam="1">  1        2 0.48241240E+00 0.56283160E+04</pdfrwt>
<pdfrwt beam="2">  1       -2 0.38855435E+00 0.56283160E+04</pdfrwt>
<totfact> 0.75036266E-03</totfact>
</mgrwt>
<rwgt>
<wgt id='morphing_basis_vector_1'> +1.4175783e-06 </wgt>
<wgt id='morphing_basis_vector_2'> +1.4036355e-06 </wgt>
<wgt id='morphing_basis_vector_3'> +1.6662919e-06 </wgt>
<wgt id='morphing_basis_vector_4'> +5.5924774e-07 </wgt>
<wgt id='morphing_basis_vector_5'> +1.5213441e-06 </wgt>
</rwgt>
</event>
<event>
 4      1 +9.0096000e-12 6.24041000e+03 7.81860800e-03 7.23580500e-02
        2 -1    0    0  501    0 +0.0000000000e+00 +0.0000000000e+00 +4.0775963687e+03 4.0775963687e+03 0.0000000000e+00 0.0000e+00 -1.0000e+00
       -2 -1    0    0    0  501 -0.0000000000e+00 -0.0000000000e+00 -2.3876023807e+03 2.3876023807e+03 0.0000000000e+00 0.0000e+00 1.0000e+00
      -13  1    1    2    0    0 -2.2173460490e+03 +1.2414315840e+03 -1.0307178249e+03 2.7422901220e+03 0.0000000000e+00 0.0000e+00 1.0000e+00
       13  1    1    2    0    0 +2.2173460490e+03 -1.2414315840e+03 +2.7207118128e+03 3.7229086273e+03 0.0000000000e+00 0.0000e+00 -1.0000e+00
<mgrwt>
<rscale>  0 0.62404099E+04</rscale>
<asrwt>0</asrwt>
<pdfrwt beam="1">  1        2 0.62732252E+00 0.62404099E+04</pdfrwt>
<pdfrwt beam="2">  1       -2 0.36732344E+00 0.62404099E+04</pdfrwt>
<totfact> 0.18849425E-03</totfact>
</mgrwt>
<rwgt>
<wgt id='morphing_basis_vector_1'> +1.8509188e-06 </wgt>
<wgt id='morphing_basis_vector_2'> +1.2705573e-06 </wgt>
<wgt id='morphing_basis_vector_3'> +2.0460909e-06 </wgt>
<wgt id='morphing_basis_vector_4'> +1.4652677e-06 </wgt>
<wgt id='morphing_basis_vector_5'> +2.3533282e-06 </wgt>
</rwgt>
</event>
<event>
 4      1 +9.0096000e-12 5.56559200e+03 7.81860800e-03 7.31181900e-02
        2 -1    0    0  501    0 +0.0000000000e+00 +0.0000000000e+00 +3.9743864926e+03 3.9743864926e+03 0.0000000000e+00 0.0000e+00 1.0000e+00
       -2 -1    0    0    0  501 -0.0000000000e+00 -0.0000000000e+00 -1.9484649878e+03 1.9484649878e+03 0.0000000000e+00 0.0000e+00 -1.0000e+00
      -13  1    1    2    0    0 -1.7250990222e+03 +3.5040278348e+02 -1.2806615285e+03 2.1768883061e+03 0.0000000000e+00 0.0000e+00 -1.0000e+00
       13  1    1    2    0    0 +1.7250990222e+03 -3.5040278348e+02 +3.3065830333e+03 3.7459631743e+03 0.0000000000e+00 0.0000e+00 1.0000e+00
<mgrwt>
<rscale>  0 0.55655918E+04</rscale>
<asrwt>0</asrwt>
<pdfrwt beam="1">  1        2 0.61144407E+00 0.55655918E+04</pdfrwt>
<pdfrwt beam="2">  1       -2 0.29976385E+00 0.55655918E+04</pdfrwt>
<totfact> 0.67598240E-03</totfact>
</mgrwt>
<rwgt>
<wgt id='morphing_basis_vector_1'> +1.1697604e-06 </wgt>
<wgt id='morphing_basis_vector_2'> +7.9666230e-07 </wgt>
<wgt id='morphing_basis_vector_3'> +1.2904314e-06 </wgt>
<wgt id='morphing_basis_vector_4'> +9.3161806e-07 </wgt>
<wgt id='morphing_basis_vector_5'> +1.4878400e-06 </wgt>
</rwgt>
</event>
<event>
 4      1 +9.0096000e-12 5.87461100e+03 7.81860800e-03 7.27572000e-02
        2 -1    0    0  501    0 +0.0000000000e+00 +0.0000000000e+00 +3.2094651589e+03 3.2094651589e+03 0.0000000000e+00 0.0000e+00 1.0000e+00
       -2 -1    0    0    0  501 -0.0000000000e+00 -0.0000000000e+00 -2.6882246402e+03 2.6882246402e+03 0.0000000000e+00 0.0000e+00 -1.0000e+00
      -13  1    1    2    0    0 +2.6096916063e+03 +1.3367188028e+03 +8.5418514402e+01 2.9333604893e+03 0.0000000000e+00 0.0000e+00 -1.0000e+00
       13  1    1    2    0    0 -2.6096916063e+03 -1.3367188028e+03 +4.3582200427e+02 2.9643293098e+03 0.0000000000e+00 0.0000e+00 1.0000e+00
<mgrwt>
<rscale>  0 0.58746109E+04</rscale>
<asrwt>0</asrwt>
<pdfrwt beam="1">  1        2 0.49376387E+00 0.58746109E+04</pdfrwt>
<pdfrwt beam="2">  1       -2 0.41357302E+00 0.58746109E+04</pdfrwt>
<totfact> 0.45049940E-03</totfact>
</mgrwt>
<rwgt>
<wgt id='morphing_basis_vector_1'> +1.4932549e-06 </wgt>
<wgt id='morphing_basis_vector_2'> +1.1120732e-06 </wgt>
<wgt id='morphing_basis_vector_3'> +1.6703388e-06 </wgt>
<wgt id='morphing_basis_vector_4'> +1.0671005e-06 </wgt>
<wgt id='morphing_basis_vector_5'> +1.8402406e-06 </wgt>
</rwgt>
</event>
<event>
 4      1 +9.0096000e-12 6.01373700e+03 7.81860800e-03 7.26020000e-02
        2 -1    0    0  501    0 +0.0000000000e+00 +0.0000000000e+00 +3.8070545966e+03 3.8070545966e+03 0.0000000000e+00 0.0000e+00 -1.0000e+00
       -2 -1    0    0    0  501 -0.0000000000e+00 -0.0000000000e+00 -2.3748692823e+03 2.3748692823e+03 0.0000000000e+00 0.0000e+00 1.0000e+00
      -13  1    1    2    0    0 -9.1510668185e+02 +2.8634129378e+03 +7.8658997131e+02 3.1072942690e+03 0.0000000000e+00 0.0000e+00 1.0000e+00
       13  1    1    2    0    0 +9.1510668185e+02 -2.8634129378e+03 +6.4559534298e+02 3.0746296099e+03 0.0000000000e+00 0.0000e+00 -1.0000e+00
<mgrwt>
<rscale>  0 0.60137366E+04</rscale>
<asrwt>0</asrwt>
<pdfrwt beam="1">  1        2 0.58570071E+00 0.60137366E+04</pdfrwt>
<pdfrwt beam="2">  1       -2 0.36536450E+00 0.60137366E+04</pdfrwt>
<totfact> 0.33245146E-03</totfact>
</mgrwt>
<rwgt>
<wgt id='morphing_basis_vector_1'> +1.6558815e-06 </wgt>
<wgt id='morphing_basis_vector_2'> +1.2692954e-06 </wgt>
<wgt id='morphing_basis_vector_3'> +1.8611073e-06 </wgt>
<wgt id='morphing_basis_vector_4'> +1.1369429e-06 </wgt>
<wgt id='morphing_basis_vector_5'> +2.0183241e-06 </wgt>
</rwgt>
</event>
<event>
 4      1 +9.0096000e-12 5.63511100e+03 7.81860800e-03 7.30349300e-02
        2 -1    0    0  501    0 +0.0000000000e+00 +0.0000000000e+00 +3.3587347316e+03 3.3587347316e+03 0.0000000000e+00 0.0000e+00 1.0000e+00
       -2 -1    0    0    0  501 -0.0000000000e+00 -0.0000000000e+00 -2.3635739973e+03 2.3635739973e+03 0.0000000000e+00 0.0000e+00 -1.0000e+00
      -13  1    1    2    0    0 +1.1339054818e+03 +1.9612602616e+03 -1.2035537789e+03 2.5653119019e+03 0.0000000000e+00 0.0000e+00 -1.0000e+00
       13  1    1    2    0    0 -1.1339054818e+03 -1.9612602616e+03 +2.1987145132e+03 3.1569968270e+03 0.0000000000e+00 0.0000e+00 1.0000e+00
<mgrwt>
<rscale>  0 0.56351107E+04</rscale>
<asrwt>0</asrwt>
<pdfrwt beam="1">  1        2 0.51672842E+00 0.56351107E+04</pdfrwt>
<pdfrwt beam="2">  1       -2 0.36362677E+00 0.56351107E+04</pdfrwt>
<totfact> 0.76244985E-03</totfact>
</mgrwt>
<rwgt>
<wgt id='morphing_basis_vector_1'> +1.2315633e-06 </wgt>
<wgt id='morphing_basis_vector_2'> +8.4426055e-07 </wgt>
<wgt id='morphing_basis_vector_3'> +1.3600460e-06 </wgt>
<wgt id='morphing_basis_vector_4'> +9.7400760e-07 </wgt>
<wgt id='morphing_basis_vector_5'> +1.5633448e-06 </wgt>
</rwgt>
</event>
<event>
 4      1 +9.0096000e-12 5.86152800e+03 7.81860800e-03 7.27720200e-02
        2 -1    0    0  501    0 +0.0000000000e+00 +0.0000000000e+00 +3.7898700379e+03 3.7898700379e+03 0.0000000000e+00 0.0000e+00 -1.0000e+00
       -2 -1    0    0    0  501 -0.0000000000e+00 -0.0000000000e+00 -2.2664043537e+03 2.2664043537e+03 0.0000000000e+00 0.0000e+00 1.0000e+00
      -13  1    1    2    0    0 -1.8813719954e+03 +5.8738293995e+02 -1.4793876784e+03 2.4643796798e+03 0.0000000000e+00 0.0000e+00 1.0000e+00
       13  1    1    2    0    0 +1.8813719954e+03 -5.8738293995e+02 +3.0028533626e+03 3.5918947118e+03 0.0000000000e+00 0.0000e+00 -1.0000e+00
<mgrwt>
<rscale>  0 0.58615281E+04</rscale>
<asrwt>0</asrwt>
<pdfrwt beam="1">  1        2 0.58305693E+00 0.58615281E+04</pdfrwt>
<pdfrwt beam="2">  1       -2 0.34867759E+00 0.58615281E+04</pdfrwt>
<totfact> 0.44455211E-03</totfact>
</mgrwt>
<rwgt>
<wgt id='morphing_basis_vector_1'> +1.4387217e-06 </wgt>
<wgt id='morphing_basis_vector_2'> +9.8096060e-07 </wgt>
<wgt id='morphing_basis_vector_3'> +1.5881052e-06 </wgt>
<wgt id='morphing_basis_vector_4'> +1.1459289e-06 </wgt>
<wgt id='morphing_basis_vector_5'> +1.8312917e-06 </wgt>
</rwgt>
</event>
<event>
 4      1 +9.0096000e-12 5.55381800e+03 7.81860800e-03 7.31324100e-02
        2 -1    0    0  501    0 +0.0000000000e+00 +0.0000000000e+00 +3.0005501048e+03 3.0005501048e+03 0.0000000000e+00 0.0000e+00 1.0000e+00
       -2 -1    0    0    0  501 -0.0000000000e+00 -0.0000000000e+00 -2.5699369014e+03 2.5699369014e+03 0.0000000000e+00 0.0000e+00 -1.0000e+00
      -13  1    1    2    0    0 +1.7955557551e+03 +1.1549052584e+03 -1.5658039606e+03 2.6475590019e+03 0.0000000000e+00 0.0000e+00 -1.0000e+00
       13  1    1    2    0    0 -1.7955557551e+03 -1.1549052584e+03 +1.9964171640e+03 2.9229280043e+03 0.0000000000e+00 0.0000e+00 1.0000e+00
<mgrwt>
<rscale>  0 0.55538183E+04</rscale>
<asrwt>0</asrwt>
<pdfrwt beam="1">  1        2 0.46162309E+00 0.55538183E+04</pdfrwt>
<pdfrwt beam="2">  1       -2 0.39537491E+00 0.55538183E+04</pdfrwt>
<totfact> 0.83703850E-03</totfact>
</mgrwt>
<rwgt>
<wgt id='morphing_basis_vector_1'> +1.1614349e-06 </wgt>
<wgt id='morphing_basis_vector_2'> +7.9439745e-07 </wgt>
<wgt id='morphing_basis_vector_3'> +1.2820168e-06 </wgt>
<wgt id='morphing_basis_vector_4'> +9.2050440e-07 </wgt>
<wgt id='morphing_basis_vector_5'> +1.4749865e-06 </wgt>
</rwgt>
</event>
<event>
 4      1 +9.0096000e-12 6.23257700e+03 7.81860800e-03 7.23663100e-02
        2 -1    0    0  501    0 +0.0000000000e+00 +0.0000000000e+00 +3.9516564635e+03 3.9516564635e+03 0.0000000000e+00 0.0000e+00 -1.0000e+00
       -2 -1    0    0    0  501 -0.0000000000e+00 -0.0000000000e+00 -2.4575149655e+03 2.4575149655e+03 0.0000000000e+00 0.0000e+00 1.0000e+00
      -13  1    1    2    0    0 -1.0191177198e+03 -2.1644893279e+03 -1.3064173163e+03 2.7258652171e+03 0.0000000000e+00 0.0000e+00 1.0000e+00
       13  1    1    2    0    0 +1.0191177198e+03 +2.1644893279e+03 +2.8005588144e+03 3.6833062119e+03 0.0000000000e+00 0.0000e+00 -1.0000e+00
<mgrwt>
<rscale>  0 0.62325773E+04</rscale>
<asrwt>0</asrwt>
<pdfrwt beam="1">  1        2 0.60794715E+00 0.62325773E+04</pdfrwt>
<pdfrwt beam="2">  1       -2 0.37807923E+00 0.62325773E+04</pdfrwt>
<totfact> 0.20623267E-03</totfact>
</mgrwt>
<rwgt>
<wgt id='morphing_basis_vector_1'> +1.8399863e-06 </wgt>
<wgt id='morphing_basis_vector_2'> +1.2592741e-06 </wgt>
<wgt id='morphing_basis_vector_3'> +2.0330979e-06 </wgt>
<wgt id='morphing_basis_vector_4'> +1.4615001e-06 </wgt>
<wgt id='morphing_basis_vector_5'> +2.3418136e-06 </wgt>
</rwgt>
</event>
<event>
 4      1 +9.0096000e-12 6.60721300e+03 7.81860800e-03 7.19847700e-02
        2 -1    0    0  501    0 +0.0000000000e+00 +0.0000000000e+00 +3.5768324414e+03 3.5768324414e+03 0.0000000000e+00 0.0000e+00 -1.0000e+00
       -2 -1    0    0    0  501 -0.0000000000e+00 -0.0000000000e+00 -3.0512513973e+03 3.0512513973e+03 0.0000000000e+00 0.0000e+00 1.0000e+00
      -13  1    1    2    0    0 +1.3514428716e+03 -2.9984819491e+03 -4.8872622790e+01 3.2893282547e+03 0.0000000000e+00 0.0000e+00 1.0000e+00
       13  1    1    2    0    0 -1.3514428716e+03 +2.9984819491e+03 +5.7445366685e+02 3.3387555840e+03 0.0000000000e+00 0.0000e+00 -1.0000e+00
<mgrwt>
<rscale>  0 0.66072127E+04</rscale>
<asrwt>0</asrwt>
<pdfrwt beam="1">  1        2 0.55028192E+00 0.66072127E+04</pdfrwt>
<pdfrwt beam="2">  1       -2 0.46942329E+00 0.66072127E+04</pdfrwt>
<totfact> 0.96210487E-04</totfact>
</mgrwt>
<rwgt>
<wgt id='morphing_basis_vector_1'> +2.3787245e-06 </wgt>
<wgt id='morphing_basis_vector_2'> +1.7542404e-06 </wgt>
<wgt id='morphing_basis_vector_3'> +2.6592435e-06 </wgt>
<wgt id='morphing_basis_vector_4'> +1.7268919e-06 </wgt>
<wgt id='morphing_basis_vector_5'> +2.9489437e-06 </wgt>
</rwgt>
</event>
<event>
 4      1 +9.0096000e-12 5.82233700e+03 7.81860800e-03 7.28166600e-02
        2 -1    0    0  501    0 +0.0000000000e+00 +0.0000000000e+00 +3.9688382635e+03 3.9688382635e+03 0.0000000000e+00 0.0000e+00 -1.0000e+00
       -2 -1    0    0    0  501 -0.0000000000e+00 -0.0000000000e+00 -2.1353607323e+03 2.1353607323e+03 0.0000000000e+00 0.0000e+00 1.0000e+00
      -13  1    1    2    0    0 +2.7167358765e+02 -1.0240784120e+03 -1.9260506576e+03 2.1982298032e+03 0.0000000000e+00 0.0000e+00 1.0000e+00
       13  1    1    2    0    0 -2.7167358765e+02 +1.0240784120e+03 +3.7595281887e+03 3.9059691927e+03 0.0000000000e+00 0.0000e+00 -1.0000e+00
<mgrwt>
<rscale>  0 0.58223368E+04</rscale>
<asrwt>0</asrwt>
<pdfrwt beam="1">  1        2 0.61059050E+00 0.58223368E+04</pdfrwt>
<pdfrwt beam="2">  1       -2 0.32851704E+00 0.58223368E+04</pdfrwt>
<totfact> 0.43100612E-03</totfact>
</mgrwt>
<rwgt>
<wgt id='morphing_basis_vector_1'> +1.3995173e-06 </wgt>
<wgt id='morphing_basis_vector_2'> +9.5148622e-07 </wgt>
<wgt id='morphing_basis_vector_3'> +1.5441029e-06 </wgt>
<wgt id='morphing_basis_vector_4'> +1.1180868e-06 </wgt>
<wgt id='morphing_basis_vector_5'> +1.7829080e-06 </wgt>
</rwgt>
</event>
<event>
 4      1 +9.0096000e-12 6.42475600e+03 7.81860800e-03 7.21672900e-02
        2 -1    0    0  501    0 +0.0000000000e+00 +0.0000000000e+00 +3.7609704559e+03 3.7609704559e+03 0.0000000000e+00 0.0000e+00 -1.0000e+00
       -2 -1    0    0    0  501 -0.0000000000e+00 -0.0000000000e+00 -2.7438057817e+03 2.7438057817e+03 0.0000000000e+00 0.0000e+00 1.0000e+00
      -13  1    1    2    0    0 +4.3445123844e+02 -9.5334711152e+02 -2.5659742119e+03 2.7716136545e+03 0.0000000000e+00 0.0000e+00 1.0000e+00
       13  1    1    2    0    0 -4.3445123844e+02 +9.5334711152e+02 +3.5831388862e+03 3.7331625831e+03 0.0000000000e+00 0.0000e+00 -1.0000e+00
<mgrwt>
<rscale>  0 0.64247560E+04</rscale>
<asrwt>0</asrwt>
<pdfrwt beam="1">  1        2 0.57861084E+00 0.64247560E+04</pdfrwt>
<pdfrwt beam="2">  1       -2 0.42212397E+00 0.64247560E+04</pdfrwt>
<totfact> 0.14972394E-03</totfact>
</mgrwt>
<rwgt>
<wgt id='morphing_basis_vector_1'> +2.0731488e-06 </wgt>
<wgt id='morphing_basis_vector_2'> +1.4101208e-06 </wgt>
<wgt id='morphing_basis_vector_3'> +2.2891612e-06 </wgt>
<wgt id='morphing_basis_vector_4'> +1.6591662e-06 </wgt>
<wgt id='morphing_basis_vector_5'> +2.6456361e-06 </wgt>
</rwgt>
</event>
<event>
 4      1 +9.0096000e-12 5.63962800e+03 7.81860800e-03 7.30295600e-02
        2 -1    0    0  501    0 +0.0000000000e+00 +0.0000000000e+00 +4.2132969225e+03 4.2132969225e+03 0.0000000000e+00 0.0000e+00 1.0000e+00
       -2 -1    0    0    0  501 -0.0000000000e+00 -0.0000000000e+00 -1.8872043213e+03 1.8872043213e+03 0.0000000000e+00 0.0000e+00 -1.0000e+00
      -13  1    1    2    0    0 -3.7488176583e+02 +2.2921480319e+03 -5.6664908749e+02 2.3907258577e+03 0.0000000000e+00 0.0000e+00 -1.0000e+00
       13  1    1    2    0    0 +3.7488176583e+02 -2.2921480319e+03 +2.8927416887e+03 3.7097753862e+03 0.0000000000e+00 0.0000e+00 1.0000e+00
<mgrwt>
<rscale>  0 0.56396284E+04</rscale>
<asrwt>0</asrwt>
<pdfrwt beam="1">  1        2 0.64819953E+00 0.56396284E+04</pdfrwt>
<pdfrwt beam="2">  1       -2 0.29033913E+00 0.56396284E+04</pdfrwt>
<totfact> 0.47905568E-03</totfact>
</mgrwt>
<rwgt>
<wgt id='morphing_basis_vector_1'> +1.2360862e-06 </wgt>
<wgt id='morphing_basis_vector_2'> +8.4866826e-07 </wgt>
<wgt id='morphing_basis_vector_3'> +1.3653558e-06 </wgt>
<wgt id='morphing_basis_vector_4'> +9.7590531e-07 </wgt>
<wgt id='morphing_basis_vector_5'> +1.5682728e-06 </wgt>
</rwgt>
</event>
<event>
 4      1 +9.0096000e-12 5.90914900e+03 7.81860800e-03 7.27182700e-02
        2 -1    0    0  501    0 +0.0000000000e+00 +0.0000000000e+00 +4.5295854146e+03 4.5295854146e+03 0.0000000000e+00 0.0000e+00 -1.0000e+00
       -2 -1    0    0    0  501 -0.0000000000e+00 -0.0000000000e+00 -1.9272203547e+03 1.9272203547e+03 0.0000000000e+00 0.0000e+00 1.0000e+00
      -13  1    1    2    0    0 -2.1195758102e+03 +1.7074062321e+03 +2.5573703671e+03 3.7346995664e+03 0.0000000000e+00 0.0000e+00 1.0000e+00
       13  1    1    2    0    0 +2.1195758102e+03 -1.7074062321e+03 +4.4994692818e+01 2.7221062028e+03 0.0000000000e+00 0.0000e+00 -1.0000e+00
<mgrwt>
<rscale>  0 0.59091486E+04</rscale>
<asrwt>0</asrwt>
<pdfrwt beam="1">  1        2 0.69685929E+00 0.59091486E+04</pdfrwt>
<pdfrwt beam="2">  1       -2 0.29649544E+00 0.59091486E+04</pdfrwt>
<totfact> 0.20845890E-03</totfact>
</mgrwt>
<rwgt>
<wgt id='morphing_basis_vector_1'> +1.6844915e-06 </wgt>
<wgt id='morphing_basis_vector_2'> +1.5960208e-06 </wgt>
<wgt id='morphing_basis_vector_3'> +1.9644098e-06 </wgt>
<wgt id='morphing_basis_vector_4'> +7.5908754e-07 </wgt>
<wgt id='morphing_basis_vector_5'> +1.8559646e-06 </wgt>
</rwgt>
</event>
<event>
 4      1 +9.0096000e-12 6.11569600e+03 7.81860800e-03 7.24909400e-02
        2 -1    0    0  501    0 +0.0000000000e+00 +0.0000000000e+00 +3.0341555629e+03 3.0341555629e+03 0.0000000000e+00 0.0000e+00 1.0000e+00
       -2 -1    0    0    0  501 -0.0000000000e+00 -0.0000000000e+00 -3.0817252485e+03 3.0817252485e+03 0.0000000000e+00 0.0000e+00 -1.0000e+00
      -13  1    1    2    0    0 -3.2625865754e+02 +2.7643861309e+03 -1.2895870971e+03 3.0677858911e+03 0.0000000000e+00 0.0000e+00 -1.0000e+00
       13  1    1    2    0    0 +3.2625865754e+02 -2.7643861309e+03 +1.2420174116e+03 3.0480949203e+03 0.0000000000e+00 0.0000e+00 1.0000e+00
<mgrwt>
<rscale>  0 0.61156958E+04</rscale>
<asrwt>0</asrwt>
<pdfrwt beam="1">  1        2 0.46679317E+00 0.61156958E+04</pdfrwt>
<pdfrwt beam="2">  1       -2 0.47411157E+00 0.61156958E+04</pdfrwt>
<totfact> 0.22098903E-03</totfact>
</mgrwt>
<rwgt>
<wgt id='morphing_basis_vector_1'> +1.7144940e-06 </wgt>
<wgt id='morphing_basis_vector_2'> +1.1922191e-06 </wgt>
<wgt id='morphing_basis_vector_3'> +1.8985961e-06 </wgt>
<wgt id='morphing_basis_vector_4'> +1.3366921e-06 </wgt>
<wgt id='morphing_basis_vector_5'> +2.1691695e-06 </wgt>
</rwgt>
</event>
<event>
 4      1 +9.0096000e-12 5.59389200e+03 7.81860800e-03 7.30841500e-02
        2 -1    0    0  501    0 +0.0000000000e+00 +0.0000000000e+00 +3.3804949840e+03 3.3804949840e+03 0.0000000000e+00 0.0000e+00 1.0000e+00
       -2 -1    0    0    0  501 -0.0000000000e+00 -0.0000000000e+00 -2.3141302157e+03 2.3141302157e+03 0.0000000000e+00 0.0000e+00 -1.0000e+00
      -13  1    1    2    0    0 +1.7810452885e+03 -1.1989082567e+03 -1.2916948483e+03 2.5055895332e+03 0.0000000000e+00 0.0000e+00 -1.0000e+00
       13  1    1    2    0    0 -1.7810452885e+03 +1.1989082567e+03 +2.3580596166e+03 3.1890356666e+03 0.0000000000e+00 0.0000e+00 1.0000e+00
<mgrwt>
<rscale>  0 0.55938915E+04</rscale>
<asrwt>0</asrwt>
<pdfrwt beam="1">  1        2 0.52007615E+00 0.55938915E+04</pdfrwt>
<pdfrwt beam="2">  1       -2 0.35602003E+00 0.55938915E+04</pdfrwt>
<totfact> 0.82621148E-03</totfact>
</mgrwt>
<rwgt>
<wgt id='morphing_basis_vector_1'> +1.1952070e-06 </wgt>
<wgt id='morphing_basis_vector_2'> +8.1748366e-07 </wgt>
<wgt id='morphing_basis_vector_3'> +1.3193778e-06 </wgt>
<wgt id='morphing_basis_vector_4'> +9.4747664e-07 </wgt>
<wgt id='morphing_basis_vector_5'> +1.5181355e-06 </wgt>
</rwgt>
</event>
<event>
 4      1 +9.0096000e-12 5.68763300e+03 7.81860800e-03 7.29728300e-02
        2 -1    0    0  501    0 +0.0000000000e+00 +0.0000000000e+00 +4.7904789318e+03 4.7904789318e+03 0.0000000000e+00 0.0000e+00 1.0000e+00
       -2 -1    0    0    0  501 -0.0000000000e+00 -0.0000000000e+00 -1.6882012174e+03 1.6882012174e+03 0.0000000000e+00 0.0000e+00 -1.0000e+00
      -13  1    1    2    0    0 -1.3412796403e+03 -8.5682847401e+02 +4.2356305480e+03 4.5247930612e+03 0.0000000000e+00 0.0000e+00 1.0000e+00
       13  1    1    2    0    0 +1.3412796403e+03 +8.5682847401e+02 -1.1333528336e+03 1.9538870881e+03 0.0000000000e+00 0.0000e+00 -1.0000e+00
<mgrwt>
<rscale>  0 0.56876330E+04</rscale>
<asrwt>0</asrwt>
<pdfrwt beam="1">  1        2 0.73699675E+00 0.56876330E+04</pdfrwt>
<pdfrwt beam="2">  1       -2 0.25972327E+00 0.56876330E+04</pdfrwt>
<totfact> 0.19305912E-03</totfact>
</mgrwt>
<rwgt>
<wgt id='morphing_basis_vector_1'> +1.7127226e-06 </wgt>
<wgt id='morphing_basis_vector_2'> +2.1522940e-06 </wgt>
<wgt id='morphing_basis_vector_3'> +2.1201670e-06 </wgt>
<wgt id='morphing_basis_vector_4'> +8.1939908e-08 </wgt>
<wgt id='morphing_basis_vector_5'> +1.5445264e-06 </wgt>
</rwgt>
</event>
<event>
 4      1 +9.0096000e-12 6.01186700e+03 7.81860800e-03 7.26040600e-02
        2 -1    0    0  501    0 +0.0000000000e+00 +0.0000000000e+00 +2.8918451363e+03 2.8918451363e+03 0.0000000000e+00 0.0000e+00 -1.0000e+00
       -2 -1    0    0    0  501 -0.0000000000e+00 -0.0000000000e+00 -3.1245225184e+03 3.1245225184e+03 0.0000000000e+00 0.0000e+00 1.0000e+00
      -13  1    1    2    0    0 +1.5259050813e+03 +3.3833337268e+02 -2.6859018717e+03 3.1075592758e+03 0.0000000000e+00 0.0000e+00 1.0000e+00
       13  1    1    2    0    0 -1.5259050813e+03 -3.3833337268e+02 +2.4532244896e+03 2.9088083788e+03 0.0000000000e+00 0.0000e+00 -1.0000e+00
<mgrwt>
<rscale>  0 0.60118667E+04</rscale>
<asrwt>0</asrwt>
<pdfrwt beam="1">  1        2 0.44489925E+00 0.60118667E+04</pdfrwt>
<pdfrwt beam="2">  1       -2 0.48069577E+00 0.60118667E+04</pdfrwt>
<totfact> 0.24621647E-03</totfact>
</mgrwt>
<rwgt>
<wgt id='morphing_basis_vector_1'> +1.5906802e-06 </wgt>
<wgt id='morphing_basis_vector_2'> +1.0823710e-06 </wgt>
<wgt id='morphing_basis_vector_3'> +1.7556781e-06 </wgt>
<wgt id='morphing_basis_vector_4'> +1.2706122e-06 </wgt>
<wgt id='morphing_basis_vector_5'> +2.0271722e-06 </wgt>
</rwgt>
</event>
<event>
 4      1 +9.0096000e-12 5.99224500e+03 7.81860800e-03 7.26256900e-02
        2 -1    0    0  501    0 +0.0000000000e+00 +0.0000000000e+00 +3.9702439515e+03 3.9702439515e+03 0.0000000000e+00 0.0000e+00 1.0000e+00
       -2 -1    0    0    0  501 -0.0000000000e+00 -0.0000000000e+00 -2.2610074308e+03 2.2610074308e+03 0.0000000000e+00 0.0000e+00 -1.0000e+00
      -13  1    1    2    0    0 -1.5361638149e+03 -8.5835941845e+02 -1.6670076601e+03 2.4239419746e+03 0.0000000000e+00 0.0000e+00 -1.0000e+00
       13  1    1    2    0    0 +1.5361638149e+03 +8.5835941845e+02 +3.3762441808e+03 3.8073094077e+03 0.0000000000e+00 0.0000e+00 1.0000e+00
<mgrwt>
<rscale>  0 0.59922453E+04</rscale>
<asrwt>0</asrwt>
<pdfrwt beam="1">  1        2 0.61080676E+00 0.59922453E+04</pdfrwt>
<pdfrwt beam="2">  1       -2 0.34784730E+00 0.59922453E+04</pdfrwt>
<totfact> 0.31705404E-03</totfact>
</mgrwt>
<rwgt>
<wgt id='morphing_basis_vector_1'> +1.5703771e-06 </wgt>
<wgt id='morphing_basis_vector_2'> +1.0692468e-06 </wgt>
<wgt id='morphing_basis_vector_3'> +1.7333873e-06 </wgt>
<wgt id='morphing_basis_vector_4'> +1.2533962e-06 </wgt>
<wgt id='morphing_basis_vector_5'> +2.0007224e-06 </wgt>
</rwgt>
</event>
<event>
 4      1 +9.0096000e-12 6.17996800e+03 7.81860800e-03 7.24220600e-02
        2 -1    0    0  501    0 +0.0000000000e+00 +0.0000000000e+00 +2.4109134834e+03 2.4109134834e+03 0.0000000000e+00 0.0000e+00 1.0000e+00
       -2 -1    0    0    0  501 -0.0000000000e+00 -0.0000000000e+00 -3.9603251325e+03 3.9603251325e+03 0.0000000000e+00 0.0000e+00 -1.0000e+00
      -13  1    1    2    0    0 -1.0180674286e+03 +2.3973062153e+03 -2.4888329306e+03 3.6024752235e+03 0.0000000000e+00 0.0000e+00 -1.0000e+00
       13  1    1    2    0    0 +1.0180674286e+03 -2.3973062153e+03 +9.3942128153e+02 2.7687633925e+03 0.0000000000e+00 0.0000e+00 1.0000e+00
<mgrwt>
<rscale>  0 0.61799680E+04</rscale>
<asrwt>0</asrwt>
<pdfrwt beam="1">  1        2 0.37090977E+00 0.61799680E+04</pdfrwt>
<pdfrwt beam="2">  1       -2 0.60928079E+00 0.61799680E+04</pdfrwt>
<totfact> 0.48750771E-04</totfact>
</mgrwt>
<rwgt>
<wgt id='morphing_basis_vector_1'> +1.7817932e-06 </wgt>
<wgt id='morphing_basis_vector_2'> +1.2261938e-06 </wgt>
<wgt id='morphing_basis_vector_3'> +1.9702624e-06 </wgt>
<wgt id='morphing_basis_vector_4'> +1.4062126e-06 </wgt>
<wgt id='morphing_basis_vector_5'> +2.2630381e-06 </wgt>
</rwgt>
</event>
<event>
 4      1 +9.0096000e-12 5.94515200e+03 7.81860800e-03 7.26779700e-02
        2 -1    0    0  501    0 +0.0000000000e+00 +0.0000000000e+00 +2.6634745969e+03 2.6634745969e+03 0.0000000000e+00 0.0000e+00 -1.0000e+00
       -2 -1    0    0    0  501 -0.0000000000e+00 -0.0000000000e+00 -3.3175487577e+03 3.3175487577e+03 0.0000000000e+00 0.0000e+00 1.0000e+00
      -13  1    1    2    0    0 +4.2256845050e+02 +2.2952762628e+03 -2.1791640293e+03 3.1930570124e+03 0.0000000000e+00 0.0000e+00 1.0000e+00
       13  1    1    2    0    0 -4.2256845050e+02 -2.2952762628e+03 +1.5250898685e+03 2.7879663422e+03 0.0000000000e+00 0.0000e+00 -1.0000e+00
<mgrwt>
<rscale>  0 0.59451516E+04</rscale>
<asrwt>0</asrwt>
<pdfrwt beam="1">  1        2 0.40976532E+00 0.59451516E+04</pdfrwt>
<pdfrwt beam="2">  1       -2 0.51039212E+00 0.59451516E+04</pdfrwt>
<totfact> 0.20614419E-03</totfact>
</mgrwt>
<rwgt>
<wgt id='morphing_basis_vector_1'> +1.5244254e-06 </wgt>
<wgt id='morphing_basis_vector_2'> +1.0440575e-06 </wgt>
<wgt id='morphing_basis_vector_3'> +1.6839919e-06 </wgt>
<wgt id='morphing_basis_vector_4'> +1.2085432e-06 </wgt>
<wgt id='morphing_basis_vector_5'> +1.9379380e-06 </wgt>
</rwgt>
</event>
<event>
 4      1 +9.0096000e-12 5.62576100e+03 7.81860800e-03 7.30460600e-02
        2 -1    0    0  501    0 +0.0000000000e+00 +0.0000000000e+00 +3.2619540313e+03 3.2619540313e+03 0.0000000000e+00 0.0000e+00 -1.0000e+00
       -2 -1    0    0    0  501 -0.0000000000e+00 -0.0000000000e+00 -2.4256306450e+03 2.4256306450e+03 0.0000000000e+00 0.0000e+00 1.0000e+00
      -13  1    1    2    0    0 +9.3971282661e+02 -1.0939882022e+03 -2.0234197635e+03 2.4847732135e+03 0.0000000000e+00 0.0000e+00 1.0000e+00
       13  1    1    2    0    0 -9.3971282661e+02 +1.0939882022e+03 +2.8597431498e+03 3.2028114628e+03 0.0000000000e+00 0.0000e+00 -1.0000e+00
<mgrwt>
<rscale>  0 0.56257606E+04</rscale>
<asrwt>0</asrwt>
<pdfrwt beam="1">  1        2 0.50183908E+00 0.56257606E+04</pdfrwt>
<pdfrwt beam="2">  1       -2 0.37317395E+00 0.56257606E+04</pdfrwt>
<totfact> 0.77402915E-03</totfact>
</mgrwt>
<rwgt>
<wgt id='morphing_basis_vector_1'> +1.2205178e-06 </wgt>
<wgt id='morphing_basis_vector_2'> +8.3012557e-07 </wgt>
<wgt id='morphing_basis_vector_3'> +1.3462960e-06 </wgt>
<wgt id='morphing_basis_vector_4'> +9.7376697e-07 </wgt>
<wgt id='morphing_basis_vector_5'> +1.5534918e-06 </wgt>
</rwgt>
</event>
<event>
 4      1 +9.0096000e-12 5.73758200e+03 7.81860800e-03 7.29144100e-02
        2 -1    0    0  501    0 +0.0000000000e+00 +0.0000000000e+00 +3.6832961379e+03 3.6832961379e+03 0.0000000000e+00 0.0000e+00 -1.0000e+00
       -2 -1    0    0    0  501 -0.0000000000e+00 -0.0000000000e+00 -2.2344016551e+03 2.2344016551e+03 0.0000000000e+00 0.0000e+00 1.0000e+00
      -13  1    1    2    0    0 -2.1417392540e+03 -7.6494694041e+01 -1.2425300610e+03 2.4772523938e+03 0.0000000000e+00 0.0000e+00 1.0000e+00
       13  1    1    2    0    0 +2.1417392540e+03 +7.6494694041e+01 +2.6914245437e+03 3.4404453992e+03 0.0000000000e+00 0.0000e+00 -1.0000e+00
<mgrwt>
<rscale>  0 0.57375824E+04</rscale>
<asrwt>0</asrwt>
<pdfrwt beam="1">  1        2 0.56666095E+00 0.57375824E+04</pdfrwt>
<pdfrwt beam="2">  1       -2 0.34375410E+00 0.57375824E+04</pdfrwt>
<totfact> 0.58552604E-03</totfact>
</mgrwt>
<rwgt>
<wgt id='morphing_basis_vector_1'> +1.3220900e-06 </wgt>
<wgt id='morphing_basis_vector_2'> +9.0352605e-07 </wgt>
<wgt id='morphing_basis_vector_3'> +1.4595929e-06 </wgt>
<wgt id='morphing_basis_vector_4'> +1.0497390e-06 </wgt>
<wgt id='morphing_basis_vector_5'> +1.6807265e-06 </wgt>
</rwgt>
</event>
<event>
 4      1 +9.0096000e-12 5.98518100e+03 7.81860800e-03 7.26335000e-02
        2 -1    0    0  501    0 +0.0000000000e+00 +0.0000000000e+00 +4.7721600797e+03 4.7721600797e+03 0.0000000000e+00 0.0000e+00 1.0000e+00
       -2 -1    0    0    0  501 -0.0000000000e+00 -0.0000000000e+00 -1.8766342820e+03 1.8766342820e+03 0.0000000000e+00 0.0000e+00 -1.0000e+00
      -13  1    1    2    0    0 -1.0475803686e+03 -1.4224464499e+03 -1.2355995461e+03 2.1558025814e+03 0.0000000000e+00 0.0000e+00 -1.0000e+00
       13  1    1    2    0    0 +1.0475803686e+03 +1.4224464499e+03 +4.1311253438e+03 4.4929917803e+03 0.0000000000e+00 0.0000e+00 1.0000e+00
<mgrwt>
<rscale>  0 0.59851814E+04</rscale>
<asrwt>0</asrwt>
<pdfrwt beam="1">  1        2 0.73417847E+00 0.59851814E+04</pdfrwt>
<pdfrwt beam="2">  1       -2 0.28871297E+00 0.59851814E+04</pdfrwt>
<totfact> 0.12578732E-03</totfact>
</mgrwt>
<rwgt>
<wgt id='morphing_basis_vector_1'> +1.5630202e-06 </wgt>
<wgt id='morphing_basis_vector_2'> +1.0642711e-06 </wgt>
<wgt id='morphing_basis_vector_3'> +1.7252587e-06 </wgt>
<wgt id='morphing_basis_vector_4'> +1.2474452e-06 </wgt>
<wgt id='morphing_basis_vector_5'> +1.9912809e-06 </wgt>
</rwgt>
</event>
<event>
 4      1 +9.0096000e-12 5.85582200e+03 7.81860800e-03 7.27785000e-02
        2 -1    0    0  501    0 +0.0000000000e+00 +0.0000000000e+00 +3.1073107120e+03 3.1073107120e+03 0.0000000000e+00 0.0000e+00 -1.0000e+00
       -2 -1    0    0    0  501 -0.0000000000e+00 -0.0000000000e+00 -2.7588690347e+03 2.7588690347e+03 0.0000000000e+00 0.0000e+00 1.0000e+00
      -13  1    1    2    0    0 -1.3416238890e+03 +2.0312090888e+03 -1.4555859149e+03 2.8362819637e+03 0.0000000000e+00 0.0000e+00 1.0000e+00
       13  1    1    2    0    0 +1.3416238890e+03 -2.0312090888e+03 +1.8040275922e+03 3.0298977830e+03 0.0000000000e+00 0.0000e+00 -1.0000e+00
<mgrwt>
<rscale>  0 0.58558222E+04</rscale>
<asrwt>0</asrwt>
<pdfrwt beam="1">  1        2 0.47804780E+00 0.58558222E+04</pdfrwt>
<pdfrwt beam="2">  1       -2 0.42444139E+00 0.58558222E+04</pdfrwt>
<totfact> 0.44778764E-03</totfact>
</mgrwt>
<rwgt>
<wgt id='morphing_basis_vector_1'> +1.4365710e-06 </wgt>
<wgt id='morphing_basis_vector_2'> +9.8721799e-07 </wgt>
<wgt id='morphing_basis_vector_3'> +1.5875279e-06 </wgt>
<wgt id='morphing_basis_vector_4'> +1.1341297e-06 </wgt>
<wgt id='morphing_basis_vector_5'> +1.8235383e-06 </wgt>
</rwgt>
</event>
<event>
 4      1 +9.0096000e-12 5.94845000e+03 7.81860800e-03 7.26742900e-02
        2 -1    0    0  501    0 +0.0000000000e+00 +0.0000000000e+00 +2.8415936541e+03 2.8415936541e+03 0.0000000000e+00 0.0000e+00 1.0000e+00
       -2 -1    0    0    0  501 -0.0000000000e+00 -0.0000000000e+00 -3.1130467606e+03 3.1130467606e+03 0.0000000000e+00 0.0000e+00 -1.0000e+00
      -13  1    1    2    0    0 +2.7223242311e+03 +1.6478884275e+02 +1.0520196657e+03 2.9231746371e+03 0.0000000000e+00 0.0000e+00 1.0000e+00
       13  1    1    2    0    0 -2.7223242311e+03 -1.6478884275e+02 -1.3234727723e+03 3.0314657776e+03 0.0000000000e+00 0.0000e+00 -1.0000e+00
<mgrwt>
<rscale>  0 0.59484499E+04</rscale>
<asrwt>0</asrwt>
<pdfrwt beam="1">  1        2 0.43716826E+00 0.59484499E+04</pdfrwt>
<pdfrwt beam="2">  1       -2 0.47893027E+00 0.59484499E+04</pdfrwt>
<totfact> 0.27437708E-03</totfact>
</mgrwt>
<rwgt>
<wgt id='morphing_basis_vector_1'> +1.7357718e-06 </wgt>
<wgt id='morphing_basis_vector_2'> +1.6568124e-06 </wgt>
<wgt id='morphing_basis_vector_3'> +2.0272285e-06 </wgt>
<wgt id='morphing_basis_vector_4'> +7.6642934e-07 </wgt>
<wgt id='morphing_basis_vector_5'> +1.9048432e-06 </wgt>
</rwgt>
</event>
<event>
 4      1 +9.0096000e-12 6.29986500e+03 7.81860800e-03 7.22958100e-02
        2 -1    0    0  501    0 +0.0000000000e+00 +0.0000000000e+00 +3.9043691684e+03 3.9043691684e+03 0.0000000000e+00 0.0000e+00 1.0000e+00
       -2 -1    0    0    0  501 -0.0000000000e+00 -0.0000000000e+00 -2.5412749005e+03 2.5412749005e+03 0.0000000000e+00 0.0000e+00 -1.0000e+00
      -13  1    1    2    0    0 -1.1963027270e+03 -2.1793458155e+03 -1.2974783115e+03 2.8043071099e+03 0.0000000000e+00 0.0000e+00 -1.0000e+00
       13  1    1    2    0    0 +1.1963027270e+03 +2.1793458155e+03 +2.6605725795e+03 3.6413369589e+03 0.0000000000e+00 0.0000e+00 1.0000e+00
<mgrwt>
<rscale>  0 0.62998652E+04</rscale>
<asrwt>0</asrwt>
<pdfrwt beam="1">  1        2 0.60067218E+00 0.62998652E+04</pdfrwt>
<pdfrwt beam="2">  1       -2 0.39096537E+00 0.62998652E+04</pdfrwt>
<totfact> 0.18540318E-03</totfact>
</mgrwt>
<rwgt>
<wgt id='morphing_basis_vector_1'> +1.9212850e-06 </wgt>
<wgt id='morphing_basis_vector_2'> +1.3165976e-06 </wgt>
<wgt id='morphing_basis_vector_3'> +2.1234884e-06 </wgt>
<wgt id='morphing_basis_vector_4'> +1.5242396e-06 </wgt>
<wgt id='morphing_basis_vector_5'> +2.4446761e-06 </wgt>
</rwgt>
</event>
<event>
 4      1 +9.0096000e-12 5.70349200e+03 7.81860800e-03 7.29542200e-02
        2 -1    0    0  501    0 +0.0000000000e+00 +0.0000000000e+00 +1.3667860984e+03 1.3667860984e+03 0.0000000000e+00 0.0000e+00 1.0000e+00
       -2 -1    0    0    0  501 -0.0000000000e+00 -0.0000000000e+00 -5.9500577031e+03 5.9500577031e+03 0.0000000000e+00 0.0000e+00 -1.0000e+00
      -13  1    1    2    0    0 -4.0451369082e+02 +1.7010673486e+03 -5.1817118924e+03 5.4687658193e+03 0.0000000000e+00 0.0000e+00 -1.0000e+00
       13  1    1    2    0    0 +4.0451369082e+02 -1.7010673486e+03 +5.9844028767e+02 1.8480779823e+03 0.0000000000e+00 0.0000e+00 1.0000e+00
<mgrwt>
<rscale>  0 0.57034923E+04</rscale>
<asrwt>0</asrwt>
<pdfrwt beam="1">  1        2 0.21027478E+00 0.57034923E+04</pdfrwt>
<pdfrwt beam="2">  1       -2 0.91539350E+00 0.57034923E+04</pdfrwt>
<totfact> 0.15658632E-04</totfact>
</mgrwt>
<rwgt>
<wgt id='morphing_basis_vector_1'> +1.2896228e-06 </wgt>
<wgt id='morphing_basis_vector_2'> +8.7814735e-07 </wgt>
<wgt id='morphing_basis_vector_3'> +1.4229305e-06 </wgt>
<wgt id='morphing_basis_vector_4'> +1.0279515e-06 </wgt>
<wgt id='morphing_basis_vector_5'> +1.6412939e-06 </wgt>
</rwgt>
</event>
<event>
 4      1 +9.0096000e-12 6.31522200e+03 7.81860800e-03 7.22798400e-02
        2 -1    0    0  501    0 +0.0000000000e+00 +0.0000000000e+00 +3.5835195947e+03 3.5835195947e+03 0.0000000000e+00 0.0000e+00 1.0000e+00
       -2 -1    0    0    0  501 -0.0000000000e+00 -0.0000000000e+00 -2.7823229071e+03 2.7823229071e+03 0.0000000000e+00 0.0000e+00 -1.0000e+00
      -13  1    1    2    0    0 +6.2724253749e+01 -1.8320077875e+03 +2.9922613949e+03 3.5091046039e+03 0.0000000000e+00 0.0000e+00 1.0000e+00
       13  1    1    2    0    0 -6.2724253749e+01 +1.8320077875e+03 -2.1910647073e+03 2.8567378979e+03 0.0000000000e+00 0.0000e+00 -1.0000e+00
<mgrwt>
<rscale>  0 0.63152225E+04</rscale>
<asrwt>0</asrwt>
<pdfrwt beam="1">  1        2 0.55131071E+00 0.63152225E+04</pdfrwt>
<pdfrwt beam="2">  1       -2 0.42804968E+00 0.63152225E+04</pdfrwt>
<totfact> 0.18873657E-03</totfact>
</mgrwt>
<rwgt>
<wgt id='morphing_basis_vector_1'> +2.5913733e-06 </wgt>
<wgt id='morphing_basis_vector_2'> +3.2410149e-06 </wgt>
<wgt id='morphing_basis_vector_3'> +3.2092228e-06 </wgt>
<wgt id='morphing_basis_vector_4'> +1.4469262e-07 </wgt>
<wgt id='morphing_basis_vector_5'> +2.3512682e-06 </wgt>
</rwgt>
</event>
<event>
 4      1 +9.0096000e-12 6.15924900e+03 7.81860800e-03 7.24441700e-02
        2 -1    0    0  501    0 +0.0000000000e+00 +0.0000000000e+00 +3.4899605927e+03 3.4899605927e+03 0.0000000000e+00 0.0000e+00 1.0000e+00
       -2 -1    0    0    0  501 -0.0000000000e+00 -0.0000000000e+00 -2.7175343158e+03 2.7175343158e+03 0.0000000000e+00 0.0000e+00 -1.0000e+00
      -13  1    1    2    0    0 -1.3933435910e+03 +2.1525271657e+02 +3.1456054749e+03 3.4471109495e+03 0.0000000000e+00 0.0000e+00 1.0000e+00
       13  1    1    2    0    0 +1.3933435910e+03 -2.1525271657e+02 -2.3731791981e+03 2.7603839590e+03 0.0000000000e+00 0.0000e+00 -1.0000e+00
<mgrwt>
<rscale>  0 0.61592492E+04</rscale>
<asrwt>0</asrwt>
<pdfrwt beam="1">  1        2 0.53691702E+00 0.61592492E+04</pdfrwt>
<pdfrwt beam="2">  1       -2 0.41808220E+00 0.61592492E+04</pdfrwt>
<totfact> 0.26105987E-03</totfact>
</mgrwt>
<rwgt>
<wgt id='morphing_basis_vector_1'> +2.3819240e-06 </wgt>
<wgt id='morphing_basis_vector_2'> +3.0408661e-06 </wgt>
<wgt id='morphing_basis_vector_3'> +2.9633569e-06 </wgt>
<wgt id='morphing_basis_vector_4'> +5.2288516e-08 </wgt>
<wgt id='morphing_basis_vector_5'> +2.1204361e-06 </wgt>
</rwgt>
</event>
<event>
 4      1 +9.0096000e-12 5.57796300e+03 7.81860800e-03 7.31032800e-02
        2 -1    0    0  501    0 +0.0000000000e+00 +0.0000000000e+00 +2.9311214322e+03 2.9311214322e+03 0.0000000000e+00 0.0000e+00 -1.0000e+00
       -2 -1    0    0    0  501 -0.0000000000e+00 -0.0000000000e+00 -2.6537345057e+03 2.6537345057e+03 0.0000000000e+00 0.0000e+00 1.0000e+00
      -13  1    1    2    0    0 +2.4932469532e+03 +4.7358836222e+02 -1.0193912747e+03 2.7349085683e+03 0.0000000000e+00 0.0000e+00 1.0000e+00
       13  1    1    2    0    0 -2.4932469532e+03 -4.7358836222e+02 +1.2967782013e+03 2.8499473696e+03 0.0000000000e+00 0.0000e+00 -1.0000e+00
<mgrwt>
<rscale>  0 0.55779631E+04</rscale>
<asrwt>0</asrwt>
<pdfrwt beam="1">  1        2 0.45094176E+00 0.55779631E+04</pdfrwt>
<pdfrwt beam="2">  1       -2 0.40826684E+00 0.55779631E+04</pdfrwt>
<totfact> 0.76307244E-03</totfact>
</mgrwt>
<rwgt>
<wgt id='morphing_basis_vector_1'> +1.1874886e-06 </wgt>
<wgt id='morphing_basis_vector_2'> +8.2525282e-07 </wgt>
<wgt id='morphing_basis_vector_3'> +1.3138684e-06 </wgt>
<wgt id='morphing_basis_vector_4'> +9.2431233e-07 </wgt>
<wgt id='morphing_basis_vector_5'> +1.4998333e-06 </wgt>
</rwgt>
</event>
<event>
 4      1 +9.0096000e-12 5.68240400e+03 7.81860800e-03 7.29789900e-02
        2 -1    0    0  501    0 +0.0000000000e+00 +0.0000000000e+00 +3.5349415413e+03 3.5349415413e+03 0.0000000000e+00 0.0000e+00 -1.0000e+00
       -2 -1    0    0    0  501 -0.0000000000e+00 -0.0000000000e+00 -2.2836099244e+03 2.2836099244e+03 0.0000000000e+00 0.0000e+00 1.0000e+00
      -13  1    1    2    0    0 -8.4381314320e+02 +2.2863065236e+03 -8.6987943001e+02 2.5876453318e+03 0.0000000000e+00 0.0000e+00 1.0000e+00
       13  1    1    2    0    0 +8.4381314320e+02 -2.2863065236e+03 +2.1212110470e+03 3.2309061339e+03 0.0000000000e+00 0.0000e+00 -1.0000e+00
<mgrwt>
<rscale>  0 0.56824036E+04</rscale>
<asrwt>0</asrwt>
<pdfrwt beam="1">  1        2 0.54383716E+00 0.56824036E+04</pdfrwt>
<pdfrwt beam="2">  1       -2 0.35132461E+00 0.56824036E+04</pdfrwt>
<totfact> 0.68019784E-03</totfact>
</mgrwt>
<rwgt>
<wgt id='morphing_basis_vector_1'> +1.2752761e-06 </wgt>
<wgt id='morphing_basis_vector_2'> +8.7867037e-07 </wgt>
<wgt id='morphing_basis_vector_3'> +1.4094611e-06 </wgt>
<wgt id='morphing_basis_vector_4'> +1.0030228e-06 </wgt>
<wgt id='morphing_basis_vector_5'> +1.6162734e-06 </wgt>
</rwgt>
</event>
<event>
 4      1 +9.0096000e-12 5.73701500e+03 7.81860800e-03 7.29150700e-02
        2 -1    0    0  501    0 +0.0000000000e+00 +0.0000000000e+00 +4.0233860722e+03 4.0233860722e+03 0.0000000000e+00 0.0000e+00 -1.0000e+00
       -2 -1    0    0    0  501 -0.0000000000e+00 -0.0000000000e+00 -2.0451266135e+03 2.0451266135e+03 0.0000000000e+00 0.0000e+00 1.0000e+00
      -13  1    1    2    0    0 +2.0636247134e+03 -1.8409389416e+03 +1.8303934646e+02 2.7714809303e+03 0.0000000000e+00 0.0000e+00 1.0000e+00
       13  1    1    2    0    0 -2.0636247134e+03 +1.8409389416e+03 +1.7952201123e+03 3.2970317554e+03 0.0000000000e+00 0.0000e+00 -1.0000e+00
<mgrwt>
<rscale>  0 0.57370145E+04</rscale>
<asrwt>0</asrwt>
<pdfrwt beam="1">  1        2 0.61898247E+00 0.57370145E+04</pdfrwt>
<pdfrwt beam="2">  1       -2 0.31463486E+00 0.57370145E+04</pdfrwt>
<totfact> 0.48178679E-03</totfact>
</mgrwt>
<rwgt>
<wgt id='morphing_basis_vector_1'> +1.3368964e-06 </wgt>
<wgt id='morphing_basis_vector_2'> +9.4816515e-07 </wgt>
<wgt id='morphing_basis_vector_3'> +1.4840112e-06 </wgt>
<wgt id='morphing_basis_vector_4'> +1.0165607e-06 </wgt>
<wgt id='morphing_basis_vector_5'> +1.6773059e-06 </wgt>
</rwgt>
</event>
<event>
 4      1 +9.0096000e-12 6.11602600e+03 7.81860800e-03 7.24905900e-02
        2 -1    0    0  501    0 +0.0000000000e+00 +0.0000000000e+00 +1.8627743051e+03 1.8627743051e+03 0.0000000000e+00 0.0000e+00 -1.0000e+00
       -2 -1    0    0    0  501 -0.0000000000e+00 -0.0000000000e+00 -5.0201696226e+03 5.0201696226e+03 0.0000000000e+00 0.0000e+00 1.0000e+00
      -13  1    1    2    0    0 -2.9029612392e+03 -1.2485592221e+02 -2.6514711199e+03 3.9335825983e+03 0.0000000000e+00 0.0000e+00 1.0000e+00
       13  1    1    2    0    0 +2.9029612392e+03 +1.2485592221e+02 -5.0592419765e+02 2.9493613294e+03 0.0000000000e+00 0.0000e+00 -1.0000e+00
<mgrwt>
<rscale>  0 0.61160258E+04</rscale>
<asrwt>0</asrwt>
<pdfrwt beam="1">  1        2 0.28658067E+00 0.61160258E+04</pdfrwt>
<pdfrwt beam="2">  1       -2 0.77233378E+00 0.61160258E+04</pdfrwt>
<totfact> 0.66576583E-04</totfact>
</mgrwt>
<rwgt>
<wgt id='morphing_basis_vector_1'> +1.7217290e-06 </wgt>
<wgt id='morphing_basis_vector_2'> +1.2126276e-06 </wgt>
<wgt id='morphing_basis_vector_3'> +1.9102225e-06 </wgt>
<wgt id='morphing_basis_vector_4'> +1.3222895e-06 </wgt>
<wgt id='morphing_basis_vector_5'> +2.1684027e-06 </wgt>
</rwgt>
</event>
<event>
 4      1 +9.0096000e-12 6.52845300e+03 7.81860800e-03 7.20628200e-02
        2 -1    0    0  501    0 +0.0000000000e+00 +0.0000000000e+00 +1.9481128976e+03 1.9481128976e+03 0.0000000000e+00 0.0000e+00 1.0000e+00
       -2 -1    0    0    0  501 -0.0000000000e+00 -0.0000000000e+00 -5.4694846524e+03 5.4694846524e+03 0.0000000000e+00 0.0000e+00 -1.0000e+00
      -13  1    1    2    0    0 -6.2983727163e+02 +1.6140638691e+03 -4.9039198233e+03 5.2009928663e+03 0.0000000000e+00 0.0000e+00 -1.0000e+00
       13  1    1    2    0    0 +6.2983727163e+02 -1.6140638691e+03 +1.3825480685e+03 2.2166046837e+03 0.0000000000e+00 0.0000e+00 1.0000e+00
<mgrwt>
<rscale>  0 0.65284527E+04</rscale>
<asrwt>0</asrwt>
<pdfrwt beam="1">  1        2 0.29970969E+00 0.65284527E+04</pdfrwt>
<pdfrwt beam="2">  1       -2 0.84145915E+00 0.65284527E+04</pdfrwt>
<totfact> 0.38458249E-04</totfact>
</mgrwt>
<rwgt>
<wgt id='morphing_basis_vector_1'> +2.2105341e-06 </wgt>
<wgt id='morphing_basis_vector_2'> +1.5049089e-06 </wgt>
<wgt id='morphing_basis_vector_3'> +2.4414373e-06 </wgt>
<wgt id='morphing_basis_vector_4'> +1.7679489e-06 </wgt>
<wgt id='morphing_basis_vector_5'> +2.8208631e-06 </wgt>
</rwgt>
</event>
<event>
 4      1 +9.0096000e-12 5.55885200e+03 7.81860800e-03 7.31263300e-02
        2 -1    0    0  501    0 +0.0000000000e+00 +0.0000000000e+00 +2.8791985698e+03 2.8791985698e+03 0.0000000000e+00 0.0000e+00 -1.0000e+00
       -2 -1    0    0    0  501 -0.0000000000e+00 -0.0000000000e+00 -2.6831109162e+03 2.6831109162e+03 0.0000000000e+00 0.0000e+00 1.0000e+00
      -13  1    1    2    0    0 -2.2526092917e+03 -1.5380925938e+03 -4.3635918824e+02 2.7623154760e+03 0.0000000000e+00 0.0000e+00 1.0000e+00
       13  1    1    2    0    0 +2.2526092917e+03 +1.5380925938e+03 +6.3244684182e+02 2.7999940100e+03 0.0000000000e+00 0.0000e+00 -1.0000e+00
<mgrwt>
<rscale>  0 0.55588521E+04</rscale>
<asrwt>0</asrwt>
<pdfrwt beam="1">  1        2 0.44295363E+00 0.55588521E+04</pdfrwt>
<pdfrwt beam="2">  1       -2 0.41278630E+00 0.55588521E+04</pdfrwt>
<totfact> 0.77027729E-03</totfact>
</mgrwt>
<rwgt>
<wgt id='morphing_basis_vector_1'> +1.1841359e-06 </wgt>
<wgt id='morphing_basis_vector_2'> +8.5157721e-07 </wgt>
<wgt id='morphing_basis_vector_3'> +1.3168014e-06 </wgt>
<wgt id='morphing_basis_vector_4'> +8.8434820e-07 </wgt>
<wgt id='morphing_basis_vector_5'> +1.4770362e-06 </wgt>
</rwgt>
</event>
<event>
 4      1 +9.0096000e-12 6.27551200e+03 7.81860800e-03 7.23212200e-02
        2 -1    0    0  501    0 +0.0000000000e+00 +0.0000000000e+00 +4.3800711434e+03 4.3800711434e+03 0.0000000000e+00 0.0000e+00 -1.0000e+00
       -2 -1    0    0    0  501 -0.0000000000e+00 -0.0000000000e+00 -2.2477972773e+03 2.2477972773e+03 0.0000000000e+00 0.0000e+00 1.0000e+00
      -13  1    1    2    0    0 -1.7617780001e+03 -2.4122834223e+03 +2.0805552618e+03 3.6402861465e+03 0.0000000000e+00 0.0000e+00 1.0000e+00
       13  1    1    2    0    0 +1.7617780001e+03 +2.4122834223e+03 +5.1718604276e+01 2.9875822742e+03 0.0000000000e+00 0.0000e+00 -1.0000e+00
<mgrwt>
<rscale>  0 0.62755118E+04</rscale>
<asrwt>0</asrwt>
<pdfrwt beam="1">  1        2 0.67385710E+00 0.62755118E+04</pdfrwt>
<pdfrwt beam="2">  1       -2 0.34581497E+00 0.62755118E+04</pdfrwt>
<totfact> 0.13548366E-03</totfact>
</mgrwt>
<rwgt>
<wgt id='morphing_basis_vector_1'> +2.0840547e-06 </wgt>
<wgt id='morphing_basis_vector_2'> +1.8605935e-06 </wgt>
<wgt id='morphing_basis_vector_3'> +2.4051298e-06 </wgt>
<wgt id='morphing_basis_vector_4'> +1.0892042e-06 </wgt>
<wgt id='morphing_basis_vector_5'> +2.3723789e-06 </wgt>
</rwgt>
</event>
<event>
 4      1 +9.0096000e-12 5.69298300e+03 7.81860800e-03 7.29665500e-02
        2 -1    0    0  501    0 +0.0000000000e+00 +0.0000000000e+00 +5.2734706663e+03 5.2734706663e+03 0.0000000000e+00 0.0000e+00 -1.0000e+00
       -2 -1    0    0    0  501 -0.0000000000e+00 -0.0000000000e+00 -1.5364668732e+03 1.5364668732e+03 0.0000000000e+00 0.0000e+00 1.0000e+00
      -13  1    1    2    0    0 -1.0971947908e+03 +2.3341802662e+03 +4.2794951914e+02 2.6144549556e+03 0.0000000000e+00 0.0000e+00 1.0000e+00
       13  1    1    2    0    0 +1.0971947908e+03 -2.3341802662e+03 +3.3090542740e+03 4.1954825839e+03 0.0000000000e+00 0.0000e+00 -1.0000e+00
<mgrwt>
<rscale>  0 0.56929827E+04</rscale>
<asrwt>0</asrwt>
<pdfrwt beam="1">  1        2 0.81130317E+00 0.56929827E+04</pdfrwt>
<pdfrwt beam="2">  1       -2 0.23637952E+00 0.56929827E+04</pdfrwt>
<totfact> 0.61058788E-04</totfact>
</mgrwt>
<rwgt>
<wgt id='morphing_basis_vector_1'> +1.2878911e-06 </wgt>
<wgt id='morphing_basis_vector_2'> +8.9437195e-07 </wgt>
<wgt id='morphing_basis_vector_3'> +1.4250650e-06 </wgt>
<wgt id='morphing_basis_vector_4'> +1.0038726e-06 </wgt>
<wgt id='morphing_basis_vector_5'> +1.6278134e-06 </wgt>
</rwgt>
</event>
<event>
 4      1 +9.0096000e-12 5.80818000e+03 7.81860800e-03 7.28328700e-02
        2 -1    0    0  501    0 +0.0000000000e+00 +0.0000000000e+00 +4.1530329099e+03 4.1530329099e+03 0.0000000000e+00 0.0000e+00 -1.0000e+00
       -2 -1    0    0    0  501 -0.0000000000e+00 -0.0000000000e+00 -2.0307418473e+03 2.0307418473e+03 0.0000000000e+00 0.0000e+00 1.0000e+00
      -13  1    1    2    0    0 -1.2032687446e+02 -2.7030640913e+03 -6.1915567327e+01 2.7064492561e+03 0.0000000000e+00 0.0000e+00 1.0000e+00
       13  1    1    2    0    0 +1.2032687446e+02 +2.7030640913e+03 +2.1842066299e+03 3.4773255011e+03 0.0000000000e+00 0.0000e+00 -1.0000e+00
<mgrwt>
<rscale>  0 0.58081797E+04</rscale>
<asrwt>0</asrwt>
<pdfrwt beam="1">  1        2 0.63892814E+00 0.58081797E+04</pdfrwt>
<pdfrwt beam="2">  1       -2 0.31242182E+00 0.58081797E+04</pdfrwt>
<totfact> 0.38127784E-03</totfact>
</mgrwt>
<rwgt>
<wgt id='morphing_basis_vector_1'> +1.3979867e-06 </wgt>
<wgt id='morphing_basis_vector_2'> +9.7749611e-07 </wgt>
<wgt id='morphing_basis_vector_3'> +1.5487158e-06 </wgt>
<wgt id='morphing_basis_vector_4'> +1.0815753e-06 </wgt>
<wgt id='morphing_basis_vector_5'> +1.7634336e-06 </wgt>
</rwgt>
</event>
<event>
 4      1 +9.0096000e-12 5.65234300e+03 7.81860800e-03 7.30144800e-02
        2 -1    0    0  501    0 +0.0000000000e+00 +0.0000000000e+00 +3.4045517103e+03 3.4045517103e+03 0.0000000000e+00 0.0000e+00 -1.0000e+00
       -2 -1    0    0    0  501 -0.0000000000e+00 -0.0000000000e+00 -2.3460490073e+03 2.3460490073e+03 0.0000000000e+00 0.0000e+00 1.0000e+00
      -13  1    1    2    0    0 +8.8678928895e+02 -1.1428595139e+03 -1.9408591214e+03 2.4206315788e+03 0.0000000000e+00 0.0000e+00 1.0000e+00
       13  1    1    2    0    0 -8.8678928895e+02 +1.1428595139e+03 +2.9993618243e+03 3.3299691387e+03 0.0000000000e+00 0.0000e+00 -1.0000e+00
<mgrwt>
<rscale>  0 0.56523429E+04</rscale>
<asrwt>0</asrwt>
<pdfrwt beam="1">  1        2 0.52377718E+00 0.56523429E+04</pdfrwt>
<pdfrwt beam="2">  1       -2 0.36093062E+00 0.56523429E+04</pdfrwt>
<totfact> 0.73516866E-03</totfact>
</mgrwt>
<rwgt>
<wgt id='morphing_basis_vector_1'> +1.2436872e-06 </wgt>
<wgt id='morphing_basis_vector_2'> +8.4590392e-07 </wgt>
<wgt id='morphing_basis_vector_3'> +1.3719143e-06 </wgt>
<wgt id='morphing_basis_vector_4'> +9.9235290e-07 </wgt>
<wgt id='morphing_basis_vector_5'> +1.5831370e-06 </wgt>
</rwgt>
</event>
<event>
 4      1 +9.0096000e-12 5.86801900e+03 7.81860800e-03 7.27646700e-02
        2 -1    0    0  501    0 +0.0000000000e+00 +0.0000000000e+00 +3.4994460159e+03 3.4994460159e+03 0.0000000000e+00 0.0000e+00 1.0000e+00
       -2 -1    0    0    0  501 -0.0000000000e+00 -0.0000000000e+00 -2.4599359542e+03 2.4599359542e+03 0.0000000000e+00 0.0000e+00 -1.0000e+00
      -13  1    1    2    0    0 -1.0816482272e+03 +1.6502833889e+02 -2.2449856855e+03 2.4974302730e+03 0.0000000000e+00 0.0000e+00 -1.0000e+00
       13  1    1    2    0    0 +1.0816482272e+03 -1.6502833889e+02 +3.2844957472e+03 3.4619516971e+03 0.0000000000e+00 0.0000e+00 1.0000e+00
<mgrwt>
<rscale>  0 0.58680195E+04</rscale>
<asrwt>0</asrwt>
<pdfrwt beam="1">  1        2 0.53837631E+00 0.58680195E+04</pdfrwt>
<pdfrwt beam="2">  1       -2 0.37845169E+00 0.58680195E+04</pdfrwt>
<totfact> 0.47650827E-03</totfact>
</mgrwt>
<rwgt>
<wgt id='morphing_basis_vector_1'> +1.4438595e-06 </wgt>
<wgt id='morphing_basis_vector_2'> +9.8169658e-07 </wgt>
<wgt id='morphing_basis_vector_3'> +1.5931425e-06 </wgt>
<wgt id='morphing_basis_vector_4'> +1.1536567e-06 </wgt>
<wgt id='morphing_basis_vector_5'> +1.8396574e-06 </wgt>
</rwgt>
</event>
<event>
 4      1 +9.0096000e-12 5.95667800e+03 7.81860800e-03 7.26651300e-02
        2 -1    0    0  501    0 +0.0000000000e+00 +0.0000000000e+00 +2.6740639556e+03 2.6740639556e+03 0.0000000000e+00 0.0000e+00 -1.0000e+00
       -2 -1    0    0    0  501 -0.0000000000e+00 -0.0000000000e+00 -3.3172368027e+03 3.3172368027e+03 0.0000000000e+00 0.0000e+00 1.0000e+00
      -13  1    1    2    0    0 -2.0881084284e+03 +1.3581248621e+03 -1.9638053509e+03 3.1719444204e+03 0.0000000000e+00 0.0000e+00 1.0000e+00
       13  1    1    2    0    0 +2.0881084284e+03 -1.3581248621e+03 +1.3206325038e+03 2.8193563379e+03 0.0000000000e+00 0.0000e+00 -1.0000e+00
<mgrwt>
<rscale>  0 0.59566781E+04</rscale>
<asrwt>0</asrwt>
<pdfrwt beam="1">  1        2 0.41139445E+00 0.59566781E+04</pdfrwt>
<pdfrwt beam="2">  1       -2 0.51034413E+00 0.59566781E+04</pdfrwt>
<totfact> 0.20307952E-03</totfact>
</mgrwt>
<rwgt>
<wgt id='morphing_basis_vector_1'> +1.5380992e-06 </wgt>
<wgt id='morphing_basis_vector_2'> +1.0575853e-06 </wgt>
<wgt id='morphing_basis_vector_3'> +1.7000995e-06 </wgt>
<wgt id='morphing_basis_vector_4'> +1.2140178e-06 </wgt>
<wgt id='morphing_basis_vector_5'> +1.9527129e-06 </wgt>
</rwgt>
</event>
<event>
 4      1 +9.0096000e-12 5.86940500e+03 7.81860800e-03 7.27631000e-02
        2 -1    0    0  501    0 +0.0000000000e+00 +0.0000000000e+00 +1.5607713700e+03 1.5607713700e+03 0.0000000000e+00 0.0000e+00 -1.0000e+00
       -2 -1    0    0    0  501 -0.0000000000e+00 -0.0000000000e+00 -5.5180912304e+03 5.5180912304e+03 0.0000000000e+00 0.0000e+00 1.0000e+00
      -13  1    1    2    0    0 +1.0817922793e+02 -1.5045970658e+03 -5.0147175868e+03 5.2366886055e+03 0.0000000000e+00 0.0000e+00 1.0000e+00
       13  1    1    2    0    0 -1.0817922793e+02 +1.5045970658e+03 +1.0573977264e+03 1.8421739949e+03 0.0000000000e+00 0.0000e+00 -1.0000e+00
<mgrwt>
<rscale>  0 0.58694050E+04</rscale>
<asrwt>0</asrwt>
<pdfrwt beam="1">  1        2 0.24011867E+00 0.58694050E+04</pdfrwt>
<pdfrwt beam="2">  1       -2 0.84893711E+00 0.58694050E+04</pdfrwt>
<totfact> 0.59087540E-04</totfact>
</mgrwt>
<rwgt>
<wgt id='morphing_basis_vector_1'> +1.4454837e-06 </wgt>
<wgt id='morphing_basis_vector_2'> +9.8339601e-07 </wgt>
<wgt id='morphing_basis_vector_3'> +1.5950771e-06 </wgt>
<wgt id='morphing_basis_vector_4'> +1.1541862e-06 </wgt>
<wgt id='morphing_basis_vector_5'> +1.8413522e-06 </wgt>
</rwgt>
</event>
<event>
 4      1 +9.0096000e-12 5.61741900e+03 7.81860800e-03 7.30560000e-02
        2 -1    0    0  501    0 +0.0000000000e+00 +0.0000000000e+00 +2.1219850135e+03 2.1219850135e+03 0.0000000000e+00 0.0000e+00 1.0000e+00
       -2 -1    0    0    0  501 -0.0000000000e+00 -0.0000000000e+00 -3.7176742918e+03 3.7176742918e+03 0.0000000000e+00 0.0000e+00 -1.0000e+00
      -13  1    1    2    0    0 -9.9867677531e+02 +1.8320347467e+03 -2.7524278000e+03 3.4539202956e+03 0.0000000000e+00 0.0000e+00 -1.0000e+00
       13  1    1    2    0    0 +9.9867677531e+02 -1.8320347467e+03 +1.1567385217e+03 2.3857390096e+03 0.0000000000e+00 0.0000e+00 1.0000e+00
<mgrwt>
<rscale>  0 0.56174190E+04</rscale>
<asrwt>0</asrwt>
<pdfrwt beam="1">  1        2 0.32645923E+00 0.56174190E+04</pdfrwt>
<pdfrwt beam="2">  1       -2 0.57194990E+00 0.56174190E+04</pdfrwt>
<totfact> 0.15673116E-03</totfact>
</mgrwt>
<rwgt>
<wgt id='morphing_basis_vector_1'> +1.2149627e-06 </wgt>
<wgt id='morphing_basis_vector_2'> +8.3005861e-07 </wgt>
<wgt id='morphing_basis_vector_3'> +1.3410173e-06 </wgt>
<wgt id='morphing_basis_vector_4'> +9.6446756e-07 </wgt>
<wgt id='morphing_basis_vector_5'> +1.5439796e-06 </wgt>
</rwgt>
</event>
<event>
 4      1 +9.0096000e-12 5.72362500e+03 7.81860800e-03 7.29306700e-02
        2 -1    0    0  501    0 +0.0000000000e+00 +0.0000000000e+00 +2.5685003477e+03 2.5685003477e+03 0.0000000000e+00 0.0000e+00 -1.0000e+00
       -2 -1    0    0    0  501 -0.0000000000e+00 -0.0000000000e+00 -3.1886201534e+03 3.1886201534e+03 0.0000000000e+00 0.0000e+00 1.0000e+00
      -13  1    1    2    0    0 -1.0528730943e+03 +2.3626149756e+03 -1.5417588098e+03 3.0112308950e+03 0.0000000000e+00 0.0000e+00 1.0000e+00
       13  1    1    2    0    0 +1.0528730943e+03 -2.3626149756e+03 +9.2163900400e+02 2.7458896061e+03 0.0000000000e+00 0.0000e+00 -1.0000e+00
<mgrwt>
<rscale>  0 0.57236254E+04</rscale>
<asrwt>0</asrwt>
<pdfrwt beam="1">  1        2 0.39515390E+00 0.57236254E+04</pdfrwt>
<pdfrwt beam="2">  1       -2 0.49055694E+00 0.57236254E+04</pdfrwt>
<totfact> 0.33717389E-03</totfact>
</mgrwt>
<rwgt>
<wgt id='morphing_basis_vector_1'> +1.3155762e-06 </wgt>
<wgt id='morphing_basis_vector_2'> +9.1318555e-07 </wgt>
<wgt id='morphing_basis_vector_3'> +1.4556709e-06 </wgt>
<wgt id='morphing_basis_vector_4'> +1.0261343e-06 </wgt>
<wgt id='morphing_basis_vector_5'> +1.6632666e-06 </wgt>
</rwgt>
</event>
<event>
 4      1 +9.0096000e-12 6.40464100e+03 7.81860800e-03 7.21877900e-02
        2 -1    0    0  501    0 +0.0000000000e+00 +0.0000000000e+00 +3.2440569424e+03 3.2440569424e+03 0.0000000000e+00 0.0000e+00 -1.0000e+00
       -2 -1    0    0    0  501 -0.0000000000e+00 -0.0000000000e+00 -3.1611208082e+03 3.1611208082e+03 0.0000000000e+00 0.0000e+00 1.0000e+00
      -13  1    1    2    0    0 +1.8694924240e+03 +2.3824647983e+03 -9.9963576517e+02 3.1891083552e+03 0.0000000000e+00 0.0000e+00 1.0000e+00
       13  1    1    2    0    0 -1.8694924240e+03 -2.3824647983e+03 +1.0825718993e+03 3.2160693953e+03 0.0000000000e+00 0.0000e+00 -1.0000e+00
<mgrwt>
<rscale>  0 0.64046408E+04</rscale>
<asrwt>0</asrwt>
<pdfrwt beam="1">  1        2 0.49908568E+00 0.64046408E+04</pdfrwt>
<pdfrwt beam="2">  1       -2 0.48632628E+00 0.64046408E+04</pdfrwt>
<totfact> 0.12702116E-03</totfact>
</mgrwt>
<rwgt>
<wgt id='morphing_basis_vector_1'> +2.0684030e-06 </wgt>
<wgt id='morphing_basis_vector_2'> +1.4543181e-06 </wgt>
<wgt id='morphing_basis_vector_3'> +2.2950517e-06 </wgt>
<wgt id='morphing_basis_vector_4'> +1.5933796e-06 </wgt>
<wgt id='morphing_basis_vector_5'> +2.6088013e-06 </wgt>
</rwgt>
</event>
<event>
 4      1 +9.0096000e-12 5.92089000e+03 7.81860800e-03 7.27050900e-02
        2 -1    0    0  501    0 +0.0000000000e+00 +0.0000000000e+00 +2.8641120512e+03 2.8641120512e+03 0.0000000000e+00 0.0000e+00 -1.0000e+00
       -2 -1    0    0    0  501 -0.0000000000e+00 -0.0000000000e+00 -3.0600182102e+03 3.0600182102e+03 0.0000000000e+00 0.0000e+00 1.0000e+00
      -13  1    1    2    0    0 -1.4756367546e+03 -1.6479010732e+03 -2.0665544281e+03 3.0271651727e+03 0.0000000000e+00 0.0000e+00 1.0000e+00
       13  1    1    2    0    0 +1.4756367546e+03 +1.6479010732e+03 +1.8706482691e+03 2.8969650887e+03 0.0000000000e+00 0.0000e+00 -1.0000e+00
<mgrwt>
<rscale>  0 0.59208901E+04</rscale>
<asrwt>0</asrwt>
<pdfrwt beam="1">  1        2 0.44063262E+00 0.59208901E+04</pdfrwt>
<pdfrwt beam="2">  1       -2 0.47077203E+00 0.59208901E+04</pdfrwt>
<totfact> 0.30539187E-03</totfact>
</mgrwt>
<rwgt>
<wgt id='morphing_basis_vector_1'> +1.4988630e-06 </wgt>
<wgt id='morphing_basis_vector_2'> +1.0245292e-06 </wgt>
<wgt id='morphing_basis_vector_3'> +1.6552260e-06 </wgt>
<wgt id='morphing_basis_vector_4'> +1.1907914e-06 </wgt>
<wgt id='morphing_basis_vector_5'> +1.9065867e-06 </wgt>
</rwgt>
</event>
<event>
 4      1 +9.0096000e-12 5.56573000e+03 7.81860800e-03 7.31180200e-02
        2 -1    0    0  501    0 +0.0000000000e+00 +0.0000000000e+00 +2.7767852205e+03 2.7767852205e+03 0.0000000000e+00 0.0000e+00 1.0000e+00
       -2 -1    0    0    0  501 -0.0000000000e+00 -0.0000000000e+00 -2.7889577881e+03 2.7889577881e+03 0.0000000000e+00 0.0000e+00 -1.0000e+00
      -13  1    1    2    0    0 -1.6155625647e+03 -3.1841390352e+02 -2.2495057777e+03 2.7877779787e+03 0.0000000000e+00 0.0000e+00 -1.0000e+00
       13  1    1    2    0    0 +1.6155625647e+03 +3.1841390352e+02 +2.2373332101e+03 2.7779650299e+03 0.0000000000e+00 0.0000e+00 1.0000e+00
<mgrwt>
<rscale>  0 0.55657297E+04</rscale>
<asrwt>0</asrwt>
<pdfrwt beam="1">  1        2 0.42719773E+00 0.55657297E+04</pdfrwt>
<pdfrwt beam="2">  1       -2 0.42907043E+00 0.55657297E+04</pdfrwt>
<totfact> 0.69625289E-03</totfact>
</mgrwt>
<rwgt>
<wgt id='morphing_basis_vector_1'> +1.1696555e-06 </wgt>
<wgt id='morphing_basis_vector_2'> +7.9609366e-07 </wgt>
<wgt id='morphing_basis_vector_3'> +1.2902000e-06 </wgt>
<wgt id='morphing_basis_vector_4'> +9.3218178e-07 </wgt>
<wgt id='morphing_basis_vector_5'> +1.4880275e-06 </wgt>
</rwgt>
</event>
<event>
 4      1 +9.0096000e-12 6.17485000e+03 7.81860800e-03 7.24275100e-02
        2 -1    0    0  501    0 +0.0000000000e+00 +0.0000000000e+00 +3.5651313491e+03 3.5651313491e+03 0.0000000000e+00 0.0000e+00 -1.0000e+00
       -2 -1    0    0    0  501 -0.0000000000e+00 -0.0000000000e+00 -2.6737283516e+03 2.6737283516e+03 0.0000000000e+00 0.0000e+00 1.0000e+00
      -13  1    1    2    0    0 +8.1457437442e+02 -2.1234924043e+03 -1.6638699342e+03 2.8180160682e+03 0.0000000000e+00 0.0000e+00 1.0000e+00
       13  1    1    2    0    0 -8.1457437442e+02 +2.1234924043e+03 +2.5552729317e+03 3.4208436325e+03 0.0000000000e+00 0.0000e+00 -1.0000e+00
<mgrwt>
<rscale>  0 0.61748499E+04</rscale>
<asrwt>0</asrwt>
<pdfrwt beam="1">  1        2 0.54848174E+00 0.61748499E+04</pdfrwt>
<pdfrwt beam="2">  1       -2 0.41134283E+00 0.61748499E+04</pdfrwt>
<totfact> 0.25418274E-03</totfact>
</mgrwt>
<rwgt>
<wgt id='morphing_basis_vector_1'> +1.7721376e-06 </wgt>
<wgt id='morphing_basis_vector_2'> +1.2110665e-06 </wgt>
<wgt id='morphing_basis_vector_3'> +1.9575788e-06 </wgt>
<wgt id='morphing_basis_vector_4'> +1.4096256e-06 </wgt>
<wgt id='morphing_basis_vector_5'> +2.2562146e-06 </wgt>
</rwgt>
</event>
<event>
 4      1 +9.0096000e-12 5.61643100e+03 7.81860800e-03 7.30571800e-02
        2 -1    0    0  501    0 +0.0000000000e+00 +0.0000000000e+00 +4.3489064512e+03 4.3489064512e+03 0.0000000000e+00 0.0000e+00 1.0000e+00
       -2 -1    0    0    0  501 -0.0000000000e+00 -0.0000000000e+00 -1.8133467141e+03 1.8133467141e+03 0.0000000000e+00 0.0000e+00 -1.0000e+00
      -13  1    1    2    0    0 -2.9433116095e+02 +6.7418001095e+02 -1.7057532969e+03 1.8576177834e+03 0.0000000000e+00 0.0000e+00 -1.0000e+00
       13  1    1    2    0    0 +2.9433116095e+02 -6.7418001095e+02 +4.2413130339e+03 4.3046353819e+03 0.0000000000e+00 0.0000e+00 1.0000e+00
<mgrwt>
<rscale>  0 0.56164313E+04</rscale>
<asrwt>0</asrwt>
<pdfrwt beam="1">  1        2 0.66906253E+00 0.56164313E+04</pdfrwt>
<pdfrwt beam="2">  1       -2 0.27897642E+00 0.56164313E+04</pdfrwt>
<totfact> 0.42647936E-03</totfact>
</mgrwt>
<rwgt>
<wgt id='morphing_basis_vector_1'> +1.2121918e-06 </wgt>
<wgt id='morphing_basis_vector_2'> +8.2384256e-07 </wgt>
<wgt id='morphing_basis_vector_3'> +1.3369476e-06 </wgt>
<wgt id='morphing_basis_vector_4'> +9.6788718e-07 </wgt>
<wgt id='morphing_basis_vector_5'> +1.5432357e-06 </wgt>
</rwgt>
</event>
<event>
 4      1 +9.0096000e-12 6.19637100e+03 7.81860800e-03 7.24046200e-02
        2 -1    0    0  501    0 +0.0000000000e+00 +0.0000000000e+00 +4.2246127254e+03 4.2246127254e+03 0.0000000000e+00 0.0000e+00 1.0000e+00
       -2 -1    0    0    0  501 -0.0000000000e+00 -0.0000000000e+00 -2.2721029023e+03 2.2721029023e+03 0.0000000000e+00 0.0000e+00 -1.0000e+00
      -13  1    1    2    0    0 +1.1337583362e+03 +1.9641251249e+03 -1.2368781661e+03 2.5832272585e+03 0.0000000000e+00 0.0000e+00 -1.0000e+00
       13  1    1    2    0    0 -1.1337583362e+03 -1.9641251249e+03 +3.1893879892e+03 3.9134883693e+03 0.0000000000e+00 0.0000e+00 1.0000e+00
<mgrwt>
<rscale>  0 0.61963715E+04</rscale>
<asrwt>0</asrwt>
<pdfrwt beam="1">  1        2 0.64994042E+00 0.61963715E+04</pdfrwt>
<pdfrwt beam="2">  1       -2 0.34955429E+00 0.61963715E+04</pdfrwt>
<totfact> 0.18143495E-03</totfact>
</mgrwt>
<rwgt>
<wgt id='morphing_basis_vector_1'> +1.7968199e-06 </wgt>
<wgt id='morphing_basis_vector_2'> +1.2277322e-06 </wgt>
<wgt id='morphing_basis_vector_3'> +1.9848469e-06 </wgt>
<wgt id='morphing_basis_vector_4'> +1.4296341e-06 </wgt>
<wgt id='morphing_basis_vector_5'> +2.2879181e-06 </wgt>
</rwgt>
</event>
<event>
 4      1 +9.0096000e-12 6.41323300e+03 7.81860800e-03 7.21790300e-02
        2 -1    0    0  501    0 +0.0000000000e+00 +0.0000000000e+00 +5.1140623205e+03 5.1140623205e+03 0.0000000000e+00 0.0000e+00 -1.0000e+00
       -2 -1    0    0    0  501 -0.0000000000e+00 -0.0000000000e+00 -2.0106106989e+03 2.0106106989e+03 0.0000000000e+00 0.0000e+00 1.0000e+00
      -13  1    1    2    0    0 +1.8670955859e+03 -1.2549918738e+03 -9.8678395499e+02 2.4565815891e+03 0.0000000000e+00 0.0000e+00 1.0000e+00
       13  1    1    2    0    0 -1.8670955859e+03 +1.2549918738e+03 +4.0902355765e+03 4.6680914303e+03 0.0000000000e+00 0.0000e+00 -1.0000e+00
<mgrwt>
<rscale>  0 0.64132327E+04</rscale>
<asrwt>0</asrwt>
<pdfrwt beam="1">  1        2 0.78677881E+00 0.64132327E+04</pdfrwt>
<pdfrwt beam="2">  1       -2 0.30932473E+00 0.64132327E+04</pdfrwt>
<totfact> 0.31867948E-04</totfact>
</mgrwt>
<rwgt>
<wgt id='morphing_basis_vector_1'> +2.0606409e-06 </wgt>
<wgt id='morphing_basis_vector_2'> +1.4067776e-06 </wgt>
<wgt id='morphing_basis_vector_3'> +2.2765398e-06 </wgt>
<wgt id='morphing_basis_vector_4'> +1.6423555e-06 </wgt>
<wgt id='morphing_basis_vector_5'> +2.6262563e-06 </wgt>
</rwgt>
</event>
<event>
 4      1 +9.0096000e-12 5.75623700e+03 7.81860800e-03 7.28927500e-02
        2 -1    0    0  501    0 +0.0000000000e+00 +0.0000000000e+00 +3.7787181890e+03 3.7787181890e+03 0.0000000000e+00 0.0000e+00 1.0000e+00
       -2 -1    0    0    0  501 -0.0000000000e+00 -0.0000000000e+00 -2.1921631671e+03 2.1921631671e+03 0.0000000000e+00 0.0000e+00 -1.0000e+00
      -13  1    1    2    0    0 +1.0937006044e+03 -2.3084632377e+03 +2.1687646406e+03 3.3509287664e+03 0.0000000000e+00 0.0000e+00 1.0000e+00
       13  1    1    2    0    0 -1.0937006044e+03 +2.3084632377e+03 -5.8220961864e+02 2.6199525896e+03 0.0000000000e+00 0.0000e+00 -1.0000e+00
<mgrwt>
<rscale>  0 0.57562373E+04</rscale>
<asrwt>0</asrwt>
<pdfrwt beam="1">  1        2 0.58134126E+00 0.57562373E+04</pdfrwt>
<pdfrwt beam="2">  1       -2 0.33725587E+00 0.57562373E+04</pdfrwt>
<totfact> 0.54288979E-03</totfact>
</mgrwt>
<rwgt>
<wgt id='morphing_basis_vector_1'> +1.5588839e-06 </wgt>
<wgt id='morphing_basis_vector_2'> +1.5598323e-06 </wgt>
<wgt id='morphing_basis_vector_3'> +1.8367371e-06 </wgt>
<wgt id='morphing_basis_vector_4'> +5.9418869e-07 </wgt>
<wgt id='morphing_basis_vector_5'> +1.6632966e-06 </wgt>
</rwgt>
</event>
<event>
 4      1 +9.0096000e-12 5.89920000e+03 7.81860800e-03 7.27294600e-02
        2 -1    0    0  501    0 +0.0000000000e+00 +0.0000000000e+00 +3.2643975938e+03 3.2643975938e+03 0.0000000000e+00 0.0000e+00 -1.0000e+00
       -2 -1    0    0    0  501 -0.0000000000e+00 -0.0000000000e+00 -2.6651594355e+03 2.6651594355e+03 0.0000000000e+00 0.0000e+00 1.0000e+00
      -13  1    1    2    0    0 +3.4400198732e+02 -2.0840815067e+03 -1.7697142835e+03 2.7556526884e+03 0.0000000000e+00 0.0000e+00 1.0000e+00
       13  1    1    2    0    0 -3.4400198732e+02 +2.0840815067e+03 +2.3689524418e+03 3.1739043409e+03 0.0000000000e+00 0.0000e+00 -1.0000e+00
<mgrwt>
<rscale>  0 0.58992000E+04</rscale>
<asrwt>0</asrwt>
<pdfrwt beam="1">  1        2 0.50221502E+00 0.58992000E+04</pdfrwt>
<pdfrwt beam="2">  1       -2 0.41002453E+00 0.58992000E+04</pdfrwt>
<totfact> 0.43506544E-03</totfact>
</mgrwt>
<rwgt>
<wgt id='morphing_basis_vector_1'> +1.4765355e-06 </wgt>
<wgt id='morphing_basis_vector_2'> +1.0080403e-06 </wgt>
<wgt id='morphing_basis_vector_3'> +1.6302336e-06 </wgt>
<wgt id='morphing_basis_vector_4'> +1.1745453e-06 </wgt>
<wgt id='morphing_basis_vector_5'> +1.8788358e-06 </wgt>
</rwgt>
</event>
<event>
 4      1 +9.0096000e-12 5.63926300e+03 7.81860800e-03 7.30299900e-02
        2 -1    0    0  501    0 +0.0000000000e+00 +0.0000000000e+00 +2.6173551576e+03 2.6173551576e+03 0.0000000000e+00 0.0000e+00 -1.0000e+00
       -2 -1    0    0    0  501 -0.0000000000e+00 -0.0000000000e+00 -3.0375397954e+03 3.0375397954e+03 0.0000000000e+00 0.0000e+00 1.0000e+00
      -13  1    1    2    0    0 -7.7907856613e+02 +1.3751187184e+03 -2.5516038704e+03 3.0014325268e+03 0.0000000000e+00 0.0000e+00 1.0000e+00
       13  1    1    2    0    0 +7.7907856613e+02 -1.3751187184e+03 +2.1314192326e+03 2.6534624261e+03 0.0000000000e+00 0.0000e+00 -1.0000e+00
<mgrwt>
<rscale>  0 0.56392625E+04</rscale>
<asrwt>0</asrwt>
<pdfrwt beam="1">  1        2 0.40267003E+00 0.56392625E+04</pdfrwt>
<pdfrwt beam="2">  1       -2 0.46731381E+00 0.56392625E+04</pdfrwt>
<totfact> 0.47037286E-03</totfact>
</mgrwt>
<rwgt>
<wgt id='morphing_basis_vector_1'> +1.2323997e-06 </wgt>
<wgt id='morphing_basis_vector_2'> +8.3856505e-07 </wgt>
<wgt id='morphing_basis_vector_3'> +1.3595145e-06 </wgt>
<wgt id='morphing_basis_vector_4'> +9.8284462e-07 </wgt>
<wgt id='morphing_basis_vector_5'> +1.5684692e-06 </wgt>
</rwgt>
</event>
<event>
 4      1 +9.0096000e-12 5.82508100e+03 7.81860800e-03 7.28135200e-02
        2 -1    0    0  501    0 +0.0000000000e+00 +0.0000000000e+00 +5.2154699347e+03 5.2154699347e+03 0.0000000000e+00 0.0000e+00 -1.0000e+00
       -2 -1    0    0    0  501 -0.0000000000e+00 -0.0000000000e+00 -1.6264863787e+03 1.6264863787e+03 0.0000000000e+00 0.0000e+00 1.0000e+00
      -13  1    1    2    0    0 +1.5248997284e+02 -1.7703661188e+03 -9.1605039463e+02 1.9991492470e+03 0.0000000000e+00 0.0000e+00 1.0000e+00
       13  1    1    2    0    0 -1.5248997284e+02 +1.7703661188e+03 +4.5050339506e+03 4.8428070664e+03 0.0000000000e+00 0.0000e+00 -1.0000e+00
<mgrwt>
<rscale>  0 0.58250805E+04</rscale>
<asrwt>0</asrwt>
<pdfrwt beam="1">  1        2 0.80237998E+00 0.58250805E+04</pdfrwt>
<pdfrwt beam="2">  1       -2 0.25022868E+00 0.58250805E+04</pdfrwt>
<totfact> 0.59597269E-04</totfact>
</mgrwt>
<rwgt>
<wgt id='morphing_basis_vector_1'> +1.4028468e-06 </wgt>
<wgt id='morphing_basis_vector_2'> +9.5532242e-07 </wgt>
<wgt id='morphing_basis_vector_3'> +1.5481506e-06 </wgt>
<wgt id='morphing_basis_vector_4'> +1.1187127e-06 </wgt>
<wgt id='morphing_basis_vector_5'> +1.7861539e-06 </wgt>
</rwgt>
</event>
<event>
 4      1 +9.0096000e-12 6.40839300e+03 7.81860800e-03 7.21839600e-02
        2 -1    0    0  501    0 +0.0000000000e+00 +0.0000000000e+00 +3.0358050985e+03 3.0358050985e+03 0.0000000000e+00 0.0000e+00 1.0000e+00
       -2 -1    0    0    0  501 -0.0000000000e+00 -0.0000000000e+00 -3.3819285070e+03 3.3819285070e+03 0.0000000000e+00 0.0000e+00 -1.0000e+00
      -13  1    1    2    0    0 -3.4158377501e+01 -2.5677972089e+03 -2.0921340759e+03 3.3123668717e+03 0.0000000000e+00 0.0000e+00 -1.0000e+00
       13  1    1    2    0    0 +3.4158377501e+01 +2.5677972089e+03 +1.7460106674e+03 3.1053667339e+03 0.0000000000e+00 0.0000e+00 1.0000e+00
<mgrwt>
<rscale>  0 0.64083932E+04</rscale>
<asrwt>0</asrwt>
<pdfrwt beam="1">  1        2 0.46704694E+00 0.64083932E+04</pdfrwt>
<pdfrwt beam="2">  1       -2 0.52029669E+00 0.64083932E+04</pdfrwt>
<totfact> 0.97647693E-04</totfact>
</mgrwt>
<rwgt>
<wgt id='morphing_basis_vector_1'> +2.0573558e-06 </wgt>
<wgt id='morphing_basis_vector_2'> +1.4110954e-06 </wgt>
<wgt id='morphing_basis_vector_3'> +2.2744454e-06 </wgt>
<wgt id='morphing_basis_vector_4'> +1.6311510e-06 </wgt>
<wgt id='morphing_basis_vector_5'> +2.6177971e-06 </wgt>
</rwgt>
</event>
<event>
 4      1 +9.0096000e-12 6.11132500e+03 7.81860800e-03 7.24956600e-02
        2 -1    0    0  501    0 +0.0000000000e+00 +0.0000000000e+00 +3.8594753795e+03 3.8594753795e+03 0.0000000000e+00 0.0000e+00 -1.0000e+00
       -2 -1    0    0    0  501 -0.0000000000e+00 -0.0000000000e+00 -2.4192598498e+03 2.4192598498e+03 0.0000000000e+00 0.0000e+00 1.0000e+00
      -13  1    1    2    0    0 -5.8912732663e+02 -2.5342951740e+03 -9.2608005431e+02 2.7617652513e+03 0.0000000000e+00 0.0000e+00 1.0000e+00
       13  1    1    2    0    0 +5.8912732663e+02 +2.5342951740e+03 +2.3662955840e+03 3.5169699781e+03 0.0000000000e+00 0.0000e+00 -1.0000e+00
<mgrwt>
<rscale>  0 0.61113252E+04</rscale>
<asrwt>0</asrwt>
<pdfrwt beam="1">  1        2 0.59376544E+00 0.61113252E+04</pdfrwt>
<pdfrwt beam="2">  1       -2 0.37219382E+00 0.61113252E+04</pdfrwt>
<totfact> 0.27060800E-03</totfact>
</mgrwt>
<rwgt>
<wgt id='morphing_basis_vector_1'> +1.7045914e-06 </wgt>
<wgt id='morphing_basis_vector_2'> +1.1740913e-06 </wgt>
<wgt id='morphing_basis_vector_3'> +1.8849783e-06 </wgt>
<wgt id='morphing_basis_vector_4'> +1.3436036e-06 </wgt>
<wgt id='morphing_basis_vector_5'> +2.1638655e-06 </wgt>
</rwgt>
</event>
<event>
 4      1 +9.0096000e-12 5.82100100e+03 7.81860800e-03 7.28181800e-02
        2 -1    0    0  501    0 +0.0000000000e+00 +0.0000000000e+00 +4.0270806127e+03 4.0270806127e+03 0.0000000000e+00 0.0000e+00 -1.0000e+00
       -2 -1    0    0    0  501 -0.0000000000e+00 -0.0000000000e+00 -2.1035119459e+03 2.1035119459e+03 0.0000000000e+00 0.0000e+00 1.0000e+00
      -13  1    1    2    0    0 +1.8723297068e+03 -1.8075964589e+03 -4.1058878038e+02 2.6346928921e+03 0.0000000000e+00 0.0000e+00 1.0000e+00
       13  1    1    2    0    0 -1.8723297068e+03 +1.8075964589e+03 +2.3341574472e+03 3.4958996664e+03 0.0000000000e+00 0.0000e+00 -1.0000e+00
<mgrwt>
<rscale>  0 0.58210007E+04</rscale>
<asrwt>0</asrwt>
<pdfrwt beam="1">  1        2 0.61955086E+00 0.58210007E+04</pdfrwt>
<pdfrwt beam="2">  1       -2 0.32361722E+00 0.58210007E+04</pdfrwt>
<totfact> 0.41421549E-03</totfact>
</mgrwt>
<rwgt>
<wgt id='morphing_basis_vector_1'> +1.4063504e-06 </wgt>
<wgt id='morphing_basis_vector_2'> +9.7443227e-07 </wgt>
<wgt id='morphing_basis_vector_3'> +1.5559238e-06 </wgt>
<wgt id='morphing_basis_vector_4'> +1.0997109e-06 </wgt>
<wgt id='morphing_basis_vector_5'> +1.7798097e-06 </wgt>
</rwgt>
</event>
<event>
 4      1 +9.0096000e-12 6.06436400e+03 7.81860800e-03 7.25465800e-02
        2 -1    0    0  501    0 +0.0000000000e+00 +0.0000000000e+00 +3.0999444253e+03 3.0999444253e+03 0.0000000000e+00 0.0000e+00 -1.0000e+00
       -2 -1    0    0    0  501 -0.0000000000e+00 -0.0000000000e+00 -2.9659009563e+03 2.9659009563e+03 0.0000000000e+00 0.0000e+00 1.0000e+00
      -13  1    1    2    0    0 -1.8731161026e+03 -2.2471696624e+03 +8.6458260019e+02 3.0505472457e+03 0.0000000000e+00 0.0000e+00 1.0000e+00
       13  1    1    2    0    0 +1.8731161026e+03 +2.2471696624e+03 -7.3053913123e+02 3.0152981358e+03 0.0000000000e+00 0.0000e+00 -1.0000e+00
<mgrwt>
<rscale>  0 0.60643641E+04</rscale>
<asrwt>0</asrwt>
<pdfrwt beam="1">  1        2 0.47691453E+00 0.60643641E+04</pdfrwt>
<pdfrwt beam="2">  1       -2 0.45629246E+00 0.60643641E+04</pdfrwt>
<totfact> 0.26979991E-03</totfact>
</mgrwt>
<rwgt>
<wgt id='morphing_basis_vector_1'> +1.7957536e-06 </wgt>
<wgt id='morphing_basis_vector_2'> +1.5577068e-06 </wgt>
<wgt id='morphing_basis_vector_3'> +2.0610181e-06 </wgt>
<wgt id='morphing_basis_vector_4'> +9.9707746e-07 </wgt>
<wgt id='morphing_basis_vector_5'> +2.0722689e-06 </wgt>
</rwgt>
</event>
<event>
 4      1 +9.0096000e-12 6.37329000e+03 7.81860800e-03 7.22198900e-02
        2 -1    0    0  501    0 +0.0000000000e+00 +0.0000000000e+00 +3.8486388839e+03 3.8486388839e+03 0.0000000000e+00 0.0000e+00 1.0000e+00
       -2 -1    0    0    0  501 -0.0000000000e+00 -0.0000000000e+00 -2.6385191491e+03 2.6385191491e+03 0.0000000000e+00 0.0000e+00 -1.0000e+00
      -13  1    1    2    0    0 -1.3650096316e+01 +2.5717765408e+03 -1.3101759113e+03 2.8863093769e+03 0.0000000000e+00 0.0000e+00 -1.0000e+00
       13  1    1    2    0    0 +1.3650096316e+01 -2.5717765408e+03 +2.5202956460e+03 3.6008486561e+03 0.0000000000e+00 0.0000e+00 1.0000e+00
<mgrwt>
<rscale>  0 0.63732903E+04</rscale>
<asrwt>0</asrwt>
<pdfrwt beam="1">  1        2 0.59209829E+00 0.63732903E+04</pdfrwt>
<pdfrwt beam="2">  1       -2 0.40592602E+00 0.63732903E+04</pdfrwt>
<totfact> 0.16359932E-03</totfact>
</mgrwt>
<rwgt>
<wgt id='morphing_basis_vector_1'> +2.0129818e-06 </wgt>
<wgt id='morphing_basis_vector_2'> +1.3811762e-06 </wgt>
<wgt id='morphing_basis_vector_3'> +2.2254266e-06 </wgt>
<wgt id='morphing_basis_vector_4'> +1.5951115e-06 </wgt>
<wgt id='morphing_basis_vector_5'> +2.5607560e-06 </wgt>
</rwgt>
</event>
<event>
 4      1 +9.0096000e-12 5.89966000e+03 7.81860800e-03 7.27289400e-02
        2 -1    0    0  501    0 +0.0000000000e+00 +0.0000000000e+00 +2.7161488239e+03 2.7161488239e+03 0.0000000000e+00 0.0000e+00 1.0000e+00
       -2 -1    0    0    0  501 -0.0000000000e+00 -0.0000000000e+00 -3.2036158329e+03 3.2036158329e+03 0.0000000000e+00 0.0000e+00 -1.0000e+00
      -13  1    1    2    0    0 +2.5145993113e+03 +1.8521625251e+01 -1.7910470162e+03 3.0872969020e+03 0.0000000000e+00 0.0000e+00 -1.0000e+00
       13  1    1    2    0    0 -2.5145993113e+03 -1.8521625251e+01 +1.3035800072e+03 2.8324677548e+03 0.0000000000e+00 0.0000e+00 1.0000e+00
<mgrwt>
<rscale>  0 0.58996601E+04</rscale>
<asrwt>0</asrwt>
<pdfrwt beam="1">  1        2 0.41786905E+00 0.58996601E+04</pdfrwt>
<pdfrwt beam="2">  1       -2 0.49286398E+00 0.58996601E+04</pdfrwt>
<totfact> 0.25984402E-03</totfact>
</mgrwt>
<rwgt>
<wgt id='morphing_basis_vector_1'> +1.4809531e-06 </wgt>
<wgt id='morphing_basis_vector_2'> +1.0199723e-06 </wgt>
<wgt id='morphing_basis_vector_3'> +1.6372018e-06 </wgt>
<wgt id='morphing_basis_vector_4'> +1.1664486e-06 </wgt>
<wgt id='morphing_basis_vector_5'> +1.8787117e-06 </wgt>
</rwgt>
</event>
<event>
 4      1 +9.0096000e-12 6.00236200e+03 7.81860800e-03 7.26145300e-02
        2 -1    0    0  501    0 +0.0000000000e+00 +0.0000000000e+00 +2.4195631822e+03 2.4195631822e+03 0.0000000000e+00 0.0000e+00 -1.0000e+00
       -2 -1    0    0    0  501 -0.0000000000e+00 -0.0000000000e+00 -3.7226094449e+03 3.7226094449e+03 0.0000000000e+00 0.0000e+00 1.0000e+00
      -13  1    1    2    0    0 -1.9594883510e+02 +1.6030319080e+03 -3.2400652096e+03 3.6202389157e+03 0.0000000000e+00 0.0000e+00 1.0000e+00
       13  1    1    2    0    0 +1.9594883510e+02 -1.6030319080e+03 +1.9370189469e+03 2.5219337114e+03 0.0000000000e+00 0.0000e+00 -1.0000e+00
<mgrwt>
<rscale>  0 0.60023625E+04</rscale>
<asrwt>0</asrwt>
<pdfrwt beam="1">  1        2 0.37224049E+00 0.60023625E+04</pdfrwt>
<pdfrwt beam="2">  1       -2 0.57270914E+00 0.60023625E+04</pdfrwt>
<totfact> 0.10118428E-03</totfact>
</mgrwt>
<rwgt>
<wgt id='morphing_basis_vector_1'> +1.5807380e-06 </wgt>
<wgt id='morphing_basis_vector_2'> +1.0757543e-06 </wgt>
<wgt id='morphing_basis_vector_3'> +1.7447181e-06 </wgt>
<wgt id='morphing_basis_vector_4'> +1.2624294e-06 </wgt>
<wgt id='morphing_basis_vector_5'> +2.0143429e-06 </wgt>
</rwgt>
</event>
<event>
 4      1 +9.0096000e-12 5.55853600e+03 7.81860800e-03 7.31267100e-02
        2 -1    0    0  501    0 +0.0000000000e+00 +0.0000000000e+00 +3.9247372523e+03 3.9247372523e+03 0.0000000000e+00 0.0000e+00 -1.0000e+00
       -2 -1    0    0    0  501 -0.0000000000e+00 -0.0000000000e+00 -1.9681143231e+03 1.9681143231e+03 0.0000000000e+00 0.0000e+00 1.0000e+00
      -13  1    1    2    0    0 -1.0193865003e+03 -2.1595677104e+03 -5.2897764477e+02 2.4459556172e+03 0.0000000000e+00 0.0000e+00 1.0000e+00
       13  1    1    2    0    0 +1.0193865003e+03 +2.1595677104e+03 +2.4856005739e+03 3.4468959581e+03 0.0000000000e+00 0.0000e+00 -1.0000e+00
<mgrwt>
<rscale>  0 0.55585364E+04</rscale>
<asrwt>0</asrwt>
<pdfrwt beam="1">  1        2 0.60380573E+00 0.55585364E+04</pdfrwt>
<pdfrwt beam="2">  1       -2 0.30278682E+00 0.55585364E+04</pdfrwt>
<totfact> 0.71034340E-03</totfact>
</mgrwt>
<rwgt>
<wgt id='morphing_basis_vector_1'> +1.1679967e-06 </wgt>
<wgt id='morphing_basis_vector_2'> +8.0479102e-07 </wgt>
<wgt id='morphing_basis_vector_3'> +1.2906473e-06 </wgt>
<wgt id='morphing_basis_vector_4'> +9.1804654e-07 </wgt>
<wgt id='morphing_basis_vector_5'> +1.4795477e-06 </wgt>
</rwgt>
</event>
<event>
 4      1 +9.0096000e-12 5.87298600e+03 7.81860800e-03 7.27590400e-02
        2 -1    0    0  501    0 +0.0000000000e+00 +0.0000000000e+00 +3.1796545597e+03 3.1796545597e+03 0.0000000000e+00 0.0000e+00 -1.0000e+00
       -2 -1    0    0    0  501 -0.0000000000e+00 -0.0000000000e+00 -2.7119270376e+03 2.7119270376e+03 0.0000000000e+00 0.0000e+00 1.0000e+00
      -13  1    1    2    0    0 +1.5703982114e+03 -7.2073187873e+02 -2.1479720692e+03 2.7566989305e+03 0.0000000000e+00 0.0000e+00 1.0000e+00
       13  1    1    2    0    0 -1.5703982114e+03 +7.2073187873e+02 +2.6156995913e+03 3.1348826669e+03 0.0000000000e+00 0.0000e+00 -1.0000e+00
<mgrwt>
<rscale>  0 0.58729860E+04</rscale>
<asrwt>0</asrwt>
<pdfrwt beam="1">  1        2 0.48917763E+00 0.58729860E+04</pdfrwt>
<pdfrwt beam="2">  1       -2 0.41721954E+00 0.58729860E+04</pdfrwt>
<totfact> 0.44660413E-03</totfact>
</mgrwt>
<rwgt>
<wgt id='morphing_basis_vector_1'> +1.4493221e-06 </wgt>
<wgt id='morphing_basis_vector_2'> +9.8672318e-07 </wgt>
<wgt id='morphing_basis_vector_3'> +1.5994883e-06 </wgt>
<wgt id='morphing_basis_vector_4'> +1.1563363e-06 </wgt>
<wgt id='morphing_basis_vector_5'> +1.8458036e-06 </wgt>
</rwgt>
</event>
<event>
 4      1 +9.0096000e-12 5.87344700e+03 7.81860800e-03 7.27585200e-02
        2 -1    0    0  501    0 +0.0000000000e+00 +0.0000000000e+00 +4.3374044886e+03 4.3374044886e+03 0.0000000000e+00 0.0000e+00 1.0000e+00
       -2 -1    0    0    0  501 -0.0000000000e+00 -0.0000000000e+00 -1.9883657014e+03 1.9883657014e+03 0.0000000000e+00 0.0000e+00 -1.0000e+00
      -13  1    1    2    0    0 +1.2975951929e+03 -1.1383218666e+03 -1.3843329721e+03 2.2126698205e+03 0.0000000000e+00 0.0000e+00 1.0000e+00
       13  1    1    2    0    0 -1.2975951929e+03 +1.1383218666e+03 +3.7333717593e+03 4.1131003695e+03 0.0000000000e+00 0.0000e+00 -1.0000e+00
<mgrwt>
<rscale>  0 0.58734475E+04</rscale>
<asrwt>0</asrwt>
<pdfrwt beam="1">  1        2 0.66729300E+00 0.58734475E+04</pdfrwt>
<pdfrwt beam="2">  1       -2 0.30590242E+00 0.58734475E+04</pdfrwt>
<totfact> 0.28223997E-03</totfact>
</mgrwt>
<rwgt>
<wgt id='morphing_basis_vector_1'> +1.4497730e-06 </wgt>
<wgt id='morphing_basis_vector_2'> +9.8702254e-07 </wgt>
<wgt id='morphing_basis_vector_3'> +1.5999851e-06 </wgt>
<wgt id='morphing_basis_vector_4'> +1.1567083e-06 </wgt>
<wgt id='morphing_basis_vector_5'> +1.8463858e-06 </wgt>
</rwgt>
</event>
<event>
 4      1 +9.0096000e-12 5.61878300e+03 7.81860800e-03 7.30543700e-02
        2 -1    0    0  501    0 +0.0000000000e+00 +0.0000000000e+00 +2.8834998764e+03 2.8834998764e+03 0.0000000000e+00 0.0000e+00 -1.0000e+00
       -2 -1    0    0    0  501 -0.0000000000e+00 -0.0000000000e+00 -2.7371880381e+03 2.7371880381e+03 0.0000000000e+00 0.0000e+00 1.0000e+00
      -13  1    1    2    0    0 -2.3355881069e+03 +6.7453766049e+02 -1.3354082163e+03 2.7736776966e+03 0.0000000000e+00 0.0000e+00 1.0000e+00
       13  1    1    2    0    0 +2.3355881069e+03 -6.7453766049e+02 +1.4817200546e+03 2.8470102179e+03 0.0000000000e+00 0.0000e+00 -1.0000e+00
<mgrwt>
<rscale>  0 0.56187833E+04</rscale>
<asrwt>0</asrwt>
<pdfrwt beam="1">  1        2 0.44361536E+00 0.56187833E+04</pdfrwt>
<pdfrwt beam="2">  1       -2 0.42110585E+00 0.56187833E+04</pdfrwt>
<totfact> 0.67119749E-03</totfact>
</mgrwt>
<rwgt>
<wgt id='morphing_basis_vector_1'> +1.2196156e-06 </wgt>
<wgt id='morphing_basis_vector_2'> +8.4106669e-07 </wgt>
<wgt id='morphing_basis_vector_3'> +1.3479837e-06 </wgt>
<wgt id='morphing_basis_vector_4'> +9.5798237e-07 </wgt>
<wgt id='morphing_basis_vector_5'> +1.5448599e-06 </wgt>
</rwgt>
</event>
<event>
 4      1 +9.0096000e-12 6.21004700e+03 7.81860800e-03 7.23901100e-02
        2 -1    0    0  501    0 +0.0000000000e+00 +0.0000000000e+00 +3.2428453368e+03 3.2428453368e+03 0.0000000000e+00 0.0000e+00 -1.0000e+00
       -2 -1    0    0    0  501 -0.0000000000e+00 -0.0000000000e+00 -2.9730594469e+03 2.9730594469e+03 0.0000000000e+00 0.0000e+00 1.0000e+00
      -13  1    1    2    0    0 -2.2502904181e+03 -1.6935951980e+03 -1.1736657833e+03 3.0511576543e+03 0.0000000000e+00 0.0000e+00 1.0000e+00
       13  1    1    2    0    0 +2.2502904181e+03 +1.6935951980e+03 +1.4434516731e+03 3.1647471294e+03 0.0000000000e+00 0.0000e+00 -1.0000e+00
<mgrwt>
<rscale>  0 0.62100473E+04</rscale>
<asrwt>0</asrwt>
<pdfrwt beam="1">  1        2 0.49889929E+00 0.62100473E+04</pdfrwt>
<pdfrwt beam="2">  1       -2 0.45739376E+00 0.62100473E+04</pdfrwt>
<totfact> 0.20984297E-03</totfact>
</mgrwt>
<rwgt>
<wgt id='morphing_basis_vector_1'> +1.8221155e-06 </wgt>
<wgt id='morphing_basis_vector_2'> +1.2662282e-06 </wgt>
<wgt id='morphing_basis_vector_3'> +2.0178118e-06 </wgt>
<wgt id='morphing_basis_vector_4'> +1.4221723e-06 </wgt>
<wgt id='morphing_basis_vector_5'> +2.3065296e-06 </wgt>
</rwgt>
</event>
<event>
 4      1 +9.0096000e-12 6.60723300e+03 7.81860800e-03 7.19847500e-02
        2 -1    0    0  501    0 +0.0000000000e+00 +0.0000000000e+00 +4.0742682153e+03 4.0742682153e+03 0.0000000000e+00 0.0000e+00 1.0000e+00
       -2 -1    0    0    0  501 -0.0000000000e+00 -0.0000000000e+00 -2.6787341458e+03 2.6787341458e+03 0.0000000000e+00 0.0000e+00 -1.0000e+00
      -13  1    1    2    0    0 -7.2549463289e+02 -9.9128602557e+02 -2.4366311927e+03 2.7287656580e+03 0.0000000000e+00 0.0000e+00 -1.0000e+00
       13  1    1    2    0    0 +7.2549463289e+02 +9.9128602557e+02 +3.8321652621e+03 4.0242367032e+03 0.0000000000e+00 0.0000e+00 1.0000e+00
<mgrwt>
<rscale>  0 0.66072328E+04</rscale>
<asrwt>0</asrwt>
<pdfrwt beam="1">  1        2 0.62681050E+00 0.66072328E+04</pdfrwt>
<pdfrwt beam="2">  1       -2 0.41211294E+00 0.66072328E+04</pdfrwt>
<totfact> 0.94508663E-04</totfact>
</mgrwt>
<rwgt>
<wgt id='morphing_basis_vector_1'> +2.3184544e-06 </wgt>
<wgt id='morphing_basis_vector_2'> +1.5773088e-06 </wgt>
<wgt id='morphing_basis_vector_3'> +2.5605760e-06 </wgt>
<wgt id='morphing_basis_vector_4'> +1.8561044e-06 </wgt>
<wgt id='morphing_basis_vector_5'> +2.9598607e-06 </wgt>
</rwgt>
</event>
<event>
 4      1 +9.0096000e-12 6.36449900e+03 7.81860800e-03 7.22289200e-02
        2 -1    0    0  501    0 +0.0000000000e+00 +0.0000000000e+00 +1.9601638025e+03 1.9601638025e+03 0.0000000000e+00 0.0000e+00 1.0000e+00
       -2 -1    0    0    0  501 -0.0000000000e+00 -0.0000000000e+00 -5.1662581650e+03 5.1662581650e+03 0.0000000000e+00 0.0000e+00 -1.0000e+00
      -13  1    1    2    0    0 -2.5169475550e+03 -1.7812829136e+03 -2.4837995751e+03 3.9594512425e+03 0.0000000000e+00 0.0000e+00 -1.0000e+00
       13  1    1    2    0    0 +2.5169475550e+03 +1.7812829136e+03 -7.2229478733e+02 3.1669707249e+03 0.0000000000e+00 0.0000e+00 1.0000e+00
<mgrwt>
<rscale>  0 0.63644991E+04</rscale>
<asrwt>0</asrwt>
<pdfrwt beam="1">  1        2 0.30156366E+00 0.63644991E+04</pdfrwt>
<pdfrwt beam="2">  1       -2 0.79480895E+00 0.63644991E+04</pdfrwt>
<totfact> 0.56962438E-04</totfact>
</mgrwt>
<rwgt>
<wgt id='morphing_basis_vector_1'> +2.0251403e-06 </wgt>
<wgt id='morphing_basis_vector_2'> +1.4417232e-06 </wgt>
<wgt id='morphing_basis_vector_3'> +2.2511477e-06 </wgt>
<wgt id='morphing_basis_vector_4'> +1.5365918e-06 </wgt>
<wgt id='morphing_basis_vector_5'> +2.5424431e-06 </wgt>
</rwgt>
</event>
<event>
 4      1 +9.0096000e-12 5.58033100e+03 7.81860800e-03 7.31004300e-02
        2 -1    0    0  501    0 +0.0000000000e+00 +0.0000000000e+00 +3.3333507083e+03 3.3333507083e+03 0.0000000000e+00 0.0000e+00 1.0000e+00
       -2 -1    0    0    0  501 -0.0000000000e+00 -0.0000000000e+00 -2.3354951588e+03 2.3354951588e+03 0.0000000000e+00 0.0000e+00 -1.0000e+00
      -13  1    1    2    0    0 -9.8025364363e+02 -1.7138132448e+03 -1.5038849201e+03 2.4818789045e+03 0.0000000000e+00 0.0000e+00 -1.0000e+00
       13  1    1    2    0    0 +9.8025364363e+02 +1.7138132448e+03 +2.5017404696e+03 3.1869669626e+03 0.0000000000e+00 0.0000e+00 1.0000e+00
<mgrwt>
<rscale>  0 0.55803313E+04</rscale>
<asrwt>0</asrwt>
<pdfrwt beam="1">  1        2 0.51282318E+00 0.55803313E+04</pdfrwt>
<pdfrwt beam="2">  1       -2 0.35930695E+00 0.55803313E+04</pdfrwt>
<totfact> 0.85043651E-03</totfact>
</mgrwt>
<rwgt>
<wgt id='morphing_basis_vector_1'> +1.1828124e-06 </wgt>
<wgt id='morphing_basis_vector_2'> +8.0701731e-07 </wgt>
<wgt id='morphing_basis_vector_3'> +1.3052029e-06 </wgt>
<wgt id='morphing_basis_vector_4'> +9.4017517e-07 </wgt>
<wgt id='morphing_basis_vector_5'> +1.5035889e-06 </wgt>
</rwgt>
</event>
<event>
 4      1 +9.0096000e-12 5.91329900e+03 7.81860800e-03 7.27136100e-02
        2 -1    0    0  501    0 +0.0000000000e+00 +0.0000000000e+00 +3.0471429338e+03 3.0471429338e+03 0.0000000000e+00 0.0000e+00 1.0000e+00
       -2 -1    0    0    0  501 -0.0000000000e+00 -0.0000000000e+00 -2.8688439116e+03 2.8688439116e+03 0.0000000000e+00 0.0000e+00 -1.0000e+00
      -13  1    1    2    0    0 -2.8679370373e+03 -3.4756127451e+02 -5.4035482827e+02 2.9390211006e+03 0.0000000000e+00 0.0000e+00 -1.0000e+00
       13  1    1    2    0    0 +2.8679370373e+03 +3.4756127451e+02 +7.1865385038e+02 2.9769657448e+03 0.0000000000e+00 0.0000e+00 1.0000e+00
<mgrwt>
<rscale>  0 0.59132994E+04</rscale>
<asrwt>0</asrwt>
<pdfrwt beam="1">  1        2 0.46879122E+00 0.59132994E+04</pdfrwt>
<pdfrwt beam="2">  1       -2 0.44136060E+00 0.59132994E+04</pdfrwt>
<totfact> 0.37561060E-03</totfact>
</mgrwt>
<rwgt>
<wgt id='morphing_basis_vector_1'> +1.5132499e-06 </wgt>
<wgt id='morphing_basis_vector_2'> +1.0839853e-06 </wgt>
<wgt id='morphing_basis_vector_3'> +1.6827291e-06 </wgt>
<wgt id='morphing_basis_vector_4'> +1.1375481e-06 </wgt>
<wgt id='morphing_basis_vector_5'> +1.8928425e-06 </wgt>
</rwgt>
</event>
<event>
 4      1 +9.0096000e-12 5.74081400e+03 7.81860800e-03 7.29106500e-02
        2 -1    0    0  501    0 +0.0000000000e+00 +0.0000000000e+00 +2.5993457358e+03 2.5993457358e+03 0.0000000000e+00 0.0000e+00 1.0000e+00
       -2 -1    0    0    0  501 -0.0000000000e+00 -0.0000000000e+00 -3.1697341912e+03 3.1697341912e+03 0.0000000000e+00 0.0000e+00 -1.0000e+00
      -13  1    1    2    0    0 +3.4691791146e+02 -6.9483869378e+02 -3.0621464731e+03 3.1590970024e+03 0.0000000000e+00 0.0000e+00 -1.0000e+00
       13  1    1    2    0    0 -3.4691791146e+02 +6.9483869378e+02 +2.4917580177e+03 2.6099829246e+03 0.0000000000e+00 0.0000e+00 1.0000e+00
<mgrwt>
<rscale>  0 0.57408135E+04</rscale>
<asrwt>0</asrwt>
<pdfrwt beam="1">  1        2 0.39989935E+00 0.57408135E+04</pdfrwt>
<pdfrwt beam="2">  1       -2 0.48765141E+00 0.57408135E+04</pdfrwt>
<totfact> 0.33909611E-03</totfact>
</mgrwt>
<rwgt>
<wgt id='morphing_basis_vector_1'> +1.3229001e-06 </wgt>
<wgt id='morphing_basis_vector_2'> +8.9921106e-07 </wgt>
<wgt id='morphing_basis_vector_3'> +1.4593555e-06 </wgt>
<wgt id='morphing_basis_vector_4'> +1.0567347e-06 </wgt>
<wgt id='morphing_basis_vector_5'> +1.6849135e-06 </wgt>
</rwgt>
</event>
<event>
 4      1 +9.0096000e-12 5.81306600e+03 7.81860800e-03 7.28272700e-02
        2 -1    0    0  501    0 +0.0000000000e+00 +0.0000000000e+00 +2.6744176811e+03 2.6744176811e+03 0.0000000000e+00 0.0000e+00 1.0000e+00
       -2 -1    0    0    0  501 -0.0000000000e+00 -0.0000000000e+00 -3.1587939551e+03 3.1587939551e+03 0.0000000000e+00 0.0000e+00 -1.0000e+00
      -13  1    1    2    0    0 -9.2644267200e+02 -2.7210224601e+03 +1.9020556994e+02 2.8807008543e+03 0.0000000000e+00 0.0000e+00 1.0000e+00
       13  1    1    2    0    0 +9.2644267200e+02 +2.7210224601e+03 -6.7458184389e+02 2.9525107819e+03 0.0000000000e+00 0.0000e+00 -1.0000e+00
<mgrwt>
<rscale>  0 0.58130661E+04</rscale>
<asrwt>0</asrwt>
<pdfrwt beam="1">  1        2 0.41144888E+00 0.58130661E+04</pdfrwt>
<pdfrwt beam="2">  1       -2 0.48596830E+00 0.58130661E+04</pdfrwt>
<totfact> 0.31239583E-03</totfact>
</mgrwt>
<rwgt>
<wgt id='morphing_basis_vector_1'> +1.4766457e-06 </wgt>
<wgt id='morphing_basis_vector_2'> +1.1978889e-06 </wgt>
<wgt id='morphing_basis_vector_3'> +1.6745884e-06 </wgt>
<wgt id='morphing_basis_vector_4'> +9.2711036e-07 </wgt>
<wgt id='morphing_basis_vector_5'> +1.7560963e-06 </wgt>
</rwgt>
</event>
<event>
 4      1 +9.0096000e-12 6.42049700e+03 7.81860800e-03 7.21716300e-02
        2 -1    0    0  501    0 +0.0000000000e+00 +0.0000000000e+00 +2.5060088959e+03 2.5060088959e+03 0.0000000000e+00 0.0000e+00 -1.0000e+00
       -2 -1    0    0    0  501 -0.0000000000e+00 -0.0000000000e+00 -4.1123936448e+03 4.1123936448e+03 0.0000000000e+00 0.0000e+00 1.0000e+00
      -13  1    1    2    0    0 +2.9584463119e+02 +2.0337906969e+03 -3.3453529359e+03 3.9262214546e+03 0.0000000000e+00 0.0000e+00 1.0000e+00
       13  1    1    2    0    0 -2.9584463119e+02 -2.0337906969e+03 +1.7389681870e+03 2.6921810861e+03 0.0000000000e+00 0.0000e+00 -1.0000e+00
<mgrwt>
<rscale>  0 0.64204969E+04</rscale>
<asrwt>0</asrwt>
<pdfrwt beam="1">  1        2 0.38553984E+00 0.64204969E+04</pdfrwt>
<pdfrwt beam="2">  1       -2 0.63267593E+00 0.64204969E+04</pdfrwt>
<totfact> 0.21061795E-04</totfact>
</mgrwt>
<rwgt>
<wgt id='morphing_basis_vector_1'> +2.0690508e-06 </wgt>
<wgt id='morphing_basis_vector_2'> +1.4104471e-06 </wgt>
<wgt id='morphing_basis_vector_3'> +2.2853601e-06 </wgt>
<wgt id='morphing_basis_vector_4'> +1.6518008e-06 </wgt>
<wgt id='morphing_basis_vector_5'> +2.6383649e-06 </wgt>
</rwgt>
</event>
<event>
 4      1 +9.0096000e-12 5.55508600e+03 7.81860800e-03 7.31308800e-02
        2 -1    0    0  501    0 +0.0000000000e+00 +0.0000000000e+00 +4.0793782601e+03 4.0793782601e+03 0.0000000000e+00 0.0000e+00 -1.0000e+00
       -2 -1    0    0    0  501 -0.0000000000e+00 -0.0000000000e+00 -1.8911572976e+03 1.8911572976e+03 0.0000000000e+00 0.0000e+00 1.0000e+00
      -13  1    1    2    0    0 -9.2961266570e+02 +1.0357012467e+03 -1.4893812899e+03 2.0384095288e+03 0.0000000000e+00 0.0000e+00 1.0000e+00
       13  1    1    2    0    0 +9.2961266570e+02 -1.0357012467e+03 +3.6776022524e+03 3.9321260289e+03 0.0000000000e+00 0.0000e+00 -1.0000e+00
<mgrwt>
<rscale>  0 0.55550863E+04</rscale>
<asrwt>0</asrwt>
<pdfrwt beam="1">  1        2 0.62759665E+00 0.55550863E+04</pdfrwt>
<pdfrwt beam="2">  1       -2 0.29094728E+00 0.55550863E+04</pdfrwt>
<totfact> 0.63009575E-03</totfact>
</mgrwt>
<rwgt>
<wgt id='morphing_basis_vector_1'> +1.1604589e-06 </wgt>
<wgt id='morphing_basis_vector_2'> +7.8915062e-07 </wgt>
<wgt id='morphing_basis_vector_3'> +1.2798741e-06 </wgt>
<wgt id='morphing_basis_vector_4'> +9.2569229e-07 </wgt>
<wgt id='morphing_basis_vector_5'> +1.4767025e-06 </wgt>
</rwgt>
</event>
<event>
 4      1 +9.0096000e-12 5.75331500e+03 7.81860800e-03 7.28961400e-02
        2 -1    0    0  501    0 +0.0000000000e+00 +0.0000000000e+00 +4.3575394612e+03 4.3575394612e+03 0.0000000000e+00 0.0000e+00 -1.0000e+00
       -2 -1    0    0    0  501 -0.0000000000e+00 -0.0000000000e+00 -1.8990437564e+03 1.8990437564e+03 0.0000000000e+00 0.0000e+00 1.0000e+00
      -13  1    1    2    0    0 +3.0043164067e+02 -2.8609227412e+03 +1.2243838618e+03 3.1263803260e+03 0.0000000000e+00 0.0000e+00 1.0000e+00
       13  1    1    2    0    0 -3.0043164067e+02 +2.8609227412e+03 +1.2341118430e+03 3.1302028916e+03 0.0000000000e+00 0.0000e+00 -1.0000e+00
<mgrwt>
<rscale>  0 0.57533149E+04</rscale>
<asrwt>0</asrwt>
<pdfrwt beam="1">  1        2 0.67039068E+00 0.57533149E+04</pdfrwt>
<pdfrwt beam="2">  1       -2 0.29216058E+00 0.57533149E+04</pdfrwt>
<totfact> 0.33688370E-03</totfact>
</mgrwt>
<rwgt>
<wgt id='morphing_basis_vector_1'> +1.3832694e-06 </wgt>
<wgt id='morphing_basis_vector_2'> +1.0504229e-06 </wgt>
<wgt id='morphing_basis_vector_3'> +1.5517529e-06 </wgt>
<wgt id='morphing_basis_vector_4'> +9.6160351e-07 </wgt>
<wgt id='morphing_basis_vector_5'> +1.6908990e-06 </wgt>
</rwgt>
</event>
<event>
 4      1 +9.0096000e-12 6.35766600e+03 7.81860800e-03 7.22359600e-02
        2 -1    0    0  501    0 +0.0000000000e+00 +0.0000000000e+00 +2.1034737783e+03 2.1034737783e+03 0.0000000000e+00 0.0000e+00 -1.0000e+00
       -2 -1    0    0    0  501 -0.0000000000e+00 -0.0000000000e+00 -4.8039476318e+03 4.8039476318e+03 0.0000000000e+00 0.0000e+00 1.0000e+00
      -13  1    1    2    0    0 +1.9614943309e+03 -8.7453947308e+02 -3.8965462289e+03 4.4491967606e+03 0.0000000000e+00 0.0000e+00 1.0000e+00
       13  1    1    2    0    0 -1.9614943309e+03 +8.7453947308e+02 +1.1960723754e+03 2.4582246495e+03 0.0000000000e+00 0.0000e+00 -1.0000e+00
<mgrwt>
<rscale>  0 0.63576656E+04</rscale>
<asrwt>0</asrwt>
<pdfrwt beam="1">  1        2 0.32361135E+00 0.63576656E+04</pdfrwt>
<pdfrwt beam="2">  1       -2 0.73906886E+00 0.63576656E+04</pdfrwt>
<totfact> 0.36183277E-04</totfact>
</mgrwt>
<rwgt>
<wgt id='morphing_basis_vector_1'> +1.9898586e-06 </wgt>
<wgt id='morphing_basis_vector_2'> +1.3574343e-06 </wgt>
<wgt id='morphing_basis_vector_3'> +2.1979697e-06 </wgt>
<wgt id='morphing_basis_vector_4'> +1.5869814e-06 </wgt>
<wgt id='morphing_basis_vector_5'> +2.5363178e-06 </wgt>
</rwgt>
</event>
<event>
 4      1 +9.0096000e-12 6.12903100e+03 7.81860800e-03 7.24765800e-02
        2 -1    0    0  501    0 +0.0000000000e+00 +0.0000000000e+00 +1.8146662199e+03 1.8146662199e+03 0.0000000000e+00 0.0000e+00 -1.0000e+00
       -2 -1    0    0    0  501 -0.0000000000e+00 -0.0000000000e+00 -5.1751977380e+03 5.1751977380e+03 0.0000000000e+00 0.0000e+00 1.0000e+00
      -13  1    1    2    0    0 +1.1046254023e+03 +2.0997333467e+03 -3.8923242675e+03 4.5584279757e+03 0.0000000000e+00 0.0000e+00 1.0000e+00
       13  1    1    2    0    0 -1.1046254023e+03 -2.0997333467e+03 +5.3179274939e+02 2.4314359821e+03 0.0000000000e+00 0.0000e+00 -1.0000e+00
<mgrwt>
<rscale>  0 0.61290314E+04</rscale>
<asrwt>0</asrwt>
<pdfrwt beam="1">  1        2 0.27917942E+00 0.61290314E+04</pdfrwt>
<pdfrwt beam="2">  1       -2 0.79618426E+00 0.61290314E+04</pdfrwt>
<totfact> 0.69435455E-04</totfact>
</mgrwt>
<rwgt>
<wgt id='morphing_basis_vector_1'> +1.7211534e-06 </wgt>
<wgt id='morphing_basis_vector_2'> +1.1782503e-06 </wgt>
<wgt id='morphing_basis_vector_3'> +1.9016309e-06 </wgt>
<wgt id='morphing_basis_vector_4'> +1.3661977e-06 </wgt>
<wgt id='morphing_basis_vector_5'> +2.1896880e-06 </wgt>
</rwgt>
</event>
<event>
 4      1 +9.0096000e-12 6.43456200e+03 7.81860800e-03 7.21573300e-02
        2 -1    0    0  501    0 +0.0000000000e+00 +0.0000000000e+00 +3.2652529366e+03 3.2652529366e+03 0.0000000000e+00 0.0000e+00 -1.0000e+00
       -2 -1    0    0    0  501 -0.0000000000e+00 -0.0000000000e+00 -3.1700136198e+03 3.1700136198e+03 0.0000000000e+00 0.0000e+00 1.0000e+00
      -13  1    1    2    0    0 -1.8538360776e+02 +1.4048134071e+03 -2.8411268252e+03 3.1748810100e+03 0.0000000000e+00 0.0000e+00 1.0000e+00
       13  1    1    2    0    0 +1.8538360776e+02 -1.4048134071e+03 +2.9363661420e+03 3.2603855463e+03 0.0000000000e+00 0.0000e+00 -1.0000e+00
<mgrwt>
<rscale>  0 0.64345618E+04</rscale>
<asrwt>0</asrwt>
<pdfrwt beam="1">  1        2 0.50234661E+00 0.64345618E+04</pdfrwt>
<pdfrwt beam="2">  1       -2 0.48769440E+00 0.64345618E+04</pdfrwt>
<totfact> 0.11970781E-03</totfact>
</mgrwt>
<rwgt>
<wgt id='morphing_basis_vector_1'> +2.0859889e-06 </wgt>
<wgt id='morphing_basis_vector_2'> +1.4192706e-06 </wgt>
<wgt id='morphing_basis_vector_3'> +2.3034609e-06 </wgt>
<wgt id='morphing_basis_vector_4'> +1.6689523e-06 </wgt>
<wgt id='morphing_basis_vector_5'> +2.6618234e-06 </wgt>
</rwgt>
</event>
<event>
 4      1 +9.0096000e-12 5.72393900e+03 7.81860800e-03 7.29303100e-02
        2 -1    0    0  501    0 +0.0000000000e+00 +0.0000000000e+00 +2.7811599932e+03 2.7811599932e+03 0.0000000000e+00 0.0000e+00 1.0000e+00
       -2 -1    0    0    0  501 -0.0000000000e+00 -0.0000000000e+00 -2.9451269225e+03 2.9451269225e+03 0.0000000000e+00 0.0000e+00 -1.0000e+00
      -13  1    1    2    0    0 +2.4063666842e+03 +1.1616894650e+03 -1.1074630424e+03 2.8925071170e+03 0.0000000000e+00 0.0000e+00 -1.0000e+00
       13  1    1    2    0    0 -2.4063666842e+03 -1.1616894650e+03 +9.4349611303e+02 2.8337797986e+03 0.0000000000e+00 0.0000e+00 1.0000e+00
<mgrwt>
<rscale>  0 0.57239389E+04</rscale>
<asrwt>0</asrwt>
<pdfrwt beam="1">  1        2 0.42787077E+00 0.57239389E+04</pdfrwt>
<pdfrwt beam="2">  1       -2 0.45309645E+00 0.57239389E+04</pdfrwt>
<totfact> 0.46790135E-03</totfact>
</mgrwt>
<rwgt>
<wgt id='morphing_basis_vector_1'> +1.3190817e-06 </wgt>
<wgt id='morphing_basis_vector_2'> +9.2283204e-07 </wgt>
<wgt id='morphing_basis_vector_3'> +1.4612371e-06 </wgt>
<wgt id='morphing_basis_vector_4'> +1.0194819e-06 </wgt>
<wgt id='morphing_basis_vector_5'> +1.6630538e-06 </wgt>
</rwgt>
</event>
<event>
 4      1 +9.0096000e-12 6.65227900e+03 7.81860800e-03 7.19406000e-02
        2 -1    0    0  501    0 +0.0000000000e+00 +0.0000000000e+00 +4.4256659376e+03 4.4256659376e+03 0.0000000000e+00 0.0000e+00 1.0000e+00
       -2 -1    0    0    0  501 -0.0000000000e+00 -0.0000000000e+00 -2.4997829650e+03 2.4997829650e+03 0.0000000000e+00 0.0000e+00 -1.0000e+00
      -13  1    1    2    0    0 +1.0239941862e+03 +2.0975665058e+03 -1.5039312144e+03 2.7767172051e+03 0.0000000000e+00 0.0000e+00 -1.0000e+00
       13  1    1    2    0    0 -1.0239941862e+03 -2.0975665058e+03 +3.4298141871e+03 4.1487316975e+03 0.0000000000e+00 0.0000e+00 1.0000e+00
<mgrwt>
<rscale>  0 0.66522791E+04</rscale>
<asrwt>0</asrwt>
<pdfrwt beam="1">  1        2 0.68087168E+00 0.66522791E+04</pdfrwt>
<pdfrwt beam="2">  1       -2 0.38458199E+00 0.66522791E+04</pdfrwt>
<totfact> 0.66770394E-04</totfact>
</mgrwt>
<rwgt>
<wgt id='morphing_basis_vector_1'> +2.3848129e-06 </wgt>
<wgt id='morphing_basis_vector_2'> +1.6283744e-06 </wgt>
<wgt id='morphing_basis_vector_3'> +2.6353766e-06 </wgt>
<wgt id='morphing_basis_vector_4'> +1.9017539e-06 </wgt>
<wgt id='morphing_basis_vector_5'> +3.0410869e-06 </wgt>
</rwgt>
</event>
<event>
 4      1 +9.0096000e-12 5.72073300e+03 7.81860800e-03 7.29340500e-02
        2 -1    0    0  501    0 +0.0000000000e+00 +0.0000000000e+00 +3.1775255913e+03 3.1775255913e+03 0.0000000000e+00 0.0000e+00 -1.0000e+00
       -2 -1    0    0    0  501 -0.0000000000e+00 -0.0000000000e+00 -2.5748640247e+03 2.5748640247e+03 0.0000000000e+00 0.0000e+00 1.0000e+00
      -13  1    1    2    0    0 +2.6396355720e+03 -9.3428588638e+02 +8.8862637897e+02 2.9377241041e+03 0.0000000000e+00 0.0000e+00 1.0000e+00
       13  1    1    2    0    0 -2.6396355720e+03 +9.3428588638e+02 -2.8596481232e+02 2.8146655120e+03 0.0000000000e+00 0.0000e+00 -1.0000e+00
<mgrwt>
<rscale>  0 0.57207329E+04</rscale>
<asrwt>0</asrwt>
<pdfrwt beam="1">  1        2 0.48885009E+00 0.57207329E+04</pdfrwt>
<pdfrwt beam="2">  1       -2 0.39613292E+00 0.57207329E+04</pdfrwt>
<totfact> 0.62343423E-03</totfact>
</mgrwt>
<rwgt>
<wgt id='morphing_basis_vector_1'> +1.4020111e-06 </wgt>
<wgt id='morphing_basis_vector_2'> +1.1728557e-06 </wgt>
<wgt id='morphing_basis_vector_3'> +1.5979905e-06 </wgt>
<wgt id='morphing_basis_vector_4'> +8.3366161e-07 </wgt>
<wgt id='morphing_basis_vector_5'> +1.6438964e-06 </wgt>
</rwgt>
</event>
<event>
 4      1 +9.0096000e-12 5.87343900e+03 7.81860800e-03 7.27585300e-02
        2 -1    0    0  501    0 +0.0000000000e+00 +0.0000000000e+00 +2.5677862545e+03 2.5677862545e+03 0.0000000000e+00 0.0000e+00 1.0000e+00
       -2 -1    0    0    0  501 -0.0000000000e+00 -0.0000000000e+00 -3.3586601343e+03 3.3586601343e+03 0.0000000000e+00 0.0000e+00 -1.0000e+00
      -13  1    1    2    0    0 -5.7726123587e+02 -1.6825588072e+02 +2.5050105970e+03 2.5761635559e+03 0.0000000000e+00 0.0000e+00 1.0000e+00
       13  1    1    2    0    0 +5.7726123587e+02 +1.6825588072e+02 -3.2958844767e+03 3.3502828328e+03 0.0000000000e+00 0.0000e+00 -1.0000e+00
<mgrwt>
<rscale>  0 0.58734390E+04</rscale>
<asrwt>0</asrwt>
<pdfrwt beam="1">  1        2 0.39504404E+00 0.58734390E+04</pdfrwt>
<pdfrwt beam="2">  1       -2 0.51671695E+00 0.58734390E+04</pdfrwt>
<totfact> 0.21248683E-03</totfact>
</mgrwt>
<rwgt>
<wgt id='morphing_basis_vector_1'> +1.9862376e-06 </wgt>
<wgt id='morphing_basis_vector_2'> +2.5617428e-06 </wgt>
<wgt id='morphing_basis_vector_3'> +2.4754180e-06 </wgt>
<wgt id='morphing_basis_vector_4'> +9.5611315e-09 </wgt>
<wgt id='morphing_basis_vector_5'> +1.7499182e-06 </wgt>
</rwgt>
</event>
<event>
 4      1 +9.0096000e-12 6.04660200e+03 7.81860800e-03 7.25659600e-02
        2 -1    0    0  501    0 +0.0000000000e+00 +0.0000000000e+00 +4.5276129860e+03 4.5276129860e+03 0.0000000000e+00 0.0000e+00 -1.0000e+00
       -2 -1    0    0    0  501 -0.0000000000e+00 -0.0000000000e+00 -2.0188007785e+03 2.0188007785e+03 0.0000000000e+00 0.0000e+00 1.0000e+00
      -13  1    1    2    0    0 +8.1719468520e+00 -2.9497789294e+03 +5.3699693333e+02 2.9982708716e+03 0.0000000000e+00 0.0000e+00 1.0000e+00
       13  1    1    2    0    0 -8.1719468520e+00 +2.9497789294e+03 +1.9718152742e+03 3.5481428929e+03 0.0000000000e+00 0.0000e+00 -1.0000e+00
<mgrwt>
<rscale>  0 0.60466019E+04</rscale>
<asrwt>0</asrwt>
<pdfrwt beam="1">  1        2 0.69655584E+00 0.60466019E+04</pdfrwt>
<pdfrwt beam="2">  1       -2 0.31058473E+00 0.60466019E+04</pdfrwt>
<totfact> 0.16672186E-03</totfact>
</mgrwt>
<rwgt>
<wgt id='morphing_basis_vector_1'> +1.6533723e-06 </wgt>
<wgt id='morphing_basis_vector_2'> +1.1829981e-06 </wgt>
<wgt id='morphing_basis_vector_3'> +1.8385650e-06 </wgt>
<wgt id='morphing_basis_vector_4'> +1.2453247e-06 </wgt>
<wgt id='morphing_basis_vector_5'> +2.0699098e-06 </wgt>
</rwgt>
</event>
<event>
 4      1 +9.0096000e-12 5.60666100e+03 7.81860800e-03 7.30688500e-02
        2 -1    0    0  501    0 +0.0000000000e+00 +0.0000000000e+00 +4.1517362331e+03 4.1517362331e+03 0.0000000000e+00 0.0000e+00 1.0000e+00
       -2 -1    0    0    0  501 -0.0000000000e+00 -0.0000000000e+00 -1.8928618724e+03 1.8928618724e+03 0.0000000000e+00 0.0000e+00 -1.0000e+00
      -13  1    1    2    0    0 -1.8557814573e+03 -1.9377912649e+03 +2.5377324633e+02 2.6950622746e+03 0.0000000000e+00 0.0000e+00 -1.0000e+00
       13  1    1    2    0    0 +1.8557814573e+03 +1.9377912649e+03 +2.0051011144e+03 3.3495358309e+03 0.0000000000e+00 0.0000e+00 1.0000e+00
<mgrwt>
<rscale>  0 0.56066615E+04</rscale>
<asrwt>0</asrwt>
<pdfrwt beam="1">  1        2 0.63872865E+00 0.56066615E+04</pdfrwt>
<pdfrwt beam="2">  1       -2 0.29120952E+00 0.56066615E+04</pdfrwt>
<totfact> 0.53904386E-03</totfact>
</mgrwt>
<rwgt>
<wgt id='morphing_basis_vector_1'> +1.2182252e-06 </wgt>
<wgt id='morphing_basis_vector_2'> +8.6047512e-07 </wgt>
<wgt id='morphing_basis_vector_3'> +1.3511752e-06 </wgt>
<wgt id='morphing_basis_vector_4'> +9.3033902e-07 </wgt>
<wgt id='morphing_basis_vector_5'> +1.5299098e-06 </wgt>
</rwgt>
</event>
<event>
 4      1 +9.0096000e-12 6.15223600e+03 7.81860800e-03 7.24516700e-02
        2 -1    0    0  501    0 +0.0000000000e+00 +0.0000000000e+00 +1.8960443411e+03 1.8960443411e+03 0.0000000000e+00 0.0000e+00 1.0000e+00
       -2 -1    0    0    0  501 -0.0000000000e+00 -0.0000000000e+00 -4.9906546450e+03 4.9906546450e+03 0.0000000000e+00 0.0000e+00 -1.0000e+00
      -13  1    1    2    0    0 +2.1990478946e+03 -1.4257723321e+03 -3.3501224297e+03 4.2534643151e+03 0.0000000000e+00 0.0000e+00 -1.0000e+00
       13  1    1    2    0    0 -2.1990478946e+03 +1.4257723321e+03 +2.5551212579e+02 2.6332346709e+03 0.0000000000e+00 0.0000e+00 1.0000e+00
<mgrwt>
<rscale>  0 0.61522362E+04</rscale>
<asrwt>0</asrwt>
<pdfrwt beam="1">  1        2 0.29169914E+00 0.61522362E+04</pdfrwt>
<pdfrwt beam="2">  1       -2 0.76779301E+00 0.61522362E+04</pdfrwt>
<totfact> 0.62863720E-04</totfact>
</mgrwt>
<rwgt>
<wgt id='morphing_basis_vector_1'> +1.7506240e-06 </wgt>
<wgt id='morphing_basis_vector_2'> +1.2059075e-06 </wgt>
<wgt id='morphing_basis_vector_3'> +1.9360052e-06 </wgt>
<wgt id='morphing_basis_vector_4'> +1.3799555e-06 </wgt>
<wgt id='morphing_basis_vector_5'> +2.2225115e-06 </wgt>
</rwgt>
</event>
<event>
 4      1 +9.0096000e-12 6.19391300e+03 7.81860800e-03 7.24072300e-02
        2 -1    0    0  501    0 +0.0000000000e+00 +0.0000000000e+00 +3.0109603569e+03 3.0109603569e+03 0.0000000000e+00 0.0000e+00 1.0000e+00
       -2 -1    0    0    0  501 -0.0000000000e+00 -0.0000000000e+00 -3.1854087406e+03 3.1854087406e+03 0.0000000000e+00 0.0000e+00 -1.0000e+00
      -13  1    1    2    0    0 -6.2244182753e+02 -8.7741455542e+01 +2.9464702015e+03 3.0127759691e+03 0.0000000000e+00 0.0000e+00 1.0000e+00
       13  1    1    2    0    0 +6.2244182753e+02 +8.7741455542e+01 -3.1209185852e+03 3.1835931283e+03 0.0000000000e+00 0.0000e+00 -1.0000e+00
<mgrwt>
<rscale>  0 0.61939130E+04</rscale>
<asrwt>0</asrwt>
<pdfrwt beam="1">  1        2 0.46322467E+00 0.61939130E+04</pdfrwt>
<pdfrwt beam="2">  1       -2 0.49006289E+00 0.61939130E+04</pdfrwt>
<totfact> 0.17335643E-03</totfact>
</mgrwt>
<rwgt>
<wgt id='morphing_basis_vector_1'> +2.4553977e-06 </wgt>
<wgt id='morphing_basis_vector_2'> +3.1670431e-06 </wgt>
<wgt id='morphing_basis_vector_3'> +3.0626250e-06 </wgt>
<wgt id='morphing_basis_vector_4'> +1.1705272e-08 </wgt>
<wgt id='morphing_basis_vector_5'> +2.1651518e-06 </wgt>
</rwgt>
</event>
<event>
 4      1 +9.0096000e-12 5.67229400e+03 7.81860800e-03 7.29909000e-02
        2 -1    0    0  501    0 +0.0000000000e+00 +0.0000000000e+00 +4.4350620185e+03 4.4350620185e+03 0.0000000000e+00 0.0000e+00 -1.0000e+00
       -2 -1    0    0    0  501 -0.0000000000e+00 -0.0000000000e+00 -1.8136678183e+03 1.8136678183e+03 0.0000000000e+00 0.0000e+00 1.0000e+00
      -13  1    1    2    0    0 +1.8573412101e+03 -1.8572905654e+02 -1.0416016562e+03 2.1375560024e+03 0.0000000000e+00 0.0000e+00 1.0000e+00
       13  1    1    2    0    0 -1.8573412101e+03 +1.8572905654e+02 +3.6629958564e+03 4.1111738345e+03 0.0000000000e+00 0.0000e+00 -1.0000e+00
<mgrwt>
<rscale>  0 0.56722938E+04</rscale>
<asrwt>0</asrwt>
<pdfrwt beam="1">  1        2 0.68231723E+00 0.56722938E+04</pdfrwt>
<pdfrwt beam="2">  1       -2 0.27902582E+00 0.56722938E+04</pdfrwt>
<totfact> 0.34870186E-03</totfact>
</mgrwt>
<rwgt>
<wgt id='morphing_basis_vector_1'> +1.2620201e-06 </wgt>
<wgt id='morphing_basis_vector_2'> +8.6002975e-07 </wgt>
<wgt id='morphing_basis_vector_3'> +1.3925671e-06 </wgt>
<wgt id='morphing_basis_vector_4'> +1.0049206e-06 </wgt>
<wgt id='morphing_basis_vector_5'> +1.6055329e-06 </wgt>
</rwgt>
</event>
<event>
 4      1 +9.0096000e-12 5.82308900e+03 7.81860800e-03 7.28158000e-02
        2 -1    0    0  501    0 +0.0000000000e+00 +0.0000000000e+00 +3.8277374818e+03 3.8277374818e+03 0.0000000000e+00 0.0000e+00 -1.0000e+00
       -2 -1    0    0    0  501 -0.0000000000e+00 -0.0000000000e+00 -2.2146481202e+03 2.2146481202e+03 0.0000000000e+00 0.0000e+00 1.0000e+00
      -13  1    1    2    0    0 -1.9023026128e+03 -2.0567574112e+03 -1.5819774671e+01 2.8016524668e+03 0.0000000000e+00 0.0000e+00 1.0000e+00
       13  1    1    2    0    0 +1.9023026128e+03 +2.0567574112e+03 +1.6289091363e+03 3.2407331352e+03 0.0000000000e+00 0.0000e+00 -1.0000e+00
<mgrwt>
<rscale>  0 0.58230891E+04</rscale>
<asrwt>0</asrwt>
<pdfrwt beam="1">  1        2 0.58888269E+00 0.58230891E+04</pdfrwt>
<pdfrwt beam="2">  1       -2 0.34071509E+00 0.58230891E+04</pdfrwt>
<totfact> 0.46843773E-03</totfact>
</mgrwt>
<rwgt>
<wgt id='morphing_basis_vector_1'> +1.4182462e-06 </wgt>
<wgt id='morphing_basis_vector_2'> +1.0048357e-06 </wgt>
<wgt id='morphing_basis_vector_3'> +1.5742785e-06 </wgt>
<wgt id='morphing_basis_vector_4'> +1.0801677e-06 </wgt>
<wgt id='morphing_basis_vector_5'> +1.7805951e-06 </wgt>
</rwgt>
</event>
<event>
 4      1 +9.0096000e-12 6.21076400e+03 7.81860800e-03 7.23893600e-02
        2 -1    0    0  501    0 +0.0000000000e+00 +0.0000000000e+00 +5.0987805746e+03 5.0987805746e+03 0.0000000000e+00 0.0000e+00 -1.0000e+00
       -2 -1    0    0    0  501 -0.0000000000e+00 -0.0000000000e+00 -1.8913142732e+03 1.8913142732e+03 0.0000000000e+00 0.0000e+00 1.0000e+00
      -13  1    1    2    0    0 +1.1703185617e+03 -2.5844788595e+03 +1.8267390804e+02 2.8429819323e+03 0.0000000000e+00 0.0000e+00 1.0000e+00
       13  1    1    2    0    0 -1.1703185617e+03 +2.5844788595e+03 +3.0247923934e+03 4.1471129155e+03 0.0000000000e+00 0.0000e+00 -1.0000e+00
<mgrwt>
<rscale>  0 0.62107637E+04</rscale>
<asrwt>0</asrwt>
<pdfrwt beam="1">  1        2 0.78442778E+00 0.62107637E+04</pdfrwt>
<pdfrwt beam="2">  1       -2 0.29097143E+00 0.62107637E+04</pdfrwt>
<totfact> 0.45201933E-04</totfact>
</mgrwt>
<rwgt>
<wgt id='morphing_basis_vector_1'> +1.8238092e-06 </wgt>
<wgt id='morphing_basis_vector_2'> +1.2693202e-06 </wgt>
<wgt id='morphing_basis_vector_3'> +2.0201397e-06 </wgt>
<wgt id='morphing_basis_vector_4'> +1.4210009e-06 </wgt>
<wgt id='morphing_basis_vector_5'> +2.3074424e-06 </wgt>
</rwgt>
</event>
<event>
 4      1 +9.0096000e-12 5.64306200e+03 7.81860800e-03 7.30254800e-02
        2 -1    0    0  501    0 +0.0000000000e+00 +0.0000000000e+00 +3.0458016887e+03 3.0458016887e+03 0.0000000000e+00 0.0000e+00 1.0000e+00
       -2 -1    0    0    0  501 -0.0000000000e+00 -0.0000000000e+00 -2.6137738063e+03 2.6137738063e+03 0.0000000000e+00 0.0000e+00 -1.0000e+00
      -13  1    1    2    0    0 +1.5126253660e+03 +5.6541258591e+02 -2.1044789238e+03 2.6526512080e+03 0.0000000000e+00 0.0000e+00 -1.0000e+00
       13  1    1    2    0    0 -1.5126253660e+03 -5.6541258591e+02 +2.5365068062e+03 3.0069242871e+03 0.0000000000e+00 0.0000e+00 1.0000e+00
<mgrwt>
<rscale>  0 0.56430618E+04</rscale>
<asrwt>0</asrwt>
<pdfrwt beam="1">  1        2 0.46858488E+00 0.56430618E+04</pdfrwt>
<pdfrwt beam="2">  1       -2 0.40211904E+00 0.56430618E+04</pdfrwt>
<totfact> 0.70175106E-03</totfact>
</mgrwt>
<rwgt>
<wgt id='morphing_basis_vector_1'> +1.2357630e-06 </wgt>
<wgt id='morphing_basis_vector_2'> +8.4096401e-07 </wgt>
<wgt id='morphing_basis_vector_3'> +1.3632586e-06 </wgt>
<wgt id='morphing_basis_vector_4'> +9.8540115e-07 </wgt>
<wgt id='morphing_basis_vector_5'> +1.5727024e-06 </wgt>
</rwgt>
</event>
<event>
 4      1 +9.0096000e-12 5.67099800e+03 7.81860800e-03 7.29924300e-02
        2 -1    0    0  501    0 +0.0000000000e+00 +0.0000000000e+00 +2.8986626411e+03 2.8986626411e+03 0.0000000000e+00 0.0000e+00 1.0000e+00
       -2 -1    0    0    0  501 -0.0000000000e+00 -0.0000000000e+00 -2.7737115578e+03 2.7737115578e+03 0.0000000000e+00 0.0000e+00 -1.0000e+00
      -13  1    1    2    0    0 -1.6108810466e+03 +6.3769030068e+02 -2.1827223164e+03 2.7867298714e+03 0.0000000000e+00 0.0000e+00 -1.0000e+00
       13  1    1    2    0    0 +1.6108810466e+03 -6.3769030068e+02 +2.3076733997e+03 2.8856443276e+03 0.0000000000e+00 0.0000e+00 1.0000e+00
<mgrwt>
<rscale>  0 0.56709978E+04</rscale>
<asrwt>0</asrwt>
<pdfrwt beam="1">  1        2 0.44594810E+00 0.56709978E+04</pdfrwt>
<pdfrwt beam="2">  1       -2 0.42672486E+00 0.56709978E+04</pdfrwt>
<totfact> 0.59978870E-03</totfact>
</mgrwt>
<rwgt>
<wgt id='morphing_basis_vector_1'> +1.2605445e-06 </wgt>
<wgt id='morphing_basis_vector_2'> +8.5828891e-07 </wgt>
<wgt id='morphing_basis_vector_3'> +1.3907642e-06 </wgt>
<wgt id='morphing_basis_vector_4'> +1.0046961e-06 </wgt>
<wgt id='morphing_basis_vector_5'> +1.6041210e-06 </wgt>
</rwgt>
</event>
<event>
 4      1 +9.0096000e-12 5.61319900e+03 7.81860800e-03 7.30610400e-02
        2 -1    0    0  501    0 +0.0000000000e+00 +0.0000000000e+00 +3.7551210059e+03 3.7551210059e+03 0.0000000000e+00 0.0000e+00 1.0000e+00
       -2 -1    0    0    0  501 -0.0000000000e+00 -0.0000000000e+00 -2.0976692991e+03 2.0976692991e+03 0.0000000000e+00 0.0000e+00 -1.0000e+00
      -13  1    1    2    0    0 -4.4023377337e+02 +6.6922826097e+02 -1.9759434142e+03 2.1321408529e+03 0.0000000000e+00 0.0000e+00 -1.0000e+00
       13  1    1    2    0    0 +4.4023377337e+02 -6.6922826097e+02 +3.6333951210e+03 3.7206494521e+03 0.0000000000e+00 0.0000e+00 1.0000e+00
<mgrwt>
<rscale>  0 0.56131995E+04</rscale>
<asrwt>0</asrwt>
<pdfrwt beam="1">  1        2 0.57771092E+00 0.56131995E+04</pdfrwt>
<pdfrwt beam="2">  1       -2 0.32271835E+00 0.56131995E+04</pdfrwt>
<totfact> 0.71432703E-03</totfact>
</mgrwt>
<rwgt>
<wgt id='morphing_basis_vector_1'> +1.2094180e-06 </wgt>
<wgt id='morphing_basis_vector_2'> +8.2196951e-07 </wgt>
<wgt id='morphing_basis_vector_3'> +1.3338844e-06 </wgt>
<wgt id='morphing_basis_vector_4'> +9.6564154e-07 </wgt>
<wgt id='morphing_basis_vector_5'> +1.5396765e-06 </wgt>
</rwgt>
</event>
<event>
 4      1 +9.0096000e-12 5.83246500e+03 7.81860800e-03 7.28050900e-02
        2 -1    0    0  501    0 +0.0000000000e+00 +0.0000000000e+00 +3.4487333310e+03 3.4487333310e+03 0.0000000000e+00 0.0000e+00 -1.0000e+00
       -2 -1    0    0    0  501 -0.0000000000e+00 -0.0000000000e+00 -2.4659524620e+03 2.4659524620e+03 0.0000000000e+00 0.0000e+00 1.0000e+00
      -13  1    1    2    0    0 -1.6215747263e+03 +2.3540457015e+03 -9.4136855404e+01 2.8600520109e+03 0.0000000000e+00 0.0000e+00 1.0000e+00
       13  1    1    2    0    0 +1.6215747263e+03 -2.3540457015e+03 +1.0769177245e+03 3.0546337821e+03 0.0000000000e+00 0.0000e+00 -1.0000e+00
<mgrwt>
<rscale>  0 0.58324652E+04</rscale>
<asrwt>0</asrwt>
<pdfrwt beam="1">  1        2 0.53057436E+00 0.58324652E+04</pdfrwt>
<pdfrwt beam="2">  1       -2 0.37937730E+00 0.58324652E+04</pdfrwt>
<totfact> 0.51295997E-03</totfact>
</mgrwt>
<rwgt>
<wgt id='morphing_basis_vector_1'> +1.4337860e-06 </wgt>
<wgt id='morphing_basis_vector_2'> +1.0301191e-06 </wgt>
<wgt id='morphing_basis_vector_3'> +1.5948925e-06 </wgt>
<wgt id='morphing_basis_vector_4'> +1.0734621e-06 </wgt>
<wgt id='morphing_basis_vector_5'> +1.7909664e-06 </wgt>
</rwgt>
</event>
<event>
 4      1 +9.0096000e-12 5.91731200e+03 7.81860800e-03 7.27091100e-02
        2 -1    0    0  501    0 +0.0000000000e+00 +0.0000000000e+00 +2.6833631173e+03 2.6833631173e+03 0.0000000000e+00 0.0000e+00 -1.0000e+00
       -2 -1    0    0    0  501 -0.0000000000e+00 -0.0000000000e+00 -3.2621918399e+03 3.2621918399e+03 0.0000000000e+00 0.0000e+00 1.0000e+00
      -13  1    1    2    0    0 +8.8399984288e+02 +1.9656506965e+03 -2.3260092741e+03 3.1710499091e+03 0.0000000000e+00 0.0000e+00 1.0000e+00
       13  1    1    2    0    0 -8.8399984288e+02 -1.9656506965e+03 +1.7471805514e+03 2.7745050482e+03 0.0000000000e+00 0.0000e+00 -1.0000e+00
<mgrwt>
<rscale>  0 0.59173120E+04</rscale>
<asrwt>0</asrwt>
<pdfrwt beam="1">  1        2 0.41282510E+00 0.59173120E+04</pdfrwt>
<pdfrwt beam="2">  1       -2 0.50187566E+00 0.59173120E+04</pdfrwt>
<totfact> 0.23262264E-03</totfact>
</mgrwt>
<rwgt>
<wgt id='morphing_basis_vector_1'> +1.4949084e-06 </wgt>
<wgt id='morphing_basis_vector_2'> +1.0210499e-06 </wgt>
<wgt id='morphing_basis_vector_3'> +1.6506689e-06 </wgt>
<wgt id='morphing_basis_vector_4'> +1.1886430e-06 </wgt>
<wgt id='morphing_basis_vector_5'> +1.9020334e-06 </wgt>
</rwgt>
</event>
<event>
 4      1 +9.0096000e-12 5.93187500e+03 7.81860800e-03 7.26928000e-02
        2 -1    0    0  501    0 +0.0000000000e+00 +0.0000000000e+00 +3.9878761396e+03 3.9878761396e+03 0.0000000000e+00 0.0000e+00 -1.0000e+00
       -2 -1    0    0    0  501 -0.0000000000e+00 -0.0000000000e+00 -2.2058823800e+03 2.2058823800e+03 0.0000000000e+00 0.0000e+00 1.0000e+00
      -13  1    1    2    0    0 +2.8671422914e+03 -6.8973738689e+02 +5.5991267366e+02 3.0016236913e+03 0.0000000000e+00 0.0000e+00 1.0000e+00
       13  1    1    2    0    0 -2.8671422914e+03 +6.8973738689e+02 +1.2220810859e+03 3.1921348284e+03 0.0000000000e+00 0.0000e+00 -1.0000e+00
<mgrwt>
<rscale>  0 0.59318752E+04</rscale>
<asrwt>0</asrwt>
<pdfrwt beam="1">  1        2 0.61351941E+00 0.59318752E+04</pdfrwt>
<pdfrwt beam="2">  1       -2 0.33936652E+00 0.59318752E+04</pdfrwt>
<totfact> 0.34949131E-03</totfact>
</mgrwt>
<rwgt>
<wgt id='morphing_basis_vector_1'> +1.5449314e-06 </wgt>
<wgt id='morphing_basis_vector_2'> +1.1347054e-06 </wgt>
<wgt id='morphing_basis_vector_3'> +1.7245757e-06 </wgt>
<wgt id='morphing_basis_vector_4'> +1.1249461e-06 </wgt>
<wgt id='morphing_basis_vector_5'> +1.9145230e-06 </wgt>
</rwgt>
</event>
<event>
 4      1 +9.0096000e-12 5.63846700e+03 7.81860800e-03 7.30309400e-02
        2 -1    0    0  501    0 +0.0000000000e+00 +0.0000000000e+00 +3.3202163132e+03 3.3202163132e+03 0.0000000000e+00 0.0000e+00 1.0000e+00
       -2 -1    0    0    0  501 -0.0000000000e+00 -0.0000000000e+00 -2.3938432192e+03 2.3938432192e+03 0.0000000000e+00 0.0000e+00 -1.0000e+00
      -13  1    1    2    0    0 +3.1010725058e+02 -1.6130246822e+03 -1.8588334053e+03 2.4805799243e+03 0.0000000000e+00 0.0000e+00 -1.0000e+00
       13  1    1    2    0    0 -3.1010725058e+02 +1.6130246822e+03 +2.7852064993e+03 3.2334796081e+03 0.0000000000e+00 0.0000e+00 1.0000e+00
<mgrwt>
<rscale>  0 0.56384669E+04</rscale>
<asrwt>0</asrwt>
<pdfrwt beam="1">  1        2 0.51080251E+00 0.56384669E+04</pdfrwt>
<pdfrwt beam="2">  1       -2 0.36828357E+00 0.56384669E+04</pdfrwt>
<totfact> 0.75729201E-03</totfact>
</mgrwt>
<rwgt>
<wgt id='morphing_basis_vector_1'> +1.2317982e-06 </wgt>
<wgt id='morphing_basis_vector_2'> +8.3836270e-07 </wgt>
<wgt id='morphing_basis_vector_3'> +1.3588977e-06 </wgt>
<wgt id='morphing_basis_vector_4'> +9.8209202e-07 </wgt>
<wgt id='morphing_basis_vector_5'> +1.5675656e-06 </wgt>
</rwgt>
</event>
<event>
 4      1 +9.0096000e-12 6.13384400e+03 7.81860800e-03 7.24714000e-02
        2 -1    0    0  501    0 +0.0000000000e+00 +0.0000000000e+00 +1.8626447867e+03 1.8626447867e+03 0.0000000000e+00 0.0000e+00 -1.0000e+00
       -2 -1    0    0    0  501 -0.0000000000e+00 -0.0000000000e+00 -5.0498139127e+03 5.0498139127e+03 0.0000000000e+00 0.0000e+00 1.0000e+00
      -13  1    1    2    0    0 +1.4893566315e+02 -2.8512115560e+03 -2.8557648650e+03 4.0381904528e+03 0.0000000000e+00 0.0000e+00 1.0000e+00
       13  1    1    2    0    0 -1.4893566315e+02 +2.8512115560e+03 -3.3140426103e+02 2.8742682466e+03 0.0000000000e+00 0.0000e+00 -1.0000e+00
<mgrwt>
<rscale>  0 0.61338437E+04</rscale>
<asrwt>0</asrwt>
<pdfrwt beam="1">  1        2 0.28656073E+00 0.61338437E+04</pdfrwt>
<pdfrwt beam="2">  1       -2 0.77689445E+00 0.61338437E+04</pdfrwt>
<totfact> 0.66985142E-04</totfact>
</mgrwt>
<rwgt>
<wgt id='morphing_basis_vector_1'> +1.7378896e-06 </wgt>
<wgt id='morphing_basis_vector_2'> +1.2152240e-06 </wgt>
<wgt id='morphing_basis_vector_3'> +1.9261308e-06 </wgt>
<wgt id='morphing_basis_vector_4'> +1.3462433e-06 </wgt>
<wgt id='morphing_basis_vector_5'> +2.1945465e-06 </wgt>
</rwgt>
</event>
<event>
 4      1 +9.0096000e-12 6.35821500e+03 7.81860800e-03 7.22353900e-02
        2 -1    0    0  501    0 +0.0000000000e+00 +0.0000000000e+00 +4.6693014227e+03 4.6693014227e+03 0.0000000000e+00 0.0000e+00 1.0000e+00
       -2 -1    0    0    0  501 -0.0000000000e+00 -0.0000000000e+00 -2.1645048231e+03 2.1645048231e+03 0.0000000000e+00 0.0000e+00 -1.0000e+00
      -13  1    1    2    0    0 +2.1121424100e+03 +2.3669381201e+03 +1.0290472561e+03 3.3350382126e+03 0.0000000000e+00 0.0000e+00 -1.0000e+00
       13  1    1    2    0    0 -2.1121424100e+03 -2.3669381201e+03 +1.4757493436e+03 3.4987680331e+03 0.0000000000e+00 0.0000e+00 1.0000e+00
<mgrwt>
<rscale>  0 0.63582153E+04</rscale>
<asrwt>0</asrwt>
<pdfrwt beam="1">  1        2 0.71835406E+00 0.63582153E+04</pdfrwt>
<pdfrwt beam="2">  1       -2 0.33300074E+00 0.63582153E+04</pdfrwt>
<totfact> 0.81230983E-04</totfact>
</mgrwt>
<rwgt>
<wgt id='morphing_basis_vector_1'> +2.0463729e-06 </wgt>
<wgt id='morphing_basis_vector_2'> +1.5217465e-06 </wgt>
<wgt id='morphing_basis_vector_3'> +2.2900266e-06 </wgt>
<wgt id='morphing_basis_vector_4'> +1.4679913e-06 </wgt>
<wgt id='morphing_basis_vector_5'> +2.5271337e-06 </wgt>
</rwgt>
</event>
<event>
 4      1 +9.0096000e-12 6.02032900e+03 7.81860800e-03 7.25947500e-02
        2 -1    0    0  501    0 +0.0000000000e+00 +0.0000000000e+00 +3.0829946600e+03 3.0829946600e+03 0.0000000000e+00 0.0000e+00 1.0000e+00
       -2 -1    0    0    0  501 -0.0000000000e+00 -0.0000000000e+00 -2.9390547528e+03 2.9390547528e+03 0.0000000000e+00 0.0000e+00 -1.0000e+00
      -13  1    1    2    0    0 +1.8306370904e+03 +1.3680859332e+03 -1.8877220874e+03 2.9641838602e+03 0.0000000000e+00 0.0000e+00 -1.0000e+00
       13  1    1    2    0    0 -1.8306370904e+03 -1.3680859332e+03 +2.0316619947e+03 3.0578655527e+03 0.0000000000e+00 0.0000e+00 1.0000e+00
<mgrwt>
<rscale>  0 0.60203289E+04</rscale>
<asrwt>0</asrwt>
<pdfrwt beam="1">  1        2 0.47430687E+00 0.60203289E+04</pdfrwt>
<pdfrwt beam="2">  1       -2 0.45216227E+00 0.60203289E+04</pdfrwt>
<totfact> 0.29703118E-03</totfact>
</mgrwt>
<rwgt>
<wgt id='morphing_basis_vector_1'> +1.6021410e-06 </wgt>
<wgt id='morphing_basis_vector_2'> +1.0958286e-06 </wgt>
<wgt id='morphing_basis_vector_3'> +1.7696751e-06 </wgt>
<wgt id='morphing_basis_vector_4'> +1.2724354e-06 </wgt>
<wgt id='morphing_basis_vector_5'> +2.0381841e-06 </wgt>
</rwgt>
</event>
<event>
 4      1 +9.0096000e-12 5.79909600e+03 7.81860800e-03 7.28432900e-02
        2 -1    0    0  501    0 +0.0000000000e+00 +0.0000000000e+00 +1.5104758372e+03 1.5104758372e+03 0.0000000000e+00 0.0000e+00 1.0000e+00
       -2 -1    0    0    0  501 -0.0000000000e+00 -0.0000000000e+00 -5.5660464193e+03 5.5660464193e+03 0.0000000000e+00 0.0000e+00 -1.0000e+00
      -13  1    1    2    0    0 +8.8957375850e+02 -9.8533464787e+02 -5.1734473448e+03 5.3410470200e+03 0.0000000000e+00 0.0000e+00 -1.0000e+00
       13  1    1    2    0    0 -8.8957375850e+02 +9.8533464787e+02 +1.1178767627e+03 1.7354752366e+03 0.0000000000e+00 0.0000e+00 1.0000e+00
<mgrwt>
<rscale>  0 0.57990960E+04</rscale>
<asrwt>0</asrwt>
<pdfrwt beam="1">  1        2 0.23238090E+00 0.57990960E+04</pdfrwt>
<pdfrwt beam="2">  1       -2 0.85631484E+00 0.57990960E+04</pdfrwt>
<totfact> 0.56045060E-04</totfact>
</mgrwt>
<rwgt>
<wgt id='morphing_basis_vector_1'> +1.3774820e-06 </wgt>
<wgt id='morphing_basis_vector_2'> +9.3676083e-07 </wgt>
<wgt id='morphing_basis_vector_3'> +1.5198009e-06 </wgt>
<wgt id='morphing_basis_vector_4'> +1.1000376e-06 </wgt>
<wgt id='morphing_basis_vector_5'> +1.7545230e-06 </wgt>
</rwgt>
</event>
<event>
 4      1 +9.0096000e-12 5.81539500e+03 7.81860800e-03 7.28246000e-02
        2 -1    0    0  501    0 +0.0000000000e+00 +0.0000000000e+00 +2.4877754279e+03 2.4877754279e+03 0.0000000000e+00 0.0000e+00 -1.0000e+00
       -2 -1    0    0    0  501 -0.0000000000e+00 -0.0000000000e+00 -3.3985004938e+03 3.3985004938e+03 0.0000000000e+00 0.0000e+00 1.0000e+00
      -13  1    1    2    0    0 -1.9016029451e+03 +2.0840467782e+03 +2.5703498146e+02 2.8329157623e+03 0.0000000000e+00 0.0000e+00 1.0000e+00
       13  1    1    2    0    0 +1.9016029451e+03 -2.0840467782e+03 -1.1677600473e+03 3.0533601594e+03 0.0000000000e+00 0.0000e+00 -1.0000e+00
<mgrwt>
<rscale>  0 0.58153954E+04</rscale>
<asrwt>0</asrwt>
<pdfrwt beam="1">  1        2 0.38273469E+00 0.58153954E+04</pdfrwt>
<pdfrwt beam="2">  1       -2 0.52284622E+00 0.58153954E+04</pdfrwt>
<totfact> 0.21465572E-03</totfact>
</mgrwt>
<rwgt>
<wgt id='morphing_basis_vector_1'> +1.5107806e-06 </wgt>
<wgt id='morphing_basis_vector_2'> +1.2930721e-06 </wgt>
<wgt id='morphing_basis_vector_3'> +1.7291074e-06 </wgt>
<wgt id='morphing_basis_vector_4'> +8.6067447e-07 </wgt>
<wgt id='morphing_basis_vector_5'> +1.7532086e-06 </wgt>
</rwgt>
</event>
<event>
 4      1 +9.0096000e-12 5.95092300e+03 7.81860800e-03 7.26715400e-02
        2 -1    0    0  501    0 +0.0000000000e+00 +0.0000000000e+00 +3.1485619782e+03 3.1485619782e+03 0.0000000000e+00 0.0000e+00 -1.0000e+00
       -2 -1    0    0    0  501 -0.0000000000e+00 -0.0000000000e+00 -2.8118772122e+03 2.8118772122e+03 0.0000000000e+00 0.0000e+00 1.0000e+00
      -13  1    1    2    0    0 +1.2087930198e+03 +1.1132417344e+03 -2.3161247623e+03 2.8398805677e+03 0.0000000000e+00 0.0000e+00 1.0000e+00
       13  1    1    2    0    0 -1.2087930198e+03 -1.1132417344e+03 +2.6528095284e+03 3.1205586227e+03 0.0000000000e+00 0.0000e+00 -1.0000e+00
<mgrwt>
<rscale>  0 0.59509225E+04</rscale>
<asrwt>0</asrwt>
<pdfrwt beam="1">  1        2 0.48439415E+00 0.59509225E+04</pdfrwt>
<pdfrwt beam="2">  1       -2 0.43259649E+00 0.59509225E+04</pdfrwt>
<totfact> 0.36786236E-03</totfact>
</mgrwt>
<rwgt>
<wgt id='morphing_basis_vector_1'> +1.5274241e-06 </wgt>
<wgt id='morphing_basis_vector_2'> +1.0395570e-06 </wgt>
<wgt id='morphing_basis_vector_3'> +1.6857803e-06 </wgt>
<wgt id='morphing_basis_vector_4'> +1.2194877e-06 </wgt>
<wgt id='morphing_basis_vector_5'> +1.9460148e-06 </wgt>
</rwgt>
</event>
<event>
 4      1 +9.0096000e-12 5.55961900e+03 7.81860800e-03 7.31254000e-02
        2 -1    0    0  501    0 +0.0000000000e+00 +0.0000000000e+00 +3.8305574155e+03 3.8305574155e+03 0.0000000000e+00 0.0000e+00 1.0000e+00
       -2 -1    0    0    0  501 -0.0000000000e+00 -0.0000000000e+00 -2.0172891828e+03 2.0172891828e+03 0.0000000000e+00 0.0000e+00 -1.0000e+00
      -13  1    1    2    0    0 +2.7865362914e+02 -5.9024158811e+02 -1.9355438879e+03 2.0426363160e+03 0.0000000000e+00 0.0000e+00 -1.0000e+00
       13  1    1    2    0    0 -2.7865362914e+02 +5.9024158811e+02 +3.7488121206e+03 3.8052102823e+03 0.0000000000e+00 0.0000e+00 1.0000e+00
<mgrwt>
<rscale>  0 0.55596194E+04</rscale>
<asrwt>0</asrwt>
<pdfrwt beam="1">  1        2 0.58931652E+00 0.55596194E+04</pdfrwt>
<pdfrwt beam="2">  1       -2 0.31035218E+00 0.55596194E+04</pdfrwt>
<totfact> 0.75486733E-03</totfact>
</mgrwt>
<rwgt>
<wgt id='morphing_basis_vector_1'> +1.1640034e-06 </wgt>
<wgt id='morphing_basis_vector_2'> +7.9102842e-07 </wgt>
<wgt id='morphing_basis_vector_3'> +1.2836685e-06 </wgt>
<wgt id='morphing_basis_vector_4'> +9.2923340e-07 </wgt>
<wgt id='morphing_basis_vector_5'> +1.4815836e-06 </wgt>
</rwgt>
</event>
<event>
 4      1 +9.0096000e-12 5.95579500e+03 7.81860800e-03 7.26661100e-02
        2 -1    0    0  501    0 +0.0000000000e+00 +0.0000000000e+00 +2.7543916414e+03 2.7543916414e+03 0.0000000000e+00 0.0000e+00 -1.0000e+00
       -2 -1    0    0    0  501 -0.0000000000e+00 -0.0000000000e+00 -3.2195403383e+03 3.2195403383e+03 0.0000000000e+00 0.0000e+00 1.0000e+00
      -13  1    1    2    0    0 +2.6700888701e+03 -4.8199933488e+02 -1.4635756477e+03 3.0828155328e+03 0.0000000000e+00 0.0000e+00 1.0000e+00
       13  1    1    2    0    0 -2.6700888701e+03 +4.8199933488e+02 +9.9842695077e+02 2.8911164468e+03 0.0000000000e+00 0.0000e+00 -1.0000e+00
<mgrwt>
<rscale>  0 0.59557955E+04</rscale>
<asrwt>0</asrwt>
<pdfrwt beam="1">  1        2 0.42375256E+00 0.59557955E+04</pdfrwt>
<pdfrwt beam="2">  1       -2 0.49531390E+00 0.59557955E+04</pdfrwt>
<totfact> 0.23485902E-03</totfact>
</mgrwt>
<rwgt>
<wgt id='morphing_basis_vector_1'> +1.5425563e-06 </wgt>
<wgt id='morphing_basis_vector_2'> +1.0727106e-06 </wgt>
<wgt id='morphing_basis_vector_3'> +1.7078528e-06 </wgt>
<wgt id='morphing_basis_vector_4'> +1.2018192e-06 </wgt>
<wgt id='morphing_basis_vector_5'> +1.9505880e-06 </wgt>
</rwgt>
</event>
<event>
 4      1 +9.0096000e-12 6.11213700e+03 7.81860800e-03 7.24947800e-02
        2 -1    0    0  501    0 +0.0000000000e+00 +0.0000000000e+00 +2.8140454355e+03 2.8140454355e+03 0.0000000000e+00 0.0000e+00 -1.0000e+00
       -2 -1    0    0    0  501 -0.0000000000e+00 -0.0000000000e+00 -3.3189064871e+03 3.3189064871e+03 0.0000000000e+00 0.0000e+00 1.0000e+00
      -13  1    1    2    0    0 -1.3833149945e+03 -4.3841236045e+02 -2.9511602264e+03 3.2886338278e+03 0.0000000000e+00 0.0000e+00 1.0000e+00
       13  1    1    2    0    0 +1.3833149945e+03 +4.3841236045e+02 +2.4462991747e+03 2.8443180947e+03 0.0000000000e+00 0.0000e+00 -1.0000e+00
<mgrwt>
<rscale>  0 0.61121367E+04</rscale>
<asrwt>0</asrwt>
<pdfrwt beam="1">  1        2 0.43293007E+00 0.61121367E+04</pdfrwt>
<pdfrwt beam="2">  1       -2 0.51060099E+00 0.61121367E+04</pdfrwt>
<totfact> 0.16360866E-03</totfact>
</mgrwt>
<rwgt>
<wgt id='morphing_basis_vector_1'> +1.6990882e-06 </wgt>
<wgt id='morphing_basis_vector_2'> +1.1559101e-06 </wgt>
<wgt id='morphing_basis_vector_3'> +1.8755129e-06 </wgt>
<wgt id='morphing_basis_vector_4'> +1.3580284e-06 </wgt>
<wgt id='morphing_basis_vector_5'> +2.1661710e-06 </wgt>
</rwgt>
</event>
<event>
 4      1 +9.0096000e-12 6.47842900e+03 7.81860800e-03 7.21129700e-02
        2 -1    0    0  501    0 +0.0000000000e+00 +0.0000000000e+00 +3.3452632243e+03 3.3452632243e+03 0.0000000000e+00 0.0000e+00 -1.0000e+00
       -2 -1    0    0    0  501 -0.0000000000e+00 -0.0000000000e+00 -3.1365275939e+03 3.1365275939e+03 0.0000000000e+00 0.0000e+00 1.0000e+00
      -13  1    1    2    0    0 +9.7560564615e+02 +1.4330194282e+03 -2.6333195363e+03 3.1527325986e+03 0.0000000000e+00 0.0000e+00 1.0000e+00
       13  1    1    2    0    0 -9.7560564615e+02 -1.4330194282e+03 +2.8420551667e+03 3.3290582195e+03 0.0000000000e+00 0.0000e+00 -1.0000e+00
<mgrwt>
<rscale>  0 0.64784289E+04</rscale>
<asrwt>0</asrwt>
<pdfrwt beam="1">  1        2 0.51465588E+00 0.64784289E+04</pdfrwt>
<pdfrwt beam="2">  1       -2 0.48254271E+00 0.64784289E+04</pdfrwt>
<totfact> 0.11459136E-03</totfact>
</mgrwt>
<rwgt>
<wgt id='morphing_basis_vector_1'> +2.1437088e-06 </wgt>
<wgt id='morphing_basis_vector_2'> +1.4594152e-06 </wgt>
<wgt id='morphing_basis_vector_3'> +2.3675117e-06 </wgt>
<wgt id='morphing_basis_vector_4'> +1.7142341e-06 </wgt>
<wgt id='morphing_basis_vector_5'> +2.7352314e-06 </wgt>
</rwgt>
</event>
<event>
 4      1 +9.0096000e-12 5.59369700e+03 7.81860800e-03 7.30843800e-02
        2 -1    0    0  501    0 +0.0000000000e+00 +0.0000000000e+00 +2.9709000548e+03 2.9709000548e+03 0.0000000000e+00 0.0000e+00 -1.0000e+00
       -2 -1    0    0    0  501 -0.0000000000e+00 -0.0000000000e+00 -2.6329934618e+03 2.6329934618e+03 0.0000000000e+00 0.0000e+00 1.0000e+00
      -13  1    1    2    0    0 -2.4492176625e+03 -7.3998153437e+02 -9.6276106096e+02 2.7337060358e+03 0.0000000000e+00 0.0000e+00 1.0000e+00
       13  1    1    2    0    0 +2.4492176625e+03 +7.3998153437e+02 +1.3006676539e+03 2.8701874809e+03 0.0000000000e+00 0.0000e+00 -1.0000e+00
<mgrwt>
<rscale>  0 0.55936966E+04</rscale>
<asrwt>0</asrwt>
<pdfrwt beam="1">  1        2 0.45706155E+00 0.55936966E+04</pdfrwt>
<pdfrwt beam="2">  1       -2 0.40507592E+00 0.55936966E+04</pdfrwt>
<totfact> 0.75396498E-03</totfact>
</mgrwt>
<rwgt>
<wgt id='morphing_basis_vector_1'> +1.2013363e-06 </wgt>
<wgt id='morphing_basis_vector_2'> +8.3585116e-07 </wgt>
<wgt id='morphing_basis_vector_3'> +1.3294517e-06 </wgt>
<wgt id='morphing_basis_vector_4'> +9.3389578e-07 </wgt>
<wgt id='morphing_basis_vector_5'> +1.5167935e-06 </wgt>
</rwgt>
</event>
<event>
 4      1 +9.0096000e-12 6.05414500e+03 7.81860800e-03 7.25577200e-02
        2 -1    0    0  501    0 +0.0000000000e+00 +0.0000000000e+00 +5.4402582620e+03 5.4402582620e+03 0.0000000000e+00 0.0000e+00 1.0000e+00
       -2 -1    0    0    0  501 -0.0000000000e+00 -0.0000000000e+00 -1.6843259310e+03 1.6843259310e+03 0.0000000000e+00 0.0000e+00 -1.0000e+00
      -13  1    1    2    0    0 +1.0124097581e+03 -1.1306868792e+03 -1.2042321839e+03 1.9374213506e+03 0.0000000000e+00 0.0000e+00 -1.0000e+00
       13  1    1    2    0    0 -1.0124097581e+03 +1.1306868792e+03 +4.9601645150e+03 5.1871628424e+03 0.0000000000e+00 0.0000e+00 1.0000e+00
<mgrwt>
<rscale>  0 0.60541450E+04</rscale>
<asrwt>0</asrwt>
<pdfrwt beam="1">  1        2 0.83696280E+00 0.60541450E+04</pdfrwt>
<pdfrwt beam="2">  1       -2 0.25912707E+00 0.60541450E+04</pdfrwt>
<totfact> 0.21476261E-04</totfact>
</mgrwt>
<rwgt>
<wgt id='morphing_basis_vector_1'> +1.6357323e-06 </wgt>
<wgt id='morphing_basis_vector_2'> +1.1129244e-06 </wgt>
<wgt id='morphing_basis_vector_3'> +1.8054761e-06 </wgt>
<wgt id='morphing_basis_vector_4'> +1.3069488e-06 </wgt>
<wgt id='morphing_basis_vector_5'> +2.0849395e-06 </wgt>
</rwgt>
</event>
<event>
 4      1 +9.0096000e-12 5.81093300e+03 7.81860800e-03 7.28297100e-02
        2 -1    0    0  501    0 +0.0000000000e+00 +0.0000000000e+00 +4.9802813021e+03 4.9802813021e+03 0.0000000000e+00 0.0000e+00 1.0000e+00
       -2 -1    0    0    0  501 -0.0000000000e+00 -0.0000000000e+00 -1.6950319397e+03 1.6950319397e+03 0.0000000000e+00 0.0000e+00 -1.0000e+00
      -13  1    1    2    0    0 +1.7310694270e+03 +1.1556752192e+03 -6.8612534018e+02 2.1915644083e+03 0.0000000000e+00 0.0000e+00 -1.0000e+00
       13  1    1    2    0    0 -1.7310694270e+03 -1.1556752192e+03 +3.9713747026e+03 4.4837488335e+03 0.0000000000e+00 0.0000e+00 1.0000e+00
<mgrwt>
<rscale>  0 0.58109331E+04</rscale>
<asrwt>0</asrwt>
<pdfrwt beam="1">  1        2 0.76619712E+00 0.58109331E+04</pdfrwt>
<pdfrwt beam="2">  1       -2 0.26077415E+00 0.58109331E+04</pdfrwt>
<totfact> 0.10873941E-03</totfact>
</mgrwt>
<rwgt>
<wgt id='morphing_basis_vector_1'> +1.3903330e-06 </wgt>
<wgt id='morphing_basis_vector_2'> +9.4911416e-07 </wgt>
<wgt id='morphing_basis_vector_3'> +1.5348515e-06 </wgt>
<wgt id='morphing_basis_vector_4'> +1.1056527e-06 </wgt>
<wgt id='morphing_basis_vector_5'> +1.7686390e-06 </wgt>
</rwgt>
</event>
<event>
 4      1 +9.0096000e-12 5.65177900e+03 7.81860800e-03 7.30151500e-02
        2 -1    0    0  501    0 +0.0000000000e+00 +0.0000000000e+00 +2.3385170457e+03 2.3385170457e+03 0.0000000000e+00 0.0000e+00 -1.0000e+00
       -2 -1    0    0    0  501 -0.0000000000e+00 -0.0000000000e+00 -3.4148350960e+03 3.4148350960e+03 0.0000000000e+00 0.0000e+00 1.0000e+00
      -13  1    1    2    0    0 -8.2773515248e+02 -1.9928277548e+03 -2.3955442716e+03 3.2241495468e+03 0.0000000000e+00 0.0000e+00 1.0000e+00
       13  1    1    2    0    0 +8.2773515248e+02 +1.9928277548e+03 +1.3192262212e+03 2.5292025949e+03 0.0000000000e+00 0.0000e+00 -1.0000e+00
<mgrwt>
<rscale>  0 0.56517785E+04</rscale>
<asrwt>0</asrwt>
<pdfrwt beam="1">  1        2 0.35977185E+00 0.56517785E+04</pdfrwt>
<pdfrwt beam="2">  1       -2 0.52535925E+00 0.56517785E+04</pdfrwt>
<totfact> 0.25490987E-03</totfact>
</mgrwt>
<rwgt>
<wgt id='morphing_basis_vector_1'> +1.2452432e-06 </wgt>
<wgt id='morphing_basis_vector_2'> +8.5158857e-07 </wgt>
<wgt id='morphing_basis_vector_3'> +1.3747102e-06 </wgt>
<wgt id='morphing_basis_vector_4'> +9.8757240e-07 </wgt>
<wgt id='morphing_basis_vector_5'> +1.5821349e-06 </wgt>
</rwgt>
</event>
<event>
 4      1 +9.0096000e-12 5.87656300e+03 7.81860800e-03 7.27550000e-02
        2 -1    0    0  501    0 +0.0000000000e+00 +0.0000000000e+00 +3.7219662370e+03 3.7219662370e+03 0.0000000000e+00 0.0000e+00 1.0000e+00
       -2 -1    0    0    0  501 -0.0000000000e+00 -0.0000000000e+00 -2.3196064532e+03 2.3196064532e+03 0.0000000000e+00 0.0000e+00 -1.0000e+00
      -13  1    1    2    0    0 +1.2073862782e+03 -6.6423697386e+02 -1.9667810361e+03 2.4015037010e+03 0.0000000000e+00 0.0000e+00 -1.0000e+00
       13  1    1    2    0    0 -1.2073862782e+03 +6.6423697386e+02 +3.3691408198e+03 3.6400689892e+03 0.0000000000e+00 0.0000e+00 1.0000e+00
<mgrwt>
<rscale>  0 0.58765626E+04</rscale>
<asrwt>0</asrwt>
<pdfrwt beam="1">  1        2 0.57261019E+00 0.58765626E+04</pdfrwt>
<pdfrwt beam="2">  1       -2 0.35686253E+00 0.58765626E+04</pdfrwt>
<totfact> 0.44477793E-03</totfact>
</mgrwt>
<rwgt>
<wgt id='morphing_basis_vector_1'> +1.4524112e-06 </wgt>
<wgt id='morphing_basis_vector_2'> +9.8784667e-07 </wgt>
<wgt id='morphing_basis_vector_3'> +1.6026759e-06 </wgt>
<wgt id='morphing_basis_vector_4'> +1.1600945e-06 </wgt>
<wgt id='morphing_basis_vector_5'> +1.8503927e-06 </wgt>
</rwgt>
</event>
<event>
 4      1 +9.0096000e-12 5.81738700e+03 7.81860800e-03 7.28223200e-02
        2 -1    0    0  501    0 +0.0000000000e+00 +0.0000000000e+00 +2.3824904158e+03 2.3824904158e+03 0.0000000000e+00 0.0000e+00 -1.0000e+00
       -2 -1    0    0    0  501 -0.0000000000e+00 -0.0000000000e+00 -3.5511148162e+03 3.5511148162e+03 0.0000000000e+00 0.0000e+00 1.0000e+00
      -13  1    1    2    0    0 -2.5289549527e+03 -1.3904547866e+03 -9.5421322920e+02 3.0396546766e+03 0.0000000000e+00 0.0000e+00 1.0000e+00
       13  1    1    2    0    0 +2.5289549527e+03 +1.3904547866e+03 -2.1441117123e+02 2.8939505553e+03 0.0000000000e+00 0.0000e+00 -1.0000e+00
<mgrwt>
<rscale>  0 0.58173867E+04</rscale>
<asrwt>0</asrwt>
<pdfrwt beam="1">  1        2 0.36653699E+00 0.58173867E+04</pdfrwt>
<pdfrwt beam="2">  1       -2 0.54632536E+00 0.58173867E+04</pdfrwt>
<totfact> 0.16719497E-03</totfact>
</mgrwt>
<rwgt>
<wgt id='morphing_basis_vector_1'> +1.4270757e-06 </wgt>
<wgt id='morphing_basis_vector_2'> +1.0430718e-06 </wgt>
<wgt id='morphing_basis_vector_3'> +1.5915535e-06 </wgt>
<wgt id='morphing_basis_vector_4'> +1.0452256e-06 </wgt>
<wgt id='morphing_basis_vector_5'> +1.7710328e-06 </wgt>
</rwgt>
</event>
<event>
 4      1 +9.0096000e-12 6.01614500e+03 7.81860800e-03 7.25993500e-02
        2 -1    0    0  501    0 +0.0000000000e+00 +0.0000000000e+00 +3.1949464855e+03 3.1949464855e+03 0.0000000000e+00 0.0000e+00 -1.0000e+00
       -2 -1    0    0    0  501 -0.0000000000e+00 -0.0000000000e+00 -2.8321284903e+03 2.8321284903e+03 0.0000000000e+00 0.0000e+00 1.0000e+00
      -13  1    1    2    0    0 +2.5951077378e+03 +7.6803593591e+02 -1.1340019202e+03 2.9343523518e+03 0.0000000000e+00 0.0000e+00 1.0000e+00
       13  1    1    2    0    0 -2.5951077378e+03 -7.6803593591e+02 +1.4968199154e+03 3.0927226240e+03 0.0000000000e+00 0.0000e+00 -1.0000e+00
<mgrwt>
<rscale>  0 0.60161446E+04</rscale>
<asrwt>0</asrwt>
<pdfrwt beam="1">  1        2 0.49153023E+00 0.60161446E+04</pdfrwt>
<pdfrwt beam="2">  1       -2 0.43571207E+00 0.60161446E+04</pdfrwt>
<totfact> 0.32439515E-03</totfact>
</mgrwt>
<rwgt>
<wgt id='morphing_basis_vector_1'> +1.6046640e-06 </wgt>
<wgt id='morphing_basis_vector_2'> +1.1132239e-06 </wgt>
<wgt id='morphing_basis_vector_3'> +1.7761304e-06 </wgt>
<wgt id='morphing_basis_vector_4'> +1.2539996e-06 </wgt>
<wgt id='morphing_basis_vector_5'> +2.0312584e-06 </wgt>
</rwgt>
</event>
<event>
 4      1 +9.0096000e-12 5.87371200e+03 7.81860800e-03 7.27582200e-02
        2 -1    0    0  501    0 +0.0000000000e+00 +0.0000000000e+00 +1.6734641446e+03 1.6734641446e+03 0.0000000000e+00 0.0000e+00 1.0000e+00
       -2 -1    0    0    0  501 -0.0000000000e+00 -0.0000000000e+00 -5.1540536822e+03 5.1540536822e+03 0.0000000000e+00 0.0000e+00 -1.0000e+00
      -13  1    1    2    0    0 -1.3140125360e+03 +1.0259815476e+03 -4.5507344231e+03 4.8464885093e+03 0.0000000000e+00 0.0000e+00 -1.0000e+00
       13  1    1    2    0    0 +1.3140125360e+03 -1.0259815476e+03 +1.0701448856e+03 1.9810293175e+03 0.0000000000e+00 0.0000e+00 1.0000e+00
<mgrwt>
<rscale>  0 0.58737123E+04</rscale>
<asrwt>0</asrwt>
<pdfrwt beam="1">  1        2 0.25745603E+00 0.58737123E+04</pdfrwt>
<pdfrwt beam="2">  1       -2 0.79293132E+00 0.58737123E+04</pdfrwt>
<totfact> 0.85467890E-04</totfact>
</mgrwt>
<rwgt>
<wgt id='morphing_basis_vector_1'> +1.4499305e-06 </wgt>
<wgt id='morphing_basis_vector_2'> +9.8689693e-07 </wgt>
<wgt id='morphing_basis_vector_3'> +1.6001050e-06 </wgt>
<wgt id='morphing_basis_vector_4'> +1.1571385e-06 </wgt>
<wgt id='morphing_basis_vector_5'> +1.8467382e-06 </wgt>
</rwgt>
</event>
<event>
 4      1 +9.0096000e-12 5.88280000e+03 7.81860800e-03 7.27479500e-02
        2 -1    0    0  501    0 +0.0000000000e+00 +0.0000000000e+00 +2.7946647738e+03 2.7946647738e+03 0.0000000000e+00 0.0000e+00 1.0000e+00
       -2 -1    0    0    0  501 -0.0000000000e+00 -0.0000000000e+00 -3.0958398877e+03 3.0958398877e+03 0.0000000000e+00 0.0000e+00 -1.0000e+00
      -13  1    1    2    0    0 +2.5218885439e+03 -4.8416536505e+02 -1.5868638139e+03 3.0186875778e+03 0.0000000000e+00 0.0000e+00 -1.0000e+00
       13  1    1    2    0    0 -2.5218885439e+03 +4.8416536505e+02 +1.2856887001e+03 2.8718170837e+03 0.0000000000e+00 0.0000e+00 1.0000e+00
<mgrwt>
<rscale>  0 0.58828002E+04</rscale>
<asrwt>0</asrwt>
<pdfrwt beam="1">  1        2 0.42994843E+00 0.58828002E+04</pdfrwt>
<pdfrwt beam="2">  1       -2 0.47628306E+00 0.58828002E+04</pdfrwt>
<totfact> 0.30869628E-03</totfact>
</mgrwt>
<rwgt>
<wgt id='morphing_basis_vector_1'> +1.4653231e-06 </wgt>
<wgt id='morphing_basis_vector_2'> +1.0118573e-06 </wgt>
<wgt id='morphing_basis_vector_3'> +1.6205059e-06 </wgt>
<wgt id='morphing_basis_vector_4'> +1.1506048e-06 </wgt>
<wgt id='morphing_basis_vector_5'> +1.8570660e-06 </wgt>
</rwgt>
</event>
<event>
 4      1 +9.0096000e-12 6.07647100e+03 7.81860800e-03 7.25334000e-02
        2 -1    0    0  501    0 +0.0000000000e+00 +0.0000000000e+00 +4.1433941623e+03 4.1433941623e+03 0.0000000000e+00 0.0000e+00 1.0000e+00
       -2 -1    0    0    0  501 -0.0000000000e+00 -0.0000000000e+00 -2.2278537638e+03 2.2278537638e+03 0.0000000000e+00 0.0000e+00 -1.0000e+00
      -13  1    1    2    0    0 +2.0453380406e+03 -2.2762259086e+02 -1.3857533954e+03 2.4810345055e+03 0.0000000000e+00 0.0000e+00 -1.0000e+00
       13  1    1    2    0    0 -2.0453380406e+03 +2.2762259086e+02 +3.3012937940e+03 3.8902134207e+03 0.0000000000e+00 0.0000e+00 1.0000e+00
<mgrwt>
<rscale>  0 0.60764714E+04</rscale>
<asrwt>0</asrwt>
<pdfrwt beam="1">  1        2 0.63744526E+00 0.60764714E+04</pdfrwt>
<pdfrwt beam="2">  1       -2 0.34274673E+00 0.60764714E+04</pdfrwt>
<totfact> 0.24035736E-03</totfact>
</mgrwt>
<rwgt>
<wgt id='morphing_basis_vector_1'> +1.6611560e-06 </wgt>
<wgt id='morphing_basis_vector_2'> +1.1329859e-06 </wgt>
<wgt id='morphing_basis_vector_3'> +1.8342384e-06 </wgt>
<wgt id='morphing_basis_vector_4'> +1.3237747e-06 </wgt>
<wgt id='morphing_basis_vector_5'> +2.1157136e-06 </wgt>
</rwgt>
</event>
<event>
 4      1 +9.0096000e-12 6.56395200e+03 7.81860800e-03 7.20275000e-02
        2 -1    0    0  501    0 +0.0000000000e+00 +0.0000000000e+00 +4.0576613121e+03 4.0576613121e+03 0.0000000000e+00 0.0000e+00 1.0000e+00
       -2 -1    0    0    0  501 -0.0000000000e+00 -0.0000000000e+00 -2.6545750569e+03 2.6545750569e+03 0.0000000000e+00 0.0000e+00 -1.0000e+00
      -13  1    1    2    0    0 -1.0948250866e+03 -2.2369452096e+03 -1.4842192656e+03 2.8992193206e+03 0.0000000000e+00 0.0000e+00 -1.0000e+00
       13  1    1    2    0    0 +1.0948250866e+03 +2.2369452096e+03 +2.8873055208e+03 3.8130170484e+03 0.0000000000e+00 0.0000e+00 1.0000e+00
<mgrwt>
<rscale>  0 0.65639520E+04</rscale>
<asrwt>0</asrwt>
<pdfrwt beam="1">  1        2 0.62425559E+00 0.65639520E+04</pdfrwt>
<pdfrwt beam="2">  1       -2 0.40839616E+00 0.65639520E+04</pdfrwt>
<totfact> 0.10370903E-03</totfact>
</mgrwt>
<rwgt>
<wgt id='morphing_basis_vector_1'> +2.2623830e-06 </wgt>
<wgt id='morphing_basis_vector_2'> +1.5480647e-06 </wgt>
<wgt id='morphing_basis_vector_3'> +2.5006453e-06 </wgt>
<wgt id='morphing_basis_vector_4'> +1.7993566e-06 </wgt>
<wgt id='morphing_basis_vector_5'> +2.8822103e-06 </wgt>
</rwgt>
</event>
<event>
 4      1 +9.0096000e-12 5.82412000e+03 7.81860800e-03 7.28146200e-02
        2 -1    0    0  501    0 +0.0000000000e+00 +0.0000000000e+00 +2.9865128721e+03 2.9865128721e+03 0.0000000000e+00 0.0000e+00 -1.0000e+00
       -2 -1    0    0    0  501 -0.0000000000e+00 -0.0000000000e+00 -2.8394630797e+03 2.8394630797e+03 0.0000000000e+00 0.0000e+00 1.0000e+00
      -13  1    1    2    0    0 -2.6998881072e+03 +2.5290910932e+02 -9.8829076664e+02 2.8861873550e+03 0.0000000000e+00 0.0000e+00 -1.0000e+00
       13  1    1    2    0    0 +2.6998881072e+03 -2.5290910932e+02 +1.1353405590e+03 2.9397885968e+03 0.0000000000e+00 0.0000e+00 1.0000e+00
<mgrwt>
<rscale>  0 0.58241199E+04</rscale>
<asrwt>0</asrwt>
<pdfrwt beam="1">  1        2 0.45946352E+00 0.58241199E+04</pdfrwt>
<pdfrwt beam="2">  1       -2 0.43684047E+00 0.58241199E+04</pdfrwt>
<totfact> 0.44478158E-03</totfact>
</mgrwt>
<rwgt>
<wgt id='morphing_basis_vector_1'> +1.4132889e-06 </wgt>
<wgt id='morphing_basis_vector_2'> +9.8805390e-07 </wgt>
<wgt id='morphing_basis_vector_3'> +1.5656712e-06 </wgt>
<wgt id='morphing_basis_vector_4'> +1.0936751e-06 </wgt>
<wgt id='morphing_basis_vector_5'> +1.7829303e-06 </wgt>
</rwgt>
</event>
<event>
 4      1 +9.0096000e-12 5.63673200e+03 7.81860800e-03 7.30330000e-02
        2 -1    0    0  501    0 +0.0000000000e+00 +0.0000000000e+00 +3.8448081810e+03 3.8448081810e+03 0.0000000000e+00 0.0000e+00 1.0000e+00
       -2 -1    0    0    0  501 -0.0000000000e+00 -0.0000000000e+00 -2.0659513330e+03 2.0659513330e+03 0.0000000000e+00 0.0000e+00 -1.0000e+00
      -13  1    1    2    0    0 -9.2627895216e+02 -3.0018870879e+02 -1.8839700642e+03 2.1207190198e+03 0.0000000000e+00 0.0000e+00 -1.0000e+00
       13  1    1    2    0    0 +9.2627895216e+02 +3.0018870879e+02 +3.6628269123e+03 3.7900404942e+03 0.0000000000e+00 0.0000e+00 1.0000e+00
<mgrwt>
<rscale>  0 0.56367319E+04</rscale>
<asrwt>0</asrwt>
<pdfrwt beam="1">  1        2 0.59150895E+00 0.56367319E+04</pdfrwt>
<pdfrwt beam="2">  1       -2 0.31783867E+00 0.56367319E+04</pdfrwt>
<totfact> 0.65138793E-03</totfact>
</mgrwt>
<rwgt>
<wgt id='morphing_basis_vector_1'> +1.2298016e-06 </wgt>
<wgt id='morphing_basis_vector_2'> +8.3590840e-07 </wgt>
<wgt id='morphing_basis_vector_3'> +1.3564356e-06 </wgt>
<wgt id='morphing_basis_vector_4'> +9.8191715e-07 </wgt>
<wgt id='morphing_basis_vector_5'> +1.5657193e-06 </wgt>
</rwgt>
</event>
<event>
 4      1 +9.0096000e-12 6.15975900e+03 7.81860800e-03 7.24436200e-02
        2 -1    0    0  501    0 +0.0000000000e+00 +0.0000000000e+00 +2.5861606373e+03 2.5861606373e+03 0.0000000000e+00 0.0000e+00 -1.0000e+00
       -2 -1    0    0    0  501 -0.0000000000e+00 -0.0000000000e+00 -3.6678536805e+03 3.6678536805e+03 0.0000000000e+00 0.0000e+00 1.0000e+00
      -13  1    1    2    0    0 -1.0179083706e+02 -1.7711813707e+03 +2.0152577999e+03 2.6849038758e+03 0.0000000000e+00 0.0000e+00 -1.0000e+00
       13  1    1    2    0    0 +1.0179083706e+02 +1.7711813707e+03 -3.0969508430e+03 3.5691104419e+03 0.0000000000e+00 0.0000e+00 1.0000e+00
<mgrwt>
<rscale>  0 0.61597593E+04</rscale>
<asrwt>0</asrwt>
<pdfrwt beam="1">  1        2 0.39787087E+00 0.61597593E+04</pdfrwt>
<pdfrwt beam="2">  1       -2 0.56428518E+00 0.61597593E+04</pdfrwt>
<totfact> 0.91605412E-04</totfact>
</mgrwt>
<rwgt>
<wgt id='morphing_basis_vector_1'> +2.3478920e-06 </wgt>
<wgt id='morphing_basis_vector_2'> +2.9396762e-06 </wgt>
<wgt id='morphing_basis_vector_3'> +2.9074449e-06 </wgt>
<wgt id='morphing_basis_vector_4'> +1.2682381e-07 </wgt>
<wgt id='morphing_basis_vector_5'> +2.1274103e-06 </wgt>
</rwgt>
</event>
<event>
 4      1 +9.0096000e-12 5.83286700e+03 7.81860800e-03 7.28046300e-02
        2 -1    0    0  501    0 +0.0000000000e+00 +0.0000000000e+00 +3.1712104593e+03 3.1712104593e+03 0.0000000000e+00 0.0000e+00 -1.0000e+00
       -2 -1    0    0    0  501 -0.0000000000e+00 -0.0000000000e+00 -2.6821253670e+03 2.6821253670e+03 0.0000000000e+00 0.0000e+00 1.0000e+00
      -13  1    1    2    0    0 -1.5403127773e+03 +2.4703355895e+03 +4.1969053260e+02 2.9413026909e+03 0.0000000000e+00 0.0000e+00 1.0000e+00
       13  1    1    2    0    0 +1.5403127773e+03 -2.4703355895e+03 +6.9394559649e+01 2.9120331354e+03 0.0000000000e+00 0.0000e+00 -1.0000e+00
<mgrwt>
<rscale>  0 0.58328669E+04</rscale>
<asrwt>0</asrwt>
<pdfrwt beam="1">  1        2 0.48787853E+00 0.58328669E+04</pdfrwt>
<pdfrwt beam="2">  1       -2 0.41263467E+00 0.58328669E+04</pdfrwt>
<totfact> 0.48666576E-03</totfact>
</mgrwt>
<rwgt>
<wgt id='morphing_basis_vector_1'> +1.4738022e-06 </wgt>
<wgt id='morphing_basis_vector_2'> +1.1467085e-06 </wgt>
<wgt id='morphing_basis_vector_3'> +1.6599760e-06 </wgt>
<wgt id='morphing_basis_vector_4'> +9.8904575e-07 </wgt>
<wgt id='morphing_basis_vector_5'> +1.7843387e-06 </wgt>
</rwgt>
</event>
<event>
 4      1 +9.0096000e-12 5.71974000e+03 7.81860800e-03 7.29352100e-02
        2 -1    0    0  501    0 +0.0000000000e+00 +0.0000000000e+00 +3.5548834523e+03 3.5548834523e+03 0.0000000000e+00 0.0000e+00 -1.0000e+00
       -2 -1    0    0    0  501 -0.0000000000e+00 -0.0000000000e+00 -2.3007386616e+03 2.3007386616e+03 0.0000000000e+00 0.0000e+00 1.0000e+00
      -13  1    1    2    0    0 +2.5179246819e+03 +8.6580673629e+01 -7.5837590500e+02 2.6310786629e+03 0.0000000000e+00 0.0000e+00 1.0000e+00
       13  1    1    2    0    0 -2.5179246819e+03 -8.6580673629e+01 +2.0125206957e+03 3.2245434510e+03 0.0000000000e+00 0.0000e+00 -1.0000e+00
<mgrwt>
<rscale>  0 0.57197405E+04</rscale>
<asrwt>0</asrwt>
<pdfrwt beam="1">  1        2 0.54690515E+00 0.57197405E+04</pdfrwt>
<pdfrwt beam="2">  1       -2 0.35395979E+00 0.57197405E+04</pdfrwt>
<totfact> 0.63027303E-03</totfact>
</mgrwt>
<rwgt>
<wgt id='morphing_basis_vector_1'> +1.3103302e-06 </wgt>
<wgt id='morphing_basis_vector_2'> +9.0575981e-07 </wgt>
<wgt id='morphing_basis_vector_3'> +1.4489729e-06 </wgt>
<wgt id='morphing_basis_vector_4'> +1.0269495e-06 </wgt>
<wgt id='morphing_basis_vector_5'> +1.6590475e-06 </wgt>
</rwgt>
</event>
<event>
 4      1 +9.0096000e-12 6.07070400e+03 7.81860800e-03 7.25396700e-02
        2 -1    0    0  501    0 +0.0000000000e+00 +0.0000000000e+00 +3.6811880009e+03 3.6811880009e+03 0.0000000000e+00 0.0000e+00 1.0000e+00
       -2 -1    0    0    0  501 -0.0000000000e+00 -0.0000000000e+00 -2.5028230335e+03 2.5028230335e+03 0.0000000000e+00 0.0000e+00 -1.0000e+00
      -13  1    1    2    0    0 +8.7482251186e+02 -1.0580275690e+03 -2.1684885041e+03 2.5665305680e+03 0.0000000000e+00 0.0000e+00 -1.0000e+00
       13  1    1    2    0    0 -8.7482251186e+02 +1.0580275690e+03 +3.3468534716e+03 3.6174804663e+03 0.0000000000e+00 0.0000e+00 1.0000e+00
<mgrwt>
<rscale>  0 0.60707041E+04</rscale>
<asrwt>0</asrwt>
<pdfrwt beam="1">  1        2 0.56633661E+00 0.60707041E+04</pdfrwt>
<pdfrwt beam="2">  1       -2 0.38504970E+00 0.60707041E+04</pdfrwt>
<totfact> 0.31045514E-03</totfact>
</mgrwt>
<rwgt>
<wgt id='morphing_basis_vector_1'> +1.6535294e-06 </wgt>
<wgt id='morphing_basis_vector_2'> +1.1247525e-06 </wgt>
<wgt id='morphing_basis_vector_3'> +1.8250920e-06 </wgt>
<wgt id='morphing_basis_vector_4'> +1.3216192e-06 </wgt>
<wgt id='morphing_basis_vector_5'> +2.1079173e-06 </wgt>
</rwgt>
</event>
<event>
 4      1 +9.0096000e-12 5.97320400e+03 7.81860800e-03 7.26467700e-02
        2 -1    0    0  501    0 +0.0000000000e+00 +0.0000000000e+00 +3.3509685831e+03 3.3509685831e+03 0.0000000000e+00 0.0000e+00 1.0000e+00
       -2 -1    0    0    0  501 -0.0000000000e+00 -0.0000000000e+00 -2.6618544342e+03 2.6618544342e+03 0.0000000000e+00 0.0000e+00 -1.0000e+00
      -13  1    1    2    0    0 -2.5930563115e+03 +1.2753291808e+03 +1.1041381179e+03 3.0934651344e+03 0.0000000000e+00 0.0000e+00 -1.0000e+00
       13  1    1    2    0    0 +2.5930563115e+03 -1.2753291808e+03 -4.1502396900e+02 2.9193578830e+03 0.0000000000e+00 0.0000e+00 1.0000e+00
<mgrwt>
<rscale>  0 0.59732037E+04</rscale>
<asrwt>0</asrwt>
<pdfrwt beam="1">  1        2 0.51553363E+00 0.59732037E+04</pdfrwt>
<pdfrwt beam="2">  1       -2 0.40951607E+00 0.59732037E+04</pdfrwt>
<totfact> 0.37936625E-03</totfact>
</mgrwt>
<rwgt>
<wgt id='morphing_basis_vector_1'> +1.6857765e-06 </wgt>
<wgt id='morphing_basis_vector_2'> +1.4526319e-06 </wgt>
<wgt id='morphing_basis_vector_3'> +1.9322273e-06 </wgt>
<wgt id='morphing_basis_vector_4'> +9.4827547e-07 </wgt>
<wgt id='morphing_basis_vector_5'> +1.9510306e-06 </wgt>
</rwgt>
</event>
<event>
 4      1 +9.0096000e-12 5.68259100e+03 7.81860800e-03 7.29787600e-02
        2 -1    0    0  501    0 +0.0000000000e+00 +0.0000000000e+00 +3.6266065596e+03 3.6266065596e+03 0.0000000000e+00 0.0000e+00 -1.0000e+00
       -2 -1    0    0    0  501 -0.0000000000e+00 -0.0000000000e+00 -2.2260368810e+03 2.2260368810e+03 0.0000000000e+00 0.0000e+00 1.0000e+00
      -13  1    1    2    0    0 +2.4611631386e+03 -9.7434871391e+02 -3.6322475967e+02 2.6718180397e+03 0.0000000000e+00 0.0000e+00 1.0000e+00
       13  1    1    2    0    0 -2.4611631386e+03 +9.7434871391e+02 +1.7637944383e+03 3.1808254010e+03 0.0000000000e+00 0.0000e+00 -1.0000e+00
<mgrwt>
<rscale>  0 0.56825909E+04</rscale>
<asrwt>0</asrwt>
<pdfrwt beam="1">  1        2 0.55793947E+00 0.56825909E+04</pdfrwt>
<pdfrwt beam="2">  1       -2 0.34246721E+00 0.56825909E+04</pdfrwt>
<totfact> 0.66247245E-03</totfact>
</mgrwt>
<rwgt>
<wgt id='morphing_basis_vector_1'> +1.2812077e-06 </wgt>
<wgt id='morphing_basis_vector_2'> +8.9570618e-07 </wgt>
<wgt id='morphing_basis_vector_3'> +1.4190433e-06 </wgt>
<wgt id='morphing_basis_vector_4'> +9.9083859e-07 </wgt>
<wgt id='morphing_basis_vector_5'> +1.6154521e-06 </wgt>
</rwgt>
</event>
<event>
 4      1 +9.0096000e-12 6.52368000e+03 7.81860800e-03 7.20675800e-02
        2 -1    0    0  501    0 +0.0000000000e+00 +0.0000000000e+00 +3.2046798252e+03 3.2046798252e+03 0.0000000000e+00 0.0000e+00 -1.0000e+00
       -2 -1    0    0    0  501 -0.0000000000e+00 -0.0000000000e+00 -3.3200198754e+03 3.3200198754e+03 0.0000000000e+00 0.0000e+00 1.0000e+00
      -13  1    1    2    0    0 -5.7352402118e+02 -1.4202873330e+03 -2.9379559923e+03 3.3132659603e+03 0.0000000000e+00 0.0000e+00 1.0000e+00
       13  1    1    2    0    0 +5.7352402118e+02 +1.4202873330e+03 +2.8226159421e+03 3.2114337402e+03 0.0000000000e+00 0.0000e+00 -1.0000e+00
<mgrwt>
<rscale>  0 0.65236802E+04</rscale>
<asrwt>0</asrwt>
<pdfrwt beam="1">  1        2 0.49302766E+00 0.65236802E+04</pdfrwt>
<pdfrwt beam="2">  1       -2 0.51077229E+00 0.65236802E+04</pdfrwt>
<totfact> 0.87912442E-04</totfact>
</mgrwt>
<rwgt>
<wgt id='morphing_basis_vector_1'> +2.2038248e-06 </wgt>
<wgt id='morphing_basis_vector_2'> +1.4997390e-06 </wgt>
<wgt id='morphing_basis_vector_3'> +2.4338734e-06 </wgt>
<wgt id='morphing_basis_vector_4'> +1.7633430e-06 </wgt>
<wgt id='morphing_basis_vector_5'> +2.8126560e-06 </wgt>
</rwgt>
</event>
<event>
 4      1 +9.0096000e-12 6.31795700e+03 7.81860800e-03 7.22770000e-02
        2 -1    0    0  501    0 +0.0000000000e+00 +0.0000000000e+00 +3.5007969097e+03 3.5007969097e+03 0.0000000000e+00 0.0000e+00 1.0000e+00
       -2 -1    0    0    0  501 -0.0000000000e+00 -0.0000000000e+00 -2.8505355258e+03 2.8505355258e+03 0.0000000000e+00 0.0000e+00 -1.0000e+00
      -13  1    1    2    0    0 -2.2615748086e+03 +2.2023136402e+03 +4.4509243760e+02 3.1879481273e+03 0.0000000000e+00 0.0000e+00 -1.0000e+00
       13  1    1    2    0    0 +2.2615748086e+03 -2.2023136402e+03 +2.0516894629e+02 3.1633843082e+03 0.0000000000e+00 0.0000e+00 1.0000e+00
<mgrwt>
<rscale>  0 0.63179573E+04</rscale>
<asrwt>0</asrwt>
<pdfrwt beam="1">  1        2 0.53858414E+00 0.63179573E+04</pdfrwt>
<pdfrwt beam="2">  1       -2 0.43854393E+00 0.63179573E+04</pdfrwt>
<totfact> 0.18464847E-03</totfact>
</mgrwt>
<rwgt>
<wgt id='morphing_basis_vector_1'> +2.0206296e-06 </wgt>
<wgt id='morphing_basis_vector_2'> +1.5584187e-06 </wgt>
<wgt id='morphing_basis_vector_3'> +2.2742530e-06 </wgt>
<wgt id='morphing_basis_vector_4'> +1.3765178e-06 </wgt>
<wgt id='morphing_basis_vector_5'> +2.4590188e-06 </wgt>
</rwgt>
</event>
<event>
 4      1 +9.0096000e-12 5.56057600e+03 7.81860800e-03 7.31242400e-02
        2 -1    0    0  501    0 +0.0000000000e+00 +0.0000000000e+00 +4.1387806269e+03 4.1387806269e+03 0.0000000000e+00 0.0000e+00 1.0000e+00
       -2 -1    0    0    0  501 -0.0000000000e+00 -0.0000000000e+00 -1.8677001138e+03 1.8677001138e+03 0.0000000000e+00 0.0000e+00 -1.0000e+00
      -13  1    1    2    0    0 +1.4030283554e+03 +4.3963982228e+02 -1.4133954011e+03 2.0394750058e+03 0.0000000000e+00 0.0000e+00 -1.0000e+00
       13  1    1    2    0    0 -1.4030283554e+03 -4.3963982228e+02 +3.6844759141e+03 3.9670057349e+03 0.0000000000e+00 0.0000e+00 1.0000e+00
<mgrwt>
<rscale>  0 0.55605759E+04</rscale>
<asrwt>0</asrwt>
<pdfrwt beam="1">  1        2 0.63673548E+00 0.55605759E+04</pdfrwt>
<pdfrwt beam="2">  1       -2 0.28733848E+00 0.55605759E+04</pdfrwt>
<totfact> 0.59022918E-03</totfact>
</mgrwt>
<rwgt>
<wgt id='morphing_basis_vector_1'> +1.1651114e-06 </wgt>
<wgt id='morphing_basis_vector_2'> +7.9247931e-07 </wgt>
<wgt id='morphing_basis_vector_3'> +1.2850552e-06 </wgt>
<wgt id='morphing_basis_vector_4'> +9.2921473e-07 </wgt>
<wgt id='morphing_basis_vector_5'> +1.4825506e-06 </wgt>
</rwgt>
</event>
<event>
 4      1 +9.0096000e-12 6.24775000e+03 7.81860800e-03 7.23503300e-02
        2 -1    0    0  501    0 +0.0000000000e+00 +0.0000000000e+00 +3.2115676704e+03 3.2115676704e+03 0.0000000000e+00 0.0000e+00 -1.0000e+00
       -2 -1    0    0    0  501 -0.0000000000e+00 -0.0000000000e+00 -3.0385770664e+03 3.0385770664e+03 0.0000000000e+00 0.0000e+00 1.0000e+00
      -13  1    1    2    0    0 -2.5295335254e+03 -1.4096823382e+03 -1.0856413019e+03 3.0926301406e+03 0.0000000000e+00 0.0000e+00 1.0000e+00
       13  1    1    2    0    0 +2.5295335254e+03 +1.4096823382e+03 +1.2586319059e+03 3.1575145962e+03 0.0000000000e+00 0.0000e+00 -1.0000e+00
<mgrwt>
<rscale>  0 0.62477503E+04</rscale>
<asrwt>0</asrwt>
<pdfrwt beam="1">  1        2 0.49408733E+00 0.62477503E+04</pdfrwt>
<pdfrwt beam="2">  1       -2 0.46747340E+00 0.62477503E+04</pdfrwt>
<totfact> 0.18613116E-03</totfact>
</mgrwt>
<rwgt>
<wgt id='morphing_basis_vector_1'> +1.8696259e-06 </wgt>
<wgt id='morphing_basis_vector_2'> +1.3058943e-06 </wgt>
<wgt id='morphing_basis_vector_3'> +2.0720822e-06 </wgt>
<wgt id='morphing_basis_vector_4'> +1.4507784e-06 </wgt>
<wgt id='morphing_basis_vector_5'> +2.3626411e-06 </wgt>
</rwgt>
</event>
<event>
 4      1 +9.0096000e-12 5.78790600e+03 7.81860800e-03 7.28561600e-02
        2 -1    0    0  501    0 +0.0000000000e+00 +0.0000000000e+00 +3.7258379827e+03 3.7258379827e+03 0.0000000000e+00 0.0000e+00 -1.0000e+00
       -2 -1    0    0    0  501 -0.0000000000e+00 -0.0000000000e+00 -2.2478071509e+03 2.2478071509e+03 0.0000000000e+00 0.0000e+00 1.0000e+00
      -13  1    1    2    0    0 +1.4221970645e+03 +2.2975925414e+03 -3.3027714282e+02 2.7222525539e+03 0.0000000000e+00 0.0000e+00 1.0000e+00
       13  1    1    2    0    0 -1.4221970645e+03 -2.2975925414e+03 +1.8083079746e+03 3.2513925797e+03 0.0000000000e+00 0.0000e+00 -1.0000e+00
<mgrwt>
<rscale>  0 0.57879064E+04</rscale>
<asrwt>0</asrwt>
<pdfrwt beam="1">  1        2 0.57320584E+00 0.57879064E+04</pdfrwt>
<pdfrwt beam="2">  1       -2 0.34581649E+00 0.57879064E+04</pdfrwt>
<totfact> 0.52412114E-03</totfact>
</mgrwt>
<rwgt>
<wgt id='morphing_basis_vector_1'> +1.3788998e-06 </wgt>
<wgt id='morphing_basis_vector_2'> +9.6476263e-07 </wgt>
<wgt id='morphing_basis_vector_3'> +1.5276685e-06 </wgt>
<wgt id='morphing_basis_vector_4'> +1.0659154e-06 </wgt>
<wgt id='morphing_basis_vector_5'> +1.7388335e-06 </wgt>
</rwgt>
</event>
<event>
 4      1 +9.0096000e-12 5.87224100e+03 7.81860800e-03 7.27598900e-02
        2 -1    0    0  501    0 +0.0000000000e+00 +0.0000000000e+00 +4.2062787405e+03 4.2062787405e+03 0.0000000000e+00 0.0000e+00 1.0000e+00
       -2 -1    0    0    0  501 -0.0000000000e+00 -0.0000000000e+00 -2.0495086941e+03 2.0495086941e+03 0.0000000000e+00 0.0000e+00 -1.0000e+00
      -13  1    1    2    0    0 +2.3742017770e+03 -1.6295392002e+03 +4.6773291301e+02 2.9173628778e+03 0.0000000000e+00 0.0000e+00 -1.0000e+00
       13  1    1    2    0    0 -2.3742017770e+03 +1.6295392002e+03 +1.6890371334e+03 3.3384245567e+03 0.0000000000e+00 0.0000e+00 1.0000e+00
<mgrwt>
<rscale>  0 0.58722414E+04</rscale>
<asrwt>0</asrwt>
<pdfrwt beam="1">  1        2 0.64711980E+00 0.58722414E+04</pdfrwt>
<pdfrwt beam="2">  1       -2 0.31530903E+00 0.58722414E+04</pdfrwt>
<totfact> 0.32467211E-03</totfact>
</mgrwt>
<rwgt>
<wgt id='morphing_basis_vector_1'> +1.4734830e-06 </wgt>
<wgt id='morphing_basis_vector_2'> +1.0592957e-06 </wgt>
<wgt id='morphing_basis_vector_3'> +1.6393005e-06 </wgt>
<wgt id='morphing_basis_vector_4'> +1.1025180e-06 </wgt>
<wgt id='morphing_basis_vector_5'> +1.8403897e-06 </wgt>
</rwgt>
</event>
<event>
 4      1 +9.0096000e-12 5.58383200e+03 7.81860800e-03 7.30962200e-02
        2 -1    0    0  501    0 +0.0000000000e+00 +0.0000000000e+00 +2.9960263525e+03 2.9960263525e+03 0.0000000000e+00 0.0000e+00 -1.0000e+00
       -2 -1    0    0    0  501 -0.0000000000e+00 -0.0000000000e+00 -2.6017106658e+03 2.6017106658e+03 0.0000000000e+00 0.0000e+00 1.0000e+00
      -13  1    1    2    0    0 -2.4672210929e+03 +5.6558427134e+02 -9.8379455827e+02 2.7156798821e+03 0.0000000000e+00 0.0000e+00 1.0000e+00
       13  1    1    2    0    0 +2.4672210929e+03 -5.6558427134e+02 +1.3781102449e+03 2.8820571362e+03 0.0000000000e+00 0.0000e+00 -1.0000e+00
<mgrwt>
<rscale>  0 0.55838316E+04</rscale>
<asrwt>0</asrwt>
<pdfrwt beam="1">  1        2 0.46092713E+00 0.55838316E+04</pdfrwt>
<pdfrwt beam="2">  1       -2 0.40026318E+00 0.55838316E+04</pdfrwt>
<totfact> 0.78134787E-03</totfact>
</mgrwt>
<rwgt>
<wgt id='morphing_basis_vector_1'> +1.1922060e-06 </wgt>
<wgt id='morphing_basis_vector_2'> +8.2792135e-07 </wgt>
<wgt id='morphing_basis_vector_3'> +1.3189583e-06 </wgt>
<wgt id='morphing_basis_vector_4'> +9.2880450e-07 </wgt>
<wgt id='morphing_basis_vector_5'> +1.5062204e-06 </wgt>
</rwgt>
</event>
<event>
 4      1 +9.0096000e-12 6.59928500e+03 7.81860800e-03 7.19925800e-02
        2 -1    0    0  501    0 +0.0000000000e+00 +0.0000000000e+00 +4.1446345636e+03 4.1446345636e+03 0.0000000000e+00 0.0000e+00 1.0000e+00
       -2 -1    0    0    0  501 -0.0000000000e+00 -0.0000000000e+00 -2.6269243725e+03 2.6269243725e+03 0.0000000000e+00 0.0000e+00 -1.0000e+00
      -13  1    1    2    0    0 -1.9452649197e+03 -7.6733154640e+02 -1.8601835802e+03 2.7987740641e+03 0.0000000000e+00 0.0000e+00 -1.0000e+00
       13  1    1    2    0    0 +1.9452649197e+03 +7.6733154640e+02 +3.3778937713e+03 3.9727848721e+03 0.0000000000e+00 0.0000e+00 1.0000e+00
<mgrwt>
<rscale>  0 0.65992853E+04</rscale>
<asrwt>0</asrwt>
<pdfrwt beam="1">  1        2 0.63763609E+00 0.65992853E+04</pdfrwt>
<pdfrwt beam="2">  1       -2 0.40414221E+00 0.65992853E+04</pdfrwt>
<totfact> 0.92413974E-04</totfact>
</mgrwt>
<rwgt>
<wgt id='morphing_basis_vector_1'> +2.3087452e-06 </wgt>
<wgt id='morphing_basis_vector_2'> +1.5738615e-06 </wgt>
<wgt id='morphing_basis_vector_3'> +2.5505791e-06 </wgt>
<wgt id='morphing_basis_vector_4'> +1.8441644e-06 </wgt>
<wgt id='morphing_basis_vector_5'> +2.9453660e-06 </wgt>
</rwgt>
</event>
<event>
 4      1 +9.0096000e-12 5.61358900e+03 7.81860800e-03 7.30605700e-02
        2 -1    0    0  501    0 +0.0000000000e+00 +0.0000000000e+00 +2.6792594760e+03 2.6792594760e+03 0.0000000000e+00 0.0000e+00 -1.0000e+00
       -2 -1    0    0    0  501 -0.0000000000e+00 -0.0000000000e+00 -2.9404004251e+03 2.9404004251e+03 0.0000000000e+00 0.0000e+00 1.0000e+00
      -13  1    1    2    0    0 +2.1438153585e+03 +1.2717928894e+03 -1.4221960977e+03 2.8698507253e+03 0.0000000000e+00 0.0000e+00 1.0000e+00
       13  1    1    2    0    0 -2.1438153585e+03 -1.2717928894e+03 +1.1610551486e+03 2.7498091758e+03 0.0000000000e+00 0.0000e+00 -1.0000e+00
<mgrwt>
<rscale>  0 0.56135891E+04</rscale>
<asrwt>0</asrwt>
<pdfrwt beam="1">  1        2 0.41219376E+00 0.56135891E+04</pdfrwt>
<pdfrwt beam="2">  1       -2 0.45236930E+00 0.56135891E+04</pdfrwt>
<totfact> 0.55209422E-03</totfact>
</mgrwt>
<rwgt>
<wgt id='morphing_basis_vector_1'> +1.2164049e-06 </wgt>
<wgt id='morphing_basis_vector_2'> +8.4172544e-07 </wgt>
<wgt id='morphing_basis_vector_3'> +1.3450947e-06 </wgt>
<wgt id='morphing_basis_vector_4'> +9.5169913e-07 </wgt>
<wgt id='morphing_basis_vector_5'> +1.5389111e-06 </wgt>
</rwgt>
</event>
<event>
 4      1 +9.0096000e-12 5.82521900e+03 7.81860800e-03 7.28133600e-02
        2 -1    0    0  501    0 +0.0000000000e+00 +0.0000000000e+00 +4.3585272334e+03 4.3585272334e+03 0.0000000000e+00 0.0000e+00 1.0000e+00
       -2 -1    0    0    0  501 -0.0000000000e+00 -0.0000000000e+00 -1.9463674192e+03 1.9463674192e+03 0.0000000000e+00 0.0000e+00 -1.0000e+00
      -13  1    1    2    0    0 +2.5927195780e+03 -3.5644500024e+02 -1.7747974776e+02 2.6231177841e+03 0.0000000000e+00 0.0000e+00 -1.0000e+00
       13  1    1    2    0    0 -2.5927195780e+03 +3.5644500024e+02 +2.5896395620e+03 3.6817768685e+03 0.0000000000e+00 0.0000e+00 1.0000e+00
<mgrwt>
<rscale>  0 0.58252194E+04</rscale>
<asrwt>0</asrwt>
<pdfrwt beam="1">  1        2 0.67054265E+00 0.58252194E+04</pdfrwt>
<pdfrwt beam="2">  1       -2 0.29944114E+00 0.58252194E+04</pdfrwt>
<totfact> 0.29856999E-03</totfact>
</mgrwt>
<rwgt>
<wgt id='morphing_basis_vector_1'> +1.4107847e-06 </wgt>
<wgt id='morphing_basis_vector_2'> +9.7832245e-07 </wgt>
<wgt id='morphing_basis_vector_3'> +1.5610308e-06 </wgt>
<wgt id='morphing_basis_vector_4'> +1.1021341e-06 </wgt>
<wgt id='morphing_basis_vector_5'> +1.7849219e-06 </wgt>
</rwgt>
</event>
<event>
 4      1 +9.0096000e-12 6.17138500e+03 7.81860800e-03 7.24312100e-02
        2 -1    0    0  501    0 +0.0000000000e+00 +0.0000000000e+00 +3.9440955376e+03 3.9440955376e+03 0.0000000000e+00 0.0000e+00 -1.0000e+00
       -2 -1    0    0    0  501 -0.0000000000e+00 -0.0000000000e+00 -2.4141147672e+03 2.4141147672e+03 0.0000000000e+00 0.0000e+00 1.0000e+00
      -13  1    1    2    0    0 -3.0614714906e+03 -2.9133961242e+02 +5.0432358887e+02 3.1163807116e+03 0.0000000000e+00 0.0000e+00 1.0000e+00
       13  1    1    2    0    0 +3.0614714906e+03 +2.9133961242e+02 +1.0256571815e+03 3.2418295932e+03 0.0000000000e+00 0.0000e+00 -1.0000e+00
<mgrwt>
<rscale>  0 0.61713853E+04</rscale>
<asrwt>0</asrwt>
<pdfrwt beam="1">  1        2 0.60678393E+00 0.61713853E+04</pdfrwt>
<pdfrwt beam="2">  1       -2 0.37140227E+00 0.61713853E+04</pdfrwt>
<totfact> 0.23207077E-03</totfact>
</mgrwt>
<rwgt>
<wgt id='morphing_basis_vector_1'> +1.8136283e-06 </wgt>
<wgt id='morphing_basis_vector_2'> +1.3417664e-06 </wgt>
<wgt id='morphing_basis_vector_3'> +2.0274688e-06 </wgt>
<wgt id='morphing_basis_vector_4'> +1.3091737e-06 </wgt>
<wgt id='morphing_basis_vector_5'> +2.2429585e-06 </wgt>
</rwgt>
</event>
<event>
 4      1 +9.0096000e-12 6.58793900e+03 7.81860800e-03 7.20037700e-02
        2 -1    0    0  501    0 +0.0000000000e+00 +0.0000000000e+00 +2.0412434389e+03 2.0412434389e+03 0.0000000000e+00 0.0000e+00 1.0000e+00
       -2 -1    0    0    0  501 -0.0000000000e+00 -0.0000000000e+00 -5.3155024680e+03 5.3155024680e+03 0.0000000000e+00 0.0000e+00 -1.0000e+00
      -13  1    1    2    0    0 -9.5022564949e+02 +1.7797180440e+03 -4.5448197903e+03 4.9724955533e+03 0.0000000000e+00 0.0000e+00 -1.0000e+00
       13  1    1    2    0    0 +9.5022564949e+02 -1.7797180440e+03 +1.2705607612e+03 2.3842503537e+03 0.0000000000e+00 0.0000e+00 1.0000e+00
<mgrwt>
<rscale>  0 0.65879388E+04</rscale>
<asrwt>0</asrwt>
<pdfrwt beam="1">  1        2 0.31403746E+00 0.65879388E+04</pdfrwt>
<pdfrwt beam="2">  1       -2 0.81776959E+00 0.65879388E+04</pdfrwt>
<totfact> 0.44254128E-04</totfact>
</mgrwt>
<rwgt>
<wgt id='morphing_basis_vector_1'> +2.2926941e-06 </wgt>
<wgt id='morphing_basis_vector_2'> +1.5623579e-06 </wgt>
<wgt id='morphing_basis_vector_3'> +2.5326860e-06 </wgt>
<wgt id='morphing_basis_vector_4'> +1.8320140e-06 </wgt>
<wgt id='morphing_basis_vector_5'> +2.9251691e-06 </wgt>
</rwgt>
</event>
<event>
 4      1 +9.0096000e-12 5.84196400e+03 7.81860800e-03 7.27942600e-02
        2 -1    0    0  501    0 +0.0000000000e+00 +0.0000000000e+00 +3.7183031449e+03 3.7183031449e+03 0.0000000000e+00 0.0000e+00 -1.0000e+00
       -2 -1    0    0    0  501 -0.0000000000e+00 -0.0000000000e+00 -2.2946317955e+03 2.2946317955e+03 0.0000000000e+00 0.0000e+00 1.0000e+00
      -13  1    1    2    0    0 +4.5426640167e+02 -1.3004070359e+03 -1.9393424941e+03 2.3787529783e+03 0.0000000000e+00 0.0000e+00 1.0000e+00
       13  1    1    2    0    0 -4.5426640167e+02 +1.3004070359e+03 +3.3630138434e+03 3.6341819621e+03 0.0000000000e+00 0.0000e+00 -1.0000e+00
<mgrwt>
<rscale>  0 0.58419643E+04</rscale>
<asrwt>0</asrwt>
<pdfrwt beam="1">  1        2 0.57204664E+00 0.58419643E+04</pdfrwt>
<pdfrwt beam="2">  1       -2 0.35302028E+00 0.58419643E+04</pdfrwt>
<totfact> 0.47527344E-03</totfact>
</mgrwt>
<rwgt>
<wgt id='morphing_basis_vector_1'> +1.4185937e-06 </wgt>
<wgt id='morphing_basis_vector_2'> +9.6482537e-07 </wgt>
<wgt id='morphing_basis_vector_3'> +1.5652798e-06 </wgt>
<wgt id='morphing_basis_vector_4'> +1.1329422e-06 </wgt>
<wgt id='morphing_basis_vector_5'> +1.8070998e-06 </wgt>
</rwgt>
</event>
<event>
 4      1 +9.0096000e-12 5.82164500e+03 7.81860800e-03 7.28174500e-02
        2 -1    0    0  501    0 +0.0000000000e+00 +0.0000000000e+00 +3.1694755939e+03 3.1694755939e+03 0.0000000000e+00 0.0000e+00 -1.0000e+00
       -2 -1    0    0    0  501 -0.0000000000e+00 -0.0000000000e+00 -2.6732772445e+03 2.6732772445e+03 0.0000000000e+00 0.0000e+00 1.0000e+00
      -13  1    1    2    0    0 +9.9729250886e+02 +2.7232695433e+03 +4.9819665665e+02 2.9426160576e+03 0.0000000000e+00 0.0000e+00 1.0000e+00
       13  1    1    2    0    0 -9.9729250886e+02 -2.7232695433e+03 -1.9983072360e+00 2.9001367808e+03 0.0000000000e+00 0.0000e+00 -1.0000e+00
<mgrwt>
<rscale>  0 0.58216448E+04</rscale>
<asrwt>0</asrwt>
<pdfrwt beam="1">  1        2 0.48761163E+00 0.58216448E+04</pdfrwt>
<pdfrwt beam="2">  1       -2 0.41127342E+00 0.58216448E+04</pdfrwt>
<totfact> 0.49858624E-03</totfact>
</mgrwt>
<rwgt>
<wgt id='morphing_basis_vector_1'> +1.4685428e-06 </wgt>
<wgt id='morphing_basis_vector_2'> +1.1555994e-06 </wgt>
<wgt id='morphing_basis_vector_3'> +1.6570614e-06 </wgt>
<wgt id='morphing_basis_vector_4'> +9.6856292e-07 </wgt>
<wgt id='morphing_basis_vector_5'> +1.7695325e-06 </wgt>
</rwgt>
</event>
<event>
 4      1 +9.0096000e-12 6.04502500e+03 7.81860800e-03 7.25676800e-02
        2 -1    0    0  501    0 +0.0000000000e+00 +0.0000000000e+00 +3.5859118252e+03 3.5859118252e+03 0.0000000000e+00 0.0000e+00 -1.0000e+00
       -2 -1    0    0    0  501 -0.0000000000e+00 -0.0000000000e+00 -2.5476313653e+03 2.5476313653e+03 0.0000000000e+00 0.0000e+00 1.0000e+00
      -13  1    1    2    0    0 -1.7885859859e+03 -1.8720763617e+03 -1.0631409603e+03 2.7989245139e+03 0.0000000000e+00 0.0000e+00 1.0000e+00
       13  1    1    2    0    0 +1.7885859859e+03 +1.8720763617e+03 +2.1014214202e+03 3.3346186766e+03 0.0000000000e+00 0.0000e+00 -1.0000e+00
<mgrwt>
<rscale>  0 0.60450249E+04</rscale>
<asrwt>0</asrwt>
<pdfrwt beam="1">  1        2 0.55167874E+00 0.60450249E+04</pdfrwt>
<pdfrwt beam="2">  1       -2 0.39194329E+00 0.60450249E+04</pdfrwt>
<totfact> 0.33160826E-03</totfact>
</mgrwt>
<rwgt>
<wgt id='morphing_basis_vector_1'> +1.6322734e-06 </wgt>
<wgt id='morphing_basis_vector_2'> +1.1248872e-06 </wgt>
<wgt id='morphing_basis_vector_3'> +1.8049991e-06 </wgt>
<wgt id='morphing_basis_vector_4'> +1.2854821e-06 </wgt>
<wgt id='morphing_basis_vector_5'> +2.0712341e-06 </wgt>
</rwgt>
</event>
<event>
 4      1 +9.0096000e-12 6.37327800e+03 7.81860800e-03 7.22199000e-02
        2 -1    0    0  501    0 +0.0000000000e+00 +0.0000000000e+00 +4.1023895901e+03 4.1023895901e+03 0.0000000000e+00 0.0000e+00 -1.0000e+00
       -2 -1    0    0    0  501 -0.0000000000e+00 -0.0000000000e+00 -2.4753059593e+03 2.4753059593e+03 0.0000000000e+00 0.0000e+00 1.0000e+00
      -13  1    1    2    0    0 +9.1309579867e+02 +2.8769475812e+03 -2.4104302977e+02 3.0279816817e+03 0.0000000000e+00 0.0000e+00 1.0000e+00
       13  1    1    2    0    0 -9.1309579867e+02 -2.8769475812e+03 +1.8681266605e+03 3.5497138677e+03 0.0000000000e+00 0.0000e+00 -1.0000e+00
<mgrwt>
<rscale>  0 0.63732784E+04</rscale>
<asrwt>0</asrwt>
<pdfrwt beam="1">  1        2 0.63113686E+00 0.63732784E+04</pdfrwt>
<pdfrwt beam="2">  1       -2 0.38081630E+00 0.63732784E+04</pdfrwt>
<totfact> 0.14532423E-03</totfact>
</mgrwt>
<rwgt>
<wgt id='morphing_basis_vector_1'> +2.0286669e-06 </wgt>
<wgt id='morphing_basis_vector_2'> +1.4272428e-06 </wgt>
<wgt id='morphing_basis_vector_3'> +2.2510866e-06 </wgt>
<wgt id='morphing_basis_vector_4'> +1.5614804e-06 </wgt>
<wgt id='morphing_basis_vector_5'> +2.5579066e-06 </wgt>
</rwgt>
</event>
<event>
 4      1 +9.0096000e-12 5.82870400e+03 7.81860800e-03 7.28093800e-02
        2 -1    0    0  501    0 +0.0000000000e+00 +0.0000000000e+00 +2.8304608746e+03 2.8304608746e+03 0.0000000000e+00 0.0000e+00 -1.0000e+00
       -2 -1    0    0    0  501 -0.0000000000e+00 -0.0000000000e+00 -3.0007297485e+03 3.0007297485e+03 0.0000000000e+00 0.0000e+00 1.0000e+00
      -13  1    1    2    0    0 +2.2296207476e+03 -1.8149656588e+03 +3.9270843442e+02 2.9016424547e+03 0.0000000000e+00 0.0000e+00 1.0000e+00
       13  1    1    2    0    0 -2.2296207476e+03 +1.8149656588e+03 -5.6297730829e+02 2.9295481683e+03 0.0000000000e+00 0.0000e+00 -1.0000e+00
<mgrwt>
<rscale>  0 0.58287042E+04</rscale>
<asrwt>0</asrwt>
<pdfrwt beam="1">  1        2 0.43545552E+00 0.58287042E+04</pdfrwt>
<pdfrwt beam="2">  1       -2 0.46165073E+00 0.58287042E+04</pdfrwt>
<totfact> 0.37594088E-03</totfact>
</mgrwt>
<rwgt>
<wgt id='morphing_basis_vector_1'> +1.4973089e-06 </wgt>
<wgt id='morphing_basis_vector_2'> +1.2247507e-06 </wgt>
<wgt id='morphing_basis_vector_3'> +1.7004324e-06 </wgt>
<wgt id='morphing_basis_vector_4'> +9.2699830e-07 </wgt>
<wgt id='morphing_basis_vector_5'> +1.7742599e-06 </wgt>
</rwgt>
</event>
<event>
 4      1 +9.0096000e-12 6.00106800e+03 7.81860800e-03 7.26159500e-02
        2 -1    0    0  501    0 +0.0000000000e+00 +0.0000000000e+00 +4.0592126888e+03 4.0592126888e+03 0.0000000000e+00 0.0000e+00 -1.0000e+00
       -2 -1    0    0    0  501 -0.0000000000e+00 -0.0000000000e+00 -2.2179681156e+03 2.2179681156e+03 0.0000000000e+00 0.0000e+00 1.0000e+00
      -13  1    1    2    0    0 -1.9878257027e+03 -1.4927229134e+03 -8.3702778185e+02 2.6230303521e+03 0.0000000000e+00 0.0000e+00 1.0000e+00
       13  1    1    2    0    0 +1.9878257027e+03 +1.4927229134e+03 +2.6782723551e+03 3.6541504523e+03 0.0000000000e+00 0.0000e+00 -1.0000e+00
<mgrwt>
<rscale>  0 0.60010680E+04</rscale>
<asrwt>0</asrwt>
<pdfrwt beam="1">  1        2 0.62449426E+00 0.60010680E+04</pdfrwt>
<pdfrwt beam="2">  1       -2 0.34122586E+00 0.60010680E+04</pdfrwt>
<totfact> 0.29354623E-03</totfact>
</mgrwt>
<rwgt>
<wgt id='morphing_basis_vector_1'> +1.5839988e-06 </wgt>
<wgt id='morphing_basis_vector_2'> +1.0883904e-06 </wgt>
<wgt id='morphing_basis_vector_3'> +1.7507588e-06 </wgt>
<wgt id='morphing_basis_vector_4'> +1.2514538e-06 </wgt>
<wgt id='morphing_basis_vector_5'> +2.0117706e-06 </wgt>
</rwgt>
</event>
<event>
 4      1 +9.0096000e-12 5.58409500e+03 7.81860800e-03 7.30959100e-02
        2 -1    0    0  501    0 +0.0000000000e+00 +0.0000000000e+00 +3.7391908267e+03 3.7391908267e+03 0.0000000000e+00 0.0000e+00 -1.0000e+00
       -2 -1    0    0    0  501 -0.0000000000e+00 -0.0000000000e+00 -2.0848169614e+03 2.0848169614e+03 0.0000000000e+00 0.0000e+00 1.0000e+00
      -13  1    1    2    0    0 +1.1499890734e+02 +2.5795497980e+03 -2.8062828921e+02 2.5973167203e+03 0.0000000000e+00 0.0000e+00 1.0000e+00
       13  1    1    2    0    0 -1.1499890734e+02 -2.5795497980e+03 +1.9350021545e+03 3.2266910678e+03 0.0000000000e+00 0.0000e+00 -1.0000e+00
<mgrwt>
<rscale>  0 0.55840947E+04</rscale>
<asrwt>0</asrwt>
<pdfrwt beam="1">  1        2 0.57526013E+00 0.55840947E+04</pdfrwt>
<pdfrwt beam="2">  1       -2 0.32074107E+00 0.55840947E+04</pdfrwt>
<totfact> 0.75946436E-03</totfact>
</mgrwt>
<rwgt>
<wgt id='morphing_basis_vector_1'> +1.1941130e-06 </wgt>
<wgt id='morphing_basis_vector_2'> +8.3301761e-07 </wgt>
<wgt id='morphing_basis_vector_3'> +1.3219488e-06 </wgt>
<wgt id='morphing_basis_vector_4'> +9.2538520e-07 </wgt>
<wgt id='morphing_basis_vector_5'> +1.5062031e-06 </wgt>
</rwgt>
</event>
<event>
 4      1 +9.0096000e-12 5.57414300e+03 7.81860800e-03 7.31078800e-02
        2 -1    0    0  501    0 +0.0000000000e+00 +0.0000000000e+00 +2.0558840262e+03 2.0558840262e+03 0.0000000000e+00 0.0000e+00 -1.0000e+00
       -2 -1    0    0    0  501 -0.0000000000e+00 -0.0000000000e+00 -3.7783103287e+03 3.7783103287e+03 0.0000000000e+00 0.0000e+00 1.0000e+00
      -13  1    1    2    0    0 +3.3705829799e+02 -2.4041691336e+03 -2.2940695682e+03 3.3401186660e+03 0.0000000000e+00 0.0000e+00 1.0000e+00
       13  1    1    2    0    0 -3.3705829799e+02 +2.4041691336e+03 +5.7164326569e+02 2.4940756890e+03 0.0000000000e+00 0.0000e+00 -1.0000e+00
<mgrwt>
<rscale>  0 0.55741431E+04</rscale>
<asrwt>0</asrwt>
<pdfrwt beam="1">  1        2 0.31628985E+00 0.55741431E+04</pdfrwt>
<pdfrwt beam="2">  1       -2 0.58127852E+00 0.55741431E+04</pdfrwt>
<totfact> 0.14561867E-03</totfact>
</mgrwt>
<rwgt>
<wgt id='morphing_basis_vector_1'> +1.1816980e-06 </wgt>
<wgt id='morphing_basis_vector_2'> +8.1551219e-07 </wgt>
<wgt id='morphing_basis_vector_3'> +1.3061196e-06 </wgt>
<wgt id='morphing_basis_vector_4'> +9.2722271e-07 </wgt>
<wgt id='morphing_basis_vector_5'> +1.4961761e-06 </wgt>
</rwgt>
</event>
<event>
 4      1 +9.0096000e-12 5.99759800e+03 7.81860800e-03 7.26197800e-02
        2 -1    0    0  501    0 +0.0000000000e+00 +0.0000000000e+00 +1.8314981363e+03 1.8314981363e+03 0.0000000000e+00 0.0000e+00 -1.0000e+00
       -2 -1    0    0    0  501 -0.0000000000e+00 -0.0000000000e+00 -4.9100757917e+03 4.9100757917e+03 0.0000000000e+00 0.0000e+00 1.0000e+00
      -13  1    1    2    0    0 +1.9394042776e+01 -2.5429854661e+03 -3.3256529492e+03 4.1865401883e+03 0.0000000000e+00 0.0000e+00 1.0000e+00
       13  1    1    2    0    0 -1.9394042776e+01 +2.5429854661e+03 +2.4707529381e+02 2.5550337396e+03 0.0000000000e+00 0.0000e+00 -1.0000e+00
<mgrwt>
<rscale>  0 0.59975977E+04</rscale>
<asrwt>0</asrwt>
<pdfrwt beam="1">  1        2 0.28176894E+00 0.59975977E+04</pdfrwt>
<pdfrwt beam="2">  1       -2 0.75539628E+00 0.59975977E+04</pdfrwt>
<totfact> 0.64058686E-04</totfact>
</mgrwt>
<rwgt>
<wgt id='morphing_basis_vector_1'> +1.5812840e-06 </wgt>
<wgt id='morphing_basis_vector_2'> +1.0886296e-06 </wgt>
<wgt id='morphing_basis_vector_3'> +1.7482442e-06 </wgt>
<wgt id='morphing_basis_vector_4'> +1.2465496e-06 </wgt>
<wgt id='morphing_basis_vector_5'> +2.0069422e-06 </wgt>
</rwgt>
</event>
<event>
 4      1 +9.0096000e-12 5.58016400e+03 7.81860800e-03 7.31006300e-02
        2 -1    0    0  501    0 +0.0000000000e+00 +0.0000000000e+00 +3.0233398544e+03 3.0233398544e+03 0.0000000000e+00 0.0000e+00 1.0000e+00
       -2 -1    0    0    0  501 -0.0000000000e+00 -0.0000000000e+00 -2.5748208224e+03 2.5748208224e+03 0.0000000000e+00 0.0000e+00 -1.0000e+00
      -13  1    1    2    0    0 +1.1187288523e+03 +1.3083845098e+03 +2.4270489284e+03 2.9755656220e+03 0.0000000000e+00 0.0000e+00 1.0000e+00
       13  1    1    2    0    0 -1.1187288523e+03 -1.3083845098e+03 -1.9785298964e+03 2.6225950548e+03 0.0000000000e+00 0.0000e+00 -1.0000e+00
<mgrwt>
<rscale>  0 0.55801643E+04</rscale>
<asrwt>0</asrwt>
<pdfrwt beam="1">  1        2 0.46512921E+00 0.55801643E+04</pdfrwt>
<pdfrwt beam="2">  1       -2 0.39612628E+00 0.55801643E+04</pdfrwt>
<totfact> 0.79816742E-03</totfact>
</mgrwt>
<rwgt>
<wgt id='morphing_basis_vector_1'> +1.5694501e-06 </wgt>
<wgt id='morphing_basis_vector_2'> +1.9423920e-06 </wgt>
<wgt id='morphing_basis_vector_3'> +1.9352189e-06 </wgt>
<wgt id='morphing_basis_vector_4'> +1.1384967e-07 </wgt>
<wgt id='morphing_basis_vector_5'> +1.4339960e-06 </wgt>
</rwgt>
</event>
<event>
 4      1 +9.0096000e-12 5.64091100e+03 7.81860800e-03 7.30280400e-02
        2 -1    0    0  501    0 +0.0000000000e+00 +0.0000000000e+00 +3.3769570850e+03 3.3769570850e+03 0.0000000000e+00 0.0000e+00 -1.0000e+00
       -2 -1    0    0    0  501 -0.0000000000e+00 -0.0000000000e+00 -2.3556619546e+03 2.3556619546e+03 0.0000000000e+00 0.0000e+00 1.0000e+00
      -13  1    1    2    0    0 +2.3207747817e+03 +1.4865704876e+03 +1.1196241635e+03 2.9748017867e+03 0.0000000000e+00 0.0000e+00 1.0000e+00
       13  1    1    2    0    0 -2.3207747817e+03 -1.4865704876e+03 -9.8329033132e+01 2.7578172530e+03 0.0000000000e+00 0.0000e+00 -1.0000e+00
<mgrwt>
<rscale>  0 0.56409110E+04</rscale>
<asrwt>0</asrwt>
<pdfrwt beam="1">  1        2 0.51953186E+00 0.56409110E+04</pdfrwt>
<pdfrwt beam="2">  1       -2 0.36240953E+00 0.56409110E+04</pdfrwt>
<totfact> 0.75323139E-03</totfact>
</mgrwt>
<rwgt>
<wgt id='morphing_basis_vector_1'> +1.3281429e-06 </wgt>
<wgt id='morphing_basis_vector_2'> +1.1163903e-06 </wgt>
<wgt id='morphing_basis_vector_3'> +1.5148078e-06 </wgt>
<wgt id='morphing_basis_vector_4'> +7.8250328e-07 </wgt>
<wgt id='morphing_basis_vector_5'> +1.5533774e-06 </wgt>
</rwgt>
</event>
<event>
 4      1 +9.0096000e-12 5.65035400e+03 7.81860800e-03 7.30168400e-02
        2 -1    0    0  501    0 +0.0000000000e+00 +0.0000000000e+00 +2.8644515061e+03 2.8644515061e+03 0.0000000000e+00 0.0000e+00 -1.0000e+00
       -2 -1    0    0    0  501 -0.0000000000e+00 -0.0000000000e+00 -2.7864413125e+03 2.7864413125e+03 0.0000000000e+00 0.0000e+00 1.0000e+00
      -13  1    1    2    0    0 +1.3280594867e+03 -8.6419628244e+02 -2.3002451356e+03 2.7931532179e+03 0.0000000000e+00 0.0000e+00 1.0000e+00
       13  1    1    2    0    0 -1.3280594867e+03 +8.6419628244e+02 +2.3782553292e+03 2.8577396008e+03 0.0000000000e+00 0.0000e+00 -1.0000e+00
<mgrwt>
<rscale>  0 0.56503543E+04</rscale>
<asrwt>0</asrwt>
<pdfrwt beam="1">  1        2 0.44068485E+00 0.56503543E+04</pdfrwt>
<pdfrwt beam="2">  1       -2 0.42868328E+00 0.56503543E+04</pdfrwt>
<totfact> 0.61286230E-03</totfact>
</mgrwt>
<rwgt>
<wgt id='morphing_basis_vector_1'> +1.2421003e-06 </wgt>
<wgt id='morphing_basis_vector_2'> +8.4517885e-07 </wgt>
<wgt id='morphing_basis_vector_3'> +1.3702424e-06 </wgt>
<wgt id='morphing_basis_vector_4'> +9.9061637e-07 </wgt>
<wgt id='morphing_basis_vector_5'> +1.5808764e-06 </wgt>
</rwgt>
</event>
<event>
 4      1 +9.0096000e-12 5.99581600e+03 7.81860800e-03 7.26217500e-02
        2 -1    0    0  501    0 +0.0000000000e+00 +0.0000000000e+00 +3.6829298157e+03 3.6829298157e+03 0.0000000000e+00 0.0000e+00 -1.0000e+00
       -2 -1    0    0    0  501 -0.0000000000e+00 -0.0000000000e+00 -2.4402999556e+03 2.4402999556e+03 0.0000000000e+00 0.0000e+00 1.0000e+00
      -13  1    1    2    0    0 +6.1102988357e+02 -2.8931230843e+03 +1.1692189146e+02 2.9592548772e+03 0.0000000000e+00 0.0000e+00 1.0000e+00
       13  1    1    2    0    0 -6.1102988357e+02 +2.8931230843e+03 +1.1257079687e+03 3.1639748941e+03 0.0000000000e+00 0.0000e+00 -1.0000e+00
<mgrwt>
<rscale>  0 0.59958164E+04</rscale>
<asrwt>0</asrwt>
<pdfrwt beam="1">  1        2 0.56660458E+00 0.59958164E+04</pdfrwt>
<pdfrwt beam="2">  1       -2 0.37543076E+00 0.59958164E+04</pdfrwt>
<totfact> 0.35909616E-03</totfact>
</mgrwt>
<rwgt>
<wgt id='morphing_basis_vector_1'> +1.6047041e-06 </wgt>
<wgt id='morphing_basis_vector_2'> +1.1615794e-06 </wgt>
<wgt id='morphing_basis_vector_3'> +1.7874679e-06 </wgt>
<wgt id='morphing_basis_vector_4'> +1.1909603e-06 </wgt>
<wgt id='morphing_basis_vector_5'> +2.0000028e-06 </wgt>
</rwgt>
</event>
<event>
 4      1 +9.0096000e-12 5.97417900e+03 7.81860800e-03 7.26456900e-02
        2 -1    0    0  501    0 +0.0000000000e+00 +0.0000000000e+00 +2.6894102702e+03 2.6894102702e+03 0.0000000000e+00 0.0000e+00 1.0000e+00
       -2 -1    0    0    0  501 -0.0000000000e+00 -0.0000000000e+00 -3.3177180060e+03 3.3177180060e+03 0.0000000000e+00 0.0000e+00 -1.0000e+00
      -13  1    1    2    0    0 +4.5451823591e+02 +2.6179476387e+03 +1.0580956302e+03 2.8600354943e+03 0.0000000000e+00 0.0000e+00 1.0000e+00
       13  1    1    2    0    0 -4.5451823591e+02 -2.6179476387e+03 -1.6864033659e+03 3.1470927820e+03 0.0000000000e+00 0.0000e+00 -1.0000e+00
<mgrwt>
<rscale>  0 0.59741794E+04</rscale>
<asrwt>0</asrwt>
<pdfrwt beam="1">  1        2 0.41375542E+00 0.59741794E+04</pdfrwt>
<pdfrwt beam="2">  1       -2 0.51041816E+00 0.59741794E+04</pdfrwt>
<totfact> 0.19820628E-03</totfact>
</mgrwt>
<rwgt>
<wgt id='morphing_basis_vector_1'> +1.8053161e-06 </wgt>
<wgt id='morphing_basis_vector_2'> +1.8012279e-06 </wgt>
<wgt id='morphing_basis_vector_3'> +2.1268616e-06 </wgt>
<wgt id='morphing_basis_vector_4'> +6.9555576e-07 </wgt>
<wgt id='morphing_basis_vector_5'> +1.9310007e-06 </wgt>
</rwgt>
</event>
<event>
 4      1 +9.0096000e-12 5.66417700e+03 7.81860800e-03 7.30004800e-02
        2 -1    0    0  501    0 +0.0000000000e+00 +0.0000000000e+00 +2.5288171046e+03 2.5288171046e+03 0.0000000000e+00 0.0000e+00 1.0000e+00
       -2 -1    0    0    0  501 -0.0000000000e+00 -0.0000000000e+00 -3.1717301058e+03 3.1717301058e+03 0.0000000000e+00 0.0000e+00 -1.0000e+00
      -13  1    1    2    0    0 +1.9401499365e+03 -2.0468131616e+03 -6.0757597814e+01 2.8208717412e+03 0.0000000000e+00 0.0000e+00 1.0000e+00
       13  1    1    2    0    0 -1.9401499365e+03 +2.0468131616e+03 -5.8215540340e+02 2.8796754692e+03 0.0000000000e+00 0.0000e+00 -1.0000e+00
<mgrwt>
<rscale>  0 0.56641770E+04</rscale>
<asrwt>0</asrwt>
<pdfrwt beam="1">  1        2 0.38904879E+00 0.56641770E+04</pdfrwt>
<pdfrwt beam="2">  1       -2 0.48795848E+00 0.56641770E+04</pdfrwt>
<totfact> 0.37415443E-03</totfact>
</mgrwt>
<rwgt>
<wgt id='morphing_basis_vector_1'> +1.3176309e-06 </wgt>
<wgt id='morphing_basis_vector_2'> +1.0394794e-06 </wgt>
<wgt id='morphing_basis_vector_3'> +1.4869831e-06 </wgt>
<wgt id='morphing_basis_vector_4'> +8.6497571e-07 </wgt>
<wgt id='morphing_basis_vector_5'> +1.5850636e-06 </wgt>
</rwgt>
</event>
<event>
 4      1 +9.0096000e-12 5.76015000e+03 7.81860800e-03 7.28882200e-02
        2 -1    0    0  501    0 +0.0000000000e+00 +0.0000000000e+00 +2.1427182565e+03 2.1427182565e+03 0.0000000000e+00 0.0000e+00 1.0000e+00
       -2 -1    0    0    0  501 -0.0000000000e+00 -0.0000000000e+00 -3.8711719234e+03 3.8711719234e+03 0.0000000000e+00 0.0000e+00 -1.0000e+00
      -13  1    1    2    0    0 +7.9412506182e+02 +1.4289620197e+03 -3.3398089576e+03 3.7184527617e+03 0.0000000000e+00 0.0000e+00 -1.0000e+00
       13  1    1    2    0    0 -7.9412506182e+02 -1.4289620197e+03 +1.6113552907e+03 2.2954374181e+03 0.0000000000e+00 0.0000e+00 1.0000e+00
<mgrwt>
<rscale>  0 0.57601496E+04</rscale>
<asrwt>0</asrwt>
<pdfrwt beam="1">  1        2 0.32964896E+00 0.57601496E+04</pdfrwt>
<pdfrwt beam="2">  1       -2 0.59556491E+00 0.57601496E+04</pdfrwt>
<totfact> 0.97863059E-04</totfact>
</mgrwt>
<rwgt>
<wgt id='morphing_basis_vector_1'> +1.3412629e-06 </wgt>
<wgt id='morphing_basis_vector_2'> +9.1282672e-07 </wgt>
<wgt id='morphing_basis_vector_3'> +1.4799196e-06 </wgt>
<wgt id='morphing_basis_vector_4'> +1.0700207e-06 </wgt>
<wgt id='morphing_basis_vector_5'> +1.7076949e-06 </wgt>
</rwgt>
</event>
<event>
 4      1 +9.0096000e-12 6.23451100e+03 7.81860800e-03 7.23642700e-02
        2 -1    0    0  501    0 +0.0000000000e+00 +0.0000000000e+00 +2.9842796532e+03 2.9842796532e+03 0.0000000000e+00 0.0000e+00 -1.0000e+00
       -2 -1    0    0    0  501 -0.0000000000e+00 -0.0000000000e+00 -3.2561562752e+03 3.2561562752e+03 0.0000000000e+00 0.0000e+00 1.0000e+00
      -13  1    1    2    0    0 -2.9958924753e+03 +3.1370202730e+02 -9.3888536396e+02 3.1551999005e+03 0.0000000000e+00 0.0000e+00 1.0000e+00
       13  1    1    2    0    0 +2.9958924753e+03 -3.1370202730e+02 +6.6700874202e+02 3.0852360279e+03 0.0000000000e+00 0.0000e+00 -1.0000e+00
<mgrwt>
<rscale>  0 0.62345107E+04</rscale>
<asrwt>0</asrwt>
<pdfrwt beam="1">  1        2 0.45911995E+00 0.62345107E+04</pdfrwt>
<pdfrwt beam="2">  1       -2 0.50094712E+00 0.62345107E+04</pdfrwt>
<totfact> 0.14906320E-03</totfact>
</mgrwt>
<rwgt>
<wgt id='morphing_basis_vector_1'> +1.8639361e-06 </wgt>
<wgt id='morphing_basis_vector_2'> +1.3244374e-06 </wgt>
<wgt id='morphing_basis_vector_3'> +2.0710424e-06 </wgt>
<wgt id='morphing_basis_vector_4'> +1.4169312e-06 </wgt>
<wgt id='morphing_basis_vector_5'> +2.3408228e-06 </wgt>
</rwgt>
</event>
<event>
 4      1 +9.0096000e-12 5.93352600e+03 7.81860800e-03 7.26909500e-02
        2 -1    0    0  501    0 +0.0000000000e+00 +0.0000000000e+00 +2.6921417329e+03 2.6921417329e+03 0.0000000000e+00 0.0000e+00 -1.0000e+00
       -2 -1    0    0    0  501 -0.0000000000e+00 -0.0000000000e+00 -3.2693976902e+03 3.2693976902e+03 0.0000000000e+00 0.0000e+00 1.0000e+00
      -13  1    1    2    0    0 -1.6168030230e+03 -2.3486243509e+03 -1.1120052323e+03 3.0604973442e+03 0.0000000000e+00 0.0000e+00 1.0000e+00
       13  1    1    2    0    0 +1.6168030230e+03 +2.3486243509e+03 +5.3474927495e+02 2.9010420790e+03 0.0000000000e+00 0.0000e+00 -1.0000e+00
<mgrwt>
<rscale>  0 0.59335258E+04</rscale>
<asrwt>0</asrwt>
<pdfrwt beam="1">  1        2 0.41417565E+00 0.59335258E+04</pdfrwt>
<pdfrwt beam="2">  1       -2 0.50298426E+00 0.59335258E+04</pdfrwt>
<totfact> 0.22512022E-03</totfact>
</mgrwt>
<rwgt>
<wgt id='morphing_basis_vector_1'> +1.5283375e-06 </wgt>
<wgt id='morphing_basis_vector_2'> +1.0822224e-06 </wgt>
<wgt id='morphing_basis_vector_3'> +1.6966079e-06 </wgt>
<wgt id='morphing_basis_vector_4'> +1.1653615e-06 </wgt>
<wgt id='morphing_basis_vector_5'> +1.9199529e-06 </wgt>
</rwgt>
</event>
<event>
 4      1 +9.0096000e-12 6.33079200e+03 7.81860800e-03 7.22637000e-02
        2 -1    0    0  501    0 +0.0000000000e+00 +0.0000000000e+00 +3.9454984008e+03 3.9454984008e+03 0.0000000000e+00 0.0000e+00 1.0000e+00
       -2 -1    0    0    0  501 -0.0000000000e+00 -0.0000000000e+00 -2.5395349152e+03 2.5395349152e+03 0.0000000000e+00 0.0000e+00 -1.0000e+00
      -13  1    1    2    0    0 +2.4746485233e+03 -1.9348047213e+03 +3.0311716695e+02 3.1558255085e+03 0.0000000000e+00 0.0000e+00 -1.0000e+00
       13  1    1    2    0    0 -2.4746485233e+03 +1.9348047213e+03 +1.1028463187e+03 3.3292078075e+03 0.0000000000e+00 0.0000e+00 1.0000e+00
<mgrwt>
<rscale>  0 0.63307917E+04</rscale>
<asrwt>0</asrwt>
<pdfrwt beam="1">  1        2 0.60699976E+00 0.63307917E+04</pdfrwt>
<pdfrwt beam="2">  1       -2 0.39069768E+00 0.63307917E+04</pdfrwt>
<totfact> 0.17165813E-03</totfact>
</mgrwt>
<rwgt>
<wgt id='morphing_basis_vector_1'> +2.0002832e-06 </wgt>
<wgt id='morphing_basis_vector_2'> +1.4631591e-06 </wgt>
<wgt id='morphing_basis_vector_3'> +2.2326478e-06 </wgt>
<wgt id='morphing_basis_vector_4'> +1.4665116e-06 </wgt>
<wgt id='morphing_basis_vector_5'> +2.4857297e-06 </wgt>
</rwgt>
</event>
<event>
 4      1 +9.0096000e-12 6.47674500e+03 7.81860800e-03 7.21146700e-02
        2 -1    0    0  501    0 +0.0000000000e+00 +0.0000000000e+00 +4.3139559787e+03 4.3139559787e+03 0.0000000000e+00 0.0000e+00 1.0000e+00
       -2 -1    0    0    0  501 -0.0000000000e+00 -0.0000000000e+00 -2.4309603924e+03 2.4309603924e+03 0.0000000000e+00 0.0000e+00 -1.0000e+00
      -13  1    1    2    0    0 +2.2285412900e+03 -4.5788533586e+02 -1.4584840902e+03 2.7024490936e+03 0.0000000000e+00 0.0000e+00 -1.0000e+00
       13  1    1    2    0    0 -2.2285412900e+03 +4.5788533586e+02 +3.3414796764e+03 4.0424672776e+03 0.0000000000e+00 0.0000e+00 1.0000e+00
<mgrwt>
<rscale>  0 0.64767449E+04</rscale>
<asrwt>0</asrwt>
<pdfrwt beam="1">  1        2 0.66368553E+00 0.64767449E+04</pdfrwt>
<pdfrwt beam="2">  1       -2 0.37399391E+00 0.64767449E+04</pdfrwt>
<totfact> 0.10190537E-03</totfact>
</mgrwt>
<rwgt>
<wgt id='morphing_basis_vector_1'> +2.1433418e-06 </wgt>
<wgt id='morphing_basis_vector_2'> +1.4633488e-06 </wgt>
<wgt id='morphing_basis_vector_3'> +2.3680892e-06 </wgt>
<wgt id='morphing_basis_vector_4'> +1.7084720e-06 </wgt>
<wgt id='morphing_basis_vector_5'> +2.7320482e-06 </wgt>
</rwgt>
</event>
<event>
 4      1 +9.0096000e-12 5.62096000e+03 7.81860800e-03 7.30517800e-02
        2 -1    0    0  501    0 +0.0000000000e+00 +0.0000000000e+00 +4.1573307201e+03 4.1573307201e+03 0.0000000000e+00 0.0000e+00 1.0000e+00
       -2 -1    0    0    0  501 -0.0000000000e+00 -0.0000000000e+00 -1.8999685445e+03 1.8999685445e+03 0.0000000000e+00 0.0000e+00 -1.0000e+00
      -13  1    1    2    0    0 +2.2784024559e+03 -1.4455307047e+03 +1.9759187074e+03 3.3443880617e+03 0.0000000000e+00 0.0000e+00 1.0000e+00
       13  1    1    2    0    0 -2.2784024559e+03 +1.4455307047e+03 +2.8144346819e+02 2.7129112029e+03 0.0000000000e+00 0.0000e+00 -1.0000e+00
<mgrwt>
<rscale>  0 0.56209599E+04</rscale>
<asrwt>0</asrwt>
<pdfrwt beam="1">  1        2 0.63958934E+00 0.56209599E+04</pdfrwt>
<pdfrwt beam="2">  1       -2 0.29230285E+00 0.56209599E+04</pdfrwt>
<totfact> 0.52325313E-03</totfact>
</mgrwt>
<rwgt>
<wgt id='morphing_basis_vector_1'> +1.3325067e-06 </wgt>
<wgt id='morphing_basis_vector_2'> +1.1682421e-06 </wgt>
<wgt id='morphing_basis_vector_3'> +1.5309745e-06 </wgt>
<wgt id='morphing_basis_vector_4'> +7.2231348e-07 </wgt>
<wgt id='morphing_basis_vector_5'> +1.5273343e-06 </wgt>
</rwgt>
</event>
<event>
 4      1 +9.0096000e-12 6.08223700e+03 7.81860800e-03 7.25271400e-02
        2 -1    0    0  501    0 +0.0000000000e+00 +0.0000000000e+00 +5.0303250383e+03 5.0303250383e+03 0.0000000000e+00 0.0000e+00 -1.0000e+00
       -2 -1    0    0    0  501 -0.0000000000e+00 -0.0000000000e+00 -1.8385295059e+03 1.8385295059e+03 0.0000000000e+00 0.0000e+00 1.0000e+00
      -13  1    1    2    0    0 -2.2183649730e+03 -2.0752148476e+03 +1.4332538461e+03 3.3588504588e+03 0.0000000000e+00 0.0000e+00 1.0000e+00
       13  1    1    2    0    0 +2.2183649730e+03 +2.0752148476e+03 +1.7585416863e+03 3.5100040854e+03 0.0000000000e+00 0.0000e+00 -1.0000e+00
<mgrwt>
<rscale>  0 0.60822368E+04</rscale>
<asrwt>0</asrwt>
<pdfrwt beam="1">  1        2 0.77389616E+00 0.60822368E+04</pdfrwt>
<pdfrwt beam="2">  1       -2 0.28285069E+00 0.60822368E+04</pdfrwt>
<totfact> 0.64519174E-04</totfact>
</mgrwt>
<rwgt>
<wgt id='morphing_basis_vector_1'> +1.7175138e-06 </wgt>
<wgt id='morphing_basis_vector_2'> +1.2842144e-06 </wgt>
<wgt id='morphing_basis_vector_3'> +1.9229768e-06 </wgt>
<wgt id='morphing_basis_vector_4'> +1.2217085e-06 </wgt>
<wgt id='morphing_basis_vector_5'> +2.1147608e-06 </wgt>
</rwgt>
</event>
<event>
 4      1 +9.0096000e-12 6.07495700e+03 7.81860800e-03 7.25350500e-02
        2 -1    0    0  501    0 +0.0000000000e+00 +0.0000000000e+00 +3.1974187764e+03 3.1974187764e+03 0.0000000000e+00 0.0000e+00 -1.0000e+00
       -2 -1    0    0    0  501 -0.0000000000e+00 -0.0000000000e+00 -2.8855385994e+03 2.8855385994e+03 0.0000000000e+00 0.0000e+00 1.0000e+00
      -13  1    1    2    0    0 -2.1597499202e+03 +1.6098705939e+03 +1.5613811896e+03 3.1135372595e+03 0.0000000000e+00 0.0000e+00 1.0000e+00
       13  1    1    2    0    0 +2.1597499202e+03 -1.6098705939e+03 -1.2495010126e+03 2.9694201163e+03 0.0000000000e+00 0.0000e+00 -1.0000e+00
<mgrwt>
<rscale>  0 0.60749569E+04</rscale>
<asrwt>0</asrwt>
<pdfrwt beam="1">  1        2 0.49191058E+00 0.60749569E+04</pdfrwt>
<pdfrwt beam="2">  1       -2 0.44392901E+00 0.60749569E+04</pdfrwt>
<totfact> 0.28271629E-03</totfact>
</mgrwt>
<rwgt>
<wgt id='morphing_basis_vector_1'> +1.9339815e-06 </wgt>
<wgt id='morphing_basis_vector_2'> +1.9374765e-06 </wgt>
<wgt id='morphing_basis_vector_3'> +2.2807419e-06 </wgt>
<wgt id='morphing_basis_vector_4'> +7.3517816e-07 </wgt>
<wgt id='morphing_basis_vector_5'> +2.0641942e-06 </wgt>
</rwgt>
</event>
<event>
 4      1 +9.0096000e-12 6.11576000e+03 7.81860800e-03 7.24908700e-02
        2 -1    0    0  501    0 +0.0000000000e+00 +0.0000000000e+00 +3.3198062896e+03 3.3198062896e+03 0.0000000000e+00 0.0000e+00 -1.0000e+00
       -2 -1    0    0    0  501 -0.0000000000e+00 -0.0000000000e+00 -2.8166187295e+03 2.8166187295e+03 0.0000000000e+00 0.0000e+00 1.0000e+00
      -13  1    1    2    0    0 +1.4095612720e+03 -2.0267566281e+03 -1.5589489384e+03 2.9197477976e+03 0.0000000000e+00 0.0000e+00 1.0000e+00
       13  1    1    2    0    0 -1.4095612720e+03 +2.0267566281e+03 +2.0621364985e+03 3.2166772215e+03 0.0000000000e+00 0.0000e+00 -1.0000e+00
<mgrwt>
<rscale>  0 0.61157595E+04</rscale>
<asrwt>0</asrwt>
<pdfrwt beam="1">  1        2 0.51073943E+00 0.61157595E+04</pdfrwt>
<pdfrwt beam="2">  1       -2 0.43332596E+00 0.61157595E+04</pdfrwt>
<totfact> 0.27408095E-03</totfact>
</mgrwt>
<rwgt>
<wgt id='morphing_basis_vector_1'> +1.7074204e-06 </wgt>
<wgt id='morphing_basis_vector_2'> +1.1712983e-06 </wgt>
<wgt id='morphing_basis_vector_3'> +1.8870028e-06 </wgt>
<wgt id='morphing_basis_vector_4'> +1.3520368e-06 </wgt>
<wgt id='morphing_basis_vector_5'> +2.1705464e-06 </wgt>
</rwgt>
</event>
<event>
 4      1 +9.0096000e-12 5.61000600e+03 7.81860800e-03 7.30648500e-02
        2 -1    0    0  501    0 +0.0000000000e+00 +0.0000000000e+00 +4.4643610045e+03 4.4643610045e+03 0.0000000000e+00 0.0000e+00 -1.0000e+00
       -2 -1    0    0    0  501 -0.0000000000e+00 -0.0000000000e+00 -1.7624116419e+03 1.7624116419e+03 0.0000000000e+00 0.0000e+00 1.0000e+00
      -13  1    1    2    0    0 +7.5581153380e+02 +2.0011568855e+03 -6.6293631376e+02 2.2395009514e+03 0.0000000000e+00 0.0000e+00 1.0000e+00
       13  1    1    2    0    0 -7.5581153380e+02 -2.0011568855e+03 +3.3648856763e+03 3.9872716950e+03 0.0000000000e+00 0.0000e+00 -1.0000e+00
<mgrwt>
<rscale>  0 0.56100060E+04</rscale>
<asrwt>0</asrwt>
<pdfrwt beam="1">  1        2 0.68682477E+00 0.56100060E+04</pdfrwt>
<pdfrwt beam="2">  1       -2 0.27114025E+00 0.56100060E+04</pdfrwt>
<totfact> 0.37032782E-03</totfact>
</mgrwt>
<rwgt>
<wgt id='morphing_basis_vector_1'> +1.2089094e-06 </wgt>
<wgt id='morphing_basis_vector_2'> +8.2666123e-07 </wgt>
<wgt id='morphing_basis_vector_3'> +1.3344927e-06 </wgt>
<wgt id='morphing_basis_vector_4'> +9.5866752e-07 </wgt>
<wgt id='morphing_basis_vector_5'> +1.5357659e-06 </wgt>
</rwgt>
</event>
<event>
 4      1 +9.0096000e-12 6.46980300e+03 7.81860800e-03 7.21216600e-02
        2 -1    0    0  501    0 +0.0000000000e+00 +0.0000000000e+00 +3.7740646972e+03 3.7740646972e+03 0.0000000000e+00 0.0000e+00 -1.0000e+00
       -2 -1    0    0    0  501 -0.0000000000e+00 -0.0000000000e+00 -2.7727627767e+03 2.7727627767e+03 0.0000000000e+00 0.0000e+00 1.0000e+00
      -13  1    1    2    0    0 -2.3446881279e+03 -3.3151470213e+02 -1.7294748551e+03 2.9323280323e+03 0.0000000000e+00 0.0000e+00 1.0000e+00
       13  1    1    2    0    0 +2.3446881279e+03 +3.3151470213e+02 +2.7307767757e+03 3.6144994416e+03 0.0000000000e+00 0.0000e+00 -1.0000e+00
<mgrwt>
<rscale>  0 0.64698025E+04</rscale>
<asrwt>0</asrwt>
<pdfrwt beam="1">  1        2 0.58062534E+00 0.64698025E+04</pdfrwt>
<pdfrwt beam="2">  1       -2 0.42657889E+00 0.64698025E+04</pdfrwt>
<totfact> 0.13607203E-03</totfact>
</mgrwt>
<rwgt>
<wgt id='morphing_basis_vector_1'> +2.1348385e-06 </wgt>
<wgt id='morphing_basis_vector_2'> +1.4590078e-06 </wgt>
<wgt id='morphing_basis_vector_3'> +2.3590228e-06 </wgt>
<wgt id='morphing_basis_vector_4'> +1.6997449e-06 </wgt>
<wgt id='morphing_basis_vector_5'> +2.7202132e-06 </wgt>
</rwgt>
</event>
<event>
 4      1 +9.0096000e-12 5.64239200e+03 7.81860800e-03 7.30262800e-02
        2 -1    0    0  501    0 +0.0000000000e+00 +0.0000000000e+00 +5.1539545413e+03 5.1539545413e+03 0.0000000000e+00 0.0000e+00 -1.0000e+00
       -2 -1    0    0    0  501 -0.0000000000e+00 -0.0000000000e+00 -1.5442795012e+03 1.5442795012e+03 0.0000000000e+00 0.0000e+00 1.0000e+00
      -13  1    1    2    0    0 +1.2263023842e+03 -1.3600325001e+03 -7.4282613070e+02 1.9761823295e+03 0.0000000000e+00 0.0000e+00 1.0000e+00
       13  1    1    2    0    0 -1.2263023842e+03 +1.3600325001e+03 +4.3525011708e+03 4.7220517130e+03 0.0000000000e+00 0.0000e+00 -1.0000e+00
<mgrwt>
<rscale>  0 0.56423918E+04</rscale>
<asrwt>0</asrwt>
<pdfrwt beam="1">  1        2 0.79291607E+00 0.56423918E+04</pdfrwt>
<pdfrwt beam="2">  1       -2 0.23758146E+00 0.56423918E+04</pdfrwt>
<totfact> 0.91525115E-04</totfact>
</mgrwt>
<rwgt>
<wgt id='morphing_basis_vector_1'> +1.2356151e-06 </wgt>
<wgt id='morphing_basis_vector_2'> +8.4184909e-07 </wgt>
<wgt id='morphing_basis_vector_3'> +1.3633243e-06 </wgt>
<wgt id='morphing_basis_vector_4'> +9.8399758e-07 </wgt>
<wgt id='morphing_basis_vector_5'> +1.5718752e-06 </wgt>
</rwgt>
</event>
<event>
 4      1 +9.0096000e-12 5.58342400e+03 7.81860800e-03 7.30967100e-02
        2 -1    0    0  501    0 +0.0000000000e+00 +0.0000000000e+00 +3.4493751448e+03 3.4493751448e+03 0.0000000000e+00 0.0000e+00 -1.0000e+00
       -2 -1    0    0    0  501 -0.0000000000e+00 -0.0000000000e+00 -2.2594397100e+03 2.2594397100e+03 0.0000000000e+00 0.0000e+00 1.0000e+00
      -13  1    1    2    0    0 +2.3478585037e+03 +8.5912382862e+02 -6.7515441124e+02 2.5896653810e+03 0.0000000000e+00 0.0000e+00 1.0000e+00
       13  1    1    2    0    0 -2.3478585037e+03 -8.5912382862e+02 +1.8650898460e+03 3.1191494738e+03 0.0000000000e+00 0.0000e+00 -1.0000e+00
<mgrwt>
<rscale>  0 0.55834237E+04</rscale>
<asrwt>0</asrwt>
<pdfrwt beam="1">  1        2 0.53067310E+00 0.55834237E+04</pdfrwt>
<pdfrwt beam="2">  1       -2 0.34760611E+00 0.55834237E+04</pdfrwt>
<totfact> 0.83636721E-03</totfact>
</mgrwt>
<rwgt>
<wgt id='morphing_basis_vector_1'> +1.1910297e-06 </wgt>
<wgt id='morphing_basis_vector_2'> +8.2524636e-07 </wgt>
<wgt id='morphing_basis_vector_3'> +1.3172225e-06 </wgt>
<wgt id='morphing_basis_vector_4'> +9.3030318e-07 </wgt>
<wgt id='morphing_basis_vector_5'> +1.5059281e-06 </wgt>
</rwgt>
</event>
<event>
 4      1 +9.0096000e-12 5.55979600e+03 7.81860800e-03 7.31251900e-02
        2 -1    0    0  501    0 +0.0000000000e+00 +0.0000000000e+00 +3.3288062258e+03 3.3288062258e+03 0.0000000000e+00 0.0000e+00 1.0000e+00
       -2 -1    0    0    0  501 -0.0000000000e+00 -0.0000000000e+00 -2.3215026342e+03 2.3215026342e+03 0.0000000000e+00 0.0000e+00 -1.0000e+00
      -13  1    1    2    0    0 +2.6245376145e+03 +2.0980210471e+02 -4.0284357872e+02 2.6635498046e+03 0.0000000000e+00 0.0000e+00 -1.0000e+00
       13  1    1    2    0    0 -2.6245376145e+03 -2.0980210471e+02 +1.4101471704e+03 2.9867590554e+03 0.0000000000e+00 0.0000e+00 1.0000e+00
<mgrwt>
<rscale>  0 0.55597958E+04</rscale>
<asrwt>0</asrwt>
<pdfrwt beam="1">  1        2 0.51212404E+00 0.55597958E+04</pdfrwt>
<pdfrwt beam="2">  1       -2 0.35715425E+00 0.55597958E+04</pdfrwt>
<totfact> 0.88588157E-03</totfact>
</mgrwt>
<rwgt>
<wgt id='morphing_basis_vector_1'> +1.1763637e-06 </wgt>
<wgt id='morphing_basis_vector_2'> +8.2698272e-07 </wgt>
<wgt id='morphing_basis_vector_3'> +1.3037274e-06 </wgt>
<wgt id='morphing_basis_vector_4'> +9.0326513e-07 </wgt>
<wgt id='morphing_basis_vector_5'> +1.4795807e-06 </wgt>
</rwgt>
</event>
<event>
 4      1 +9.0096000e-12 6.06416300e+03 7.81860800e-03 7.25467900e-02
        2 -1    0    0  501    0 +0.0000000000e+00 +0.0000000000e+00 +3.2384126111e+03 3.2384126111e+03 0.0000000000e+00 0.0000e+00 1.0000e+00
       -2 -1    0    0    0  501 -0.0000000000e+00 -0.0000000000e+00 -2.8388967001e+03 2.8388967001e+03 0.0000000000e+00 0.0000e+00 -1.0000e+00
      -13  1    1    2    0    0 -1.5995414631e+03 +1.7811094616e+03 -1.6650916828e+03 2.9160614052e+03 0.0000000000e+00 0.0000e+00 -1.0000e+00
       13  1    1    2    0    0 +1.5995414631e+03 -1.7811094616e+03 +2.0646075938e+03 3.1612479060e+03 0.0000000000e+00 0.0000e+00 1.0000e+00
<mgrwt>
<rscale>  0 0.60641632E+04</rscale>
<asrwt>0</asrwt>
<pdfrwt beam="1">  1        2 0.49821732E+00 0.60641632E+04</pdfrwt>
<pdfrwt beam="2">  1       -2 0.43675334E+00 0.60641632E+04</pdfrwt>
<totfact> 0.29698259E-03</totfact>
</mgrwt>
<rwgt>
<wgt id='morphing_basis_vector_1'> +1.6500427e-06 </wgt>
<wgt id='morphing_basis_vector_2'> +1.1305196e-06 </wgt>
<wgt id='morphing_basis_vector_3'> +1.8231401e-06 </wgt>
<wgt id='morphing_basis_vector_4'> +1.3081918e-06 </wgt>
<wgt id='morphing_basis_vector_5'> +2.0981775e-06 </wgt>
</rwgt>
</event>
<event>
 4      1 +9.0096000e-12 5.73140900e+03 7.81860800e-03 7.29216000e-02
        2 -1    0    0  501    0 +0.0000000000e+00 +0.0000000000e+00 +2.9685191511e+03 2.9685191511e+03 0.0000000000e+00 0.0000e+00 1.0000e+00
       -2 -1    0    0    0  501 -0.0000000000e+00 -0.0000000000e+00 -2.7664511954e+03 2.7664511954e+03 0.0000000000e+00 0.0000e+00 -1.0000e+00
      -13  1    1    2    0    0 +1.2421446458e+03 -5.8399512437e+02 +2.6182061628e+03 2.9561761005e+03 0.0000000000e+00 0.0000e+00 1.0000e+00
       13  1    1    2    0    0 -1.2421446458e+03 +5.8399512437e+02 -2.4161382070e+03 2.7787942460e+03 0.0000000000e+00 0.0000e+00 -1.0000e+00
<mgrwt>
<rscale>  0 0.57314094E+04</rscale>
<asrwt>0</asrwt>
<pdfrwt beam="1">  1        2 0.45669525E+00 0.57314094E+04</pdfrwt>
<pdfrwt beam="2">  1       -2 0.42560788E+00 0.57314094E+04</pdfrwt>
<totfact> 0.54770915E-03</totfact>
</mgrwt>
<rwgt>
<wgt id='morphing_basis_vector_1'> +1.7838581e-06 </wgt>
<wgt id='morphing_basis_vector_2'> +2.2718056e-06 </wgt>
<wgt id='morphing_basis_vector_3'> +2.2155466e-06 </wgt>
<wgt id='morphing_basis_vector_4'> +4.6173131e-08 </wgt>
<wgt id='morphing_basis_vector_5'> +1.5895167e-06 </wgt>
</rwgt>
</event>
<event>
 4      1 +9.0096000e-12 6.00762900e+03 7.81860800e-03 7.26087200e-02
        2 -1    0    0  501    0 +0.0000000000e+00 +0.0000000000e+00 +3.5246416542e+03 3.5246416542e+03 0.0000000000e+00 0.0000e+00 -1.0000e+00
       -2 -1    0    0    0  501 -0.0000000000e+00 -0.0000000000e+00 -2.5599485463e+03 2.5599485463e+03 0.0000000000e+00 0.0000e+00 1.0000e+00
      -13  1    1    2    0    0 -1.0422545364e+02 -1.7470760581e+03 -1.9901901719e+03 2.6502819885e+03 0.0000000000e+00 0.0000e+00 1.0000e+00
       13  1    1    2    0    0 +1.0422545364e+02 +1.7470760581e+03 +2.9548832798e+03 3.4343082120e+03 0.0000000000e+00 0.0000e+00 -1.0000e+00
<mgrwt>
<rscale>  0 0.60076289E+04</rscale>
<asrwt>0</asrwt>
<pdfrwt beam="1">  1        2 0.54225256E+00 0.60076289E+04</pdfrwt>
<pdfrwt beam="2">  1       -2 0.39383824E+00 0.60076289E+04</pdfrwt>
<totfact> 0.35921694E-03</totfact>
</mgrwt>
<rwgt>
<wgt id='morphing_basis_vector_1'> +1.5865006e-06 </wgt>
<wgt id='morphing_basis_vector_2'> +1.0801778e-06 </wgt>
<wgt id='morphing_basis_vector_3'> +1.7512081e-06 </wgt>
<wgt id='morphing_basis_vector_4'> +1.2664042e-06 </wgt>
<wgt id='morphing_basis_vector_5'> +2.0213976e-06 </wgt>
</rwgt>
</event>
<event>
 4      1 +9.0096000e-12 6.00595200e+03 7.81860800e-03 7.26105700e-02
        2 -1    0    0  501    0 +0.0000000000e+00 +0.0000000000e+00 +3.7469484527e+03 3.7469484527e+03 0.0000000000e+00 0.0000e+00 1.0000e+00
       -2 -1    0    0    0  501 -0.0000000000e+00 -0.0000000000e+00 -2.4067226249e+03 2.4067226249e+03 0.0000000000e+00 0.0000e+00 -1.0000e+00
      -13  1    1    2    0    0 +6.6868087443e+02 +1.8723697422e+03 -1.6357874850e+03 2.5746268195e+03 0.0000000000e+00 0.0000e+00 -1.0000e+00
       13  1    1    2    0    0 -6.6868087443e+02 -1.8723697422e+03 +2.9760133128e+03 3.5790442581e+03 0.0000000000e+00 0.0000e+00 1.0000e+00
<mgrwt>
<rscale>  0 0.60059523E+04</rscale>
<asrwt>0</asrwt>
<pdfrwt beam="1">  1        2 0.57645361E+00 0.60059523E+04</pdfrwt>
<pdfrwt beam="2">  1       -2 0.37026502E+00 0.60059523E+04</pdfrwt>
<totfact> 0.34530596E-03</totfact>
</mgrwt>
<rwgt>
<wgt id='morphing_basis_vector_1'> +1.5853692e-06 </wgt>
<wgt id='morphing_basis_vector_2'> +1.0808372e-06 </wgt>
<wgt id='morphing_basis_vector_3'> +1.7502910e-06 </wgt>
<wgt id='morphing_basis_vector_4'> +1.2636298e-06 </wgt>
<wgt id='morphing_basis_vector_5'> +2.0190228e-06 </wgt>
</rwgt>
</event>
<event>
 4      1 +9.0096000e-12 5.84273800e+03 7.81860800e-03 7.27933800e-02
        2 -1    0    0  501    0 +0.0000000000e+00 +0.0000000000e+00 +2.3957440510e+03 2.3957440510e+03 0.0000000000e+00 0.0000e+00 1.0000e+00
       -2 -1    0    0    0  501 -0.0000000000e+00 -0.0000000000e+00 -3.5623156480e+03 3.5623156480e+03 0.0000000000e+00 0.0000e+00 -1.0000e+00
      -13  1    1    2    0    0 -1.4761070621e+03 -1.1373780263e+03 -2.8775539902e+03 3.4282412109e+03 0.0000000000e+00 0.0000e+00 -1.0000e+00
       13  1    1    2    0    0 +1.4761070621e+03 +1.1373780263e+03 +1.7109823931e+03 2.5298184882e+03 0.0000000000e+00 0.0000e+00 1.0000e+00
<mgrwt>
<rscale>  0 0.58427379E+04</rscale>
<asrwt>0</asrwt>
<pdfrwt beam="1">  1        2 0.36857601E+00 0.58427379E+04</pdfrwt>
<pdfrwt beam="2">  1       -2 0.54804856E+00 0.58427379E+04</pdfrwt>
<totfact> 0.15922293E-03</totfact>
</mgrwt>
<rwgt>
<wgt id='morphing_basis_vector_1'> +1.4200911e-06 </wgt>
<wgt id='morphing_basis_vector_2'> +9.6753075e-07 </wgt>
<wgt id='morphing_basis_vector_3'> +1.5673289e-06 </wgt>
<wgt id='morphing_basis_vector_4'> +1.1319452e-06 </wgt>
<wgt id='morphing_basis_vector_5'> +1.8079250e-06 </wgt>
</rwgt>
</event>
<event>
 4      1 +9.0096000e-12 5.69062000e+03 7.81860800e-03 7.29693200e-02
        2 -1    0    0  501    0 +0.0000000000e+00 +0.0000000000e+00 +2.9374495255e+03 2.9374495255e+03 0.0000000000e+00 0.0000e+00 -1.0000e+00
       -2 -1    0    0    0  501 -0.0000000000e+00 -0.0000000000e+00 -2.7560604368e+03 2.7560604368e+03 0.0000000000e+00 0.0000e+00 1.0000e+00
      -13  1    1    2    0    0 +2.4827583067e+02 +2.2414471381e+03 -1.6451397079e+03 2.7914531735e+03 0.0000000000e+00 0.0000e+00 1.0000e+00
       13  1    1    2    0    0 -2.4827583067e+02 -2.2414471381e+03 +1.8265287966e+03 2.9020567889e+03 0.0000000000e+00 0.0000e+00 -1.0000e+00
<mgrwt>
<rscale>  0 0.56906198E+04</rscale>
<asrwt>0</asrwt>
<pdfrwt beam="1">  1        2 0.45191531E+00 0.56906198E+04</pdfrwt>
<pdfrwt beam="2">  1       -2 0.42400930E+00 0.56906198E+04</pdfrwt>
<totfact> 0.58967676E-03</totfact>
</mgrwt>
<rwgt>
<wgt id='morphing_basis_vector_1'> +1.2803798e-06 </wgt>
<wgt id='morphing_basis_vector_2'> +8.7709669e-07 </wgt>
<wgt id='morphing_basis_vector_3'> +1.4139301e-06 </wgt>
<wgt id='morphing_basis_vector_4'> +1.0136997e-06 </wgt>
<wgt id='morphing_basis_vector_5'> +1.6260722e-06 </wgt>
</rwgt>
</event>
<event>
 4      1 +9.0096000e-12 5.63528200e+03 7.81860800e-03 7.30347200e-02
        2 -1    0    0  501    0 +0.0000000000e+00 +0.0000000000e+00 +3.2267244207e+03 3.2267244207e+03 0.0000000000e+00 0.0000e+00 1.0000e+00
       -2 -1    0    0    0  501 -0.0000000000e+00 -0.0000000000e+00 -2.4604212052e+03 2.4604212052e+03 0.0000000000e+00 0.0000e+00 -1.0000e+00
      -13  1    1    2    0    0 +1.6591655605e+03 +8.0708084946e+02 -1.7659756236e+03 2.5539929048e+03 0.0000000000e+00 0.0000e+00 -1.0000e+00
       13  1    1    2    0    0 -1.6591655605e+03 -8.0708084946e+02 +2.5322788391e+03 3.1331527211e+03 0.0000000000e+00 0.0000e+00 1.0000e+00
<mgrwt>
<rscale>  0 0.56352821E+04</rscale>
<asrwt>0</asrwt>
<pdfrwt beam="1">  1        2 0.49641914E+00 0.56352821E+04</pdfrwt>
<pdfrwt beam="2">  1       -2 0.37852634E+00 0.56352821E+04</pdfrwt>
<totfact> 0.75546634E-03</totfact>
</mgrwt>
<rwgt>
<wgt id='morphing_basis_vector_1'> +1.2294589e-06 </wgt>
<wgt id='morphing_basis_vector_2'> +8.3774664e-07 </wgt>
<wgt id='morphing_basis_vector_3'> +1.3565382e-06 </wgt>
<wgt id='morphing_basis_vector_4'> +9.7894201e-07 </wgt>
<wgt id='morphing_basis_vector_5'> +1.5639402e-06 </wgt>
</rwgt>
</event>
<event>
 4      1 +9.0096000e-12 5.76652000e+03 7.81860800e-03 7.28808400e-02
        2 -1    0    0  501    0 +0.0000000000e+00 +0.0000000000e+00 +2.1069611553e+03 2.1069611553e+03 0.0000000000e+00 0.0000e+00 -1.0000e+00
       -2 -1    0    0    0  501 -0.0000000000e+00 -0.0000000000e+00 -3.9455815192e+03 3.9455815192e+03 0.0000000000e+00 0.0000e+00 1.0000e+00
      -13  1    1    2    0    0 -2.2708722912e+03 -8.0471681325e+02 -2.5817785026e+03 3.5312901819e+03 0.0000000000e+00 0.0000e+00 1.0000e+00
       13  1    1    2    0    0 +2.2708722912e+03 +8.0471681325e+02 +7.4315813872e+02 2.5212524926e+03 0.0000000000e+00 0.0000e+00 -1.0000e+00
<mgrwt>
<rscale>  0 0.57665196E+04</rscale>
<asrwt>0</asrwt>
<pdfrwt beam="1">  1        2 0.32414787E+00 0.57665196E+04</pdfrwt>
<pdfrwt beam="2">  1       -2 0.60701254E+00 0.57665196E+04</pdfrwt>
<totfact> 0.79541370E-04</totfact>
</mgrwt>
<rwgt>
<wgt id='morphing_basis_vector_1'> +1.3512887e-06 </wgt>
<wgt id='morphing_basis_vector_2'> +9.2889558e-07 </wgt>
<wgt id='morphing_basis_vector_3'> +1.4931588e-06 </wgt>
<wgt id='morphing_basis_vector_4'> +1.0660141e-06 </wgt>
<wgt id='morphing_basis_vector_5'> +1.7145433e-06 </wgt>
</rwgt>
</event>
<event>
 4      1 +9.0096000e-12 6.08974600e+03 7.81860800e-03 7.25190000e-02
        2 -1    0    0  501    0 +0.0000000000e+00 +0.0000000000e+00 +2.5143462604e+03 2.5143462604e+03 0.0000000000e+00 0.0000e+00 -1.0000e+00
       -2 -1    0    0    0  501 -0.0000000000e+00 -0.0000000000e+00 -3.6873408948e+03 3.6873408948e+03 0.0000000000e+00 0.0000e+00 1.0000e+00
      -13  1    1    2    0    0 +1.9927286231e+03 -2.2985705058e+03 -7.1872256754e+02 3.1258528219e+03 0.0000000000e+00 0.0000e+00 1.0000e+00
       13  1    1    2    0    0 -1.9927286231e+03 +2.2985705058e+03 -4.5427206684e+02 3.0758343333e+03 0.0000000000e+00 0.0000e+00 -1.0000e+00
<mgrwt>
<rscale>  0 0.60897461E+04</rscale>
<asrwt>0</asrwt>
<pdfrwt beam="1">  1        2 0.38682250E+00 0.60897461E+04</pdfrwt>
<pdfrwt beam="2">  1       -2 0.56728321E+00 0.60897461E+04</pdfrwt>
<totfact> 0.96745768E-04</totfact>
</mgrwt>
<rwgt>
<wgt id='morphing_basis_vector_1'> +1.7268985e-06 </wgt>
<wgt id='morphing_basis_vector_2'> +1.2932203e-06 </wgt>
<wgt id='morphing_basis_vector_3'> +1.9339715e-06 </wgt>
<wgt id='morphing_basis_vector_4'> +1.2258273e-06 </wgt>
<wgt id='morphing_basis_vector_5'> +2.1250831e-06 </wgt>
</rwgt>
</event>
<event>
 4      1 +9.0096000e-12 5.60520300e+03 7.81860800e-03 7.30706000e-02
        2 -1    0    0  501    0 +0.0000000000e+00 +0.0000000000e+00 +4.1563928954e+03 4.1563928954e+03 0.0000000000e+00 0.0000e+00 1.0000e+00
       -2 -1    0    0    0  501 -0.0000000000e+00 -0.0000000000e+00 -1.8897578291e+03 1.8897578291e+03 0.0000000000e+00 0.0000e+00 -1.0000e+00
      -13  1    1    2    0    0 +1.2961877845e+03 +5.1110217118e+02 +3.7563317242e+03 4.0064143850e+03 0.0000000000e+00 0.0000e+00 1.0000e+00
       13  1    1    2    0    0 -1.2961877845e+03 -5.1110217118e+02 -1.4896966579e+03 2.0397363395e+03 0.0000000000e+00 0.0000e+00 -1.0000e+00
<mgrwt>
<rscale>  0 0.56052033E+04</rscale>
<asrwt>0</asrwt>
<pdfrwt beam="1">  1        2 0.63944506E+00 0.56052033E+04</pdfrwt>
<pdfrwt beam="2">  1       -2 0.29073197E+00 0.56052033E+04</pdfrwt>
<totfact> 0.53791348E-03</totfact>
</mgrwt>
<rwgt>
<wgt id='morphing_basis_vector_1'> +1.6292729e-06 </wgt>
<wgt id='morphing_basis_vector_2'> +2.0699941e-06 </wgt>
<wgt id='morphing_basis_vector_3'> +2.0216387e-06 </wgt>
<wgt id='morphing_basis_vector_4'> +4.8534066e-08 </wgt>
<wgt id='morphing_basis_vector_5'> +1.4543077e-06 </wgt>
</rwgt>
</event>
<event>
 4      1 +9.0096000e-12 5.62589700e+03 7.81860800e-03 7.30458900e-02
        2 -1    0    0  501    0 +0.0000000000e+00 +0.0000000000e+00 +2.9735800173e+03 2.9735800173e+03 0.0000000000e+00 0.0000e+00 1.0000e+00
       -2 -1    0    0    0  501 -0.0000000000e+00 -0.0000000000e+00 -2.6609937844e+03 2.6609937844e+03 0.0000000000e+00 0.0000e+00 -1.0000e+00
      -13  1    1    2    0    0 +2.1327813016e+03 -1.8079597286e+03 -1.5273340185e+02 2.8001432022e+03 0.0000000000e+00 0.0000e+00 -1.0000e+00
       13  1    1    2    0    0 -2.1327813016e+03 +1.8079597286e+03 +4.6531963474e+02 2.8344305995e+03 0.0000000000e+00 0.0000e+00 1.0000e+00
<mgrwt>
<rscale>  0 0.56258965E+04</rscale>
<asrwt>0</asrwt>
<pdfrwt beam="1">  1        2 0.45747385E+00 0.56258965E+04</pdfrwt>
<pdfrwt beam="2">  1       -2 0.40938366E+00 0.56258965E+04</pdfrwt>
<totfact> 0.70181766E-03</totfact>
</mgrwt>
<rwgt>
<wgt id='morphing_basis_vector_1'> +1.2503280e-06 </wgt>
<wgt id='morphing_basis_vector_2'> +9.1737251e-07 </wgt>
<wgt id='morphing_basis_vector_3'> +1.3948162e-06 </wgt>
<wgt id='morphing_basis_vector_4'> +9.1042332e-07 </wgt>
<wgt id='morphing_basis_vector_5'> +1.5483120e-06 </wgt>
</rwgt>
</event>
<event>
 4      1 +9.0096000e-12 5.61790900e+03 7.81860800e-03 7.30554200e-02
        2 -1    0    0  501    0 +0.0000000000e+00 +0.0000000000e+00 +4.1019874293e+03 4.1019874293e+03 0.0000000000e+00 0.0000e+00 -1.0000e+00
       -2 -1    0    0    0  501 -0.0000000000e+00 -0.0000000000e+00 -1.9235127532e+03 1.9235127532e+03 0.0000000000e+00 0.0000e+00 1.0000e+00
      -13  1    1    2    0    0 -3.5186953687e+02 +8.4221918149e+02 -1.7600150783e+03 1.9826241188e+03 0.0000000000e+00 0.0000e+00 1.0000e+00
       13  1    1    2    0    0 +3.5186953687e+02 -8.4221918149e+02 +3.9384897544e+03 4.0428760637e+03 0.0000000000e+00 0.0000e+00 -1.0000e+00
<mgrwt>
<rscale>  0 0.56179089E+04</rscale>
<asrwt>0</asrwt>
<pdfrwt beam="1">  1        2 0.63107499E+00 0.56179089E+04</pdfrwt>
<pdfrwt beam="2">  1       -2 0.29592504E+00 0.56179089E+04</pdfrwt>
<totfact> 0.55434463E-03</totfact>
</mgrwt>
<rwgt>
<wgt id='morphing_basis_vector_1'> +1.2134875e-06 </wgt>
<wgt id='morphing_basis_vector_2'> +8.2477625e-07 </wgt>
<wgt id='morphing_basis_vector_3'> +1.3383921e-06 </wgt>
<wgt id='morphing_basis_vector_4'> +9.6885966e-07 </wgt>
<wgt id='morphing_basis_vector_5'> +1.5448603e-06 </wgt>
</rwgt>
</event>
<event>
 4      1 +9.0096000e-12 6.02746500e+03 7.81860800e-03 7.25869100e-02
        2 -1    0    0  501    0 +0.0000000000e+00 +0.0000000000e+00 +4.4516343735e+03 4.4516343735e+03 0.0000000000e+00 0.0000e+00 1.0000e+00
       -2 -1    0    0    0  501 -0.0000000000e+00 -0.0000000000e+00 -2.0402806911e+03 2.0402806911e+03 0.0000000000e+00 0.0000e+00 -1.0000e+00
      -13  1    1    2    0    0 -2.2621119087e+03 +1.7157429956e+03 +2.2943341322e+03 3.6503278516e+03 0.0000000000e+00 0.0000e+00 -1.0000e+00
       13  1    1    2    0    0 +2.2621119087e+03 -1.7157429956e+03 +1.1701955017e+02 2.8415872130e+03 0.0000000000e+00 0.0000e+00 1.0000e+00
<mgrwt>
<rscale>  0 0.60274650E+04</rscale>
<asrwt>0</asrwt>
<pdfrwt beam="1">  1        2 0.68486682E+00 0.60274650E+04</pdfrwt>
<pdfrwt beam="2">  1       -2 0.31388934E+00 0.60274650E+04</pdfrwt>
<totfact> 0.19007839E-03</totfact>
</mgrwt>
<rwgt>
<wgt id='morphing_basis_vector_1'> +1.7903545e-06 </wgt>
<wgt id='morphing_basis_vector_2'> +1.6311793e-06 </wgt>
<wgt id='morphing_basis_vector_3'> +2.0730424e-06 </wgt>
<wgt id='morphing_basis_vector_4'> +8.9208708e-07 </wgt>
<wgt id='morphing_basis_vector_5'> +2.0153825e-06 </wgt>
</rwgt>
</event>
<event>
 4      1 +9.0096000e-12 5.58049000e+03 7.81860800e-03 7.31002400e-02
        2 -1    0    0  501    0 +0.0000000000e+00 +0.0000000000e+00 +2.1964760077e+03 2.1964760077e+03 0.0000000000e+00 0.0000e+00 1.0000e+00
       -2 -1    0    0    0  501 -0.0000000000e+00 -0.0000000000e+00 -3.5445265890e+03 3.5445265890e+03 0.0000000000e+00 0.0000e+00 -1.0000e+00
      -13  1    1    2    0    0 -2.6667831126e+03 -8.1241597343e+02 -5.5354255375e+02 2.8422106260e+03 0.0000000000e+00 0.0000e+00 -1.0000e+00
       13  1    1    2    0    0 +2.6667831126e+03 +8.1241597343e+02 -7.9450802749e+02 2.8987919707e+03 0.0000000000e+00 0.0000e+00 1.0000e+00
<mgrwt>
<rscale>  0 0.55804902E+04</rscale>
<asrwt>0</asrwt>
<pdfrwt beam="1">  1        2 0.33791939E+00 0.55804902E+04</pdfrwt>
<pdfrwt beam="2">  1       -2 0.54531178E+00 0.55804902E+04</pdfrwt>
<totfact> 0.22177292E-03</totfact>
</mgrwt>
<rwgt>
<wgt id='morphing_basis_vector_1'> +1.2320638e-06 </wgt>
<wgt id='morphing_basis_vector_2'> +9.5130258e-07 </wgt>
<wgt id='morphing_basis_vector_3'> +1.3853773e-06 </wgt>
<wgt id='morphing_basis_vector_4'> +8.3536160e-07 </wgt>
<wgt id='morphing_basis_vector_5'> +1.4949459e-06 </wgt>
</rwgt>
</event>
<event>
 4      1 +9.0096000e-12 5.61561800e+03 7.81860800e-03 7.30581500e-02
        2 -1    0    0  501    0 +0.0000000000e+00 +0.0000000000e+00 +4.1876982576e+03 4.1876982576e+03 0.0000000000e+00 0.0000e+00 1.0000e+00
       -2 -1    0    0    0  501 -0.0000000000e+00 -0.0000000000e+00 -1.8826069901e+03 1.8826069901e+03 0.0000000000e+00 0.0000e+00 -1.0000e+00
      -13  1    1    2    0    0 +2.6528257308e+03 -6.4099815506e+02 +4.3924814054e+02 2.7642904916e+03 0.0000000000e+00 0.0000e+00 1.0000e+00
       13  1    1    2    0    0 -2.6528257308e+03 +6.4099815506e+02 +1.8658431270e+03 3.3060147561e+03 0.0000000000e+00 0.0000e+00 -1.0000e+00
<mgrwt>
<rscale>  0 0.56156175E+04</rscale>
<asrwt>0</asrwt>
<pdfrwt beam="1">  1        2 0.64426127E+00 0.56156175E+04</pdfrwt>
<pdfrwt beam="2">  1       -2 0.28963184E+00 0.56156175E+04</pdfrwt>
<totfact> 0.51219898E-03</totfact>
</mgrwt>
<rwgt>
<wgt id='morphing_basis_vector_1'> +1.2297036e-06 </wgt>
<wgt id='morphing_basis_vector_2'> +8.7683104e-07 </wgt>
<wgt id='morphing_basis_vector_3'> +1.3658521e-06 </wgt>
<wgt id='morphing_basis_vector_4'> +9.2841572e-07 </wgt>
<wgt id='morphing_basis_vector_5'> +1.5390699e-06 </wgt>
</rwgt>
</event>
<event>
 4      1 +9.0096000e-12 5.85911500e+03 7.81860800e-03 7.27747600e-02
        2 -1    0    0  501    0 +0.0000000000e+00 +0.0000000000e+00 +3.2512148045e+03 3.2512148045e+03 0.0000000000e+00 0.0000e+00 -1.0000e+00
       -2 -1    0    0    0  501 -0.0000000000e+00 -0.0000000000e+00 -2.6397233395e+03 2.6397233395e+03 0.0000000000e+00 0.0000e+00 1.0000e+00
      -13  1    1    2    0    0 +5.3185753428e+02 -2.7386422986e+03 -5.9313100770e+02 2.8521638222e+03 0.0000000000e+00 0.0000e+00 1.0000e+00
       13  1    1    2    0    0 -5.3185753428e+02 +2.7386422986e+03 +1.2046224727e+03 3.0387743217e+03 0.0000000000e+00 0.0000e+00 -1.0000e+00
<mgrwt>
<rscale>  0 0.58591152E+04</rscale>
<asrwt>0</asrwt>
<pdfrwt beam="1">  1        2 0.50018689E+00 0.58591152E+04</pdfrwt>
<pdfrwt beam="2">  1       -2 0.40611128E+00 0.58591152E+04</pdfrwt>
<totfact> 0.47283321E-03</totfact>
</mgrwt>
<rwgt>
<wgt id='morphing_basis_vector_1'> +1.4511760e-06 </wgt>
<wgt id='morphing_basis_vector_2'> +1.0228385e-06 </wgt>
<wgt id='morphing_basis_vector_3'> +1.6096682e-06 </wgt>
<wgt id='morphing_basis_vector_4'> +1.1123589e-06 </wgt>
<wgt id='morphing_basis_vector_5'> +1.8256074e-06 </wgt>
</rwgt>
</event>
<event>
 4      1 +9.0096000e-12 6.10952900e+03 7.81860800e-03 7.24976000e-02
        2 -1    0    0  501    0 +0.0000000000e+00 +0.0000000000e+00 +2.7566371601e+03 2.7566371601e+03 0.0000000000e+00 0.0000e+00 -1.0000e+00
       -2 -1    0    0    0  501 -0.0000000000e+00 -0.0000000000e+00 -3.3851336628e+03 3.3851336628e+03 0.0000000000e+00 0.0000e+00 1.0000e+00
      -13  1    1    2    0    0 +2.7243569937e+03 +1.1159726960e+03 -1.1334531733e+03 3.1547158642e+03 0.0000000000e+00 0.0000e+00 1.0000e+00
       13  1    1    2    0    0 -2.7243569937e+03 -1.1159726960e+03 +5.0495667058e+02 2.9870549588e+03 0.0000000000e+00 0.0000e+00 -1.0000e+00
<mgrwt>
<rscale>  0 0.61095287E+04</rscale>
<asrwt>0</asrwt>
<pdfrwt beam="1">  1        2 0.42409803E+00 0.61095287E+04</pdfrwt>
<pdfrwt beam="2">  1       -2 0.52078979E+00 0.61095287E+04</pdfrwt>
<totfact> 0.14924013E-03</totfact>
</mgrwt>
<rwgt>
<wgt id='morphing_basis_vector_1'> +1.7183154e-06 </wgt>
<wgt id='morphing_basis_vector_2'> +1.2188605e-06 </wgt>
<wgt id='morphing_basis_vector_3'> +1.9084489e-06 </wgt>
<wgt id='morphing_basis_vector_4'> +1.3083768e-06 </wgt>
<wgt id='morphing_basis_vector_5'> +2.1584863e-06 </wgt>
</rwgt>
</event>
<event>
 4      1 +9.0096000e-12 5.57842500e+03 7.81860800e-03 7.31027300e-02
        2 -1    0    0  501    0 +0.0000000000e+00 +0.0000000000e+00 +4.8986228016e+03 4.8986228016e+03 0.0000000000e+00 0.0000e+00 1.0000e+00
       -2 -1    0    0    0  501 -0.0000000000e+00 -0.0000000000e+00 -1.5881416173e+03 1.5881416173e+03 0.0000000000e+00 0.0000e+00 -1.0000e+00
      -13  1    1    2    0    0 -3.8151428049e+02 -1.7526746814e+03 -8.2850852311e+02 1.9758157955e+03 0.0000000000e+00 0.0000e+00 -1.0000e+00
       13  1    1    2    0    0 +3.8151428049e+02 +1.7526746814e+03 +4.1389897073e+03 4.5109486233e+03 0.0000000000e+00 0.0000e+00 1.0000e+00
<mgrwt>
<rscale>  0 0.55784251E+04</rscale>
<asrwt>0</asrwt>
<pdfrwt beam="1">  1        2 0.75363427E+00 0.55784251E+04</pdfrwt>
<pdfrwt beam="2">  1       -2 0.24432948E+00 0.55784251E+04</pdfrwt>
<totfact> 0.18333493E-03</totfact>
</mgrwt>
<rwgt>
<wgt id='morphing_basis_vector_1'> +1.1806275e-06 </wgt>
<wgt id='morphing_basis_vector_2'> +8.0423157e-07 </wgt>
<wgt id='morphing_basis_vector_3'> +1.3024857e-06 </wgt>
<wgt id='morphing_basis_vector_4'> +9.4011391e-07 </wgt>
<wgt id='morphing_basis_vector_5'> +1.5016333e-06 </wgt>
</rwgt>
</event>
<event>
 4      1 +9.0096000e-12 6.25633300e+03 7.81860800e-03 7.23413100e-02
        2 -1    0    0  501    0 +0.0000000000e+00 +0.0000000000e+00 +1.9824454757e+03 1.9824454757e+03 0.0000000000e+00 0.0000e+00 -1.0000e+00
       -2 -1    0    0    0  501 -0.0000000000e+00 -0.0000000000e+00 -4.9360377752e+03 4.9360377752e+03 0.0000000000e+00 0.0000e+00 1.0000e+00
      -13  1    1    2    0    0 -9.6582225815e+02 +1.8801953786e+02 -4.7604540316e+03 4.8610787453e+03 0.0000000000e+00 0.0000e+00 1.0000e+00
       13  1    1    2    0    0 +9.6582225815e+02 -1.8801953786e+02 +1.8068617321e+03 2.0574045056e+03 0.0000000000e+00 0.0000e+00 -1.0000e+00
<mgrwt>
<rscale>  0 0.62563330E+04</rscale>
<asrwt>0</asrwt>
<pdfrwt beam="1">  1        2 0.30499162E+00 0.62563330E+04</pdfrwt>
<pdfrwt beam="2">  1       -2 0.75939041E+00 0.62563330E+04</pdfrwt>
<totfact> 0.53566787E-04</totfact>
</mgrwt>
<rwgt>
<wgt id='morphing_basis_vector_1'> +1.8645577e-06 </wgt>
<wgt id='morphing_basis_vector_2'> +1.2680534e-06 </wgt>
<wgt id='morphing_basis_vector_3'> +2.0584129e-06 </wgt>
<wgt id='morphing_basis_vector_4'> +1.4916233e-06 </wgt>
<wgt id='morphing_basis_vector_5'> +2.3784408e-06 </wgt>
</rwgt>
</event>
<event>
 4      1 +9.0096000e-12 5.59799000e+03 7.81860800e-03 7.30792300e-02
        2 -1    0    0  501    0 +0.0000000000e+00 +0.0000000000e+00 +2.8485093000e+03 2.8485093000e+03 0.0000000000e+00 0.0000e+00 1.0000e+00
       -2 -1    0    0    0  501 -0.0000000000e+00 -0.0000000000e+00 -2.7503418424e+03 2.7503418424e+03 0.0000000000e+00 0.0000e+00 -1.0000e+00
      -13  1    1    2    0    0 -2.3981725269e+03 -1.4741241481e+02 -1.3868989831e+03 2.7742477680e+03 0.0000000000e+00 0.0000e+00 -1.0000e+00
       13  1    1    2    0    0 +2.3981725269e+03 +1.4741241481e+02 +1.4850664407e+03 2.8246033743e+03 0.0000000000e+00 0.0000e+00 1.0000e+00
<mgrwt>
<rscale>  0 0.55979905E+04</rscale>
<asrwt>0</asrwt>
<pdfrwt beam="1">  1        2 0.43823220E+00 0.55979905E+04</pdfrwt>
<pdfrwt beam="2">  1       -2 0.42312951E+00 0.55979905E+04</pdfrwt>
<totfact> 0.68595195E-03</totfact>
</mgrwt>
<rwgt>
<wgt id='morphing_basis_vector_1'> +1.2013856e-06 </wgt>
<wgt id='morphing_basis_vector_2'> +8.2774978e-07 </wgt>
<wgt id='morphing_basis_vector_3'> +1.3276167e-06 </wgt>
<wgt id='morphing_basis_vector_4'> +9.4453675e-07 </wgt>
<wgt id='morphing_basis_vector_5'> +1.5221202e-06 </wgt>
</rwgt>
</event>
<event>
 4      1 +9.0096000e-12 5.60306800e+03 7.81860800e-03 7.30731500e-02
        2 -1    0    0  501    0 +0.0000000000e+00 +0.0000000000e+00 +3.1562786688e+03 3.1562786688e+03 0.0000000000e+00 0.0000e+00 -1.0000e+00
       -2 -1    0    0    0  501 -0.0000000000e+00 -0.0000000000e+00 -2.4866602031e+03 2.4866602031e+03 0.0000000000e+00 0.0000e+00 1.0000e+00
      -13  1    1    2    0    0 -2.2953037157e+03 +1.5860936491e+03 +5.9054597754e+02 2.8518163971e+03 0.0000000000e+00 0.0000e+00 1.0000e+00
       13  1    1    2    0    0 +2.2953037157e+03 -1.5860936491e+03 +7.9072488118e+01 2.7911224748e+03 0.0000000000e+00 0.0000e+00 -1.0000e+00
<mgrwt>
<rscale>  0 0.56030679E+04</rscale>
<asrwt>0</asrwt>
<pdfrwt beam="1">  1        2 0.48558133E+00 0.56030679E+04</pdfrwt>
<pdfrwt beam="2">  1       -2 0.38256311E+00 0.56030679E+04</pdfrwt>
<totfact> 0.79623704E-03</totfact>
</mgrwt>
<rwgt>
<wgt id='morphing_basis_vector_1'> +1.2616477e-06 </wgt>
<wgt id='morphing_basis_vector_2'> +9.9488461e-07 </wgt>
<wgt id='morphing_basis_vector_3'> +1.4235428e-06 </wgt>
<wgt id='morphing_basis_vector_4'> +8.2853739e-07 </wgt>
<wgt id='morphing_basis_vector_5'> +1.5176289e-06 </wgt>
</rwgt>
</event>
<event>
 4      1 +9.0096000e-12 5.76531100e+03 7.81860800e-03 7.28822400e-02
        2 -1    0    0  501    0 +0.0000000000e+00 +0.0000000000e+00 +5.2225985833e+03 5.2225985833e+03 0.0000000000e+00 0.0000e+00 1.0000e+00
       -2 -1    0    0    0  501 -0.0000000000e+00 -0.0000000000e+00 -1.5911050761e+03 1.5911050761e+03 0.0000000000e+00 0.0000e+00 -1.0000e+00
      -13  1    1    2    0    0 -1.6625951779e+03 +2.1933480235e+03 +2.8287642395e+03 3.9467588475e+03 0.0000000000e+00 0.0000e+00 1.0000e+00
       13  1    1    2    0    0 +1.6625951779e+03 -2.1933480235e+03 +8.0272926770e+02 2.8669448119e+03 0.0000000000e+00 0.0000e+00 -1.0000e+00
<mgrwt>
<rscale>  0 0.57653111E+04</rscale>
<asrwt>0</asrwt>
<pdfrwt beam="1">  1        2 0.80347670E+00 0.57653111E+04</pdfrwt>
<pdfrwt beam="2">  1       -2 0.24478540E+00 0.57653111E+04</pdfrwt>
<totfact> 0.63692293E-04</totfact>
</mgrwt>
<rwgt>
<wgt id='morphing_basis_vector_1'> +1.4818548e-06 </wgt>
<wgt id='morphing_basis_vector_2'> +1.3147060e-06 </wgt>
<wgt id='morphing_basis_vector_3'> +1.7066964e-06 </wgt>
<wgt id='morphing_basis_vector_4'> +7.8361383e-07 </wgt>
<wgt id='morphing_basis_vector_5'> +1.6894399e-06 </wgt>
</rwgt>
</event>
<event>
 4      1 +9.0096000e-12 5.69290500e+03 7.81860800e-03 7.29666400e-02
        2 -1    0    0  501    0 +0.0000000000e+00 +0.0000000000e+00 +4.3885405000e+03 4.3885405000e+03 0.0000000000e+00 0.0000e+00 1.0000e+00
       -2 -1    0    0    0  501 -0.0000000000e+00 -0.0000000000e+00 -1.8462384001e+03 1.8462384001e+03 0.0000000000e+00 0.0000e+00 -1.0000e+00
      -13  1    1    2    0    0 +2.4515602166e+03 +4.6825314695e+02 -2.2764484999e+02 2.5062383532e+03 0.0000000000e+00 0.0000e+00 -1.0000e+00
       13  1    1    2    0    0 -2.4515602166e+03 -4.6825314695e+02 +2.7699469499e+03 3.7285405469e+03 0.0000000000e+00 0.0000e+00 1.0000e+00
<mgrwt>
<rscale>  0 0.56929051E+04</rscale>
<asrwt>0</asrwt>
<pdfrwt beam="1">  1        2 0.67516007E+00 0.56929051E+04</pdfrwt>
<pdfrwt beam="2">  1       -2 0.28403668E+00 0.56929051E+04</pdfrwt>
<totfact> 0.35819930E-03</totfact>
</mgrwt>
<rwgt>
<wgt id='morphing_basis_vector_1'> +1.2857224e-06 </wgt>
<wgt id='morphing_basis_vector_2'> +8.8816256e-07 </wgt>
<wgt id='morphing_basis_vector_3'> +1.4215658e-06 </wgt>
<wgt id='morphing_basis_vector_4'> +1.0083025e-06 </wgt>
<wgt id='morphing_basis_vector_5'> +1.6281013e-06 </wgt>
</rwgt>
</event>
<event>
 4      1 +9.0096000e-12 5.75698300e+03 7.81860800e-03 7.28918800e-02
        2 -1    0    0  501    0 +0.0000000000e+00 +0.0000000000e+00 +3.4640521231e+03 3.4640521231e+03 0.0000000000e+00 0.0000e+00 -1.0000e+00
       -2 -1    0    0    0  501 -0.0000000000e+00 -0.0000000000e+00 -2.3919134689e+03 2.3919134689e+03 0.0000000000e+00 0.0000e+00 1.0000e+00
      -13  1    1    2    0    0 +2.5184764018e+03 +6.4571501674e+02 -7.2050092581e+02 2.6979238042e+03 0.0000000000e+00 0.0000e+00 1.0000e+00
       13  1    1    2    0    0 -2.5184764018e+03 -6.4571501674e+02 +1.7926395800e+03 3.1580417877e+03 0.0000000000e+00 0.0000e+00 -1.0000e+00
<mgrwt>
<rscale>  0 0.57569829E+04</rscale>
<asrwt>0</asrwt>
<pdfrwt beam="1">  1        2 0.53293110E+00 0.57569829E+04</pdfrwt>
<pdfrwt beam="2">  1       -2 0.36798669E+00 0.57569829E+04</pdfrwt>
<totfact> 0.59532597E-03</totfact>
</mgrwt>
<rwgt>
<wgt id='morphing_basis_vector_1'> +1.3463835e-06 </wgt>
<wgt id='morphing_basis_vector_2'> +9.3448387e-07 </wgt>
<wgt id='morphing_basis_vector_3'> +1.4898138e-06 </wgt>
<wgt id='morphing_basis_vector_4'> +1.0504353e-06 </wgt>
<wgt id='morphing_basis_vector_5'> +1.7024855e-06 </wgt>
</rwgt>
</event>
<event>
 4      1 +9.0096000e-12 5.67578600e+03 7.81860800e-03 7.29867800e-02
        2 -1    0    0  501    0 +0.0000000000e+00 +0.0000000000e+00 +4.9685500367e+03 4.9685500367e+03 0.0000000000e+00 0.0000e+00 1.0000e+00
       -2 -1    0    0    0  501 -0.0000000000e+00 -0.0000000000e+00 -1.6209227709e+03 1.6209227709e+03 0.0000000000e+00 0.0000e+00 -1.0000e+00
      -13  1    1    2    0    0 -1.4968662229e+03 -2.0096934753e+03 +1.2741657702e+02 2.5091256123e+03 0.0000000000e+00 0.0000e+00 -1.0000e+00
       13  1    1    2    0    0 +1.4968662229e+03 +2.0096934753e+03 +3.2202106888e+03 4.0803471953e+03 0.0000000000e+00 0.0000e+00 1.0000e+00
<mgrwt>
<rscale>  0 0.56757857E+04</rscale>
<asrwt>0</asrwt>
<pdfrwt beam="1">  1        2 0.76439231E+00 0.56757857E+04</pdfrwt>
<pdfrwt beam="2">  1       -2 0.24937274E+00 0.56757857E+04</pdfrwt>
<totfact> 0.13645765E-03</totfact>
</mgrwt>
<rwgt>
<wgt id='morphing_basis_vector_1'> +1.2707415e-06 </wgt>
<wgt id='morphing_basis_vector_2'> +8.7864171e-07 </wgt>
<wgt id='morphing_basis_vector_3'> +1.4051583e-06 </wgt>
<wgt id='morphing_basis_vector_4'> +9.9539676e-07 </wgt>
<wgt id='morphing_basis_vector_5'> +1.6084908e-06 </wgt>
</rwgt>
</event>
<event>
 4      1 +9.0096000e-12 6.17447400e+03 7.81860800e-03 7.24279100e-02
        2 -1    0    0  501    0 +0.0000000000e+00 +0.0000000000e+00 +1.6596434845e+03 1.6596434845e+03 0.0000000000e+00 0.0000e+00 -1.0000e+00
       -2 -1    0    0    0  501 -0.0000000000e+00 -0.0000000000e+00 -5.7428188430e+03 5.7428188430e+03 0.0000000000e+00 0.0000e+00 1.0000e+00
      -13  1    1    2    0    0 -6.5987002450e+02 -1.2674198033e+03 -5.3225060617e+03 5.5109756109e+03 0.0000000000e+00 0.0000e+00 1.0000e+00
       13  1    1    2    0    0 +6.5987002450e+02 +1.2674198033e+03 +1.2393307031e+03 1.8914867166e+03 0.0000000000e+00 0.0000e+00 -1.0000e+00
<mgrwt>
<rscale>  0 0.61744739E+04</rscale>
<asrwt>0</asrwt>
<pdfrwt beam="1">  1        2 0.25532977E+00 0.61744739E+04</pdfrwt>
<pdfrwt beam="2">  1       -2 0.88351059E+00 0.61744739E+04</pdfrwt>
<totfact> 0.25540806E-04</totfact>
</mgrwt>
<rwgt>
<wgt id='morphing_basis_vector_1'> +1.7692826e-06 </wgt>
<wgt id='morphing_basis_vector_2'> +1.2036565e-06 </wgt>
<wgt id='morphing_basis_vector_3'> +1.9531404e-06 </wgt>
<wgt id='morphing_basis_vector_4'> +1.4144701e-06 </wgt>
<wgt id='morphing_basis_vector_5'> +2.2561005e-06 </wgt>
</rwgt>
</event>
<event>
 4      1 +9.0096000e-12 5.56612700e+03 7.81860800e-03 7.31175400e-02
        2 -1    0    0  501    0 +0.0000000000e+00 +0.0000000000e+00 +3.9098624327e+03 3.9098624327e+03 0.0000000000e+00 0.0000e+00 1.0000e+00
       -2 -1    0    0    0  501 -0.0000000000e+00 -0.0000000000e+00 -1.9810013750e+03 1.9810013750e+03 0.0000000000e+00 0.0000e+00 -1.0000e+00
      -13  1    1    2    0    0 -1.2500024643e+03 +2.9607446164e+02 +3.5773292063e+03 3.8009802022e+03 0.0000000000e+00 0.0000e+00 1.0000e+00
       13  1    1    2    0    0 +1.2500024643e+03 -2.9607446164e+02 -1.6484681486e+03 2.0898836055e+03 0.0000000000e+00 0.0000e+00 -1.0000e+00
<mgrwt>
<rscale>  0 0.55661271E+04</rscale>
<asrwt>0</asrwt>
<pdfrwt beam="1">  1        2 0.60151730E+00 0.55661271E+04</pdfrwt>
<pdfrwt beam="2">  1       -2 0.30476944E+00 0.55661271E+04</pdfrwt>
<totfact> 0.70834115E-03</totfact>
</mgrwt>
<rwgt>
<wgt id='morphing_basis_vector_1'> +1.5896861e-06 </wgt>
<wgt id='morphing_basis_vector_2'> +2.0284397e-06 </wgt>
<wgt id='morphing_basis_vector_3'> +1.9743185e-06 </wgt>
<wgt id='morphing_basis_vector_4'> +3.5964666e-08 </wgt>
<wgt id='morphing_basis_vector_5'> +1.4131408e-06 </wgt>
</rwgt>
</event>
<event>
 4      1 +9.0096000e-12 5.74900000e+03 7.81860800e-03 7.29011400e-02
        2 -1    0    0  501    0 +0.0000000000e+00 +0.0000000000e+00 +2.4742467135e+03 2.4742467135e+03 0.0000000000e+00 0.0000e+00 -1.0000e+00
       -2 -1    0    0    0  501 -0.0000000000e+00 -0.0000000000e+00 -3.3395009693e+03 3.3395009693e+03 0.0000000000e+00 0.0000e+00 1.0000e+00
      -13  1    1    2    0    0 +1.7865090683e+03 -5.6190204717e+01 -2.7091982710e+03 3.2456936488e+03 0.0000000000e+00 0.0000e+00 1.0000e+00
       13  1    1    2    0    0 -1.7865090683e+03 +5.6190204717e+01 +1.8439440152e+03 2.5680540340e+03 0.0000000000e+00 0.0000e+00 -1.0000e+00
<mgrwt>
<rscale>  0 0.57489997E+04</rscale>
<asrwt>0</asrwt>
<pdfrwt beam="1">  1        2 0.38065334E+00 0.57489997E+04</pdfrwt>
<pdfrwt beam="2">  1       -2 0.51376938E+00 0.57489997E+04</pdfrwt>
<totfact> 0.25666518E-03</totfact>
</mgrwt>
<rwgt>
<wgt id='morphing_basis_vector_1'> +1.3312261e-06 </wgt>
<wgt id='morphing_basis_vector_2'> +9.0664487e-07 </wgt>
<wgt id='morphing_basis_vector_3'> +1.4689730e-06 </wgt>
<wgt id='morphing_basis_vector_4'> +1.0611153e-06 </wgt>
<wgt id='morphing_basis_vector_5'> +1.6944270e-06 </wgt>
</rwgt>
</event>
<event>
 4      1 +9.0096000e-12 5.90779800e+03 7.81860800e-03 7.27197900e-02
        2 -1    0    0  501    0 +0.0000000000e+00 +0.0000000000e+00 +4.4397344656e+03 4.4397344656e+03 0.0000000000e+00 0.0000e+00 1.0000e+00
       -2 -1    0    0    0  501 -0.0000000000e+00 -0.0000000000e+00 -1.9653247655e+03 1.9653247655e+03 0.0000000000e+00 0.0000e+00 -1.0000e+00
      -13  1    1    2    0    0 -2.3560785476e+02 -2.3800826160e+03 -6.4226482617e+02 2.4764507722e+03 0.0000000000e+00 0.0000e+00 -1.0000e+00
       13  1    1    2    0    0 +2.3560785476e+02 +2.3800826160e+03 +3.1166745264e+03 3.9286084589e+03 0.0000000000e+00 0.0000e+00 1.0000e+00
<mgrwt>
<rscale>  0 0.59077983E+04</rscale>
<asrwt>0</asrwt>
<pdfrwt beam="1">  1        2 0.68303607E+00 0.59077983E+04</pdfrwt>
<pdfrwt beam="2">  1       -2 0.30235766E+00 0.59077983E+04</pdfrwt>
<totfact> 0.23557433E-03</totfact>
</mgrwt>
<rwgt>
<wgt id='morphing_basis_vector_1'> +1.4873096e-06 </wgt>
<wgt id='morphing_basis_vector_2'> +1.0202863e-06 </wgt>
<wgt id='morphing_basis_vector_3'> +1.6432948e-06 </wgt>
<wgt id='morphing_basis_vector_4'> +1.1767885e-06 </wgt>
<wgt id='morphing_basis_vector_5'> +1.8894489e-06 </wgt>
</rwgt>
</event>
<event>
 4      1 +9.0096000e-12 5.74935700e+03 7.81860800e-03 7.29007300e-02
        2 -1    0    0  501    0 +0.0000000000e+00 +0.0000000000e+00 +2.8411053831e+03 2.8411053831e+03 0.0000000000e+00 0.0000e+00 1.0000e+00
       -2 -1    0    0    0  501 -0.0000000000e+00 -0.0000000000e+00 -2.9086487807e+03 2.9086487807e+03 0.0000000000e+00 0.0000e+00 -1.0000e+00
      -13  1    1    2    0    0 +1.7031382317e+02 +2.1180091090e+03 -1.9700892649e+03 2.8976233530e+03 0.0000000000e+00 0.0000e+00 -1.0000e+00
       13  1    1    2    0    0 -1.7031382317e+02 -2.1180091090e+03 +1.9025458673e+03 2.8521308107e+03 0.0000000000e+00 0.0000e+00 1.0000e+00
<mgrwt>
<rscale>  0 0.57493574E+04</rscale>
<asrwt>0</asrwt>
<pdfrwt beam="1">  1        2 0.43709314E+00 0.57493574E+04</pdfrwt>
<pdfrwt beam="2">  1       -2 0.44748442E+00 0.57493574E+04</pdfrwt>
<totfact> 0.46859099E-03</totfact>
</mgrwt>
<rwgt>
<wgt id='morphing_basis_vector_1'> +1.3328150e-06 </wgt>
<wgt id='morphing_basis_vector_2'> +9.1056431e-07 </wgt>
<wgt id='morphing_basis_vector_3'> +1.4713908e-06 </wgt>
<wgt id='morphing_basis_vector_4'> +1.0586904e-06 </wgt>
<wgt id='morphing_basis_vector_5'> +1.6946237e-06 </wgt>
</rwgt>
</event>
<event>
 4      1 +9.0096000e-12 5.95335000e+03 7.81860800e-03 7.26688300e-02
        2 -1    0    0  501    0 +0.0000000000e+00 +0.0000000000e+00 +3.9950526904e+03 3.9950526904e+03 0.0000000000e+00 0.0000e+00 -1.0000e+00
       -2 -1    0    0    0  501 -0.0000000000e+00 -0.0000000000e+00 -2.2178918540e+03 2.2178918540e+03 0.0000000000e+00 0.0000e+00 1.0000e+00
      -13  1    1    2    0    0 +2.7353561223e+03 +1.0572501297e+03 +1.4213749967e+03 3.2588737063e+03 0.0000000000e+00 0.0000e+00 1.0000e+00
       13  1    1    2    0    0 -2.7353561223e+03 -1.0572501297e+03 +3.5578583967e+02 2.9540708381e+03 0.0000000000e+00 0.0000e+00 -1.0000e+00
<mgrwt>
<rscale>  0 0.59533503E+04</rscale>
<asrwt>0</asrwt>
<pdfrwt beam="1">  1        2 0.61462349E+00 0.59533503E+04</pdfrwt>
<pdfrwt beam="2">  1       -2 0.34121413E+00 0.59533503E+04</pdfrwt>
<totfact> 0.33461252E-03</totfact>
</mgrwt>
<rwgt>
<wgt id='morphing_basis_vector_1'> +1.6318381e-06 </wgt>
<wgt id='morphing_basis_vector_2'> +1.3404291e-06 </wgt>
<wgt id='morphing_basis_vector_3'> +1.8549244e-06 </wgt>
<wgt id='morphing_basis_vector_4'> +1.0034809e-06 </wgt>
<wgt id='morphing_basis_vector_5'> +1.9308650e-06 </wgt>
</rwgt>
</event>
<event>
 4      1 +9.0096000e-12 5.79372500e+03 7.81860800e-03 7.28494700e-02
        2 -1    0    0  501    0 +0.0000000000e+00 +0.0000000000e+00 +3.4266811241e+03 3.4266811241e+03 0.0000000000e+00 0.0000e+00 1.0000e+00
       -2 -1    0    0    0  501 -0.0000000000e+00 -0.0000000000e+00 -2.4489617280e+03 2.4489617280e+03 0.0000000000e+00 0.0000e+00 -1.0000e+00
      -13  1    1    2    0    0 -1.6852281032e+03 +1.3303577896e+03 -1.4833646665e+03 2.6096391210e+03 0.0000000000e+00 0.0000e+00 -1.0000e+00
       13  1    1    2    0    0 +1.6852281032e+03 -1.3303577896e+03 +2.4610840626e+03 3.2660037311e+03 0.0000000000e+00 0.0000e+00 1.0000e+00
<mgrwt>
<rscale>  0 0.57937245E+04</rscale>
<asrwt>0</asrwt>
<pdfrwt beam="1">  1        2 0.52718171E+00 0.57937245E+04</pdfrwt>
<pdfrwt beam="2">  1       -2 0.37676334E+00 0.57937245E+04</pdfrwt>
<totfact> 0.55477276E-03</totfact>
</mgrwt>
<rwgt>
<wgt id='morphing_basis_vector_1'> +1.3743645e-06 </wgt>
<wgt id='morphing_basis_vector_2'> +9.3907096e-07 </wgt>
<wgt id='morphing_basis_vector_3'> +1.5173865e-06 </wgt>
<wgt id='morphing_basis_vector_4'> +1.0917542e-06 </wgt>
<wgt id='morphing_basis_vector_5'> +1.7476627e-06 </wgt>
</rwgt>
</event>
<event>
 4      1 +9.0096000e-12 5.80756700e+03 7.81860800e-03 7.28335700e-02
        2 -1    0    0  501    0 +0.0000000000e+00 +0.0000000000e+00 +3.2690959668e+03 3.2690959668e+03 0.0000000000e+00 0.0000e+00 -1.0000e+00
       -2 -1    0    0    0  501 -0.0000000000e+00 -0.0000000000e+00 -2.5792937542e+03 2.5792937542e+03 0.0000000000e+00 0.0000e+00 1.0000e+00
      -13  1    1    2    0    0 -7.3868336886e+02 -1.0852770505e+03 -2.2633783275e+03 2.6165551493e+03 0.0000000000e+00 0.0000e+00 1.0000e+00
       13  1    1    2    0    0 +7.3868336886e+02 +1.0852770505e+03 +2.9531805401e+03 3.2318345717e+03 0.0000000000e+00 0.0000e+00 -1.0000e+00
<mgrwt>
<rscale>  0 0.58075671E+04</rscale>
<asrwt>0</asrwt>
<pdfrwt beam="1">  1        2 0.50293784E+00 0.58075671E+04</pdfrwt>
<pdfrwt beam="2">  1       -2 0.39681442E+00 0.58075671E+04</pdfrwt>
<totfact> 0.53067511E-03</totfact>
</mgrwt>
<rwgt>
<wgt id='morphing_basis_vector_1'> +1.3855178e-06 </wgt>
<wgt id='morphing_basis_vector_2'> +9.4220961e-07 </wgt>
<wgt id='morphing_basis_vector_3'> +1.5286816e-06 </wgt>
<wgt id='morphing_basis_vector_4'> +1.1065170e-06 </wgt>
<wgt id='morphing_basis_vector_5'> +1.7648233e-06 </wgt>
</rwgt>
</event>
<event>
 4      1 +9.0096000e-12 6.04941900e+03 7.81860800e-03 7.25628800e-02
        2 -1    0    0  501    0 +0.0000000000e+00 +0.0000000000e+00 +3.5904902484e+03 3.5904902484e+03 0.0000000000e+00 0.0000e+00 1.0000e+00
       -2 -1    0    0    0  501 -0.0000000000e+00 -0.0000000000e+00 -2.5480833587e+03 2.5480833587e+03 0.0000000000e+00 0.0000e+00 -1.0000e+00
      -13  1    1    2    0    0 +9.0806736477e+02 +1.9390621970e+03 -1.6467094004e+03 2.7011479767e+03 0.0000000000e+00 0.0000e+00 -1.0000e+00
       13  1    1    2    0    0 -9.0806736477e+02 -1.9390621970e+03 +2.6891162902e+03 3.4374256304e+03 0.0000000000e+00 0.0000e+00 1.0000e+00
<mgrwt>
<rscale>  0 0.60494193E+04</rscale>
<asrwt>0</asrwt>
<pdfrwt beam="1">  1        2 0.55238311E+00 0.60494193E+04</pdfrwt>
<pdfrwt beam="2">  1       -2 0.39201282E+00 0.60494193E+04</pdfrwt>
<totfact> 0.32854949E-03</totfact>
</mgrwt>
<rwgt>
<wgt id='morphing_basis_vector_1'> +1.6322624e-06 </wgt>
<wgt id='morphing_basis_vector_2'> +1.1142114e-06 </wgt>
<wgt id='morphing_basis_vector_3'> +1.8024921e-06 </wgt>
<wgt id='morphing_basis_vector_4'> +1.2993984e-06 </wgt>
<wgt id='morphing_basis_vector_5'> +2.0781317e-06 </wgt>
</rwgt>
</event>
<event>
 4      1 +9.0096000e-12 5.59453600e+03 7.81860800e-03 7.30833700e-02
        2 -1    0    0  501    0 +0.0000000000e+00 +0.0000000000e+00 +1.3501220883e+03 1.3501220883e+03 0.0000000000e+00 0.0000e+00 -1.0000e+00
       -2 -1    0    0    0  501 -0.0000000000e+00 -0.0000000000e+00 -5.7955561684e+03 5.7955561684e+03 0.0000000000e+00 0.0000e+00 1.0000e+00
      -13  1    1    2    0    0 -2.5074908808e+03 +1.0472583412e+03 -3.0703866752e+03 4.1001871769e+03 0.0000000000e+00 0.0000e+00 1.0000e+00
       13  1    1    2    0    0 +2.5074908808e+03 -1.0472583412e+03 -1.3750474049e+03 3.0454910797e+03 0.0000000000e+00 0.0000e+00 -1.0000e+00
<mgrwt>
<rscale>  0 0.55945360E+04</rscale>
<asrwt>0</asrwt>
<pdfrwt beam="1">  1        2 0.20771109E+00 0.55945360E+04</pdfrwt>
<pdfrwt beam="2">  1       -2 0.89162402E+00 0.55945360E+04</pdfrwt>
<totfact> 0.32484025E-04</totfact>
</mgrwt>
<rwgt>
<wgt id='morphing_basis_vector_1'> +1.2112263e-06 </wgt>
<wgt id='morphing_basis_vector_2'> +8.6327472e-07 </wgt>
<wgt id='morphing_basis_vector_3'> +1.3451927e-06 </wgt>
<wgt id='morphing_basis_vector_4'> +9.1486704e-07 </wgt>
<wgt id='morphing_basis_vector_5'> +1.5160605e-06 </wgt>
</rwgt>
</event>
<event>
 4      1 +9.0096000e-12 5.62192800e+03 7.81860800e-03 7.30506200e-02
        2 -1    0    0  501    0 +0.0000000000e+00 +0.0000000000e+00 +3.2092406449e+03 3.2092406449e+03 0.0000000000e+00 0.0000e+00 1.0000e+00
       -2 -1    0    0    0  501 -0.0000000000e+00 -0.0000000000e+00 -2.4621144535e+03 2.4621144535e+03 0.0000000000e+00 0.0000e+00 -1.0000e+00
      -13  1    1    2    0    0 -2.4289415032e+03 -5.1308332405e+02 -9.5655357796e+02 2.6604522305e+03 0.0000000000e+00 0.0000e+00 -1.0000e+00
       13  1    1    2    0    0 +2.4289415032e+03 +5.1308332405e+02 +1.7036797693e+03 3.0109028679e+03 0.0000000000e+00 0.0000e+00 1.0000e+00
<mgrwt>
<rscale>  0 0.56219277E+04</rscale>
<asrwt>0</asrwt>
<pdfrwt beam="1">  1        2 0.49372933E+00 0.56219277E+04</pdfrwt>
<pdfrwt beam="2">  1       -2 0.37878684E+00 0.56219277E+04</pdfrwt>
<totfact> 0.77432623E-03</totfact>
</mgrwt>
<rwgt>
<wgt id='morphing_basis_vector_1'> +1.2233204e-06 </wgt>
<wgt id='morphing_basis_vector_2'> +8.4582461e-07 </wgt>
<wgt id='morphing_basis_vector_3'> +1.3525997e-06 </wgt>
<wgt id='morphing_basis_vector_4'> +9.5804113e-07 </wgt>
<wgt id='morphing_basis_vector_5'> +1.5481538e-06 </wgt>
</rwgt>
</event>
<event>
 4      1 +9.0096000e-12 5.82655600e+03 7.81860800e-03 7.28118300e-02
        2 -1    0    0  501    0 +0.0000000000e+00 +0.0000000000e+00 +3.2596982353e+03 3.2596982353e+03 0.0000000000e+00 0.0000e+00 -1.0000e+00
       -2 -1    0    0    0  501 -0.0000000000e+00 -0.0000000000e+00 -2.6036732869e+03 2.6036732869e+03 0.0000000000e+00 0.0000e+00 1.0000e+00
      -13  1    1    2    0    0 +8.9070747663e+02 +9.6428922720e+01 -2.4616017909e+03 2.6195689957e+03 0.0000000000e+00 0.0000e+00 1.0000e+00
       13  1    1    2    0    0 -8.9070747663e+02 -9.6428922720e+01 +3.1176267392e+03 3.2438025266e+03 0.0000000000e+00 0.0000e+00 -1.0000e+00
<mgrwt>
<rscale>  0 0.58265562E+04</rscale>
<asrwt>0</asrwt>
<pdfrwt beam="1">  1        2 0.50149204E+00 0.58265562E+04</pdfrwt>
<pdfrwt beam="2">  1       -2 0.40056512E+00 0.58265562E+04</pdfrwt>
<totfact> 0.50844559E-03</totfact>
</mgrwt>
<rwgt>
<wgt id='morphing_basis_vector_1'> +1.4035318e-06 </wgt>
<wgt id='morphing_basis_vector_2'> +9.5413629e-07 </wgt>
<wgt id='morphing_basis_vector_3'> +1.5485228e-06 </wgt>
<wgt id='morphing_basis_vector_4'> +1.1214178e-06 </wgt>
<wgt id='morphing_basis_vector_5'> +1.7881006e-06 </wgt>
</rwgt>
</event>
<event>
 4      1 +9.0096000e-12 5.90831300e+03 7.81860800e-03 7.27192100e-02
        2 -1    0    0  501    0 +0.0000000000e+00 +0.0000000000e+00 +3.5478540463e+03 3.5478540463e+03 0.0000000000e+00 0.0000e+00 -1.0000e+00
       -2 -1    0    0    0  501 -0.0000000000e+00 -0.0000000000e+00 -2.4598078510e+03 2.4598078510e+03 0.0000000000e+00 0.0000e+00 1.0000e+00
      -13  1    1    2    0    0 -5.8589440735e+02 +2.8379489794e+03 +1.1279730477e+03 3.1095899831e+03 0.0000000000e+00 0.0000e+00 -1.0000e+00
       13  1    1    2    0    0 +5.8589440735e+02 -2.8379489794e+03 -3.9926852497e+01 2.8980719142e+03 0.0000000000e+00 0.0000e+00 1.0000e+00
<mgrwt>
<rscale>  0 0.59083125E+04</rscale>
<asrwt>0</asrwt>
<pdfrwt beam="1">  1        2 0.54582370E+00 0.59083125E+04</pdfrwt>
<pdfrwt beam="2">  1       -2 0.37843198E+00 0.59083125E+04</pdfrwt>
<totfact> 0.43770791E-03</totfact>
</mgrwt>
<rwgt>
<wgt id='morphing_basis_vector_1'> +1.5910770e-06 </wgt>
<wgt id='morphing_basis_vector_2'> +1.3237117e-06 </wgt>
<wgt id='morphing_basis_vector_3'> +1.8123852e-06 </wgt>
<wgt id='morphing_basis_vector_4'> +9.5639397e-07 </wgt>
<wgt id='morphing_basis_vector_5'> +1.8715403e-06 </wgt>
</rwgt>
</event>
<event>
 4      1 +9.0096000e-12 6.04274600e+03 7.81860800e-03 7.25701700e-02
        2 -1    0    0  501    0 +0.0000000000e+00 +0.0000000000e+00 +3.2344974548e+03 3.2344974548e+03 0.0000000000e+00 0.0000e+00 1.0000e+00
       -2 -1    0    0    0  501 -0.0000000000e+00 -0.0000000000e+00 -2.8222910854e+03 2.8222910854e+03 0.0000000000e+00 0.0000e+00 -1.0000e+00
      -13  1    1    2    0    0 -5.1966539913e+02 +2.8008801647e+03 -8.0306905508e+02 2.9597131163e+03 0.0000000000e+00 0.0000e+00 -1.0000e+00
       13  1    1    2    0    0 +5.1966539913e+02 -2.8008801647e+03 +1.2152754245e+03 3.0970754239e+03 0.0000000000e+00 0.0000e+00 1.0000e+00
<mgrwt>
<rscale>  0 0.60427455E+04</rscale>
<asrwt>0</asrwt>
<pdfrwt beam="1">  1        2 0.49761499E+00 0.60427455E+04</pdfrwt>
<pdfrwt beam="2">  1       -2 0.43419863E+00 0.60427455E+04</pdfrwt>
<totfact> 0.31151041E-03</totfact>
</mgrwt>
<rwgt>
<wgt id='morphing_basis_vector_1'> +1.6392786e-06 </wgt>
<wgt id='morphing_basis_vector_2'> +1.1509598e-06 </wgt>
<wgt id='morphing_basis_vector_3'> +1.8177285e-06 </wgt>
<wgt id='morphing_basis_vector_4'> +1.2633012e-06 </wgt>
<wgt id='morphing_basis_vector_5'> +2.0664026e-06 </wgt>
</rwgt>
</event>
<event>
 4      1 +9.0096000e-12 5.97107400e+03 7.81860800e-03 7.26491300e-02
        2 -1    0    0  501    0 +0.0000000000e+00 +0.0000000000e+00 +3.6596377311e+03 3.6596377311e+03 0.0000000000e+00 0.0000e+00 1.0000e+00
       -2 -1    0    0    0  501 -0.0000000000e+00 -0.0000000000e+00 -2.4356049761e+03 2.4356049761e+03 0.0000000000e+00 0.0000e+00 -1.0000e+00
      -13  1    1    2    0    0 -9.7792653802e+02 -6.4599855758e+02 -2.1909494036e+03 2.4847361508e+03 0.0000000000e+00 0.0000e+00 -1.0000e+00
       13  1    1    2    0    0 +9.7792653802e+02 +6.4599855758e+02 +3.4149821586e+03 3.6105065564e+03 0.0000000000e+00 0.0000e+00 1.0000e+00
<mgrwt>
<rscale>  0 0.59710742E+04</rscale>
<asrwt>0</asrwt>
<pdfrwt beam="1">  1        2 0.56302119E+00 0.59710742E+04</pdfrwt>
<pdfrwt beam="2">  1       -2 0.37470846E+00 0.59710742E+04</pdfrwt>
<totfact> 0.37894827E-03</totfact>
</mgrwt>
<rwgt>
<wgt id='morphing_basis_vector_1'> +1.5477608e-06 </wgt>
<wgt id='morphing_basis_vector_2'> +1.0524946e-06 </wgt>
<wgt id='morphing_basis_vector_3'> +1.7080588e-06 </wgt>
<wgt id='morphing_basis_vector_4'> +1.2370026e-06 </wgt>
<wgt id='morphing_basis_vector_5'> +1.9726415e-06 </wgt>
</rwgt>
</event>
<event>
 4      1 +9.0096000e-12 5.59340100e+03 7.81860800e-03 7.30847400e-02
        2 -1    0    0  501    0 +0.0000000000e+00 +0.0000000000e+00 +3.9950088362e+03 3.9950088362e+03 0.0000000000e+00 0.0000e+00 -1.0000e+00
       -2 -1    0    0    0  501 -0.0000000000e+00 -0.0000000000e+00 -1.9578260795e+03 1.9578260795e+03 0.0000000000e+00 0.0000e+00 1.0000e+00
      -13  1    1    2    0    0 +1.2246876661e+03 -2.4698497917e+03 +5.1769359640e+02 2.8049999167e+03 0.0000000000e+00 0.0000e+00 1.0000e+00
       13  1    1    2    0    0 -1.2246876661e+03 +2.4698497917e+03 +1.5194891602e+03 3.1478349990e+03 0.0000000000e+00 0.0000e+00 -1.0000e+00
<mgrwt>
<rscale>  0 0.55934006E+04</rscale>
<asrwt>0</asrwt>
<pdfrwt beam="1">  1        2 0.61461674E+00 0.55934006E+04</pdfrwt>
<pdfrwt beam="2">  1       -2 0.30120401E+00 0.55934006E+04</pdfrwt>
<totfact> 0.63362931E-03</totfact>
</mgrwt>
<rwgt>
<wgt id='morphing_basis_vector_1'> +1.2158622e-06 </wgt>
<wgt id='morphing_basis_vector_2'> +8.7906254e-07 </wgt>
<wgt id='morphing_basis_vector_3'> +1.3532522e-06 </wgt>
<wgt id='morphing_basis_vector_4'> +9.0212500e-07 </wgt>
<wgt id='morphing_basis_vector_5'> +1.5138190e-06 </wgt>
</rwgt>
</event>
<event>
 4      1 +9.0096000e-12 5.91059200e+03 7.81860800e-03 7.27166500e-02
        2 -1    0    0  501    0 +0.0000000000e+00 +0.0000000000e+00 +3.9497071498e+03 3.9497071498e+03 0.0000000000e+00 0.0000e+00 -1.0000e+00
       -2 -1    0    0    0  501 -0.0000000000e+00 -0.0000000000e+00 -2.2112460982e+03 2.2112460982e+03 0.0000000000e+00 0.0000e+00 1.0000e+00
      -13  1    1    2    0    0 +3.4095310115e+02 +2.9347863647e+03 +9.3957618743e+02 3.1003263434e+03 0.0000000000e+00 0.0000e+00 1.0000e+00
       13  1    1    2    0    0 -3.4095310115e+02 -2.9347863647e+03 +7.9888486420e+02 3.0606269047e+03 0.0000000000e+00 0.0000e+00 -1.0000e+00
<mgrwt>
<rscale>  0 0.59105920E+04</rscale>
<asrwt>0</asrwt>
<pdfrwt beam="1">  1        2 0.60764725E+00 0.59105920E+04</pdfrwt>
<pdfrwt beam="2">  1       -2 0.34019171E+00 0.59105920E+04</pdfrwt>
<totfact> 0.37234211E-03</totfact>
</mgrwt>
<rwgt>
<wgt id='morphing_basis_vector_1'> +1.5454192e-06 </wgt>
<wgt id='morphing_basis_vector_2'> +1.1845396e-06 </wgt>
<wgt id='morphing_basis_vector_3'> +1.7366640e-06 </wgt>
<wgt id='morphing_basis_vector_4'> +1.0607573e-06 </wgt>
<wgt id='morphing_basis_vector_5'> +1.8830885e-06 </wgt>
</rwgt>
</event>
<event>
 4      1 +9.0096000e-12 5.69598900e+03 7.81860800e-03 7.29630200e-02
        2 -1    0    0  501    0 +0.0000000000e+00 +0.0000000000e+00 +3.4027213982e+03 3.4027213982e+03 0.0000000000e+00 0.0000e+00 -1.0000e+00
       -2 -1    0    0    0  501 -0.0000000000e+00 -0.0000000000e+00 -2.3837014625e+03 2.3837014625e+03 0.0000000000e+00 0.0000e+00 1.0000e+00
      -13  1    1    2    0    0 -1.6797062040e+03 -2.1074668658e+03 -4.2611337039e+02 2.7284431690e+03 0.0000000000e+00 0.0000e+00 1.0000e+00
       13  1    1    2    0    0 +1.6797062040e+03 +2.1074668658e+03 +1.4451333061e+03 3.0579796916e+03 0.0000000000e+00 0.0000e+00 -1.0000e+00
<mgrwt>
<rscale>  0 0.56959888E+04</rscale>
<asrwt>0</asrwt>
<pdfrwt beam="1">  1        2 0.52349560E+00 0.56959888E+04</pdfrwt>
<pdfrwt beam="2">  1       -2 0.36672330E+00 0.56959888E+04</pdfrwt>
<totfact> 0.67463078E-03</totfact>
</mgrwt>
<rwgt>
<wgt id='morphing_basis_vector_1'> +1.2954621e-06 </wgt>
<wgt id='morphing_basis_vector_2'> +9.1051436e-07 </wgt>
<wgt id='morphing_basis_vector_3'> +1.4359932e-06 </wgt>
<wgt id='morphing_basis_vector_4'> +9.9562305e-07 </wgt>
<wgt id='morphing_basis_vector_5'> +1.6303906e-06 </wgt>
</rwgt>
</event>
<event>
 4      1 +9.0096000e-12 6.43531100e+03 7.81860800e-03 7.21565700e-02
        2 -1    0    0  501    0 +0.0000000000e+00 +0.0000000000e+00 +2.4387644575e+03 2.4387644575e+03 0.0000000000e+00 0.0000e+00 1.0000e+00
       -2 -1    0    0    0  501 -0.0000000000e+00 -0.0000000000e+00 -4.2453082284e+03 4.2453082284e+03 0.0000000000e+00 0.0000e+00 -1.0000e+00
      -13  1    1    2    0    0 +2.1446590387e+03 +1.1461437215e+02 -3.3918459517e+03 4.0146379422e+03 0.0000000000e+00 0.0000e+00 -1.0000e+00
       13  1    1    2    0    0 -2.1446590387e+03 -1.1461437215e+02 +1.5853021808e+03 2.6694347437e+03 0.0000000000e+00 0.0000e+00 1.0000e+00
<mgrwt>
<rscale>  0 0.64353110E+04</rscale>
<asrwt>0</asrwt>
<pdfrwt beam="1">  1        2 0.37519453E+00 0.64353110E+04</pdfrwt>
<pdfrwt beam="2">  1       -2 0.65312434E+00 0.64353110E+04</pdfrwt>
<totfact> 0.10496463E-04</totfact>
</mgrwt>
<rwgt>
<wgt id='morphing_basis_vector_1'> +2.0885348e-06 </wgt>
<wgt id='morphing_basis_vector_2'> +1.4245569e-06 </wgt>
<wgt id='morphing_basis_vector_3'> +2.3071122e-06 </wgt>
<wgt id='morphing_basis_vector_4'> +1.6663556e-06 </wgt>
<wgt id='morphing_basis_vector_5'> +2.6627814e-06 </wgt>
</rwgt>
</event>
<event>
 4      1 +9.0096000e-12 5.56973600e+03 7.81860800e-03 7.31131900e-02
        2 -1    0    0  501    0 +0.0000000000e+00 +0.0000000000e+00 +3.5020010383e+03 3.5020010383e+03 0.0000000000e+00 0.0000e+00 -1.0000e+00
       -2 -1    0    0    0  501 -0.0000000000e+00 -0.0000000000e+00 -2.2145880279e+03 2.2145880279e+03 0.0000000000e+00 0.0000e+00 1.0000e+00
      -13  1    1    2    0    0 -1.3675587735e+03 -1.9302811615e+03 -8.6448876964e+02 2.5186391553e+03 0.0000000000e+00 0.0000e+00 1.0000e+00
       13  1    1    2    0    0 +1.3675587735e+03 +1.9302811615e+03 +2.1519017801e+03 3.1979499109e+03 0.0000000000e+00 0.0000e+00 -1.0000e+00
<mgrwt>
<rscale>  0 0.55697359E+04</rscale>
<asrwt>0</asrwt>
<pdfrwt beam="1">  1        2 0.53876939E+00 0.55697359E+04</pdfrwt>
<pdfrwt beam="2">  1       -2 0.34070585E+00 0.55697359E+04</pdfrwt>
<totfact> 0.85025155E-03</totfact>
</mgrwt>
<rwgt>
<wgt id='morphing_basis_vector_1'> +1.1770002e-06 </wgt>
<wgt id='morphing_basis_vector_2'> +8.1007689e-07 </wgt>
<wgt id='morphing_basis_vector_3'> +1.3004061e-06 </wgt>
<wgt id='morphing_basis_vector_4'> +9.2636889e-07 </wgt>
<wgt id='morphing_basis_vector_5'> +1.4916128e-06 </wgt>
</rwgt>
</event>
<event>
 4      1 +9.0096000e-12 5.70918100e+03 7.81860800e-03 7.29475600e-02
        2 -1    0    0  501    0 +0.0000000000e+00 +0.0000000000e+00 +2.7446174961e+03 2.7446174961e+03 0.0000000000e+00 0.0000e+00 -1.0000e+00
       -2 -1    0    0    0  501 -0.0000000000e+00 -0.0000000000e+00 -2.9689704852e+03 2.9689704852e+03 0.0000000000e+00 0.0000e+00 1.0000e+00
      -13  1    1    2    0    0 +4.4708823762e+02 +2.4888289683e+03 +1.2134328890e+03 2.8047418601e+03 0.0000000000e+00 0.0000e+00 1.0000e+00
       13  1    1    2    0    0 -4.4708823762e+02 -2.4888289683e+03 -1.4377858781e+03 2.9088461212e+03 0.0000000000e+00 0.0000e+00 -1.0000e+00
<mgrwt>
<rscale>  0 0.57091815E+04</rscale>
<asrwt>0</asrwt>
<pdfrwt beam="1">  1        2 0.42224885E+00 0.57091815E+04</pdfrwt>
<pdfrwt beam="2">  1       -2 0.45676469E+00 0.57091815E+04</pdfrwt>
<totfact> 0.46510463E-03</totfact>
</mgrwt>
<rwgt>
<wgt id='morphing_basis_vector_1'> +1.5106403e-06 </wgt>
<wgt id='morphing_basis_vector_2'> +1.5153686e-06 </wgt>
<wgt id='morphing_basis_vector_3'> +1.7805946e-06 </wgt>
<wgt id='morphing_basis_vector_4'> +5.7071127e-07 </wgt>
<wgt id='morphing_basis_vector_5'> +1.6090932e-06 </wgt>
</rwgt>
</event>
<event>
 4      1 +9.0096000e-12 5.85851100e+03 7.81860800e-03 7.27754500e-02
        2 -1    0    0  501    0 +0.0000000000e+00 +0.0000000000e+00 +2.9530339082e+03 2.9530339082e+03 0.0000000000e+00 0.0000e+00 1.0000e+00
       -2 -1    0    0    0  501 -0.0000000000e+00 -0.0000000000e+00 -2.9056690343e+03 2.9056690343e+03 0.0000000000e+00 0.0000e+00 -1.0000e+00
      -13  1    1    2    0    0 -2.5514667284e+03 +1.3459078382e+03 +5.3270674329e+02 2.9334666948e+03 0.0000000000e+00 0.0000e+00 -1.0000e+00
       13  1    1    2    0    0 +2.5514667284e+03 -1.3459078382e+03 -4.8534186940e+02 2.9252362477e+03 0.0000000000e+00 0.0000e+00 1.0000e+00
<mgrwt>
<rscale>  0 0.58585115E+04</rscale>
<asrwt>0</asrwt>
<pdfrwt beam="1">  1        2 0.45431291E+00 0.58585115E+04</pdfrwt>
<pdfrwt beam="2">  1       -2 0.44702600E+00 0.58585115E+04</pdfrwt>
<totfact> 0.39709701E-03</totfact>
</mgrwt>
<rwgt>
<wgt id='morphing_basis_vector_1'> +1.5312773e-06 </wgt>
<wgt id='morphing_basis_vector_2'> +1.2592940e-06 </wgt>
<wgt id='morphing_basis_vector_3'> +1.7406819e-06 </wgt>
<wgt id='morphing_basis_vector_4'> +9.3935140e-07 </wgt>
<wgt id='morphing_basis_vector_5'> +1.8103453e-06 </wgt>
</rwgt>
</event>
<event>
 4      1 +9.0096000e-12 5.69303300e+03 7.81860800e-03 7.29664900e-02
        2 -1    0    0  501    0 +0.0000000000e+00 +0.0000000000e+00 +3.6402139375e+03 3.6402139375e+03 0.0000000000e+00 0.0000e+00 -1.0000e+00
       -2 -1    0    0    0  501 -0.0000000000e+00 -0.0000000000e+00 -2.2258734176e+03 2.2258734176e+03 0.0000000000e+00 0.0000e+00 1.0000e+00
      -13  1    1    2    0    0 -1.6016329565e+03 +5.2711662513e+02 +3.0702598469e+03 3.5027953967e+03 0.0000000000e+00 0.0000e+00 -1.0000e+00
       13  1    1    2    0    0 +1.6016329565e+03 -5.2711662513e+02 -1.6559193269e+03 2.3632919585e+03 0.0000000000e+00 0.0000e+00 1.0000e+00
<mgrwt>
<rscale>  0 0.56930327E+04</rscale>
<asrwt>0</asrwt>
<pdfrwt beam="1">  1        2 0.56003291E+00 0.56930327E+04</pdfrwt>
<pdfrwt beam="2">  1       -2 0.34244206E+00 0.56930327E+04</pdfrwt>
<totfact> 0.64658427E-03</totfact>
</mgrwt>
<rwgt>
<wgt id='morphing_basis_vector_1'> +1.7090756e-06 </wgt>
<wgt id='morphing_basis_vector_2'> +2.1306822e-06 </wgt>
<wgt id='morphing_basis_vector_3'> +2.1117054e-06 </wgt>
<wgt id='morphing_basis_vector_4'> +1.0392954e-07 </wgt>
<wgt id='morphing_basis_vector_5'> +1.5522350e-06 </wgt>
</rwgt>
</event>
<event>
 4      1 +9.0096000e-12 5.94931900e+03 7.81860800e-03 7.26733200e-02
        2 -1    0    0  501    0 +0.0000000000e+00 +0.0000000000e+00 +1.6884014378e+03 1.6884014378e+03 0.0000000000e+00 0.0000e+00 -1.0000e+00
       -2 -1    0    0    0  501 -0.0000000000e+00 -0.0000000000e+00 -5.2408142794e+03 5.2408142794e+03 0.0000000000e+00 0.0000e+00 1.0000e+00
      -13  1    1    2    0    0 -9.3140144143e+02 +2.8309958433e+02 -5.0500380931e+03 5.1430087265e+03 0.0000000000e+00 0.0000e+00 1.0000e+00
       13  1    1    2    0    0 +9.3140144143e+02 -2.8309958433e+02 +1.4976252515e+03 1.7862069907e+03 0.0000000000e+00 0.0000e+00 -1.0000e+00
<mgrwt>
<rscale>  0 0.59493187E+04</rscale>
<asrwt>0</asrwt>
<pdfrwt beam="1">  1        2 0.25975407E+00 0.59493187E+04</pdfrwt>
<pdfrwt beam="2">  1       -2 0.80627912E+00 0.59493187E+04</pdfrwt>
<totfact> 0.78836074E-04</totfact>
</mgrwt>
<rwgt>
<wgt id='morphing_basis_vector_1'> +1.5253194e-06 </wgt>
<wgt id='morphing_basis_vector_2'> +1.0370797e-06 </wgt>
<wgt id='morphing_basis_vector_3'> +1.6832087e-06 </wgt>
<wgt id='morphing_basis_vector_4'> +1.2191603e-06 </wgt>
<wgt id='morphing_basis_vector_5'> +1.9439964e-06 </wgt>
</rwgt>
</event>
<event>
 4      1 +9.0096000e-12 6.64000700e+03 7.81860800e-03 7.19526000e-02
        2 -1    0    0  501    0 +0.0000000000e+00 +0.0000000000e+00 +2.8023740027e+03 2.8023740027e+03 0.0000000000e+00 0.0000e+00 1.0000e+00
       -2 -1    0    0    0  501 -0.0000000000e+00 -0.0000000000e+00 -3.9332448510e+03 3.9332448510e+03 0.0000000000e+00 0.0000e+00 -1.0000e+00
      -13  1    1    2    0    0 -4.4673035171e+02 +2.7045622032e+03 -2.4654242295e+03 3.6868063890e+03 0.0000000000e+00 0.0000e+00 -1.0000e+00
       13  1    1    2    0    0 +4.4673035171e+02 -2.7045622032e+03 +1.3345533812e+03 3.0488124648e+03 0.0000000000e+00 0.0000e+00 1.0000e+00
<mgrwt>
<rscale>  0 0.66400070E+04</rscale>
<asrwt>0</asrwt>
<pdfrwt beam="1">  1        2 0.43113446E+00 0.66400070E+04</pdfrwt>
<pdfrwt beam="2">  1       -2 0.60511459E+00 0.66400070E+04</pdfrwt>
<totfact> 0.30118203E-04</totfact>
</mgrwt>
<rwgt>
<wgt id='morphing_basis_vector_1'> +2.3720200e-06 </wgt>
<wgt id='morphing_basis_vector_2'> +1.6302629e-06 </wgt>
<wgt id='morphing_basis_vector_3'> +2.6237187e-06 </wgt>
<wgt id='morphing_basis_vector_4'> +1.8776130e-06 </wgt>
<wgt id='morphing_basis_vector_5'> +3.0178156e-06 </wgt>
</rwgt>
</event>
<event>
 4      1 +9.0096000e-12 5.69894800e+03 7.81860800e-03 7.29595500e-02
        2 -1    0    0  501    0 +0.0000000000e+00 +0.0000000000e+00 +4.4903148174e+03 4.4903148174e+03 0.0000000000e+00 0.0000e+00 -1.0000e+00
       -2 -1    0    0    0  501 -0.0000000000e+00 -0.0000000000e+00 -1.8082257024e+03 1.8082257024e+03 0.0000000000e+00 0.0000e+00 1.0000e+00
      -13  1    1    2    0    0 +1.0166713380e+03 -1.4272683919e+03 -1.1423100685e+03 2.0917906120e+03 0.0000000000e+00 0.0000e+00 1.0000e+00
       13  1    1    2    0    0 -1.0166713380e+03 +1.4272683919e+03 +3.8243991835e+03 4.2067499078e+03 0.0000000000e+00 0.0000e+00 -1.0000e+00
<mgrwt>
<rscale>  0 0.56989482E+04</rscale>
<asrwt>0</asrwt>
<pdfrwt beam="1">  1        2 0.69081766E+00 0.56989482E+04</pdfrwt>
<pdfrwt beam="2">  1       -2 0.27818857E+00 0.56989482E+04</pdfrwt>
<totfact> 0.30967276E-03</totfact>
</mgrwt>
<rwgt>
<wgt id='morphing_basis_vector_1'> +1.2855392e-06 </wgt>
<wgt id='morphing_basis_vector_2'> +8.7538724e-07 </wgt>
<wgt id='morphing_basis_vector_3'> +1.4184199e-06 </wgt>
<wgt id='morphing_basis_vector_4'> +1.0246481e-06 </wgt>
<wgt id='morphing_basis_vector_5'> +1.6360548e-06 </wgt>
</rwgt>
</event>
<event>
 4      1 +9.0096000e-12 5.73174500e+03 7.81860800e-03 7.29212100e-02
        2 -1    0    0  501    0 +0.0000000000e+00 +0.0000000000e+00 +1.6141262190e+03 1.6141262190e+03 0.0000000000e+00 0.0000e+00 -1.0000e+00
       -2 -1    0    0    0  501 -0.0000000000e+00 -0.0000000000e+00 -5.0883411136e+03 5.0883411136e+03 0.0000000000e+00 0.0000e+00 1.0000e+00
      -13  1    1    2    0    0 +2.6871917228e+03 -2.6061895662e+02 -2.8613372275e+03 3.9339766553e+03 0.0000000000e+00 0.0000e+00 1.0000e+00
       13  1    1    2    0    0 -2.6871917228e+03 +2.6061895662e+02 -6.1287766717e+02 2.7684906773e+03 0.0000000000e+00 0.0000e+00 -1.0000e+00
<mgrwt>
<rscale>  0 0.57317449E+04</rscale>
<asrwt>0</asrwt>
<pdfrwt beam="1">  1        2 0.24832711E+00 0.57317449E+04</pdfrwt>
<pdfrwt beam="2">  1       -2 0.78282170E+00 0.57317449E+04</pdfrwt>
<totfact> 0.94635496E-04</totfact>
</mgrwt>
<rwgt>
<wgt id='morphing_basis_vector_1'> +1.3275135e-06 </wgt>
<wgt id='morphing_basis_vector_2'> +9.3150991e-07 </wgt>
<wgt id='morphing_basis_vector_3'> +1.4712451e-06 </wgt>
<wgt id='morphing_basis_vector_4'> +1.0224183e-06 </wgt>
<wgt id='morphing_basis_vector_5'> +1.6719435e-06 </wgt>
</rwgt>
</event>
<event>
 4      1 +9.0096000e-12 6.12159600e+03 7.81860800e-03 7.24845800e-02
        2 -1    0    0  501    0 +0.0000000000e+00 +0.0000000000e+00 +3.7103193350e+03 3.7103193350e+03 0.0000000000e+00 0.0000e+00 -1.0000e+00
       -2 -1    0    0    0  501 -0.0000000000e+00 -0.0000000000e+00 -2.5249805678e+03 2.5249805678e+03 0.0000000000e+00 0.0000e+00 1.0000e+00
      -13  1    1    2    0    0 +1.0342888158e+03 -2.8761049490e+03 +7.5926525240e+02 3.1493200466e+03 0.0000000000e+00 0.0000e+00 1.0000e+00
       13  1    1    2    0    0 -1.0342888158e+03 +2.8761049490e+03 +4.2607351481e+02 3.0859798561e+03 0.0000000000e+00 0.0000e+00 -1.0000e+00
<mgrwt>
<rscale>  0 0.61215959E+04</rscale>
<asrwt>0</asrwt>
<pdfrwt beam="1">  1        2 0.57081836E+00 0.61215959E+04</pdfrwt>
<pdfrwt beam="2">  1       -2 0.38845855E+00 0.61215959E+04</pdfrwt>
<totfact> 0.27905963E-03</totfact>
</mgrwt>
<rwgt>
<wgt id='morphing_basis_vector_1'> +1.7854785e-06 </wgt>
<wgt id='morphing_basis_vector_2'> +1.3857613e-06 </wgt>
<wgt id='morphing_basis_vector_3'> +2.0111018e-06 </wgt>
<wgt id='morphing_basis_vector_4'> +1.2041164e-06 </wgt>
<wgt id='morphing_basis_vector_5'> +2.1659801e-06 </wgt>
</rwgt>
</event>
<event>
 4      1 +9.0096000e-12 6.55612200e+03 7.81860800e-03 7.20352700e-02
        2 -1    0    0  501    0 +0.0000000000e+00 +0.0000000000e+00 +2.8807450659e+03 2.8807450659e+03 0.0000000000e+00 0.0000e+00 1.0000e+00
       -2 -1    0    0    0  501 -0.0000000000e+00 -0.0000000000e+00 -3.7301748793e+03 3.7301748793e+03 0.0000000000e+00 0.0000e+00 -1.0000e+00
      -13  1    1    2    0    0 -1.5458232024e+03 +2.0256236199e+03 -2.5042232493e+03 3.5726537063e+03 0.0000000000e+00 0.0000e+00 -1.0000e+00
       13  1    1    2    0    0 +1.5458232024e+03 -2.0256236199e+03 +1.6547934359e+03 3.0382662389e+03 0.0000000000e+00 0.0000e+00 1.0000e+00
<mgrwt>
<rscale>  0 0.65561217E+04</rscale>
<asrwt>0</asrwt>
<pdfrwt beam="1">  1        2 0.44319155E+00 0.65561217E+04</pdfrwt>
<pdfrwt beam="2">  1       -2 0.57387306E+00 0.65561217E+04</pdfrwt>
<totfact> 0.49729109E-04</totfact>
</mgrwt>
<rwgt>
<wgt id='morphing_basis_vector_1'> +2.2522849e-06 </wgt>
<wgt id='morphing_basis_vector_2'> +1.5426260e-06 </wgt>
<wgt id='morphing_basis_vector_3'> +2.4898116e-06 </wgt>
<wgt id='morphing_basis_vector_4'> +1.7893621e-06 </wgt>
<wgt id='morphing_basis_vector_5'> +2.8683380e-06 </wgt>
</rwgt>
</event>
<event>
 4      1 +9.0096000e-12 5.58388400e+03 7.81860800e-03 7.30961600e-02
        2 -1    0    0  501    0 +0.0000000000e+00 +0.0000000000e+00 +3.0458304220e+03 3.0458304220e+03 0.0000000000e+00 0.0000e+00 1.0000e+00
       -2 -1    0    0    0  501 -0.0000000000e+00 -0.0000000000e+00 -2.5592171278e+03 2.5592171278e+03 0.0000000000e+00 0.0000e+00 -1.0000e+00
      -13  1    1    2    0    0 +4.9623752318e+02 +1.5725177088e+03 -2.0182030590e+03 2.6061863347e+03 0.0000000000e+00 0.0000e+00 -1.0000e+00
       13  1    1    2    0    0 -4.9623752318e+02 -1.5725177088e+03 +2.5048163533e+03 2.9988612151e+03 0.0000000000e+00 0.0000e+00 1.0000e+00
<mgrwt>
<rscale>  0 0.55838844E+04</rscale>
<asrwt>0</asrwt>
<pdfrwt beam="1">  1        2 0.46858930E+00 0.55838844E+04</pdfrwt>
<pdfrwt beam="2">  1       -2 0.39372571E+00 0.55838844E+04</pdfrwt>
<totfact> 0.79952103E-03</totfact>
</mgrwt>
<rwgt>
<wgt id='morphing_basis_vector_1'> +1.1849455e-06 </wgt>
<wgt id='morphing_basis_vector_2'> +8.0650580e-07 </wgt>
<wgt id='morphing_basis_vector_3'> +1.3071053e-06 </wgt>
<wgt id='morphing_basis_vector_4'> +9.4444560e-07 </wgt>
<wgt id='morphing_basis_vector_5'> +1.5075887e-06 </wgt>
</rwgt>
</event>
<event>
 4      1 +9.0096000e-12 5.66521600e+03 7.81860800e-03 7.29992500e-02
        2 -1    0    0  501    0 +0.0000000000e+00 +0.0000000000e+00 +2.9547300217e+03 2.9547300217e+03 0.0000000000e+00 0.0000e+00 -1.0000e+00
       -2 -1    0    0    0  501 -0.0000000000e+00 -0.0000000000e+00 -2.7155335062e+03 2.7155335062e+03 0.0000000000e+00 0.0000e+00 1.0000e+00
      -13  1    1    2    0    0 -1.0674969377e+03 -1.2764632659e+02 -2.5033901730e+03 2.7244826398e+03 0.0000000000e+00 0.0000e+00 1.0000e+00
       13  1    1    2    0    0 +1.0674969377e+03 +1.2764632659e+02 +2.7425866885e+03 2.9457808880e+03 0.0000000000e+00 0.0000e+00 -1.0000e+00
<mgrwt>
<rscale>  0 0.56652161E+04</rscale>
<asrwt>0</asrwt>
<pdfrwt beam="1">  1        2 0.45457385E+00 0.56652161E+04</pdfrwt>
<pdfrwt beam="2">  1       -2 0.41777439E+00 0.56652161E+04</pdfrwt>
<totfact> 0.63352201E-03</totfact>
</mgrwt>
<rwgt>
<wgt id='morphing_basis_vector_1'> +1.2548096e-06 </wgt>
<wgt id='morphing_basis_vector_2'> +8.5299151e-07 </wgt>
<wgt id='morphing_basis_vector_3'> +1.3840993e-06 </wgt>
<wgt id='morphing_basis_vector_4'> +1.0019099e-06 </wgt>
<wgt id='morphing_basis_vector_5'> +1.5976836e-06 </wgt>
</rwgt>
</event>
<event>
 4      1 +9.0096000e-12 5.59173700e+03 7.81860800e-03 7.30867300e-02
        2 -1    0    0  501    0 +0.0000000000e+00 +0.0000000000e+00 +2.7246954047e+03 2.7246954047e+03 0.0000000000e+00 0.0000e+00 1.0000e+00
       -2 -1    0    0    0  501 -0.0000000000e+00 -0.0000000000e+00 -2.8689002666e+03 2.8689002666e+03 0.0000000000e+00 0.0000e+00 -1.0000e+00
      -13  1    1    2    0    0 +5.5329494367e+02 -1.2553988884e+03 +2.3648351357e+03 2.7339727289e+03 0.0000000000e+00 0.0000e+00 1.0000e+00
       13  1    1    2    0    0 -5.5329494367e+02 +1.2553988884e+03 -2.5090399975e+03 2.8596229424e+03 0.0000000000e+00 0.0000e+00 -1.0000e+00
<mgrwt>
<rscale>  0 0.55917365E+04</rscale>
<asrwt>0</asrwt>
<pdfrwt beam="1">  1        2 0.41918391E+00 0.55917365E+04</pdfrwt>
<pdfrwt beam="2">  1       -2 0.44136927E+00 0.55917365E+04</pdfrwt>
<totfact> 0.61783263E-03</totfact>
</mgrwt>
<rwgt>
<wgt id='morphing_basis_vector_1'> +1.6147893e-06 </wgt>
<wgt id='morphing_basis_vector_2'> +2.0533814e-06 </wgt>
<wgt id='morphing_basis_vector_3'> +2.0040015e-06 </wgt>
<wgt id='morphing_basis_vector_4'> +4.5768206e-08 </wgt>
<wgt id='morphing_basis_vector_5'> +1.4401566e-06 </wgt>
</rwgt>
</event>
<event>
 4      1 +9.0096000e-12 5.62132500e+03 7.81860800e-03 7.30513400e-02
        2 -1    0    0  501    0 +0.0000000000e+00 +0.0000000000e+00 +2.2546707631e+03 2.2546707631e+03 0.0000000000e+00 0.0000e+00 -1.0000e+00
       -2 -1    0    0    0  501 -0.0000000000e+00 -0.0000000000e+00 -3.5037599246e+03 3.5037599246e+03 0.0000000000e+00 0.0000e+00 1.0000e+00
      -13  1    1    2    0    0 -9.1161695565e+02 +2.4394633070e+03 +4.5850202497e+02 2.6442864457e+03 0.0000000000e+00 0.0000e+00 -1.0000e+00
       13  1    1    2    0    0 +9.1161695565e+02 -2.4394633070e+03 -1.7075911864e+03 3.1141442420e+03 0.0000000000e+00 0.0000e+00 1.0000e+00
<mgrwt>
<rscale>  0 0.56213255E+04</rscale>
<asrwt>0</asrwt>
<pdfrwt beam="1">  1        2 0.34687243E+00 0.56213255E+04</pdfrwt>
<pdfrwt beam="2">  1       -2 0.53903999E+00 0.56213255E+04</pdfrwt>
<totfact> 0.22702917E-03</totfact>
</mgrwt>
<rwgt>
<wgt id='morphing_basis_vector_1'> +1.3739016e-06 </wgt>
<wgt id='morphing_basis_vector_2'> +1.2890515e-06 </wgt>
<wgt id='morphing_basis_vector_3'> +1.5982693e-06 </wgt>
<wgt id='morphing_basis_vector_4'> +6.3480209e-07 </wgt>
<wgt id='morphing_basis_vector_5'> +1.5203638e-06 </wgt>
</rwgt>
</event>
<event>
 4      1 +9.0096000e-12 6.34075800e+03 7.81860800e-03 7.22534000e-02
        2 -1    0    0  501    0 +0.0000000000e+00 +0.0000000000e+00 +3.5662550028e+03 3.5662550028e+03 0.0000000000e+00 0.0000e+00 -1.0000e+00
       -2 -1    0    0    0  501 -0.0000000000e+00 -0.0000000000e+00 -2.8184475863e+03 2.8184475863e+03 0.0000000000e+00 0.0000e+00 1.0000e+00
      -13  1    1    2    0    0 +2.0234270132e+03 -3.3308374150e+02 -2.0607245610e+03 2.9071957919e+03 0.0000000000e+00 0.0000e+00 1.0000e+00
       13  1    1    2    0    0 -2.0234270132e+03 +3.3308374150e+02 +2.8085319774e+03 3.4775067972e+03 0.0000000000e+00 0.0000e+00 -1.0000e+00
<mgrwt>
<rscale>  0 0.63407579E+04</rscale>
<asrwt>0</asrwt>
<pdfrwt beam="1">  1        2 0.54865462E+00 0.63407579E+04</pdfrwt>
<pdfrwt beam="2">  1       -2 0.43360732E+00 0.63407579E+04</pdfrwt>
<totfact> 0.17808458E-03</totfact>
</mgrwt>
<rwgt>
<wgt id='morphing_basis_vector_1'> +1.9684389e-06 </wgt>
<wgt id='morphing_basis_vector_2'> +1.3419502e-06 </wgt>
<wgt id='morphing_basis_vector_3'> +2.1740643e-06 </wgt>
<wgt id='morphing_basis_vector_4'> +1.5709470e-06 </wgt>
<wgt id='morphing_basis_vector_5'> +2.5094607e-06 </wgt>
</rwgt>
</event>
<event>
 4      1 +9.0096000e-12 5.98544700e+03 7.81860800e-03 7.26332100e-02
        2 -1    0    0  501    0 +0.0000000000e+00 +0.0000000000e+00 +2.6341020433e+03 2.6341020433e+03 0.0000000000e+00 0.0000e+00 1.0000e+00
       -2 -1    0    0    0  501 -0.0000000000e+00 -0.0000000000e+00 -3.4001699635e+03 3.4001699635e+03 0.0000000000e+00 0.0000e+00 -1.0000e+00
      -13  1    1    2    0    0 +1.6318330136e+03 -1.2455516141e+03 -2.5784377095e+03 3.2958487267e+03 0.0000000000e+00 0.0000e+00 -1.0000e+00
       13  1    1    2    0    0 -1.6318330136e+03 +1.2455516141e+03 +1.8123697893e+03 2.7384232800e+03 0.0000000000e+00 0.0000e+00 1.0000e+00
<mgrwt>
<rscale>  0 0.59854472E+04</rscale>
<asrwt>0</asrwt>
<pdfrwt beam="1">  1        2 0.40524647E+00 0.59854472E+04</pdfrwt>
<pdfrwt beam="2">  1       -2 0.52310307E+00 0.59854472E+04</pdfrwt>
<totfact> 0.17227499E-03</totfact>
</mgrwt>
<rwgt>
<wgt id='morphing_basis_vector_1'> +1.5641540e-06 </wgt>
<wgt id='morphing_basis_vector_2'> +1.0669748e-06 </wgt>
<wgt id='morphing_basis_vector_3'> +1.7269641e-06 </wgt>
<wgt id='morphing_basis_vector_4'> +1.2458346e-06 </wgt>
<wgt id='morphing_basis_vector_5'> +1.9914813e-06 </wgt>
</rwgt>
</event>
<event>
 4      1 +9.0096000e-12 5.73764000e+03 7.81860800e-03 7.29143400e-02
        2 -1    0    0  501    0 +0.0000000000e+00 +0.0000000000e+00 +2.6437314349e+03 2.6437314349e+03 0.0000000000e+00 0.0000e+00 -1.0000e+00
       -2 -1    0    0    0  501 -0.0000000000e+00 -0.0000000000e+00 -3.1130728646e+03 3.1130728646e+03 0.0000000000e+00 0.0000e+00 1.0000e+00
      -13  1    1    2    0    0 -1.7584131819e+03 -1.6870023624e+03 -1.7537072801e+03 3.0022463446e+03 0.0000000000e+00 0.0000e+00 1.0000e+00
       13  1    1    2    0    0 +1.7584131819e+03 +1.6870023624e+03 +1.2843658504e+03 2.7545579549e+03 0.0000000000e+00 0.0000e+00 -1.0000e+00
<mgrwt>
<rscale>  0 0.57376401E+04</rscale>
<asrwt>0</asrwt>
<pdfrwt beam="1">  1        2 0.40672791E+00 0.57376401E+04</pdfrwt>
<pdfrwt beam="2">  1       -2 0.47893429E+00 0.57376401E+04</pdfrwt>
<totfact> 0.36989162E-03</totfact>
</mgrwt>
<rwgt>
<wgt id='morphing_basis_vector_1'> +1.3250673e-06 </wgt>
<wgt id='morphing_basis_vector_2'> +9.1214620e-07 </wgt>
<wgt id='morphing_basis_vector_3'> +1.4644200e-06 </wgt>
<wgt id='morphing_basis_vector_4'> +1.0435315e-06 </wgt>
<wgt id='morphing_basis_vector_5'> +1.6802690e-06 </wgt>
</rwgt>
</event>
<event>
 4      1 +9.0096000e-12 5.73041500e+03 7.81860800e-03 7.29227600e-02
        2 -1    0    0  501    0 +0.0000000000e+00 +0.0000000000e+00 +3.5528365580e+03 3.5528365580e+03 0.0000000000e+00 0.0000e+00 -1.0000e+00
       -2 -1    0    0    0  501 -0.0000000000e+00 -0.0000000000e+00 -2.3106646162e+03 2.3106646162e+03 0.0000000000e+00 0.0000e+00 1.0000e+00
      -13  1    1    2    0    0 +8.8894572438e+01 +7.1925682567e+02 -2.2153288439e+03 2.3308613242e+03 0.0000000000e+00 0.0000e+00 1.0000e+00
       13  1    1    2    0    0 -8.8894572438e+01 -7.1925682567e+02 +3.4575007857e+03 3.5326398500e+03 0.0000000000e+00 0.0000e+00 -1.0000e+00
<mgrwt>
<rscale>  0 0.57304149E+04</rscale>
<asrwt>0</asrwt>
<pdfrwt beam="1">  1        2 0.54659024E+00 0.57304149E+04</pdfrwt>
<pdfrwt beam="2">  1       -2 0.35548687E+00 0.57304149E+04</pdfrwt>
<totfact> 0.61780637E-03</totfact>
</mgrwt>
<rwgt>
<wgt id='morphing_basis_vector_1'> +1.3133602e-06 </wgt>
<wgt id='morphing_basis_vector_2'> +8.9270606e-07 </wgt>
<wgt id='morphing_basis_vector_3'> +1.4488046e-06 </wgt>
<wgt id='morphing_basis_vector_4'> +1.0490912e-06 </wgt>
<wgt id='morphing_basis_vector_5'> +1.6727103e-06 </wgt>
</rwgt>
</event>
<event>
 4      1 +9.0096000e-12 5.70756700e+03 7.81860800e-03 7.29494500e-02
        2 -1    0    0  501    0 +0.0000000000e+00 +0.0000000000e+00 +3.0519238752e+03 3.0519238752e+03 0.0000000000e+00 0.0000e+00 -1.0000e+00
       -2 -1    0    0    0  501 -0.0000000000e+00 -0.0000000000e+00 -2.6685070525e+03 2.6685070525e+03 0.0000000000e+00 0.0000e+00 1.0000e+00
      -13  1    1    2    0    0 +1.7205428710e+03 -2.2389387931e+03 +6.0612030543e+02 2.8879917789e+03 0.0000000000e+00 0.0000e+00 1.0000e+00
       13  1    1    2    0    0 -1.7205428710e+03 +2.2389387931e+03 -2.2270348264e+02 2.8324391488e+03 0.0000000000e+00 0.0000e+00 -1.0000e+00
<mgrwt>
<rscale>  0 0.57075670E+04</rscale>
<asrwt>0</asrwt>
<pdfrwt beam="1">  1        2 0.46952675E+00 0.57075670E+04</pdfrwt>
<pdfrwt beam="2">  1       -2 0.41053955E+00 0.57075670E+04</pdfrwt>
<totfact> 0.60915013E-03</totfact>
</mgrwt>
<rwgt>
<wgt id='morphing_basis_vector_1'> +1.3716666e-06 </wgt>
<wgt id='morphing_basis_vector_2'> +1.1106971e-06 </wgt>
<wgt id='morphing_basis_vector_3'> +1.5547685e-06 </wgt>
<wgt id='morphing_basis_vector_4'> +8.6342653e-07 </wgt>
<wgt id='morphing_basis_vector_5'> +1.6319254e-06 </wgt>
</rwgt>
</event>
<event>
 4      1 +9.0096000e-12 6.46186800e+03 7.81860800e-03 7.21296700e-02
        2 -1    0    0  501    0 +0.0000000000e+00 +0.0000000000e+00 +4.9207671419e+03 4.9207671419e+03 0.0000000000e+00 0.0000e+00 -1.0000e+00
       -2 -1    0    0    0  501 -0.0000000000e+00 -0.0000000000e+00 -2.1214035536e+03 2.1214035536e+03 0.0000000000e+00 0.0000e+00 1.0000e+00
      -13  1    1    2    0    0 -1.0707223734e+03 +1.3784057108e+03 -1.5634004185e+03 2.3432177819e+03 0.0000000000e+00 0.0000e+00 1.0000e+00
       13  1    1    2    0    0 +1.0707223734e+03 -1.3784057108e+03 +4.3627640069e+03 4.6989529136e+03 0.0000000000e+00 0.0000e+00 -1.0000e+00
<mgrwt>
<rscale>  0 0.64618675E+04</rscale>
<asrwt>0</asrwt>
<pdfrwt beam="1">  1        2 0.75704110E+00 0.64618675E+04</pdfrwt>
<pdfrwt beam="2">  1       -2 0.32636978E+00 0.64618675E+04</pdfrwt>
<totfact> 0.44623630E-04</totfact>
</mgrwt>
<rwgt>
<wgt id='morphing_basis_vector_1'> +2.1219425e-06 </wgt>
<wgt id='morphing_basis_vector_2'> +1.4446420e-06 </wgt>
<wgt id='morphing_basis_vector_3'> +2.3434438e-06 </wgt>
<wgt id='morphing_basis_vector_4'> +1.6966804e-06 </wgt>
<wgt id='morphing_basis_vector_5'> +2.7073116e-06 </wgt>
</rwgt>
</event>
<event>
 4      1 +9.0096000e-12 5.66292800e+03 7.81860800e-03 7.30019600e-02
        2 -1    0    0  501    0 +0.0000000000e+00 +0.0000000000e+00 +3.8925301328e+03 3.8925301328e+03 0.0000000000e+00 0.0000e+00 1.0000e+00
       -2 -1    0    0    0  501 -0.0000000000e+00 -0.0000000000e+00 -2.0596339043e+03 2.0596339043e+03 0.0000000000e+00 0.0000e+00 -1.0000e+00
      -13  1    1    2    0    0 -9.6516410346e+01 -2.7392706824e+03 +1.6628358308e+03 3.2059230012e+03 0.0000000000e+00 0.0000e+00 1.0000e+00
       13  1    1    2    0    0 +9.6516410346e+01 +2.7392706824e+03 +1.7006039767e+02 2.7462410360e+03 0.0000000000e+00 0.0000e+00 -1.0000e+00
<mgrwt>
<rscale>  0 0.56629275E+04</rscale>
<asrwt>0</asrwt>
<pdfrwt beam="1">  1        2 0.59885079E+00 0.56629275E+04</pdfrwt>
<pdfrwt beam="2">  1       -2 0.31686675E+00 0.56629275E+04</pdfrwt>
<totfact> 0.60319083E-03</totfact>
</mgrwt>
<rwgt>
<wgt id='morphing_basis_vector_1'> +1.3618997e-06 </wgt>
<wgt id='morphing_basis_vector_2'> +1.1719224e-06 </wgt>
<wgt id='morphing_basis_vector_3'> +1.5597211e-06 </wgt>
<wgt id='morphing_basis_vector_4'> +7.6714100e-07 </wgt>
<wgt id='morphing_basis_vector_5'> +1.5755048e-06 </wgt>
</rwgt>
</event>
<event>
 4      1 +9.0096000e-12 5.55595700e+03 7.81860800e-03 7.31298300e-02
        2 -1    0    0  501    0 +0.0000000000e+00 +0.0000000000e+00 +2.7098383992e+03 2.7098383992e+03 0.0000000000e+00 0.0000e+00 -1.0000e+00
       -2 -1    0    0    0  501 -0.0000000000e+00 -0.0000000000e+00 -2.8478319948e+03 2.8478319948e+03 0.0000000000e+00 0.0000e+00 1.0000e+00
      -13  1    1    2    0    0 +1.9569545567e+03 +1.9555655835e+03 -3.2058302003e+02 2.7850819308e+03 0.0000000000e+00 0.0000e+00 1.0000e+00
       13  1    1    2    0    0 -1.9569545567e+03 -1.9555655835e+03 +1.8258942439e+02 2.7725884632e+03 0.0000000000e+00 0.0000e+00 -1.0000e+00
<mgrwt>
<rscale>  0 0.55559570E+04</rscale>
<asrwt>0</asrwt>
<pdfrwt beam="1">  1        2 0.41689822E+00 0.55559570E+04</pdfrwt>
<pdfrwt beam="2">  1       -2 0.43812800E+00 0.55559570E+04</pdfrwt>
<totfact> 0.66582955E-03</totfact>
</mgrwt>
<rwgt>
<wgt id='morphing_basis_vector_1'> +1.1915903e-06 </wgt>
<wgt id='morphing_basis_vector_2'> +8.7890815e-07 </wgt>
<wgt id='morphing_basis_vector_3'> +1.3302089e-06 </wgt>
<wgt id='morphing_basis_vector_4'> +8.6132955e-07 </wgt>
<wgt id='morphing_basis_vector_5'> +1.4721751e-06 </wgt>
</rwgt>
</event>
<event>
 4      1 +9.0096000e-12 5.66248600e+03 7.81860800e-03 7.30024800e-02
        2 -1    0    0  501    0 +0.0000000000e+00 +0.0000000000e+00 +3.4536963897e+03 3.4536963897e+03 0.0000000000e+00 0.0000e+00 -1.0000e+00
       -2 -1    0    0    0  501 -0.0000000000e+00 -0.0000000000e+00 -2.3209734628e+03 2.3209734628e+03 0.0000000000e+00 0.0000e+00 1.0000e+00
      -13  1    1    2    0    0 +2.5892173278e+02 -2.7795252212e+03 +1.0480935235e+03 2.9818284580e+03 0.0000000000e+00 0.0000e+00 1.0000e+00
       13  1    1    2    0    0 -2.5892173278e+02 +2.7795252212e+03 +8.4629403370e+01 2.7928413945e+03 0.0000000000e+00 0.0000e+00 -1.0000e+00
<mgrwt>
<rscale>  0 0.56624863E+04</rscale>
<asrwt>0</asrwt>
<pdfrwt beam="1">  1        2 0.53133791E+00 0.56624863E+04</pdfrwt>
<pdfrwt beam="2">  1       -2 0.35707284E+00 0.56624863E+04</pdfrwt>
<totfact> 0.71697972E-03</totfact>
</mgrwt>
<rwgt>
<wgt id='morphing_basis_vector_1'> +1.3348822e-06 </wgt>
<wgt id='morphing_basis_vector_2'> +1.0934879e-06 </wgt>
<wgt id='morphing_basis_vector_3'> +1.5158851e-06 </wgt>
<wgt id='morphing_basis_vector_4'> +8.2372723e-07 </wgt>
<wgt id='morphing_basis_vector_5'> +1.5797880e-06 </wgt>
</rwgt>
</event>
<event>
 4      1 +9.0096000e-12 5.71082600e+03 7.81860800e-03 7.29456300e-02
        2 -1    0    0  501    0 +0.0000000000e+00 +0.0000000000e+00 +3.8629218467e+03 3.8629218467e+03 0.0000000000e+00 0.0000e+00 1.0000e+00
       -2 -1    0    0    0  501 -0.0000000000e+00 -0.0000000000e+00 -2.1106779100e+03 2.1106779100e+03 0.0000000000e+00 0.0000e+00 -1.0000e+00
      -13  1    1    2    0    0 +7.4801381535e+02 +2.5813137885e+03 -1.3298444874e+02 2.6907973551e+03 0.0000000000e+00 0.0000e+00 -1.0000e+00
       13  1    1    2    0    0 -7.4801381535e+02 -2.5813137885e+03 +1.8852283855e+03 3.2828024016e+03 0.0000000000e+00 0.0000e+00 1.0000e+00
<mgrwt>
<rscale>  0 0.57108261E+04</rscale>
<asrwt>0</asrwt>
<pdfrwt beam="1">  1        2 0.59429567E+00 0.57108261E+04</pdfrwt>
<pdfrwt beam="2">  1       -2 0.32471968E+00 0.57108261E+04</pdfrwt>
<totfact> 0.56368427E-03</totfact>
</mgrwt>
<rwgt>
<wgt id='morphing_basis_vector_1'> +1.3081544e-06 </wgt>
<wgt id='morphing_basis_vector_2'> +9.1760872e-07 </wgt>
<wgt id='morphing_basis_vector_3'> +1.4496690e-06 </wgt>
<wgt id='morphing_basis_vector_4'> +1.0078240e-06 </wgt>
<wgt id='morphing_basis_vector_5'> +1.6476347e-06 </wgt>
</rwgt>
</event>
<event>
 4      1 +9.0096000e-12 5.67281300e+03 7.81860800e-03 7.29902800e-02
        2 -1    0    0  501    0 +0.0000000000e+00 +0.0000000000e+00 +3.8034406879e+03 3.8034406879e+03 0.0000000000e+00 0.0000e+00 -1.0000e+00
       -2 -1    0    0    0  501 -0.0000000000e+00 -0.0000000000e+00 -2.1152434337e+03 2.1152434337e+03 0.0000000000e+00 0.0000e+00 1.0000e+00
      -13  1    1    2    0    0 -5.9175385158e+02 +6.8229672601e+02 -1.9612112508e+03 2.1591783190e+03 0.0000000000e+00 0.0000e+00 1.0000e+00
       13  1    1    2    0    0 +5.9175385158e+02 -6.8229672601e+02 +3.6494085050e+03 3.7595058026e+03 0.0000000000e+00 0.0000e+00 -1.0000e+00
<mgrwt>
<rscale>  0 0.56728134E+04</rscale>
<asrwt>0</asrwt>
<pdfrwt beam="1">  1        2 0.58514472E+00 0.56728134E+04</pdfrwt>
<pdfrwt beam="2">  1       -2 0.32542207E+00 0.56728134E+04</pdfrwt>
<totfact> 0.62470054E-03</totfact>
</mgrwt>
<rwgt>
<wgt id='morphing_basis_vector_1'> +1.2614958e-06 </wgt>
<wgt id='morphing_basis_vector_2'> +8.5745114e-07 </wgt>
<wgt id='morphing_basis_vector_3'> +1.3914706e-06 </wgt>
<wgt id='morphing_basis_vector_4'> +1.0073959e-06 </wgt>
<wgt id='morphing_basis_vector_5'> +1.6062997e-06 </wgt>
</rwgt>
</event>
<event>
 4      1 +9.0096000e-12 5.55518000e+03 7.81860800e-03 7.31307700e-02
        2 -1    0    0  501    0 +0.0000000000e+00 +0.0000000000e+00 +2.4014500202e+03 2.4014500202e+03 0.0000000000e+00 0.0000e+00 -1.0000e+00
       -2 -1    0    0    0  501 -0.0000000000e+00 -0.0000000000e+00 -3.2126444697e+03 3.2126444697e+03 0.0000000000e+00 0.0000e+00 1.0000e+00
      -13  1    1    2    0    0 -1.7506499397e+02 +1.8094644127e+03 -2.5279156965e+03 3.1137063094e+03 0.0000000000e+00 0.0000e+00 1.0000e+00
       13  1    1    2    0    0 +1.7506499397e+02 -1.8094644127e+03 +1.7167212471e+03 2.5003881805e+03 0.0000000000e+00 0.0000e+00 -1.0000e+00
<mgrwt>
<rscale>  0 0.55551796E+04</rscale>
<asrwt>0</asrwt>
<pdfrwt beam="1">  1        2 0.36945385E+00 0.55551796E+04</pdfrwt>
<pdfrwt beam="2">  1       -2 0.49425299E+00 0.55551796E+04</pdfrwt>
<totfact> 0.40285176E-03</totfact>
</mgrwt>
<rwgt>
<wgt id='morphing_basis_vector_1'> +1.1612031e-06 </wgt>
<wgt id='morphing_basis_vector_2'> +7.9115996e-07 </wgt>
<wgt id='morphing_basis_vector_3'> +1.2810457e-06 </wgt>
<wgt id='morphing_basis_vector_4'> +9.2433125e-07 </wgt>
<wgt id='morphing_basis_vector_5'> +1.4766824e-06 </wgt>
</rwgt>
</event>
<event>
 4      1 +9.0096000e-12 6.44470000e+03 7.81860800e-03 7.21470400e-02
        2 -1    0    0  501    0 +0.0000000000e+00 +0.0000000000e+00 +4.1989445829e+03 4.1989445829e+03 0.0000000000e+00 0.0000e+00 -1.0000e+00
       -2 -1    0    0    0  501 -0.0000000000e+00 -0.0000000000e+00 -2.4728925555e+03 2.4728925555e+03 0.0000000000e+00 0.0000e+00 1.0000e+00
      -13  1    1    2    0    0 -9.9860810465e+02 +2.6598906921e+02 -2.2966857969e+03 2.5184785053e+03 0.0000000000e+00 0.0000e+00 1.0000e+00
       13  1    1    2    0    0 +9.9860810465e+02 -2.6598906921e+02 +4.0227378243e+03 4.1533586331e+03 0.0000000000e+00 0.0000e+00 -1.0000e+00
<mgrwt>
<rscale>  0 0.64446998E+04</rscale>
<asrwt>0</asrwt>
<pdfrwt beam="1">  1        2 0.64599147E+00 0.64446998E+04</pdfrwt>
<pdfrwt beam="2">  1       -2 0.38044501E+00 0.64446998E+04</pdfrwt>
<totfact> 0.11899355E-03</totfact>
</mgrwt>
<rwgt>
<wgt id='morphing_basis_vector_1'> +2.0989544e-06 </wgt>
<wgt id='morphing_basis_vector_2'> +1.4276844e-06 </wgt>
<wgt id='morphing_basis_vector_3'> +2.3177065e-06 </wgt>
<wgt id='morphing_basis_vector_4'> +1.6799128e-06 </wgt>
<wgt id='morphing_basis_vector_5'> +2.6787041e-06 </wgt>
</rwgt>
</event>
<event>
 4      1 +9.0096000e-12 5.63724600e+03 7.81860800e-03 7.30323900e-02
        2 -1    0    0  501    0 +0.0000000000e+00 +0.0000000000e+00 +2.4613912192e+03 2.4613912192e+03 0.0000000000e+00 0.0000e+00 -1.0000e+00
       -2 -1    0    0    0  501 -0.0000000000e+00 -0.0000000000e+00 -3.2277010419e+03 3.2277010419e+03 0.0000000000e+00 0.0000e+00 1.0000e+00
      -13  1    1    2    0    0 +2.7194337294e+03 -9.6468780797e+00 +3.6475626197e+02 2.7438039291e+03 0.0000000000e+00 0.0000e+00 1.0000e+00
       13  1    1    2    0    0 -2.7194337294e+03 +9.6468780797e+00 -1.1310660847e+03 2.9452883320e+03 0.0000000000e+00 0.0000e+00 -1.0000e+00
<mgrwt>
<rscale>  0 0.56372458E+04</rscale>
<asrwt>0</asrwt>
<pdfrwt beam="1">  1        2 0.37867557E+00 0.56372458E+04</pdfrwt>
<pdfrwt beam="2">  1       -2 0.49656939E+00 0.56372458E+04</pdfrwt>
<totfact> 0.35452301E-03</totfact>
</mgrwt>
<rwgt>
<wgt id='morphing_basis_vector_1'> +1.3417450e-06 </wgt>
<wgt id='morphing_basis_vector_2'> +1.1635242e-06 </wgt>
<wgt id='morphing_basis_vector_3'> +1.5386478e-06 </wgt>
<wgt id='morphing_basis_vector_4'> +7.4405560e-07 </wgt>
<wgt id='morphing_basis_vector_5'> +1.5462747e-06 </wgt>
</rwgt>
</event>
<event>
 4      1 +9.0096000e-12 5.94429600e+03 7.81860800e-03 7.26789200e-02
        2 -1    0    0  501    0 +0.0000000000e+00 +0.0000000000e+00 +2.7707175421e+03 2.7707175421e+03 0.0000000000e+00 0.0000e+00 -1.0000e+00
       -2 -1    0    0    0  501 -0.0000000000e+00 -0.0000000000e+00 -3.1882228111e+03 3.1882228111e+03 0.0000000000e+00 0.0000e+00 1.0000e+00
      -13  1    1    2    0    0 -2.8626279669e+03 +2.4834260944e+02 -9.7046130423e+02 3.0328382864e+03 0.0000000000e+00 0.0000e+00 1.0000e+00
       13  1    1    2    0    0 +2.8626279669e+03 -2.4834260944e+02 +5.5295603529e+02 2.9261020668e+03 0.0000000000e+00 0.0000e+00 -1.0000e+00
<mgrwt>
<rscale>  0 0.59442964E+04</rscale>
<asrwt>0</asrwt>
<pdfrwt beam="1">  1        2 0.42626424E+00 0.59442964E+04</pdfrwt>
<pdfrwt beam="2">  1       -2 0.49049582E+00 0.59442964E+04</pdfrwt>
<totfact> 0.24952139E-03</totfact>
</mgrwt>
<rwgt>
<wgt id='morphing_basis_vector_1'> +1.5411599e-06 </wgt>
<wgt id='morphing_basis_vector_2'> +1.0951456e-06 </wgt>
<wgt id='morphing_basis_vector_3'> +1.7117692e-06 </wgt>
<wgt id='morphing_basis_vector_4'> +1.1701837e-06 </wgt>
<wgt id='morphing_basis_vector_5'> +1.9336533e-06 </wgt>
</rwgt>
</event>
<event>
 4      1 +9.0096000e-12 5.91242300e+03 7.81860800e-03 7.27145900e-02
        2 -1    0    0  501    0 +0.0000000000e+00 +0.0000000000e+00 +2.8115048105e+03 2.8115048105e+03 0.0000000000e+00 0.0000e+00 1.0000e+00
       -2 -1    0    0    0  501 -0.0000000000e+00 -0.0000000000e+00 -3.1083657379e+03 3.1083657379e+03 0.0000000000e+00 0.0000e+00 -1.0000e+00
      -13  1    1    2    0    0 +2.0614284159e+03 -1.9224161841e+03 -1.0406276650e+03 3.0046758621e+03 0.0000000000e+00 0.0000e+00 -1.0000e+00
       13  1    1    2    0    0 -2.0614284159e+03 +1.9224161841e+03 +7.4376673766e+02 2.9151946863e+03 0.0000000000e+00 0.0000e+00 1.0000e+00
<mgrwt>
<rscale>  0 0.59124226E+04</rscale>
<asrwt>0</asrwt>
<pdfrwt beam="1">  1        2 0.43253920E+00 0.59124226E+04</pdfrwt>
<pdfrwt beam="2">  1       -2 0.47821011E+00 0.59124226E+04</pdfrwt>
<totfact> 0.29093758E-03</totfact>
</mgrwt>
<rwgt>
<wgt id='morphing_basis_vector_1'> +1.5048541e-06 </wgt>
<wgt id='morphing_basis_vector_2'> +1.0613268e-06 </wgt>
<wgt id='morphing_basis_vector_3'> +1.6694891e-06 </wgt>
<wgt id='morphing_basis_vector_4'> +1.1529126e-06 </wgt>
<wgt id='morphing_basis_vector_5'> +1.8930665e-06 </wgt>
</rwgt>
</event>
<event>
 4      1 +9.0096000e-12 5.82854900e+03 7.81860800e-03 7.28095600e-02
        2 -1    0    0  501    0 +0.0000000000e+00 +0.0000000000e+00 +2.0435856423e+03 2.0435856423e+03 0.0000000000e+00 0.0000e+00 -1.0000e+00
       -2 -1    0    0    0  501 -0.0000000000e+00 -0.0000000000e+00 -4.1559285529e+03 4.1559285529e+03 0.0000000000e+00 0.0000e+00 1.0000e+00
      -13  1    1    2    0    0 -4.9928029820e+02 -1.1585190856e+03 -3.8504550543e+03 4.0518454330e+03 0.0000000000e+00 0.0000e+00 1.0000e+00
       13  1    1    2    0    0 +4.9928029820e+02 +1.1585190856e+03 +1.7381121437e+03 2.1476687622e+03 0.0000000000e+00 0.0000e+00 -1.0000e+00
<mgrwt>
<rscale>  0 0.58285490E+04</rscale>
<asrwt>0</asrwt>
<pdfrwt beam="1">  1        2 0.31439779E+00 0.58285490E+04</pdfrwt>
<pdfrwt beam="2">  1       -2 0.63937362E+00 0.58285490E+04</pdfrwt>
<totfact> 0.31927936E-04</totfact>
</mgrwt>
<rwgt>
<wgt id='morphing_basis_vector_1'> +1.4055671e-06 </wgt>
<wgt id='morphing_basis_vector_2'> +9.5578993e-07 </wgt>
<wgt id='morphing_basis_vector_3'> +1.5508360e-06 </wgt>
<wgt id='morphing_basis_vector_4'> +1.1227023e-06 </wgt>
<wgt id='morphing_basis_vector_5'> +1.7905325e-06 </wgt>
</rwgt>
</event>
<event>
 4      1 +9.0096000e-12 5.72164000e+03 7.81860800e-03 7.29329900e-02
        2 -1    0    0  501    0 +0.0000000000e+00 +0.0000000000e+00 +2.5286001789e+03 2.5286001789e+03 0.0000000000e+00 0.0000e+00 -1.0000e+00
       -2 -1    0    0    0  501 -0.0000000000e+00 -0.0000000000e+00 -3.2366890157e+03 3.2366890157e+03 0.0000000000e+00 0.0000e+00 1.0000e+00
      -13  1    1    2    0    0 +1.2334486210e+03 -1.5691003127e+03 -2.4192706240e+03 3.1362942534e+03 0.0000000000e+00 0.0000e+00 1.0000e+00
       13  1    1    2    0    0 -1.2334486210e+03 +1.5691003127e+03 +1.7111817872e+03 2.6289949412e+03 0.0000000000e+00 0.0000e+00 -1.0000e+00
<mgrwt>
<rscale>  0 0.57216405E+04</rscale>
<asrwt>0</asrwt>
<pdfrwt beam="1">  1        2 0.38901542E+00 0.57216405E+04</pdfrwt>
<pdfrwt beam="2">  1       -2 0.49795215E+00 0.57216405E+04</pdfrwt>
<totfact> 0.31361712E-03</totfact>
</mgrwt>
<rwgt>
<wgt id='morphing_basis_vector_1'> +1.3067919e-06 </wgt>
<wgt id='morphing_basis_vector_2'> +8.9147547e-07 </wgt>
<wgt id='morphing_basis_vector_3'> +1.4422963e-06 </wgt>
<wgt id='morphing_basis_vector_4'> +1.0395935e-06 </wgt>
<wgt id='morphing_basis_vector_5'> +1.6622060e-06 </wgt>
</rwgt>
</event>
<event>
 4      1 +9.0096000e-12 5.57649600e+03 7.81860800e-03 7.31050500e-02
        2 -1    0    0  501    0 +0.0000000000e+00 +0.0000000000e+00 +2.0816214884e+03 2.0816214884e+03 0.0000000000e+00 0.0000e+00 -1.0000e+00
       -2 -1    0    0    0  501 -0.0000000000e+00 -0.0000000000e+00 -3.7347450814e+03 3.7347450814e+03 0.0000000000e+00 0.0000e+00 1.0000e+00
      -13  1    1    2    0    0 +2.1889973341e+03 +6.1382874163e+02 -2.5102570883e+03 3.3867219699e+03 0.0000000000e+00 0.0000e+00 1.0000e+00
       13  1    1    2    0    0 -2.1889973341e+03 -6.1382874163e+02 +8.5713349524e+02 2.4296445998e+03 0.0000000000e+00 0.0000e+00 -1.0000e+00
<mgrwt>
<rscale>  0 0.55764955E+04</rscale>
<asrwt>0</asrwt>
<pdfrwt beam="1">  1        2 0.32024946E+00 0.55764955E+04</pdfrwt>
<pdfrwt beam="2">  1       -2 0.57457616E+00 0.55764955E+04</pdfrwt>
<totfact> 0.15845312E-03</totfact>
</mgrwt>
<rwgt>
<wgt id='morphing_basis_vector_1'> +1.1815511e-06 </wgt>
<wgt id='morphing_basis_vector_2'> +8.1061271e-07 </wgt>
<wgt id='morphing_basis_vector_3'> +1.3048428e-06 </wgt>
<wgt id='morphing_basis_vector_4'> +9.3335910e-07 </wgt>
<wgt id='morphing_basis_vector_5'> +1.4990934e-06 </wgt>
</rwgt>
</event>
<event>
 4      1 +9.0096000e-12 5.98135800e+03 7.81860800e-03 7.26377300e-02
        2 -1    0    0  501    0 +0.0000000000e+00 +0.0000000000e+00 +2.2538227498e+03 2.2538227498e+03 0.0000000000e+00 0.0000e+00 1.0000e+00
       -2 -1    0    0    0  501 -0.0000000000e+00 -0.0000000000e+00 -3.9684405026e+03 3.9684405026e+03 0.0000000000e+00 0.0000e+00 -1.0000e+00
      -13  1    1    2    0    0 +1.2559158965e+03 -1.4498108734e+03 -3.2442572277e+03 3.7688832918e+03 0.0000000000e+00 0.0000e+00 -1.0000e+00
       13  1    1    2    0    0 -1.2559158965e+03 +1.4498108734e+03 +1.5296394749e+03 2.4533799605e+03 0.0000000000e+00 0.0000e+00 1.0000e+00
<mgrwt>
<rscale>  0 0.59813582E+04</rscale>
<asrwt>0</asrwt>
<pdfrwt beam="1">  1        2 0.34674197E+00 0.59813582E+04</pdfrwt>
<pdfrwt beam="2">  1       -2 0.61052930E+00 0.59813582E+04</pdfrwt>
<totfact> 0.59212863E-04</totfact>
</mgrwt>
<rwgt>
<wgt id='morphing_basis_vector_1'> +1.5594182e-06 </wgt>
<wgt id='morphing_basis_vector_2'> +1.0626684e-06 </wgt>
<wgt id='morphing_basis_vector_3'> +1.7214736e-06 </wgt>
<wgt id='morphing_basis_vector_4'> +1.2434439e-06 </wgt>
<wgt id='morphing_basis_vector_5'> +1.9861185e-06 </wgt>
</rwgt>
</event>
<event>
 4      1 +9.0096000e-12 6.12433500e+03 7.81860800e-03 7.24816300e-02
        2 -1    0    0  501    0 +0.0000000000e+00 +0.0000000000e+00 +2.6912791262e+03 2.6912791262e+03 0.0000000000e+00 0.0000e+00 1.0000e+00
       -2 -1    0    0    0  501 -0.0000000000e+00 -0.0000000000e+00 -3.4841679281e+03 3.4841679281e+03 0.0000000000e+00 0.0000e+00 -1.0000e+00
      -13  1    1    2    0    0 +8.5442595466e+02 -1.9665585509e+03 -2.6008904002e+03 3.3707606145e+03 0.0000000000e+00 0.0000e+00 -1.0000e+00
       13  1    1    2    0    0 -8.5442595466e+02 +1.9665585509e+03 +1.8080015983e+03 2.8046864398e+03 0.0000000000e+00 0.0000e+00 1.0000e+00
<mgrwt>
<rscale>  0 0.61243345E+04</rscale>
<asrwt>0</asrwt>
<pdfrwt beam="1">  1        2 0.41404294E+00 0.61243345E+04</pdfrwt>
<pdfrwt beam="2">  1       -2 0.53602583E+00 0.61243345E+04</pdfrwt>
<totfact> 0.12644750E-03</totfact>
</mgrwt>
<rwgt>
<wgt id='morphing_basis_vector_1'> +1.7143215e-06 </wgt>
<wgt id='morphing_basis_vector_2'> +1.1700273e-06 </wgt>
<wgt id='morphing_basis_vector_3'> +1.8932383e-06 </wgt>
<wgt id='morphing_basis_vector_4'> +1.3653734e-06 </wgt>
<wgt id='morphing_basis_vector_5'> +2.1832529e-06 </wgt>
</rwgt>
</event>
<event>
 4      1 +9.0096000e-12 5.83888300e+03 7.81860800e-03 7.27977700e-02
        2 -1    0    0  501    0 +0.0000000000e+00 +0.0000000000e+00 +3.0593919520e+03 3.0593919520e+03 0.0000000000e+00 0.0000e+00 1.0000e+00
       -2 -1    0    0    0  501 -0.0000000000e+00 -0.0000000000e+00 -2.7858927823e+03 2.7858927823e+03 0.0000000000e+00 0.0000e+00 -1.0000e+00
      -13  1    1    2    0    0 -5.0122314273e+02 -1.7138255973e+03 -2.1754830881e+03 2.8144536740e+03 0.0000000000e+00 0.0000e+00 -1.0000e+00
       13  1    1    2    0    0 +5.0122314273e+02 +1.7138255973e+03 +2.4489822578e+03 3.0308310602e+03 0.0000000000e+00 0.0000e+00 1.0000e+00
<mgrwt>
<rscale>  0 0.58388828E+04</rscale>
<asrwt>0</asrwt>
<pdfrwt beam="1">  1        2 0.47067569E+00 0.58388828E+04</pdfrwt>
<pdfrwt beam="2">  1       -2 0.42859889E+00 0.58388828E+04</pdfrwt>
<totfact> 0.45249811E-03</totfact>
</mgrwt>
<rwgt>
<wgt id='morphing_basis_vector_1'> +1.4161675e-06 </wgt>
<wgt id='morphing_basis_vector_2'> +9.6442938e-07 </wgt>
<wgt id='morphing_basis_vector_3'> +1.5628898e-06 </wgt>
<wgt id='morphing_basis_vector_4'> +1.1293565e-06 </wgt>
<wgt id='morphing_basis_vector_5'> +1.8031809e-06 </wgt>
</rwgt>
</event>
<event>
 4      1 +9.0096000e-12 6.26958400e+03 7.81860800e-03 7.23274200e-02
        2 -1    0    0  501    0 +0.0000000000e+00 +0.0000000000e+00 +5.0640851844e+03 5.0640851844e+03 0.0000000000e+00 0.0000e+00 -1.0000e+00
       -2 -1    0    0    0  501 -0.0000000000e+00 -0.0000000000e+00 -1.9405128247e+03 1.9405128247e+03 0.0000000000e+00 0.0000e+00 1.0000e+00
      -13  1    1    2    0    0 +7.4667451564e+02 +1.1530498613e+03 -1.5863340143e+03 2.0984523869e+03 0.0000000000e+00 0.0000e+00 1.0000e+00
       13  1    1    2    0    0 -7.4667451564e+02 -1.1530498613e+03 +4.7099063740e+03 4.9061456222e+03 0.0000000000e+00 0.0000e+00 -1.0000e+00
<mgrwt>
<rscale>  0 0.62695844E+04</rscale>
<asrwt>0</asrwt>
<pdfrwt beam="1">  1        2 0.77909002E+00 0.62695844E+04</pdfrwt>
<pdfrwt beam="2">  1       -2 0.29854044E+00 0.62695844E+04</pdfrwt>
<totfact> 0.44754042E-04</totfact>
</mgrwt>
<rwgt>
<wgt id='morphing_basis_vector_1'> +1.8805375e-06 </wgt>
<wgt id='morphing_basis_vector_2'> +1.2793088e-06 </wgt>
<wgt id='morphing_basis_vector_3'> +2.0761766e-06 </wgt>
<wgt id='morphing_basis_vector_4'> +1.5039711e-06 </wgt>
<wgt id='morphing_basis_vector_5'> +2.3986669e-06 </wgt>
</rwgt>
</event>
<event>
 4      1 +9.0096000e-12 6.36819400e+03 7.81860800e-03 7.22251300e-02
        2 -1    0    0  501    0 +0.0000000000e+00 +0.0000000000e+00 +4.4322560034e+03 4.4322560034e+03 0.0000000000e+00 0.0000e+00 -1.0000e+00
       -2 -1    0    0    0  501 -0.0000000000e+00 -0.0000000000e+00 -2.2874296559e+03 2.2874296559e+03 0.0000000000e+00 0.0000e+00 1.0000e+00
      -13  1    1    2    0    0 -1.3976686150e+03 +9.3759270616e+02 -1.7797213962e+03 2.4494827797e+03 0.0000000000e+00 0.0000e+00 1.0000e+00
       13  1    1    2    0    0 +1.3976686150e+03 -9.3759270616e+02 +3.9245477437e+03 4.2702028795e+03 0.0000000000e+00 0.0000e+00 -1.0000e+00
<mgrwt>
<rscale>  0 0.63681940E+04</rscale>
<asrwt>0</asrwt>
<pdfrwt beam="1">  1        2 0.68188554E+00 0.63681940E+04</pdfrwt>
<pdfrwt beam="2">  1       -2 0.35191226E+00 0.63681940E+04</pdfrwt>
<totfact> 0.10900770E-03</totfact>
</mgrwt>
<rwgt>
<wgt id='morphing_basis_vector_1'> +2.0017251e-06 </wgt>
<wgt id='morphing_basis_vector_2'> +1.3625662e-06 </wgt>
<wgt id='morphing_basis_vector_3'> +2.2104043e-06 </wgt>
<wgt id='morphing_basis_vector_4'> +1.6003675e-06 </wgt>
<wgt id='morphing_basis_vector_5'> +2.5534315e-06 </wgt>
</rwgt>
</event>
<event>
 4      1 +9.0096000e-12 5.87934500e+03 7.81860800e-03 7.27518500e-02
        2 -1    0    0  501    0 +0.0000000000e+00 +0.0000000000e+00 +4.8643982208e+03 4.8643982208e+03 0.0000000000e+00 0.0000e+00 1.0000e+00
       -2 -1    0    0    0  501 -0.0000000000e+00 -0.0000000000e+00 -1.7765146020e+03 1.7765146020e+03 0.0000000000e+00 0.0000e+00 -1.0000e+00
      -13  1    1    2    0    0 -1.7710662298e+02 -1.2084076193e+03 -1.4763829100e+03 1.9160694735e+03 0.0000000000e+00 0.0000e+00 -1.0000e+00
       13  1    1    2    0    0 +1.7710662298e+02 +1.2084076193e+03 +4.5642665288e+03 4.7248433494e+03 0.0000000000e+00 0.0000e+00 1.0000e+00
<mgrwt>
<rscale>  0 0.58793450E+04</rscale>
<asrwt>0</asrwt>
<pdfrwt beam="1">  1        2 0.74836895E+00 0.58793450E+04</pdfrwt>
<pdfrwt beam="2">  1       -2 0.27330994E+00 0.58793450E+04</pdfrwt>
<totfact> 0.12485328E-03</totfact>
</mgrwt>
<rwgt>
<wgt id='morphing_basis_vector_1'> +1.4550619e-06 </wgt>
<wgt id='morphing_basis_vector_2'> +9.8943696e-07 </wgt>
<wgt id='morphing_basis_vector_3'> +1.6055571e-06 </wgt>
<wgt id='morphing_basis_vector_4'> +1.1625023e-06 </wgt>
<wgt id='morphing_basis_vector_5'> +1.8539250e-06 </wgt>
</rwgt>
</event>
<event>
 4      1 +9.0096000e-12 6.01104700e+03 7.81860800e-03 7.26049600e-02
        2 -1    0    0  501    0 +0.0000000000e+00 +0.0000000000e+00 +1.5117848056e+03 1.5117848056e+03 0.0000000000e+00 0.0000e+00 -1.0000e+00
       -2 -1    0    0    0  501 -0.0000000000e+00 -0.0000000000e+00 -5.9751692438e+03 5.9751692438e+03 0.0000000000e+00 0.0000e+00 1.0000e+00
      -13  1    1    2    0    0 +5.5295187543e+02 +2.9541999774e+03 -2.2182317988e+03 3.7354525290e+03 0.0000000000e+00 0.0000e+00 1.0000e+00
       13  1    1    2    0    0 -5.5295187543e+02 -2.9541999774e+03 -2.2451526394e+03 3.7515015204e+03 0.0000000000e+00 0.0000e+00 -1.0000e+00
<mgrwt>
<rscale>  0 0.60110465E+04</rscale>
<asrwt>0</asrwt>
<pdfrwt beam="1">  1        2 0.23258228E+00 0.60110465E+04</pdfrwt>
<pdfrwt beam="2">  1       -2 0.91925682E+00 0.60110465E+04</pdfrwt>
<totfact> 0.11143379E-04</totfact>
</mgrwt>
<rwgt>
<wgt id='morphing_basis_vector_1'> +1.6487007e-06 </wgt>
<wgt id='morphing_basis_vector_2'> +1.2546224e-06 </wgt>
<wgt id='morphing_basis_vector_3'> +1.8508772e-06 </wgt>
<wgt id='morphing_basis_vector_4'> +1.1439474e-06 </wgt>
<wgt id='morphing_basis_vector_5'> +2.0154678e-06 </wgt>
</rwgt>
</event>
<event>
 4      1 +9.0096000e-12 6.17522900e+03 7.81860800e-03 7.24271100e-02
        2 -1    0    0  501    0 +0.0000000000e+00 +0.0000000000e+00 +3.3170722481e+03 3.3170722481e+03 0.0000000000e+00 0.0000e+00 -1.0000e+00
       -2 -1    0    0    0  501 -0.0000000000e+00 -0.0000000000e+00 -2.8740292844e+03 2.8740292844e+03 0.0000000000e+00 0.0000e+00 1.0000e+00
      -13  1    1    2    0    0 +1.1570056313e+02 +2.8953721457e+03 -8.4742557530e+02 3.0190555788e+03 0.0000000000e+00 0.0000e+00 1.0000e+00
       13  1    1    2    0    0 -1.1570056313e+02 -2.8953721457e+03 +1.2904685390e+03 3.1720459537e+03 0.0000000000e+00 0.0000e+00 -1.0000e+00
<mgrwt>
<rscale>  0 0.61752288E+04</rscale>
<asrwt>0</asrwt>
<pdfrwt beam="1">  1        2 0.51031881E+00 0.61752288E+04</pdfrwt>
<pdfrwt beam="2">  1       -2 0.44215835E+00 0.61752288E+04</pdfrwt>
<totfact> 0.23861610E-03</totfact>
</mgrwt>
<rwgt>
<wgt id='morphing_basis_vector_1'> +1.7865830e-06 </wgt>
<wgt id='morphing_basis_vector_2'> +1.2524867e-06 </wgt>
<wgt id='morphing_basis_vector_3'> +1.9809554e-06 </wgt>
<wgt id='morphing_basis_vector_4'> +1.3799852e-06 </wgt>
<wgt id='morphing_basis_vector_5'> +2.2542463e-06 </wgt>
</rwgt>
</event>
<event>
 4      1 +9.0096000e-12 6.19514300e+03 7.81860800e-03 7.24059200e-02
        2 -1    0    0  501    0 +0.0000000000e+00 +0.0000000000e+00 +3.2558935497e+03 3.2558935497e+03 0.0000000000e+00 0.0000e+00 -1.0000e+00
       -2 -1    0    0    0  501 -0.0000000000e+00 -0.0000000000e+00 -2.9469476832e+03 2.9469476832e+03 0.0000000000e+00 0.0000e+00 1.0000e+00
      -13  1    1    2    0    0 -3.0654383649e+03 +1.7345368333e+01 -2.9075338288e+02 3.0792451609e+03 0.0000000000e+00 0.0000e+00 1.0000e+00
       13  1    1    2    0    0 +3.0654383649e+03 -1.7345368333e+01 +5.9969924941e+02 3.1235960720e+03 0.0000000000e+00 0.0000e+00 -1.0000e+00
<mgrwt>
<rscale>  0 0.61951426E+04</rscale>
<asrwt>0</asrwt>
<pdfrwt beam="1">  1        2 0.50090670E+00 0.61951426E+04</pdfrwt>
<pdfrwt beam="2">  1       -2 0.45337657E+00 0.61951426E+04</pdfrwt>
<totfact> 0.21965337E-03</totfact>
</mgrwt>
<rwgt>
<wgt id='morphing_basis_vector_1'> +1.8314908e-06 </wgt>
<wgt id='morphing_basis_vector_2'> +1.3326910e-06 </wgt>
<wgt id='morphing_basis_vector_3'> +2.0422579e-06 </wgt>
<wgt id='morphing_basis_vector_4'> +1.3512474e-06 </wgt>
<wgt id='morphing_basis_vector_5'> +2.2795991e-06 </wgt>
</rwgt>
</event>
<event>
 4      1 +9.0096000e-12 5.68052400e+03 7.81860800e-03 7.29812000e-02
        2 -1    0    0  501    0 +0.0000000000e+00 +0.0000000000e+00 +3.1463509733e+03 3.1463509733e+03 0.0000000000e+00 0.0000e+00 1.0000e+00
       -2 -1    0    0    0  501 -0.0000000000e+00 -0.0000000000e+00 -2.5639508057e+03 2.5639508057e+03 0.0000000000e+00 0.0000e+00 -1.0000e+00
      -13  1    1    2    0    0 +1.0040773632e+03 -4.2597378630e+02 +2.9274392230e+03 3.1240239151e+03 0.0000000000e+00 0.0000e+00 1.0000e+00
       13  1    1    2    0    0 -1.0040773632e+03 +4.2597378630e+02 -2.3450390554e+03 2.5862778639e+03 0.0000000000e+00 0.0000e+00 -1.0000e+00
<mgrwt>
<rscale>  0 0.56805243E+04</rscale>
<asrwt>0</asrwt>
<pdfrwt beam="1">  1        2 0.48405399E+00 0.56805243E+04</pdfrwt>
<pdfrwt beam="2">  1       -2 0.39445397E+00 0.56805243E+04</pdfrwt>
<totfact> 0.67309095E-03</totfact>
</mgrwt>
<rwgt>
<wgt id='morphing_basis_vector_1'> +1.7322176e-06 </wgt>
<wgt id='morphing_basis_vector_2'> +2.2238330e-06 </wgt>
<wgt id='morphing_basis_vector_3'> +2.1552479e-06 </wgt>
<wgt id='morphing_basis_vector_4'> +2.1654312e-08 </wgt>
<wgt id='morphing_basis_vector_5'> +1.5317700e-06 </wgt>
</rwgt>
</event>
<event>
 4      1 +9.0096000e-12 6.58556600e+03 7.81860800e-03 7.20061100e-02
        2 -1    0    0  501    0 +0.0000000000e+00 +0.0000000000e+00 +1.9108270813e+03 1.9108270813e+03 0.0000000000e+00 0.0000e+00 -1.0000e+00
       -2 -1    0    0    0  501 -0.0000000000e+00 -0.0000000000e+00 -5.6742020201e+03 5.6742020201e+03 0.0000000000e+00 0.0000e+00 1.0000e+00
      -13  1    1    2    0    0 -4.4054530788e+02 +2.7864345124e+03 -3.8376968588e+03 4.7630047911e+03 0.0000000000e+00 0.0000e+00 1.0000e+00
       13  1    1    2    0    0 +4.4054530788e+02 -2.7864345124e+03 +7.4321920080e+01 2.8220243103e+03 0.0000000000e+00 0.0000e+00 -1.0000e+00
<mgrwt>
<rscale>  0 0.65855657E+04</rscale>
<asrwt>0</asrwt>
<pdfrwt beam="1">  1        2 0.29397339E+00 0.65855657E+04</pdfrwt>
<pdfrwt beam="2">  1       -2 0.87295416E+00 0.65855657E+04</pdfrwt>
<totfact> 0.22827974E-04</totfact>
</mgrwt>
<rwgt>
<wgt id='morphing_basis_vector_1'> +2.2975614e-06 </wgt>
<wgt id='morphing_basis_vector_2'> +1.5840641e-06 </wgt>
<wgt id='morphing_basis_vector_3'> +2.5423992e-06 </wgt>
<wgt id='morphing_basis_vector_4'> +1.8118829e-06 </wgt>
<wgt id='morphing_basis_vector_5'> +2.9194760e-06 </wgt>
</rwgt>
</event>
<event>
 4      1 +9.0096000e-12 5.85669600e+03 7.81860800e-03 7.27775100e-02
        2 -1    0    0  501    0 +0.0000000000e+00 +0.0000000000e+00 +4.5702496341e+03 4.5702496341e+03 0.0000000000e+00 0.0000e+00 -1.0000e+00
       -2 -1    0    0    0  501 -0.0000000000e+00 -0.0000000000e+00 -1.8763139395e+03 1.8763139395e+03 0.0000000000e+00 0.0000e+00 1.0000e+00
      -13  1    1    2    0    0 -2.1913856851e+03 -1.3400358693e+03 -2.0084328270e+02 2.5764714973e+03 0.0000000000e+00 0.0000e+00 1.0000e+00
       13  1    1    2    0    0 +2.1913856851e+03 +1.3400358693e+03 +2.8947789773e+03 3.8700920763e+03 0.0000000000e+00 0.0000e+00 -1.0000e+00
<mgrwt>
<rscale>  0 0.58566964E+04</rscale>
<asrwt>0</asrwt>
<pdfrwt beam="1">  1        2 0.70311532E+00 0.58566964E+04</pdfrwt>
<pdfrwt beam="2">  1       -2 0.28866369E+00 0.58566964E+04</pdfrwt>
<totfact> 0.21412945E-03</totfact>
</mgrwt>
<rwgt>
<wgt id='morphing_basis_vector_1'> +1.4398171e-06 </wgt>
<wgt id='morphing_basis_vector_2'> +9.9482293e-07 </wgt>
<wgt id='morphing_basis_vector_3'> +1.5923760e-06 </wgt>
<wgt id='morphing_basis_vector_4'> +1.1296981e-06 </wgt>
<wgt id='morphing_basis_vector_5'> +1.8242003e-06 </wgt>
</rwgt>
</event>
<event>
 4      1 +9.0096000e-12 6.04625800e+03 7.81860800e-03 7.25663300e-02
        2 -1    0    0  501    0 +0.0000000000e+00 +0.0000000000e+00 +3.7616583463e+03 3.7616583463e+03 0.0000000000e+00 0.0000e+00 1.0000e+00
       -2 -1    0    0    0  501 -0.0000000000e+00 -0.0000000000e+00 -2.4295954809e+03 2.4295954809e+03 0.0000000000e+00 0.0000e+00 -1.0000e+00
      -13  1    1    2    0    0 +9.4941218622e+02 -2.2726890730e+03 +2.4610119415e+03 3.4818212042e+03 0.0000000000e+00 0.0000e+00 1.0000e+00
       13  1    1    2    0    0 -9.4941218622e+02 +2.2726890730e+03 -1.1289490761e+03 2.7094326230e+03 0.0000000000e+00 0.0000e+00 -1.0000e+00
<mgrwt>
<rscale>  0 0.60462577E+04</rscale>
<asrwt>0</asrwt>
<pdfrwt beam="1">  1        2 0.57871667E+00 0.60462577E+04</pdfrwt>
<pdfrwt beam="2">  1       -2 0.37378392E+00 0.60462577E+04</pdfrwt>
<totfact> 0.31818123E-03</totfact>
</mgrwt>
<rwgt>
<wgt id='morphing_basis_vector_1'> +1.9945421e-06 </wgt>
<wgt id='morphing_basis_vector_2'> +2.1852102e-06 </wgt>
<wgt id='morphing_basis_vector_3'> +2.3959544e-06 </wgt>
<wgt id='morphing_basis_vector_4'> +5.1432753e-07 </wgt>
<wgt id='morphing_basis_vector_5'> +2.0079684e-06 </wgt>
</rwgt>
</event>
<event>
 4      1 +9.0096000e-12 5.93440400e+03 7.81860800e-03 7.26899700e-02
        2 -1    0    0  501    0 +0.0000000000e+00 +0.0000000000e+00 +3.9829799897e+03 3.9829799897e+03 0.0000000000e+00 0.0000e+00 -1.0000e+00
       -2 -1    0    0    0  501 -0.0000000000e+00 -0.0000000000e+00 -2.2104776865e+03 2.2104776865e+03 0.0000000000e+00 0.0000e+00 1.0000e+00
      -13  1    1    2    0    0 -1.1813275515e+03 +2.0366647472e+03 -9.9832990383e+02 2.5573816050e+03 0.0000000000e+00 0.0000e+00 1.0000e+00
       13  1    1    2    0    0 +1.1813275515e+03 -2.0366647472e+03 +2.7708322070e+03 3.6360760713e+03 0.0000000000e+00 0.0000e+00 -1.0000e+00
<mgrwt>
<rscale>  0 0.59344042E+04</rscale>
<asrwt>0</asrwt>
<pdfrwt beam="1">  1        2 0.61276615E+00 0.59344042E+04</pdfrwt>
<pdfrwt beam="2">  1       -2 0.34007349E+00 0.59344042E+04</pdfrwt>
<totfact> 0.34904497E-03</totfact>
</mgrwt>
<rwgt>
<wgt id='morphing_basis_vector_1'> +1.5136986e-06 </wgt>
<wgt id='morphing_basis_vector_2'> +1.0372427e-06 </wgt>
<wgt id='morphing_basis_vector_3'> +1.6722429e-06 </wgt>
<wgt id='morphing_basis_vector_4'> +1.1992934e-06 </wgt>
<wgt id='morphing_basis_vector_5'> +1.9238882e-06 </wgt>
</rwgt>
</event>
<event>
 4      1 +9.0096000e-12 5.78091400e+03 7.81860800e-03 7.28642200e-02
        2 -1    0    0  501    0 +0.0000000000e+00 +0.0000000000e+00 +4.4236945442e+03 4.4236945442e+03 0.0000000000e+00 0.0000e+00 1.0000e+00
       -2 -1    0    0    0  501 -0.0000000000e+00 -0.0000000000e+00 -1.8886346798e+03 1.8886346798e+03 0.0000000000e+00 0.0000e+00 -1.0000e+00
      -13  1    1    2    0    0 +2.1733289564e+03 +7.9170360200e+02 -6.2518705066e+02 2.3960409417e+03 0.0000000000e+00 0.0000e+00 -1.0000e+00
       13  1    1    2    0    0 -2.1733289564e+03 -7.9170360200e+02 +3.1602469150e+03 3.9162882823e+03 0.0000000000e+00 0.0000e+00 1.0000e+00
<mgrwt>
<rscale>  0 0.57809144E+04</rscale>
<asrwt>0</asrwt>
<pdfrwt beam="1">  1        2 0.68056839E+00 0.57809144E+04</pdfrwt>
<pdfrwt beam="2">  1       -2 0.29055918E+00 0.57809144E+04</pdfrwt>
<totfact> 0.29646966E-03</totfact>
</mgrwt>
<rwgt>
<wgt id='morphing_basis_vector_1'> +1.3635960e-06 </wgt>
<wgt id='morphing_basis_vector_2'> +9.3466620e-07 </wgt>
<wgt id='morphing_basis_vector_3'> +1.5061606e-06 </wgt>
<wgt id='morphing_basis_vector_4'> +1.0792939e-06 </wgt>
<wgt id='morphing_basis_vector_5'> +1.7319845e-06 </wgt>
</rwgt>
</event>
<event>
 4      1 +9.0096000e-12 5.70574200e+03 7.81860800e-03 7.29515800e-02
        2 -1    0    0  501    0 +0.0000000000e+00 +0.0000000000e+00 +4.8062736625e+03 4.8062736625e+03 0.0000000000e+00 0.0000e+00 -1.0000e+00
       -2 -1    0    0    0  501 -0.0000000000e+00 -0.0000000000e+00 -1.6933850055e+03 1.6933850055e+03 0.0000000000e+00 0.0000e+00 1.0000e+00
      -13  1    1    2    0    0 -1.7878410426e+03 -1.1732511517e+03 -5.9469120964e+02 2.2195836306e+03 0.0000000000e+00 0.0000e+00 1.0000e+00
       13  1    1    2    0    0 +1.7878410426e+03 +1.1732511517e+03 +3.7075798666e+03 4.2800750374e+03 0.0000000000e+00 0.0000e+00 -1.0000e+00
<mgrwt>
<rscale>  0 0.57057416E+04</rscale>
<asrwt>0</asrwt>
<pdfrwt beam="1">  1        2 0.73942671E+00 0.57057416E+04</pdfrwt>
<pdfrwt beam="2">  1       -2 0.26052077E+00 0.57057416E+04</pdfrwt>
<totfact> 0.18228975E-03</totfact>
</mgrwt>
<rwgt>
<wgt id='morphing_basis_vector_1'> +1.2931015e-06 </wgt>
<wgt id='morphing_basis_vector_2'> +8.8378368e-07 </wgt>
<wgt id='morphing_basis_vector_3'> +1.4275375e-06 </wgt>
<wgt id='morphing_basis_vector_4'> +1.0264827e-06 </wgt>
<wgt id='morphing_basis_vector_5'> +1.6436307e-06 </wgt>
</rwgt>
</event>
<event>
 4      1 +9.0096000e-12 5.78627500e+03 7.81860800e-03 7.28580400e-02
        2 -1    0    0  501    0 +0.0000000000e+00 +0.0000000000e+00 +3.6601480501e+03 3.6601480501e+03 0.0000000000e+00 0.0000e+00 1.0000e+00
       -2 -1    0    0    0  501 -0.0000000000e+00 -0.0000000000e+00 -2.2868595998e+03 2.2868595998e+03 0.0000000000e+00 0.0000e+00 -1.0000e+00
      -13  1    1    2    0    0 +1.6005667798e+03 -2.2848566717e+03 -1.0137466753e+02 2.7915337809e+03 0.0000000000e+00 0.0000e+00 -1.0000e+00
       13  1    1    2    0    0 -1.6005667798e+03 +2.2848566717e+03 +1.4746631178e+03 3.1554738690e+03 0.0000000000e+00 0.0000e+00 1.0000e+00
<mgrwt>
<rscale>  0 0.57862750E+04</rscale>
<asrwt>0</asrwt>
<pdfrwt beam="1">  1        2 0.56309970E+00 0.57862750E+04</pdfrwt>
<pdfrwt beam="2">  1       -2 0.35182455E+00 0.57862750E+04</pdfrwt>
<totfact> 0.53883592E-03</totfact>
</mgrwt>
<rwgt>
<wgt id='morphing_basis_vector_1'> +1.3833398e-06 </wgt>
<wgt id='morphing_basis_vector_2'> +9.8126040e-07 </wgt>
<wgt id='morphing_basis_vector_3'> +1.5357178e-06 </wgt>
<wgt id='morphing_basis_vector_4'> +1.0519062e-06 </wgt>
<wgt id='morphing_basis_vector_5'> +1.7357928e-06 </wgt>
</rwgt>
</event>
<event>
 4      1 +9.0096000e-12 6.10412900e+03 7.81860800e-03 7.25034300e-02
        2 -1    0    0  501    0 +0.0000000000e+00 +0.0000000000e+00 +3.8023327694e+03 3.8023327694e+03 0.0000000000e+00 0.0000e+00 1.0000e+00
       -2 -1    0    0    0  501 -0.0000000000e+00 -0.0000000000e+00 -2.4498376003e+03 2.4498376003e+03 0.0000000000e+00 0.0000e+00 -1.0000e+00
      -13  1    1    2    0    0 -2.9852446483e+03 +1.7317839910e+02 +1.3021501212e+03 3.2614829919e+03 0.0000000000e+00 0.0000e+00 1.0000e+00
       13  1    1    2    0    0 +2.9852446483e+03 -1.7317839910e+02 +5.0345047954e+01 2.9906873779e+03 0.0000000000e+00 0.0000e+00 -1.0000e+00
<mgrwt>
<rscale>  0 0.61041290E+04</rscale>
<asrwt>0</asrwt>
<pdfrwt beam="1">  1        2 0.58497427E+00 0.61041290E+04</pdfrwt>
<pdfrwt beam="2">  1       -2 0.37689809E+00 0.61041290E+04</pdfrwt>
<totfact> 0.28082010E-03</totfact>
</mgrwt>
<rwgt>
<wgt id='morphing_basis_vector_1'> +1.8145940e-06 </wgt>
<wgt id='morphing_basis_vector_2'> +1.5149125e-06 </wgt>
<wgt id='morphing_basis_vector_3'> +2.0688820e-06 </wgt>
<wgt id='morphing_basis_vector_4'> +1.0847794e-06 </wgt>
<wgt id='morphing_basis_vector_5'> +2.1324268e-06 </wgt>
</rwgt>
</event>
<event>
 4      1 +9.0096000e-12 5.58546800e+03 7.81860800e-03 7.30942600e-02
        2 -1    0    0  501    0 +0.0000000000e+00 +0.0000000000e+00 +2.9023703069e+03 2.9023703069e+03 0.0000000000e+00 0.0000e+00 1.0000e+00
       -2 -1    0    0    0  501 -0.0000000000e+00 -0.0000000000e+00 -2.6872388708e+03 2.6872388708e+03 0.0000000000e+00 0.0000e+00 -1.0000e+00
      -13  1    1    2    0    0 +5.8943294411e+02 -2.7002676998e+03 +5.0846912420e+02 2.8102344558e+03 0.0000000000e+00 0.0000e+00 -1.0000e+00
       13  1    1    2    0    0 -5.8943294411e+02 +2.7002676998e+03 -2.9333768806e+02 2.7793747220e+03 0.0000000000e+00 0.0000e+00 1.0000e+00
<mgrwt>
<rscale>  0 0.55854677E+04</rscale>
<asrwt>0</asrwt>
<pdfrwt beam="1">  1        2 0.44651851E+00 0.55854677E+04</pdfrwt>
<pdfrwt beam="2">  1       -2 0.41342136E+00 0.55854677E+04</pdfrwt>
<totfact> 0.73585876E-03</totfact>
</mgrwt>
<rwgt>
<wgt id='morphing_basis_vector_1'> +1.2579273e-06 </wgt>
<wgt id='morphing_basis_vector_2'> +1.0177364e-06 </wgt>
<wgt id='morphing_basis_vector_3'> +1.4253150e-06 </wgt>
<wgt id='morphing_basis_vector_4'> +7.9248205e-07 </wgt>
<wgt id='morphing_basis_vector_5'> +1.4964463e-06 </wgt>
</rwgt>
</event>
<event>
 4      1 +9.0096000e-12 5.90267800e+03 7.81860800e-03 7.27255400e-02
        2 -1    0    0  501    0 +0.0000000000e+00 +0.0000000000e+00 +2.7061099209e+03 2.7061099209e+03 0.0000000000e+00 0.0000e+00 -1.0000e+00
       -2 -1    0    0    0  501 -0.0000000000e+00 -0.0000000000e+00 -3.2187908355e+03 3.2187908355e+03 0.0000000000e+00 0.0000e+00 1.0000e+00
      -13  1    1    2    0    0 -1.7889254848e+03 +1.3898386823e+03 -2.1551536886e+03 3.1267544474e+03 0.0000000000e+00 0.0000e+00 1.0000e+00
       13  1    1    2    0    0 +1.7889254848e+03 -1.3898386823e+03 +1.6424727740e+03 2.7981463089e+03 0.0000000000e+00 0.0000e+00 -1.0000e+00
<mgrwt>
<rscale>  0 0.59026780E+04</rscale>
<asrwt>0</asrwt>
<pdfrwt beam="1">  1        2 0.41632461E+00 0.59026780E+04</pdfrwt>
<pdfrwt beam="2">  1       -2 0.49519859E+00 0.59026780E+04</pdfrwt>
<totfact> 0.25310275E-03</totfact>
</mgrwt>
<rwgt>
<wgt id='morphing_basis_vector_1'> +1.4809847e-06 </wgt>
<wgt id='morphing_basis_vector_2'> +1.0132713e-06 </wgt>
<wgt id='morphing_basis_vector_3'> +1.6356679e-06 </wgt>
<wgt id='morphing_basis_vector_4'> +1.1752446e-06 </wgt>
<wgt id='morphing_basis_vector_5'> +1.8831058e-06 </wgt>
</rwgt>
</event>
<event>
 4      1 +9.0096000e-12 6.45010700e+03 7.81860800e-03 7.21415700e-02
        2 -1    0    0  501    0 +0.0000000000e+00 +0.0000000000e+00 +3.6619977045e+03 3.6619977045e+03 0.0000000000e+00 0.0000e+00 1.0000e+00
       -2 -1    0    0    0  501 -0.0000000000e+00 -0.0000000000e+00 -2.8402450064e+03 2.8402450064e+03 0.0000000000e+00 0.0000e+00 -1.0000e+00
      -13  1    1    2    0    0 -1.2196028123e+03 -1.1914562378e+03 -2.3487626201e+03 2.9023584947e+03 0.0000000000e+00 0.0000e+00 -1.0000e+00
       13  1    1    2    0    0 +1.2196028123e+03 +1.1914562378e+03 +3.1705153182e+03 3.5998842161e+03 0.0000000000e+00 0.0000e+00 1.0000e+00
<mgrwt>
<rscale>  0 0.64501072E+04</rscale>
<asrwt>0</asrwt>
<pdfrwt beam="1">  1        2 0.56338426E+00 0.64501072E+04</pdfrwt>
<pdfrwt beam="2">  1       -2 0.43696077E+00 0.64501072E+04</pdfrwt>
<totfact> 0.14184245E-03</totfact>
</mgrwt>
<rwgt>
<wgt id='morphing_basis_vector_1'> +2.1065057e-06 </wgt>
<wgt id='morphing_basis_vector_2'> +1.4339804e-06 </wgt>
<wgt id='morphing_basis_vector_3'> +2.3263314e-06 </wgt>
<wgt id='morphing_basis_vector_4'> +1.6844723e-06 </wgt>
<wgt id='morphing_basis_vector_5'> +2.6876306e-06 </wgt>
</rwgt>
</event>
<event>
 4      1 +9.0096000e-12 5.67054100e+03 7.81860800e-03 7.29929600e-02
        2 -1    0    0  501    0 +0.0000000000e+00 +0.0000000000e+00 +3.2216401110e+03 3.2216401110e+03 0.0000000000e+00 0.0000e+00 -1.0000e+00
       -2 -1    0    0    0  501 -0.0000000000e+00 -0.0000000000e+00 -2.4952383696e+03 2.4952383696e+03 0.0000000000e+00 0.0000e+00 1.0000e+00
      -13  1    1    2    0    0 -4.8612823899e+02 +2.7110984954e+03 -3.1489046644e+02 2.7722791567e+03 0.0000000000e+00 0.0000e+00 1.0000e+00
       13  1    1    2    0    0 +4.8612823899e+02 -2.7110984954e+03 +1.0412922079e+03 2.9445993240e+03 0.0000000000e+00 0.0000e+00 -1.0000e+00
<mgrwt>
<rscale>  0 0.56705414E+04</rscale>
<asrwt>0</asrwt>
<pdfrwt beam="1">  1        2 0.49563694E+00 0.56705414E+04</pdfrwt>
<pdfrwt beam="2">  1       -2 0.38388282E+00 0.56705414E+04</pdfrwt>
<totfact> 0.70130289E-03</totfact>
</mgrwt>
<rwgt>
<wgt id='morphing_basis_vector_1'> +1.2782250e-06 </wgt>
<wgt id='morphing_basis_vector_2'> +9.1110356e-07 </wgt>
<wgt id='morphing_basis_vector_3'> +1.4197976e-06 </wgt>
<wgt id='morphing_basis_vector_4'> +9.6572684e-07 </wgt>
<wgt id='morphing_basis_vector_5'> +1.6003558e-06 </wgt>
</rwgt>
</event>
<event>
 4      1 +9.0096000e-12 5.98959000e+03 7.81860800e-03 7.26286300e-02
        2 -1    0    0  501    0 +0.0000000000e+00 +0.0000000000e+00 +3.1853534815e+03 3.1853534815e+03 0.0000000000e+00 0.0000e+00 1.0000e+00
       -2 -1    0    0    0  501 -0.0000000000e+00 -0.0000000000e+00 -2.8156361209e+03 2.8156361209e+03 0.0000000000e+00 0.0000e+00 -1.0000e+00
      -13  1    1    2    0    0 -1.4241695762e+03 +3.4592575983e+02 -2.4317921298e+03 2.8392845183e+03 0.0000000000e+00 0.0000e+00 -1.0000e+00
       13  1    1    2    0    0 +1.4241695762e+03 -3.4592575983e+02 +2.8015094905e+03 3.1617050841e+03 0.0000000000e+00 0.0000e+00 1.0000e+00
<mgrwt>
<rscale>  0 0.59895897E+04</rscale>
<asrwt>0</asrwt>
<pdfrwt beam="1">  1        2 0.49005438E+00 0.59895897E+04</pdfrwt>
<pdfrwt beam="2">  1       -2 0.43317479E+00 0.59895897E+04</pdfrwt>
<totfact> 0.34329265E-03</totfact>
</mgrwt>
<rwgt>
<wgt id='morphing_basis_vector_1'> +1.5671902e-06 </wgt>
<wgt id='morphing_basis_vector_2'> +1.0661469e-06 </wgt>
<wgt id='morphing_basis_vector_3'> +1.7296454e-06 </wgt>
<wgt id='morphing_basis_vector_4'> +1.2520509e-06 </wgt>
<wgt id='morphing_basis_vector_5'> +1.9972443e-06 </wgt>
</rwgt>
</event>
<event>
 4      1 +9.0096000e-12 5.72874400e+03 7.81860800e-03 7.29247100e-02
        2 -1    0    0  501    0 +0.0000000000e+00 +0.0000000000e+00 +4.1659789886e+03 4.1659789886e+03 0.0000000000e+00 0.0000e+00 1.0000e+00
       -2 -1    0    0    0  501 -0.0000000000e+00 -0.0000000000e+00 -1.9694352299e+03 1.9694352299e+03 0.0000000000e+00 0.0000e+00 -1.0000e+00
      -13  1    1    2    0    0 +1.0841273087e+03 -2.3052074812e+03 -3.0440001994e+02 2.5655356020e+03 0.0000000000e+00 0.0000e+00 -1.0000e+00
       13  1    1    2    0    0 -1.0841273087e+03 +2.3052074812e+03 +2.5009437786e+03 3.5698786165e+03 0.0000000000e+00 0.0000e+00 1.0000e+00
<mgrwt>
<rscale>  0 0.57287436E+04</rscale>
<asrwt>0</asrwt>
<pdfrwt beam="1">  1        2 0.64091984E+00 0.57287436E+04</pdfrwt>
<pdfrwt beam="2">  1       -2 0.30299004E+00 0.57287436E+04</pdfrwt>
<totfact> 0.43186911E-03</totfact>
</mgrwt>
<rwgt>
<wgt id='morphing_basis_vector_1'> +1.3191444e-06 </wgt>
<wgt id='morphing_basis_vector_2'> +9.1313024e-07 </wgt>
<wgt id='morphing_basis_vector_3'> +1.4590384e-06 </wgt>
<wgt id='morphing_basis_vector_4'> +1.0322374e-06 </wgt>
<wgt id='morphing_basis_vector_5'> +1.6694416e-06 </wgt>
</rwgt>
</event>
<event>
 4      1 +9.0096000e-12 5.88661700e+03 7.81860800e-03 7.27436400e-02
        2 -1    0    0  501    0 +0.0000000000e+00 +0.0000000000e+00 +4.2118497143e+03 4.2118497143e+03 0.0000000000e+00 0.0000e+00 1.0000e+00
       -2 -1    0    0    0  501 -0.0000000000e+00 -0.0000000000e+00 -2.0568312958e+03 2.0568312958e+03 0.0000000000e+00 0.0000e+00 -1.0000e+00
      -13  1    1    2    0    0 +1.4330056542e+03 -2.5476320137e+03 +7.0995501450e+02 3.0079844090e+03 0.0000000000e+00 0.0000e+00 -1.0000e+00
       13  1    1    2    0    0 -1.4330056542e+03 +2.5476320137e+03 +1.4450634041e+03 3.2606966010e+03 0.0000000000e+00 0.0000e+00 1.0000e+00
<mgrwt>
<rscale>  0 0.58866168E+04</rscale>
<asrwt>0</asrwt>
<pdfrwt beam="1">  1        2 0.64797688E+00 0.58866168E+04</pdfrwt>
<pdfrwt beam="2">  1       -2 0.31643558E+00 0.58866168E+04</pdfrwt>
<totfact> 0.31502174E-03</totfact>
</mgrwt>
<rwgt>
<wgt id='morphing_basis_vector_1'> +1.4970308e-06 </wgt>
<wgt id='morphing_basis_vector_2'> +1.0964091e-06 </wgt>
<wgt id='morphing_basis_vector_3'> +1.6702634e-06 </wgt>
<wgt id='morphing_basis_vector_4'> +1.0939168e-06 </wgt>
<wgt id='morphing_basis_vector_5'> +1.8568823e-06 </wgt>
</rwgt>
</event>
<event>
 4      1 +9.0096000e-12 5.90790500e+03 7.81860800e-03 7.27196700e-02
        2 -1    0    0  501    0 +0.0000000000e+00 +0.0000000000e+00 +3.3992331062e+03 3.3992331062e+03 0.0000000000e+00 0.0000e+00 1.0000e+00
       -2 -1    0    0    0  501 -0.0000000000e+00 -0.0000000000e+00 -2.5670007846e+03 2.5670007846e+03 0.0000000000e+00 0.0000e+00 -1.0000e+00
      -13  1    1    2    0    0 -1.6091471810e+02 -2.0508533756e+03 -1.7247054717e+03 2.6844928904e+03 0.0000000000e+00 0.0000e+00 -1.0000e+00
       13  1    1    2    0    0 +1.6091471810e+02 +2.0508533756e+03 +2.5569377933e+03 3.2817410004e+03 0.0000000000e+00 0.0000e+00 1.0000e+00
<mgrwt>
<rscale>  0 0.59079046E+04</rscale>
<asrwt>0</asrwt>
<pdfrwt beam="1">  1        2 0.52295894E+00 0.59079046E+04</pdfrwt>
<pdfrwt beam="2">  1       -2 0.39492319E+00 0.59079046E+04</pdfrwt>
<totfact> 0.43896925E-03</totfact>
</mgrwt>
<rwgt>
<wgt id='morphing_basis_vector_1'> +1.4849708e-06 </wgt>
<wgt id='morphing_basis_vector_2'> +1.0131810e-06 </wgt>
<wgt id='morphing_basis_vector_3'> +1.6394215e-06 </wgt>
<wgt id='morphing_basis_vector_4'> +1.1821034e-06 </wgt>
<wgt id='morphing_basis_vector_5'> +1.8900250e-06 </wgt>
</rwgt>
</event>
<event>
 4      1 +9.0096000e-12 5.68688600e+03 7.81860800e-03 7.29737100e-02
        2 -1    0    0  501    0 +0.0000000000e+00 +0.0000000000e+00 +2.7288205454e+03 2.7288205454e+03 0.0000000000e+00 0.0000e+00 1.0000e+00
       -2 -1    0    0    0  501 -0.0000000000e+00 -0.0000000000e+00 -2.9628799736e+03 2.9628799736e+03 0.0000000000e+00 0.0000e+00 -1.0000e+00
      -13  1    1    2    0    0 +2.5385327595e+03 -9.1705745978e+02 +7.7816858815e+02 2.8090370783e+03 0.0000000000e+00 0.0000e+00 -1.0000e+00
       13  1    1    2    0    0 -2.5385327595e+03 +9.1705745978e+02 -1.0122280164e+03 2.8826634407e+03 0.0000000000e+00 0.0000e+00 1.0000e+00
<mgrwt>
<rscale>  0 0.56868859E+04</rscale>
<asrwt>0</asrwt>
<pdfrwt beam="1">  1        2 0.41981855E+00 0.56868859E+04</pdfrwt>
<pdfrwt beam="2">  1       -2 0.45582768E+00 0.56868859E+04</pdfrwt>
<totfact> 0.48383880E-03</totfact>
</mgrwt>
<rwgt>
<wgt id='morphing_basis_vector_1'> +1.4102943e-06 </wgt>
<wgt id='morphing_basis_vector_2'> +1.2660020e-06 </wgt>
<wgt id='morphing_basis_vector_3'> +1.6274770e-06 </wgt>
<wgt id='morphing_basis_vector_4'> +7.2625708e-07 </wgt>
<wgt id='morphing_basis_vector_5'> +1.5978653e-06 </wgt>
</rwgt>
</event>
<event>
 4      1 +9.0096000e-12 5.74885600e+03 7.81860800e-03 7.29013100e-02
        2 -1    0    0  501    0 +0.0000000000e+00 +0.0000000000e+00 +2.5078611431e+03 2.5078611431e+03 0.0000000000e+00 0.0000e+00 -1.0000e+00
       -2 -1    0    0    0  501 -0.0000000000e+00 -0.0000000000e+00 -3.2945749979e+03 3.2945749979e+03 0.0000000000e+00 0.0000e+00 1.0000e+00
      -13  1    1    2    0    0 -2.6149621678e+03 -1.1141394535e+03 -8.2513218353e+02 2.9597596155e+03 0.0000000000e+00 0.0000e+00 1.0000e+00
       13  1    1    2    0    0 +2.6149621678e+03 +1.1141394535e+03 +3.8418328745e+01 2.8426765256e+03 0.0000000000e+00 0.0000e+00 -1.0000e+00
<mgrwt>
<rscale>  0 0.57488561E+04</rscale>
<asrwt>0</asrwt>
<pdfrwt beam="1">  1        2 0.38582479E+00 0.57488561E+04</pdfrwt>
<pdfrwt beam="2">  1       -2 0.50685769E+00 0.57488561E+04</pdfrwt>
<totfact> 0.27613100E-03</totfact>
</mgrwt>
<rwgt>
<wgt id='morphing_basis_vector_1'> +1.3584378e-06 </wgt>
<wgt id='morphing_basis_vector_2'> +9.8682341e-07 </wgt>
<wgt id='morphing_basis_vector_3'> +1.5134196e-06 </wgt>
<wgt id='morphing_basis_vector_4'> +1.0025626e-06 </wgt>
<wgt id='morphing_basis_vector_5'> +1.6893446e-06 </wgt>
</rwgt>
</event>
<event>
 4      1 +9.0096000e-12 5.59980400e+03 7.81860800e-03 7.30770600e-02
        2 -1    0    0  501    0 +0.0000000000e+00 +0.0000000000e+00 +4.0352317115e+03 4.0352317115e+03 0.0000000000e+00 0.0000e+00 -1.0000e+00
       -2 -1    0    0    0  501 -0.0000000000e+00 -0.0000000000e+00 -1.9427512718e+03 1.9427512718e+03 0.0000000000e+00 0.0000e+00 1.0000e+00
      -13  1    1    2    0    0 +4.6970738429e+02 +1.1894719385e+03 -1.6127524442e+03 2.0582611510e+03 0.0000000000e+00 0.0000e+00 1.0000e+00
       13  1    1    2    0    0 -4.6970738429e+02 -1.1894719385e+03 +3.7052328839e+03 3.9197218324e+03 0.0000000000e+00 0.0000e+00 -1.0000e+00
<mgrwt>
<rscale>  0 0.55998041E+04</rscale>
<asrwt>0</asrwt>
<pdfrwt beam="1">  1        2 0.62080488E+00 0.55998041E+04</pdfrwt>
<pdfrwt beam="2">  1       -2 0.29888481E+00 0.55998041E+04</pdfrwt>
<totfact> 0.60636056E-03</totfact>
</mgrwt>
<rwgt>
<wgt id='morphing_basis_vector_1'> +1.1980896e-06 </wgt>
<wgt id='morphing_basis_vector_2'> +8.1458500e-07 </wgt>
<wgt id='morphing_basis_vector_3'> +1.3214356e-06 </wgt>
<wgt id='morphing_basis_vector_4'> +9.5612456e-07 </wgt>
<wgt id='morphing_basis_vector_5'> +1.5249691e-06 </wgt>
</rwgt>
</event>
<event>
 4      1 +9.0096000e-12 6.04296700e+03 7.81860800e-03 7.25699300e-02
        2 -1    0    0  501    0 +0.0000000000e+00 +0.0000000000e+00 +3.8057059496e+03 3.8057059496e+03 0.0000000000e+00 0.0000e+00 1.0000e+00
       -2 -1    0    0    0  501 -0.0000000000e+00 -0.0000000000e+00 -2.3988616526e+03 2.3988616526e+03 0.0000000000e+00 0.0000e+00 -1.0000e+00
      -13  1    1    2    0    0 -6.8509405468e+02 +7.4717015228e+02 -2.2190514298e+03 2.4396324207e+03 0.0000000000e+00 0.0000e+00 -1.0000e+00
       13  1    1    2    0    0 +6.8509405468e+02 -7.4717015228e+02 +3.6258957267e+03 3.7649351815e+03 0.0000000000e+00 0.0000e+00 1.0000e+00
<mgrwt>
<rscale>  0 0.60429668E+04</rscale>
<asrwt>0</asrwt>
<pdfrwt beam="1">  1        2 0.58549322E+00 0.60429668E+04</pdfrwt>
<pdfrwt beam="2">  1       -2 0.36905564E+00 0.60429668E+04</pdfrwt>
<totfact> 0.31487432E-03</totfact>
</mgrwt>
<rwgt>
<wgt id='morphing_basis_vector_1'> +1.6234248e-06 </wgt>
<wgt id='morphing_basis_vector_2'> +1.1038920e-06 </wgt>
<wgt id='morphing_basis_vector_3'> +1.7917117e-06 </wgt>
<wgt id='morphing_basis_vector_4'> +1.2979171e-06 </wgt>
<wgt id='morphing_basis_vector_5'> +2.0696024e-06 </wgt>
</rwgt>
</event>
<event>
 4      1 +9.0096000e-12 6.16375600e+03 7.81860800e-03 7.24393500e-02
        2 -1    0    0  501    0 +0.0000000000e+00 +0.0000000000e+00 +3.4758778756e+03 3.4758778756e+03 0.0000000000e+00 0.0000e+00 -1.0000e+00
       -2 -1    0    0    0  501 -0.0000000000e+00 -0.0000000000e+00 -2.7325388866e+03 2.7325388866e+03 0.0000000000e+00 0.0000e+00 1.0000e+00
      -13  1    1    2    0    0 +1.6863986509e+03 +3.8285308698e+01 -2.2262758468e+03 2.7931541885e+03 0.0000000000e+00 0.0000e+00 1.0000e+00
       13  1    1    2    0    0 -1.6863986509e+03 -3.8285308698e+01 +2.9696148358e+03 3.4152625737e+03 0.0000000000e+00 0.0000e+00 -1.0000e+00
<mgrwt>
<rscale>  0 0.61637558E+04</rscale>
<asrwt>0</asrwt>
<pdfrwt beam="1">  1        2 0.53475045E+00 0.61637558E+04</pdfrwt>
<pdfrwt beam="2">  1       -2 0.42039059E+00 0.61637558E+04</pdfrwt>
<totfact> 0.25793347E-03</totfact>
</mgrwt>
<rwgt>
<wgt id='morphing_basis_vector_1'> +1.7573615e-06 </wgt>
<wgt id='morphing_basis_vector_2'> +1.1962243e-06 </wgt>
<wgt id='morphing_basis_vector_3'> +1.9401152e-06 </wgt>
<wgt id='morphing_basis_vector_4'> +1.4040007e-06 </wgt>
<wgt id='morphing_basis_vector_5'> +2.2403887e-06 </wgt>
</rwgt>
</event>
<event>
 4      1 +9.0096000e-12 5.55960200e+03 7.81860800e-03 7.31254200e-02
        2 -1    0    0  501    0 +0.0000000000e+00 +0.0000000000e+00 +3.3114297700e+03 3.3114297700e+03 0.0000000000e+00 0.0000e+00 -1.0000e+00
       -2 -1    0    0    0  501 -0.0000000000e+00 -0.0000000000e+00 -2.3335220679e+03 2.3335220679e+03 0.0000000000e+00 0.0000e+00 1.0000e+00
      -13  1    1    2    0    0 -1.9962666687e+03 +4.7177119245e+02 -1.4159190052e+03 2.4924837612e+03 0.0000000000e+00 0.0000e+00 1.0000e+00
       13  1    1    2    0    0 +1.9962666687e+03 -4.7177119245e+02 +2.3938267073e+03 3.1524680768e+03 0.0000000000e+00 0.0000e+00 -1.0000e+00
<mgrwt>
<rscale>  0 0.55596023E+04</rscale>
<asrwt>0</asrwt>
<pdfrwt beam="1">  1        2 0.50945073E+00 0.55596023E+04</pdfrwt>
<pdfrwt beam="2">  1       -2 0.35900340E+00 0.55596023E+04</pdfrwt>
<totfact> 0.88640313E-03</totfact>
</mgrwt>
<rwgt>
<wgt id='morphing_basis_vector_1'> +1.1657646e-06 </wgt>
<wgt id='morphing_basis_vector_2'> +7.9623103e-07 </wgt>
<wgt id='morphing_basis_vector_3'> +1.2865451e-06 </wgt>
<wgt id='morphing_basis_vector_4'> +9.2542955e-07 </wgt>
<wgt id='morphing_basis_vector_5'> +1.4812467e-06 </wgt>
</rwgt>
</event>
<event>
 4      1 +9.0096000e-12 5.55097200e+03 7.81860800e-03 7.31358600e-02
        2 -1    0    0  501    0 +0.0000000000e+00 +0.0000000000e+00 +2.6299767195e+03 2.6299767195e+03 0.0000000000e+00 0.0000e+00 -1.0000e+00
       -2 -1    0    0    0  501 -0.0000000000e+00 -0.0000000000e+00 -2.9290461848e+03 2.9290461848e+03 0.0000000000e+00 0.0000e+00 1.0000e+00
      -13  1    1    2    0    0 +1.7003608835e+03 +1.0445722166e+03 -2.0813126620e+03 2.8834390312e+03 0.0000000000e+00 0.0000e+00 1.0000e+00
       13  1    1    2    0    0 -1.7003608835e+03 -1.0445722166e+03 +1.7822431967e+03 2.6755838731e+03 0.0000000000e+00 0.0000e+00 -1.0000e+00
<mgrwt>
<rscale>  0 0.55509723E+04</rscale>
<asrwt>0</asrwt>
<pdfrwt beam="1">  1        2 0.40461180E+00 0.55509723E+04</pdfrwt>
<pdfrwt beam="2">  1       -2 0.45062249E+00 0.55509723E+04</pdfrwt>
<totfact> 0.61156544E-03</totfact>
</mgrwt>
<rwgt>
<wgt id='morphing_basis_vector_1'> +1.1583136e-06 </wgt>
<wgt id='morphing_basis_vector_2'> +7.9057388e-07 </wgt>
<wgt id='morphing_basis_vector_3'> +1.2781717e-06 </wgt>
<wgt id='morphing_basis_vector_4'> +9.2021358e-07 </wgt>
<wgt id='morphing_basis_vector_5'> +1.4720920e-06 </wgt>
</rwgt>
</event>
<event>
 4      1 +9.0096000e-12 6.07089700e+03 7.81860800e-03 7.25394600e-02
        2 -1    0    0  501    0 +0.0000000000e+00 +0.0000000000e+00 +2.8946538135e+03 2.8946538135e+03 0.0000000000e+00 0.0000e+00 -1.0000e+00
       -2 -1    0    0    0  501 -0.0000000000e+00 -0.0000000000e+00 -3.1830910399e+03 3.1830910399e+03 0.0000000000e+00 0.0000e+00 1.0000e+00
      -13  1    1    2    0    0 -2.7211680003e+03 -4.8483191639e+02 -1.4002770071e+03 3.0984823656e+03 0.0000000000e+00 0.0000e+00 1.0000e+00
       13  1    1    2    0    0 +2.7211680003e+03 +4.8483191639e+02 +1.1118397808e+03 2.9792624878e+03 0.0000000000e+00 0.0000e+00 -1.0000e+00
<mgrwt>
<rscale>  0 0.60708967E+04</rscale>
<asrwt>0</asrwt>
<pdfrwt beam="1">  1        2 0.44533136E+00 0.60708967E+04</pdfrwt>
<pdfrwt beam="2">  1       -2 0.48970631E+00 0.60708967E+04</pdfrwt>
<totfact> 0.20925155E-03</totfact>
</mgrwt>
<rwgt>
<wgt id='morphing_basis_vector_1'> +1.6649480e-06 </wgt>
<wgt id='morphing_basis_vector_2'> +1.1577953e-06 </wgt>
<wgt id='morphing_basis_vector_3'> +1.8436323e-06 </wgt>
<wgt id='morphing_basis_vector_4'> +1.2978041e-06 </wgt>
<wgt id='morphing_basis_vector_5'> +2.1061677e-06 </wgt>
</rwgt>
</event>
<event>
 4      1 +9.0096000e-12 5.57405300e+03 7.81860800e-03 7.31079900e-02
        2 -1    0    0  501    0 +0.0000000000e+00 +0.0000000000e+00 +3.7224751754e+03 3.7224751754e+03 0.0000000000e+00 0.0000e+00 1.0000e+00
       -2 -1    0    0    0  501 -0.0000000000e+00 -0.0000000000e+00 -2.0866537105e+03 2.0866537105e+03 0.0000000000e+00 0.0000e+00 -1.0000e+00
      -13  1    1    2    0    0 -2.9964484055e+02 -7.9362316836e+02 +3.5846582998e+03 3.6836666366e+03 0.0000000000e+00 0.0000e+00 1.0000e+00
       13  1    1    2    0    0 +2.9964484055e+02 +7.9362316836e+02 -1.9488368349e+03 2.1254622492e+03 0.0000000000e+00 0.0000e+00 -1.0000e+00
<mgrwt>
<rscale>  0 0.55740530E+04</rscale>
<asrwt>0</asrwt>
<pdfrwt beam="1">  1        2 0.57268849E+00 0.55740530E+04</pdfrwt>
<pdfrwt beam="2">  1       -2 0.32102365E+00 0.55740530E+04</pdfrwt>
<totfact> 0.77992021E-03</totfact>
</mgrwt>
<rwgt>
<wgt id='morphing_basis_vector_1'> +1.6101417e-06 </wgt>
<wgt id='morphing_basis_vector_2'> +2.0734741e-06 </wgt>
<wgt id='morphing_basis_vector_3'> +2.0041906e-06 </wgt>
<wgt id='morphing_basis_vector_4'> +1.1806187e-08 </wgt>
<wgt id='morphing_basis_vector_5'> +1.4191789e-06 </wgt>
</rwgt>
</event>
<event>
 4      1 +9.0096000e-12 6.32227900e+03 7.81860800e-03 7.22725200e-02
        2 -1    0    0  501    0 +0.0000000000e+00 +0.0000000000e+00 +4.3877335949e+03 4.3877335949e+03 0.0000000000e+00 0.0000e+00 -1.0000e+00
       -2 -1    0    0    0  501 -0.0000000000e+00 -0.0000000000e+00 -2.2774407932e+03 2.2774407932e+03 0.0000000000e+00 0.0000e+00 1.0000e+00
      -13  1    1    2    0    0 +3.7400355710e+02 +2.2064485209e+03 -1.2985425711e+03 2.5873744501e+03 0.0000000000e+00 0.0000e+00 1.0000e+00
       13  1    1    2    0    0 -3.7400355710e+02 -2.2064485209e+03 +3.4088353727e+03 4.0777999380e+03 0.0000000000e+00 0.0000e+00 -1.0000e+00
<mgrwt>
<rscale>  0 0.63222792E+04</rscale>
<asrwt>0</asrwt>
<pdfrwt beam="1">  1        2 0.67503594E+00 0.63222792E+04</pdfrwt>
<pdfrwt beam="2">  1       -2 0.35037551E+00 0.63222792E+04</pdfrwt>
<totfact> 0.12395595E-03</totfact>
</mgrwt>
<rwgt>
<wgt id='morphing_basis_vector_1'> +1.9465488e-06 </wgt>
<wgt id='morphing_basis_vector_2'> +1.3290569e-06 </wgt>
<wgt id='morphing_basis_vector_3'> +2.1503219e-06 </wgt>
<wgt id='morphing_basis_vector_4'> +1.5507319e-06 </wgt>
<wgt id='morphing_basis_vector_5'> +2.4801141e-06 </wgt>
</rwgt>
</event>
<event>
 4      1 +9.0096000e-12 5.86163500e+03 7.81860800e-03 7.27719000e-02
        2 -1    0    0  501    0 +0.0000000000e+00 +0.0000000000e+00 +3.7387871056e+03 3.7387871056e+03 0.0000000000e+00 0.0000e+00 -1.0000e+00
       -2 -1    0    0    0  501 -0.0000000000e+00 -0.0000000000e+00 -2.2974541128e+03 2.2974541128e+03 0.0000000000e+00 0.0000e+00 1.0000e+00
      -13  1    1    2    0    0 +8.9326604501e+02 +2.3124249202e+03 -8.8938267855e+02 2.6336732500e+03 0.0000000000e+00 0.0000e+00 1.0000e+00
       13  1    1    2    0    0 -8.9326604501e+02 -2.3124249202e+03 +2.3307156714e+03 3.4025679684e+03 0.0000000000e+00 0.0000e+00 -1.0000e+00
<mgrwt>
<rscale>  0 0.58616352E+04</rscale>
<asrwt>0</asrwt>
<pdfrwt beam="1">  1        2 0.57519802E+00 0.58616352E+04</pdfrwt>
<pdfrwt beam="2">  1       -2 0.35345448E+00 0.58616352E+04</pdfrwt>
<totfact> 0.45443361E-03</totfact>
</mgrwt>
<rwgt>
<wgt id='morphing_basis_vector_1'> +1.4429031e-06 </wgt>
<wgt id='morphing_basis_vector_2'> +9.9299799e-07 </wgt>
<wgt id='morphing_basis_vector_3'> +1.5948730e-06 </wgt>
<wgt id='morphing_basis_vector_4'> +1.1372965e-06 </wgt>
<wgt id='morphing_basis_vector_5'> +1.8306929e-06 </wgt>
</rwgt>
</event>
<event>
 4      1 +9.0096000e-12 5.73961800e+03 7.81860800e-03 7.29120400e-02
        2 -1    0    0  501    0 +0.0000000000e+00 +0.0000000000e+00 +4.6440109921e+03 4.6440109921e+03 0.0000000000e+00 0.0000e+00 -1.0000e+00
       -2 -1    0    0    0  501 -0.0000000000e+00 -0.0000000000e+00 -1.7734246670e+03 1.7734246670e+03 0.0000000000e+00 0.0000e+00 1.0000e+00
      -13  1    1    2    0    0 -1.1379762150e+03 -2.1282011194e+03 -3.0102301583e+02 2.4320453793e+03 0.0000000000e+00 0.0000e+00 1.0000e+00
       13  1    1    2    0    0 +1.1379762150e+03 +2.1282011194e+03 +3.1716093409e+03 3.9853902798e+03 0.0000000000e+00 0.0000e+00 -1.0000e+00
<mgrwt>
<rscale>  0 0.57396180E+04</rscale>
<asrwt>0</asrwt>
<pdfrwt beam="1">  1        2 0.71446323E+00 0.57396180E+04</pdfrwt>
<pdfrwt beam="2">  1       -2 0.27283457E+00 0.57396180E+04</pdfrwt>
<totfact> 0.23014813E-03</totfact>
</mgrwt>
<rwgt>
<wgt id='morphing_basis_vector_1'> +1.3265253e-06 </wgt>
<wgt id='morphing_basis_vector_2'> +9.1233053e-07 </wgt>
<wgt id='morphing_basis_vector_3'> +1.4658441e-06 </wgt>
<wgt id='morphing_basis_vector_4'> +1.0457556e-06 </wgt>
<wgt id='morphing_basis_vector_5'> +1.6826583e-06 </wgt>
</rwgt>
</event>
<event>
 4      1 +9.0096000e-12 6.53666300e+03 7.81860800e-03 7.20546300e-02
        2 -1    0    0  501    0 +0.0000000000e+00 +0.0000000000e+00 +3.5670899460e+03 3.5670899460e+03 0.0000000000e+00 0.0000e+00 -1.0000e+00
       -2 -1    0    0    0  501 -0.0000000000e+00 -0.0000000000e+00 -2.9945952411e+03 2.9945952411e+03 0.0000000000e+00 0.0000e+00 1.0000e+00
      -13  1    1    2    0    0 -5.4675282764e+02 +2.4307360895e+03 -1.8371689435e+03 3.0955785110e+03 0.0000000000e+00 0.0000e+00 1.0000e+00
       13  1    1    2    0    0 +5.4675282764e+02 -2.4307360895e+03 +2.4096636484e+03 3.4661066760e+03 0.0000000000e+00 0.0000e+00 -1.0000e+00
<mgrwt>
<rscale>  0 0.65366629E+04</rscale>
<asrwt>0</asrwt>
<pdfrwt beam="1">  1        2 0.54878306E+00 0.65366629E+04</pdfrwt>
<pdfrwt beam="2">  1       -2 0.46070696E+00 0.65366629E+04</pdfrwt>
<totfact> 0.11368240E-03</totfact>
</mgrwt>
<rwgt>
<wgt id='morphing_basis_vector_1'> +2.2251795e-06 </wgt>
<wgt id='morphing_basis_vector_2'> +1.5228353e-06 </wgt>
<wgt id='morphing_basis_vector_3'> +2.4595105e-06 </wgt>
<wgt id='morphing_basis_vector_4'> +1.7693222e-06 </wgt>
<wgt id='morphing_basis_vector_5'> +2.8344704e-06 </wgt>
</rwgt>
</event>
<event>
 4      1 +9.0096000e-12 5.56134800e+03 7.81860800e-03 7.31233100e-02
        2 -1    0    0  501    0 +0.0000000000e+00 +0.0000000000e+00 +2.8717491424e+03 2.8717491424e+03 0.0000000000e+00 0.0000e+00 1.0000e+00
       -2 -1    0    0    0  501 -0.0000000000e+00 -0.0000000000e+00 -2.6924870777e+03 2.6924870777e+03 0.0000000000e+00 0.0000e+00 -1.0000e+00
      -13  1    1    2    0    0 +6.3135391534e+02 -9.4366057535e+02 -2.4500025532e+03 2.7002991609e+03 0.0000000000e+00 0.0000e+00 -1.0000e+00
       13  1    1    2    0    0 -6.3135391534e+02 +9.4366057535e+02 +2.6292646179e+03 2.8639370592e+03 0.0000000000e+00 0.0000e+00 1.0000e+00
<mgrwt>
<rscale>  0 0.55613478E+04</rscale>
<asrwt>0</asrwt>
<pdfrwt beam="1">  1        2 0.44180756E+00 0.55613478E+04</pdfrwt>
<pdfrwt beam="2">  1       -2 0.41422878E+00 0.55613478E+04</pdfrwt>
<totfact> 0.76171151E-03</totfact>
</mgrwt>
<rwgt>
<wgt id='morphing_basis_vector_1'> +1.1655370e-06 </wgt>
<wgt id='morphing_basis_vector_2'> +7.9227370e-07 </wgt>
<wgt id='morphing_basis_vector_3'> +1.2854108e-06 </wgt>
<wgt id='morphing_basis_vector_4'> +9.3020164e-07 </wgt>
<wgt id='morphing_basis_vector_5'> +1.4834156e-06 </wgt>
</rwgt>
</event>
<event>
 4      1 +9.0096000e-12 5.65639500e+03 7.81860800e-03 7.30096800e-02
        2 -1    0    0  501    0 +0.0000000000e+00 +0.0000000000e+00 +2.9832714774e+03 2.9832714774e+03 0.0000000000e+00 0.0000e+00 -1.0000e+00
       -2 -1    0    0    0  501 -0.0000000000e+00 -0.0000000000e+00 -2.6811844647e+03 2.6811844647e+03 0.0000000000e+00 0.0000e+00 1.0000e+00
      -13  1    1    2    0    0 -1.9229899478e+03 -1.3310509672e+03 -1.4415417314e+03 2.7472949569e+03 0.0000000000e+00 0.0000e+00 1.0000e+00
       13  1    1    2    0    0 +1.9229899478e+03 +1.3310509672e+03 +1.7436287441e+03 2.9171609853e+03 0.0000000000e+00 0.0000e+00 -1.0000e+00
<mgrwt>
<rscale>  0 0.56563950E+04</rscale>
<asrwt>0</asrwt>
<pdfrwt beam="1">  1        2 0.45896484E+00 0.56563950E+04</pdfrwt>
<pdfrwt beam="2">  1       -2 0.41248992E+00 0.56563950E+04</pdfrwt>
<totfact> 0.65837185E-03</totfact>
</mgrwt>
<rwgt>
<wgt id='morphing_basis_vector_1'> +1.2509216e-06 </wgt>
<wgt id='morphing_basis_vector_2'> +8.5911335e-07 </wgt>
<wgt id='morphing_basis_vector_3'> +1.3818395e-06 </wgt>
<wgt id='morphing_basis_vector_4'> +9.8735946e-07 </wgt>
<wgt id='morphing_basis_vector_5'> +1.5870333e-06 </wgt>
</rwgt>
</event>
<event>
 4      1 +9.0096000e-12 5.93415900e+03 7.81860800e-03 7.26902400e-02
        2 -1    0    0  501    0 +0.0000000000e+00 +0.0000000000e+00 +3.2484379799e+03 3.2484379799e+03 0.0000000000e+00 0.0000e+00 -1.0000e+00
       -2 -1    0    0    0  501 -0.0000000000e+00 -0.0000000000e+00 -2.7100908815e+03 2.7100908815e+03 0.0000000000e+00 0.0000e+00 1.0000e+00
      -13  1    1    2    0    0 -1.9337167992e+03 -6.6770788530e+02 -1.8887138960e+03 2.7843014672e+03 0.0000000000e+00 0.0000e+00 1.0000e+00
       13  1    1    2    0    0 +1.9337167992e+03 +6.6770788530e+02 +2.4270609944e+03 3.1742273942e+03 0.0000000000e+00 0.0000e+00 -1.0000e+00
<mgrwt>
<rscale>  0 0.59341595E+04</rscale>
<asrwt>0</asrwt>
<pdfrwt beam="1">  1        2 0.49975969E+00 0.59341595E+04</pdfrwt>
<pdfrwt beam="2">  1       -2 0.41693706E+00 0.59341595E+04</pdfrwt>
<totfact> 0.40070048E-03</totfact>
</mgrwt>
<rwgt>
<wgt id='morphing_basis_vector_1'> +1.5113920e-06 </wgt>
<wgt id='morphing_basis_vector_2'> +1.0310324e-06 </wgt>
<wgt id='morphing_basis_vector_3'> +1.6686086e-06 </wgt>
<wgt id='morphing_basis_vector_4'> +1.2034955e-06 </wgt>
<wgt id='morphing_basis_vector_5'> +1.9239401e-06 </wgt>
</rwgt>
</event>
<event>
 4      1 +9.0096000e-12 6.05946100e+03 7.81860800e-03 7.25519200e-02
        2 -1    0    0  501    0 +0.0000000000e+00 +0.0000000000e+00 +3.5347206942e+03 3.5347206942e+03 0.0000000000e+00 0.0000e+00 -1.0000e+00
       -2 -1    0    0    0  501 -0.0000000000e+00 -0.0000000000e+00 -2.5968863645e+03 2.5968863645e+03 0.0000000000e+00 0.0000e+00 1.0000e+00
      -13  1    1    2    0    0 +2.9754340159e+03 -5.6774513886e+02 +5.3068364027e+02 3.0752507625e+03 0.0000000000e+00 0.0000e+00 1.0000e+00
       13  1    1    2    0    0 -2.9754340159e+03 +5.6774513886e+02 +4.0715068943e+02 3.0563562963e+03 0.0000000000e+00 0.0000e+00 -1.0000e+00
<mgrwt>
<rscale>  0 0.60594614E+04</rscale>
<asrwt>0</asrwt>
<pdfrwt beam="1">  1        2 0.54380318E+00 0.60594614E+04</pdfrwt>
<pdfrwt beam="2">  1       -2 0.39952098E+00 0.60594614E+04</pdfrwt>
<totfact> 0.32300148E-03</totfact>
</mgrwt>
<rwgt>
<wgt id='morphing_basis_vector_1'> +1.7060836e-06 </wgt>
<wgt id='morphing_basis_vector_2'> +1.3064767e-06 </wgt>
<wgt id='morphing_basis_vector_3'> +1.9173539e-06 </wgt>
<wgt id='morphing_basis_vector_4'> +1.1733187e-06 </wgt>
<wgt id='morphing_basis_vector_5'> +2.0806593e-06 </wgt>
</rwgt>
</event>
<event>
 4      1 +9.0096000e-12 5.61344400e+03 7.81860800e-03 7.30607500e-02
        2 -1    0    0  501    0 +0.0000000000e+00 +0.0000000000e+00 +3.8949513896e+03 3.8949513896e+03 0.0000000000e+00 0.0000e+00 -1.0000e+00
       -2 -1    0    0    0  501 -0.0000000000e+00 -0.0000000000e+00 -2.0225385853e+03 2.0225385853e+03 0.0000000000e+00 0.0000e+00 1.0000e+00
      -13  1    1    2    0    0 +5.6096654916e+02 -2.2393165769e+03 -7.4665223775e+02 2.4262546785e+03 0.0000000000e+00 0.0000e+00 1.0000e+00
       13  1    1    2    0    0 -5.6096654916e+02 +2.2393165769e+03 +2.6190650420e+03 3.4912352964e+03 0.0000000000e+00 0.0000e+00 -1.0000e+00
<mgrwt>
<rscale>  0 0.56134444E+04</rscale>
<asrwt>0</asrwt>
<pdfrwt beam="1">  1        2 0.59922329E+00 0.56134444E+04</pdfrwt>
<pdfrwt beam="2">  1       -2 0.31115978E+00 0.56134444E+04</pdfrwt>
<totfact> 0.65793825E-03</totfact>
</mgrwt>
<rwgt>
<wgt id='morphing_basis_vector_1'> +1.2133111e-06 </wgt>
<wgt id='morphing_basis_vector_2'> +8.3292350e-07 </wgt>
<wgt id='morphing_basis_vector_3'> +1.3401182e-06 </wgt>
<wgt id='morphing_basis_vector_4'> +9.5794316e-07 </wgt>
<wgt id='morphing_basis_vector_5'> +1.5392849e-06 </wgt>
</rwgt>
</event>
<event>
 4      1 +9.0096000e-12 6.29818300e+03 7.81860800e-03 7.22975600e-02
        2 -1    0    0  501    0 +0.0000000000e+00 +0.0000000000e+00 +2.9520503554e+03 2.9520503554e+03 0.0000000000e+00 0.0000e+00 -1.0000e+00
       -2 -1    0    0    0  501 -0.0000000000e+00 -0.0000000000e+00 -3.3592841646e+03 3.3592841646e+03 0.0000000000e+00 0.0000e+00 1.0000e+00
      -13  1    1    2    0    0 +1.9915014177e+03 -1.2233378124e+03 -2.3185080356e+03 3.2921289178e+03 0.0000000000e+00 0.0000e+00 1.0000e+00
       13  1    1    2    0    0 -1.9915014177e+03 +1.2233378124e+03 +1.9112742265e+03 3.0192056023e+03 0.0000000000e+00 0.0000e+00 -1.0000e+00
<mgrwt>
<rscale>  0 0.62981826E+04</rscale>
<asrwt>0</asrwt>
<pdfrwt beam="1">  1        2 0.45416159E+00 0.62981826E+04</pdfrwt>
<pdfrwt beam="2">  1       -2 0.51681295E+00 0.62981826E+04</pdfrwt>
<totfact> 0.11844380E-03</totfact>
</mgrwt>
<rwgt>
<wgt id='morphing_basis_vector_1'> +1.9178295e-06 </wgt>
<wgt id='morphing_basis_vector_2'> +1.3110604e-06 </wgt>
<wgt id='morphing_basis_vector_3'> +2.1189190e-06 </wgt>
<wgt id='morphing_basis_vector_4'> +1.5256231e-06 </wgt>
<wgt id='morphing_basis_vector_5'> +2.4423140e-06 </wgt>
</rwgt>
</event>
<event>
 4      1 +9.0096000e-12 6.17294100e+03 7.81860800e-03 7.24295500e-02
        2 -1    0    0  501    0 +0.0000000000e+00 +0.0000000000e+00 +4.1085033011e+03 4.1085033011e+03 0.0000000000e+00 0.0000e+00 -1.0000e+00
       -2 -1    0    0    0  501 -0.0000000000e+00 -0.0000000000e+00 -2.3186791111e+03 2.3186791111e+03 0.0000000000e+00 0.0000e+00 1.0000e+00
      -13  1    1    2    0    0 +1.0253295305e+03 -2.8022924895e+03 +1.7161679145e+03 3.4422922819e+03 0.0000000000e+00 0.0000e+00 1.0000e+00
       13  1    1    2    0    0 -1.0253295305e+03 +2.8022924895e+03 +7.3656275504e+01 2.9848901303e+03 0.0000000000e+00 0.0000e+00 -1.0000e+00
<mgrwt>
<rscale>  0 0.61729412E+04</rscale>
<asrwt>0</asrwt>
<pdfrwt beam="1">  1        2 0.63207743E+00 0.61729412E+04</pdfrwt>
<pdfrwt beam="2">  1       -2 0.35671986E+00 0.61729412E+04</pdfrwt>
<totfact> 0.20814013E-03</totfact>
</mgrwt>
<rwgt>
<wgt id='morphing_basis_vector_1'> +1.9237406e-06 </wgt>
<wgt id='morphing_basis_vector_2'> +1.6609394e-06 </wgt>
<wgt id='morphing_basis_vector_3'> +2.2064654e-06 </wgt>
<wgt id='morphing_basis_vector_4'> +1.0787420e-06 </wgt>
<wgt id='morphing_basis_vector_5'> +2.2257243e-06 </wgt>
</rwgt>
</event>
<event>
 4      1 +9.0096000e-12 6.02051500e+03 7.81860800e-03 7.25945400e-02
        2 -1    0    0  501    0 +0.0000000000e+00 +0.0000000000e+00 +3.0084487710e+03 3.0084487710e+03 0.0000000000e+00 0.0000e+00 1.0000e+00
       -2 -1    0    0    0  501 -0.0000000000e+00 -0.0000000000e+00 -3.0120677386e+03 3.0120677386e+03 0.0000000000e+00 0.0000e+00 -1.0000e+00
      -13  1    1    2    0    0 +1.9632575439e+03 -2.0204010155e+03 -1.0625881816e+03 3.0108958951e+03 0.0000000000e+00 0.0000e+00 -1.0000e+00
       13  1    1    2    0    0 -1.9632575439e+03 +2.0204010155e+03 +1.0589692140e+03 3.0096206145e+03 0.0000000000e+00 0.0000e+00 1.0000e+00
<mgrwt>
<rscale>  0 0.60205154E+04</rscale>
<asrwt>0</asrwt>
<pdfrwt beam="1">  1        2 0.46283827E+00 0.60205154E+04</pdfrwt>
<pdfrwt beam="2">  1       -2 0.46339504E+00 0.60205154E+04</pdfrwt>
<totfact> 0.27678673E-03</totfact>
</mgrwt>
<rwgt>
<wgt id='morphing_basis_vector_1'> +1.6140521e-06 </wgt>
<wgt id='morphing_basis_vector_2'> +1.1303439e-06 </wgt>
<wgt id='morphing_basis_vector_3'> +1.7890218e-06 </wgt>
<wgt id='morphing_basis_vector_4'> +1.2475360e-06 </wgt>
<wgt id='morphing_basis_vector_5'> +2.0363295e-06 </wgt>
</rwgt>
</event>
<event>
 4      1 +9.0096000e-12 5.58874700e+03 7.81860800e-03 7.30903200e-02
        2 -1    0    0  501    0 +0.0000000000e+00 +0.0000000000e+00 +3.1179408838e+03 3.1179408838e+03 0.0000000000e+00 0.0000e+00 -1.0000e+00
       -2 -1    0    0    0  501 -0.0000000000e+00 -0.0000000000e+00 -2.5043844583e+03 2.5043844583e+03 0.0000000000e+00 0.0000e+00 1.0000e+00
      -13  1    1    2    0    0 +1.5089220875e+03 +2.3163812490e+03 -1.0316827510e+02 2.7664257897e+03 0.0000000000e+00 0.0000e+00 1.0000e+00
       13  1    1    2    0    0 -1.5089220875e+03 -2.3163812490e+03 +7.1672470064e+02 2.8558995524e+03 0.0000000000e+00 0.0000e+00 -1.0000e+00
<mgrwt>
<rscale>  0 0.55887468E+04</rscale>
<asrwt>0</asrwt>
<pdfrwt beam="1">  1        2 0.47968321E+00 0.55887468E+04</pdfrwt>
<pdfrwt beam="2">  1       -2 0.38528992E+00 0.55887468E+04</pdfrwt>
<totfact> 0.81204950E-03</totfact>
</mgrwt>
<rwgt>
<wgt id='morphing_basis_vector_1'> +1.2139516e-06 </wgt>
<wgt id='morphing_basis_vector_2'> +8.8236851e-07 </wgt>
<wgt id='morphing_basis_vector_3'> +1.3522088e-06 </wgt>
<wgt id='morphing_basis_vector_4'> +8.9458978e-07 </wgt>
<wgt id='morphing_basis_vector_5'> +1.5083940e-06 </wgt>
</rwgt>
</event>
<event>
 4      1 +9.0096000e-12 5.89827000e+03 7.81860800e-03 7.27305000e-02
        2 -1    0    0  501    0 +0.0000000000e+00 +0.0000000000e+00 +3.9389645628e+03 3.9389645628e+03 0.0000000000e+00 0.0000e+00 -1.0000e+00
       -2 -1    0    0    0  501 -0.0000000000e+00 -0.0000000000e+00 -2.2080418517e+03 2.2080418517e+03 0.0000000000e+00 0.0000e+00 1.0000e+00
      -13  1    1    2    0    0 +7.0062066266e+02 +2.7355041413e+03 +1.7519479509e+03 3.3231271180e+03 0.0000000000e+00 0.0000e+00 1.0000e+00
       13  1    1    2    0    0 -7.0062066266e+02 -2.7355041413e+03 -2.1025239779e+01 2.8238792964e+03 0.0000000000e+00 0.0000e+00 -1.0000e+00
<mgrwt>
<rscale>  0 0.58982705E+04</rscale>
<asrwt>0</asrwt>
<pdfrwt beam="1">  1        2 0.60599455E+00 0.58982705E+04</pdfrwt>
<pdfrwt beam="2">  1       -2 0.33969875E+00 0.58982705E+04</pdfrwt>
<totfact> 0.38332062E-03</totfact>
</mgrwt>
<rwgt>
<wgt id='morphing_basis_vector_1'> +1.6188047e-06 </wgt>
<wgt id='morphing_basis_vector_2'> +1.4277332e-06 </wgt>
<wgt id='morphing_basis_vector_3'> +1.8629115e-06 </wgt>
<wgt id='morphing_basis_vector_4'> +8.6758035e-07 </wgt>
<wgt id='morphing_basis_vector_5'> +1.8518989e-06 </wgt>
</rwgt>
</event>
<event>
 4      1 +9.0096000e-12 5.87723500e+03 7.81860800e-03 7.27542400e-02
        2 -1    0    0  501    0 +0.0000000000e+00 +0.0000000000e+00 +3.6598289323e+03 3.6598289323e+03 0.0000000000e+00 0.0000e+00 1.0000e+00
       -2 -1    0    0    0  501 -0.0000000000e+00 -0.0000000000e+00 -2.3595292291e+03 2.3595292291e+03 0.0000000000e+00 0.0000e+00 -1.0000e+00
      -13  1    1    2    0    0 +2.5041468746e+03 +1.3576115525e+03 +1.3898422746e+03 3.1694671864e+03 0.0000000000e+00 0.0000e+00 -1.0000e+00
       13  1    1    2    0    0 -2.5041468746e+03 -1.3576115525e+03 -8.9542571411e+01 2.8498909750e+03 0.0000000000e+00 0.0000e+00 1.0000e+00
<mgrwt>
<rscale>  0 0.58772352E+04</rscale>
<asrwt>0</asrwt>
<pdfrwt beam="1">  1        2 0.56305060E+00 0.58772352E+04</pdfrwt>
<pdfrwt beam="2">  1       -2 0.36300450E+00 0.58772352E+04</pdfrwt>
<totfact> 0.45362582E-03</totfact>
</mgrwt>
<rwgt>
<wgt id='morphing_basis_vector_1'> +1.5774240e-06 </wgt>
<wgt id='morphing_basis_vector_2'> +1.3533043e-06 </wgt>
<wgt id='morphing_basis_vector_3'> +1.8063325e-06 </wgt>
<wgt id='morphing_basis_vector_4'> +8.9472758e-07 </wgt>
<wgt id='morphing_basis_vector_5'> +1.8288837e-06 </wgt>
</rwgt>
</event>
<event>
 4      1 +9.0096000e-12 5.69128200e+03 7.81860800e-03 7.29685400e-02
        2 -1    0    0  501    0 +0.0000000000e+00 +0.0000000000e+00 +3.8333216969e+03 3.8333216969e+03 0.0000000000e+00 0.0000e+00 -1.0000e+00
       -2 -1    0    0    0  501 -0.0000000000e+00 -0.0000000000e+00 -2.1124430438e+03 2.1124430438e+03 0.0000000000e+00 0.0000e+00 1.0000e+00
      -13  1    1    2    0    0 -2.6567438262e+03 +2.3873437364e+02 -1.7503652002e+02 2.6731852989e+03 0.0000000000e+00 0.0000e+00 1.0000e+00
       13  1    1    2    0    0 +2.6567438262e+03 -2.3873437364e+02 +1.8959151732e+03 3.2725794418e+03 0.0000000000e+00 0.0000e+00 -1.0000e+00
<mgrwt>
<rscale>  0 0.56912824E+04</rscale>
<asrwt>0</asrwt>
<pdfrwt beam="1">  1        2 0.58974180E+00 0.56912824E+04</pdfrwt>
<pdfrwt beam="2">  1       -2 0.32499124E+00 0.56912824E+04</pdfrwt>
<totfact> 0.59415559E-03</totfact>
</mgrwt>
<rwgt>
<wgt id='morphing_basis_vector_1'> +1.2898215e-06 </wgt>
<wgt id='morphing_basis_vector_2'> +9.0347497e-07 </wgt>
<wgt id='morphing_basis_vector_3'> +1.4290114e-06 </wgt>
<wgt id='morphing_basis_vector_4'> +9.9526758e-07 </wgt>
<wgt id='morphing_basis_vector_5'> +1.6252426e-06 </wgt>
</rwgt>
</event>
<event>
 4      1 +9.0096000e-12 5.60704500e+03 7.81860800e-03 7.30683900e-02
        2 -1    0    0  501    0 +0.0000000000e+00 +0.0000000000e+00 +4.6087307456e+03 4.6087307456e+03 0.0000000000e+00 0.0000e+00 1.0000e+00
       -2 -1    0    0    0  501 -0.0000000000e+00 -0.0000000000e+00 -1.7054018169e+03 1.7054018169e+03 0.0000000000e+00 0.0000e+00 -1.0000e+00
      -13  1    1    2    0    0 -3.0597170480e+02 +2.3121675585e+03 -3.0014706208e+02 2.3515581561e+03 0.0000000000e+00 0.0000e+00 -1.0000e+00
       13  1    1    2    0    0 +3.0597170480e+02 -2.3121675585e+03 +3.2034759908e+03 3.9625744064e+03 0.0000000000e+00 0.0000e+00 1.0000e+00
<mgrwt>
<rscale>  0 0.56070448E+04</rscale>
<asrwt>0</asrwt>
<pdfrwt beam="1">  1        2 0.70903549E+00 0.56070448E+04</pdfrwt>
<pdfrwt beam="2">  1       -2 0.26236951E+00 0.56070448E+04</pdfrwt>
<totfact> 0.29973906E-03</totfact>
</mgrwt>
<rwgt>
<wgt id='morphing_basis_vector_1'> +1.2081111e-06 </wgt>
<wgt id='morphing_basis_vector_2'> +8.3004308e-07 </wgt>
<wgt id='morphing_basis_vector_3'> +1.3345220e-06 </wgt>
<wgt id='morphing_basis_vector_4'> +9.5291116e-07 </wgt>
<wgt id='morphing_basis_vector_5'> +1.5322044e-06 </wgt>
</rwgt>
</event>
<event>
 4      1 +9.0096000e-12 6.01440000e+03 7.81860800e-03 7.26012700e-02
        2 -1    0    0  501    0 +0.0000000000e+00 +0.0000000000e+00 +3.7287988246e+03 3.7287988246e+03 0.0000000000e+00 0.0000e+00 1.0000e+00
       -2 -1    0    0    0  501 -0.0000000000e+00 -0.0000000000e+00 -2.4252454674e+03 2.4252454674e+03 0.0000000000e+00 0.0000e+00 -1.0000e+00
      -13  1    1    2    0    0 +2.8311451360e+02 -1.8962338036e+03 -1.7187787422e+03 2.5748896734e+03 0.0000000000e+00 0.0000e+00 -1.0000e+00
       13  1    1    2    0    0 -2.8311451360e+02 +1.8962338036e+03 +3.0223320994e+03 3.5791546187e+03 0.0000000000e+00 0.0000e+00 1.0000e+00
<mgrwt>
<rscale>  0 0.60144002E+04</rscale>
<asrwt>0</asrwt>
<pdfrwt beam="1">  1        2 0.57366136E+00 0.60144002E+04</pdfrwt>
<pdfrwt beam="2">  1       -2 0.37311469E+00 0.60144002E+04</pdfrwt>
<totfact> 0.34186888E-03</totfact>
</mgrwt>
<rwgt>
<wgt id='morphing_basis_vector_1'> +1.5940479e-06 </wgt>
<wgt id='morphing_basis_vector_2'> +1.0862225e-06 </wgt>
<wgt id='morphing_basis_vector_3'> +1.7597669e-06 </wgt>
<wgt id='morphing_basis_vector_4'> +1.2712824e-06 </wgt>
<wgt id='morphing_basis_vector_5'> +2.0304747e-06 </wgt>
</rwgt>
</event>
<event>
 4      1 +9.0096000e-12 5.59218100e+03 7.81860800e-03 7.30862000e-02
        2 -1    0    0  501    0 +0.0000000000e+00 +0.0000000000e+00 +2.8403369686e+03 2.8403369686e+03 0.0000000000e+00 0.0000e+00 -1.0000e+00
       -2 -1    0    0    0  501 -0.0000000000e+00 -0.0000000000e+00 -2.7525334929e+03 2.7525334929e+03 0.0000000000e+00 0.0000e+00 1.0000e+00
      -13  1    1    2    0    0 -1.4093698499e+03 -4.1493768142e+02 -2.3353883292e+03 2.7590823296e+03 0.0000000000e+00 0.0000e+00 1.0000e+00
       13  1    1    2    0    0 +1.4093698499e+03 +4.1493768142e+02 +2.4231918050e+03 2.8337881320e+03 0.0000000000e+00 0.0000e+00 -1.0000e+00
<mgrwt>
<rscale>  0 0.55921812E+04</rscale>
<asrwt>0</asrwt>
<pdfrwt beam="1">  1        2 0.43697492E+00 0.55921812E+04</pdfrwt>
<pdfrwt beam="2">  1       -2 0.42346669E+00 0.55921812E+04</pdfrwt>
<totfact> 0.69088983E-03</totfact>
</mgrwt>
<rwgt>
<wgt id='morphing_basis_vector_1'> +1.1917461e-06 </wgt>
<wgt id='morphing_basis_vector_2'> +8.1060319e-07 </wgt>
<wgt id='morphing_basis_vector_3'> +1.3145004e-06 </wgt>
<wgt id='morphing_basis_vector_4'> +9.5059588e-07 </wgt>
<wgt id='morphing_basis_vector_5'> +1.5166346e-06 </wgt>
</rwgt>
</event>
<event>
 4      1 +9.0096000e-12 6.11587600e+03 7.81860800e-03 7.24907500e-02
        2 -1    0    0  501    0 +0.0000000000e+00 +0.0000000000e+00 +3.1727303361e+03 3.1727303361e+03 0.0000000000e+00 0.0000e+00 -1.0000e+00
       -2 -1    0    0    0  501 -0.0000000000e+00 -0.0000000000e+00 -2.9472986834e+03 2.9472986834e+03 0.0000000000e+00 0.0000e+00 1.0000e+00
      -13  1    1    2    0    0 -1.9607150978e+03 -2.0438153158e+02 -2.2265646791e+03 2.9738469657e+03 0.0000000000e+00 0.0000e+00 1.0000e+00
       13  1    1    2    0    0 +1.9607150978e+03 +2.0438153158e+02 +2.4519963317e+03 3.1461820538e+03 0.0000000000e+00 0.0000e+00 -1.0000e+00
<mgrwt>
<rscale>  0 0.61158757E+04</rscale>
<asrwt>0</asrwt>
<pdfrwt beam="1">  1        2 0.48811236E+00 0.61158757E+04</pdfrwt>
<pdfrwt beam="2">  1       -2 0.45343057E+00 0.61158757E+04</pdfrwt>
<totfact> 0.25161019E-03</totfact>
</mgrwt>
<rwgt>
<wgt id='morphing_basis_vector_1'> +1.7041954e-06 </wgt>
<wgt id='morphing_basis_vector_2'> +1.1615414e-06 </wgt>
<wgt id='morphing_basis_vector_3'> +1.8816658e-06 </wgt>
<wgt id='morphing_basis_vector_4'> +1.3593180e-06 </wgt>
<wgt id='morphing_basis_vector_5'> +2.1713157e-06 </wgt>
</rwgt>
</event>
<event>
 4      1 +9.0096000e-12 6.09039900e+03 7.81860800e-03 7.25182900e-02
        2 -1    0    0  501    0 +0.0000000000e+00 +0.0000000000e+00 +1.7217404806e+03 1.7217404806e+03 0.0000000000e+00 0.0000e+00 1.0000e+00
       -2 -1    0    0    0  501 -0.0000000000e+00 -0.0000000000e+00 -5.3859681521e+03 5.3859681521e+03 0.0000000000e+00 0.0000e+00 -1.0000e+00
      -13  1    1    2    0    0 -2.3960701673e+03 -1.5842422104e+03 -6.5215904200e+02 2.9455537754e+03 0.0000000000e+00 0.0000e+00 -1.0000e+00
       13  1    1    2    0    0 +2.3960701673e+03 +1.5842422104e+03 -3.0120686294e+03 4.1621548573e+03 0.0000000000e+00 0.0000e+00 1.0000e+00
<mgrwt>
<rscale>  0 0.60903988E+04</rscale>
<asrwt>0</asrwt>
<pdfrwt beam="1">  1        2 0.26488316E+00 0.60903988E+04</pdfrwt>
<pdfrwt beam="2">  1       -2 0.82861046E+00 0.60903988E+04</pdfrwt>
<totfact> 0.62234032E-04</totfact>
</mgrwt>
<rwgt>
<wgt id='morphing_basis_vector_1'> +1.8641352e-06 </wgt>
<wgt id='morphing_basis_vector_2'> +1.6944070e-06 </wgt>
<wgt id='morphing_basis_vector_3'> +2.1577718e-06 </wgt>
<wgt id='morphing_basis_vector_4'> +9.3428893e-07 </wgt>
<wgt id='morphing_basis_vector_5'> +2.1014246e-06 </wgt>
</rwgt>
</event>
<event>
 4      1 +9.0096000e-12 5.97022800e+03 7.81860800e-03 7.26500700e-02
        2 -1    0    0  501    0 +0.0000000000e+00 +0.0000000000e+00 +3.0555449393e+03 3.0555449393e+03 0.0000000000e+00 0.0000e+00 1.0000e+00
       -2 -1    0    0    0  501 -0.0000000000e+00 -0.0000000000e+00 -2.9163065443e+03 2.9163065443e+03 0.0000000000e+00 0.0000e+00 -1.0000e+00
      -13  1    1    2    0    0 +1.3808156933e+03 +6.4805982733e+02 -2.4970622223e+03 2.9260815540e+03 0.0000000000e+00 0.0000e+00 -1.0000e+00
       13  1    1    2    0    0 -1.3808156933e+03 -6.4805982733e+02 +2.6363006173e+03 3.0457699296e+03 0.0000000000e+00 0.0000e+00 1.0000e+00
<mgrwt>
<rscale>  0 0.59702280E+04</rscale>
<asrwt>0</asrwt>
<pdfrwt beam="1">  1        2 0.47008383E+00 0.59702280E+04</pdfrwt>
<pdfrwt beam="2">  1       -2 0.44866255E+00 0.59702280E+04</pdfrwt>
<totfact> 0.32886217E-03</totfact>
</mgrwt>
<rwgt>
<wgt id='morphing_basis_vector_1'> +1.5471353e-06 </wgt>
<wgt id='morphing_basis_vector_2'> +1.0526315e-06 </wgt>
<wgt id='morphing_basis_vector_3'> +1.7074985e-06 </wgt>
<wgt id='morphing_basis_vector_4'> +1.2357659e-06 </wgt>
<wgt id='morphing_basis_vector_5'> +1.9714761e-06 </wgt>
</rwgt>
</event>
<event>
 4      1 +9.0096000e-12 6.33204300e+03 7.81860800e-03 7.22624100e-02
        2 -1    0    0  501    0 +0.0000000000e+00 +0.0000000000e+00 +3.7479712747e+03 3.7479712747e+03 0.0000000000e+00 0.0000e+00 -1.0000e+00
       -2 -1    0    0    0  501 -0.0000000000e+00 -0.0000000000e+00 -2.6744310809e+03 2.6744310809e+03 0.0000000000e+00 0.0000e+00 1.0000e+00
      -13  1    1    2    0    0 -1.6953566101e+03 -5.4385661959e+02 -2.1185415031e+03 2.7673511087e+03 0.0000000000e+00 0.0000e+00 1.0000e+00
       13  1    1    2    0    0 +1.6953566101e+03 +5.4385661959e+02 +3.1920816969e+03 3.6550512469e+03 0.0000000000e+00 0.0000e+00 -1.0000e+00
<mgrwt>
<rscale>  0 0.63320426E+04</rscale>
<asrwt>0</asrwt>
<pdfrwt beam="1">  1        2 0.57661097E+00 0.63320426E+04</pdfrwt>
<pdfrwt beam="2">  1       -2 0.41145093E+00 0.63320426E+04</pdfrwt>
<totfact> 0.18162866E-03</totfact>
</mgrwt>
<rwgt>
<wgt id='morphing_basis_vector_1'> +1.9569309e-06 </wgt>
<wgt id='morphing_basis_vector_2'> +1.3324511e-06 </wgt>
<wgt id='morphing_basis_vector_3'> +2.1609440e-06 </wgt>
<wgt id='morphing_basis_vector_4'> +1.5638740e-06 </wgt>
<wgt id='morphing_basis_vector_5'> +2.4957966e-06 </wgt>
</rwgt>
</event>
<event>
 4      1 +9.0096000e-12 6.24650700e+03 7.81860800e-03 7.23516400e-02
        2 -1    0    0  501    0 +0.0000000000e+00 +0.0000000000e+00 +3.7873787371e+03 3.7873787371e+03 0.0000000000e+00 0.0000e+00 1.0000e+00
       -2 -1    0    0    0  501 -0.0000000000e+00 -0.0000000000e+00 -2.5755842499e+03 2.5755842499e+03 0.0000000000e+00 0.0000e+00 -1.0000e+00
      -13  1    1    2    0    0 +1.1552727653e+03 +2.8334414378e+03 +1.2433983009e+03 3.3028903825e+03 0.0000000000e+00 0.0000e+00 1.0000e+00
       13  1    1    2    0    0 -1.1552727653e+03 -2.8334414378e+03 -3.1603813787e+01 3.0600726045e+03 0.0000000000e+00 0.0000e+00 -1.0000e+00
<mgrwt>
<rscale>  0 0.62465072E+04</rscale>
<asrwt>0</asrwt>
<pdfrwt beam="1">  1        2 0.58267365E+00 0.62465072E+04</pdfrwt>
<pdfrwt beam="2">  1       -2 0.39624373E+00 0.62465072E+04</pdfrwt>
<totfact> 0.21398536E-03</totfact>
</mgrwt>
<rwgt>
<wgt id='morphing_basis_vector_1'> +1.9895925e-06 </wgt>
<wgt id='morphing_basis_vector_2'> +1.6613055e-06 </wgt>
<wgt id='morphing_basis_vector_3'> +2.2689582e-06 </wgt>
<wgt id='morphing_basis_vector_4'> +1.1896406e-06 </wgt>
<wgt id='morphing_basis_vector_5'> +2.3388770e-06 </wgt>
</rwgt>
</event>
<event>
 4      1 +9.0096000e-12 5.62391700e+03 7.81860800e-03 7.30482500e-02
        2 -1    0    0  501    0 +0.0000000000e+00 +0.0000000000e+00 +2.1783804777e+03 2.1783804777e+03 0.0000000000e+00 0.0000e+00 -1.0000e+00
       -2 -1    0    0    0  501 -0.0000000000e+00 -0.0000000000e+00 -3.6298117630e+03 3.6298117630e+03 0.0000000000e+00 0.0000e+00 1.0000e+00
      -13  1    1    2    0    0 -8.3193149048e+02 -2.6135331119e+03 -8.5362420807e+01 2.7440758143e+03 0.0000000000e+00 0.0000e+00 1.0000e+00
       13  1    1    2    0    0 +8.3193149048e+02 +2.6135331119e+03 -1.3660688645e+03 3.0641164264e+03 0.0000000000e+00 0.0000e+00 -1.0000e+00
<mgrwt>
<rscale>  0 0.56239172E+04</rscale>
<asrwt>0</asrwt>
<pdfrwt beam="1">  1        2 0.33513546E+00 0.56239172E+04</pdfrwt>
<pdfrwt beam="2">  1       -2 0.55843258E+00 0.56239172E+04</pdfrwt>
<totfact> 0.18224110E-03</totfact>
</mgrwt>
<rwgt>
<wgt id='morphing_basis_vector_1'> +1.3147804e-06 </wgt>
<wgt id='morphing_basis_vector_2'> +1.1104430e-06 </wgt>
<wgt id='morphing_basis_vector_3'> +1.5007504e-06 </wgt>
<wgt id='morphing_basis_vector_4'> +7.6769064e-07 </wgt>
<wgt id='morphing_basis_vector_5'> +1.5342436e-06 </wgt>
</rwgt>
</event>
<event>
 4      1 +9.0096000e-12 5.95351600e+03 7.81860800e-03 7.26686500e-02
        2 -1    0    0  501    0 +0.0000000000e+00 +0.0000000000e+00 +3.6329824576e+03 3.6329824576e+03 0.0000000000e+00 0.0000e+00 -1.0000e+00
       -2 -1    0    0    0  501 -0.0000000000e+00 -0.0000000000e+00 -2.4390672737e+03 2.4390672737e+03 0.0000000000e+00 0.0000e+00 1.0000e+00
      -13  1    1    2    0    0 +1.4638590675e+03 -2.5529690147e+03 +1.4020823439e+02 2.9462166432e+03 0.0000000000e+00 0.0000e+00 1.0000e+00
       13  1    1    2    0    0 -1.4638590675e+03 +2.5529690147e+03 +1.0537069496e+03 3.1258330882e+03 0.0000000000e+00 0.0000e+00 -1.0000e+00
<mgrwt>
<rscale>  0 0.59535161E+04</rscale>
<asrwt>0</asrwt>
<pdfrwt beam="1">  1        2 0.55892038E+00 0.59535161E+04</pdfrwt>
<pdfrwt beam="2">  1       -2 0.37524112E+00 0.59535161E+04</pdfrwt>
<totfact> 0.39454175E-03</totfact>
</mgrwt>
<rwgt>
<wgt id='morphing_basis_vector_1'> +1.5617326e-06 </wgt>
<wgt id='morphing_basis_vector_2'> +1.1342694e-06 </wgt>
<wgt id='morphing_basis_vector_3'> +1.7403890e-06 </wgt>
<wgt id='morphing_basis_vector_4'> +1.1539253e-06 </wgt>
<wgt id='morphing_basis_vector_5'> +1.9437240e-06 </wgt>
</rwgt>
</event>
<event>
 4      1 +9.0096000e-12 5.74570900e+03 7.81860800e-03 7.29049600e-02
        2 -1    0    0  501    0 +0.0000000000e+00 +0.0000000000e+00 +2.4006225827e+03 2.4006225827e+03 0.0000000000e+00 0.0000e+00 -1.0000e+00
       -2 -1    0    0    0  501 -0.0000000000e+00 -0.0000000000e+00 -3.4379802720e+03 3.4379802720e+03 0.0000000000e+00 0.0000e+00 1.0000e+00
      -13  1    1    2    0    0 -1.7520941352e+03 +2.1695141663e+03 -1.2202521863e+03 3.0439515395e+03 0.0000000000e+00 0.0000e+00 1.0000e+00
       13  1    1    2    0    0 +1.7520941352e+03 -2.1695141663e+03 +1.8289449697e+02 2.7946513152e+03 0.0000000000e+00 0.0000e+00 -1.0000e+00
<mgrwt>
<rscale>  0 0.57457090E+04</rscale>
<asrwt>0</asrwt>
<pdfrwt beam="1">  1        2 0.36932655E+00 0.57457090E+04</pdfrwt>
<pdfrwt beam="2">  1       -2 0.52892004E+00 0.57457090E+04</pdfrwt>
<totfact> 0.21914901E-03</totfact>
</mgrwt>
<rwgt>
<wgt id='morphing_basis_vector_1'> +1.3469334e-06 </wgt>
<wgt id='morphing_basis_vector_2'> +9.5959871e-07 </wgt>
<wgt id='morphing_basis_vector_3'> +1.4961821e-06 </wgt>
<wgt id='morphing_basis_vector_4'> +1.0186167e-06 </wgt>
<wgt id='morphing_basis_vector_5'> +1.6871739e-06 </wgt>
</rwgt>
</event>
<event>
 4      1 +9.0096000e-12 5.72362700e+03 7.81860800e-03 7.29306700e-02
        2 -1    0    0  501    0 +0.0000000000e+00 +0.0000000000e+00 +1.6116924853e+03 1.6116924853e+03 0.0000000000e+00 0.0000e+00 1.0000e+00
       -2 -1    0    0    0  501 -0.0000000000e+00 -0.0000000000e+00 -5.0815993461e+03 5.0815993461e+03 0.0000000000e+00 0.0000e+00 -1.0000e+00
      -13  1    1    2    0    0 -2.2416870102e+03 +1.6545715206e+03 -2.4992961046e+03 3.7428930772e+03 0.0000000000e+00 0.0000e+00 -1.0000e+00
       13  1    1    2    0    0 +2.2416870102e+03 -1.6545715206e+03 -9.7061075615e+02 2.9503987542e+03 0.0000000000e+00 0.0000e+00 1.0000e+00
<mgrwt>
<rscale>  0 0.57236266E+04</rscale>
<asrwt>0</asrwt>
<pdfrwt beam="1">  1        2 0.24795269E+00 0.57236266E+04</pdfrwt>
<pdfrwt beam="2">  1       -2 0.78178451E+00 0.57236266E+04</pdfrwt>
<totfact> 0.95009750E-04</totfact>
</mgrwt>
<rwgt>
<wgt id='morphing_basis_vector_1'> +1.3273523e-06 </wgt>
<wgt id='morphing_basis_vector_2'> +9.4775198e-07 </wgt>
<wgt id='morphing_basis_vector_3'> +1.4748723e-06 </wgt>
<wgt id='morphing_basis_vector_4'> +1.0009693e-06 </wgt>
<wgt id='morphing_basis_vector_5'> +1.6611528e-06 </wgt>
</rwgt>
</event>
<event>
 4      1 +9.0096000e-12 5.67717500e+03 7.81860800e-03 7.29851400e-02
        2 -1    0    0  501    0 +0.0000000000e+00 +0.0000000000e+00 +4.2966796837e+03 4.2966796837e+03 0.0000000000e+00 0.0000e+00 -1.0000e+00
       -2 -1    0    0    0  501 -0.0000000000e+00 -0.0000000000e+00 -1.8753033338e+03 1.8753033338e+03 0.0000000000e+00 0.0000e+00 1.0000e+00
      -13  1    1    2    0    0 -1.1609027950e+03 -2.2004479523e+03 -2.7514685501e+02 2.5030725683e+03 0.0000000000e+00 0.0000e+00 1.0000e+00
       13  1    1    2    0    0 +1.1609027950e+03 +2.2004479523e+03 +2.6965232049e+03 3.6689104493e+03 0.0000000000e+00 0.0000e+00 -1.0000e+00
<mgrwt>
<rscale>  0 0.56771746E+04</rscale>
<asrwt>0</asrwt>
<pdfrwt beam="1">  1        2 0.66102764E+00 0.56771746E+04</pdfrwt>
<pdfrwt beam="2">  1       -2 0.28850821E+00 0.56771746E+04</pdfrwt>
<totfact> 0.41061536E-03</totfact>
</mgrwt>
<rwgt>
<wgt id='morphing_basis_vector_1'> +1.2715840e-06 </wgt>
<wgt id='morphing_basis_vector_2'> +8.7833130e-07 </wgt>
<wgt id='morphing_basis_vector_3'> +1.4058844e-06 </wgt>
<wgt id='morphing_basis_vector_4'> +9.9722529e-07 </wgt>
<wgt id='morphing_basis_vector_5'> +1.6101412e-06 </wgt>
</rwgt>
</event>
<event>
 4      1 +9.0096000e-12 5.58056100e+03 7.81860800e-03 7.31001600e-02
        2 -1    0    0  501    0 +0.0000000000e+00 +0.0000000000e+00 +3.4023128537e+03 3.4023128537e+03 0.0000000000e+00 0.0000e+00 1.0000e+00
       -2 -1    0    0    0  501 -0.0000000000e+00 -0.0000000000e+00 -2.2883447869e+03 2.2883447869e+03 0.0000000000e+00 0.0000e+00 -1.0000e+00
      -13  1    1    2    0    0 -2.0424885148e+03 +1.2665159809e+03 -8.8867427621e+02 2.5623356595e+03 0.0000000000e+00 0.0000e+00 -1.0000e+00
       13  1    1    2    0    0 +2.0424885148e+03 -1.2665159809e+03 +2.0026423430e+03 3.1283219810e+03 0.0000000000e+00 0.0000e+00 1.0000e+00
<mgrwt>
<rscale>  0 0.55805609E+04</rscale>
<asrwt>0</asrwt>
<pdfrwt beam="1">  1        2 0.52343275E+00 0.55805609E+04</pdfrwt>
<pdfrwt beam="2">  1       -2 0.35205304E+00 0.55805609E+04</pdfrwt>
<totfact> 0.84643687E-03</totfact>
</mgrwt>
<rwgt>
<wgt id='morphing_basis_vector_1'> +1.1866627e-06 </wgt>
<wgt id='morphing_basis_vector_2'> +8.1788342e-07 </wgt>
<wgt id='morphing_basis_vector_3'> +1.3113746e-06 </wgt>
<wgt id='morphing_basis_vector_4'> +9.3252016e-07 </wgt>
<wgt id='morphing_basis_vector_5'> +1.5031808e-06 </wgt>
</rwgt>
</event>
<event>
 4      1 +9.0096000e-12 5.55872200e+03 7.81860800e-03 7.31264800e-02
        2 -1    0    0  501    0 +0.0000000000e+00 +0.0000000000e+00 +2.5558901337e+03 2.5558901337e+03 0.0000000000e+00 0.0000e+00 -1.0000e+00
       -2 -1    0    0    0  501 -0.0000000000e+00 -0.0000000000e+00 -3.0223703628e+03 3.0223703628e+03 0.0000000000e+00 0.0000e+00 1.0000e+00
      -13  1    1    2    0    0 -2.4420902918e+03 +2.8944859886e+02 -1.5328835037e+03 2.8978125061e+03 0.0000000000e+00 0.0000e+00 1.0000e+00
       13  1    1    2    0    0 +2.4420902918e+03 -2.8944859886e+02 +1.0664032746e+03 2.6804479903e+03 0.0000000000e+00 0.0000e+00 -1.0000e+00
<mgrwt>
<rscale>  0 0.55587216E+04</rscale>
<asrwt>0</asrwt>
<pdfrwt beam="1">  1        2 0.39321387E+00 0.55587216E+04</pdfrwt>
<pdfrwt beam="2">  1       -2 0.46498006E+00 0.55587216E+04</pdfrwt>
<totfact> 0.53599382E-03</totfact>
</mgrwt>
<rwgt>
<wgt id='morphing_basis_vector_1'> +1.1694626e-06 </wgt>
<wgt id='morphing_basis_vector_2'> +8.0874584e-07 </wgt>
<wgt id='morphing_basis_vector_3'> +1.2929545e-06 </wgt>
<wgt id='morphing_basis_vector_4'> +9.1536984e-07 </wgt>
<wgt id='morphing_basis_vector_5'> +1.4795103e-06 </wgt>
</rwgt>
</event>
<event>
 4      1 +9.0096000e-12 5.62401400e+03 7.81860800e-03 7.30481400e-02
        2 -1    0    0  501    0 +0.0000000000e+00 +0.0000000000e+00 +4.0317308032e+03 4.0317308032e+03 0.0000000000e+00 0.0000e+00 -1.0000e+00
       -2 -1    0    0    0  501 -0.0000000000e+00 -0.0000000000e+00 -1.9612872021e+03 1.9612872021e+03 0.0000000000e+00 0.0000e+00 1.0000e+00
      -13  1    1    2    0    0 -1.2263585648e+02 +9.9427985287e+02 -1.7646732693e+03 2.0292125878e+03 0.0000000000e+00 0.0000e+00 1.0000e+00
       13  1    1    2    0    0 +1.2263585648e+02 -9.9427985287e+02 +3.8351168703e+03 3.9638054175e+03 0.0000000000e+00 0.0000e+00 -1.0000e+00
<mgrwt>
<rscale>  0 0.56240135E+04</rscale>
<asrwt>0</asrwt>
<pdfrwt beam="1">  1        2 0.62026628E+00 0.56240135E+04</pdfrwt>
<pdfrwt beam="2">  1       -2 0.30173649E+00 0.56240135E+04</pdfrwt>
<totfact> 0.58314187E-03</totfact>
</mgrwt>
<rwgt>
<wgt id='morphing_basis_vector_1'> +1.2187754e-06 </wgt>
<wgt id='morphing_basis_vector_2'> +8.2841783e-07 </wgt>
<wgt id='morphing_basis_vector_3'> +1.3442482e-06 </wgt>
<wgt id='morphing_basis_vector_4'> +9.7304842e-07 </wgt>
<wgt id='morphing_basis_vector_5'> +1.5515996e-06 </wgt>
</rwgt>
</event>
<event>
 4      1 +9.0096000e-12 6.16674600e+03 7.81860800e-03 7.24361600e-02
        2 -1    0    0  501    0 +0.0000000000e+00 +0.0000000000e+00 +3.5089470410e+03 3.5089470410e+03 0.0000000000e+00 0.0000e+00 1.0000e+00
       -2 -1    0    0    0  501 -0.0000000000e+00 -0.0000000000e+00 -2.7094133464e+03 2.7094133464e+03 0.0000000000e+00 0.0000e+00 -1.0000e+00
      -13  1    1    2    0    0 -1.6164631377e+03 +2.2726723190e+03 -9.2622815886e+02 2.9386886782e+03 0.0000000000e+00 0.0000e+00 -1.0000e+00
       13  1    1    2    0    0 +1.6164631377e+03 -2.2726723190e+03 +1.7257618535e+03 3.2796717092e+03 0.0000000000e+00 0.0000e+00 1.0000e+00
<mgrwt>
<rscale>  0 0.61667456E+04</rscale>
<asrwt>0</asrwt>
<pdfrwt beam="1">  1        2 0.53983801E+00 0.61667456E+04</pdfrwt>
<pdfrwt beam="2">  1       -2 0.41683282E+00 0.61667456E+04</pdfrwt>
<totfact> 0.25757744E-03</totfact>
</mgrwt>
<rwgt>
<wgt id='morphing_basis_vector_1'> +1.7716279e-06 </wgt>
<wgt id='morphing_basis_vector_2'> +1.2304238e-06 </wgt>
<wgt id='morphing_basis_vector_3'> +1.9616302e-06 </wgt>
<wgt id='morphing_basis_vector_4'> +1.3834868e-06 </wgt>
<wgt id='morphing_basis_vector_5'> +2.2427918e-06 </wgt>
</rwgt>
</event>
<event>
 4      1 +9.0096000e-12 5.87246300e+03 7.81860800e-03 7.27596400e-02
        2 -1    0    0  501    0 +0.0000000000e+00 +0.0000000000e+00 +4.3097083427e+03 4.3097083427e+03 0.0000000000e+00 0.0000e+00 -1.0000e+00
       -2 -1    0    0    0  501 -0.0000000000e+00 -0.0000000000e+00 -2.0004727631e+03 2.0004727631e+03 0.0000000000e+00 0.0000e+00 1.0000e+00
      -13  1    1    2    0    0 +2.4870202325e+03 -5.5856130036e+01 -5.2147627318e+02 2.5417173422e+03 0.0000000000e+00 0.0000e+00 1.0000e+00
       13  1    1    2    0    0 -2.4870202325e+03 +5.5856130036e+01 +2.8307118527e+03 3.7684637636e+03 0.0000000000e+00 0.0000e+00 -1.0000e+00
<mgrwt>
<rscale>  0 0.58724626E+04</rscale>
<asrwt>0</asrwt>
<pdfrwt beam="1">  1        2 0.66303205E+00 0.58724626E+04</pdfrwt>
<pdfrwt beam="2">  1       -2 0.30776504E+00 0.58724626E+04</pdfrwt>
<totfact> 0.29164323E-03</totfact>
</mgrwt>
<rwgt>
<wgt id='morphing_basis_vector_1'> +1.4536352e-06 </wgt>
<wgt id='morphing_basis_vector_2'> +1.0005452e-06 </wgt>
<wgt id='morphing_basis_vector_3'> +1.6067976e-06 </wgt>
<wgt id='morphing_basis_vector_4'> +1.1455984e-06 </wgt>
<wgt id='morphing_basis_vector_5'> +1.8442760e-06 </wgt>
</rwgt>
</event>
<event>
 4      1 +9.0096000e-12 6.52099000e+03 7.81860800e-03 7.20702700e-02
        2 -1    0    0  501    0 +0.0000000000e+00 +0.0000000000e+00 +3.3040777336e+03 3.3040777336e+03 0.0000000000e+00 0.0000e+00 -1.0000e+00
       -2 -1    0    0    0  501 -0.0000000000e+00 -0.0000000000e+00 -3.2174874863e+03 3.2174874863e+03 0.0000000000e+00 0.0000e+00 1.0000e+00
      -13  1    1    2    0    0 -2.7770660989e+03 +6.5822616544e+01 +1.7506070181e+03 3.2834514869e+03 0.0000000000e+00 0.0000e+00 1.0000e+00
       13  1    1    2    0    0 +2.7770660989e+03 -6.5822616544e+01 -1.6640167708e+03 3.2381137331e+03 0.0000000000e+00 0.0000e+00 -1.0000e+00
<mgrwt>
<rscale>  0 0.65209903E+04</rscale>
<asrwt>0</asrwt>
<pdfrwt beam="1">  1        2 0.50831965E+00 0.65209903E+04</pdfrwt>
<pdfrwt beam="2">  1       -2 0.49499808E+00 0.65209903E+04</pdfrwt>
<totfact> 0.98583649E-04</totfact>
</mgrwt>
<rwgt>
<wgt id='morphing_basis_vector_1'> +2.6323519e-06 </wgt>
<wgt id='morphing_basis_vector_2'> +2.7654917e-06 </wgt>
<wgt id='morphing_basis_vector_3'> +3.1370108e-06 </wgt>
<wgt id='morphing_basis_vector_4'> +8.3472154e-07 </wgt>
<wgt id='morphing_basis_vector_5'> +2.7300572e-06 </wgt>
</rwgt>
</event>
<event>
 4      1 +9.0096000e-12 5.80655700e+03 7.81860800e-03 7.28347300e-02
        2 -1    0    0  501    0 +0.0000000000e+00 +0.0000000000e+00 +2.9746908962e+03 2.9746908962e+03 0.0000000000e+00 0.0000e+00 1.0000e+00
       -2 -1    0    0    0  501 -0.0000000000e+00 -0.0000000000e+00 -2.8335800226e+03 2.8335800226e+03 0.0000000000e+00 0.0000e+00 -1.0000e+00
      -13  1    1    2    0    0 +5.4629720099e+02 +1.8629336418e+02 -2.7756104342e+03 2.8349883831e+03 0.0000000000e+00 0.0000e+00 -1.0000e+00
       13  1    1    2    0    0 -5.4629720099e+02 -1.8629336418e+02 +2.9167213079e+03 2.9732825357e+03 0.0000000000e+00 0.0000e+00 1.0000e+00
<mgrwt>
<rscale>  0 0.58065565E+04</rscale>
<asrwt>0</asrwt>
<pdfrwt beam="1">  1        2 0.45764476E+00 0.58065565E+04</pdfrwt>
<pdfrwt beam="2">  1       -2 0.43593539E+00 0.58065565E+04</pdfrwt>
<totfact> 0.45978438E-03</totfact>
</mgrwt>
<rwgt>
<wgt id='morphing_basis_vector_1'> +1.3843774e-06 </wgt>
<wgt id='morphing_basis_vector_2'> +9.4103008e-07 </wgt>
<wgt id='morphing_basis_vector_3'> +1.5273266e-06 </wgt>
<wgt id='morphing_basis_vector_4'> +1.1061273e-06 </wgt>
<wgt id='morphing_basis_vector_5'> +1.7636245e-06 </wgt>
</rwgt>
</event>
<event>
 4      1 +9.0096000e-12 5.64795600e+03 7.81860800e-03 7.30196800e-02
        2 -1    0    0  501    0 +0.0000000000e+00 +0.0000000000e+00 +4.2823104254e+03 4.2823104254e+03 0.0000000000e+00 0.0000e+00 -1.0000e+00
       -2 -1    0    0    0  501 -0.0000000000e+00 -0.0000000000e+00 -1.8622775856e+03 1.8622775856e+03 0.0000000000e+00 0.0000e+00 1.0000e+00
      -13  1    1    2    0    0 +1.7573375293e+03 -1.9787353539e+03 +1.3785362751e+02 2.6500249839e+03 0.0000000000e+00 0.0000e+00 1.0000e+00
       13  1    1    2    0    0 -1.7573375293e+03 +1.9787353539e+03 +2.2821792123e+03 3.4945630270e+03 0.0000000000e+00 0.0000e+00 -1.0000e+00
<mgrwt>
<rscale>  0 0.56479556E+04</rscale>
<asrwt>0</asrwt>
<pdfrwt beam="1">  1        2 0.65881698E+00 0.56479556E+04</pdfrwt>
<pdfrwt beam="2">  1       -2 0.28650425E+00 0.56479556E+04</pdfrwt>
<totfact> 0.43815287E-03</totfact>
</mgrwt>
<rwgt>
<wgt id='morphing_basis_vector_1'> +1.2510543e-06 </wgt>
<wgt id='morphing_basis_vector_2'> +8.7620340e-07 </wgt>
<wgt id='morphing_basis_vector_3'> +1.3859384e-06 </wgt>
<wgt id='morphing_basis_vector_4'> +9.6530737e-07 </wgt>
<wgt id='morphing_basis_vector_5'> +1.5762019e-06 </wgt>
</rwgt>
</event>
<event>
 4      1 +9.0096000e-12 6.45575600e+03 7.81860800e-03 7.21358500e-02
        2 -1    0    0  501    0 +0.0000000000e+00 +0.0000000000e+00 +3.5002537382e+03 3.5002537382e+03 0.0000000000e+00 0.0000e+00 -1.0000e+00
       -2 -1    0    0    0  501 -0.0000000000e+00 -0.0000000000e+00 -2.9766970324e+03 2.9766970324e+03 0.0000000000e+00 0.0000e+00 1.0000e+00
      -13  1    1    2    0    0 +2.0656290897e+03 -2.3331844053e+03 -5.8278222798e+02 3.1702063230e+03 0.0000000000e+00 0.0000e+00 1.0000e+00
       13  1    1    2    0    0 -2.0656290897e+03 +2.3331844053e+03 +1.1063389337e+03 3.3067444476e+03 0.0000000000e+00 0.0000e+00 -1.0000e+00
<mgrwt>
<rscale>  0 0.64557555E+04</rscale>
<asrwt>0</asrwt>
<pdfrwt beam="1">  1        2 0.53850057E+00 0.64557555E+04</pdfrwt>
<pdfrwt beam="2">  1       -2 0.45795339E+00 0.64557555E+04</pdfrwt>
<totfact> 0.13411199E-03</totfact>
</mgrwt>
<rwgt>
<wgt id='morphing_basis_vector_1'> +2.1419187e-06 </wgt>
<wgt id='morphing_basis_vector_2'> +1.5212936e-06 </wgt>
<wgt id='morphing_basis_vector_3'> +2.3803604e-06 </wgt>
<wgt id='morphing_basis_vector_4'> +1.6303380e-06 </wgt>
<wgt id='morphing_basis_vector_5'> +2.6920187e-06 </wgt>
</rwgt>
</event>
<event>
 4      1 +9.0096000e-12 5.71073500e+03 7.81860800e-03 7.29457400e-02
        2 -1    0    0  501    0 +0.0000000000e+00 +0.0000000000e+00 +3.9764901854e+03 3.9764901854e+03 0.0000000000e+00 0.0000e+00 -1.0000e+00
       -2 -1    0    0    0  501 -0.0000000000e+00 -0.0000000000e+00 -2.0503313688e+03 2.0503313688e+03 0.0000000000e+00 0.0000e+00 1.0000e+00
      -13  1    1    2    0    0 -2.1062189664e+03 -1.0137811436e+02 -1.0687595911e+03 2.3640395344e+03 0.0000000000e+00 0.0000e+00 1.0000e+00
       13  1    1    2    0    0 +2.1062189664e+03 +1.0137811436e+02 +2.9949184077e+03 3.6627820198e+03 0.0000000000e+00 0.0000e+00 -1.0000e+00
<mgrwt>
<rscale>  0 0.57107347E+04</rscale>
<asrwt>0</asrwt>
<pdfrwt beam="1">  1        2 0.61176772E+00 0.57107347E+04</pdfrwt>
<pdfrwt beam="2">  1       -2 0.31543560E+00 0.57107347E+04</pdfrwt>
<totfact> 0.52285888E-03</totfact>
</mgrwt>
<rwgt>
<wgt id='morphing_basis_vector_1'> +1.2974370e-06 </wgt>
<wgt id='morphing_basis_vector_2'> +8.8633416e-07 </wgt>
<wgt id='morphing_basis_vector_3'> +1.4322380e-06 </wgt>
<wgt id='morphing_basis_vector_4'> +1.0304851e-06 </wgt>
<wgt id='morphing_basis_vector_5'> +1.6494389e-06 </wgt>
</rwgt>
</event>
<event>
 4      1 +9.0096000e-12 6.13587200e+03 7.81860800e-03 7.24692300e-02
        2 -1    0    0  501    0 +0.0000000000e+00 +0.0000000000e+00 +3.0595776793e+03 3.0595776793e+03 0.0000000000e+00 0.0000e+00 1.0000e+00
       -2 -1    0    0    0  501 -0.0000000000e+00 -0.0000000000e+00 -3.0763171002e+03 3.0763171002e+03 0.0000000000e+00 0.0000e+00 -1.0000e+00
      -13  1    1    2    0    0 -9.2580995656e+02 -7.9726346870e+02 -2.8225368984e+03 3.0756247588e+03 0.0000000000e+00 0.0000e+00 -1.0000e+00
       13  1    1    2    0    0 +9.2580995656e+02 +7.9726346870e+02 +2.8057974775e+03 3.0602700206e+03 0.0000000000e+00 0.0000e+00 1.0000e+00
<mgrwt>
<rscale>  0 0.61358719E+04</rscale>
<asrwt>0</asrwt>
<pdfrwt beam="1">  1        2 0.47070426E+00 0.61358719E+04</pdfrwt>
<pdfrwt beam="2">  1       -2 0.47327955E+00 0.61358719E+04</pdfrwt>
<totfact> 0.21531870E-03</totfact>
</mgrwt>
<rwgt>
<wgt id='morphing_basis_vector_1'> +1.7254204e-06 </wgt>
<wgt id='morphing_basis_vector_2'> +1.1734976e-06 </wgt>
<wgt id='morphing_basis_vector_3'> +1.9045574e-06 </wgt>
<wgt id='morphing_basis_vector_4'> +1.3796233e-06 </wgt>
<wgt id='morphing_basis_vector_5'> +2.2001151e-06 </wgt>
</rwgt>
</event>
<event>
 4      1 +9.0096000e-12 6.25744400e+03 7.81860800e-03 7.23401500e-02
        2 -1    0    0  501    0 +0.0000000000e+00 +0.0000000000e+00 +4.2745363568e+03 4.2745363568e+03 0.0000000000e+00 0.0000e+00 -1.0000e+00
       -2 -1    0    0    0  501 -0.0000000000e+00 -0.0000000000e+00 -2.2900498590e+03 2.2900498590e+03 0.0000000000e+00 0.0000e+00 1.0000e+00
      -13  1    1    2    0    0 -2.5947539068e+03 +1.7000448326e+03 +1.4196741163e+03 3.4115062460e+03 0.0000000000e+00 0.0000e+00 1.0000e+00
       13  1    1    2    0    0 +2.5947539068e+03 -1.7000448326e+03 +5.6481238148e+02 3.1530799698e+03 0.0000000000e+00 0.0000e+00 -1.0000e+00
<mgrwt>
<rscale>  0 0.62574440E+04</rscale>
<asrwt>0</asrwt>
<pdfrwt beam="1">  1        2 0.65762098E+00 0.62574440E+04</pdfrwt>
<pdfrwt beam="2">  1       -2 0.35231536E+00 0.62574440E+04</pdfrwt>
<totfact> 0.15566615E-03</totfact>
</mgrwt>
<rwgt>
<wgt id='morphing_basis_vector_1'> +1.9744240e-06 </wgt>
<wgt id='morphing_basis_vector_2'> +1.5875218e-06 </wgt>
<wgt id='morphing_basis_vector_3'> +2.2373104e-06 </wgt>
<wgt id='morphing_basis_vector_4'> +1.2603254e-06 </wgt>
<wgt id='morphing_basis_vector_5'> +2.3605778e-06 </wgt>
</rwgt>
</event>
<event>
 4      1 +9.0096000e-12 6.26469500e+03 7.81860800e-03 7.23325400e-02
        2 -1    0    0  501    0 +0.0000000000e+00 +0.0000000000e+00 +4.1162453959e+03 4.1162453959e+03 0.0000000000e+00 0.0000e+00 -1.0000e+00
       -2 -1    0    0    0  501 -0.0000000000e+00 -0.0000000000e+00 -2.3836288886e+03 2.3836288886e+03 0.0000000000e+00 0.0000e+00 1.0000e+00
      -13  1    1    2    0    0 +1.8935277509e+02 +2.1768932212e+03 +3.1948602382e+03 3.8706395481e+03 0.0000000000e+00 0.0000e+00 1.0000e+00
       13  1    1    2    0    0 -1.8935277509e+02 -2.1768932212e+03 -1.4622437309e+03 2.6292347363e+03 0.0000000000e+00 0.0000e+00 -1.0000e+00
<mgrwt>
<rscale>  0 0.62646952E+04</rscale>
<asrwt>0</asrwt>
<pdfrwt beam="1">  1        2 0.63326852E+00 0.62646952E+04</pdfrwt>
<pdfrwt beam="2">  1       -2 0.36671214E+00 0.62646952E+04</pdfrwt>
<totfact> 0.17551284E-03</totfact>
</mgrwt>
<rwgt>
<wgt id='morphing_basis_vector_1'> +2.4319828e-06 </wgt>
<wgt id='morphing_basis_vector_2'> +2.9109253e-06 </wgt>
<wgt id='morphing_basis_vector_3'> +2.9807294e-06 </wgt>
<wgt id='morphing_basis_vector_4'> +3.0626403e-07 </wgt>
<wgt id='morphing_basis_vector_5'> +2.2907683e-06 </wgt>
</rwgt>
</event>
<event>
 4      1 +9.0096000e-12 5.71051300e+03 7.81860800e-03 7.29460000e-02
        2 -1    0    0  501    0 +0.0000000000e+00 +0.0000000000e+00 +2.2941119807e+03 2.2941119807e+03 0.0000000000e+00 0.0000e+00 -1.0000e+00
       -2 -1    0    0    0  501 -0.0000000000e+00 -0.0000000000e+00 -3.5536583191e+03 3.5536583191e+03 0.0000000000e+00 0.0000e+00 1.0000e+00
      -13  1    1    2    0    0 -1.3023004736e+03 -2.4151586309e+03 +1.7883423268e+02 2.7497198801e+03 0.0000000000e+00 0.0000e+00 1.0000e+00
       13  1    1    2    0    0 +1.3023004736e+03 +2.4151586309e+03 -1.4383805710e+03 3.0980504197e+03 0.0000000000e+00 0.0000e+00 -1.0000e+00
<mgrwt>
<rscale>  0 0.57105132E+04</rscale>
<asrwt>0</asrwt>
<pdfrwt beam="1">  1        2 0.35294030E+00 0.57105132E+04</pdfrwt>
<pdfrwt beam="2">  1       -2 0.54671667E+00 0.57105132E+04</pdfrwt>
<totfact> 0.18849387E-03</totfact>
</mgrwt>
<rwgt>
<wgt id='morphing_basis_vector_1'> +1.4179817e-06 </wgt>
<wgt id='morphing_basis_vector_2'> +1.2406492e-06 </wgt>
<wgt id='morphing_basis_vector_3'> +1.6288878e-06 </wgt>
<wgt id='morphing_basis_vector_4'> +7.7227510e-07 </wgt>
<wgt id='morphing_basis_vector_5'> +1.6274943e-06 </wgt>
</rwgt>
</event>
<event>
 4      1 +9.0096000e-12 6.11717200e+03 7.81860800e-03 7.24893500e-02
        2 -1    0    0  501    0 +0.0000000000e+00 +0.0000000000e+00 +1.8460605748e+03 1.8460605748e+03 0.0000000000e+00 0.0000e+00 -1.0000e+00
       -2 -1    0    0    0  501 -0.0000000000e+00 -0.0000000000e+00 -5.0675201542e+03 5.0675201542e+03 0.0000000000e+00 0.0000e+00 1.0000e+00
      -13  1    1    2    0    0 +1.0370267049e+03 +1.8947774679e+03 -4.0581488208e+03 4.5971923922e+03 0.0000000000e+00 0.0000e+00 1.0000e+00
       13  1    1    2    0    0 -1.0370267049e+03 -1.8947774679e+03 +8.3668924141e+02 2.3163883367e+03 0.0000000000e+00 0.0000e+00 -1.0000e+00
<mgrwt>
<rscale>  0 0.61171723E+04</rscale>
<asrwt>0</asrwt>
<pdfrwt beam="1">  1        2 0.28400932E+00 0.61171723E+04</pdfrwt>
<pdfrwt beam="2">  1       -2 0.77961848E+00 0.61171723E+04</pdfrwt>
<totfact> 0.68620124E-04</totfact>
</mgrwt>
<rwgt>
<wgt id='morphing_basis_vector_1'> +1.7064285e-06 </wgt>
<wgt id='morphing_basis_vector_2'> +1.1648468e-06 </wgt>
<wgt id='morphing_basis_vector_3'> +1.8845536e-06 </wgt>
<wgt id='morphing_basis_vector_4'> +1.3587814e-06 </wgt>
<wgt id='morphing_basis_vector_5'> +2.1730191e-06 </wgt>
</rwgt>
</event>
<event>
 4      1 +9.0096000e-12 5.63963200e+03 7.81860800e-03 7.30295600e-02
        2 -1    0    0  501    0 +0.0000000000e+00 +0.0000000000e+00 +3.5751384996e+03 3.5751384996e+03 0.0000000000e+00 0.0000e+00 1.0000e+00
       -2 -1    0    0    0  501 -0.0000000000e+00 -0.0000000000e+00 -2.2240714416e+03 2.2240714416e+03 0.0000000000e+00 0.0000e+00 -1.0000e+00
      -13  1    1    2    0    0 +2.2729647296e+03 -1.1692761262e+03 -5.4886753747e+02 2.6143509510e+03 0.0000000000e+00 0.0000e+00 -1.0000e+00
       13  1    1    2    0    0 -2.2729647296e+03 +1.1692761262e+03 +1.8999345954e+03 3.1848589903e+03 0.0000000000e+00 0.0000e+00 1.0000e+00
<mgrwt>
<rscale>  0 0.56396324E+04</rscale>
<asrwt>0</asrwt>
<pdfrwt beam="1">  1        2 0.55002131E+00 0.56396324E+04</pdfrwt>
<pdfrwt beam="2">  1       -2 0.34216484E+00 0.56396324E+04</pdfrwt>
<totfact> 0.73003221E-03</totfact>
</mgrwt>
<rwgt>
<wgt id='morphing_basis_vector_1'> +1.2404400e-06 </wgt>
<wgt id='morphing_basis_vector_2'> +8.6144138e-07 </wgt>
<wgt id='morphing_basis_vector_3'> +1.3724499e-06 </wgt>
<wgt id='morphing_basis_vector_4'> +9.6661333e-07 </wgt>
<wgt id='morphing_basis_vector_5'> +1.5674962e-06 </wgt>
</rwgt>
</event>
<event>
 4      1 +9.0096000e-12 6.22739200e+03 7.81860800e-03 7.23717800e-02
        2 -1    0    0  501    0 +0.0000000000e+00 +0.0000000000e+00 +2.5549046695e+03 2.5549046695e+03 0.0000000000e+00 0.0000e+00 -1.0000e+00
       -2 -1    0    0    0  501 -0.0000000000e+00 -0.0000000000e+00 -3.7947020619e+03 3.7947020619e+03 0.0000000000e+00 0.0000e+00 1.0000e+00
      -13  1    1    2    0    0 -3.2255235875e+02 -2.2965534566e+03 -2.7383907853e+03 3.5884511834e+03 0.0000000000e+00 0.0000e+00 1.0000e+00
       13  1    1    2    0    0 +3.2255235875e+02 +2.2965534566e+03 +1.4985933929e+03 2.7611555480e+03 0.0000000000e+00 0.0000e+00 -1.0000e+00
<mgrwt>
<rscale>  0 0.62273918E+04</rscale>
<asrwt>0</asrwt>
<pdfrwt beam="1">  1        2 0.39306226E+00 0.62273918E+04</pdfrwt>
<pdfrwt beam="2">  1       -2 0.58380032E+00 0.62273918E+04</pdfrwt>
<totfact> 0.67959199E-04</totfact>
</mgrwt>
<rwgt>
<wgt id='morphing_basis_vector_1'> +1.8332829e-06 </wgt>
<wgt id='morphing_basis_vector_2'> +1.2533295e-06 </wgt>
<wgt id='morphing_basis_vector_3'> +2.0253595e-06 </wgt>
<wgt id='morphing_basis_vector_4'> +1.4579180e-06 </wgt>
<wgt id='morphing_basis_vector_5'> +2.3341220e-06 </wgt>
</rwgt>
</event>
<event>
 4      1 +9.0096000e-12 5.75924600e+03 7.81860800e-03 7.28892600e-02
        2 -1    0    0  501    0 +0.0000000000e+00 +0.0000000000e+00 +4.7751173286e+03 4.7751173286e+03 0.0000000000e+00 0.0000e+00 -1.0000e+00
       -2 -1    0    0    0  501 -0.0000000000e+00 -0.0000000000e+00 -1.7365496399e+03 1.7365496399e+03 0.0000000000e+00 0.0000e+00 1.0000e+00
      -13  1    1    2    0    0 -2.2958634602e+03 +1.6716078364e+03 +9.8063289218e+02 3.0044804303e+03 0.0000000000e+00 0.0000e+00 1.0000e+00
       13  1    1    2    0    0 +2.2958634602e+03 -1.6716078364e+03 +2.0579347965e+03 3.5071865382e+03 0.0000000000e+00 0.0000e+00 -1.0000e+00
<mgrwt>
<rscale>  0 0.57592459E+04</rscale>
<asrwt>0</asrwt>
<pdfrwt beam="1">  1        2 0.73463343E+00 0.57592459E+04</pdfrwt>
<pdfrwt beam="2">  1       -2 0.26716149E+00 0.57592459E+04</pdfrwt>
<totfact> 0.17801193E-03</totfact>
</mgrwt>
<rwgt>
<wgt id='morphing_basis_vector_1'> +1.3664924e-06 </wgt>
<wgt id='morphing_basis_vector_2'> +9.8877915e-07 </wgt>
<wgt id='morphing_basis_vector_3'> +1.5215069e-06 </wgt>
<wgt id='morphing_basis_vector_4'> +1.0136255e-06 </wgt>
<wgt id='morphing_basis_vector_5'> +1.7019370e-06 </wgt>
</rwgt>
</event>
<event>
 4      1 +9.0096000e-12 5.74181600e+03 7.81860800e-03 7.29094900e-02
        2 -1    0    0  501    0 +0.0000000000e+00 +0.0000000000e+00 +3.8935203456e+03 3.8935203456e+03 0.0000000000e+00 0.0000e+00 -1.0000e+00
       -2 -1    0    0    0  501 -0.0000000000e+00 -0.0000000000e+00 -2.1168794417e+03 2.1168794417e+03 0.0000000000e+00 0.0000e+00 1.0000e+00
      -13  1    1    2    0    0 -1.2540600785e+03 +2.5052609071e+03 +2.3200370033e+02 2.8111962952e+03 0.0000000000e+00 0.0000e+00 1.0000e+00
       13  1    1    2    0    0 +1.2540600785e+03 -2.5052609071e+03 +1.5446372036e+03 3.1992034921e+03 0.0000000000e+00 0.0000e+00 -1.0000e+00
<mgrwt>
<rscale>  0 0.57418162E+04</rscale>
<asrwt>0</asrwt>
<pdfrwt beam="1">  1        2 0.59900313E+00 0.57418162E+04</pdfrwt>
<pdfrwt beam="2">  1       -2 0.32567376E+00 0.57418162E+04</pdfrwt>
<totfact> 0.52315931E-03</totfact>
</mgrwt>
<rwgt>
<wgt id='morphing_basis_vector_1'> +1.3451049e-06 </wgt>
<wgt id='morphing_basis_vector_2'> +9.6231398e-07 </wgt>
<wgt id='morphing_basis_vector_3'> +1.4950817e-06 </wgt>
<wgt id='morphing_basis_vector_4'> +1.0119859e-06 </wgt>
<wgt id='morphing_basis_vector_5'> +1.6822701e-06 </wgt>
</rwgt>
</event>
<event>
 4      1 +9.0096000e-12 5.81019400e+03 7.81860800e-03 7.28305600e-02
        2 -1    0    0  501    0 +0.0000000000e+00 +0.0000000000e+00 +2.7169351621e+03 2.7169351621e+03 0.0000000000e+00 0.0000e+00 -1.0000e+00
       -2 -1    0    0    0  501 -0.0000000000e+00 -0.0000000000e+00 -3.1062902837e+03 3.1062902837e+03 0.0000000000e+00 0.0000e+00 1.0000e+00
      -13  1    1    2    0    0 -2.8454190255e+03 -1.0745271117e+02 -7.7184567806e+02 2.9502035974e+03 0.0000000000e+00 0.0000e+00 1.0000e+00
       13  1    1    2    0    0 +2.8454190255e+03 +1.0745271117e+02 +3.8249055644e+02 2.8730218484e+03 0.0000000000e+00 0.0000e+00 -1.0000e+00
<mgrwt>
<rscale>  0 0.58101942E+04</rscale>
<asrwt>0</asrwt>
<pdfrwt beam="1">  1        2 0.41799003E+00 0.58101942E+04</pdfrwt>
<pdfrwt beam="2">  1       -2 0.47789081E+00 0.58101942E+04</pdfrwt>
<totfact> 0.33762110E-03</totfact>
</mgrwt>
<rwgt>
<wgt id='morphing_basis_vector_1'> +1.4120411e-06 </wgt>
<wgt id='morphing_basis_vector_2'> +1.0144244e-06 </wgt>
<wgt id='morphing_basis_vector_3'> +1.5706347e-06 </wgt>
<wgt id='morphing_basis_vector_4'> +1.0571724e-06 </wgt>
<wgt id='morphing_basis_vector_5'> +1.7637092e-06 </wgt>
</rwgt>
</event>
<event>
 4      1 +9.0096000e-12 5.57555500e+03 7.81860800e-03 7.31061800e-02
        2 -1    0    0  501    0 +0.0000000000e+00 +0.0000000000e+00 +3.3776518892e+03 3.3776518892e+03 0.0000000000e+00 0.0000e+00 -1.0000e+00
       -2 -1    0    0    0  501 -0.0000000000e+00 -0.0000000000e+00 -2.3009190873e+03 2.3009190873e+03 0.0000000000e+00 0.0000e+00 1.0000e+00
      -13  1    1    2    0    0 +1.9758908726e+03 +8.8969495306e+02 +2.3246246266e+03 3.1779838742e+03 0.0000000000e+00 0.0000e+00 -1.0000e+00
       13  1    1    2    0    0 -1.9758908726e+03 -8.8969495306e+02 -1.2478918247e+03 2.5005871023e+03 0.0000000000e+00 0.0000e+00 1.0000e+00
<mgrwt>
<rscale>  0 0.55755551E+04</rscale>
<asrwt>0</asrwt>
<pdfrwt beam="1">  1        2 0.51963875E+00 0.55755551E+04</pdfrwt>
<pdfrwt beam="2">  1       -2 0.35398755E+00 0.55755551E+04</pdfrwt>
<totfact> 0.85672651E-03</totfact>
</mgrwt>
<rwgt>
<wgt id='morphing_basis_vector_1'> +1.4744360e-06 </wgt>
<wgt id='morphing_basis_vector_2'> +1.6722269e-06 </wgt>
<wgt id='morphing_basis_vector_3'> +1.7824372e-06 </wgt>
<wgt id='morphing_basis_vector_4'> +3.0539917e-07 </wgt>
<wgt id='morphing_basis_vector_5'> +1.4453770e-06 </wgt>
</rwgt>
</event>
<event>
 4      1 +9.0096000e-12 5.78333600e+03 7.81860800e-03 7.28614300e-02
        2 -1    0    0  501    0 +0.0000000000e+00 +0.0000000000e+00 +3.7306669085e+03 3.7306669085e+03 0.0000000000e+00 0.0000e+00 -1.0000e+00
       -2 -1    0    0    0  501 -0.0000000000e+00 -0.0000000000e+00 -2.2413532635e+03 2.2413532635e+03 0.0000000000e+00 0.0000e+00 1.0000e+00
      -13  1    1    2    0    0 +2.5240760844e+03 +8.1589917274e+02 -4.4402525448e+02 2.6895743096e+03 0.0000000000e+00 0.0000e+00 1.0000e+00
       13  1    1    2    0    0 -2.5240760844e+03 -8.1589917274e+02 +1.9333388995e+03 3.2824458625e+03 0.0000000000e+00 0.0000e+00 -1.0000e+00
<mgrwt>
<rscale>  0 0.57833355E+04</rscale>
<asrwt>0</asrwt>
<pdfrwt beam="1">  1        2 0.57394875E+00 0.57833355E+04</pdfrwt>
<pdfrwt beam="2">  1       -2 0.34482358E+00 0.57833355E+04</pdfrwt>
<totfact> 0.52754492E-03</totfact>
</mgrwt>
<rwgt>
<wgt id='morphing_basis_vector_1'> +1.3725284e-06 </wgt>
<wgt id='morphing_basis_vector_2'> +9.5575887e-07 </wgt>
<wgt id='morphing_basis_vector_3'> +1.5195355e-06 </wgt>
<wgt id='morphing_basis_vector_4'> +1.0668868e-06 </wgt>
<wgt id='morphing_basis_vector_5'> +1.7336993e-06 </wgt>
</rwgt>
</event>
<event>
 4      1 +9.0096000e-12 5.63370900e+03 7.81860800e-03 7.30366000e-02
        2 -1    0    0  501    0 +0.0000000000e+00 +0.0000000000e+00 +2.2260055526e+03 2.2260055526e+03 0.0000000000e+00 0.0000e+00 -1.0000e+00
       -2 -1    0    0    0  501 -0.0000000000e+00 -0.0000000000e+00 -3.5645327432e+03 3.5645327432e+03 0.0000000000e+00 0.0000e+00 1.0000e+00
      -13  1    1    2    0    0 -1.2816323582e+02 -7.1175556697e+02 -3.4674839130e+03 3.5420991642e+03 0.0000000000e+00 0.0000e+00 1.0000e+00
       13  1    1    2    0    0 +1.2816323582e+02 +7.1175556697e+02 +2.1289567224e+03 2.2484391315e+03 0.0000000000e+00 0.0000e+00 -1.0000e+00
<mgrwt>
<rscale>  0 0.56337091E+04</rscale>
<asrwt>0</asrwt>
<pdfrwt beam="1">  1        2 0.34246239E+00 0.56337091E+04</pdfrwt>
<pdfrwt beam="2">  1       -2 0.54838965E+00 0.56337091E+04</pdfrwt>
<totfact> 0.20172039E-03</totfact>
</mgrwt>
<rwgt>
<wgt id='morphing_basis_vector_1'> +1.2271366e-06 </wgt>
<wgt id='morphing_basis_vector_2'> +8.3401283e-07 </wgt>
<wgt id='morphing_basis_vector_3'> +1.3534701e-06 </wgt>
<wgt id='morphing_basis_vector_4'> +9.7988446e-07 </wgt>
<wgt id='morphing_basis_vector_5'> +1.5623616e-06 </wgt>
</rwgt>
</event>
<event>
 4      1 +9.0096000e-12 5.62155000e+03 7.81860800e-03 7.30510700e-02
        2 -1    0    0  501    0 +0.0000000000e+00 +0.0000000000e+00 +3.5760751964e+03 3.5760751964e+03 0.0000000000e+00 0.0000e+00 -1.0000e+00
       -2 -1    0    0    0  501 -0.0000000000e+00 -0.0000000000e+00 -2.2092532232e+03 2.2092532232e+03 0.0000000000e+00 0.0000e+00 1.0000e+00
      -13  1    1    2    0    0 +1.9558141931e+03 +3.7523157325e+02 -1.3579219559e+03 2.4103858467e+03 0.0000000000e+00 0.0000e+00 1.0000e+00
       13  1    1    2    0    0 -1.9558141931e+03 -3.7523157325e+02 +2.7247439291e+03 3.3749425729e+03 0.0000000000e+00 0.0000e+00 -1.0000e+00
<mgrwt>
<rscale>  0 0.56215498E+04</rscale>
<asrwt>0</asrwt>
<pdfrwt beam="1">  1        2 0.55016542E+00 0.56215498E+04</pdfrwt>
<pdfrwt beam="2">  1       -2 0.33988511E+00 0.56215498E+04</pdfrwt>
<totfact> 0.75532648E-03</totfact>
</mgrwt>
<rwgt>
<wgt id='morphing_basis_vector_1'> +1.2180651e-06 </wgt>
<wgt id='morphing_basis_vector_2'> +8.3113247e-07 </wgt>
<wgt id='morphing_basis_vector_3'> +1.3442062e-06 </wgt>
<wgt id='morphing_basis_vector_4'> +9.6831006e-07 </wgt>
<wgt id='morphing_basis_vector_5'> +1.5486211e-06 </wgt>
</rwgt>
</event>
<event>
 4      1 +9.0096000e-12 6.25117700e+03 7.81860800e-03 7.23467300e-02
        2 -1    0    0  501    0 +0.0000000000e+00 +0.0000000000e+00 +4.7039969157e+03 4.7039969157e+03 0.0000000000e+00 0.0000e+00 -1.0000e+00
       -2 -1    0    0    0  501 -0.0000000000e+00 -0.0000000000e+00 -2.0768092590e+03 2.0768092590e+03 0.0000000000e+00 0.0000e+00 1.0000e+00
      -13  1    1    2    0    0 +6.6360275138e+02 -2.4687586897e+03 +3.2643396559e+03 4.1462092891e+03 0.0000000000e+00 0.0000e+00 -1.0000e+00
       13  1    1    2    0    0 -6.6360275138e+02 +2.4687586897e+03 -6.3715199925e+02 2.6345968856e+03 0.0000000000e+00 0.0000e+00 1.0000e+00
<mgrwt>
<rscale>  0 0.62511773E+04</rscale>
<asrwt>0</asrwt>
<pdfrwt beam="1">  1        2 0.72369183E+00 0.62511773E+04</pdfrwt>
<pdfrwt beam="2">  1       -2 0.31950912E+00 0.62511773E+04</pdfrwt>
<totfact> 0.91872234E-04</totfact>
</mgrwt>
<rwgt>
<wgt id='morphing_basis_vector_1'> +2.2739324e-06 </wgt>
<wgt id='morphing_basis_vector_2'> +2.4833416e-06 </wgt>
<wgt id='morphing_basis_vector_3'> +2.7308292e-06 </wgt>
<wgt id='morphing_basis_vector_4'> +5.9726040e-07 </wgt>
<wgt id='morphing_basis_vector_5'> +2.2957367e-06 </wgt>
</rwgt>
</event>
<event>
 4      1 +9.0096000e-12 5.67067500e+03 7.81860800e-03 7.29928100e-02
        2 -1    0    0  501    0 +0.0000000000e+00 +0.0000000000e+00 +2.2623868032e+03 2.2623868032e+03 0.0000000000e+00 0.0000e+00 1.0000e+00
       -2 -1    0    0    0  501 -0.0000000000e+00 -0.0000000000e+00 -3.5533880118e+03 3.5533880118e+03 0.0000000000e+00 0.0000e+00 -1.0000e+00
      -13  1    1    2    0    0 -2.0294345947e+02 +6.3037038046e+02 +2.1819586755e+03 2.2802404535e+03 0.0000000000e+00 0.0000e+00 1.0000e+00
       13  1    1    2    0    0 +2.0294345947e+02 -6.3037038046e+02 -3.4729598841e+03 3.5355343615e+03 0.0000000000e+00 0.0000e+00 -1.0000e+00
<mgrwt>
<rscale>  0 0.56706748E+04</rscale>
<asrwt>0</asrwt>
<pdfrwt beam="1">  1        2 0.34805951E+00 0.56706748E+04</pdfrwt>
<pdfrwt beam="2">  1       -2 0.54667508E+00 0.56706748E+04</pdfrwt>
<totfact> 0.19734624E-03</totfact>
</mgrwt>
<rwgt>
<wgt id='morphing_basis_vector_1'> +1.7260779e-06 </wgt>
<wgt id='morphing_basis_vector_2'> +2.2255489e-06 </wgt>
<wgt id='morphing_basis_vector_3'> +2.1497882e-06 </wgt>
<wgt id='morphing_basis_vector_4'> +9.0838897e-09 </wgt>
<wgt id='morphing_basis_vector_5'> +1.5201065e-06 </wgt>
</rwgt>
</event>
<event>
 4      1 +9.0096000e-12 6.52782900e+03 7.81860800e-03 7.20634400e-02
        2 -1    0    0  501    0 +0.0000000000e+00 +0.0000000000e+00 +3.2120973118e+03 3.2120973118e+03 0.0000000000e+00 0.0000e+00 -1.0000e+00
       -2 -1    0    0    0  501 -0.0000000000e+00 -0.0000000000e+00 -3.3165673581e+03 3.3165673581e+03 0.0000000000e+00 0.0000e+00 1.0000e+00
      -13  1    1    2    0    0 -2.2553062769e+03 +1.4219341727e+03 -1.9352490458e+03 3.2944638507e+03 0.0000000000e+00 0.0000e+00 1.0000e+00
       13  1    1    2    0    0 +2.2553062769e+03 -1.4219341727e+03 +1.8307789995e+03 3.2342008193e+03 0.0000000000e+00 0.0000e+00 -1.0000e+00
<mgrwt>
<rscale>  0 0.65278288E+04</rscale>
<asrwt>0</asrwt>
<pdfrwt beam="1">  1        2 0.49416882E+00 0.65278288E+04</pdfrwt>
<pdfrwt beam="2">  1       -2 0.51024113E+00 0.65278288E+04</pdfrwt>
<totfact> 0.87666184E-04</totfact>
</mgrwt>
<rwgt>
<wgt id='morphing_basis_vector_1'> +2.2155289e-06 </wgt>
<wgt id='morphing_basis_vector_2'> +1.5214668e-06 </wgt>
<wgt id='morphing_basis_vector_3'> +2.4500575e-06 </wgt>
<wgt id='morphing_basis_vector_4'> +1.7547661e-06 </wgt>
<wgt id='morphing_basis_vector_5'> +2.8187298e-06 </wgt>
</rwgt>
</event>
<event>
 4      1 +9.0096000e-12 6.17261700e+03 7.81860800e-03 7.24298900e-02
        2 -1    0    0  501    0 +0.0000000000e+00 +0.0000000000e+00 +3.3892487608e+03 3.3892487608e+03 0.0000000000e+00 0.0000e+00 -1.0000e+00
       -2 -1    0    0    0  501 -0.0000000000e+00 -0.0000000000e+00 -2.8104454146e+03 2.8104454146e+03 0.0000000000e+00 0.0000e+00 1.0000e+00
      -13  1    1    2    0    0 -5.7866639417e+00 +3.0239764995e+03 -3.3042074334e+02 3.0419804771e+03 0.0000000000e+00 0.0000e+00 1.0000e+00
       13  1    1    2    0    0 +5.7866639417e+00 -3.0239764995e+03 +9.0922408952e+02 3.1577136983e+03 0.0000000000e+00 0.0000e+00 -1.0000e+00
<mgrwt>
<rscale>  0 0.61726165E+04</rscale>
<asrwt>0</asrwt>
<pdfrwt beam="1">  1        2 0.52142288E+00 0.61726165E+04</pdfrwt>
<pdfrwt beam="2">  1       -2 0.43237622E+00 0.61726165E+04</pdfrwt>
<totfact> 0.24742357E-03</totfact>
</mgrwt>
<rwgt>
<wgt id='morphing_basis_vector_1'> +1.7975078e-06 </wgt>
<wgt id='morphing_basis_vector_2'> +1.2912828e-06 </wgt>
<wgt id='morphing_basis_vector_3'> +2.0003841e-06 </wgt>
<wgt id='morphing_basis_vector_4'> +1.3478136e-06 </wgt>
<wgt id='morphing_basis_vector_5'> +2.2479159e-06 </wgt>
</rwgt>
</event>
<event>
 4      1 +9.0096000e-12 5.67091500e+03 7.81860800e-03 7.29925200e-02
        2 -1    0    0  501    0 +0.0000000000e+00 +0.0000000000e+00 +2.4674738994e+03 2.4674738994e+03 0.0000000000e+00 0.0000e+00 1.0000e+00
       -2 -1    0    0    0  501 -0.0000000000e+00 -0.0000000000e+00 -3.2583193382e+03 3.2583193382e+03 0.0000000000e+00 0.0000e+00 -1.0000e+00
      -13  1    1    2    0    0 -2.5022569570e+02 -1.8189482256e+03 -2.5770341361e+03 3.1642203597e+03 0.0000000000e+00 0.0000e+00 -1.0000e+00
       13  1    1    2    0    0 +2.5022569570e+02 +1.8189482256e+03 +1.7861886974e+03 2.5615728779e+03 0.0000000000e+00 0.0000e+00 1.0000e+00
<mgrwt>
<rscale>  0 0.56709145E+04</rscale>
<asrwt>0</asrwt>
<pdfrwt beam="1">  1        2 0.37961137E+00 0.56709145E+04</pdfrwt>
<pdfrwt beam="2">  1       -2 0.50127990E+00 0.56709145E+04</pdfrwt>
<totfact> 0.32323605E-03</totfact>
</mgrwt>
<rwgt>
<wgt id='morphing_basis_vector_1'> +1.2607125e-06 </wgt>
<wgt id='morphing_basis_vector_2'> +8.5894847e-07 </wgt>
<wgt id='morphing_basis_vector_3'> +1.3910768e-06 </wgt>
<wgt id='morphing_basis_vector_4'> +1.0041202e-06 </wgt>
<wgt id='morphing_basis_vector_5'> +1.6039831e-06 </wgt>
</rwgt>
</event>
<event>
 4      1 +9.0096000e-12 5.82230700e+03 7.81860800e-03 7.28166900e-02
        2 -1    0    0  501    0 +0.0000000000e+00 +0.0000000000e+00 +3.6556710069e+03 3.6556710069e+03 0.0000000000e+00 0.0000e+00 1.0000e+00
       -2 -1    0    0    0  501 -0.0000000000e+00 -0.0000000000e+00 -2.3182648958e+03 2.3182648958e+03 0.0000000000e+00 0.0000e+00 -1.0000e+00
      -13  1    1    2    0    0 -2.3448127525e+03 +1.7057155614e+03 +9.3468641324e+02 3.0465145842e+03 0.0000000000e+00 0.0000e+00 -1.0000e+00
       13  1    1    2    0    0 +2.3448127525e+03 -1.7057155614e+03 +4.0271969786e+02 2.9274213184e+03 0.0000000000e+00 0.0000e+00 1.0000e+00
<mgrwt>
<rscale>  0 0.58223067E+04</rscale>
<asrwt>0</asrwt>
<pdfrwt beam="1">  1        2 0.56241093E+00 0.58223067E+04</pdfrwt>
<pdfrwt beam="2">  1       -2 0.35665614E+00 0.58223067E+04</pdfrwt>
<totfact> 0.50409292E-03</totfact>
</mgrwt>
<rwgt>
<wgt id='morphing_basis_vector_1'> +1.4700507e-06 </wgt>
<wgt id='morphing_basis_vector_2'> +1.1585946e-06 </wgt>
<wgt id='morphing_basis_vector_3'> +1.6591882e-06 </wgt>
<wgt id='morphing_basis_vector_4'> +9.6720529e-07 </wgt>
<wgt id='morphing_basis_vector_5'> +1.7701880e-06 </wgt>
</rwgt>
</event>
<event>
 4      1 +9.0096000e-12 6.03653000e+03 7.81860800e-03 7.25769800e-02
        2 -1    0    0  501    0 +0.0000000000e+00 +0.0000000000e+00 +3.1627722215e+03 3.1627722215e+03 0.0000000000e+00 0.0000e+00 1.0000e+00
       -2 -1    0    0    0  501 -0.0000000000e+00 -0.0000000000e+00 -2.8803602583e+03 2.8803602583e+03 0.0000000000e+00 0.0000e+00 -1.0000e+00
      -13  1    1    2    0    0 -1.4500983102e+03 -1.0711868011e+03 +2.5645347695e+03 3.1348149636e+03 0.0000000000e+00 0.0000e+00 1.0000e+00
       13  1    1    2    0    0 +1.4500983102e+03 +1.0711868011e+03 -2.2821228063e+03 2.9083175162e+03 0.0000000000e+00 0.0000e+00 -1.0000e+00
<mgrwt>
<rscale>  0 0.60365299E+04</rscale>
<asrwt>0</asrwt>
<pdfrwt beam="1">  1        2 0.48658034E+00 0.60365299E+04</pdfrwt>
<pdfrwt beam="2">  1       -2 0.44313235E+00 0.60365299E+04</pdfrwt>
<totfact> 0.30307489E-03</totfact>
</mgrwt>
<rwgt>
<wgt id='morphing_basis_vector_1'> +2.1570486e-06 </wgt>
<wgt id='morphing_basis_vector_2'> +2.6856867e-06 </wgt>
<wgt id='morphing_basis_vector_3'> +2.6668131e-06 </wgt>
<wgt id='morphing_basis_vector_4'> +1.3602409e-07 </wgt>
<wgt id='morphing_basis_vector_5'> +1.9635062e-06 </wgt>
</rwgt>
</event>
<event>
 4      1 +9.0096000e-12 5.56032100e+03 7.81860800e-03 7.31245500e-02
        2 -1    0    0  501    0 +0.0000000000e+00 +0.0000000000e+00 +2.7943717974e+03 2.7943717974e+03 0.0000000000e+00 0.0000e+00 1.0000e+00
       -2 -1    0    0    0  501 -0.0000000000e+00 -0.0000000000e+00 -2.7660213360e+03 2.7660213360e+03 0.0000000000e+00 0.0000e+00 -1.0000e+00
      -13  1    1    2    0    0 +3.0164487287e+02 +1.4595669670e+03 -2.3327610363e+03 2.7682303757e+03 0.0000000000e+00 0.0000e+00 -1.0000e+00
       13  1    1    2    0    0 -3.0164487287e+02 -1.4595669670e+03 +2.3611114977e+03 2.7921627577e+03 0.0000000000e+00 0.0000e+00 1.0000e+00
<mgrwt>
<rscale>  0 0.55603209E+04</rscale>
<asrwt>0</asrwt>
<pdfrwt beam="1">  1        2 0.42990336E+00 0.55603209E+04</pdfrwt>
<pdfrwt beam="2">  1       -2 0.42554174E+00 0.55603209E+04</pdfrwt>
<totfact> 0.71704897E-03</totfact>
</mgrwt>
<rwgt>
<wgt id='morphing_basis_vector_1'> +1.1649194e-06 </wgt>
<wgt id='morphing_basis_vector_2'> +7.9239626e-07 </wgt>
<wgt id='morphing_basis_vector_3'> +1.2848540e-06 </wgt>
<wgt id='morphing_basis_vector_4'> +9.2899861e-07 </wgt>
<wgt id='morphing_basis_vector_5'> +1.4822741e-06 </wgt>
</rwgt>
</event>
<event>
 4      1 +9.0096000e-12 5.87368800e+03 7.81860800e-03 7.27582500e-02
        2 -1    0    0  501    0 +0.0000000000e+00 +0.0000000000e+00 +3.4838723874e+03 3.4838723874e+03 0.0000000000e+00 0.0000e+00 -1.0000e+00
       -2 -1    0    0    0  501 -0.0000000000e+00 -0.0000000000e+00 -2.4757086953e+03 2.4757086953e+03 0.0000000000e+00 0.0000e+00 1.0000e+00
      -13  1    1    2    0    0 +2.5925484668e+03 +9.7127820133e+01 -8.9238483731e+02 2.7435546402e+03 0.0000000000e+00 0.0000e+00 1.0000e+00
       13  1    1    2    0    0 -2.5925484668e+03 -9.7127820133e+01 +1.9005485295e+03 3.2160264425e+03 0.0000000000e+00 0.0000e+00 -1.0000e+00
<mgrwt>
<rscale>  0 0.58736882E+04</rscale>
<asrwt>0</asrwt>
<pdfrwt beam="1">  1        2 0.53598037E+00 0.58736882E+04</pdfrwt>
<pdfrwt beam="2">  1       -2 0.38087826E+00 0.58736882E+04</pdfrwt>
<totfact> 0.47157924E-03</totfact>
</mgrwt>
<rwgt>
<wgt id='morphing_basis_vector_1'> +1.4569954e-06 </wgt>
<wgt id='morphing_basis_vector_2'> +1.0076884e-06 </wgt>
<wgt id='morphing_basis_vector_3'> +1.6116464e-06 </wgt>
<wgt id='morphing_basis_vector_4'> +1.1419616e-06 </wgt>
<wgt id='morphing_basis_vector_5'> +1.8454332e-06 </wgt>
</rwgt>
</event>
<event>
 4      1 +9.0096000e-12 6.14104600e+03 7.81860800e-03 7.24636700e-02
        2 -1    0    0  501    0 +0.0000000000e+00 +0.0000000000e+00 +2.7999299965e+03 2.7999299965e+03 0.0000000000e+00 0.0000e+00 -1.0000e+00
       -2 -1    0    0    0  501 -0.0000000000e+00 -0.0000000000e+00 -3.3672672951e+03 3.3672672951e+03 0.0000000000e+00 0.0000e+00 1.0000e+00
      -13  1    1    2    0    0 -1.4953231700e+03 -7.5366529192e+02 -2.8683632152e+03 3.3213717481e+03 0.0000000000e+00 0.0000e+00 1.0000e+00
       13  1    1    2    0    0 +1.4953231700e+03 +7.5366529192e+02 +2.3010259166e+03 2.8458255434e+03 0.0000000000e+00 0.0000e+00 -1.0000e+00
<mgrwt>
<rscale>  0 0.61410464E+04</rscale>
<asrwt>0</asrwt>
<pdfrwt beam="1">  1        2 0.43075846E+00 0.61410464E+04</pdfrwt>
<pdfrwt beam="2">  1       -2 0.51804112E+00 0.61410464E+04</pdfrwt>
<totfact> 0.14661637E-03</totfact>
</mgrwt>
<rwgt>
<wgt id='morphing_basis_vector_1'> +1.7316513e-06 </wgt>
<wgt id='morphing_basis_vector_2'> +1.1786789e-06 </wgt>
<wgt id='morphing_basis_vector_3'> +1.9116689e-06 </wgt>
<wgt id='morphing_basis_vector_4'> +1.3834022e-06 </wgt>
<wgt id='morphing_basis_vector_5'> +2.2074868e-06 </wgt>
</rwgt>
</event>
<event>
 4      1 +9.0096000e-12 6.50450100e+03 7.81860800e-03 7.20867700e-02
        2 -1    0    0  501    0 +0.0000000000e+00 +0.0000000000e+00 +3.6133860181e+03 3.6133860181e+03 0.0000000000e+00 0.0000e+00 -1.0000e+00
       -2 -1    0    0    0  501 -0.0000000000e+00 -0.0000000000e+00 -2.9272086451e+03 2.9272086451e+03 0.0000000000e+00 0.0000e+00 1.0000e+00
      -13  1    1    2    0    0 -1.8603679333e+03 -9.1086271971e+02 -2.1781125387e+03 3.0057967284e+03 0.0000000000e+00 0.0000e+00 1.0000e+00
       13  1    1    2    0    0 +1.8603679333e+03 +9.1086271971e+02 +2.8642899116e+03 3.5347979347e+03 0.0000000000e+00 0.0000e+00 -1.0000e+00
<mgrwt>
<rscale>  0 0.65045015E+04</rscale>
<asrwt>0</asrwt>
<pdfrwt beam="1">  1        2 0.55590554E+00 0.65045015E+04</pdfrwt>
<pdfrwt beam="2">  1       -2 0.45033979E+00 0.65045015E+04</pdfrwt>
<totfact> 0.12447423E-03</totfact>
</mgrwt>
<rwgt>
<wgt id='morphing_basis_vector_1'> +2.1792154e-06 </wgt>
<wgt id='morphing_basis_vector_2'> +1.4855466e-06 </wgt>
<wgt id='morphing_basis_vector_3'> +2.4072513e-06 </wgt>
<wgt id='morphing_basis_vector_4'> +1.7402136e-06 </wgt>
<wgt id='morphing_basis_vector_5'> +2.7794592e-06 </wgt>
</rwgt>
</event>
<event>
 4      1 +9.0096000e-12 5.61687400e+03 7.81860800e-03 7.30566500e-02
        2 -1    0    0  501    0 +0.0000000000e+00 +0.0000000000e+00 +3.6197690470e+03 3.6197690470e+03 0.0000000000e+00 0.0000e+00 -1.0000e+00
       -2 -1    0    0    0  501 -0.0000000000e+00 -0.0000000000e+00 -2.1789563961e+03 2.1789563961e+03 0.0000000000e+00 0.0000e+00 1.0000e+00
      -13  1    1    2    0    0 -1.6362006407e+02 +1.8954193067e+03 -1.4123765678e+03 2.3694289276e+03 0.0000000000e+00 0.0000e+00 1.0000e+00
       13  1    1    2    0    0 +1.6362006407e+02 -1.8954193067e+03 +2.8531892187e+03 3.4292965155e+03 0.0000000000e+00 0.0000e+00 -1.0000e+00
<mgrwt>
<rscale>  0 0.56168742E+04</rscale>
<asrwt>0</asrwt>
<pdfrwt beam="1">  1        2 0.55688755E+00 0.56168742E+04</pdfrwt>
<pdfrwt beam="2">  1       -2 0.33522406E+00 0.56168742E+04</pdfrwt>
<totfact> 0.75157074E-03</totfact>
</mgrwt>
<rwgt>
<wgt id='morphing_basis_vector_1'> +1.2137047e-06 </wgt>
<wgt id='morphing_basis_vector_2'> +8.2742401e-07 </wgt>
<wgt id='morphing_basis_vector_3'> +1.3392132e-06 </wgt>
<wgt id='morphing_basis_vector_4'> +9.6577577e-07 </wgt>
<wgt id='morphing_basis_vector_5'> +1.5435206e-06 </wgt>
</rwgt>
</event>
<event>
 4      1 +9.0096000e-12 5.96311700e+03 7.81860800e-03 7.26579700e-02
        2 -1    0    0  501    0 +0.0000000000e+00 +0.0000000000e+00 +3.5057344014e+03 3.5057344014e+03 0.0000000000e+00 0.0000e+00 1.0000e+00
       -2 -1    0    0    0  501 -0.0000000000e+00 -0.0000000000e+00 -2.5357569268e+03 2.5357569268e+03 0.0000000000e+00 0.0000e+00 -1.0000e+00
      -13  1    1    2    0    0 +1.0875449356e+03 -8.5940464482e+02 -2.1894714282e+03 2.5913539831e+03 0.0000000000e+00 0.0000e+00 -1.0000e+00
       13  1    1    2    0    0 -1.0875449356e+03 +8.5940464482e+02 +3.1594489028e+03 3.4501373451e+03 0.0000000000e+00 0.0000e+00 1.0000e+00
<mgrwt>
<rscale>  0 0.59631167E+04</rscale>
<asrwt>0</asrwt>
<pdfrwt beam="1">  1        2 0.53934375E+00 0.59631167E+04</pdfrwt>
<pdfrwt beam="2">  1       -2 0.39011645E+00 0.59631167E+04</pdfrwt>
<totfact> 0.39343739E-03</totfact>
</mgrwt>
<rwgt>
<wgt id='morphing_basis_vector_1'> +1.5396681e-06 </wgt>
<wgt id='morphing_basis_vector_2'> +1.0472600e-06 </wgt>
<wgt id='morphing_basis_vector_3'> +1.6991732e-06 </wgt>
<wgt id='morphing_basis_vector_4'> +1.2301453e-06 </wgt>
<wgt id='morphing_basis_vector_5'> +1.9621016e-06 </wgt>
</rwgt>
</event>
<event>
 4      1 +9.0096000e-12 5.63162500e+03 7.81860800e-03 7.30390700e-02
        2 -1    0    0  501    0 +0.0000000000e+00 +0.0000000000e+00 +2.8743333052e+03 2.8743333052e+03 0.0000000000e+00 0.0000e+00 1.0000e+00
       -2 -1    0    0    0  501 -0.0000000000e+00 -0.0000000000e+00 -2.7584833796e+03 2.7584833796e+03 0.0000000000e+00 0.0000e+00 -1.0000e+00
      -13  1    1    2    0    0 +6.3797779869e+02 -2.4965872788e+03 -1.0775847669e+03 2.7930543572e+03 0.0000000000e+00 0.0000e+00 -1.0000e+00
       13  1    1    2    0    0 -6.3797779869e+02 +2.4965872788e+03 +1.1934346925e+03 2.8397623277e+03 0.0000000000e+00 0.0000e+00 1.0000e+00
<mgrwt>
<rscale>  0 0.56316252E+04</rscale>
<asrwt>0</asrwt>
<pdfrwt beam="1">  1        2 0.44220512E+00 0.56316252E+04</pdfrwt>
<pdfrwt beam="2">  1       -2 0.42438206E+00 0.56316252E+04</pdfrwt>
<totfact> 0.64631957E-03</totfact>
</mgrwt>
<rwgt>
<wgt id='morphing_basis_vector_1'> +1.2341955e-06 </wgt>
<wgt id='morphing_basis_vector_2'> +8.5881671e-07 </wgt>
<wgt id='morphing_basis_vector_3'> +1.3659232e-06 </wgt>
<wgt id='morphing_basis_vector_4'> +9.5948307e-07 </wgt>
<wgt id='morphing_basis_vector_5'> +1.5584532e-06 </wgt>
</rwgt>
</event>
<event>
 4      1 +9.0096000e-12 5.99678600e+03 7.81860800e-03 7.26206800e-02
        2 -1    0    0  501    0 +0.0000000000e+00 +0.0000000000e+00 +5.4437713926e+03 5.4437713926e+03 0.0000000000e+00 0.0000e+00 -1.0000e+00
       -2 -1    0    0    0  501 -0.0000000000e+00 -0.0000000000e+00 -1.6514946717e+03 1.6514946717e+03 0.0000000000e+00 0.0000e+00 1.0000e+00
      -13  1    1    2    0    0 +2.1809935679e+03 +1.1325560788e+03 -1.3636180534e+02 2.4613026544e+03 0.0000000000e+00 0.0000e+00 1.0000e+00
       13  1    1    2    0    0 -2.1809935679e+03 -1.1325560788e+03 +3.9286385262e+03 4.6339634099e+03 0.0000000000e+00 0.0000e+00 -1.0000e+00
<mgrwt>
<rscale>  0 0.59967856E+04</rscale>
<asrwt>0</asrwt>
<pdfrwt beam="1">  1        2 0.83750328E+00 0.59967856E+04</pdfrwt>
<pdfrwt beam="2">  1       -2 0.25407611E+00 0.59967856E+04</pdfrwt>
<totfact> 0.23030095E-04</totfact>
</mgrwt>
<rwgt>
<wgt id='morphing_basis_vector_1'> +1.5791240e-06 </wgt>
<wgt id='morphing_basis_vector_2'> +1.0842082e-06 </wgt>
<wgt id='morphing_basis_vector_3'> +1.7451657e-06 </wgt>
<wgt id='morphing_basis_vector_4'> +1.2486661e-06 </wgt>
<wgt id='morphing_basis_vector_5'> +2.0060880e-06 </wgt>
</rwgt>
</event>
<event>
 4      1 +9.0096000e-12 5.66434900e+03 7.81860800e-03 7.30002800e-02
        2 -1    0    0  501    0 +0.0000000000e+00 +0.0000000000e+00 +5.3200338634e+03 5.3200338634e+03 0.0000000000e+00 0.0000e+00 -1.0000e+00
       -2 -1    0    0    0  501 -0.0000000000e+00 -0.0000000000e+00 -1.5077368735e+03 1.5077368735e+03 0.0000000000e+00 0.0000e+00 1.0000e+00
      -13  1    1    2    0    0 +9.4478086223e+02 +2.0446734595e+03 -1.6345012564e+02 2.2583215841e+03 0.0000000000e+00 0.0000e+00 1.0000e+00
       13  1    1    2    0    0 -9.4478086223e+02 -2.0446734595e+03 +3.9757471155e+03 4.5694491528e+03 0.0000000000e+00 0.0000e+00 -1.0000e+00
<mgrwt>
<rscale>  0 0.56643486E+04</rscale>
<asrwt>0</asrwt>
<pdfrwt beam="1">  1        2 0.81846674E+00 0.56643486E+04</pdfrwt>
<pdfrwt beam="2">  1       -2 0.23195952E+00 0.56643486E+04</pdfrwt>
<totfact> 0.55201492E-04</totfact>
</mgrwt>
<rwgt>
<wgt id='morphing_basis_vector_1'> +1.2570258e-06 </wgt>
<wgt id='morphing_basis_vector_2'> +8.6122562e-07 </wgt>
<wgt id='morphing_basis_vector_3'> +1.3881138e-06 </wgt>
<wgt id='morphing_basis_vector_4'> +9.9492154e-07 </wgt>
<wgt id='morphing_basis_vector_5'> +1.5961672e-06 </wgt>
</rwgt>
</event>
<event>
 4      1 +9.0096000e-12 5.70110200e+03 7.81860800e-03 7.29570200e-02
        2 -1    0    0  501    0 +0.0000000000e+00 +0.0000000000e+00 +3.7680588970e+03 3.7680588970e+03 0.0000000000e+00 0.0000e+00 -1.0000e+00
       -2 -1    0    0    0  501 -0.0000000000e+00 -0.0000000000e+00 -2.1564524568e+03 2.1564524568e+03 0.0000000000e+00 0.0000e+00 1.0000e+00
      -13  1    1    2    0    0 +5.7005460351e+02 +2.4162802824e+03 -6.4989995388e+02 2.5662701736e+03 0.0000000000e+00 0.0000e+00 1.0000e+00
       13  1    1    2    0    0 -5.7005460351e+02 -2.4162802824e+03 +2.2615063940e+03 3.3582411802e+03 0.0000000000e+00 0.0000e+00 -1.0000e+00
<mgrwt>
<rscale>  0 0.57011016E+04</rscale>
<asrwt>0</asrwt>
<pdfrwt beam="1">  1        2 0.57970137E+00 0.57011016E+04</pdfrwt>
<pdfrwt beam="2">  1       -2 0.33176192E+00 0.57011016E+04</pdfrwt>
<totfact> 0.60409497E-03</totfact>
</mgrwt>
<rwgt>
<wgt id='morphing_basis_vector_1'> +1.2927830e-06 </wgt>
<wgt id='morphing_basis_vector_2'> +8.9228182e-07 </wgt>
<wgt id='morphing_basis_vector_3'> +1.4292132e-06 </wgt>
<wgt id='morphing_basis_vector_4'> +1.0148650e-06 </wgt>
<wgt id='morphing_basis_vector_5'> +1.6375823e-06 </wgt>
</rwgt>
</event>
<event>
 4      1 +9.0096000e-12 5.69711400e+03 7.81860800e-03 7.29617000e-02
        2 -1    0    0  501    0 +0.0000000000e+00 +0.0000000000e+00 +2.6664823472e+03 2.6664823472e+03 0.0000000000e+00 0.0000e+00 -1.0000e+00
       -2 -1    0    0    0  501 -0.0000000000e+00 -0.0000000000e+00 -3.0430639335e+03 3.0430639335e+03 0.0000000000e+00 0.0000e+00 1.0000e+00
      -13  1    1    2    0    0 -9.3518889260e+02 -9.3517095762e+02 -2.7167219898e+03 3.0215395670e+03 0.0000000000e+00 0.0000e+00 1.0000e+00
       13  1    1    2    0    0 +9.3518889260e+02 +9.3517095762e+02 +2.3401404035e+03 2.6880067137e+03 0.0000000000e+00 0.0000e+00 -1.0000e+00
<mgrwt>
<rscale>  0 0.56971137E+04</rscale>
<asrwt>0</asrwt>
<pdfrwt beam="1">  1        2 0.41022805E+00 0.56971137E+04</pdfrwt>
<pdfrwt beam="2">  1       -2 0.46816368E+00 0.56971137E+04</pdfrwt>
<totfact> 0.43091385E-03</totfact>
</mgrwt>
<rwgt>
<wgt id='morphing_basis_vector_1'> +1.2833497e-06 </wgt>
<wgt id='morphing_basis_vector_2'> +8.7267872e-07 </wgt>
<wgt id='morphing_basis_vector_3'> +1.4157155e-06 </wgt>
<wgt id='morphing_basis_vector_4'> +1.0244788e-06 </wgt>
<wgt id='morphing_basis_vector_5'> +1.6340410e-06 </wgt>
</rwgt>
</event>
<event>
 4      1 +9.0096000e-12 5.72268800e+03 7.81860800e-03 7.29317700e-02
        2 -1    0    0  501    0 +0.0000000000e+00 +0.0000000000e+00 +3.1513081049e+03 3.1513081049e+03 0.0000000000e+00 0.0000e+00 1.0000e+00
       -2 -1    0    0    0  501 -0.0000000000e+00 -0.0000000000e+00 -2.5980607761e+03 2.5980607761e+03 0.0000000000e+00 0.0000e+00 -1.0000e+00
      -13  1    1    2    0    0 -1.0123827553e+03 -2.0727958342e+03 -1.4241626084e+03 2.7110220487e+03 0.0000000000e+00 0.0000e+00 -1.0000e+00
       13  1    1    2    0    0 +1.0123827553e+03 +2.0727958342e+03 +1.9774099372e+03 3.0383468323e+03 0.0000000000e+00 0.0000e+00 1.0000e+00
<mgrwt>
<rscale>  0 0.57226882E+04</rscale>
<asrwt>0</asrwt>
<pdfrwt beam="1">  1        2 0.48481663E+00 0.57226882E+04</pdfrwt>
<pdfrwt beam="2">  1       -2 0.39970166E+00 0.57226882E+04</pdfrwt>
<totfact> 0.61541338E-03</totfact>
</mgrwt>
<rwgt>
<wgt id='morphing_basis_vector_1'> +1.3097834e-06 </wgt>
<wgt id='morphing_basis_vector_2'> +8.9810596e-07 </wgt>
<wgt id='morphing_basis_vector_3'> +1.4466734e-06 </wgt>
<wgt id='morphing_basis_vector_4'> +1.0360047e-06 </wgt>
<wgt id='morphing_basis_vector_5'> +1.6630610e-06 </wgt>
</rwgt>
</event>
<event>
 4      1 +9.0096000e-12 6.37953100e+03 7.81860800e-03 7.22134900e-02
        2 -1    0    0  501    0 +0.0000000000e+00 +0.0000000000e+00 +4.6814669758e+03 4.6814669758e+03 0.0000000000e+00 0.0000e+00 -1.0000e+00
       -2 -1    0    0    0  501 -0.0000000000e+00 -0.0000000000e+00 -2.1733791001e+03 2.1733791001e+03 0.0000000000e+00 0.0000e+00 1.0000e+00
      -13  1    1    2    0    0 -2.4609427453e+03 -2.0278257062e+03 +1.1688511497e+03 3.3962522433e+03 0.0000000000e+00 0.0000e+00 1.0000e+00
       13  1    1    2    0    0 +2.4609427453e+03 +2.0278257062e+03 +1.3392367260e+03 3.4585938326e+03 0.0000000000e+00 0.0000e+00 -1.0000e+00
<mgrwt>
<rscale>  0 0.63795305E+04</rscale>
<asrwt>0</asrwt>
<pdfrwt beam="1">  1        2 0.72022569E+00 0.63795305E+04</pdfrwt>
<pdfrwt beam="2">  1       -2 0.33436602E+00 0.63795305E+04</pdfrwt>
<totfact> 0.76979603E-04</totfact>
</mgrwt>
<rwgt>
<wgt id='morphing_basis_vector_1'> +2.0832689e-06 </wgt>
<wgt id='morphing_basis_vector_2'> +1.5697428e-06 </wgt>
<wgt id='morphing_basis_vector_3'> +2.3362204e-06 </wgt>
<wgt id='morphing_basis_vector_4'> +1.4677426e-06 </wgt>
<wgt id='morphing_basis_vector_5'> +2.5595691e-06 </wgt>
</rwgt>
</event>
<event>
 4      1 +9.0096000e-12 5.79982200e+03 7.81860800e-03 7.28424600e-02
        2 -1    0    0  501    0 +0.0000000000e+00 +0.0000000000e+00 +3.4800839426e+03 3.4800839426e+03 0.0000000000e+00 0.0000e+00 -1.0000e+00
       -2 -1    0    0    0  501 -0.0000000000e+00 -0.0000000000e+00 -2.4164601542e+03 2.4164601542e+03 0.0000000000e+00 0.0000e+00 1.0000e+00
      -13  1    1    2    0    0 -1.0959797813e+03 -1.2142877605e+02 +3.2586229063e+03 3.4401366069e+03 0.0000000000e+00 0.0000e+00 1.0000e+00
       13  1    1    2    0    0 +1.0959797813e+03 +1.2142877605e+02 -2.1949991179e+03 2.4564074899e+03 0.0000000000e+00 0.0000e+00 -1.0000e+00
<mgrwt>
<rscale>  0 0.57998221E+04</rscale>
<asrwt>0</asrwt>
<pdfrwt beam="1">  1        2 0.53539753E+00 0.57998221E+04</pdfrwt>
<pdfrwt beam="2">  1       -2 0.37176310E+00 0.57998221E+04</pdfrwt>
<totfact> 0.54631095E-03</totfact>
</mgrwt>
<rwgt>
<wgt id='morphing_basis_vector_1'> +1.8822982e-06 </wgt>
<wgt id='morphing_basis_vector_2'> +2.4170574e-06 </wgt>
<wgt id='morphing_basis_vector_3'> +2.3429156e-06 </wgt>
<wgt id='morphing_basis_vector_4'> +2.2871420e-08 </wgt>
<wgt id='morphing_basis_vector_5'> +1.6648027e-06 </wgt>
</rwgt>
</event>
<event>
 4      1 +9.0096000e-12 6.11577900e+03 7.81860800e-03 7.24908500e-02
        2 -1    0    0  501    0 +0.0000000000e+00 +0.0000000000e+00 +3.9988743203e+03 3.9988743203e+03 0.0000000000e+00 0.0000e+00 -1.0000e+00
       -2 -1    0    0    0  501 -0.0000000000e+00 -0.0000000000e+00 -2.3383302832e+03 2.3383302832e+03 0.0000000000e+00 0.0000e+00 1.0000e+00
      -13  1    1    2    0    0 -1.3680081586e+03 -6.4562827987e+02 -1.9234639120e+03 2.4470381318e+03 0.0000000000e+00 0.0000e+00 1.0000e+00
       13  1    1    2    0    0 +1.3680081586e+03 +6.4562827987e+02 +3.5840079492e+03 3.8901664717e+03 0.0000000000e+00 0.0000e+00 -1.0000e+00
<mgrwt>
<rscale>  0 0.61157792E+04</rscale>
<asrwt>0</asrwt>
<pdfrwt beam="1">  1        2 0.61521143E+00 0.61157792E+04</pdfrwt>
<pdfrwt beam="2">  1       -2 0.35974312E+00 0.61157792E+04</pdfrwt>
<totfact> 0.24889970E-03</totfact>
</mgrwt>
<rwgt>
<wgt id='morphing_basis_vector_1'> +1.7031915e-06 </wgt>
<wgt id='morphing_basis_vector_2'> +1.1588368e-06 </wgt>
<wgt id='morphing_basis_vector_3'> +1.8800824e-06 </wgt>
<wgt id='morphing_basis_vector_4'> +1.3611506e-06 </wgt>
<wgt id='morphing_basis_vector_5'> +2.1713398e-06 </wgt>
</rwgt>
</event>
<event>
 4      1 +9.0096000e-12 5.77039400e+03 7.81860800e-03 7.28763600e-02
        2 -1    0    0  501    0 +0.0000000000e+00 +0.0000000000e+00 +2.6619439056e+03 2.6619439056e+03 0.0000000000e+00 0.0000e+00 1.0000e+00
       -2 -1    0    0    0  501 -0.0000000000e+00 -0.0000000000e+00 -3.1271738150e+03 3.1271738150e+03 0.0000000000e+00 0.0000e+00 -1.0000e+00
      -13  1    1    2    0    0 -2.0844045366e+02 +9.6982906375e+02 +2.4854834422e+03 2.6761247686e+03 0.0000000000e+00 0.0000e+00 1.0000e+00
       13  1    1    2    0    0 +2.0844045366e+02 -9.6982906375e+02 -2.9507133516e+03 3.1129929520e+03 0.0000000000e+00 0.0000e+00 -1.0000e+00
<mgrwt>
<rscale>  0 0.57703938E+04</rscale>
<asrwt>0</asrwt>
<pdfrwt beam="1">  1        2 0.40952983E+00 0.57703938E+04</pdfrwt>
<pdfrwt beam="2">  1       -2 0.48110366E+00 0.57703938E+04</pdfrwt>
<totfact> 0.34660387E-03</totfact>
</mgrwt>
<rwgt>
<wgt id='morphing_basis_vector_1'> +1.8468509e-06 </wgt>
<wgt id='morphing_basis_vector_2'> +2.3754499e-06 </wgt>
<wgt id='morphing_basis_vector_3'> +2.2995182e-06 </wgt>
<wgt id='morphing_basis_vector_4'> +1.7336903e-08 </wgt>
<wgt id='morphing_basis_vector_5'> +1.6307725e-06 </wgt>
</rwgt>
</event>
<event>
 4      1 +9.0096000e-12 5.60670100e+03 7.81860800e-03 7.30688000e-02
        2 -1    0    0  501    0 +0.0000000000e+00 +0.0000000000e+00 +2.5571652724e+03 2.5571652724e+03 0.0000000000e+00 0.0000e+00 -1.0000e+00
       -2 -1    0    0    0  501 -0.0000000000e+00 -0.0000000000e+00 -3.0732371923e+03 3.0732371923e+03 0.0000000000e+00 0.0000e+00 1.0000e+00
      -13  1    1    2    0    0 +2.0997601654e+03 -7.6346974676e+02 -1.9583847660e+03 2.9710519514e+03 0.0000000000e+00 0.0000e+00 1.0000e+00
       13  1    1    2    0    0 -2.0997601654e+03 +7.6346974676e+02 +1.4423128461e+03 2.6593505133e+03 0.0000000000e+00 0.0000e+00 -1.0000e+00
<mgrwt>
<rscale>  0 0.56067015E+04</rscale>
<asrwt>0</asrwt>
<pdfrwt beam="1">  1        2 0.39341004E+00 0.56067015E+04</pdfrwt>
<pdfrwt beam="2">  1       -2 0.47280572E+00 0.56067015E+04</pdfrwt>
<totfact> 0.46764995E-03</totfact>
</mgrwt>
<rwgt>
<wgt id='morphing_basis_vector_1'> +1.2067991e-06 </wgt>
<wgt id='morphing_basis_vector_2'> +8.2685475e-07 </wgt>
<wgt id='morphing_basis_vector_3'> +1.3325382e-06 </wgt>
<wgt id='morphing_basis_vector_4'> +9.5484970e-07 </wgt>
<wgt id='morphing_basis_vector_5'> +1.5320108e-06 </wgt>
</rwgt>
</event>
<event>
 4      1 +9.0096000e-12 5.97234400e+03 7.81860800e-03 7.26477200e-02
        2 -1    0    0  501    0 +0.0000000000e+00 +0.0000000000e+00 +3.7229687397e+03 3.7229687397e+03 0.0000000000e+00 0.0000e+00 -1.0000e+00
       -2 -1    0    0    0  501 -0.0000000000e+00 -0.0000000000e+00 -2.3951915605e+03 2.3951915605e+03 0.0000000000e+00 0.0000e+00 1.0000e+00
      -13  1    1    2    0    0 +1.6038646433e+03 +1.0189560663e+03 -1.6959537312e+03 2.5469417578e+03 0.0000000000e+00 0.0000e+00 1.0000e+00
       13  1    1    2    0    0 -1.6038646433e+03 -1.0189560663e+03 +3.0237309104e+03 3.5712185424e+03 0.0000000000e+00 0.0000e+00 -1.0000e+00
<mgrwt>
<rscale>  0 0.59723440E+04</rscale>
<asrwt>0</asrwt>
<pdfrwt beam="1">  1        2 0.57276442E+00 0.59723440E+04</pdfrwt>
<pdfrwt beam="2">  1       -2 0.36849101E+00 0.59723440E+04</pdfrwt>
<totfact> 0.37111065E-03</totfact>
</mgrwt>
<rwgt>
<wgt id='morphing_basis_vector_1'> +1.5500164e-06 </wgt>
<wgt id='morphing_basis_vector_2'> +1.0561533e-06 </wgt>
<wgt id='morphing_basis_vector_3'> +1.7110493e-06 </wgt>
<wgt id='morphing_basis_vector_4'> +1.2360433e-06 </wgt>
<wgt id='morphing_basis_vector_5'> +1.9741543e-06 </wgt>
</rwgt>
</event>
<event>
 4      1 +9.0096000e-12 5.77406100e+03 7.81860800e-03 7.28721300e-02
        2 -1    0    0  501    0 +0.0000000000e+00 +0.0000000000e+00 +1.5349817939e+03 1.5349817939e+03 0.0000000000e+00 0.0000e+00 -1.0000e+00
       -2 -1    0    0    0  501 -0.0000000000e+00 -0.0000000000e+00 -5.4299958944e+03 5.4299958944e+03 0.0000000000e+00 0.0000e+00 1.0000e+00
      -13  1    1    2    0    0 +4.9601953807e+02 +1.8413236779e+03 -4.5621660268e+03 4.9446806899e+03 0.0000000000e+00 0.0000e+00 1.0000e+00
       13  1    1    2    0    0 -4.9601953807e+02 -1.8413236779e+03 +6.6715192628e+02 2.0202969984e+03 0.0000000000e+00 0.0000e+00 -1.0000e+00
<mgrwt>
<rscale>  0 0.57740609E+04</rscale>
<asrwt>0</asrwt>
<pdfrwt beam="1">  1        2 0.23615104E+00 0.57740609E+04</pdfrwt>
<pdfrwt beam="2">  1       -2 0.83538400E+00 0.57740609E+04</pdfrwt>
<totfact> 0.74754330E-04</totfact>
</mgrwt>
<rwgt>
<wgt id='morphing_basis_vector_1'> +1.3548341e-06 </wgt>
<wgt id='morphing_basis_vector_2'> +9.2342749e-07 </wgt>
<wgt id='morphing_basis_vector_3'> +1.4952432e-06 </wgt>
<wgt id='morphing_basis_vector_4'> +1.0791383e-06 </wgt>
<wgt id='morphing_basis_vector_5'> +1.7241837e-06 </wgt>
</rwgt>
</event>
<event>
 4      1 +9.0096000e-12 6.01077400e+03 7.81860800e-03 7.26052600e-02
        2 -1    0    0  501    0 +0.0000000000e+00 +0.0000000000e+00 +3.4460300204e+03 3.4460300204e+03 0.0000000000e+00 0.0000e+00 1.0000e+00
       -2 -1    0    0    0  501 -0.0000000000e+00 -0.0000000000e+00 -2.6210885320e+03 2.6210885320e+03 0.0000000000e+00 0.0000e+00 -1.0000e+00
      -13  1    1    2    0    0 +1.7313989165e+03 -1.4474865850e+03 -1.5909243650e+03 2.7611591691e+03 0.0000000000e+00 0.0000e+00 -1.0000e+00
       13  1    1    2    0    0 -1.7313989165e+03 +1.4474865850e+03 +2.4158658534e+03 3.3059593832e+03 0.0000000000e+00 0.0000e+00 1.0000e+00
<mgrwt>
<rscale>  0 0.60107736E+04</rscale>
<asrwt>0</asrwt>
<pdfrwt beam="1">  1        2 0.53015847E+00 0.60107736E+04</pdfrwt>
<pdfrwt beam="2">  1       -2 0.40324439E+00 0.60107736E+04</pdfrwt>
<totfact> 0.35576658E-03</totfact>
</mgrwt>
<rwgt>
<wgt id='morphing_basis_vector_1'> +1.5918296e-06 </wgt>
<wgt id='morphing_basis_vector_2'> +1.0883455e-06 </wgt>
<wgt id='morphing_basis_vector_3'> +1.7581629e-06 </wgt>
<wgt id='morphing_basis_vector_4'> +1.2647590e-06 </wgt>
<wgt id='morphing_basis_vector_5'> +2.0252805e-06 </wgt>
</rwgt>
</event>
<event>
 4      1 +9.0096000e-12 5.90347900e+03 7.81860800e-03 7.27246400e-02
        2 -1    0    0  501    0 +0.0000000000e+00 +0.0000000000e+00 +2.9163622329e+03 2.9163622329e+03 0.0000000000e+00 0.0000e+00 -1.0000e+00
       -2 -1    0    0    0  501 -0.0000000000e+00 -0.0000000000e+00 -2.9875459224e+03 2.9875459224e+03 0.0000000000e+00 0.0000e+00 1.0000e+00
      -13  1    1    2    0    0 -1.4142704426e+03 -1.1207775286e+03 +2.3004852682e+03 2.9237878895e+03 0.0000000000e+00 0.0000e+00 -1.0000e+00
       13  1    1    2    0    0 +1.4142704426e+03 +1.1207775286e+03 -2.3716689578e+03 2.9801202658e+03 0.0000000000e+00 0.0000e+00 1.0000e+00
<mgrwt>
<rscale>  0 0.59034790E+04</rscale>
<asrwt>0</asrwt>
<pdfrwt beam="1">  1        2 0.44867112E+00 0.59034790E+04</pdfrwt>
<pdfrwt beam="2">  1       -2 0.45962245E+00 0.59034790E+04</pdfrwt>
<totfact> 0.34082125E-03</totfact>
</mgrwt>
<rwgt>
<wgt id='morphing_basis_vector_1'> +1.9675005e-06 </wgt>
<wgt id='morphing_basis_vector_2'> +2.4395340e-06 </wgt>
<wgt id='morphing_basis_vector_3'> +2.4292837e-06 </wgt>
<wgt id='morphing_basis_vector_4'> +1.3718343e-07 </wgt>
<wgt id='morphing_basis_vector_5'> +1.7967848e-06 </wgt>
</rwgt>
</event>
<event>
 4      1 +9.0096000e-12 5.59162000e+03 7.81860800e-03 7.30868700e-02
        2 -1    0    0  501    0 +0.0000000000e+00 +0.0000000000e+00 +3.1722309502e+03 3.1722309502e+03 0.0000000000e+00 0.0000e+00 1.0000e+00
       -2 -1    0    0    0  501 -0.0000000000e+00 -0.0000000000e+00 -2.4640553664e+03 2.4640553664e+03 0.0000000000e+00 0.0000e+00 -1.0000e+00
      -13  1    1    2    0    0 +4.6425889201e+01 +7.0999468564e+02 -2.3712677420e+03 2.4757137398e+03 0.0000000000e+00 0.0000e+00 -1.0000e+00
       13  1    1    2    0    0 -4.6425889201e+01 -7.0999468564e+02 +3.0794433258e+03 3.1605725769e+03 0.0000000000e+00 0.0000e+00 1.0000e+00
<mgrwt>
<rscale>  0 0.55916197E+04</rscale>
<asrwt>0</asrwt>
<pdfrwt beam="1">  1        2 0.48803553E+00 0.55916197E+04</pdfrwt>
<pdfrwt beam="2">  1       -2 0.37908544E+00 0.55916197E+04</pdfrwt>
<totfact> 0.81871899E-03</totfact>
</mgrwt>
<rwgt>
<wgt id='morphing_basis_vector_1'> +1.1909665e-06 </wgt>
<wgt id='morphing_basis_vector_2'> +8.0939045e-07 </wgt>
<wgt id='morphing_basis_vector_3'> +1.3134800e-06 </wgt>
<wgt id='morphing_basis_vector_4'> +9.5085905e-07 </wgt>
<wgt id='morphing_basis_vector_5'> +1.5160783e-06 </wgt>
</rwgt>
</event>
<event>
 4      1 +9.0096000e-12 6.12013600e+03 7.81860800e-03 7.24861500e-02
        2 -1    0    0  501    0 +0.0000000000e+00 +0.0000000000e+00 +1.9140596827e+03 1.9140596827e+03 0.0000000000e+00 0.0000e+00 -1.0000e+00
       -2 -1    0    0    0  501 -0.0000000000e+00 -0.0000000000e+00 -4.8922279774e+03 4.8922279774e+03 0.0000000000e+00 0.0000e+00 1.0000e+00
      -13  1    1    2    0    0 +1.6488494218e+03 +2.0505775854e+03 -3.2264192728e+03 4.1633345017e+03 0.0000000000e+00 0.0000e+00 1.0000e+00
       13  1    1    2    0    0 -1.6488494218e+03 -2.0505775854e+03 +2.4825097811e+02 2.6429531584e+03 0.0000000000e+00 0.0000e+00 -1.0000e+00
<mgrwt>
<rscale>  0 0.61201361E+04</rscale>
<asrwt>0</asrwt>
<pdfrwt beam="1">  1        2 0.29447072E+00 0.61201361E+04</pdfrwt>
<pdfrwt beam="2">  1       -2 0.75265045E+00 0.61201361E+04</pdfrwt>
<totfact> 0.55752718E-04</totfact>
</mgrwt>
<rwgt>
<wgt id='morphing_basis_vector_1'> +1.7149441e-06 </wgt>
<wgt id='morphing_basis_vector_2'> +1.1824055e-06 </wgt>
<wgt id='morphing_basis_vector_3'> +1.8967253e-06 </wgt>
<wgt id='morphing_basis_vector_4'> +1.3502661e-06 </wgt>
<wgt id='morphing_basis_vector_5'> +2.1763038e-06 </wgt>
</rwgt>
</event>
<event>
 4      1 +9.0096000e-12 5.90090200e+03 7.81860800e-03 7.27275400e-02
        2 -1    0    0  501    0 +0.0000000000e+00 +0.0000000000e+00 +3.2384078173e+03 3.2384078173e+03 0.0000000000e+00 0.0000e+00 -1.0000e+00
       -2 -1    0    0    0  501 -0.0000000000e+00 -0.0000000000e+00 -2.6880987388e+03 2.6880987388e+03 0.0000000000e+00 0.0000e+00 1.0000e+00
      -13  1    1    2    0    0 +1.5051097577e+03 -8.8984726741e+02 -2.1117048378e+03 2.7416201166e+03 0.0000000000e+00 0.0000e+00 1.0000e+00
       13  1    1    2    0    0 -1.5051097577e+03 +8.8984726741e+02 +2.6620139163e+03 3.1848864395e+03 0.0000000000e+00 0.0000e+00 -1.0000e+00
<mgrwt>
<rscale>  0 0.59009016E+04</rscale>
<asrwt>0</asrwt>
<pdfrwt beam="1">  1        2 0.49821659E+00 0.59009016E+04</pdfrwt>
<pdfrwt beam="2">  1       -2 0.41355365E+00 0.59009016E+04</pdfrwt>
<totfact> 0.42968807E-03</totfact>
</mgrwt>
<rwgt>
<wgt id='morphing_basis_vector_1'> +1.4770326e-06 </wgt>
<wgt id='morphing_basis_vector_2'> +1.0056710e-06 </wgt>
<wgt id='morphing_basis_vector_3'> +1.6301514e-06 </wgt>
<wgt id='morphing_basis_vector_4'> +1.1784771e-06 </wgt>
<wgt id='morphing_basis_vector_5'> +1.8812259e-06 </wgt>
</rwgt>
</event>
<event>
 4      1 +9.0096000e-12 6.04754100e+03 7.81860800e-03 7.25649300e-02
        2 -1    0    0  501    0 +0.0000000000e+00 +0.0000000000e+00 +3.0647270955e+03 3.0647270955e+03 0.0000000000e+00 0.0000e+00 1.0000e+00
       -2 -1    0    0    0  501 -0.0000000000e+00 -0.0000000000e+00 -2.9833617200e+03 2.9833617200e+03 0.0000000000e+00 0.0000e+00 -1.0000e+00
      -13  1    1    2    0    0 -1.5159935890e+03 +2.6949997999e+02 -2.5619215099e+03 2.9890313856e+03 0.0000000000e+00 0.0000e+00 -1.0000e+00
       13  1    1    2    0    0 +1.5159935890e+03 -2.6949997999e+02 +2.6432868854e+03 3.0590574299e+03 0.0000000000e+00 0.0000e+00 1.0000e+00
<mgrwt>
<rscale>  0 0.60475415E+04</rscale>
<asrwt>0</asrwt>
<pdfrwt beam="1">  1        2 0.47149648E+00 0.60475415E+04</pdfrwt>
<pdfrwt beam="2">  1       -2 0.45897872E+00 0.60475415E+04</pdfrwt>
<totfact> 0.27282689E-03</totfact>
</mgrwt>
<rwgt>
<wgt id='morphing_basis_vector_1'> +1.6286491e-06 </wgt>
<wgt id='morphing_basis_vector_2'> +1.1081568e-06 </wgt>
<wgt id='morphing_basis_vector_3'> +1.7976551e-06 </wgt>
<wgt id='morphing_basis_vector_4'> +1.3011885e-06 </wgt>
<wgt id='morphing_basis_vector_5'> +2.0758335e-06 </wgt>
</rwgt>
</event>
<event>
 4      1 +9.0096000e-12 5.62047400e+03 7.81860800e-03 7.30523600e-02
        2 -1    0    0  501    0 +0.0000000000e+00 +0.0000000000e+00 +4.4840823204e+03 4.4840823204e+03 0.0000000000e+00 0.0000e+00 1.0000e+00
       -2 -1    0    0    0  501 -0.0000000000e+00 -0.0000000000e+00 -1.7612148021e+03 1.7612148021e+03 0.0000000000e+00 0.0000e+00 -1.0000e+00
      -13  1    1    2    0    0 -1.2542334131e+03 +2.5138747312e+03 +1.2847346103e+03 3.0892087397e+03 0.0000000000e+00 0.0000e+00 1.0000e+00
       13  1    1    2    0    0 +1.2542334131e+03 -2.5138747312e+03 +1.4381329080e+03 3.1560883827e+03 0.0000000000e+00 0.0000e+00 -1.0000e+00
<mgrwt>
<rscale>  0 0.56204741E+04</rscale>
<asrwt>0</asrwt>
<pdfrwt beam="1">  1        2 0.68985881E+00 0.56204741E+04</pdfrwt>
<pdfrwt beam="2">  1       -2 0.27095613E+00 0.56204741E+04</pdfrwt>
<totfact> 0.35421684E-03</totfact>
</mgrwt>
<rwgt>
<wgt id='morphing_basis_vector_1'> +1.2566095e-06 </wgt>
<wgt id='morphing_basis_vector_2'> +9.4637965e-07 </wgt>
<wgt id='morphing_basis_vector_3'> +1.4075071e-06 </wgt>
<wgt id='morphing_basis_vector_4'> +8.8323250e-07 </wgt>
<wgt id='morphing_basis_vector_5'> +1.5403470e-06 </wgt>
</rwgt>
</event>
<event>
 4      1 +9.0096000e-12 6.04204500e+03 7.81860800e-03 7.25709400e-02
        2 -1    0    0  501    0 +0.0000000000e+00 +0.0000000000e+00 +2.7838476494e+03 2.7838476494e+03 0.0000000000e+00 0.0000e+00 -1.0000e+00
       -2 -1    0    0    0  501 -0.0000000000e+00 -0.0000000000e+00 -3.2784036036e+03 3.2784036036e+03 0.0000000000e+00 0.0000e+00 1.0000e+00
      -13  1    1    2    0    0 -2.9240860188e+03 +6.2819382535e+00 -1.0089330692e+03 3.0932611345e+03 0.0000000000e+00 0.0000e+00 1.0000e+00
       13  1    1    2    0    0 +2.9240860188e+03 -6.2819382535e+00 +5.1437711498e+02 2.9689901186e+03 0.0000000000e+00 0.0000e+00 -1.0000e+00
<mgrwt>
<rscale>  0 0.60420447E+04</rscale>
<asrwt>0</asrwt>
<pdfrwt beam="1">  1        2 0.42828425E+00 0.60420447E+04</pdfrwt>
<pdfrwt beam="2">  1       -2 0.50436979E+00 0.60420447E+04</pdfrwt>
<totfact> 0.19126875E-03</totfact>
</mgrwt>
<rwgt>
<wgt id='morphing_basis_vector_1'> +1.6452219e-06 </wgt>
<wgt id='morphing_basis_vector_2'> +1.1700975e-06 </wgt>
<wgt id='morphing_basis_vector_3'> +1.8278308e-06 </wgt>
<wgt id='morphing_basis_vector_4'> +1.2483760e-06 </wgt>
<wgt id='morphing_basis_vector_5'> +2.0642360e-06 </wgt>
</rwgt>
</event>
<event>
 4      1 +9.0096000e-12 5.56179500e+03 7.81860800e-03 7.31227700e-02
        2 -1    0    0  501    0 +0.0000000000e+00 +0.0000000000e+00 +3.8845999457e+03 3.8845999457e+03 0.0000000000e+00 0.0000e+00 1.0000e+00
       -2 -1    0    0    0  501 -0.0000000000e+00 -0.0000000000e+00 -1.9907816704e+03 1.9907816704e+03 0.0000000000e+00 0.0000e+00 -1.0000e+00
      -13  1    1    2    0    0 +1.4592384981e+03 +8.4277275055e+02 -1.3900003673e+03 2.1844321744e+03 0.0000000000e+00 0.0000e+00 -1.0000e+00
       13  1    1    2    0    0 -1.4592384981e+03 -8.4277275055e+02 +3.2838186426e+03 3.6909494417e+03 0.0000000000e+00 0.0000e+00 1.0000e+00
<mgrwt>
<rscale>  0 0.55617948E+04</rscale>
<asrwt>0</asrwt>
<pdfrwt beam="1">  1        2 0.59763076E+00 0.55617948E+04</pdfrwt>
<pdfrwt beam="2">  1       -2 0.30627410E+00 0.55617948E+04</pdfrwt>
<totfact> 0.72630443E-03</totfact>
</mgrwt>
<rwgt>
<wgt id='morphing_basis_vector_1'> +1.1664291e-06 </wgt>
<wgt id='morphing_basis_vector_2'> +7.9405001e-07 </wgt>
<wgt id='morphing_basis_vector_3'> +1.2866685e-06 </wgt>
<wgt id='morphing_basis_vector_4'> +9.2939420e-07 </wgt>
<wgt id='morphing_basis_vector_5'> +1.4838007e-06 </wgt>
</rwgt>
</event>
<event>
 4      1 +9.0096000e-12 5.64032000e+03 7.81860800e-03 7.30287400e-02
        2 -1    0    0  501    0 +0.0000000000e+00 +0.0000000000e+00 +2.0898843652e+03 2.0898843652e+03 0.0000000000e+00 0.0000e+00 1.0000e+00
       -2 -1    0    0    0  501 -0.0000000000e+00 -0.0000000000e+00 -3.8056183734e+03 3.8056183734e+03 0.0000000000e+00 0.0000e+00 -1.0000e+00
      -13  1    1    2    0    0 +2.1805308819e+03 -1.2589123461e+03 +4.6993142971e+02 2.5613298833e+03 0.0000000000e+00 0.0000e+00 1.0000e+00
       13  1    1    2    0    0 -2.1805308819e+03 +1.2589123461e+03 -2.1856654379e+03 3.3341728553e+03 0.0000000000e+00 0.0000e+00 -1.0000e+00
<mgrwt>
<rscale>  0 0.56403200E+04</rscale>
<asrwt>0</asrwt>
<pdfrwt beam="1">  1        2 0.32152068E+00 0.56403200E+04</pdfrwt>
<pdfrwt beam="2">  1       -2 0.58547974E+00 0.56403200E+04</pdfrwt>
<totfact> 0.12848234E-03</totfact>
</mgrwt>
<rwgt>
<wgt id='morphing_basis_vector_1'> +1.4314926e-06 </wgt>
<wgt id='morphing_basis_vector_2'> +1.4209492e-06 </wgt>
<wgt id='morphing_basis_vector_3'> +1.6835212e-06 </wgt>
<wgt id='morphing_basis_vector_4'> +5.6017062e-07 </wgt>
<wgt id='morphing_basis_vector_5'> +1.5340702e-06 </wgt>
</rwgt>
</event>
<event>
 4      1 +9.0096000e-12 5.62827200e+03 7.81860800e-03 7.30430600e-02
        2 -1    0    0  501    0 +0.0000000000e+00 +0.0000000000e+00 +3.6193133461e+03 3.6193133461e+03 0.0000000000e+00 0.0000e+00 1.0000e+00
       -2 -1    0    0    0  501 -0.0000000000e+00 -0.0000000000e+00 -2.1880837701e+03 2.1880837701e+03 0.0000000000e+00 0.0000e+00 -1.0000e+00
      -13  1    1    2    0    0 +1.9737017421e+03 +8.9786851897e+02 +2.5664973261e+03 3.3598474622e+03 0.0000000000e+00 0.0000e+00 -1.0000e+00
       13  1    1    2    0    0 -1.9737017421e+03 -8.9786851897e+02 -1.1352677502e+03 2.4475496540e+03 0.0000000000e+00 0.0000e+00 1.0000e+00
<mgrwt>
<rscale>  0 0.56282718E+04</rscale>
<asrwt>0</asrwt>
<pdfrwt beam="1">  1        2 0.55681744E+00 0.56282718E+04</pdfrwt>
<pdfrwt beam="2">  1       -2 0.33662827E+00 0.56282718E+04</pdfrwt>
<totfact> 0.73572654E-03</totfact>
</mgrwt>
<rwgt>
<wgt id='morphing_basis_vector_1'> +1.5362622e-06 </wgt>
<wgt id='morphing_basis_vector_2'> +1.7521356e-06 </wgt>
<wgt id='morphing_basis_vector_3'> +1.8597346e-06 </wgt>
<wgt id='morphing_basis_vector_4'> +3.0556537e-07 </wgt>
<wgt id='morphing_basis_vector_5'> +1.4999819e-06 </wgt>
</rwgt>
</event>
<event>
 4      1 +9.0096000e-12 6.06522400e+03 7.81860800e-03 7.25456400e-02
        2 -1    0    0  501    0 +0.0000000000e+00 +0.0000000000e+00 +3.3338193335e+03 3.3338193335e+03 0.0000000000e+00 0.0000e+00 1.0000e+00
       -2 -1    0    0    0  501 -0.0000000000e+00 -0.0000000000e+00 -2.7586186619e+03 2.7586186619e+03 0.0000000000e+00 0.0000e+00 -1.0000e+00
      -13  1    1    2    0    0 -6.7428879749e+02 -4.8213696612e+02 -2.6426127771e+03 2.7695710365e+03 0.0000000000e+00 0.0000e+00 -1.0000e+00
       13  1    1    2    0    0 +6.7428879749e+02 +4.8213696612e+02 +3.2178134486e+03 3.3228669589e+03 0.0000000000e+00 0.0000e+00 1.0000e+00
<mgrwt>
<rscale>  0 0.60652242E+04</rscale>
<asrwt>0</asrwt>
<pdfrwt beam="1">  1        2 0.51289528E+00 0.60652242E+04</pdfrwt>
<pdfrwt beam="2">  1       -2 0.42440287E+00 0.60652242E+04</pdfrwt>
<totfact> 0.30871645E-03</totfact>
</mgrwt>
<rwgt>
<wgt id='morphing_basis_vector_1'> +1.6473858e-06 </wgt>
<wgt id='morphing_basis_vector_2'> +1.1201294e-06 </wgt>
<wgt id='morphing_basis_vector_3'> +1.8181942e-06 </wgt>
<wgt id='morphing_basis_vector_4'> +1.3172598e-06 </wgt>
<wgt id='morphing_basis_vector_5'> +2.1003352e-06 </wgt>
</rwgt>
</event>
<event>
 4      1 +9.0096000e-12 5.58620500e+03 7.81860800e-03 7.30933700e-02
        2 -1    0    0  501    0 +0.0000000000e+00 +0.0000000000e+00 +3.2145653710e+03 3.2145653710e+03 0.0000000000e+00 0.0000e+00 -1.0000e+00
       -2 -1    0    0    0  501 -0.0000000000e+00 -0.0000000000e+00 -2.4268978467e+03 2.4268978467e+03 0.0000000000e+00 0.0000e+00 1.0000e+00
      -13  1    1    2    0    0 -1.1822938869e+03 +1.1903703749e+03 +2.6489975046e+03 3.1356001409e+03 0.0000000000e+00 0.0000e+00 -1.0000e+00
       13  1    1    2    0    0 +1.1822938869e+03 -1.1903703749e+03 -1.8613299803e+03 2.5058630768e+03 0.0000000000e+00 0.0000e+00 1.0000e+00
<mgrwt>
<rscale>  0 0.55862051E+04</rscale>
<asrwt>0</asrwt>
<pdfrwt beam="1">  1        2 0.49454852E+00 0.55862051E+04</pdfrwt>
<pdfrwt beam="2">  1       -2 0.37336890E+00 0.55862051E+04</pdfrwt>
<totfact> 0.83435864E-03</totfact>
</mgrwt>
<rwgt>
<wgt id='morphing_basis_vector_1'> +1.5819553e-06 </wgt>
<wgt id='morphing_basis_vector_2'> +1.9675777e-06 </wgt>
<wgt id='morphing_basis_vector_3'> +1.9529399e-06 </wgt>
<wgt id='morphing_basis_vector_4'> +1.0213357e-07 </wgt>
<wgt id='morphing_basis_vector_5'> +1.4392042e-06 </wgt>
</rwgt>
</event>
<event>
 4      1 +9.0096000e-12 5.58218400e+03 7.81860800e-03 7.30982100e-02
        2 -1    0    0  501    0 +0.0000000000e+00 +0.0000000000e+00 +3.2661078153e+03 3.2661078153e+03 0.0000000000e+00 0.0000e+00 1.0000e+00
       -2 -1    0    0    0  501 -0.0000000000e+00 -0.0000000000e+00 -2.3851611741e+03 2.3851611741e+03 0.0000000000e+00 0.0000e+00 -1.0000e+00
      -13  1    1    2    0    0 -1.6852405698e+03 +5.5575120515e+02 -1.7405565014e+03 2.4856452109e+03 0.0000000000e+00 0.0000e+00 -1.0000e+00
       13  1    1    2    0    0 +1.6852405698e+03 -5.5575120515e+02 +2.6215031426e+03 3.1656237785e+03 0.0000000000e+00 0.0000e+00 1.0000e+00
<mgrwt>
<rscale>  0 0.55821836E+04</rscale>
<asrwt>0</asrwt>
<pdfrwt beam="1">  1        2 0.50247813E+00 0.55821836E+04</pdfrwt>
<pdfrwt beam="2">  1       -2 0.36694787E+00 0.55821836E+04</pdfrwt>
<totfact> 0.84597211E-03</totfact>
</mgrwt>
<rwgt>
<wgt id='morphing_basis_vector_1'> +1.1837551e-06 </wgt>
<wgt id='morphing_basis_vector_2'> +8.0625521e-07 </wgt>
<wgt id='morphing_basis_vector_3'> +1.3059192e-06 </wgt>
<wgt id='morphing_basis_vector_4'> +9.4276100e-07 </wgt>
<wgt id='morphing_basis_vector_5'> +1.5057034e-06 </wgt>
</rwgt>
</event>
<event>
 4      1 +9.0096000e-12 6.02036300e+03 7.81860800e-03 7.25947100e-02
        2 -1    0    0  501    0 +0.0000000000e+00 +0.0000000000e+00 +4.2781328522e+03 4.2781328522e+03 0.0000000000e+00 0.0000e+00 -1.0000e+00
       -2 -1    0    0    0  501 -0.0000000000e+00 -0.0000000000e+00 -2.1180247426e+03 2.1180247426e+03 0.0000000000e+00 0.0000e+00 1.0000e+00
      -13  1    1    2    0    0 +1.2400811771e+03 -2.2165436979e+03 -6.3644558036e+02 2.6183831399e+03 0.0000000000e+00 0.0000e+00 1.0000e+00
       13  1    1    2    0    0 -1.2400811771e+03 +2.2165436979e+03 +2.7965536900e+03 3.7777744548e+03 0.0000000000e+00 0.0000e+00 -1.0000e+00
<mgrwt>
<rscale>  0 0.60203625E+04</rscale>
<asrwt>0</asrwt>
<pdfrwt beam="1">  1        2 0.65817428E+00 0.60203625E+04</pdfrwt>
<pdfrwt beam="2">  1       -2 0.32584996E+00 0.60203625E+04</pdfrwt>
<totfact> 0.23422341E-03</totfact>
</mgrwt>
<rwgt>
<wgt id='morphing_basis_vector_1'> +1.6051490e-06 </wgt>
<wgt id='morphing_basis_vector_2'> +1.1045774e-06 </wgt>
<wgt id='morphing_basis_vector_3'> +1.7745685e-06 </wgt>
<wgt id='morphing_basis_vector_4'> +1.2661052e-06 </wgt>
<wgt id='morphing_basis_vector_5'> +2.0376949e-06 </wgt>
</rwgt>
</event>
<event>
 4      1 +9.0096000e-12 6.25055300e+03 7.81860800e-03 7.23473900e-02
        2 -1    0    0  501    0 +0.0000000000e+00 +0.0000000000e+00 +3.8761499646e+03 3.8761499646e+03 0.0000000000e+00 0.0000e+00 -1.0000e+00
       -2 -1    0    0    0  501 -0.0000000000e+00 -0.0000000000e+00 -2.5198591260e+03 2.5198591260e+03 0.0000000000e+00 0.0000e+00 1.0000e+00
      -13  1    1    2    0    0 -2.1480832700e+03 +2.9647283592e+02 -1.6248268116e+03 2.7096531227e+03 0.0000000000e+00 0.0000e+00 1.0000e+00
       13  1    1    2    0    0 +2.1480832700e+03 -2.9647283592e+02 +2.9811176502e+03 3.6863559679e+03 0.0000000000e+00 0.0000e+00 -1.0000e+00
<mgrwt>
<rscale>  0 0.62505526E+04</rscale>
<asrwt>0</asrwt>
<pdfrwt beam="1">  1        2 0.59633077E+00 0.62505526E+04</pdfrwt>
<pdfrwt beam="2">  1       -2 0.38767063E+00 0.62505526E+04</pdfrwt>
<totfact> 0.20620660E-03</totfact>
</mgrwt>
<rwgt>
<wgt id='morphing_basis_vector_1'> +1.8596438e-06 </wgt>
<wgt id='morphing_basis_vector_2'> +1.2691095e-06 </wgt>
<wgt id='morphing_basis_vector_3'> +2.0540097e-06 </wgt>
<wgt id='morphing_basis_vector_4'> +1.4819265e-06 </wgt>
<wgt id='morphing_basis_vector_5'> +2.3692932e-06 </wgt>
</rwgt>
</event>
<event>
 4      1 +9.0096000e-12 5.71891000e+03 7.81860800e-03 7.29361800e-02
        2 -1    0    0  501    0 +0.0000000000e+00 +0.0000000000e+00 +3.5923784240e+03 3.5923784240e+03 0.0000000000e+00 0.0000e+00 -1.0000e+00
       -2 -1    0    0    0  501 -0.0000000000e+00 -0.0000000000e+00 -2.2760638187e+03 2.2760638187e+03 0.0000000000e+00 0.0000e+00 1.0000e+00
      -13  1    1    2    0    0 +6.3441466388e+01 +1.2562367546e+03 -1.9769288554e+03 2.3431609639e+03 0.0000000000e+00 0.0000e+00 1.0000e+00
       13  1    1    2    0    0 -6.3441466388e+01 -1.2562367546e+03 +3.2932434607e+03 3.5252812788e+03 0.0000000000e+00 0.0000e+00 -1.0000e+00
<mgrwt>
<rscale>  0 0.57189099E+04</rscale>
<asrwt>0</asrwt>
<pdfrwt beam="1">  1        2 0.55267361E+00 0.57189099E+04</pdfrwt>
<pdfrwt beam="2">  1       -2 0.35016366E+00 0.57189099E+04</pdfrwt>
<totfact> 0.62497514E-03</totfact>
</mgrwt>
<rwgt>
<wgt id='morphing_basis_vector_1'> +1.3030099e-06 </wgt>
<wgt id='morphing_basis_vector_2'> +8.8597357e-07 </wgt>
<wgt id='morphing_basis_vector_3'> +1.4374331e-06 </wgt>
<wgt id='morphing_basis_vector_4'> +1.0403745e-06 </wgt>
<wgt id='morphing_basis_vector_5'> +1.6592602e-06 </wgt>
</rwgt>
</event>
<event>
 4      1 +9.0096000e-12 6.31532400e+03 7.81860800e-03 7.22797400e-02
        2 -1    0    0  501    0 +0.0000000000e+00 +0.0000000000e+00 +4.9028117729e+03 4.9028117729e+03 0.0000000000e+00 0.0000e+00 -1.0000e+00
       -2 -1    0    0    0  501 -0.0000000000e+00 -0.0000000000e+00 -2.0336959633e+03 2.0336959633e+03 0.0000000000e+00 0.0000e+00 1.0000e+00
      -13  1    1    2    0    0 -3.0576103556e+02 +1.3963314362e+03 -1.6579872122e+03 2.1890986470e+03 0.0000000000e+00 0.0000e+00 1.0000e+00
       13  1    1    2    0    0 +3.0576103556e+02 -1.3963314362e+03 +4.5271030218e+03 4.7474090892e+03 0.0000000000e+00 0.0000e+00 -1.0000e+00
<mgrwt>
<rscale>  0 0.63153237E+04</rscale>
<asrwt>0</asrwt>
<pdfrwt beam="1">  1        2 0.75427873E+00 0.63153237E+04</pdfrwt>
<pdfrwt beam="2">  1       -2 0.31287630E+00 0.63153237E+04</pdfrwt>
<totfact> 0.58449234E-04</totfact>
</mgrwt>
<rwgt>
<wgt id='morphing_basis_vector_1'> +1.9359364e-06 </wgt>
<wgt id='morphing_basis_vector_2'> +1.3171235e-06 </wgt>
<wgt id='morphing_basis_vector_3'> +2.1374781e-06 </wgt>
<wgt id='morphing_basis_vector_4'> +1.5483552e-06 </wgt>
<wgt id='morphing_basis_vector_5'> +2.4695711e-06 </wgt>
</rwgt>
</event>
<event>
 4      1 +9.0096000e-12 5.92807700e+03 7.81860800e-03 7.26970500e-02
        2 -1    0    0  501    0 +0.0000000000e+00 +0.0000000000e+00 +4.9761922324e+03 4.9761922324e+03 0.0000000000e+00 0.0000e+00 1.0000e+00
       -2 -1    0    0    0  501 -0.0000000000e+00 -0.0000000000e+00 -1.7655112427e+03 1.7655112427e+03 0.0000000000e+00 0.0000e+00 -1.0000e+00
      -13  1    1    2    0    0 -7.6332850085e+01 -1.8413851782e+03 -1.0346952921e+03 2.1135563456e+03 0.0000000000e+00 0.0000e+00 -1.0000e+00
       13  1    1    2    0    0 +7.6332850085e+01 +1.8413851782e+03 +4.2453762817e+03 4.6281471295e+03 0.0000000000e+00 0.0000e+00 1.0000e+00
<mgrwt>
<rscale>  0 0.59280767E+04</rscale>
<asrwt>0</asrwt>
<pdfrwt beam="1">  1        2 0.76556803E+00 0.59280767E+04</pdfrwt>
<pdfrwt beam="2">  1       -2 0.27161712E+00 0.59280767E+04</pdfrwt>
<totfact> 0.91949333E-04</totfact>
</mgrwt>
<rwgt>
<wgt id='morphing_basis_vector_1'> +1.5045592e-06 </wgt>
<wgt id='morphing_basis_vector_2'> +1.0248787e-06 </wgt>
<wgt id='morphing_basis_vector_3'> +1.6607015e-06 </wgt>
<wgt id='morphing_basis_vector_4'> +1.1999689e-06 </wgt>
<wgt id='morphing_basis_vector_5'> +1.9161647e-06 </wgt>
</rwgt>
</event>
<event>
 4      1 +9.0096000e-12 5.86162300e+03 7.81860800e-03 7.27719200e-02
        2 -1    0    0  501    0 +0.0000000000e+00 +0.0000000000e+00 +4.1009734956e+03 4.1009734956e+03 0.0000000000e+00 0.0000e+00 -1.0000e+00
       -2 -1    0    0    0  501 -0.0000000000e+00 -0.0000000000e+00 -2.0945405991e+03 2.0945405991e+03 0.0000000000e+00 0.0000e+00 1.0000e+00
      -13  1    1    2    0    0 -1.7378595008e+03 +7.6164067409e+00 -1.4911790675e+03 2.2899407559e+03 0.0000000000e+00 0.0000e+00 1.0000e+00
       13  1    1    2    0    0 +1.7378595008e+03 -7.6164067409e+00 +3.4976119640e+03 3.9055733388e+03 0.0000000000e+00 0.0000e+00 -1.0000e+00
<mgrwt>
<rscale>  0 0.58616228E+04</rscale>
<asrwt>0</asrwt>
<pdfrwt beam="1">  1        2 0.63091900E+00 0.58616228E+04</pdfrwt>
<pdfrwt beam="2">  1       -2 0.32223702E+00 0.58616228E+04</pdfrwt>
<totfact> 0.36359191E-03</totfact>
</mgrwt>
<rwgt>
<wgt id='morphing_basis_vector_1'> +1.4381900e-06 </wgt>
<wgt id='morphing_basis_vector_2'> +9.7919089e-07 </wgt>
<wgt id='morphing_basis_vector_3'> +1.5871888e-06 </wgt>
<wgt id='morphing_basis_vector_4'> +1.1473384e-06 </wgt>
<wgt id='morphing_basis_vector_5'> +1.8315225e-06 </wgt>
</rwgt>
</event>
<event>
 4      1 +9.0096000e-12 5.69891300e+03 7.81860800e-03 7.29595900e-02
        2 -1    0    0  501    0 +0.0000000000e+00 +0.0000000000e+00 +2.5879900898e+03 2.5879900898e+03 0.0000000000e+00 0.0000e+00 -1.0000e+00
       -2 -1    0    0    0  501 -0.0000000000e+00 -0.0000000000e+00 -3.1373388465e+03 3.1373388465e+03 0.0000000000e+00 0.0000e+00 1.0000e+00
      -13  1    1    2    0    0 +6.3731772796e+02 -2.1538413234e+03 -2.0361400001e+03 3.0316781545e+03 0.0000000000e+00 0.0000e+00 1.0000e+00
       13  1    1    2    0    0 -6.3731772796e+02 +2.1538413234e+03 +1.4867912434e+03 2.6936507818e+03 0.0000000000e+00 0.0000e+00 -1.0000e+00
<mgrwt>
<rscale>  0 0.56989128E+04</rscale>
<asrwt>0</asrwt>
<pdfrwt beam="1">  1        2 0.39815232E+00 0.56989128E+04</pdfrwt>
<pdfrwt beam="2">  1       -2 0.48266751E+00 0.56989128E+04</pdfrwt>
<totfact> 0.37636568E-03</totfact>
</mgrwt>
<rwgt>
<wgt id='morphing_basis_vector_1'> +1.2877342e-06 </wgt>
<wgt id='morphing_basis_vector_2'> +8.8190241e-07 </wgt>
<wgt id='morphing_basis_vector_3'> +1.4220152e-06 </wgt>
<wgt id='morphing_basis_vector_4'> +1.0198638e-06 </wgt>
<wgt id='morphing_basis_vector_5'> +1.6356141e-06 </wgt>
</rwgt>
</event>
<event>
 4      1 +9.0096000e-12 5.97861600e+03 7.81860800e-03 7.26407700e-02
        2 -1    0    0  501    0 +0.0000000000e+00 +0.0000000000e+00 +4.3128374260e+03 4.3128374260e+03 0.0000000000e+00 0.0000e+00 -1.0000e+00
       -2 -1    0    0    0  501 -0.0000000000e+00 -0.0000000000e+00 -2.0719452731e+03 2.0719452731e+03 0.0000000000e+00 0.0000e+00 1.0000e+00
      -13  1    1    2    0    0 +1.9017163734e+03 -4.7598532918e+02 -1.2896091203e+03 2.3465248521e+03 0.0000000000e+00 0.0000e+00 1.0000e+00
       13  1    1    2    0    0 -1.9017163734e+03 +4.7598532918e+02 +3.5305012732e+03 4.0382578469e+03 0.0000000000e+00 0.0000e+00 -1.0000e+00
<mgrwt>
<rscale>  0 0.59786163E+04</rscale>
<asrwt>0</asrwt>
<pdfrwt beam="1">  1        2 0.66351345E+00 0.59786163E+04</pdfrwt>
<pdfrwt beam="2">  1       -2 0.31876081E+00 0.59786163E+04</pdfrwt>
<totfact> 0.24263795E-03</totfact>
</mgrwt>
<rwgt>
<wgt id='morphing_basis_vector_1'> +1.5567035e-06 </wgt>
<wgt id='morphing_basis_vector_2'> +1.0611227e-06 </wgt>
<wgt id='morphing_basis_vector_3'> +1.7185421e-06 </wgt>
<wgt id='morphing_basis_vector_4'> +1.2408692e-06 </wgt>
<wgt id='morphing_basis_vector_5'> +1.9824465e-06 </wgt>
</rwgt>
</event>
<event>
 4      1 +9.0096000e-12 5.94864400e+03 7.81860800e-03 7.26740800e-02
        2 -1    0    0  501    0 +0.0000000000e+00 +0.0000000000e+00 +3.9047107521e+03 3.9047107521e+03 0.0000000000e+00 0.0000e+00 -1.0000e+00
       -2 -1    0    0    0  501 -0.0000000000e+00 -0.0000000000e+00 -2.2656202143e+03 2.2656202143e+03 0.0000000000e+00 0.0000e+00 1.0000e+00
      -13  1    1    2    0    0 +1.6068929417e+03 -2.4251249779e+03 +1.4616926078e+03 3.2557458999e+03 0.0000000000e+00 0.0000e+00 1.0000e+00
       13  1    1    2    0    0 -1.6068929417e+03 +2.4251249779e+03 +1.7739792998e+02 2.9145850666e+03 0.0000000000e+00 0.0000e+00 -1.0000e+00
<mgrwt>
<rscale>  0 0.59486441E+04</rscale>
<asrwt>0</asrwt>
<pdfrwt beam="1">  1        2 0.60072473E+00 0.59486441E+04</pdfrwt>
<pdfrwt beam="2">  1       -2 0.34855696E+00 0.59486441E+04</pdfrwt>
<totfact> 0.35700866E-03</totfact>
</mgrwt>
<rwgt>
<wgt id='morphing_basis_vector_1'> +1.6400395e-06 </wgt>
<wgt id='morphing_basis_vector_2'> +1.3753671e-06 </wgt>
<wgt id='morphing_basis_vector_3'> +1.8708465e-06 </wgt>
<wgt id='morphing_basis_vector_4'> +9.7176608e-07 </wgt>
<wgt id='morphing_basis_vector_5'> +1.9223532e-06 </wgt>
</rwgt>
</event>
<event>
 4      1 +9.0096000e-12 5.60125600e+03 7.81860800e-03 7.30753200e-02
        2 -1    0    0  501    0 +0.0000000000e+00 +0.0000000000e+00 +3.4365797077e+03 3.4365797077e+03 0.0000000000e+00 0.0000e+00 1.0000e+00
       -2 -1    0    0    0  501 -0.0000000000e+00 -0.0000000000e+00 -2.2823618877e+03 2.2823618877e+03 0.0000000000e+00 0.0000e+00 -1.0000e+00
      -13  1    1    2    0    0 +6.4960641867e+02 +1.3539989948e+03 -1.8364995750e+03 2.3723474590e+03 0.0000000000e+00 0.0000e+00 -1.0000e+00
       13  1    1    2    0    0 -6.4960641867e+02 -1.3539989948e+03 +2.9907173950e+03 3.3465941364e+03 0.0000000000e+00 0.0000e+00 1.0000e+00
<mgrwt>
<rscale>  0 0.56012565E+04</rscale>
<asrwt>0</asrwt>
<pdfrwt beam="1">  1        2 0.52870457E+00 0.56012565E+04</pdfrwt>
<pdfrwt beam="2">  1       -2 0.35113260E+00 0.56012565E+04</pdfrwt>
<totfact> 0.80956288E-03</totfact>
</mgrwt>
<rwgt>
<wgt id='morphing_basis_vector_1'> +1.1995127e-06 </wgt>
<wgt id='morphing_basis_vector_2'> +8.1596643e-07 </wgt>
<wgt id='morphing_basis_vector_3'> +1.3231048e-06 </wgt>
<wgt id='morphing_basis_vector_4'> +9.5672863e-07 </wgt>
<wgt id='morphing_basis_vector_5'> +1.5265230e-06 </wgt>
</rwgt>
</event>
<event>
 4      1 +9.0096000e-12 5.57730100e+03 7.81860800e-03 7.31040800e-02
        2 -1    0    0  501    0 +0.0000000000e+00 +0.0000000000e+00 +4.1212516563e+03 4.1212516563e+03 0.0000000000e+00 0.0000e+00 1.0000e+00
       -2 -1    0    0    0  501 -0.0000000000e+00 -0.0000000000e+00 -1.8869439142e+03 1.8869439142e+03 0.0000000000e+00 0.0000e+00 -1.0000e+00
      -13  1    1    2    0    0 -1.2521579781e+03 +1.2793450090e+03 +3.4205605308e+03 3.8606809761e+03 0.0000000000e+00 0.0000e+00 1.0000e+00
       13  1    1    2    0    0 +1.2521579781e+03 -1.2793450090e+03 -1.1862527888e+03 2.1475145944e+03 0.0000000000e+00 0.0000e+00 -1.0000e+00
<mgrwt>
<rscale>  0 0.55773007E+04</rscale>
<asrwt>0</asrwt>
<pdfrwt beam="1">  1        2 0.63403871E+00 0.55773007E+04</pdfrwt>
<pdfrwt beam="2">  1       -2 0.29029907E+00 0.55773007E+04</pdfrwt>
<totfact> 0.58351117E-03</totfact>
</mgrwt>
<rwgt>
<wgt id='morphing_basis_vector_1'> +1.5564707e-06 </wgt>
<wgt id='morphing_basis_vector_2'> +1.9097392e-06 </wgt>
<wgt id='morphing_basis_vector_3'> +1.9153272e-06 </wgt>
<wgt id='morphing_basis_vector_4'> +1.3448277e-07 </wgt>
<wgt id='morphing_basis_vector_5'> +1.4328009e-06 </wgt>
</rwgt>
</event>
<event>
 4      1 +9.0096000e-12 6.19589200e+03 7.81860800e-03 7.24051200e-02
        2 -1    0    0  501    0 +0.0000000000e+00 +0.0000000000e+00 +2.6977555807e+03 2.6977555807e+03 0.0000000000e+00 0.0000e+00 1.0000e+00
       -2 -1    0    0    0  501 -0.0000000000e+00 -0.0000000000e+00 -3.5575019447e+03 3.5575019447e+03 0.0000000000e+00 0.0000e+00 -1.0000e+00
      -13  1    1    2    0    0 +1.2363920634e+03 -2.7948714466e+03 -9.4197977137e+02 3.1980146383e+03 0.0000000000e+00 0.0000e+00 -1.0000e+00
       13  1    1    2    0    0 -1.2363920634e+03 +2.7948714466e+03 +8.2233407287e+01 3.0572428871e+03 0.0000000000e+00 0.0000e+00 1.0000e+00
<mgrwt>
<rscale>  0 0.61958924E+04</rscale>
<asrwt>0</asrwt>
<pdfrwt beam="1">  1        2 0.41503932E+00 0.61958924E+04</pdfrwt>
<pdfrwt beam="2">  1       -2 0.54730799E+00 0.61958924E+04</pdfrwt>
<totfact> 0.10343523E-03</totfact>
</mgrwt>
<rwgt>
<wgt id='morphing_basis_vector_1'> +1.8294676e-06 </wgt>
<wgt id='morphing_basis_vector_2'> +1.3248002e-06 </wgt>
<wgt id='morphing_basis_vector_3'> +2.0384941e-06 </wgt>
<wgt id='morphing_basis_vector_4'> +1.3581276e-06 </wgt>
<wgt id='morphing_basis_vector_5'> +2.2812291e-06 </wgt>
</rwgt>
</event>
<event>
 4      1 +9.0096000e-12 5.80431300e+03 7.81860800e-03 7.28373000e-02
        2 -1    0    0  501    0 +0.0000000000e+00 +0.0000000000e+00 +3.0788148944e+03 3.0788148944e+03 0.0000000000e+00 0.0000e+00 -1.0000e+00
       -2 -1    0    0    0  501 -0.0000000000e+00 -0.0000000000e+00 -2.7356345181e+03 2.7356345181e+03 0.0000000000e+00 0.0000e+00 1.0000e+00
      -13  1    1    2    0    0 +2.5821374490e+03 +1.2975473238e+03 -9.6176889710e+01 2.8914205604e+03 0.0000000000e+00 0.0000e+00 1.0000e+00
       13  1    1    2    0    0 -2.5821374490e+03 -1.2975473238e+03 +4.3935726594e+02 2.9230288521e+03 0.0000000000e+00 0.0000e+00 -1.0000e+00
<mgrwt>
<rscale>  0 0.58043130E+04</rscale>
<asrwt>0</asrwt>
<pdfrwt beam="1">  1        2 0.47366383E+00 0.58043130E+04</pdfrwt>
<pdfrwt beam="2">  1       -2 0.42086685E+00 0.58043130E+04</pdfrwt>
<totfact> 0.49601317E-03</totfact>
</mgrwt>
<rwgt>
<wgt id='morphing_basis_vector_1'> +1.4185235e-06 </wgt>
<wgt id='morphing_basis_vector_2'> +1.0460724e-06 </wgt>
<wgt id='morphing_basis_vector_3'> +1.5841493e-06 </wgt>
<wgt id='morphing_basis_vector_4'> +1.0268565e-06 </wgt>
<wgt id='morphing_basis_vector_5'> +1.7543738e-06 </wgt>
</rwgt>
</event>
<event>
 4      1 +9.0096000e-12 5.87436200e+03 7.81860800e-03 7.27574900e-02
        2 -1    0    0  501    0 +0.0000000000e+00 +0.0000000000e+00 +3.1100259342e+03 3.1100259342e+03 0.0000000000e+00 0.0000e+00 -1.0000e+00
       -2 -1    0    0    0  501 -0.0000000000e+00 -0.0000000000e+00 -2.7739422785e+03 2.7739422785e+03 0.0000000000e+00 0.0000e+00 1.0000e+00
      -13  1    1    2    0    0 -9.7523079972e+02 -4.3103253366e+02 -2.5732507748e+03 2.7854054835e+03 0.0000000000e+00 0.0000e+00 1.0000e+00
       13  1    1    2    0    0 +9.7523079972e+02 +4.3103253366e+02 +2.9093344305e+03 3.0985627291e+03 0.0000000000e+00 0.0000e+00 -1.0000e+00
<mgrwt>
<rscale>  0 0.58743621E+04</rscale>
<asrwt>0</asrwt>
<pdfrwt beam="1">  1        2 0.47846553E+00 0.58743621E+04</pdfrwt>
<pdfrwt beam="2">  1       -2 0.42676035E+00 0.58743621E+04</pdfrwt>
<totfact> 0.42971019E-03</totfact>
</mgrwt>
<rwgt>
<wgt id='morphing_basis_vector_1'> +1.4500882e-06 </wgt>
<wgt id='morphing_basis_vector_2'> +9.8591722e-07 </wgt>
<wgt id='morphing_basis_vector_3'> +1.6000258e-06 </wgt>
<wgt id='morphing_basis_vector_4'> +1.1586833e-06 </wgt>
<wgt id='morphing_basis_vector_5'> +1.8476441e-06 </wgt>
</rwgt>
</event>
<event>
 4      1 +9.0096000e-12 5.56887400e+03 7.81860800e-03 7.31142300e-02
        2 -1    0    0  501    0 +0.0000000000e+00 +0.0000000000e+00 +4.2701591157e+03 4.2701591157e+03 0.0000000000e+00 0.0000e+00 -1.0000e+00
       -2 -1    0    0    0  501 -0.0000000000e+00 -0.0000000000e+00 -1.8156442642e+03 1.8156442642e+03 0.0000000000e+00 0.0000e+00 1.0000e+00
      -13  1    1    2    0    0 -3.7054619383e+02 +1.3989371990e+03 -1.3723702635e+03 1.9944247061e+03 0.0000000000e+00 0.0000e+00 1.0000e+00
       13  1    1    2    0    0 +3.7054619383e+02 -1.3989371990e+03 +3.8268851150e+03 4.0913786737e+03 0.0000000000e+00 0.0000e+00 -1.0000e+00
<mgrwt>
<rscale>  0 0.55688742E+04</rscale>
<asrwt>0</asrwt>
<pdfrwt beam="1">  1        2 0.65694755E+00 0.55688742E+04</pdfrwt>
<pdfrwt beam="2">  1       -2 0.27932989E+00 0.55688742E+04</pdfrwt>
<totfact> 0.50634505E-03</totfact>
</mgrwt>
<rwgt>
<wgt id='morphing_basis_vector_1'> +1.1720384e-06 </wgt>
<wgt id='morphing_basis_vector_2'> +7.9714204e-07 </wgt>
<wgt id='morphing_basis_vector_3'> +1.2927013e-06 </wgt>
<wgt id='morphing_basis_vector_4'> +9.3484143e-07 </wgt>
<wgt id='morphing_basis_vector_5'> +1.4914476e-06 </wgt>
</rwgt>
</event>
<event>
 4      1 +9.0096000e-12 6.54016100e+03 7.81860800e-03 7.20511400e-02
        2 -1    0    0  501    0 +0.0000000000e+00 +0.0000000000e+00 +3.2662283530e+03 3.2662283530e+03 0.0000000000e+00 0.0000e+00 -1.0000e+00
       -2 -1    0    0    0  501 -0.0000000000e+00 -0.0000000000e+00 -3.2739368824e+03 3.2739368824e+03 0.0000000000e+00 0.0000e+00 1.0000e+00
      -13  1    1    2    0    0 -1.5123924448e+03 -1.4462516084e+02 -2.8995734803e+03 3.2734956411e+03 0.0000000000e+00 0.0000e+00 1.0000e+00
       13  1    1    2    0    0 +1.5123924448e+03 +1.4462516084e+02 +2.8918649509e+03 3.2666695944e+03 0.0000000000e+00 0.0000e+00 -1.0000e+00
<mgrwt>
<rscale>  0 0.65401607E+04</rscale>
<asrwt>0</asrwt>
<pdfrwt beam="1">  1        2 0.50249667E+00 0.65401607E+04</pdfrwt>
<pdfrwt beam="2">  1       -2 0.50368260E+00 0.65401607E+04</pdfrwt>
<totfact> 0.90013861E-04</totfact>
</mgrwt>
<rwgt>
<wgt id='morphing_basis_vector_1'> +2.2261192e-06 </wgt>
<wgt id='morphing_basis_vector_2'> +1.5148913e-06 </wgt>
<wgt id='morphing_basis_vector_3'> +2.4585309e-06 </wgt>
<wgt id='morphing_basis_vector_4'> +1.7812974e-06 </wgt>
<wgt id='morphing_basis_vector_5'> +2.8412422e-06 </wgt>
</rwgt>
</event>
<event>
 4      1 +9.0096000e-12 5.72497000e+03 7.81860800e-03 7.29291100e-02
        2 -1    0    0  501    0 +0.0000000000e+00 +0.0000000000e+00 +3.7210123430e+03 3.7210123430e+03 0.0000000000e+00 0.0000e+00 1.0000e+00
       -2 -1    0    0    0  501 -0.0000000000e+00 -0.0000000000e+00 -2.2020405914e+03 2.2020405914e+03 0.0000000000e+00 0.0000e+00 -1.0000e+00
      -13  1    1    2    0    0 +1.1483056932e+02 -1.4718148848e+03 -1.7777940315e+03 2.3108389674e+03 0.0000000000e+00 0.0000e+00 -1.0000e+00
       13  1    1    2    0    0 -1.1483056932e+02 +1.4718148848e+03 +3.2967657831e+03 3.6122139670e+03 0.0000000000e+00 0.0000e+00 1.0000e+00
<mgrwt>
<rscale>  0 0.57249699E+04</rscale>
<asrwt>0</asrwt>
<pdfrwt beam="1">  1        2 0.57246344E+00 0.57249699E+04</pdfrwt>
<pdfrwt beam="2">  1       -2 0.33877548E+00 0.57249699E+04</pdfrwt>
<totfact> 0.59050602E-03</totfact>
</mgrwt>
<rwgt>
<wgt id='morphing_basis_vector_1'> +1.3086916e-06 </wgt>
<wgt id='morphing_basis_vector_2'> +8.9021225e-07 </wgt>
<wgt id='morphing_basis_vector_3'> +1.4438017e-06 </wgt>
<wgt id='morphing_basis_vector_4'> +1.0444514e-06 </wgt>
<wgt id='morphing_basis_vector_5'> +1.6662920e-06 </wgt>
</rwgt>
</event>
<event>
 4      1 +9.0096000e-12 6.00561300e+03 7.81860800e-03 7.26109400e-02
        2 -1    0    0  501    0 +0.0000000000e+00 +0.0000000000e+00 +3.2956412527e+03 3.2956412527e+03 0.0000000000e+00 0.0000e+00 -1.0000e+00
       -2 -1    0    0    0  501 -0.0000000000e+00 -0.0000000000e+00 -2.7359917359e+03 2.7359917359e+03 0.0000000000e+00 0.0000e+00 1.0000e+00
      -13  1    1    2    0    0 -1.2568086918e+03 +8.0616688118e+02 -2.3367216973e+03 2.7730383010e+03 0.0000000000e+00 0.0000e+00 1.0000e+00
       13  1    1    2    0    0 +1.2568086918e+03 -8.0616688118e+02 +2.8963712141e+03 3.2585946876e+03 0.0000000000e+00 0.0000e+00 -1.0000e+00
<mgrwt>
<rscale>  0 0.60056131E+04</rscale>
<asrwt>0</asrwt>
<pdfrwt beam="1">  1        2 0.50702173E+00 0.60056131E+04</pdfrwt>
<pdfrwt beam="2">  1       -2 0.42092181E+00 0.60056131E+04</pdfrwt>
<totfact> 0.34783092E-03</totfact>
</mgrwt>
<rwgt>
<wgt id='morphing_basis_vector_1'> +1.5840121e-06 </wgt>
<wgt id='morphing_basis_vector_2'> +1.0776586e-06 </wgt>
<wgt id='morphing_basis_vector_3'> +1.7482632e-06 </wgt>
<wgt id='morphing_basis_vector_4'> +1.2654826e-06 </wgt>
<wgt id='morphing_basis_vector_5'> +2.0187457e-06 </wgt>
</rwgt>
</event>
<event>
 4      1 +9.0096000e-12 5.95833400e+03 7.81860800e-03 7.26632900e-02
        2 -1    0    0  501    0 +0.0000000000e+00 +0.0000000000e+00 +2.8887792509e+03 2.8887792509e+03 0.0000000000e+00 0.0000e+00 -1.0000e+00
       -2 -1    0    0    0  501 -0.0000000000e+00 -0.0000000000e+00 -3.0723825889e+03 3.0723825889e+03 0.0000000000e+00 0.0000e+00 1.0000e+00
      -13  1    1    2    0    0 -4.2435098696e+01 +8.9963878228e+02 -2.9329179509e+03 3.0680870885e+03 0.0000000000e+00 0.0000e+00 1.0000e+00
       13  1    1    2    0    0 +4.2435098696e+01 -8.9963878228e+02 +2.7493146129e+03 2.8930747513e+03 0.0000000000e+00 0.0000e+00 -1.0000e+00
<mgrwt>
<rscale>  0 0.59583337E+04</rscale>
<asrwt>0</asrwt>
<pdfrwt beam="1">  1        2 0.44442757E+00 0.59583337E+04</pdfrwt>
<pdfrwt beam="2">  1       -2 0.47267425E+00 0.59583337E+04</pdfrwt>
<totfact> 0.28447306E-03</totfact>
</mgrwt>
<rwgt>
<wgt id='morphing_basis_vector_1'> +1.5345497e-06 </wgt>
<wgt id='morphing_basis_vector_2'> +1.0433323e-06 </wgt>
<wgt id='morphing_basis_vector_3'> +1.6934093e-06 </wgt>
<wgt id='morphing_basis_vector_4'> +1.2266134e-06 </wgt>
<wgt id='morphing_basis_vector_5'> +1.9558352e-06 </wgt>
</rwgt>
</event>
<event>
 4      1 +9.0096000e-12 5.55195200e+03 7.81860800e-03 7.31346700e-02
        2 -1    0    0  501    0 +0.0000000000e+00 +0.0000000000e+00 +2.4310434036e+03 2.4310434036e+03 0.0000000000e+00 0.0000e+00 1.0000e+00
       -2 -1    0    0    0  501 -0.0000000000e+00 -0.0000000000e+00 -3.1698495293e+03 3.1698495293e+03 0.0000000000e+00 0.0000e+00 -1.0000e+00
      -13  1    1    2    0    0 +2.2415486491e+03 -1.1468559087e+03 +8.0975598059e+02 2.6449052099e+03 0.0000000000e+00 0.0000e+00 1.0000e+00
       13  1    1    2    0    0 -2.2415486491e+03 +1.1468559087e+03 -1.5485621063e+03 2.9559877230e+03 0.0000000000e+00 0.0000e+00 -1.0000e+00
<mgrwt>
<rscale>  0 0.55519517E+04</rscale>
<asrwt>0</asrwt>
<pdfrwt beam="1">  1        2 0.37400668E+00 0.55519517E+04</pdfrwt>
<pdfrwt beam="2">  1       -2 0.48766916E+00 0.55519517E+04</pdfrwt>
<totfact> 0.43357347E-03</totfact>
</mgrwt>
<rwgt>
<wgt id='morphing_basis_vector_1'> +1.3289470e-06 </wgt>
<wgt id='morphing_basis_vector_2'> +1.2896745e-06 </wgt>
<wgt id='morphing_basis_vector_3'> +1.5557096e-06 </wgt>
<wgt id='morphing_basis_vector_4'> +5.5814895e-07 </wgt>
<wgt id='morphing_basis_vector_5'> +1.4426638e-06 </wgt>
</rwgt>
</event>
<event>
 4      1 +9.0096000e-12 5.64351200e+03 7.81860800e-03 7.30249500e-02
        2 -1    0    0  501    0 +0.0000000000e+00 +0.0000000000e+00 +4.5070001778e+03 4.5070001778e+03 0.0000000000e+00 0.0000e+00 -1.0000e+00
       -2 -1    0    0    0  501 -0.0000000000e+00 -0.0000000000e+00 -1.7666531468e+03 1.7666531468e+03 0.0000000000e+00 0.0000e+00 1.0000e+00
      -13  1    1    2    0    0 -1.9507742191e+03 +1.9983574508e+03 +1.8194723570e+03 3.3330814891e+03 0.0000000000e+00 0.0000e+00 1.0000e+00
       13  1    1    2    0    0 +1.9507742191e+03 -1.9983574508e+03 +9.2087467393e+02 2.9405718355e+03 0.0000000000e+00 0.0000e+00 -1.0000e+00
<mgrwt>
<rscale>  0 0.56435117E+04</rscale>
<asrwt>0</asrwt>
<pdfrwt beam="1">  1        2 0.69338464E+00 0.56435117E+04</pdfrwt>
<pdfrwt beam="2">  1       -2 0.27179279E+00 0.56435117E+04</pdfrwt>
<totfact> 0.33041798E-03</totfact>
</mgrwt>
<rwgt>
<wgt id='morphing_basis_vector_1'> +1.3108430e-06 </wgt>
<wgt id='morphing_basis_vector_2'> +1.0604846e-06 </wgt>
<wgt id='morphing_basis_vector_3'> +1.4854233e-06 </wgt>
<wgt id='morphing_basis_vector_4'> +8.2613774e-07 </wgt>
<wgt id='morphing_basis_vector_5'> +1.5597960e-06 </wgt>
</rwgt>
</event>
<event>
 4      1 +9.0096000e-12 5.75322200e+03 7.81860800e-03 7.28962400e-02
        2 -1    0    0  501    0 +0.0000000000e+00 +0.0000000000e+00 +4.5036348574e+03 4.5036348574e+03 0.0000000000e+00 0.0000e+00 1.0000e+00
       -2 -1    0    0    0  501 -0.0000000000e+00 -0.0000000000e+00 -1.8373803875e+03 1.8373803875e+03 0.0000000000e+00 0.0000e+00 -1.0000e+00
      -13  1    1    2    0    0 +6.9746627648e+02 +6.9380392190e+02 +4.3124614927e+03 4.4232507519e+03 0.0000000000e+00 0.0000e+00 1.0000e+00
       13  1    1    2    0    0 -6.9746627648e+02 -6.9380392190e+02 -1.6462070228e+03 1.9177644930e+03 0.0000000000e+00 0.0000e+00 -1.0000e+00
<mgrwt>
<rscale>  0 0.57532218E+04</rscale>
<asrwt>0</asrwt>
<pdfrwt beam="1">  1        2 0.69286690E+00 0.57532218E+04</pdfrwt>
<pdfrwt beam="2">  1       -2 0.28267391E+00 0.57532218E+04</pdfrwt>
<totfact> 0.27850100E-03</totfact>
</mgrwt>
<rwgt>
<wgt id='morphing_basis_vector_1'> +1.8251152e-06 </wgt>
<wgt id='morphing_basis_vector_2'> +2.3476466e-06 </wgt>
<wgt id='morphing_basis_vector_3'> +2.2723793e-06 </wgt>
<wgt id='morphing_basis_vector_4'> +1.6925542e-08 </wgt>
<wgt id='morphing_basis_vector_5'> +1.6113882e-06 </wgt>
</rwgt>
</event>
<event>
 4      1 +9.0096000e-12 6.58027800e+03 7.81860800e-03 7.20113400e-02
        2 -1    0    0  501    0 +0.0000000000e+00 +0.0000000000e+00 +3.8026165562e+03 3.8026165562e+03 0.0000000000e+00 0.0000e+00 1.0000e+00
       -2 -1    0    0    0  501 -0.0000000000e+00 -0.0000000000e+00 -2.8467282931e+03 2.8467282931e+03 0.0000000000e+00 0.0000e+00 -1.0000e+00
      -13  1    1    2    0    0 -1.5438339132e+03 -1.8008609565e+03 -1.8260072408e+03 2.9934638431e+03 0.0000000000e+00 0.0000e+00 -1.0000e+00
       13  1    1    2    0    0 +1.5438339132e+03 +1.8008609565e+03 +2.7818955040e+03 3.6558810062e+03 0.0000000000e+00 0.0000e+00 1.0000e+00
<mgrwt>
<rscale>  0 0.65802785E+04</rscale>
<asrwt>0</asrwt>
<pdfrwt beam="1">  1        2 0.58501793E+00 0.65802785E+04</pdfrwt>
<pdfrwt beam="2">  1       -2 0.43795820E+00 0.65802785E+04</pdfrwt>
<totfact> 0.10731796E-03</totfact>
</mgrwt>
<rwgt>
<wgt id='morphing_basis_vector_1'> +2.2838497e-06 </wgt>
<wgt id='morphing_basis_vector_2'> +1.5603345e-06 </wgt>
<wgt id='morphing_basis_vector_3'> +2.5238423e-06 </wgt>
<wgt id='morphing_basis_vector_4'> +1.8196780e-06 </wgt>
<wgt id='morphing_basis_vector_5'> +2.9112414e-06 </wgt>
</rwgt>
</event>
<event>
 4      1 +9.0096000e-12 6.04337300e+03 7.81860800e-03 7.25694900e-02
        2 -1    0    0  501    0 +0.0000000000e+00 +0.0000000000e+00 +3.6879664299e+03 3.6879664299e+03 0.0000000000e+00 0.0000e+00 1.0000e+00
       -2 -1    0    0    0  501 -0.0000000000e+00 -0.0000000000e+00 -2.4757789709e+03 2.4757789709e+03 0.0000000000e+00 0.0000e+00 -1.0000e+00
      -13  1    1    2    0    0 +1.8519102690e+03 -1.0119249227e+03 -1.5996252251e+03 2.6480869613e+03 0.0000000000e+00 0.0000e+00 -1.0000e+00
       13  1    1    2    0    0 -1.8519102690e+03 +1.0119249227e+03 +2.8118126841e+03 3.5156584396e+03 0.0000000000e+00 0.0000e+00 1.0000e+00
<mgrwt>
<rscale>  0 0.60433731E+04</rscale>
<asrwt>0</asrwt>
<pdfrwt beam="1">  1        2 0.56737945E+00 0.60433731E+04</pdfrwt>
<pdfrwt beam="2">  1       -2 0.38088907E+00 0.60433731E+04</pdfrwt>
<totfact> 0.32701824E-03</totfact>
</mgrwt>
<rwgt>
<wgt id='morphing_basis_vector_1'> +1.6256184e-06 </wgt>
<wgt id='morphing_basis_vector_2'> +1.1093484e-06 </wgt>
<wgt id='morphing_basis_vector_3'> +1.7950645e-06 </wgt>
<wgt id='morphing_basis_vector_4'> +1.2945060e-06 </wgt>
<wgt id='morphing_basis_vector_5'> +2.0698439e-06 </wgt>
</rwgt>
</event>
<event>
 4      1 +9.0096000e-12 5.92438400e+03 7.81860800e-03 7.27011800e-02
        2 -1    0    0  501    0 +0.0000000000e+00 +0.0000000000e+00 +2.3983815083e+03 2.3983815083e+03 0.0000000000e+00 0.0000e+00 -1.0000e+00
       -2 -1    0    0    0  501 -0.0000000000e+00 -0.0000000000e+00 -3.6585429583e+03 3.6585429583e+03 0.0000000000e+00 0.0000e+00 1.0000e+00
      -13  1    1    2    0    0 +1.7880509209e+03 +1.8538638568e+03 -2.1259072223e+03 3.3396734591e+03 0.0000000000e+00 0.0000e+00 1.0000e+00
       13  1    1    2    0    0 -1.7880509209e+03 -1.8538638568e+03 +8.6574577236e+02 2.7172510075e+03 0.0000000000e+00 0.0000e+00 -1.0000e+00
<mgrwt>
<rscale>  0 0.59243841E+04</rscale>
<asrwt>0</asrwt>
<pdfrwt beam="1">  1        2 0.36898177E+00 0.59243841E+04</pdfrwt>
<pdfrwt beam="2">  1       -2 0.56285276E+00 0.59243841E+04</pdfrwt>
<totfact> 0.12350221E-03</totfact>
</mgrwt>
<rwgt>
<wgt id='morphing_basis_vector_1'> +1.5068660e-06 </wgt>
<wgt id='morphing_basis_vector_2'> +1.0400686e-06 </wgt>
<wgt id='morphing_basis_vector_3'> +1.6664324e-06 </wgt>
<wgt id='morphing_basis_vector_4'> +1.1840507e-06 </wgt>
<wgt id='morphing_basis_vector_5'> +1.9102973e-06 </wgt>
</rwgt>
</event>
<event>
 4      1 +9.0096000e-12 5.61691400e+03 7.81860800e-03 7.30566000e-02
        2 -1    0    0  501    0 +0.0000000000e+00 +0.0000000000e+00 +1.5184628618e+03 1.5184628618e+03 0.0000000000e+00 0.0000e+00 -1.0000e+00
       -2 -1    0    0    0  501 -0.0000000000e+00 -0.0000000000e+00 -5.1943513660e+03 5.1943513660e+03 0.0000000000e+00 0.0000e+00 1.0000e+00
      -13  1    1    2    0    0 +9.6994492071e+02 +1.2622654862e+03 -4.6030935229e+03 4.8705828488e+03 0.0000000000e+00 0.0000e+00 1.0000e+00
       13  1    1    2    0    0 -9.6994492071e+02 -1.2622654862e+03 +9.2720501863e+02 1.8422313789e+03 0.0000000000e+00 0.0000e+00 -1.0000e+00
<mgrwt>
<rscale>  0 0.56169136E+04</rscale>
<asrwt>0</asrwt>
<pdfrwt beam="1">  1        2 0.23360967E+00 0.56169136E+04</pdfrwt>
<pdfrwt beam="2">  1       -2 0.79913099E+00 0.56169136E+04</pdfrwt>
<totfact> 0.10384937E-03</totfact>
</mgrwt>
<rwgt>
<wgt id='morphing_basis_vector_1'> +1.2130534e-06 </wgt>
<wgt id='morphing_basis_vector_2'> +8.2543528e-07 </wgt>
<wgt id='morphing_basis_vector_3'> +1.3381340e-06 </wgt>
<wgt id='morphing_basis_vector_4'> +9.6726714e-07 </wgt>
<wgt id='morphing_basis_vector_5'> +1.5436870e-06 </wgt>
</rwgt>
</event>
<event>
 4      1 +9.0096000e-12 5.65055500e+03 7.81860800e-03 7.30166000e-02
        2 -1    0    0  501    0 +0.0000000000e+00 +0.0000000000e+00 +4.2162457309e+03 4.2162457309e+03 0.0000000000e+00 0.0000e+00 -1.0000e+00
       -2 -1    0    0    0  501 -0.0000000000e+00 -0.0000000000e+00 -1.8931991277e+03 1.8931991277e+03 0.0000000000e+00 0.0000e+00 1.0000e+00
      -13  1    1    2    0    0 -1.9317626986e+03 +1.8114709058e+03 +9.7170255248e+01 2.6500143443e+03 0.0000000000e+00 0.0000e+00 1.0000e+00
       13  1    1    2    0    0 +1.9317626986e+03 -1.8114709058e+03 +2.2258763480e+03 3.4594305143e+03 0.0000000000e+00 0.0000e+00 -1.0000e+00
<mgrwt>
<rscale>  0 0.56505549E+04</rscale>
<asrwt>0</asrwt>
<pdfrwt beam="1">  1        2 0.64865319E+00 0.56505549E+04</pdfrwt>
<pdfrwt beam="2">  1       -2 0.29126141E+00 0.56505549E+04</pdfrwt>
<totfact> 0.46887585E-03</totfact>
</mgrwt>
<rwgt>
<wgt id='morphing_basis_vector_1'> +1.2533811e-06 </wgt>
<wgt id='morphing_basis_vector_2'> +8.7789836e-07 </wgt>
<wgt id='morphing_basis_vector_3'> +1.3885371e-06 </wgt>
<wgt id='morphing_basis_vector_4'> +9.6702977e-07 </wgt>
<wgt id='morphing_basis_vector_5'> +1.5791076e-06 </wgt>
</rwgt>
</event>
<event>
 4      1 +9.0096000e-12 6.35209400e+03 7.81860800e-03 7.22417000e-02
        2 -1    0    0  501    0 +0.0000000000e+00 +0.0000000000e+00 +2.7881034099e+03 2.7881034099e+03 0.0000000000e+00 0.0000e+00 -1.0000e+00
       -2 -1    0    0    0  501 -0.0000000000e+00 -0.0000000000e+00 -3.6179698263e+03 3.6179698263e+03 0.0000000000e+00 0.0000e+00 1.0000e+00
      -13  1    1    2    0    0 +3.0197300619e+03 -2.7171175793e+02 -1.3688448548e+03 3.3266098604e+03 0.0000000000e+00 0.0000e+00 1.0000e+00
       13  1    1    2    0    0 -3.0197300619e+03 +2.7171175793e+02 +5.3897843846e+02 3.0794633759e+03 0.0000000000e+00 0.0000e+00 -1.0000e+00
<mgrwt>
<rscale>  0 0.63520938E+04</rscale>
<asrwt>0</asrwt>
<pdfrwt beam="1">  1        2 0.42893899E+00 0.63520938E+04</pdfrwt>
<pdfrwt beam="2">  1       -2 0.55661074E+00 0.63520938E+04</pdfrwt>
<totfact> 0.77108445E-04</totfact>
</mgrwt>
<rwgt>
<wgt id='morphing_basis_vector_1'> +2.0040268e-06 </wgt>
<wgt id='morphing_basis_vector_2'> +1.4146706e-06 </wgt>
<wgt id='morphing_basis_vector_3'> +2.2248141e-06 </wgt>
<wgt id='morphing_basis_vector_4'> +1.5361915e-06 </wgt>
<wgt id='morphing_basis_vector_5'> +2.5236140e-06 </wgt>
</rwgt>
</event>
<event>
 4      1 +9.0096000e-12 5.63054500e+03 7.81860800e-03 7.30403600e-02
        2 -1    0    0  501    0 +0.0000000000e+00 +0.0000000000e+00 +2.8661057963e+03 2.8661057963e+03 0.0000000000e+00 0.0000e+00 -1.0000e+00
       -2 -1    0    0    0  501 -0.0000000000e+00 -0.0000000000e+00 -2.7653408702e+03 2.7653408702e+03 0.0000000000e+00 0.0000e+00 1.0000e+00
      -13  1    1    2    0    0 -1.0973899199e+03 -2.2589690288e+03 -1.2220452024e+03 2.7929554572e+03 0.0000000000e+00 0.0000e+00 1.0000e+00
       13  1    1    2    0    0 +1.0973899199e+03 +2.2589690288e+03 +1.3228101284e+03 2.8384912093e+03 0.0000000000e+00 0.0000e+00 -1.0000e+00
<mgrwt>
<rscale>  0 0.56305451E+04</rscale>
<asrwt>0</asrwt>
<pdfrwt beam="1">  1        2 0.44093936E+00 0.56305451E+04</pdfrwt>
<pdfrwt beam="2">  1       -2 0.42543705E+00 0.56305451E+04</pdfrwt>
<totfact> 0.64368848E-03</totfact>
</mgrwt>
<rwgt>
<wgt id='morphing_basis_vector_1'> +1.2313962e-06 </wgt>
<wgt id='morphing_basis_vector_2'> +8.5271273e-07 </wgt>
<wgt id='morphing_basis_vector_3'> +1.3618523e-06 </wgt>
<wgt id='morphing_basis_vector_4'> +9.6270894e-07 </wgt>
<wgt id='morphing_basis_vector_5'> +1.5575880e-06 </wgt>
</rwgt>
</event>
<event>
 4      1 +9.0096000e-12 6.41272700e+03 7.81860800e-03 7.21795400e-02
        2 -1    0    0  501    0 +0.0000000000e+00 +0.0000000000e+00 +2.8012396049e+03 2.8012396049e+03 0.0000000000e+00 0.0000e+00 1.0000e+00
       -2 -1    0    0    0  501 -0.0000000000e+00 -0.0000000000e+00 -3.6700778479e+03 3.6700778479e+03 0.0000000000e+00 0.0000e+00 -1.0000e+00
      -13  1    1    2    0    0 -1.8126114090e+03 -1.6478233222e+03 -2.5221091757e+03 3.5159517226e+03 0.0000000000e+00 0.0000e+00 -1.0000e+00
       13  1    1    2    0    0 +1.8126114090e+03 +1.6478233222e+03 +1.6532709328e+03 2.9553657301e+03 0.0000000000e+00 0.0000e+00 1.0000e+00
<mgrwt>
<rscale>  0 0.64127272E+04</rscale>
<asrwt>0</asrwt>
<pdfrwt beam="1">  1        2 0.43095994E+00 0.64127272E+04</pdfrwt>
<pdfrwt beam="2">  1       -2 0.56462736E+00 0.64127272E+04</pdfrwt>
<totfact> 0.65917831E-04</totfact>
</mgrwt>
<rwgt>
<wgt id='morphing_basis_vector_1'> +2.0615228e-06 </wgt>
<wgt id='morphing_basis_vector_2'> +1.4108255e-06 </wgt>
<wgt id='morphing_basis_vector_3'> +2.2783253e-06 </wgt>
<wgt id='morphing_basis_vector_4'> +1.6385595e-06 </wgt>
<wgt id='morphing_basis_vector_5'> +2.6251508e-06 </wgt>
</rwgt>
</event>
<event>
 4      1 +9.0096000e-12 5.55823600e+03 7.81860800e-03 7.31270700e-02
        2 -1    0    0  501    0 +0.0000000000e+00 +0.0000000000e+00 +2.8593996275e+03 2.8593996275e+03 0.0000000000e+00 0.0000e+00 1.0000e+00
       -2 -1    0    0    0  501 -0.0000000000e+00 -0.0000000000e+00 -2.7010908435e+03 2.7010908435e+03 0.0000000000e+00 0.0000e+00 -1.0000e+00
      -13  1    1    2    0    0 +9.7186676999e+02 -1.1077387917e+02 +2.6814978611e+03 2.8543347124e+03 0.0000000000e+00 0.0000e+00 1.0000e+00
       13  1    1    2    0    0 -9.7186676999e+02 +1.1077387917e+02 -2.5231890772e+03 2.7061557586e+03 0.0000000000e+00 0.0000e+00 -1.0000e+00
<mgrwt>
<rscale>  0 0.55582365E+04</rscale>
<asrwt>0</asrwt>
<pdfrwt beam="1">  1        2 0.43990763E+00 0.55582365E+04</pdfrwt>
<pdfrwt beam="2">  1       -2 0.41555244E+00 0.55582365E+04</pdfrwt>
<totfact> 0.76032053E-03</totfact>
</mgrwt>
<rwgt>
<wgt id='morphing_basis_vector_1'> +1.5900551e-06 </wgt>
<wgt id='morphing_basis_vector_2'> +2.0444102e-06 </wgt>
<wgt id='morphing_basis_vector_3'> +1.9783430e-06 </wgt>
<wgt id='morphing_basis_vector_4'> +1.5810607e-08 </wgt>
<wgt id='morphing_basis_vector_5'> +1.4034501e-06 </wgt>
</rwgt>
</event>
<event>
 4      1 +9.0096000e-12 5.55377300e+03 7.81860800e-03 7.31324700e-02
        2 -1    0    0  501    0 +0.0000000000e+00 +0.0000000000e+00 +2.5888577301e+03 2.5888577301e+03 0.0000000000e+00 0.0000e+00 -1.0000e+00
       -2 -1    0    0    0  501 -0.0000000000e+00 -0.0000000000e+00 -2.9785714212e+03 2.9785714212e+03 0.0000000000e+00 0.0000e+00 1.0000e+00
      -13  1    1    2    0    0 -2.0438524397e+03 +1.3274324801e+03 -1.5291774953e+03 2.8771154994e+03 0.0000000000e+00 0.0000e+00 1.0000e+00
       13  1    1    2    0    0 +2.0438524397e+03 -1.3274324801e+03 +1.1394638042e+03 2.6903136519e+03 0.0000000000e+00 0.0000e+00 -1.0000e+00
<mgrwt>
<rscale>  0 0.55537726E+04</rscale>
<asrwt>0</asrwt>
<pdfrwt beam="1">  1        2 0.39828581E+00 0.55537726E+04</pdfrwt>
<pdfrwt beam="2">  1       -2 0.45824176E+00 0.55537726E+04</pdfrwt>
<totfact> 0.57235685E-03</totfact>
</mgrwt>
<rwgt>
<wgt id='morphing_basis_vector_1'> +1.1649078e-06 </wgt>
<wgt id='morphing_basis_vector_2'> +8.0467889e-07 </wgt>
<wgt id='morphing_basis_vector_3'> +1.2876943e-06 </wgt>
<wgt id='morphing_basis_vector_4'> +9.1297473e-07 </wgt>
<wgt id='morphing_basis_vector_5'> +1.4743079e-06 </wgt>
</rwgt>
</event>
<event>
 4      1 +9.0096000e-12 5.67692200e+03 7.81860800e-03 7.29854400e-02
        2 -1    0    0  501    0 +0.0000000000e+00 +0.0000000000e+00 +1.5363601484e+03 1.5363601484e+03 0.0000000000e+00 0.0000e+00 -1.0000e+00
       -2 -1    0    0    0  501 -0.0000000000e+00 -0.0000000000e+00 -5.2441221874e+03 5.2441221874e+03 0.0000000000e+00 0.0000e+00 1.0000e+00
      -13  1    1    2    0    0 +1.1345688956e+03 -2.4197270534e+03 -2.9960958152e+03 4.0148369489e+03 0.0000000000e+00 0.0000e+00 1.0000e+00
       13  1    1    2    0    0 -1.1345688956e+03 +2.4197270534e+03 -7.1166622379e+02 2.7656453869e+03 0.0000000000e+00 0.0000e+00 -1.0000e+00
<mgrwt>
<rscale>  0 0.56769218E+04</rscale>
<asrwt>0</asrwt>
<pdfrwt beam="1">  1        2 0.23636310E+00 0.56769218E+04</pdfrwt>
<pdfrwt beam="2">  1       -2 0.80678803E+00 0.56769218E+04</pdfrwt>
<totfact> 0.97299749E-04</totfact>
</mgrwt>
<rwgt>
<wgt id='morphing_basis_vector_1'> +1.2774930e-06 </wgt>
<wgt id='morphing_basis_vector_2'> +8.9618417e-07 </wgt>
<wgt id='morphing_basis_vector_3'> +1.4156348e-06 </wgt>
<wgt id='morphing_basis_vector_4'> +9.8393798e-07 </wgt>
<wgt id='morphing_basis_vector_5'> +1.6087521e-06 </wgt>
</rwgt>
</event>
<event>
 4      1 +9.0096000e-12 5.67519300e+03 7.81860800e-03 7.29874800e-02
        2 -1    0    0  501    0 +0.0000000000e+00 +0.0000000000e+00 +3.2490368955e+03 3.2490368955e+03 0.0000000000e+00 0.0000e+00 -1.0000e+00
       -2 -1    0    0    0  501 -0.0000000000e+00 -0.0000000000e+00 -2.4782583256e+03 2.4782583256e+03 0.0000000000e+00 0.0000e+00 1.0000e+00
      -13  1    1    2    0    0 -2.2176668101e+03 -7.5003065534e+02 -1.2328787823e+03 2.6458613260e+03 0.0000000000e+00 0.0000e+00 1.0000e+00
       13  1    1    2    0    0 +2.2176668101e+03 +7.5003065534e+02 +2.0036573522e+03 3.0814338950e+03 0.0000000000e+00 0.0000e+00 -1.0000e+00
<mgrwt>
<rscale>  0 0.56751926E+04</rscale>
<asrwt>0</asrwt>
<pdfrwt beam="1">  1        2 0.49985183E+00 0.56751926E+04</pdfrwt>
<pdfrwt beam="2">  1       -2 0.38127051E+00 0.56751926E+04</pdfrwt>
<totfact> 0.69799098E-03</totfact>
</mgrwt>
<rwgt>
<wgt id='morphing_basis_vector_1'> +1.2675252e-06 </wgt>
<wgt id='morphing_basis_vector_2'> +8.7038831e-07 </wgt>
<wgt id='morphing_basis_vector_3'> +1.4001916e-06 </wgt>
<wgt id='morphing_basis_vector_4'> +1.0007206e-06 </wgt>
<wgt id='morphing_basis_vector_5'> +1.6082994e-06 </wgt>
</rwgt>
</event>
<event>
 4      1 +9.0096000e-12 5.88257700e+03 7.81860800e-03 7.27482000e-02
        2 -1    0    0  501    0 +0.0000000000e+00 +0.0000000000e+00 +4.1342922216e+03 4.1342922216e+03 0.0000000000e+00 0.0000e+00 -1.0000e+00
       -2 -1    0    0    0  501 -0.0000000000e+00 -0.0000000000e+00 -2.0925415250e+03 2.0925415250e+03 0.0000000000e+00 0.0000e+00 1.0000e+00
      -13  1    1    2    0    0 -2.6123479055e+03 -1.3172288323e+03 +7.0029051428e+02 3.0082985524e+03 0.0000000000e+00 0.0000e+00 1.0000e+00
       13  1    1    2    0    0 +2.6123479055e+03 +1.3172288323e+03 +1.3414601824e+03 3.2185351943e+03 0.0000000000e+00 0.0000e+00 -1.0000e+00
<mgrwt>
<rscale>  0 0.58825770E+04</rscale>
<asrwt>0</asrwt>
<pdfrwt beam="1">  1        2 0.63604496E+00 0.58825770E+04</pdfrwt>
<pdfrwt beam="2">  1       -2 0.32192947E+00 0.58825770E+04</pdfrwt>
<totfact> 0.34066616E-03</totfact>
</mgrwt>
<rwgt>
<wgt id='morphing_basis_vector_1'> +1.4948693e-06 </wgt>
<wgt id='morphing_basis_vector_2'> +1.0990827e-06 </wgt>
<wgt id='morphing_basis_vector_3'> +1.6688392e-06 </wgt>
<wgt id='morphing_basis_vector_4'> +1.0867749e-06 </wgt>
<wgt id='morphing_basis_vector_5'> +1.8514310e-06 </wgt>
</rwgt>
</event>
<event>
 4      1 +9.0096000e-12 5.70013000e+03 7.81860800e-03 7.29581600e-02
        2 -1    0    0  501    0 +0.0000000000e+00 +0.0000000000e+00 +3.9952983528e+03 3.9952983528e+03 0.0000000000e+00 0.0000e+00 -1.0000e+00
       -2 -1    0    0    0  501 -0.0000000000e+00 -0.0000000000e+00 -2.0331076232e+03 2.0331076232e+03 0.0000000000e+00 0.0000e+00 1.0000e+00
      -13  1    1    2    0    0 +1.5400228124e+03 +2.2741059489e+03 +1.7590576945e+02 2.7521211764e+03 0.0000000000e+00 0.0000e+00 1.0000e+00
       13  1    1    2    0    0 -1.5400228124e+03 -2.2741059489e+03 +1.7862849602e+03 3.2762847997e+03 0.0000000000e+00 0.0000e+00 -1.0000e+00
<mgrwt>
<rscale>  0 0.57001304E+04</rscale>
<asrwt>0</asrwt>
<pdfrwt beam="1">  1        2 0.61466129E+00 0.57001304E+04</pdfrwt>
<pdfrwt beam="2">  1       -2 0.31278579E+00 0.57001304E+04</pdfrwt>
<totfact> 0.52535611E-03</totfact>
</mgrwt>
<rwgt>
<wgt id='morphing_basis_vector_1'> +1.3028266e-06 </wgt>
<wgt id='morphing_basis_vector_2'> +9.2373685e-07 </wgt>
<wgt id='morphing_basis_vector_3'> +1.4460468e-06 </wgt>
<wgt id='morphing_basis_vector_4'> +9.9083081e-07 </wgt>
<wgt id='morphing_basis_vector_5'> +1.6345023e-06 </wgt>
</rwgt>
</event>
<event>
 4      1 +9.0096000e-12 5.89535000e+03 7.81860800e-03 7.27337900e-02
        2 -1    0    0  501    0 +0.0000000000e+00 +0.0000000000e+00 +3.5894503044e+03 3.5894503044e+03 0.0000000000e+00 0.0000e+00 -1.0000e+00
       -2 -1    0    0    0  501 -0.0000000000e+00 -0.0000000000e+00 -2.4206459968e+03 2.4206459968e+03 0.0000000000e+00 0.0000e+00 1.0000e+00
      -13  1    1    2    0    0 -1.3346784230e+03 -1.6134433912e+03 -1.5306407218e+03 2.5937284146e+03 0.0000000000e+00 0.0000e+00 1.0000e+00
       13  1    1    2    0    0 +1.3346784230e+03 +1.6134433912e+03 +2.6994450295e+03 3.4163678866e+03 0.0000000000e+00 0.0000e+00 -1.0000e+00
<mgrwt>
<rscale>  0 0.58953502E+04</rscale>
<asrwt>0</asrwt>
<pdfrwt beam="1">  1        2 0.55222312E+00 0.58953502E+04</pdfrwt>
<pdfrwt beam="2">  1       -2 0.37240708E+00 0.58953502E+04</pdfrwt>
<totfact> 0.44577120E-03</totfact>
</mgrwt>
<rwgt>
<wgt id='morphing_basis_vector_1'> +1.4726090e-06 </wgt>
<wgt id='morphing_basis_vector_2'> +1.0051643e-06 </wgt>
<wgt id='morphing_basis_vector_3'> +1.6258441e-06 </wgt>
<wgt id='morphing_basis_vector_4'> +1.1716573e-06 </wgt>
<wgt id='morphing_basis_vector_5'> +1.8739403e-06 </wgt>
</rwgt>
</event>
<event>
 4      1 +9.0096000e-12 6.03163400e+03 7.81860800e-03 7.25823400e-02
        2 -1    0    0  501    0 +0.0000000000e+00 +0.0000000000e+00 +3.8619041867e+03 3.8619041867e+03 0.0000000000e+00 0.0000e+00 1.0000e+00
       -2 -1    0    0    0  501 -0.0000000000e+00 -0.0000000000e+00 -2.3550951229e+03 2.3550951229e+03 0.0000000000e+00 0.0000e+00 -1.0000e+00
      -13  1    1    2    0    0 +1.6677554494e+02 -8.6384194417e+02 -2.2198809105e+03 2.3878668815e+03 0.0000000000e+00 0.0000e+00 -1.0000e+00
       13  1    1    2    0    0 -1.6677554494e+02 +8.6384194417e+02 +3.7266899744e+03 3.8291324281e+03 0.0000000000e+00 0.0000e+00 1.0000e+00
<mgrwt>
<rscale>  0 0.60316338E+04</rscale>
<asrwt>0</asrwt>
<pdfrwt beam="1">  1        2 0.59413911E+00 0.60316338E+04</pdfrwt>
<pdfrwt beam="2">  1       -2 0.36232233E+00 0.60316338E+04</pdfrwt>
<totfact> 0.31358605E-03</totfact>
</mgrwt>
<rwgt>
<wgt id='morphing_basis_vector_1'> +1.6112819e-06 </wgt>
<wgt id='morphing_basis_vector_2'> +1.0955649e-06 </wgt>
<wgt id='morphing_basis_vector_3'> +1.7782681e-06 </wgt>
<wgt id='morphing_basis_vector_4'> +1.2882432e-06 </wgt>
<wgt id='morphing_basis_vector_5'> +2.0540918e-06 </wgt>
</rwgt>
</event>
<event>
 4      1 +9.0096000e-12 5.72913900e+03 7.81860800e-03 7.29242400e-02
        2 -1    0    0  501    0 +0.0000000000e+00 +0.0000000000e+00 +4.0749222783e+03 4.0749222783e+03 0.0000000000e+00 0.0000e+00 -1.0000e+00
       -2 -1    0    0    0  501 -0.0000000000e+00 -0.0000000000e+00 -2.0137216516e+03 2.0137216516e+03 0.0000000000e+00 0.0000e+00 1.0000e+00
      -13  1    1    2    0    0 -8.9343615376e+02 +8.6633718180e+02 -1.7114169178e+03 2.1160614688e+03 0.0000000000e+00 0.0000e+00 1.0000e+00
       13  1    1    2    0    0 +8.9343615376e+02 -8.6633718180e+02 +3.7726175444e+03 3.9725824610e+03 0.0000000000e+00 0.0000e+00 -1.0000e+00
<mgrwt>
<rscale>  0 0.57291393E+04</rscale>
<asrwt>0</asrwt>
<pdfrwt beam="1">  1        2 0.62691112E+00 0.57291393E+04</pdfrwt>
<pdfrwt beam="2">  1       -2 0.30980333E+00 0.57291393E+04</pdfrwt>
<totfact> 0.46852373E-03</totfact>
</mgrwt>
<rwgt>
<wgt id='morphing_basis_vector_1'> +1.3123258e-06 </wgt>
<wgt id='morphing_basis_vector_2'> +8.9229883e-07 </wgt>
<wgt id='morphing_basis_vector_3'> +1.4477299e-06 </wgt>
<wgt id='morphing_basis_vector_4'> +1.0478737e-06 </wgt>
<wgt id='morphing_basis_vector_5'> +1.6711942e-06 </wgt>
</rwgt>
</event>
<event>
 4      1 +9.0096000e-12 5.78213800e+03 7.81860800e-03 7.28628100e-02
        2 -1    0    0  501    0 +0.0000000000e+00 +0.0000000000e+00 +3.4608308738e+03 3.4608308738e+03 0.0000000000e+00 0.0000e+00 -1.0000e+00
       -2 -1    0    0    0  501 -0.0000000000e+00 -0.0000000000e+00 -2.4151079623e+03 2.4151079623e+03 0.0000000000e+00 0.0000e+00 1.0000e+00
      -13  1    1    2    0    0 -6.5208773005e+01 +2.2459548497e+03 -1.3259136968e+03 2.6089485434e+03 0.0000000000e+00 0.0000e+00 1.0000e+00
       13  1    1    2    0    0 +6.5208773005e+01 -2.2459548497e+03 +2.3716366083e+03 3.2669902927e+03 0.0000000000e+00 0.0000e+00 -1.0000e+00
<mgrwt>
<rscale>  0 0.57821381E+04</rscale>
<asrwt>0</asrwt>
<pdfrwt beam="1">  1        2 0.53243552E+00 0.57821381E+04</pdfrwt>
<pdfrwt beam="2">  1       -2 0.37155507E+00 0.57821381E+04</pdfrwt>
<totfact> 0.56665991E-03</totfact>
</mgrwt>
<rwgt>
<wgt id='morphing_basis_vector_1'> +1.3641521e-06 </wgt>
<wgt id='morphing_basis_vector_2'> +9.3370770e-07 </wgt>
<wgt id='morphing_basis_vector_3'> +1.5064640e-06 </wgt>
<wgt id='morphing_basis_vector_4'> +1.0814840e-06 </wgt>
<wgt id='morphing_basis_vector_5'> +1.7335620e-06 </wgt>
</rwgt>
</event>
<event>
 4      1 +9.0096000e-12 5.60214400e+03 7.81860800e-03 7.30742600e-02
        2 -1    0    0  501    0 +0.0000000000e+00 +0.0000000000e+00 +2.8367611136e+03 2.8367611136e+03 0.0000000000e+00 0.0000e+00 -1.0000e+00
       -2 -1    0    0    0  501 -0.0000000000e+00 -0.0000000000e+00 -2.7658318418e+03 2.7658318418e+03 0.0000000000e+00 0.0000e+00 1.0000e+00
      -13  1    1    2    0    0 -2.6392485781e+03 +3.6357609227e+02 -8.2958075033e+02 2.7903449344e+03 0.0000000000e+00 0.0000e+00 1.0000e+00
       13  1    1    2    0    0 +2.6392485781e+03 -3.6357609227e+02 +9.0051002210e+02 2.8122480210e+03 0.0000000000e+00 0.0000e+00 -1.0000e+00
<mgrwt>
<rscale>  0 0.56021440E+04</rscale>
<asrwt>0</asrwt>
<pdfrwt beam="1">  1        2 0.43642479E+00 0.56021440E+04</pdfrwt>
<pdfrwt beam="2">  1       -2 0.42551259E+00 0.56021440E+04</pdfrwt>
<totfact> 0.67250614E-03</totfact>
</mgrwt>
<rwgt>
<wgt id='morphing_basis_vector_1'> +1.2131916e-06 </wgt>
<wgt id='morphing_basis_vector_2'> +8.5441385e-07 </wgt>
<wgt id='morphing_basis_vector_3'> +1.3449973e-06 </wgt>
<wgt id='morphing_basis_vector_4'> +9.2973424e-07 </wgt>
<wgt id='morphing_basis_vector_5'> +1.5251740e-06 </wgt>
</rwgt>
</event>
<event>
 4      1 +9.0096000e-12 5.97726800e+03 7.81860800e-03 7.26422600e-02
        2 -1    0    0  501    0 +0.0000000000e+00 +0.0000000000e+00 +2.8707374617e+03 2.8707374617e+03 0.0000000000e+00 0.0000e+00 1.0000e+00
       -2 -1    0    0    0  501 -0.0000000000e+00 -0.0000000000e+00 -3.1113727147e+03 3.1113727147e+03 0.0000000000e+00 0.0000e+00 -1.0000e+00
      -13  1    1    2    0    0 -1.7743429525e+03 -2.1575462993e+03 -1.1835506607e+03 3.0338245027e+03 0.0000000000e+00 0.0000e+00 -1.0000e+00
       13  1    1    2    0    0 +1.7743429525e+03 +2.1575462993e+03 +9.4291540773e+02 2.9482856736e+03 0.0000000000e+00 0.0000e+00 1.0000e+00
<mgrwt>
<rscale>  0 0.59772683E+04</rscale>
<asrwt>0</asrwt>
<pdfrwt beam="1">  1        2 0.44165192E+00 0.59772683E+04</pdfrwt>
<pdfrwt beam="2">  1       -2 0.47867272E+00 0.59772683E+04</pdfrwt>
<totfact> 0.26353144E-03</totfact>
</mgrwt>
<rwgt>
<wgt id='morphing_basis_vector_1'> +1.5680817e-06 </wgt>
<wgt id='morphing_basis_vector_2'> +1.0976744e-06 </wgt>
<wgt id='morphing_basis_vector_3'> +1.7378559e-06 </wgt>
<wgt id='morphing_basis_vector_4'> +1.2124151e-06 </wgt>
<wgt id='morphing_basis_vector_5'> +1.9783565e-06 </wgt>
</rwgt>
</event>
<event>
 4      1 +9.0096000e-12 6.07176700e+03 7.81860800e-03 7.25385200e-02
        2 -1    0    0  501    0 +0.0000000000e+00 +0.0000000000e+00 +2.8017320232e+03 2.8017320232e+03 0.0000000000e+00 0.0000e+00 1.0000e+00
       -2 -1    0    0    0  501 -0.0000000000e+00 -0.0000000000e+00 -3.2896034650e+03 3.2896034650e+03 0.0000000000e+00 0.0000e+00 -1.0000e+00
      -13  1    1    2    0    0 +6.2977538798e+02 -2.5982140217e+03 +1.1991906984e+03 2.9300838679e+03 0.0000000000e+00 0.0000e+00 -1.0000e+00
       13  1    1    2    0    0 -6.2977538798e+02 +2.5982140217e+03 -1.6870621402e+03 3.1612516203e+03 0.0000000000e+00 0.0000e+00 1.0000e+00
<mgrwt>
<rscale>  0 0.60717666E+04</rscale>
<asrwt>0</asrwt>
<pdfrwt beam="1">  1        2 0.43103569E+00 0.60717666E+04</pdfrwt>
<pdfrwt beam="2">  1       -2 0.50609284E+00 0.60717666E+04</pdfrwt>
<totfact> 0.18054207E-03</totfact>
</mgrwt>
<rwgt>
<wgt id='morphing_basis_vector_1'> +1.9390861e-06 </wgt>
<wgt id='morphing_basis_vector_2'> +1.9602871e-06 </wgt>
<wgt id='morphing_basis_vector_3'> +2.2909043e-06 </wgt>
<wgt id='morphing_basis_vector_4'> +7.1404421e-07 </wgt>
<wgt id='morphing_basis_vector_5'> +2.0582048e-06 </wgt>
</rwgt>
</event>
<event>
 4      1 +9.0096000e-12 5.77070300e+03 7.81860800e-03 7.28760100e-02
        2 -1    0    0  501    0 +0.0000000000e+00 +0.0000000000e+00 +2.5588870972e+03 2.5588870972e+03 0.0000000000e+00 0.0000e+00 1.0000e+00
       -2 -1    0    0    0  501 -0.0000000000e+00 -0.0000000000e+00 -3.2534660581e+03 3.2534660581e+03 0.0000000000e+00 0.0000e+00 -1.0000e+00
      -13  1    1    2    0    0 +1.4342712675e+03 -1.8441946058e+03 -2.0527514046e+03 3.1099800871e+03 0.0000000000e+00 0.0000e+00 -1.0000e+00
       13  1    1    2    0    0 -1.4342712675e+03 +1.8441946058e+03 +1.3581724437e+03 2.7023730682e+03 0.0000000000e+00 0.0000e+00 1.0000e+00
<mgrwt>
<rscale>  0 0.57707027E+04</rscale>
<asrwt>0</asrwt>
<pdfrwt beam="1">  1        2 0.39367494E+00 0.57707027E+04</pdfrwt>
<pdfrwt beam="2">  1       -2 0.50053324E+00 0.57707027E+04</pdfrwt>
<totfact> 0.28655599E-03</totfact>
</mgrwt>
<rwgt>
<wgt id='morphing_basis_vector_1'> +1.3542914e-06 </wgt>
<wgt id='morphing_basis_vector_2'> +9.2891166e-07 </wgt>
<wgt id='morphing_basis_vector_3'> +1.4960067e-06 </wgt>
<wgt id='morphing_basis_vector_4'> +1.0710691e-06 </wgt>
<wgt id='morphing_basis_vector_5'> +1.7196995e-06 </wgt>
</rwgt>
</event>
<event>
 4      1 +9.0096000e-12 5.75244500e+03 7.81860800e-03 7.28971400e-02
        2 -1    0    0  501    0 +0.0000000000e+00 +0.0000000000e+00 +3.2317065112e+03 3.2317065112e+03 0.0000000000e+00 0.0000e+00 -1.0000e+00
       -2 -1    0    0    0  501 -0.0000000000e+00 -0.0000000000e+00 -2.5598417482e+03 2.5598417482e+03 0.0000000000e+00 0.0000e+00 1.0000e+00
      -13  1    1    2    0    0 -4.7060104880e+02 +2.6040043436e+03 -7.9882867912e+02 2.7641329973e+03 0.0000000000e+00 0.0000e+00 1.0000e+00
       13  1    1    2    0    0 +4.7060104880e+02 -2.6040043436e+03 +1.4706934421e+03 3.0274152621e+03 0.0000000000e+00 0.0000e+00 -1.0000e+00
<mgrwt>
<rscale>  0 0.57524455E+04</rscale>
<asrwt>0</asrwt>
<pdfrwt beam="1">  1        2 0.49718561E+00 0.57524455E+04</pdfrwt>
<pdfrwt beam="2">  1       -2 0.39382181E+00 0.57524455E+04</pdfrwt>
<totfact> 0.59138303E-03</totfact>
</mgrwt>
<rwgt>
<wgt id='morphing_basis_vector_1'> +1.3437996e-06 </wgt>
<wgt id='morphing_basis_vector_2'> +9.3637375e-07 </wgt>
<wgt id='morphing_basis_vector_3'> +1.4878061e-06 </wgt>
<wgt id='morphing_basis_vector_4'> +1.0436034e-06 </wgt>
<wgt id='morphing_basis_vector_5'> +1.6968162e-06 </wgt>
</rwgt>
</event>
<event>
 4      1 +9.0096000e-12 5.81632300e+03 7.81860800e-03 7.28235400e-02
        2 -1    0    0  501    0 +0.0000000000e+00 +0.0000000000e+00 +3.6298045142e+03 3.6298045142e+03 0.0000000000e+00 0.0000e+00 -1.0000e+00
       -2 -1    0    0    0  501 -0.0000000000e+00 -0.0000000000e+00 -2.3299883602e+03 2.3299883602e+03 0.0000000000e+00 0.0000e+00 1.0000e+00
      -13  1    1    2    0    0 +8.6343366989e+02 -2.7647735777e+03 +3.8288133683e+02 2.9216585625e+03 0.0000000000e+00 0.0000e+00 1.0000e+00
       13  1    1    2    0    0 -8.6343366989e+02 +2.7647735777e+03 +9.1693481717e+02 3.0381343119e+03 0.0000000000e+00 0.0000e+00 -1.0000e+00
<mgrwt>
<rscale>  0 0.58163226E+04</rscale>
<asrwt>0</asrwt>
<pdfrwt beam="1">  1        2 0.55843146E+00 0.58163226E+04</pdfrwt>
<pdfrwt beam="2">  1       -2 0.35845975E+00 0.58163226E+04</pdfrwt>
<totfact> 0.51383897E-03</totfact>
</mgrwt>
<rwgt>
<wgt id='morphing_basis_vector_1'> +1.4306151e-06 </wgt>
<wgt id='morphing_basis_vector_2'> +1.0557557e-06 </wgt>
<wgt id='morphing_basis_vector_3'> +1.5978621e-06 </wgt>
<wgt id='morphing_basis_vector_4'> +1.0346664e-06 </wgt>
<wgt id='morphing_basis_vector_5'> +1.7689111e-06 </wgt>
</rwgt>
</event>
<event>
 4      1 +9.0096000e-12 6.08420600e+03 7.81860800e-03 7.25250000e-02
        2 -1    0    0  501    0 +0.0000000000e+00 +0.0000000000e+00 +2.7782944644e+03 2.7782944644e+03 0.0000000000e+00 0.0000e+00 -1.0000e+00
       -2 -1    0    0    0  501 -0.0000000000e+00 -0.0000000000e+00 -3.3309615252e+03 3.3309615252e+03 0.0000000000e+00 0.0000e+00 1.0000e+00
      -13  1    1    2    0    0 -1.1793484471e+03 +2.7998192063e+03 -4.3363616121e+02 3.0688582026e+03 0.0000000000e+00 0.0000e+00 1.0000e+00
       13  1    1    2    0    0 +1.1793484471e+03 -2.7998192063e+03 -1.1903089960e+02 3.0403977869e+03 0.0000000000e+00 0.0000e+00 -1.0000e+00
<mgrwt>
<rscale>  0 0.60842064E+04</rscale>
<asrwt>0</asrwt>
<pdfrwt beam="1">  1        2 0.42742992E+00 0.60842064E+04</pdfrwt>
<pdfrwt beam="2">  1       -2 0.51245562E+00 0.60842064E+04</pdfrwt>
<totfact> 0.16719787E-03</totfact>
</mgrwt>
<rwgt>
<wgt id='morphing_basis_vector_1'> +1.7189536e-06 </wgt>
<wgt id='morphing_basis_vector_2'> +1.2835844e-06 </wgt>
<wgt id='morphing_basis_vector_3'> +1.9241933e-06 </wgt>
<wgt id='morphing_basis_vector_4'> +1.2249663e-06 </wgt>
<wgt id='morphing_basis_vector_5'> +2.1176480e-06 </wgt>
</rwgt>
</event>
<event>
 4      1 +9.0096000e-12 6.02284200e+03 7.81860800e-03 7.25919900e-02
        2 -1    0    0  501    0 +0.0000000000e+00 +0.0000000000e+00 +2.4819620807e+03 2.4819620807e+03 0.0000000000e+00 0.0000e+00 1.0000e+00
       -2 -1    0    0    0  501 -0.0000000000e+00 -0.0000000000e+00 -3.6538256331e+03 3.6538256331e+03 0.0000000000e+00 0.0000e+00 -1.0000e+00
      -13  1    1    2    0    0 +1.5395127528e+03 +1.4141451885e+03 -2.7942418011e+03 3.4896551940e+03 0.0000000000e+00 0.0000e+00 -1.0000e+00
       13  1    1    2    0    0 -1.5395127528e+03 -1.4141451885e+03 +1.6223782488e+03 2.6461325198e+03 0.0000000000e+00 0.0000e+00 1.0000e+00
<mgrwt>
<rscale>  0 0.60228421E+04</rscale>
<asrwt>0</asrwt>
<pdfrwt beam="1">  1        2 0.38184032E+00 0.60228421E+04</pdfrwt>
<pdfrwt beam="2">  1       -2 0.56212702E+00 0.60228421E+04</pdfrwt>
<totfact> 0.11075228E-03</totfact>
</mgrwt>
<rwgt>
<wgt id='morphing_basis_vector_1'> +1.6036298e-06 </wgt>
<wgt id='morphing_basis_vector_2'> +1.0941885e-06 </wgt>
<wgt id='morphing_basis_vector_3'> +1.7707013e-06 </wgt>
<wgt id='morphing_basis_vector_4'> +1.2770946e-06 </wgt>
<wgt id='morphing_basis_vector_5'> +2.0418097e-06 </wgt>
</rwgt>
</event>
<event>
 4      1 +9.0096000e-12 6.32251800e+03 7.81860800e-03 7.22722700e-02
        2 -1    0    0  501    0 +0.0000000000e+00 +0.0000000000e+00 +3.8984483080e+03 3.8984483080e+03 0.0000000000e+00 0.0000e+00 -1.0000e+00
       -2 -1    0    0    0  501 -0.0000000000e+00 -0.0000000000e+00 -2.5634711249e+03 2.5634711249e+03 0.0000000000e+00 0.0000e+00 1.0000e+00
      -13  1    1    2    0    0 -2.9186759808e+03 +8.7357281275e+02 -1.9477182511e+02 3.0528241030e+03 0.0000000000e+00 0.0000e+00 1.0000e+00
       13  1    1    2    0    0 +2.9186759808e+03 -8.7357281275e+02 +1.5297490082e+03 3.4090953299e+03 0.0000000000e+00 0.0000e+00 -1.0000e+00
<mgrwt>
<rscale>  0 0.63225184E+04</rscale>
<asrwt>0</asrwt>
<pdfrwt beam="1">  1        2 0.59976128E+00 0.63225184E+04</pdfrwt>
<pdfrwt beam="2">  1       -2 0.39438017E+00 0.63225184E+04</pdfrwt>
<totfact> 0.17785554E-03</totfact>
</mgrwt>
<rwgt>
<wgt id='morphing_basis_vector_1'> +1.9701686e-06 </wgt>
<wgt id='morphing_basis_vector_2'> +1.3977157e-06 </wgt>
<wgt id='morphing_basis_vector_3'> +2.1887876e-06 </wgt>
<wgt id='morphing_basis_vector_4'> +1.5010252e-06 </wgt>
<wgt id='morphing_basis_vector_5'> +2.4762863e-06 </wgt>
</rwgt>
</event>
<event>
 4      1 +9.0096000e-12 5.88069100e+03 7.81860800e-03 7.27503300e-02
        2 -1    0    0  501    0 +0.0000000000e+00 +0.0000000000e+00 +3.0919470167e+03 3.0919470167e+03 0.0000000000e+00 0.0000e+00 1.0000e+00
       -2 -1    0    0    0  501 -0.0000000000e+00 -0.0000000000e+00 -2.7961768794e+03 2.7961768794e+03 0.0000000000e+00 0.0000e+00 -1.0000e+00
      -13  1    1    2    0    0 -1.6796010812e+03 +2.0689756887e+03 -1.0962274845e+03 2.8815681304e+03 0.0000000000e+00 0.0000e+00 -1.0000e+00
       13  1    1    2    0    0 +1.6796010812e+03 -2.0689756887e+03 +1.3919976219e+03 3.0065557656e+03 0.0000000000e+00 0.0000e+00 1.0000e+00
<mgrwt>
<rscale>  0 0.58806907E+04</rscale>
<asrwt>0</asrwt>
<pdfrwt beam="1">  1        2 0.47568415E+00 0.58806907E+04</pdfrwt>
<pdfrwt beam="2">  1       -2 0.43018106E+00 0.58806907E+04</pdfrwt>
<totfact> 0.41886698E-03</totfact>
</mgrwt>
<rwgt>
<wgt id='morphing_basis_vector_1'> +1.4658903e-06 </wgt>
<wgt id='morphing_basis_vector_2'> +1.0182245e-06 </wgt>
<wgt id='morphing_basis_vector_3'> +1.6225286e-06 </wgt>
<wgt id='morphing_basis_vector_4'> +1.1432574e-06 </wgt>
<wgt id='morphing_basis_vector_5'> +1.8539188e-06 </wgt>
</rwgt>
</event>
<event>
 4      1 +9.0096000e-12 6.06983300e+03 7.81860800e-03 7.25406200e-02
        2 -1    0    0  501    0 +0.0000000000e+00 +0.0000000000e+00 +3.1997541099e+03 3.1997541099e+03 0.0000000000e+00 0.0000e+00 -1.0000e+00
       -2 -1    0    0    0  501 -0.0000000000e+00 -0.0000000000e+00 -2.8785708608e+03 2.8785708608e+03 0.0000000000e+00 0.0000e+00 1.0000e+00
      -13  1    1    2    0    0 +2.5499840646e+03 -1.6456040447e+03 +1.4361088007e+02 3.0382652100e+03 0.0000000000e+00 0.0000e+00 1.0000e+00
       13  1    1    2    0    0 -2.5499840646e+03 +1.6456040447e+03 +1.7757236903e+02 3.0400597606e+03 0.0000000000e+00 0.0000e+00 -1.0000e+00
<mgrwt>
<rscale>  0 0.60698333E+04</rscale>
<asrwt>0</asrwt>
<pdfrwt beam="1">  1        2 0.49226987E+00 0.60698333E+04</pdfrwt>
<pdfrwt beam="2">  1       -2 0.44285705E+00 0.60698333E+04</pdfrwt>
<totfact> 0.28660957E-03</totfact>
</mgrwt>
<rwgt>
<wgt id='morphing_basis_vector_1'> +1.7119925e-06 </wgt>
<wgt id='morphing_basis_vector_2'> +1.2984813e-06 </wgt>
<wgt id='morphing_basis_vector_3'> +1.9210825e-06 </wgt>
<wgt id='morphing_basis_vector_4'> +1.1937479e-06 </wgt>
<wgt id='morphing_basis_vector_5'> +2.0960119e-06 </wgt>
</rwgt>
</event>
<event>
 4      1 +9.0096000e-12 5.79868600e+03 7.81860800e-03 7.28437600e-02
        2 -1    0    0  501    0 +0.0000000000e+00 +0.0000000000e+00 +2.8126925947e+03 2.8126925947e+03 0.0000000000e+00 0.0000e+00 -1.0000e+00
       -2 -1    0    0    0  501 -0.0000000000e+00 -0.0000000000e+00 -2.9886628454e+03 2.9886628454e+03 0.0000000000e+00 0.0000e+00 1.0000e+00
      -13  1    1    2    0    0 -2.1745033157e+03 +1.0133936579e+02 -2.0039269119e+03 2.9587932346e+03 0.0000000000e+00 0.0000e+00 1.0000e+00
       13  1    1    2    0    0 +2.1745033157e+03 -1.0133936579e+02 +1.8279566612e+03 2.8425622055e+03 0.0000000000e+00 0.0000e+00 -1.0000e+00
<mgrwt>
<rscale>  0 0.57986860E+04</rscale>
<asrwt>0</asrwt>
<pdfrwt beam="1">  1        2 0.43272193E+00 0.57986860E+04</pdfrwt>
<pdfrwt beam="2">  1       -2 0.45979429E+00 0.57986860E+04</pdfrwt>
<totfact> 0.39861342E-03</totfact>
</mgrwt>
<rwgt>
<wgt id='morphing_basis_vector_1'> +1.3792410e-06 </wgt>
<wgt id='morphing_basis_vector_2'> +9.4280022e-07 </wgt>
<wgt id='morphing_basis_vector_3'> +1.5228744e-06 </wgt>
<wgt id='morphing_basis_vector_4'> +1.0951348e-06 </wgt>
<wgt id='morphing_basis_vector_5'> +1.7536397e-06 </wgt>
</rwgt>
</event>
<event>
 4      1 +9.0096000e-12 5.95803300e+03 7.81860800e-03 7.26636200e-02
        2 -1    0    0  501    0 +0.0000000000e+00 +0.0000000000e+00 +3.3504008277e+03 3.3504008277e+03 0.0000000000e+00 0.0000e+00 -1.0000e+00
       -2 -1    0    0    0  501 -0.0000000000e+00 -0.0000000000e+00 -2.6487992374e+03 2.6487992374e+03 0.0000000000e+00 0.0000e+00 1.0000e+00
      -13  1    1    2    0    0 +1.0619217338e+03 -1.2853730116e+03 -2.1349970859e+03 2.7088879830e+03 0.0000000000e+00 0.0000e+00 1.0000e+00
       13  1    1    2    0    0 -1.0619217338e+03 +1.2853730116e+03 +2.8365986762e+03 3.2903120821e+03 0.0000000000e+00 0.0000e+00 -1.0000e+00
<mgrwt>
<rscale>  0 0.59580329E+04</rscale>
<asrwt>0</asrwt>
<pdfrwt beam="1">  1        2 0.51544628E+00 0.59580329E+04</pdfrwt>
<pdfrwt beam="2">  1       -2 0.40750757E+00 0.59580329E+04</pdfrwt>
<totfact> 0.39189490E-03</totfact>
</mgrwt>
<rwgt>
<wgt id='morphing_basis_vector_1'> +1.5347544e-06 </wgt>
<wgt id='morphing_basis_vector_2'> +1.0446297e-06 </wgt>
<wgt id='morphing_basis_vector_3'> +1.6939061e-06 </wgt>
<wgt id='morphing_basis_vector_4'> +1.2252665e-06 </wgt>
<wgt id='morphing_basis_vector_5'> +1.9553470e-06 </wgt>
</rwgt>
</event>
<event>
 4      1 +9.0096000e-12 5.78275900e+03 7.81860800e-03 7.28620900e-02
        2 -1    0    0  501    0 +0.0000000000e+00 +0.0000000000e+00 +3.7078645335e+03 3.7078645335e+03 0.0000000000e+00 0.0000e+00 -1.0000e+00
       -2 -1    0    0    0  501 -0.0000000000e+00 -0.0000000000e+00 -2.2546876519e+03 2.2546876519e+03 0.0000000000e+00 0.0000e+00 1.0000e+00
      -13  1    1    2    0    0 +1.2756902865e+03 +1.3966006157e+03 -1.5282260850e+03 2.4317388745e+03 0.0000000000e+00 0.0000e+00 1.0000e+00
       13  1    1    2    0    0 -1.2756902865e+03 -1.3966006157e+03 +2.9814029666e+03 3.5308133109e+03 0.0000000000e+00 0.0000e+00 -1.0000e+00
<mgrwt>
<rscale>  0 0.57827593E+04</rscale>
<asrwt>0</asrwt>
<pdfrwt beam="1">  1        2 0.57044070E+00 0.57827593E+04</pdfrwt>
<pdfrwt beam="2">  1       -2 0.34687502E+00 0.57827593E+04</pdfrwt>
<totfact> 0.53301554E-03</totfact>
</mgrwt>
<rwgt>
<wgt id='morphing_basis_vector_1'> +1.3629404e-06 </wgt>
<wgt id='morphing_basis_vector_2'> +9.2883481e-07 </wgt>
<wgt id='morphing_basis_vector_3'> +1.5041810e-06 </wgt>
<wgt id='morphing_basis_vector_4'> +1.0857905e-06 </wgt>
<wgt id='morphing_basis_vector_5'> +1.7346317e-06 </wgt>
</rwgt>
</event>
<event>
 4      1 +9.0096000e-12 5.61385000e+03 7.81860800e-03 7.30602600e-02
        2 -1    0    0  501    0 +0.0000000000e+00 +0.0000000000e+00 +2.7896319670e+03 2.7896319670e+03 0.0000000000e+00 0.0000e+00 1.0000e+00
       -2 -1    0    0    0  501 -0.0000000000e+00 -0.0000000000e+00 -2.8243256435e+03 2.8243256435e+03 0.0000000000e+00 0.0000e+00 -1.0000e+00
      -13  1    1    2    0    0 +1.6178470050e+03 +1.5776346266e+03 +1.6477582760e+03 2.7966886281e+03 0.0000000000e+00 0.0000e+00 -1.0000e+00
       13  1    1    2    0    0 -1.6178470050e+03 -1.5776346266e+03 -1.6824519525e+03 2.8172689823e+03 0.0000000000e+00 0.0000e+00 1.0000e+00
<mgrwt>
<rscale>  0 0.56138504E+04</rscale>
<asrwt>0</asrwt>
<pdfrwt beam="1">  1        2 0.42917415E+00 0.56138504E+04</pdfrwt>
<pdfrwt beam="2">  1       -2 0.43451164E+00 0.56138504E+04</pdfrwt>
<totfact> 0.62582040E-03</totfact>
</mgrwt>
<rwgt>
<wgt id='morphing_basis_vector_1'> +1.4919816e-06 </wgt>
<wgt id='morphing_basis_vector_2'> +1.6502195e-06 </wgt>
<wgt id='morphing_basis_vector_3'> +1.7940561e-06 </wgt>
<wgt id='morphing_basis_vector_4'> +3.6361666e-07 </wgt>
<wgt id='morphing_basis_vector_5'> +1.4897718e-06 </wgt>
</rwgt>
</event>
<event>
 4      1 +9.0096000e-12 5.65799800e+03 7.81860800e-03 7.30077800e-02
        2 -1    0    0  501    0 +0.0000000000e+00 +0.0000000000e+00 +3.3744454422e+03 3.3744454422e+03 0.0000000000e+00 0.0000e+00 -1.0000e+00
       -2 -1    0    0    0  501 -0.0000000000e+00 -0.0000000000e+00 -2.3717191056e+03 2.3717191056e+03 0.0000000000e+00 0.0000e+00 1.0000e+00
      -13  1    1    2    0    0 -3.4355870896e+02 +1.6206903276e+03 -1.8275266227e+03 2.4666826470e+03 0.0000000000e+00 0.0000e+00 1.0000e+00
       13  1    1    2    0    0 +3.4355870896e+02 -1.6206903276e+03 +2.8302529593e+03 3.2794819009e+03 0.0000000000e+00 0.0000e+00 -1.0000e+00
<mgrwt>
<rscale>  0 0.56579985E+04</rscale>
<asrwt>0</asrwt>
<pdfrwt beam="1">  1        2 0.51914545E+00 0.56579985E+04</pdfrwt>
<pdfrwt beam="2">  1       -2 0.36487986E+00 0.56579985E+04</pdfrwt>
<totfact> 0.72826780E-03</totfact>
</mgrwt>
<rwgt>
<wgt id='morphing_basis_vector_1'> +1.2489242e-06 </wgt>
<wgt id='morphing_basis_vector_2'> +8.5006829e-07 </wgt>
<wgt id='morphing_basis_vector_3'> +1.3778440e-06 </wgt>
<wgt id='morphing_basis_vector_4'> +9.9577451e-07 </wgt>
<wgt id='morphing_basis_vector_5'> +1.5894509e-06 </wgt>
</rwgt>
</event>
<event>
 4      1 +9.0096000e-12 6.26469200e+03 7.81860800e-03 7.23325500e-02
        2 -1    0    0  501    0 +0.0000000000e+00 +0.0000000000e+00 +4.3893113446e+03 4.3893113446e+03 0.0000000000e+00 0.0000e+00 -1.0000e+00
       -2 -1    0    0    0  501 -0.0000000000e+00 -0.0000000000e+00 -2.2353371471e+03 2.2353371471e+03 0.0000000000e+00 0.0000e+00 1.0000e+00
      -13  1    1    2    0    0 -2.2084471051e+03 +2.1679901187e+03 +1.5887038344e+03 3.4787066051e+03 0.0000000000e+00 0.0000e+00 1.0000e+00
       13  1    1    2    0    0 +2.2084471051e+03 -2.1679901187e+03 +5.6527036298e+02 3.1459418866e+03 0.0000000000e+00 0.0000e+00 -1.0000e+00
<mgrwt>
<rscale>  0 0.62646918E+04</rscale>
<asrwt>0</asrwt>
<pdfrwt beam="1">  1        2 0.67527867E+00 0.62646918E+04</pdfrwt>
<pdfrwt beam="2">  1       -2 0.34389802E+00 0.62646918E+04</pdfrwt>
<totfact> 0.13664626E-03</totfact>
</mgrwt>
<rwgt>
<wgt id='morphing_basis_vector_1'> +1.9929948e-06 </wgt>
<wgt id='morphing_basis_vector_2'> +1.6225469e-06 </wgt>
<wgt id='morphing_basis_vector_3'> +2.2631060e-06 </wgt>
<wgt id='morphing_basis_vector_4'> +1.2460066e-06 </wgt>
<wgt id='morphing_basis_vector_5'> +2.3698569e-06 </wgt>
</rwgt>
</event>
<event>
 4      1 +9.0096000e-12 5.60372700e+03 7.81860800e-03 7.30723600e-02
        2 -1    0    0  501    0 +0.0000000000e+00 +0.0000000000e+00 +3.6063550236e+03 3.6063550236e+03 0.0000000000e+00 0.0000e+00 1.0000e+00
       -2 -1    0    0    0  501 -0.0000000000e+00 -0.0000000000e+00 -2.1768346755e+03 2.1768346755e+03 0.0000000000e+00 0.0000e+00 -1.0000e+00
      -13  1    1    2    0    0 -2.0253746861e+03 -6.8152194394e+02 +2.5849272583e+03 3.3538729418e+03 0.0000000000e+00 0.0000e+00 -1.0000e+00
       13  1    1    2    0    0 +2.0253746861e+03 +6.8152194394e+02 -1.1554069102e+03 2.4293167573e+03 0.0000000000e+00 0.0000e+00 1.0000e+00
<mgrwt>
<rscale>  0 0.56037269E+04</rscale>
<asrwt>0</asrwt>
<pdfrwt beam="1">  1        2 0.55482385E+00 0.56037269E+04</pdfrwt>
<pdfrwt beam="2">  1       -2 0.33489764E+00 0.56037269E+04</pdfrwt>
<totfact> 0.77393842E-03</totfact>
</mgrwt>
<rwgt>
<wgt id='morphing_basis_vector_1'> +1.5156682e-06 </wgt>
<wgt id='morphing_basis_vector_2'> +1.7393365e-06 </wgt>
<wgt id='morphing_basis_vector_3'> +1.8371753e-06 </wgt>
<wgt id='morphing_basis_vector_4'> +2.8752307e-07 </wgt>
<wgt id='morphing_basis_vector_5'> +1.4728564e-06 </wgt>
</rwgt>
</event>
<event>
 4      1 +9.0096000e-12 6.41061800e+03 7.81860800e-03 7.21816900e-02
        2 -1    0    0  501    0 +0.0000000000e+00 +0.0000000000e+00 +4.1831347056e+03 4.1831347056e+03 0.0000000000e+00 0.0000e+00 1.0000e+00
       -2 -1    0    0    0  501 -0.0000000000e+00 -0.0000000000e+00 -2.4560540579e+03 2.4560540579e+03 0.0000000000e+00 0.0000e+00 -1.0000e+00
      -13  1    1    2    0    0 -1.4858918842e+03 -1.5979369397e+02 -2.0731575092e+03 2.5556585793e+03 0.0000000000e+00 0.0000e+00 -1.0000e+00
       13  1    1    2    0    0 +1.4858918842e+03 +1.5979369397e+02 +3.8002381569e+03 4.0835301842e+03 0.0000000000e+00 0.0000e+00 1.0000e+00
<mgrwt>
<rscale>  0 0.64106177E+04</rscale>
<asrwt>0</asrwt>
<pdfrwt beam="1">  1        2 0.64355919E+00 0.64106177E+04</pdfrwt>
<pdfrwt beam="2">  1       -2 0.37785447E+00 0.64106177E+04</pdfrwt>
<totfact> 0.12816885E-03</totfact>
</mgrwt>
<rwgt>
<wgt id='morphing_basis_vector_1'> +2.0552447e-06 </wgt>
<wgt id='morphing_basis_vector_2'> +1.3984873e-06 </wgt>
<wgt id='morphing_basis_vector_3'> +2.2694861e-06 </wgt>
<wgt id='morphing_basis_vector_4'> +1.6440510e-06 </wgt>
<wgt id='morphing_basis_vector_5'> +2.6223358e-06 </wgt>
</rwgt>
</event>
<event>
 4      1 +9.0096000e-12 5.56277000e+03 7.81860800e-03 7.31215900e-02
        2 -1    0    0  501    0 +0.0000000000e+00 +0.0000000000e+00 +4.1954401210e+03 4.1954401210e+03 0.0000000000e+00 0.0000e+00 -1.0000e+00
       -2 -1    0    0    0  501 -0.0000000000e+00 -0.0000000000e+00 -1.8439314065e+03 1.8439314065e+03 0.0000000000e+00 0.0000e+00 1.0000e+00
      -13  1    1    2    0    0 +3.6519152604e+02 +2.7374116375e+03 +1.5347121826e+03 3.1594507129e+03 0.0000000000e+00 0.0000e+00 1.0000e+00
       13  1    1    2    0    0 -3.6519152604e+02 -2.7374116375e+03 +8.1679653184e+02 2.8799208146e+03 0.0000000000e+00 0.0000e+00 -1.0000e+00
<mgrwt>
<rscale>  0 0.55627705E+04</rscale>
<asrwt>0</asrwt>
<pdfrwt beam="1">  1        2 0.64545232E+00 0.55627705E+04</pdfrwt>
<pdfrwt beam="2">  1       -2 0.28368176E+00 0.55627705E+04</pdfrwt>
<totfact> 0.55525859E-03</totfact>
</mgrwt>
<rwgt>
<wgt id='morphing_basis_vector_1'> +1.2319166e-06 </wgt>
<wgt id='morphing_basis_vector_2'> +9.8446347e-07 </wgt>
<wgt id='morphing_basis_vector_3'> +1.3929279e-06 </wgt>
<wgt id='morphing_basis_vector_4'> +7.9191122e-07 </wgt>
<wgt id='morphing_basis_vector_5'> +1.4732402e-06 </wgt>
</rwgt>
</event>
<event>
 4      1 +9.0096000e-12 6.47537000e+03 7.81860800e-03 7.21160500e-02
        2 -1    0    0  501    0 +0.0000000000e+00 +0.0000000000e+00 +2.0418027000e+03 2.0418027000e+03 0.0000000000e+00 0.0000e+00 -1.0000e+00
       -2 -1    0    0    0  501 -0.0000000000e+00 -0.0000000000e+00 -5.1339950579e+03 5.1339950579e+03 0.0000000000e+00 0.0000e+00 1.0000e+00
      -13  1    1    2    0    0 +2.2112167992e+03 -1.6098660676e+03 +3.7377288172e+02 2.7605895486e+03 0.0000000000e+00 0.0000e+00 1.0000e+00
       13  1    1    2    0    0 -2.2112167992e+03 +1.6098660676e+03 -3.4659652397e+03 4.4152082093e+03 0.0000000000e+00 0.0000e+00 -1.0000e+00
<mgrwt>
<rscale>  0 0.64753703E+04</rscale>
<asrwt>0</asrwt>
<pdfrwt beam="1">  1        2 0.31412349E+00 0.64753703E+04</pdfrwt>
<pdfrwt beam="2">  1       -2 0.78984539E+00 0.64753703E+04</pdfrwt>
<totfact> 0.51568799E-04</totfact>
</mgrwt>
<rwgt>
<wgt id='morphing_basis_vector_1'> +2.5722109e-06 </wgt>
<wgt id='morphing_basis_vector_2'> +2.7260400e-06 </wgt>
<wgt id='morphing_basis_vector_3'> +3.0707084e-06 </wgt>
<wgt id='morphing_basis_vector_4'> +7.8455329e-07 </wgt>
<wgt id='morphing_basis_vector_5'> +2.6520511e-06 </wgt>
</rwgt>
</event>
<event>
 4      1 +9.0096000e-12 5.81053300e+03 7.81860800e-03 7.28301700e-02
        2 -1    0    0  501    0 +0.0000000000e+00 +0.0000000000e+00 +3.2473630903e+03 3.2473630903e+03 0.0000000000e+00 0.0000e+00 -1.0000e+00
       -2 -1    0    0    0  501 -0.0000000000e+00 -0.0000000000e+00 -2.5992083522e+03 2.5992083522e+03 0.0000000000e+00 0.0000e+00 1.0000e+00
      -13  1    1    2    0    0 +1.9778783845e+03 +1.9533229263e+03 +1.1737673232e+03 3.0174829059e+03 0.0000000000e+00 0.0000e+00 1.0000e+00
       13  1    1    2    0    0 -1.9778783845e+03 -1.9533229263e+03 -5.2561258503e+02 2.8290885366e+03 0.0000000000e+00 0.0000e+00 -1.0000e+00
<mgrwt>
<rscale>  0 0.58105329E+04</rscale>
<asrwt>0</asrwt>
<pdfrwt beam="1">  1        2 0.49959432E+00 0.58105329E+04</pdfrwt>
<pdfrwt beam="2">  1       -2 0.39987821E+00 0.58105329E+04</pdfrwt>
<totfact> 0.52451326E-03</totfact>
</mgrwt>
<rwgt>
<wgt id='morphing_basis_vector_1'> +1.5258104e-06 </wgt>
<wgt id='morphing_basis_vector_2'> +1.3476559e-06 </wgt>
<wgt id='morphing_basis_vector_3'> +1.7560604e-06 </wgt>
<wgt id='morphing_basis_vector_4'> +8.1489849e-07 </wgt>
<wgt id='morphing_basis_vector_5'> +1.7437327e-06 </wgt>
</rwgt>
</event>
<event>
 4      1 +9.0096000e-12 6.42152200e+03 7.81860800e-03 7.21705800e-02
        2 -1    0    0  501    0 +0.0000000000e+00 +0.0000000000e+00 +3.8372147045e+03 3.8372147045e+03 0.0000000000e+00 0.0000e+00 -1.0000e+00
       -2 -1    0    0    0  501 -0.0000000000e+00 -0.0000000000e+00 -2.6865800969e+03 2.6865800969e+03 0.0000000000e+00 0.0000e+00 1.0000e+00
      -13  1    1    2    0    0 -2.8002755887e+02 -2.7286758819e+03 -1.1200622081e+03 2.9628747615e+03 0.0000000000e+00 0.0000e+00 1.0000e+00
       13  1    1    2    0    0 +2.8002755887e+02 +2.7286758819e+03 +2.2706968156e+03 3.5609200399e+03 0.0000000000e+00 0.0000e+00 -1.0000e+00
<mgrwt>
<rscale>  0 0.64215215E+04</rscale>
<asrwt>0</asrwt>
<pdfrwt beam="1">  1        2 0.59034073E+00 0.64215215E+04</pdfrwt>
<pdfrwt beam="2">  1       -2 0.41332001E+00 0.64215215E+04</pdfrwt>
<totfact> 0.14886894E-03</totfact>
</mgrwt>
<rwgt>
<wgt id='morphing_basis_vector_1'> +2.0772731e-06 </wgt>
<wgt id='morphing_basis_vector_2'> +1.4316078e-06 </wgt>
<wgt id='morphing_basis_vector_3'> +2.2981118e-06 </wgt>
<wgt id='morphing_basis_vector_4'> +1.6380725e-06 </wgt>
<wgt id='morphing_basis_vector_5'> +2.6388079e-06 </wgt>
</rwgt>
</event>
<event>
 4      1 +9.0096000e-12 5.59802600e+03 7.81860800e-03 7.30791900e-02
        2 -1    0    0  501    0 +0.0000000000e+00 +0.0000000000e+00 +2.0167900280e+03 2.0167900280e+03 0.0000000000e+00 0.0000e+00 -1.0000e+00
       -2 -1    0    0    0  501 -0.0000000000e+00 -0.0000000000e+00 -3.8846252178e+03 3.8846252178e+03 0.0000000000e+00 0.0000e+00 1.0000e+00
      -13  1    1    2    0    0 +2.7435200877e+03 -4.4631046241e+02 -1.2809672695e+03 3.0605510363e+03 0.0000000000e+00 0.0000e+00 1.0000e+00
       13  1    1    2    0    0 -2.7435200877e+03 +4.4631046241e+02 -5.8686792033e+02 2.8408642095e+03 0.0000000000e+00 0.0000e+00 -1.0000e+00
<mgrwt>
<rscale>  0 0.55980259E+04</rscale>
<asrwt>0</asrwt>
<pdfrwt beam="1">  1        2 0.31027539E+00 0.55980259E+04</pdfrwt>
<pdfrwt beam="2">  1       -2 0.59763465E+00 0.55980259E+04</pdfrwt>
<totfact> 0.11182333E-03</totfact>
</mgrwt>
<rwgt>
<wgt id='morphing_basis_vector_1'> +1.2249289e-06 </wgt>
<wgt id='morphing_basis_vector_2'> +8.9679746e-07 </wgt>
<wgt id='morphing_basis_vector_3'> +1.3659636e-06 </wgt>
<wgt id='morphing_basis_vector_4'> +8.9433041e-07 </wgt>
<wgt id='morphing_basis_vector_5'> +1.5179386e-06 </wgt>
</rwgt>
</event>
<event>
 4      1 +9.0096000e-12 6.25139400e+03 7.81860800e-03 7.23465000e-02
        2 -1    0    0  501    0 +0.0000000000e+00 +0.0000000000e+00 +2.5047351454e+03 2.5047351454e+03 0.0000000000e+00 0.0000e+00 1.0000e+00
       -2 -1    0    0    0  501 -0.0000000000e+00 -0.0000000000e+00 -3.9006044736e+03 3.9006044736e+03 0.0000000000e+00 0.0000e+00 -1.0000e+00
      -13  1    1    2    0    0 +3.7752220103e+02 +3.0599220687e+03 -1.7113842279e+02 3.0878689154e+03 0.0000000000e+00 0.0000e+00 -1.0000e+00
       13  1    1    2    0    0 -3.7752220103e+02 -3.0599220687e+03 -1.2247309055e+03 3.3174707036e+03 0.0000000000e+00 0.0000e+00 1.0000e+00
<mgrwt>
<rscale>  0 0.62513938E+04</rscale>
<asrwt>0</asrwt>
<pdfrwt beam="1">  1        2 0.38534387E+00 0.62513938E+04</pdfrwt>
<pdfrwt beam="2">  1       -2 0.60009299E+00 0.62513938E+04</pdfrwt>
<totfact> 0.52777617E-04</totfact>
</mgrwt>
<rwgt>
<wgt id='morphing_basis_vector_1'> +1.9802166e-06 </wgt>
<wgt id='morphing_basis_vector_2'> +1.6207310e-06 </wgt>
<wgt id='morphing_basis_vector_3'> +2.2505751e-06 </wgt>
<wgt id='morphing_basis_vector_4'> +1.2267602e-06 </wgt>
<wgt id='morphing_basis_vector_5'> +2.3490288e-06 </wgt>
</rwgt>
</event>
<event>
 4      1 +9.0096000e-12 5.84909900e+03 7.81860800e-03 7.27861400e-02
        2 -1    0    0  501    0 +0.0000000000e+00 +0.0000000000e+00 +3.4763675505e+03 3.4763675505e+03 0.0000000000e+00 0.0000e+00 -1.0000e+00
       -2 -1    0    0    0  501 -0.0000000000e+00 -0.0000000000e+00 -2.4603234999e+03 2.4603234999e+03 0.0000000000e+00 0.0000e+00 1.0000e+00
      -13  1    1    2    0    0 +5.8390451437e+02 +2.1422786280e+01 -2.4004775696e+03 2.4705659229e+03 0.0000000000e+00 0.0000e+00 1.0000e+00
       13  1    1    2    0    0 -5.8390451437e+02 -2.1422786280e+01 +3.4165216202e+03 3.4661251274e+03 0.0000000000e+00 0.0000e+00 -1.0000e+00
<mgrwt>
<rscale>  0 0.58490987E+04</rscale>
<asrwt>0</asrwt>
<pdfrwt beam="1">  1        2 0.53482578E+00 0.58490987E+04</pdfrwt>
<pdfrwt beam="2">  1       -2 0.37851131E+00 0.58490987E+04</pdfrwt>
<totfact> 0.49556542E-03</totfact>
</mgrwt>
<rwgt>
<wgt id='morphing_basis_vector_1'> +1.4252957e-06 </wgt>
<wgt id='morphing_basis_vector_2'> +9.6888626e-07 </wgt>
<wgt id='morphing_basis_vector_3'> +1.5725740e-06 </wgt>
<wgt id='morphing_basis_vector_4'> +1.1389774e-06 </wgt>
<wgt id='morphing_basis_vector_5'> +1.8160043e-06 </wgt>
</rwgt>
</event>
<event>
 4      1 +9.0096000e-12 5.58431700e+03 7.81860800e-03 7.30956400e-02
        2 -1    0    0  501    0 +0.0000000000e+00 +0.0000000000e+00 +4.3725313252e+03 4.3725313252e+03 0.0000000000e+00 0.0000e+00 -1.0000e+00
       -2 -1    0    0    0  501 -0.0000000000e+00 -0.0000000000e+00 -1.7829827889e+03 1.7829827889e+03 0.0000000000e+00 0.0000e+00 1.0000e+00
      -13  1    1    2    0    0 -1.5367921650e+03 +1.0074385642e+03 -1.0225144708e+03 2.1029023900e+03 0.0000000000e+00 0.0000e+00 1.0000e+00
       13  1    1    2    0    0 +1.5367921650e+03 -1.0074385642e+03 +3.6120630071e+03 4.0526117241e+03 0.0000000000e+00 0.0000e+00 -1.0000e+00
<mgrwt>
<rscale>  0 0.55843166E+04</rscale>
<asrwt>0</asrwt>
<pdfrwt beam="1">  1        2 0.67269712E+00 0.55843166E+04</pdfrwt>
<pdfrwt beam="2">  1       -2 0.27430505E+00 0.55843166E+04</pdfrwt>
<totfact> 0.43619550E-03</totfact>
</mgrwt>
<rwgt>
<wgt id='morphing_basis_vector_1'> +1.1857195e-06 </wgt>
<wgt id='morphing_basis_vector_2'> +8.0795312e-07 </wgt>
<wgt id='morphing_basis_vector_3'> +1.3081747e-06 </wgt>
<wgt id='morphing_basis_vector_4'> +9.4386715e-07 </wgt>
<wgt id='morphing_basis_vector_5'> +1.5079835e-06 </wgt>
</rwgt>
</event>
<event>
 4      1 +9.0096000e-12 5.64469500e+03 7.81860800e-03 7.30235500e-02
        2 -1    0    0  501    0 +0.0000000000e+00 +0.0000000000e+00 +3.9844699615e+03 3.9844699615e+03 0.0000000000e+00 0.0000e+00 1.0000e+00
       -2 -1    0    0    0  501 -0.0000000000e+00 -0.0000000000e+00 -1.9991729056e+03 1.9991729056e+03 0.0000000000e+00 0.0000e+00 -1.0000e+00
      -13  1    1    2    0    0 +2.5924560317e+03 +9.5130914355e+02 +3.7469734189e+02 2.7867930423e+03 0.0000000000e+00 0.0000e+00 -1.0000e+00
       13  1    1    2    0    0 -2.5924560317e+03 -9.5130914355e+02 +1.6105997140e+03 3.1968498247e+03 0.0000000000e+00 0.0000e+00 1.0000e+00
<mgrwt>
<rscale>  0 0.56446946E+04</rscale>
<asrwt>0</asrwt>
<pdfrwt beam="1">  1        2 0.61299538E+00 0.56446946E+04</pdfrwt>
<pdfrwt beam="2">  1       -2 0.30756506E+00 0.56446946E+04</pdfrwt>
<totfact> 0.58401045E-03</totfact>
</mgrwt>
<rwgt>
<wgt id='morphing_basis_vector_1'> +1.2575628e-06 </wgt>
<wgt id='morphing_basis_vector_2'> +9.0174297e-07 </wgt>
<wgt id='morphing_basis_vector_3'> +1.3980417e-06 </wgt>
<wgt id='morphing_basis_vector_4'> +9.4301603e-07 </wgt>
<wgt id='morphing_basis_vector_5'> +1.5708703e-06 </wgt>
</rwgt>
</event>
<event>
 4      1 +9.0096000e-12 6.54448500e+03 7.81860800e-03 7.20468400e-02
        2 -1    0    0  501    0 +0.0000000000e+00 +0.0000000000e+00 +5.2389779912e+03 5.2389779912e+03 0.0000000000e+00 0.0000e+00 -1.0000e+00
       -2 -1    0    0    0  501 -0.0000000000e+00 -0.0000000000e+00 -2.0438280268e+03 2.0438280268e+03 0.0000000000e+00 0.0000e+00 1.0000e+00
      -13  1    1    2    0    0 +2.9469358654e+03 +1.4151630645e+03 +1.7567214784e+03 3.7112245751e+03 0.0000000000e+00 0.0000e+00 1.0000e+00
       13  1    1    2    0    0 -2.9469358654e+03 -1.4151630645e+03 +1.4384284860e+03 3.5715814429e+03 0.0000000000e+00 0.0000e+00 -1.0000e+00
<mgrwt>
<rscale>  0 0.65444847E+04</rscale>
<asrwt>0</asrwt>
<pdfrwt beam="1">  1        2 0.80599661E+00 0.65444847E+04</pdfrwt>
<pdfrwt beam="2">  1       -2 0.31443508E+00 0.65444847E+04</pdfrwt>
<totfact> 0.19004573E-04</totfact>
</mgrwt>
<rwgt>
<wgt id='morphing_basis_vector_1'> +2.3277382e-06 </wgt>
<wgt id='morphing_basis_vector_2'> +1.7998533e-06 </wgt>
<wgt id='morphing_basis_vector_3'> +2.6217104e-06 </wgt>
<wgt id='morphing_basis_vector_4'> +1.5809324e-06 </wgt>
<wgt id='morphing_basis_vector_5'> +2.8315061e-06 </wgt>
</rwgt>
</event>
<event>
 4      1 +9.0096000e-12 5.78680200e+03 7.81860800e-03 7.28574300e-02
        2 -1    0    0  501    0 +0.0000000000e+00 +0.0000000000e+00 +3.7037062021e+03 3.7037062021e+03 0.0000000000e+00 0.0000e+00 1.0000e+00
       -2 -1    0    0    0  501 -0.0000000000e+00 -0.0000000000e+00 -2.2603761930e+03 2.2603761930e+03 0.0000000000e+00 0.0000e+00 -1.0000e+00
      -13  1    1    2    0    0 -4.4856519690e+02 -2.1679783304e+03 -1.1983143819e+03 2.5173990814e+03 0.0000000000e+00 0.0000e+00 -1.0000e+00
       13  1    1    2    0    0 +4.4856519690e+02 +2.1679783304e+03 +2.6416443910e+03 3.4466833138e+03 0.0000000000e+00 0.0000e+00 1.0000e+00
<mgrwt>
<rscale>  0 0.57868020E+04</rscale>
<asrwt>0</asrwt>
<pdfrwt beam="1">  1        2 0.56980095E+00 0.57868020E+04</pdfrwt>
<pdfrwt beam="2">  1       -2 0.34775018E+00 0.57868020E+04</pdfrwt>
<totfact> 0.52986580E-03</totfact>
</mgrwt>
<rwgt>
<wgt id='morphing_basis_vector_1'> +1.3682809e-06 </wgt>
<wgt id='morphing_basis_vector_2'> +9.3593711e-07 </wgt>
<wgt id='morphing_basis_vector_3'> +1.5108941e-06 </wgt>
<wgt id='morphing_basis_vector_4'> +1.0855565e-06 </wgt>
<wgt id='morphing_basis_vector_5'> +1.7392232e-06 </wgt>
</rwgt>
</event>
<event>
 4      1 +9.0096000e-12 5.89916600e+03 7.81860800e-03 7.27295000e-02
        2 -1    0    0  501    0 +0.0000000000e+00 +0.0000000000e+00 +3.5910188669e+03 3.5910188669e+03 0.0000000000e+00 0.0000e+00 -1.0000e+00
       -2 -1    0    0    0  501 -0.0000000000e+00 -0.0000000000e+00 -2.4227216903e+03 2.4227216903e+03 0.0000000000e+00 0.0000e+00 1.0000e+00
      -13  1    1    2    0    0 -2.8879557790e+03 -9.9355936436e+01 +1.1871427332e+03 3.1240147331e+03 0.0000000000e+00 0.0000e+00 1.0000e+00
       13  1    1    2    0    0 +2.8879557790e+03 +9.9355936436e+01 -1.8845556617e+01 2.8897258241e+03 0.0000000000e+00 0.0000e+00 -1.0000e+00
<mgrwt>
<rscale>  0 0.58991658E+04</rscale>
<asrwt>0</asrwt>
<pdfrwt beam="1">  1        2 0.55246444E+00 0.58991658E+04</pdfrwt>
<pdfrwt beam="2">  1       -2 0.37272641E+00 0.58991658E+04</pdfrwt>
<totfact> 0.44234374E-03</totfact>
</mgrwt>
<rwgt>
<wgt id='morphing_basis_vector_1'> +1.5834807e-06 </wgt>
<wgt id='morphing_basis_vector_2'> +1.3220335e-06 </wgt>
<wgt id='morphing_basis_vector_3'> +1.8047920e-06 </wgt>
<wgt id='morphing_basis_vector_4'> +9.4574536e-07 </wgt>
<wgt id='morphing_basis_vector_5'> +1.8595546e-06 </wgt>
</rwgt>
</event>
<event>
 4      1 +9.0096000e-12 5.60888700e+03 7.81860800e-03 7.30661900e-02
        2 -1    0    0  501    0 +0.0000000000e+00 +0.0000000000e+00 +3.6928843839e+03 3.6928843839e+03 0.0000000000e+00 0.0000e+00 -1.0000e+00
       -2 -1    0    0    0  501 -0.0000000000e+00 -0.0000000000e+00 -2.1297454158e+03 2.1297454158e+03 0.0000000000e+00 0.0000e+00 1.0000e+00
      -13  1    1    2    0    0 +2.7457701289e+03 +4.6797350751e+02 +4.4255011945e+02 2.8203020074e+03 0.0000000000e+00 0.0000e+00 1.0000e+00
       13  1    1    2    0    0 -2.7457701289e+03 -4.6797350751e+02 +1.1205888486e+03 3.0023277923e+03 0.0000000000e+00 0.0000e+00 -1.0000e+00
<mgrwt>
<rscale>  0 0.56088871E+04</rscale>
<asrwt>0</asrwt>
<pdfrwt beam="1">  1        2 0.56813606E+00 0.56088871E+04</pdfrwt>
<pdfrwt beam="2">  1       -2 0.32765314E+00 0.56088871E+04</pdfrwt>
<totfact> 0.74141566E-03</totfact>
</mgrwt>
<rwgt>
<wgt id='morphing_basis_vector_1'> +1.2345656e-06 </wgt>
<wgt id='morphing_basis_vector_2'> +9.0414368e-07 </wgt>
<wgt id='morphing_basis_vector_3'> +1.3768036e-06 </wgt>
<wgt id='morphing_basis_vector_4'> +9.0103578e-07 </wgt>
<wgt id='morphing_basis_vector_5'> +1.5297601e-06 </wgt>
</rwgt>
</event>
<event>
 4      1 +9.0096000e-12 5.61293500e+03 7.81860800e-03 7.30613500e-02
        2 -1    0    0  501    0 +0.0000000000e+00 +0.0000000000e+00 +2.3487749267e+03 2.3487749267e+03 0.0000000000e+00 0.0000e+00 1.0000e+00
       -2 -1    0    0    0  501 -0.0000000000e+00 -0.0000000000e+00 -3.3533486018e+03 3.3533486018e+03 0.0000000000e+00 0.0000e+00 -1.0000e+00
      -13  1    1    2    0    0 +9.6150102561e+02 +1.3422372825e+02 +2.1727576152e+03 2.3797848403e+03 0.0000000000e+00 0.0000e+00 1.0000e+00
       13  1    1    2    0    0 -9.6150102561e+02 -1.3422372825e+02 -3.1773312902e+03 3.3223386882e+03 0.0000000000e+00 0.0000e+00 -1.0000e+00
<mgrwt>
<rscale>  0 0.56129355E+04</rscale>
<asrwt>0</asrwt>
<pdfrwt beam="1">  1        2 0.36134999E+00 0.56129355E+04</pdfrwt>
<pdfrwt beam="2">  1       -2 0.51589979E+00 0.56129355E+04</pdfrwt>
<totfact> 0.29630156E-03</totfact>
</mgrwt>
<rwgt>
<wgt id='morphing_basis_vector_1'> +1.6537206e-06 </wgt>
<wgt id='morphing_basis_vector_2'> +2.1268053e-06 </wgt>
<wgt id='morphing_basis_vector_3'> +2.0580340e-06 </wgt>
<wgt id='morphing_basis_vector_4'> +1.5768575e-08 </wgt>
<wgt id='morphing_basis_vector_5'> +1.4595918e-06 </wgt>
</rwgt>
</event>
<event>
 4      1 +9.0096000e-12 5.62555900e+03 7.81860800e-03 7.30463000e-02
        2 -1    0    0  501    0 +0.0000000000e+00 +0.0000000000e+00 +3.1414529281e+03 3.1414529281e+03 0.0000000000e+00 0.0000e+00 1.0000e+00
       -2 -1    0    0    0  501 -0.0000000000e+00 -0.0000000000e+00 -2.5184935171e+03 2.5184935171e+03 0.0000000000e+00 0.0000e+00 -1.0000e+00
      -13  1    1    2    0    0 +1.5154119300e+03 -7.2091429760e+02 -1.9596485243e+03 2.5800025351e+03 0.0000000000e+00 0.0000e+00 -1.0000e+00
       13  1    1    2    0    0 -1.5154119300e+03 +7.2091429760e+02 +2.5826079353e+03 3.0799439101e+03 0.0000000000e+00 0.0000e+00 1.0000e+00
<mgrwt>
<rscale>  0 0.56255591E+04</rscale>
<asrwt>0</asrwt>
<pdfrwt beam="1">  1        2 0.48330045E+00 0.56255591E+04</pdfrwt>
<pdfrwt beam="2">  1       -2 0.38746054E+00 0.56255591E+04</pdfrwt>
<totfact> 0.75609554E-03</totfact>
</mgrwt>
<rwgt>
<wgt id='morphing_basis_vector_1'> +1.2206526e-06 </wgt>
<wgt id='morphing_basis_vector_2'> +8.3091422e-07 </wgt>
<wgt id='morphing_basis_vector_3'> +1.3466069e-06 </wgt>
<wgt id='morphing_basis_vector_4'> +9.7296668e-07 </wgt>
<wgt id='morphing_basis_vector_5'> +1.5532132e-06 </wgt>
</rwgt>
</event>
<event>
 4      1 +9.0096000e-12 6.59822500e+03 7.81860800e-03 7.19936200e-02
        2 -1    0    0  501    0 +0.0000000000e+00 +0.0000000000e+00 +3.1257318083e+03 3.1257318083e+03 0.0000000000e+00 0.0000e+00 1.0000e+00
       -2 -1    0    0    0  501 -0.0000000000e+00 -0.0000000000e+00 -3.4821103358e+03 3.4821103358e+03 0.0000000000e+00 0.0000e+00 -1.0000e+00
      -13  1    1    2    0    0 +4.1333081333e+02 +4.2005170333e+02 -3.4289730996e+03 3.4792445031e+03 0.0000000000e+00 0.0000e+00 -1.0000e+00
       13  1    1    2    0    0 -4.1333081333e+02 -4.2005170333e+02 +3.0725945721e+03 3.1285976410e+03 0.0000000000e+00 0.0000e+00 1.0000e+00
<mgrwt>
<rscale>  0 0.65982249E+04</rscale>
<asrwt>0</asrwt>
<pdfrwt beam="1">  1        2 0.48088182E+00 0.65982249E+04</pdfrwt>
<pdfrwt beam="2">  1       -2 0.53570928E+00 0.65982249E+04</pdfrwt>
<totfact> 0.64696149E-04</totfact>
</mgrwt>
<rwgt>
<wgt id='morphing_basis_vector_1'> +2.3057365e-06 </wgt>
<wgt id='morphing_basis_vector_2'> +1.5683668e-06 </wgt>
<wgt id='morphing_basis_vector_3'> +2.5464393e-06 </wgt>
<wgt id='morphing_basis_vector_4'> +1.8462511e-06 </wgt>
<wgt id='morphing_basis_vector_5'> +2.9437457e-06 </wgt>
</rwgt>
</event>
<event>
 4      1 +9.0096000e-12 5.71193500e+03 7.81860800e-03 7.29443300e-02
        2 -1    0    0  501    0 +0.0000000000e+00 +0.0000000000e+00 +3.1773170307e+03 3.1773170307e+03 0.0000000000e+00 0.0000e+00 -1.0000e+00
       -2 -1    0    0    0  501 -0.0000000000e+00 -0.0000000000e+00 -2.5671184834e+03 2.5671184834e+03 0.0000000000e+00 0.0000e+00 1.0000e+00
      -13  1    1    2    0    0 -1.2825053010e+03 -6.4834915197e+02 -2.1770147072e+03 2.6085569776e+03 0.0000000000e+00 0.0000e+00 1.0000e+00
       13  1    1    2    0    0 +1.2825053010e+03 +6.4834915197e+02 +2.7872132545e+03 3.1358785365e+03 0.0000000000e+00 0.0000e+00 -1.0000e+00
<mgrwt>
<rscale>  0 0.57119346E+04</rscale>
<asrwt>0</asrwt>
<pdfrwt beam="1">  1        2 0.48881801E+00 0.57119346E+04</pdfrwt>
<pdfrwt beam="2">  1       -2 0.39494130E+00 0.57119346E+04</pdfrwt>
<totfact> 0.63529815E-03</totfact>
</mgrwt>
<rwgt>
<wgt id='morphing_basis_vector_1'> +1.2968087e-06 </wgt>
<wgt id='morphing_basis_vector_2'> +8.8203995e-07 </wgt>
<wgt id='morphing_basis_vector_3'> +1.4306434e-06 </wgt>
<wgt id='morphing_basis_vector_4'> +1.0350219e-06 </wgt>
<wgt id='morphing_basis_vector_5'> +1.6511374e-06 </wgt>
</rwgt>
</event>
<event>
 4      1 +9.0096000e-12 6.53487700e+03 7.81860800e-03 7.20564100e-02
        2 -1    0    0  501    0 +0.0000000000e+00 +0.0000000000e+00 +3.1791678103e+03 3.1791678103e+03 0.0000000000e+00 0.0000e+00 -1.0000e+00
       -2 -1    0    0    0  501 -0.0000000000e+00 -0.0000000000e+00 -3.3581597854e+03 3.3581597854e+03 0.0000000000e+00 0.0000e+00 1.0000e+00
      -13  1    1    2    0    0 -2.5470420691e+03 -9.6067495577e+01 -2.1346455659e+03 3.3246599762e+03 0.0000000000e+00 0.0000e+00 1.0000e+00
       13  1    1    2    0    0 +2.5470420691e+03 +9.6067495577e+01 +1.9556535909e+03 3.2126676195e+03 0.0000000000e+00 0.0000e+00 -1.0000e+00
<mgrwt>
<rscale>  0 0.65348767E+04</rscale>
<asrwt>0</asrwt>
<pdfrwt beam="1">  1        2 0.48910274E+00 0.65348767E+04</pdfrwt>
<pdfrwt beam="2">  1       -2 0.51663996E+00 0.65348767E+04</pdfrwt>
<totfact> 0.82641084E-04</totfact>
</mgrwt>
<rwgt>
<wgt id='morphing_basis_vector_1'> +2.2233943e-06 </wgt>
<wgt id='morphing_basis_vector_2'> +1.5230548e-06 </wgt>
<wgt id='morphing_basis_vector_3'> +2.4578730e-06 </wgt>
<wgt id='morphing_basis_vector_4'> +1.7660118e-06 </wgt>
<wgt id='morphing_basis_vector_5'> +2.8312521e-06 </wgt>
</rwgt>
</event>
<event>
 4      1 +9.0096000e-12 5.97653200e+03 7.81860800e-03 7.26430800e-02
        2 -1    0    0  501    0 +0.0000000000e+00 +0.0000000000e+00 +1.6569188624e+03 1.6569188624e+03 0.0000000000e+00 0.0000e+00 -1.0000e+00
       -2 -1    0    0    0  501 -0.0000000000e+00 -0.0000000000e+00 -5.3893614097e+03 5.3893614097e+03 0.0000000000e+00 0.0000e+00 1.0000e+00
      -13  1    1    2    0    0 +1.1295592578e+03 -2.5029706629e+03 -3.2557157127e+03 4.2591608396e+03 0.0000000000e+00 0.0000e+00 1.0000e+00
       13  1    1    2    0    0 -1.1295592578e+03 +2.5029706629e+03 -4.7672683455e+02 2.7871194325e+03 0.0000000000e+00 0.0000e+00 -1.0000e+00
<mgrwt>
<rscale>  0 0.59765323E+04</rscale>
<asrwt>0</asrwt>
<pdfrwt beam="1">  1        2 0.25491060E+00 0.59765323E+04</pdfrwt>
<pdfrwt beam="2">  1       -2 0.82913251E+00 0.59765323E+04</pdfrwt>
<totfact> 0.67771564E-04</totfact>
</mgrwt>
<rwgt>
<wgt id='morphing_basis_vector_1'> +1.5650371e-06 </wgt>
<wgt id='morphing_basis_vector_2'> +1.0904593e-06 </wgt>
<wgt id='morphing_basis_vector_3'> +1.7332873e-06 </wgt>
<wgt id='morphing_basis_vector_4'> +1.2166811e-06 </wgt>
<wgt id='morphing_basis_vector_5'> +1.9777891e-06 </wgt>
</rwgt>
</event>
<event>
 4      1 +9.0096000e-12 6.22481500e+03 7.81860800e-03 7.23745000e-02
        2 -1    0    0  501    0 +0.0000000000e+00 +0.0000000000e+00 +3.7127256718e+03 3.7127256718e+03 0.0000000000e+00 0.0000e+00 1.0000e+00
       -2 -1    0    0    0  501 -0.0000000000e+00 -0.0000000000e+00 -2.6091562892e+03 2.6091562892e+03 0.0000000000e+00 0.0000e+00 -1.0000e+00
      -13  1    1    2    0    0 -8.7906854553e+01 -2.5426615900e+03 -1.2689979805e+03 2.8430989168e+03 0.0000000000e+00 0.0000e+00 -1.0000e+00
       13  1    1    2    0    0 +8.7906854553e+01 +2.5426615900e+03 +2.3725673631e+03 3.4787830442e+03 0.0000000000e+00 0.0000e+00 1.0000e+00
<mgrwt>
<rscale>  0 0.62248154E+04</rscale>
<asrwt>0</asrwt>
<pdfrwt beam="1">  1        2 0.57118856E+00 0.62248154E+04</pdfrwt>
<pdfrwt beam="2">  1       -2 0.40140866E+00 0.62248154E+04</pdfrwt>
<totfact> 0.22708804E-03</totfact>
</mgrwt>
<rwgt>
<wgt id='morphing_basis_vector_1'> +1.8326588e-06 </wgt>
<wgt id='morphing_basis_vector_2'> +1.2583066e-06 </wgt>
<wgt id='morphing_basis_vector_3'> +2.0259355e-06 </wgt>
<wgt id='morphing_basis_vector_4'> +1.4503615e-06 </wgt>
<wgt id='morphing_basis_vector_5'> +2.3298212e-06 </wgt>
</rwgt>
</event>
<event>
 4      1 +9.0096000e-12 5.68842800e+03 7.81860800e-03 7.29719000e-02
        2 -1    0    0  501    0 +0.0000000000e+00 +0.0000000000e+00 +4.6622365674e+03 4.6622365674e+03 0.0000000000e+00 0.0000e+00 -1.0000e+00
       -2 -1    0    0    0  501 -0.0000000000e+00 -0.0000000000e+00 -1.7351226251e+03 1.7351226251e+03 0.0000000000e+00 0.0000e+00 1.0000e+00
      -13  1    1    2    0    0 +1.3578594578e+03 -2.7256682503e+02 -1.3302928904e+03 1.9203526123e+03 0.0000000000e+00 0.0000e+00 1.0000e+00
       13  1    1    2    0    0 -1.3578594578e+03 +2.7256682503e+02 +4.2574068326e+03 4.4770065803e+03 0.0000000000e+00 0.0000e+00 -1.0000e+00
<mgrwt>
<rscale>  0 0.56884276E+04</rscale>
<asrwt>0</asrwt>
<pdfrwt beam="1">  1        2 0.71726716E+00 0.56884276E+04</pdfrwt>
<pdfrwt beam="2">  1       -2 0.26694194E+00 0.56884276E+04</pdfrwt>
<totfact> 0.24200541E-03</totfact>
</mgrwt>
<rwgt>
<wgt id='morphing_basis_vector_1'> +1.2756069e-06 </wgt>
<wgt id='morphing_basis_vector_2'> +8.6750988e-07 </wgt>
<wgt id='morphing_basis_vector_3'> +1.4071782e-06 </wgt>
<wgt id='morphing_basis_vector_4'> +1.0181314e-06 </wgt>
<wgt id='morphing_basis_vector_5'> +1.6240658e-06 </wgt>
</rwgt>
</event>
<event>
 4      1 +9.0096000e-12 5.83099800e+03 7.81860800e-03 7.28067600e-02
        2 -1    0    0  501    0 +0.0000000000e+00 +0.0000000000e+00 +3.7728014087e+03 3.7728014087e+03 0.0000000000e+00 0.0000e+00 1.0000e+00
       -2 -1    0    0    0  501 -0.0000000000e+00 -0.0000000000e+00 -2.2530033402e+03 2.2530033402e+03 0.0000000000e+00 0.0000e+00 -1.0000e+00
      -13  1    1    2    0    0 -1.7220222147e+03 -5.5503544652e+02 -1.6026799855e+03 2.4170246153e+03 0.0000000000e+00 0.0000e+00 -1.0000e+00
       13  1    1    2    0    0 +1.7220222147e+03 +5.5503544652e+02 +3.1224780540e+03 3.6087801336e+03 0.0000000000e+00 0.0000e+00 1.0000e+00
<mgrwt>
<rscale>  0 0.58309979E+04</rscale>
<asrwt>0</asrwt>
<pdfrwt beam="1">  1        2 0.58043098E+00 0.58309979E+04</pdfrwt>
<pdfrwt beam="2">  1       -2 0.34661590E+00 0.58309979E+04</pdfrwt>
<totfact> 0.47407166E-03</totfact>
</mgrwt>
<rwgt>
<wgt id='morphing_basis_vector_1'> +1.4086115e-06 </wgt>
<wgt id='morphing_basis_vector_2'> +9.5941041e-07 </wgt>
<wgt id='morphing_basis_vector_3'> +1.5545633e-06 </wgt>
<wgt id='morphing_basis_vector_4'> +1.1231272e-06 </wgt>
<wgt id='morphing_basis_vector_5'> +1.7934273e-06 </wgt>
</rwgt>
</event>
<event>
 4      1 +9.0096000e-12 6.47948600e+03 7.81860800e-03 7.21119000e-02
        2 -1    0    0  501    0 +0.0000000000e+00 +0.0000000000e+00 +3.5102384657e+03 3.5102384657e+03 0.0000000000e+00 0.0000e+00 1.0000e+00
       -2 -1    0    0    0  501 -0.0000000000e+00 -0.0000000000e+00 -2.9900920405e+03 2.9900920405e+03 0.0000000000e+00 0.0000e+00 -1.0000e+00
      -13  1    1    2    0    0 -4.3524711927e+02 -3.2006415581e+03 +9.4904698764e+00 3.2301140084e+03 0.0000000000e+00 0.0000e+00 -1.0000e+00
       13  1    1    2    0    0 +4.3524711927e+02 +3.2006415581e+03 +5.1065595540e+02 3.2702164978e+03 0.0000000000e+00 0.0000e+00 1.0000e+00
<mgrwt>
<rscale>  0 0.64794864E+04</rscale>
<asrwt>0</asrwt>
<pdfrwt beam="1">  1        2 0.54003668E+00 0.64794864E+04</pdfrwt>
<pdfrwt beam="2">  1       -2 0.46001416E+00 0.64794864E+04</pdfrwt>
<totfact> 0.12727456E-03</totfact>
</mgrwt>
<rwgt>
<wgt id='morphing_basis_vector_1'> +2.2040369e-06 </wgt>
<wgt id='morphing_basis_vector_2'> +1.6333122e-06 </wgt>
<wgt id='morphing_basis_vector_3'> +2.4654741e-06 </wgt>
<wgt id='morphing_basis_vector_4'> +1.5891327e-06 </wgt>
<wgt id='morphing_basis_vector_5'> +2.7263927e-06 </wgt>
</rwgt>
</event>
<event>
 4      1 +9.0096000e-12 5.59159100e+03 7.81860800e-03 7.30869100e-02
        2 -1    0    0  501    0 +0.0000000000e+00 +0.0000000000e+00 +3.3560135120e+03 3.3560135120e+03 0.0000000000e+00 0.0000e+00 1.0000e+00
       -2 -1    0    0    0  501 -0.0000000000e+00 -0.0000000000e+00 -2.3290944089e+03 2.3290944089e+03 0.0000000000e+00 0.0000e+00 -1.0000e+00
      -13  1    1    2    0    0 -1.3112224814e+03 -1.6823261720e+03 -1.3242392676e+03 2.5106045851e+03 0.0000000000e+00 0.0000e+00 -1.0000e+00
       13  1    1    2    0    0 +1.3112224814e+03 +1.6823261720e+03 +2.3511583707e+03 3.1745033358e+03 0.0000000000e+00 0.0000e+00 1.0000e+00
<mgrwt>
<rscale>  0 0.55915909E+04</rscale>
<asrwt>0</asrwt>
<pdfrwt beam="1">  1        2 0.51630977E+00 0.55915909E+04</pdfrwt>
<pdfrwt beam="2">  1       -2 0.35832222E+00 0.55915909E+04</pdfrwt>
<totfact> 0.83110621E-03</totfact>
</mgrwt>
<rwgt>
<wgt id='morphing_basis_vector_1'> +1.1931609e-06 </wgt>
<wgt id='morphing_basis_vector_2'> +8.1588765e-07 </wgt>
<wgt id='morphing_basis_vector_3'> +1.3170683e-06 </wgt>
<wgt id='morphing_basis_vector_4'> +9.4609950e-07 </wgt>
<wgt id='morphing_basis_vector_5'> +1.5156488e-06 </wgt>
</rwgt>
</event>
<event>
 4      1 +9.0096000e-12 5.74344400e+03 7.81860800e-03 7.29076000e-02
        2 -1    0    0  501    0 +0.0000000000e+00 +0.0000000000e+00 +3.9151716252e+03 3.9151716252e+03 0.0000000000e+00 0.0000e+00 -1.0000e+00
       -2 -1    0    0    0  501 -0.0000000000e+00 -0.0000000000e+00 -2.1063665690e+03 2.1063665690e+03 0.0000000000e+00 0.0000e+00 1.0000e+00
      -13  1    1    2    0    0 +2.8489114871e+03 +2.3344805194e+02 +6.1538850240e+02 2.9239524044e+03 0.0000000000e+00 0.0000e+00 1.0000e+00
       13  1    1    2    0    0 -2.8489114871e+03 -2.3344805194e+02 +1.1934165537e+03 3.0975857898e+03 0.0000000000e+00 0.0000e+00 -1.0000e+00
<mgrwt>
<rscale>  0 0.57434438E+04</rscale>
<asrwt>0</asrwt>
<pdfrwt beam="1">  1        2 0.60233410E+00 0.57434438E+04</pdfrwt>
<pdfrwt beam="2">  1       -2 0.32405639E+00 0.57434438E+04</pdfrwt>
<totfact> 0.51450251E-03</totfact>
</mgrwt>
<rwgt>
<wgt id='morphing_basis_vector_1'> +1.3595861e-06 </wgt>
<wgt id='morphing_basis_vector_2'> +1.0014460e-06 </wgt>
<wgt id='morphing_basis_vector_3'> +1.5179109e-06 </wgt>
<wgt id='morphing_basis_vector_4'> +9.8543776e-07 </wgt>
<wgt id='morphing_basis_vector_5'> +1.6818548e-06 </wgt>
</rwgt>
</event>
<event>
 4      1 +9.0096000e-12 6.22835900e+03 7.81860800e-03 7.23707600e-02
        2 -1    0    0  501    0 +0.0000000000e+00 +0.0000000000e+00 +4.5773908358e+03 4.5773908358e+03 0.0000000000e+00 0.0000e+00 1.0000e+00
       -2 -1    0    0    0  501 -0.0000000000e+00 -0.0000000000e+00 -2.1186993842e+03 2.1186993842e+03 0.0000000000e+00 0.0000e+00 -1.0000e+00
      -13  1    1    2    0    0 -3.0136011671e+03 +4.5999862976e+02 +1.9133004174e+03 3.5991817432e+03 0.0000000000e+00 0.0000e+00 -1.0000e+00
       13  1    1    2    0    0 +3.0136011671e+03 -4.5999862976e+02 +5.4539103412e+02 3.0969084768e+03 0.0000000000e+00 0.0000e+00 1.0000e+00
<mgrwt>
<rscale>  0 0.62283594E+04</rscale>
<asrwt>0</asrwt>
<pdfrwt beam="1">  1        2 0.70421397E+00 0.62283594E+04</pdfrwt>
<pdfrwt beam="2">  1       -2 0.32595375E+00 0.62283594E+04</pdfrwt>
<totfact> 0.11510369E-03</totfact>
</mgrwt>
<rwgt>
<wgt id='morphing_basis_vector_1'> +1.9683924e-06 </wgt>
<wgt id='morphing_basis_vector_2'> +1.6473086e-06 </wgt>
<wgt id='morphing_basis_vector_3'> +2.2455938e-06 </wgt>
<wgt id='morphing_basis_vector_4'> +1.1720554e-06 </wgt>
<wgt id='morphing_basis_vector_5'> +2.3114419e-06 </wgt>
</rwgt>
</event>
<event>
 4      1 +9.0096000e-12 5.85711000e+03 7.81860800e-03 7.27770400e-02
        2 -1    0    0  501    0 +0.0000000000e+00 +0.0000000000e+00 +4.6486751445e+03 4.6486751445e+03 0.0000000000e+00 0.0000e+00 1.0000e+00
       -2 -1    0    0    0  501 -0.0000000000e+00 -0.0000000000e+00 -1.8449203464e+03 1.8449203464e+03 0.0000000000e+00 0.0000e+00 -1.0000e+00
      -13  1    1    2    0    0 -1.5309480372e+03 -1.4779881381e+03 -8.2877539566e+02 2.2836636104e+03 0.0000000000e+00 0.0000e+00 -1.0000e+00
       13  1    1    2    0    0 +1.5309480372e+03 +1.4779881381e+03 +3.6325301938e+03 4.2099318804e+03 0.0000000000e+00 0.0000e+00 1.0000e+00
<mgrwt>
<rscale>  0 0.58571103E+04</rscale>
<asrwt>0</asrwt>
<pdfrwt beam="1">  1        2 0.71518079E+00 0.58571103E+04</pdfrwt>
<pdfrwt beam="2">  1       -2 0.28383390E+00 0.58571103E+04</pdfrwt>
<totfact> 0.18971628E-03</totfact>
</mgrwt>
<rwgt>
<wgt id='morphing_basis_vector_1'> +1.4351044e-06 </wgt>
<wgt id='morphing_basis_vector_2'> +9.8007826e-07 </wgt>
<wgt id='morphing_basis_vector_3'> +1.5844737e-06 </wgt>
<wgt id='morphing_basis_vector_4'> +1.1409633e-06 </wgt>
<wgt id='morphing_basis_vector_5'> +1.8256376e-06 </wgt>
</rwgt>
</event>
<event>
 4      1 +9.0096000e-12 6.09300100e+03 7.81860800e-03 7.25154700e-02
        2 -1    0    0  501    0 +0.0000000000e+00 +0.0000000000e+00 +2.1290068134e+03 2.1290068134e+03 0.0000000000e+00 0.0000e+00 1.0000e+00
       -2 -1    0    0    0  501 -0.0000000000e+00 -0.0000000000e+00 -4.3593869383e+03 4.3593869383e+03 0.0000000000e+00 0.0000e+00 -1.0000e+00
      -13  1    1    2    0    0 -1.1532648659e+03 +9.4956819909e+02 -3.9425691558e+03 4.2161061614e+03 0.0000000000e+00 0.0000e+00 -1.0000e+00
       13  1    1    2    0    0 +1.1532648659e+03 -9.4956819909e+02 +1.7121890310e+03 2.2722875904e+03 0.0000000000e+00 0.0000e+00 1.0000e+00
<mgrwt>
<rscale>  0 0.60930007E+04</rscale>
<asrwt>0</asrwt>
<pdfrwt beam="1">  1        2 0.32753951E+00 0.60930007E+04</pdfrwt>
<pdfrwt beam="2">  1       -2 0.67067491E+00 0.60930007E+04</pdfrwt>
<totfact> 0.84100269E-05</totfact>
</mgrwt>
<rwgt>
<wgt id='morphing_basis_vector_1'> +1.6780004e-06 </wgt>
<wgt id='morphing_basis_vector_2'> +1.1416441e-06 </wgt>
<wgt id='morphing_basis_vector_3'> +1.8522110e-06 </wgt>
<wgt id='morphing_basis_vector_4'> +1.3409718e-06 </wgt>
<wgt id='morphing_basis_vector_5'> +2.1391056e-06 </wgt>
</rwgt>
</event>
<event>
 4      1 +9.0096000e-12 5.88209700e+03 7.81860800e-03 7.27487400e-02
        2 -1    0    0  501    0 +0.0000000000e+00 +0.0000000000e+00 +5.0342552689e+03 5.0342552689e+03 0.0000000000e+00 0.0000e+00 -1.0000e+00
       -2 -1    0    0    0  501 -0.0000000000e+00 -0.0000000000e+00 -1.7181821415e+03 1.7181821415e+03 0.0000000000e+00 0.0000e+00 1.0000e+00
      -13  1    1    2    0    0 -1.9939050929e+03 -1.7108699553e+03 +1.4071010792e+02 2.6310706676e+03 0.0000000000e+00 0.0000e+00 1.0000e+00
       13  1    1    2    0    0 +1.9939050929e+03 +1.7108699553e+03 +3.1753630195e+03 4.1213667428e+03 0.0000000000e+00 0.0000e+00 -1.0000e+00
<mgrwt>
<rscale>  0 0.58820974E+04</rscale>
<asrwt>0</asrwt>
<pdfrwt beam="1">  1        2 0.77450080E+00 0.58820974E+04</pdfrwt>
<pdfrwt beam="2">  1       -2 0.26433572E+00 0.58820974E+04</pdfrwt>
<totfact> 0.86576394E-04</totfact>
</mgrwt>
<rwgt>
<wgt id='morphing_basis_vector_1'> +1.4661120e-06 </wgt>
<wgt id='morphing_basis_vector_2'> +1.0157402e-06 </wgt>
<wgt id='morphing_basis_vector_3'> +1.6221590e-06 </wgt>
<wgt id='morphing_basis_vector_4'> +1.1468733e-06 </wgt>
<wgt id='morphing_basis_vector_5'> +1.8559092e-06 </wgt>
</rwgt>
</event>
</LesHouchesEvents>
