<LesHouchesEvents version="3.0">
<header>
<!--
#*********************************************************************
#                                                                    *
#                        MadGraph5_aMC@NLO                           *
#                                                                    *
#                           Going Beyond                             *
#                                                                    *
#                   http://madgraph.hep.uiuc.edu                     *
#                   http://madgraph.phys.ucl.ac.be                   *
#                   http://amcatnlo.cern.ch                          *
#                                                                    *
#                     The MadGraph5_aMC@NLO team                     *
#                                                                    *
#....................................................................*
#                                                                    *
# This file contains all the information necessary to reproduce      *
# the events generated:                                              *
#                                                                    *
# 1. software version                                                *
# 2. proc_card          : code generation info including model       *
# 3. param_card         : model primary parameters in the LH format  *
# 4. run_card           : running parameters (collider and cuts)     *
# 5. pythia_card        : present only if pythia has been run        *
# 6. pgs_card           : present only if pgs has been run           *
# 7. delphes_cards      : present only if delphes has been run       *
#                                                                    *
#                                                                    *
#*********************************************************************
-->
<MGVersion>
2.6.4
</MGVersion>
<MG5ProcCard>
<![CDATA[
#************************************************************
#*                     MadGraph5_aMC@NLO                    *
#*                                                          *
#*                *                       *                 *
#*                  *        * *        *                   *
#*                    * * * * 5 * * * *                     *
#*                  *        * *        *                   *
#*                *                       *                 *
#*                                                          *
#*                                                          *
#*         VERSION 2.6.4                 2018-11-09         *
#*                                                          *
#*    The MadGraph5_aMC@NLO Development Team - Find us at   *
#*    https://server06.fynu.ucl.ac.be/projects/madgraph     *
#*                                                          *
#************************************************************
#*                                                          *
#*               Command File for MadGraph5_aMC@NLO         *
#*                                                          *
#*     run as ./bin/mg5_aMC  filename                       *
#*                                                          *
#************************************************************
set default_unset_couplings 99
set group_subprocesses Auto
set ignore_six_quark_processes False
set loop_optimized_output True
set loop_color_flows False
set gauge unitary
set complex_mass_scheme False
set max_npoint_for_channel 0
import model SM4fLL_UFO
define p = g u c d s u~ c~ d~ s~
define j = g u c d s u~ c~ d~ s~
define l+ = e+ mu+
define l- = e- mu-
define vl = ve vm vt
define vl~ = ve~ vm~ vt~
generate u u~ > mu+ mu- NP=2 QED=99 QCD=0
output /Users/dpappadopulo/Projects/~Physics/madminer/examples/example\
4_systematics_DY/data/mg_processes/DY_sys/
]]>
</MG5ProcCard>
<MGProcCard>
#*********************************************************************
#                        MadGraph/MadEvent                           *
#                   http://madgraph.hep.uiuc.edu                     *
#                                                                    *
#                          proc_card.dat                             *
#*********************************************************************
#                                                                    *
#            This Files is generated by MADGRAPH 5                   *
#                                                                    *
# WARNING: This Files is generated for MADEVENT (compatibility issue)*
#          This files is NOT a valid MG4 proc_card.dat               *
#          Running this in MG4 will NEVER reproduce the result of MG5*
#                                                                    *
#*********************************************************************
#*********************************************************************
# Process(es) requested : mg2 input                                  *
#*********************************************************************
# Begin PROCESS # This is TAG. Do not modify this line
u u~ > mu+ mu-           #Process
# Be carefull the coupling are here in MG5 convention
NP=2
QED=99
QCD=0
          
end_coup           # End the couplings input

done               # this tells MG there are no more procs
# End PROCESS  # This is TAG. Do not modify this line
#*********************************************************************
# Model information                                                  *
#*********************************************************************
# Begin MODEL  # This is TAG. Do not modify this line
SM4fLL_UFO
# End   MODEL  # This is TAG. Do not modify this line
#*********************************************************************
# Start multiparticle definitions                                    *
#*********************************************************************
# Begin MULTIPARTICLES # This is TAG. Do not modify this line

# End  MULTIPARTICLES # This is TAG. Do not modify this line
</MGProcCard>
<MGRunCard>
<![CDATA[
#*********************************************************************
#                       MadGraph5_aMC@NLO                            *
#                                                                    *
#                     run_card.dat MadEvent                          *
#                                                                    *
#  This file is used to set the parameters of the run.               *
#                                                                    *
#  Some notation/conventions:                                        *
#                                                                    *
#   Lines starting with a '# ' are info or comments                  *
#                                                                    *
#   mind the format:   value    = variable     ! comment             *
#*********************************************************************
#
#*******************                                                 
# Running parameters
#*******************                                                 
#                                                                    
#*********************************************************************
# Tag name for the run (one word)                                    *
#*********************************************************************
  tag_1     = run_tag ! name of the run 
#*********************************************************************
# Run to generate the grid pack                                      *
#*********************************************************************
  False     = gridpack  !True = setting up the grid pack
#*********************************************************************
# Number of events and rnd seed                                      *
# Warning: Do not generate more than 1M events in a single run       *
# If you want to run Pythia, avoid more than 50k events in a run.    *
#*********************************************************************
  1000 = nevents ! Number of unweighted events requested
 174 = iseed   ! rnd seed (0=assigned automatically=default))
#*********************************************************************
# Collider type and energy                                           *
# lpp: 0=No PDF, 1=proton, -1=antiproton, 2=photon from proton,      *
#                                         3=photon from electron     *
#*********************************************************************
     1        = lpp1    ! beam 1 type 
     1        = lpp2    ! beam 2 type
     6500.0     = ebeam1  ! beam 1 total energy in GeV
     6500.0     = ebeam2  ! beam 2 total energy in GeV
#*********************************************************************
# Beam polarization from -100 (left-handed) to 100 (right-handed)    *
#*********************************************************************
     0.0     = polbeam1 ! beam polarization for beam 1
     0.0     = polbeam2 ! beam polarization for beam 2
#*********************************************************************
# PDF CHOICE: this automatically fixes also alpha_s and its evol.    *
#*********************************************************************
     lhapdf    = pdlabel     ! PDF set
     90900   = lhaid     ! if pdlabel=lhapdf, this is the lhapdf number
#*********************************************************************
# Renormalization and factorization scales                           *
#*********************************************************************
 False = fixed_ren_scale  ! if .true. use fixed ren scale
 False        = fixed_fac_scale  ! if .true. use fixed fac scale
 91.188  = scale            ! fixed ren scale
 91.188  = dsqrt_q2fact1    ! fixed fact scale for pdf1
 91.188  = dsqrt_q2fact2    ! fixed fact scale for pdf2
 -1 = dynamical_scale_choice ! Choose one of the preselected dynamical choices
 1.0  = scalefact        ! scale factor for event-by-event scales
#*********************************************************************
# Type and output format
#*********************************************************************
  False     = gridpack  !True = setting up the grid pack
  -1.0 = time_of_flight ! threshold (in mm) below which the invariant livetime is not written (-1 means not written)
  3.0 = lhe_version       ! Change the way clustering information pass to shower.        
  True = clusinfo         ! include clustering tag in output
  sum =  event_norm       ! average/sum. Normalization of the weight in the LHEF
#*********************************************************************
# Matching - Warning! ickkw > 1 is still beta
#*********************************************************************
 0 = ickkw            ! 0 no matching, 1 MLM, 2 CKKW matching
 1 = highestmult      ! for ickkw=2, highest mult group
 1 = ktscheme         ! for ickkw=1, 1 Durham kT, 2 Pythia pTE
 1.0 = alpsfact         ! scale factor for QCD emission vx
 False = chcluster        ! cluster only according to channel diag
 True = pdfwgt           ! for ickkw=1, perform pdf reweighting
 4 = asrwgtflavor     ! highest quark flavor for a_s reweight    
#*********************************************************************
#**********************************************************
#
#**********************************************************
# Automatic ptj and mjj cuts if xqcut > 0
# (turn off for VBF and single top processes)
#**********************************************************
   False  = auto_ptj_mjj  ! Automatic setting of ptj and mjj
#**********************************************************
#                                                                    
#**********************************
# BW cutoff (M+/-bwcutoff*Gamma)
#**********************************
  15.0  = bwcutoff      ! (M+/-bwcutoff*Gamma)
#**********************************************************
# Apply pt/E/eta/dr/mij/kt_durham cuts on decay products or not
# (note that etmiss/ptll/ptheavy/ht/sorted cuts always apply)
#*************************************************************
   False  = cut_decays    ! Cut decay products 
#*************************************************************
# Number of helicities to sum per event (0 = all helicities)
# 0 gives more stable result, but longer run time (needed for
# long decay chains e.g.).
# Use >=2 if most helicities contribute, e.g. pure QCD.
#*************************************************************
   0  = nhel          ! Number of helicities used per event
#*******************                                                 
# Standard Cuts
#*******************                                                 
#                                                                    
#*********************************************************************
# Minimum and maximum pt's (for max, -1 means no cut)                *
#*********************************************************************
 15.0  = ptj       ! minimum pt for the jets
 0.0  = ptb       ! minimum pt for the b 
 0.0 = pta       ! minimum pt for the photons
 25.0  = ptl       ! minimum pt for the charged leptons
 0.0  = misset    ! minimum missing Et (sum of neutrino's momenta)
 0.0  = ptheavy   ! minimum pt for one heavy final state
 -1.0  = ptjmax    ! maximum pt for the jets
 -1.0  = ptbmax    ! maximum pt for the b
 -1.0 = ptamax       ! maximum pt for the photons
 -1.0  = ptlmax    ! maximum pt for the charged leptons
 -1.0  = missetmax ! maximum missing Et (sum of neutrino's momenta)
#*********************************************************************
# Minimum and maximum E's (in the center of mass frame)              *
#*********************************************************************
  0.0  = ej     ! minimum E for the jets 
  0.0  = eb     ! minimum E for the b 
  0.0  = ea     ! minimum E for the photons 
  0.0  = el     ! minimum E for the charged leptons 
  -1.0   = ejmax ! maximum E for the jets
 -1.0   = ebmax ! maximum E for the b
 -1.0   = eamax ! maximum E for the photons
 -1.0   = elmax ! maximum E for the charged leptons
#*********************************************************************
# Maximum and minimum absolute rapidity (for max, -1 means no cut)   *
#*********************************************************************
 2.5 = etaj    ! max rap for the jets
  -1.0  = etab    ! max rap for the b
 3.0  = etaa    ! max rap for the photons
 2.5  = etal    ! max rap for the charged leptons
 0.0  = etajmin ! min rap for the jets
 0.0  = etabmin ! min rap for the b
 0.0  = etaamin ! min rap for the photons
 0.0  = etalmin ! main rap for the charged leptons
#*********************************************************************
# Minimum and maximum DeltaR distance                                *
#*********************************************************************
 0.0 = drjj    ! min distance between jets
 0.0 = drbb    ! min distance between b's
 0.0 = drll    ! min distance between leptons
 0.0 = draa    ! min distance between gammas
 0.0 = drbj    ! min distance between b and jet
 0.0 = draj    ! min distance between gamma and jet
 0.0 = drjl    ! min distance between jet and lepton
 0.0 = drab    ! min distance between gamma and b
 0.0 = drbl    ! min distance between b and lepton
 0.0 = dral    ! min distance between gamma and lepton
 -1.0  = drjjmax ! max distance between jets
 -1.0  = drbbmax ! max distance between b's
 -1.0  = drllmax ! max distance between leptons
 -1.0  = draamax ! max distance between gammas
 -1.0  = drbjmax ! max distance between b and jet
 -1.0  = drajmax ! max distance between gamma and jet
 -1.0  = drjlmax ! max distance between jet and lepton
 -1.0  = drabmax ! max distance between gamma and b
 -1.0  = drblmax ! max distance between b and lepton
 -1.0  = dralmax ! maxdistance between gamma and lepton
#*********************************************************************
# Minimum and maximum invariant mass for pairs                       *
# WARNING: for four lepton final state mmll cut require to have      *
#          different lepton masses for each flavor!                  *           
#*********************************************************************
 0.0   = mmjj    ! min invariant mass of a jet pair 
 0.0   = mmbb    ! min invariant mass of a b pair 
 0.0   = mmaa    ! min invariant mass of gamma gamma pair
 6660   = mmll    ! min invariant mass of l+l- (same flavour) lepton pair
 -1.0  = mmjjmax ! max invariant mass of a jet pair
 -1.0  = mmbbmax ! max invariant mass of a b pair
 -1.0  = mmaamax ! max invariant mass of gamma gamma pair
 7990  = mmllmax ! max invariant mass of l+l- (same flavour) lepton pair
#*********************************************************************
# Minimum and maximum invariant mass for all letpons                 *
#*********************************************************************
 0.0   = mmnl    ! min invariant mass for all letpons (l+- and vl) 
 -1.0  = mmnlmax ! max invariant mass for all letpons (l+- and vl) 
#*********************************************************************
# Minimum and maximum pt for 4-momenta sum of leptons                *
#*********************************************************************
 0.0   = ptllmin  ! Minimum pt for 4-momenta sum of leptons(l and vl)
 -1.0  = ptllmax  ! Maximum pt for 4-momenta sum of leptons(l and vl)
#*********************************************************************
# Inclusive cuts                                                     *
#*********************************************************************
 0.0  = xptj ! minimum pt for at least one jet  
 0.0  = xptb ! minimum pt for at least one b 
 0.0  = xpta ! minimum pt for at least one photon 
 0.0  = xptl ! minimum pt for at least one charged lepton 
#*********************************************************************
# Control the pt's of the jets sorted by pt                          *
#*********************************************************************
 0.0   = ptj1min ! minimum pt for the leading jet in pt
 0.0   = ptj2min ! minimum pt for the second jet in pt
 0.0   = ptj3min ! minimum pt for the third jet in pt
 0.0   = ptj4min ! minimum pt for the fourth jet in pt
 -1.0  = ptj1max ! maximum pt for the leading jet in pt 
 -1.0  = ptj2max ! maximum pt for the second jet in pt
 -1.0  = ptj3max ! maximum pt for the third jet in pt
 -1.0  = ptj4max ! maximum pt for the fourth jet in pt
 0   = cutuse  ! reject event if fails any (0) / all (1) jet pt cuts
#*********************************************************************
# Control the pt's of leptons sorted by pt                           *
#*********************************************************************
 0.0   = ptl1min ! minimum pt for the leading lepton in pt
 0.0   = ptl2min ! minimum pt for the second lepton in pt
 0.0   = ptl3min ! minimum pt for the third lepton in pt
 0.0   = ptl4min ! minimum pt for the fourth lepton in pt
 -1.0  = ptl1max ! maximum pt for the leading lepton in pt 
 -1.0  = ptl2max ! maximum pt for the second lepton in pt
 -1.0  = ptl3max ! maximum pt for the third lepton in pt
 -1.0  = ptl4max ! maximum pt for the fourth lepton in pt
#*********************************************************************
# Control the Ht(k)=Sum of k leading jets                            *
#*********************************************************************
 0.0   = htjmin ! minimum jet HT=Sum(jet pt)
 -1.0  = htjmax ! maximum jet HT=Sum(jet pt)
 0.0   = ihtmin  !inclusive Ht for all partons (including b)
 -1.0  = ihtmax  !inclusive Ht for all partons (including b)
 0.0   = ht2min ! minimum Ht for the two leading jets
 0.0   = ht3min ! minimum Ht for the three leading jets
 0.0   = ht4min ! minimum Ht for the four leading jets
 -1.0  = ht2max ! maximum Ht for the two leading jets
 -1.0  = ht3max ! maximum Ht for the three leading jets
 -1.0  = ht4max ! maximum Ht for the four leading jets
#***********************************************************************
# Photon-isolation cuts, according to hep-ph/9801442                   *
# When ptgmin=0, all the other parameters are ignored                  *
# When ptgmin>0, pta and draj are not going to be used                 *
#***********************************************************************
 0.0 = ptgmin ! Min photon transverse momentum
 0.4 = R0gamma ! Radius of isolation code
 1.0 = xn ! n parameter of eq.(3.4) in hep-ph/9801442
 1.0 = epsgamma ! epsilon_gamma parameter of eq.(3.4) in hep-ph/9801442
 True = isoEM ! isolate photons from EM energy (photons and leptons)
#*********************************************************************
# WBF cuts                                                           *
#*********************************************************************
 0.0   = xetamin ! minimum rapidity for two jets in the WBF case  
 0.0   = deltaeta ! minimum rapidity for two jets in the WBF case 
#*********************************************************************
# KT DURHAM CUT                                                      *
#*********************************************************************
 -1.0    =  ktdurham        
 0.4  =  dparameter 
#*********************************************************************
# maximal pdg code for quark to be considered as a light jet         *
# (otherwise b cuts are applied)                                     *
#*********************************************************************
 4 = maxjetflavor    ! Maximum jet pdg code
#*********************************************************************
# Jet measure cuts                                                   *
#*********************************************************************
 0.0   = xqcut   ! minimum kt jet measure between partons
#*********************************************************************
#
#*********************************************************************
# Store info for systematics studies                                 *
# WARNING: If use_syst is T, matched Pythia output is                *
#          meaningful ONLY if plotted taking matchscale              *
#          reweighting into account!                                 *
#*********************************************************************
#    False  = use_syst      ! Enable systematics studies # Commented out by MadMiner
#
#**************************************
# Parameter of the systematics study
#  will be used by SysCalc (if installed)
#**************************************                                  
#
0.5 1 2 = sys_scalefact  # factorization/renormalization scale factor
None = sys_alpsfact  # \alpha_s emission scale factors
30 50 = sys_matchscale # variation of merging scale
# PDF sets and number of members (0 or none for all members).
NNPDF23_lo_as_0130_qed = sys_pdf # matching scales
# MSTW2008nlo68cl.LHgrid 1  = sys_pdf


#*********************************************************************
# MadMiner systematics setup                                         *
#*********************************************************************
True = use_syst
systematics = systematics_program
['--pdf=90900'] = systematics_arguments
]]>
</MGRunCard>
<slha>
######################################################################
## PARAM_CARD AUTOMATICALY GENERATED BY MG5 FOLLOWING UFO MODEL   ####
######################################################################
##                                                                  ##
##  Width set on Auto will be computed following the information    ##
##        present in the decay.py files of the model.               ##
##        See  arXiv:1402.1178 for more details.                    ##
##                                                                  ##
######################################################################

###################################
## INFORMATION FOR CKMBLOCK
###################################
Block ckmblock 
    1 2.277360e-01 # cabi 

###################################
## INFORMATION FOR MASS
###################################
Block mass 
    5 4.700000e+00 # MB 
    6 1.720000e+02 # MT 
   15 1.777000e+00 # MTA 
   23 9.118760e+01 # MZ 
   25 1.250000e+02 # MH 
## Dependent parameters, given by model restrictions.
## Those values should be edited following the 
## analytical expression. MG5 ignores those values 
## but they are important for interfacing the output of MG5
## to external program such as Pythia.
  1 0.000000 # d : 0.0 
  2 0.000000 # u : 0.0 
  3 0.000000 # s : 0.0 
  4 0.000000 # c : 0.0 
  11 0.000000 # e- : 0.0 
  12 0.000000 # ve : 0.0 
  13 0.000000 # mu- : 0.0 
  14 0.000000 # vm : 0.0 
  16 0.000000 # vt : 0.0 
  21 0.000000 # g : 0.0 
  22 0.000000 # a : 0.0 
  24 79.824360 # w+ : cmath.sqrt(MZ__exp__2/2. + cmath.sqrt(MZ__exp__4/4. - (aEW*cmath.pi*MZ__exp__2)/(Gf*sqrt__2))) 

###################################
## INFORMATION FOR OBLIQUE
###################################
Block oblique 
    1    0.0    # MadMiner
    2    0.0    # MadMiner

###################################
## INFORMATION FOR SMINPUTS
###################################
Block sminputs 
    1 1.279000e+02 # aEWM1 
    2 1.166370e-05 # Gf 
    3 1.184000e-01 # aS 

###################################
## INFORMATION FOR YUKAWA
###################################
Block yukawa 
    5 4.700000e+00 # ymb 
    6 1.720000e+02 # ymt 
   15 1.777000e+00 # ymtau 

###################################
## INFORMATION FOR DECAY
###################################
DECAY   6 1.508336e+00 # WT 
DECAY  23 2.495200e+00 # WZ 
DECAY  24 2.085000e+00 # WW 
DECAY  25 4.070000e-03 # WH 
## Dependent parameters, given by model restrictions.
## Those values should be edited following the 
## analytical expression. MG5 ignores those values 
## but they are important for interfacing the output of MG5
## to external program such as Pythia.
DECAY  1 0.000000 # d : 0.0 
DECAY  2 0.000000 # u : 0.0 
DECAY  3 0.000000 # s : 0.0 
DECAY  4 0.000000 # c : 0.0 
DECAY  5 0.000000 # b : 0.0 
DECAY  11 0.000000 # e- : 0.0 
DECAY  12 0.000000 # ve : 0.0 
DECAY  13 0.000000 # mu- : 0.0 
DECAY  14 0.000000 # vm : 0.0 
DECAY  15 0.000000 # ta- : 0.0 
DECAY  16 0.000000 # vt : 0.0 
DECAY  21 0.000000 # g : 0.0 
DECAY  22 0.000000 # a : 0.0
</slha>
<initrwgt>
<weightgroup name='mg_reweighting' weight_name_strategy='includeIdInWeightName'>
<weight id='morphing_basis_vector_1'>set param_card oblique 1 -0.06391685 # orig: 0.0
set param_card oblique 2 -0.08653588 # orig: 0.0
</weight>
<weight id='morphing_basis_vector_2'>set param_card oblique 1 0.0342439 # orig: 0.0
set param_card oblique 2 -0.09831893 # orig: 0.0
</weight>
<weight id='morphing_basis_vector_3'>set param_card oblique 1 -0.08145691 # orig: 0.0
set param_card oblique 2 0.09700122 # orig: 0.0
</weight>
<weight id='morphing_basis_vector_4'>set param_card oblique 1 0.09132942 # orig: 0.0
set param_card oblique 2 -0.005442744 # orig: 0.0
</weight>
<weight id='morphing_basis_vector_5'>set param_card oblique 1 0.08535809 # orig: 0.0
set param_card oblique 2 0.08156918 # orig: 0.0
</weight>
</weightgroup>
</initrwgt>
<MGGenerationInfo>
#  Number of Events        :       1000
#  Integrated weight (pb)  :       6.906e-10
</MGGenerationInfo>
</header>
<init>
2212 2212 6.500000e+03 6.500000e+03 0 0 90900 90900 -3 1
6.906000e-10 2.843366e-12 6.906000e-13 1
<generator name='MadGraph5_aMC@NLO' version='2.6.4'>please cite 1405.0301 </generator>
</init>
<event>
 4      1 +6.9060000e-13 6.81510100e+03 7.81860800e-03 7.17839400e-02
        2 -1    0    0  501    0 +0.0000000000e+00 +0.0000000000e+00 +3.2668128368e+03 3.2668128368e+03 0.0000000000e+00 0.0000e+00 1.0000e+00
       -2 -1    0    0    0  501 -0.0000000000e+00 -0.0000000000e+00 -3.5543517741e+03 3.5543517741e+03 0.0000000000e+00 0.0000e+00 -1.0000e+00
      -13  1    1    2    0    0 +2.6964361514e+03 +8.2979265482e+02 -2.0565107900e+03 3.4912118810e+03 0.0000000000e+00 0.0000e+00 -1.0000e+00
       13  1    1    2    0    0 -2.6964361514e+03 -8.2979265482e+02 +1.7689718527e+03 3.3299527300e+03 0.0000000000e+00 0.0000e+00 1.0000e+00
<mgrwt>
<rscale>  0 0.68151015E+04</rscale>
<asrwt>0</asrwt>
<pdfrwt beam="1">  1        2 0.50258659E+00 0.68151015E+04</pdfrwt>
<pdfrwt beam="2">  1       -2 0.54682335E+00 0.68151015E+04</pdfrwt>
<totfact> 0.42511247E-04</totfact>
</mgrwt>
<rwgt>
<wgt id='morphing_basis_vector_1'> +2.0174326e-07 </wgt>
<wgt id='morphing_basis_vector_2'> +1.3869944e-07 </wgt>
<wgt id='morphing_basis_vector_3'> +2.2319704e-07 </wgt>
<wgt id='morphing_basis_vector_4'> +1.5971564e-07 </wgt>
<wgt id='morphing_basis_vector_5'> +2.5674630e-07 </wgt>
</rwgt>
</event>
<event>
 4      1 +6.9060000e-13 6.91788400e+03 7.81860800e-03 7.16873000e-02
        2 -1    0    0  501    0 +0.0000000000e+00 +0.0000000000e+00 +4.7889484405e+03 4.7889484405e+03 0.0000000000e+00 0.0000e+00 -1.0000e+00
       -2 -1    0    0    0  501 -0.0000000000e+00 -0.0000000000e+00 -2.4983106179e+03 2.4983106179e+03 0.0000000000e+00 0.0000e+00 1.0000e+00
      -13  1    1    2    0    0 -3.1036904836e+02 -3.1654468877e+03 -2.8663779886e+02 3.1935159578e+03 0.0000000000e+00 0.0000e+00 1.0000e+00
       13  1    1    2    0    0 +3.1036904836e+02 +3.1654468877e+03 +2.5772756214e+03 4.0937431006e+03 0.0000000000e+00 0.0000e+00 -1.0000e+00
<mgrwt>
<rscale>  0 0.69178843E+04</rscale>
<asrwt>0</asrwt>
<pdfrwt beam="1">  1        2 0.73676130E+00 0.69178843E+04</pdfrwt>
<pdfrwt beam="2">  1       -2 0.38435548E+00 0.69178843E+04</pdfrwt>
<totfact> 0.26381826E-04</totfact>
</mgrwt>
<rwgt>
<wgt id='morphing_basis_vector_1'> +2.1510780e-07 </wgt>
<wgt id='morphing_basis_vector_2'> +1.5000517e-07 </wgt>
<wgt id='morphing_basis_vector_3'> +2.3850554e-07 </wgt>
<wgt id='morphing_basis_vector_4'> +1.6757582e-07 </wgt>
<wgt id='morphing_basis_vector_5'> +2.7244670e-07 </wgt>
</rwgt>
</event>
<event>
 4      1 +6.9060000e-13 6.85837100e+03 7.81860800e-03 7.17430400e-02
        2 -1    0    0  501    0 +0.0000000000e+00 +0.0000000000e+00 +3.8475338211e+03 3.8475338211e+03 0.0000000000e+00 0.0000e+00 -1.0000e+00
       -2 -1    0    0    0  501 -0.0000000000e+00 -0.0000000000e+00 -3.0563252506e+03 3.0563252506e+03 0.0000000000e+00 0.0000e+00 1.0000e+00
      -13  1    1    2    0    0 +2.7436779461e+03 -2.0257069229e+03 +3.5379554238e+01 3.4106464083e+03 0.0000000000e+00 0.0000e+00 1.0000e+00
       13  1    1    2    0    0 -2.7436779461e+03 +2.0257069229e+03 +7.5582901629e+02 3.4932126634e+03 0.0000000000e+00 0.0000e+00 -1.0000e+00
<mgrwt>
<rscale>  0 0.68583715E+04</rscale>
<asrwt>0</asrwt>
<pdfrwt beam="1">  1        2 0.59192828E+00 0.68583715E+04</pdfrwt>
<pdfrwt beam="2">  1       -2 0.47020388E+00 0.68583715E+04</pdfrwt>
<totfact> 0.57363655E-04</totfact>
</mgrwt>
<rwgt>
<wgt id='morphing_basis_vector_1'> +2.1141655e-07 </wgt>
<wgt id='morphing_basis_vector_2'> +1.5548696e-07 </wgt>
<wgt id='morphing_basis_vector_3'> +2.3630727e-07 </wgt>
<wgt id='morphing_basis_vector_4'> +1.5414979e-07 </wgt>
<wgt id='morphing_basis_vector_5'> +2.6252579e-07 </wgt>
</rwgt>
</event>
<event>
 4      1 +6.9060000e-13 6.81851300e+03 7.81860800e-03 7.17807000e-02
        2 -1    0    0  501    0 +0.0000000000e+00 +0.0000000000e+00 +4.0386743193e+03 4.0386743193e+03 0.0000000000e+00 0.0000e+00 -1.0000e+00
       -2 -1    0    0    0  501 -0.0000000000e+00 -0.0000000000e+00 -2.8779322091e+03 2.8779322091e+03 0.0000000000e+00 0.0000e+00 1.0000e+00
      -13  1    1    2    0    0 +2.6149307946e+03 +1.8849608044e+03 -5.4559345594e+02 3.2693443553e+03 0.0000000000e+00 0.0000e+00 1.0000e+00
       13  1    1    2    0    0 -2.6149307946e+03 -1.8849608044e+03 +1.7063355661e+03 3.6472621730e+03 0.0000000000e+00 0.0000e+00 -1.0000e+00
<mgrwt>
<rscale>  0 0.68185133E+04</rscale>
<asrwt>0</asrwt>
<pdfrwt beam="1">  1        2 0.62133451E+00 0.68185133E+04</pdfrwt>
<pdfrwt beam="2">  1       -2 0.44275880E+00 0.68185133E+04</pdfrwt>
<totfact> 0.62233431E-04</totfact>
</mgrwt>
<rwgt>
<wgt id='morphing_basis_vector_1'> +2.0357365e-07 </wgt>
<wgt id='morphing_basis_vector_2'> +1.4316405e-07 </wgt>
<wgt id='morphing_basis_vector_3'> +2.2598139e-07 </wgt>
<wgt id='morphing_basis_vector_4'> +1.5697791e-07 </wgt>
<wgt id='morphing_basis_vector_5'> +2.5700402e-07 </wgt>
</rwgt>
</event>
<event>
 4      1 +6.9060000e-13 7.73862400e+03 7.81860800e-03 7.09716000e-02
        2 -1    0    0  501    0 +0.0000000000e+00 +0.0000000000e+00 +4.5547106749e+03 4.5547106749e+03 0.0000000000e+00 0.0000e+00 -1.0000e+00
       -2 -1    0    0    0  501 -0.0000000000e+00 -0.0000000000e+00 -3.2870530524e+03 3.2870530524e+03 0.0000000000e+00 0.0000e+00 1.0000e+00
      -13  1    1    2    0    0 +3.6821365517e+03 -1.1275007588e+03 +1.0159328240e+03 3.9826507566e+03 0.0000000000e+00 0.0000e+00 1.0000e+00
       13  1    1    2    0    0 -3.6821365517e+03 +1.1275007588e+03 +2.5172479839e+02 3.8591129707e+03 0.0000000000e+00 0.0000e+00 -1.0000e+00
<mgrwt>
<rscale>  0 0.77386241E+04</rscale>
<asrwt>0</asrwt>
<pdfrwt beam="1">  1        2 0.70072472E+00 0.77386241E+04</pdfrwt>
<pdfrwt beam="2">  1       -2 0.50570047E+00 0.77386241E+04</pdfrwt>
<totfact> 0.65132078E-05</totfact>
</mgrwt>
<rwgt>
<wgt id='morphing_basis_vector_1'> +3.5143114e-07 </wgt>
<wgt id='morphing_basis_vector_2'> +2.7832760e-07 </wgt>
<wgt id='morphing_basis_vector_3'> +3.9781032e-07 </wgt>
<wgt id='morphing_basis_vector_4'> +2.3074270e-07 </wgt>
<wgt id='morphing_basis_vector_5'> +4.2421948e-07 </wgt>
</rwgt>
</event>
<event>
 4      1 +6.9060000e-13 6.91301800e+03 7.81860800e-03 7.16918400e-02
        2 -1    0    0  501    0 +0.0000000000e+00 +0.0000000000e+00 +3.7692822146e+03 3.7692822146e+03 0.0000000000e+00 0.0000e+00 1.0000e+00
       -2 -1    0    0    0  501 -0.0000000000e+00 -0.0000000000e+00 -3.1696892731e+03 3.1696892731e+03 0.0000000000e+00 0.0000e+00 -1.0000e+00
      -13  1    1    2    0    0 +3.1528882511e+03 +7.4880333033e+02 -9.0723331154e+02 3.3651869239e+03 0.0000000000e+00 0.0000e+00 -1.0000e+00
       13  1    1    2    0    0 -3.1528882511e+03 -7.4880333033e+02 +1.5068262530e+03 3.5737845638e+03 0.0000000000e+00 0.0000e+00 1.0000e+00
<mgrwt>
<rscale>  0 0.69130177E+04</rscale>
<asrwt>0</asrwt>
<pdfrwt beam="1">  1        2 0.57988957E+00 0.69130177E+04</pdfrwt>
<pdfrwt beam="2">  1       -2 0.48764451E+00 0.69130177E+04</pdfrwt>
<totfact> 0.49097656E-04</totfact>
</mgrwt>
<rwgt>
<wgt id='morphing_basis_vector_1'> +2.1487137e-07 </wgt>
<wgt id='morphing_basis_vector_2'> +1.5066128e-07 </wgt>
<wgt id='morphing_basis_vector_3'> +2.3843679e-07 </wgt>
<wgt id='morphing_basis_vector_4'> +1.6631680e-07 </wgt>
<wgt id='morphing_basis_vector_5'> +2.7161326e-07 </wgt>
</rwgt>
</event>
<event>
 4      1 +6.9060000e-13 6.74132800e+03 7.81860800e-03 7.18543700e-02
        2 -1    0    0  501    0 +0.0000000000e+00 +0.0000000000e+00 +2.9598264285e+03 2.9598264285e+03 0.0000000000e+00 0.0000e+00 1.0000e+00
       -2 -1    0    0    0  501 -0.0000000000e+00 -0.0000000000e+00 -3.8385275125e+03 3.8385275125e+03 0.0000000000e+00 0.0000e+00 -1.0000e+00
      -13  1    1    2    0    0 -2.9481566886e+03 -7.6232602470e+02 -1.8967769080e+03 3.5875522947e+03 0.0000000000e+00 0.0000e+00 -1.0000e+00
       13  1    1    2    0    0 +2.9481566886e+03 +7.6232602470e+02 +1.0180758240e+03 3.2108016463e+03 0.0000000000e+00 0.0000e+00 1.0000e+00
<mgrwt>
<rscale>  0 0.67413278E+04</rscale>
<asrwt>0</asrwt>
<pdfrwt beam="1">  1        2 0.45535791E+00 0.67413278E+04</pdfrwt>
<pdfrwt beam="2">  1       -2 0.59054269E+00 0.67413278E+04</pdfrwt>
<totfact> 0.32290072E-04</totfact>
</mgrwt>
<rwgt>
<wgt id='morphing_basis_vector_1'> +1.9378241e-07 </wgt>
<wgt id='morphing_basis_vector_2'> +1.3461049e-07 </wgt>
<wgt id='morphing_basis_vector_3'> +2.1470259e-07 </wgt>
<wgt id='morphing_basis_vector_4'> +1.5157410e-07 </wgt>
<wgt id='morphing_basis_vector_5'> +2.4567823e-07 </wgt>
</rwgt>
</event>
<event>
 4      1 +6.9060000e-13 6.80975100e+03 7.81860800e-03 7.17890100e-02
        2 -1    0    0  501    0 +0.0000000000e+00 +0.0000000000e+00 +4.8068939554e+03 4.8068939554e+03 0.0000000000e+00 0.0000e+00 -1.0000e+00
       -2 -1    0    0    0  501 -0.0000000000e+00 -0.0000000000e+00 -2.4117814661e+03 2.4117814661e+03 0.0000000000e+00 0.0000e+00 1.0000e+00
      -13  1    1    2    0    0 +1.0098178371e+03 -3.1731386729e+03 +4.4452037123e+02 3.3594849995e+03 0.0000000000e+00 0.0000e+00 1.0000e+00
       13  1    1    2    0    0 -1.0098178371e+03 +3.1731386729e+03 +1.9505921181e+03 3.8591904219e+03 0.0000000000e+00 0.0000e+00 -1.0000e+00
<mgrwt>
<rscale>  0 0.68097512E+04</rscale>
<asrwt>0</asrwt>
<pdfrwt beam="1">  1        2 0.73952214E+00 0.68097512E+04</pdfrwt>
<pdfrwt beam="2">  1       -2 0.37104331E+00 0.68097512E+04</pdfrwt>
<totfact> 0.30842619E-04</totfact>
</mgrwt>
<rwgt>
<wgt id='morphing_basis_vector_1'> +2.0382371e-07 </wgt>
<wgt id='morphing_basis_vector_2'> +1.4622319e-07 </wgt>
<wgt id='morphing_basis_vector_3'> +2.2693932e-07 </wgt>
<wgt id='morphing_basis_vector_4'> +1.5340060e-07 </wgt>
<wgt id='morphing_basis_vector_5'> +2.5544984e-07 </wgt>
</rwgt>
</event>
<event>
 4      1 +6.9060000e-13 6.76991400e+03 7.81860800e-03 7.18269700e-02
        2 -1    0    0  501    0 +0.0000000000e+00 +0.0000000000e+00 +3.1553383752e+03 3.1553383752e+03 0.0000000000e+00 0.0000e+00 1.0000e+00
       -2 -1    0    0    0  501 -0.0000000000e+00 -0.0000000000e+00 -3.6312856765e+03 3.6312856765e+03 0.0000000000e+00 0.0000e+00 -1.0000e+00
      -13  1    1    2    0    0 +3.0534721505e+03 +1.2736227794e+03 +4.7942380416e+02 3.3430007990e+03 0.0000000000e+00 0.0000e+00 -1.0000e+00
       13  1    1    2    0    0 -3.0534721505e+03 -1.2736227794e+03 -9.5537110541e+02 3.4436232528e+03 0.0000000000e+00 0.0000e+00 1.0000e+00
<mgrwt>
<rscale>  0 0.67699143E+04</rscale>
<asrwt>0</asrwt>
<pdfrwt beam="1">  1        2 0.48543667E+00 0.67699143E+04</pdfrwt>
<pdfrwt beam="2">  1       -2 0.55865933E+00 0.67699143E+04</pdfrwt>
<totfact> 0.41786715E-04</totfact>
</mgrwt>
<rwgt>
<wgt id='morphing_basis_vector_1'> +2.1082222e-07 </wgt>
<wgt id='morphing_basis_vector_2'> +1.7721995e-07 </wgt>
<wgt id='morphing_basis_vector_3'> +2.4086639e-07 </wgt>
<wgt id='morphing_basis_vector_4'> +1.2472186e-07 </wgt>
<wgt id='morphing_basis_vector_5'> +2.4739869e-07 </wgt>
</rwgt>
</event>
<event>
 4      1 +6.9060000e-13 6.69627200e+03 7.81860800e-03 7.18978300e-02
        2 -1    0    0  501    0 +0.0000000000e+00 +0.0000000000e+00 +2.8491687106e+03 2.8491687106e+03 0.0000000000e+00 0.0000e+00 -1.0000e+00
       -2 -1    0    0    0  501 -0.0000000000e+00 -0.0000000000e+00 -3.9344865502e+03 3.9344865502e+03 0.0000000000e+00 0.0000e+00 1.0000e+00
      -13  1    1    2    0    0 +2.5876775581e+03 +1.4569820938e+03 -2.1091701910e+03 3.6424539614e+03 0.0000000000e+00 0.0000e+00 1.0000e+00
       13  1    1    2    0    0 -2.5876775581e+03 -1.4569820938e+03 +1.0238523513e+03 3.1412012994e+03 0.0000000000e+00 0.0000e+00 -1.0000e+00
<mgrwt>
<rscale>  0 0.66962724E+04</rscale>
<asrwt>0</asrwt>
<pdfrwt beam="1">  1        2 0.43833365E+00 0.66962724E+04</pdfrwt>
<pdfrwt beam="2">  1       -2 0.60530562E+00 0.66962724E+04</pdfrwt>
<totfact> 0.27901275E-04</totfact>
</mgrwt>
<rwgt>
<wgt id='morphing_basis_vector_1'> +1.8848220e-07 </wgt>
<wgt id='morphing_basis_vector_2'> +1.3052046e-07 </wgt>
<wgt id='morphing_basis_vector_3'> +2.0872483e-07 </wgt>
<wgt id='morphing_basis_vector_4'> +1.4794258e-07 </wgt>
<wgt id='morphing_basis_vector_5'> +2.3919722e-07 </wgt>
</rwgt>
</event>
<event>
 4      1 +6.9060000e-13 6.78205200e+03 7.81860800e-03 7.18153800e-02
        2 -1    0    0  501    0 +0.0000000000e+00 +0.0000000000e+00 +4.4109897350e+03 4.4109897350e+03 0.0000000000e+00 0.0000e+00 1.0000e+00
       -2 -1    0    0    0  501 -0.0000000000e+00 -0.0000000000e+00 -2.6069105797e+03 2.6069105797e+03 0.0000000000e+00 0.0000e+00 -1.0000e+00
      -13  1    1    2    0    0 +1.2444848552e+03 -7.6054664173e+02 -2.2657732695e+03 2.6946061415e+03 0.0000000000e+00 0.0000e+00 -1.0000e+00
       13  1    1    2    0    0 -1.2444848552e+03 +7.6054664173e+02 +4.0698524247e+03 4.3232941732e+03 0.0000000000e+00 0.0000e+00 1.0000e+00
<mgrwt>
<rscale>  0 0.67820516E+04</rscale>
<asrwt>0</asrwt>
<pdfrwt beam="1">  1        2 0.67861380E+00 0.67820516E+04</pdfrwt>
<pdfrwt beam="2">  1       -2 0.40106317E+00 0.67820516E+04</pdfrwt>
<totfact> 0.53449084E-04</totfact>
</mgrwt>
<rwgt>
<wgt id='morphing_basis_vector_1'> +1.9725318e-07 </wgt>
<wgt id='morphing_basis_vector_2'> +1.3423480e-07 </wgt>
<wgt id='morphing_basis_vector_3'> +2.1789712e-07 </wgt>
<wgt id='morphing_basis_vector_4'> +1.5794630e-07 </wgt>
<wgt id='morphing_basis_vector_5'> +2.5190415e-07 </wgt>
</rwgt>
</event>
<event>
 4      1 +6.9060000e-13 7.61120000e+03 7.81860800e-03 7.10767100e-02
        2 -1    0    0  501    0 +0.0000000000e+00 +0.0000000000e+00 +2.6578177004e+03 2.6578177004e+03 0.0000000000e+00 0.0000e+00 -1.0000e+00
       -2 -1    0    0    0  501 -0.0000000000e+00 -0.0000000000e+00 -5.4490542120e+03 5.4490542120e+03 0.0000000000e+00 0.0000e+00 1.0000e+00
      -13  1    1    2    0    0 +3.0768681687e+03 -2.2333564687e+03 -1.5725503543e+03 4.1143545619e+03 0.0000000000e+00 0.0000e+00 1.0000e+00
       13  1    1    2    0    0 -3.0768681687e+03 +2.2333564687e+03 -1.2186861573e+03 3.9925173505e+03 0.0000000000e+00 0.0000e+00 -1.0000e+00
<mgrwt>
<rscale>  0 0.76112004E+04</rscale>
<asrwt>0</asrwt>
<pdfrwt beam="1">  1        2 0.40889503E+00 0.76112004E+04</pdfrwt>
<pdfrwt beam="2">  1       -2 0.83831603E+00 0.76112004E+04</pdfrwt>
<totfact> 0.14403326E-04</totfact>
</mgrwt>
<rwgt>
<wgt id='morphing_basis_vector_1'> +3.2245217e-07 </wgt>
<wgt id='morphing_basis_vector_2'> +2.4159678e-07 </wgt>
<wgt id='morphing_basis_vector_3'> +3.6169407e-07 </wgt>
<wgt id='morphing_basis_vector_4'> +2.2969565e-07 </wgt>
<wgt id='morphing_basis_vector_5'> +3.9809029e-07 </wgt>
</rwgt>
</event>
<event>
 4      1 +6.9060000e-13 7.10663200e+03 7.81860800e-03 7.15141700e-02
        2 -1    0    0  501    0 +0.0000000000e+00 +0.0000000000e+00 +3.5181561646e+03 3.5181561646e+03 0.0000000000e+00 0.0000e+00 -1.0000e+00
       -2 -1    0    0    0  501 -0.0000000000e+00 -0.0000000000e+00 -3.5888271876e+03 3.5888271876e+03 0.0000000000e+00 0.0000e+00 1.0000e+00
      -13  1    1    2    0    0 -2.8643940765e+03 -9.9762795979e+02 -1.8863834107e+03 3.5718982830e+03 0.0000000000e+00 0.0000e+00 1.0000e+00
       13  1    1    2    0    0 +2.8643940765e+03 +9.9762795979e+02 +1.8157123877e+03 3.5350850692e+03 0.0000000000e+00 0.0000e+00 -1.0000e+00
<mgrwt>
<rscale>  0 0.71066320E+04</rscale>
<asrwt>0</asrwt>
<pdfrwt beam="1">  1        2 0.54125479E+00 0.71066320E+04</pdfrwt>
<pdfrwt beam="2">  1       -2 0.55212726E+00 0.71066320E+04</pdfrwt>
<totfact> 0.25233826E-04</totfact>
</mgrwt>
<rwgt>
<wgt id='morphing_basis_vector_1'> +2.3866538e-07 </wgt>
<wgt id='morphing_basis_vector_2'> +1.6454108e-07 </wgt>
<wgt id='morphing_basis_vector_3'> +2.6421844e-07 </wgt>
<wgt id='morphing_basis_vector_4'> +1.8848899e-07 </wgt>
<wgt id='morphing_basis_vector_5'> +3.0362648e-07 </wgt>
</rwgt>
</event>
<event>
 4      1 +6.9060000e-13 6.71333100e+03 7.81860800e-03 7.18813300e-02
        2 -1    0    0  501    0 +0.0000000000e+00 +0.0000000000e+00 +2.3960358101e+03 2.3960358101e+03 0.0000000000e+00 0.0000e+00 1.0000e+00
       -2 -1    0    0    0  501 -0.0000000000e+00 -0.0000000000e+00 -4.7024346348e+03 4.7024346348e+03 0.0000000000e+00 0.0000e+00 -1.0000e+00
      -13  1    1    2    0    0 -8.0354066292e+02 +1.2839777314e+03 +2.0141339443e+03 2.5201214172e+03 0.0000000000e+00 0.0000e+00 1.0000e+00
       13  1    1    2    0    0 +8.0354066292e+02 -1.2839777314e+03 -4.3205327690e+03 4.5783490278e+03 0.0000000000e+00 0.0000e+00 -1.0000e+00
<mgrwt>
<rscale>  0 0.67133306E+04</rscale>
<asrwt>0</asrwt>
<pdfrwt beam="1">  1        2 0.36862090E+00 0.67133306E+04</pdfrwt>
<pdfrwt beam="2">  1       -2 0.72345148E+00 0.67133306E+04</pdfrwt>
<totfact> 0.17376896E-04</totfact>
</mgrwt>
<rwgt>
<wgt id='morphing_basis_vector_1'> +2.5764271e-07 </wgt>
<wgt id='morphing_basis_vector_2'> +3.2915912e-07 </wgt>
<wgt id='morphing_basis_vector_3'> +3.2095421e-07 </wgt>
<wgt id='morphing_basis_vector_4'> +5.3706533e-09 </wgt>
<wgt id='morphing_basis_vector_5'> +2.2951016e-07 </wgt>
</rwgt>
</event>
<event>
 4      1 +6.9060000e-13 6.92427400e+03 7.81860800e-03 7.16813500e-02
        2 -1    0    0  501    0 +0.0000000000e+00 +0.0000000000e+00 +3.8609208674e+03 3.8609208674e+03 0.0000000000e+00 0.0000e+00 -1.0000e+00
       -2 -1    0    0    0  501 -0.0000000000e+00 -0.0000000000e+00 -3.1045423319e+03 3.1045423319e+03 0.0000000000e+00 0.0000e+00 1.0000e+00
      -13  1    1    2    0    0 +2.4791904694e+02 -2.6208738357e+03 -1.8837299732e+03 3.2371101508e+03 0.0000000000e+00 0.0000e+00 1.0000e+00
       13  1    1    2    0    0 -2.4791904694e+02 +2.6208738357e+03 +2.6401085087e+03 3.7283530485e+03 0.0000000000e+00 0.0000e+00 -1.0000e+00
<mgrwt>
<rscale>  0 0.69242739E+04</rscale>
<asrwt>0</asrwt>
<pdfrwt beam="1">  1        2 0.59398783E+00 0.69242739E+04</pdfrwt>
<pdfrwt beam="2">  1       -2 0.47762190E+00 0.69242739E+04</pdfrwt>
<totfact> 0.49126248E-04</totfact>
</mgrwt>
<rwgt>
<wgt id='morphing_basis_vector_1'> +2.1466653e-07 </wgt>
<wgt id='morphing_basis_vector_2'> +1.4693369e-07 </wgt>
<wgt id='morphing_basis_vector_3'> +2.3736310e-07 </wgt>
<wgt id='morphing_basis_vector_4'> +1.7084612e-07 </wgt>
<wgt id='morphing_basis_vector_5'> +2.7367959e-07 </wgt>
</rwgt>
</event>
<event>
 4      1 +6.9060000e-13 7.07185900e+03 7.81860800e-03 7.15456500e-02
        2 -1    0    0  501    0 +0.0000000000e+00 +0.0000000000e+00 +3.8335858857e+03 3.8335858857e+03 0.0000000000e+00 0.0000e+00 -1.0000e+00
       -2 -1    0    0    0  501 -0.0000000000e+00 -0.0000000000e+00 -3.2613840588e+03 3.2613840588e+03 0.0000000000e+00 0.0000e+00 1.0000e+00
      -13  1    1    2    0    0 +5.9962427903e+02 +3.3821458947e+03 -5.5588895357e+02 3.4795793794e+03 0.0000000000e+00 0.0000e+00 1.0000e+00
       13  1    1    2    0    0 -5.9962427903e+02 -3.3821458947e+03 +1.1280907805e+03 3.6153905651e+03 0.0000000000e+00 0.0000e+00 -1.0000e+00
<mgrwt>
<rscale>  0 0.70718586E+04</rscale>
<asrwt>0</asrwt>
<pdfrwt beam="1">  1        2 0.58978244E+00 0.70718586E+04</pdfrwt>
<pdfrwt beam="2">  1       -2 0.50175140E+00 0.70718586E+04</pdfrwt>
<totfact> 0.33807880E-04</totfact>
</mgrwt>
<rwgt>
<wgt id='morphing_basis_vector_1'> +2.3657572e-07 </wgt>
<wgt id='morphing_basis_vector_2'> +1.6879894e-07 </wgt>
<wgt id='morphing_basis_vector_3'> +2.6324883e-07 </wgt>
<wgt id='morphing_basis_vector_4'> +1.7937432e-07 </wgt>
<wgt id='morphing_basis_vector_5'> +2.9725895e-07 </wgt>
</rwgt>
</event>
<event>
 4      1 +6.9060000e-13 7.35768700e+03 7.81860800e-03 7.12920900e-02
        2 -1    0    0  501    0 +0.0000000000e+00 +0.0000000000e+00 +3.7188404233e+03 3.7188404233e+03 0.0000000000e+00 0.0000e+00 -1.0000e+00
       -2 -1    0    0    0  501 -0.0000000000e+00 -0.0000000000e+00 -3.6392767282e+03 3.6392767282e+03 0.0000000000e+00 0.0000e+00 1.0000e+00
      -13  1    1    2    0    0 -1.7742161436e+03 -2.9534807999e+03 -1.2498662101e+03 3.6651135457e+03 0.0000000000e+00 0.0000e+00 1.0000e+00
       13  1    1    2    0    0 +1.7742161436e+03 +2.9534807999e+03 +1.3294299052e+03 3.6930036058e+03 0.0000000000e+00 0.0000e+00 -1.0000e+00
<mgrwt>
<rscale>  0 0.73576870E+04</rscale>
<asrwt>0</asrwt>
<pdfrwt beam="1">  1        2 0.57212930E+00 0.73576870E+04</pdfrwt>
<pdfrwt beam="2">  1       -2 0.55988872E+00 0.73576870E+04</pdfrwt>
<totfact> 0.15360187E-04</totfact>
</mgrwt>
<rwgt>
<wgt id='morphing_basis_vector_1'> +2.7558229e-07 </wgt>
<wgt id='morphing_basis_vector_2'> +1.9320909e-07 </wgt>
<wgt id='morphing_basis_vector_3'> +3.0590937e-07 </wgt>
<wgt id='morphing_basis_vector_4'> +2.1356210e-07 </wgt>
<wgt id='morphing_basis_vector_5'> +3.4867470e-07 </wgt>
</rwgt>
</event>
<event>
 4      1 +6.9060000e-13 6.91125400e+03 7.81860800e-03 7.16934800e-02
        2 -1    0    0  501    0 +0.0000000000e+00 +0.0000000000e+00 +3.6534744516e+03 3.6534744516e+03 0.0000000000e+00 0.0000e+00 1.0000e+00
       -2 -1    0    0    0  501 -0.0000000000e+00 -0.0000000000e+00 -3.2684935518e+03 3.2684935518e+03 0.0000000000e+00 0.0000e+00 -1.0000e+00
      -13  1    1    2    0    0 +3.2985765682e+02 -2.3990607216e+03 -2.2765003640e+03 3.3236654956e+03 0.0000000000e+00 0.0000e+00 -1.0000e+00
       13  1    1    2    0    0 -3.2985765682e+02 +2.3990607216e+03 +2.6614812638e+03 3.5983025077e+03 0.0000000000e+00 0.0000e+00 1.0000e+00
<mgrwt>
<rscale>  0 0.69112539E+04</rscale>
<asrwt>0</asrwt>
<pdfrwt beam="1">  1        2 0.56207299E+00 0.69112539E+04</pdfrwt>
<pdfrwt beam="2">  1       -2 0.50284517E+00 0.69112539E+04</pdfrwt>
<totfact> 0.46502906E-04</totfact>
</mgrwt>
<rwgt>
<wgt id='morphing_basis_vector_1'> +2.1291108e-07 </wgt>
<wgt id='morphing_basis_vector_2'> +1.4539762e-07 </wgt>
<wgt id='morphing_basis_vector_3'> +2.3534024e-07 </wgt>
<wgt id='morphing_basis_vector_4'> +1.6988035e-07 </wgt>
<wgt id='morphing_basis_vector_5'> +2.7165033e-07 </wgt>
</rwgt>
</event>
<event>
 4      1 +6.9060000e-13 6.67793000e+03 7.81860800e-03 7.19156200e-02
        2 -1    0    0  501    0 +0.0000000000e+00 +0.0000000000e+00 +2.9363236452e+03 2.9363236452e+03 0.0000000000e+00 0.0000e+00 -1.0000e+00
       -2 -1    0    0    0  501 -0.0000000000e+00 -0.0000000000e+00 -3.7968185040e+03 3.7968185040e+03 0.0000000000e+00 0.0000e+00 1.0000e+00
      -13  1    1    2    0    0 -1.3493619447e+03 +1.4788804433e+03 -3.1245727946e+03 3.7109055730e+03 0.0000000000e+00 0.0000e+00 1.0000e+00
       13  1    1    2    0    0 +1.3493619447e+03 -1.4788804433e+03 +2.2640779357e+03 3.0222365762e+03 0.0000000000e+00 0.0000e+00 -1.0000e+00
<mgrwt>
<rscale>  0 0.66779302E+04</rscale>
<asrwt>0</asrwt>
<pdfrwt beam="1">  1        2 0.45174210E+00 0.66779302E+04</pdfrwt>
<pdfrwt beam="2">  1       -2 0.58412592E+00 0.66779302E+04</pdfrwt>
<totfact> 0.37856972E-04</totfact>
</mgrwt>
<rwgt>
<wgt id='morphing_basis_vector_1'> +1.8551018e-07 </wgt>
<wgt id='morphing_basis_vector_2'> +1.2640015e-07 </wgt>
<wgt id='morphing_basis_vector_3'> +2.0494267e-07 </wgt>
<wgt id='morphing_basis_vector_4'> +1.4829502e-07 </wgt>
<wgt id='morphing_basis_vector_5'> +2.3674848e-07 </wgt>
</rwgt>
</event>
<event>
 4      1 +6.9060000e-13 6.85381400e+03 7.81860800e-03 7.17473400e-02
        2 -1    0    0  501    0 +0.0000000000e+00 +0.0000000000e+00 +2.1224862824e+03 2.1224862824e+03 0.0000000000e+00 0.0000e+00 1.0000e+00
       -2 -1    0    0    0  501 -0.0000000000e+00 -0.0000000000e+00 -5.5329885347e+03 5.5329885347e+03 0.0000000000e+00 0.0000e+00 -1.0000e+00
      -13  1    1    2    0    0 -4.9642822331e+02 +3.2065713062e+03 -2.9365261286e+03 4.3762685277e+03 0.0000000000e+00 0.0000e+00 -1.0000e+00
       13  1    1    2    0    0 +4.9642822331e+02 -3.2065713062e+03 -4.7397612377e+02 3.2792062894e+03 0.0000000000e+00 0.0000e+00 1.0000e+00
<mgrwt>
<rscale>  0 0.68538142E+04</rscale>
<asrwt>0</asrwt>
<pdfrwt beam="1">  1        2 0.32653635E+00 0.68538142E+04</pdfrwt>
<pdfrwt beam="2">  1       -2 0.85122901E+00 0.68538142E+04</pdfrwt>
<totfact> 0.25747474E-04</totfact>
</mgrwt>
<rwgt>
<wgt id='morphing_basis_vector_1'> +2.0785099e-07 </wgt>
<wgt id='morphing_basis_vector_2'> +1.4625610e-07 </wgt>
<wgt id='morphing_basis_vector_3'> +2.3075682e-07 </wgt>
<wgt id='morphing_basis_vector_4'> +1.6018179e-07 </wgt>
<wgt id='morphing_basis_vector_5'> +2.6237036e-07 </wgt>
</rwgt>
</event>
<event>
 4      1 +6.9060000e-13 7.17325900e+03 7.81860800e-03 7.14543400e-02
        2 -1    0    0  501    0 +0.0000000000e+00 +0.0000000000e+00 +3.3573847156e+03 3.3573847156e+03 0.0000000000e+00 0.0000e+00 1.0000e+00
       -2 -1    0    0    0  501 -0.0000000000e+00 -0.0000000000e+00 -3.8315271141e+03 3.8315271141e+03 0.0000000000e+00 0.0000e+00 -1.0000e+00
      -13  1    1    2    0    0 -1.2428408442e+03 +3.7285056777e+02 -3.5880541017e+03 3.8154689288e+03 0.0000000000e+00 0.0000e+00 -1.0000e+00
       13  1    1    2    0    0 +1.2428408442e+03 -3.7285056777e+02 +3.1139117033e+03 3.3734429009e+03 0.0000000000e+00 0.0000e+00 1.0000e+00
<mgrwt>
<rscale>  0 0.71732588E+04</rscale>
<asrwt>0</asrwt>
<pdfrwt beam="1">  1        2 0.51652073E+00 0.71732588E+04</pdfrwt>
<pdfrwt beam="2">  1       -2 0.58946571E+00 0.71732588E+04</pdfrwt>
<totfact> 0.17217793E-04</totfact>
</mgrwt>
<rwgt>
<wgt id='morphing_basis_vector_1'> +2.4674948e-07 </wgt>
<wgt id='morphing_basis_vector_2'> +1.6792551e-07 </wgt>
<wgt id='morphing_basis_vector_3'> +2.7266290e-07 </wgt>
<wgt id='morphing_basis_vector_4'> +1.9776612e-07 </wgt>
<wgt id='morphing_basis_vector_5'> +3.1536904e-07 </wgt>
</rwgt>
</event>
<event>
 4      1 +6.9060000e-13 6.83751000e+03 7.81860800e-03 7.17627200e-02
        2 -1    0    0  501    0 +0.0000000000e+00 +0.0000000000e+00 +2.2126857224e+03 2.2126857224e+03 0.0000000000e+00 0.0000e+00 -1.0000e+00
       -2 -1    0    0    0  501 -0.0000000000e+00 -0.0000000000e+00 -5.2822175869e+03 5.2822175869e+03 0.0000000000e+00 0.0000e+00 1.0000e+00
      -13  1    1    2    0    0 -2.9929484504e+02 -1.3058889855e+03 -4.9824800144e+03 5.1594602955e+03 0.0000000000e+00 0.0000e+00 1.0000e+00
       13  1    1    2    0    0 +2.9929484504e+02 +1.3058889855e+03 +1.9129481499e+03 2.3354430138e+03 0.0000000000e+00 0.0000e+00 -1.0000e+00
<mgrwt>
<rscale>  0 0.68375105E+04</rscale>
<asrwt>0</asrwt>
<pdfrwt beam="1">  1        2 0.34041319E+00 0.68375105E+04</pdfrwt>
<pdfrwt beam="2">  1       -2 0.81264885E+00 0.68375105E+04</pdfrwt>
<totfact> 0.36169758E-04</totfact>
</mgrwt>
<rwgt>
<wgt id='morphing_basis_vector_1'> +2.0376568e-07 </wgt>
<wgt id='morphing_basis_vector_2'> +1.3865516e-07 </wgt>
<wgt id='morphing_basis_vector_3'> +2.2509949e-07 </wgt>
<wgt id='morphing_basis_vector_4'> +1.6320081e-07 </wgt>
<wgt id='morphing_basis_vector_5'> +2.6026115e-07 </wgt>
</rwgt>
</event>
<event>
 4      1 +6.9060000e-13 6.78626900e+03 7.81860800e-03 7.18113500e-02
        2 -1    0    0  501    0 +0.0000000000e+00 +0.0000000000e+00 +3.8783870601e+03 3.8783870601e+03 0.0000000000e+00 0.0000e+00 -1.0000e+00
       -2 -1    0    0    0  501 -0.0000000000e+00 -0.0000000000e+00 -2.9685952620e+03 2.9685952620e+03 0.0000000000e+00 0.0000e+00 1.0000e+00
      -13  1    1    2    0    0 +4.9653856724e+02 +2.7852063734e+03 -1.4352130006e+03 3.1723432110e+03 0.0000000000e+00 0.0000e+00 1.0000e+00
       13  1    1    2    0    0 -4.9653856724e+02 -2.7852063734e+03 +2.3450047987e+03 3.6746391111e+03 0.0000000000e+00 0.0000e+00 -1.0000e+00
<mgrwt>
<rscale>  0 0.67862689E+04</rscale>
<asrwt>0</asrwt>
<pdfrwt beam="1">  1        2 0.59667493E+00 0.67862689E+04</pdfrwt>
<pdfrwt beam="2">  1       -2 0.45670697E+00 0.67862689E+04</pdfrwt>
<totfact> 0.68036577E-04</totfact>
</mgrwt>
<rwgt>
<wgt id='morphing_basis_vector_1'> +1.9838940e-07 </wgt>
<wgt id='morphing_basis_vector_2'> +1.3646444e-07 </wgt>
<wgt id='morphing_basis_vector_3'> +2.1949760e-07 </wgt>
<wgt id='morphing_basis_vector_4'> +1.5695559e-07 </wgt>
<wgt id='morphing_basis_vector_5'> +2.5241574e-07 </wgt>
</rwgt>
</event>
<event>
 4      1 +6.9060000e-13 7.62078400e+03 7.81860800e-03 7.10687300e-02
        2 -1    0    0  501    0 +0.0000000000e+00 +0.0000000000e+00 +4.5195181404e+03 4.5195181404e+03 0.0000000000e+00 0.0000e+00 -1.0000e+00
       -2 -1    0    0    0  501 -0.0000000000e+00 -0.0000000000e+00 -3.2125302927e+03 3.2125302927e+03 0.0000000000e+00 0.0000e+00 1.0000e+00
      -13  1    1    2    0    0 -2.7279107067e+03 +4.4017148676e+02 -2.0085199105e+03 3.4160503498e+03 0.0000000000e+00 0.0000e+00 1.0000e+00
       13  1    1    2    0    0 +2.7279107067e+03 -4.4017148676e+02 +3.3155077581e+03 4.3159980833e+03 0.0000000000e+00 0.0000e+00 -1.0000e+00
<mgrwt>
<rscale>  0 0.76207845E+04</rscale>
<asrwt>0</asrwt>
<pdfrwt beam="1">  1        2 0.69531048E+00 0.76207845E+04</pdfrwt>
<pdfrwt beam="2">  1       -2 0.49423543E+00 0.76207845E+04</pdfrwt>
<totfact> 0.87169881E-05</totfact>
</mgrwt>
<rwgt>
<wgt id='morphing_basis_vector_1'> +3.1463729e-07 </wgt>
<wgt id='morphing_basis_vector_2'> +2.1511978e-07 </wgt>
<wgt id='morphing_basis_vector_3'> +3.4802380e-07 </wgt>
<wgt id='morphing_basis_vector_4'> +2.5111843e-07 </wgt>
<wgt id='morphing_basis_vector_5'> +4.0181113e-07 </wgt>
</rwgt>
</event>
<event>
 4      1 +6.9060000e-13 7.65823300e+03 7.81860800e-03 7.10376700e-02
        2 -1    0    0  501    0 +0.0000000000e+00 +0.0000000000e+00 +3.1582153195e+03 3.1582153195e+03 0.0000000000e+00 0.0000e+00 -1.0000e+00
       -2 -1    0    0    0  501 -0.0000000000e+00 -0.0000000000e+00 -4.6425378296e+03 4.6425378296e+03 0.0000000000e+00 0.0000e+00 1.0000e+00
      -13  1    1    2    0    0 +2.3759833960e+03 -3.0009665069e+03 -6.3514891023e+02 3.8800143314e+03 0.0000000000e+00 0.0000e+00 1.0000e+00
       13  1    1    2    0    0 -2.3759833960e+03 +3.0009665069e+03 -8.4917359983e+02 3.9207388177e+03 0.0000000000e+00 0.0000e+00 -1.0000e+00
<mgrwt>
<rscale>  0 0.76582332E+04</rscale>
<asrwt>0</asrwt>
<pdfrwt beam="1">  1        2 0.48587928E+00 0.76582332E+04</pdfrwt>
<pdfrwt beam="2">  1       -2 0.71423659E+00 0.76582332E+04</pdfrwt>
<totfact> 0.43662234E-05</totfact>
</mgrwt>
<rwgt>
<wgt id='morphing_basis_vector_1'> +3.3343627e-07 </wgt>
<wgt id='morphing_basis_vector_2'> +2.5627808e-07 </wgt>
<wgt id='morphing_basis_vector_3'> +3.7556266e-07 </wgt>
<wgt id='morphing_basis_vector_4'> +2.2909890e-07 </wgt>
<wgt id='morphing_basis_vector_5'> +4.0750091e-07 </wgt>
</rwgt>
</event>
<event>
 4      1 +6.9060000e-13 7.40053800e+03 7.81860800e-03 7.12550800e-02
        2 -1    0    0  501    0 +0.0000000000e+00 +0.0000000000e+00 +3.5687104731e+03 3.5687104731e+03 0.0000000000e+00 0.0000e+00 -1.0000e+00
       -2 -1    0    0    0  501 -0.0000000000e+00 -0.0000000000e+00 -3.8366775731e+03 3.8366775731e+03 0.0000000000e+00 0.0000e+00 1.0000e+00
      -13  1    1    2    0    0 +2.0590086186e+03 -1.4605167292e+03 -2.8411891686e+03 3.8006554040e+03 0.0000000000e+00 0.0000e+00 1.0000e+00
       13  1    1    2    0    0 -2.0590086186e+03 +1.4605167292e+03 +2.5732220686e+03 3.6047326423e+03 0.0000000000e+00 0.0000e+00 -1.0000e+00
<mgrwt>
<rscale>  0 0.74005382E+04</rscale>
<asrwt>0</asrwt>
<pdfrwt beam="1">  1        2 0.54903238E+00 0.74005382E+04</pdfrwt>
<pdfrwt beam="2">  1       -2 0.59025809E+00 0.74005382E+04</pdfrwt>
<totfact> 0.11716532E-04</totfact>
</mgrwt>
<rwgt>
<wgt id='morphing_basis_vector_1'> +2.7974646e-07 </wgt>
<wgt id='morphing_basis_vector_2'> +1.9099192e-07 </wgt>
<wgt id='morphing_basis_vector_3'> +3.0932080e-07 </wgt>
<wgt id='morphing_basis_vector_4'> +2.2352802e-07 </wgt>
<wgt id='morphing_basis_vector_5'> +3.5729728e-07 </wgt>
</rwgt>
</event>
<event>
 4      1 +6.9060000e-13 7.08478000e+03 7.81860800e-03 7.15339300e-02
        2 -1    0    0  501    0 +0.0000000000e+00 +0.0000000000e+00 +5.1220461415e+03 5.1220461415e+03 0.0000000000e+00 0.0000e+00 -1.0000e+00
       -2 -1    0    0    0  501 -0.0000000000e+00 -0.0000000000e+00 -2.4499049397e+03 2.4499049397e+03 0.0000000000e+00 0.0000e+00 1.0000e+00
      -13  1    1    2    0    0 -2.2090101468e+03 +1.0161057109e+03 -1.4171779191e+03 2.8143542596e+03 0.0000000000e+00 0.0000e+00 1.0000e+00
       13  1    1    2    0    0 +2.2090101468e+03 -1.0161057109e+03 +4.0893191209e+03 4.7575968216e+03 0.0000000000e+00 0.0000e+00 -1.0000e+00
<mgrwt>
<rscale>  0 0.70847798E+04</rscale>
<asrwt>0</asrwt>
<pdfrwt beam="1">  1        2 0.78800709E+00 0.70847798E+04</pdfrwt>
<pdfrwt beam="2">  1       -2 0.37690846E+00 0.70847798E+04</pdfrwt>
<totfact> 0.10685901E-04</totfact>
</mgrwt>
<rwgt>
<wgt id='morphing_basis_vector_1'> +2.3504458e-07 </wgt>
<wgt id='morphing_basis_vector_2'> +1.6046349e-07 </wgt>
<wgt id='morphing_basis_vector_3'> +2.5983054e-07 </wgt>
<wgt id='morphing_basis_vector_4'> +1.8768666e-07 </wgt>
<wgt id='morphing_basis_vector_5'> +3.0003056e-07 </wgt>
</rwgt>
</event>
<event>
 4      1 +6.9060000e-13 7.11051500e+03 7.81860800e-03 7.15106600e-02
        2 -1    0    0  501    0 +0.0000000000e+00 +0.0000000000e+00 +3.6009093757e+03 3.6009093757e+03 0.0000000000e+00 0.0000e+00 1.0000e+00
       -2 -1    0    0    0  501 -0.0000000000e+00 -0.0000000000e+00 -3.5101845534e+03 3.5101845534e+03 0.0000000000e+00 0.0000e+00 -1.0000e+00
      -13  1    1    2    0    0 -2.2673245044e+03 -7.5067699153e+02 -2.5884009069e+03 3.5219448617e+03 0.0000000000e+00 0.0000e+00 -1.0000e+00
       13  1    1    2    0    0 +2.2673245044e+03 +7.5067699153e+02 +2.6791257293e+03 3.5891490673e+03 0.0000000000e+00 0.0000e+00 1.0000e+00
<mgrwt>
<rscale>  0 0.71105152E+04</rscale>
<asrwt>0</asrwt>
<pdfrwt beam="1">  1        2 0.55398606E+00 0.71105152E+04</pdfrwt>
<pdfrwt beam="2">  1       -2 0.54002839E+00 0.71105152E+04</pdfrwt>
<totfact> 0.26739524E-04</totfact>
</mgrwt>
<rwgt>
<wgt id='morphing_basis_vector_1'> +2.3844601e-07 </wgt>
<wgt id='morphing_basis_vector_2'> +1.6272774e-07 </wgt>
<wgt id='morphing_basis_vector_3'> +2.6358224e-07 </wgt>
<wgt id='morphing_basis_vector_4'> +1.9049025e-07 </wgt>
<wgt id='morphing_basis_vector_5'> +3.0442558e-07 </wgt>
</rwgt>
</event>
<event>
 4      1 +6.9060000e-13 6.85303100e+03 7.81860800e-03 7.17480700e-02
        2 -1    0    0  501    0 +0.0000000000e+00 +0.0000000000e+00 +4.5547489830e+03 4.5547489830e+03 0.0000000000e+00 0.0000e+00 1.0000e+00
       -2 -1    0    0    0  501 -0.0000000000e+00 -0.0000000000e+00 -2.5777511273e+03 2.5777511273e+03 0.0000000000e+00 0.0000e+00 -1.0000e+00
      -13  1    1    2    0    0 +3.5607527932e+01 +2.4398831259e+03 -1.5151590504e+03 2.8722821087e+03 0.0000000000e+00 0.0000e+00 -1.0000e+00
       13  1    1    2    0    0 -3.5607527932e+01 -2.4398831259e+03 +3.4921569061e+03 4.2602180016e+03 0.0000000000e+00 0.0000e+00 1.0000e+00
<mgrwt>
<rscale>  0 0.68530312E+04</rscale>
<asrwt>0</asrwt>
<pdfrwt beam="1">  1        2 0.70073061E+00 0.68530312E+04</pdfrwt>
<pdfrwt beam="2">  1       -2 0.39657710E+00 0.68530312E+04</pdfrwt>
<totfact> 0.40458864E-04</totfact>
</mgrwt>
<rwgt>
<wgt id='morphing_basis_vector_1'> +2.0586103e-07 </wgt>
<wgt id='morphing_basis_vector_2'> +1.4062817e-07 </wgt>
<wgt id='morphing_basis_vector_3'> +2.2754680e-07 </wgt>
<wgt id='morphing_basis_vector_4'> +1.6417103e-07 </wgt>
<wgt id='morphing_basis_vector_5'> +2.6259261e-07 </wgt>
</rwgt>
</event>
<event>
 4      1 +6.9060000e-13 7.04103000e+03 7.81860800e-03 7.15737200e-02
        2 -1    0    0  501    0 +0.0000000000e+00 +0.0000000000e+00 +4.9831864783e+03 4.9831864783e+03 0.0000000000e+00 0.0000e+00 1.0000e+00
       -2 -1    0    0    0  501 -0.0000000000e+00 -0.0000000000e+00 -2.4871688301e+03 2.4871688301e+03 0.0000000000e+00 0.0000e+00 -1.0000e+00
      -13  1    1    2    0    0 +1.2909413774e+03 -1.6466358587e+03 -1.7558966702e+03 2.7315036898e+03 0.0000000000e+00 0.0000e+00 -1.0000e+00
       13  1    1    2    0    0 -1.2909413774e+03 +1.6466358587e+03 +4.2519143184e+03 4.7388516185e+03 0.0000000000e+00 0.0000e+00 1.0000e+00
<mgrwt>
<rscale>  0 0.70410301E+04</rscale>
<asrwt>0</asrwt>
<pdfrwt beam="1">  1        2 0.76664407E+00 0.70410301E+04</pdfrwt>
<pdfrwt beam="2">  1       -2 0.38264136E+00 0.70410301E+04</pdfrwt>
<totfact> 0.15295403E-04</totfact>
</mgrwt>
<rwgt>
<wgt id='morphing_basis_vector_1'> +2.2917892e-07 </wgt>
<wgt id='morphing_basis_vector_2'> +1.5617862e-07 </wgt>
<wgt id='morphing_basis_vector_3'> +2.5327107e-07 </wgt>
<wgt id='morphing_basis_vector_4'> +1.8334978e-07 </wgt>
<wgt id='morphing_basis_vector_5'> +2.9269866e-07 </wgt>
</rwgt>
</event>
<event>
 4      1 +6.9060000e-13 7.14741800e+03 7.81860800e-03 7.14774700e-02
        2 -1    0    0  501    0 +0.0000000000e+00 +0.0000000000e+00 +5.7984369813e+03 5.7984369813e+03 0.0000000000e+00 0.0000e+00 -1.0000e+00
       -2 -1    0    0    0  501 -0.0000000000e+00 -0.0000000000e+00 -2.2025583439e+03 2.2025583439e+03 0.0000000000e+00 0.0000e+00 1.0000e+00
      -13  1    1    2    0    0 +2.9587461082e+03 +2.6551593740e+02 -4.2594870361e+02 3.0010180845e+03 0.0000000000e+00 0.0000e+00 1.0000e+00
       13  1    1    2    0    0 -2.9587461082e+03 -2.6551593740e+02 +4.0218273410e+03 4.9999772406e+03 0.0000000000e+00 0.0000e+00 -1.0000e+00
<mgrwt>
<rscale>  0 0.71474179E+04</rscale>
<asrwt>0</asrwt>
<pdfrwt beam="1">  1        2 0.89206723E+00 0.71474179E+04</pdfrwt>
<pdfrwt beam="2">  1       -2 0.33885513E+00 0.71474179E+04</pdfrwt>
<totfact> 0.96779924E-06</totfact>
</mgrwt>
<rwgt>
<wgt id='morphing_basis_vector_1'> +2.4400948e-07 </wgt>
<wgt id='morphing_basis_vector_2'> +1.6784051e-07 </wgt>
<wgt id='morphing_basis_vector_3'> +2.7005203e-07 </wgt>
<wgt id='morphing_basis_vector_4'> +1.9323149e-07 </wgt>
<wgt id='morphing_basis_vector_5'> +3.1069930e-07 </wgt>
</rwgt>
</event>
<event>
 4      1 +6.9060000e-13 7.65968300e+03 7.81860800e-03 7.10364700e-02
        2 -1    0    0  501    0 +0.0000000000e+00 +0.0000000000e+00 +4.1845367087e+03 4.1845367087e+03 0.0000000000e+00 0.0000e+00 1.0000e+00
       -2 -1    0    0    0  501 -0.0000000000e+00 -0.0000000000e+00 -3.5052112365e+03 3.5052112365e+03 0.0000000000e+00 0.0000e+00 -1.0000e+00
      -13  1    1    2    0    0 +3.3447250020e+03 +1.2191144024e+03 -1.0780628936e+03 3.7196296681e+03 0.0000000000e+00 0.0000e+00 -1.0000e+00
       13  1    1    2    0    0 -3.3447250020e+03 -1.2191144024e+03 +1.7573883658e+03 3.9701182770e+03 0.0000000000e+00 0.0000e+00 1.0000e+00
<mgrwt>
<rscale>  0 0.76596828E+04</rscale>
<asrwt>0</asrwt>
<pdfrwt beam="1">  1        2 0.64377488E+00 0.76596828E+04</pdfrwt>
<pdfrwt beam="2">  1       -2 0.53926326E+00 0.76596828E+04</pdfrwt>
<totfact> 0.85762497E-05</totfact>
</mgrwt>
<rwgt>
<wgt id='morphing_basis_vector_1'> +3.2338231e-07 </wgt>
<wgt id='morphing_basis_vector_2'> +2.2623515e-07 </wgt>
<wgt id='morphing_basis_vector_3'> +3.5892791e-07 </wgt>
<wgt id='morphing_basis_vector_4'> +2.5139557e-07 </wgt>
<wgt id='morphing_basis_vector_5'> +4.0967620e-07 </wgt>
</rwgt>
</event>
<event>
 4      1 +6.9060000e-13 7.22015400e+03 7.81860800e-03 7.14126300e-02
        2 -1    0    0  501    0 +0.0000000000e+00 +0.0000000000e+00 +2.5437337928e+03 2.5437337928e+03 0.0000000000e+00 0.0000e+00 1.0000e+00
       -2 -1    0    0    0  501 -0.0000000000e+00 -0.0000000000e+00 -5.1234354167e+03 5.1234354167e+03 0.0000000000e+00 0.0000e+00 -1.0000e+00
      -13  1    1    2    0    0 -2.2376089751e+03 -2.8899061427e+02 -4.2825307006e+03 4.8405039719e+03 0.0000000000e+00 0.0000e+00 -1.0000e+00
       13  1    1    2    0    0 +2.2376089751e+03 +2.8899061427e+02 +1.7028290767e+03 2.8266652376e+03 0.0000000000e+00 0.0000e+00 1.0000e+00
<mgrwt>
<rscale>  0 0.72201540E+04</rscale>
<asrwt>0</asrwt>
<pdfrwt beam="1">  1        2 0.39134367E+00 0.72201540E+04</pdfrwt>
<pdfrwt beam="2">  1       -2 0.78822081E+00 0.72201540E+04</pdfrwt>
<totfact> 0.25227317E-04</totfact>
</mgrwt>
<rwgt>
<wgt id='morphing_basis_vector_1'> +2.5339919e-07 </wgt>
<wgt id='morphing_basis_vector_2'> +1.7278018e-07 </wgt>
<wgt id='morphing_basis_vector_3'> +2.8009890e-07 </wgt>
<wgt id='morphing_basis_vector_4'> +2.0268732e-07 </wgt>
<wgt id='morphing_basis_vector_5'> +3.2368398e-07 </wgt>
</rwgt>
</event>
<event>
 4      1 +6.9060000e-13 7.86383900e+03 7.81860800e-03 7.08702700e-02
        2 -1    0    0  501    0 +0.0000000000e+00 +0.0000000000e+00 +2.7302242043e+03 2.7302242043e+03 0.0000000000e+00 0.0000e+00 1.0000e+00
       -2 -1    0    0    0  501 -0.0000000000e+00 -0.0000000000e+00 -5.6625354887e+03 5.6625354887e+03 0.0000000000e+00 0.0000e+00 -1.0000e+00
      -13  1    1    2    0    0 +2.8607040067e+03 -2.6925094688e+03 -1.6407327191e+03 4.2573746028e+03 0.0000000000e+00 0.0000e+00 -1.0000e+00
       13  1    1    2    0    0 -2.8607040067e+03 +2.6925094688e+03 -1.2915785653e+03 4.1353850901e+03 0.0000000000e+00 0.0000e+00 1.0000e+00
<mgrwt>
<rscale>  0 0.78638391E+04</rscale>
<asrwt>0</asrwt>
<pdfrwt beam="1">  1        2 0.42003450E+00 0.78638391E+04</pdfrwt>
<pdfrwt beam="2">  1       -2 0.87115930E+00 0.78638391E+04</pdfrwt>
<totfact> 0.71953514E-05</totfact>
</mgrwt>
<rwgt>
<wgt id='morphing_basis_vector_1'> +3.6746276e-07 </wgt>
<wgt id='morphing_basis_vector_2'> +2.7553117e-07 </wgt>
<wgt id='morphing_basis_vector_3'> +4.1230272e-07 </wgt>
<wgt id='morphing_basis_vector_4'> +2.6160725e-07 </wgt>
<wgt id='morphing_basis_vector_5'> +4.5369834e-07 </wgt>
</rwgt>
</event>
<event>
 4      1 +6.9060000e-13 6.76013700e+03 7.81860800e-03 7.18363200e-02
        2 -1    0    0  501    0 +0.0000000000e+00 +0.0000000000e+00 +3.9323953231e+03 3.9323953231e+03 0.0000000000e+00 0.0000e+00 -1.0000e+00
       -2 -1    0    0    0  501 -0.0000000000e+00 -0.0000000000e+00 -2.9053194233e+03 2.9053194233e+03 0.0000000000e+00 0.0000e+00 1.0000e+00
      -13  1    1    2    0    0 -1.8922808564e+03 -2.2512840951e+03 -1.1716721197e+03 3.1657262157e+03 0.0000000000e+00 0.0000e+00 1.0000e+00
       13  1    1    2    0    0 +1.8922808564e+03 +2.2512840951e+03 +2.1987480194e+03 3.6719885307e+03 0.0000000000e+00 0.0000e+00 -1.0000e+00
<mgrwt>
<rscale>  0 0.67601374E+04</rscale>
<asrwt>0</asrwt>
<pdfrwt beam="1">  1        2 0.60498390E+00 0.67601374E+04</pdfrwt>
<pdfrwt beam="2">  1       -2 0.44697222E+00 0.67601374E+04</pdfrwt>
<totfact> 0.71960885E-04</totfact>
</mgrwt>
<rwgt>
<wgt id='morphing_basis_vector_1'> +1.9560668e-07 </wgt>
<wgt id='morphing_basis_vector_2'> +1.3510967e-07 </wgt>
<wgt id='morphing_basis_vector_3'> +2.1654595e-07 </wgt>
<wgt id='morphing_basis_vector_4'> +1.5401223e-07 </wgt>
<wgt id='morphing_basis_vector_5'> +2.4849854e-07 </wgt>
</rwgt>
</event>
<event>
 4      1 +6.9060000e-13 6.72572500e+03 7.81860800e-03 7.18693800e-02
        2 -1    0    0  501    0 +0.0000000000e+00 +0.0000000000e+00 +4.1883726124e+03 4.1883726124e+03 0.0000000000e+00 0.0000e+00 1.0000e+00
       -2 -1    0    0    0  501 -0.0000000000e+00 -0.0000000000e+00 -2.7000565405e+03 2.7000565405e+03 0.0000000000e+00 0.0000e+00 -1.0000e+00
      -13  1    1    2    0    0 -6.9479840701e+02 +3.1579294582e+03 +1.6904020021e+03 3.6486603320e+03 0.0000000000e+00 0.0000e+00 -1.0000e+00
       13  1    1    2    0    0 +6.9479840701e+02 -3.1579294582e+03 -2.0208593024e+02 3.2397688209e+03 0.0000000000e+00 0.0000e+00 1.0000e+00
<mgrwt>
<rscale>  0 0.67257246E+04</rscale>
<asrwt>0</asrwt>
<pdfrwt beam="1">  1        2 0.64436502E+00 0.67257246E+04</pdfrwt>
<pdfrwt beam="2">  1       -2 0.41539331E+00 0.67257246E+04</pdfrwt>
<totfact> 0.70472796E-04</totfact>
</mgrwt>
<rwgt>
<wgt id='morphing_basis_vector_1'> +2.0874932e-07 </wgt>
<wgt id='morphing_basis_vector_2'> +1.8252676e-07 </wgt>
<wgt id='morphing_basis_vector_3'> +2.4015252e-07 </wgt>
<wgt id='morphing_basis_vector_4'> +1.1427358e-07 </wgt>
<wgt id='morphing_basis_vector_5'> +2.4038335e-07 </wgt>
</rwgt>
</event>
<event>
 4      1 +6.9060000e-13 7.44352300e+03 7.81860800e-03 7.12182000e-02
        2 -1    0    0  501    0 +0.0000000000e+00 +0.0000000000e+00 +4.7128945123e+03 4.7128945123e+03 0.0000000000e+00 0.0000e+00 1.0000e+00
       -2 -1    0    0    0  501 -0.0000000000e+00 -0.0000000000e+00 -2.9390663754e+03 2.9390663754e+03 0.0000000000e+00 0.0000e+00 -1.0000e+00
      -13  1    1    2    0    0 +3.4532012978e+03 -2.7556438845e+01 -5.3980800498e+02 3.4952469502e+03 0.0000000000e+00 0.0000e+00 -1.0000e+00
       13  1    1    2    0    0 -3.4532012978e+03 +2.7556438845e+01 +2.3136361419e+03 4.1567139374e+03 0.0000000000e+00 0.0000e+00 1.0000e+00
<mgrwt>
<rscale>  0 0.74435233E+04</rscale>
<asrwt>0</asrwt>
<pdfrwt beam="1">  1        2 0.72506070E+00 0.74435233E+04</pdfrwt>
<pdfrwt beam="2">  1       -2 0.45216406E+00 0.74435233E+04</pdfrwt>
<totfact> 0.10994950E-04</totfact>
</mgrwt>
<rwgt>
<wgt id='morphing_basis_vector_1'> +2.8839681e-07 </wgt>
<wgt id='morphing_basis_vector_2'> +2.0163837e-07 </wgt>
<wgt id='morphing_basis_vector_3'> +3.2002177e-07 </wgt>
<wgt id='morphing_basis_vector_4'> +2.2425947e-07 </wgt>
<wgt id='morphing_basis_vector_5'> +3.6530257e-07 </wgt>
</rwgt>
</event>
<event>
 4      1 +6.9060000e-13 6.83885500e+03 7.81860800e-03 7.17614500e-02
        2 -1    0    0  501    0 +0.0000000000e+00 +0.0000000000e+00 +2.4326228409e+03 2.4326228409e+03 0.0000000000e+00 0.0000e+00 -1.0000e+00
       -2 -1    0    0    0  501 -0.0000000000e+00 -0.0000000000e+00 -4.8065337273e+03 4.8065337273e+03 0.0000000000e+00 0.0000e+00 1.0000e+00
      -13  1    1    2    0    0 +1.0852640371e+02 -3.3683236486e+03 -1.7997188250e+03 3.8205196022e+03 0.0000000000e+00 0.0000e+00 1.0000e+00
       13  1    1    2    0    0 -1.0852640371e+02 +3.3683236486e+03 -5.7419206142e+02 3.4186369660e+03 0.0000000000e+00 0.0000e+00 -1.0000e+00
<mgrwt>
<rscale>  0 0.68388548E+04</rscale>
<asrwt>0</asrwt>
<pdfrwt beam="1">  1        2 0.37424967E+00 0.68388548E+04</pdfrwt>
<pdfrwt beam="2">  1       -2 0.73946672E+00 0.68388548E+04</pdfrwt>
<totfact> 0.22926904E-04</totfact>
</mgrwt>
<rwgt>
<wgt id='morphing_basis_vector_1'> +2.0789758e-07 </wgt>
<wgt id='morphing_basis_vector_2'> +1.5041927e-07 </wgt>
<wgt id='morphing_basis_vector_3'> +2.3178287e-07 </wgt>
<wgt id='morphing_basis_vector_4'> +1.5481540e-07 </wgt>
<wgt id='morphing_basis_vector_5'> +2.5974885e-07 </wgt>
</rwgt>
</event>
<event>
 4      1 +6.9060000e-13 6.69365700e+03 7.81860800e-03 7.19003600e-02
        2 -1    0    0  501    0 +0.0000000000e+00 +0.0000000000e+00 +2.9825929665e+03 2.9825929665e+03 0.0000000000e+00 0.0000e+00 1.0000e+00
       -2 -1    0    0    0  501 -0.0000000000e+00 -0.0000000000e+00 -3.7555443185e+03 3.7555443185e+03 0.0000000000e+00 0.0000e+00 -1.0000e+00
      -13  1    1    2    0    0 +3.1899668896e+02 -3.0386921463e+03 +9.8856303496e+02 3.2113339473e+03 0.0000000000e+00 0.0000e+00 -1.0000e+00
       13  1    1    2    0    0 -3.1899668896e+02 +3.0386921463e+03 -1.7615143869e+03 3.5268033377e+03 0.0000000000e+00 0.0000e+00 1.0000e+00
<mgrwt>
<rscale>  0 0.66936567E+04</rscale>
<asrwt>0</asrwt>
<pdfrwt beam="1">  1        2 0.45886046E+00 0.66936567E+04</pdfrwt>
<pdfrwt beam="2">  1       -2 0.57777605E+00 0.66936567E+04</pdfrwt>
<totfact> 0.39548235E-04</totfact>
</mgrwt>
<rwgt>
<wgt id='morphing_basis_vector_1'> +2.1384454e-07 </wgt>
<wgt id='morphing_basis_vector_2'> +2.0560517e-07 </wgt>
<wgt id='morphing_basis_vector_3'> +2.5040633e-07 </wgt>
<wgt id='morphing_basis_vector_4'> +9.2732127e-08 </wgt>
<wgt id='morphing_basis_vector_5'> +2.3419174e-07 </wgt>
</rwgt>
</event>
<event>
 4      1 +6.9060000e-13 7.02170100e+03 7.81860800e-03 7.15913900e-02
        2 -1    0    0  501    0 +0.0000000000e+00 +0.0000000000e+00 +4.4755339321e+03 4.4755339321e+03 0.0000000000e+00 0.0000e+00 1.0000e+00
       -2 -1    0    0    0  501 -0.0000000000e+00 -0.0000000000e+00 -2.7541008389e+03 2.7541008389e+03 0.0000000000e+00 0.0000e+00 -1.0000e+00
      -13  1    1    2    0    0 +1.8073164311e+03 -2.2664643088e+03 -1.1785459394e+03 3.1292528943e+03 0.0000000000e+00 0.0000e+00 -1.0000e+00
       13  1    1    2    0    0 -1.8073164311e+03 +2.2664643088e+03 +2.8999790326e+03 4.1003818767e+03 0.0000000000e+00 0.0000e+00 1.0000e+00
<mgrwt>
<rscale>  0 0.70217011E+04</rscale>
<asrwt>0</asrwt>
<pdfrwt beam="1">  1        2 0.68854368E+00 0.70217011E+04</pdfrwt>
<pdfrwt beam="2">  1       -2 0.42370782E+00 0.70217011E+04</pdfrwt>
<totfact> 0.32029813E-04</totfact>
</mgrwt>
<rwgt>
<wgt id='morphing_basis_vector_1'> +2.2728117e-07 </wgt>
<wgt id='morphing_basis_vector_2'> +1.5624503e-07 </wgt>
<wgt id='morphing_basis_vector_3'> +2.5149216e-07 </wgt>
<wgt id='morphing_basis_vector_4'> +1.8004578e-07 </wgt>
<wgt id='morphing_basis_vector_5'> +2.8938351e-07 </wgt>
</rwgt>
</event>
<event>
 4      1 +6.9060000e-13 6.84215100e+03 7.81860800e-03 7.17583400e-02
        2 -1    0    0  501    0 +0.0000000000e+00 +0.0000000000e+00 +3.7435056392e+03 3.7435056392e+03 0.0000000000e+00 0.0000e+00 -1.0000e+00
       -2 -1    0    0    0  501 -0.0000000000e+00 -0.0000000000e+00 -3.1264161187e+03 3.1264161187e+03 0.0000000000e+00 0.0000e+00 1.0000e+00
      -13  1    1    2    0    0 +2.5133806786e+02 -3.4028979412e+03 +5.5626694662e+02 3.4572124810e+03 0.0000000000e+00 0.0000e+00 1.0000e+00
       13  1    1    2    0    0 -2.5133806786e+02 +3.4028979412e+03 +6.0822573907e+01 3.4127092769e+03 0.0000000000e+00 0.0000e+00 -1.0000e+00
<mgrwt>
<rscale>  0 0.68421506E+04</rscale>
<asrwt>0</asrwt>
<pdfrwt beam="1">  1        2 0.57592394E+00 0.68421506E+04</pdfrwt>
<pdfrwt beam="2">  1       -2 0.48098710E+00 0.68421506E+04</pdfrwt>
<totfact> 0.57947388E-04</totfact>
</mgrwt>
<rwgt>
<wgt id='morphing_basis_vector_1'> +2.1402605e-07 </wgt>
<wgt id='morphing_basis_vector_2'> +1.6751780e-07 </wgt>
<wgt id='morphing_basis_vector_3'> +2.4161330e-07 </wgt>
<wgt id='morphing_basis_vector_4'> +1.4283584e-07 </wgt>
<wgt id='morphing_basis_vector_5'> +2.5921618e-07 </wgt>
</rwgt>
</event>
<event>
 4      1 +6.9060000e-13 7.38960400e+03 7.81860800e-03 7.12645000e-02
        2 -1    0    0  501    0 +0.0000000000e+00 +0.0000000000e+00 +4.9851878409e+03 4.9851878409e+03 0.0000000000e+00 0.0000e+00 -1.0000e+00
       -2 -1    0    0    0  501 -0.0000000000e+00 -0.0000000000e+00 -2.7384244359e+03 2.7384244359e+03 0.0000000000e+00 0.0000e+00 1.0000e+00
      -13  1    1    2    0    0 +1.7867226844e+03 -2.7414355299e+03 -6.6989411878e+02 3.3401504226e+03 0.0000000000e+00 0.0000e+00 1.0000e+00
       13  1    1    2    0    0 -1.7867226844e+03 +2.7414355299e+03 +2.9166575238e+03 4.3834618541e+03 0.0000000000e+00 0.0000e+00 -1.0000e+00
<mgrwt>
<rscale>  0 0.73896036E+04</rscale>
<asrwt>0</asrwt>
<pdfrwt beam="1">  1        2 0.76695197E+00 0.73896036E+04</pdfrwt>
<pdfrwt beam="2">  1       -2 0.42129607E+00 0.73896036E+04</pdfrwt>
<totfact> 0.82719223E-05</totfact>
</mgrwt>
<rwgt>
<wgt id='morphing_basis_vector_1'> +2.7932390e-07 </wgt>
<wgt id='morphing_basis_vector_2'> +1.9345944e-07 </wgt>
<wgt id='morphing_basis_vector_3'> +3.0950606e-07 </wgt>
<wgt id='morphing_basis_vector_4'> +2.1958027e-07 </wgt>
<wgt id='morphing_basis_vector_5'> +3.5496563e-07 </wgt>
</rwgt>
</event>
<event>
 4      1 +6.9060000e-13 7.33358600e+03 7.81860800e-03 7.13130200e-02
        2 -1    0    0  501    0 +0.0000000000e+00 +0.0000000000e+00 +4.4028673383e+03 4.4028673383e+03 0.0000000000e+00 0.0000e+00 -1.0000e+00
       -2 -1    0    0    0  501 -0.0000000000e+00 -0.0000000000e+00 -3.0537757819e+03 3.0537757819e+03 0.0000000000e+00 0.0000e+00 1.0000e+00
      -13  1    1    2    0    0 +1.1949276710e+03 +3.2620972301e+03 -5.1827156876e+02 3.5125113376e+03 0.0000000000e+00 0.0000e+00 1.0000e+00
       13  1    1    2    0    0 -1.1949276710e+03 -3.2620972301e+03 +1.8673631252e+03 3.9441317826e+03 0.0000000000e+00 0.0000e+00 -1.0000e+00
<mgrwt>
<rscale>  0 0.73335857E+04</rscale>
<asrwt>0</asrwt>
<pdfrwt beam="1">  1        2 0.67736421E+00 0.73335857E+04</pdfrwt>
<pdfrwt beam="2">  1       -2 0.46981166E+00 0.73335857E+04</pdfrwt>
<totfact> 0.17740036E-04</totfact>
</mgrwt>
<rwgt>
<wgt id='morphing_basis_vector_1'> +2.7235168e-07 </wgt>
<wgt id='morphing_basis_vector_2'> +1.9173932e-07 </wgt>
<wgt id='morphing_basis_vector_3'> +3.0250680e-07 </wgt>
<wgt id='morphing_basis_vector_4'> +2.1000746e-07 </wgt>
<wgt id='morphing_basis_vector_5'> +3.4405731e-07 </wgt>
</rwgt>
</event>
<event>
 4      1 +6.9060000e-13 7.50473700e+03 7.81860800e-03 7.11661200e-02
        2 -1    0    0  501    0 +0.0000000000e+00 +0.0000000000e+00 +2.6046451989e+03 2.6046451989e+03 0.0000000000e+00 0.0000e+00 -1.0000e+00
       -2 -1    0    0    0  501 -0.0000000000e+00 -0.0000000000e+00 -5.4058303804e+03 5.4058303804e+03 0.0000000000e+00 0.0000e+00 1.0000e+00
      -13  1    1    2    0    0 -2.0531658382e+03 +3.0771278077e+03 -2.0723397654e+03 4.2401412249e+03 0.0000000000e+00 0.0000e+00 1.0000e+00
       13  1    1    2    0    0 +2.0531658382e+03 -3.0771278077e+03 -7.2884541617e+02 3.7703343545e+03 0.0000000000e+00 0.0000e+00 -1.0000e+00
<mgrwt>
<rscale>  0 0.75047372E+04</rscale>
<asrwt>0</asrwt>
<pdfrwt beam="1">  1        2 0.40071465E+00 0.75047372E+04</pdfrwt>
<pdfrwt beam="2">  1       -2 0.83166621E+00 0.75047372E+04</pdfrwt>
<totfact> 0.16978827E-04</totfact>
</mgrwt>
<rwgt>
<wgt id='morphing_basis_vector_1'> +3.0133591e-07 </wgt>
<wgt id='morphing_basis_vector_2'> +2.1817509e-07 </wgt>
<wgt id='morphing_basis_vector_3'> +3.3617480e-07 </wgt>
<wgt id='morphing_basis_vector_4'> +2.2455134e-07 </wgt>
<wgt id='morphing_basis_vector_5'> +3.7687959e-07 </wgt>
</rwgt>
</event>
<event>
 4      1 +6.9060000e-13 6.77460300e+03 7.81860800e-03 7.18224900e-02
        2 -1    0    0  501    0 +0.0000000000e+00 +0.0000000000e+00 +3.4691289581e+03 3.4691289581e+03 0.0000000000e+00 0.0000e+00 1.0000e+00
       -2 -1    0    0    0  501 -0.0000000000e+00 -0.0000000000e+00 -3.3074043286e+03 3.3074043286e+03 0.0000000000e+00 0.0000e+00 -1.0000e+00
      -13  1    1    2    0    0 +1.3257598688e+03 -3.6533479607e+02 -3.0156138106e+03 3.3143680239e+03 0.0000000000e+00 0.0000e+00 -1.0000e+00
       13  1    1    2    0    0 -1.3257598688e+03 +3.6533479607e+02 +3.1773384402e+03 3.4621652627e+03 0.0000000000e+00 0.0000e+00 1.0000e+00
<mgrwt>
<rscale>  0 0.67746032E+04</rscale>
<asrwt>0</asrwt>
<pdfrwt beam="1">  1        2 0.53371215E+00 0.67746032E+04</pdfrwt>
<pdfrwt beam="2">  1       -2 0.50883144E+00 0.67746032E+04</pdfrwt>
<totfact> 0.58157682E-04</totfact>
</mgrwt>
<rwgt>
<wgt id='morphing_basis_vector_1'> +1.9638492e-07 </wgt>
<wgt id='morphing_basis_vector_2'> +1.3363270e-07 </wgt>
<wgt id='morphing_basis_vector_3'> +2.1693389e-07 </wgt>
<wgt id='morphing_basis_vector_4'> +1.5726250e-07 </wgt>
<wgt id='morphing_basis_vector_5'> +2.5079831e-07 </wgt>
</rwgt>
</event>
<event>
 4      1 +6.9060000e-13 7.43329500e+03 7.81860800e-03 7.12269600e-02
        2 -1    0    0  501    0 +0.0000000000e+00 +0.0000000000e+00 +2.3994288477e+03 2.3994288477e+03 0.0000000000e+00 0.0000e+00 1.0000e+00
       -2 -1    0    0    0  501 -0.0000000000e+00 -0.0000000000e+00 -5.7569815627e+03 5.7569815627e+03 0.0000000000e+00 0.0000e+00 -1.0000e+00
      -13  1    1    2    0    0 +3.0804371038e+03 +2.1940515386e+02 -3.9478498558e+03 5.0122599550e+03 0.0000000000e+00 0.0000e+00 -1.0000e+00
       13  1    1    2    0    0 -3.0804371038e+03 -2.1940515386e+02 +5.9029714086e+02 3.1441504555e+03 0.0000000000e+00 0.0000e+00 1.0000e+00
<mgrwt>
<rscale>  0 0.74332947E+04</rscale>
<asrwt>0</asrwt>
<pdfrwt beam="1">  1        2 0.36914290E+00 0.74332947E+04</pdfrwt>
<pdfrwt beam="2">  1       -2 0.88568947E+00 0.74332947E+04</pdfrwt>
<totfact> 0.84224552E-05</totfact>
</mgrwt>
<rwgt>
<wgt id='morphing_basis_vector_1'> +2.8538156e-07 </wgt>
<wgt id='morphing_basis_vector_2'> +1.9632080e-07 </wgt>
<wgt id='morphing_basis_vector_3'> +3.1591084e-07 </wgt>
<wgt id='morphing_basis_vector_4'> +2.2610832e-07 </wgt>
<wgt id='morphing_basis_vector_5'> +3.6355572e-07 </wgt>
</rwgt>
</event>
<event>
 4      1 +6.9060000e-13 7.84961000e+03 7.81860800e-03 7.08816900e-02
        2 -1    0    0  501    0 +0.0000000000e+00 +0.0000000000e+00 +2.7345509041e+03 2.7345509041e+03 0.0000000000e+00 0.0000e+00 -1.0000e+00
       -2 -1    0    0    0  501 -0.0000000000e+00 -0.0000000000e+00 -5.6331349035e+03 5.6331349035e+03 0.0000000000e+00 0.0000e+00 1.0000e+00
      -13  1    1    2    0    0 +3.2853730235e+02 -2.9175492008e+03 -4.2258212731e+03 5.1456384959e+03 0.0000000000e+00 0.0000e+00 1.0000e+00
       13  1    1    2    0    0 -3.2853730235e+02 +2.9175492008e+03 +1.3272372738e+03 3.2220473117e+03 0.0000000000e+00 0.0000e+00 -1.0000e+00
<mgrwt>
<rscale>  0 0.78496100E+04</rscale>
<asrwt>0</asrwt>
<pdfrwt beam="1">  1        2 0.42070014E+00 0.78496100E+04</pdfrwt>
<pdfrwt beam="2">  1       -2 0.86663613E+00 0.78496100E+04</pdfrwt>
<totfact> 0.78598064E-05</totfact>
</mgrwt>
<rwgt>
<wgt id='morphing_basis_vector_1'> +3.5420426e-07 </wgt>
<wgt id='morphing_basis_vector_2'> +2.4241740e-07 </wgt>
<wgt id='morphing_basis_vector_3'> +3.9190199e-07 </wgt>
<wgt id='morphing_basis_vector_4'> +2.8249700e-07 </wgt>
<wgt id='morphing_basis_vector_5'> +4.5234148e-07 </wgt>
</rwgt>
</event>
<event>
 4      1 +6.9060000e-13 6.91635200e+03 7.81860800e-03 7.16887300e-02
        2 -1    0    0  501    0 +0.0000000000e+00 +0.0000000000e+00 +4.4263065119e+03 4.4263065119e+03 0.0000000000e+00 0.0000e+00 -1.0000e+00
       -2 -1    0    0    0  501 -0.0000000000e+00 -0.0000000000e+00 -2.7017972944e+03 2.7017972944e+03 0.0000000000e+00 0.0000e+00 1.0000e+00
      -13  1    1    2    0    0 +2.2419241868e+03 -2.4502239932e+03 -1.3118723566e+02 3.3237075333e+03 0.0000000000e+00 0.0000e+00 1.0000e+00
       13  1    1    2    0    0 -2.2419241868e+03 +2.4502239932e+03 +1.8556964532e+03 3.8043962730e+03 0.0000000000e+00 0.0000e+00 -1.0000e+00
<mgrwt>
<rscale>  0 0.69163525E+04</rscale>
<asrwt>0</asrwt>
<pdfrwt beam="1">  1        2 0.68097023E+00 0.69163525E+04</pdfrwt>
<pdfrwt beam="2">  1       -2 0.41566112E+00 0.69163525E+04</pdfrwt>
<totfact> 0.40956520E-04</totfact>
</mgrwt>
<rwgt>
<wgt id='morphing_basis_vector_1'> +2.1597627e-07 </wgt>
<wgt id='morphing_basis_vector_2'> +1.5297874e-07 </wgt>
<wgt id='morphing_basis_vector_3'> +2.4002888e-07 </wgt>
<wgt id='morphing_basis_vector_4'> +1.6515768e-07 </wgt>
<wgt id='morphing_basis_vector_5'> +2.7201382e-07 </wgt>
</rwgt>
</event>
<event>
 4      1 +6.9060000e-13 7.11170100e+03 7.81860800e-03 7.15095900e-02
        2 -1    0    0  501    0 +0.0000000000e+00 +0.0000000000e+00 +4.7275241315e+03 4.7275241315e+03 0.0000000000e+00 0.0000e+00 1.0000e+00
       -2 -1    0    0    0  501 -0.0000000000e+00 -0.0000000000e+00 -2.6745651286e+03 2.6745651286e+03 0.0000000000e+00 0.0000e+00 -1.0000e+00
      -13  1    1    2    0    0 -2.0263170921e+03 +6.4678932090e+02 -1.9393953504e+03 2.8784634284e+03 0.0000000000e+00 0.0000e+00 -1.0000e+00
       13  1    1    2    0    0 +2.0263170921e+03 -6.4678932090e+02 +3.9923543533e+03 4.5236258317e+03 0.0000000000e+00 0.0000e+00 1.0000e+00
<mgrwt>
<rscale>  0 0.71117006E+04</rscale>
<asrwt>0</asrwt>
<pdfrwt beam="1">  1        2 0.72731141E+00 0.71117006E+04</pdfrwt>
<pdfrwt beam="2">  1       -2 0.41147156E+00 0.71117006E+04</pdfrwt>
<totfact> 0.20418118E-04</totfact>
</mgrwt>
<rwgt>
<wgt id='morphing_basis_vector_1'> +2.3850749e-07 </wgt>
<wgt id='morphing_basis_vector_2'> +1.6255068e-07 </wgt>
<wgt id='morphing_basis_vector_3'> +2.6359850e-07 </wgt>
<wgt id='morphing_basis_vector_4'> +1.9082620e-07 </wgt>
<wgt id='morphing_basis_vector_5'> +3.0464654e-07 </wgt>
</rwgt>
</event>
<event>
 4      1 +6.9060000e-13 6.84535600e+03 7.81860800e-03 7.17553100e-02
        2 -1    0    0  501    0 +0.0000000000e+00 +0.0000000000e+00 +3.4458038471e+03 3.4458038471e+03 0.0000000000e+00 0.0000e+00 -1.0000e+00
       -2 -1    0    0    0  501 -0.0000000000e+00 -0.0000000000e+00 -3.3997072511e+03 3.3997072511e+03 0.0000000000e+00 0.0000e+00 1.0000e+00
      -13  1    1    2    0    0 -1.0230681239e+02 -1.0456754586e+03 -3.2344509947e+03 3.4008200608e+03 0.0000000000e+00 0.0000e+00 1.0000e+00
       13  1    1    2    0    0 +1.0230681239e+02 +1.0456754586e+03 +3.2805475906e+03 3.4446910374e+03 0.0000000000e+00 0.0000e+00 -1.0000e+00
<mgrwt>
<rscale>  0 0.68453559E+04</rscale>
<asrwt>0</asrwt>
<pdfrwt beam="1">  1        2 0.53012367E+00 0.68453559E+04</pdfrwt>
<pdfrwt beam="2">  1       -2 0.52303188E+00 0.68453559E+04</pdfrwt>
<totfact> 0.47175266E-04</totfact>
</mgrwt>
<rwgt>
<wgt id='morphing_basis_vector_1'> +2.0469145e-07 </wgt>
<wgt id='morphing_basis_vector_2'> +1.3926461e-07 </wgt>
<wgt id='morphing_basis_vector_3'> +2.2611888e-07 </wgt>
<wgt id='morphing_basis_vector_4'> +1.6397253e-07 </wgt>
<wgt id='morphing_basis_vector_5'> +2.6146144e-07 </wgt>
</rwgt>
</event>
<event>
 4      1 +6.9060000e-13 6.84012200e+03 7.81860800e-03 7.17602500e-02
        2 -1    0    0  501    0 +0.0000000000e+00 +0.0000000000e+00 +4.6163177532e+03 4.6163177532e+03 0.0000000000e+00 0.0000e+00 -1.0000e+00
       -2 -1    0    0    0  501 -0.0000000000e+00 -0.0000000000e+00 -2.5337984218e+03 2.5337984218e+03 0.0000000000e+00 0.0000e+00 1.0000e+00
      -13  1    1    2    0    0 -1.7637598986e+02 -2.8505942709e+03 -9.2544869591e+02 3.0022410756e+03 0.0000000000e+00 0.0000e+00 1.0000e+00
       13  1    1    2    0    0 +1.7637598986e+02 +2.8505942709e+03 +3.0079680273e+03 4.1478750994e+03 0.0000000000e+00 0.0000e+00 -1.0000e+00
<mgrwt>
<rscale>  0 0.68401224E+04</rscale>
<asrwt>0</asrwt>
<pdfrwt beam="1">  1        2 0.71020273E+00 0.68401224E+04</pdfrwt>
<pdfrwt beam="2">  1       -2 0.38981514E+00 0.68401224E+04</pdfrwt>
<totfact> 0.38462557E-04</totfact>
</mgrwt>
<rwgt>
<wgt id='morphing_basis_vector_1'> +2.0475850e-07 </wgt>
<wgt id='morphing_basis_vector_2'> +1.4086777e-07 </wgt>
<wgt id='morphing_basis_vector_3'> +2.2656051e-07 </wgt>
<wgt id='morphing_basis_vector_4'> +1.6198918e-07 </wgt>
<wgt id='morphing_basis_vector_5'> +2.6053658e-07 </wgt>
</rwgt>
</event>
<event>
 4      1 +6.9060000e-13 6.93847400e+03 7.81860800e-03 7.16681400e-02
        2 -1    0    0  501    0 +0.0000000000e+00 +0.0000000000e+00 +4.1393035891e+03 4.1393035891e+03 0.0000000000e+00 0.0000e+00 -1.0000e+00
       -2 -1    0    0    0  501 -0.0000000000e+00 -0.0000000000e+00 -2.9076398832e+03 2.9076398832e+03 0.0000000000e+00 0.0000e+00 1.0000e+00
      -13  1    1    2    0    0 +1.8296116512e+03 +3.5950333164e+02 -2.3554604798e+03 3.0041497152e+03 0.0000000000e+00 0.0000e+00 1.0000e+00
       13  1    1    2    0    0 -1.8296116512e+03 -3.5950333164e+02 +3.5871241857e+03 4.0427937572e+03 0.0000000000e+00 0.0000e+00 -1.0000e+00
<mgrwt>
<rscale>  0 0.69384737E+04</rscale>
<asrwt>0</asrwt>
<pdfrwt beam="1">  1        2 0.63681594E+00 0.69384737E+04</pdfrwt>
<pdfrwt beam="2">  1       -2 0.44732921E+00 0.69384737E+04</pdfrwt>
<totfact> 0.46786116E-04</totfact>
</mgrwt>
<rwgt>
<wgt id='morphing_basis_vector_1'> +2.1609666e-07 </wgt>
<wgt id='morphing_basis_vector_2'> +1.4716430e-07 </wgt>
<wgt id='morphing_basis_vector_3'> +2.3877006e-07 </wgt>
<wgt id='morphing_basis_vector_4'> +1.7296841e-07 </wgt>
<wgt id='morphing_basis_vector_5'> +2.7599538e-07 </wgt>
</rwgt>
</event>
<event>
 4      1 +6.9060000e-13 7.76563600e+03 7.81860800e-03 7.09495800e-02
        2 -1    0    0  501    0 +0.0000000000e+00 +0.0000000000e+00 +2.9103497413e+03 2.9103497413e+03 0.0000000000e+00 0.0000e+00 1.0000e+00
       -2 -1    0    0    0  501 -0.0000000000e+00 -0.0000000000e+00 -5.1802281235e+03 5.1802281235e+03 0.0000000000e+00 0.0000e+00 -1.0000e+00
      -13  1    1    2    0    0 -3.7615454947e+03 -6.9253798196e+02 -4.3803834779e+02 3.8497676501e+03 0.0000000000e+00 0.0000e+00 1.0000e+00
       13  1    1    2    0    0 +3.7615454947e+03 +6.9253798196e+02 -1.8318400344e+03 4.2408102147e+03 0.0000000000e+00 0.0000e+00 -1.0000e+00
<mgrwt>
<rscale>  0 0.77656360E+04</rscale>
<asrwt>0</asrwt>
<pdfrwt beam="1">  1        2 0.44774612E+00 0.77656360E+04</pdfrwt>
<pdfrwt beam="2">  1       -2 0.79695817E+00 0.77656360E+04</pdfrwt>
<totfact> 0.14078498E-04</totfact>
</mgrwt>
<rwgt>
<wgt id='morphing_basis_vector_1'> +3.6150055e-07 </wgt>
<wgt id='morphing_basis_vector_2'> +2.9732185e-07 </wgt>
<wgt id='morphing_basis_vector_3'> +4.1184065e-07 </wgt>
<wgt id='morphing_basis_vector_4'> +2.2294237e-07 </wgt>
<wgt id='morphing_basis_vector_5'> +4.2924967e-07 </wgt>
</rwgt>
</event>
<event>
 4      1 +6.9060000e-13 6.85563100e+03 7.81860800e-03 7.17456300e-02
        2 -1    0    0  501    0 +0.0000000000e+00 +0.0000000000e+00 +3.5089125393e+03 3.5089125393e+03 0.0000000000e+00 0.0000e+00 -1.0000e+00
       -2 -1    0    0    0  501 -0.0000000000e+00 -0.0000000000e+00 -3.3485926908e+03 3.3485926908e+03 0.0000000000e+00 0.0000e+00 1.0000e+00
      -13  1    1    2    0    0 -2.6526149997e+03 -5.6030563647e+02 -2.0179382930e+03 3.3797017172e+03 0.0000000000e+00 0.0000e+00 1.0000e+00
       13  1    1    2    0    0 +2.6526149997e+03 +5.6030563647e+02 +2.1782581415e+03 3.4778035129e+03 0.0000000000e+00 0.0000e+00 -1.0000e+00
<mgrwt>
<rscale>  0 0.68556309E+04</rscale>
<asrwt>0</asrwt>
<pdfrwt beam="1">  1        2 0.53983270E+00 0.68556309E+04</pdfrwt>
<pdfrwt beam="2">  1       -2 0.51516811E+00 0.68556309E+04</pdfrwt>
<totfact> 0.48497666E-04</totfact>
</mgrwt>
<rwgt>
<wgt id='morphing_basis_vector_1'> +2.0640083e-07 </wgt>
<wgt id='morphing_basis_vector_2'> +1.4150996e-07 </wgt>
<wgt id='morphing_basis_vector_3'> +2.2826540e-07 </wgt>
<wgt id='morphing_basis_vector_4'> +1.6393239e-07 </wgt>
<wgt id='morphing_basis_vector_5'> +2.6295082e-07 </wgt>
</rwgt>
</event>
<event>
 4      1 +6.9060000e-13 6.95252400e+03 7.81860800e-03 7.16551100e-02
        2 -1    0    0  501    0 +0.0000000000e+00 +0.0000000000e+00 +2.6620552609e+03 2.6620552609e+03 0.0000000000e+00 0.0000e+00 1.0000e+00
       -2 -1    0    0    0  501 -0.0000000000e+00 -0.0000000000e+00 -4.5394993742e+03 4.5394993742e+03 0.0000000000e+00 0.0000e+00 -1.0000e+00
      -13  1    1    2    0    0 +2.0593125251e+03 -2.1234783951e+03 -2.8301819333e+03 4.0938805975e+03 0.0000000000e+00 0.0000e+00 -1.0000e+00
       13  1    1    2    0    0 -2.0593125251e+03 +2.1234783951e+03 +9.5273781992e+02 3.1076740376e+03 0.0000000000e+00 0.0000e+00 1.0000e+00
<mgrwt>
<rscale>  0 0.69525242E+04</rscale>
<asrwt>0</asrwt>
<pdfrwt beam="1">  1        2 0.40954697E+00 0.69525242E+04</pdfrwt>
<pdfrwt beam="2">  1       -2 0.69838452E+00 0.69525242E+04</pdfrwt>
<totfact> 0.56549190E-05</totfact>
</mgrwt>
<rwgt>
<wgt id='morphing_basis_vector_1'> +2.1863847e-07 </wgt>
<wgt id='morphing_basis_vector_2'> +1.5067464e-07 </wgt>
<wgt id='morphing_basis_vector_3'> +2.4200286e-07 </wgt>
<wgt id='morphing_basis_vector_4'> +1.7268412e-07 </wgt>
<wgt id='morphing_basis_vector_5'> +2.7809888e-07 </wgt>
</rwgt>
</event>
<event>
 4      1 +6.9060000e-13 7.89577100e+03 7.81860800e-03 7.08447300e-02
        2 -1    0    0  501    0 +0.0000000000e+00 +0.0000000000e+00 +2.7520915738e+03 2.7520915738e+03 0.0000000000e+00 0.0000e+00 1.0000e+00
       -2 -1    0    0    0  501 -0.0000000000e+00 -0.0000000000e+00 -5.6632566365e+03 5.6632566365e+03 0.0000000000e+00 0.0000e+00 -1.0000e+00
      -13  1    1    2    0    0 +2.8587589657e+03 -8.2225717476e+02 -4.2219952301e+03 5.1646736013e+03 0.0000000000e+00 0.0000e+00 -1.0000e+00
       13  1    1    2    0    0 -2.8587589657e+03 +8.2225717476e+02 +1.3108301673e+03 3.2506746089e+03 0.0000000000e+00 0.0000e+00 1.0000e+00
<mgrwt>
<rscale>  0 0.78957712E+04</rscale>
<asrwt>0</asrwt>
<pdfrwt beam="1">  1        2 0.42339870E+00 0.78957712E+04</pdfrwt>
<pdfrwt beam="2">  1       -2 0.87127025E+00 0.78957712E+04</pdfrwt>
<totfact> 0.69423867E-05</totfact>
</mgrwt>
<rwgt>
<wgt id='morphing_basis_vector_1'> +3.6262545e-07 </wgt>
<wgt id='morphing_basis_vector_2'> +2.4824584e-07 </wgt>
<wgt id='morphing_basis_vector_3'> +4.0124557e-07 </wgt>
<wgt id='morphing_basis_vector_4'> +2.8915188e-07 </wgt>
<wgt id='morphing_basis_vector_5'> +4.6308507e-07 </wgt>
</rwgt>
</event>
<event>
 4      1 +6.9060000e-13 7.17396900e+03 7.81860800e-03 7.14537100e-02
        2 -1    0    0  501    0 +0.0000000000e+00 +0.0000000000e+00 +2.3892716178e+03 2.3892716178e+03 0.0000000000e+00 0.0000e+00 1.0000e+00
       -2 -1    0    0    0  501 -0.0000000000e+00 -0.0000000000e+00 -5.3850964571e+03 5.3850964571e+03 0.0000000000e+00 0.0000e+00 -1.0000e+00
      -13  1    1    2    0    0 +7.2165781376e+02 +1.1323733589e+03 -5.1024526666e+03 5.2761806867e+03 0.0000000000e+00 0.0000e+00 -1.0000e+00
       13  1    1    2    0    0 -7.2165781376e+02 -1.1323733589e+03 +2.1066278273e+03 2.4981873882e+03 0.0000000000e+00 0.0000e+00 1.0000e+00
<mgrwt>
<rscale>  0 0.71739691E+04</rscale>
<asrwt>0</asrwt>
<pdfrwt beam="1">  1        2 0.36758025E+00 0.71739691E+04</pdfrwt>
<pdfrwt beam="2">  1       -2 0.82847638E+00 0.71739691E+04</pdfrwt>
<totfact> 0.24199455E-04</totfact>
</mgrwt>
<rwgt>
<wgt id='morphing_basis_vector_1'> +2.4684903e-07 </wgt>
<wgt id='morphing_basis_vector_2'> +1.6799774e-07 </wgt>
<wgt id='morphing_basis_vector_3'> +2.7277412e-07 </wgt>
<wgt id='morphing_basis_vector_4'> +1.9784037e-07 </wgt>
<wgt id='morphing_basis_vector_5'> +3.1549380e-07 </wgt>
</rwgt>
</event>
<event>
 4      1 +6.9060000e-13 6.71217700e+03 7.81860800e-03 7.18824500e-02
        2 -1    0    0  501    0 +0.0000000000e+00 +0.0000000000e+00 +2.2893258115e+03 2.2893258115e+03 0.0000000000e+00 0.0000e+00 -1.0000e+00
       -2 -1    0    0    0  501 -0.0000000000e+00 -0.0000000000e+00 -4.9199325418e+03 4.9199325418e+03 0.0000000000e+00 0.0000e+00 1.0000e+00
      -13  1    1    2    0    0 +6.2267692490e+02 -8.0399903383e+02 -4.7504698354e+03 4.8580968142e+03 0.0000000000e+00 0.0000e+00 1.0000e+00
       13  1    1    2    0    0 -6.2267692490e+02 +8.0399903383e+02 +2.1198631051e+03 2.3511615392e+03 0.0000000000e+00 0.0000e+00 -1.0000e+00
<mgrwt>
<rscale>  0 0.67121766E+04</rscale>
<asrwt>0</asrwt>
<pdfrwt beam="1">  1        2 0.35220398E+00 0.67121766E+04</pdfrwt>
<pdfrwt beam="2">  1       -2 0.75691269E+00 0.67121766E+04</pdfrwt>
<totfact> 0.34264321E-04</totfact>
</mgrwt>
<rwgt>
<wgt id='morphing_basis_vector_1'> +1.8924727e-07 </wgt>
<wgt id='morphing_basis_vector_2'> +1.2874534e-07 </wgt>
<wgt id='morphing_basis_vector_3'> +2.0903034e-07 </wgt>
<wgt id='morphing_basis_vector_4'> +1.5155995e-07 </wgt>
<wgt id='morphing_basis_vector_5'> +2.4166751e-07 </wgt>
</rwgt>
</event>
<event>
 4      1 +6.9060000e-13 7.00437000e+03 7.81860800e-03 7.16072900e-02
        2 -1    0    0  501    0 +0.0000000000e+00 +0.0000000000e+00 +3.7417040120e+03 3.7417040120e+03 0.0000000000e+00 0.0000e+00 1.0000e+00
       -2 -1    0    0    0  501 -0.0000000000e+00 -0.0000000000e+00 -3.2779982895e+03 3.2779982895e+03 0.0000000000e+00 0.0000e+00 -1.0000e+00
      -13  1    1    2    0    0 +3.0631154198e+03 +1.5449136978e+03 -4.7386535098e+02 3.4632329953e+03 0.0000000000e+00 0.0000e+00 -1.0000e+00
       13  1    1    2    0    0 -3.0631154198e+03 -1.5449136978e+03 +9.3757107348e+02 3.5564693063e+03 0.0000000000e+00 0.0000e+00 1.0000e+00
<mgrwt>
<rscale>  0 0.70043699E+04</rscale>
<asrwt>0</asrwt>
<pdfrwt beam="1">  1        2 0.57564677E+00 0.70043699E+04</pdfrwt>
<pdfrwt beam="2">  1       -2 0.50430743E+00 0.70043699E+04</pdfrwt>
<totfact> 0.38476953E-04</totfact>
</mgrwt>
<rwgt>
<wgt id='morphing_basis_vector_1'> +2.2821312e-07 </wgt>
<wgt id='morphing_basis_vector_2'> +1.6399286e-07 </wgt>
<wgt id='morphing_basis_vector_3'> +2.5420391e-07 </wgt>
<wgt id='morphing_basis_vector_4'> +1.7148781e-07 </wgt>
<wgt id='morphing_basis_vector_5'> +2.8596066e-07 </wgt>
</rwgt>
</event>
<event>
 4      1 +6.9060000e-13 7.36157400e+03 7.81860800e-03 7.12887300e-02
        2 -1    0    0  501    0 +0.0000000000e+00 +0.0000000000e+00 +2.6420207195e+03 2.6420207195e+03 0.0000000000e+00 0.0000e+00 -1.0000e+00
       -2 -1    0    0    0  501 -0.0000000000e+00 -0.0000000000e+00 -5.1279660998e+03 5.1279660998e+03 0.0000000000e+00 0.0000e+00 1.0000e+00
      -13  1    1    2    0    0 +8.9782894159e+02 +1.9202421035e+03 -4.4190292160e+03 4.9011473918e+03 0.0000000000e+00 0.0000e+00 1.0000e+00
       13  1    1    2    0    0 -8.9782894159e+02 -1.9202421035e+03 +1.9330838357e+03 2.8688394274e+03 0.0000000000e+00 0.0000e+00 -1.0000e+00
<mgrwt>
<rscale>  0 0.73615739E+04</rscale>
<asrwt>0</asrwt>
<pdfrwt beam="1">  1        2 0.40646473E+00 0.73615739E+04</pdfrwt>
<pdfrwt beam="2">  1       -2 0.78891785E+00 0.73615739E+04</pdfrwt>
<totfact> 0.21768676E-04</totfact>
</mgrwt>
<rwgt>
<wgt id='morphing_basis_vector_1'> +2.7375354e-07 </wgt>
<wgt id='morphing_basis_vector_2'> +1.8654440e-07 </wgt>
<wgt id='morphing_basis_vector_3'> +3.0260156e-07 </wgt>
<wgt id='morphing_basis_vector_4'> +2.1918674e-07 </wgt>
<wgt id='morphing_basis_vector_5'> +3.4984932e-07 </wgt>
</rwgt>
</event>
<event>
 4      1 +6.9060000e-13 6.67186900e+03 7.81860800e-03 7.19215200e-02
        2 -1    0    0  501    0 +0.0000000000e+00 +0.0000000000e+00 +5.1731887996e+03 5.1731887996e+03 0.0000000000e+00 0.0000e+00 1.0000e+00
       -2 -1    0    0    0  501 -0.0000000000e+00 -0.0000000000e+00 -2.1511795247e+03 2.1511795247e+03 0.0000000000e+00 0.0000e+00 -1.0000e+00
      -13  1    1    2    0    0 +2.8666900143e+03 -1.6605098164e+03 +1.9407662837e+03 3.8395023449e+03 0.0000000000e+00 0.0000e+00 -1.0000e+00
       13  1    1    2    0    0 -2.8666900143e+03 +1.6605098164e+03 +1.0812429912e+03 3.4848659794e+03 0.0000000000e+00 0.0000e+00 1.0000e+00
<mgrwt>
<rscale>  0 0.66718687E+04</rscale>
<asrwt>0</asrwt>
<pdfrwt beam="1">  1        2 0.79587519E+00 0.66718687E+04</pdfrwt>
<pdfrwt beam="2">  1       -2 0.33095070E+00 0.66718687E+04</pdfrwt>
<totfact> 0.18416087E-04</totfact>
</mgrwt>
<rwgt>
<wgt id='morphing_basis_vector_1'> +1.9503404e-07 </wgt>
<wgt id='morphing_basis_vector_2'> +1.5586052e-07 </wgt>
<wgt id='morphing_basis_vector_3'> +2.2089139e-07 </wgt>
<wgt id='morphing_basis_vector_4'> +1.2590980e-07 </wgt>
<wgt id='morphing_basis_vector_5'> +2.3404831e-07 </wgt>
</rwgt>
</event>
<event>
 4      1 +6.9060000e-13 7.08848600e+03 7.81860800e-03 7.15305700e-02
        2 -1    0    0  501    0 +0.0000000000e+00 +0.0000000000e+00 +2.1014427814e+03 2.1014427814e+03 0.0000000000e+00 0.0000e+00 -1.0000e+00
       -2 -1    0    0    0  501 -0.0000000000e+00 -0.0000000000e+00 -5.9776350700e+03 5.9776350700e+03 0.0000000000e+00 0.0000e+00 1.0000e+00
      -13  1    1    2    0    0 +1.2417268915e+03 -6.0825372278e+02 -5.6575488048e+03 5.8240635937e+03 0.0000000000e+00 0.0000e+00 1.0000e+00
       13  1    1    2    0    0 -1.2417268915e+03 +6.0825372278e+02 +1.7813565163e+03 2.2550142577e+03 0.0000000000e+00 0.0000e+00 -1.0000e+00
<mgrwt>
<rscale>  0 0.70884859E+04</rscale>
<asrwt>0</asrwt>
<pdfrwt beam="1">  1        2 0.32329890E+00 0.70884859E+04</pdfrwt>
<pdfrwt beam="2">  1       -2 0.91963615E+00 0.70884859E+04</pdfrwt>
<totfact> 0.47456131E-05</totfact>
</mgrwt>
<rwgt>
<wgt id='morphing_basis_vector_1'> +2.3531304e-07 </wgt>
<wgt id='morphing_basis_vector_2'> +1.6014516e-07 </wgt>
<wgt id='morphing_basis_vector_3'> +2.6000913e-07 </wgt>
<wgt id='morphing_basis_vector_4'> +1.8855840e-07 </wgt>
<wgt id='morphing_basis_vector_5'> +3.0070014e-07 </wgt>
</rwgt>
</event>
<event>
 4      1 +6.9060000e-13 7.00761700e+03 7.81860800e-03 7.16043000e-02
        2 -1    0    0  501    0 +0.0000000000e+00 +0.0000000000e+00 +2.3100179573e+03 2.3100179573e+03 0.0000000000e+00 0.0000e+00 -1.0000e+00
       -2 -1    0    0    0  501 -0.0000000000e+00 -0.0000000000e+00 -5.3145368936e+03 5.3145368936e+03 0.0000000000e+00 0.0000e+00 1.0000e+00
      -13  1    1    2    0    0 -5.4705374203e+01 +1.9946208601e+03 -4.6359547777e+03 5.0471359952e+03 0.0000000000e+00 0.0000e+00 1.0000e+00
       13  1    1    2    0    0 +5.4705374203e+01 -1.9946208601e+03 +1.6314358414e+03 2.5774188557e+03 0.0000000000e+00 0.0000e+00 -1.0000e+00
<mgrwt>
<rscale>  0 0.70076175E+04</rscale>
<asrwt>0</asrwt>
<pdfrwt beam="1">  1        2 0.35538738E+00 0.70076175E+04</pdfrwt>
<pdfrwt beam="2">  1       -2 0.81762106E+00 0.70076175E+04</pdfrwt>
<totfact> 0.30238320E-04</totfact>
</mgrwt>
<rwgt>
<wgt id='morphing_basis_vector_1'> +2.2484628e-07 </wgt>
<wgt id='morphing_basis_vector_2'> +1.5317702e-07 </wgt>
<wgt id='morphing_basis_vector_3'> +2.4846466e-07 </wgt>
<wgt id='morphing_basis_vector_4'> +1.7993268e-07 </wgt>
<wgt id='morphing_basis_vector_5'> +2.8717711e-07 </wgt>
</rwgt>
</event>
<event>
 4      1 +6.9060000e-13 6.67597400e+03 7.81860800e-03 7.19175200e-02
        2 -1    0    0  501    0 +0.0000000000e+00 +0.0000000000e+00 +3.0664794367e+03 3.0664794367e+03 0.0000000000e+00 0.0000e+00 -1.0000e+00
       -2 -1    0    0    0  501 -0.0000000000e+00 -0.0000000000e+00 -3.6335344461e+03 3.6335344461e+03 0.0000000000e+00 0.0000e+00 1.0000e+00
      -13  1    1    2    0    0 -2.8963747888e+01 -8.4462562786e+02 -3.5243857490e+03 3.6242966569e+03 0.0000000000e+00 0.0000e+00 1.0000e+00
       13  1    1    2    0    0 +2.8963747888e+01 +8.4462562786e+02 +2.9573307396e+03 3.0757172258e+03 0.0000000000e+00 0.0000e+00 -1.0000e+00
<mgrwt>
<rscale>  0 0.66759744E+04</rscale>
<asrwt>0</asrwt>
<pdfrwt beam="1">  1        2 0.47176607E+00 0.66759744E+04</pdfrwt>
<pdfrwt beam="2">  1       -2 0.55900530E+00 0.66759744E+04</pdfrwt>
<totfact> 0.47942426E-04</totfact>
</mgrwt>
<rwgt>
<wgt id='morphing_basis_vector_1'> +1.8520241e-07 </wgt>
<wgt id='morphing_basis_vector_2'> +1.2598535e-07 </wgt>
<wgt id='morphing_basis_vector_3'> +2.0455382e-07 </wgt>
<wgt id='morphing_basis_vector_4'> +1.4831596e-07 </wgt>
<wgt id='morphing_basis_vector_5'> +2.3648718e-07 </wgt>
</rwgt>
</event>
<event>
 4      1 +6.9060000e-13 6.73843700e+03 7.81860800e-03 7.18571500e-02
        2 -1    0    0  501    0 +0.0000000000e+00 +0.0000000000e+00 +3.2268826338e+03 3.2268826338e+03 0.0000000000e+00 0.0000e+00 -1.0000e+00
       -2 -1    0    0    0  501 -0.0000000000e+00 -0.0000000000e+00 -3.5178324791e+03 3.5178324791e+03 0.0000000000e+00 0.0000e+00 1.0000e+00
      -13  1    1    2    0    0 -2.5683908474e+03 -2.0410550243e+03 +6.2276568643e+02 3.3392176116e+03 0.0000000000e+00 0.0000e+00 1.0000e+00
       13  1    1    2    0    0 +2.5683908474e+03 +2.0410550243e+03 -9.1371553172e+02 3.4054975012e+03 0.0000000000e+00 0.0000e+00 -1.0000e+00
<mgrwt>
<rscale>  0 0.67384368E+04</rscale>
<asrwt>0</asrwt>
<pdfrwt beam="1">  1        2 0.49644348E+00 0.67384368E+04</pdfrwt>
<pdfrwt beam="2">  1       -2 0.54120500E+00 0.67384368E+04</pdfrwt>
<totfact> 0.49977528E-04</totfact>
</mgrwt>
<rwgt>
<wgt id='morphing_basis_vector_1'> +2.0775635e-07 </wgt>
<wgt id='morphing_basis_vector_2'> +1.7635925e-07 </wgt>
<wgt id='morphing_basis_vector_3'> +2.3776084e-07 </wgt>
<wgt id='morphing_basis_vector_4'> +1.2065524e-07 </wgt>
<wgt id='morphing_basis_vector_5'> +2.4267352e-07 </wgt>
</rwgt>
</event>
<event>
 4      1 +6.9060000e-13 6.90581900e+03 7.81860800e-03 7.16985500e-02
        2 -1    0    0  501    0 +0.0000000000e+00 +0.0000000000e+00 +3.5867021167e+03 3.5867021167e+03 0.0000000000e+00 0.0000e+00 -1.0000e+00
       -2 -1    0    0    0  501 -0.0000000000e+00 -0.0000000000e+00 -3.3241076194e+03 3.3241076194e+03 0.0000000000e+00 0.0000e+00 1.0000e+00
      -13  1    1    2    0    0 +1.5623317738e+03 -2.5929496814e+03 -1.5307206469e+03 3.3922521016e+03 0.0000000000e+00 0.0000e+00 1.0000e+00
       13  1    1    2    0    0 -1.5623317738e+03 +2.5929496814e+03 +1.7933151442e+03 3.5185576346e+03 0.0000000000e+00 0.0000e+00 -1.0000e+00
<mgrwt>
<rscale>  0 0.69058189E+04</rscale>
<asrwt>0</asrwt>
<pdfrwt beam="1">  1        2 0.55180032E+00 0.69058189E+04</pdfrwt>
<pdfrwt beam="2">  1       -2 0.51140118E+00 0.69058189E+04</pdfrwt>
<totfact> 0.45113128E-04</totfact>
</mgrwt>
<rwgt>
<wgt id='morphing_basis_vector_1'> +2.1305183e-07 </wgt>
<wgt id='morphing_basis_vector_2'> +1.4731364e-07 </wgt>
<wgt id='morphing_basis_vector_3'> +2.3592564e-07 </wgt>
<wgt id='morphing_basis_vector_4'> +1.6761236e-07 </wgt>
<wgt id='morphing_basis_vector_5'> +2.7064936e-07 </wgt>
</rwgt>
</event>
<event>
 4      1 +6.9060000e-13 7.07673600e+03 7.81860800e-03 7.15412300e-02
        2 -1    0    0  501    0 +0.0000000000e+00 +0.0000000000e+00 +3.9846308550e+03 3.9846308550e+03 0.0000000000e+00 0.0000e+00 1.0000e+00
       -2 -1    0    0    0  501 -0.0000000000e+00 -0.0000000000e+00 -3.1420849690e+03 3.1420849690e+03 0.0000000000e+00 0.0000e+00 -1.0000e+00
      -13  1    1    2    0    0 -1.4568206041e+03 -1.0874096679e+03 -2.6358316379e+03 3.2019360521e+03 0.0000000000e+00 0.0000e+00 -1.0000e+00
       13  1    1    2    0    0 +1.4568206041e+03 +1.0874096679e+03 +3.4783775240e+03 3.9247797719e+03 0.0000000000e+00 0.0000e+00 1.0000e+00
<mgrwt>
<rscale>  0 0.70767362E+04</rscale>
<asrwt>0</asrwt>
<pdfrwt beam="1">  1        2 0.61302013E+00 0.70767362E+04</pdfrwt>
<pdfrwt beam="2">  1       -2 0.48339769E+00 0.70767362E+04</pdfrwt>
<totfact> 0.34749916E-04</totfact>
</mgrwt>
<rwgt>
<wgt id='morphing_basis_vector_1'> +2.3379885e-07 </wgt>
<wgt id='morphing_basis_vector_2'> +1.5920282e-07 </wgt>
<wgt id='morphing_basis_vector_3'> +2.5835455e-07 </wgt>
<wgt id='morphing_basis_vector_4'> +1.8722449e-07 </wgt>
<wgt id='morphing_basis_vector_5'> +2.9870107e-07 </wgt>
</rwgt>
</event>
<event>
 4      1 +6.9060000e-13 6.71621400e+03 7.81860800e-03 7.18785500e-02
        2 -1    0    0  501    0 +0.0000000000e+00 +0.0000000000e+00 +4.2221540632e+03 4.2221540632e+03 0.0000000000e+00 0.0000e+00 -1.0000e+00
       -2 -1    0    0    0  501 -0.0000000000e+00 -0.0000000000e+00 -2.6708840063e+03 2.6708840063e+03 0.0000000000e+00 0.0000e+00 1.0000e+00
      -13  1    1    2    0    0 -3.0069191771e+03 -4.3673776068e+02 -6.9189935223e+02 3.1162521597e+03 0.0000000000e+00 0.0000e+00 1.0000e+00
       13  1    1    2    0    0 +3.0069191771e+03 +4.3673776068e+02 +2.2431694092e+03 3.7767859097e+03 0.0000000000e+00 0.0000e+00 -1.0000e+00
<mgrwt>
<rscale>  0 0.67162143E+04</rscale>
<asrwt>0</asrwt>
<pdfrwt beam="1">  1        2 0.64956216E+00 0.67162143E+04</pdfrwt>
<pdfrwt beam="2">  1       -2 0.41090523E+00 0.67162143E+04</pdfrwt>
<totfact> 0.70287634E-04</totfact>
</mgrwt>
<rwgt>
<wgt id='morphing_basis_vector_1'> +1.9093353e-07 </wgt>
<wgt id='morphing_basis_vector_2'> +1.3266847e-07 </wgt>
<wgt id='morphing_basis_vector_3'> +2.1154991e-07 </wgt>
<wgt id='morphing_basis_vector_4'> +1.4928687e-07 </wgt>
<wgt id='morphing_basis_vector_5'> +2.4202828e-07 </wgt>
</rwgt>
</event>
<event>
 4      1 +6.9060000e-13 7.20647900e+03 7.81860800e-03 7.14247600e-02
        2 -1    0    0  501    0 +0.0000000000e+00 +0.0000000000e+00 +4.2796846236e+03 4.2796846236e+03 0.0000000000e+00 0.0000e+00 -1.0000e+00
       -2 -1    0    0    0  501 -0.0000000000e+00 -0.0000000000e+00 -3.0337134091e+03 3.0337134091e+03 0.0000000000e+00 0.0000e+00 1.0000e+00
      -13  1    1    2    0    0 +2.1396218971e+03 -6.8526616203e+02 -2.2358583885e+03 3.1696426153e+03 0.0000000000e+00 0.0000e+00 1.0000e+00
       13  1    1    2    0    0 -2.1396218971e+03 +6.8526616203e+02 +3.4818296029e+03 4.1437554174e+03 0.0000000000e+00 0.0000e+00 -1.0000e+00
<mgrwt>
<rscale>  0 0.72064795E+04</rscale>
<asrwt>0</asrwt>
<pdfrwt beam="1">  1        2 0.65841302E+00 0.72064795E+04</pdfrwt>
<pdfrwt beam="2">  1       -2 0.46672514E+00 0.72064795E+04</pdfrwt>
<totfact> 0.24826290E-04</totfact>
</mgrwt>
<rwgt>
<wgt id='morphing_basis_vector_1'> +2.5148613e-07 </wgt>
<wgt id='morphing_basis_vector_2'> +1.7147036e-07 </wgt>
<wgt id='morphing_basis_vector_3'> +2.7798015e-07 </wgt>
<wgt id='morphing_basis_vector_4'> +2.0115786e-07 </wgt>
<wgt id='morphing_basis_vector_5'> +3.2123543e-07 </wgt>
</rwgt>
</event>
<event>
 4      1 +6.9060000e-13 7.47581200e+03 7.81860800e-03 7.11906700e-02
        2 -1    0    0  501    0 +0.0000000000e+00 +0.0000000000e+00 +4.9334957695e+03 4.9334957695e+03 0.0000000000e+00 0.0000e+00 -1.0000e+00
       -2 -1    0    0    0  501 -0.0000000000e+00 -0.0000000000e+00 -2.8320570067e+03 2.8320570067e+03 0.0000000000e+00 0.0000e+00 1.0000e+00
      -13  1    1    2    0    0 -1.1172906432e+03 -1.6625131689e+03 -2.2274855914e+03 2.9956602741e+03 0.0000000000e+00 0.0000e+00 1.0000e+00
       13  1    1    2    0    0 +1.1172906432e+03 +1.6625131689e+03 +4.3289243542e+03 4.7698925021e+03 0.0000000000e+00 0.0000e+00 -1.0000e+00
<mgrwt>
<rscale>  0 0.74758120E+04</rscale>
<asrwt>0</asrwt>
<pdfrwt beam="1">  1        2 0.75899935E+00 0.74758120E+04</pdfrwt>
<pdfrwt beam="2">  1       -2 0.43570108E+00 0.74758120E+04</pdfrwt>
<totfact> 0.76886861E-05</totfact>
</mgrwt>
<rwgt>
<wgt id='morphing_basis_vector_1'> +2.9108390e-07 </wgt>
<wgt id='morphing_basis_vector_2'> +1.9828600e-07 </wgt>
<wgt id='morphing_basis_vector_3'> +3.2176716e-07 </wgt>
<wgt id='morphing_basis_vector_4'> +2.3320769e-07 </wgt>
<wgt id='morphing_basis_vector_5'> +3.7211544e-07 </wgt>
</rwgt>
</event>
<event>
 4      1 +6.9060000e-13 7.12867300e+03 7.81860800e-03 7.14943000e-02
        2 -1    0    0  501    0 +0.0000000000e+00 +0.0000000000e+00 +4.6154468655e+03 4.6154468655e+03 0.0000000000e+00 0.0000e+00 -1.0000e+00
       -2 -1    0    0    0  501 -0.0000000000e+00 -0.0000000000e+00 -2.7526031340e+03 2.7526031340e+03 0.0000000000e+00 0.0000e+00 1.0000e+00
      -13  1    1    2    0    0 +3.0354493325e+03 -9.8734698314e+01 +2.8597589202e+03 4.1715611314e+03 0.0000000000e+00 0.0000e+00 1.0000e+00
       13  1    1    2    0    0 -3.0354493325e+03 +9.8734698314e+01 -9.9691518874e+02 3.1964888682e+03 0.0000000000e+00 0.0000e+00 -1.0000e+00
<mgrwt>
<rscale>  0 0.71286727E+04</rscale>
<asrwt>0</asrwt>
<pdfrwt beam="1">  1        2 0.71006875E+00 0.71286727E+04</pdfrwt>
<pdfrwt beam="2">  1       -2 0.42347741E+00 0.71286727E+04</pdfrwt>
<totfact> 0.22678598E-04</totfact>
</mgrwt>
<rwgt>
<wgt id='morphing_basis_vector_1'> +2.8797067e-07 </wgt>
<wgt id='morphing_basis_vector_2'> +3.0254804e-07 </wgt>
<wgt id='morphing_basis_vector_3'> +3.4347819e-07 </wgt>
<wgt id='morphing_basis_vector_4'> +9.1463576e-08 </wgt>
<wgt id='morphing_basis_vector_5'> +2.9903926e-07 </wgt>
</rwgt>
</event>
<event>
 4      1 +6.9060000e-13 6.79600200e+03 7.81860800e-03 7.18020800e-02
        2 -1    0    0  501    0 +0.0000000000e+00 +0.0000000000e+00 +3.9324505191e+03 3.9324505191e+03 0.0000000000e+00 0.0000e+00 -1.0000e+00
       -2 -1    0    0    0  501 -0.0000000000e+00 -0.0000000000e+00 -2.9361868024e+03 2.9361868024e+03 0.0000000000e+00 0.0000e+00 1.0000e+00
      -13  1    1    2    0    0 +2.5354297484e+02 -2.7062820473e+03 -1.5628200474e+03 3.1353872265e+03 0.0000000000e+00 0.0000e+00 1.0000e+00
       13  1    1    2    0    0 -2.5354297484e+02 +2.7062820473e+03 +2.5590837641e+03 3.7332500949e+03 0.0000000000e+00 0.0000e+00 -1.0000e+00
<mgrwt>
<rscale>  0 0.67960016E+04</rscale>
<asrwt>0</asrwt>
<pdfrwt beam="1">  1        2 0.60499239E+00 0.67960016E+04</pdfrwt>
<pdfrwt beam="2">  1       -2 0.45172105E+00 0.67960016E+04</pdfrwt>
<totfact> 0.66503002E-04</totfact>
</mgrwt>
<rwgt>
<wgt id='morphing_basis_vector_1'> +1.9936133e-07 </wgt>
<wgt id='morphing_basis_vector_2'> +1.3675961e-07 </wgt>
<wgt id='morphing_basis_vector_3'> +2.2048655e-07 </wgt>
<wgt id='morphing_basis_vector_4'> +1.5821648e-07 </wgt>
<wgt id='morphing_basis_vector_5'> +2.5389946e-07 </wgt>
</rwgt>
</event>
<event>
 4      1 +6.9060000e-13 7.10686100e+03 7.81860800e-03 7.15139600e-02
        2 -1    0    0  501    0 +0.0000000000e+00 +0.0000000000e+00 +3.3156433614e+03 3.3156433614e+03 0.0000000000e+00 0.0000e+00 1.0000e+00
       -2 -1    0    0    0  501 -0.0000000000e+00 -0.0000000000e+00 -3.8082705566e+03 3.8082705566e+03 0.0000000000e+00 0.0000e+00 -1.0000e+00
      -13  1    1    2    0    0 +4.9021692028e+02 -1.3029806567e+03 -3.5235310129e+03 3.7885804755e+03 0.0000000000e+00 0.0000e+00 -1.0000e+00
       13  1    1    2    0    0 -4.9021692028e+02 +1.3029806567e+03 +3.0309038177e+03 3.3353334425e+03 0.0000000000e+00 0.0000e+00 1.0000e+00
<mgrwt>
<rscale>  0 0.71068606E+04</rscale>
<asrwt>0</asrwt>
<pdfrwt beam="1">  1        2 0.51009898E+00 0.71068606E+04</pdfrwt>
<pdfrwt beam="2">  1       -2 0.58588777E+00 0.71068606E+04</pdfrwt>
<totfact> 0.19788367E-04</totfact>
</mgrwt>
<rwgt>
<wgt id='morphing_basis_vector_1'> +2.3775873e-07 </wgt>
<wgt id='morphing_basis_vector_2'> +1.6181197e-07 </wgt>
<wgt id='morphing_basis_vector_3'> +2.6271582e-07 </wgt>
<wgt id='morphing_basis_vector_4'> +1.9052351e-07 </wgt>
<wgt id='morphing_basis_vector_5'> +3.0383507e-07 </wgt>
</rwgt>
</event>
<event>
 4      1 +6.9060000e-13 6.68028600e+03 7.81860800e-03 7.19133400e-02
        2 -1    0    0  501    0 +0.0000000000e+00 +0.0000000000e+00 +3.6301403027e+03 3.6301403027e+03 0.0000000000e+00 0.0000e+00 -1.0000e+00
       -2 -1    0    0    0  501 -0.0000000000e+00 -0.0000000000e+00 -3.0733124833e+03 3.0733124833e+03 0.0000000000e+00 0.0000e+00 1.0000e+00
      -13  1    1    2    0    0 -3.2679612508e+03 -1.1814385039e+02 -4.0440660298e+02 3.2950073455e+03 0.0000000000e+00 0.0000e+00 1.0000e+00
       13  1    1    2    0    0 +3.2679612508e+03 +1.1814385039e+02 +9.6123442235e+02 3.4084454405e+03 0.0000000000e+00 0.0000e+00 -1.0000e+00
<mgrwt>
<rscale>  0 0.66802861E+04</rscale>
<asrwt>0</asrwt>
<pdfrwt beam="1">  1        2 0.55848312E+00 0.66802861E+04</pdfrwt>
<pdfrwt beam="2">  1       -2 0.47281730E+00 0.66802861E+04</pdfrwt>
<totfact> 0.82399729E-04</totfact>
</mgrwt>
<rwgt>
<wgt id='morphing_basis_vector_1'> +1.8884762e-07 </wgt>
<wgt id='morphing_basis_vector_2'> +1.3560511e-07 </wgt>
<wgt id='morphing_basis_vector_3'> +2.1026819e-07 </wgt>
<wgt id='morphing_basis_vector_4'> +1.4191332e-07 </wgt>
<wgt id='morphing_basis_vector_5'> +2.3652811e-07 </wgt>
</rwgt>
</event>
<event>
 4      1 +6.9060000e-13 6.69718700e+03 7.81860800e-03 7.18969400e-02
        2 -1    0    0  501    0 +0.0000000000e+00 +0.0000000000e+00 +4.3488460635e+03 4.3488460635e+03 0.0000000000e+00 0.0000e+00 -1.0000e+00
       -2 -1    0    0    0  501 -0.0000000000e+00 -0.0000000000e+00 -2.5784031548e+03 2.5784031548e+03 0.0000000000e+00 0.0000e+00 1.0000e+00
      -13  1    1    2    0    0 -1.8195179633e+03 -5.6420647860e+02 -1.9633067404e+03 2.7356074144e+03 0.0000000000e+00 0.0000e+00 1.0000e+00
       13  1    1    2    0    0 +1.8195179633e+03 +5.6420647860e+02 +3.7337496491e+03 4.1916418038e+03 0.0000000000e+00 0.0000e+00 -1.0000e+00
<mgrwt>
<rscale>  0 0.66971870E+04</rscale>
<asrwt>0</asrwt>
<pdfrwt beam="1">  1        2 0.66905324E+00 0.66971870E+04</pdfrwt>
<pdfrwt beam="2">  1       -2 0.39667741E+00 0.66971870E+04</pdfrwt>
<totfact> 0.66145765E-04</totfact>
</mgrwt>
<rwgt>
<wgt id='morphing_basis_vector_1'> +1.8763379e-07 </wgt>
<wgt id='morphing_basis_vector_2'> +1.2780037e-07 </wgt>
<wgt id='morphing_basis_vector_3'> +2.0728141e-07 </wgt>
<wgt id='morphing_basis_vector_4'> +1.5006196e-07 </wgt>
<wgt id='morphing_basis_vector_5'> +2.3949987e-07 </wgt>
</rwgt>
</event>
<event>
 4      1 +6.9060000e-13 7.06213300e+03 7.81860800e-03 7.15544900e-02
        2 -1    0    0  501    0 +0.0000000000e+00 +0.0000000000e+00 +4.1305040463e+03 4.1305040463e+03 0.0000000000e+00 0.0000e+00 -1.0000e+00
       -2 -1    0    0    0  501 -0.0000000000e+00 -0.0000000000e+00 -3.0186224840e+03 3.0186224840e+03 0.0000000000e+00 0.0000e+00 1.0000e+00
      -13  1    1    2    0    0 -1.7172260643e+03 -2.4865155584e+03 -1.2932538808e+03 3.2869637324e+03 0.0000000000e+00 0.0000e+00 1.0000e+00
       13  1    1    2    0    0 +1.7172260643e+03 +2.4865155584e+03 +2.4051354431e+03 3.8621627979e+03 0.0000000000e+00 0.0000e+00 -1.0000e+00
<mgrwt>
<rscale>  0 0.70621335E+04</rscale>
<asrwt>0</asrwt>
<pdfrwt beam="1">  1        2 0.63546216E+00 0.70621335E+04</pdfrwt>
<pdfrwt beam="2">  1       -2 0.46440346E+00 0.70621335E+04</pdfrwt>
<totfact> 0.35762415E-04</totfact>
</mgrwt>
<rwgt>
<wgt id='morphing_basis_vector_1'> +2.3277148e-07 </wgt>
<wgt id='morphing_basis_vector_2'> +1.6051474e-07 </wgt>
<wgt id='morphing_basis_vector_3'> +2.5769316e-07 </wgt>
<wgt id='morphing_basis_vector_4'> +1.8376595e-07 </wgt>
<wgt id='morphing_basis_vector_5'> +2.9607790e-07 </wgt>
</rwgt>
</event>
<event>
 4      1 +6.9060000e-13 7.71339500e+03 7.81860800e-03 7.09922500e-02
        2 -1    0    0  501    0 +0.0000000000e+00 +0.0000000000e+00 +4.6398819098e+03 4.6398819098e+03 0.0000000000e+00 0.0000e+00 1.0000e+00
       -2 -1    0    0    0  501 -0.0000000000e+00 -0.0000000000e+00 -3.2057103037e+03 3.2057103037e+03 0.0000000000e+00 0.0000e+00 -1.0000e+00
      -13  1    1    2    0    0 -1.7136375092e+03 -2.0874547546e+03 -2.0832976267e+03 3.4108869619e+03 0.0000000000e+00 0.0000e+00 -1.0000e+00
       13  1    1    2    0    0 +1.7136375092e+03 +2.0874547546e+03 +3.5174692328e+03 4.4347052516e+03 0.0000000000e+00 0.0000e+00 1.0000e+00
<mgrwt>
<rscale>  0 0.77133954E+04</rscale>
<asrwt>0</asrwt>
<pdfrwt beam="1">  1        2 0.71382799E+00 0.77133954E+04</pdfrwt>
<pdfrwt beam="2">  1       -2 0.49318620E+00 0.77133954E+04</pdfrwt>
<totfact> 0.65463137E-05</totfact>
</mgrwt>
<rwgt>
<wgt id='morphing_basis_vector_1'> +3.3010812e-07 </wgt>
<wgt id='morphing_basis_vector_2'> +2.2552136e-07 </wgt>
<wgt id='morphing_basis_vector_3'> +3.6511538e-07 </wgt>
<wgt id='morphing_basis_vector_4'> +2.6374299e-07 </wgt>
<wgt id='morphing_basis_vector_5'> +4.2174430e-07 </wgt>
</rwgt>
</event>
<event>
 4      1 +6.9060000e-13 6.74922900e+03 7.81860800e-03 7.18467800e-02
        2 -1    0    0  501    0 +0.0000000000e+00 +0.0000000000e+00 +4.5899958434e+03 4.5899958434e+03 0.0000000000e+00 0.0000e+00 -1.0000e+00
       -2 -1    0    0    0  501 -0.0000000000e+00 -0.0000000000e+00 -2.4810529247e+03 2.4810529247e+03 0.0000000000e+00 0.0000e+00 1.0000e+00
      -13  1    1    2    0    0 -3.0741532099e+03 -1.0971968460e+03 +1.5702655053e+02 3.2678611070e+03 0.0000000000e+00 0.0000e+00 1.0000e+00
       13  1    1    2    0    0 +3.0741532099e+03 +1.0971968460e+03 +1.9519163682e+03 3.8031876611e+03 0.0000000000e+00 0.0000e+00 -1.0000e+00
<mgrwt>
<rscale>  0 0.67492289E+04</rscale>
<asrwt>0</asrwt>
<pdfrwt beam="1">  1        2 0.70615321E+00 0.67492289E+04</pdfrwt>
<pdfrwt beam="2">  1       -2 0.38170045E+00 0.67492289E+04</pdfrwt>
<totfact> 0.46679117E-04</totfact>
</mgrwt>
<rwgt>
<wgt id='morphing_basis_vector_1'> +1.9614429e-07 </wgt>
<wgt id='morphing_basis_vector_2'> +1.3950731e-07 </wgt>
<wgt id='morphing_basis_vector_3'> +2.1809105e-07 </wgt>
<wgt id='morphing_basis_vector_4'> +1.4917216e-07 </wgt>
<wgt id='morphing_basis_vector_5'> +2.4657162e-07 </wgt>
</rwgt>
</event>
<event>
 4      1 +6.9060000e-13 6.74410800e+03 7.81860800e-03 7.18517000e-02
        2 -1    0    0  501    0 +0.0000000000e+00 +0.0000000000e+00 +3.2717528599e+03 3.2717528599e+03 0.0000000000e+00 0.0000e+00 1.0000e+00
       -2 -1    0    0    0  501 -0.0000000000e+00 -0.0000000000e+00 -3.4754295898e+03 3.4754295898e+03 0.0000000000e+00 0.0000e+00 -1.0000e+00
      -13  1    1    2    0    0 -2.2139935893e+03 -1.6186512869e+03 -2.0646062200e+03 3.4328411623e+03 0.0000000000e+00 0.0000e+00 -1.0000e+00
       13  1    1    2    0    0 +2.2139935893e+03 +1.6186512869e+03 +1.8609294901e+03 3.3143412874e+03 0.0000000000e+00 0.0000e+00 1.0000e+00
<mgrwt>
<rscale>  0 0.67441076E+04</rscale>
<asrwt>0</asrwt>
<pdfrwt beam="1">  1        2 0.50334660E+00 0.67441076E+04</pdfrwt>
<pdfrwt beam="2">  1       -2 0.53468147E+00 0.67441076E+04</pdfrwt>
<totfact> 0.51804086E-04</totfact>
</mgrwt>
<rwgt>
<wgt id='morphing_basis_vector_1'> +1.9340990e-07 </wgt>
<wgt id='morphing_basis_vector_2'> +1.3280257e-07 </wgt>
<wgt id='morphing_basis_vector_3'> +2.1392411e-07 </wgt>
<wgt id='morphing_basis_vector_4'> +1.5330719e-07 </wgt>
<wgt id='morphing_basis_vector_5'> +2.4620930e-07 </wgt>
</rwgt>
</event>
<event>
 4      1 +6.9060000e-13 7.14504200e+03 7.81860800e-03 7.14796000e-02
        2 -1    0    0  501    0 +0.0000000000e+00 +0.0000000000e+00 +2.6871830446e+03 2.6871830446e+03 0.0000000000e+00 0.0000e+00 -1.0000e+00
       -2 -1    0    0    0  501 -0.0000000000e+00 -0.0000000000e+00 -4.7495487013e+03 4.7495487013e+03 0.0000000000e+00 0.0000e+00 1.0000e+00
      -13  1    1    2    0    0 +2.0300226037e+03 -7.4657518268e+02 -3.9905918412e+03 4.5390736409e+03 0.0000000000e+00 0.0000e+00 1.0000e+00
       13  1    1    2    0    0 -2.0300226037e+03 +7.4657518268e+02 +1.9282261845e+03 2.8976581050e+03 0.0000000000e+00 0.0000e+00 -1.0000e+00
<mgrwt>
<rscale>  0 0.71450421E+04</rscale>
<asrwt>0</asrwt>
<pdfrwt beam="1">  1        2 0.41341278E+00 0.71450421E+04</pdfrwt>
<pdfrwt beam="2">  1       -2 0.73069980E+00 0.71450421E+04</pdfrwt>
<totfact> 0.13442548E-04</totfact>
</mgrwt>
<rwgt>
<wgt id='morphing_basis_vector_1'> +2.4301193e-07 </wgt>
<wgt id='morphing_basis_vector_2'> +1.6564056e-07 </wgt>
<wgt id='morphing_basis_vector_3'> +2.6858844e-07 </wgt>
<wgt id='morphing_basis_vector_4'> +1.9441948e-07 </wgt>
<wgt id='morphing_basis_vector_5'> +3.1040759e-07 </wgt>
</rwgt>
</event>
<event>
 4      1 +6.9060000e-13 6.89680800e+03 7.81860800e-03 7.17069800e-02
        2 -1    0    0  501    0 +0.0000000000e+00 +0.0000000000e+00 +3.9519794342e+03 3.9519794342e+03 0.0000000000e+00 0.0000e+00 1.0000e+00
       -2 -1    0    0    0  501 -0.0000000000e+00 -0.0000000000e+00 -3.0089960042e+03 3.0089960042e+03 0.0000000000e+00 0.0000e+00 -1.0000e+00
      -13  1    1    2    0    0 +1.1506075027e+03 +2.8094542926e+03 +2.1221154140e+03 3.7040929899e+03 0.0000000000e+00 0.0000e+00 1.0000e+00
       13  1    1    2    0    0 -1.1506075027e+03 -2.8094542926e+03 -1.1791319839e+03 3.2568824485e+03 0.0000000000e+00 0.0000e+00 -1.0000e+00
<mgrwt>
<rscale>  0 0.68968081E+04</rscale>
<asrwt>0</asrwt>
<pdfrwt beam="1">  1        2 0.60799683E+00 0.68968081E+04</pdfrwt>
<pdfrwt beam="2">  1       -2 0.46292246E+00 0.68968081E+04</pdfrwt>
<totfact> 0.52954391E-04</totfact>
</mgrwt>
<rwgt>
<wgt id='morphing_basis_vector_1'> +2.4722828e-07 </wgt>
<wgt id='morphing_basis_vector_2'> +2.5008378e-07 </wgt>
<wgt id='morphing_basis_vector_3'> +2.9250628e-07 </wgt>
<wgt id='morphing_basis_vector_4'> +9.1094587e-08 </wgt>
<wgt id='morphing_basis_vector_5'> +2.6286292e-07 </wgt>
</rwgt>
</event>
<event>
 4      1 +6.9060000e-13 7.06294200e+03 7.81860800e-03 7.15537600e-02
        2 -1    0    0  501    0 +0.0000000000e+00 +0.0000000000e+00 +5.1257969720e+03 5.1257969720e+03 0.0000000000e+00 0.0000e+00 1.0000e+00
       -2 -1    0    0    0  501 -0.0000000000e+00 -0.0000000000e+00 -2.4330433555e+03 2.4330433555e+03 0.0000000000e+00 0.0000e+00 -1.0000e+00
      -13  1    1    2    0    0 -3.2379862962e+03 +5.1736263176e+02 -5.6811453546e+01 3.2795497996e+03 0.0000000000e+00 0.0000e+00 -1.0000e+00
       13  1    1    2    0    0 +3.2379862962e+03 -5.1736263176e+02 +2.7495650701e+03 4.2792905278e+03 0.0000000000e+00 0.0000e+00 1.0000e+00
<mgrwt>
<rscale>  0 0.70629417E+04</rscale>
<asrwt>0</asrwt>
<pdfrwt beam="1">  1        2 0.78858415E+00 0.70629417E+04</pdfrwt>
<pdfrwt beam="2">  1       -2 0.37431436E+00 0.70629417E+04</pdfrwt>
<totfact> 0.10985680E-04</totfact>
</mgrwt>
<rwgt>
<wgt id='morphing_basis_vector_1'> +2.3387726e-07 </wgt>
<wgt id='morphing_basis_vector_2'> +1.6352063e-07 </wgt>
<wgt id='morphing_basis_vector_3'> +2.5944932e-07 </wgt>
<wgt id='morphing_basis_vector_4'> +1.8170702e-07 </wgt>
<wgt id='morphing_basis_vector_5'> +2.9603302e-07 </wgt>
</rwgt>
</event>
<event>
 4      1 +6.9060000e-13 6.78347500e+03 7.81860800e-03 7.18140200e-02
        2 -1    0    0  501    0 +0.0000000000e+00 +0.0000000000e+00 +2.0951232561e+03 2.0951232561e+03 0.0000000000e+00 0.0000e+00 -1.0000e+00
       -2 -1    0    0    0  501 -0.0000000000e+00 -0.0000000000e+00 -5.4907908486e+03 5.4907908486e+03 0.0000000000e+00 0.0000e+00 1.0000e+00
      -13  1    1    2    0    0 +2.4794475297e+03 +1.4409956093e+03 -3.7230733496e+03 4.6995109921e+03 0.0000000000e+00 0.0000e+00 1.0000e+00
       13  1    1    2    0    0 -2.4794475297e+03 -1.4409956093e+03 +3.2740575699e+02 2.8864031126e+03 0.0000000000e+00 0.0000e+00 -1.0000e+00
<mgrwt>
<rscale>  0 0.67834751E+04</rscale>
<asrwt>0</asrwt>
<pdfrwt beam="1">  1        2 0.32232666E+00 0.67834751E+04</pdfrwt>
<pdfrwt beam="2">  1       -2 0.84473705E+00 0.67834751E+04</pdfrwt>
<totfact> 0.29736085E-04</totfact>
</mgrwt>
<rwgt>
<wgt id='morphing_basis_vector_1'> +1.9813501e-07 </wgt>
<wgt id='morphing_basis_vector_2'> +1.3644988e-07 </wgt>
<wgt id='morphing_basis_vector_3'> +2.1925353e-07 </wgt>
<wgt id='morphing_basis_vector_4'> +1.5654356e-07 </wgt>
<wgt id='morphing_basis_vector_5'> +2.5198670e-07 </wgt>
</rwgt>
</event>
<event>
 4      1 +6.9060000e-13 6.86068200e+03 7.81860800e-03 7.17408700e-02
        2 -1    0    0  501    0 +0.0000000000e+00 +0.0000000000e+00 +3.8771486608e+03 3.8771486608e+03 0.0000000000e+00 0.0000e+00 1.0000e+00
       -2 -1    0    0    0  501 -0.0000000000e+00 -0.0000000000e+00 -3.0350243553e+03 3.0350243553e+03 0.0000000000e+00 0.0000e+00 -1.0000e+00
      -13  1    1    2    0    0 +1.8414845992e+01 -2.6004565904e+03 -1.8328075582e+03 3.1814929091e+03 0.0000000000e+00 0.0000e+00 -1.0000e+00
       13  1    1    2    0    0 -1.8414845992e+01 +2.6004565904e+03 +2.6749318637e+03 3.7306801070e+03 0.0000000000e+00 0.0000e+00 1.0000e+00
<mgrwt>
<rscale>  0 0.68606824E+04</rscale>
<asrwt>0</asrwt>
<pdfrwt beam="1">  1        2 0.59648441E+00 0.68606824E+04</pdfrwt>
<pdfrwt beam="2">  1       -2 0.46692682E+00 0.68606824E+04</pdfrwt>
<totfact> 0.57307018E-04</totfact>
</mgrwt>
<rwgt>
<wgt id='morphing_basis_vector_1'> +2.0689491e-07 </wgt>
<wgt id='morphing_basis_vector_2'> +1.4159310e-07 </wgt>
<wgt id='morphing_basis_vector_3'> +2.2875232e-07 </wgt>
<wgt id='morphing_basis_vector_4'> +1.6466096e-07 </wgt>
<wgt id='morphing_basis_vector_5'> +2.6374854e-07 </wgt>
</rwgt>
</event>
<event>
 4      1 +6.9060000e-13 6.84371900e+03 7.81860800e-03 7.17568600e-02
        2 -1    0    0  501    0 +0.0000000000e+00 +0.0000000000e+00 +3.7412504427e+03 3.7412504427e+03 0.0000000000e+00 0.0000e+00 -1.0000e+00
       -2 -1    0    0    0  501 -0.0000000000e+00 -0.0000000000e+00 -3.1297346152e+03 3.1297346152e+03 0.0000000000e+00 0.0000e+00 1.0000e+00
      -13  1    1    2    0    0 -3.7733403191e+02 -3.0561830359e+03 +1.8038440215e+03 3.5688217908e+03 0.0000000000e+00 0.0000e+00 1.0000e+00
       13  1    1    2    0    0 +3.7733403191e+02 +3.0561830359e+03 -1.1923281939e+03 3.3021632671e+03 0.0000000000e+00 0.0000e+00 -1.0000e+00
<mgrwt>
<rscale>  0 0.68437186E+04</rscale>
<asrwt>0</asrwt>
<pdfrwt beam="1">  1        2 0.57557699E+00 0.68437186E+04</pdfrwt>
<pdfrwt beam="2">  1       -2 0.48149763E+00 0.68437186E+04</pdfrwt>
<totfact> 0.57674212E-04</totfact>
</mgrwt>
<rwgt>
<wgt id='morphing_basis_vector_1'> +2.3611443e-07 </wgt>
<wgt id='morphing_basis_vector_2'> +2.3191254e-07 </wgt>
<wgt id='morphing_basis_vector_3'> +2.7769738e-07 </wgt>
<wgt id='morphing_basis_vector_4'> +9.6038501e-08 </wgt>
<wgt id='morphing_basis_vector_5'> +2.5550008e-07 </wgt>
</rwgt>
</event>
<event>
 4      1 +6.9060000e-13 7.24086600e+03 7.81860800e-03 7.13943000e-02
        2 -1    0    0  501    0 +0.0000000000e+00 +0.0000000000e+00 +4.9036853167e+03 4.9036853167e+03 0.0000000000e+00 0.0000e+00 1.0000e+00
       -2 -1    0    0    0  501 -0.0000000000e+00 -0.0000000000e+00 -2.6729967480e+03 2.6729967480e+03 0.0000000000e+00 0.0000e+00 -1.0000e+00
      -13  1    1    2    0    0 +1.8321358940e+03 +2.9586754154e+03 +2.1601790766e+03 4.0959560289e+03 0.0000000000e+00 0.0000e+00 -1.0000e+00
       13  1    1    2    0    0 -1.8321358940e+03 -2.9586754154e+03 +7.0509492138e+01 3.4807260358e+03 0.0000000000e+00 0.0000e+00 1.0000e+00
<mgrwt>
<rscale>  0 0.72408659E+04</rscale>
<asrwt>0</asrwt>
<pdfrwt beam="1">  1        2 0.75441312E+00 0.72408659E+04</pdfrwt>
<pdfrwt beam="2">  1       -2 0.41123027E+00 0.72408659E+04</pdfrwt>
<totfact> 0.12436976E-04</totfact>
</mgrwt>
<rwgt>
<wgt id='morphing_basis_vector_1'> +2.8037952e-07 </wgt>
<wgt id='morphing_basis_vector_2'> +2.4537908e-07 </wgt>
<wgt id='morphing_basis_vector_3'> +3.2279253e-07 </wgt>
<wgt id='morphing_basis_vector_4'> +1.5340346e-07 </wgt>
<wgt id='morphing_basis_vector_5'> +3.2306735e-07 </wgt>
</rwgt>
</event>
<event>
 4      1 +6.9060000e-13 7.28706000e+03 7.81860800e-03 7.13536600e-02
        2 -1    0    0  501    0 +0.0000000000e+00 +0.0000000000e+00 +2.5932152087e+03 2.5932152087e+03 0.0000000000e+00 0.0000e+00 1.0000e+00
       -2 -1    0    0    0  501 -0.0000000000e+00 -0.0000000000e+00 -5.1192470849e+03 5.1192470849e+03 0.0000000000e+00 0.0000e+00 -1.0000e+00
      -13  1    1    2    0    0 +2.5534054099e+03 +2.4201503583e+03 -2.2661339419e+03 4.1847783677e+03 0.0000000000e+00 0.0000e+00 -1.0000e+00
       13  1    1    2    0    0 -2.5534054099e+03 -2.4201503583e+03 -2.5989793429e+02 3.5276839258e+03 0.0000000000e+00 0.0000e+00 1.0000e+00
<mgrwt>
<rscale>  0 0.72870596E+04</rscale>
<asrwt>0</asrwt>
<pdfrwt beam="1">  1        2 0.39895619E+00 0.72870596E+04</pdfrwt>
<pdfrwt beam="2">  1       -2 0.78757646E+00 0.72870596E+04</pdfrwt>
<totfact> 0.23481243E-04</totfact>
</mgrwt>
<rwgt>
<wgt id='morphing_basis_vector_1'> +2.6631331e-07 </wgt>
<wgt id='morphing_basis_vector_2'> +1.8926182e-07 </wgt>
<wgt id='morphing_basis_vector_3'> +2.9621076e-07 </wgt>
<wgt id='morphing_basis_vector_4'> +2.0301083e-07 </wgt>
<wgt id='morphing_basis_vector_5'> +3.3525210e-07 </wgt>
</rwgt>
</event>
<event>
 4      1 +6.9060000e-13 6.93518600e+03 7.81860800e-03 7.16712000e-02
        2 -1    0    0  501    0 +0.0000000000e+00 +0.0000000000e+00 +2.3734402607e+03 2.3734402607e+03 0.0000000000e+00 0.0000e+00 1.0000e+00
       -2 -1    0    0    0  501 -0.0000000000e+00 -0.0000000000e+00 -5.0661490958e+03 5.0661490958e+03 0.0000000000e+00 0.0000e+00 -1.0000e+00
      -13  1    1    2    0    0 +2.5180269754e+03 -1.6933404869e+02 -3.8973503284e+03 4.6431103209e+03 0.0000000000e+00 0.0000e+00 -1.0000e+00
       13  1    1    2    0    0 -2.5180269754e+03 +1.6933404869e+02 +1.2046414933e+03 2.7964790356e+03 0.0000000000e+00 0.0000e+00 1.0000e+00
<mgrwt>
<rscale>  0 0.69351863E+04</rscale>
<asrwt>0</asrwt>
<pdfrwt beam="1">  1        2 0.36514466E+00 0.69351863E+04</pdfrwt>
<pdfrwt beam="2">  1       -2 0.77940755E+00 0.69351863E+04</pdfrwt>
<totfact> 0.32664187E-04</totfact>
</mgrwt>
<rwgt>
<wgt id='morphing_basis_vector_1'> +2.1592955e-07 </wgt>
<wgt id='morphing_basis_vector_2'> +1.4759426e-07 </wgt>
<wgt id='morphing_basis_vector_3'> +2.3871355e-07 </wgt>
<wgt id='morphing_basis_vector_4'> +1.7212267e-07 </wgt>
<wgt id='morphing_basis_vector_5'> +2.7542822e-07 </wgt>
</rwgt>
</event>
<event>
 4      1 +6.9060000e-13 6.75834800e+03 7.81860800e-03 7.18380400e-02
        2 -1    0    0  501    0 +0.0000000000e+00 +0.0000000000e+00 +3.7389179019e+03 3.7389179019e+03 0.0000000000e+00 0.0000e+00 -1.0000e+00
       -2 -1    0    0    0  501 -0.0000000000e+00 -0.0000000000e+00 -3.0540432168e+03 3.0540432168e+03 0.0000000000e+00 0.0000e+00 1.0000e+00
      -13  1    1    2    0    0 -1.1006594934e+03 -1.1189831662e+03 -2.6654200909e+03 3.0932246778e+03 0.0000000000e+00 0.0000e+00 1.0000e+00
       13  1    1    2    0    0 +1.1006594934e+03 +1.1189831662e+03 +3.3502947759e+03 3.6997364409e+03 0.0000000000e+00 0.0000e+00 -1.0000e+00
<mgrwt>
<rscale>  0 0.67583480E+04</rscale>
<asrwt>0</asrwt>
<pdfrwt beam="1">  1        2 0.57521814E+00 0.67583480E+04</pdfrwt>
<pdfrwt beam="2">  1       -2 0.46985280E+00 0.67583480E+04</pdfrwt>
<totfact> 0.70964336E-04</totfact>
</mgrwt>
<rwgt>
<wgt id='morphing_basis_vector_1'> +1.9452337e-07 </wgt>
<wgt id='morphing_basis_vector_2'> +1.3239428e-07 </wgt>
<wgt id='morphing_basis_vector_3'> +2.1488112e-07 </wgt>
<wgt id='morphing_basis_vector_4'> +1.5572779e-07 </wgt>
<wgt id='morphing_basis_vector_5'> +2.4839336e-07 </wgt>
</rwgt>
</event>
<event>
 4      1 +6.9060000e-13 7.37196000e+03 7.81860800e-03 7.12797400e-02
        2 -1    0    0  501    0 +0.0000000000e+00 +0.0000000000e+00 +2.5636504995e+03 2.5636504995e+03 0.0000000000e+00 0.0000e+00 -1.0000e+00
       -2 -1    0    0    0  501 -0.0000000000e+00 -0.0000000000e+00 -5.2996487550e+03 5.2996487550e+03 0.0000000000e+00 0.0000e+00 1.0000e+00
      -13  1    1    2    0    0 -4.0361480812e+02 -1.0109253132e+03 -5.1242987822e+03 5.2386365508e+03 0.0000000000e+00 0.0000e+00 1.0000e+00
       13  1    1    2    0    0 +4.0361480812e+02 +1.0109253132e+03 +2.3883005267e+03 2.6246627036e+03 0.0000000000e+00 0.0000e+00 -1.0000e+00
<mgrwt>
<rscale>  0 0.73719596E+04</rscale>
<asrwt>0</asrwt>
<pdfrwt beam="1">  1        2 0.39440777E+00 0.73719596E+04</pdfrwt>
<pdfrwt beam="2">  1       -2 0.81533058E+00 0.73719596E+04</pdfrwt>
<totfact> 0.21281793E-04</totfact>
</mgrwt>
<rwgt>
<wgt id='morphing_basis_vector_1'> +2.7519185e-07 </wgt>
<wgt id='morphing_basis_vector_2'> +1.8728344e-07 </wgt>
<wgt id='morphing_basis_vector_3'> +3.0413637e-07 </wgt>
<wgt id='morphing_basis_vector_4'> +2.2065860e-07 </wgt>
<wgt id='morphing_basis_vector_5'> +3.5185010e-07 </wgt>
</rwgt>
</event>
<event>
 4      1 +6.9060000e-13 6.79032900e+03 7.81860800e-03 7.18074900e-02
        2 -1    0    0  501    0 +0.0000000000e+00 +0.0000000000e+00 +4.6738634126e+03 4.6738634126e+03 0.0000000000e+00 0.0000e+00 1.0000e+00
       -2 -1    0    0    0  501 -0.0000000000e+00 -0.0000000000e+00 -2.4662986126e+03 2.4662986126e+03 0.0000000000e+00 0.0000e+00 -1.0000e+00
      -13  1    1    2    0    0 -1.3203657588e+03 -2.0889845098e+03 -1.3442305172e+03 2.8132148341e+03 0.0000000000e+00 0.0000e+00 -1.0000e+00
       13  1    1    2    0    0 +1.3203657588e+03 +2.0889845098e+03 +3.5517953172e+03 4.3269471911e+03 0.0000000000e+00 0.0000e+00 1.0000e+00
<mgrwt>
<rscale>  0 0.67903293E+04</rscale>
<asrwt>0</asrwt>
<pdfrwt beam="1">  1        2 0.71905591E+00 0.67903293E+04</pdfrwt>
<pdfrwt beam="2">  1       -2 0.37943056E+00 0.67903293E+04</pdfrwt>
<totfact> 0.38925853E-04</totfact>
</mgrwt>
<rwgt>
<wgt id='morphing_basis_vector_1'> +1.9847571e-07 </wgt>
<wgt id='morphing_basis_vector_2'> +1.3565233e-07 </wgt>
<wgt id='morphing_basis_vector_3'> +2.1938774e-07 </wgt>
<wgt id='morphing_basis_vector_4'> +1.5816396e-07 </wgt>
<wgt id='morphing_basis_vector_5'> +2.5309150e-07 </wgt>
</rwgt>
</event>
<event>
 4      1 +6.9060000e-13 6.99202600e+03 7.81860800e-03 7.16186300e-02
        2 -1    0    0  501    0 +0.0000000000e+00 +0.0000000000e+00 +2.1217962157e+03 2.1217962157e+03 0.0000000000e+00 0.0000e+00 -1.0000e+00
       -2 -1    0    0    0  501 -0.0000000000e+00 -0.0000000000e+00 -5.7602642537e+03 5.7602642537e+03 0.0000000000e+00 0.0000e+00 1.0000e+00
      -13  1    1    2    0    0 -3.4265547516e+03 -6.9193312349e+02 -1.7680944065e+03 3.9174234828e+03 0.0000000000e+00 0.0000e+00 1.0000e+00
       13  1    1    2    0    0 +3.4265547516e+03 +6.9193312349e+02 -1.8703736315e+03 3.9646369865e+03 0.0000000000e+00 0.0000e+00 -1.0000e+00
<mgrwt>
<rscale>  0 0.69920260E+04</rscale>
<asrwt>0</asrwt>
<pdfrwt beam="1">  1        2 0.32643019E+00 0.69920260E+04</pdfrwt>
<pdfrwt beam="2">  1       -2 0.88619449E+00 0.69920260E+04</pdfrwt>
<totfact> 0.12417255E-04</totfact>
</mgrwt>
<rwgt>
<wgt id='morphing_basis_vector_1'> +2.3136466e-07 </wgt>
<wgt id='morphing_basis_vector_2'> +1.7678842e-07 </wgt>
<wgt id='morphing_basis_vector_3'> +2.6020677e-07 </wgt>
<wgt id='morphing_basis_vector_4'> +1.6008808e-07 </wgt>
<wgt id='morphing_basis_vector_5'> +2.8308795e-07 </wgt>
</rwgt>
</event>
<event>
 4      1 +6.9060000e-13 6.96095300e+03 7.81860800e-03 7.16473100e-02
        2 -1    0    0  501    0 +0.0000000000e+00 +0.0000000000e+00 +3.5421053940e+03 3.5421053940e+03 0.0000000000e+00 0.0000e+00 1.0000e+00
       -2 -1    0    0    0  501 -0.0000000000e+00 -0.0000000000e+00 -3.4199194628e+03 3.4199194628e+03 0.0000000000e+00 0.0000e+00 -1.0000e+00
      -13  1    1    2    0    0 -3.2897974597e+03 +7.2887393255e+02 +9.3282957076e+02 3.4963117057e+03 0.0000000000e+00 0.0000e+00 -1.0000e+00
       13  1    1    2    0    0 +3.2897974597e+03 -7.2887393255e+02 -8.1064363956e+02 3.4657131511e+03 0.0000000000e+00 0.0000e+00 1.0000e+00
<mgrwt>
<rscale>  0 0.69609526E+04</rscale>
<asrwt>0</asrwt>
<pdfrwt beam="1">  1        2 0.54493930E+00 0.69609526E+04</pdfrwt>
<pdfrwt beam="2">  1       -2 0.52614145E+00 0.69609526E+04</pdfrwt>
<totfact> 0.37745795E-04</totfact>
</mgrwt>
<rwgt>
<wgt id='morphing_basis_vector_1'> +2.3789864e-07 </wgt>
<wgt id='morphing_basis_vector_2'> +2.0481014e-07 </wgt>
<wgt id='morphing_basis_vector_3'> +2.7300259e-07 </wgt>
<wgt id='morphing_basis_vector_4'> +1.3450231e-07 </wgt>
<wgt id='morphing_basis_vector_5'> +2.7616344e-07 </wgt>
</rwgt>
</event>
<event>
 4      1 +6.9060000e-13 6.67167800e+03 7.81860800e-03 7.19217000e-02
        2 -1    0    0  501    0 +0.0000000000e+00 +0.0000000000e+00 +3.8284640458e+03 3.8284640458e+03 0.0000000000e+00 0.0000e+00 -1.0000e+00
       -2 -1    0    0    0  501 -0.0000000000e+00 -0.0000000000e+00 -2.9066017468e+03 2.9066017468e+03 0.0000000000e+00 0.0000e+00 1.0000e+00
      -13  1    1    2    0    0 -1.5833412190e+02 +1.8635925147e+03 -2.3275172929e+03 2.9858639460e+03 0.0000000000e+00 0.0000e+00 1.0000e+00
       13  1    1    2    0    0 +1.5833412190e+02 -1.8635925147e+03 +3.2493795918e+03 3.7492018466e+03 0.0000000000e+00 0.0000e+00 -1.0000e+00
<mgrwt>
<rscale>  0 0.66716775E+04</rscale>
<asrwt>0</asrwt>
<pdfrwt beam="1">  1        2 0.58899447E+00 0.66716775E+04</pdfrwt>
<pdfrwt beam="2">  1       -2 0.44716950E+00 0.66716775E+04</pdfrwt>
<totfact> 0.87858442E-04</totfact>
</mgrwt>
<rwgt>
<wgt id='morphing_basis_vector_1'> +1.8479163e-07 </wgt>
<wgt id='morphing_basis_vector_2'> +1.2585139e-07 </wgt>
<wgt id='morphing_basis_vector_3'> +2.0413367e-07 </wgt>
<wgt id='morphing_basis_vector_4'> +1.4779519e-07 </wgt>
<wgt id='morphing_basis_vector_5'> +2.3586617e-07 </wgt>
</rwgt>
</event>
<event>
 4      1 +6.9060000e-13 6.67461400e+03 7.81860800e-03 7.19188500e-02
        2 -1    0    0  501    0 +0.0000000000e+00 +0.0000000000e+00 +4.0965735761e+03 4.0965735761e+03 0.0000000000e+00 0.0000e+00 1.0000e+00
       -2 -1    0    0    0  501 -0.0000000000e+00 -0.0000000000e+00 -2.7187641620e+03 2.7187641620e+03 0.0000000000e+00 0.0000e+00 -1.0000e+00
      -13  1    1    2    0    0 -9.6671766860e+02 +6.5257492059e+02 -2.5038748957e+03 2.7622068299e+03 0.0000000000e+00 0.0000e+00 -1.0000e+00
       13  1    1    2    0    0 +9.6671766860e+02 -6.5257492059e+02 +3.8816843098e+03 4.0531309082e+03 0.0000000000e+00 0.0000e+00 1.0000e+00
<mgrwt>
<rscale>  0 0.66746138E+04</rscale>
<asrwt>0</asrwt>
<pdfrwt beam="1">  1        2 0.63024208E+00 0.66746138E+04</pdfrwt>
<pdfrwt beam="2">  1       -2 0.41827141E+00 0.66746138E+04</pdfrwt>
<totfact> 0.81848559E-04</totfact>
</mgrwt>
<rwgt>
<wgt id='morphing_basis_vector_1'> +1.8505769e-07 </wgt>
<wgt id='morphing_basis_vector_2'> +1.2590019e-07 </wgt>
<wgt id='morphing_basis_vector_3'> +2.0439686e-07 </wgt>
<wgt id='morphing_basis_vector_4'> +1.4818214e-07 </wgt>
<wgt id='morphing_basis_vector_5'> +2.3629304e-07 </wgt>
</rwgt>
</event>
<event>
 4      1 +6.9060000e-13 7.71049800e+03 7.81860800e-03 7.09946300e-02
        2 -1    0    0  501    0 +0.0000000000e+00 +0.0000000000e+00 +2.5608313874e+03 2.5608313874e+03 0.0000000000e+00 0.0000e+00 1.0000e+00
       -2 -1    0    0    0  501 -0.0000000000e+00 -0.0000000000e+00 -5.8039535046e+03 5.8039535046e+03 0.0000000000e+00 0.0000e+00 -1.0000e+00
      -13  1    1    2    0    0 +2.5629638163e+03 -1.6735916922e+03 +9.2109227750e+02 3.1965768659e+03 0.0000000000e+00 0.0000e+00 1.0000e+00
       13  1    1    2    0    0 -2.5629638163e+03 +1.6735916922e+03 -4.1642143947e+03 5.1682080261e+03 0.0000000000e+00 0.0000e+00 -1.0000e+00
<mgrwt>
<rscale>  0 0.77104984E+04</rscale>
<asrwt>0</asrwt>
<pdfrwt beam="1">  1        2 0.39397407E+00 0.77104984E+04</pdfrwt>
<pdfrwt beam="2">  1       -2 0.89291591E+00 0.77104984E+04</pdfrwt>
<totfact> 0.55047049E-05</totfact>
</mgrwt>
<rwgt>
<wgt id='morphing_basis_vector_1'> +4.0860402e-07 </wgt>
<wgt id='morphing_basis_vector_2'> +4.5693000e-07 </wgt>
<wgt id='morphing_basis_vector_3'> +4.9425819e-07 </wgt>
<wgt id='morphing_basis_vector_4'> +9.3773898e-08 </wgt>
<wgt id='morphing_basis_vector_5'> +4.0680443e-07 </wgt>
</rwgt>
</event>
<event>
 4      1 +6.9060000e-13 6.91263200e+03 7.81860800e-03 7.16921900e-02
        2 -1    0    0  501    0 +0.0000000000e+00 +0.0000000000e+00 +3.8823349518e+03 3.8823349518e+03 0.0000000000e+00 0.0000e+00 -1.0000e+00
       -2 -1    0    0    0  501 -0.0000000000e+00 -0.0000000000e+00 -3.0770454438e+03 3.0770454438e+03 0.0000000000e+00 0.0000e+00 1.0000e+00
      -13  1    1    2    0    0 +1.4569693746e+03 -3.1158003472e+03 +7.4427646491e+02 3.5192213653e+03 0.0000000000e+00 0.0000e+00 1.0000e+00
       13  1    1    2    0    0 -1.4569693746e+03 +3.1158003472e+03 +6.1013043067e+01 3.4401590302e+03 0.0000000000e+00 0.0000e+00 -1.0000e+00
<mgrwt>
<rscale>  0 0.69126322E+04</rscale>
<asrwt>0</asrwt>
<pdfrwt beam="1">  1        2 0.59728230E+00 0.69126322E+04</pdfrwt>
<pdfrwt beam="2">  1       -2 0.47339161E+00 0.69126322E+04</pdfrwt>
<totfact> 0.50725418E-04</totfact>
</mgrwt>
<rwgt>
<wgt id='morphing_basis_vector_1'> +2.2393023e-07 </wgt>
<wgt id='morphing_basis_vector_2'> +1.7734991e-07 </wgt>
<wgt id='morphing_basis_vector_3'> +2.5330465e-07 </wgt>
<wgt id='morphing_basis_vector_4'> +1.4675594e-07 </wgt>
<wgt id='morphing_basis_vector_5'> +2.6990733e-07 </wgt>
</rwgt>
</event>
<event>
 4      1 +6.9060000e-13 7.20761700e+03 7.81860800e-03 7.14237500e-02
        2 -1    0    0  501    0 +0.0000000000e+00 +0.0000000000e+00 +3.5792409259e+03 3.5792409259e+03 0.0000000000e+00 0.0000e+00 -1.0000e+00
       -2 -1    0    0    0  501 -0.0000000000e+00 -0.0000000000e+00 -3.6285451715e+03 3.6285451715e+03 0.0000000000e+00 0.0000e+00 1.0000e+00
      -13  1    1    2    0    0 -1.1619121499e+03 +1.6351076463e+03 -3.0186861854e+03 3.6243734831e+03 0.0000000000e+00 0.0000e+00 1.0000e+00
       13  1    1    2    0    0 +1.1619121499e+03 -1.6351076463e+03 +2.9693819399e+03 3.5834126143e+03 0.0000000000e+00 0.0000e+00 -1.0000e+00
<mgrwt>
<rscale>  0 0.72076175E+04</rscale>
<asrwt>0</asrwt>
<pdfrwt beam="1">  1        2 0.55065245E+00 0.72076175E+04</pdfrwt>
<pdfrwt beam="2">  1       -2 0.55823772E+00 0.72076175E+04</pdfrwt>
<totfact> 0.20403847E-04</totfact>
</mgrwt>
<rwgt>
<wgt id='morphing_basis_vector_1'> +2.5157859e-07 </wgt>
<wgt id='morphing_basis_vector_2'> +1.7138447e-07 </wgt>
<wgt id='morphing_basis_vector_3'> +2.7804725e-07 </wgt>
<wgt id='morphing_basis_vector_4'> +2.0142708e-07 </wgt>
<wgt id='morphing_basis_vector_5'> +3.2145066e-07 </wgt>
</rwgt>
</event>
<event>
 4      1 +6.9060000e-13 7.02149300e+03 7.81860800e-03 7.15915800e-02
        2 -1    0    0  501    0 +0.0000000000e+00 +0.0000000000e+00 +3.2705785000e+03 3.2705785000e+03 0.0000000000e+00 0.0000e+00 1.0000e+00
       -2 -1    0    0    0  501 -0.0000000000e+00 -0.0000000000e+00 -3.7685511441e+03 3.7685511441e+03 0.0000000000e+00 0.0000e+00 -1.0000e+00
      -13  1    1    2    0    0 +3.1933839678e+03 +6.9092417665e+02 +1.0388667330e+03 3.4284575938e+03 0.0000000000e+00 0.0000e+00 1.0000e+00
       13  1    1    2    0    0 -3.1933839678e+03 -6.9092417665e+02 -1.5368393772e+03 3.6106720503e+03 0.0000000000e+00 0.0000e+00 -1.0000e+00
<mgrwt>
<rscale>  0 0.70214934E+04</rscale>
<asrwt>0</asrwt>
<pdfrwt beam="1">  1        2 0.50316592E+00 0.70214934E+04</pdfrwt>
<pdfrwt beam="2">  1       -2 0.57977710E+00 0.70214934E+04</pdfrwt>
<totfact> 0.23901126E-04</totfact>
</mgrwt>
<rwgt>
<wgt id='morphing_basis_vector_1'> +2.5498245e-07 </wgt>
<wgt id='morphing_basis_vector_2'> +2.3758837e-07 </wgt>
<wgt id='morphing_basis_vector_3'> +2.9690875e-07 </wgt>
<wgt id='morphing_basis_vector_4'> +1.2056611e-07 </wgt>
<wgt id='morphing_basis_vector_5'> +2.8433780e-07 </wgt>
</rwgt>
</event>
<event>
 4      1 +6.9060000e-13 6.71626300e+03 7.81860800e-03 7.18785000e-02
        2 -1    0    0  501    0 +0.0000000000e+00 +0.0000000000e+00 +3.6282289869e+03 3.6282289869e+03 0.0000000000e+00 0.0000e+00 -1.0000e+00
       -2 -1    0    0    0  501 -0.0000000000e+00 -0.0000000000e+00 -3.1081406034e+03 3.1081406034e+03 0.0000000000e+00 0.0000e+00 1.0000e+00
      -13  1    1    2    0    0 -2.2104593485e+03 -1.2758566765e+02 -2.2723188965e+03 3.1726710830e+03 0.0000000000e+00 0.0000e+00 1.0000e+00
       13  1    1    2    0    0 +2.2104593485e+03 +1.2758566765e+02 +2.7924072799e+03 3.5636985073e+03 0.0000000000e+00 0.0000e+00 -1.0000e+00
<mgrwt>
<rscale>  0 0.67162626E+04</rscale>
<asrwt>0</asrwt>
<pdfrwt beam="1">  1        2 0.55818907E+00 0.67162626E+04</pdfrwt>
<pdfrwt beam="2">  1       -2 0.47817548E+00 0.67162626E+04</pdfrwt>
<totfact> 0.75315251E-04</totfact>
</mgrwt>
<rwgt>
<wgt id='morphing_basis_vector_1'> +1.8985845e-07 </wgt>
<wgt id='morphing_basis_vector_2'> +1.2950139e-07 </wgt>
<wgt id='morphing_basis_vector_3'> +2.0978664e-07 </wgt>
<wgt id='morphing_basis_vector_4'> +1.5160682e-07 </wgt>
<wgt id='morphing_basis_vector_5'> +2.4223032e-07 </wgt>
</rwgt>
</event>
<event>
 4      1 +6.9060000e-13 7.07408400e+03 7.81860800e-03 7.15436300e-02
        2 -1    0    0  501    0 +0.0000000000e+00 +0.0000000000e+00 +2.6111885061e+03 2.6111885061e+03 0.0000000000e+00 0.0000e+00 -1.0000e+00
       -2 -1    0    0    0  501 -0.0000000000e+00 -0.0000000000e+00 -4.7911765006e+03 4.7911765006e+03 0.0000000000e+00 0.0000e+00 1.0000e+00
      -13  1    1    2    0    0 +3.0196076363e+03 +9.8102373041e+02 -2.7212560704e+03 4.1815873108e+03 0.0000000000e+00 0.0000e+00 1.0000e+00
       13  1    1    2    0    0 -3.0196076363e+03 -9.8102373041e+02 +5.4126807595e+02 3.2207776960e+03 0.0000000000e+00 0.0000e+00 -1.0000e+00
<mgrwt>
<rscale>  0 0.70740837E+04</rscale>
<asrwt>0</asrwt>
<pdfrwt beam="1">  1        2 0.40172131E+00 0.70740837E+04</pdfrwt>
<pdfrwt beam="2">  1       -2 0.73710407E+00 0.70740837E+04</pdfrwt>
<totfact> 0.17000941E-04</totfact>
</mgrwt>
<rwgt>
<wgt id='morphing_basis_vector_1'> +2.3480781e-07 </wgt>
<wgt id='morphing_basis_vector_2'> +1.6295122e-07 </wgt>
<wgt id='morphing_basis_vector_3'> +2.6019473e-07 </wgt>
<wgt id='morphing_basis_vector_4'> +1.8402968e-07 </wgt>
<wgt id='morphing_basis_vector_5'> +2.9800717e-07 </wgt>
</rwgt>
</event>
<event>
 4      1 +6.9060000e-13 6.84144700e+03 7.81860800e-03 7.17590000e-02
        2 -1    0    0  501    0 +0.0000000000e+00 +0.0000000000e+00 +3.6079445937e+03 3.6079445937e+03 0.0000000000e+00 0.0000e+00 1.0000e+00
       -2 -1    0    0    0  501 -0.0000000000e+00 -0.0000000000e+00 -3.2432173991e+03 3.2432173991e+03 0.0000000000e+00 0.0000e+00 -1.0000e+00
      -13  1    1    2    0    0 +2.4380504546e+03 -1.6601397526e+03 -1.5524921257e+03 3.3332245375e+03 0.0000000000e+00 0.0000e+00 -1.0000e+00
       13  1    1    2    0    0 -2.4380504546e+03 +1.6601397526e+03 +1.9172193203e+03 3.5179374553e+03 0.0000000000e+00 0.0000e+00 1.0000e+00
<mgrwt>
<rscale>  0 0.68414468E+04</rscale>
<asrwt>0</asrwt>
<pdfrwt beam="1">  1        2 0.55506840E+00 0.68414468E+04</pdfrwt>
<pdfrwt beam="2">  1       -2 0.49895652E+00 0.68414468E+04</pdfrwt>
<totfact> 0.54134886E-04</totfact>
</mgrwt>
<rwgt>
<wgt id='morphing_basis_vector_1'> +2.0510583e-07 </wgt>
<wgt id='morphing_basis_vector_2'> +1.4153138e-07 </wgt>
<wgt id='morphing_basis_vector_3'> +2.2704559e-07 </wgt>
<wgt id='morphing_basis_vector_4'> +1.6170978e-07 </wgt>
<wgt id='morphing_basis_vector_5'> +2.6070463e-07 </wgt>
</rwgt>
</event>
<event>
 4      1 +6.9060000e-13 6.88010400e+03 7.81860800e-03 7.17226200e-02
        2 -1    0    0  501    0 +0.0000000000e+00 +0.0000000000e+00 +2.2776724905e+03 2.2776724905e+03 0.0000000000e+00 0.0000e+00 1.0000e+00
       -2 -1    0    0    0  501 -0.0000000000e+00 -0.0000000000e+00 -5.1956367389e+03 5.1956367389e+03 0.0000000000e+00 0.0000e+00 -1.0000e+00
      -13  1    1    2    0    0 -1.7290666630e+03 +2.8270830355e+03 -4.5642437569e+02 3.3452045118e+03 0.0000000000e+00 0.0000e+00 -1.0000e+00
       13  1    1    2    0    0 +1.7290666630e+03 -2.8270830355e+03 -2.4615398727e+03 4.1281047176e+03 0.0000000000e+00 0.0000e+00 1.0000e+00
<mgrwt>
<rscale>  0 0.68801043E+04</rscale>
<asrwt>0</asrwt>
<pdfrwt beam="1">  1        2 0.35041116E+00 0.68801043E+04</pdfrwt>
<pdfrwt beam="2">  1       -2 0.79932871E+00 0.68801043E+04</pdfrwt>
<totfact> 0.35737949E-04</totfact>
</mgrwt>
<rwgt>
<wgt id='morphing_basis_vector_1'> +2.2814423e-07 </wgt>
<wgt id='morphing_basis_vector_2'> +1.9866380e-07 </wgt>
<wgt id='morphing_basis_vector_3'> +2.6231847e-07 </wgt>
<wgt id='morphing_basis_vector_4'> +1.2601823e-07 </wgt>
<wgt id='morphing_basis_vector_5'> +2.6333862e-07 </wgt>
</rwgt>
</event>
<event>
 4      1 +6.9060000e-13 6.68389200e+03 7.81860800e-03 7.19098300e-02
        2 -1    0    0  501    0 +0.0000000000e+00 +0.0000000000e+00 +3.0361270145e+03 3.0361270145e+03 0.0000000000e+00 0.0000e+00 -1.0000e+00
       -2 -1    0    0    0  501 -0.0000000000e+00 -0.0000000000e+00 -3.6785692907e+03 3.6785692907e+03 0.0000000000e+00 0.0000e+00 1.0000e+00
      -13  1    1    2    0    0 -8.3621017604e+02 -3.2232377240e+03 -3.6906729840e+01 3.3301457912e+03 0.0000000000e+00 0.0000e+00 1.0000e+00
       13  1    1    2    0    0 +8.3621017604e+02 +3.2232377240e+03 -6.0553554630e+02 3.3845505140e+03 0.0000000000e+00 0.0000e+00 -1.0000e+00
<mgrwt>
<rscale>  0 0.66838922E+04</rscale>
<asrwt>0</asrwt>
<pdfrwt beam="1">  1        2 0.46709647E+00 0.66838922E+04</pdfrwt>
<pdfrwt beam="2">  1       -2 0.56593373E+00 0.66838922E+04</pdfrwt>
<totfact> 0.44701040E-04</totfact>
</mgrwt>
<rwgt>
<wgt id='morphing_basis_vector_1'> +1.9533125e-07 </wgt>
<wgt id='morphing_basis_vector_2'> +1.5372893e-07 </wgt>
<wgt id='morphing_basis_vector_3'> +2.2067109e-07 </wgt>
<wgt id='morphing_basis_vector_4'> +1.2919979e-07 </wgt>
<wgt id='morphing_basis_vector_5'> +2.3594333e-07 </wgt>
</rwgt>
</event>
<event>
 4      1 +6.9060000e-13 7.13045100e+03 7.81860800e-03 7.14927000e-02
        2 -1    0    0  501    0 +0.0000000000e+00 +0.0000000000e+00 +4.2585503621e+03 4.2585503621e+03 0.0000000000e+00 0.0000e+00 -1.0000e+00
       -2 -1    0    0    0  501 -0.0000000000e+00 -0.0000000000e+00 -2.9847793730e+03 2.9847793730e+03 0.0000000000e+00 0.0000e+00 1.0000e+00
      -13  1    1    2    0    0 +2.9777248155e+03 +7.8198034410e+02 -1.1894904407e+03 3.3004887281e+03 0.0000000000e+00 0.0000e+00 1.0000e+00
       13  1    1    2    0    0 -2.9777248155e+03 -7.8198034410e+02 +2.4632614297e+03 3.9428410070e+03 0.0000000000e+00 0.0000e+00 -1.0000e+00
<mgrwt>
<rscale>  0 0.71304511E+04</rscale>
<asrwt>0</asrwt>
<pdfrwt beam="1">  1        2 0.65516160E+00 0.71304511E+04</pdfrwt>
<pdfrwt beam="2">  1       -2 0.45919683E+00 0.71304511E+04</pdfrwt>
<totfact> 0.29598990E-04</totfact>
</mgrwt>
<rwgt>
<wgt id='morphing_basis_vector_1'> +2.4196612e-07 </wgt>
<wgt id='morphing_basis_vector_2'> +1.6702122e-07 </wgt>
<wgt id='morphing_basis_vector_3'> +2.6792610e-07 </wgt>
<wgt id='morphing_basis_vector_4'> +1.9083928e-07 </wgt>
<wgt id='morphing_basis_vector_5'> +3.0770775e-07 </wgt>
</rwgt>
</event>
<event>
 4      1 +6.9060000e-13 6.76569300e+03 7.81860800e-03 7.18310100e-02
        2 -1    0    0  501    0 +0.0000000000e+00 +0.0000000000e+00 +5.2134240376e+03 5.2134240376e+03 0.0000000000e+00 0.0000e+00 1.0000e+00
       -2 -1    0    0    0  501 -0.0000000000e+00 -0.0000000000e+00 -2.1950353200e+03 2.1950353200e+03 0.0000000000e+00 0.0000e+00 -1.0000e+00
      -13  1    1    2    0    0 +1.7455116758e+02 +3.3327590268e+03 +9.0356810060e+02 3.4574826324e+03 0.0000000000e+00 0.0000e+00 -1.0000e+00
       13  1    1    2    0    0 -1.7455116758e+02 -3.3327590268e+03 +2.1148206170e+03 3.9509767252e+03 0.0000000000e+00 0.0000e+00 1.0000e+00
<mgrwt>
<rscale>  0 0.67656928E+04</rscale>
<asrwt>0</asrwt>
<pdfrwt beam="1">  1        2 0.80206523E+00 0.67656928E+04</pdfrwt>
<pdfrwt beam="2">  1       -2 0.33769774E+00 0.67656928E+04</pdfrwt>
<totfact> 0.14353580E-04</totfact>
</mgrwt>
<rwgt>
<wgt id='morphing_basis_vector_1'> +1.9924534e-07 </wgt>
<wgt id='morphing_basis_vector_2'> +1.4434578e-07 </wgt>
<wgt id='morphing_basis_vector_3'> +2.2216524e-07 </wgt>
<wgt id='morphing_basis_vector_4'> +1.4809872e-07 </wgt>
<wgt id='morphing_basis_vector_5'> +2.4877683e-07 </wgt>
</rwgt>
</event>
<event>
 4      1 +6.9060000e-13 7.24774600e+03 7.81860800e-03 7.13882300e-02
        2 -1    0    0  501    0 +0.0000000000e+00 +0.0000000000e+00 +4.4647266116e+03 4.4647266116e+03 0.0000000000e+00 0.0000e+00 -1.0000e+00
       -2 -1    0    0    0  501 -0.0000000000e+00 -0.0000000000e+00 -2.9413797520e+03 2.9413797520e+03 0.0000000000e+00 0.0000e+00 1.0000e+00
      -13  1    1    2    0    0 +8.9525129686e+02 +2.4538575930e+03 -1.8050948057e+03 3.1750998769e+03 0.0000000000e+00 0.0000e+00 1.0000e+00
       13  1    1    2    0    0 -8.9525129686e+02 -2.4538575930e+03 +3.3284416653e+03 4.2310064867e+03 0.0000000000e+00 0.0000e+00 -1.0000e+00
<mgrwt>
<rscale>  0 0.72477463E+04</rscale>
<asrwt>0</asrwt>
<pdfrwt beam="1">  1        2 0.68688101E+00 0.72477463E+04</pdfrwt>
<pdfrwt beam="2">  1       -2 0.45251996E+00 0.72477463E+04</pdfrwt>
<totfact> 0.20556664E-04</totfact>
</mgrwt>
<rwgt>
<wgt id='morphing_basis_vector_1'> +2.5747360e-07 </wgt>
<wgt id='morphing_basis_vector_2'> +1.7597710e-07 </wgt>
<wgt id='morphing_basis_vector_3'> +2.8470782e-07 </wgt>
<wgt id='morphing_basis_vector_4'> +2.0541167e-07 </wgt>
<wgt id='morphing_basis_vector_5'> +3.2863450e-07 </wgt>
</rwgt>
</event>
<event>
 4      1 +6.9060000e-13 7.48117400e+03 7.81860800e-03 7.11861100e-02
        2 -1    0    0  501    0 +0.0000000000e+00 +0.0000000000e+00 +3.5231608884e+03 3.5231608884e+03 0.0000000000e+00 0.0000e+00 1.0000e+00
       -2 -1    0    0    0  501 -0.0000000000e+00 -0.0000000000e+00 -3.9714307472e+03 3.9714307472e+03 0.0000000000e+00 0.0000e+00 -1.0000e+00
      -13  1    1    2    0    0 +2.6280381439e+02 -3.7207290149e+03 +5.7615364602e+01 3.7304436435e+03 0.0000000000e+00 0.0000e+00 1.0000e+00
       13  1    1    2    0    0 -2.6280381439e+02 +3.7207290149e+03 -5.0588522343e+02 3.7641479921e+03 0.0000000000e+00 0.0000e+00 -1.0000e+00
<mgrwt>
<rscale>  0 0.74811736E+04</rscale>
<asrwt>0</asrwt>
<pdfrwt beam="1">  1        2 0.54202475E+00 0.74811736E+04</pdfrwt>
<pdfrwt beam="2">  1       -2 0.61098935E+00 0.74811736E+04</pdfrwt>
<totfact> 0.79972442E-05</totfact>
</mgrwt>
<rwgt>
<wgt id='morphing_basis_vector_1'> +3.0587268e-07 </wgt>
<wgt id='morphing_basis_vector_2'> +2.3979597e-07 </wgt>
<wgt id='morphing_basis_vector_3'> +3.4558955e-07 </wgt>
<wgt id='morphing_basis_vector_4'> +2.0393281e-07 </wgt>
<wgt id='morphing_basis_vector_5'> +3.7066001e-07 </wgt>
</rwgt>
</event>
<event>
 4      1 +6.9060000e-13 7.89206000e+03 7.81860800e-03 7.08477000e-02
        2 -1    0    0  501    0 +0.0000000000e+00 +0.0000000000e+00 +2.9458440951e+03 2.9458440951e+03 0.0000000000e+00 0.0000e+00 -1.0000e+00
       -2 -1    0    0    0  501 -0.0000000000e+00 -0.0000000000e+00 -5.2858028543e+03 5.2858028543e+03 0.0000000000e+00 0.0000e+00 1.0000e+00
      -13  1    1    2    0    0 +5.4487181887e+01 +3.7939254995e+03 -3.9694152950e+01 3.7945243674e+03 0.0000000000e+00 0.0000e+00 1.0000e+00
       13  1    1    2    0    0 -5.4487181887e+01 -3.7939254995e+03 -2.3002646063e+03 4.4371225820e+03 0.0000000000e+00 0.0000e+00 -1.0000e+00
<mgrwt>
<rscale>  0 0.78920596E+04</rscale>
<asrwt>0</asrwt>
<pdfrwt beam="1">  1        2 0.45320679E+00 0.78920596E+04</pdfrwt>
<pdfrwt beam="2">  1       -2 0.81320043E+00 0.78920596E+04</pdfrwt>
<totfact> 0.12083479E-04</totfact>
</mgrwt>
<rwgt>
<wgt id='morphing_basis_vector_1'> +3.9535761e-07 </wgt>
<wgt id='morphing_basis_vector_2'> +3.4580402e-07 </wgt>
<wgt id='morphing_basis_vector_3'> +4.5537118e-07 </wgt>
<wgt id='morphing_basis_vector_4'> +2.1686204e-07 </wgt>
<wgt id='morphing_basis_vector_5'> +4.5615982e-07 </wgt>
</rwgt>
</event>
<event>
 4      1 +6.9060000e-13 6.91059800e+03 7.81860800e-03 7.16940900e-02
        2 -1    0    0  501    0 +0.0000000000e+00 +0.0000000000e+00 +3.9785930547e+03 3.9785930547e+03 0.0000000000e+00 0.0000e+00 1.0000e+00
       -2 -1    0    0    0  501 -0.0000000000e+00 -0.0000000000e+00 -3.0008323345e+03 3.0008323345e+03 0.0000000000e+00 0.0000e+00 -1.0000e+00
      -13  1    1    2    0    0 -2.5392214665e+02 +3.3394616088e+03 -3.6965097112e+02 3.3694394391e+03 0.0000000000e+00 0.0000e+00 1.0000e+00
       13  1    1    2    0    0 +2.5392214665e+02 -3.3394616088e+03 +1.3474116914e+03 3.6099859500e+03 0.0000000000e+00 0.0000e+00 -1.0000e+00
<mgrwt>
<rscale>  0 0.69105979E+04</rscale>
<asrwt>0</asrwt>
<pdfrwt beam="1">  1        2 0.61209124E+00 0.69105979E+04</pdfrwt>
<pdfrwt beam="2">  1       -2 0.46166651E+00 0.69105979E+04</pdfrwt>
<totfact> 0.51289498E-04</totfact>
</mgrwt>
<rwgt>
<wgt id='morphing_basis_vector_1'> +2.1564723e-07 </wgt>
<wgt id='morphing_basis_vector_2'> +1.5360806e-07 </wgt>
<wgt id='morphing_basis_vector_3'> +2.3986618e-07 </wgt>
<wgt id='morphing_basis_vector_4'> +1.6377678e-07 </wgt>
<wgt id='morphing_basis_vector_5'> +2.7103813e-07 </wgt>
</rwgt>
</event>
<event>
 4      1 +6.9060000e-13 6.82285300e+03 7.81860800e-03 7.17765900e-02
        2 -1    0    0  501    0 +0.0000000000e+00 +0.0000000000e+00 +4.4624753419e+03 4.4624753419e+03 0.0000000000e+00 0.0000e+00 1.0000e+00
       -2 -1    0    0    0  501 -0.0000000000e+00 -0.0000000000e+00 -2.6079318785e+03 2.6079318785e+03 0.0000000000e+00 0.0000e+00 -1.0000e+00
      -13  1    1    2    0    0 +2.8654295436e+03 +1.1124635335e+03 +2.4606800845e+03 3.9374113401e+03 0.0000000000e+00 0.0000e+00 1.0000e+00
       13  1    1    2    0    0 -2.8654295436e+03 -1.1124635335e+03 -6.0613662107e+02 3.1329958803e+03 0.0000000000e+00 0.0000e+00 -1.0000e+00
<mgrwt>
<rscale>  0 0.68228533E+04</rscale>
<asrwt>0</asrwt>
<pdfrwt beam="1">  1        2 0.68653467E+00 0.68228533E+04</pdfrwt>
<pdfrwt beam="2">  1       -2 0.40122029E+00 0.68228533E+04</pdfrwt>
<totfact> 0.47172020E-04</totfact>
</mgrwt>
<rwgt>
<wgt id='morphing_basis_vector_1'> +2.3304577e-07 </wgt>
<wgt id='morphing_basis_vector_2'> +2.2849244e-07 </wgt>
<wgt id='morphing_basis_vector_3'> +2.7398468e-07 </wgt>
<wgt id='morphing_basis_vector_4'> +9.5315153e-08 </wgt>
<wgt id='morphing_basis_vector_5'> +2.5243081e-07 </wgt>
</rwgt>
</event>
<event>
 4      1 +6.9060000e-13 6.73427900e+03 7.81860800e-03 7.18611400e-02
        2 -1    0    0  501    0 +0.0000000000e+00 +0.0000000000e+00 +4.6016398381e+03 4.6016398381e+03 0.0000000000e+00 0.0000e+00 1.0000e+00
       -2 -1    0    0    0  501 -0.0000000000e+00 -0.0000000000e+00 -2.4638233737e+03 2.4638233737e+03 0.0000000000e+00 0.0000e+00 -1.0000e+00
      -13  1    1    2    0    0 -2.4884112275e+03 -2.0954312575e+03 +1.9803091103e+03 3.8084966541e+03 0.0000000000e+00 0.0000e+00 -1.0000e+00
       13  1    1    2    0    0 +2.4884112275e+03 +2.0954312575e+03 +1.5750735417e+02 3.2569665578e+03 0.0000000000e+00 0.0000e+00 1.0000e+00
<mgrwt>
<rscale>  0 0.67342788E+04</rscale>
<asrwt>0</asrwt>
<pdfrwt beam="1">  1        2 0.70794459E+00 0.67342788E+04</pdfrwt>
<pdfrwt beam="2">  1       -2 0.37904975E+00 0.67342788E+04</pdfrwt>
<totfact> 0.47219079E-04</totfact>
</mgrwt>
<rwgt>
<wgt id='morphing_basis_vector_1'> +2.0885681e-07 </wgt>
<wgt id='morphing_basis_vector_2'> +1.8065478e-07 </wgt>
<wgt id='morphing_basis_vector_3'> +2.3981384e-07 </wgt>
<wgt id='morphing_basis_vector_4'> +1.1690286e-07 </wgt>
<wgt id='morphing_basis_vector_5'> +2.4178307e-07 </wgt>
</rwgt>
</event>
<event>
 4      1 +6.9060000e-13 6.75131600e+03 7.81860800e-03 7.18447800e-02
        2 -1    0    0  501    0 +0.0000000000e+00 +0.0000000000e+00 +4.6443506509e+03 4.6443506509e+03 0.0000000000e+00 0.0000e+00 -1.0000e+00
       -2 -1    0    0    0  501 -0.0000000000e+00 -0.0000000000e+00 -2.4535330703e+03 2.4535330703e+03 0.0000000000e+00 0.0000e+00 1.0000e+00
      -13  1    1    2    0    0 +1.9102489631e+03 +9.0463423166e+02 +3.8625639489e+03 4.4030460426e+03 0.0000000000e+00 0.0000e+00 -1.0000e+00
       13  1    1    2    0    0 -1.9102489631e+03 -9.0463423166e+02 -1.6717463682e+03 2.6948376786e+03 0.0000000000e+00 0.0000e+00 1.0000e+00
<mgrwt>
<rscale>  0 0.67513163E+04</rscale>
<asrwt>0</asrwt>
<pdfrwt beam="1">  1        2 0.71451549E+00 0.67513163E+04</pdfrwt>
<pdfrwt beam="2">  1       -2 0.37746663E+00 0.67513163E+04</pdfrwt>
<totfact> 0.43353835E-04</totfact>
</mgrwt>
<rwgt>
<wgt id='morphing_basis_vector_1'> +2.5678777e-07 </wgt>
<wgt id='morphing_basis_vector_2'> +3.1692535e-07 </wgt>
<wgt id='morphing_basis_vector_3'> +3.1727610e-07 </wgt>
<wgt id='morphing_basis_vector_4'> +1.9906321e-08 </wgt>
<wgt id='morphing_basis_vector_5'> +2.3597156e-07 </wgt>
</rwgt>
</event>
<event>
 4      1 +6.9060000e-13 6.66254900e+03 7.81860800e-03 7.19305900e-02
        2 -1    0    0  501    0 +0.0000000000e+00 +0.0000000000e+00 +3.4274097495e+03 3.4274097495e+03 0.0000000000e+00 0.0000e+00 -1.0000e+00
       -2 -1    0    0    0  501 -0.0000000000e+00 -0.0000000000e+00 -3.2378359853e+03 3.2378359853e+03 0.0000000000e+00 0.0000e+00 1.0000e+00
      -13  1    1    2    0    0 -2.4740882749e+03 -7.9002893173e+02 -1.9922338763e+03 3.2732635584e+03 0.0000000000e+00 0.0000e+00 1.0000e+00
       13  1    1    2    0    0 +2.4740882749e+03 +7.9002893173e+02 +2.1818076405e+03 3.3919821764e+03 0.0000000000e+00 0.0000e+00 -1.0000e+00
<mgrwt>
<rscale>  0 0.66625492E+04</rscale>
<asrwt>0</asrwt>
<pdfrwt beam="1">  1        2 0.52729380E+00 0.66625492E+04</pdfrwt>
<pdfrwt beam="2">  1       -2 0.49812862E+00 0.66625492E+04</pdfrwt>
<totfact> 0.75587913E-04</totfact>
</mgrwt>
<rwgt>
<wgt id='morphing_basis_vector_1'> +1.8411230e-07 </wgt>
<wgt id='morphing_basis_vector_2'> +1.2612727e-07 </wgt>
<wgt id='morphing_basis_vector_3'> +2.0355600e-07 </wgt>
<wgt id='morphing_basis_vector_4'> +1.4628360e-07 </wgt>
<wgt id='morphing_basis_vector_5'> +2.3451645e-07 </wgt>
</rwgt>
</event>
<event>
 4      1 +6.9060000e-13 7.27874600e+03 7.81860800e-03 7.13609500e-02
        2 -1    0    0  501    0 +0.0000000000e+00 +0.0000000000e+00 +3.3961729516e+03 3.3961729516e+03 0.0000000000e+00 0.0000e+00 -1.0000e+00
       -2 -1    0    0    0  501 -0.0000000000e+00 -0.0000000000e+00 -3.8999885361e+03 3.8999885361e+03 0.0000000000e+00 0.0000e+00 1.0000e+00
      -13  1    1    2    0    0 +2.3332865211e+03 -6.1004359919e+02 -2.9839852817e+03 3.8367365486e+03 0.0000000000e+00 0.0000e+00 1.0000e+00
       13  1    1    2    0    0 -2.3332865211e+03 +6.1004359919e+02 +2.4801696972e+03 3.4594249391e+03 0.0000000000e+00 0.0000e+00 -1.0000e+00
<mgrwt>
<rscale>  0 0.72787459E+04</rscale>
<asrwt>0</asrwt>
<pdfrwt beam="1">  1        2 0.52248815E+00 0.72787459E+04</pdfrwt>
<pdfrwt beam="2">  1       -2 0.59999824E+00 0.72787459E+04</pdfrwt>
<totfact> 0.12958311E-04</totfact>
</mgrwt>
<rwgt>
<wgt id='morphing_basis_vector_1'> +2.6176993e-07 </wgt>
<wgt id='morphing_basis_vector_2'> +1.7862373e-07 </wgt>
<wgt id='morphing_basis_vector_3'> +2.8939633e-07 </wgt>
<wgt id='morphing_basis_vector_4'> +2.0923282e-07 </wgt>
<wgt id='morphing_basis_vector_5'> +3.3432523e-07 </wgt>
</rwgt>
</event>
<event>
 4      1 +6.9060000e-13 7.05452600e+03 7.81860800e-03 7.15614200e-02
        2 -1    0    0  501    0 +0.0000000000e+00 +0.0000000000e+00 +2.2046165305e+03 2.2046165305e+03 0.0000000000e+00 0.0000e+00 1.0000e+00
       -2 -1    0    0    0  501 -0.0000000000e+00 -0.0000000000e+00 -5.6434226719e+03 5.6434226719e+03 0.0000000000e+00 0.0000e+00 -1.0000e+00
      -13  1    1    2    0    0 +3.2543661455e+03 -8.0893136734e+02 -2.9361939106e+03 4.4571856195e+03 0.0000000000e+00 0.0000e+00 -1.0000e+00
       13  1    1    2    0    0 -3.2543661455e+03 +8.0893136734e+02 -5.0261223075e+02 3.3908535829e+03 0.0000000000e+00 0.0000e+00 1.0000e+00
<mgrwt>
<rscale>  0 0.70545256E+04</rscale>
<asrwt>0</asrwt>
<pdfrwt beam="1">  1        2 0.33917178E+00 0.70545256E+04</pdfrwt>
<pdfrwt beam="2">  1       -2 0.86821885E+00 0.70545256E+04</pdfrwt>
<totfact> 0.16623431E-04</totfact>
</mgrwt>
<rwgt>
<wgt id='morphing_basis_vector_1'> +2.3336697e-07 </wgt>
<wgt id='morphing_basis_vector_2'> +1.6450552e-07 </wgt>
<wgt id='morphing_basis_vector_3'> +2.5919950e-07 </wgt>
<wgt id='morphing_basis_vector_4'> +1.7955316e-07 </wgt>
<wgt id='morphing_basis_vector_5'> +2.9451376e-07 </wgt>
</rwgt>
</event>
<event>
 4      1 +6.9060000e-13 6.90332800e+03 7.81860800e-03 7.17008800e-02
        2 -1    0    0  501    0 +0.0000000000e+00 +0.0000000000e+00 +4.7078868870e+03 4.7078868870e+03 0.0000000000e+00 0.0000e+00 -1.0000e+00
       -2 -1    0    0    0  501 -0.0000000000e+00 -0.0000000000e+00 -2.5306437927e+03 2.5306437927e+03 0.0000000000e+00 0.0000e+00 1.0000e+00
      -13  1    1    2    0    0 -3.1105551841e+02 -1.2770157405e+03 -2.2579764448e+03 2.6126581028e+03 0.0000000000e+00 0.0000e+00 1.0000e+00
       13  1    1    2    0    0 +3.1105551841e+02 +1.2770157405e+03 +4.4352195391e+03 4.6258725768e+03 0.0000000000e+00 0.0000e+00 -1.0000e+00
<mgrwt>
<rscale>  0 0.69033281E+04</rscale>
<asrwt>0</asrwt>
<pdfrwt beam="1">  1        2 0.72429029E+00 0.69033281E+04</pdfrwt>
<pdfrwt beam="2">  1       -2 0.38932982E+00 0.69033281E+04</pdfrwt>
<totfact> 0.30478317E-04</totfact>
</mgrwt>
<rwgt>
<wgt id='morphing_basis_vector_1'> +2.1170956e-07 </wgt>
<wgt id='morphing_basis_vector_2'> +1.4406258e-07 </wgt>
<wgt id='morphing_basis_vector_3'> +2.3388874e-07 </wgt>
<wgt id='morphing_basis_vector_4'> +1.6959042e-07 </wgt>
<wgt id='morphing_basis_vector_5'> +2.7044553e-07 </wgt>
</rwgt>
</event>
<event>
 4      1 +6.9060000e-13 7.27364300e+03 7.81860800e-03 7.13654300e-02
        2 -1    0    0  501    0 +0.0000000000e+00 +0.0000000000e+00 +4.1994246345e+03 4.1994246345e+03 0.0000000000e+00 0.0000e+00 -1.0000e+00
       -2 -1    0    0    0  501 -0.0000000000e+00 -0.0000000000e+00 -3.1495910191e+03 3.1495910191e+03 0.0000000000e+00 0.0000e+00 1.0000e+00
      -13  1    1    2    0    0 -1.8054931717e+03 -3.0656157068e+03 -2.3699621244e+02 3.5656657807e+03 0.0000000000e+00 0.0000e+00 1.0000e+00
       13  1    1    2    0    0 +1.8054931717e+03 +3.0656157068e+03 +1.2868298278e+03 3.7833498729e+03 0.0000000000e+00 0.0000e+00 -1.0000e+00
<mgrwt>
<rscale>  0 0.72736429E+04</rscale>
<asrwt>0</asrwt>
<pdfrwt beam="1">  1        2 0.64606533E+00 0.72736429E+04</pdfrwt>
<pdfrwt beam="2">  1       -2 0.48455246E+00 0.72736429E+04</pdfrwt>
<totfact> 0.21716399E-04</totfact>
</mgrwt>
<rwgt>
<wgt id='morphing_basis_vector_1'> +2.6520678e-07 </wgt>
<wgt id='morphing_basis_vector_2'> +1.9035603e-07 </wgt>
<wgt id='morphing_basis_vector_3'> +2.9542348e-07 </wgt>
<wgt id='morphing_basis_vector_4'> +1.9970200e-07 </wgt>
<wgt id='morphing_basis_vector_5'> +3.3263314e-07 </wgt>
</rwgt>
</event>
<event>
 4      1 +6.9060000e-13 7.21305400e+03 7.81860800e-03 7.14189200e-02
        2 -1    0    0  501    0 +0.0000000000e+00 +0.0000000000e+00 +4.5496715981e+03 4.5496715981e+03 0.0000000000e+00 0.0000e+00 1.0000e+00
       -2 -1    0    0    0  501 -0.0000000000e+00 -0.0000000000e+00 -2.8588955553e+03 2.8588955553e+03 0.0000000000e+00 0.0000e+00 -1.0000e+00
      -13  1    1    2    0    0 +1.9471930784e+03 +1.9850925005e+03 -1.5135767947e+03 3.1659229039e+03 0.0000000000e+00 0.0000e+00 -1.0000e+00
       13  1    1    2    0    0 -1.9471930784e+03 -1.9850925005e+03 +3.2043528375e+03 4.2426442495e+03 0.0000000000e+00 0.0000e+00 1.0000e+00
<mgrwt>
<rscale>  0 0.72130537E+04</rscale>
<asrwt>0</asrwt>
<pdfrwt beam="1">  1        2 0.69994948E+00 0.72130537E+04</pdfrwt>
<pdfrwt beam="2">  1       -2 0.43983008E+00 0.72130537E+04</pdfrwt>
<totfact> 0.20580694E-04</totfact>
</mgrwt>
<rwgt>
<wgt id='morphing_basis_vector_1'> +2.5275425e-07 </wgt>
<wgt id='morphing_basis_vector_2'> +1.7312537e-07 </wgt>
<wgt id='morphing_basis_vector_3'> +2.7957081e-07 </wgt>
<wgt id='morphing_basis_vector_4'> +2.0114185e-07 </wgt>
<wgt id='morphing_basis_vector_5'> +3.2234762e-07 </wgt>
</rwgt>
</event>
<event>
 4      1 +6.9060000e-13 6.85156500e+03 7.81860800e-03 7.17494600e-02
        2 -1    0    0  501    0 +0.0000000000e+00 +0.0000000000e+00 +2.9935830220e+03 2.9935830220e+03 0.0000000000e+00 0.0000e+00 -1.0000e+00
       -2 -1    0    0    0  501 -0.0000000000e+00 -0.0000000000e+00 -3.9203812101e+03 3.9203812101e+03 0.0000000000e+00 0.0000e+00 1.0000e+00
      -13  1    1    2    0    0 -1.0084661184e+03 -2.8801410921e+03 +1.1076256790e+03 3.2463904983e+03 0.0000000000e+00 0.0000e+00 1.0000e+00
       13  1    1    2    0    0 +1.0084661184e+03 +2.8801410921e+03 -2.0344238670e+03 3.6675737338e+03 0.0000000000e+00 0.0000e+00 -1.0000e+00
<mgrwt>
<rscale>  0 0.68515653E+04</rscale>
<asrwt>0</asrwt>
<pdfrwt beam="1">  1        2 0.46055124E+00 0.68515653E+04</pdfrwt>
<pdfrwt beam="2">  1       -2 0.60313556E+00 0.68515653E+04</pdfrwt>
<totfact> 0.23427052E-04</totfact>
</mgrwt>
<rwgt>
<wgt id='morphing_basis_vector_1'> +2.3890920e-07 </wgt>
<wgt id='morphing_basis_vector_2'> +2.3800013e-07 </wgt>
<wgt id='morphing_basis_vector_3'> +2.8177834e-07 </wgt>
<wgt id='morphing_basis_vector_4'> +9.2810644e-08 </wgt>
<wgt id='morphing_basis_vector_5'> +2.5636656e-07 </wgt>
</rwgt>
</event>
<event>
 4      1 +6.9060000e-13 6.67942600e+03 7.81860800e-03 7.19141700e-02
        2 -1    0    0  501    0 +0.0000000000e+00 +0.0000000000e+00 +4.6828720177e+03 4.6828720177e+03 0.0000000000e+00 0.0000e+00 1.0000e+00
       -2 -1    0    0    0  501 -0.0000000000e+00 -0.0000000000e+00 -2.3818040374e+03 2.3818040374e+03 0.0000000000e+00 0.0000e+00 -1.0000e+00
      -13  1    1    2    0    0 +2.3394045400e+03 +1.6742325202e+03 +2.9447906250e+03 4.1167535703e+03 0.0000000000e+00 0.0000e+00 -1.0000e+00
       13  1    1    2    0    0 -2.3394045400e+03 -1.6742325202e+03 -6.4372264472e+02 2.9479224849e+03 0.0000000000e+00 0.0000e+00 1.0000e+00
<mgrwt>
<rscale>  0 0.66794262E+04</rscale>
<asrwt>0</asrwt>
<pdfrwt beam="1">  1        2 0.72044185E+00 0.66794262E+04</pdfrwt>
<pdfrwt beam="2">  1       -2 0.36643139E+00 0.66794262E+04</pdfrwt>
<totfact> 0.46478046E-04</totfact>
</mgrwt>
<rwgt>
<wgt id='morphing_basis_vector_1'> +2.2060529e-07 </wgt>
<wgt id='morphing_basis_vector_2'> +2.2901395e-07 </wgt>
<wgt id='morphing_basis_vector_3'> +2.6231394e-07 </wgt>
<wgt id='morphing_basis_vector_4'> +7.3580131e-08 </wgt>
<wgt id='morphing_basis_vector_5'> +2.3065621e-07 </wgt>
</rwgt>
</event>
<event>
 4      1 +6.9060000e-13 7.82673400e+03 7.81860800e-03 7.09001000e-02
        2 -1    0    0  501    0 +0.0000000000e+00 +0.0000000000e+00 +4.4683810601e+03 4.4683810601e+03 0.0000000000e+00 0.0000e+00 1.0000e+00
       -2 -1    0    0    0  501 -0.0000000000e+00 -0.0000000000e+00 -3.4272905481e+03 3.4272905481e+03 0.0000000000e+00 0.0000e+00 -1.0000e+00
      -13  1    1    2    0    0 -1.0067705343e+03 -2.5007040874e+03 -2.3412231653e+03 3.5704948889e+03 0.0000000000e+00 0.0000e+00 -1.0000e+00
       13  1    1    2    0    0 +1.0067705343e+03 +2.5007040874e+03 +3.3823136773e+03 4.3251767193e+03 0.0000000000e+00 0.0000e+00 1.0000e+00
<mgrwt>
<rscale>  0 0.78267337E+04</rscale>
<asrwt>0</asrwt>
<pdfrwt beam="1">  1        2 0.68744324E+00 0.78267337E+04</pdfrwt>
<pdfrwt beam="2">  1       -2 0.52727547E+00 0.78267337E+04</pdfrwt>
<totfact> 0.55096418E-05</totfact>
</mgrwt>
<rwgt>
<wgt id='morphing_basis_vector_1'> +3.4987957e-07 </wgt>
<wgt id='morphing_basis_vector_2'> +2.3896241e-07 </wgt>
<wgt id='morphing_basis_vector_3'> +3.8699391e-07 </wgt>
<wgt id='morphing_basis_vector_4'> +2.7968461e-07 </wgt>
<wgt id='morphing_basis_vector_5'> +4.4712440e-07 </wgt>
</rwgt>
</event>
<event>
 4      1 +6.9060000e-13 6.76675500e+03 7.81860800e-03 7.18299900e-02
        2 -1    0    0  501    0 +0.0000000000e+00 +0.0000000000e+00 +3.7389620214e+03 3.7389620214e+03 0.0000000000e+00 0.0000e+00 -1.0000e+00
       -2 -1    0    0    0  501 -0.0000000000e+00 -0.0000000000e+00 -3.0616098220e+03 3.0616098220e+03 0.0000000000e+00 0.0000e+00 1.0000e+00
      -13  1    1    2    0    0 -2.8264408311e+03 -8.7990602189e+02 -1.3078768418e+03 3.2362855579e+03 0.0000000000e+00 0.0000e+00 1.0000e+00
       13  1    1    2    0    0 +2.8264408311e+03 +8.7990602189e+02 +1.9852290412e+03 3.5642862855e+03 0.0000000000e+00 0.0000e+00 -1.0000e+00
<mgrwt>
<rscale>  0 0.67667549E+04</rscale>
<asrwt>0</asrwt>
<pdfrwt beam="1">  1        2 0.57522493E+00 0.67667549E+04</pdfrwt>
<pdfrwt beam="2">  1       -2 0.47101689E+00 0.67667549E+04</pdfrwt>
<totfact> 0.69543361E-04</totfact>
</mgrwt>
<rwgt>
<wgt id='morphing_basis_vector_1'> +1.9641424e-07 </wgt>
<wgt id='morphing_basis_vector_2'> +1.3576208e-07 </wgt>
<wgt id='morphing_basis_vector_3'> +2.1746365e-07 </wgt>
<wgt id='morphing_basis_vector_4'> +1.5452736e-07 </wgt>
<wgt id='morphing_basis_vector_5'> +2.4946710e-07 </wgt>
</rwgt>
</event>
<event>
 4      1 +6.9060000e-13 6.76025900e+03 7.81860800e-03 7.18362100e-02
        2 -1    0    0  501    0 +0.0000000000e+00 +0.0000000000e+00 +4.1116104087e+03 4.1116104087e+03 0.0000000000e+00 0.0000e+00 -1.0000e+00
       -2 -1    0    0    0  501 -0.0000000000e+00 -0.0000000000e+00 -2.7787837985e+03 2.7787837985e+03 0.0000000000e+00 0.0000e+00 1.0000e+00
      -13  1    1    2    0    0 +3.0078552179e+03 +1.3676703914e+03 +1.3925608470e+03 3.5856576836e+03 0.0000000000e+00 0.0000e+00 1.0000e+00
       13  1    1    2    0    0 -3.0078552179e+03 -1.3676703914e+03 -5.9734236751e+01 3.3047365236e+03 0.0000000000e+00 0.0000e+00 -1.0000e+00
<mgrwt>
<rscale>  0 0.67602593E+04</rscale>
<asrwt>0</asrwt>
<pdfrwt beam="1">  1        2 0.63255545E+00 0.67602593E+04</pdfrwt>
<pdfrwt beam="2">  1       -2 0.42750520E+00 0.67602593E+04</pdfrwt>
<totfact> 0.68461757E-04</totfact>
</mgrwt>
<rwgt>
<wgt id='morphing_basis_vector_1'> +2.0959235e-07 </wgt>
<wgt id='morphing_basis_vector_2'> +1.7611857e-07 </wgt>
<wgt id='morphing_basis_vector_3'> +2.3944263e-07 </wgt>
<wgt id='morphing_basis_vector_4'> +1.2407909e-07 </wgt>
<wgt id='morphing_basis_vector_5'> +2.4599375e-07 </wgt>
</rwgt>
</event>
<event>
 4      1 +6.9060000e-13 6.74027200e+03 7.81860800e-03 7.18553800e-02
        2 -1    0    0  501    0 +0.0000000000e+00 +0.0000000000e+00 +3.5634958197e+03 3.5634958197e+03 0.0000000000e+00 0.0000e+00 1.0000e+00
       -2 -1    0    0    0  501 -0.0000000000e+00 -0.0000000000e+00 -3.1872677735e+03 3.1872677735e+03 0.0000000000e+00 0.0000e+00 -1.0000e+00
      -13  1    1    2    0    0 -3.7374263288e+02 -1.6786162431e+03 -2.7147383523e+03 3.2136023974e+03 0.0000000000e+00 0.0000e+00 -1.0000e+00
       13  1    1    2    0    0 +3.7374263288e+02 +1.6786162431e+03 +3.0909663985e+03 3.5371611957e+03 0.0000000000e+00 0.0000e+00 1.0000e+00
<mgrwt>
<rscale>  0 0.67402716E+04</rscale>
<asrwt>0</asrwt>
<pdfrwt beam="1">  1        2 0.54823013E+00 0.67402716E+04</pdfrwt>
<pdfrwt beam="2">  1       -2 0.49034889E+00 0.67402716E+04</pdfrwt>
<totfact> 0.68334147E-04</totfact>
</mgrwt>
<rwgt>
<wgt id='morphing_basis_vector_1'> +1.9246987e-07 </wgt>
<wgt id='morphing_basis_vector_2'> +1.3103023e-07 </wgt>
<wgt id='morphing_basis_vector_3'> +2.1261716e-07 </wgt>
<wgt id='morphing_basis_vector_4'> +1.5403218e-07 </wgt>
<wgt id='morphing_basis_vector_5'> +2.4573913e-07 </wgt>
</rwgt>
</event>
<event>
 4      1 +6.9060000e-13 7.00960100e+03 7.81860800e-03 7.16024800e-02
        2 -1    0    0  501    0 +0.0000000000e+00 +0.0000000000e+00 +2.4774799141e+03 2.4774799141e+03 0.0000000000e+00 0.0000e+00 -1.0000e+00
       -2 -1    0    0    0  501 -0.0000000000e+00 -0.0000000000e+00 -4.9581137452e+03 4.9581137452e+03 0.0000000000e+00 0.0000e+00 1.0000e+00
      -13  1    1    2    0    0 +8.4851042162e+02 +3.3960568202e+03 -1.0551965639e+03 3.6560376981e+03 0.0000000000e+00 0.0000e+00 1.0000e+00
       13  1    1    2    0    0 -8.4851042162e+02 -3.3960568202e+03 -1.4254372672e+03 3.7795559612e+03 0.0000000000e+00 0.0000e+00 -1.0000e+00
<mgrwt>
<rscale>  0 0.70096012E+04</rscale>
<asrwt>0</asrwt>
<pdfrwt beam="1">  1        2 0.38115076E+00 0.70096012E+04</pdfrwt>
<pdfrwt beam="2">  1       -2 0.76278673E+00 0.70096012E+04</pdfrwt>
<totfact> 0.27106595E-04</totfact>
</mgrwt>
<rwgt>
<wgt id='morphing_basis_vector_1'> +2.3491155e-07 </wgt>
<wgt id='morphing_basis_vector_2'> +1.8213862e-07 </wgt>
<wgt id='morphing_basis_vector_3'> +2.6482574e-07 </wgt>
<wgt id='morphing_basis_vector_4'> +1.5909926e-07 </wgt>
<wgt id='morphing_basis_vector_5'> +2.8572985e-07 </wgt>
</rwgt>
</event>
<event>
 4      1 +6.9060000e-13 6.82377700e+03 7.81860800e-03 7.17757100e-02
        2 -1    0    0  501    0 +0.0000000000e+00 +0.0000000000e+00 +4.2621914208e+03 4.2621914208e+03 0.0000000000e+00 0.0000e+00 1.0000e+00
       -2 -1    0    0    0  501 -0.0000000000e+00 -0.0000000000e+00 -2.7312198784e+03 2.7312198784e+03 0.0000000000e+00 0.0000e+00 -1.0000e+00
      -13  1    1    2    0    0 -5.8504728718e+02 +2.2420658683e+03 -1.8011357454e+03 2.9348304311e+03 0.0000000000e+00 0.0000e+00 -1.0000e+00
       13  1    1    2    0    0 +5.8504728718e+02 -2.2420658683e+03 +3.3321072878e+03 4.0585808681e+03 0.0000000000e+00 0.0000e+00 1.0000e+00
<mgrwt>
<rscale>  0 0.68237766E+04</rscale>
<asrwt>0</asrwt>
<pdfrwt beam="1">  1        2 0.65572176E+00 0.68237766E+04</pdfrwt>
<pdfrwt beam="2">  1       -2 0.42018767E+00 0.68237766E+04</pdfrwt>
<totfact> 0.55552218E-04</totfact>
</mgrwt>
<rwgt>
<wgt id='morphing_basis_vector_1'> +2.0231595e-07 </wgt>
<wgt id='morphing_basis_vector_2'> +1.3807232e-07 </wgt>
<wgt id='morphing_basis_vector_3'> +2.2359081e-07 </wgt>
<wgt id='morphing_basis_vector_4'> +1.6150637e-07 </wgt>
<wgt id='morphing_basis_vector_5'> +2.5814044e-07 </wgt>
</rwgt>
</event>
<event>
 4      1 +6.9060000e-13 7.31451300e+03 7.81860800e-03 7.13296400e-02
        2 -1    0    0  501    0 +0.0000000000e+00 +0.0000000000e+00 +2.5799154472e+03 2.5799154472e+03 0.0000000000e+00 0.0000e+00 -1.0000e+00
       -2 -1    0    0    0  501 -0.0000000000e+00 -0.0000000000e+00 -5.1844824749e+03 5.1844824749e+03 0.0000000000e+00 0.0000e+00 1.0000e+00
      -13  1    1    2    0    0 +8.6107765751e+02 +3.2862376370e+03 +1.3554310967e+02 3.3998800675e+03 0.0000000000e+00 0.0000e+00 1.0000e+00
       13  1    1    2    0    0 -8.6107765751e+02 -3.2862376370e+03 -2.7401101373e+03 4.3645178546e+03 0.0000000000e+00 0.0000e+00 -1.0000e+00
<mgrwt>
<rscale>  0 0.73145134E+04</rscale>
<asrwt>0</asrwt>
<pdfrwt beam="1">  1        2 0.39691007E+00 0.73145134E+04</pdfrwt>
<pdfrwt beam="2">  1       -2 0.79761268E+00 0.73145134E+04</pdfrwt>
<totfact> 0.23197487E-04</totfact>
</mgrwt>
<rwgt>
<wgt id='morphing_basis_vector_1'> +3.0066590e-07 </wgt>
<wgt id='morphing_basis_vector_2'> +2.8109762e-07 </wgt>
<wgt id='morphing_basis_vector_3'> +3.5043852e-07 </wgt>
<wgt id='morphing_basis_vector_4'> +1.4103628e-07 </wgt>
<wgt id='morphing_basis_vector_5'> +3.3485495e-07 </wgt>
</rwgt>
</event>
<event>
 4      1 +6.9060000e-13 7.23870900e+03 7.81860800e-03 7.13962100e-02
        2 -1    0    0  501    0 +0.0000000000e+00 +0.0000000000e+00 +3.6830200417e+03 3.6830200417e+03 0.0000000000e+00 0.0000e+00 -1.0000e+00
       -2 -1    0    0    0  501 -0.0000000000e+00 -0.0000000000e+00 -3.5567897130e+03 3.5567897130e+03 0.0000000000e+00 0.0000e+00 1.0000e+00
      -13  1    1    2    0    0 +1.2449815076e+03 +3.0362540531e+03 -1.4638488101e+03 3.5932813650e+03 0.0000000000e+00 0.0000e+00 1.0000e+00
       13  1    1    2    0    0 -1.2449815076e+03 -3.0362540531e+03 +1.5900791389e+03 3.6465283897e+03 0.0000000000e+00 0.0000e+00 -1.0000e+00
<mgrwt>
<rscale>  0 0.72387092E+04</rscale>
<asrwt>0</asrwt>
<pdfrwt beam="1">  1        2 0.56661847E+00 0.72387092E+04</pdfrwt>
<pdfrwt beam="2">  1       -2 0.54719842E+00 0.72387092E+04</pdfrwt>
<totfact> 0.20371164E-04</totfact>
</mgrwt>
<rwgt>
<wgt id='morphing_basis_vector_1'> +2.5755048e-07 </wgt>
<wgt id='morphing_basis_vector_2'> +1.7908210e-07 </wgt>
<wgt id='morphing_basis_vector_3'> +2.8551547e-07 </wgt>
<wgt id='morphing_basis_vector_4'> +2.0147741e-07 </wgt>
<wgt id='morphing_basis_vector_5'> +3.2675067e-07 </wgt>
</rwgt>
</event>
<event>
 4      1 +6.9060000e-13 6.96467100e+03 7.81860800e-03 7.16438700e-02
        2 -1    0    0  501    0 +0.0000000000e+00 +0.0000000000e+00 +2.4450416270e+03 2.4450416270e+03 0.0000000000e+00 0.0000e+00 1.0000e+00
       -2 -1    0    0    0  501 -0.0000000000e+00 -0.0000000000e+00 -4.9596956070e+03 4.9596956070e+03 0.0000000000e+00 0.0000e+00 -1.0000e+00
      -13  1    1    2    0    0 +1.1897030269e+03 +1.7914303311e+03 -4.1693773788e+03 4.6913029801e+03 0.0000000000e+00 0.0000e+00 -1.0000e+00
       13  1    1    2    0    0 -1.1897030269e+03 -1.7914303311e+03 +1.6547233989e+03 2.7134342539e+03 0.0000000000e+00 0.0000e+00 1.0000e+00
<mgrwt>
<rscale>  0 0.69646715E+04</rscale>
<asrwt>0</asrwt>
<pdfrwt beam="1">  1        2 0.37616025E+00 0.69646715E+04</pdfrwt>
<pdfrwt beam="2">  1       -2 0.76303009E+00 0.69646715E+04</pdfrwt>
<totfact> 0.28445801E-04</totfact>
</mgrwt>
<rwgt>
<wgt id='morphing_basis_vector_1'> +2.1943630e-07 </wgt>
<wgt id='morphing_basis_vector_2'> +1.4958305e-07 </wgt>
<wgt id='morphing_basis_vector_3'> +2.4249959e-07 </wgt>
<wgt id='morphing_basis_vector_4'> +1.7546462e-07 </wgt>
<wgt id='morphing_basis_vector_5'> +2.8018291e-07 </wgt>
</rwgt>
</event>
<event>
 4      1 +6.9060000e-13 7.07784700e+03 7.81860800e-03 7.15402200e-02
        2 -1    0    0  501    0 +0.0000000000e+00 +0.0000000000e+00 +3.7284528295e+03 3.7284528295e+03 0.0000000000e+00 0.0000e+00 1.0000e+00
       -2 -1    0    0    0  501 -0.0000000000e+00 -0.0000000000e+00 -3.3590284037e+03 3.3590284037e+03 0.0000000000e+00 0.0000e+00 -1.0000e+00
      -13  1    1    2    0    0 +1.4350490938e+03 -3.2329514209e+03 +7.2139592688e+01 3.5378729361e+03 0.0000000000e+00 0.0000e+00 -1.0000e+00
       13  1    1    2    0    0 -1.4350490938e+03 +3.2329514209e+03 +2.9728483312e+02 3.5496082972e+03 0.0000000000e+00 0.0000e+00 1.0000e+00
<mgrwt>
<rscale>  0 0.70778468E+04</rscale>
<asrwt>0</asrwt>
<pdfrwt beam="1">  1        2 0.57360813E+00 0.70778468E+04</pdfrwt>
<pdfrwt beam="2">  1       -2 0.51677360E+00 0.70778468E+04</pdfrwt>
<totfact> 0.31637180E-04</totfact>
</mgrwt>
<rwgt>
<wgt id='morphing_basis_vector_1'> +2.4156659e-07 </wgt>
<wgt id='morphing_basis_vector_2'> +1.8166502e-07 </wgt>
<wgt id='morphing_basis_vector_3'> +2.7100987e-07 </wgt>
<wgt id='morphing_basis_vector_4'> +1.7099819e-07 </wgt>
<wgt id='morphing_basis_vector_5'> +2.9751127e-07 </wgt>
</rwgt>
</event>
<event>
 4      1 +6.9060000e-13 7.66268900e+03 7.81860800e-03 7.10339900e-02
        2 -1    0    0  501    0 +0.0000000000e+00 +0.0000000000e+00 +3.5626849802e+03 3.5626849802e+03 0.0000000000e+00 0.0000e+00 -1.0000e+00
       -2 -1    0    0    0  501 -0.0000000000e+00 -0.0000000000e+00 -4.1202638778e+03 4.1202638778e+03 0.0000000000e+00 0.0000e+00 1.0000e+00
      -13  1    1    2    0    0 +9.6240117960e+02 +3.5058030131e+03 -1.4912556128e+03 3.9294674067e+03 0.0000000000e+00 0.0000e+00 1.0000e+00
       13  1    1    2    0    0 -9.6240117960e+02 -3.5058030131e+03 +9.3367671521e+02 3.7534814514e+03 0.0000000000e+00 0.0000e+00 -1.0000e+00
<mgrwt>
<rscale>  0 0.76626894E+04</rscale>
<asrwt>0</asrwt>
<pdfrwt beam="1">  1        2 0.54810538E+00 0.76626894E+04</pdfrwt>
<pdfrwt beam="2">  1       -2 0.63388675E+00 0.76626894E+04</pdfrwt>
<totfact> 0.37135467E-05</totfact>
</mgrwt>
<rwgt>
<wgt id='morphing_basis_vector_1'> +3.2461094e-07 </wgt>
<wgt id='morphing_basis_vector_2'> +2.2870658e-07 </wgt>
<wgt id='morphing_basis_vector_3'> +3.6067591e-07 </wgt>
<wgt id='morphing_basis_vector_4'> +2.5024269e-07 </wgt>
<wgt id='morphing_basis_vector_5'> +4.1019006e-07 </wgt>
</rwgt>
</event>
<event>
 4      1 +6.9060000e-13 6.83068400e+03 7.81860800e-03 7.17691800e-02
        2 -1    0    0  501    0 +0.0000000000e+00 +0.0000000000e+00 +3.6966781242e+03 3.6966781242e+03 0.0000000000e+00 0.0000e+00 1.0000e+00
       -2 -1    0    0    0  501 -0.0000000000e+00 -0.0000000000e+00 -3.1554165591e+03 3.1554165591e+03 0.0000000000e+00 0.0000e+00 -1.0000e+00
      -13  1    1    2    0    0 -1.4252712936e+03 +4.0793594542e+02 -2.8158219522e+03 3.1822418610e+03 0.0000000000e+00 0.0000e+00 -1.0000e+00
       13  1    1    2    0    0 +1.4252712936e+03 -4.0793594542e+02 +3.3570835172e+03 3.6698528223e+03 0.0000000000e+00 0.0000e+00 1.0000e+00
<mgrwt>
<rscale>  0 0.68306835E+04</rscale>
<asrwt>0</asrwt>
<pdfrwt beam="1">  1        2 0.56871971E+00 0.68306835E+04</pdfrwt>
<pdfrwt beam="2">  1       -2 0.48544870E+00 0.68306835E+04</pdfrwt>
<totfact> 0.58464070E-04</totfact>
</mgrwt>
<rwgt>
<wgt id='morphing_basis_vector_1'> +2.0296268e-07 </wgt>
<wgt id='morphing_basis_vector_2'> +1.3812654e-07 </wgt>
<wgt id='morphing_basis_vector_3'> +2.2421529e-07 </wgt>
<wgt id='morphing_basis_vector_4'> +1.6253143e-07 </wgt>
<wgt id='morphing_basis_vector_5'> +2.5922004e-07 </wgt>
</rwgt>
</event>
<event>
 4      1 +6.9060000e-13 7.42335200e+03 7.81860800e-03 7.12354800e-02
        2 -1    0    0  501    0 +0.0000000000e+00 +0.0000000000e+00 +3.9137226184e+03 3.9137226184e+03 0.0000000000e+00 0.0000e+00 -1.0000e+00
       -2 -1    0    0    0  501 -0.0000000000e+00 -0.0000000000e+00 -3.5200600557e+03 3.5200600557e+03 0.0000000000e+00 0.0000e+00 1.0000e+00
      -13  1    1    2    0    0 -1.3102104788e+03 -1.6924989240e+03 -2.8398105786e+03 3.5560832708e+03 0.0000000000e+00 0.0000e+00 1.0000e+00
       13  1    1    2    0    0 +1.3102104788e+03 +1.6924989240e+03 +3.2334731413e+03 3.8776994033e+03 0.0000000000e+00 0.0000e+00 -1.0000e+00
<mgrwt>
<rscale>  0 0.74233520E+04</rscale>
<asrwt>0</asrwt>
<pdfrwt beam="1">  1        2 0.60211117E+00 0.74233520E+04</pdfrwt>
<pdfrwt beam="2">  1       -2 0.54154770E+00 0.74233520E+04</pdfrwt>
<totfact> 0.14439649E-04</totfact>
</mgrwt>
<rwgt>
<wgt id='morphing_basis_vector_1'> +2.8304568e-07 </wgt>
<wgt id='morphing_basis_vector_2'> +1.9288397e-07 </wgt>
<wgt id='morphing_basis_vector_3'> +3.1288805e-07 </wgt>
<wgt id='morphing_basis_vector_4'> +2.2664663e-07 </wgt>
<wgt id='morphing_basis_vector_5'> +3.6175904e-07 </wgt>
</rwgt>
</event>
<event>
 4      1 +6.9060000e-13 7.08707300e+03 7.81860800e-03 7.15318500e-02
        2 -1    0    0  501    0 +0.0000000000e+00 +0.0000000000e+00 +4.7158528902e+03 4.7158528902e+03 0.0000000000e+00 0.0000e+00 1.0000e+00
       -2 -1    0    0    0  501 -0.0000000000e+00 -0.0000000000e+00 -2.6626465129e+03 2.6626465129e+03 0.0000000000e+00 0.0000e+00 -1.0000e+00
      -13  1    1    2    0    0 +1.2837601556e+01 -9.2835168804e+02 -2.5337635804e+03 2.6985106155e+03 0.0000000000e+00 0.0000e+00 -1.0000e+00
       13  1    1    2    0    0 -1.2837601556e+01 +9.2835168804e+02 +4.5869699576e+03 4.6799887877e+03 0.0000000000e+00 0.0000e+00 1.0000e+00
<mgrwt>
<rscale>  0 0.70870725E+04</rscale>
<asrwt>0</asrwt>
<pdfrwt beam="1">  1        2 0.72551583E+00 0.70870725E+04</pdfrwt>
<pdfrwt beam="2">  1       -2 0.40963792E+00 0.70870725E+04</pdfrwt>
<totfact> 0.21692304E-04</totfact>
</mgrwt>
<rwgt>
<wgt id='morphing_basis_vector_1'> +2.3511241e-07 </wgt>
<wgt id='morphing_basis_vector_2'> +1.5997848e-07 </wgt>
<wgt id='morphing_basis_vector_3'> +2.5978001e-07 </wgt>
<wgt id='morphing_basis_vector_4'> +1.8843639e-07 </wgt>
<wgt id='morphing_basis_vector_5'> +3.0046242e-07 </wgt>
</rwgt>
</event>
<event>
 4      1 +6.9060000e-13 6.81402800e+03 7.81860800e-03 7.17849500e-02
        2 -1    0    0  501    0 +0.0000000000e+00 +0.0000000000e+00 +4.4637676447e+03 4.4637676447e+03 0.0000000000e+00 0.0000e+00 1.0000e+00
       -2 -1    0    0    0  501 -0.0000000000e+00 -0.0000000000e+00 -2.6004363783e+03 2.6004363783e+03 0.0000000000e+00 0.0000e+00 -1.0000e+00
      -13  1    1    2    0    0 -2.9936794244e+03 -1.3598750209e+03 +6.5074094225e+00 3.2880722186e+03 0.0000000000e+00 0.0000e+00 -1.0000e+00
       13  1    1    2    0    0 +2.9936794244e+03 +1.3598750209e+03 +1.8568238570e+03 3.7761318044e+03 0.0000000000e+00 0.0000e+00 1.0000e+00
<mgrwt>
<rscale>  0 0.68140278E+04</rscale>
<asrwt>0</asrwt>
<pdfrwt beam="1">  1        2 0.68673348E+00 0.68140278E+04</pdfrwt>
<pdfrwt beam="2">  1       -2 0.40006713E+00 0.68140278E+04</pdfrwt>
<totfact> 0.47882751E-04</totfact>
</mgrwt>
<rwgt>
<wgt id='morphing_basis_vector_1'> +2.0368026e-07 </wgt>
<wgt id='morphing_basis_vector_2'> +1.4466841e-07 </wgt>
<wgt id='morphing_basis_vector_3'> +2.2643700e-07 </wgt>
<wgt id='morphing_basis_vector_4'> +1.5519101e-07 </wgt>
<wgt id='morphing_basis_vector_5'> +2.5621154e-07 </wgt>
</rwgt>
</event>
<event>
 4      1 +6.9060000e-13 6.83698400e+03 7.81860800e-03 7.17632200e-02
        2 -1    0    0  501    0 +0.0000000000e+00 +0.0000000000e+00 +4.1783461782e+03 4.1783461782e+03 0.0000000000e+00 0.0000e+00 1.0000e+00
       -2 -1    0    0    0  501 -0.0000000000e+00 -0.0000000000e+00 -2.7968209550e+03 2.7968209550e+03 0.0000000000e+00 0.0000e+00 -1.0000e+00
      -13  1    1    2    0    0 +3.4663322893e+02 -2.7745739065e+03 -1.3156250737e+03 3.0901916272e+03 0.0000000000e+00 0.0000e+00 -1.0000e+00
       13  1    1    2    0    0 -3.4663322893e+02 +2.7745739065e+03 +2.6971502970e+03 3.8849755060e+03 0.0000000000e+00 0.0000e+00 1.0000e+00
<mgrwt>
<rscale>  0 0.68369836E+04</rscale>
<asrwt>0</asrwt>
<pdfrwt beam="1">  1        2 0.64282249E+00 0.68369836E+04</pdfrwt>
<pdfrwt beam="2">  1       -2 0.43028015E+00 0.68369836E+04</pdfrwt>
<totfact> 0.56811293E-04</totfact>
</mgrwt>
<rwgt>
<wgt id='morphing_basis_vector_1'> +2.0428908e-07 </wgt>
<wgt id='morphing_basis_vector_2'> +1.4033227e-07 </wgt>
<wgt id='morphing_basis_vector_3'> +2.2599018e-07 </wgt>
<wgt id='morphing_basis_vector_4'> +1.6189411e-07 </wgt>
<wgt id='morphing_basis_vector_5'> +2.6007495e-07 </wgt>
</rwgt>
</event>
<event>
 4      1 +6.9060000e-13 7.09455200e+03 7.81860800e-03 7.15250800e-02
        2 -1    0    0  501    0 +0.0000000000e+00 +0.0000000000e+00 +4.1508818622e+03 4.1508818622e+03 0.0000000000e+00 0.0000e+00 -1.0000e+00
       -2 -1    0    0    0  501 -0.0000000000e+00 -0.0000000000e+00 -3.0314438516e+03 3.0314438516e+03 0.0000000000e+00 0.0000e+00 1.0000e+00
      -13  1    1    2    0    0 +1.2216352999e+03 -2.8690558085e+03 +2.2715833569e+03 3.8579742075e+03 0.0000000000e+00 0.0000e+00 -1.0000e+00
       13  1    1    2    0    0 -1.2216352999e+03 +2.8690558085e+03 -1.1521453464e+03 3.3243515063e+03 0.0000000000e+00 0.0000e+00 1.0000e+00
<mgrwt>
<rscale>  0 0.70945515E+04</rscale>
<asrwt>0</asrwt>
<pdfrwt beam="1">  1        2 0.63859721E+00 0.70945515E+04</pdfrwt>
<pdfrwt beam="2">  1       -2 0.46637597E+00 0.70945515E+04</pdfrwt>
<totfact> 0.33104101E-04</totfact>
</mgrwt>
<rwgt>
<wgt id='morphing_basis_vector_1'> +2.7704816e-07 </wgt>
<wgt id='morphing_basis_vector_2'> +2.8079119e-07 </wgt>
<wgt id='morphing_basis_vector_3'> +3.2799829e-07 </wgt>
<wgt id='morphing_basis_vector_4'> +1.0142633e-07 </wgt>
<wgt id='morphing_basis_vector_5'> +2.9433307e-07 </wgt>
</rwgt>
</event>
<event>
 4      1 +6.9060000e-13 6.76750600e+03 7.81860800e-03 7.18292700e-02
        2 -1    0    0  501    0 +0.0000000000e+00 +0.0000000000e+00 +3.2125373749e+03 3.2125373749e+03 0.0000000000e+00 0.0000e+00 -1.0000e+00
       -2 -1    0    0    0  501 -0.0000000000e+00 -0.0000000000e+00 -3.5640942105e+03 3.5640942105e+03 0.0000000000e+00 0.0000e+00 1.0000e+00
      -13  1    1    2    0    0 +1.3624077912e+03 -1.2332849263e+03 -3.0208484950e+03 3.5359118101e+03 0.0000000000e+00 0.0000e+00 1.0000e+00
       13  1    1    2    0    0 -1.3624077912e+03 +1.2332849263e+03 +2.6692916595e+03 3.2407197753e+03 0.0000000000e+00 0.0000e+00 -1.0000e+00
<mgrwt>
<rscale>  0 0.67675064E+04</rscale>
<asrwt>0</asrwt>
<pdfrwt beam="1">  1        2 0.49423652E+00 0.67675064E+04</pdfrwt>
<pdfrwt beam="2">  1       -2 0.54832218E+00 0.67675064E+04</pdfrwt>
<totfact> 0.45315729E-04</totfact>
</mgrwt>
<rwgt>
<wgt id='morphing_basis_vector_1'> +1.9560928e-07 </wgt>
<wgt id='morphing_basis_vector_2'> +1.3320458e-07 </wgt>
<wgt id='morphing_basis_vector_3'> +2.1609929e-07 </wgt>
<wgt id='morphing_basis_vector_4'> +1.5650810e-07 </wgt>
<wgt id='morphing_basis_vector_5'> +2.4973922e-07 </wgt>
</rwgt>
</event>
<event>
 4      1 +6.9060000e-13 7.20325500e+03 7.81860800e-03 7.14276200e-02
        2 -1    0    0  501    0 +0.0000000000e+00 +0.0000000000e+00 +3.2164789104e+03 3.2164789104e+03 0.0000000000e+00 0.0000e+00 -1.0000e+00
       -2 -1    0    0    0  501 -0.0000000000e+00 -0.0000000000e+00 -4.0328949600e+03 4.0328949600e+03 0.0000000000e+00 0.0000e+00 1.0000e+00
      -13  1    1    2    0    0 +1.6758290035e+01 -2.4962513084e+03 -3.0210137747e+03 3.9189380784e+03 0.0000000000e+00 0.0000e+00 1.0000e+00
       13  1    1    2    0    0 -1.6758290035e+01 +2.4962513084e+03 +2.2045977252e+03 3.3304357920e+03 0.0000000000e+00 0.0000e+00 -1.0000e+00
<mgrwt>
<rscale>  0 0.72032553E+04</rscale>
<asrwt>0</asrwt>
<pdfrwt beam="1">  1        2 0.49484291E+00 0.72032553E+04</pdfrwt>
<pdfrwt beam="2">  1       -2 0.62044538E+00 0.72032553E+04</pdfrwt>
<totfact> 0.10423763E-04</totfact>
</mgrwt>
<rwgt>
<wgt id='morphing_basis_vector_1'> +2.5115270e-07 </wgt>
<wgt id='morphing_basis_vector_2'> +1.7150314e-07 </wgt>
<wgt id='morphing_basis_vector_3'> +2.7767266e-07 </wgt>
<wgt id='morphing_basis_vector_4'> +2.0054955e-07 </wgt>
<wgt id='morphing_basis_vector_5'> +3.2063914e-07 </wgt>
</rwgt>
</event>
<event>
 4      1 +6.9060000e-13 7.50710400e+03 7.81860800e-03 7.11641100e-02
        2 -1    0    0  501    0 +0.0000000000e+00 +0.0000000000e+00 +3.8103192301e+03 3.8103192301e+03 0.0000000000e+00 0.0000e+00 -1.0000e+00
       -2 -1    0    0    0  501 -0.0000000000e+00 -0.0000000000e+00 -3.6976309078e+03 3.6976309078e+03 0.0000000000e+00 0.0000e+00 1.0000e+00
      -13  1    1    2    0    0 -9.4867089350e+02 +1.7228507189e+03 -3.1410401053e+03 3.7059848903e+03 0.0000000000e+00 0.0000e+00 1.0000e+00
       13  1    1    2    0    0 +9.4867089350e+02 -1.7228507189e+03 +3.2537284276e+03 3.8019652476e+03 0.0000000000e+00 0.0000e+00 -1.0000e+00
<mgrwt>
<rscale>  0 0.75071044E+04</rscale>
<asrwt>0</asrwt>
<pdfrwt beam="1">  1        2 0.58620296E+00 0.75071044E+04</pdfrwt>
<pdfrwt beam="2">  1       -2 0.56886629E+00 0.75071044E+04</pdfrwt>
<totfact> 0.11070203E-04</totfact>
</mgrwt>
<rwgt>
<wgt id='morphing_basis_vector_1'> +2.9597238e-07 </wgt>
<wgt id='morphing_basis_vector_2'> +2.0159953e-07 </wgt>
<wgt id='morphing_basis_vector_3'> +3.2717380e-07 </wgt>
<wgt id='morphing_basis_vector_4'> +2.3716098e-07 </wgt>
<wgt id='morphing_basis_vector_5'> +3.7839558e-07 </wgt>
</rwgt>
</event>
<event>
 4      1 +6.9060000e-13 6.85527100e+03 7.81860800e-03 7.17459600e-02
        2 -1    0    0  501    0 +0.0000000000e+00 +0.0000000000e+00 +4.7236823191e+03 4.7236823191e+03 0.0000000000e+00 0.0000e+00 1.0000e+00
       -2 -1    0    0    0  501 -0.0000000000e+00 -0.0000000000e+00 -2.4871880159e+03 2.4871880159e+03 0.0000000000e+00 0.0000e+00 -1.0000e+00
      -13  1    1    2    0    0 -5.7282024180e+02 +1.1408626075e+03 +4.4642918889e+03 4.6432308351e+03 0.0000000000e+00 0.0000e+00 1.0000e+00
       13  1    1    2    0    0 +5.7282024180e+02 -1.1408626075e+03 -2.2277975857e+03 2.5676394999e+03 0.0000000000e+00 0.0000e+00 -1.0000e+00
<mgrwt>
<rscale>  0 0.68552713E+04</rscale>
<asrwt>0</asrwt>
<pdfrwt beam="1">  1        2 0.72672035E+00 0.68552713E+04</pdfrwt>
<pdfrwt beam="2">  1       -2 0.38264431E+00 0.68552713E+04</pdfrwt>
<totfact> 0.32413763E-04</totfact>
</mgrwt>
<rwgt>
<wgt id='morphing_basis_vector_1'> +2.8131646e-07 </wgt>
<wgt id='morphing_basis_vector_2'> +3.6143893e-07 </wgt>
<wgt id='morphing_basis_vector_3'> +3.5101357e-07 </wgt>
<wgt id='morphing_basis_vector_4'> +3.2129861e-09 </wgt>
<wgt id='morphing_basis_vector_5'> +2.4935598e-07 </wgt>
</rwgt>
</event>
<event>
 4      1 +6.9060000e-13 7.10949900e+03 7.81860800e-03 7.15115800e-02
        2 -1    0    0  501    0 +0.0000000000e+00 +0.0000000000e+00 +2.5178796756e+03 2.5178796756e+03 0.0000000000e+00 0.0000e+00 1.0000e+00
       -2 -1    0    0    0  501 -0.0000000000e+00 -0.0000000000e+00 -5.0186055907e+03 5.0186055907e+03 0.0000000000e+00 0.0000e+00 -1.0000e+00
      -13  1    1    2    0    0 +1.2452294786e+03 +3.2687508237e+03 -5.7915535473e+02 3.5455252540e+03 0.0000000000e+00 0.0000e+00 -1.0000e+00
       13  1    1    2    0    0 -1.2452294786e+03 -3.2687508237e+03 -1.9215705604e+03 3.9909600124e+03 0.0000000000e+00 0.0000e+00 1.0000e+00
<mgrwt>
<rscale>  0 0.71094993E+04</rscale>
<asrwt>0</asrwt>
<pdfrwt beam="1">  1        2 0.38736610E+00 0.71094993E+04</pdfrwt>
<pdfrwt beam="2">  1       -2 0.77209317E+00 0.71094993E+04</pdfrwt>
<totfact> 0.26323693E-04</totfact>
</mgrwt>
<rwgt>
<wgt id='morphing_basis_vector_1'> +2.5440596e-07 </wgt>
<wgt id='morphing_basis_vector_2'> +2.0986374e-07 </wgt>
<wgt id='morphing_basis_vector_3'> +2.8981951e-07 </wgt>
<wgt id='morphing_basis_vector_4'> +1.5586058e-07 </wgt>
<wgt id='morphing_basis_vector_5'> +3.0134142e-07 </wgt>
</rwgt>
</event>
<event>
 4      1 +6.9060000e-13 6.92220300e+03 7.81860800e-03 7.16832700e-02
        2 -1    0    0  501    0 +0.0000000000e+00 +0.0000000000e+00 +4.5483481209e+03 4.5483481209e+03 0.0000000000e+00 0.0000e+00 -1.0000e+00
       -2 -1    0    0    0  501 -0.0000000000e+00 -0.0000000000e+00 -2.6337525784e+03 2.6337525784e+03 0.0000000000e+00 0.0000e+00 1.0000e+00
      -13  1    1    2    0    0 +1.1656237930e+03 -1.3555076178e+03 -2.1176104453e+03 2.7713451114e+03 0.0000000000e+00 0.0000e+00 1.0000e+00
       13  1    1    2    0    0 -1.1656237930e+03 +1.3555076178e+03 +4.0322059878e+03 4.4107555880e+03 0.0000000000e+00 0.0000e+00 -1.0000e+00
<mgrwt>
<rscale>  0 0.69222030E+04</rscale>
<asrwt>0</asrwt>
<pdfrwt beam="1">  1        2 0.69974587E+00 0.69222030E+04</pdfrwt>
<pdfrwt beam="2">  1       -2 0.40519270E+00 0.69222030E+04</pdfrwt>
<totfact> 0.35915278E-04</totfact>
</mgrwt>
<rwgt>
<wgt id='morphing_basis_vector_1'> +2.1406947e-07 </wgt>
<wgt id='morphing_basis_vector_2'> +1.4575806e-07 </wgt>
<wgt id='morphing_basis_vector_3'> +2.3652087e-07 </wgt>
<wgt id='morphing_basis_vector_4'> +1.7137217e-07 </wgt>
<wgt id='morphing_basis_vector_5'> +2.7341336e-07 </wgt>
</rwgt>
</event>
<event>
 4      1 +6.9060000e-13 6.96774300e+03 7.81860800e-03 7.16410300e-02
        2 -1    0    0  501    0 +0.0000000000e+00 +0.0000000000e+00 +3.5088075467e+03 3.5088075467e+03 0.0000000000e+00 0.0000e+00 1.0000e+00
       -2 -1    0    0    0  501 -0.0000000000e+00 -0.0000000000e+00 -3.4591126365e+03 3.4591126365e+03 0.0000000000e+00 0.0000e+00 -1.0000e+00
      -13  1    1    2    0    0 -1.2889988190e+03 +3.2114063424e+03 +4.2823331146e+02 3.4868370224e+03 0.0000000000e+00 0.0000e+00 -1.0000e+00
       13  1    1    2    0    0 +1.2889988190e+03 -3.2114063424e+03 -3.7853840126e+02 3.4810831608e+03 0.0000000000e+00 0.0000e+00 1.0000e+00
<mgrwt>
<rscale>  0 0.69677430E+04</rscale>
<asrwt>0</asrwt>
<pdfrwt beam="1">  1        2 0.53981655E+00 0.69677430E+04</pdfrwt>
<pdfrwt beam="2">  1       -2 0.53217117E+00 0.69677430E+04</pdfrwt>
<totfact> 0.36043513E-04</totfact>
</mgrwt>
<rwgt>
<wgt id='morphing_basis_vector_1'> +2.3186397e-07 </wgt>
<wgt id='morphing_basis_vector_2'> +1.8517886e-07 </wgt>
<wgt id='morphing_basis_vector_3'> +2.6265964e-07 </wgt>
<wgt id='morphing_basis_vector_4'> +1.4995760e-07 </wgt>
<wgt id='morphing_basis_vector_5'> +2.7850250e-07 </wgt>
</rwgt>
</event>
<event>
 4      1 +6.9060000e-13 6.72752500e+03 7.81860800e-03 7.18676500e-02
        2 -1    0    0  501    0 +0.0000000000e+00 +0.0000000000e+00 +3.4220241340e+03 3.4220241340e+03 0.0000000000e+00 0.0000e+00 -1.0000e+00
       -2 -1    0    0    0  501 -0.0000000000e+00 -0.0000000000e+00 -3.3064932478e+03 3.3064932478e+03 0.0000000000e+00 0.0000e+00 1.0000e+00
      -13  1    1    2    0    0 -1.3871745399e+03 -2.8135150529e+03 -1.1568186252e+03 3.3434038776e+03 0.0000000000e+00 0.0000e+00 1.0000e+00
       13  1    1    2    0    0 +1.3871745399e+03 +2.8135150529e+03 +1.2723495115e+03 3.3851135042e+03 0.0000000000e+00 0.0000e+00 -1.0000e+00
<mgrwt>
<rscale>  0 0.67275255E+04</rscale>
<asrwt>0</asrwt>
<pdfrwt beam="1">  1        2 0.52646525E+00 0.67275255E+04</pdfrwt>
<pdfrwt beam="2">  1       -2 0.50869127E+00 0.67275255E+04</pdfrwt>
<totfact> 0.63266791E-04</totfact>
</mgrwt>
<rwgt>
<wgt id='morphing_basis_vector_1'> +1.9265677e-07 </wgt>
<wgt id='morphing_basis_vector_2'> +1.3484350e-07 </wgt>
<wgt id='morphing_basis_vector_3'> +2.1369264e-07 </wgt>
<wgt id='morphing_basis_vector_4'> +1.4936225e-07 </wgt>
<wgt id='morphing_basis_vector_5'> +2.4358699e-07 </wgt>
</rwgt>
</event>
<event>
 4      1 +6.9060000e-13 6.90885700e+03 7.81860800e-03 7.16957200e-02
        2 -1    0    0  501    0 +0.0000000000e+00 +0.0000000000e+00 +2.3731051246e+03 2.3731051246e+03 0.0000000000e+00 0.0000e+00 -1.0000e+00
       -2 -1    0    0    0  501 -0.0000000000e+00 -0.0000000000e+00 -5.0284650168e+03 5.0284650168e+03 0.0000000000e+00 0.0000e+00 1.0000e+00
      -13  1    1    2    0    0 -2.7450549853e+03 -6.2690130106e+02 -3.4715824787e+03 4.4699236033e+03 0.0000000000e+00 0.0000e+00 1.0000e+00
       13  1    1    2    0    0 +2.7450549853e+03 +6.2690130106e+02 +8.1622258649e+02 2.9316465381e+03 0.0000000000e+00 0.0000e+00 -1.0000e+00
<mgrwt>
<rscale>  0 0.69088570E+04</rscale>
<asrwt>0</asrwt>
<pdfrwt beam="1">  1        2 0.36509310E+00 0.69088570E+04</pdfrwt>
<pdfrwt beam="2">  1       -2 0.77361000E+00 0.69088570E+04</pdfrwt>
<totfact> 0.32551802E-04</totfact>
</mgrwt>
<rwgt>
<wgt id='morphing_basis_vector_1'> +2.1298549e-07 </wgt>
<wgt id='morphing_basis_vector_2'> +1.4627926e-07 </wgt>
<wgt id='morphing_basis_vector_3'> +2.3561873e-07 </wgt>
<wgt id='morphing_basis_vector_4'> +1.6885308e-07 </wgt>
<wgt id='morphing_basis_vector_5'> +2.7120636e-07 </wgt>
</rwgt>
</event>
<event>
 4      1 +6.9060000e-13 6.83067900e+03 7.81860800e-03 7.17691800e-02
        2 -1    0    0  501    0 +0.0000000000e+00 +0.0000000000e+00 +3.7912060661e+03 3.7912060661e+03 0.0000000000e+00 0.0000e+00 -1.0000e+00
       -2 -1    0    0    0  501 -0.0000000000e+00 -0.0000000000e+00 -3.0767367525e+03 3.0767367525e+03 0.0000000000e+00 0.0000e+00 1.0000e+00
      -13  1    1    2    0    0 -9.2226939152e+01 +2.5302355224e+03 -1.9474185758e+03 3.1942192656e+03 0.0000000000e+00 0.0000e+00 1.0000e+00
       13  1    1    2    0    0 +9.2226939152e+01 -2.5302355224e+03 +2.6618878895e+03 3.6737235529e+03 0.0000000000e+00 0.0000e+00 -1.0000e+00
<mgrwt>
<rscale>  0 0.68306787E+04</rscale>
<asrwt>0</asrwt>
<pdfrwt beam="1">  1        2 0.58326247E+00 0.68306787E+04</pdfrwt>
<pdfrwt beam="2">  1       -2 0.47334412E+00 0.68306787E+04</pdfrwt>
<totfact> 0.60516683E-04</totfact>
</mgrwt>
<rwgt>
<wgt id='morphing_basis_vector_1'> +2.0325954e-07 </wgt>
<wgt id='morphing_basis_vector_2'> +1.3899892e-07 </wgt>
<wgt id='morphing_basis_vector_3'> +2.2470186e-07 </wgt>
<wgt id='morphing_basis_vector_4'> +1.6189344e-07 </wgt>
<wgt id='morphing_basis_vector_5'> +2.5916560e-07 </wgt>
</rwgt>
</event>
<event>
 4      1 +6.9060000e-13 6.87885600e+03 7.81860800e-03 7.17237900e-02
        2 -1    0    0  501    0 +0.0000000000e+00 +0.0000000000e+00 +3.4722896442e+03 3.4722896442e+03 0.0000000000e+00 0.0000e+00 1.0000e+00
       -2 -1    0    0    0  501 -0.0000000000e+00 -0.0000000000e+00 -3.4068776170e+03 3.4068776170e+03 0.0000000000e+00 0.0000e+00 -1.0000e+00
      -13  1    1    2    0    0 -2.3545962323e+03 -6.5611688338e+02 +2.4525371075e+03 3.4625931100e+03 0.0000000000e+00 0.0000e+00 1.0000e+00
       13  1    1    2    0    0 +2.3545962323e+03 +6.5611688338e+02 -2.3871250802e+03 3.4165741512e+03 0.0000000000e+00 0.0000e+00 -1.0000e+00
<mgrwt>
<rscale>  0 0.68788563E+04</rscale>
<asrwt>0</asrwt>
<pdfrwt beam="1">  1        2 0.53419840E+00 0.68788563E+04</pdfrwt>
<pdfrwt beam="2">  1       -2 0.52413502E+00 0.68788563E+04</pdfrwt>
<totfact> 0.44193577E-04</totfact>
</mgrwt>
<rwgt>
<wgt id='morphing_basis_vector_1'> +2.6946726e-07 </wgt>
<wgt id='morphing_basis_vector_2'> +3.2026184e-07 </wgt>
<wgt id='morphing_basis_vector_3'> +3.3009827e-07 </wgt>
<wgt id='morphing_basis_vector_4'> +3.6986554e-08 </wgt>
<wgt id='morphing_basis_vector_5'> +2.5565275e-07 </wgt>
</rwgt>
</event>
<event>
 4      1 +6.9060000e-13 6.92819600e+03 7.81860800e-03 7.16777000e-02
        2 -1    0    0  501    0 +0.0000000000e+00 +0.0000000000e+00 +3.2037102515e+03 3.2037102515e+03 0.0000000000e+00 0.0000e+00 -1.0000e+00
       -2 -1    0    0    0  501 -0.0000000000e+00 -0.0000000000e+00 -3.7456495671e+03 3.7456495671e+03 0.0000000000e+00 0.0000e+00 1.0000e+00
      -13  1    1    2    0    0 +1.5214202841e+03 -2.0165130270e+03 -2.6486391355e+03 3.6601002362e+03 0.0000000000e+00 0.0000e+00 1.0000e+00
       13  1    1    2    0    0 -1.5214202841e+03 +2.0165130270e+03 +2.1066998200e+03 3.2892595824e+03 0.0000000000e+00 0.0000e+00 -1.0000e+00
<mgrwt>
<rscale>  0 0.69281963E+04</rscale>
<asrwt>0</asrwt>
<pdfrwt beam="1">  1        2 0.49287850E+00 0.69281963E+04</pdfrwt>
<pdfrwt beam="2">  1       -2 0.57625378E+00 0.69281963E+04</pdfrwt>
<totfact> 0.28470189E-04</totfact>
</mgrwt>
<rwgt>
<wgt id='morphing_basis_vector_1'> +2.1506526e-07 </wgt>
<wgt id='morphing_basis_vector_2'> +1.4701064e-07 </wgt>
<wgt id='morphing_basis_vector_3'> +2.3775836e-07 </wgt>
<wgt id='morphing_basis_vector_4'> +1.7142126e-07 </wgt>
<wgt id='morphing_basis_vector_5'> +2.7431703e-07 </wgt>
</rwgt>
</event>
<event>
 4      1 +6.9060000e-13 6.93936200e+03 7.81860800e-03 7.16673200e-02
        2 -1    0    0  501    0 +0.0000000000e+00 +0.0000000000e+00 +3.9018873680e+03 3.9018873680e+03 0.0000000000e+00 0.0000e+00 -1.0000e+00
       -2 -1    0    0    0  501 -0.0000000000e+00 -0.0000000000e+00 -3.0853491599e+03 3.0853491599e+03 0.0000000000e+00 0.0000e+00 1.0000e+00
      -13  1    1    2    0    0 -4.1909475783e+02 +3.2715461769e+03 -6.7620842142e+02 3.3668847074e+03 0.0000000000e+00 0.0000e+00 1.0000e+00
       13  1    1    2    0    0 +4.1909475783e+02 -3.2715461769e+03 +1.4927466295e+03 3.6203518204e+03 0.0000000000e+00 0.0000e+00 -1.0000e+00
<mgrwt>
<rscale>  0 0.69393616E+04</rscale>
<asrwt>0</asrwt>
<pdfrwt beam="1">  1        2 0.60029037E+00 0.69393616E+04</pdfrwt>
<pdfrwt beam="2">  1       -2 0.47466910E+00 0.69393616E+04</pdfrwt>
<totfact> 0.47743857E-04</totfact>
</mgrwt>
<rwgt>
<wgt id='morphing_basis_vector_1'> +2.1851814e-07 </wgt>
<wgt id='morphing_basis_vector_2'> +1.5402093e-07 </wgt>
<wgt id='morphing_basis_vector_3'> +2.4267916e-07 </wgt>
<wgt id='morphing_basis_vector_4'> +1.6810226e-07 </wgt>
<wgt id='morphing_basis_vector_5'> +2.7571936e-07 </wgt>
</rwgt>
</event>
<event>
 4      1 +6.9060000e-13 7.10955900e+03 7.81860800e-03 7.15115200e-02
        2 -1    0    0  501    0 +0.0000000000e+00 +0.0000000000e+00 +2.4953913282e+03 2.4953913282e+03 0.0000000000e+00 0.0000e+00 1.0000e+00
       -2 -1    0    0    0  501 -0.0000000000e+00 -0.0000000000e+00 -5.0639175337e+03 5.0639175337e+03 0.0000000000e+00 0.0000e+00 -1.0000e+00
      -13  1    1    2    0    0 +1.3263513647e+03 +9.4285847578e+02 +2.0760867749e+03 2.6378639739e+03 0.0000000000e+00 0.0000e+00 1.0000e+00
       13  1    1    2    0    0 -1.3263513647e+03 -9.4285847578e+02 -4.6446129804e+03 4.9214448880e+03 0.0000000000e+00 0.0000e+00 -1.0000e+00
<mgrwt>
<rscale>  0 0.71095586E+04</rscale>
<asrwt>0</asrwt>
<pdfrwt beam="1">  1        2 0.38390636E+00 0.71095586E+04</pdfrwt>
<pdfrwt beam="2">  1       -2 0.77906423E+00 0.71095586E+04</pdfrwt>
<totfact> 0.27368853E-04</totfact>
</mgrwt>
<rwgt>
<wgt id='morphing_basis_vector_1'> +3.2377981e-07 </wgt>
<wgt id='morphing_basis_vector_2'> +4.1340322e-07 </wgt>
<wgt id='morphing_basis_vector_3'> +4.0354739e-07 </wgt>
<wgt id='morphing_basis_vector_4'> +7.0993402e-09 </wgt>
<wgt id='morphing_basis_vector_5'> +2.8881110e-07 </wgt>
</rwgt>
</event>
<event>
 4      1 +6.9060000e-13 6.70675500e+03 7.81860800e-03 7.18876900e-02
        2 -1    0    0  501    0 +0.0000000000e+00 +0.0000000000e+00 +3.3177423465e+03 3.3177423465e+03 0.0000000000e+00 0.0000e+00 -1.0000e+00
       -2 -1    0    0    0  501 -0.0000000000e+00 -0.0000000000e+00 -3.3893956355e+03 3.3893956355e+03 0.0000000000e+00 0.0000e+00 1.0000e+00
      -13  1    1    2    0    0 +1.6493085208e+03 -6.8442119842e+02 -2.8743843844e+03 3.3838936986e+03 0.0000000000e+00 0.0000e+00 1.0000e+00
       13  1    1    2    0    0 -1.6493085208e+03 +6.8442119842e+02 +2.8027310955e+03 3.3232442834e+03 0.0000000000e+00 0.0000e+00 -1.0000e+00
<mgrwt>
<rscale>  0 0.67067552E+04</rscale>
<asrwt>0</asrwt>
<pdfrwt beam="1">  1        2 0.51042190E+00 0.67067552E+04</pdfrwt>
<pdfrwt beam="2">  1       -2 0.52144548E+00 0.67067552E+04</pdfrwt>
<totfact> 0.60366037E-04</totfact>
</mgrwt>
<rwgt>
<wgt id='morphing_basis_vector_1'> +1.8868655e-07 </wgt>
<wgt id='morphing_basis_vector_2'> +1.2847352e-07 </wgt>
<wgt id='morphing_basis_vector_3'> +2.0843588e-07 </wgt>
<wgt id='morphing_basis_vector_4'> +1.5096539e-07 </wgt>
<wgt id='morphing_basis_vector_5'> +2.4087751e-07 </wgt>
</rwgt>
</event>
<event>
 4      1 +6.9060000e-13 6.96509300e+03 7.81860800e-03 7.16434800e-02
        2 -1    0    0  501    0 +0.0000000000e+00 +0.0000000000e+00 +5.0656228689e+03 5.0656228689e+03 0.0000000000e+00 0.0000e+00 -1.0000e+00
       -2 -1    0    0    0  501 -0.0000000000e+00 -0.0000000000e+00 -2.3942032954e+03 2.3942032954e+03 0.0000000000e+00 0.0000e+00 1.0000e+00
      -13  1    1    2    0    0 -2.1280158153e+03 +2.2621909188e+03 -3.5168887448e+02 3.1256429943e+03 0.0000000000e+00 0.0000e+00 1.0000e+00
       13  1    1    2    0    0 +2.1280158153e+03 -2.2621909188e+03 +3.0231084479e+03 4.3341831700e+03 0.0000000000e+00 0.0000e+00 -1.0000e+00
<mgrwt>
<rscale>  0 0.69650932E+04</rscale>
<asrwt>0</asrwt>
<pdfrwt beam="1">  1        2 0.77932659E+00 0.69650932E+04</pdfrwt>
<pdfrwt beam="2">  1       -2 0.36833897E+00 0.69650932E+04</pdfrwt>
<totfact> 0.14702199E-04</totfact>
</mgrwt>
<rwgt>
<wgt id='morphing_basis_vector_1'> +2.2061689e-07 </wgt>
<wgt id='morphing_basis_vector_2'> +1.5292775e-07 </wgt>
<wgt id='morphing_basis_vector_3'> +2.4440603e-07 </wgt>
<wgt id='morphing_basis_vector_4'> +1.7308968e-07 </wgt>
<wgt id='morphing_basis_vector_5'> +2.8004716e-07 </wgt>
</rwgt>
</event>
<event>
 4      1 +6.9060000e-13 6.91480100e+03 7.81860800e-03 7.16901700e-02
        2 -1    0    0  501    0 +0.0000000000e+00 +0.0000000000e+00 +2.4030995443e+03 2.4030995443e+03 0.0000000000e+00 0.0000e+00 -1.0000e+00
       -2 -1    0    0    0  501 -0.0000000000e+00 -0.0000000000e+00 -4.9742500596e+03 4.9742500596e+03 0.0000000000e+00 0.0000e+00 1.0000e+00
      -13  1    1    2    0    0 +1.5561935336e+02 -1.9086118071e+03 -4.3567810083e+03 4.7590500278e+03 0.0000000000e+00 0.0000e+00 1.0000e+00
       13  1    1    2    0    0 -1.5561935336e+02 +1.9086118071e+03 +1.7856304929e+03 2.6182995761e+03 0.0000000000e+00 0.0000e+00 -1.0000e+00
<mgrwt>
<rscale>  0 0.69148010E+04</rscale>
<asrwt>0</asrwt>
<pdfrwt beam="1">  1        2 0.36970762E+00 0.69148010E+04</pdfrwt>
<pdfrwt beam="2">  1       -2 0.76526924E+00 0.69148010E+04</pdfrwt>
<totfact> 0.30519902E-04</totfact>
</mgrwt>
<rwgt>
<wgt id='morphing_basis_vector_1'> +2.1317730e-07 </wgt>
<wgt id='morphing_basis_vector_2'> +1.4519597e-07 </wgt>
<wgt id='morphing_basis_vector_3'> +2.3554441e-07 </wgt>
<wgt id='morphing_basis_vector_4'> +1.7059536e-07 </wgt>
<wgt id='morphing_basis_vector_5'> +2.7224015e-07 </wgt>
</rwgt>
</event>
<event>
 4      1 +6.9060000e-13 7.20544600e+03 7.81860800e-03 7.14256700e-02
        2 -1    0    0  501    0 +0.0000000000e+00 +0.0000000000e+00 +4.1207116748e+03 4.1207116748e+03 0.0000000000e+00 0.0000e+00 -1.0000e+00
       -2 -1    0    0    0  501 -0.0000000000e+00 -0.0000000000e+00 -3.1498476494e+03 3.1498476494e+03 0.0000000000e+00 0.0000e+00 1.0000e+00
      -13  1    1    2    0    0 +2.1461903943e+02 -8.2158729444e+02 -3.0474280569e+03 3.1635241072e+03 0.0000000000e+00 0.0000e+00 1.0000e+00
       13  1    1    2    0    0 -2.1461903943e+02 +8.2158729444e+02 +4.0182920824e+03 4.1070352170e+03 0.0000000000e+00 0.0000e+00 -1.0000e+00
<mgrwt>
<rscale>  0 0.72054463E+04</rscale>
<asrwt>0</asrwt>
<pdfrwt beam="1">  1        2 0.63395565E+00 0.72054463E+04</pdfrwt>
<pdfrwt beam="2">  1       -2 0.48459194E+00 0.72054463E+04</pdfrwt>
<totfact> 0.25689445E-04</totfact>
</mgrwt>
<rwgt>
<wgt id='morphing_basis_vector_1'> +2.5119050e-07 </wgt>
<wgt id='morphing_basis_vector_2'> +1.7092710e-07 </wgt>
<wgt id='morphing_basis_vector_3'> +2.7757208e-07 </wgt>
<wgt id='morphing_basis_vector_4'> +2.0136768e-07 </wgt>
<wgt id='morphing_basis_vector_5'> +3.2107839e-07 </wgt>
</rwgt>
</event>
<event>
 4      1 +6.9060000e-13 7.20580800e+03 7.81860800e-03 7.14253500e-02
        2 -1    0    0  501    0 +0.0000000000e+00 +0.0000000000e+00 +3.5362362599e+03 3.5362362599e+03 0.0000000000e+00 0.0000e+00 1.0000e+00
       -2 -1    0    0    0  501 -0.0000000000e+00 -0.0000000000e+00 -3.6708288849e+03 3.6708288849e+03 0.0000000000e+00 0.0000e+00 -1.0000e+00
      -13  1    1    2    0    0 -1.2822304604e+03 +2.4685225430e+03 -2.3574991332e+03 3.6463023273e+03 0.0000000000e+00 0.0000e+00 -1.0000e+00
       13  1    1    2    0    0 +1.2822304604e+03 -2.4685225430e+03 +2.2229065081e+03 3.5607628175e+03 0.0000000000e+00 0.0000e+00 1.0000e+00
<mgrwt>
<rscale>  0 0.72058083E+04</rscale>
<asrwt>0</asrwt>
<pdfrwt beam="1">  1        2 0.54403635E+00 0.72058083E+04</pdfrwt>
<pdfrwt beam="2">  1       -2 0.56474291E+00 0.72058083E+04</pdfrwt>
<totfact> 0.19719203E-04</totfact>
</mgrwt>
<rwgt>
<wgt id='morphing_basis_vector_1'> +2.5174614e-07 </wgt>
<wgt id='morphing_basis_vector_2'> +1.7244389e-07 </wgt>
<wgt id='morphing_basis_vector_3'> +2.7845638e-07 </wgt>
<wgt id='morphing_basis_vector_4'> +2.0032444e-07 </wgt>
<wgt id='morphing_basis_vector_5'> +3.2105165e-07 </wgt>
</rwgt>
</event>
<event>
 4      1 +6.9060000e-13 6.90088800e+03 7.81860800e-03 7.17031600e-02
        2 -1    0    0  501    0 +0.0000000000e+00 +0.0000000000e+00 +3.6777069829e+03 3.6777069829e+03 0.0000000000e+00 0.0000e+00 -1.0000e+00
       -2 -1    0    0    0  501 -0.0000000000e+00 -0.0000000000e+00 -3.2372247019e+03 3.2372247019e+03 0.0000000000e+00 0.0000e+00 1.0000e+00
      -13  1    1    2    0    0 -1.5434608832e+03 -2.6604776599e+02 -2.8605092236e+03 3.2612215396e+03 0.0000000000e+00 0.0000e+00 1.0000e+00
       13  1    1    2    0    0 +1.5434608832e+03 +2.6604776599e+02 +3.3009915046e+03 3.6537101452e+03 0.0000000000e+00 0.0000e+00 -1.0000e+00
<mgrwt>
<rscale>  0 0.69008880E+04</rscale>
<asrwt>0</asrwt>
<pdfrwt beam="1">  1        2 0.56580107E+00 0.69008880E+04</pdfrwt>
<pdfrwt beam="2">  1       -2 0.49803457E+00 0.69008880E+04</pdfrwt>
<totfact> 0.48445822E-04</totfact>
</mgrwt>
<rwgt>
<wgt id='morphing_basis_vector_1'> +2.1142635e-07 </wgt>
<wgt id='morphing_basis_vector_2'> +1.4390445e-07 </wgt>
<wgt id='morphing_basis_vector_3'> +2.3358357e-07 </wgt>
<wgt id='morphing_basis_vector_4'> +1.6931727e-07 </wgt>
<wgt id='morphing_basis_vector_5'> +2.7005994e-07 </wgt>
</rwgt>
</event>
<event>
 4      1 +6.9060000e-13 7.20398600e+03 7.81860800e-03 7.14269700e-02
        2 -1    0    0  501    0 +0.0000000000e+00 +0.0000000000e+00 +4.3952884406e+03 4.3952884406e+03 0.0000000000e+00 0.0000e+00 -1.0000e+00
       -2 -1    0    0    0  501 -0.0000000000e+00 -0.0000000000e+00 -2.9518774259e+03 2.9518774259e+03 0.0000000000e+00 0.0000e+00 1.0000e+00
      -13  1    1    2    0    0 -2.3746332960e+03 +2.2643262494e+03 -7.9386326596e+02 3.3758370132e+03 0.0000000000e+00 0.0000e+00 1.0000e+00
       13  1    1    2    0    0 +2.3746332960e+03 -2.2643262494e+03 +2.2372742807e+03 3.9713288533e+03 0.0000000000e+00 0.0000e+00 -1.0000e+00
<mgrwt>
<rscale>  0 0.72039858E+04</rscale>
<asrwt>0</asrwt>
<pdfrwt beam="1">  1        2 0.67619822E+00 0.72039858E+04</pdfrwt>
<pdfrwt beam="2">  1       -2 0.45413499E+00 0.72039858E+04</pdfrwt>
<totfact> 0.23596746E-04</totfact>
</mgrwt>
<rwgt>
<wgt id='morphing_basis_vector_1'> +2.5272686e-07 </wgt>
<wgt id='morphing_basis_vector_2'> +1.7589300e-07 </wgt>
<wgt id='morphing_basis_vector_3'> +2.8019984e-07 </wgt>
<wgt id='morphing_basis_vector_4'> +1.9747263e-07 </wgt>
<wgt id='morphing_basis_vector_5'> +3.2050315e-07 </wgt>
</rwgt>
</event>
<event>
 4      1 +6.9060000e-13 7.37728200e+03 7.81860800e-03 7.12751400e-02
        2 -1    0    0  501    0 +0.0000000000e+00 +0.0000000000e+00 +4.7843671473e+03 4.7843671473e+03 0.0000000000e+00 0.0000e+00 1.0000e+00
       -2 -1    0    0    0  501 -0.0000000000e+00 -0.0000000000e+00 -2.8438601785e+03 2.8438601785e+03 0.0000000000e+00 0.0000e+00 -1.0000e+00
      -13  1    1    2    0    0 -2.9803930738e+03 -1.0986973158e+03 +2.9091899819e+03 4.3073501154e+03 0.0000000000e+00 0.0000e+00 -1.0000e+00
       13  1    1    2    0    0 +2.9803930738e+03 +1.0986973158e+03 -9.6868301313e+02 3.3208772103e+03 0.0000000000e+00 0.0000e+00 1.0000e+00
<mgrwt>
<rscale>  0 0.73772817E+04</rscale>
<asrwt>0</asrwt>
<pdfrwt beam="1">  1        2 0.73605649E+00 0.73772817E+04</pdfrwt>
<pdfrwt beam="2">  1       -2 0.43751695E+00 0.73772817E+04</pdfrwt>
<totfact> 0.11507743E-04</totfact>
</mgrwt>
<rwgt>
<wgt id='morphing_basis_vector_1'> +3.2812307e-07 </wgt>
<wgt id='morphing_basis_vector_2'> +3.4079607e-07 </wgt>
<wgt id='morphing_basis_vector_3'> +3.9054965e-07 </wgt>
<wgt id='morphing_basis_vector_4'> +1.0942950e-07 </wgt>
<wgt id='morphing_basis_vector_5'> +3.4343512e-07 </wgt>
</rwgt>
</event>
<event>
 4      1 +6.9060000e-13 7.03005000e+03 7.81860800e-03 7.15837500e-02
        2 -1    0    0  501    0 +0.0000000000e+00 +0.0000000000e+00 +3.8054198765e+03 3.8054198765e+03 0.0000000000e+00 0.0000e+00 1.0000e+00
       -2 -1    0    0    0  501 -0.0000000000e+00 -0.0000000000e+00 -3.2467899995e+03 3.2467899995e+03 0.0000000000e+00 0.0000e+00 -1.0000e+00
      -13  1    1    2    0    0 -3.3651792272e+03 +9.1005096894e+02 +7.3104008037e+02 3.5618876451e+03 0.0000000000e+00 0.0000e+00 -1.0000e+00
       13  1    1    2    0    0 +3.3651792272e+03 -9.1005096894e+02 -1.7241020339e+02 3.4903222309e+03 0.0000000000e+00 0.0000e+00 1.0000e+00
<mgrwt>
<rscale>  0 0.70300496E+04</rscale>
<asrwt>0</asrwt>
<pdfrwt beam="1">  1        2 0.58544921E+00 0.70300496E+04</pdfrwt>
<pdfrwt beam="2">  1       -2 0.49950615E+00 0.70300496E+04</pdfrwt>
<totfact> 0.37136804E-04</totfact>
</mgrwt>
<rwgt>
<wgt id='morphing_basis_vector_1'> +2.4080142e-07 </wgt>
<wgt id='morphing_basis_vector_2'> +1.9348892e-07 </wgt>
<wgt id='morphing_basis_vector_3'> +2.7307861e-07 </wgt>
<wgt id='morphing_basis_vector_4'> +1.5423063e-07 </wgt>
<wgt id='morphing_basis_vector_5'> +2.8851617e-07 </wgt>
</rwgt>
</event>
<event>
 4      1 +6.9060000e-13 7.16501500e+03 7.81860800e-03 7.14617100e-02
        2 -1    0    0  501    0 +0.0000000000e+00 +0.0000000000e+00 +4.3321212675e+03 4.3321212675e+03 0.0000000000e+00 0.0000e+00 1.0000e+00
       -2 -1    0    0    0  501 -0.0000000000e+00 -0.0000000000e+00 -2.9626040762e+03 2.9626040762e+03 0.0000000000e+00 0.0000e+00 -1.0000e+00
      -13  1    1    2    0    0 -1.7018948040e+03 -2.1824022050e+02 +3.8865737121e+03 4.2484738363e+03 0.0000000000e+00 0.0000e+00 1.0000e+00
       13  1    1    2    0    0 +1.7018948040e+03 +2.1824022050e+02 -2.5170565208e+03 3.0462515074e+03 0.0000000000e+00 0.0000e+00 -1.0000e+00
<mgrwt>
<rscale>  0 0.71650150E+04</rscale>
<asrwt>0</asrwt>
<pdfrwt beam="1">  1        2 0.66648020E+00 0.71650150E+04</pdfrwt>
<pdfrwt beam="2">  1       -2 0.45578524E+00 0.71650150E+04</pdfrwt>
<totfact> 0.26565277E-04</totfact>
</mgrwt>
<rwgt>
<wgt id='morphing_basis_vector_1'> +3.3337977e-07 </wgt>
<wgt id='morphing_basis_vector_2'> +4.2466067e-07 </wgt>
<wgt id='morphing_basis_vector_3'> +4.1530966e-07 </wgt>
<wgt id='morphing_basis_vector_4'> +8.6198394e-09 </wgt>
<wgt id='morphing_basis_vector_5'> +2.9805064e-07 </wgt>
</rwgt>
</event>
<event>
 4      1 +6.9060000e-13 6.87334800e+03 7.81860800e-03 7.17289600e-02
        2 -1    0    0  501    0 +0.0000000000e+00 +0.0000000000e+00 +4.2620327987e+03 4.2620327987e+03 0.0000000000e+00 0.0000e+00 -1.0000e+00
       -2 -1    0    0    0  501 -0.0000000000e+00 -0.0000000000e+00 -2.7711487427e+03 2.7711487427e+03 0.0000000000e+00 0.0000e+00 1.0000e+00
      -13  1    1    2    0    0 -1.4475412382e+03 -3.6905700373e+02 -2.4215499545e+03 2.8452562083e+03 0.0000000000e+00 0.0000e+00 1.0000e+00
       13  1    1    2    0    0 +1.4475412382e+03 +3.6905700373e+02 +3.9124340105e+03 4.1879253330e+03 0.0000000000e+00 0.0000e+00 -1.0000e+00
<mgrwt>
<rscale>  0 0.68733476E+04</rscale>
<asrwt>0</asrwt>
<pdfrwt beam="1">  1        2 0.65569735E+00 0.68733476E+04</pdfrwt>
<pdfrwt beam="2">  1       -2 0.42633058E+00 0.68733476E+04</pdfrwt>
<totfact> 0.50389084E-04</totfact>
</mgrwt>
<rwgt>
<wgt id='morphing_basis_vector_1'> +2.0807222e-07 </wgt>
<wgt id='morphing_basis_vector_2'> +1.4160794e-07 </wgt>
<wgt id='morphing_basis_vector_3'> +2.2986932e-07 </wgt>
<wgt id='morphing_basis_vector_4'> +1.6663682e-07 </wgt>
<wgt id='morphing_basis_vector_5'> +2.6576840e-07 </wgt>
</rwgt>
</event>
<event>
 4      1 +6.9060000e-13 6.83893900e+03 7.81860800e-03 7.17613700e-02
        2 -1    0    0  501    0 +0.0000000000e+00 +0.0000000000e+00 +4.9078108701e+03 4.9078108701e+03 0.0000000000e+00 0.0000e+00 -1.0000e+00
       -2 -1    0    0    0  501 -0.0000000000e+00 -0.0000000000e+00 -2.3824822405e+03 2.3824822405e+03 0.0000000000e+00 0.0000e+00 1.0000e+00
      -13  1    1    2    0    0 -2.5287161179e+03 -2.2967075406e+03 +1.4260838961e+03 3.7017544503e+03 0.0000000000e+00 0.0000e+00 1.0000e+00
       13  1    1    2    0    0 +2.5287161179e+03 +2.2967075406e+03 +1.0992447335e+03 3.5885386602e+03 0.0000000000e+00 0.0000e+00 -1.0000e+00
<mgrwt>
<rscale>  0 0.68389392E+04</rscale>
<asrwt>0</asrwt>
<pdfrwt beam="1">  1        2 0.75504782E+00 0.68389392E+04</pdfrwt>
<pdfrwt beam="2">  1       -2 0.36653573E+00 0.68389392E+04</pdfrwt>
<totfact> 0.24692818E-04</totfact>
</mgrwt>
<rwgt>
<wgt id='morphing_basis_vector_1'> +2.1273578e-07 </wgt>
<wgt id='morphing_basis_vector_2'> +1.6459386e-07 </wgt>
<wgt id='morphing_basis_vector_3'> +2.3970297e-07 </wgt>
<wgt id='morphing_basis_vector_4'> +1.4447398e-07 </wgt>
<wgt id='morphing_basis_vector_5'> +2.5888969e-07 </wgt>
</rwgt>
</event>
<event>
 4      1 +6.9060000e-13 6.73059900e+03 7.81860800e-03 7.18646900e-02
        2 -1    0    0  501    0 +0.0000000000e+00 +0.0000000000e+00 +2.8466768986e+03 2.8466768986e+03 0.0000000000e+00 0.0000e+00 -1.0000e+00
       -2 -1    0    0    0  501 -0.0000000000e+00 -0.0000000000e+00 -3.9784077078e+03 3.9784077078e+03 0.0000000000e+00 0.0000e+00 1.0000e+00
      -13  1    1    2    0    0 +1.1237286360e+03 +1.9539256858e+03 +1.9681447531e+03 2.9923544914e+03 0.0000000000e+00 0.0000e+00 -1.0000e+00
       13  1    1    2    0    0 -1.1237286360e+03 -1.9539256858e+03 -3.0998755623e+03 3.8327301150e+03 0.0000000000e+00 0.0000e+00 1.0000e+00
<mgrwt>
<rscale>  0 0.67305992E+04</rscale>
<asrwt>0</asrwt>
<pdfrwt beam="1">  1        2 0.43795029E+00 0.67305992E+04</pdfrwt>
<pdfrwt beam="2">  1       -2 0.61206272E+00 0.67305992E+04</pdfrwt>
<totfact> 0.23697238E-04</totfact>
</mgrwt>
<rwgt>
<wgt id='morphing_basis_vector_1'> +2.5058393e-07 </wgt>
<wgt id='morphing_basis_vector_2'> +3.0404450e-07 </wgt>
<wgt id='morphing_basis_vector_3'> +3.0836471e-07 </wgt>
<wgt id='morphing_basis_vector_4'> +2.6246436e-08 </wgt>
<wgt id='morphing_basis_vector_5'> +2.3363851e-07 </wgt>
</rwgt>
</event>
<event>
 4      1 +6.9060000e-13 6.86936200e+03 7.81860800e-03 7.17327100e-02
        2 -1    0    0  501    0 +0.0000000000e+00 +0.0000000000e+00 +3.6872532019e+03 3.6872532019e+03 0.0000000000e+00 0.0000e+00 -1.0000e+00
       -2 -1    0    0    0  501 -0.0000000000e+00 -0.0000000000e+00 -3.1994095545e+03 3.1994095545e+03 0.0000000000e+00 0.0000e+00 1.0000e+00
      -13  1    1    2    0    0 -2.5016830865e+03 -1.1625311296e+03 -1.8074810823e+03 3.2980122430e+03 0.0000000000e+00 0.0000e+00 1.0000e+00
       13  1    1    2    0    0 +2.5016830865e+03 +1.1625311296e+03 +2.2953247297e+03 3.5886505134e+03 0.0000000000e+00 0.0000e+00 -1.0000e+00
<mgrwt>
<rscale>  0 0.68693619E+04</rscale>
<asrwt>0</asrwt>
<pdfrwt beam="1">  1        2 0.56726973E+00 0.68693619E+04</pdfrwt>
<pdfrwt beam="2">  1       -2 0.49221685E+00 0.68693619E+04</pdfrwt>
<totfact> 0.52786808E-04</totfact>
</mgrwt>
<rwgt>
<wgt id='morphing_basis_vector_1'> +2.0810843e-07 </wgt>
<wgt id='morphing_basis_vector_2'> +1.4279875e-07 </wgt>
<wgt id='morphing_basis_vector_3'> +2.3018458e-07 </wgt>
<wgt id='morphing_basis_vector_4'> +1.6514047e-07 </wgt>
<wgt id='morphing_basis_vector_5'> +2.6505796e-07 </wgt>
</rwgt>
</event>
<event>
 4      1 +6.9060000e-13 6.99608300e+03 7.81860800e-03 7.16149000e-02
        2 -1    0    0  501    0 +0.0000000000e+00 +0.0000000000e+00 +6.0370707209e+03 6.0370707209e+03 0.0000000000e+00 0.0000e+00 1.0000e+00
       -2 -1    0    0    0  501 -0.0000000000e+00 -0.0000000000e+00 -2.0268596030e+03 2.0268596030e+03 0.0000000000e+00 0.0000e+00 -1.0000e+00
      -13  1    1    2    0    0 +1.2691866796e+02 +2.1346374431e+03 -1.1857390361e+03 2.4451507977e+03 0.0000000000e+00 0.0000e+00 -1.0000e+00
       13  1    1    2    0    0 -1.2691866796e+02 -2.1346374431e+03 +5.1959501539e+03 5.6187795262e+03 0.0000000000e+00 0.0000e+00 1.0000e+00
<mgrwt>
<rscale>  0 0.69960831E+04</rscale>
<asrwt>0</asrwt>
<pdfrwt beam="1">  1        2 0.92878010E+00 0.69960831E+04</pdfrwt>
<pdfrwt beam="2">  1       -2 0.31182456E+00 0.69960831E+04</pdfrwt>
<totfact> 0.25863432E-06</totfact>
</mgrwt>
<rwgt>
<wgt id='morphing_basis_vector_1'> +2.2340862e-07 </wgt>
<wgt id='morphing_basis_vector_2'> +1.5227901e-07 </wgt>
<wgt id='morphing_basis_vector_3'> +2.4689296e-07 </wgt>
<wgt id='morphing_basis_vector_4'> +1.7867064e-07 </wgt>
<wgt id='morphing_basis_vector_5'> +2.8528139e-07 </wgt>
</rwgt>
</event>
<event>
 4      1 +6.9060000e-13 7.02771900e+03 7.81860800e-03 7.15858800e-02
        2 -1    0    0  501    0 +0.0000000000e+00 +0.0000000000e+00 +4.3765052001e+03 4.3765052001e+03 0.0000000000e+00 0.0000e+00 -1.0000e+00
       -2 -1    0    0    0  501 -0.0000000000e+00 -0.0000000000e+00 -2.8212486099e+03 2.8212486099e+03 0.0000000000e+00 0.0000e+00 1.0000e+00
      -13  1    1    2    0    0 -6.7988904546e+02 -1.4633492115e+03 -2.4193642645e+03 2.9080858779e+03 0.0000000000e+00 0.0000e+00 1.0000e+00
       13  1    1    2    0    0 +6.7988904546e+02 +1.4633492115e+03 +3.9746208547e+03 4.2896679321e+03 0.0000000000e+00 0.0000e+00 -1.0000e+00
<mgrwt>
<rscale>  0 0.70277192E+04</rscale>
<asrwt>0</asrwt>
<pdfrwt beam="1">  1        2 0.67330849E+00 0.70277192E+04</pdfrwt>
<pdfrwt beam="2">  1       -2 0.43403825E+00 0.70277192E+04</pdfrwt>
<totfact> 0.34316904E-04</totfact>
</mgrwt>
<rwgt>
<wgt id='morphing_basis_vector_1'> +2.2737684e-07 </wgt>
<wgt id='morphing_basis_vector_2'> +1.5477631e-07 </wgt>
<wgt id='morphing_basis_vector_3'> +2.5123558e-07 </wgt>
<wgt id='morphing_basis_vector_4'> +1.8212981e-07 </wgt>
<wgt id='morphing_basis_vector_5'> +2.9050194e-07 </wgt>
</rwgt>
</event>
<event>
 4      1 +6.9060000e-13 6.92880300e+03 7.81860800e-03 7.16771300e-02
        2 -1    0    0  501    0 +0.0000000000e+00 +0.0000000000e+00 +4.4544038595e+03 4.4544038595e+03 0.0000000000e+00 0.0000e+00 1.0000e+00
       -2 -1    0    0    0  501 -0.0000000000e+00 -0.0000000000e+00 -2.6944298266e+03 2.6944298266e+03 0.0000000000e+00 0.0000e+00 -1.0000e+00
      -13  1    1    2    0    0 -1.1725298777e+03 -2.0241880304e+03 +3.5165049660e+03 4.2235021809e+03 0.0000000000e+00 0.0000e+00 1.0000e+00
       13  1    1    2    0    0 +1.1725298777e+03 +2.0241880304e+03 -1.7565309331e+03 2.9253315052e+03 0.0000000000e+00 0.0000e+00 -1.0000e+00
<mgrwt>
<rscale>  0 0.69288032E+04</rscale>
<asrwt>0</asrwt>
<pdfrwt beam="1">  1        2 0.68529290E+00 0.69288032E+04</pdfrwt>
<pdfrwt beam="2">  1       -2 0.41452767E+00 0.69288032E+04</pdfrwt>
<totfact> 0.38997564E-04</totfact>
</mgrwt>
<rwgt>
<wgt id='morphing_basis_vector_1'> +2.8088553e-07 </wgt>
<wgt id='morphing_basis_vector_2'> +3.3998015e-07 </wgt>
<wgt id='morphing_basis_vector_3'> +3.4556810e-07 </wgt>
<wgt id='morphing_basis_vector_4'> +3.0527180e-08 </wgt>
<wgt id='morphing_basis_vector_5'> +2.6253485e-07 </wgt>
</rwgt>
</event>
<event>
 4      1 +6.9060000e-13 6.68704100e+03 7.81860800e-03 7.19067800e-02
        2 -1    0    0  501    0 +0.0000000000e+00 +0.0000000000e+00 +5.1937375754e+03 5.1937375754e+03 0.0000000000e+00 0.0000e+00 -1.0000e+00
       -2 -1    0    0    0  501 -0.0000000000e+00 -0.0000000000e+00 -2.1524247645e+03 2.1524247645e+03 0.0000000000e+00 0.0000e+00 1.0000e+00
      -13  1    1    2    0    0 -2.1963776701e+03 -1.6925630146e+03 -5.3171982796e+02 2.8233969617e+03 0.0000000000e+00 0.0000e+00 1.0000e+00
       13  1    1    2    0    0 +2.1963776701e+03 +1.6925630146e+03 +3.5730326388e+03 4.5227653782e+03 0.0000000000e+00 0.0000e+00 -1.0000e+00
<mgrwt>
<rscale>  0 0.66870410E+04</rscale>
<asrwt>0</asrwt>
<pdfrwt beam="1">  1        2 0.79903654E+00 0.66870410E+04</pdfrwt>
<pdfrwt beam="2">  1       -2 0.33114227E+00 0.66870410E+04</pdfrwt>
<totfact> 0.17084204E-04</totfact>
</mgrwt>
<rwgt>
<wgt id='morphing_basis_vector_1'> +1.8703453e-07 </wgt>
<wgt id='morphing_basis_vector_2'> +1.2859267e-07 </wgt>
<wgt id='morphing_basis_vector_3'> +2.0690118e-07 </wgt>
<wgt id='morphing_basis_vector_4'> +1.4801070e-07 </wgt>
<wgt id='morphing_basis_vector_5'> +2.3795305e-07 </wgt>
</rwgt>
</event>
<event>
 4      1 +6.9060000e-13 6.73431300e+03 7.81860800e-03 7.18611100e-02
        2 -1    0    0  501    0 +0.0000000000e+00 +0.0000000000e+00 +2.8957249301e+03 2.8957249301e+03 0.0000000000e+00 0.0000e+00 -1.0000e+00
       -2 -1    0    0    0  501 -0.0000000000e+00 -0.0000000000e+00 -3.9153389159e+03 3.9153389159e+03 0.0000000000e+00 0.0000e+00 1.0000e+00
      -13  1    1    2    0    0 -2.2343138316e+03 -1.7737682820e+03 -2.3188600210e+03 3.6763465579e+03 0.0000000000e+00 0.0000e+00 1.0000e+00
       13  1    1    2    0    0 +2.2343138316e+03 +1.7737682820e+03 +1.2992460352e+03 3.1347172881e+03 0.0000000000e+00 0.0000e+00 -1.0000e+00
<mgrwt>
<rscale>  0 0.67343135E+04</rscale>
<asrwt>0</asrwt>
<pdfrwt beam="1">  1        2 0.44549614E+00 0.67343135E+04</pdfrwt>
<pdfrwt beam="2">  1       -2 0.60235983E+00 0.67343135E+04</pdfrwt>
<totfact> 0.27803557E-04</totfact>
</mgrwt>
<rwgt>
<wgt id='morphing_basis_vector_1'> +1.9247440e-07 </wgt>
<wgt id='morphing_basis_vector_2'> +1.3257196e-07 </wgt>
<wgt id='morphing_basis_vector_3'> +2.1298482e-07 </wgt>
<wgt id='morphing_basis_vector_4'> +1.5202372e-07 </wgt>
<wgt id='morphing_basis_vector_5'> +2.4474657e-07 </wgt>
</rwgt>
</event>
<event>
 4      1 +6.9060000e-13 7.09796000e+03 7.81860800e-03 7.15220000e-02
        2 -1    0    0  501    0 +0.0000000000e+00 +0.0000000000e+00 +4.5836456558e+03 4.5836456558e+03 0.0000000000e+00 0.0000e+00 -1.0000e+00
       -2 -1    0    0    0  501 -0.0000000000e+00 -0.0000000000e+00 -2.7478695549e+03 2.7478695549e+03 0.0000000000e+00 0.0000e+00 1.0000e+00
      -13  1    1    2    0    0 +3.5383206067e+03 +1.8407507307e+02 +1.1287220507e+03 3.7185494237e+03 0.0000000000e+00 0.0000e+00 1.0000e+00
       13  1    1    2    0    0 -3.5383206067e+03 -1.8407507307e+02 +7.0705405020e+02 3.6129657871e+03 0.0000000000e+00 0.0000e+00 -1.0000e+00
<mgrwt>
<rscale>  0 0.70979604E+04</rscale>
<asrwt>0</asrwt>
<pdfrwt beam="1">  1        2 0.70517625E+00 0.70979604E+04</pdfrwt>
<pdfrwt beam="2">  1       -2 0.42274916E+00 0.70979604E+04</pdfrwt>
<totfact> 0.24885973E-04</totfact>
</mgrwt>
<rwgt>
<wgt id='morphing_basis_vector_1'> +2.4724926e-07 </wgt>
<wgt id='morphing_basis_vector_2'> +1.9233319e-07 </wgt>
<wgt id='morphing_basis_vector_3'> +2.7890642e-07 </wgt>
<wgt id='morphing_basis_vector_4'> +1.6667035e-07 </wgt>
<wgt id='morphing_basis_vector_5'> +3.0038326e-07 </wgt>
</rwgt>
</event>
<event>
 4      1 +6.9060000e-13 7.96917200e+03 7.81860800e-03 7.07864900e-02
        2 -1    0    0  501    0 +0.0000000000e+00 +0.0000000000e+00 +3.0577352496e+03 3.0577352496e+03 0.0000000000e+00 0.0000e+00 -1.0000e+00
       -2 -1    0    0    0  501 -0.0000000000e+00 -0.0000000000e+00 -5.1923802535e+03 5.1923802535e+03 0.0000000000e+00 0.0000e+00 1.0000e+00
      -13  1    1    2    0    0 +2.7614958671e+03 +2.2245319130e+03 -2.9486731151e+03 4.6118407167e+03 0.0000000000e+00 0.0000e+00 1.0000e+00
       13  1    1    2    0    0 -2.7614958671e+03 -2.2245319130e+03 +8.1402811124e+02 3.6382747865e+03 0.0000000000e+00 0.0000e+00 -1.0000e+00
<mgrwt>
<rscale>  0 0.79691716E+04</rscale>
<asrwt>0</asrwt>
<pdfrwt beam="1">  1        2 0.47042081E+00 0.79691716E+04</pdfrwt>
<pdfrwt beam="2">  1       -2 0.79882773E+00 0.79691716E+04</pdfrwt>
<totfact> 0.11061688E-04</totfact>
</mgrwt>
<rwgt>
<wgt id='morphing_basis_vector_1'> +3.7773862e-07 </wgt>
<wgt id='morphing_basis_vector_2'> +2.6187899e-07 </wgt>
<wgt id='morphing_basis_vector_3'> +4.1876914e-07 </wgt>
<wgt id='morphing_basis_vector_4'> +2.9693719e-07 </wgt>
<wgt id='morphing_basis_vector_5'> +4.8030446e-07 </wgt>
</rwgt>
</event>
<event>
 4      1 +6.9060000e-13 7.10916000e+03 7.81860800e-03 7.15118800e-02
        2 -1    0    0  501    0 +0.0000000000e+00 +0.0000000000e+00 +5.2895203488e+03 5.2895203488e+03 0.0000000000e+00 0.0000e+00 -1.0000e+00
       -2 -1    0    0    0  501 -0.0000000000e+00 -0.0000000000e+00 -2.3886925777e+03 2.3886925777e+03 0.0000000000e+00 0.0000e+00 1.0000e+00
      -13  1    1    2    0    0 -9.4844349822e+02 -1.4946714204e+03 -1.8787626847e+03 2.5813440200e+03 0.0000000000e+00 0.0000e+00 1.0000e+00
       13  1    1    2    0    0 +9.4844349822e+02 +1.4946714204e+03 +4.7795904558e+03 5.0968689064e+03 0.0000000000e+00 0.0000e+00 -1.0000e+00
<mgrwt>
<rscale>  0 0.71091597E+04</rscale>
<asrwt>0</asrwt>
<pdfrwt beam="1">  1        2 0.81377236E+00 0.71091597E+04</pdfrwt>
<pdfrwt beam="2">  1       -2 0.36749117E+00 0.71091597E+04</pdfrwt>
<totfact> 0.68214182E-05</totfact>
</mgrwt>
<rwgt>
<wgt id='morphing_basis_vector_1'> +2.3809840e-07 </wgt>
<wgt id='morphing_basis_vector_2'> +1.6211628e-07 </wgt>
<wgt id='morphing_basis_vector_3'> +2.6310896e-07 </wgt>
<wgt id='morphing_basis_vector_4'> +1.9070115e-07 </wgt>
<wgt id='morphing_basis_vector_5'> +3.0422319e-07 </wgt>
</rwgt>
</event>
<event>
 4      1 +6.9060000e-13 6.91767500e+03 7.81860800e-03 7.16874900e-02
        2 -1    0    0  501    0 +0.0000000000e+00 +0.0000000000e+00 +5.3778042531e+03 5.3778042531e+03 0.0000000000e+00 0.0000e+00 1.0000e+00
       -2 -1    0    0    0  501 -0.0000000000e+00 -0.0000000000e+00 -2.2246173407e+03 2.2246173407e+03 0.0000000000e+00 0.0000e+00 -1.0000e+00
      -13  1    1    2    0    0 +1.9027459620e+03 -2.0983290116e+03 +3.7580524928e+03 4.7059946213e+03 0.0000000000e+00 0.0000e+00 1.0000e+00
       13  1    1    2    0    0 -1.9027459620e+03 +2.0983290116e+03 -6.0486558052e+02 2.8964269725e+03 0.0000000000e+00 0.0000e+00 -1.0000e+00
<mgrwt>
<rscale>  0 0.69176749E+04</rscale>
<asrwt>0</asrwt>
<pdfrwt beam="1">  1        2 0.82735449E+00 0.69176749E+04</pdfrwt>
<pdfrwt beam="2">  1       -2 0.34224882E+00 0.69176749E+04</pdfrwt>
<totfact> 0.71689683E-05</totfact>
</mgrwt>
<rwgt>
<wgt id='morphing_basis_vector_1'> +2.6102610e-07 </wgt>
<wgt id='morphing_basis_vector_2'> +2.8480343e-07 </wgt>
<wgt id='morphing_basis_vector_3'> +3.1375611e-07 </wgt>
<wgt id='morphing_basis_vector_4'> +6.9055208e-08 </wgt>
<wgt id='morphing_basis_vector_5'> +2.6411301e-07 </wgt>
</rwgt>
</event>
<event>
 4      1 +6.9060000e-13 7.66718600e+03 7.81860800e-03 7.10302800e-02
        2 -1    0    0  501    0 +0.0000000000e+00 +0.0000000000e+00 +3.9968520457e+03 3.9968520457e+03 0.0000000000e+00 0.0000e+00 -1.0000e+00
       -2 -1    0    0    0  501 -0.0000000000e+00 -0.0000000000e+00 -3.6770022802e+03 3.6770022802e+03 0.0000000000e+00 0.0000e+00 1.0000e+00
      -13  1    1    2    0    0 +2.6005038673e+03 -2.7768524497e+03 +6.3246282923e+02 3.8566227611e+03 0.0000000000e+00 0.0000e+00 1.0000e+00
       13  1    1    2    0    0 -2.6005038673e+03 +2.7768524497e+03 -3.1261306376e+02 3.8172315648e+03 0.0000000000e+00 0.0000e+00 -1.0000e+00
<mgrwt>
<rscale>  0 0.76671857E+04</rscale>
<asrwt>0</asrwt>
<pdfrwt beam="1">  1        2 0.61490031E+00 0.76671857E+04</pdfrwt>
<pdfrwt beam="2">  1       -2 0.56569266E+00 0.76671857E+04</pdfrwt>
<totfact> 0.80952468E-05</totfact>
</mgrwt>
<rwgt>
<wgt id='morphing_basis_vector_1'> +3.4020493e-07 </wgt>
<wgt id='morphing_basis_vector_2'> +2.7276012e-07 </wgt>
<wgt id='morphing_basis_vector_3'> +3.8587353e-07 </wgt>
<wgt id='morphing_basis_vector_4'> +2.1899185e-07 </wgt>
<wgt id='morphing_basis_vector_5'> +4.0846900e-07 </wgt>
</rwgt>
</event>
<event>
 4      1 +6.9060000e-13 7.09762400e+03 7.81860800e-03 7.15223100e-02
        2 -1    0    0  501    0 +0.0000000000e+00 +0.0000000000e+00 +2.2046707817e+03 2.2046707817e+03 0.0000000000e+00 0.0000e+00 -1.0000e+00
       -2 -1    0    0    0  501 -0.0000000000e+00 -0.0000000000e+00 -5.7124474044e+03 5.7124474044e+03 0.0000000000e+00 0.0000e+00 1.0000e+00
      -13  1    1    2    0    0 -2.5546795358e+03 +1.6650062191e+03 -3.7788199761e+03 4.8557299814e+03 0.0000000000e+00 0.0000e+00 1.0000e+00
       13  1    1    2    0    0 +2.5546795358e+03 -1.6650062191e+03 +2.7104335344e+02 3.0613882046e+03 0.0000000000e+00 0.0000e+00 -1.0000e+00
<mgrwt>
<rscale>  0 0.70976238E+04</rscale>
<asrwt>0</asrwt>
<pdfrwt beam="1">  1        2 0.33918013E+00 0.70976238E+04</pdfrwt>
<pdfrwt beam="2">  1       -2 0.87883805E+00 0.70976238E+04</pdfrwt>
<totfact> 0.13176223E-04</totfact>
</mgrwt>
<rwgt>
<wgt id='morphing_basis_vector_1'> +2.3750877e-07 </wgt>
<wgt id='morphing_basis_vector_2'> +1.6385340e-07 </wgt>
<wgt id='morphing_basis_vector_3'> +2.6296215e-07 </wgt>
<wgt id='morphing_basis_vector_4'> +1.8742806e-07 </wgt>
<wgt id='morphing_basis_vector_5'> +3.0207862e-07 </wgt>
</rwgt>
</event>
<event>
 4      1 +6.9060000e-13 7.35052200e+03 7.81860800e-03 7.12983100e-02
        2 -1    0    0  501    0 +0.0000000000e+00 +0.0000000000e+00 +3.8930057527e+03 3.8930057527e+03 0.0000000000e+00 0.0000e+00 -1.0000e+00
       -2 -1    0    0    0  501 -0.0000000000e+00 -0.0000000000e+00 -3.4696954223e+03 3.4696954223e+03 0.0000000000e+00 0.0000e+00 1.0000e+00
      -13  1    1    2    0    0 +2.7153821918e+03 +2.4665700481e+03 +4.3624975611e+02 3.6942634042e+03 0.0000000000e+00 0.0000e+00 1.0000e+00
       13  1    1    2    0    0 -2.7153821918e+03 -2.4665700481e+03 -1.2939425617e+01 3.6684377708e+03 0.0000000000e+00 0.0000e+00 -1.0000e+00
<mgrwt>
<rscale>  0 0.73505222E+04</rscale>
<asrwt>0</asrwt>
<pdfrwt beam="1">  1        2 0.59892396E+00 0.73505222E+04</pdfrwt>
<pdfrwt beam="2">  1       -2 0.53379929E+00 0.73505222E+04</pdfrwt>
<totfact> 0.17153625E-04</totfact>
</mgrwt>
<rwgt>
<wgt id='morphing_basis_vector_1'> +2.8445332e-07 </wgt>
<wgt id='morphing_basis_vector_2'> +2.2162626e-07 </wgt>
<wgt id='morphing_basis_vector_3'> +3.2102784e-07 </wgt>
<wgt id='morphing_basis_vector_4'> +1.9140069e-07 </wgt>
<wgt id='morphing_basis_vector_5'> +3.4551796e-07 </wgt>
</rwgt>
</event>
<event>
 4      1 +6.9060000e-13 6.85504400e+03 7.81860800e-03 7.17461800e-02
        2 -1    0    0  501    0 +0.0000000000e+00 +0.0000000000e+00 +3.7883349952e+03 3.7883349952e+03 0.0000000000e+00 0.0000e+00 -1.0000e+00
       -2 -1    0    0    0  501 -0.0000000000e+00 -0.0000000000e+00 -3.1010744106e+03 3.1010744106e+03 0.0000000000e+00 0.0000e+00 1.0000e+00
      -13  1    1    2    0    0 -1.8188413735e+03 +1.4546394906e+03 -2.1836826346e+03 3.1925898324e+03 0.0000000000e+00 0.0000e+00 1.0000e+00
       13  1    1    2    0    0 +1.8188413735e+03 -1.4546394906e+03 +2.8709432193e+03 3.6968195733e+03 0.0000000000e+00 0.0000e+00 -1.0000e+00
<mgrwt>
<rscale>  0 0.68550445E+04</rscale>
<asrwt>0</asrwt>
<pdfrwt beam="1">  1        2 0.58282077E+00 0.68550445E+04</pdfrwt>
<pdfrwt beam="2">  1       -2 0.47708837E+00 0.68550445E+04</pdfrwt>
<totfact> 0.57003656E-04</totfact>
</mgrwt>
<rwgt>
<wgt id='morphing_basis_vector_1'> +2.0604366e-07 </wgt>
<wgt id='morphing_basis_vector_2'> +1.4062034e-07 </wgt>
<wgt id='morphing_basis_vector_3'> +2.2771767e-07 </wgt>
<wgt id='morphing_basis_vector_4'> +1.6449076e-07 </wgt>
<wgt id='morphing_basis_vector_5'> +2.6291248e-07 </wgt>
</rwgt>
</event>
<event>
 4      1 +6.9060000e-13 7.62711400e+03 7.81860800e-03 7.10634700e-02
        2 -1    0    0  501    0 +0.0000000000e+00 +0.0000000000e+00 +2.5092231406e+03 2.5092231406e+03 0.0000000000e+00 0.0000e+00 -1.0000e+00
       -2 -1    0    0    0  501 -0.0000000000e+00 -0.0000000000e+00 -5.7959048069e+03 5.7959048069e+03 0.0000000000e+00 0.0000e+00 1.0000e+00
      -13  1    1    2    0    0 -1.6626585618e+03 -2.0549034367e+03 -4.6365464370e+03 5.3370988833e+03 0.0000000000e+00 0.0000e+00 1.0000e+00
       13  1    1    2    0    0 +1.6626585618e+03 +2.0549034367e+03 +1.3498647707e+03 2.9680290643e+03 0.0000000000e+00 0.0000e+00 -1.0000e+00
<mgrwt>
<rscale>  0 0.76271144E+04</rscale>
<asrwt>0</asrwt>
<pdfrwt beam="1">  1        2 0.38603433E+00 0.76271144E+04</pdfrwt>
<pdfrwt beam="2">  1       -2 0.89167765E+00 0.76271144E+04</pdfrwt>
<totfact> 0.61436818E-05</totfact>
</mgrwt>
<rwgt>
<wgt id='morphing_basis_vector_1'> +3.1558395e-07 </wgt>
<wgt id='morphing_basis_vector_2'> +2.1554593e-07 </wgt>
<wgt id='morphing_basis_vector_3'> +3.4901970e-07 </wgt>
<wgt id='morphing_basis_vector_4'> +2.5216640e-07 </wgt>
<wgt id='morphing_basis_vector_5'> +4.0316746e-07 </wgt>
</rwgt>
</event>
<event>
 4      1 +6.9060000e-13 6.99670800e+03 7.81860800e-03 7.16143300e-02
        2 -1    0    0  501    0 +0.0000000000e+00 +0.0000000000e+00 +3.5782525024e+03 3.5782525024e+03 0.0000000000e+00 0.0000e+00 -1.0000e+00
       -2 -1    0    0    0  501 -0.0000000000e+00 -0.0000000000e+00 -3.4202395322e+03 3.4202395322e+03 0.0000000000e+00 0.0000e+00 1.0000e+00
      -13  1    1    2    0    0 +2.0127630632e+03 +1.3420729801e+03 -2.4487123986e+03 3.4421748130e+03 0.0000000000e+00 0.0000e+00 1.0000e+00
       13  1    1    2    0    0 -2.0127630632e+03 -1.3420729801e+03 +2.6067253687e+03 3.5563172216e+03 0.0000000000e+00 0.0000e+00 -1.0000e+00
<mgrwt>
<rscale>  0 0.69967080E+04</rscale>
<asrwt>0</asrwt>
<pdfrwt beam="1">  1        2 0.55050038E+00 0.69967080E+04</pdfrwt>
<pdfrwt beam="2">  1       -2 0.52619070E+00 0.69967080E+04</pdfrwt>
<totfact> 0.35336878E-04</totfact>
</mgrwt>
<rwgt>
<wgt id='morphing_basis_vector_1'> +2.2360128e-07 </wgt>
<wgt id='morphing_basis_vector_2'> +1.5266486e-07 </wgt>
<wgt id='morphing_basis_vector_3'> +2.4716631e-07 </wgt>
<wgt id='morphing_basis_vector_4'> +1.7849236e-07 </wgt>
<wgt id='morphing_basis_vector_5'> +2.8536307e-07 </wgt>
</rwgt>
</event>
<event>
 4      1 +6.9060000e-13 6.66217200e+03 7.81860800e-03 7.19309600e-02
        2 -1    0    0  501    0 +0.0000000000e+00 +0.0000000000e+00 +3.4405748889e+03 3.4405748889e+03 0.0000000000e+00 0.0000e+00 -1.0000e+00
       -2 -1    0    0    0  501 -0.0000000000e+00 -0.0000000000e+00 -3.2250817599e+03 3.2250817599e+03 0.0000000000e+00 0.0000e+00 1.0000e+00
      -13  1    1    2    0    0 -1.9117123512e+03 +2.6765956689e+03 -4.1914714653e+02 3.3157944476e+03 0.0000000000e+00 0.0000e+00 -1.0000e+00
       13  1    1    2    0    0 +1.9117123512e+03 -2.6765956689e+03 +6.3464027555e+02 3.3498622013e+03 0.0000000000e+00 0.0000e+00 1.0000e+00
<mgrwt>
<rscale>  0 0.66621724E+04</rscale>
<asrwt>0</asrwt>
<pdfrwt beam="1">  1        2 0.52931921E+00 0.66621724E+04</pdfrwt>
<pdfrwt beam="2">  1       -2 0.49616643E+00 0.66621724E+04</pdfrwt>
<totfact> 0.76511073E-04</totfact>
</mgrwt>
<rwgt>
<wgt id='morphing_basis_vector_1'> +1.8742681e-07 </wgt>
<wgt id='morphing_basis_vector_2'> +1.3594735e-07 </wgt>
<wgt id='morphing_basis_vector_3'> +2.0900438e-07 </wgt>
<wgt id='morphing_basis_vector_4'> +1.3905912e-07 </wgt>
<wgt id='morphing_basis_vector_5'> +2.3385756e-07 </wgt>
</rwgt>
</event>
<event>
 4      1 +6.9060000e-13 6.77684700e+03 7.81860800e-03 7.18203400e-02
        2 -1    0    0  501    0 +0.0000000000e+00 +0.0000000000e+00 +4.2232018989e+03 4.2232018989e+03 0.0000000000e+00 0.0000e+00 -1.0000e+00
       -2 -1    0    0    0  501 -0.0000000000e+00 -0.0000000000e+00 -2.7186516567e+03 2.7186516567e+03 0.0000000000e+00 0.0000e+00 1.0000e+00
      -13  1    1    2    0    0 -1.3538911840e+03 +9.0023836767e+01 -2.4282056851e+03 2.7816017828e+03 0.0000000000e+00 0.0000e+00 1.0000e+00
       13  1    1    2    0    0 +1.3538911840e+03 -9.0023836767e+01 +3.9327559272e+03 4.1602517727e+03 0.0000000000e+00 0.0000e+00 -1.0000e+00
<mgrwt>
<rscale>  0 0.67768473E+04</rscale>
<asrwt>0</asrwt>
<pdfrwt beam="1">  1        2 0.64972337E+00 0.67768473E+04</pdfrwt>
<pdfrwt beam="2">  1       -2 0.41825410E+00 0.67768473E+04</pdfrwt>
<totfact> 0.62436151E-04</totfact>
</mgrwt>
<rwgt>
<wgt id='morphing_basis_vector_1'> +1.9664384e-07 </wgt>
<wgt id='morphing_basis_vector_2'> +1.3380695e-07 </wgt>
<wgt id='morphing_basis_vector_3'> +2.1721989e-07 </wgt>
<wgt id='morphing_basis_vector_4'> +1.5747336e-07 </wgt>
<wgt id='morphing_basis_vector_5'> +2.5113153e-07 </wgt>
</rwgt>
</event>
<event>
 4      1 +6.9060000e-13 7.45268700e+03 7.81860800e-03 7.12103800e-02
        2 -1    0    0  501    0 +0.0000000000e+00 +0.0000000000e+00 +2.9033885169e+03 2.9033885169e+03 0.0000000000e+00 0.0000e+00 -1.0000e+00
       -2 -1    0    0    0  501 -0.0000000000e+00 -0.0000000000e+00 -4.7825616249e+03 4.7825616249e+03 0.0000000000e+00 0.0000e+00 1.0000e+00
      -13  1    1    2    0    0 +4.0995486296e+01 +3.6304692171e+03 -1.8046782928e+03 4.0544853073e+03 0.0000000000e+00 0.0000e+00 1.0000e+00
       13  1    1    2    0    0 -4.0995486296e+01 -3.6304692171e+03 -7.4494815195e+01 3.6314648345e+03 0.0000000000e+00 0.0000e+00 -1.0000e+00
<mgrwt>
<rscale>  0 0.74526866E+04</rscale>
<asrwt>0</asrwt>
<pdfrwt beam="1">  1        2 0.44667515E+00 0.74526866E+04</pdfrwt>
<pdfrwt beam="2">  1       -2 0.73577871E+00 0.74526866E+04</pdfrwt>
<totfact> 0.10703898E-04</totfact>
</mgrwt>
<rwgt>
<wgt id='morphing_basis_vector_1'> +2.9192391e-07 </wgt>
<wgt id='morphing_basis_vector_2'> +2.0881285e-07 </wgt>
<wgt id='morphing_basis_vector_3'> +3.2505689e-07 </wgt>
<wgt id='morphing_basis_vector_4'> +2.2084705e-07 </wgt>
<wgt id='morphing_basis_vector_5'> +3.6672605e-07 </wgt>
</rwgt>
</event>
<event>
 4      1 +6.9060000e-13 7.04573600e+03 7.81860800e-03 7.15694300e-02
        2 -1    0    0  501    0 +0.0000000000e+00 +0.0000000000e+00 +4.4829109642e+03 4.4829109642e+03 0.0000000000e+00 0.0000e+00 -1.0000e+00
       -2 -1    0    0    0  501 -0.0000000000e+00 -0.0000000000e+00 -2.7684244837e+03 2.7684244837e+03 0.0000000000e+00 0.0000e+00 1.0000e+00
      -13  1    1    2    0    0 +2.1960880417e+03 -2.6005281665e+03 +1.7920718841e+03 3.8466961239e+03 0.0000000000e+00 0.0000e+00 -1.0000e+00
       13  1    1    2    0    0 -2.1960880417e+03 +2.6005281665e+03 -7.7585403651e+01 3.4046393240e+03 0.0000000000e+00 0.0000e+00 1.0000e+00
<mgrwt>
<rscale>  0 0.70457364E+04</rscale>
<asrwt>0</asrwt>
<pdfrwt beam="1">  1        2 0.68967861E+00 0.70457364E+04</pdfrwt>
<pdfrwt beam="2">  1       -2 0.42591146E+00 0.70457364E+04</pdfrwt>
<totfact> 0.30373628E-04</totfact>
</mgrwt>
<rwgt>
<wgt id='morphing_basis_vector_1'> +2.5017159e-07 </wgt>
<wgt id='morphing_basis_vector_2'> +2.1639735e-07 </wgt>
<wgt id='morphing_basis_vector_3'> +2.8735449e-07 </wgt>
<wgt id='morphing_basis_vector_4'> +1.4013711e-07 </wgt>
<wgt id='morphing_basis_vector_5'> +2.8979957e-07 </wgt>
</rwgt>
</event>
<event>
 4      1 +6.9060000e-13 7.22154400e+03 7.81860800e-03 7.14113900e-02
        2 -1    0    0  501    0 +0.0000000000e+00 +0.0000000000e+00 +2.4760203012e+03 2.4760203012e+03 0.0000000000e+00 0.0000e+00 1.0000e+00
       -2 -1    0    0    0  501 -0.0000000000e+00 -0.0000000000e+00 -5.2655769603e+03 5.2655769603e+03 0.0000000000e+00 0.0000e+00 -1.0000e+00
      -13  1    1    2    0    0 -2.4040244427e+02 +3.2124757478e+03 -3.1431415242e+03 4.5007924198e+03 0.0000000000e+00 0.0000e+00 -1.0000e+00
       13  1    1    2    0    0 +2.4040244427e+02 -3.2124757478e+03 +3.5358486500e+02 3.2408048417e+03 0.0000000000e+00 0.0000e+00 1.0000e+00
<mgrwt>
<rscale>  0 0.72215443E+04</rscale>
<asrwt>0</asrwt>
<pdfrwt beam="1">  1        2 0.38092620E+00 0.72215443E+04</pdfrwt>
<pdfrwt beam="2">  1       -2 0.81008877E+00 0.72215443E+04</pdfrwt>
<totfact> 0.25196779E-04</totfact>
</mgrwt>
<rwgt>
<wgt id='morphing_basis_vector_1'> +2.5489271e-07 </wgt>
<wgt id='morphing_basis_vector_2'> +1.7672348e-07 </wgt>
<wgt id='morphing_basis_vector_3'> +2.8244426e-07 </wgt>
<wgt id='morphing_basis_vector_4'> +2.0005810e-07 </wgt>
<wgt id='morphing_basis_vector_5'> +3.2369890e-07 </wgt>
</rwgt>
</event>
<event>
 4      1 +6.9060000e-13 7.43567000e+03 7.81860800e-03 7.12249200e-02
        2 -1    0    0  501    0 +0.0000000000e+00 +0.0000000000e+00 +4.4518215416e+03 4.4518215416e+03 0.0000000000e+00 0.0000e+00 1.0000e+00
       -2 -1    0    0    0  501 -0.0000000000e+00 -0.0000000000e+00 -3.1048634419e+03 3.1048634419e+03 0.0000000000e+00 0.0000e+00 -1.0000e+00
      -13  1    1    2    0    0 +2.5235891785e+03 +1.4326229471e+02 +3.4442536378e+03 4.2722253626e+03 0.0000000000e+00 0.0000e+00 1.0000e+00
       13  1    1    2    0    0 -2.5235891785e+03 -1.4326229471e+02 -2.0972955382e+03 3.2844596209e+03 0.0000000000e+00 0.0000e+00 -1.0000e+00
<mgrwt>
<rscale>  0 0.74356702E+04</rscale>
<asrwt>0</asrwt>
<pdfrwt beam="1">  1        2 0.68489562E+00 0.74356702E+04</pdfrwt>
<pdfrwt beam="2">  1       -2 0.47767130E+00 0.74356702E+04</pdfrwt>
<totfact> 0.13772155E-04</totfact>
</mgrwt>
<rwgt>
<wgt id='morphing_basis_vector_1'> +3.7181287e-07 </wgt>
<wgt id='morphing_basis_vector_2'> +4.4909205e-07 </wgt>
<wgt id='morphing_basis_vector_3'> +4.5753383e-07 </wgt>
<wgt id='morphing_basis_vector_4'> +4.1710692e-08 </wgt>
<wgt id='morphing_basis_vector_5'> +3.4844580e-07 </wgt>
</rwgt>
</event>
<event>
 4      1 +6.9060000e-13 7.81382200e+03 7.81860800e-03 7.09105200e-02
        2 -1    0    0  501    0 +0.0000000000e+00 +0.0000000000e+00 +4.3602442690e+03 4.3602442690e+03 0.0000000000e+00 0.0000e+00 1.0000e+00
       -2 -1    0    0    0  501 -0.0000000000e+00 -0.0000000000e+00 -3.5007103226e+03 3.5007103226e+03 0.0000000000e+00 0.0000e+00 -1.0000e+00
      -13  1    1    2    0    0 -1.8042217979e+02 +2.6482580322e+03 +3.3137870594e+03 4.2458223518e+03 0.0000000000e+00 0.0000e+00 1.0000e+00
       13  1    1    2    0    0 +1.8042217979e+02 -2.6482580322e+03 -2.4542531131e+03 3.6151322398e+03 0.0000000000e+00 0.0000e+00 -1.0000e+00
<mgrwt>
<rscale>  0 0.78138216E+04</rscale>
<asrwt>0</asrwt>
<pdfrwt beam="1">  1        2 0.67080681E+00 0.78138216E+04</pdfrwt>
<pdfrwt beam="2">  1       -2 0.53857082E+00 0.78138216E+04</pdfrwt>
<totfact> 0.58553035E-05</totfact>
</mgrwt>
<rwgt>
<wgt id='morphing_basis_vector_1'> +4.5336204e-07 </wgt>
<wgt id='morphing_basis_vector_2'> +5.4773413e-07 </wgt>
<wgt id='morphing_basis_vector_3'> +5.5816393e-07 </wgt>
<wgt id='morphing_basis_vector_4'> +5.0721615e-08 </wgt>
<wgt id='morphing_basis_vector_5'> +4.2501437e-07 </wgt>
</rwgt>
</event>
<event>
 4      1 +6.9060000e-13 7.95660300e+03 7.81860800e-03 7.07964200e-02
        2 -1    0    0  501    0 +0.0000000000e+00 +0.0000000000e+00 +5.1009703061e+03 5.1009703061e+03 0.0000000000e+00 0.0000e+00 -1.0000e+00
       -2 -1    0    0    0  501 -0.0000000000e+00 -0.0000000000e+00 -3.1027199312e+03 3.1027199312e+03 0.0000000000e+00 0.0000e+00 1.0000e+00
      -13  1    1    2    0    0 -2.5185300142e+03 -3.3981457322e+02 -2.1567122912e+03 3.3331479541e+03 0.0000000000e+00 0.0000e+00 1.0000e+00
       13  1    1    2    0    0 +2.5185300142e+03 +3.3981457322e+02 +4.1549626661e+03 4.8705422833e+03 0.0000000000e+00 0.0000e+00 -1.0000e+00
<mgrwt>
<rscale>  0 0.79566029E+04</rscale>
<asrwt>0</asrwt>
<pdfrwt beam="1">  1        2 0.78476466E+00 0.79566029E+04</pdfrwt>
<pdfrwt beam="2">  1       -2 0.47734153E+00 0.79566029E+04</pdfrwt>
<totfact> 0.22359597E-05</totfact>
</mgrwt>
<rwgt>
<wgt id='morphing_basis_vector_1'> +3.7352536e-07 </wgt>
<wgt id='morphing_basis_vector_2'> +2.5483674e-07 </wgt>
<wgt id='morphing_basis_vector_3'> +4.1311287e-07 </wgt>
<wgt id='morphing_basis_vector_4'> +2.9901507e-07 </wgt>
<wgt id='morphing_basis_vector_5'> +4.7761101e-07 </wgt>
</rwgt>
</event>
<event>
 4      1 +6.9060000e-13 7.68507700e+03 7.81860800e-03 7.10155200e-02
        2 -1    0    0  501    0 +0.0000000000e+00 +0.0000000000e+00 +4.0348615591e+03 4.0348615591e+03 0.0000000000e+00 0.0000e+00 -1.0000e+00
       -2 -1    0    0    0  501 -0.0000000000e+00 -0.0000000000e+00 -3.6593825455e+03 3.6593825455e+03 0.0000000000e+00 0.0000e+00 1.0000e+00
      -13  1    1    2    0    0 +3.4825568380e+03 -5.7670734407e+02 -1.3320661193e+03 3.7729555572e+03 0.0000000000e+00 0.0000e+00 1.0000e+00
       13  1    1    2    0    0 -3.4825568380e+03 +5.7670734407e+02 +1.7075451329e+03 3.9212885473e+03 0.0000000000e+00 0.0000e+00 -1.0000e+00
<mgrwt>
<rscale>  0 0.76850770E+04</rscale>
<asrwt>0</asrwt>
<pdfrwt beam="1">  1        2 0.62074793E+00 0.76850770E+04</pdfrwt>
<pdfrwt beam="2">  1       -2 0.56298193E+00 0.76850770E+04</pdfrwt>
<totfact> 0.78476102E-05</totfact>
</mgrwt>
<rwgt>
<wgt id='morphing_basis_vector_1'> +3.2737231e-07 </wgt>
<wgt id='morphing_basis_vector_2'> +2.2832797e-07 </wgt>
<wgt id='morphing_basis_vector_3'> +3.6319609e-07 </wgt>
<wgt id='morphing_basis_vector_4'> +2.5542394e-07 </wgt>
<wgt id='morphing_basis_vector_5'> +4.1520027e-07 </wgt>
</rwgt>
</event>
<event>
 4      1 +6.9060000e-13 6.66406300e+03 7.81860800e-03 7.19291100e-02
        2 -1    0    0  501    0 +0.0000000000e+00 +0.0000000000e+00 +3.3397710365e+03 3.3397710365e+03 0.0000000000e+00 0.0000e+00 -1.0000e+00
       -2 -1    0    0    0  501 -0.0000000000e+00 -0.0000000000e+00 -3.3243094711e+03 3.3243094711e+03 0.0000000000e+00 0.0000e+00 1.0000e+00
      -13  1    1    2    0    0 -1.4679608022e+03 -2.7601017186e+03 -1.1452519708e+03 3.3293651783e+03 0.0000000000e+00 0.0000e+00 1.0000e+00
       13  1    1    2    0    0 +1.4679608022e+03 +2.7601017186e+03 +1.1607135362e+03 3.3347153293e+03 0.0000000000e+00 0.0000e+00 -1.0000e+00
<mgrwt>
<rscale>  0 0.66640626E+04</rscale>
<asrwt>0</asrwt>
<pdfrwt beam="1">  1        2 0.51381093E+00 0.66640626E+04</pdfrwt>
<pdfrwt beam="2">  1       -2 0.51143223E+00 0.66640626E+04</pdfrwt>
<totfact> 0.69365840E-04</totfact>
</mgrwt>
<rwgt>
<wgt id='morphing_basis_vector_1'> +1.8561419e-07 </wgt>
<wgt id='morphing_basis_vector_2'> +1.3015906e-07 </wgt>
<wgt id='morphing_basis_vector_3'> +2.0592639e-07 </wgt>
<wgt id='morphing_basis_vector_4'> +1.4355644e-07 </wgt>
<wgt id='morphing_basis_vector_5'> +2.3448904e-07 </wgt>
</rwgt>
</event>
<event>
 4      1 +6.9060000e-13 6.88399600e+03 7.81860800e-03 7.17189700e-02
        2 -1    0    0  501    0 +0.0000000000e+00 +0.0000000000e+00 +2.2195999648e+03 2.2195999648e+03 0.0000000000e+00 0.0000e+00 -1.0000e+00
       -2 -1    0    0    0  501 -0.0000000000e+00 -0.0000000000e+00 -5.3376061809e+03 5.3376061809e+03 0.0000000000e+00 0.0000e+00 1.0000e+00
      -13  1    1    2    0    0 +1.6144138014e+03 -6.2936463341e+01 -4.8954750747e+03 5.1551885637e+03 0.0000000000e+00 0.0000e+00 1.0000e+00
       13  1    1    2    0    0 -1.6144138014e+03 +6.2936463341e+01 +1.7774688586e+03 2.4020175819e+03 0.0000000000e+00 0.0000e+00 -1.0000e+00
<mgrwt>
<rscale>  0 0.68839961E+04</rscale>
<asrwt>0</asrwt>
<pdfrwt beam="1">  1        2 0.34147692E+00 0.68839961E+04</pdfrwt>
<pdfrwt beam="2">  1       -2 0.82117018E+00 0.68839961E+04</pdfrwt>
<totfact> 0.33341419E-04</totfact>
</mgrwt>
<rwgt>
<wgt id='morphing_basis_vector_1'> +2.0937201e-07 </wgt>
<wgt id='morphing_basis_vector_2'> +1.4251516e-07 </wgt>
<wgt id='morphing_basis_vector_3'> +2.3131274e-07 </wgt>
<wgt id='morphing_basis_vector_4'> +1.6765293e-07 </wgt>
<wgt id='morphing_basis_vector_5'> +2.6742022e-07 </wgt>
</rwgt>
</event>
<event>
 4      1 +6.9060000e-13 7.48571900e+03 7.81860800e-03 7.11822500e-02
        2 -1    0    0  501    0 +0.0000000000e+00 +0.0000000000e+00 +5.3501821414e+03 5.3501821414e+03 0.0000000000e+00 0.0000e+00 1.0000e+00
       -2 -1    0    0    0  501 -0.0000000000e+00 -0.0000000000e+00 -2.6184149519e+03 2.6184149519e+03 0.0000000000e+00 0.0000e+00 -1.0000e+00
      -13  1    1    2    0    0 +1.5715281657e+03 -1.7633921117e+03 -1.7248071841e+03 2.9247585092e+03 0.0000000000e+00 0.0000e+00 -1.0000e+00
       13  1    1    2    0    0 -1.5715281657e+03 +1.7633921117e+03 +4.4565743736e+03 5.0438385841e+03 0.0000000000e+00 0.0000e+00 1.0000e+00
<mgrwt>
<rscale>  0 0.74857189E+04</rscale>
<asrwt>0</asrwt>
<pdfrwt beam="1">  1        2 0.82310494E+00 0.74857189E+04</pdfrwt>
<pdfrwt beam="2">  1       -2 0.40283307E+00 0.74857189E+04</pdfrwt>
<totfact> 0.31058491E-05</totfact>
</mgrwt>
<rwgt>
<wgt id='morphing_basis_vector_1'> +2.9273297e-07 </wgt>
<wgt id='morphing_basis_vector_2'> +1.9964752e-07 </wgt>
<wgt id='morphing_basis_vector_3'> +3.2364882e-07 </wgt>
<wgt id='morphing_basis_vector_4'> +2.3422206e-07 </wgt>
<wgt id='morphing_basis_vector_5'> +3.7407561e-07 </wgt>
</rwgt>
</event>
<event>
 4      1 +6.9060000e-13 6.81639400e+03 7.81860800e-03 7.17827100e-02
        2 -1    0    0  501    0 +0.0000000000e+00 +0.0000000000e+00 +4.9954230182e+03 4.9954230182e+03 0.0000000000e+00 0.0000e+00 -1.0000e+00
       -2 -1    0    0    0  501 -0.0000000000e+00 -0.0000000000e+00 -2.3252897714e+03 2.3252897714e+03 0.0000000000e+00 0.0000e+00 1.0000e+00
      -13  1    1    2    0    0 -1.0025965108e+03 -1.6962929020e+03 -1.6515413821e+03 2.5710305929e+03 0.0000000000e+00 0.0000e+00 1.0000e+00
       13  1    1    2    0    0 +1.0025965108e+03 +1.6962929020e+03 +4.3216746288e+03 4.7496821967e+03 0.0000000000e+00 0.0000e+00 -1.0000e+00
<mgrwt>
<rscale>  0 0.68163938E+04</rscale>
<asrwt>0</asrwt>
<pdfrwt beam="1">  1        2 0.76852662E+00 0.68163938E+04</pdfrwt>
<pdfrwt beam="2">  1       -2 0.35773689E+00 0.68163938E+04</pdfrwt>
<totfact> 0.21662742E-04</totfact>
</mgrwt>
<rwgt>
<wgt id='morphing_basis_vector_1'> +2.0133468e-07 </wgt>
<wgt id='morphing_basis_vector_2'> +1.3715728e-07 </wgt>
<wgt id='morphing_basis_vector_3'> +2.2244684e-07 </wgt>
<wgt id='morphing_basis_vector_4'> +1.6104032e-07 </wgt>
<wgt id='morphing_basis_vector_5'> +2.5704282e-07 </wgt>
</rwgt>
</event>
<event>
 4      1 +6.9060000e-13 6.85581000e+03 7.81860800e-03 7.17454600e-02
        2 -1    0    0  501    0 +0.0000000000e+00 +0.0000000000e+00 +4.4158607021e+03 4.4158607021e+03 0.0000000000e+00 0.0000e+00 1.0000e+00
       -2 -1    0    0    0  501 -0.0000000000e+00 -0.0000000000e+00 -2.6609836093e+03 2.6609836093e+03 0.0000000000e+00 0.0000e+00 -1.0000e+00
      -13  1    1    2    0    0 -1.2364000367e+03 +3.8251376708e+02 -2.3990966514e+03 2.7259249028e+03 0.0000000000e+00 0.0000e+00 -1.0000e+00
       13  1    1    2    0    0 +1.2364000367e+03 -3.8251376708e+02 +4.1539737442e+03 4.3509194086e+03 0.0000000000e+00 0.0000e+00 1.0000e+00
<mgrwt>
<rscale>  0 0.68558101E+04</rscale>
<asrwt>0</asrwt>
<pdfrwt beam="1">  1        2 0.67936319E+00 0.68558101E+04</pdfrwt>
<pdfrwt beam="2">  1       -2 0.40938209E+00 0.68558101E+04</pdfrwt>
<totfact> 0.46357477E-04</totfact>
</mgrwt>
<rwgt>
<wgt id='morphing_basis_vector_1'> +2.0594981e-07 </wgt>
<wgt id='morphing_basis_vector_2'> +1.4013807e-07 </wgt>
<wgt id='morphing_basis_vector_3'> +2.2751512e-07 </wgt>
<wgt id='morphing_basis_vector_4'> +1.6496255e-07 </wgt>
<wgt id='morphing_basis_vector_5'> +2.6306370e-07 </wgt>
</rwgt>
</event>
<event>
 4      1 +6.9060000e-13 6.98913600e+03 7.81860800e-03 7.16212900e-02
        2 -1    0    0  501    0 +0.0000000000e+00 +0.0000000000e+00 +4.2251719279e+03 4.2251719279e+03 0.0000000000e+00 0.0000e+00 -1.0000e+00
       -2 -1    0    0    0  501 -0.0000000000e+00 -0.0000000000e+00 -2.8902977450e+03 2.8902977450e+03 0.0000000000e+00 0.0000e+00 1.0000e+00
      -13  1    1    2    0    0 +2.0853630659e+03 -2.8034764613e+03 +6.0479845923e+02 3.5459837228e+03 0.0000000000e+00 0.0000e+00 1.0000e+00
       13  1    1    2    0    0 -2.0853630659e+03 +2.8034764613e+03 +7.3007572361e+02 3.5694859501e+03 0.0000000000e+00 0.0000e+00 -1.0000e+00
<mgrwt>
<rscale>  0 0.69891358E+04</rscale>
<asrwt>0</asrwt>
<pdfrwt beam="1">  1        2 0.65002645E+00 0.69891358E+04</pdfrwt>
<pdfrwt beam="2">  1       -2 0.44466119E+00 0.69891358E+04</pdfrwt>
<totfact> 0.40616616E-04</totfact>
</mgrwt>
<rwgt>
<wgt id='morphing_basis_vector_1'> +2.3008677e-07 </wgt>
<wgt id='morphing_basis_vector_2'> +1.7386676e-07 </wgt>
<wgt id='morphing_basis_vector_3'> +2.5830800e-07 </wgt>
<wgt id='morphing_basis_vector_4'> +1.6174482e-07 </wgt>
<wgt id='morphing_basis_vector_5'> +2.8278139e-07 </wgt>
</rwgt>
</event>
<event>
 4      1 +6.9060000e-13 7.40538700e+03 7.81860800e-03 7.12509100e-02
        2 -1    0    0  501    0 +0.0000000000e+00 +0.0000000000e+00 +2.8976451182e+03 2.8976451182e+03 0.0000000000e+00 0.0000e+00 -1.0000e+00
       -2 -1    0    0    0  501 -0.0000000000e+00 -0.0000000000e+00 -4.7314066803e+03 4.7314066803e+03 0.0000000000e+00 0.0000e+00 1.0000e+00
      -13  1    1    2    0    0 +1.8287977062e+03 -2.8629796178e+03 -2.4340394187e+03 4.1791986354e+03 0.0000000000e+00 0.0000e+00 1.0000e+00
       13  1    1    2    0    0 -1.8287977062e+03 +2.8629796178e+03 +6.0027785657e+02 3.4498531632e+03 0.0000000000e+00 0.0000e+00 -1.0000e+00
<mgrwt>
<rscale>  0 0.74053865E+04</rscale>
<asrwt>0</asrwt>
<pdfrwt beam="1">  1        2 0.44579156E+00 0.74053865E+04</pdfrwt>
<pdfrwt beam="2">  1       -2 0.72790872E+00 0.74053865E+04</pdfrwt>
<totfact> 0.92266476E-05</totfact>
</mgrwt>
<rwgt>
<wgt id='morphing_basis_vector_1'> +2.8228823e-07 </wgt>
<wgt id='morphing_basis_vector_2'> +1.9680045e-07 </wgt>
<wgt id='morphing_basis_vector_3'> +3.1310022e-07 </wgt>
<wgt id='morphing_basis_vector_4'> +2.2023338e-07 </wgt>
<wgt id='morphing_basis_vector_5'> +3.5790851e-07 </wgt>
</rwgt>
</event>
<event>
 4      1 +6.9060000e-13 7.09531300e+03 7.81860800e-03 7.15244000e-02
        2 -1    0    0  501    0 +0.0000000000e+00 +0.0000000000e+00 +3.6247143349e+03 3.6247143349e+03 0.0000000000e+00 0.0000e+00 -1.0000e+00
       -2 -1    0    0    0  501 -0.0000000000e+00 -0.0000000000e+00 -3.4722372131e+03 3.4722372131e+03 0.0000000000e+00 0.0000e+00 1.0000e+00
      -13  1    1    2    0    0 -9.6534382959e+01 +3.0015373201e+03 -1.8129332857e+03 3.5078871517e+03 0.0000000000e+00 0.0000e+00 1.0000e+00
       13  1    1    2    0    0 +9.6534382959e+01 -3.0015373201e+03 +1.9654104075e+03 3.5890643963e+03 0.0000000000e+00 0.0000e+00 -1.0000e+00
<mgrwt>
<rscale>  0 0.70953134E+04</rscale>
<asrwt>0</asrwt>
<pdfrwt beam="1">  1        2 0.55764836E+00 0.70953134E+04</pdfrwt>
<pdfrwt beam="2">  1       -2 0.53419034E+00 0.70953134E+04</pdfrwt>
<totfact> 0.28276033E-04</totfact>
</mgrwt>
<rwgt>
<wgt id='morphing_basis_vector_1'> +2.3709323e-07 </wgt>
<wgt id='morphing_basis_vector_2'> +1.6332649e-07 </wgt>
<wgt id='morphing_basis_vector_3'> +2.6244463e-07 </wgt>
<wgt id='morphing_basis_vector_4'> +1.8741312e-07 </wgt>
<wgt id='morphing_basis_vector_5'> +3.0170420e-07 </wgt>
</rwgt>
</event>
<event>
 4      1 +6.9060000e-13 6.98255100e+03 7.81860800e-03 7.16273600e-02
        2 -1    0    0  501    0 +0.0000000000e+00 +0.0000000000e+00 +2.6670229252e+03 2.6670229252e+03 0.0000000000e+00 0.0000e+00 -1.0000e+00
       -2 -1    0    0    0  501 -0.0000000000e+00 -0.0000000000e+00 -4.5702666799e+03 4.5702666799e+03 0.0000000000e+00 0.0000e+00 1.0000e+00
      -13  1    1    2    0    0 -3.1994556094e+03 +1.3969504428e+03 -9.1853108664e+02 3.6099426718e+03 0.0000000000e+00 0.0000e+00 1.0000e+00
       13  1    1    2    0    0 +3.1994556094e+03 -1.3969504428e+03 -9.8471266814e+02 3.6273469334e+03 0.0000000000e+00 0.0000e+00 -1.0000e+00
<mgrwt>
<rscale>  0 0.69825514E+04</rscale>
<asrwt>0</asrwt>
<pdfrwt beam="1">  1        2 0.41031122E+00 0.69825514E+04</pdfrwt>
<pdfrwt beam="2">  1       -2 0.70311795E+00 0.69825514E+04</pdfrwt>
<totfact> 0.65397534E-05</totfact>
</mgrwt>
<rwgt>
<wgt id='morphing_basis_vector_1'> +2.2999853e-07 </wgt>
<wgt id='morphing_basis_vector_2'> +1.7549042e-07 </wgt>
<wgt id='morphing_basis_vector_3'> +2.5860784e-07 </wgt>
<wgt id='morphing_basis_vector_4'> +1.5947106e-07 </wgt>
<wgt id='morphing_basis_vector_5'> +2.8157530e-07 </wgt>
</rwgt>
</event>
<event>
 4      1 +6.9060000e-13 7.02896000e+03 7.81860800e-03 7.15847500e-02
        2 -1    0    0  501    0 +0.0000000000e+00 +0.0000000000e+00 +3.4456247018e+03 3.4456247018e+03 0.0000000000e+00 0.0000e+00 -1.0000e+00
       -2 -1    0    0    0  501 -0.0000000000e+00 -0.0000000000e+00 -3.5847108361e+03 3.5847108361e+03 0.0000000000e+00 0.0000e+00 1.0000e+00
      -13  1    1    2    0    0 -2.0583649534e+03 -1.2504142384e+03 -2.6295687029e+03 3.5658145791e+03 0.0000000000e+00 0.0000e+00 1.0000e+00
       13  1    1    2    0    0 +2.0583649534e+03 +1.2504142384e+03 +2.4904825686e+03 3.4645209587e+03 0.0000000000e+00 0.0000e+00 -1.0000e+00
<mgrwt>
<rscale>  0 0.70289596E+04</rscale>
<asrwt>0</asrwt>
<pdfrwt beam="1">  1        2 0.53009611E+00 0.70289596E+04</pdfrwt>
<pdfrwt beam="2">  1       -2 0.55149397E+00 0.70289596E+04</pdfrwt>
<totfact> 0.28946288E-04</totfact>
</mgrwt>
<rwgt>
<wgt id='morphing_basis_vector_1'> +2.2773394e-07 </wgt>
<wgt id='morphing_basis_vector_2'> +1.5546299e-07 </wgt>
<wgt id='morphing_basis_vector_3'> +2.5173553e-07 </wgt>
<wgt id='morphing_basis_vector_4'> +1.8183663e-07 </wgt>
<wgt id='morphing_basis_vector_5'> +2.9067185e-07 </wgt>
</rwgt>
</event>
<event>
 4      1 +6.9060000e-13 6.93499000e+03 7.81860800e-03 7.16713800e-02
        2 -1    0    0  501    0 +0.0000000000e+00 +0.0000000000e+00 +5.1615573728e+03 5.1615573728e+03 0.0000000000e+00 0.0000e+00 1.0000e+00
       -2 -1    0    0    0  501 -0.0000000000e+00 -0.0000000000e+00 -2.3294369273e+03 2.3294369273e+03 0.0000000000e+00 0.0000e+00 -1.0000e+00
      -13  1    1    2    0    0 +2.1135033542e+03 +1.8163474221e+03 -8.1274105396e+02 2.9028541828e+03 0.0000000000e+00 0.0000e+00 -1.0000e+00
       13  1    1    2    0    0 -2.1135033542e+03 -1.8163474221e+03 +3.6448614995e+03 4.5881401173e+03 0.0000000000e+00 0.0000e+00 1.0000e+00
<mgrwt>
<rscale>  0 0.69349902E+04</rscale>
<asrwt>0</asrwt>
<pdfrwt beam="1">  1        2 0.79408575E+00 0.69349902E+04</pdfrwt>
<pdfrwt beam="2">  1       -2 0.35837491E+00 0.69349902E+04</pdfrwt>
<totfact> 0.12451272E-04</totfact>
</mgrwt>
<rwgt>
<wgt id='morphing_basis_vector_1'> +2.1616424e-07 </wgt>
<wgt id='morphing_basis_vector_2'> +1.4833776e-07 </wgt>
<wgt id='morphing_basis_vector_3'> +2.3911106e-07 </wgt>
<wgt id='morphing_basis_vector_4'> +1.7154774e-07 </wgt>
<wgt id='morphing_basis_vector_5'> +2.7535021e-07 </wgt>
</rwgt>
</event>
<event>
 4      1 +6.9060000e-13 7.09453300e+03 7.81860800e-03 7.15251000e-02
        2 -1    0    0  501    0 +0.0000000000e+00 +0.0000000000e+00 +3.2341727099e+03 3.2341727099e+03 0.0000000000e+00 0.0000e+00 -1.0000e+00
       -2 -1    0    0    0  501 -0.0000000000e+00 -0.0000000000e+00 -3.8906697539e+03 3.8906697539e+03 0.0000000000e+00 0.0000e+00 1.0000e+00
      -13  1    1    2    0    0 +1.9921440471e+01 -1.0053416664e+03 -3.7445445189e+03 3.8772054864e+03 0.0000000000e+00 0.0000e+00 1.0000e+00
       13  1    1    2    0    0 -1.9921440471e+01 +1.0053416664e+03 +3.0880474749e+03 3.2476369774e+03 0.0000000000e+00 0.0000e+00 -1.0000e+00
<mgrwt>
<rscale>  0 0.70945325E+04</rscale>
<asrwt>0</asrwt>
<pdfrwt beam="1">  1        2 0.49756503E+00 0.70945325E+04</pdfrwt>
<pdfrwt beam="2">  1       -2 0.59856457E+00 0.70945325E+04</pdfrwt>
<totfact> 0.17578991E-04</totfact>
</mgrwt>
<rwgt>
<wgt id='morphing_basis_vector_1'> +2.3610346e-07 </wgt>
<wgt id='morphing_basis_vector_2'> +1.6065616e-07 </wgt>
<wgt id='morphing_basis_vector_3'> +2.6087735e-07 </wgt>
<wgt id='morphing_basis_vector_4'> +1.8922975e-07 </wgt>
<wgt id='morphing_basis_vector_5'> +3.0173130e-07 </wgt>
</rwgt>
</event>
<event>
 4      1 +6.9060000e-13 6.87695600e+03 7.81860800e-03 7.17255700e-02
        2 -1    0    0  501    0 +0.0000000000e+00 +0.0000000000e+00 +3.5161418246e+03 3.5161418246e+03 0.0000000000e+00 0.0000e+00 -1.0000e+00
       -2 -1    0    0    0  501 -0.0000000000e+00 -0.0000000000e+00 -3.3625299211e+03 3.3625299211e+03 0.0000000000e+00 0.0000e+00 1.0000e+00
      -13  1    1    2    0    0 -1.2228203541e+03 +6.8974536388e+02 -3.0627815228e+03 3.3692237893e+03 0.0000000000e+00 0.0000e+00 1.0000e+00
       13  1    1    2    0    0 +1.2228203541e+03 -6.8974536388e+02 +3.2163934264e+03 3.5094479564e+03 0.0000000000e+00 0.0000e+00 -1.0000e+00
<mgrwt>
<rscale>  0 0.68769563E+04</rscale>
<asrwt>0</asrwt>
<pdfrwt beam="1">  1        2 0.54094489E+00 0.68769563E+04</pdfrwt>
<pdfrwt beam="2">  1       -2 0.51731230E+00 0.68769563E+04</pdfrwt>
<totfact> 0.46111125E-04</totfact>
</mgrwt>
<rwgt>
<wgt id='morphing_basis_vector_1'> +2.0850316e-07 </wgt>
<wgt id='morphing_basis_vector_2'> +1.4188886e-07 </wgt>
<wgt id='morphing_basis_vector_3'> +2.3034319e-07 </wgt>
<wgt id='morphing_basis_vector_4'> +1.6699968e-07 </wgt>
<wgt id='morphing_basis_vector_5'> +2.6632894e-07 </wgt>
</rwgt>
</event>
<event>
 4      1 +6.9060000e-13 7.42019300e+03 7.81860800e-03 7.12381900e-02
        2 -1    0    0  501    0 +0.0000000000e+00 +0.0000000000e+00 +2.4098684275e+03 2.4098684275e+03 0.0000000000e+00 0.0000e+00 -1.0000e+00
       -2 -1    0    0    0  501 -0.0000000000e+00 -0.0000000000e+00 -5.7118537552e+03 5.7118537552e+03 0.0000000000e+00 0.0000e+00 1.0000e+00
      -13  1    1    2    0    0 +3.0938133604e+03 +8.3315935978e+02 -3.6983973039e+03 4.8932584486e+03 0.0000000000e+00 0.0000e+00 1.0000e+00
       13  1    1    2    0    0 -3.0938133604e+03 -8.3315935978e+02 +3.9641197620e+02 3.2284637341e+03 0.0000000000e+00 0.0000e+00 -1.0000e+00
<mgrwt>
<rscale>  0 0.74201930E+04</rscale>
<asrwt>0</asrwt>
<pdfrwt beam="1">  1        2 0.37074899E+00 0.74201930E+04</pdfrwt>
<pdfrwt beam="2">  1       -2 0.87874672E+00 0.74201930E+04</pdfrwt>
<totfact> 0.98086141E-05</totfact>
</mgrwt>
<rwgt>
<wgt id='morphing_basis_vector_1'> +2.8368795e-07 </wgt>
<wgt id='morphing_basis_vector_2'> +1.9585105e-07 </wgt>
<wgt id='morphing_basis_vector_3'> +3.1419846e-07 </wgt>
<wgt id='morphing_basis_vector_4'> +2.2385072e-07 </wgt>
<wgt id='morphing_basis_vector_5'> +3.6093954e-07 </wgt>
</rwgt>
</event>
<event>
 4      1 +6.9060000e-13 6.66238000e+03 7.81860800e-03 7.19307500e-02
        2 -1    0    0  501    0 +0.0000000000e+00 +0.0000000000e+00 +4.4586419482e+03 4.4586419482e+03 0.0000000000e+00 0.0000e+00 1.0000e+00
       -2 -1    0    0    0  501 -0.0000000000e+00 -0.0000000000e+00 -2.4888353105e+03 2.4888353105e+03 0.0000000000e+00 0.0000e+00 -1.0000e+00
      -13  1    1    2    0    0 -8.5923817584e+02 -5.4372129692e+02 +4.2928567753e+03 4.4116371547e+03 0.0000000000e+00 0.0000e+00 1.0000e+00
       13  1    1    2    0    0 +8.5923817584e+02 +5.4372129692e+02 -2.3230501376e+03 2.5358401041e+03 0.0000000000e+00 0.0000e+00 -1.0000e+00
<mgrwt>
<rscale>  0 0.66623796E+04</rscale>
<asrwt>0</asrwt>
<pdfrwt beam="1">  1        2 0.68594491E+00 0.66623796E+04</pdfrwt>
<pdfrwt beam="2">  1       -2 0.38289774E+00 0.66623796E+04</pdfrwt>
<totfact> 0.63362592E-04</totfact>
</mgrwt>
<rwgt>
<wgt id='morphing_basis_vector_1'> +2.5149896e-07 </wgt>
<wgt id='morphing_basis_vector_2'> +3.2391850e-07 </wgt>
<wgt id='morphing_basis_vector_3'> +3.1388812e-07 </wgt>
<wgt id='morphing_basis_vector_4'> +1.8341158e-09 </wgt>
<wgt id='morphing_basis_vector_5'> +2.2232638e-07 </wgt>
</rwgt>
</event>
<event>
 4      1 +6.9060000e-13 7.01446000e+03 7.81860800e-03 7.15980300e-02
        2 -1    0    0  501    0 +0.0000000000e+00 +0.0000000000e+00 +3.7434902832e+03 3.7434902832e+03 0.0000000000e+00 0.0000e+00 -1.0000e+00
       -2 -1    0    0    0  501 -0.0000000000e+00 -0.0000000000e+00 -3.2858801796e+03 3.2858801796e+03 0.0000000000e+00 0.0000e+00 1.0000e+00
      -13  1    1    2    0    0 +2.6951053797e+03 +1.7266834937e+03 +1.6656002428e+03 3.6082202072e+03 0.0000000000e+00 0.0000e+00 1.0000e+00
       13  1    1    2    0    0 -2.6951053797e+03 -1.7266834937e+03 -1.2079901391e+03 3.4211502556e+03 0.0000000000e+00 0.0000e+00 -1.0000e+00
<mgrwt>
<rscale>  0 0.70144595E+04</rscale>
<asrwt>0</asrwt>
<pdfrwt beam="1">  1        2 0.57592158E+00 0.70144595E+04</pdfrwt>
<pdfrwt beam="2">  1       -2 0.50552003E+00 0.70144595E+04</pdfrwt>
<totfact> 0.37533006E-04</totfact>
</mgrwt>
<rwgt>
<wgt id='morphing_basis_vector_1'> +2.5786207e-07 </wgt>
<wgt id='morphing_basis_vector_2'> +2.4807703e-07 </wgt>
<wgt id='morphing_basis_vector_3'> +3.0210916e-07 </wgt>
<wgt id='morphing_basis_vector_4'> +1.1172421e-07 </wgt>
<wgt id='morphing_basis_vector_5'> +2.8249388e-07 </wgt>
</rwgt>
</event>
<event>
 4      1 +6.9060000e-13 7.57404100e+03 7.81860800e-03 7.11077500e-02
        2 -1    0    0  501    0 +0.0000000000e+00 +0.0000000000e+00 +4.1632527264e+03 4.1632527264e+03 0.0000000000e+00 0.0000e+00 -1.0000e+00
       -2 -1    0    0    0  501 -0.0000000000e+00 -0.0000000000e+00 -3.4447879143e+03 3.4447879143e+03 0.0000000000e+00 0.0000e+00 1.0000e+00
      -13  1    1    2    0    0 -1.8806765329e+03 +3.2526516454e+03 +8.3552942031e+02 3.8489993972e+03 0.0000000000e+00 0.0000e+00 1.0000e+00
       13  1    1    2    0    0 +1.8806765329e+03 -3.2526516454e+03 -1.1706460827e+02 3.7590412435e+03 0.0000000000e+00 0.0000e+00 -1.0000e+00
<mgrwt>
<rscale>  0 0.75740406E+04</rscale>
<asrwt>0</asrwt>
<pdfrwt beam="1">  1        2 0.64050042E+00 0.75740406E+04</pdfrwt>
<pdfrwt beam="2">  1       -2 0.52996737E+00 0.75740406E+04</pdfrwt>
<totfact> 0.10532023E-04</totfact>
</mgrwt>
<rwgt>
<wgt id='morphing_basis_vector_1'> +3.2411745e-07 </wgt>
<wgt id='morphing_basis_vector_2'> +2.6011672e-07 </wgt>
<wgt id='morphing_basis_vector_3'> +3.6766098e-07 </wgt>
<wgt id='morphing_basis_vector_4'> +2.0826450e-07 </wgt>
<wgt id='morphing_basis_vector_5'> +3.8893072e-07 </wgt>
</rwgt>
</event>
<event>
 4      1 +6.9060000e-13 7.78566200e+03 7.81860800e-03 7.09333100e-02
        2 -1    0    0  501    0 +0.0000000000e+00 +0.0000000000e+00 +4.8801401839e+03 4.8801401839e+03 0.0000000000e+00 0.0000e+00 -1.0000e+00
       -2 -1    0    0    0  501 -0.0000000000e+00 -0.0000000000e+00 -3.1052663339e+03 3.1052663339e+03 0.0000000000e+00 0.0000e+00 1.0000e+00
      -13  1    1    2    0    0 +1.0354627930e+03 -8.5658353120e+02 -2.8598166165e+03 3.1598211376e+03 0.0000000000e+00 0.0000e+00 1.0000e+00
       13  1    1    2    0    0 -1.0354627930e+03 +8.5658353120e+02 +4.6346904665e+03 4.8255853802e+03 0.0000000000e+00 0.0000e+00 -1.0000e+00
<mgrwt>
<rscale>  0 0.77856625E+04</rscale>
<asrwt>0</asrwt>
<pdfrwt beam="1">  1        2 0.75079080E+00 0.77856625E+04</pdfrwt>
<pdfrwt beam="2">  1       -2 0.47773328E+00 0.77856625E+04</pdfrwt>
<totfact> 0.44275708E-05</totfact>
</mgrwt>
<rwgt>
<wgt id='morphing_basis_vector_1'> +3.4226191e-07 </wgt>
<wgt id='morphing_basis_vector_2'> +2.3298822e-07 </wgt>
<wgt id='morphing_basis_vector_3'> +3.7837532e-07 </wgt>
<wgt id='morphing_basis_vector_4'> +2.7458469e-07 </wgt>
<wgt id='morphing_basis_vector_5'> +4.3786256e-07 </wgt>
</rwgt>
</event>
<event>
 4      1 +6.9060000e-13 6.93149000e+03 7.81860800e-03 7.16746300e-02
        2 -1    0    0  501    0 +0.0000000000e+00 +0.0000000000e+00 +2.2840151202e+03 2.2840151202e+03 0.0000000000e+00 0.0000e+00 1.0000e+00
       -2 -1    0    0    0  501 -0.0000000000e+00 -0.0000000000e+00 -5.2588921679e+03 5.2588921679e+03 0.0000000000e+00 0.0000e+00 -1.0000e+00
      -13  1    1    2    0    0 -6.9360291677e+02 +3.1578623851e+03 -2.8458303534e+03 4.3071951720e+03 0.0000000000e+00 0.0000e+00 -1.0000e+00
       13  1    1    2    0    0 +6.9360291677e+02 -3.1578623851e+03 -1.2904669427e+02 3.2357121162e+03 0.0000000000e+00 0.0000e+00 1.0000e+00
<mgrwt>
<rscale>  0 0.69314902E+04</rscale>
<asrwt>0</asrwt>
<pdfrwt beam="1">  1        2 0.35138694E+00 0.69314902E+04</pdfrwt>
<pdfrwt beam="2">  1       -2 0.80906034E+00 0.69314902E+04</pdfrwt>
<totfact> 0.33508979E-04</totfact>
</mgrwt>
<rwgt>
<wgt id='morphing_basis_vector_1'> +2.1706628e-07 </wgt>
<wgt id='morphing_basis_vector_2'> +1.5196295e-07 </wgt>
<wgt id='morphing_basis_vector_3'> +2.4082009e-07 </wgt>
<wgt id='morphing_basis_vector_4'> +1.6833392e-07 </wgt>
<wgt id='morphing_basis_vector_5'> +2.7455223e-07 </wgt>
</rwgt>
</event>
<event>
 4      1 +6.9060000e-13 6.79444000e+03 7.81860800e-03 7.18035700e-02
        2 -1    0    0  501    0 +0.0000000000e+00 +0.0000000000e+00 +3.4111261299e+03 3.4111261299e+03 0.0000000000e+00 0.0000e+00 -1.0000e+00
       -2 -1    0    0    0  501 -0.0000000000e+00 -0.0000000000e+00 -3.3833706902e+03 3.3833706902e+03 0.0000000000e+00 0.0000e+00 1.0000e+00
      -13  1    1    2    0    0 -4.0371610527e+02 +2.4985295747e+03 -2.2522981640e+03 3.3879911081e+03 0.0000000000e+00 0.0000e+00 1.0000e+00
       13  1    1    2    0    0 +4.0371610527e+02 -2.4985295747e+03 +2.2800536037e+03 3.4065057119e+03 0.0000000000e+00 0.0000e+00 -1.0000e+00
<mgrwt>
<rscale>  0 0.67944401E+04</rscale>
<asrwt>0</asrwt>
<pdfrwt beam="1">  1        2 0.52478864E+00 0.67944401E+04</pdfrwt>
<pdfrwt beam="2">  1       -2 0.52051857E+00 0.67944401E+04</pdfrwt>
<totfact> 0.52335378E-04</totfact>
</mgrwt>
<rwgt>
<wgt id='morphing_basis_vector_1'> +1.9899719e-07 </wgt>
<wgt id='morphing_basis_vector_2'> +1.3610201e-07 </wgt>
<wgt id='morphing_basis_vector_3'> +2.1998704e-07 </wgt>
<wgt id='morphing_basis_vector_4'> +1.5845950e-07 </wgt>
<wgt id='morphing_basis_vector_5'> +2.5369854e-07 </wgt>
</rwgt>
</event>
<event>
 4      1 +6.9060000e-13 6.73364100e+03 7.81860800e-03 7.18617600e-02
        2 -1    0    0  501    0 +0.0000000000e+00 +0.0000000000e+00 +3.2679396255e+03 3.2679396255e+03 0.0000000000e+00 0.0000e+00 -1.0000e+00
       -2 -1    0    0    0  501 -0.0000000000e+00 -0.0000000000e+00 -3.4686927903e+03 3.4686927903e+03 0.0000000000e+00 0.0000e+00 1.0000e+00
      -13  1    1    2    0    0 +2.0712537921e+03 +1.7010392938e+03 -2.1388912406e+03 3.4290644043e+03 0.0000000000e+00 0.0000e+00 1.0000e+00
       13  1    1    2    0    0 -2.0712537921e+03 -1.7010392938e+03 +1.9381380757e+03 3.3075680115e+03 0.0000000000e+00 0.0000e+00 -1.0000e+00
<mgrwt>
<rscale>  0 0.67336405E+04</rscale>
<asrwt>0</asrwt>
<pdfrwt beam="1">  1        2 0.50275994E+00 0.67336405E+04</pdfrwt>
<pdfrwt beam="2">  1       -2 0.53364504E+00 0.67336405E+04</pdfrwt>
<totfact> 0.53068905E-04</totfact>
</mgrwt>
<rwgt>
<wgt id='morphing_basis_vector_1'> +1.9214148e-07 </wgt>
<wgt id='morphing_basis_vector_2'> +1.3176740e-07 </wgt>
<wgt id='morphing_basis_vector_3'> +2.1248028e-07 </wgt>
<wgt id='morphing_basis_vector_4'> +1.5251177e-07 </wgt>
<wgt id='morphing_basis_vector_5'> +2.4469483e-07 </wgt>
</rwgt>
</event>
<event>
 4      1 +6.9060000e-13 6.70595100e+03 7.81860800e-03 7.18884600e-02
        2 -1    0    0  501    0 +0.0000000000e+00 +0.0000000000e+00 +3.6918212132e+03 3.6918212132e+03 0.0000000000e+00 0.0000e+00 1.0000e+00
       -2 -1    0    0    0  501 -0.0000000000e+00 -0.0000000000e+00 -3.0452302002e+03 3.0452302002e+03 0.0000000000e+00 0.0000e+00 -1.0000e+00
      -13  1    1    2    0    0 -1.4675147236e+03 +1.5078334542e+03 -2.2994216600e+03 3.1168094520e+03 0.0000000000e+00 0.0000e+00 -1.0000e+00
       13  1    1    2    0    0 +1.4675147236e+03 -1.5078334542e+03 +2.9460126730e+03 3.6202419614e+03 0.0000000000e+00 0.0000e+00 1.0000e+00
<mgrwt>
<rscale>  0 0.67059512E+04</rscale>
<asrwt>0</asrwt>
<pdfrwt beam="1">  1        2 0.56797250E+00 0.67059512E+04</pdfrwt>
<pdfrwt beam="2">  1       -2 0.46849695E+00 0.67059512E+04</pdfrwt>
<totfact> 0.79299682E-04</totfact>
</mgrwt>
<rwgt>
<wgt id='morphing_basis_vector_1'> +1.8866222e-07 </wgt>
<wgt id='morphing_basis_vector_2'> +1.2860555e-07 </wgt>
<wgt id='morphing_basis_vector_3'> +2.0844398e-07 </wgt>
<wgt id='morphing_basis_vector_4'> +1.5075152e-07 </wgt>
<wgt id='morphing_basis_vector_5'> +2.4074991e-07 </wgt>
</rwgt>
</event>
<event>
 4      1 +6.9060000e-13 6.85847200e+03 7.81860800e-03 7.17429500e-02
        2 -1    0    0  501    0 +0.0000000000e+00 +0.0000000000e+00 +4.6728204909e+03 4.6728204909e+03 0.0000000000e+00 0.0000e+00 1.0000e+00
       -2 -1    0    0    0  501 -0.0000000000e+00 -0.0000000000e+00 -2.5166085253e+03 2.5166085253e+03 0.0000000000e+00 0.0000e+00 -1.0000e+00
      -13  1    1    2    0    0 +1.8356662860e+03 -1.2198806242e+03 +3.8320223019e+03 4.4206531614e+03 0.0000000000e+00 0.0000e+00 1.0000e+00
       13  1    1    2    0    0 -1.8356662860e+03 +1.2198806242e+03 -1.6758103363e+03 2.7687758548e+03 0.0000000000e+00 0.0000e+00 -1.0000e+00
<mgrwt>
<rscale>  0 0.68584721E+04</rscale>
<asrwt>0</asrwt>
<pdfrwt beam="1">  1        2 0.71889546E+00 0.68584721E+04</pdfrwt>
<pdfrwt beam="2">  1       -2 0.38717054E+00 0.68584721E+04</pdfrwt>
<totfact> 0.34604466E-04</totfact>
</mgrwt>
<rwgt>
<wgt id='morphing_basis_vector_1'> +2.7228545e-07 </wgt>
<wgt id='morphing_basis_vector_2'> +3.3407276e-07 </wgt>
<wgt id='morphing_basis_vector_3'> +3.3601602e-07 </wgt>
<wgt id='morphing_basis_vector_4'> +2.3703451e-08 </wgt>
<wgt id='morphing_basis_vector_5'> +2.5154880e-07 </wgt>
</rwgt>
</event>
<event>
 4      1 +6.9060000e-13 6.97088400e+03 7.81860800e-03 7.16381300e-02
        2 -1    0    0  501    0 +0.0000000000e+00 +0.0000000000e+00 +2.3958301023e+03 2.3958301023e+03 0.0000000000e+00 0.0000e+00 -1.0000e+00
       -2 -1    0    0    0  501 -0.0000000000e+00 -0.0000000000e+00 -5.0706036384e+03 5.0706036384e+03 0.0000000000e+00 0.0000e+00 1.0000e+00
      -13  1    1    2    0    0 -2.8300513875e+03 +1.7223714336e+03 -2.4972083347e+03 4.1487110863e+03 0.0000000000e+00 0.0000e+00 1.0000e+00
       13  1    1    2    0    0 +2.8300513875e+03 -1.7223714336e+03 -1.7756520145e+02 3.3177226544e+03 0.0000000000e+00 0.0000e+00 -1.0000e+00
<mgrwt>
<rscale>  0 0.69708837E+04</rscale>
<asrwt>0</asrwt>
<pdfrwt beam="1">  1        2 0.36858925E+00 0.69708837E+04</pdfrwt>
<pdfrwt beam="2">  1       -2 0.78009286E+00 0.69708837E+04</pdfrwt>
<totfact> 0.31623984E-04</totfact>
</mgrwt>
<rwgt>
<wgt id='morphing_basis_vector_1'> +2.2250621e-07 </wgt>
<wgt id='morphing_basis_vector_2'> +1.5682868e-07 </wgt>
<wgt id='morphing_basis_vector_3'> +2.4711415e-07 </wgt>
<wgt id='morphing_basis_vector_4'> +1.7118827e-07 </wgt>
<wgt id='morphing_basis_vector_5'> +2.8077222e-07 </wgt>
</rwgt>
</event>
<event>
 4      1 +6.9060000e-13 7.28642500e+03 7.81860800e-03 7.13542100e-02
        2 -1    0    0  501    0 +0.0000000000e+00 +0.0000000000e+00 +4.0247767807e+03 4.0247767807e+03 0.0000000000e+00 0.0000e+00 1.0000e+00
       -2 -1    0    0    0  501 -0.0000000000e+00 -0.0000000000e+00 -3.2978221964e+03 3.2978221964e+03 0.0000000000e+00 0.0000e+00 -1.0000e+00
      -13  1    1    2    0    0 -3.6126206463e+03 +4.4124422540e+02 +5.2944499344e+02 3.6777760130e+03 0.0000000000e+00 0.0000e+00 -1.0000e+00
       13  1    1    2    0    0 +3.6126206463e+03 -4.4124422540e+02 +1.9750959092e+02 3.6448229641e+03 0.0000000000e+00 0.0000e+00 1.0000e+00
<mgrwt>
<rscale>  0 0.72864252E+04</rscale>
<asrwt>0</asrwt>
<pdfrwt beam="1">  1        2 0.61919643E+00 0.72864252E+04</pdfrwt>
<pdfrwt beam="2">  1       -2 0.50735726E+00 0.72864252E+04</pdfrwt>
<totfact> 0.20941895E-04</totfact>
</mgrwt>
<rwgt>
<wgt id='morphing_basis_vector_1'> +2.7402794e-07 </wgt>
<wgt id='morphing_basis_vector_2'> +2.1210304e-07 </wgt>
<wgt id='morphing_basis_vector_3'> +3.0891293e-07 </wgt>
<wgt id='morphing_basis_vector_4'> +1.8619095e-07 </wgt>
<wgt id='morphing_basis_vector_5'> +3.3372296e-07 </wgt>
</rwgt>
</event>
<event>
 4      1 +6.9060000e-13 7.10455100e+03 7.81860800e-03 7.15160500e-02
        2 -1    0    0  501    0 +0.0000000000e+00 +0.0000000000e+00 +2.4449530499e+03 2.4449530499e+03 0.0000000000e+00 0.0000e+00 1.0000e+00
       -2 -1    0    0    0  501 -0.0000000000e+00 -0.0000000000e+00 -5.1611060349e+03 5.1611060349e+03 0.0000000000e+00 0.0000e+00 -1.0000e+00
      -13  1    1    2    0    0 -2.2449909096e+03 +5.9575540041e+02 -4.2355047087e+03 4.8305702375e+03 0.0000000000e+00 0.0000e+00 -1.0000e+00
       13  1    1    2    0    0 +2.2449909096e+03 -5.9575540041e+02 +1.5193517237e+03 2.7754888473e+03 0.0000000000e+00 0.0000e+00 1.0000e+00
<mgrwt>
<rscale>  0 0.71045512E+04</rscale>
<asrwt>0</asrwt>
<pdfrwt beam="1">  1        2 0.37614662E+00 0.71045512E+04</pdfrwt>
<pdfrwt beam="2">  1       -2 0.79401631E+00 0.71045512E+04</pdfrwt>
<totfact> 0.28677673E-04</totfact>
</mgrwt>
<rwgt>
<wgt id='morphing_basis_vector_1'> +2.3761950e-07 </wgt>
<wgt id='morphing_basis_vector_2'> +1.6209822e-07 </wgt>
<wgt id='morphing_basis_vector_3'> +2.6265185e-07 </wgt>
<wgt id='morphing_basis_vector_4'> +1.8991282e-07 </wgt>
<wgt id='morphing_basis_vector_5'> +3.0340913e-07 </wgt>
</rwgt>
</event>
<event>
 4      1 +6.9060000e-13 6.79978800e+03 7.81860800e-03 7.17984800e-02
        2 -1    0    0  501    0 +0.0000000000e+00 +0.0000000000e+00 +5.3470644628e+03 5.3470644628e+03 0.0000000000e+00 0.0000e+00 -1.0000e+00
       -2 -1    0    0    0  501 -0.0000000000e+00 -0.0000000000e+00 -2.1617994116e+03 2.1617994116e+03 0.0000000000e+00 0.0000e+00 1.0000e+00
      -13  1    1    2    0    0 +2.9644208159e+03 -1.5410399618e+03 +8.9712442085e+02 3.4593969364e+03 0.0000000000e+00 0.0000e+00 1.0000e+00
       13  1    1    2    0    0 -2.9644208159e+03 +1.5410399618e+03 +2.2881406304e+03 4.0494669380e+03 0.0000000000e+00 0.0000e+00 -1.0000e+00
<mgrwt>
<rscale>  0 0.67997885E+04</rscale>
<asrwt>0</asrwt>
<pdfrwt beam="1">  1        2 0.82262530E+00 0.67997885E+04</pdfrwt>
<pdfrwt beam="2">  1       -2 0.33258453E+00 0.67997885E+04</pdfrwt>
<totfact> 0.94404470E-05</totfact>
</mgrwt>
<rwgt>
<wgt id='morphing_basis_vector_1'> +2.0295975e-07 </wgt>
<wgt id='morphing_basis_vector_2'> +1.4632108e-07 </wgt>
<wgt id='morphing_basis_vector_3'> +2.2614505e-07 </wgt>
<wgt id='morphing_basis_vector_4'> +1.5180870e-07 </wgt>
<wgt id='morphing_basis_vector_5'> +2.5389716e-07 </wgt>
</rwgt>
</event>
<event>
 4      1 +6.9060000e-13 7.76662200e+03 7.81860800e-03 7.09487800e-02
        2 -1    0    0  501    0 +0.0000000000e+00 +0.0000000000e+00 +3.0089248258e+03 3.0089248258e+03 0.0000000000e+00 0.0000e+00 -1.0000e+00
       -2 -1    0    0    0  501 -0.0000000000e+00 -0.0000000000e+00 -5.0117911193e+03 5.0117911193e+03 0.0000000000e+00 0.0000e+00 1.0000e+00
      -13  1    1    2    0    0 -2.9916038930e+03 -8.7184941096e+02 -3.3946373532e+03 4.6079689678e+03 0.0000000000e+00 0.0000e+00 1.0000e+00
       13  1    1    2    0    0 +2.9916038930e+03 +8.7184941096e+02 +1.3917710597e+03 3.4127469773e+03 0.0000000000e+00 0.0000e+00 -1.0000e+00
<mgrwt>
<rscale>  0 0.77666216E+04</rscale>
<asrwt>0</asrwt>
<pdfrwt beam="1">  1        2 0.46291151E+00 0.77666216E+04</pdfrwt>
<pdfrwt beam="2">  1       -2 0.77104478E+00 0.77666216E+04</pdfrwt>
<totfact> 0.12460636E-04</totfact>
</mgrwt>
<rwgt>
<wgt id='morphing_basis_vector_1'> +3.3979431e-07 </wgt>
<wgt id='morphing_basis_vector_2'> +2.3325279e-07 </wgt>
<wgt id='morphing_basis_vector_3'> +3.7610614e-07 </wgt>
<wgt id='morphing_basis_vector_4'> +2.7005048e-07 </wgt>
<wgt id='morphing_basis_vector_5'> +4.3343282e-07 </wgt>
</rwgt>
</event>
<event>
 4      1 +6.9060000e-13 6.78411200e+03 7.81860800e-03 7.18134100e-02
        2 -1    0    0  501    0 +0.0000000000e+00 +0.0000000000e+00 +3.2509907805e+03 3.2509907805e+03 0.0000000000e+00 0.0000e+00 -1.0000e+00
       -2 -1    0    0    0  501 -0.0000000000e+00 -0.0000000000e+00 -3.5392419263e+03 3.5392419263e+03 0.0000000000e+00 0.0000e+00 1.0000e+00
      -13  1    1    2    0    0 -2.0688119544e+03 +1.1428329123e+03 -2.5794244114e+03 3.4984968576e+03 0.0000000000e+00 0.0000e+00 1.0000e+00
       13  1    1    2    0    0 +2.0688119544e+03 -1.1428329123e+03 +2.2911732656e+03 3.2917358492e+03 0.0000000000e+00 0.0000e+00 -1.0000e+00
<mgrwt>
<rscale>  0 0.67841117E+04</rscale>
<asrwt>0</asrwt>
<pdfrwt beam="1">  1        2 0.50015243E+00 0.67841117E+04</pdfrwt>
<pdfrwt beam="2">  1       -2 0.54449876E+00 0.67841117E+04</pdfrwt>
<totfact> 0.45418436E-04</totfact>
</mgrwt>
<rwgt>
<wgt id='morphing_basis_vector_1'> +1.9768962e-07 </wgt>
<wgt id='morphing_basis_vector_2'> +1.3497620e-07 </wgt>
<wgt id='morphing_basis_vector_3'> +2.1848476e-07 </wgt>
<wgt id='morphing_basis_vector_4'> +1.5771620e-07 </wgt>
<wgt id='morphing_basis_vector_5'> +2.5217531e-07 </wgt>
</rwgt>
</event>
<event>
 4      1 +6.9060000e-13 7.20330200e+03 7.81860800e-03 7.14275800e-02
        2 -1    0    0  501    0 +0.0000000000e+00 +0.0000000000e+00 +2.6559716861e+03 2.6559716861e+03 0.0000000000e+00 0.0000e+00 -1.0000e+00
       -2 -1    0    0    0  501 -0.0000000000e+00 -0.0000000000e+00 -4.8840462903e+03 4.8840462903e+03 0.0000000000e+00 0.0000e+00 1.0000e+00
      -13  1    1    2    0    0 +7.3154945570e+02 -2.3239469258e+03 -3.8905747320e+03 4.5904755381e+03 0.0000000000e+00 0.0000e+00 1.0000e+00
       13  1    1    2    0    0 -7.3154945570e+02 +2.3239469258e+03 +1.6625001278e+03 2.9495424383e+03 0.0000000000e+00 0.0000e+00 -1.0000e+00
<mgrwt>
<rscale>  0 0.72033016E+04</rscale>
<asrwt>0</asrwt>
<pdfrwt beam="1">  1        2 0.40861103E+00 0.72033016E+04</pdfrwt>
<pdfrwt beam="2">  1       -2 0.75139173E+00 0.72033016E+04</pdfrwt>
<totfact> 0.19185568E-04</totfact>
</mgrwt>
<rwgt>
<wgt id='morphing_basis_vector_1'> +2.5112561e-07 </wgt>
<wgt id='morphing_basis_vector_2'> +1.7140913e-07 </wgt>
<wgt id='morphing_basis_vector_3'> +2.7762480e-07 </wgt>
<wgt id='morphing_basis_vector_4'> +2.0062668e-07 </wgt>
<wgt id='morphing_basis_vector_5'> +3.2065348e-07 </wgt>
</rwgt>
</event>
<event>
 4      1 +6.9060000e-13 6.68203700e+03 7.81860800e-03 7.19116300e-02
        2 -1    0    0  501    0 +0.0000000000e+00 +0.0000000000e+00 +3.6092212951e+03 3.6092212951e+03 0.0000000000e+00 0.0000e+00 -1.0000e+00
       -2 -1    0    0    0  501 -0.0000000000e+00 -0.0000000000e+00 -3.0927462254e+03 3.0927462254e+03 0.0000000000e+00 0.0000e+00 1.0000e+00
      -13  1    1    2    0    0 -8.3354362195e+02 +8.6037479992e+02 -2.8699375174e+03 3.1099165776e+03 0.0000000000e+00 0.0000e+00 1.0000e+00
       13  1    1    2    0    0 +8.3354362195e+02 -8.6037479992e+02 +3.3864125871e+03 3.5920509429e+03 0.0000000000e+00 0.0000e+00 -1.0000e+00
<mgrwt>
<rscale>  0 0.66820373E+04</rscale>
<asrwt>0</asrwt>
<pdfrwt beam="1">  1        2 0.55526481E+00 0.66820373E+04</pdfrwt>
<pdfrwt beam="2">  1       -2 0.47580711E+00 0.66820373E+04</pdfrwt>
<totfact> 0.81249846E-04</totfact>
</mgrwt>
<rwgt>
<wgt id='morphing_basis_vector_1'> +1.8588175e-07 </wgt>
<wgt id='morphing_basis_vector_2'> +1.2646355e-07 </wgt>
<wgt id='morphing_basis_vector_3'> +2.0530911e-07 </wgt>
<wgt id='morphing_basis_vector_4'> +1.4884162e-07 </wgt>
<wgt id='morphing_basis_vector_5'> +2.3734771e-07 </wgt>
</rwgt>
</event>
<event>
 4      1 +6.9060000e-13 7.35742800e+03 7.81860800e-03 7.12923200e-02
        2 -1    0    0  501    0 +0.0000000000e+00 +0.0000000000e+00 +2.3818396745e+03 2.3818396745e+03 0.0000000000e+00 0.0000e+00 1.0000e+00
       -2 -1    0    0    0  501 -0.0000000000e+00 -0.0000000000e+00 -5.6817165134e+03 5.6817165134e+03 0.0000000000e+00 0.0000e+00 -1.0000e+00
      -13  1    1    2    0    0 -2.0362017046e+03 +3.8860821847e+02 +1.6807801142e+03 2.6687366902e+03 0.0000000000e+00 0.0000e+00 1.0000e+00
       13  1    1    2    0    0 +2.0362017046e+03 -3.8860821847e+02 -4.9806569531e+03 5.3948194978e+03 0.0000000000e+00 0.0000e+00 -1.0000e+00
<mgrwt>
<rscale>  0 0.73574283E+04</rscale>
<asrwt>0</asrwt>
<pdfrwt beam="1">  1        2 0.36643687E+00 0.73574283E+04</pdfrwt>
<pdfrwt beam="2">  1       -2 0.87411024E+00 0.73574283E+04</pdfrwt>
<totfact> 0.11348397E-04</totfact>
</mgrwt>
<rwgt>
<wgt id='morphing_basis_vector_1'> +3.6664323e-07 </wgt>
<wgt id='morphing_basis_vector_2'> +4.6047269e-07 </wgt>
<wgt id='morphing_basis_vector_3'> +4.5531413e-07 </wgt>
<wgt id='morphing_basis_vector_4'> +1.8069707e-08 </wgt>
<wgt id='morphing_basis_vector_5'> +3.3214306e-07 </wgt>
</rwgt>
</event>
<event>
 4      1 +6.9060000e-13 7.01752200e+03 7.81860800e-03 7.15952200e-02
        2 -1    0    0  501    0 +0.0000000000e+00 +0.0000000000e+00 +3.6415502473e+03 3.6415502473e+03 0.0000000000e+00 0.0000e+00 -1.0000e+00
       -2 -1    0    0    0  501 -0.0000000000e+00 -0.0000000000e+00 -3.3808138988e+03 3.3808138988e+03 0.0000000000e+00 0.0000e+00 1.0000e+00
      -13  1    1    2    0    0 -1.2338042563e+03 -3.1432834996e+03 -8.2365190995e+02 3.4757598551e+03 0.0000000000e+00 0.0000e+00 1.0000e+00
       13  1    1    2    0    0 +1.2338042563e+03 +3.1432834996e+03 +1.0843882584e+03 3.5466042910e+03 0.0000000000e+00 0.0000e+00 -1.0000e+00
<mgrwt>
<rscale>  0 0.70175220E+04</rscale>
<asrwt>0</asrwt>
<pdfrwt beam="1">  1        2 0.56023850E+00 0.70175220E+04</pdfrwt>
<pdfrwt beam="2">  1       -2 0.52012522E+00 0.70175220E+04</pdfrwt>
<totfact> 0.35027049E-04</totfact>
</mgrwt>
<rwgt>
<wgt id='morphing_basis_vector_1'> +2.2895530e-07 </wgt>
<wgt id='morphing_basis_vector_2'> +1.6236964e-07 </wgt>
<wgt id='morphing_basis_vector_3'> +2.5452245e-07 </wgt>
<wgt id='morphing_basis_vector_4'> +1.7486968e-07 </wgt>
<wgt id='morphing_basis_vector_5'> +2.8829397e-07 </wgt>
</rwgt>
</event>
<event>
 4      1 +6.9060000e-13 7.15621800e+03 7.81860800e-03 7.14695800e-02
        2 -1    0    0  501    0 +0.0000000000e+00 +0.0000000000e+00 +2.0295956109e+03 2.0295956109e+03 0.0000000000e+00 0.0000e+00 -1.0000e+00
       -2 -1    0    0    0  501 -0.0000000000e+00 -0.0000000000e+00 -6.3080860761e+03 6.3080860761e+03 0.0000000000e+00 0.0000e+00 1.0000e+00
      -13  1    1    2    0    0 +2.0709243545e+03 +7.3838712909e+02 -5.4282272687e+03 5.8565855680e+03 0.0000000000e+00 0.0000e+00 1.0000e+00
       13  1    1    2    0    0 -2.0709243545e+03 -7.3838712909e+02 +1.1497368035e+03 2.4810961190e+03 0.0000000000e+00 0.0000e+00 -1.0000e+00
<mgrwt>
<rscale>  0 0.71562179E+04</rscale>
<asrwt>0</asrwt>
<pdfrwt beam="1">  1        2 0.31224548E+00 0.71562179E+04</pdfrwt>
<pdfrwt beam="2">  1       -2 0.97047478E+00 0.71562179E+04</pdfrwt>
<totfact> 0.40508136E-06</totfact>
</mgrwt>
<rwgt>
<wgt id='morphing_basis_vector_1'> +2.4454344e-07 </wgt>
<wgt id='morphing_basis_vector_2'> +1.6670796e-07 </wgt>
<wgt id='morphing_basis_vector_3'> +2.7028901e-07 </wgt>
<wgt id='morphing_basis_vector_4'> +1.9561918e-07 </wgt>
<wgt id='morphing_basis_vector_5'> +3.1235545e-07 </wgt>
</rwgt>
</event>
<event>
 4      1 +6.9060000e-13 6.71847500e+03 7.81860800e-03 7.18763700e-02
        2 -1    0    0  501    0 +0.0000000000e+00 +0.0000000000e+00 +3.3680111277e+03 3.3680111277e+03 0.0000000000e+00 0.0000e+00 1.0000e+00
       -2 -1    0    0    0  501 -0.0000000000e+00 -0.0000000000e+00 -3.3504870938e+03 3.3504870938e+03 0.0000000000e+00 0.0000e+00 -1.0000e+00
      -13  1    1    2    0    0 -1.2599925399e+03 -2.6531223095e+02 -3.0939096588e+03 3.3511563314e+03 0.0000000000e+00 0.0000e+00 -1.0000e+00
       13  1    1    2    0    0 +1.2599925399e+03 +2.6531223095e+02 +3.1114336927e+03 3.3673418901e+03 0.0000000000e+00 0.0000e+00 1.0000e+00
<mgrwt>
<rscale>  0 0.67184754E+04</rscale>
<asrwt>0</asrwt>
<pdfrwt beam="1">  1        2 0.51815556E+00 0.67184754E+04</pdfrwt>
<pdfrwt beam="2">  1       -2 0.51545955E+00 0.67184754E+04</pdfrwt>
<totfact> 0.61574445E-04</totfact>
</mgrwt>
<rwgt>
<wgt id='morphing_basis_vector_1'> +1.8996508e-07 </wgt>
<wgt id='morphing_basis_vector_2'> +1.2925166e-07 </wgt>
<wgt id='morphing_basis_vector_3'> +2.0982865e-07 </wgt>
<wgt id='morphing_basis_vector_4'> +1.5211405e-07 </wgt>
<wgt id='morphing_basis_vector_5'> +2.4257613e-07 </wgt>
</rwgt>
</event>
<event>
 4      1 +6.9060000e-13 7.64966100e+03 7.81860800e-03 7.10447700e-02
        2 -1    0    0  501    0 +0.0000000000e+00 +0.0000000000e+00 +3.6410261491e+03 3.6410261491e+03 0.0000000000e+00 0.0000e+00 -1.0000e+00
       -2 -1    0    0    0  501 -0.0000000000e+00 -0.0000000000e+00 -4.0179136117e+03 4.0179136117e+03 0.0000000000e+00 0.0000e+00 1.0000e+00
      -13  1    1    2    0    0 -1.2354798576e+03 -1.9891754744e+03 -3.2163638258e+03 3.9784702847e+03 0.0000000000e+00 0.0000e+00 1.0000e+00
       13  1    1    2    0    0 +1.2354798576e+03 +1.9891754744e+03 +2.8394763633e+03 3.6804694760e+03 0.0000000000e+00 0.0000e+00 -1.0000e+00
<mgrwt>
<rscale>  0 0.76496610E+04</rscale>
<asrwt>0</asrwt>
<pdfrwt beam="1">  1        2 0.56015787E+00 0.76496610E+04</pdfrwt>
<pdfrwt beam="2">  1       -2 0.61814056E+00 0.76496610E+04</pdfrwt>
<totfact> 0.53330595E-05</totfact>
</mgrwt>
<rwgt>
<wgt id='morphing_basis_vector_1'> +3.1916241e-07 </wgt>
<wgt id='morphing_basis_vector_2'> +2.1762217e-07 </wgt>
<wgt id='morphing_basis_vector_3'> +3.5289474e-07 </wgt>
<wgt id='morphing_basis_vector_4'> +2.5551831e-07 </wgt>
<wgt id='morphing_basis_vector_5'> +4.0799219e-07 </wgt>
</rwgt>
</event>
<event>
 4      1 +6.9060000e-13 7.92239000e+03 7.81860800e-03 7.08235400e-02
        2 -1    0    0  501    0 +0.0000000000e+00 +0.0000000000e+00 +2.9367236816e+03 2.9367236816e+03 0.0000000000e+00 0.0000e+00 1.0000e+00
       -2 -1    0    0    0  501 -0.0000000000e+00 -0.0000000000e+00 -5.3430511071e+03 5.3430511071e+03 0.0000000000e+00 0.0000e+00 -1.0000e+00
      -13  1    1    2    0    0 +2.5534422801e+03 +1.8581514229e+03 -3.7023272189e+03 4.8662121845e+03 0.0000000000e+00 0.0000e+00 -1.0000e+00
       13  1    1    2    0    0 -2.5534422801e+03 -1.8581514229e+03 +1.2959997934e+03 3.4135626042e+03 0.0000000000e+00 0.0000e+00 1.0000e+00
<mgrwt>
<rscale>  0 0.79223897E+04</rscale>
<asrwt>0</asrwt>
<pdfrwt beam="1">  1        2 0.45180365E+00 0.79223897E+04</pdfrwt>
<pdfrwt beam="2">  1       -2 0.82200784E+00 0.79223897E+04</pdfrwt>
<totfact> 0.11353574E-04</totfact>
</mgrwt>
<rwgt>
<wgt id='morphing_basis_vector_1'> +3.6780615e-07 </wgt>
<wgt id='morphing_basis_vector_2'> +2.5240791e-07 </wgt>
<wgt id='morphing_basis_vector_3'> +4.0713084e-07 </wgt>
<wgt id='morphing_basis_vector_4'> +2.9249068e-07 </wgt>
<wgt id='morphing_basis_vector_5'> +4.6932001e-07 </wgt>
</rwgt>
</event>
<event>
 4      1 +6.9060000e-13 6.71529700e+03 7.81860800e-03 7.18794400e-02
        2 -1    0    0  501    0 +0.0000000000e+00 +0.0000000000e+00 +2.2201565449e+03 2.2201565449e+03 0.0000000000e+00 0.0000e+00 -1.0000e+00
       -2 -1    0    0    0  501 -0.0000000000e+00 -0.0000000000e+00 -5.0779312323e+03 5.0779312323e+03 0.0000000000e+00 0.0000e+00 1.0000e+00
      -13  1    1    2    0    0 +5.9307115587e+02 +2.1256220314e+03 -4.1790777002e+03 4.7259594625e+03 0.0000000000e+00 0.0000e+00 1.0000e+00
       13  1    1    2    0    0 -5.9307115587e+02 -2.1256220314e+03 +1.3213030128e+03 2.5721283148e+03 0.0000000000e+00 0.0000e+00 -1.0000e+00
<mgrwt>
<rscale>  0 0.67152966E+04</rscale>
<asrwt>0</asrwt>
<pdfrwt beam="1">  1        2 0.34156255E+00 0.67152966E+04</pdfrwt>
<pdfrwt beam="2">  1       -2 0.78122017E+00 0.67152966E+04</pdfrwt>
<totfact> 0.40639551E-04</totfact>
</mgrwt>
<rwgt>
<wgt id='morphing_basis_vector_1'> +1.8974686e-07 </wgt>
<wgt id='morphing_basis_vector_2'> +1.2941936e-07 </wgt>
<wgt id='morphing_basis_vector_3'> +2.0966175e-07 </wgt>
<wgt id='morphing_basis_vector_4'> +1.5152502e-07 </wgt>
<wgt id='morphing_basis_vector_5'> +2.4209122e-07 </wgt>
</rwgt>
</event>
<event>
 4      1 +6.9060000e-13 7.68474900e+03 7.81860800e-03 7.10157900e-02
        2 -1    0    0  501    0 +0.0000000000e+00 +0.0000000000e+00 +3.9735376579e+03 3.9735376579e+03 0.0000000000e+00 0.0000e+00 1.0000e+00
       -2 -1    0    0    0  501 -0.0000000000e+00 -0.0000000000e+00 -3.7155409511e+03 3.7155409511e+03 0.0000000000e+00 0.0000e+00 -1.0000e+00
      -13  1    1    2    0    0 +7.6415747075e+02 +3.7603216711e+03 -7.0829409992e+01 3.8378343523e+03 0.0000000000e+00 0.0000e+00 -1.0000e+00
       13  1    1    2    0    0 -7.6415747075e+02 -3.7603216711e+03 +3.2882611673e+02 3.8512442568e+03 0.0000000000e+00 0.0000e+00 1.0000e+00
<mgrwt>
<rscale>  0 0.76847490E+04</rscale>
<asrwt>0</asrwt>
<pdfrwt beam="1">  1        2 0.61131349E+00 0.76847490E+04</pdfrwt>
<pdfrwt beam="2">  1       -2 0.57162168E+00 0.76847490E+04</pdfrwt>
<totfact> 0.76572527E-05</totfact>
</mgrwt>
<rwgt>
<wgt id='morphing_basis_vector_1'> +3.3477195e-07 </wgt>
<wgt id='morphing_basis_vector_2'> +2.5016223e-07 </wgt>
<wgt id='morphing_basis_vector_3'> +3.7537410e-07 </wgt>
<wgt id='morphing_basis_vector_4'> +2.3937602e-07 </wgt>
<wgt id='morphing_basis_vector_5'> +4.1377917e-07 </wgt>
</rwgt>
</event>
<event>
 4      1 +6.9060000e-13 6.68308000e+03 7.81860800e-03 7.19106200e-02
        2 -1    0    0  501    0 +0.0000000000e+00 +0.0000000000e+00 +2.7848910424e+03 2.7848910424e+03 0.0000000000e+00 0.0000e+00 1.0000e+00
       -2 -1    0    0    0  501 -0.0000000000e+00 -0.0000000000e+00 -4.0094528121e+03 4.0094528121e+03 0.0000000000e+00 0.0000e+00 -1.0000e+00
      -13  1    1    2    0    0 -1.1184214661e+02 +2.9665806475e+03 -2.1716951841e+03 3.6782291088e+03 0.0000000000e+00 0.0000e+00 -1.0000e+00
       13  1    1    2    0    0 +1.1184214661e+02 -2.9665806475e+03 +9.4713341432e+02 3.1161147457e+03 0.0000000000e+00 0.0000e+00 1.0000e+00
<mgrwt>
<rscale>  0 0.66830799E+04</rscale>
<asrwt>0</asrwt>
<pdfrwt beam="1">  1        2 0.42844478E+00 0.66830799E+04</pdfrwt>
<pdfrwt beam="2">  1       -2 0.61683889E+00 0.66830799E+04</pdfrwt>
<totfact> 0.22914407E-04</totfact>
</mgrwt>
<rwgt>
<wgt id='morphing_basis_vector_1'> +1.8701836e-07 </wgt>
<wgt id='morphing_basis_vector_2'> +1.2953795e-07 </wgt>
<wgt id='morphing_basis_vector_3'> +2.0710855e-07 </wgt>
<wgt id='morphing_basis_vector_4'> +1.4674731e-07 </wgt>
<wgt id='morphing_basis_vector_5'> +2.3731189e-07 </wgt>
</rwgt>
</event>
<event>
 4      1 +6.9060000e-13 6.79371700e+03 7.81860800e-03 7.18042600e-02
        2 -1    0    0  501    0 +0.0000000000e+00 +0.0000000000e+00 +4.0072502505e+03 4.0072502505e+03 0.0000000000e+00 0.0000e+00 -1.0000e+00
       -2 -1    0    0    0  501 -0.0000000000e+00 -0.0000000000e+00 -2.8794429148e+03 2.8794429148e+03 0.0000000000e+00 0.0000e+00 1.0000e+00
      -13  1    1    2    0    0 -2.2256048486e+02 -2.4195211112e+03 -1.8424058663e+03 3.0492744962e+03 0.0000000000e+00 0.0000e+00 1.0000e+00
       13  1    1    2    0    0 +2.2256048486e+02 +2.4195211112e+03 +2.9702132019e+03 3.8374186691e+03 0.0000000000e+00 0.0000e+00 -1.0000e+00
<mgrwt>
<rscale>  0 0.67937172E+04</rscale>
<asrwt>0</asrwt>
<pdfrwt beam="1">  1        2 0.61650004E+00 0.67937172E+04</pdfrwt>
<pdfrwt beam="2">  1       -2 0.44299122E+00 0.67937172E+04</pdfrwt>
<totfact> 0.66106816E-04</totfact>
</mgrwt>
<rwgt>
<wgt id='morphing_basis_vector_1'> +1.9884453e-07 </wgt>
<wgt id='morphing_basis_vector_2'> +1.3584420e-07 </wgt>
<wgt id='morphing_basis_vector_3'> +2.1978184e-07 </wgt>
<wgt id='morphing_basis_vector_4'> +1.5853799e-07 </wgt>
<wgt id='morphing_basis_vector_5'> +2.5360270e-07 </wgt>
</rwgt>
</event>
<event>
 4      1 +6.9060000e-13 7.60793500e+03 7.81860800e-03 7.10794300e-02
        2 -1    0    0  501    0 +0.0000000000e+00 +0.0000000000e+00 +2.3657505337e+03 2.3657505337e+03 0.0000000000e+00 0.0000e+00 -1.0000e+00
       -2 -1    0    0    0  501 -0.0000000000e+00 -0.0000000000e+00 -6.1165233592e+03 6.1165233592e+03 0.0000000000e+00 0.0000e+00 1.0000e+00
      -13  1    1    2    0    0 -5.4834568482e+01 +3.1178830965e+03 -4.3042763781e+03 5.3151666928e+03 0.0000000000e+00 0.0000e+00 1.0000e+00
       13  1    1    2    0    0 +5.4834568482e+01 -3.1178830965e+03 +5.5350355264e+02 3.1671072000e+03 0.0000000000e+00 0.0000e+00 -1.0000e+00
<mgrwt>
<rscale>  0 0.76079349E+04</rscale>
<asrwt>0</asrwt>
<pdfrwt beam="1">  1        2 0.36396162E+00 0.76079349E+04</pdfrwt>
<pdfrwt beam="2">  1       -2 0.94100360E+00 0.76079349E+04</pdfrwt>
<totfact> 0.13981316E-05</totfact>
</mgrwt>
<rwgt>
<wgt id='morphing_basis_vector_1'> +3.1302559e-07 </wgt>
<wgt id='morphing_basis_vector_2'> +2.1514623e-07 </wgt>
<wgt id='morphing_basis_vector_3'> +3.4650672e-07 </wgt>
<wgt id='morphing_basis_vector_4'> +2.4834928e-07 </wgt>
<wgt id='morphing_basis_vector_5'> +3.9901340e-07 </wgt>
</rwgt>
</event>
<event>
 4      1 +6.9060000e-13 7.14816200e+03 7.81860800e-03 7.14768000e-02
        2 -1    0    0  501    0 +0.0000000000e+00 +0.0000000000e+00 +2.7576033742e+03 2.7576033742e+03 0.0000000000e+00 0.0000e+00 1.0000e+00
       -2 -1    0    0    0  501 -0.0000000000e+00 -0.0000000000e+00 -4.6323026130e+03 4.6323026130e+03 0.0000000000e+00 0.0000e+00 -1.0000e+00
      -13  1    1    2    0    0 +9.5257672566e+02 +2.1956951168e+03 -3.6814673587e+03 4.3910911374e+03 0.0000000000e+00 0.0000e+00 -1.0000e+00
       13  1    1    2    0    0 -9.5257672566e+02 -2.1956951168e+03 +1.8067681199e+03 2.9988148498e+03 0.0000000000e+00 0.0000e+00 1.0000e+00
<mgrwt>
<rscale>  0 0.71481615E+04</rscale>
<asrwt>0</asrwt>
<pdfrwt beam="1">  1        2 0.42424668E+00 0.71481615E+04</pdfrwt>
<pdfrwt beam="2">  1       -2 0.71266193E+00 0.71481615E+04</pdfrwt>
<totfact> 0.77044393E-05</totfact>
</mgrwt>
<rwgt>
<wgt id='morphing_basis_vector_1'> +2.4352399e-07 </wgt>
<wgt id='morphing_basis_vector_2'> +1.6618830e-07 </wgt>
<wgt id='morphing_basis_vector_3'> +2.6920217e-07 </wgt>
<wgt id='morphing_basis_vector_4'> +1.9457080e-07 </wgt>
<wgt id='morphing_basis_vector_5'> +3.1093494e-07 </wgt>
</rwgt>
</event>
<event>
 4      1 +6.9060000e-13 7.09388500e+03 7.81860800e-03 7.15256900e-02
        2 -1    0    0  501    0 +0.0000000000e+00 +0.0000000000e+00 +4.6643891317e+03 4.6643891317e+03 0.0000000000e+00 0.0000e+00 -1.0000e+00
       -2 -1    0    0    0  501 -0.0000000000e+00 -0.0000000000e+00 -2.6972025064e+03 2.6972025064e+03 0.0000000000e+00 0.0000e+00 1.0000e+00
      -13  1    1    2    0    0 -1.9930913667e+03 -1.7297809116e+03 -1.4757018561e+03 3.0236155784e+03 0.0000000000e+00 0.0000e+00 1.0000e+00
       13  1    1    2    0    0 +1.9930913667e+03 +1.7297809116e+03 +3.4428884814e+03 4.3379760596e+03 0.0000000000e+00 0.0000e+00 -1.0000e+00
<mgrwt>
<rscale>  0 0.70938853E+04</rscale>
<asrwt>0</asrwt>
<pdfrwt beam="1">  1        2 0.71759833E+00 0.70938853E+04</pdfrwt>
<pdfrwt beam="2">  1       -2 0.41495423E+00 0.70938853E+04</pdfrwt>
<totfact> 0.22872041E-04</totfact>
</mgrwt>
<rwgt>
<wgt id='morphing_basis_vector_1'> +2.3639349e-07 </wgt>
<wgt id='morphing_basis_vector_2'> +1.6170096e-07 </wgt>
<wgt id='morphing_basis_vector_3'> +2.6139863e-07 </wgt>
<wgt id='morphing_basis_vector_4'> +1.8835413e-07 </wgt>
<wgt id='morphing_basis_vector_5'> +3.0155305e-07 </wgt>
</rwgt>
</event>
<event>
 4      1 +6.9060000e-13 7.91782200e+03 7.81860800e-03 7.08271700e-02
        2 -1    0    0  501    0 +0.0000000000e+00 +0.0000000000e+00 +3.9749845553e+03 3.9749845553e+03 0.0000000000e+00 0.0000e+00 -1.0000e+00
       -2 -1    0    0    0  501 -0.0000000000e+00 -0.0000000000e+00 -3.9429023699e+03 3.9429023699e+03 0.0000000000e+00 0.0000e+00 1.0000e+00
      -13  1    1    2    0    0 -3.3647490779e+03 -1.9644538664e+03 -6.8564883617e+02 3.9561003118e+03 0.0000000000e+00 0.0000e+00 1.0000e+00
       13  1    1    2    0    0 +3.3647490779e+03 +1.9644538664e+03 +7.1773102158e+02 3.9617866134e+03 0.0000000000e+00 0.0000e+00 -1.0000e+00
<mgrwt>
<rscale>  0 0.79178219E+04</rscale>
<asrwt>0</asrwt>
<pdfrwt beam="1">  1        2 0.61153609E+00 0.79178219E+04</pdfrwt>
<pdfrwt beam="2">  1       -2 0.60660036E+00 0.79178219E+04</pdfrwt>
<totfact> 0.37944313E-05</totfact>
</mgrwt>
<rwgt>
<wgt id='morphing_basis_vector_1'> +3.7298989e-07 </wgt>
<wgt id='morphing_basis_vector_2'> +2.6951750e-07 </wgt>
<wgt id='morphing_basis_vector_3'> +4.1609768e-07 </wgt>
<wgt id='morphing_basis_vector_4'> +2.7886708e-07 </wgt>
<wgt id='morphing_basis_vector_5'> +4.6714454e-07 </wgt>
</rwgt>
</event>
<event>
 4      1 +6.9060000e-13 6.93989600e+03 7.81860800e-03 7.16668200e-02
        2 -1    0    0  501    0 +0.0000000000e+00 +0.0000000000e+00 +3.8716559790e+03 3.8716559790e+03 0.0000000000e+00 0.0000e+00 -1.0000e+00
       -2 -1    0    0    0  501 -0.0000000000e+00 -0.0000000000e+00 -3.1099192448e+03 3.1099192448e+03 0.0000000000e+00 0.0000e+00 1.0000e+00
      -13  1    1    2    0    0 +1.7749239148e+02 +2.0911275039e+03 -2.3990989872e+03 3.1874745076e+03 0.0000000000e+00 0.0000e+00 1.0000e+00
       13  1    1    2    0    0 -1.7749239148e+02 -2.0911275039e+03 +3.1608357214e+03 3.7941007161e+03 0.0000000000e+00 0.0000e+00 -1.0000e+00
<mgrwt>
<rscale>  0 0.69398955E+04</rscale>
<asrwt>0</asrwt>
<pdfrwt beam="1">  1        2 0.59563938E+00 0.69398955E+04</pdfrwt>
<pdfrwt beam="2">  1       -2 0.47844912E+00 0.69398955E+04</pdfrwt>
<totfact> 0.47419250E-04</totfact>
</mgrwt>
<rwgt>
<wgt id='morphing_basis_vector_1'> +2.1632312e-07 </wgt>
<wgt id='morphing_basis_vector_2'> +1.4743038e-07 </wgt>
<wgt id='morphing_basis_vector_3'> +2.3904707e-07 </wgt>
<wgt id='morphing_basis_vector_4'> +1.7300415e-07 </wgt>
<wgt id='morphing_basis_vector_5'> +2.7621310e-07 </wgt>
</rwgt>
</event>
<event>
 4      1 +6.9060000e-13 7.44691100e+03 7.81860800e-03 7.12153100e-02
        2 -1    0    0  501    0 +0.0000000000e+00 +0.0000000000e+00 +4.8033590464e+03 4.8033590464e+03 0.0000000000e+00 0.0000e+00 -1.0000e+00
       -2 -1    0    0    0  501 -0.0000000000e+00 -0.0000000000e+00 -2.8863385911e+03 2.8863385911e+03 0.0000000000e+00 0.0000e+00 1.0000e+00
      -13  1    1    2    0    0 +2.3956530418e+03 +2.7053447170e+02 -1.9715665836e+03 3.1143887346e+03 0.0000000000e+00 0.0000e+00 1.0000e+00
       13  1    1    2    0    0 -2.3956530418e+03 -2.7053447170e+02 +3.8885870389e+03 4.5753089028e+03 0.0000000000e+00 0.0000e+00 -1.0000e+00
<mgrwt>
<rscale>  0 0.74469109E+04</rscale>
<asrwt>0</asrwt>
<pdfrwt beam="1">  1        2 0.73897832E+00 0.74469109E+04</pdfrwt>
<pdfrwt beam="2">  1       -2 0.44405209E+00 0.74469109E+04</pdfrwt>
<totfact> 0.98048859E-05</totfact>
</mgrwt>
<rwgt>
<wgt id='morphing_basis_vector_1'> +2.8674498e-07 </wgt>
<wgt id='morphing_basis_vector_2'> +1.9561987e-07 </wgt>
<wgt id='morphing_basis_vector_3'> +3.1703355e-07 </wgt>
<wgt id='morphing_basis_vector_4'> +2.2933893e-07 </wgt>
<wgt id='morphing_basis_vector_5'> +3.6636286e-07 </wgt>
</rwgt>
</event>
<event>
 4      1 +6.9060000e-13 6.80261500e+03 7.81860800e-03 7.17957900e-02
        2 -1    0    0  501    0 +0.0000000000e+00 +0.0000000000e+00 +3.5519409862e+03 3.5519409862e+03 0.0000000000e+00 0.0000e+00 1.0000e+00
       -2 -1    0    0    0  501 -0.0000000000e+00 -0.0000000000e+00 -3.2570626542e+03 3.2570626542e+03 0.0000000000e+00 0.0000e+00 -1.0000e+00
      -13  1    1    2    0    0 -2.9075234500e+01 -7.0818227620e+02 +3.4772020966e+03 3.5487042602e+03 0.0000000000e+00 0.0000e+00 1.0000e+00
       13  1    1    2    0    0 +2.9075234500e+01 +7.0818227620e+02 -3.1823237646e+03 3.2602993802e+03 0.0000000000e+00 0.0000e+00 -1.0000e+00
<mgrwt>
<rscale>  0 0.68026155E+04</rscale>
<asrwt>0</asrwt>
<pdfrwt beam="1">  1        2 0.54645246E+00 0.68026155E+04</pdfrwt>
<pdfrwt beam="2">  1       -2 0.50108656E+00 0.68026155E+04</pdfrwt>
<totfact> 0.57656726E-04</totfact>
</mgrwt>
<rwgt>
<wgt id='morphing_basis_vector_1'> +2.7362856e-07 </wgt>
<wgt id='morphing_basis_vector_2'> +3.5294790e-07 </wgt>
<wgt id='morphing_basis_vector_3'> +3.4171815e-07 </wgt>
<wgt id='morphing_basis_vector_4'> +1.3119355e-09 </wgt>
<wgt id='morphing_basis_vector_5'> +2.4161910e-07 </wgt>
</rwgt>
</event>
<event>
 4      1 +6.9060000e-13 6.72638800e+03 7.81860800e-03 7.18687400e-02
        2 -1    0    0  501    0 +0.0000000000e+00 +0.0000000000e+00 +2.1994421518e+03 2.1994421518e+03 0.0000000000e+00 0.0000e+00 -1.0000e+00
       -2 -1    0    0    0  501 -0.0000000000e+00 -0.0000000000e+00 -5.1427017069e+03 5.1427017069e+03 0.0000000000e+00 0.0000e+00 1.0000e+00
      -13  1    1    2    0    0 -1.0766041517e+03 -1.1328613089e+03 -4.7222712193e+03 4.9741629158e+03 0.0000000000e+00 0.0000e+00 1.0000e+00
       13  1    1    2    0    0 +1.0766041517e+03 +1.1328613089e+03 +1.7790116642e+03 2.3679809429e+03 0.0000000000e+00 0.0000e+00 -1.0000e+00
<mgrwt>
<rscale>  0 0.67263883E+04</rscale>
<asrwt>0</asrwt>
<pdfrwt beam="1">  1        2 0.33837572E+00 0.67263883E+04</pdfrwt>
<pdfrwt beam="2">  1       -2 0.79118487E+00 0.67263883E+04</pdfrwt>
<totfact> 0.41154398E-04</totfact>
</mgrwt>
<rwgt>
<wgt id='morphing_basis_vector_1'> +1.9087646e-07 </wgt>
<wgt id='morphing_basis_vector_2'> +1.2990957e-07 </wgt>
<wgt id='morphing_basis_vector_3'> +2.1084580e-07 </wgt>
<wgt id='morphing_basis_vector_4'> +1.5279787e-07 </wgt>
<wgt id='morphing_basis_vector_5'> +2.4372000e-07 </wgt>
</rwgt>
</event>
<event>
 4      1 +6.9060000e-13 6.77241800e+03 7.81860800e-03 7.18245800e-02
        2 -1    0    0  501    0 +0.0000000000e+00 +0.0000000000e+00 +3.2764402068e+03 3.2764402068e+03 0.0000000000e+00 0.0000e+00 1.0000e+00
       -2 -1    0    0    0  501 -0.0000000000e+00 -0.0000000000e+00 -3.4996554227e+03 3.4996554227e+03 0.0000000000e+00 0.0000e+00 -1.0000e+00
      -13  1    1    2    0    0 +1.6299836928e+03 +1.9300605866e+03 -2.3677003317e+03 3.4623670469e+03 0.0000000000e+00 0.0000e+00 -1.0000e+00
       13  1    1    2    0    0 -1.6299836928e+03 -1.9300605866e+03 +2.1444851158e+03 3.3137285826e+03 0.0000000000e+00 0.0000e+00 1.0000e+00
<mgrwt>
<rscale>  0 0.67724181E+04</rscale>
<asrwt>0</asrwt>
<pdfrwt beam="1">  1        2 0.50406772E+00 0.67724181E+04</pdfrwt>
<pdfrwt beam="2">  1       -2 0.53840853E+00 0.67724181E+04</pdfrwt>
<totfact> 0.48250211E-04</totfact>
</mgrwt>
<rwgt>
<wgt id='morphing_basis_vector_1'> +1.9643699e-07 </wgt>
<wgt id='morphing_basis_vector_2'> +1.3435511e-07 </wgt>
<wgt id='morphing_basis_vector_3'> +2.1715347e-07 </wgt>
<wgt id='morphing_basis_vector_4'> +1.5640595e-07 </wgt>
<wgt id='morphing_basis_vector_5'> +2.5041929e-07 </wgt>
</rwgt>
</event>
<event>
 4      1 +6.9060000e-13 7.03424600e+03 7.81860800e-03 7.15799200e-02
        2 -1    0    0  501    0 +0.0000000000e+00 +0.0000000000e+00 +2.4906299146e+03 2.4906299146e+03 0.0000000000e+00 0.0000e+00 -1.0000e+00
       -2 -1    0    0    0  501 -0.0000000000e+00 -0.0000000000e+00 -4.9666768512e+03 4.9666768512e+03 0.0000000000e+00 0.0000e+00 1.0000e+00
      -13  1    1    2    0    0 -2.1401211865e+03 +1.2851314300e+03 -3.8646275611e+03 4.6007638139e+03 0.0000000000e+00 0.0000e+00 1.0000e+00
       13  1    1    2    0    0 +2.1401211865e+03 -1.2851314300e+03 +1.3885806245e+03 2.8565429519e+03 0.0000000000e+00 0.0000e+00 -1.0000e+00
<mgrwt>
<rscale>  0 0.70342459E+04</rscale>
<asrwt>0</asrwt>
<pdfrwt beam="1">  1        2 0.38317384E+00 0.70342459E+04</pdfrwt>
<pdfrwt beam="2">  1       -2 0.76410412E+00 0.70342459E+04</pdfrwt>
<totfact> 0.26755108E-04</totfact>
</mgrwt>
<rwgt>
<wgt id='morphing_basis_vector_1'> +2.2846831e-07 </wgt>
<wgt id='morphing_basis_vector_2'> +1.5607654e-07 </wgt>
<wgt id='morphing_basis_vector_3'> +2.5257497e-07 </wgt>
<wgt id='morphing_basis_vector_4'> +1.8227870e-07 </wgt>
<wgt id='morphing_basis_vector_5'> +2.9153971e-07 </wgt>
</rwgt>
</event>
<event>
 4      1 +6.9060000e-13 7.28477300e+03 7.81860800e-03 7.13556600e-02
        2 -1    0    0  501    0 +0.0000000000e+00 +0.0000000000e+00 +4.6809374114e+03 4.6809374114e+03 0.0000000000e+00 0.0000e+00 -1.0000e+00
       -2 -1    0    0    0  501 -0.0000000000e+00 -0.0000000000e+00 -2.8342568173e+03 2.8342568173e+03 0.0000000000e+00 0.0000e+00 1.0000e+00
      -13  1    1    2    0    0 +2.7831571844e+03 -1.6101613474e+03 +2.6887237294e+03 4.1913981881e+03 0.0000000000e+00 0.0000e+00 1.0000e+00
       13  1    1    2    0    0 -2.7831571844e+03 +1.6101613474e+03 -8.4204313524e+02 3.3237960406e+03 0.0000000000e+00 0.0000e+00 -1.0000e+00
<mgrwt>
<rscale>  0 0.72847728E+04</rscale>
<asrwt>0</asrwt>
<pdfrwt beam="1">  1        2 0.72014422E+00 0.72847728E+04</pdfrwt>
<pdfrwt beam="2">  1       -2 0.43603951E+00 0.72847728E+04</pdfrwt>
<totfact> 0.15617786E-04</totfact>
</mgrwt>
<rwgt>
<wgt id='morphing_basis_vector_1'> +3.0706963e-07 </wgt>
<wgt id='morphing_basis_vector_2'> +3.0958624e-07 </wgt>
<wgt id='morphing_basis_vector_3'> +3.6323411e-07 </wgt>
<wgt id='morphing_basis_vector_4'> +1.1460422e-07 </wgt>
<wgt id='morphing_basis_vector_5'> +3.2739814e-07 </wgt>
</rwgt>
</event>
<event>
 4      1 +6.9060000e-13 7.29641900e+03 7.81860800e-03 7.13454600e-02
        2 -1    0    0  501    0 +0.0000000000e+00 +0.0000000000e+00 +3.6828204700e+03 3.6828204700e+03 0.0000000000e+00 0.0000e+00 -1.0000e+00
       -2 -1    0    0    0  501 -0.0000000000e+00 -0.0000000000e+00 -3.6139237921e+03 3.6139237921e+03 0.0000000000e+00 0.0000e+00 1.0000e+00
      -13  1    1    2    0    0 -2.5807465730e+03 -2.5451422614e+03 -3.7961180039e+02 3.6444625288e+03 0.0000000000e+00 0.0000e+00 1.0000e+00
       13  1    1    2    0    0 +2.5807465730e+03 +2.5451422614e+03 +4.4850847825e+02 3.6522817334e+03 0.0000000000e+00 0.0000e+00 -1.0000e+00
<mgrwt>
<rscale>  0 0.72964190E+04</rscale>
<asrwt>0</asrwt>
<pdfrwt beam="1">  1        2 0.56658776E+00 0.72964190E+04</pdfrwt>
<pdfrwt beam="2">  1       -2 0.55598828E+00 0.72964190E+04</pdfrwt>
<totfact> 0.17557582E-04</totfact>
</mgrwt>
<rwgt>
<wgt id='morphing_basis_vector_1'> +2.7049366e-07 </wgt>
<wgt id='morphing_basis_vector_2'> +1.9848499e-07 </wgt>
<wgt id='morphing_basis_vector_3'> +3.0234718e-07 </wgt>
<wgt id='morphing_basis_vector_4'> +1.9802531e-07 </wgt>
<wgt id='morphing_basis_vector_5'> +3.3647175e-07 </wgt>
</rwgt>
</event>
<event>
 4      1 +6.9060000e-13 6.69086200e+03 7.81860800e-03 7.19030700e-02
        2 -1    0    0  501    0 +0.0000000000e+00 +0.0000000000e+00 +3.6571238412e+03 3.6571238412e+03 0.0000000000e+00 0.0000e+00 -1.0000e+00
       -2 -1    0    0    0  501 -0.0000000000e+00 -0.0000000000e+00 -3.0603037943e+03 3.0603037943e+03 0.0000000000e+00 0.0000e+00 1.0000e+00
      -13  1    1    2    0    0 +3.2459449683e+03 -7.6749924022e+02 +3.9128679516e+01 3.3356775735e+03 0.0000000000e+00 0.0000e+00 1.0000e+00
       13  1    1    2    0    0 -3.2459449683e+03 +7.6749924022e+02 +5.5769136733e+02 3.3817500620e+03 0.0000000000e+00 0.0000e+00 -1.0000e+00
<mgrwt>
<rscale>  0 0.66908624E+04</rscale>
<asrwt>0</asrwt>
<pdfrwt beam="1">  1        2 0.56263443E+00 0.66908624E+04</pdfrwt>
<pdfrwt beam="2">  1       -2 0.47081597E+00 0.66908624E+04</pdfrwt>
<totfact> 0.81207857E-04</totfact>
</mgrwt>
<rwgt>
<wgt id='morphing_basis_vector_1'> +1.9204208e-07 </wgt>
<wgt id='morphing_basis_vector_2'> +1.4232803e-07 </wgt>
<wgt id='morphing_basis_vector_3'> +2.1487407e-07 </wgt>
<wgt id='morphing_basis_vector_4'> +1.3853446e-07 </wgt>
<wgt id='morphing_basis_vector_5'> +2.3767158e-07 </wgt>
</rwgt>
</event>
<event>
 4      1 +6.9060000e-13 6.82311300e+03 7.81860800e-03 7.17763400e-02
        2 -1    0    0  501    0 +0.0000000000e+00 +0.0000000000e+00 +2.4062845386e+03 2.4062845386e+03 0.0000000000e+00 0.0000e+00 -1.0000e+00
       -2 -1    0    0    0  501 -0.0000000000e+00 -0.0000000000e+00 -4.8368006422e+03 4.8368006422e+03 0.0000000000e+00 0.0000e+00 1.0000e+00
      -13  1    1    2    0    0 -1.1891849485e+03 +1.4170083863e+03 -4.2581622167e+03 4.6426306199e+03 0.0000000000e+00 0.0000e+00 1.0000e+00
       13  1    1    2    0    0 +1.1891849485e+03 -1.4170083863e+03 +1.8276461132e+03 2.6004545609e+03 0.0000000000e+00 0.0000e+00 -1.0000e+00
<mgrwt>
<rscale>  0 0.68231132E+04</rscale>
<asrwt>0</asrwt>
<pdfrwt beam="1">  1        2 0.37019762E+00 0.68231132E+04</pdfrwt>
<pdfrwt beam="2">  1       -2 0.74412318E+00 0.68231132E+04</pdfrwt>
<totfact> 0.25451859E-04</totfact>
</mgrwt>
<rwgt>
<wgt id='morphing_basis_vector_1'> +2.0210577e-07 </wgt>
<wgt id='morphing_basis_vector_2'> +1.3763235e-07 </wgt>
<wgt id='morphing_basis_vector_3'> +2.2328823e-07 </wgt>
<wgt id='morphing_basis_vector_4'> +1.6172567e-07 </wgt>
<wgt id='morphing_basis_vector_5'> +2.5806367e-07 </wgt>
</rwgt>
</event>
<event>
 4      1 +6.9060000e-13 6.72367800e+03 7.81860800e-03 7.18713500e-02
        2 -1    0    0  501    0 +0.0000000000e+00 +0.0000000000e+00 +3.1742650066e+03 3.1742650066e+03 0.0000000000e+00 0.0000e+00 -1.0000e+00
       -2 -1    0    0    0  501 -0.0000000000e+00 -0.0000000000e+00 -3.5604974748e+03 3.5604974748e+03 0.0000000000e+00 0.0000e+00 1.0000e+00
      -13  1    1    2    0    0 -2.2445586550e+03 -1.9141386561e+03 -1.8082235267e+03 3.4600061667e+03 0.0000000000e+00 0.0000e+00 1.0000e+00
       13  1    1    2    0    0 +2.2445586550e+03 +1.9141386561e+03 +1.4219910585e+03 3.2747563148e+03 0.0000000000e+00 0.0000e+00 -1.0000e+00
<mgrwt>
<rscale>  0 0.67236783E+04</rscale>
<asrwt>0</asrwt>
<pdfrwt beam="1">  1        2 0.48834846E+00 0.67236783E+04</pdfrwt>
<pdfrwt beam="2">  1       -2 0.54776884E+00 0.67236783E+04</pdfrwt>
<totfact> 0.48720357E-04</totfact>
</mgrwt>
<rwgt>
<wgt id='morphing_basis_vector_1'> +1.9149146e-07 </wgt>
<wgt id='morphing_basis_vector_2'> +1.3240571e-07 </wgt>
<wgt id='morphing_basis_vector_3'> +2.1201580e-07 </wgt>
<wgt id='morphing_basis_vector_4'> +1.5057574e-07 </wgt>
<wgt id='morphing_basis_vector_5'> +2.4316035e-07 </wgt>
</rwgt>
</event>
<event>
 4      1 +6.9060000e-13 7.96763800e+03 7.81860800e-03 7.07877000e-02
        2 -1    0    0  501    0 +0.0000000000e+00 +0.0000000000e+00 +3.2465325946e+03 3.2465325946e+03 0.0000000000e+00 0.0000e+00 -1.0000e+00
       -2 -1    0    0    0  501 -0.0000000000e+00 -0.0000000000e+00 -4.8885425041e+03 4.8885425041e+03 0.0000000000e+00 0.0000e+00 1.0000e+00
      -13  1    1    2    0    0 +3.9324785431e+03 -3.8479060162e+02 -1.3399790770e+03 4.1722889672e+03 0.0000000000e+00 0.0000e+00 1.0000e+00
       13  1    1    2    0    0 -3.9324785431e+03 +3.8479060162e+02 -3.0203083251e+02 3.9627861314e+03 0.0000000000e+00 0.0000e+00 -1.0000e+00
<mgrwt>
<rscale>  0 0.79676377E+04</rscale>
<asrwt>0</asrwt>
<pdfrwt beam="1">  1        2 0.49946655E+00 0.79676377E+04</pdfrwt>
<pdfrwt beam="2">  1       -2 0.75208346E+00 0.79676377E+04</pdfrwt>
<totfact> 0.76724846E-05</totfact>
</mgrwt>
<rwgt>
<wgt id='morphing_basis_vector_1'> +3.8395845e-07 </wgt>
<wgt id='morphing_basis_vector_2'> +2.8077662e-07 </wgt>
<wgt id='morphing_basis_vector_3'> +4.2914133e-07 </wgt>
<wgt id='morphing_basis_vector_4'> +2.8272782e-07 </wgt>
<wgt id='morphing_basis_vector_5'> +4.7875451e-07 </wgt>
</rwgt>
</event>
<event>
 4      1 +6.9060000e-13 7.02316500e+03 7.81860800e-03 7.15900500e-02
        2 -1    0    0  501    0 +0.0000000000e+00 +0.0000000000e+00 +3.3178781853e+03 3.3178781853e+03 0.0000000000e+00 0.0000e+00 1.0000e+00
       -2 -1    0    0    0  501 -0.0000000000e+00 -0.0000000000e+00 -3.7165956980e+03 3.7165956980e+03 0.0000000000e+00 0.0000e+00 -1.0000e+00
      -13  1    1    2    0    0 -3.2814720292e+03 -5.0674796739e+02 -1.3441600711e+03 3.5821248551e+03 0.0000000000e+00 0.0000e+00 -1.0000e+00
       13  1    1    2    0    0 +3.2814720292e+03 +5.0674796739e+02 +9.4544255836e+02 3.4523490282e+03 0.0000000000e+00 0.0000e+00 1.0000e+00
<mgrwt>
<rscale>  0 0.70231650E+04</rscale>
<asrwt>0</asrwt>
<pdfrwt beam="1">  1        2 0.51044280E+00 0.70231650E+04</pdfrwt>
<pdfrwt beam="2">  1       -2 0.57178395E+00 0.70231650E+04</pdfrwt>
<totfact> 0.25474685E-04</totfact>
</mgrwt>
<rwgt>
<wgt id='morphing_basis_vector_1'> +2.2909103e-07 </wgt>
<wgt id='morphing_basis_vector_2'> +1.6113051e-07 </wgt>
<wgt id='morphing_basis_vector_3'> +2.5435808e-07 </wgt>
<wgt id='morphing_basis_vector_4'> +1.7672112e-07 </wgt>
<wgt id='morphing_basis_vector_5'> +2.8933240e-07 </wgt>
</rwgt>
</event>
<event>
 4      1 +6.9060000e-13 7.70921400e+03 7.81860800e-03 7.09956800e-02
        2 -1    0    0  501    0 +0.0000000000e+00 +0.0000000000e+00 +2.4085461221e+03 2.4085461221e+03 0.0000000000e+00 0.0000e+00 -1.0000e+00
       -2 -1    0    0    0  501 -0.0000000000e+00 -0.0000000000e+00 -6.1688651391e+03 6.1688651391e+03 0.0000000000e+00 0.0000e+00 1.0000e+00
      -13  1    1    2    0    0 -2.7569062894e+03 -1.3019358918e+03 -4.5042467698e+03 5.4390999548e+03 0.0000000000e+00 0.0000e+00 1.0000e+00
       13  1    1    2    0    0 +2.7569062894e+03 +1.3019358918e+03 +7.4392775284e+02 3.1383113064e+03 0.0000000000e+00 0.0000e+00 -1.0000e+00
<mgrwt>
<rscale>  0 0.77092143E+04</rscale>
<asrwt>0</asrwt>
<pdfrwt beam="1">  1        2 0.37054556E+00 0.77092143E+04</pdfrwt>
<pdfrwt beam="2">  1       -2 0.94905617E+00 0.77092143E+04</pdfrwt>
<totfact> 0.89039522E-06</totfact>
</mgrwt>
<rwgt>
<wgt id='morphing_basis_vector_1'> +3.2979531e-07 </wgt>
<wgt id='morphing_basis_vector_2'> +2.2621062e-07 </wgt>
<wgt id='morphing_basis_vector_3'> +3.6498343e-07 </wgt>
<wgt id='morphing_basis_vector_4'> +2.6230919e-07 </wgt>
<wgt id='morphing_basis_vector_5'> +4.2075669e-07 </wgt>
</rwgt>
</event>
<event>
 4      1 +6.9060000e-13 6.75618300e+03 7.81860800e-03 7.18401100e-02
        2 -1    0    0  501    0 +0.0000000000e+00 +0.0000000000e+00 +5.3514401874e+03 5.3514401874e+03 0.0000000000e+00 0.0000e+00 -1.0000e+00
       -2 -1    0    0    0  501 -0.0000000000e+00 -0.0000000000e+00 -2.1324171814e+03 2.1324171814e+03 0.0000000000e+00 0.0000e+00 1.0000e+00
      -13  1    1    2    0    0 -1.6316957042e+03 +2.8576224062e+02 -1.6516236967e+03 2.3392203327e+03 0.0000000000e+00 0.0000e+00 1.0000e+00
       13  1    1    2    0    0 +1.6316957042e+03 -2.8576224062e+02 +4.8706467028e+03 5.1446370361e+03 0.0000000000e+00 0.0000e+00 -1.0000e+00
<mgrwt>
<rscale>  0 0.67561832E+04</rscale>
<asrwt>0</asrwt>
<pdfrwt beam="1">  1        2 0.82329849E+00 0.67561832E+04</pdfrwt>
<pdfrwt beam="2">  1       -2 0.32806418E+00 0.67561832E+04</pdfrwt>
<totfact> 0.99740405E-05</totfact>
</mgrwt>
<rwgt>
<wgt id='morphing_basis_vector_1'> +1.9428289e-07 </wgt>
<wgt id='morphing_basis_vector_2'> +1.3224887e-07 </wgt>
<wgt id='morphing_basis_vector_3'> +2.1461937e-07 </wgt>
<wgt id='morphing_basis_vector_4'> +1.5551049e-07 </wgt>
<wgt id='morphing_basis_vector_5'> +2.4807324e-07 </wgt>
</rwgt>
</event>
<event>
 4      1 +6.9060000e-13 7.87165000e+03 7.81860800e-03 7.08640100e-02
        2 -1    0    0  501    0 +0.0000000000e+00 +0.0000000000e+00 +4.2286231538e+03 4.2286231538e+03 0.0000000000e+00 0.0000e+00 -1.0000e+00
       -2 -1    0    0    0  501 -0.0000000000e+00 -0.0000000000e+00 -3.6633011761e+03 3.6633011761e+03 0.0000000000e+00 0.0000e+00 1.0000e+00
      -13  1    1    2    0    0 +1.0730653664e+03 -3.2856484772e+03 -1.6046765071e+03 3.8107665750e+03 0.0000000000e+00 0.0000e+00 1.0000e+00
       13  1    1    2    0    0 -1.0730653664e+03 +3.2856484772e+03 +2.1699984848e+03 4.0811577549e+03 0.0000000000e+00 0.0000e+00 -1.0000e+00
<mgrwt>
<rscale>  0 0.78716504E+04</rscale>
<asrwt>0</asrwt>
<pdfrwt beam="1">  1        2 0.65055741E+00 0.78716504E+04</pdfrwt>
<pdfrwt beam="2">  1       -2 0.56358479E+00 0.78716504E+04</pdfrwt>
<totfact> 0.51438511E-05</totfact>
</mgrwt>
<rwgt>
<wgt id='morphing_basis_vector_1'> +3.5939541e-07 </wgt>
<wgt id='morphing_basis_vector_2'> +2.4867507e-07 </wgt>
<wgt id='morphing_basis_vector_3'> +3.9829518e-07 </wgt>
<wgt id='morphing_basis_vector_4'> +2.8310734e-07 </wgt>
<wgt id='morphing_basis_vector_5'> +4.5723221e-07 </wgt>
</rwgt>
</event>
<event>
 4      1 +6.9060000e-13 7.25087900e+03 7.81860800e-03 7.13854700e-02
        2 -1    0    0  501    0 +0.0000000000e+00 +0.0000000000e+00 +3.6696044762e+03 3.6696044762e+03 0.0000000000e+00 0.0000e+00 1.0000e+00
       -2 -1    0    0    0  501 -0.0000000000e+00 -0.0000000000e+00 -3.5818063931e+03 3.5818063931e+03 0.0000000000e+00 0.0000e+00 -1.0000e+00
      -13  1    1    2    0    0 +1.3157353790e+03 +2.6831135832e+03 +2.0967440115e+03 3.6505607155e+03 0.0000000000e+00 0.0000e+00 1.0000e+00
       13  1    1    2    0    0 -1.3157353790e+03 -2.6831135832e+03 -2.0089459283e+03 3.6008501538e+03 0.0000000000e+00 0.0000e+00 -1.0000e+00
<mgrwt>
<rscale>  0 0.72508793E+04</rscale>
<asrwt>0</asrwt>
<pdfrwt beam="1">  1        2 0.56455454E+00 0.72508793E+04</pdfrwt>
<pdfrwt beam="2">  1       -2 0.55104714E+00 0.72508793E+04</pdfrwt>
<totfact> 0.19539615E-04</totfact>
</mgrwt>
<rwgt>
<wgt id='morphing_basis_vector_1'> +3.1392429e-07 </wgt>
<wgt id='morphing_basis_vector_2'> +3.4060914e-07 </wgt>
<wgt id='morphing_basis_vector_3'> +3.7705212e-07 </wgt>
<wgt id='morphing_basis_vector_4'> +8.5623278e-08 </wgt>
<wgt id='morphing_basis_vector_5'> +3.1907421e-07 </wgt>
</rwgt>
</event>
<event>
 4      1 +6.9060000e-13 7.95783800e+03 7.81860800e-03 7.07954400e-02
        2 -1    0    0  501    0 +0.0000000000e+00 +0.0000000000e+00 +3.9133990050e+03 3.9133990050e+03 0.0000000000e+00 0.0000e+00 -1.0000e+00
       -2 -1    0    0    0  501 -0.0000000000e+00 -0.0000000000e+00 -4.0455356346e+03 4.0455356346e+03 0.0000000000e+00 0.0000e+00 1.0000e+00
      -13  1    1    2    0    0 +2.2630512596e+02 +3.9372743063e+03 -5.9382671264e+02 3.9882293236e+03 0.0000000000e+00 0.0000e+00 1.0000e+00
       13  1    1    2    0    0 -2.2630512596e+02 -3.9372743063e+03 +4.6169008308e+02 3.9707053160e+03 0.0000000000e+00 0.0000e+00 -1.0000e+00
<mgrwt>
<rscale>  0 0.79578377E+04</rscale>
<asrwt>0</asrwt>
<pdfrwt beam="1">  1        2 0.60206138E+00 0.79578377E+04</pdfrwt>
<pdfrwt beam="2">  1       -2 0.62239010E+00 0.79578377E+04</pdfrwt>
<totfact> 0.28027974E-05</totfact>
</mgrwt>
<rwgt>
<wgt id='morphing_basis_vector_1'> +3.8191207e-07 </wgt>
<wgt id='morphing_basis_vector_2'> +2.7891964e-07 </wgt>
<wgt id='morphing_basis_vector_3'> +4.2676568e-07 </wgt>
<wgt id='morphing_basis_vector_4'> +2.8168830e-07 </wgt>
<wgt id='morphing_basis_vector_5'> +4.7643009e-07 </wgt>
</rwgt>
</event>
<event>
 4      1 +6.9060000e-13 6.85845300e+03 7.81860800e-03 7.17429700e-02
        2 -1    0    0  501    0 +0.0000000000e+00 +0.0000000000e+00 +4.4929937438e+03 4.4929937438e+03 0.0000000000e+00 0.0000e+00 1.0000e+00
       -2 -1    0    0    0  501 -0.0000000000e+00 -0.0000000000e+00 -2.6173182699e+03 2.6173182699e+03 0.0000000000e+00 0.0000e+00 -1.0000e+00
      -13  1    1    2    0    0 -1.2877832029e+03 +2.5893131975e+03 -9.7284650834e+02 3.0511241766e+03 0.0000000000e+00 0.0000e+00 -1.0000e+00
       13  1    1    2    0    0 +1.2877832029e+03 -2.5893131975e+03 +2.8485219822e+03 4.0591878370e+03 0.0000000000e+00 0.0000e+00 1.0000e+00
<mgrwt>
<rscale>  0 0.68584531E+04</rscale>
<asrwt>0</asrwt>
<pdfrwt beam="1">  1        2 0.69122980E+00 0.68584531E+04</pdfrwt>
<pdfrwt beam="2">  1       -2 0.40266435E+00 0.68584531E+04</pdfrwt>
<totfact> 0.42827978E-04</totfact>
</mgrwt>
<rwgt>
<wgt id='morphing_basis_vector_1'> +2.0701039e-07 </wgt>
<wgt id='morphing_basis_vector_2'> +1.4253549e-07 </wgt>
<wgt id='morphing_basis_vector_3'> +2.2908391e-07 </wgt>
<wgt id='morphing_basis_vector_4'> +1.6362396e-07 </wgt>
<wgt id='morphing_basis_vector_5'> +2.6333600e-07 </wgt>
</rwgt>
</event>
<event>
 4      1 +6.9060000e-13 6.68833000e+03 7.81860800e-03 7.19055300e-02
        2 -1    0    0  501    0 +0.0000000000e+00 +0.0000000000e+00 +2.0969029747e+03 2.0969029747e+03 0.0000000000e+00 0.0000e+00 -1.0000e+00
       -2 -1    0    0    0  501 -0.0000000000e+00 -0.0000000000e+00 -5.3333133126e+03 5.3333133126e+03 0.0000000000e+00 0.0000e+00 1.0000e+00
      -13  1    1    2    0    0 +2.4568342434e+03 -2.2446455730e+03 -1.9849312572e+03 3.8748445574e+03 0.0000000000e+00 0.0000e+00 1.0000e+00
       13  1    1    2    0    0 -2.4568342434e+03 +2.2446455730e+03 -1.2514790807e+03 3.5553717299e+03 0.0000000000e+00 0.0000e+00 -1.0000e+00
<mgrwt>
<rscale>  0 0.66883303E+04</rscale>
<asrwt>0</asrwt>
<pdfrwt beam="1">  1        2 0.32260046E+00 0.66883303E+04</pdfrwt>
<pdfrwt beam="2">  1       -2 0.82050973E+00 0.66883303E+04</pdfrwt>
<totfact> 0.39935179E-04</totfact>
</mgrwt>
<rwgt>
<wgt id='morphing_basis_vector_1'> +1.9135146e-07 </wgt>
<wgt id='morphing_basis_vector_2'> +1.4093729e-07 </wgt>
<wgt id='morphing_basis_vector_3'> +2.1389306e-07 </wgt>
<wgt id='morphing_basis_vector_4'> +1.3918297e-07 </wgt>
<wgt id='morphing_basis_vector_5'> +2.3738369e-07 </wgt>
</rwgt>
</event>
<event>
 4      1 +6.9060000e-13 6.78473400e+03 7.81860800e-03 7.18128200e-02
        2 -1    0    0  501    0 +0.0000000000e+00 +0.0000000000e+00 +4.1890084377e+03 4.1890084377e+03 0.0000000000e+00 0.0000e+00 1.0000e+00
       -2 -1    0    0    0  501 -0.0000000000e+00 -0.0000000000e+00 -2.7472261576e+03 2.7472261576e+03 0.0000000000e+00 0.0000e+00 -1.0000e+00
      -13  1    1    2    0    0 +8.5605658738e+02 +1.4236421805e+03 -2.3029525014e+03 2.8395739403e+03 0.0000000000e+00 0.0000e+00 -1.0000e+00
       13  1    1    2    0    0 -8.5605658738e+02 -1.4236421805e+03 +3.7447347815e+03 4.0966606550e+03 0.0000000000e+00 0.0000e+00 1.0000e+00
<mgrwt>
<rscale>  0 0.67847339E+04</rscale>
<asrwt>0</asrwt>
<pdfrwt beam="1">  1        2 0.64446284E+00 0.67847339E+04</pdfrwt>
<pdfrwt beam="2">  1       -2 0.42265018E+00 0.67847339E+04</pdfrwt>
<totfact> 0.62719104E-04</totfact>
</mgrwt>
<rwgt>
<wgt id='morphing_basis_vector_1'> +1.9758159e-07 </wgt>
<wgt id='morphing_basis_vector_2'> +1.3449623e-07 </wgt>
<wgt id='morphing_basis_vector_3'> +2.1826941e-07 </wgt>
<wgt id='morphing_basis_vector_4'> +1.5816089e-07 </wgt>
<wgt id='morphing_basis_vector_5'> +2.5230057e-07 </wgt>
</rwgt>
</event>
<event>
 4      1 +6.9060000e-13 6.80395100e+03 7.81860800e-03 7.17945200e-02
        2 -1    0    0  501    0 +0.0000000000e+00 +0.0000000000e+00 +4.2539795353e+03 4.2539795353e+03 0.0000000000e+00 0.0000e+00 -1.0000e+00
       -2 -1    0    0    0  501 -0.0000000000e+00 -0.0000000000e+00 -2.7206139105e+03 2.7206139105e+03 0.0000000000e+00 0.0000e+00 1.0000e+00
      -13  1    1    2    0    0 +4.5782179989e+02 -1.2825162087e+03 -2.4290337470e+03 2.7847178619e+03 0.0000000000e+00 0.0000e+00 1.0000e+00
       13  1    1    2    0    0 -4.5782179989e+02 +1.2825162087e+03 +3.9623993719e+03 4.1898755839e+03 0.0000000000e+00 0.0000e+00 -1.0000e+00
<mgrwt>
<rscale>  0 0.68039506E+04</rscale>
<asrwt>0</asrwt>
<pdfrwt beam="1">  1        2 0.65445839E+00 0.68039506E+04</pdfrwt>
<pdfrwt beam="2">  1       -2 0.41855599E+00 0.68039506E+04</pdfrwt>
<totfact> 0.58060186E-04</totfact>
</mgrwt>
<rwgt>
<wgt id='morphing_basis_vector_1'> +1.9980287e-07 </wgt>
<wgt id='morphing_basis_vector_2'> +1.3595882e-07 </wgt>
<wgt id='morphing_basis_vector_3'> +2.2071533e-07 </wgt>
<wgt id='morphing_basis_vector_4'> +1.6001205e-07 </wgt>
<wgt id='morphing_basis_vector_5'> +2.5518019e-07 </wgt>
</rwgt>
</event>
<event>
 4      1 +6.9060000e-13 6.86445400e+03 7.81860800e-03 7.17373200e-02
        2 -1    0    0  501    0 +0.0000000000e+00 +0.0000000000e+00 +2.1932388125e+03 2.1932388125e+03 0.0000000000e+00 0.0000e+00 1.0000e+00
       -2 -1    0    0    0  501 -0.0000000000e+00 -0.0000000000e+00 -5.3711350377e+03 5.3711350377e+03 0.0000000000e+00 0.0000e+00 -1.0000e+00
      -13  1    1    2    0    0 -2.3758858695e+03 -3.1554567545e+01 -4.3182486158e+03 4.9288031472e+03 0.0000000000e+00 0.0000e+00 -1.0000e+00
       13  1    1    2    0    0 +2.3758858695e+03 +3.1554567545e+01 +1.1403523906e+03 2.6355707030e+03 0.0000000000e+00 0.0000e+00 1.0000e+00
<mgrwt>
<rscale>  0 0.68644539E+04</rscale>
<asrwt>0</asrwt>
<pdfrwt beam="1">  1        2 0.33742136E+00 0.68644539E+04</pdfrwt>
<pdfrwt beam="2">  1       -2 0.82632845E+00 0.68644539E+04</pdfrwt>
<totfact> 0.32849927E-04</totfact>
</mgrwt>
<rwgt>
<wgt id='morphing_basis_vector_1'> +2.0719673e-07 </wgt>
<wgt id='morphing_basis_vector_2'> +1.4145641e-07 </wgt>
<wgt id='morphing_basis_vector_3'> +2.2900554e-07 </wgt>
<wgt id='morphing_basis_vector_4'> +1.6535127e-07 </wgt>
<wgt id='morphing_basis_vector_5'> +2.6435755e-07 </wgt>
</rwgt>
</event>
<event>
 4      1 +6.9060000e-13 7.00587600e+03 7.81860800e-03 7.16059000e-02
        2 -1    0    0  501    0 +0.0000000000e+00 +0.0000000000e+00 +3.3489603077e+03 3.3489603077e+03 0.0000000000e+00 0.0000e+00 1.0000e+00
       -2 -1    0    0    0  501 -0.0000000000e+00 -0.0000000000e+00 -3.6639954495e+03 3.6639954495e+03 0.0000000000e+00 0.0000e+00 -1.0000e+00
      -13  1    1    2    0    0 +3.4967317854e+03 -1.7382528548e+02 -2.7264213315e+02 3.5116494901e+03 0.0000000000e+00 0.0000e+00 -1.0000e+00
       13  1    1    2    0    0 -3.4967317854e+03 +1.7382528548e+02 -4.2393008688e+01 3.5013062671e+03 0.0000000000e+00 0.0000e+00 1.0000e+00
<mgrwt>
<rscale>  0 0.70058762E+04</rscale>
<asrwt>0</asrwt>
<pdfrwt beam="1">  1        2 0.51522467E+00 0.70058762E+04</pdfrwt>
<pdfrwt beam="2">  1       -2 0.56369160E+00 0.70058762E+04</pdfrwt>
<totfact> 0.27786478E-04</totfact>
</mgrwt>
<rwgt>
<wgt id='morphing_basis_vector_1'> +2.3187706e-07 </wgt>
<wgt id='morphing_basis_vector_2'> +1.7430962e-07 </wgt>
<wgt id='morphing_basis_vector_3'> +2.6010625e-07 </wgt>
<wgt id='morphing_basis_vector_4'> +1.6419952e-07 </wgt>
<wgt id='morphing_basis_vector_5'> +2.8558039e-07 </wgt>
</rwgt>
</event>
<event>
 4      1 +6.9060000e-13 6.79337300e+03 7.81860800e-03 7.18045900e-02
        2 -1    0    0  501    0 +0.0000000000e+00 +0.0000000000e+00 +4.0554210497e+03 4.0554210497e+03 0.0000000000e+00 0.0000e+00 1.0000e+00
       -2 -1    0    0    0  501 -0.0000000000e+00 -0.0000000000e+00 -2.8449525892e+03 2.8449525892e+03 0.0000000000e+00 0.0000e+00 -1.0000e+00
      -13  1    1    2    0    0 +2.9135909526e+02 +8.1095226351e+02 -2.7320821121e+03 2.8647524087e+03 0.0000000000e+00 0.0000e+00 -1.0000e+00
       13  1    1    2    0    0 -2.9135909526e+02 -8.1095226351e+02 +3.9425505726e+03 4.0356212302e+03 0.0000000000e+00 0.0000e+00 1.0000e+00
<mgrwt>
<rscale>  0 0.67933734E+04</rscale>
<asrwt>0</asrwt>
<pdfrwt beam="1">  1        2 0.62391093E+00 0.67933734E+04</pdfrwt>
<pdfrwt beam="2">  1       -2 0.43768501E+00 0.67933734E+04</pdfrwt>
<totfact> 0.65311941E-04</totfact>
</mgrwt>
<rwgt>
<wgt id='morphing_basis_vector_1'> +1.9855234e-07 </wgt>
<wgt id='morphing_basis_vector_2'> +1.3507720e-07 </wgt>
<wgt id='morphing_basis_vector_3'> +2.1932460e-07 </wgt>
<wgt id='morphing_basis_vector_4'> +1.5904602e-07 </wgt>
<wgt id='morphing_basis_vector_5'> +2.5359680e-07 </wgt>
</rwgt>
</event>
<event>
 4      1 +6.9060000e-13 6.80744100e+03 7.81860800e-03 7.17912100e-02
        2 -1    0    0  501    0 +0.0000000000e+00 +0.0000000000e+00 +4.3881945198e+03 4.3881945198e+03 0.0000000000e+00 0.0000e+00 -1.0000e+00
       -2 -1    0    0    0  501 -0.0000000000e+00 -0.0000000000e+00 -2.6401093334e+03 2.6401093334e+03 0.0000000000e+00 0.0000e+00 1.0000e+00
      -13  1    1    2    0    0 -2.4196173592e+03 +1.6549260957e+03 -9.1181296732e+02 3.0699725462e+03 0.0000000000e+00 0.0000e+00 1.0000e+00
       13  1    1    2    0    0 +2.4196173592e+03 -1.6549260957e+03 +2.6598981538e+03 3.9583313070e+03 0.0000000000e+00 0.0000e+00 -1.0000e+00
<mgrwt>
<rscale>  0 0.68074410E+04</rscale>
<asrwt>0</asrwt>
<pdfrwt beam="1">  1        2 0.67510685E+00 0.68074410E+04</pdfrwt>
<pdfrwt beam="2">  1       -2 0.40617067E+00 0.68074410E+04</pdfrwt>
<totfact> 0.52036089E-04</totfact>
</mgrwt>
<rwgt>
<wgt id='morphing_basis_vector_1'> +2.0105721e-07 </wgt>
<wgt id='morphing_basis_vector_2'> +1.3871669e-07 </wgt>
<wgt id='morphing_basis_vector_3'> +2.2255218e-07 </wgt>
<wgt id='morphing_basis_vector_4'> +1.5853053e-07 </wgt>
<wgt id='morphing_basis_vector_5'> +2.5555257e-07 </wgt>
</rwgt>
</event>
<event>
 4      1 +6.9060000e-13 7.06833300e+03 7.81860800e-03 7.15488500e-02
        2 -1    0    0  501    0 +0.0000000000e+00 +0.0000000000e+00 +3.5150735001e+03 3.5150735001e+03 0.0000000000e+00 0.0000e+00 -1.0000e+00
       -2 -1    0    0    0  501 -0.0000000000e+00 -0.0000000000e+00 -3.5533634319e+03 3.5533634319e+03 0.0000000000e+00 0.0000e+00 1.0000e+00
      -13  1    1    2    0    0 +2.6340916184e+02 -2.7733337062e+03 -2.1939341955e+03 3.5459993636e+03 0.0000000000e+00 0.0000e+00 1.0000e+00
       13  1    1    2    0    0 -2.6340916184e+02 +2.7733337062e+03 +2.1556442637e+03 3.5224375685e+03 0.0000000000e+00 0.0000e+00 -1.0000e+00
<mgrwt>
<rscale>  0 0.70683332E+04</rscale>
<asrwt>0</asrwt>
<pdfrwt beam="1">  1        2 0.54078054E+00 0.70683332E+04</pdfrwt>
<pdfrwt beam="2">  1       -2 0.54667130E+00 0.70683332E+04</pdfrwt>
<totfact> 0.27856171E-04</totfact>
</mgrwt>
<rwgt>
<wgt id='morphing_basis_vector_1'> +2.3317261e-07 </wgt>
<wgt id='morphing_basis_vector_2'> +1.5985817e-07 </wgt>
<wgt id='morphing_basis_vector_3'> +2.5791729e-07 </wgt>
<wgt id='morphing_basis_vector_4'> +1.8530518e-07 </wgt>
<wgt id='morphing_basis_vector_5'> +2.9719580e-07 </wgt>
</rwgt>
</event>
<event>
 4      1 +6.9060000e-13 6.90507900e+03 7.81860800e-03 7.16992400e-02
        2 -1    0    0  501    0 +0.0000000000e+00 +0.0000000000e+00 +3.8911723298e+03 3.8911723298e+03 0.0000000000e+00 0.0000e+00 1.0000e+00
       -2 -1    0    0    0  501 -0.0000000000e+00 -0.0000000000e+00 -3.0633514605e+03 3.0633514605e+03 0.0000000000e+00 0.0000e+00 -1.0000e+00
      -13  1    1    2    0    0 -1.7745405697e+03 -2.4714344881e+03 -1.2296590587e+03 3.2816221695e+03 0.0000000000e+00 0.0000e+00 -1.0000e+00
       13  1    1    2    0    0 +1.7745405697e+03 +2.4714344881e+03 +2.0574799281e+03 3.6729016209e+03 0.0000000000e+00 0.0000e+00 1.0000e+00
<mgrwt>
<rscale>  0 0.69050788E+04</rscale>
<asrwt>0</asrwt>
<pdfrwt beam="1">  1        2 0.59864189E+00 0.69050788E+04</pdfrwt>
<pdfrwt beam="2">  1       -2 0.47128484E+00 0.69050788E+04</pdfrwt>
<totfact> 0.51712774E-04</totfact>
</mgrwt>
<rwgt>
<wgt id='morphing_basis_vector_1'> +2.1300629e-07 </wgt>
<wgt id='morphing_basis_vector_2'> +1.4738440e-07 </wgt>
<wgt id='morphing_basis_vector_3'> +2.3589927e-07 </wgt>
<wgt id='morphing_basis_vector_4'> +1.6744260e-07 </wgt>
<wgt id='morphing_basis_vector_5'> +2.7052492e-07 </wgt>
</rwgt>
</event>
<event>
 4      1 +6.9060000e-13 6.89307500e+03 7.81860800e-03 7.17104700e-02
        2 -1    0    0  501    0 +0.0000000000e+00 +0.0000000000e+00 +4.1838882106e+03 4.1838882106e+03 0.0000000000e+00 0.0000e+00 -1.0000e+00
       -2 -1    0    0    0  501 -0.0000000000e+00 -0.0000000000e+00 -2.8391347250e+03 2.8391347250e+03 0.0000000000e+00 0.0000e+00 1.0000e+00
      -13  1    1    2    0    0 -1.5601249833e+03 -2.4726928311e+03 -1.1869714264e+03 3.1554874374e+03 0.0000000000e+00 0.0000e+00 1.0000e+00
       13  1    1    2    0    0 +1.5601249833e+03 +2.4726928311e+03 +2.5317249119e+03 3.8675354982e+03 0.0000000000e+00 0.0000e+00 -1.0000e+00
<mgrwt>
<rscale>  0 0.68930755E+04</rscale>
<asrwt>0</asrwt>
<pdfrwt beam="1">  1        2 0.64367511E+00 0.68930755E+04</pdfrwt>
<pdfrwt beam="2">  1       -2 0.43678996E+00 0.68930755E+04</pdfrwt>
<totfact> 0.50529227E-04</totfact>
</mgrwt>
<rwgt>
<wgt id='morphing_basis_vector_1'> +2.1124946e-07 </wgt>
<wgt id='morphing_basis_vector_2'> +1.4553513e-07 </wgt>
<wgt id='morphing_basis_vector_3'> +2.3380117e-07 </wgt>
<wgt id='morphing_basis_vector_4'> +1.6688427e-07 </wgt>
<wgt id='morphing_basis_vector_5'> +2.6869662e-07 </wgt>
</rwgt>
</event>
<event>
 4      1 +6.9060000e-13 6.69157500e+03 7.81860800e-03 7.19023800e-02
        2 -1    0    0  501    0 +0.0000000000e+00 +0.0000000000e+00 +3.3237529277e+03 3.3237529277e+03 0.0000000000e+00 0.0000e+00 -1.0000e+00
       -2 -1    0    0    0  501 -0.0000000000e+00 -0.0000000000e+00 -3.3679680154e+03 3.3679680154e+03 0.0000000000e+00 0.0000e+00 1.0000e+00
      -13  1    1    2    0    0 +1.4236814760e+03 +7.6586533253e+02 -2.9514845323e+03 3.3652161293e+03 0.0000000000e+00 0.0000e+00 1.0000e+00
       13  1    1    2    0    0 -1.4236814760e+03 -7.6586533253e+02 +2.9072694445e+03 3.3265048137e+03 0.0000000000e+00 0.0000e+00 -1.0000e+00
<mgrwt>
<rscale>  0 0.66915749E+04</rscale>
<asrwt>0</asrwt>
<pdfrwt beam="1">  1        2 0.51134660E+00 0.66915749E+04</pdfrwt>
<pdfrwt beam="2">  1       -2 0.51814893E+00 0.66915749E+04</pdfrwt>
<totfact> 0.63304105E-04</totfact>
</mgrwt>
<rwgt>
<wgt id='morphing_basis_vector_1'> +1.8696795e-07 </wgt>
<wgt id='morphing_basis_vector_2'> +1.2725883e-07 </wgt>
<wgt id='morphing_basis_vector_3'> +2.0652397e-07 </wgt>
<wgt id='morphing_basis_vector_4'> +1.4964198e-07 </wgt>
<wgt id='morphing_basis_vector_5'> +2.3870369e-07 </wgt>
</rwgt>
</event>
<event>
 4      1 +6.9060000e-13 7.05929100e+03 7.81860800e-03 7.15570800e-02
        2 -1    0    0  501    0 +0.0000000000e+00 +0.0000000000e+00 +4.0785029479e+03 4.0785029479e+03 0.0000000000e+00 0.0000e+00 -1.0000e+00
       -2 -1    0    0    0  501 -0.0000000000e+00 -0.0000000000e+00 -3.0546496032e+03 3.0546496032e+03 0.0000000000e+00 0.0000e+00 1.0000e+00
      -13  1    1    2    0    0 +1.6081906018e+03 -3.1262084202e+03 +1.9408615335e+02 3.5209552018e+03 0.0000000000e+00 0.0000e+00 1.0000e+00
       13  1    1    2    0    0 -1.6081906018e+03 +3.1262084202e+03 +8.2976719140e+02 3.6121973493e+03 0.0000000000e+00 0.0000e+00 -1.0000e+00
<mgrwt>
<rscale>  0 0.70592910E+04</rscale>
<asrwt>0</asrwt>
<pdfrwt beam="1">  1        2 0.62746199E+00 0.70592910E+04</pdfrwt>
<pdfrwt beam="2">  1       -2 0.46994609E+00 0.70592910E+04</pdfrwt>
<totfact> 0.36260184E-04</totfact>
</mgrwt>
<rwgt>
<wgt id='morphing_basis_vector_1'> +2.3759647e-07 </wgt>
<wgt id='morphing_basis_vector_2'> +1.7551151e-07 </wgt>
<wgt id='morphing_basis_vector_3'> +2.6580050e-07 </wgt>
<wgt id='morphing_basis_vector_4'> +1.7232084e-07 </wgt>
<wgt id='morphing_basis_vector_5'> +2.9466101e-07 </wgt>
</rwgt>
</event>
<event>
 4      1 +6.9060000e-13 6.96954100e+03 7.81860800e-03 7.16393700e-02
        2 -1    0    0  501    0 +0.0000000000e+00 +0.0000000000e+00 +4.1051244431e+03 4.1051244431e+03 0.0000000000e+00 0.0000e+00 -1.0000e+00
       -2 -1    0    0    0  501 -0.0000000000e+00 -0.0000000000e+00 -2.9581629597e+03 2.9581629597e+03 0.0000000000e+00 0.0000e+00 1.0000e+00
      -13  1    1    2    0    0 -8.4303947684e+02 -1.5447017170e+03 -2.4747677033e+03 3.0366583838e+03 0.0000000000e+00 0.0000e+00 1.0000e+00
       13  1    1    2    0    0 +8.4303947684e+02 +1.5447017170e+03 +3.6217291867e+03 4.0266290190e+03 0.0000000000e+00 0.0000e+00 -1.0000e+00
<mgrwt>
<rscale>  0 0.69695415E+04</rscale>
<asrwt>0</asrwt>
<pdfrwt beam="1">  1        2 0.63155761E+00 0.69695415E+04</pdfrwt>
<pdfrwt beam="2">  1       -2 0.45510199E+00 0.69695415E+04</pdfrwt>
<totfact> 0.44182033E-04</totfact>
</mgrwt>
<rwgt>
<wgt id='morphing_basis_vector_1'> +2.1996999e-07 </wgt>
<wgt id='morphing_basis_vector_2'> +1.4976781e-07 </wgt>
<wgt id='morphing_basis_vector_3'> +2.4304793e-07 </wgt>
<wgt id='morphing_basis_vector_4'> +1.7612751e-07 </wgt>
<wgt id='morphing_basis_vector_5'> +2.8098308e-07 </wgt>
</rwgt>
</event>
<event>
 4      1 +6.9060000e-13 6.76404200e+03 7.81860800e-03 7.18325900e-02
        2 -1    0    0  501    0 +0.0000000000e+00 +0.0000000000e+00 +2.2631983374e+03 2.2631983374e+03 0.0000000000e+00 0.0000e+00 1.0000e+00
       -2 -1    0    0    0  501 -0.0000000000e+00 -0.0000000000e+00 -5.0539393888e+03 5.0539393888e+03 0.0000000000e+00 0.0000e+00 -1.0000e+00
      -13  1    1    2    0    0 +1.1061241242e+03 -1.1101351563e+02 -4.8506447700e+03 4.9764032457e+03 0.0000000000e+00 0.0000e+00 -1.0000e+00
       13  1    1    2    0    0 -1.1061241242e+03 +1.1101351563e+02 +2.0599037185e+03 2.3407344806e+03 0.0000000000e+00 0.0000e+00 1.0000e+00
<mgrwt>
<rscale>  0 0.67640423E+04</rscale>
<asrwt>0</asrwt>
<pdfrwt beam="1">  1        2 0.34818436E+00 0.67640423E+04</pdfrwt>
<pdfrwt beam="2">  1       -2 0.77752912E+00 0.67640423E+04</pdfrwt>
<totfact> 0.38231199E-04</totfact>
</mgrwt>
<rwgt>
<wgt id='morphing_basis_vector_1'> +1.9515576e-07 </wgt>
<wgt id='morphing_basis_vector_2'> +1.3277368e-07 </wgt>
<wgt id='morphing_basis_vector_3'> +2.1556873e-07 </wgt>
<wgt id='morphing_basis_vector_4'> +1.5630317e-07 </wgt>
<wgt id='morphing_basis_vector_5'> +2.4923715e-07 </wgt>
</rwgt>
</event>
<event>
 4      1 +6.9060000e-13 6.80227800e+03 7.81860800e-03 7.17961100e-02
        2 -1    0    0  501    0 +0.0000000000e+00 +0.0000000000e+00 +3.5253012814e+03 3.5253012814e+03 0.0000000000e+00 0.0000e+00 -1.0000e+00
       -2 -1    0    0    0  501 -0.0000000000e+00 -0.0000000000e+00 -3.2813496040e+03 3.2813496040e+03 0.0000000000e+00 0.0000e+00 1.0000e+00
      -13  1    1    2    0    0 -6.7095910102e+02 -2.6139447079e+03 -1.9493435399e+03 3.3290889576e+03 0.0000000000e+00 0.0000e+00 1.0000e+00
       13  1    1    2    0    0 +6.7095910102e+02 +2.6139447079e+03 +2.1932952174e+03 3.4775619278e+03 0.0000000000e+00 0.0000e+00 -1.0000e+00
<mgrwt>
<rscale>  0 0.68022778E+04</rscale>
<asrwt>0</asrwt>
<pdfrwt beam="1">  1        2 0.54235405E+00 0.68022778E+04</pdfrwt>
<pdfrwt beam="2">  1       -2 0.50482301E+00 0.68022778E+04</pdfrwt>
<totfact> 0.56582466E-04</totfact>
</mgrwt>
<rwgt>
<wgt id='morphing_basis_vector_1'> +2.0007123e-07 </wgt>
<wgt id='morphing_basis_vector_2'> +1.3718808e-07 </wgt>
<wgt id='morphing_basis_vector_3'> +2.2125907e-07 </wgt>
<wgt id='morphing_basis_vector_4'> +1.5885903e-07 </wgt>
<wgt id='morphing_basis_vector_5'> +2.5484504e-07 </wgt>
</rwgt>
</event>
<event>
 4      1 +6.9060000e-13 6.79519300e+03 7.81860800e-03 7.18028500e-02
        2 -1    0    0  501    0 +0.0000000000e+00 +0.0000000000e+00 +4.6518984184e+03 4.6518984184e+03 0.0000000000e+00 0.0000e+00 -1.0000e+00
       -2 -1    0    0    0  501 -0.0000000000e+00 -0.0000000000e+00 -2.4814945388e+03 2.4814945388e+03 0.0000000000e+00 0.0000e+00 1.0000e+00
      -13  1    1    2    0    0 -2.1715929650e+03 +2.0554389893e+03 -6.0848337317e+02 3.0513763222e+03 0.0000000000e+00 0.0000e+00 1.0000e+00
       13  1    1    2    0    0 +2.1715929650e+03 -2.0554389893e+03 +2.7788872528e+03 4.0820166350e+03 0.0000000000e+00 0.0000e+00 -1.0000e+00
<mgrwt>
<rscale>  0 0.67951926E+04</rscale>
<asrwt>0</asrwt>
<pdfrwt beam="1">  1        2 0.71567668E+00 0.67951926E+04</pdfrwt>
<pdfrwt beam="2">  1       -2 0.38176839E+00 0.67951926E+04</pdfrwt>
<totfact> 0.39763737E-04</totfact>
</mgrwt>
<rwgt>
<wgt id='morphing_basis_vector_1'> +1.9977858e-07 </wgt>
<wgt id='morphing_basis_vector_2'> +1.3819694e-07 </wgt>
<wgt id='morphing_basis_vector_3'> +2.2122015e-07 </wgt>
<wgt id='morphing_basis_vector_4'> +1.5704365e-07 </wgt>
<wgt id='morphing_basis_vector_5'> +2.5368592e-07 </wgt>
</rwgt>
</event>
<event>
 4      1 +6.9060000e-13 7.15183600e+03 7.81860800e-03 7.14735100e-02
        2 -1    0    0  501    0 +0.0000000000e+00 +0.0000000000e+00 +3.6276522658e+03 3.6276522658e+03 0.0000000000e+00 0.0000e+00 -1.0000e+00
       -2 -1    0    0    0  501 -0.0000000000e+00 -0.0000000000e+00 -3.5249213745e+03 3.5249213745e+03 0.0000000000e+00 0.0000e+00 1.0000e+00
      -13  1    1    2    0    0 -3.0695395748e+03 +1.1394755840e+03 -1.3863889257e+03 3.5556366604e+03 0.0000000000e+00 0.0000e+00 1.0000e+00
       13  1    1    2    0    0 +3.0695395748e+03 -1.1394755840e+03 +1.4891198170e+03 3.5969369799e+03 0.0000000000e+00 0.0000e+00 -1.0000e+00
<mgrwt>
<rscale>  0 0.71518359E+04</rscale>
<asrwt>0</asrwt>
<pdfrwt beam="1">  1        2 0.55810035E+00 0.71518359E+04</pdfrwt>
<pdfrwt beam="2">  1       -2 0.54229559E+00 0.71518359E+04</pdfrwt>
<totfact> 0.24517340E-04</totfact>
</mgrwt>
<rwgt>
<wgt id='morphing_basis_vector_1'> +2.4558527e-07 </wgt>
<wgt id='morphing_basis_vector_2'> +1.7111029e-07 </wgt>
<wgt id='morphing_basis_vector_3'> +2.7231546e-07 </wgt>
<wgt id='morphing_basis_vector_4'> +1.9162369e-07 </wgt>
<wgt id='morphing_basis_vector_5'> +3.1129349e-07 </wgt>
</rwgt>
</event>
<event>
 4      1 +6.9060000e-13 7.08084500e+03 7.81860800e-03 7.15375000e-02
        2 -1    0    0  501    0 +0.0000000000e+00 +0.0000000000e+00 +4.9768026141e+03 4.9768026141e+03 0.0000000000e+00 0.0000e+00 -1.0000e+00
       -2 -1    0    0    0  501 -0.0000000000e+00 -0.0000000000e+00 -2.5186031078e+03 2.5186031078e+03 0.0000000000e+00 0.0000e+00 1.0000e+00
      -13  1    1    2    0    0 -7.9351495086e+02 +2.2387666618e+03 -1.5500339279e+03 2.8362558631e+03 0.0000000000e+00 0.0000e+00 1.0000e+00
       13  1    1    2    0    0 +7.9351495086e+02 -2.2387666618e+03 +4.0082334342e+03 4.6591498587e+03 0.0000000000e+00 0.0000e+00 -1.0000e+00
<mgrwt>
<rscale>  0 0.70808447E+04</rscale>
<asrwt>0</asrwt>
<pdfrwt beam="1">  1        2 0.76566194E+00 0.70808447E+04</pdfrwt>
<pdfrwt beam="2">  1       -2 0.38747740E+00 0.70808447E+04</pdfrwt>
<totfact> 0.14467745E-04</totfact>
</mgrwt>
<rwgt>
<wgt id='morphing_basis_vector_1'> +2.3449585e-07 </wgt>
<wgt id='morphing_basis_vector_2'> +1.6002588e-07 </wgt>
<wgt id='morphing_basis_vector_3'> +2.5920820e-07 </wgt>
<wgt id='morphing_basis_vector_4'> +1.8732905e-07 </wgt>
<wgt id='morphing_basis_vector_5'> +2.9936852e-07 </wgt>
</rwgt>
</event>
<event>
 4      1 +6.9060000e-13 6.70911200e+03 7.81860800e-03 7.18854100e-02
        2 -1    0    0  501    0 +0.0000000000e+00 +0.0000000000e+00 +4.1421884783e+03 4.1421884783e+03 0.0000000000e+00 0.0000e+00 1.0000e+00
       -2 -1    0    0    0  501 -0.0000000000e+00 -0.0000000000e+00 -2.7166908614e+03 2.7166908614e+03 0.0000000000e+00 0.0000e+00 -1.0000e+00
      -13  1    1    2    0    0 -4.6351662093e+02 -3.2824190036e+03 +1.8754594345e+02 3.3202854778e+03 0.0000000000e+00 0.0000e+00 -1.0000e+00
       13  1    1    2    0    0 +4.6351662093e+02 +3.2824190036e+03 +1.2379516735e+03 3.5385938618e+03 0.0000000000e+00 0.0000e+00 1.0000e+00
<mgrwt>
<rscale>  0 0.67091119E+04</rscale>
<asrwt>0</asrwt>
<pdfrwt beam="1">  1        2 0.63725977E+00 0.67091119E+04</pdfrwt>
<pdfrwt beam="2">  1       -2 0.41795244E+00 0.67091119E+04</pdfrwt>
<totfact> 0.74715200E-04</totfact>
</mgrwt>
<rwgt>
<wgt id='morphing_basis_vector_1'> +1.9282974e-07 </wgt>
<wgt id='morphing_basis_vector_2'> +1.4003504e-07 </wgt>
<wgt id='morphing_basis_vector_3'> +2.1507938e-07 </wgt>
<wgt id='morphing_basis_vector_4'> +1.4286683e-07 </wgt>
<wgt id='morphing_basis_vector_5'> +2.4051671e-07 </wgt>
</rwgt>
</event>
<event>
 4      1 +6.9060000e-13 6.77699100e+03 7.81860800e-03 7.18202100e-02
        2 -1    0    0  501    0 +0.0000000000e+00 +0.0000000000e+00 +2.7414559842e+03 2.7414559842e+03 0.0000000000e+00 0.0000e+00 1.0000e+00
       -2 -1    0    0    0  501 -0.0000000000e+00 -0.0000000000e+00 -4.1882491146e+03 4.1882491146e+03 0.0000000000e+00 0.0000e+00 -1.0000e+00
      -13  1    1    2    0    0 -1.2640498570e+03 -1.0842623223e+03 +2.2941111662e+03 2.8348532356e+03 0.0000000000e+00 0.0000e+00 1.0000e+00
       13  1    1    2    0    0 +1.2640498570e+03 +1.0842623223e+03 -3.7409042966e+03 4.0948518631e+03 0.0000000000e+00 0.0000e+00 -1.0000e+00
<mgrwt>
<rscale>  0 0.67769907E+04</rscale>
<asrwt>0</asrwt>
<pdfrwt beam="1">  1        2 0.42176246E+00 0.67769907E+04</pdfrwt>
<pdfrwt beam="2">  1       -2 0.64434601E+00 0.67769907E+04</pdfrwt>
<totfact> 0.96088673E-05</totfact>
</mgrwt>
<rwgt>
<wgt id='morphing_basis_vector_1'> +2.6659406e-07 </wgt>
<wgt id='morphing_basis_vector_2'> +3.3903507e-07 </wgt>
<wgt id='morphing_basis_vector_3'> +3.3177364e-07 </wgt>
<wgt id='morphing_basis_vector_4'> +7.5980750e-09 </wgt>
<wgt id='morphing_basis_vector_5'> +2.3852467e-07 </wgt>
</rwgt>
</event>
<event>
 4      1 +6.9060000e-13 7.27245400e+03 7.81860800e-03 7.13664800e-02
        2 -1    0    0  501    0 +0.0000000000e+00 +0.0000000000e+00 +2.7384435059e+03 2.7384435059e+03 0.0000000000e+00 0.0000e+00 1.0000e+00
       -2 -1    0    0    0  501 -0.0000000000e+00 -0.0000000000e+00 -4.8283432906e+03 4.8283432906e+03 0.0000000000e+00 0.0000e+00 -1.0000e+00
      -13  1    1    2    0    0 +9.9051286561e+01 +1.9058519445e+03 -4.2653861725e+03 4.6728580111e+03 0.0000000000e+00 0.0000e+00 -1.0000e+00
       13  1    1    2    0    0 -9.9051286561e+01 -1.9058519445e+03 +2.1754863878e+03 2.8939287854e+03 0.0000000000e+00 0.0000e+00 1.0000e+00
<mgrwt>
<rscale>  0 0.72724536E+04</rscale>
<asrwt>0</asrwt>
<pdfrwt beam="1">  1        2 0.42129900E+00 0.72724536E+04</pdfrwt>
<pdfrwt beam="2">  1       -2 0.74282204E+00 0.72724536E+04</pdfrwt>
<totfact> 0.15382709E-04</totfact>
</mgrwt>
<rwgt>
<wgt id='morphing_basis_vector_1'> +2.6071694e-07 </wgt>
<wgt id='morphing_basis_vector_2'> +1.7756600e-07 </wgt>
<wgt id='morphing_basis_vector_3'> +2.8815037e-07 </wgt>
<wgt id='morphing_basis_vector_4'> +2.0883181e-07 </wgt>
<wgt id='morphing_basis_vector_5'> +3.3319614e-07 </wgt>
</rwgt>
</event>
<event>
 4      1 +6.9060000e-13 6.72613800e+03 7.81860800e-03 7.18689800e-02
        2 -1    0    0  501    0 +0.0000000000e+00 +0.0000000000e+00 +2.0882835298e+03 2.0882835298e+03 0.0000000000e+00 0.0000e+00 1.0000e+00
       -2 -1    0    0    0  501 -0.0000000000e+00 -0.0000000000e+00 -5.4160427146e+03 5.4160427146e+03 0.0000000000e+00 0.0000e+00 -1.0000e+00
      -13  1    1    2    0    0 -6.7899361652e+02 -3.1477894508e+03 -2.7459450016e+03 4.2320000838e+03 0.0000000000e+00 0.0000e+00 -1.0000e+00
       13  1    1    2    0    0 +6.7899361652e+02 +3.1477894508e+03 -5.8181418325e+02 3.2723261606e+03 0.0000000000e+00 0.0000e+00 1.0000e+00
<mgrwt>
<rscale>  0 0.67261379E+04</rscale>
<asrwt>0</asrwt>
<pdfrwt beam="1">  1        2 0.32127440E+00 0.67261379E+04</pdfrwt>
<pdfrwt beam="2">  1       -2 0.83323732E+00 0.67261379E+04</pdfrwt>
<totfact> 0.35217993E-04</totfact>
</mgrwt>
<rwgt>
<wgt id='morphing_basis_vector_1'> +1.9312203e-07 </wgt>
<wgt id='morphing_basis_vector_2'> +1.3656311e-07 </wgt>
<wgt id='morphing_basis_vector_3'> +2.1453799e-07 </wgt>
<wgt id='morphing_basis_vector_4'> +1.4790186e-07 </wgt>
<wgt id='morphing_basis_vector_5'> +2.4327311e-07 </wgt>
</rwgt>
</event>
<event>
 4      1 +6.9060000e-13 6.87215500e+03 7.81860800e-03 7.17300800e-02
        2 -1    0    0  501    0 +0.0000000000e+00 +0.0000000000e+00 +2.4340945155e+03 2.4340945155e+03 0.0000000000e+00 0.0000e+00 1.0000e+00
       -2 -1    0    0    0  501 -0.0000000000e+00 -0.0000000000e+00 -4.8505217445e+03 4.8505217445e+03 0.0000000000e+00 0.0000e+00 -1.0000e+00
      -13  1    1    2    0    0 +2.6704387158e+03 -1.6242156391e+03 -2.7212249720e+03 4.1441989244e+03 0.0000000000e+00 0.0000e+00 -1.0000e+00
       13  1    1    2    0    0 -2.6704387158e+03 +1.6242156391e+03 +3.0479774301e+02 3.1404173355e+03 0.0000000000e+00 0.0000e+00 1.0000e+00
<mgrwt>
<rscale>  0 0.68721549E+04</rscale>
<asrwt>0</asrwt>
<pdfrwt beam="1">  1        2 0.37447608E+00 0.68721549E+04</pdfrwt>
<pdfrwt beam="2">  1       -2 0.74623411E+00 0.68721549E+04</pdfrwt>
<totfact> 0.25101840E-04</totfact>
</mgrwt>
<rwgt>
<wgt id='morphing_basis_vector_1'> +2.0932824e-07 </wgt>
<wgt id='morphing_basis_vector_2'> +1.4561832e-07 </wgt>
<wgt id='morphing_basis_vector_3'> +2.3200365e-07 </wgt>
<wgt id='morphing_basis_vector_4'> +1.6351947e-07 </wgt>
<wgt id='morphing_basis_vector_5'> +2.6533076e-07 </wgt>
</rwgt>
</event>
<event>
 4      1 +6.9060000e-13 6.83703800e+03 7.81860800e-03 7.17631700e-02
        2 -1    0    0  501    0 +0.0000000000e+00 +0.0000000000e+00 +3.0130476505e+03 3.0130476505e+03 0.0000000000e+00 0.0000e+00 -1.0000e+00
       -2 -1    0    0    0  501 -0.0000000000e+00 -0.0000000000e+00 -3.8785551494e+03 3.8785551494e+03 0.0000000000e+00 0.0000e+00 1.0000e+00
      -13  1    1    2    0    0 -8.4435859336e+02 -4.7807519547e+02 -3.7368364059e+03 3.8607568754e+03 0.0000000000e+00 0.0000e+00 1.0000e+00
       13  1    1    2    0    0 +8.4435859336e+02 +4.7807519547e+02 +2.8713289070e+03 3.0308459246e+03 0.0000000000e+00 0.0000e+00 -1.0000e+00
<mgrwt>
<rscale>  0 0.68370378E+04</rscale>
<asrwt>0</asrwt>
<pdfrwt beam="1">  1        2 0.46354580E+00 0.68370378E+04</pdfrwt>
<pdfrwt beam="2">  1       -2 0.59670079E+00 0.68370378E+04</pdfrwt>
<totfact> 0.26188481E-04</totfact>
</mgrwt>
<rwgt>
<wgt id='morphing_basis_vector_1'> +2.0369866e-07 </wgt>
<wgt id='morphing_basis_vector_2'> +1.3858522e-07 </wgt>
<wgt id='morphing_basis_vector_3'> +2.2501960e-07 </wgt>
<wgt id='morphing_basis_vector_4'> +1.6317872e-07 </wgt>
<wgt id='morphing_basis_vector_5'> +2.6019102e-07 </wgt>
</rwgt>
</event>
<event>
 4      1 +6.9060000e-13 7.74832900e+03 7.81860800e-03 7.09636800e-02
        2 -1    0    0  501    0 +0.0000000000e+00 +0.0000000000e+00 +3.0023476698e+03 3.0023476698e+03 0.0000000000e+00 0.0000e+00 1.0000e+00
       -2 -1    0    0    0  501 -0.0000000000e+00 -0.0000000000e+00 -4.9991387085e+03 4.9991387085e+03 0.0000000000e+00 0.0000e+00 -1.0000e+00
      -13  1    1    2    0    0 -2.4019329286e+02 -3.6844614361e+03 -2.2098411520e+03 4.3030624919e+03 0.0000000000e+00 0.0000e+00 -1.0000e+00
       13  1    1    2    0    0 +2.4019329286e+02 +3.6844614361e+03 +2.1305011332e+02 3.6984238863e+03 0.0000000000e+00 0.0000e+00 1.0000e+00
<mgrwt>
<rscale>  0 0.77483295E+04</rscale>
<asrwt>0</asrwt>
<pdfrwt beam="1">  1        2 0.46189964E+00 0.77483295E+04</pdfrwt>
<pdfrwt beam="2">  1       -2 0.76909826E+00 0.77483295E+04</pdfrwt>
<totfact> 0.12538959E-04</totfact>
</mgrwt>
<rwgt>
<wgt id='morphing_basis_vector_1'> +3.3955092e-07 </wgt>
<wgt id='morphing_basis_vector_2'> +2.3969601e-07 </wgt>
<wgt id='morphing_basis_vector_3'> +3.7740660e-07 </wgt>
<wgt id='morphing_basis_vector_4'> +2.6119576e-07 </wgt>
<wgt id='morphing_basis_vector_5'> +4.2882569e-07 </wgt>
</rwgt>
</event>
<event>
 4      1 +6.9060000e-13 7.28552200e+03 7.81860800e-03 7.13550000e-02
        2 -1    0    0  501    0 +0.0000000000e+00 +0.0000000000e+00 +4.1798544432e+03 4.1798544432e+03 0.0000000000e+00 0.0000e+00 1.0000e+00
       -2 -1    0    0    0  501 -0.0000000000e+00 -0.0000000000e+00 -3.1746819130e+03 3.1746819130e+03 0.0000000000e+00 0.0000e+00 -1.0000e+00
      -13  1    1    2    0    0 -1.9976483189e+03 +2.7398709826e+03 -8.4127056318e+02 3.4935981406e+03 0.0000000000e+00 0.0000e+00 -1.0000e+00
       13  1    1    2    0    0 +1.9976483189e+03 -2.7398709826e+03 +1.8464430934e+03 3.8609382156e+03 0.0000000000e+00 0.0000e+00 1.0000e+00
<mgrwt>
<rscale>  0 0.72855222E+04</rscale>
<asrwt>0</asrwt>
<pdfrwt beam="1">  1        2 0.64305453E+00 0.72855222E+04</pdfrwt>
<pdfrwt beam="2">  1       -2 0.48841260E+00 0.72855222E+04</pdfrwt>
<totfact> 0.21164274E-04</totfact>
</mgrwt>
<rwgt>
<wgt id='morphing_basis_vector_1'> +2.6478822e-07 </wgt>
<wgt id='morphing_basis_vector_2'> +1.8528571e-07 </wgt>
<wgt id='morphing_basis_vector_3'> +2.9382738e-07 </wgt>
<wgt id='morphing_basis_vector_4'> +2.0562987e-07 </wgt>
<wgt id='morphing_basis_vector_5'> +3.3520413e-07 </wgt>
</rwgt>
</event>
<event>
 4      1 +6.9060000e-13 7.27798400e+03 7.81860800e-03 7.13616200e-02
        2 -1    0    0  501    0 +0.0000000000e+00 +0.0000000000e+00 +2.9083601381e+03 2.9083601381e+03 0.0000000000e+00 0.0000e+00 -1.0000e+00
       -2 -1    0    0    0  501 -0.0000000000e+00 -0.0000000000e+00 -4.5531712010e+03 4.5531712010e+03 0.0000000000e+00 0.0000e+00 1.0000e+00
      -13  1    1    2    0    0 -4.2855223898e+00 +2.0637647512e+03 -3.8951783295e+03 4.4081240378e+03 0.0000000000e+00 0.0000e+00 1.0000e+00
       13  1    1    2    0    0 +4.2855223898e+00 -2.0637647512e+03 +2.2503672666e+03 3.0534073014e+03 0.0000000000e+00 0.0000e+00 -1.0000e+00
<mgrwt>
<rscale>  0 0.72779837E+04</rscale>
<asrwt>0</asrwt>
<pdfrwt beam="1">  1        2 0.44744002E+00 0.72779837E+04</pdfrwt>
<pdfrwt beam="2">  1       -2 0.70048788E+00 0.72779837E+04</pdfrwt>
<totfact> 0.42239476E-05</totfact>
</mgrwt>
<rwgt>
<wgt id='morphing_basis_vector_1'> +2.6154049e-07 </wgt>
<wgt id='morphing_basis_vector_2'> +1.7819696e-07 </wgt>
<wgt id='morphing_basis_vector_3'> +2.8907837e-07 </wgt>
<wgt id='morphing_basis_vector_4'> +2.0940243e-07 </wgt>
<wgt id='morphing_basis_vector_5'> +3.3420670e-07 </wgt>
</rwgt>
</event>
<event>
 4      1 +6.9060000e-13 7.32805900e+03 7.81860800e-03 7.13178400e-02
        2 -1    0    0  501    0 +0.0000000000e+00 +0.0000000000e+00 +2.5091839823e+03 2.5091839823e+03 0.0000000000e+00 0.0000e+00 -1.0000e+00
       -2 -1    0    0    0  501 -0.0000000000e+00 -0.0000000000e+00 -5.3503893775e+03 5.3503893775e+03 0.0000000000e+00 0.0000e+00 1.0000e+00
      -13  1    1    2    0    0 -6.1576287076e+02 -3.2384869097e+03 -3.1360328013e+03 4.5499080329e+03 0.0000000000e+00 0.0000e+00 1.0000e+00
       13  1    1    2    0    0 +6.1576287076e+02 +3.2384869097e+03 +2.9482740607e+02 3.3096653270e+03 0.0000000000e+00 0.0000e+00 -1.0000e+00
<mgrwt>
<rscale>  0 0.73280588E+04</rscale>
<asrwt>0</asrwt>
<pdfrwt beam="1">  1        2 0.38602831E+00 0.73280588E+04</pdfrwt>
<pdfrwt beam="2">  1       -2 0.82313681E+00 0.73280588E+04</pdfrwt>
<totfact> 0.21498579E-04</totfact>
</mgrwt>
<rwgt>
<wgt id='morphing_basis_vector_1'> +2.7036140e-07 </wgt>
<wgt id='morphing_basis_vector_2'> +1.8772526e-07 </wgt>
<wgt id='morphing_basis_vector_3'> +2.9967436e-07 </wgt>
<wgt id='morphing_basis_vector_4'> +2.1188750e-07 </wgt>
<wgt id='morphing_basis_vector_5'> +3.4323171e-07 </wgt>
</rwgt>
</event>
<event>
 4      1 +6.9060000e-13 7.16100100e+03 7.81860800e-03 7.14653000e-02
        2 -1    0    0  501    0 +0.0000000000e+00 +0.0000000000e+00 +3.2077391870e+03 3.2077391870e+03 0.0000000000e+00 0.0000e+00 1.0000e+00
       -2 -1    0    0    0  501 -0.0000000000e+00 -0.0000000000e+00 -3.9965792007e+03 3.9965792007e+03 0.0000000000e+00 0.0000e+00 -1.0000e+00
      -13  1    1    2    0    0 +2.5466740344e+03 +9.5898509374e+02 -2.7354645678e+03 3.8584928987e+03 0.0000000000e+00 0.0000e+00 -1.0000e+00
       13  1    1    2    0    0 -2.5466740344e+03 -9.5898509374e+02 +1.9466245542e+03 3.3458254889e+03 0.0000000000e+00 0.0000e+00 1.0000e+00
<mgrwt>
<rscale>  0 0.71610010E+04</rscale>
<asrwt>0</asrwt>
<pdfrwt beam="1">  1        2 0.49349834E+00 0.71610010E+04</pdfrwt>
<pdfrwt beam="2">  1       -2 0.61485834E+00 0.71610010E+04</pdfrwt>
<totfact> 0.12383727E-04</totfact>
</mgrwt>
<rwgt>
<wgt id='morphing_basis_vector_1'> +2.4550652e-07 </wgt>
<wgt id='morphing_basis_vector_2'> +1.6806252e-07 </wgt>
<wgt id='morphing_basis_vector_3'> +2.7152007e-07 </wgt>
<wgt id='morphing_basis_vector_4'> +1.9547922e-07 </wgt>
<wgt id='morphing_basis_vector_5'> +3.1313666e-07 </wgt>
</rwgt>
</event>
<event>
 4      1 +6.9060000e-13 6.87437500e+03 7.81860800e-03 7.17280000e-02
        2 -1    0    0  501    0 +0.0000000000e+00 +0.0000000000e+00 +3.6576273671e+03 3.6576273671e+03 0.0000000000e+00 0.0000e+00 -1.0000e+00
       -2 -1    0    0    0  501 -0.0000000000e+00 -0.0000000000e+00 -3.2300331131e+03 3.2300331131e+03 0.0000000000e+00 0.0000e+00 1.0000e+00
      -13  1    1    2    0    0 +2.4359778785e+03 -1.6611497724e+01 -2.2157589979e+03 3.2930004712e+03 0.0000000000e+00 0.0000e+00 1.0000e+00
       13  1    1    2    0    0 -2.4359778785e+03 +1.6611497724e+01 +2.6433532519e+03 3.5946600091e+03 0.0000000000e+00 0.0000e+00 -1.0000e+00
<mgrwt>
<rscale>  0 0.68743749E+04</rscale>
<asrwt>0</asrwt>
<pdfrwt beam="1">  1        2 0.56271191E+00 0.68743749E+04</pdfrwt>
<pdfrwt beam="2">  1       -2 0.49692817E+00 0.68743749E+04</pdfrwt>
<totfact> 0.51267307E-04</totfact>
</mgrwt>
<rwgt>
<wgt id='morphing_basis_vector_1'> +2.0842615e-07 </wgt>
<wgt id='morphing_basis_vector_2'> +1.4236664e-07 </wgt>
<wgt id='morphing_basis_vector_3'> +2.3038311e-07 </wgt>
<wgt id='morphing_basis_vector_4'> +1.6624417e-07 </wgt>
<wgt id='morphing_basis_vector_5'> +2.6588609e-07 </wgt>
</rwgt>
</event>
<event>
 4      1 +6.9060000e-13 6.88575600e+03 7.81860800e-03 7.17173200e-02
        2 -1    0    0  501    0 +0.0000000000e+00 +0.0000000000e+00 +2.5655606958e+03 2.5655606958e+03 0.0000000000e+00 0.0000e+00 -1.0000e+00
       -2 -1    0    0    0  501 -0.0000000000e+00 -0.0000000000e+00 -4.6202026529e+03 4.6202026529e+03 0.0000000000e+00 0.0000e+00 1.0000e+00
      -13  1    1    2    0    0 +2.0466533683e+02 -1.1879970401e+03 -4.3927605531e+03 4.5551696065e+03 0.0000000000e+00 0.0000e+00 1.0000e+00
       13  1    1    2    0    0 -2.0466533683e+02 +1.1879970401e+03 +2.3381185960e+03 2.6305937421e+03 0.0000000000e+00 0.0000e+00 -1.0000e+00
<mgrwt>
<rscale>  0 0.68857564E+04</rscale>
<asrwt>0</asrwt>
<pdfrwt beam="1">  1        2 0.39470165E+00 0.68857564E+04</pdfrwt>
<pdfrwt beam="2">  1       -2 0.71080041E+00 0.68857564E+04</pdfrwt>
<totfact> 0.96137117E-05</totfact>
</mgrwt>
<rwgt>
<wgt id='morphing_basis_vector_1'> +2.0956196e-07 </wgt>
<wgt id='morphing_basis_vector_2'> +1.4259071e-07 </wgt>
<wgt id='morphing_basis_vector_3'> +2.3151022e-07 </wgt>
<wgt id='morphing_basis_vector_4'> +1.6787603e-07 </wgt>
<wgt id='morphing_basis_vector_5'> +2.6769864e-07 </wgt>
</rwgt>
</event>
<event>
 4      1 +6.9060000e-13 7.44773100e+03 7.81860800e-03 7.12146100e-02
        2 -1    0    0  501    0 +0.0000000000e+00 +0.0000000000e+00 +5.0553932006e+03 5.0553932006e+03 0.0000000000e+00 0.0000e+00 -1.0000e+00
       -2 -1    0    0    0  501 -0.0000000000e+00 -0.0000000000e+00 -2.7430459073e+03 2.7430459073e+03 0.0000000000e+00 0.0000e+00 1.0000e+00
      -13  1    1    2    0    0 +1.6467221063e+03 +4.1607045531e+02 -2.3138438464e+03 2.8703103777e+03 0.0000000000e+00 0.0000e+00 1.0000e+00
       13  1    1    2    0    0 -1.6467221063e+03 -4.1607045531e+02 +4.6261911397e+03 4.9281287301e+03 0.0000000000e+00 0.0000e+00 -1.0000e+00
<mgrwt>
<rscale>  0 0.74477314E+04</rscale>
<asrwt>0</asrwt>
<pdfrwt beam="1">  1        2 0.77775280E+00 0.74477314E+04</pdfrwt>
<pdfrwt beam="2">  1       -2 0.42200706E+00 0.74477314E+04</pdfrwt>
<totfact> 0.65487426E-05</totfact>
</mgrwt>
<rwgt>
<wgt id='morphing_basis_vector_1'> +2.8669765e-07 </wgt>
<wgt id='morphing_basis_vector_2'> +1.9519691e-07 </wgt>
<wgt id='morphing_basis_vector_3'> +3.1688853e-07 </wgt>
<wgt id='morphing_basis_vector_4'> +2.2981253e-07 </wgt>
<wgt id='morphing_basis_vector_5'> +3.6655597e-07 </wgt>
</rwgt>
</event>
<event>
 4      1 +6.9060000e-13 7.43150200e+03 7.81860800e-03 7.12284900e-02
        2 -1    0    0  501    0 +0.0000000000e+00 +0.0000000000e+00 +2.3530211817e+03 2.3530211817e+03 0.0000000000e+00 0.0000e+00 -1.0000e+00
       -2 -1    0    0    0  501 -0.0000000000e+00 -0.0000000000e+00 -5.8676923471e+03 5.8676923471e+03 0.0000000000e+00 0.0000e+00 1.0000e+00
      -13  1    1    2    0    0 +1.0553826019e+03 -2.0758861518e+03 -4.9602842984e+03 5.4797405114e+03 0.0000000000e+00 0.0000e+00 1.0000e+00
       13  1    1    2    0    0 -1.0553826019e+03 +2.0758861518e+03 +1.4456131329e+03 2.7409730174e+03 0.0000000000e+00 0.0000e+00 -1.0000e+00
<mgrwt>
<rscale>  0 0.74315017E+04</rscale>
<asrwt>0</asrwt>
<pdfrwt beam="1">  1        2 0.36200326E+00 0.74315017E+04</pdfrwt>
<pdfrwt beam="2">  1       -2 0.90272190E+00 0.74315017E+04</pdfrwt>
<totfact> 0.56677374E-05</totfact>
</mgrwt>
<rwgt>
<wgt id='morphing_basis_vector_1'> +2.8434966e-07 </wgt>
<wgt id='morphing_basis_vector_2'> +1.9391037e-07 </wgt>
<wgt id='morphing_basis_vector_3'> +3.1436401e-07 </wgt>
<wgt id='morphing_basis_vector_4'> +2.2751444e-07 </wgt>
<wgt id='morphing_basis_vector_5'> +3.6334157e-07 </wgt>
</rwgt>
</event>
<event>
 4      1 +6.9060000e-13 6.83921900e+03 7.81860800e-03 7.17611100e-02
        2 -1    0    0  501    0 +0.0000000000e+00 +0.0000000000e+00 +4.4041915841e+03 4.4041915841e+03 0.0000000000e+00 0.0000e+00 -1.0000e+00
       -2 -1    0    0    0  501 -0.0000000000e+00 -0.0000000000e+00 -2.6551367231e+03 2.6551367231e+03 0.0000000000e+00 0.0000e+00 1.0000e+00
      -13  1    1    2    0    0 -2.0512801929e+03 -8.1924884485e+02 -1.8200071954e+03 2.8620526359e+03 0.0000000000e+00 0.0000e+00 1.0000e+00
       13  1    1    2    0    0 +2.0512801929e+03 +8.1924884485e+02 +3.5690620563e+03 4.1972756713e+03 0.0000000000e+00 0.0000e+00 -1.0000e+00
<mgrwt>
<rscale>  0 0.68392195E+04</rscale>
<asrwt>0</asrwt>
<pdfrwt beam="1">  1        2 0.67756794E+00 0.68392195E+04</pdfrwt>
<pdfrwt beam="2">  1       -2 0.40848257E+00 0.68392195E+04</pdfrwt>
<totfact> 0.48329331E-04</totfact>
</mgrwt>
<rwgt>
<wgt id='morphing_basis_vector_1'> +2.0410448e-07 </wgt>
<wgt id='morphing_basis_vector_2'> +1.3919094e-07 </wgt>
<wgt id='morphing_basis_vector_3'> +2.2554633e-07 </wgt>
<wgt id='morphing_basis_vector_4'> +1.6307415e-07 </wgt>
<wgt id='morphing_basis_vector_5'> +2.6049745e-07 </wgt>
</rwgt>
</event>
<event>
 4      1 +6.9060000e-13 7.22449600e+03 7.81860800e-03 7.14087800e-02
        2 -1    0    0  501    0 +0.0000000000e+00 +0.0000000000e+00 +5.7078126871e+03 5.7078126871e+03 0.0000000000e+00 0.0000e+00 -1.0000e+00
       -2 -1    0    0    0  501 -0.0000000000e+00 -0.0000000000e+00 -2.2860485048e+03 2.2860485048e+03 0.0000000000e+00 0.0000e+00 1.0000e+00
      -13  1    1    2    0    0 -1.8136894839e+03 -1.8743138968e+03 -1.0544263051e+03 2.8132431392e+03 0.0000000000e+00 0.0000e+00 1.0000e+00
       13  1    1    2    0    0 +1.8136894839e+03 +1.8743138968e+03 +4.4761904874e+03 5.1806180526e+03 0.0000000000e+00 0.0000e+00 -1.0000e+00
<mgrwt>
<rscale>  0 0.72244963E+04</rscale>
<asrwt>0</asrwt>
<pdfrwt beam="1">  1        2 0.87812502E+00 0.72244963E+04</pdfrwt>
<pdfrwt beam="2">  1       -2 0.35169977E+00 0.72244963E+04</pdfrwt>
<totfact> 0.13323731E-05</totfact>
</mgrwt>
<rwgt>
<wgt id='morphing_basis_vector_1'> +2.5419419e-07 </wgt>
<wgt id='morphing_basis_vector_2'> +1.7374117e-07 </wgt>
<wgt id='morphing_basis_vector_3'> +2.8107799e-07 </wgt>
<wgt id='morphing_basis_vector_4'> +2.0277748e-07 </wgt>
<wgt id='morphing_basis_vector_5'> +3.2443094e-07 </wgt>
</rwgt>
</event>
<event>
 4      1 +6.9060000e-13 6.85277800e+03 7.81860800e-03 7.17483100e-02
        2 -1    0    0  501    0 +0.0000000000e+00 +0.0000000000e+00 +3.5870869611e+03 3.5870869611e+03 0.0000000000e+00 0.0000e+00 -1.0000e+00
       -2 -1    0    0    0  501 -0.0000000000e+00 -0.0000000000e+00 -3.2728905478e+03 3.2728905478e+03 0.0000000000e+00 0.0000e+00 1.0000e+00
      -13  1    1    2    0    0 -1.9034973839e+03 +2.0010283535e+03 -1.8730180268e+03 3.3370066363e+03 0.0000000000e+00 0.0000e+00 1.0000e+00
       13  1    1    2    0    0 +1.9034973839e+03 -2.0010283535e+03 +2.1872144400e+03 3.5229708726e+03 0.0000000000e+00 0.0000e+00 -1.0000e+00
<mgrwt>
<rscale>  0 0.68527784E+04</rscale>
<asrwt>0</asrwt>
<pdfrwt beam="1">  1        2 0.55185953E+00 0.68527784E+04</pdfrwt>
<pdfrwt beam="2">  1       -2 0.50352162E+00 0.68527784E+04</pdfrwt>
<totfact> 0.51830467E-04</totfact>
</mgrwt>
<rwgt>
<wgt id='morphing_basis_vector_1'> +2.0612251e-07 </wgt>
<wgt id='morphing_basis_vector_2'> +1.4146370e-07 </wgt>
<wgt id='morphing_basis_vector_3'> +2.2799125e-07 </wgt>
<wgt id='morphing_basis_vector_4'> +1.6352124e-07 </wgt>
<wgt id='morphing_basis_vector_5'> +2.6250108e-07 </wgt>
</rwgt>
</event>
<event>
 4      1 +6.9060000e-13 6.78165200e+03 7.81860800e-03 7.18157600e-02
        2 -1    0    0  501    0 +0.0000000000e+00 +0.0000000000e+00 +3.5319045090e+03 3.5319045090e+03 0.0000000000e+00 0.0000e+00 -1.0000e+00
       -2 -1    0    0    0  501 -0.0000000000e+00 -0.0000000000e+00 -3.2553828587e+03 3.2553828587e+03 0.0000000000e+00 0.0000e+00 1.0000e+00
      -13  1    1    2    0    0 -2.4204376602e+03 +2.1010064997e+03 -9.6943553476e+02 3.3485148999e+03 0.0000000000e+00 0.0000e+00 1.0000e+00
       13  1    1    2    0    0 +2.4204376602e+03 -2.1010064997e+03 +1.2459571851e+03 3.4387724678e+03 0.0000000000e+00 0.0000e+00 -1.0000e+00
<mgrwt>
<rscale>  0 0.67816521E+04</rscale>
<asrwt>0</asrwt>
<pdfrwt beam="1">  1        2 0.54336992E+00 0.67816521E+04</pdfrwt>
<pdfrwt beam="2">  1       -2 0.50082813E+00 0.67816521E+04</pdfrwt>
<totfact> 0.60029272E-04</totfact>
</mgrwt>
<rwgt>
<wgt id='morphing_basis_vector_1'> +1.9920755e-07 </wgt>
<wgt id='morphing_basis_vector_2'> +1.4007431e-07 </wgt>
<wgt id='morphing_basis_vector_3'> +2.2112263e-07 </wgt>
<wgt id='morphing_basis_vector_4'> +1.5362078e-07 </wgt>
<wgt id='morphing_basis_vector_5'> +2.5148342e-07 </wgt>
</rwgt>
</event>
<event>
 4      1 +6.9060000e-13 7.32307600e+03 7.81860800e-03 7.13221800e-02
        2 -1    0    0  501    0 +0.0000000000e+00 +0.0000000000e+00 +2.6839467153e+03 2.6839467153e+03 0.0000000000e+00 0.0000e+00 -1.0000e+00
       -2 -1    0    0    0  501 -0.0000000000e+00 -0.0000000000e+00 -4.9952036325e+03 4.9952036325e+03 0.0000000000e+00 0.0000e+00 1.0000e+00
      -13  1    1    2    0    0 -1.9927786224e+03 -1.7726370415e+03 -3.7862845868e+03 4.6313453435e+03 0.0000000000e+00 0.0000e+00 1.0000e+00
       13  1    1    2    0    0 +1.9927786224e+03 +1.7726370415e+03 +1.4750276696e+03 3.0478050044e+03 0.0000000000e+00 0.0000e+00 -1.0000e+00
<mgrwt>
<rscale>  0 0.73230760E+04</rscale>
<asrwt>0</asrwt>
<pdfrwt beam="1">  1        2 0.41291488E+00 0.73230760E+04</pdfrwt>
<pdfrwt beam="2">  1       -2 0.76849286E+00 0.73230760E+04</pdfrwt>
<totfact> 0.20424270E-04</totfact>
</mgrwt>
<rwgt>
<wgt id='morphing_basis_vector_1'> +2.6835115e-07 </wgt>
<wgt id='morphing_basis_vector_2'> +1.8346934e-07 </wgt>
<wgt id='morphing_basis_vector_3'> +2.9676582e-07 </wgt>
<wgt id='morphing_basis_vector_4'> +2.1405025e-07 </wgt>
<wgt id='morphing_basis_vector_5'> +3.4252874e-07 </wgt>
</rwgt>
</event>
<event>
 4      1 +6.9060000e-13 6.97439000e+03 7.81860800e-03 7.16348900e-02
        2 -1    0    0  501    0 +0.0000000000e+00 +0.0000000000e+00 +4.1930739953e+03 4.1930739953e+03 0.0000000000e+00 0.0000e+00 1.0000e+00
       -2 -1    0    0    0  501 -0.0000000000e+00 -0.0000000000e+00 -2.9001464705e+03 2.9001464705e+03 0.0000000000e+00 0.0000e+00 -1.0000e+00
      -13  1    1    2    0    0 +1.8955936188e+03 -5.6191123363e+02 -2.2750230574e+03 3.0140917893e+03 0.0000000000e+00 0.0000e+00 -1.0000e+00
       13  1    1    2    0    0 -1.8955936188e+03 +5.6191123363e+02 +3.5679505823e+03 4.0791286766e+03 0.0000000000e+00 0.0000e+00 1.0000e+00
<mgrwt>
<rscale>  0 0.69743899E+04</rscale>
<asrwt>0</asrwt>
<pdfrwt beam="1">  1        2 0.64508831E+00 0.69743899E+04</pdfrwt>
<pdfrwt beam="2">  1       -2 0.44617638E+00 0.69743899E+04</pdfrwt>
<totfact> 0.42488883E-04</totfact>
</mgrwt>
<rwgt>
<wgt id='morphing_basis_vector_1'> +2.2061719e-07 </wgt>
<wgt id='morphing_basis_vector_2'> +1.5028889e-07 </wgt>
<wgt id='morphing_basis_vector_3'> +2.4378306e-07 </wgt>
<wgt id='morphing_basis_vector_4'> +1.7654279e-07 </wgt>
<wgt id='morphing_basis_vector_5'> +2.8176063e-07 </wgt>
</rwgt>
</event>
<event>
 4      1 +6.9060000e-13 6.73500700e+03 7.81860800e-03 7.18604400e-02
        2 -1    0    0  501    0 +0.0000000000e+00 +0.0000000000e+00 +4.6958415169e+03 4.6958415169e+03 0.0000000000e+00 0.0000e+00 -1.0000e+00
       -2 -1    0    0    0  501 -0.0000000000e+00 -0.0000000000e+00 -2.4149199256e+03 2.4149199256e+03 0.0000000000e+00 0.0000e+00 1.0000e+00
      -13  1    1    2    0    0 +6.9380954477e+02 +9.4656696080e+02 +4.4729365971e+03 4.6243402229e+03 0.0000000000e+00 0.0000e+00 -1.0000e+00
       13  1    1    2    0    0 -6.9380954477e+02 -9.4656696080e+02 -2.1920150058e+03 2.4864212196e+03 0.0000000000e+00 0.0000e+00 1.0000e+00
<mgrwt>
<rscale>  0 0.67350074E+04</rscale>
<asrwt>0</asrwt>
<pdfrwt beam="1">  1        2 0.72243715E+00 0.67350074E+04</pdfrwt>
<pdfrwt beam="2">  1       -2 0.37152614E+00 0.67350074E+04</pdfrwt>
<totfact> 0.41500850E-04</totfact>
</mgrwt>
<rwgt>
<wgt id='morphing_basis_vector_1'> +2.6233947e-07 </wgt>
<wgt id='morphing_basis_vector_2'> +3.3741214e-07 </wgt>
<wgt id='morphing_basis_vector_3'> +3.2735038e-07 </wgt>
<wgt id='morphing_basis_vector_4'> +2.5277115e-09 </wgt>
<wgt id='morphing_basis_vector_5'> +2.3224822e-07 </wgt>
</rwgt>
</event>
<event>
 4      1 +6.9060000e-13 6.68815900e+03 7.81860800e-03 7.19056900e-02
        2 -1    0    0  501    0 +0.0000000000e+00 +0.0000000000e+00 +2.0425027560e+03 2.0425027560e+03 0.0000000000e+00 0.0000e+00 1.0000e+00
       -2 -1    0    0    0  501 -0.0000000000e+00 -0.0000000000e+00 -5.4750814962e+03 5.4750814962e+03 0.0000000000e+00 0.0000e+00 -1.0000e+00
      -13  1    1    2    0    0 -2.9165665313e+03 +5.4468149751e+02 -3.4502719395e+03 4.5505400472e+03 0.0000000000e+00 0.0000e+00 -1.0000e+00
       13  1    1    2    0    0 +2.9165665313e+03 -5.4468149751e+02 +1.7693199295e+01 2.9670442050e+03 0.0000000000e+00 0.0000e+00 1.0000e+00
<mgrwt>
<rscale>  0 0.66881594E+04</rscale>
<asrwt>0</asrwt>
<pdfrwt beam="1">  1        2 0.31423119E+00 0.66881594E+04</pdfrwt>
<pdfrwt beam="2">  1       -2 0.84232023E+00 0.66881594E+04</pdfrwt>
<totfact> 0.33237968E-04</totfact>
</mgrwt>
<rwgt>
<wgt id='morphing_basis_vector_1'> +1.8757483e-07 </wgt>
<wgt id='morphing_basis_vector_2'> +1.2989756e-07 </wgt>
<wgt id='morphing_basis_vector_3'> +2.0771969e-07 </wgt>
<wgt id='morphing_basis_vector_4'> +1.4721983e-07 </wgt>
<wgt id='morphing_basis_vector_5'> +2.3803758e-07 </wgt>
</rwgt>
</event>
<event>
 4      1 +6.9060000e-13 6.84975000e+03 7.81860800e-03 7.17511700e-02
        2 -1    0    0  501    0 +0.0000000000e+00 +0.0000000000e+00 +4.5164609818e+03 4.5164609818e+03 0.0000000000e+00 0.0000e+00 -1.0000e+00
       -2 -1    0    0    0  501 -0.0000000000e+00 -0.0000000000e+00 -2.5971148309e+03 2.5971148309e+03 0.0000000000e+00 0.0000e+00 1.0000e+00
      -13  1    1    2    0    0 -1.3042968137e+03 -4.2479865819e+02 -2.2993693135e+03 2.6774508993e+03 0.0000000000e+00 0.0000e+00 1.0000e+00
       13  1    1    2    0    0 +1.3042968137e+03 +4.2479865819e+02 +4.2187154643e+03 4.4361249134e+03 0.0000000000e+00 0.0000e+00 -1.0000e+00
<mgrwt>
<rscale>  0 0.68497497E+04</rscale>
<asrwt>0</asrwt>
<pdfrwt beam="1">  1        2 0.69484015E+00 0.68497497E+04</pdfrwt>
<pdfrwt beam="2">  1       -2 0.39955613E+00 0.68497497E+04</pdfrwt>
<totfact> 0.42455733E-04</totfact>
</mgrwt>
<rwgt>
<wgt id='morphing_basis_vector_1'> +2.0522745e-07 </wgt>
<wgt id='morphing_basis_vector_2'> +1.3965417e-07 </wgt>
<wgt id='morphing_basis_vector_3'> +2.2671774e-07 </wgt>
<wgt id='morphing_basis_vector_4'> +1.6437132e-07 </wgt>
<wgt id='morphing_basis_vector_5'> +2.6213255e-07 </wgt>
</rwgt>
</event>
<event>
 4      1 +6.9060000e-13 6.74635300e+03 7.81860800e-03 7.18495400e-02
        2 -1    0    0  501    0 +0.0000000000e+00 +0.0000000000e+00 +4.3593090880e+03 4.3593090880e+03 0.0000000000e+00 0.0000e+00 1.0000e+00
       -2 -1    0    0    0  501 -0.0000000000e+00 -0.0000000000e+00 -2.6101197552e+03 2.6101197552e+03 0.0000000000e+00 0.0000e+00 -1.0000e+00
      -13  1    1    2    0    0 -4.3015472736e+02 +2.2257375617e+03 -1.7058752038e+03 2.8370673228e+03 0.0000000000e+00 0.0000e+00 -1.0000e+00
       13  1    1    2    0    0 +4.3015472736e+02 -2.2257375617e+03 +3.4550645367e+03 4.1323615204e+03 0.0000000000e+00 0.0000e+00 1.0000e+00
<mgrwt>
<rscale>  0 0.67463527E+04</rscale>
<asrwt>0</asrwt>
<pdfrwt beam="1">  1        2 0.67066293E+00 0.67463527E+04</pdfrwt>
<pdfrwt beam="2">  1       -2 0.40155689E+00 0.67463527E+04</pdfrwt>
<totfact> 0.59825372E-04</totfact>
</mgrwt>
<rwgt>
<wgt id='morphing_basis_vector_1'> +1.9329451e-07 </wgt>
<wgt id='morphing_basis_vector_2'> +1.3188598e-07 </wgt>
<wgt id='morphing_basis_vector_3'> +2.1359891e-07 </wgt>
<wgt id='morphing_basis_vector_4'> +1.5431034e-07 </wgt>
<wgt id='morphing_basis_vector_5'> +2.4660517e-07 </wgt>
</rwgt>
</event>
<event>
 4      1 +6.9060000e-13 7.03085100e+03 7.81860800e-03 7.15830200e-02
        2 -1    0    0  501    0 +0.0000000000e+00 +0.0000000000e+00 +4.5944824779e+03 4.5944824779e+03 0.0000000000e+00 0.0000e+00 1.0000e+00
       -2 -1    0    0    0  501 -0.0000000000e+00 -0.0000000000e+00 -2.6897950928e+03 2.6897950928e+03 0.0000000000e+00 0.0000e+00 -1.0000e+00
      -13  1    1    2    0    0 +2.2929086593e+03 +1.7172370443e+03 -1.1587191331e+03 3.0901396757e+03 0.0000000000e+00 0.0000e+00 -1.0000e+00
       13  1    1    2    0    0 -2.2929086593e+03 -1.7172370443e+03 +3.0634065182e+03 4.1941378949e+03 0.0000000000e+00 0.0000e+00 1.0000e+00
<mgrwt>
<rscale>  0 0.70308510E+04</rscale>
<asrwt>0</asrwt>
<pdfrwt beam="1">  1        2 0.70684346E+00 0.70308510E+04</pdfrwt>
<pdfrwt beam="2">  1       -2 0.41381463E+00 0.70308510E+04</pdfrwt>
<totfact> 0.27901573E-04</totfact>
</mgrwt>
<rwgt>
<wgt id='morphing_basis_vector_1'> +2.2840362e-07 </wgt>
<wgt id='morphing_basis_vector_2'> +1.5687694e-07 </wgt>
<wgt id='morphing_basis_vector_3'> +2.5270294e-07 </wgt>
<wgt id='morphing_basis_vector_4'> +1.8112168e-07 </wgt>
<wgt id='morphing_basis_vector_5'> +2.9090856e-07 </wgt>
</rwgt>
</event>
<event>
 4      1 +6.9060000e-13 6.96985600e+03 7.81860800e-03 7.16390800e-02
        2 -1    0    0  501    0 +0.0000000000e+00 +0.0000000000e+00 +4.3987406100e+03 4.3987406100e+03 0.0000000000e+00 0.0000e+00 1.0000e+00
       -2 -1    0    0    0  501 -0.0000000000e+00 -0.0000000000e+00 -2.7609542464e+03 2.7609542464e+03 0.0000000000e+00 0.0000e+00 -1.0000e+00
      -13  1    1    2    0    0 -1.2739911687e+03 -8.6902765520e+02 -2.3913601250e+03 2.8454992200e+03 0.0000000000e+00 0.0000e+00 -1.0000e+00
       13  1    1    2    0    0 +1.2739911687e+03 +8.6902765520e+02 +4.0291464886e+03 4.3141956365e+03 0.0000000000e+00 0.0000e+00 1.0000e+00
<mgrwt>
<rscale>  0 0.69698555E+04</rscale>
<asrwt>0</asrwt>
<pdfrwt beam="1">  1        2 0.67672932E+00 0.69698555E+04</pdfrwt>
<pdfrwt beam="2">  1       -2 0.42476219E+00 0.69698555E+04</pdfrwt>
<totfact> 0.37815960E-04</totfact>
</mgrwt>
<rwgt>
<wgt id='morphing_basis_vector_1'> +2.1998770e-07 </wgt>
<wgt id='morphing_basis_vector_2'> +1.4973060e-07 </wgt>
<wgt id='morphing_basis_vector_3'> +2.4305589e-07 </wgt>
<wgt id='morphing_basis_vector_4'> +1.7620621e-07 </wgt>
<wgt id='morphing_basis_vector_5'> +2.8103776e-07 </wgt>
</rwgt>
</event>
<event>
 4      1 +6.9060000e-13 7.06852600e+03 7.81860800e-03 7.15486800e-02
        2 -1    0    0  501    0 +0.0000000000e+00 +0.0000000000e+00 +2.2522203365e+03 2.2522203365e+03 0.0000000000e+00 0.0000e+00 -1.0000e+00
       -2 -1    0    0    0  501 -0.0000000000e+00 -0.0000000000e+00 -5.5460900105e+03 5.5460900105e+03 0.0000000000e+00 0.0000e+00 1.0000e+00
      -13  1    1    2    0    0 +5.5076467957e+02 +3.0034585494e+03 -3.6102481115e+03 4.7284243059e+03 0.0000000000e+00 0.0000e+00 1.0000e+00
       13  1    1    2    0    0 -5.5076467957e+02 -3.0034585494e+03 +3.1637843752e+02 3.0698860412e+03 0.0000000000e+00 0.0000e+00 -1.0000e+00
<mgrwt>
<rscale>  0 0.70685265E+04</rscale>
<asrwt>0</asrwt>
<pdfrwt beam="1">  1        2 0.34649544E+00 0.70685265E+04</pdfrwt>
<pdfrwt beam="2">  1       -2 0.85324461E+00 0.70685265E+04</pdfrwt>
<totfact> 0.20675494E-04</totfact>
</mgrwt>
<rwgt>
<wgt id='morphing_basis_vector_1'> +2.3368700e-07 </wgt>
<wgt id='morphing_basis_vector_2'> +1.6131029e-07 </wgt>
<wgt id='morphing_basis_vector_3'> +2.5874697e-07 </wgt>
<wgt id='morphing_basis_vector_4'> +1.8427695e-07 </wgt>
<wgt id='morphing_basis_vector_5'> +2.9713998e-07 </wgt>
</rwgt>
</event>
<event>
 4      1 +6.9060000e-13 7.02935500e+03 7.81860800e-03 7.15843900e-02
        2 -1    0    0  501    0 +0.0000000000e+00 +0.0000000000e+00 +3.1162235466e+03 3.1162235466e+03 0.0000000000e+00 0.0000e+00 -1.0000e+00
       -2 -1    0    0    0  501 -0.0000000000e+00 -0.0000000000e+00 -3.9640799416e+03 3.9640799416e+03 0.0000000000e+00 0.0000e+00 1.0000e+00
      -13  1    1    2    0    0 -1.6626849749e+03 -7.1178712860e+02 -3.4593725029e+03 3.9036419350e+03 0.0000000000e+00 0.0000e+00 1.0000e+00
       13  1    1    2    0    0 +1.6626849749e+03 +7.1178712860e+02 +2.6115161079e+03 3.1766615533e+03 0.0000000000e+00 0.0000e+00 -1.0000e+00
<mgrwt>
<rscale>  0 0.70293554E+04</rscale>
<asrwt>0</asrwt>
<pdfrwt beam="1">  1        2 0.47941901E+00 0.70293554E+04</pdfrwt>
<pdfrwt beam="2">  1       -2 0.60985845E+00 0.70293554E+04</pdfrwt>
<totfact> 0.16378024E-04</totfact>
</mgrwt>
<rwgt>
<wgt id='morphing_basis_vector_1'> +2.2761057e-07 </wgt>
<wgt id='morphing_basis_vector_2'> +1.5498571e-07 </wgt>
<wgt id='morphing_basis_vector_3'> +2.5150608e-07 </wgt>
<wgt id='morphing_basis_vector_4'> +1.8225203e-07 </wgt>
<wgt id='morphing_basis_vector_5'> +2.9076899e-07 </wgt>
</rwgt>
</event>
<event>
 4      1 +6.9060000e-13 7.11183400e+03 7.81860800e-03 7.15094700e-02
        2 -1    0    0  501    0 +0.0000000000e+00 +0.0000000000e+00 +4.2130020864e+03 4.2130020864e+03 0.0000000000e+00 0.0000e+00 1.0000e+00
       -2 -1    0    0    0  501 -0.0000000000e+00 -0.0000000000e+00 -3.0013145502e+03 3.0013145502e+03 0.0000000000e+00 0.0000e+00 -1.0000e+00
      -13  1    1    2    0    0 +3.8825465384e+02 +3.2016983380e+03 -9.1337921561e+02 3.3519957511e+03 0.0000000000e+00 0.0000e+00 -1.0000e+00
       13  1    1    2    0    0 -3.8825465384e+02 -3.2016983380e+03 +2.1250667518e+03 3.8623208856e+03 0.0000000000e+00 0.0000e+00 1.0000e+00
<mgrwt>
<rscale>  0 0.71118336E+04</rscale>
<asrwt>0</asrwt>
<pdfrwt beam="1">  1        2 0.64815417E+00 0.71118336E+04</pdfrwt>
<pdfrwt beam="2">  1       -2 0.46174070E+00 0.71118336E+04</pdfrwt>
<totfact> 0.31341613E-04</totfact>
</mgrwt>
<rwgt>
<wgt id='morphing_basis_vector_1'> +2.3999502e-07 </wgt>
<wgt id='morphing_basis_vector_2'> +1.6687527e-07 </wgt>
<wgt id='morphing_basis_vector_3'> +2.6602770e-07 </wgt>
<wgt id='morphing_basis_vector_4'> +1.8768845e-07 </wgt>
<wgt id='morphing_basis_vector_5'> +3.0440368e-07 </wgt>
</rwgt>
</event>
<event>
 4      1 +6.9060000e-13 7.87290300e+03 7.81860800e-03 7.08630100e-02
        2 -1    0    0  501    0 +0.0000000000e+00 +0.0000000000e+00 +2.7582699099e+03 2.7582699099e+03 0.0000000000e+00 0.0000e+00 -1.0000e+00
       -2 -1    0    0    0  501 -0.0000000000e+00 -0.0000000000e+00 -5.6178874584e+03 5.6178874584e+03 0.0000000000e+00 0.0000e+00 1.0000e+00
      -13  1    1    2    0    0 +3.2380764363e+03 +8.3285034826e+02 -3.6403289387e+03 4.9427495882e+03 0.0000000000e+00 0.0000e+00 1.0000e+00
       13  1    1    2    0    0 -3.2380764363e+03 -8.3285034826e+02 +7.8071139021e+02 3.4334077801e+03 0.0000000000e+00 0.0000e+00 -1.0000e+00
<mgrwt>
<rscale>  0 0.78729029E+04</rscale>
<asrwt>0</asrwt>
<pdfrwt beam="1">  1        2 0.42434922E+00 0.78729029E+04</pdfrwt>
<pdfrwt beam="2">  1       -2 0.86429037E+00 0.78729029E+04</pdfrwt>
<totfact> 0.79519053E-05</totfact>
</mgrwt>
<rwgt>
<wgt id='morphing_basis_vector_1'> +3.5920926e-07 </wgt>
<wgt id='morphing_basis_vector_2'> +2.4761688e-07 </wgt>
<wgt id='morphing_basis_vector_3'> +3.9786773e-07 </wgt>
<wgt id='morphing_basis_vector_4'> +2.8417807e-07 </wgt>
<wgt id='morphing_basis_vector_5'> +4.5759877e-07 </wgt>
</rwgt>
</event>
<event>
 4      1 +6.9060000e-13 6.98476300e+03 7.81860800e-03 7.16253200e-02
        2 -1    0    0  501    0 +0.0000000000e+00 +0.0000000000e+00 +3.1354179942e+03 3.1354179942e+03 0.0000000000e+00 0.0000e+00 1.0000e+00
       -2 -1    0    0    0  501 -0.0000000000e+00 -0.0000000000e+00 -3.8899844164e+03 3.8899844164e+03 0.0000000000e+00 0.0000e+00 -1.0000e+00
      -13  1    1    2    0    0 +7.3905374242e+02 +3.3637384601e+03 -9.6012893207e+02 3.5753020052e+03 0.0000000000e+00 0.0000e+00 -1.0000e+00
       13  1    1    2    0    0 -7.3905374242e+02 -3.3637384601e+03 +2.0556250994e+02 3.4501004054e+03 0.0000000000e+00 0.0000e+00 1.0000e+00
<mgrwt>
<rscale>  0 0.69847626E+04</rscale>
<asrwt>0</asrwt>
<pdfrwt beam="1">  1        2 0.48237200E+00 0.69847626E+04</pdfrwt>
<pdfrwt beam="2">  1       -2 0.59845914E+00 0.69847626E+04</pdfrwt>
<totfact> 0.20720798E-04</totfact>
</mgrwt>
<rwgt>
<wgt id='morphing_basis_vector_1'> +2.2624006e-07 </wgt>
<wgt id='morphing_basis_vector_2'> +1.6383034e-07 </wgt>
<wgt id='morphing_basis_vector_3'> +2.5229927e-07 </wgt>
<wgt id='morphing_basis_vector_4'> +1.6835624e-07 </wgt>
<wgt id='morphing_basis_vector_5'> +2.8266450e-07 </wgt>
</rwgt>
</event>
<event>
 4      1 +6.9060000e-13 6.97758300e+03 7.81860800e-03 7.16319400e-02
        2 -1    0    0  501    0 +0.0000000000e+00 +0.0000000000e+00 +3.9747897833e+03 3.9747897833e+03 0.0000000000e+00 0.0000e+00 -1.0000e+00
       -2 -1    0    0    0  501 -0.0000000000e+00 -0.0000000000e+00 -3.0622159244e+03 3.0622159244e+03 0.0000000000e+00 0.0000e+00 1.0000e+00
      -13  1    1    2    0    0 +2.7380072986e+03 -2.0432835277e+03 +1.1693964066e+03 3.6109804067e+03 0.0000000000e+00 0.0000e+00 1.0000e+00
       13  1    1    2    0    0 -2.7380072986e+03 +2.0432835277e+03 -2.5682254777e+02 3.4260253010e+03 0.0000000000e+00 0.0000e+00 -1.0000e+00
<mgrwt>
<rscale>  0 0.69775826E+04</rscale>
<asrwt>0</asrwt>
<pdfrwt beam="1">  1        2 0.61150612E+00 0.69775826E+04</pdfrwt>
<pdfrwt beam="2">  1       -2 0.47111014E+00 0.69775826E+04</pdfrwt>
<totfact> 0.43937505E-04</totfact>
</mgrwt>
<rwgt>
<wgt id='morphing_basis_vector_1'> +2.3737031e-07 </wgt>
<wgt id='morphing_basis_vector_2'> +1.9853864e-07 </wgt>
<wgt id='morphing_basis_vector_3'> +2.7102317e-07 </wgt>
<wgt id='morphing_basis_vector_4'> +1.4181078e-07 </wgt>
<wgt id='morphing_basis_vector_5'> +2.7932328e-07 </wgt>
</rwgt>
</event>
<event>
 4      1 +6.9060000e-13 7.00148300e+03 7.81860800e-03 7.16099400e-02
        2 -1    0    0  501    0 +0.0000000000e+00 +0.0000000000e+00 +4.8279028160e+03 4.8279028160e+03 0.0000000000e+00 0.0000e+00 -1.0000e+00
       -2 -1    0    0    0  501 -0.0000000000e+00 -0.0000000000e+00 -2.5384090418e+03 2.5384090418e+03 0.0000000000e+00 0.0000e+00 1.0000e+00
      -13  1    1    2    0    0 -2.2930908039e+02 -1.3430356057e+03 -2.2480121037e+03 2.6286661467e+03 0.0000000000e+00 0.0000e+00 1.0000e+00
       13  1    1    2    0    0 +2.2930908039e+02 +1.3430356057e+03 +4.5375058779e+03 4.7376457111e+03 0.0000000000e+00 0.0000e+00 -1.0000e+00
<mgrwt>
<rscale>  0 0.70014833E+04</rscale>
<asrwt>0</asrwt>
<pdfrwt beam="1">  1        2 0.74275428E+00 0.70014833E+04</pdfrwt>
<pdfrwt beam="2">  1       -2 0.39052447E+00 0.70014833E+04</pdfrwt>
<totfact> 0.21467842E-04</totfact>
</mgrwt>
<rwgt>
<wgt id='morphing_basis_vector_1'> +2.2398945e-07 </wgt>
<wgt id='morphing_basis_vector_2'> +1.5243079e-07 </wgt>
<wgt id='morphing_basis_vector_3'> +2.4747810e-07 </wgt>
<wgt id='morphing_basis_vector_4'> +1.7945665e-07 </wgt>
<wgt id='morphing_basis_vector_5'> +2.8618428e-07 </wgt>
</rwgt>
</event>
<event>
 4      1 +6.9060000e-13 6.98544300e+03 7.81860800e-03 7.16247000e-02
        2 -1    0    0  501    0 +0.0000000000e+00 +0.0000000000e+00 +4.9606781660e+03 4.9606781660e+03 0.0000000000e+00 0.0000e+00 1.0000e+00
       -2 -1    0    0    0  501 -0.0000000000e+00 -0.0000000000e+00 -2.4591600873e+03 2.4591600873e+03 0.0000000000e+00 0.0000e+00 -1.0000e+00
      -13  1    1    2    0    0 -4.2528751248e+02 +2.8612978496e+03 +3.3298252423e+03 4.4108537718e+03 0.0000000000e+00 0.0000e+00 1.0000e+00
       13  1    1    2    0    0 +4.2528751248e+02 -2.8612978496e+03 -8.2830716364e+02 3.0089844815e+03 0.0000000000e+00 0.0000e+00 -1.0000e+00
<mgrwt>
<rscale>  0 0.69854425E+04</rscale>
<asrwt>0</asrwt>
<pdfrwt beam="1">  1        2 0.76318126E+00 0.69854425E+04</pdfrwt>
<pdfrwt beam="2">  1       -2 0.37833232E+00 0.69854425E+04</pdfrwt>
<totfact> 0.17532786E-04</totfact>
</mgrwt>
<rwgt>
<wgt id='morphing_basis_vector_1'> +2.6980602e-07 </wgt>
<wgt id='morphing_basis_vector_2'> +2.9147140e-07 </wgt>
<wgt id='morphing_basis_vector_3'> +3.2365038e-07 </wgt>
<wgt id='morphing_basis_vector_4'> +7.5196946e-08 </wgt>
<wgt id='morphing_basis_vector_5'> +2.7491779e-07 </wgt>
</rwgt>
</event>
<event>
 4      1 +6.9060000e-13 6.90576000e+03 7.81860800e-03 7.16986100e-02
        2 -1    0    0  501    0 +0.0000000000e+00 +0.0000000000e+00 +3.8437143977e+03 3.8437143977e+03 0.0000000000e+00 0.0000e+00 -1.0000e+00
       -2 -1    0    0    0  501 -0.0000000000e+00 -0.0000000000e+00 -3.1017863600e+03 3.1017863600e+03 0.0000000000e+00 0.0000e+00 1.0000e+00
      -13  1    1    2    0    0 +1.8767167133e+03 -1.6465442007e+03 -2.0279680865e+03 3.2164931194e+03 0.0000000000e+00 0.0000e+00 1.0000e+00
       13  1    1    2    0    0 -1.8767167133e+03 +1.6465442007e+03 +2.7698961242e+03 3.7290076383e+03 0.0000000000e+00 0.0000e+00 -1.0000e+00
<mgrwt>
<rscale>  0 0.69057602E+04</rscale>
<asrwt>0</asrwt>
<pdfrwt beam="1">  1        2 0.59134068E+00 0.69057602E+04</pdfrwt>
<pdfrwt beam="2">  1       -2 0.47719790E+00 0.69057602E+04</pdfrwt>
<totfact> 0.51169033E-04</totfact>
</mgrwt>
<rwgt>
<wgt id='morphing_basis_vector_1'> +2.1228310e-07 </wgt>
<wgt id='morphing_basis_vector_2'> +1.4507415e-07 </wgt>
<wgt id='morphing_basis_vector_3'> +2.3466996e-07 </wgt>
<wgt id='morphing_basis_vector_4'> +1.6923916e-07 </wgt>
<wgt id='morphing_basis_vector_5'> +2.7077770e-07 </wgt>
</rwgt>
</event>
<event>
 4      1 +6.9060000e-13 6.95866700e+03 7.81860800e-03 7.16494200e-02
        2 -1    0    0  501    0 +0.0000000000e+00 +0.0000000000e+00 +2.5060682284e+03 2.5060682284e+03 0.0000000000e+00 0.0000e+00 1.0000e+00
       -2 -1    0    0    0  501 -0.0000000000e+00 -0.0000000000e+00 -4.8305792630e+03 4.8305792630e+03 0.0000000000e+00 0.0000e+00 -1.0000e+00
      -13  1    1    2    0    0 -1.7121209825e+03 +1.0007301123e+03 -4.1763774639e+03 4.6233048502e+03 0.0000000000e+00 0.0000e+00 -1.0000e+00
       13  1    1    2    0    0 +1.7121209825e+03 -1.0007301123e+03 +1.8518664294e+03 2.7133426412e+03 0.0000000000e+00 0.0000e+00 1.0000e+00
<mgrwt>
<rscale>  0 0.69586669E+04</rscale>
<asrwt>0</asrwt>
<pdfrwt beam="1">  1        2 0.38554896E+00 0.69586669E+04</pdfrwt>
<pdfrwt beam="2">  1       -2 0.74316604E+00 0.69586669E+04</pdfrwt>
<totfact> 0.21768782E-04</totfact>
</mgrwt>
<rwgt>
<wgt id='morphing_basis_vector_1'> +2.1863999e-07 </wgt>
<wgt id='morphing_basis_vector_2'> +1.4894549e-07 </wgt>
<wgt id='morphing_basis_vector_3'> +2.4159594e-07 </wgt>
<wgt id='morphing_basis_vector_4'> +1.7494900e-07 </wgt>
<wgt id='morphing_basis_vector_5'> +2.7922391e-07 </wgt>
</rwgt>
</event>
<event>
 4      1 +6.9060000e-13 6.72978700e+03 7.81860800e-03 7.18654700e-02
        2 -1    0    0  501    0 +0.0000000000e+00 +0.0000000000e+00 +4.1592954701e+03 4.1592954701e+03 0.0000000000e+00 0.0000e+00 1.0000e+00
       -2 -1    0    0    0  501 -0.0000000000e+00 -0.0000000000e+00 -2.7222175232e+03 2.7222175232e+03 0.0000000000e+00 0.0000e+00 -1.0000e+00
      -13  1    1    2    0    0 -4.4998742747e+02 -1.0637806418e+03 -2.5131560157e+03 2.7658761899e+03 0.0000000000e+00 0.0000e+00 -1.0000e+00
       13  1    1    2    0    0 +4.4998742747e+02 +1.0637806418e+03 +3.9502339625e+03 4.1156368034e+03 0.0000000000e+00 0.0000e+00 1.0000e+00
<mgrwt>
<rscale>  0 0.67297866E+04</rscale>
<asrwt>0</asrwt>
<pdfrwt beam="1">  1        2 0.63989161E+00 0.67297866E+04</pdfrwt>
<pdfrwt beam="2">  1       -2 0.41880270E+00 0.67297866E+04</pdfrwt>
<totfact> 0.71074492E-04</totfact>
</mgrwt>
<rwgt>
<wgt id='morphing_basis_vector_1'> +1.9124063e-07 </wgt>
<wgt id='morphing_basis_vector_2'> +1.3011002e-07 </wgt>
<wgt id='morphing_basis_vector_3'> +2.1123752e-07 </wgt>
<wgt id='morphing_basis_vector_4'> +1.5315277e-07 </wgt>
<wgt id='morphing_basis_vector_5'> +2.4421758e-07 </wgt>
</rwgt>
</event>
<event>
 4      1 +6.9060000e-13 6.69395800e+03 7.81860800e-03 7.19000700e-02
        2 -1    0    0  501    0 +0.0000000000e+00 +0.0000000000e+00 +3.0309235845e+03 3.0309235845e+03 0.0000000000e+00 0.0000e+00 -1.0000e+00
       -2 -1    0    0    0  501 -0.0000000000e+00 -0.0000000000e+00 -3.6959921990e+03 3.6959921990e+03 0.0000000000e+00 0.0000e+00 1.0000e+00
      -13  1    1    2    0    0 -2.9305338244e+03 +3.3320387824e+02 -1.9224796461e+03 3.5206506942e+03 0.0000000000e+00 0.0000e+00 1.0000e+00
       13  1    1    2    0    0 +2.9305338244e+03 -3.3320387824e+02 +1.2574110316e+03 3.2062650893e+03 0.0000000000e+00 0.0000e+00 -1.0000e+00
<mgrwt>
<rscale>  0 0.66939584E+04</rscale>
<asrwt>0</asrwt>
<pdfrwt beam="1">  1        2 0.46629594E+00 0.66939584E+04</pdfrwt>
<pdfrwt beam="2">  1       -2 0.56861418E+00 0.66939584E+04</pdfrwt>
<totfact> 0.43042585E-04</totfact>
</mgrwt>
<rwgt>
<wgt id='morphing_basis_vector_1'> +1.8816779e-07 </wgt>
<wgt id='morphing_basis_vector_2'> +1.3018037e-07 </wgt>
<wgt id='morphing_basis_vector_3'> +2.0834728e-07 </wgt>
<wgt id='morphing_basis_vector_4'> +1.4785462e-07 </wgt>
<wgt id='morphing_basis_vector_5'> +2.3887602e-07 </wgt>
</rwgt>
</event>
<event>
 4      1 +6.9060000e-13 6.79045400e+03 7.81860800e-03 7.18073700e-02
        2 -1    0    0  501    0 +0.0000000000e+00 +0.0000000000e+00 +2.2944032097e+03 2.2944032097e+03 0.0000000000e+00 0.0000e+00 1.0000e+00
       -2 -1    0    0    0  501 -0.0000000000e+00 -0.0000000000e+00 -5.0242107508e+03 5.0242107508e+03 0.0000000000e+00 0.0000e+00 -1.0000e+00
      -13  1    1    2    0    0 +1.3254667954e+03 +1.9798740458e+03 -3.9718840300e+03 4.6316979835e+03 0.0000000000e+00 0.0000e+00 -1.0000e+00
       13  1    1    2    0    0 -1.3254667954e+03 -1.9798740458e+03 +1.2420764890e+03 2.6869159770e+03 0.0000000000e+00 0.0000e+00 1.0000e+00
<mgrwt>
<rscale>  0 0.67904537E+04</rscale>
<asrwt>0</asrwt>
<pdfrwt beam="1">  1        2 0.35298511E+00 0.67904537E+04</pdfrwt>
<pdfrwt beam="2">  1       -2 0.77295549E+00 0.67904537E+04</pdfrwt>
<totfact> 0.36399888E-04</totfact>
</mgrwt>
<rwgt>
<wgt id='morphing_basis_vector_1'> +1.9843742e-07 </wgt>
<wgt id='morphing_basis_vector_2'> +1.3550731e-07 </wgt>
<wgt id='morphing_basis_vector_3'> +2.1931733e-07 </wgt>
<wgt id='morphing_basis_vector_4'> +1.5828876e-07 </wgt>
<wgt id='morphing_basis_vector_5'> +2.5311961e-07 </wgt>
</rwgt>
</event>
<event>
 4      1 +6.9060000e-13 7.01449600e+03 7.81860800e-03 7.15979900e-02
        2 -1    0    0  501    0 +0.0000000000e+00 +0.0000000000e+00 +3.0957249857e+03 3.0957249857e+03 0.0000000000e+00 0.0000e+00 1.0000e+00
       -2 -1    0    0    0  501 -0.0000000000e+00 -0.0000000000e+00 -3.9734753803e+03 3.9734753803e+03 0.0000000000e+00 0.0000e+00 -1.0000e+00
      -13  1    1    2    0    0 -1.4544291824e+03 +1.4633493952e+03 -3.2971943705e+03 3.8895046492e+03 0.0000000000e+00 0.0000e+00 -1.0000e+00
       13  1    1    2    0    0 +1.4544291824e+03 -1.4633493952e+03 +2.4194439759e+03 3.1796957169e+03 0.0000000000e+00 0.0000e+00 1.0000e+00
<mgrwt>
<rscale>  0 0.70144956E+04</rscale>
<asrwt>0</asrwt>
<pdfrwt beam="1">  1        2 0.47626538E+00 0.70144956E+04</pdfrwt>
<pdfrwt beam="2">  1       -2 0.61130391E+00 0.70144956E+04</pdfrwt>
<totfact> 0.16320355E-04</totfact>
</mgrwt>
<rwgt>
<wgt id='morphing_basis_vector_1'> +2.2574401e-07 </wgt>
<wgt id='morphing_basis_vector_2'> +1.5382336e-07 </wgt>
<wgt id='morphing_basis_vector_3'> +2.4946633e-07 </wgt>
<wgt id='morphing_basis_vector_4'> +1.8060877e-07 </wgt>
<wgt id='morphing_basis_vector_5'> +2.8830533e-07 </wgt>
</rwgt>
</event>
<event>
 4      1 +6.9060000e-13 6.71564100e+03 7.81860800e-03 7.18791000e-02
        2 -1    0    0  501    0 +0.0000000000e+00 +0.0000000000e+00 +4.8550152007e+03 4.8550152007e+03 0.0000000000e+00 0.0000e+00 -1.0000e+00
       -2 -1    0    0    0  501 -0.0000000000e+00 -0.0000000000e+00 -2.3223324146e+03 2.3223324146e+03 0.0000000000e+00 0.0000e+00 1.0000e+00
      -13  1    1    2    0    0 -1.1380733019e+02 +3.2126343028e+03 +2.3030781961e+03 3.9545088759e+03 0.0000000000e+00 0.0000e+00 1.0000e+00
       13  1    1    2    0    0 +1.1380733019e+02 -3.2126343028e+03 +2.2960458996e+02 3.2228387394e+03 0.0000000000e+00 0.0000e+00 -1.0000e+00
<mgrwt>
<rscale>  0 0.67156412E+04</rscale>
<asrwt>0</asrwt>
<pdfrwt beam="1">  1        2 0.74692541E+00 0.67156412E+04</pdfrwt>
<pdfrwt beam="2">  1       -2 0.35728191E+00 0.67156412E+04</pdfrwt>
<totfact> 0.33258386E-04</totfact>
</mgrwt>
<rwgt>
<wgt id='morphing_basis_vector_1'> +2.0833495e-07 </wgt>
<wgt id='morphing_basis_vector_2'> +1.8387858e-07 </wgt>
<wgt id='morphing_basis_vector_3'> +2.4007809e-07 </wgt>
<wgt id='morphing_basis_vector_4'> +1.1180481e-07 </wgt>
<wgt id='morphing_basis_vector_5'> +2.3879230e-07 </wgt>
</rwgt>
</event>
<event>
 4      1 +6.9060000e-13 6.89454200e+03 7.81860800e-03 7.17091000e-02
        2 -1    0    0  501    0 +0.0000000000e+00 +0.0000000000e+00 +4.9648096659e+03 4.9648096659e+03 0.0000000000e+00 0.0000e+00 -1.0000e+00
       -2 -1    0    0    0  501 -0.0000000000e+00 -0.0000000000e+00 -2.3935816605e+03 2.3935816605e+03 0.0000000000e+00 0.0000e+00 1.0000e+00
      -13  1    1    2    0    0 +3.0040903817e+03 -1.6663848973e+03 +9.7947134174e+02 3.5722208438e+03 0.0000000000e+00 0.0000e+00 1.0000e+00
       13  1    1    2    0    0 -3.0040903817e+03 +1.6663848973e+03 +1.5917566637e+03 3.7861704826e+03 0.0000000000e+00 0.0000e+00 -1.0000e+00
<mgrwt>
<rscale>  0 0.68945420E+04</rscale>
<asrwt>0</asrwt>
<pdfrwt beam="1">  1        2 0.76381687E+00 0.68945420E+04</pdfrwt>
<pdfrwt beam="2">  1       -2 0.36824333E+00 0.68945420E+04</pdfrwt>
<totfact> 0.20239498E-04</totfact>
</mgrwt>
<rwgt>
<wgt id='morphing_basis_vector_1'> +2.1634015e-07 </wgt>
<wgt id='morphing_basis_vector_2'> +1.6007008e-07 </wgt>
<wgt id='morphing_basis_vector_3'> +2.4204653e-07 </wgt>
<wgt id='morphing_basis_vector_4'> +1.5649797e-07 </wgt>
<wgt id='morphing_basis_vector_5'> +2.6803853e-07 </wgt>
</rwgt>
</event>
<event>
 4      1 +6.9060000e-13 7.06676100e+03 7.81860800e-03 7.15502800e-02
        2 -1    0    0  501    0 +0.0000000000e+00 +0.0000000000e+00 +2.5163868219e+03 2.5163868219e+03 0.0000000000e+00 0.0000e+00 -1.0000e+00
       -2 -1    0    0    0  501 -0.0000000000e+00 -0.0000000000e+00 -4.9613903049e+03 4.9613903049e+03 0.0000000000e+00 0.0000e+00 1.0000e+00
      -13  1    1    2    0    0 -3.5252539644e+03 +1.7259830300e+02 -1.3982059945e+03 3.7963384584e+03 0.0000000000e+00 0.0000e+00 1.0000e+00
       13  1    1    2    0    0 +3.5252539644e+03 -1.7259830300e+02 -1.0467974886e+03 3.6814386684e+03 0.0000000000e+00 0.0000e+00 -1.0000e+00
<mgrwt>
<rscale>  0 0.70667608E+04</rscale>
<asrwt>0</asrwt>
<pdfrwt beam="1">  1        2 0.38713643E+00 0.70667608E+04</pdfrwt>
<pdfrwt beam="2">  1       -2 0.76329082E+00 0.70667608E+04</pdfrwt>
<totfact> 0.25673457E-04</totfact>
</mgrwt>
<rwgt>
<wgt id='morphing_basis_vector_1'> +2.3964542e-07 </wgt>
<wgt id='morphing_basis_vector_2'> +1.7931643e-07 </wgt>
<wgt id='morphing_basis_vector_3'> +2.6863763e-07 </wgt>
<wgt id='morphing_basis_vector_4'> +1.7081500e-07 </wgt>
<wgt id='morphing_basis_vector_5'> +2.9572356e-07 </wgt>
</rwgt>
</event>
<event>
 4      1 +6.9060000e-13 7.54007400e+03 7.81860800e-03 7.11362800e-02
        2 -1    0    0  501    0 +0.0000000000e+00 +0.0000000000e+00 +2.7390489177e+03 2.7390489177e+03 0.0000000000e+00 0.0000e+00 -1.0000e+00
       -2 -1    0    0    0  501 -0.0000000000e+00 -0.0000000000e+00 -5.1890930258e+03 5.1890930258e+03 0.0000000000e+00 0.0000e+00 1.0000e+00
      -13  1    1    2    0    0 -2.5452766991e+03 -1.9018700295e+02 -4.1424556060e+03 4.8656492906e+03 0.0000000000e+00 0.0000e+00 1.0000e+00
       13  1    1    2    0    0 +2.5452766991e+03 +1.9018700295e+02 +1.6924114979e+03 3.0624926529e+03 0.0000000000e+00 0.0000e+00 -1.0000e+00
<mgrwt>
<rscale>  0 0.75400742E+04</rscale>
<asrwt>0</asrwt>
<pdfrwt beam="1">  1        2 0.42139214E+00 0.75400742E+04</pdfrwt>
<pdfrwt beam="2">  1       -2 0.79832201E+00 0.75400742E+04</pdfrwt>
<totfact> 0.18216310E-04</totfact>
</mgrwt>
<rwgt>
<wgt id='morphing_basis_vector_1'> +3.0140370e-07 </wgt>
<wgt id='morphing_basis_vector_2'> +2.0576457e-07 </wgt>
<wgt id='morphing_basis_vector_3'> +3.3329559e-07 </wgt>
<wgt id='morphing_basis_vector_4'> +2.4092009e-07 </wgt>
<wgt id='morphing_basis_vector_5'> +3.8505915e-07 </wgt>
</rwgt>
</event>
<event>
 4      1 +6.9060000e-13 6.77265900e+03 7.81860800e-03 7.18243500e-02
        2 -1    0    0  501    0 +0.0000000000e+00 +0.0000000000e+00 +2.3223750339e+03 2.3223750339e+03 0.0000000000e+00 0.0000e+00 1.0000e+00
       -2 -1    0    0    0  501 -0.0000000000e+00 -0.0000000000e+00 -4.9377157098e+03 4.9377157098e+03 0.0000000000e+00 0.0000e+00 -1.0000e+00
      -13  1    1    2    0    0 +1.7559407801e+03 +2.1232401816e+03 -3.4180508020e+03 4.3902788268e+03 0.0000000000e+00 0.0000e+00 -1.0000e+00
       13  1    1    2    0    0 -1.7559407801e+03 -2.1232401816e+03 +8.0271012609e+02 2.8698119170e+03 0.0000000000e+00 0.0000e+00 1.0000e+00
<mgrwt>
<rscale>  0 0.67726591E+04</rscale>
<asrwt>0</asrwt>
<pdfrwt beam="1">  1        2 0.35728847E+00 0.67726591E+04</pdfrwt>
<pdfrwt beam="2">  1       -2 0.75964857E+00 0.67726591E+04</pdfrwt>
<totfact> 0.33303714E-04</totfact>
</mgrwt>
<rwgt>
<wgt id='morphing_basis_vector_1'> +1.9670148e-07 </wgt>
<wgt id='morphing_basis_vector_2'> +1.3506846e-07 </wgt>
<wgt id='morphing_basis_vector_3'> +2.1757184e-07 </wgt>
<wgt id='morphing_basis_vector_4'> +1.5592118e-07 </wgt>
<wgt id='morphing_basis_vector_5'> +2.5041227e-07 </wgt>
</rwgt>
</event>
<event>
 4      1 +6.9060000e-13 6.82720800e+03 7.81860800e-03 7.17724600e-02
        2 -1    0    0  501    0 +0.0000000000e+00 +0.0000000000e+00 +3.6601062797e+03 3.6601062797e+03 0.0000000000e+00 0.0000e+00 -1.0000e+00
       -2 -1    0    0    0  501 -0.0000000000e+00 -0.0000000000e+00 -3.1837035900e+03 3.1837035900e+03 0.0000000000e+00 0.0000e+00 1.0000e+00
      -13  1    1    2    0    0 +1.4854065777e+03 -1.2259374433e+03 -2.5870448900e+03 3.2252374454e+03 0.0000000000e+00 0.0000e+00 1.0000e+00
       13  1    1    2    0    0 -1.4854065777e+03 +1.2259374433e+03 +3.0634475797e+03 3.6185724243e+03 0.0000000000e+00 0.0000e+00 -1.0000e+00
<mgrwt>
<rscale>  0 0.68272084E+04</rscale>
<asrwt>0</asrwt>
<pdfrwt beam="1">  1        2 0.56309327E+00 0.68272084E+04</pdfrwt>
<pdfrwt beam="2">  1       -2 0.48980055E+00 0.68272084E+04</pdfrwt>
<totfact> 0.57917249E-04</totfact>
</mgrwt>
<rwgt>
<wgt id='morphing_basis_vector_1'> +2.0260364e-07 </wgt>
<wgt id='morphing_basis_vector_2'> +1.3800124e-07 </wgt>
<wgt id='morphing_basis_vector_3'> +2.2384614e-07 </wgt>
<wgt id='morphing_basis_vector_4'> +1.6208687e-07 </wgt>
<wgt id='morphing_basis_vector_5'> +2.5868247e-07 </wgt>
</rwgt>
</event>
<event>
 4      1 +6.9060000e-13 6.83565700e+03 7.81860800e-03 7.17644700e-02
        2 -1    0    0  501    0 +0.0000000000e+00 +0.0000000000e+00 +2.0311697983e+03 2.0311697983e+03 0.0000000000e+00 0.0000e+00 1.0000e+00
       -2 -1    0    0    0  501 -0.0000000000e+00 -0.0000000000e+00 -5.7511440745e+03 5.7511440745e+03 0.0000000000e+00 0.0000e+00 -1.0000e+00
      -13  1    1    2    0    0 -2.2051629580e+02 +2.6554605738e+03 -4.2968442893e+03 5.0559834990e+03 0.0000000000e+00 0.0000e+00 -1.0000e+00
       13  1    1    2    0    0 +2.2051629580e+02 -2.6554605738e+03 +5.7687001305e+02 2.7263303739e+03 0.0000000000e+00 0.0000e+00 1.0000e+00
<mgrwt>
<rscale>  0 0.68356566E+04</rscale>
<asrwt>0</asrwt>
<pdfrwt beam="1">  1        2 0.31248767E+00 0.68356566E+04</pdfrwt>
<pdfrwt beam="2">  1       -2 0.88479138E+00 0.68356566E+04</pdfrwt>
<totfact> 0.14628954E-04</totfact>
</mgrwt>
<rwgt>
<wgt id='morphing_basis_vector_1'> +2.0396771e-07 </wgt>
<wgt id='morphing_basis_vector_2'> +1.3974487e-07 </wgt>
<wgt id='morphing_basis_vector_3'> +2.2554765e-07 </wgt>
<wgt id='morphing_basis_vector_4'> +1.6211783e-07 </wgt>
<wgt id='morphing_basis_vector_5'> +2.5990220e-07 </wgt>
</rwgt>
</event>
<event>
 4      1 +6.9060000e-13 6.99570100e+03 7.81860800e-03 7.16152500e-02
        2 -1    0    0  501    0 +0.0000000000e+00 +0.0000000000e+00 +3.1710926477e+03 3.1710926477e+03 0.0000000000e+00 0.0000e+00 -1.0000e+00
       -2 -1    0    0    0  501 -0.0000000000e+00 -0.0000000000e+00 -3.8582781571e+03 3.8582781571e+03 0.0000000000e+00 0.0000e+00 1.0000e+00
      -13  1    1    2    0    0 +2.2690738017e+03 +2.0596186007e+03 -2.0381950694e+03 3.6803483312e+03 0.0000000000e+00 0.0000e+00 1.0000e+00
       13  1    1    2    0    0 -2.2690738017e+03 -2.0596186007e+03 +1.3510095600e+03 3.3490224737e+03 0.0000000000e+00 0.0000e+00 -1.0000e+00
<mgrwt>
<rscale>  0 0.69957008E+04</rscale>
<asrwt>0</asrwt>
<pdfrwt beam="1">  1        2 0.48786041E+00 0.69957008E+04</pdfrwt>
<pdfrwt beam="2">  1       -2 0.59358125E+00 0.69957008E+04</pdfrwt>
<totfact> 0.21660815E-04</totfact>
</mgrwt>
<rwgt>
<wgt id='morphing_basis_vector_1'> +2.2433575e-07 </wgt>
<wgt id='morphing_basis_vector_2'> +1.5510926e-07 </wgt>
<wgt id='morphing_basis_vector_3'> +2.4843835e-07 </wgt>
<wgt id='morphing_basis_vector_4'> +1.7653902e-07 </wgt>
<wgt id='morphing_basis_vector_5'> +2.8504258e-07 </wgt>
</rwgt>
</event>
<event>
 4      1 +6.9060000e-13 7.12651800e+03 7.81860800e-03 7.14962400e-02
        2 -1    0    0  501    0 +0.0000000000e+00 +0.0000000000e+00 +3.0253331440e+03 3.0253331440e+03 0.0000000000e+00 0.0000e+00 1.0000e+00
       -2 -1    0    0    0  501 -0.0000000000e+00 -0.0000000000e+00 -4.1968321997e+03 4.1968321997e+03 0.0000000000e+00 0.0000e+00 -1.0000e+00
      -13  1    1    2    0    0 +1.1603258697e+03 -3.2776481199e+03 +2.0412264831e+02 3.4829584232e+03 0.0000000000e+00 0.0000e+00 1.0000e+00
       13  1    1    2    0    0 -1.1603258697e+03 +3.2776481199e+03 -1.3756217040e+03 3.7392069205e+03 0.0000000000e+00 0.0000e+00 -1.0000e+00
<mgrwt>
<rscale>  0 0.71265182E+04</rscale>
<asrwt>0</asrwt>
<pdfrwt beam="1">  1        2 0.46543587E+00 0.71265182E+04</pdfrwt>
<pdfrwt beam="2">  1       -2 0.64566649E+00 0.71265182E+04</pdfrwt>
<totfact> 0.58790070E-05</totfact>
</mgrwt>
<rwgt>
<wgt id='morphing_basis_vector_1'> +2.5923994e-07 </wgt>
<wgt id='morphing_basis_vector_2'> +2.1890062e-07 </wgt>
<wgt id='morphing_basis_vector_3'> +2.9652879e-07 </wgt>
<wgt id='morphing_basis_vector_4'> +1.5222788e-07 </wgt>
<wgt id='morphing_basis_vector_5'> +3.0380903e-07 </wgt>
</rwgt>
</event>
<event>
 4      1 +6.9060000e-13 6.90631300e+03 7.81860800e-03 7.16980900e-02
        2 -1    0    0  501    0 +0.0000000000e+00 +0.0000000000e+00 +4.6013248228e+03 4.6013248228e+03 0.0000000000e+00 0.0000e+00 1.0000e+00
       -2 -1    0    0    0  501 -0.0000000000e+00 -0.0000000000e+00 -2.5914908318e+03 2.5914908318e+03 0.0000000000e+00 0.0000e+00 -1.0000e+00
      -13  1    1    2    0    0 +1.8928734256e+03 -1.3417087281e+03 +3.6685803611e+03 4.3406951036e+03 0.0000000000e+00 0.0000e+00 1.0000e+00
       13  1    1    2    0    0 -1.8928734256e+03 +1.3417087281e+03 -1.6587463702e+03 2.8521205510e+03 0.0000000000e+00 0.0000e+00 -1.0000e+00
<mgrwt>
<rscale>  0 0.69063134E+04</rscale>
<asrwt>0</asrwt>
<pdfrwt beam="1">  1        2 0.70789613E+00 0.69063134E+04</pdfrwt>
<pdfrwt beam="2">  1       -2 0.39869090E+00 0.69063134E+04</pdfrwt>
<totfact> 0.34792121E-04</totfact>
</mgrwt>
<rwgt>
<wgt id='morphing_basis_vector_1'> +2.7755924e-07 </wgt>
<wgt id='morphing_basis_vector_2'> +3.3646457e-07 </wgt>
<wgt id='morphing_basis_vector_3'> +3.4158473e-07 </wgt>
<wgt id='morphing_basis_vector_4'> +2.9496235e-08 </wgt>
<wgt id='morphing_basis_vector_5'> +2.5908408e-07 </wgt>
</rwgt>
</event>
<event>
 4      1 +6.9060000e-13 6.70904500e+03 7.81860800e-03 7.18854700e-02
        2 -1    0    0  501    0 +0.0000000000e+00 +0.0000000000e+00 +3.9274344047e+03 3.9274344047e+03 0.0000000000e+00 0.0000e+00 1.0000e+00
       -2 -1    0    0    0  501 -0.0000000000e+00 -0.0000000000e+00 -2.8651834469e+03 2.8651834469e+03 0.0000000000e+00 0.0000e+00 -1.0000e+00
      -13  1    1    2    0    0 -2.8432460710e+03 -1.7688968214e+03 +3.2920224721e+02 3.3647315353e+03 0.0000000000e+00 0.0000e+00 -1.0000e+00
       13  1    1    2    0    0 +2.8432460710e+03 +1.7688968214e+03 +7.3304871059e+02 3.4278863163e+03 0.0000000000e+00 0.0000e+00 1.0000e+00
<mgrwt>
<rscale>  0 0.67090447E+04</rscale>
<asrwt>0</asrwt>
<pdfrwt beam="1">  1        2 0.60422068E+00 0.67090447E+04</pdfrwt>
<pdfrwt beam="2">  1       -2 0.44079745E+00 0.67090447E+04</pdfrwt>
<totfact> 0.80412506E-04</totfact>
</mgrwt>
<rwgt>
<wgt id='morphing_basis_vector_1'> +1.9449084e-07 </wgt>
<wgt id='morphing_basis_vector_2'> +1.4492657e-07 </wgt>
<wgt id='morphing_basis_vector_3'> +2.1780328e-07 </wgt>
<wgt id='morphing_basis_vector_4'> +1.3928484e-07 </wgt>
<wgt id='morphing_basis_vector_5'> +2.4020579e-07 </wgt>
</rwgt>
</event>
<event>
 4      1 +6.9060000e-13 6.82983600e+03 7.81860800e-03 7.17699800e-02
        2 -1    0    0  501    0 +0.0000000000e+00 +0.0000000000e+00 +3.5256968050e+03 3.5256968050e+03 0.0000000000e+00 0.0000e+00 -1.0000e+00
       -2 -1    0    0    0  501 -0.0000000000e+00 -0.0000000000e+00 -3.3076194545e+03 3.3076194545e+03 0.0000000000e+00 0.0000e+00 1.0000e+00
      -13  1    1    2    0    0 +2.4679183528e+03 +2.2702315174e+03 -5.3711644655e+02 3.3960368396e+03 0.0000000000e+00 0.0000e+00 1.0000e+00
       13  1    1    2    0    0 -2.4679183528e+03 -2.2702315174e+03 +7.5519379704e+02 3.4372794198e+03 0.0000000000e+00 0.0000e+00 -1.0000e+00
<mgrwt>
<rscale>  0 0.68298355E+04</rscale>
<asrwt>0</asrwt>
<pdfrwt beam="1">  1        2 0.54241489E+00 0.68298355E+04</pdfrwt>
<pdfrwt beam="2">  1       -2 0.50886453E+00 0.68298355E+04</pdfrwt>
<totfact> 0.52639299E-04</totfact>
</mgrwt>
<rwgt>
<wgt id='morphing_basis_vector_1'> +2.0650816e-07 </wgt>
<wgt id='morphing_basis_vector_2'> +1.4875706e-07 </wgt>
<wgt id='morphing_basis_vector_3'> +2.3007642e-07 </wgt>
<wgt id='morphing_basis_vector_4'> +1.5463514e-07 </wgt>
<wgt id='morphing_basis_vector_5'> +2.5843261e-07 </wgt>
</rwgt>
</event>
<event>
 4      1 +6.9060000e-13 7.16399700e+03 7.81860800e-03 7.14626200e-02
        2 -1    0    0  501    0 +0.0000000000e+00 +0.0000000000e+00 +2.7226407030e+03 2.7226407030e+03 0.0000000000e+00 0.0000e+00 -1.0000e+00
       -2 -1    0    0    0  501 -0.0000000000e+00 -0.0000000000e+00 -4.7125986282e+03 4.7125986282e+03 0.0000000000e+00 0.0000e+00 1.0000e+00
      -13  1    1    2    0    0 -2.2232583646e+03 +2.1414845270e+03 -2.8808854231e+03 4.2223612536e+03 0.0000000000e+00 0.0000e+00 1.0000e+00
       13  1    1    2    0    0 +2.2232583646e+03 -2.1414845270e+03 +8.9092749783e+02 3.2128780776e+03 0.0000000000e+00 0.0000e+00 -1.0000e+00
<mgrwt>
<rscale>  0 0.71639969E+04</rscale>
<asrwt>0</asrwt>
<pdfrwt beam="1">  1        2 0.41886781E+00 0.71639969E+04</pdfrwt>
<pdfrwt beam="2">  1       -2 0.72501516E+00 0.71639969E+04</pdfrwt>
<totfact> 0.11246898E-04</totfact>
</mgrwt>
<rwgt>
<wgt id='morphing_basis_vector_1'> +2.4652728e-07 </wgt>
<wgt id='morphing_basis_vector_2'> +1.7013455e-07 </wgt>
<wgt id='morphing_basis_vector_3'> +2.7297540e-07 </wgt>
<wgt id='morphing_basis_vector_4'> +1.9449798e-07 </wgt>
<wgt id='morphing_basis_vector_5'> +3.1355147e-07 </wgt>
</rwgt>
</event>
<event>
 4      1 +6.9060000e-13 7.64782900e+03 7.81860800e-03 7.10462800e-02
        2 -1    0    0  501    0 +0.0000000000e+00 +0.0000000000e+00 +4.8760815454e+03 4.8760815454e+03 0.0000000000e+00 0.0000e+00 1.0000e+00
       -2 -1    0    0    0  501 -0.0000000000e+00 -0.0000000000e+00 -2.9987851381e+03 2.9987851381e+03 0.0000000000e+00 0.0000e+00 -1.0000e+00
      -13  1    1    2    0    0 +2.8900963691e+03 +2.4076279427e+03 +1.6468087788e+03 4.1062523652e+03 0.0000000000e+00 0.0000e+00 -1.0000e+00
       13  1    1    2    0    0 -2.8900963691e+03 -2.4076279427e+03 +2.3048762860e+02 3.7686143183e+03 0.0000000000e+00 0.0000e+00 1.0000e+00
<mgrwt>
<rscale>  0 0.76478287E+04</rscale>
<asrwt>0</asrwt>
<pdfrwt beam="1">  1        2 0.75016639E+00 0.76478287E+04</pdfrwt>
<pdfrwt beam="2">  1       -2 0.46135156E+00 0.76478287E+04</pdfrwt>
<totfact> 0.59517987E-05</totfact>
</mgrwt>
<rwgt>
<wgt id='morphing_basis_vector_1'> +3.4064083e-07 </wgt>
<wgt id='morphing_basis_vector_2'> +2.8132456e-07 </wgt>
<wgt id='morphing_basis_vector_3'> +3.8831729e-07 </wgt>
<wgt id='morphing_basis_vector_4'> +2.0851361e-07 </wgt>
<wgt id='morphing_basis_vector_5'> +4.0365636e-07 </wgt>
</rwgt>
</event>
<event>
 4      1 +6.9060000e-13 6.88428200e+03 7.81860800e-03 7.17187000e-02
        2 -1    0    0  501    0 +0.0000000000e+00 +0.0000000000e+00 +2.9735683779e+03 2.9735683779e+03 0.0000000000e+00 0.0000e+00 -1.0000e+00
       -2 -1    0    0    0  501 -0.0000000000e+00 -0.0000000000e+00 -3.9845504389e+03 3.9845504389e+03 0.0000000000e+00 0.0000e+00 1.0000e+00
      -13  1    1    2    0    0 +1.2204154437e+03 -2.6089233824e+03 +1.3995155321e+03 3.2022708810e+03 0.0000000000e+00 0.0000e+00 1.0000e+00
       13  1    1    2    0    0 -1.2204154437e+03 +2.6089233824e+03 -2.4104975931e+03 3.7558479358e+03 0.0000000000e+00 0.0000e+00 -1.0000e+00
<mgrwt>
<rscale>  0 0.68842816E+04</rscale>
<asrwt>0</asrwt>
<pdfrwt beam="1">  1        2 0.45747206E+00 0.68842816E+04</pdfrwt>
<pdfrwt beam="2">  1       -2 0.61300776E+00 0.68842816E+04</pdfrwt>
<totfact> 0.18971497E-04</totfact>
</mgrwt>
<rwgt>
<wgt id='morphing_basis_vector_1'> +2.5312845e-07 </wgt>
<wgt id='morphing_basis_vector_2'> +2.7083461e-07 </wgt>
<wgt id='morphing_basis_vector_3'> +3.0298164e-07 </wgt>
<wgt id='morphing_basis_vector_4'> +7.3951554e-08 </wgt>
<wgt id='morphing_basis_vector_5'> +2.5956651e-07 </wgt>
</rwgt>
</event>
<event>
 4      1 +6.9060000e-13 6.72936000e+03 7.81860800e-03 7.18658800e-02
        2 -1    0    0  501    0 +0.0000000000e+00 +0.0000000000e+00 +3.1787915219e+03 3.1787915219e+03 0.0000000000e+00 0.0000e+00 1.0000e+00
       -2 -1    0    0    0  501 -0.0000000000e+00 -0.0000000000e+00 -3.5614393048e+03 3.5614393048e+03 0.0000000000e+00 0.0000e+00 -1.0000e+00
      -13  1    1    2    0    0 -1.8861779225e+03 -1.6501692734e+02 +2.5945671652e+03 3.2119583616e+03 0.0000000000e+00 0.0000e+00 1.0000e+00
       13  1    1    2    0    0 +1.8861779225e+03 +1.6501692734e+02 -2.9772149481e+03 3.5282724652e+03 0.0000000000e+00 0.0000e+00 -1.0000e+00
<mgrwt>
<rscale>  0 0.67293605E+04</rscale>
<asrwt>0</asrwt>
<pdfrwt beam="1">  1        2 0.48904485E+00 0.67293605E+04</pdfrwt>
<pdfrwt beam="2">  1       -2 0.54791374E+00 0.67293605E+04</pdfrwt>
<totfact> 0.48239337E-04</totfact>
</mgrwt>
<rwgt>
<wgt id='morphing_basis_vector_1'> +2.5676914e-07 </wgt>
<wgt id='morphing_basis_vector_2'> +3.2251171e-07 </wgt>
<wgt id='morphing_basis_vector_3'> +3.1856735e-07 </wgt>
<wgt id='morphing_basis_vector_4'> +1.2577164e-08 </wgt>
<wgt id='morphing_basis_vector_5'> +2.3231637e-07 </wgt>
</rwgt>
</event>
<event>
 4      1 +6.9060000e-13 6.93798500e+03 7.81860800e-03 7.16686000e-02
        2 -1    0    0  501    0 +0.0000000000e+00 +0.0000000000e+00 +2.2683984826e+03 2.2683984826e+03 0.0000000000e+00 0.0000e+00 1.0000e+00
       -2 -1    0    0    0  501 -0.0000000000e+00 -0.0000000000e+00 -5.3050241876e+03 5.3050241876e+03 0.0000000000e+00 0.0000e+00 -1.0000e+00
      -13  1    1    2    0    0 +1.8991109699e+03 -2.8255791739e+03 -7.9145223502e+02 3.4952706310e+03 0.0000000000e+00 0.0000e+00 -1.0000e+00
       13  1    1    2    0    0 -1.8991109699e+03 +2.8255791739e+03 -2.2451734700e+03 4.0781520391e+03 0.0000000000e+00 0.0000e+00 1.0000e+00
<mgrwt>
<rscale>  0 0.69379850E+04</rscale>
<asrwt>0</asrwt>
<pdfrwt beam="1">  1        2 0.34898439E+00 0.69379850E+04</pdfrwt>
<pdfrwt beam="2">  1       -2 0.81615755E+00 0.69379850E+04</pdfrwt>
<totfact> 0.32493650E-04</totfact>
</mgrwt>
<rwgt>
<wgt id='morphing_basis_vector_1'> +2.3147096e-07 </wgt>
<wgt id='morphing_basis_vector_2'> +1.9241447e-07 </wgt>
<wgt id='morphing_basis_vector_3'> +2.6399463e-07 </wgt>
<wgt id='morphing_basis_vector_4'> +1.3982693e-07 </wgt>
<wgt id='morphing_basis_vector_5'> +2.7312868e-07 </wgt>
</rwgt>
</event>
<event>
 4      1 +6.9060000e-13 6.75364300e+03 7.81860800e-03 7.18425500e-02
        2 -1    0    0  501    0 +0.0000000000e+00 +0.0000000000e+00 +2.1505439193e+03 2.1505439193e+03 0.0000000000e+00 0.0000e+00 -1.0000e+00
       -2 -1    0    0    0  501 -0.0000000000e+00 -0.0000000000e+00 -5.3023444800e+03 5.3023444800e+03 0.0000000000e+00 0.0000e+00 1.0000e+00
      -13  1    1    2    0    0 +5.5067309876e+02 +8.8848572282e+02 -5.1193123487e+03 5.2249408288e+03 0.0000000000e+00 0.0000e+00 1.0000e+00
       13  1    1    2    0    0 -5.5067309876e+02 -8.8848572282e+02 +1.9675117880e+03 2.2279475706e+03 0.0000000000e+00 0.0000e+00 -1.0000e+00
<mgrwt>
<rscale>  0 0.67536434E+04</rscale>
<asrwt>0</asrwt>
<pdfrwt beam="1">  1        2 0.33085291E+00 0.67536434E+04</pdfrwt>
<pdfrwt beam="2">  1       -2 0.81574530E+00 0.67536434E+04</pdfrwt>
<totfact> 0.38561860E-04</totfact>
</mgrwt>
<rwgt>
<wgt id='morphing_basis_vector_1'> +1.9395910e-07 </wgt>
<wgt id='morphing_basis_vector_2'> +1.3195538e-07 </wgt>
<wgt id='morphing_basis_vector_3'> +2.1424391e-07 </wgt>
<wgt id='morphing_basis_vector_4'> +1.5534567e-07 </wgt>
<wgt id='morphing_basis_vector_5'> +2.4770560e-07 </wgt>
</rwgt>
</event>
<event>
 4      1 +6.9060000e-13 7.37485500e+03 7.81860800e-03 7.12772400e-02
        2 -1    0    0  501    0 +0.0000000000e+00 +0.0000000000e+00 +4.0803849992e+03 4.0803849992e+03 0.0000000000e+00 0.0000e+00 1.0000e+00
       -2 -1    0    0    0  501 -0.0000000000e+00 -0.0000000000e+00 -3.3323137577e+03 3.3323137577e+03 0.0000000000e+00 0.0000e+00 -1.0000e+00
      -13  1    1    2    0    0 +1.6535222402e+03 +3.0931906627e+03 -7.6985460973e+02 3.5909108030e+03 0.0000000000e+00 0.0000e+00 -1.0000e+00
       13  1    1    2    0    0 -1.6535222402e+03 -3.0931906627e+03 +1.5179258512e+03 3.8217879539e+03 0.0000000000e+00 0.0000e+00 1.0000e+00
<mgrwt>
<rscale>  0 0.73748554E+04</rscale>
<asrwt>0</asrwt>
<pdfrwt beam="1">  1        2 0.62775154E+00 0.73748554E+04</pdfrwt>
<pdfrwt beam="2">  1       -2 0.51266366E+00 0.73748554E+04</pdfrwt>
<totfact> 0.16995413E-04</totfact>
</mgrwt>
<rwgt>
<wgt id='morphing_basis_vector_1'> +2.7866987e-07 </wgt>
<wgt id='morphing_basis_vector_2'> +1.9651487e-07 </wgt>
<wgt id='morphing_basis_vector_3'> +3.0961166e-07 </wgt>
<wgt id='morphing_basis_vector_4'> +2.1447030e-07 </wgt>
<wgt id='morphing_basis_vector_5'> +3.5185294e-07 </wgt>
</rwgt>
</event>
<event>
 4      1 +6.9060000e-13 6.84759700e+03 7.81860800e-03 7.17532000e-02
        2 -1    0    0  501    0 +0.0000000000e+00 +0.0000000000e+00 +4.2092274219e+03 4.2092274219e+03 0.0000000000e+00 0.0000e+00 -1.0000e+00
       -2 -1    0    0    0  501 -0.0000000000e+00 -0.0000000000e+00 -2.7849284440e+03 2.7849284440e+03 0.0000000000e+00 0.0000e+00 1.0000e+00
      -13  1    1    2    0    0 -2.5822860737e+03 +2.2342033154e+03 +4.5673471806e+02 3.4450649375e+03 0.0000000000e+00 0.0000e+00 1.0000e+00
       13  1    1    2    0    0 +2.5822860737e+03 -2.2342033154e+03 +9.6756425987e+02 3.5490909284e+03 0.0000000000e+00 0.0000e+00 -1.0000e+00
<mgrwt>
<rscale>  0 0.68475973E+04</rscale>
<asrwt>0</asrwt>
<pdfrwt beam="1">  1        2 0.64757345E+00 0.68475973E+04</pdfrwt>
<pdfrwt beam="2">  1       -2 0.42845053E+00 0.68475973E+04</pdfrwt>
<totfact> 0.54717975E-04</totfact>
</mgrwt>
<rwgt>
<wgt id='morphing_basis_vector_1'> +2.1073267e-07 </wgt>
<wgt id='morphing_basis_vector_2'> +1.5638861e-07 </wgt>
<wgt id='morphing_basis_vector_3'> +2.3587288e-07 </wgt>
<wgt id='morphing_basis_vector_4'> +1.5181170e-07 </wgt>
<wgt id='morphing_basis_vector_5'> +2.6076182e-07 </wgt>
</rwgt>
</event>
<event>
 4      1 +6.9060000e-13 7.02680400e+03 7.81860800e-03 7.15867200e-02
        2 -1    0    0  501    0 +0.0000000000e+00 +0.0000000000e+00 +2.2152985611e+03 2.2152985611e+03 0.0000000000e+00 0.0000e+00 -1.0000e+00
       -2 -1    0    0    0  501 -0.0000000000e+00 -0.0000000000e+00 -5.5721583981e+03 5.5721583981e+03 0.0000000000e+00 0.0000e+00 1.0000e+00
      -13  1    1    2    0    0 +1.8390244679e+03 -1.7556136301e+03 -4.3657490185e+03 5.0521237816e+03 0.0000000000e+00 0.0000e+00 1.0000e+00
       13  1    1    2    0    0 -1.8390244679e+03 +1.7556136301e+03 +1.0088891816e+03 2.7353331776e+03 0.0000000000e+00 0.0000e+00 -1.0000e+00
<mgrwt>
<rscale>  0 0.70268042E+04</rscale>
<asrwt>0</asrwt>
<pdfrwt beam="1">  1        2 0.34081517E+00 0.70268042E+04</pdfrwt>
<pdfrwt beam="2">  1       -2 0.85725512E+00 0.70268042E+04</pdfrwt>
<totfact> 0.20314975E-04</totfact>
</mgrwt>
<rwgt>
<wgt id='morphing_basis_vector_1'> +2.2753725e-07 </wgt>
<wgt id='morphing_basis_vector_2'> +1.5551323e-07 </wgt>
<wgt id='morphing_basis_vector_3'> +2.5156140e-07 </wgt>
<wgt id='morphing_basis_vector_4'> +1.8143744e-07 </wgt>
<wgt id='morphing_basis_vector_5'> +2.9030010e-07 </wgt>
</rwgt>
</event>
<event>
 4      1 +6.9060000e-13 6.76758900e+03 7.81860800e-03 7.18291900e-02
        2 -1    0    0  501    0 +0.0000000000e+00 +0.0000000000e+00 +4.0197390168e+03 4.0197390168e+03 0.0000000000e+00 0.0000e+00 1.0000e+00
       -2 -1    0    0    0  501 -0.0000000000e+00 -0.0000000000e+00 -2.8484594653e+03 2.8484594653e+03 0.0000000000e+00 0.0000e+00 -1.0000e+00
      -13  1    1    2    0    0 -4.3820960128e+01 +1.5236181566e+03 -2.4803204631e+03 2.9112406570e+03 0.0000000000e+00 0.0000e+00 -1.0000e+00
       13  1    1    2    0    0 +4.3820960128e+01 -1.5236181566e+03 +3.6516000145e+03 3.9569578251e+03 0.0000000000e+00 0.0000e+00 1.0000e+00
<mgrwt>
<rscale>  0 0.67675885E+04</rscale>
<asrwt>0</asrwt>
<pdfrwt beam="1">  1        2 0.61842139E+00 0.67675885E+04</pdfrwt>
<pdfrwt beam="2">  1       -2 0.43822453E+00 0.67675885E+04</pdfrwt>
<totfact> 0.69657082E-04</totfact>
</mgrwt>
<rwgt>
<wgt id='morphing_basis_vector_1'> +1.9558371e-07 </wgt>
<wgt id='morphing_basis_vector_2'> +1.3310821e-07 </wgt>
<wgt id='morphing_basis_vector_3'> +2.1605239e-07 </wgt>
<wgt id='morphing_basis_vector_4'> +1.5659081e-07 </wgt>
<wgt id='morphing_basis_vector_5'> +2.4975769e-07 </wgt>
</rwgt>
</event>
<event>
 4      1 +6.9060000e-13 7.37969400e+03 7.81860800e-03 7.12730500e-02
        2 -1    0    0  501    0 +0.0000000000e+00 +0.0000000000e+00 +3.6894075081e+03 3.6894075081e+03 0.0000000000e+00 0.0000e+00 -1.0000e+00
       -2 -1    0    0    0  501 -0.0000000000e+00 -0.0000000000e+00 -3.6902865798e+03 3.6902865798e+03 0.0000000000e+00 0.0000e+00 1.0000e+00
      -13  1    1    2    0    0 +3.2611156048e+03 -1.3388126328e+03 -1.0902453799e+03 3.6899768620e+03 0.0000000000e+00 0.0000e+00 1.0000e+00
       13  1    1    2    0    0 -3.2611156048e+03 +1.3388126328e+03 +1.0893663083e+03 3.6897172259e+03 0.0000000000e+00 0.0000e+00 -1.0000e+00
<mgrwt>
<rscale>  0 0.73796940E+04</rscale>
<asrwt>0</asrwt>
<pdfrwt beam="1">  1        2 0.56760116E+00 0.73796940E+04</pdfrwt>
<pdfrwt beam="2">  1       -2 0.56773640E+00 0.73796940E+04</pdfrwt>
<totfact> 0.14176993E-04</totfact>
</mgrwt>
<rwgt>
<wgt id='morphing_basis_vector_1'> +2.7957916e-07 </wgt>
<wgt id='morphing_basis_vector_2'> +1.9755402e-07 </wgt>
<wgt id='morphing_basis_vector_3'> +3.1071754e-07 </wgt>
<wgt id='morphing_basis_vector_4'> +2.1465186e-07 </wgt>
<wgt id='morphing_basis_vector_5'> +3.5274632e-07 </wgt>
</rwgt>
</event>
<event>
 4      1 +6.9060000e-13 6.88674900e+03 7.81860800e-03 7.17163900e-02
        2 -1    0    0  501    0 +0.0000000000e+00 +0.0000000000e+00 +3.8105635534e+03 3.8105635534e+03 0.0000000000e+00 0.0000e+00 1.0000e+00
       -2 -1    0    0    0  501 -0.0000000000e+00 -0.0000000000e+00 -3.1115684769e+03 3.1115684769e+03 0.0000000000e+00 0.0000e+00 -1.0000e+00
      -13  1    1    2    0    0 +6.8414443309e+02 +3.0697640055e+03 -1.0596055330e+03 3.3187751567e+03 0.0000000000e+00 0.0000e+00 -1.0000e+00
       13  1    1    2    0    0 -6.8414443309e+02 -3.0697640055e+03 +1.7586006094e+03 3.6033568736e+03 0.0000000000e+00 0.0000e+00 1.0000e+00
<mgrwt>
<rscale>  0 0.68867494E+04</rscale>
<asrwt>0</asrwt>
<pdfrwt beam="1">  1        2 0.58624055E+00 0.68867494E+04</pdfrwt>
<pdfrwt beam="2">  1       -2 0.47870284E+00 0.68867494E+04</pdfrwt>
<totfact> 0.53117871E-04</totfact>
</mgrwt>
<rwgt>
<wgt id='morphing_basis_vector_1'> +2.1116620e-07 </wgt>
<wgt id='morphing_basis_vector_2'> +1.4702618e-07 </wgt>
<wgt id='morphing_basis_vector_3'> +2.3407432e-07 </wgt>
<wgt id='morphing_basis_vector_4'> +1.6479267e-07 </wgt>
<wgt id='morphing_basis_vector_5'> +2.6758535e-07 </wgt>
</rwgt>
</event>
<event>
 4      1 +6.9060000e-13 7.22295800e+03 7.81860800e-03 7.14101400e-02
        2 -1    0    0  501    0 +0.0000000000e+00 +0.0000000000e+00 +2.1289771840e+03 2.1289771840e+03 0.0000000000e+00 0.0000e+00 -1.0000e+00
       -2 -1    0    0    0  501 -0.0000000000e+00 -0.0000000000e+00 -6.1263134612e+03 6.1263134612e+03 0.0000000000e+00 0.0000e+00 1.0000e+00
      -13  1    1    2    0    0 -1.0444427176e+03 +2.5469141930e+03 -4.6705562558e+03 5.4214138594e+03 0.0000000000e+00 0.0000e+00 1.0000e+00
       13  1    1    2    0    0 +1.0444427176e+03 -2.5469141930e+03 +6.7321997860e+02 2.8338767857e+03 0.0000000000e+00 0.0000e+00 -1.0000e+00
<mgrwt>
<rscale>  0 0.72229583E+04</rscale>
<asrwt>0</asrwt>
<pdfrwt beam="1">  1        2 0.32753496E+00 0.72229583E+04</pdfrwt>
<pdfrwt beam="2">  1       -2 0.94250975E+00 0.72229583E+04</pdfrwt>
<totfact> 0.18407427E-05</totfact>
</mgrwt>
<rwgt>
<wgt id='morphing_basis_vector_1'> +2.5410836e-07 </wgt>
<wgt id='morphing_basis_vector_2'> +1.7397544e-07 </wgt>
<wgt id='morphing_basis_vector_3'> +2.8105229e-07 </wgt>
<wgt id='morphing_basis_vector_4'> +2.0232528e-07 </wgt>
<wgt id='morphing_basis_vector_5'> +3.2413079e-07 </wgt>
</rwgt>
</event>
<event>
 4      1 +6.9060000e-13 6.87539300e+03 7.81860800e-03 7.17270400e-02
        2 -1    0    0  501    0 +0.0000000000e+00 +0.0000000000e+00 +3.3378344891e+03 3.3378344891e+03 0.0000000000e+00 0.0000e+00 1.0000e+00
       -2 -1    0    0    0  501 -0.0000000000e+00 -0.0000000000e+00 -3.5405466025e+03 3.5405466025e+03 0.0000000000e+00 0.0000e+00 -1.0000e+00
      -13  1    1    2    0    0 +1.5978644475e+03 -2.9505926764e+03 -8.4907004117e+02 3.4612263534e+03 0.0000000000e+00 0.0000e+00 -1.0000e+00
       13  1    1    2    0    0 -1.5978644475e+03 +2.9505926764e+03 +6.4635792777e+02 3.4171547383e+03 0.0000000000e+00 0.0000e+00 1.0000e+00
<mgrwt>
<rscale>  0 0.68753934E+04</rscale>
<asrwt>0</asrwt>
<pdfrwt beam="1">  1        2 0.51351300E+00 0.68753934E+04</pdfrwt>
<pdfrwt beam="2">  1       -2 0.54469948E+00 0.68753934E+04</pdfrwt>
<totfact> 0.39130861E-04</totfact>
</mgrwt>
<rwgt>
<wgt id='morphing_basis_vector_1'> +2.1166245e-07 </wgt>
<wgt id='morphing_basis_vector_2'> +1.5158559e-07 </wgt>
<wgt id='morphing_basis_vector_3'> +2.3561957e-07 </wgt>
<wgt id='morphing_basis_vector_4'> +1.5966952e-07 </wgt>
<wgt id='morphing_basis_vector_5'> +2.6548164e-07 </wgt>
</rwgt>
</event>
<event>
 4      1 +6.9060000e-13 7.09101200e+03 7.81860800e-03 7.15282900e-02
        2 -1    0    0  501    0 +0.0000000000e+00 +0.0000000000e+00 +3.8132747336e+03 3.8132747336e+03 0.0000000000e+00 0.0000e+00 1.0000e+00
       -2 -1    0    0    0  501 -0.0000000000e+00 -0.0000000000e+00 -3.2965399977e+03 3.2965399977e+03 0.0000000000e+00 0.0000e+00 -1.0000e+00
      -13  1    1    2    0    0 +2.8733348740e+03 +7.7645951118e+01 -1.8228366273e+03 3.4036473909e+03 0.0000000000e+00 0.0000e+00 -1.0000e+00
       13  1    1    2    0    0 -2.8733348740e+03 -7.7645951118e+01 +2.3395713632e+03 3.7061673405e+03 0.0000000000e+00 0.0000e+00 1.0000e+00
<mgrwt>
<rscale>  0 0.70910120E+04</rscale>
<asrwt>0</asrwt>
<pdfrwt beam="1">  1        2 0.58665765E+00 0.70910120E+04</pdfrwt>
<pdfrwt beam="2">  1       -2 0.50716000E+00 0.70910120E+04</pdfrwt>
<totfact> 0.31939147E-04</totfact>
</mgrwt>
<rwgt>
<wgt id='morphing_basis_vector_1'> +2.3628550e-07 </wgt>
<wgt id='morphing_basis_vector_2'> +1.6224370e-07 </wgt>
<wgt id='morphing_basis_vector_3'> +2.6142483e-07 </wgt>
<wgt id='morphing_basis_vector_4'> +1.8746076e-07 </wgt>
<wgt id='morphing_basis_vector_5'> +3.0101445e-07 </wgt>
</rwgt>
</event>
<event>
 4      1 +6.9060000e-13 6.79765300e+03 7.81860800e-03 7.18005100e-02
        2 -1    0    0  501    0 +0.0000000000e+00 +0.0000000000e+00 +3.6704349257e+03 3.6704349257e+03 0.0000000000e+00 0.0000e+00 -1.0000e+00
       -2 -1    0    0    0  501 -0.0000000000e+00 -0.0000000000e+00 -3.1473168181e+03 3.1473168181e+03 0.0000000000e+00 0.0000e+00 1.0000e+00
      -13  1    1    2    0    0 +1.5422307962e+03 +8.3555241831e+02 -2.6583023678e+03 3.1848383242e+03 0.0000000000e+00 0.0000e+00 1.0000e+00
       13  1    1    2    0    0 -1.5422307962e+03 -8.3555241831e+02 +3.1814204754e+03 3.6329134195e+03 0.0000000000e+00 0.0000e+00 -1.0000e+00
<mgrwt>
<rscale>  0 0.67976530E+04</rscale>
<asrwt>0</asrwt>
<pdfrwt beam="1">  1        2 0.56468229E+00 0.67976530E+04</pdfrwt>
<pdfrwt beam="2">  1       -2 0.48420259E+00 0.67976530E+04</pdfrwt>
<totfact> 0.62725947E-04</totfact>
</mgrwt>
<rwgt>
<wgt id='morphing_basis_vector_1'> +1.9909855e-07 </wgt>
<wgt id='morphing_basis_vector_2'> +1.3555355e-07 </wgt>
<wgt id='morphing_basis_vector_3'> +2.1995357e-07 </wgt>
<wgt id='morphing_basis_vector_4'> +1.5934858e-07 </wgt>
<wgt id='morphing_basis_vector_5'> +2.5422916e-07 </wgt>
</rwgt>
</event>
<event>
 4      1 +6.9060000e-13 6.68986200e+03 7.81860800e-03 7.19040400e-02
        2 -1    0    0  501    0 +0.0000000000e+00 +0.0000000000e+00 +3.3911377558e+03 3.3911377558e+03 0.0000000000e+00 0.0000e+00 -1.0000e+00
       -2 -1    0    0    0  501 -0.0000000000e+00 -0.0000000000e+00 -3.2993540306e+03 3.2993540306e+03 0.0000000000e+00 0.0000e+00 1.0000e+00
      -13  1    1    2    0    0 -1.0227974310e+03 -2.9973088145e+03 -1.0305873030e+03 3.3304781794e+03 0.0000000000e+00 0.0000e+00 1.0000e+00
       13  1    1    2    0    0 +1.0227974310e+03 +2.9973088145e+03 +1.1223710283e+03 3.3600136070e+03 0.0000000000e+00 0.0000e+00 -1.0000e+00
<mgrwt>
<rscale>  0 0.66898622E+04</rscale>
<asrwt>0</asrwt>
<pdfrwt beam="1">  1        2 0.52171350E+00 0.66898622E+04</pdfrwt>
<pdfrwt beam="2">  1       -2 0.50759293E+00 0.66898622E+04</pdfrwt>
<totfact> 0.68026287E-04</totfact>
</mgrwt>
<rwgt>
<wgt id='morphing_basis_vector_1'> +1.8869676e-07 </wgt>
<wgt id='morphing_basis_vector_2'> +1.3276240e-07 </wgt>
<wgt id='morphing_basis_vector_3'> +2.0945594e-07 </wgt>
<wgt id='morphing_basis_vector_4'> +1.4537462e-07 </wgt>
<wgt id='morphing_basis_vector_5'> +2.3811243e-07 </wgt>
</rwgt>
</event>
<event>
 4      1 +6.9060000e-13 7.85054600e+03 7.81860800e-03 7.08809400e-02
        2 -1    0    0  501    0 +0.0000000000e+00 +0.0000000000e+00 +2.8712049210e+03 2.8712049210e+03 0.0000000000e+00 0.0000e+00 -1.0000e+00
       -2 -1    0    0    0  501 -0.0000000000e+00 -0.0000000000e+00 -5.3663079204e+03 5.3663079204e+03 0.0000000000e+00 0.0000e+00 1.0000e+00
      -13  1    1    2    0    0 -1.7486882934e+03 +2.3366662595e+03 -4.0017871492e+03 4.9530011451e+03 0.0000000000e+00 0.0000e+00 1.0000e+00
       13  1    1    2    0    0 +1.7486882934e+03 -2.3366662595e+03 +1.5066841499e+03 3.2845116963e+03 0.0000000000e+00 0.0000e+00 -1.0000e+00
<mgrwt>
<rscale>  0 0.78505464E+04</rscale>
<asrwt>0</asrwt>
<pdfrwt beam="1">  1        2 0.44172384E+00 0.78505464E+04</pdfrwt>
<pdfrwt beam="2">  1       -2 0.82558582E+00 0.78505464E+04</pdfrwt>
<totfact> 0.12122549E-04</totfact>
</mgrwt>
<rwgt>
<wgt id='morphing_basis_vector_1'> +3.5435208e-07 </wgt>
<wgt id='morphing_basis_vector_2'> +2.4247141e-07 </wgt>
<wgt id='morphing_basis_vector_3'> +3.9205452e-07 </wgt>
<wgt id='morphing_basis_vector_4'> +2.8267710e-07 </wgt>
<wgt id='morphing_basis_vector_5'> +4.5256145e-07 </wgt>
</rwgt>
</event>
<event>
 4      1 +6.9060000e-13 7.53021900e+03 7.81860800e-03 7.11445800e-02
        2 -1    0    0  501    0 +0.0000000000e+00 +0.0000000000e+00 +3.9884836049e+03 3.9884836049e+03 0.0000000000e+00 0.0000e+00 1.0000e+00
       -2 -1    0    0    0  501 -0.0000000000e+00 -0.0000000000e+00 -3.5542450736e+03 3.5542450736e+03 0.0000000000e+00 0.0000e+00 -1.0000e+00
      -13  1    1    2    0    0 -1.5763342931e+03 +2.7844428080e+03 -1.7706413650e+03 3.6569280002e+03 0.0000000000e+00 0.0000e+00 -1.0000e+00
       13  1    1    2    0    0 +1.5763342931e+03 -2.7844428080e+03 +2.2048798963e+03 3.8858006784e+03 0.0000000000e+00 0.0000e+00 1.0000e+00
<mgrwt>
<rscale>  0 0.75302186E+04</rscale>
<asrwt>0</asrwt>
<pdfrwt beam="1">  1        2 0.61361286E+00 0.75302186E+04</pdfrwt>
<pdfrwt beam="2">  1       -2 0.54680694E+00 0.75302186E+04</pdfrwt>
<totfact> 0.11368923E-04</totfact>
</mgrwt>
<rwgt>
<wgt id='morphing_basis_vector_1'> +3.0071317e-07 </wgt>
<wgt id='morphing_basis_vector_2'> +2.0727322e-07 </wgt>
<wgt id='morphing_basis_vector_3'> +3.3300074e-07 </wgt>
<wgt id='morphing_basis_vector_4'> +2.3777269e-07 </wgt>
<wgt id='morphing_basis_vector_5'> +3.8288779e-07 </wgt>
</rwgt>
</event>
<event>
 4      1 +6.9060000e-13 6.66537300e+03 7.81860800e-03 7.19278400e-02
        2 -1    0    0  501    0 +0.0000000000e+00 +0.0000000000e+00 +3.9651263304e+03 3.9651263304e+03 0.0000000000e+00 0.0000e+00 -1.0000e+00
       -2 -1    0    0    0  501 -0.0000000000e+00 -0.0000000000e+00 -2.8011212161e+03 2.8011212161e+03 0.0000000000e+00 0.0000e+00 1.0000e+00
      -13  1    1    2    0    0 +1.0651121584e+03 -1.9935322095e+02 -2.6172959271e+03 2.8327448856e+03 0.0000000000e+00 0.0000e+00 1.0000e+00
       13  1    1    2    0    0 -1.0651121584e+03 +1.9935322095e+02 +3.7813010415e+03 3.9335026608e+03 0.0000000000e+00 0.0000e+00 -1.0000e+00
<mgrwt>
<rscale>  0 0.66653731E+04</rscale>
<asrwt>0</asrwt>
<pdfrwt beam="1">  1        2 0.61001944E+00 0.66653731E+04</pdfrwt>
<pdfrwt beam="2">  1       -2 0.43094172E+00 0.66653731E+04</pdfrwt>
<totfact> 0.87516728E-04</totfact>
</mgrwt>
<rwgt>
<wgt id='morphing_basis_vector_1'> +1.8403477e-07 </wgt>
<wgt id='morphing_basis_vector_2'> +1.2519874e-07 </wgt>
<wgt id='morphing_basis_vector_3'> +2.0326397e-07 </wgt>
<wgt id='morphing_basis_vector_4'> +1.4736633e-07 </wgt>
<wgt id='morphing_basis_vector_5'> +2.3498526e-07 </wgt>
</rwgt>
</event>
<event>
 4      1 +6.9060000e-13 6.84245500e+03 7.81860800e-03 7.17580500e-02
        2 -1    0    0  501    0 +0.0000000000e+00 +0.0000000000e+00 +3.0582363270e+03 3.0582363270e+03 0.0000000000e+00 0.0000e+00 1.0000e+00
       -2 -1    0    0    0  501 -0.0000000000e+00 -0.0000000000e+00 -3.8273035947e+03 3.8273035947e+03 0.0000000000e+00 0.0000e+00 -1.0000e+00
      -13  1    1    2    0    0 -2.9715082642e+03 +1.0845780430e+03 -1.6960543815e+03 3.5892577729e+03 0.0000000000e+00 0.0000e+00 -1.0000e+00
       13  1    1    2    0    0 +2.9715082642e+03 -1.0845780430e+03 +9.2698711375e+02 3.2962821488e+03 0.0000000000e+00 0.0000e+00 1.0000e+00
<mgrwt>
<rscale>  0 0.68424554E+04</rscale>
<asrwt>0</asrwt>
<pdfrwt beam="1">  1        2 0.47049790E+00 0.68424554E+04</pdfrwt>
<pdfrwt beam="2">  1       -2 0.58881593E+00 0.68424554E+04</pdfrwt>
<totfact> 0.28563303E-04</totfact>
</mgrwt>
<rwgt>
<wgt id='morphing_basis_vector_1'> +2.0598282e-07 </wgt>
<wgt id='morphing_basis_vector_2'> +1.4383387e-07 </wgt>
<wgt id='morphing_basis_vector_3'> +2.2841828e-07 </wgt>
<wgt id='morphing_basis_vector_4'> +1.6018428e-07 </wgt>
<wgt id='morphing_basis_vector_5'> +2.6072207e-07 </wgt>
</rwgt>
</event>
<event>
 4      1 +6.9060000e-13 6.77646900e+03 7.81860800e-03 7.18207100e-02
        2 -1    0    0  501    0 +0.0000000000e+00 +0.0000000000e+00 +4.4344306500e+03 4.4344306500e+03 0.0000000000e+00 0.0000e+00 1.0000e+00
       -2 -1    0    0    0  501 -0.0000000000e+00 -0.0000000000e+00 -2.5888632667e+03 2.5888632667e+03 0.0000000000e+00 0.0000e+00 -1.0000e+00
      -13  1    1    2    0    0 +2.1151488859e+03 -2.5970776031e+03 +1.4527477389e+03 3.6509098700e+03 0.0000000000e+00 0.0000e+00 -1.0000e+00
       13  1    1    2    0    0 -2.1151488859e+03 +2.5970776031e+03 +3.9281964429e+02 3.3723840467e+03 0.0000000000e+00 0.0000e+00 1.0000e+00
<mgrwt>
<rscale>  0 0.67764695E+04</rscale>
<asrwt>0</asrwt>
<pdfrwt beam="1">  1        2 0.68222010E+00 0.67764695E+04</pdfrwt>
<pdfrwt beam="2">  1       -2 0.39828666E+00 0.67764695E+04</pdfrwt>
<totfact> 0.52813808E-04</totfact>
</mgrwt>
<rwgt>
<wgt id='morphing_basis_vector_1'> +2.0886632e-07 </wgt>
<wgt id='morphing_basis_vector_2'> +1.6977184e-07 </wgt>
<wgt id='morphing_basis_vector_3'> +2.3726075e-07 </wgt>
<wgt id='morphing_basis_vector_4'> +1.3114798e-07 </wgt>
<wgt id='morphing_basis_vector_5'> +2.4886048e-07 </wgt>
</rwgt>
</event>
<event>
 4      1 +6.9060000e-13 6.76255900e+03 7.81860800e-03 7.18340100e-02
        2 -1    0    0  501    0 +0.0000000000e+00 +0.0000000000e+00 +3.9312254381e+03 3.9312254381e+03 0.0000000000e+00 0.0000e+00 -1.0000e+00
       -2 -1    0    0    0  501 -0.0000000000e+00 -0.0000000000e+00 -2.9082661110e+03 2.9082661110e+03 0.0000000000e+00 0.0000e+00 1.0000e+00
      -13  1    1    2    0    0 -2.9008708307e+03 +1.5752515407e+03 +1.2523297041e+03 3.5305521778e+03 0.0000000000e+00 0.0000e+00 1.0000e+00
       13  1    1    2    0    0 +2.9008708307e+03 -1.5752515407e+03 -2.2937037696e+02 3.3089393712e+03 0.0000000000e+00 0.0000e+00 -1.0000e+00
<mgrwt>
<rscale>  0 0.67625586E+04</rscale>
<asrwt>0</asrwt>
<pdfrwt beam="1">  1        2 0.60480391E+00 0.67625586E+04</pdfrwt>
<pdfrwt beam="2">  1       -2 0.44742556E+00 0.67625586E+04</pdfrwt>
<totfact> 0.71590330E-04</totfact>
</mgrwt>
<rwgt>
<wgt id='morphing_basis_vector_1'> +2.1017023e-07 </wgt>
<wgt id='morphing_basis_vector_2'> +1.7721812e-07 </wgt>
<wgt id='morphing_basis_vector_3'> +2.4024864e-07 </wgt>
<wgt id='morphing_basis_vector_4'> +1.2362010e-07 </wgt>
<wgt id='morphing_basis_vector_5'> +2.4627624e-07 </wgt>
</rwgt>
</event>
<event>
 4      1 +6.9060000e-13 7.21807000e+03 7.81860800e-03 7.14144700e-02
        2 -1    0    0  501    0 +0.0000000000e+00 +0.0000000000e+00 +5.0297085262e+03 5.0297085262e+03 0.0000000000e+00 0.0000e+00 -1.0000e+00
       -2 -1    0    0    0  501 -0.0000000000e+00 -0.0000000000e+00 -2.5896400330e+03 2.5896400330e+03 0.0000000000e+00 0.0000e+00 1.0000e+00
      -13  1    1    2    0    0 +1.6942921697e+03 +2.2745114869e+03 -1.1358808365e+03 3.0552010957e+03 0.0000000000e+00 0.0000e+00 1.0000e+00
       13  1    1    2    0    0 -1.6942921697e+03 -2.2745114869e+03 +3.5759493297e+03 4.5641474635e+03 0.0000000000e+00 0.0000e+00 -1.0000e+00
<mgrwt>
<rscale>  0 0.72180703E+04</rscale>
<asrwt>0</asrwt>
<pdfrwt beam="1">  1        2 0.77380131E+00 0.72180703E+04</pdfrwt>
<pdfrwt beam="2">  1       -2 0.39840616E+00 0.72180703E+04</pdfrwt>
<totfact> 0.10333799E-04</totfact>
</mgrwt>
<rwgt>
<wgt id='morphing_basis_vector_1'> +2.5352209e-07 </wgt>
<wgt id='morphing_basis_vector_2'> +1.7379811e-07 </wgt>
<wgt id='morphing_basis_vector_3'> +2.8045601e-07 </wgt>
<wgt id='morphing_basis_vector_4'> +2.0156325e-07 </wgt>
<wgt id='morphing_basis_vector_5'> +3.2323490e-07 </wgt>
</rwgt>
</event>
<event>
 4      1 +6.9060000e-13 6.74404700e+03 7.81860800e-03 7.18517500e-02
        2 -1    0    0  501    0 +0.0000000000e+00 +0.0000000000e+00 +3.2237104872e+03 3.2237104872e+03 0.0000000000e+00 0.0000e+00 -1.0000e+00
       -2 -1    0    0    0  501 -0.0000000000e+00 -0.0000000000e+00 -3.5271601213e+03 3.5271601213e+03 0.0000000000e+00 0.0000e+00 1.0000e+00
      -13  1    1    2    0    0 +3.3581991571e+03 -1.3640226438e+02 +1.2138068868e+02 3.3631592927e+03 0.0000000000e+00 0.0000e+00 -1.0000e+00
       13  1    1    2    0    0 -3.3581991571e+03 +1.3640226438e+02 -4.2483032270e+02 3.3877113158e+03 0.0000000000e+00 0.0000e+00 1.0000e+00
<mgrwt>
<rscale>  0 0.67440472E+04</rscale>
<asrwt>0</asrwt>
<pdfrwt beam="1">  1        2 0.49595546E+00 0.67440472E+04</pdfrwt>
<pdfrwt beam="2">  1       -2 0.54264002E+00 0.67440472E+04</pdfrwt>
<totfact> 0.49038034E-04</totfact>
</mgrwt>
<rwgt>
<wgt id='morphing_basis_vector_1'> +2.0232000e-07 </wgt>
<wgt id='morphing_basis_vector_2'> +1.5896461e-07 </wgt>
<wgt id='morphing_basis_vector_3'> +2.2851893e-07 </wgt>
<wgt id='morphing_basis_vector_4'> +1.3419118e-07 </wgt>
<wgt id='morphing_basis_vector_5'> +2.4459050e-07 </wgt>
</rwgt>
</event>
<event>
 4      1 +6.9060000e-13 6.85275200e+03 7.81860800e-03 7.17483400e-02
        2 -1    0    0  501    0 +0.0000000000e+00 +0.0000000000e+00 +3.7746390925e+03 3.7746390925e+03 0.0000000000e+00 0.0000e+00 1.0000e+00
       -2 -1    0    0    0  501 -0.0000000000e+00 -0.0000000000e+00 -3.1102448848e+03 3.1102448848e+03 0.0000000000e+00 0.0000e+00 -1.0000e+00
      -13  1    1    2    0    0 +1.4188920047e+03 +4.6945695463e+02 -2.7655063252e+03 3.1435123012e+03 0.0000000000e+00 0.0000e+00 -1.0000e+00
       13  1    1    2    0    0 -1.4188920047e+03 -4.6945695463e+02 +3.4299005328e+03 3.7413716760e+03 0.0000000000e+00 0.0000e+00 1.0000e+00
<mgrwt>
<rscale>  0 0.68527518E+04</rscale>
<asrwt>0</asrwt>
<pdfrwt beam="1">  1        2 0.58071371E+00 0.68527518E+04</pdfrwt>
<pdfrwt beam="2">  1       -2 0.47849921E+00 0.68527518E+04</pdfrwt>
<totfact> 0.57078079E-04</totfact>
</mgrwt>
<rwgt>
<wgt id='morphing_basis_vector_1'> +2.0559415e-07 </wgt>
<wgt id='morphing_basis_vector_2'> +1.3992045e-07 </wgt>
<wgt id='morphing_basis_vector_3'> +2.2712739e-07 </wgt>
<wgt id='morphing_basis_vector_4'> +1.6464447e-07 </wgt>
<wgt id='morphing_basis_vector_5'> +2.6259186e-07 </wgt>
</rwgt>
</event>
<event>
 4      1 +6.9060000e-13 7.78224500e+03 7.81860800e-03 7.09360800e-02
        2 -1    0    0  501    0 +0.0000000000e+00 +0.0000000000e+00 +2.8157664672e+03 2.8157664672e+03 0.0000000000e+00 0.0000e+00 -1.0000e+00
       -2 -1    0    0    0  501 -0.0000000000e+00 -0.0000000000e+00 -5.3771627322e+03 5.3771627322e+03 0.0000000000e+00 0.0000e+00 1.0000e+00
      -13  1    1    2    0    0 +2.1900591745e+03 -2.4270721425e+03 -3.5024700187e+03 4.7910682113e+03 0.0000000000e+00 0.0000e+00 1.0000e+00
       13  1    1    2    0    0 -2.1900591745e+03 +2.4270721425e+03 +9.4107375367e+02 3.4018609882e+03 0.0000000000e+00 0.0000e+00 -1.0000e+00
<mgrwt>
<rscale>  0 0.77822451E+04</rscale>
<asrwt>0</asrwt>
<pdfrwt beam="1">  1        2 0.43319484E+00 0.77822451E+04</pdfrwt>
<pdfrwt beam="2">  1       -2 0.82725581E+00 0.77822451E+04</pdfrwt>
<totfact> 0.12970097E-04</totfact>
</mgrwt>
<rwgt>
<wgt id='morphing_basis_vector_1'> +3.4286633e-07 </wgt>
<wgt id='morphing_basis_vector_2'> +2.3611233e-07 </wgt>
<wgt id='morphing_basis_vector_3'> +3.7968879e-07 </wgt>
<wgt id='morphing_basis_vector_4'> +2.7151708e-07 </wgt>
<wgt id='morphing_basis_vector_5'> +4.3687518e-07 </wgt>
</rwgt>
</event>
<event>
 4      1 +6.9060000e-13 6.69598000e+03 7.81860800e-03 7.18981100e-02
        2 -1    0    0  501    0 +0.0000000000e+00 +0.0000000000e+00 +2.2706923008e+03 2.2706923008e+03 0.0000000000e+00 0.0000e+00 -1.0000e+00
       -2 -1    0    0    0  501 -0.0000000000e+00 -0.0000000000e+00 -4.9363959804e+03 4.9363959804e+03 0.0000000000e+00 0.0000e+00 1.0000e+00
      -13  1    1    2    0    0 -2.2684113453e+03 -2.3993496883e+03 -7.3700060844e+02 3.3831551627e+03 0.0000000000e+00 0.0000e+00 1.0000e+00
       13  1    1    2    0    0 +2.2684113453e+03 +2.3993496883e+03 -1.9287030711e+03 3.8239331185e+03 0.0000000000e+00 0.0000e+00 -1.0000e+00
<mgrwt>
<rscale>  0 0.66959798E+04</rscale>
<asrwt>0</asrwt>
<pdfrwt beam="1">  1        2 0.34933728E+00 0.66959798E+04</pdfrwt>
<pdfrwt beam="2">  1       -2 0.75944552E+00 0.66959798E+04</pdfrwt>
<totfact> 0.35796898E-04</totfact>
</mgrwt>
<rwgt>
<wgt id='morphing_basis_vector_1'> +1.9972339e-07 </wgt>
<wgt id='morphing_basis_vector_2'> +1.6358160e-07 </wgt>
<wgt id='morphing_basis_vector_3'> +2.2714781e-07 </wgt>
<wgt id='morphing_basis_vector_4'> +1.2375713e-07 </wgt>
<wgt id='morphing_basis_vector_5'> +2.3712019e-07 </wgt>
</rwgt>
</event>
<event>
 4      1 +6.9060000e-13 7.70998400e+03 7.81860800e-03 7.09950500e-02
        2 -1    0    0  501    0 +0.0000000000e+00 +0.0000000000e+00 +4.0389904229e+03 4.0389904229e+03 0.0000000000e+00 0.0000e+00 -1.0000e+00
       -2 -1    0    0    0  501 -0.0000000000e+00 -0.0000000000e+00 -3.6793760247e+03 3.6793760247e+03 0.0000000000e+00 0.0000e+00 1.0000e+00
      -13  1    1    2    0    0 +1.8868529502e+03 -1.3705170094e+03 -2.8931282838e+03 3.7160089068e+03 0.0000000000e+00 0.0000e+00 1.0000e+00
       13  1    1    2    0    0 -1.8868529502e+03 +1.3705170094e+03 +3.2527426820e+03 4.0023575408e+03 0.0000000000e+00 0.0000e+00 -1.0000e+00
<mgrwt>
<rscale>  0 0.77099843E+04</rscale>
<asrwt>0</asrwt>
<pdfrwt beam="1">  1        2 0.62138314E+00 0.77099843E+04</pdfrwt>
<pdfrwt beam="2">  1       -2 0.56605785E+00 0.77099843E+04</pdfrwt>
<totfact> 0.73801604E-05</totfact>
</mgrwt>
<rwgt>
<wgt id='morphing_basis_vector_1'> +3.2932429e-07 </wgt>
<wgt id='morphing_basis_vector_2'> +2.2453294e-07 </wgt>
<wgt id='morphing_basis_vector_3'> +3.6413984e-07 </wgt>
<wgt id='morphing_basis_vector_4'> +2.6370783e-07 </wgt>
<wgt id='morphing_basis_vector_5'> +4.2103419e-07 </wgt>
</rwgt>
</event>
<event>
 4      1 +6.9060000e-13 6.80593100e+03 7.81860800e-03 7.17926400e-02
        2 -1    0    0  501    0 +0.0000000000e+00 +0.0000000000e+00 +3.7822849509e+03 3.7822849509e+03 0.0000000000e+00 0.0000e+00 1.0000e+00
       -2 -1    0    0    0  501 -0.0000000000e+00 -0.0000000000e+00 -3.0616876688e+03 3.0616876688e+03 0.0000000000e+00 0.0000e+00 -1.0000e+00
      -13  1    1    2    0    0 +2.3100736235e+03 +2.4586333417e+03 -8.8127886248e+01 3.3747717819e+03 0.0000000000e+00 0.0000e+00 -1.0000e+00
       13  1    1    2    0    0 -2.3100736235e+03 -2.4586333417e+03 +8.0872516829e+02 3.4692008378e+03 0.0000000000e+00 0.0000e+00 1.0000e+00
<mgrwt>
<rscale>  0 0.68059313E+04</rscale>
<asrwt>0</asrwt>
<pdfrwt beam="1">  1        2 0.58188999E+00 0.68059313E+04</pdfrwt>
<pdfrwt beam="2">  1       -2 0.47102887E+00 0.68059313E+04</pdfrwt>
<totfact> 0.64074014E-04</totfact>
</mgrwt>
<rwgt>
<wgt id='morphing_basis_vector_1'> +2.0455208e-07 </wgt>
<wgt id='morphing_basis_vector_2'> +1.4937151e-07 </wgt>
<wgt id='morphing_basis_vector_3'> +2.2837071e-07 </wgt>
<wgt id='morphing_basis_vector_4'> +1.5051720e-07 </wgt>
<wgt id='morphing_basis_vector_5'> +2.5466226e-07 </wgt>
</rwgt>
</event>
<event>
 4      1 +6.9060000e-13 7.12348900e+03 7.81860800e-03 7.14989700e-02
        2 -1    0    0  501    0 +0.0000000000e+00 +0.0000000000e+00 +3.8268853739e+03 3.8268853739e+03 0.0000000000e+00 0.0000e+00 -1.0000e+00
       -2 -1    0    0    0  501 -0.0000000000e+00 -0.0000000000e+00 -3.3149734853e+03 3.3149734853e+03 0.0000000000e+00 0.0000e+00 1.0000e+00
      -13  1    1    2    0    0 +2.0014066218e+03 +1.4696847824e+03 -2.3041406609e+03 3.3874276391e+03 0.0000000000e+00 0.0000e+00 1.0000e+00
       13  1    1    2    0    0 -2.0014066218e+03 -1.4696847824e+03 +2.8160525494e+03 3.7544312201e+03 0.0000000000e+00 0.0000e+00 -1.0000e+00
<mgrwt>
<rscale>  0 0.71234889E+04</rscale>
<asrwt>0</asrwt>
<pdfrwt beam="1">  1        2 0.58875160E+00 0.71234889E+04</pdfrwt>
<pdfrwt beam="2">  1       -2 0.50999592E+00 0.71234889E+04</pdfrwt>
<totfact> 0.29592164E-04</totfact>
</mgrwt>
<rwgt>
<wgt id='morphing_basis_vector_1'> +2.4023701e-07 </wgt>
<wgt id='morphing_basis_vector_2'> +1.6406111e-07 </wgt>
<wgt id='morphing_basis_vector_3'> +2.6559106e-07 </wgt>
<wgt id='morphing_basis_vector_4'> +1.9178177e-07 </wgt>
<wgt id='morphing_basis_vector_5'> +3.0664814e-07 </wgt>
</rwgt>
</event>
<event>
 4      1 +6.9060000e-13 6.73898400e+03 7.81860800e-03 7.18566200e-02
        2 -1    0    0  501    0 +0.0000000000e+00 +0.0000000000e+00 +2.1169919827e+03 2.1169919827e+03 0.0000000000e+00 0.0000e+00 -1.0000e+00
       -2 -1    0    0    0  501 -0.0000000000e+00 -0.0000000000e+00 -5.3630233548e+03 5.3630233548e+03 0.0000000000e+00 0.0000e+00 1.0000e+00
      -13  1    1    2    0    0 -5.9809080041e+02 -2.0550669747e+03 -4.5115758178e+03 4.9935287359e+03 0.0000000000e+00 0.0000e+00 1.0000e+00
       13  1    1    2    0    0 +5.9809080041e+02 +2.0550669747e+03 +1.2655444458e+03 2.4864866017e+03 0.0000000000e+00 0.0000e+00 -1.0000e+00
<mgrwt>
<rscale>  0 0.67389843E+04</rscale>
<asrwt>0</asrwt>
<pdfrwt beam="1">  1        2 0.32569107E+00 0.67389843E+04</pdfrwt>
<pdfrwt beam="2">  1       -2 0.82508053E+00 0.67389843E+04</pdfrwt>
<totfact> 0.37095662E-04</totfact>
</mgrwt>
<rwgt>
<wgt id='morphing_basis_vector_1'> +1.9240811e-07 </wgt>
<wgt id='morphing_basis_vector_2'> +1.3117958e-07 </wgt>
<wgt id='morphing_basis_vector_3'> +2.1259395e-07 </wgt>
<wgt id='morphing_basis_vector_4'> +1.5373224e-07 </wgt>
<wgt id='morphing_basis_vector_5'> +2.4553579e-07 </wgt>
</rwgt>
</event>
<event>
 4      1 +6.9060000e-13 7.87135000e+03 7.81860800e-03 7.08642600e-02
        2 -1    0    0  501    0 +0.0000000000e+00 +0.0000000000e+00 +4.5470154506e+03 4.5470154506e+03 0.0000000000e+00 0.0000e+00 1.0000e+00
       -2 -1    0    0    0  501 -0.0000000000e+00 -0.0000000000e+00 -3.4065284417e+03 3.4065284417e+03 0.0000000000e+00 0.0000e+00 -1.0000e+00
      -13  1    1    2    0    0 -9.5452551745e+02 -2.2841695386e+03 -2.5212782465e+03 3.5334676227e+03 0.0000000000e+00 0.0000e+00 -1.0000e+00
       13  1    1    2    0    0 +9.5452551745e+02 +2.2841695386e+03 +3.6617652553e+03 4.4200762696e+03 0.0000000000e+00 0.0000e+00 1.0000e+00
<mgrwt>
<rscale>  0 0.78713499E+04</rscale>
<asrwt>0</asrwt>
<pdfrwt beam="1">  1        2 0.69954084E+00 0.78713499E+04</pdfrwt>
<pdfrwt beam="2">  1       -2 0.52408130E+00 0.78713499E+04</pdfrwt>
<totfact> 0.48016314E-05</totfact>
</mgrwt>
<rwgt>
<wgt id='morphing_basis_vector_1'> +3.5777317e-07 </wgt>
<wgt id='morphing_basis_vector_2'> +2.4403866e-07 </wgt>
<wgt id='morphing_basis_vector_3'> +3.9566001e-07 </wgt>
<wgt id='morphing_basis_vector_4'> +2.8642965e-07 </wgt>
<wgt id='morphing_basis_vector_5'> +4.5744629e-07 </wgt>
</rwgt>
</event>
<event>
 4      1 +6.9060000e-13 7.17851900e+03 7.81860800e-03 7.14496500e-02
        2 -1    0    0  501    0 +0.0000000000e+00 +0.0000000000e+00 +4.1010412634e+03 4.1010412634e+03 0.0000000000e+00 0.0000e+00 -1.0000e+00
       -2 -1    0    0    0  501 -0.0000000000e+00 -0.0000000000e+00 -3.1413444487e+03 3.1413444487e+03 0.0000000000e+00 0.0000e+00 1.0000e+00
      -13  1    1    2    0    0 +1.5313765327e+03 +3.1589260474e+03 +1.2340657453e+03 3.7211350582e+03 0.0000000000e+00 0.0000e+00 1.0000e+00
       13  1    1    2    0    0 -1.5313765327e+03 -3.1589260474e+03 -2.7436893060e+02 3.5212506539e+03 0.0000000000e+00 0.0000e+00 -1.0000e+00
<mgrwt>
<rscale>  0 0.71785188E+04</rscale>
<asrwt>0</asrwt>
<pdfrwt beam="1">  1        2 0.63092943E+00 0.71785188E+04</pdfrwt>
<pdfrwt beam="2">  1       -2 0.48328376E+00 0.71785188E+04</pdfrwt>
<totfact> 0.27401073E-04</totfact>
</mgrwt>
<rwgt>
<wgt id='morphing_basis_vector_1'> +2.6621475e-07 </wgt>
<wgt id='morphing_basis_vector_2'> +2.2341001e-07 </wgt>
<wgt id='morphing_basis_vector_3'> +3.0419489e-07 </wgt>
<wgt id='morphing_basis_vector_4'> +1.5814747e-07 </wgt>
<wgt id='morphing_basis_vector_5'> +3.1290744e-07 </wgt>
</rwgt>
</event>
<event>
 4      1 +6.9060000e-13 7.93239200e+03 7.81860800e-03 7.08155900e-02
        2 -1    0    0  501    0 +0.0000000000e+00 +0.0000000000e+00 +4.0785520254e+03 4.0785520254e+03 0.0000000000e+00 0.0000e+00 1.0000e+00
       -2 -1    0    0    0  501 -0.0000000000e+00 -0.0000000000e+00 -3.8569347812e+03 3.8569347812e+03 0.0000000000e+00 0.0000e+00 -1.0000e+00
      -13  1    1    2    0    0 +2.6420672036e+03 -9.4430731707e+02 +2.9151994028e+03 4.0460626509e+03 0.0000000000e+00 0.0000e+00 1.0000e+00
       13  1    1    2    0    0 -2.6420672036e+03 +9.4430731707e+02 -2.6935821586e+03 3.8894241556e+03 0.0000000000e+00 0.0000e+00 -1.0000e+00
<mgrwt>
<rscale>  0 0.79323916E+04</rscale>
<asrwt>0</asrwt>
<pdfrwt beam="1">  1        2 0.62746954E+00 0.79323916E+04</pdfrwt>
<pdfrwt beam="2">  1       -2 0.59337458E+00 0.79323916E+04</pdfrwt>
<totfact> 0.41129354E-05</totfact>
</mgrwt>
<rwgt>
<wgt id='morphing_basis_vector_1'> +4.7669152e-07 </wgt>
<wgt id='morphing_basis_vector_2'> +5.6767261e-07 </wgt>
<wgt id='morphing_basis_vector_3'> +5.8499420e-07 </wgt>
<wgt id='morphing_basis_vector_4'> +6.4144883e-08 </wgt>
<wgt id='morphing_basis_vector_5'> +4.5230353e-07 </wgt>
</rwgt>
</event>
<event>
 4      1 +6.9060000e-13 6.98390600e+03 7.81860800e-03 7.16261100e-02
        2 -1    0    0  501    0 +0.0000000000e+00 +0.0000000000e+00 +4.0944061810e+03 4.0944061810e+03 0.0000000000e+00 0.0000e+00 -1.0000e+00
       -2 -1    0    0    0  501 -0.0000000000e+00 -0.0000000000e+00 -2.9781450575e+03 2.9781450575e+03 0.0000000000e+00 0.0000e+00 1.0000e+00
      -13  1    1    2    0    0 +1.9582162685e+03 -8.0387664116e+02 -2.2543321056e+03 3.0923844927e+03 0.0000000000e+00 0.0000e+00 1.0000e+00
       13  1    1    2    0    0 -1.9582162685e+03 +8.0387664116e+02 +3.3705932291e+03 3.9801667458e+03 0.0000000000e+00 0.0000e+00 -1.0000e+00
<mgrwt>
<rscale>  0 0.69839059E+04</rscale>
<asrwt>0</asrwt>
<pdfrwt beam="1">  1        2 0.62990864E+00 0.69839059E+04</pdfrwt>
<pdfrwt beam="2">  1       -2 0.45817616E+00 0.69839059E+04</pdfrwt>
<totfact> 0.42905688E-04</totfact>
</mgrwt>
<rwgt>
<wgt id='morphing_basis_vector_1'> +2.2185475e-07 </wgt>
<wgt id='morphing_basis_vector_2'> +1.5120732e-07 </wgt>
<wgt id='morphing_basis_vector_3'> +2.4517034e-07 </wgt>
<wgt id='morphing_basis_vector_4'> +1.7743889e-07 </wgt>
<wgt id='morphing_basis_vector_5'> +2.8329808e-07 </wgt>
</rwgt>
</event>
<event>
 4      1 +6.9060000e-13 6.76279000e+03 7.81860800e-03 7.18337800e-02
        2 -1    0    0  501    0 +0.0000000000e+00 +0.0000000000e+00 +4.3495873546e+03 4.3495873546e+03 0.0000000000e+00 0.0000e+00 -1.0000e+00
       -2 -1    0    0    0  501 -0.0000000000e+00 -0.0000000000e+00 -2.6287165291e+03 2.6287165291e+03 0.0000000000e+00 0.0000e+00 1.0000e+00
      -13  1    1    2    0    0 +1.6864540223e+03 -2.8480551798e+03 +1.4681358361e+02 3.3131706423e+03 0.0000000000e+00 0.0000e+00 1.0000e+00
       13  1    1    2    0    0 -1.6864540223e+03 +2.8480551798e+03 +1.5740572419e+03 3.6651332414e+03 0.0000000000e+00 0.0000e+00 -1.0000e+00
<mgrwt>
<rscale>  0 0.67627900E+04</rscale>
<asrwt>0</asrwt>
<pdfrwt beam="1">  1        2 0.66916729E+00 0.67627900E+04</pdfrwt>
<pdfrwt beam="2">  1       -2 0.40441793E+00 0.67627900E+04</pdfrwt>
<totfact> 0.58494315E-04</totfact>
</mgrwt>
<rwgt>
<wgt id='morphing_basis_vector_1'> +1.9832291e-07 </wgt>
<wgt id='morphing_basis_vector_2'> +1.4239255e-07 </wgt>
<wgt id='morphing_basis_vector_3'> +2.2083217e-07 </wgt>
<wgt id='morphing_basis_vector_4'> +1.4909019e-07 </wgt>
<wgt id='morphing_basis_vector_5'> +2.4845439e-07 </wgt>
</rwgt>
</event>
<event>
 4      1 +6.9060000e-13 7.88657100e+03 7.81860800e-03 7.08520800e-02
        2 -1    0    0  501    0 +0.0000000000e+00 +0.0000000000e+00 +4.6360354517e+03 4.6360354517e+03 0.0000000000e+00 0.0000e+00 1.0000e+00
       -2 -1    0    0    0  501 -0.0000000000e+00 -0.0000000000e+00 -3.3540512996e+03 3.3540512996e+03 0.0000000000e+00 0.0000e+00 -1.0000e+00
      -13  1    1    2    0    0 -3.6148669027e+02 +2.7287471859e+03 -2.2196782288e+03 3.5360578716e+03 0.0000000000e+00 0.0000e+00 -1.0000e+00
       13  1    1    2    0    0 +3.6148669027e+02 -2.7287471859e+03 +3.5016623809e+03 4.4540288797e+03 0.0000000000e+00 0.0000e+00 1.0000e+00
<mgrwt>
<rscale>  0 0.78865711E+04</rscale>
<asrwt>0</asrwt>
<pdfrwt beam="1">  1        2 0.71323623E+00 0.78865711E+04</pdfrwt>
<pdfrwt beam="2">  1       -2 0.51600789E+00 0.78865711E+04</pdfrwt>
<totfact> 0.44079775E-05</totfact>
</mgrwt>
<rwgt>
<wgt id='morphing_basis_vector_1'> +3.6071635e-07 </wgt>
<wgt id='morphing_basis_vector_2'> +2.4643384e-07 </wgt>
<wgt id='morphing_basis_vector_3'> +3.9901069e-07 </wgt>
<wgt id='morphing_basis_vector_4'> +2.8828618e-07 </wgt>
<wgt id='morphing_basis_vector_5'> +4.6096836e-07 </wgt>
</rwgt>
</event>
<event>
 4      1 +6.9060000e-13 7.32236100e+03 7.81860800e-03 7.13228000e-02
        2 -1    0    0  501    0 +0.0000000000e+00 +0.0000000000e+00 +4.4261883321e+03 4.4261883321e+03 0.0000000000e+00 0.0000e+00 1.0000e+00
       -2 -1    0    0    0  501 -0.0000000000e+00 -0.0000000000e+00 -3.0283939598e+03 3.0283939598e+03 0.0000000000e+00 0.0000e+00 -1.0000e+00
      -13  1    1    2    0    0 +2.6249279518e+03 +2.2660161974e+03 -4.9668775170e+02 3.5031093162e+03 0.0000000000e+00 0.0000e+00 -1.0000e+00
       13  1    1    2    0    0 -2.6249279518e+03 -2.2660161974e+03 +1.8944821240e+03 3.9514729756e+03 0.0000000000e+00 0.0000e+00 1.0000e+00
<mgrwt>
<rscale>  0 0.73223608E+04</rscale>
<asrwt>0</asrwt>
<pdfrwt beam="1">  1        2 0.68095205E+00 0.73223608E+04</pdfrwt>
<pdfrwt beam="2">  1       -2 0.46590676E+00 0.73223608E+04</pdfrwt>
<totfact> 0.17960611E-04</totfact>
</mgrwt>
<rwgt>
<wgt id='morphing_basis_vector_1'> +2.7068044e-07 </wgt>
<wgt id='morphing_basis_vector_2'> +1.9053908e-07 </wgt>
<wgt id='morphing_basis_vector_3'> +3.0064241e-07 </wgt>
<wgt id='morphing_basis_vector_4'> +2.0874460e-07 </wgt>
<wgt id='morphing_basis_vector_5'> +3.4195444e-07 </wgt>
</rwgt>
</event>
<event>
 4      1 +6.9060000e-13 6.69536500e+03 7.81860800e-03 7.18987100e-02
        2 -1    0    0  501    0 +0.0000000000e+00 +0.0000000000e+00 +1.9191245647e+03 1.9191245647e+03 0.0000000000e+00 0.0000e+00 -1.0000e+00
       -2 -1    0    0    0  501 -0.0000000000e+00 -0.0000000000e+00 -5.8396305757e+03 5.8396305757e+03 0.0000000000e+00 0.0000e+00 1.0000e+00
      -13  1    1    2    0    0 +2.3520998979e+03 -1.3366031677e+03 -4.2452535117e+03 5.0339903989e+03 0.0000000000e+00 0.0000e+00 1.0000e+00
       13  1    1    2    0    0 -2.3520998979e+03 +1.3366031677e+03 +3.2474750067e+02 2.7247647416e+03 0.0000000000e+00 0.0000e+00 -1.0000e+00
<mgrwt>
<rscale>  0 0.66953651E+04</rscale>
<asrwt>0</asrwt>
<pdfrwt beam="1">  1        2 0.29524994E+00 0.66953651E+04</pdfrwt>
<pdfrwt beam="2">  1       -2 0.89840469E+00 0.66953651E+04</pdfrwt>
<totfact> 0.11968147E-04</totfact>
</mgrwt>
<rwgt>
<wgt id='morphing_basis_vector_1'> +1.8786611e-07 </wgt>
<wgt id='morphing_basis_vector_2'> +1.2894101e-07 </wgt>
<wgt id='morphing_basis_vector_3'> +2.0776991e-07 </wgt>
<wgt id='morphing_basis_vector_4'> +1.4896407e-07 </wgt>
<wgt id='morphing_basis_vector_5'> +2.3916020e-07 </wgt>
</rwgt>
</event>
<event>
 4      1 +6.9060000e-13 6.82021800e+03 7.81860800e-03 7.17790900e-02
        2 -1    0    0  501    0 +0.0000000000e+00 +0.0000000000e+00 +5.0541601552e+03 5.0541601552e+03 0.0000000000e+00 0.0000e+00 -1.0000e+00
       -2 -1    0    0    0  501 -0.0000000000e+00 -0.0000000000e+00 -2.3008459424e+03 2.3008459424e+03 0.0000000000e+00 0.0000e+00 1.0000e+00
      -13  1    1    2    0    0 +3.8132965220e+02 -1.1648720869e+03 -2.0550842900e+03 2.3928457371e+03 0.0000000000e+00 0.0000e+00 1.0000e+00
       13  1    1    2    0    0 -3.8132965220e+02 +1.1648720869e+03 +4.8083985028e+03 4.9621603606e+03 0.0000000000e+00 0.0000e+00 -1.0000e+00
<mgrwt>
<rscale>  0 0.68202181E+04</rscale>
<asrwt>0</asrwt>
<pdfrwt beam="1">  1        2 0.77756310E+00 0.68202181E+04</pdfrwt>
<pdfrwt beam="2">  1       -2 0.35397630E+00 0.68202181E+04</pdfrwt>
<totfact> 0.19068860E-04</totfact>
</mgrwt>
<rwgt>
<wgt id='morphing_basis_vector_1'> +2.0171131e-07 </wgt>
<wgt id='morphing_basis_vector_2'> +1.3724570e-07 </wgt>
<wgt id='morphing_basis_vector_3'> +2.2282393e-07 </wgt>
<wgt id='morphing_basis_vector_4'> +1.6156293e-07 </wgt>
<wgt id='morphing_basis_vector_5'> +2.5763465e-07 </wgt>
</rwgt>
</event>
<event>
 4      1 +6.9060000e-13 6.74286800e+03 7.81860800e-03 7.18528900e-02
        2 -1    0    0  501    0 +0.0000000000e+00 +0.0000000000e+00 +3.4535803923e+03 3.4535803923e+03 0.0000000000e+00 0.0000e+00 -1.0000e+00
       -2 -1    0    0    0  501 -0.0000000000e+00 -0.0000000000e+00 -3.2912419908e+03 3.2912419908e+03 0.0000000000e+00 0.0000e+00 1.0000e+00
      -13  1    1    2    0    0 +1.3995703145e+03 +1.4150833399e+03 -2.6408894402e+03 3.3068950633e+03 0.0000000000e+00 0.0000e+00 1.0000e+00
       13  1    1    2    0    0 -1.3995703145e+03 -1.4150833399e+03 +2.8032278416e+03 3.4379273198e+03 0.0000000000e+00 0.0000e+00 -1.0000e+00
<mgrwt>
<rscale>  0 0.67428685E+04</rscale>
<asrwt>0</asrwt>
<pdfrwt beam="1">  1        2 0.53132006E+00 0.67428685E+04</pdfrwt>
<pdfrwt beam="2">  1       -2 0.50634492E+00 0.67428685E+04</pdfrwt>
<totfact> 0.62439998E-04</totfact>
</mgrwt>
<rwgt>
<wgt id='morphing_basis_vector_1'> +1.9281112e-07 </wgt>
<wgt id='morphing_basis_vector_2'> +1.3136421e-07 </wgt>
<wgt id='morphing_basis_vector_3'> +2.1301868e-07 </wgt>
<wgt id='morphing_basis_vector_4'> +1.5417364e-07 </wgt>
<wgt id='morphing_basis_vector_5'> +2.4611059e-07 </wgt>
</rwgt>
</event>
<event>
 4      1 +6.9060000e-13 6.71886000e+03 7.81860800e-03 7.18760000e-02
        2 -1    0    0  501    0 +0.0000000000e+00 +0.0000000000e+00 +3.1963442503e+03 3.1963442503e+03 0.0000000000e+00 0.0000e+00 -1.0000e+00
       -2 -1    0    0    0  501 -0.0000000000e+00 -0.0000000000e+00 -3.5308363808e+03 3.5308363808e+03 0.0000000000e+00 0.0000e+00 1.0000e+00
      -13  1    1    2    0    0 -1.0107815392e+03 -7.5556794812e+01 -3.3740833434e+03 3.5230422304e+03 0.0000000000e+00 0.0000e+00 1.0000e+00
       13  1    1    2    0    0 +1.0107815392e+03 +7.5556794812e+01 +3.0395912129e+03 3.2041384007e+03 0.0000000000e+00 0.0000e+00 -1.0000e+00
<mgrwt>
<rscale>  0 0.67188596E+04</rscale>
<asrwt>0</asrwt>
<pdfrwt beam="1">  1        2 0.49174527E+00 0.67188596E+04</pdfrwt>
<pdfrwt beam="2">  1       -2 0.54320560E+00 0.67188596E+04</pdfrwt>
<totfact> 0.50809284E-04</totfact>
</mgrwt>
<rwgt>
<wgt id='morphing_basis_vector_1'> +1.9000064e-07 </wgt>
<wgt id='morphing_basis_vector_2'> +1.2925825e-07 </wgt>
<wgt id='morphing_basis_vector_3'> +2.0986384e-07 </wgt>
<wgt id='morphing_basis_vector_4'> +1.5216567e-07 </wgt>
<wgt id='morphing_basis_vector_5'> +2.4263313e-07 </wgt>
</rwgt>
</event>
<event>
 4      1 +6.9060000e-13 6.76980500e+03 7.81860800e-03 7.18270700e-02
        2 -1    0    0  501    0 +0.0000000000e+00 +0.0000000000e+00 +3.9619967999e+03 3.9619967999e+03 0.0000000000e+00 0.0000e+00 -1.0000e+00
       -2 -1    0    0    0  501 -0.0000000000e+00 -0.0000000000e+00 -2.8918660757e+03 2.8918660757e+03 0.0000000000e+00 0.0000e+00 1.0000e+00
      -13  1    1    2    0    0 -1.9360856984e+03 +1.3284143036e+03 -1.9333325481e+03 3.0415271058e+03 0.0000000000e+00 0.0000e+00 1.0000e+00
       13  1    1    2    0    0 +1.9360856984e+03 -1.3284143036e+03 +3.0034632723e+03 3.8123357698e+03 0.0000000000e+00 0.0000e+00 -1.0000e+00
<mgrwt>
<rscale>  0 0.67698048E+04</rscale>
<asrwt>0</asrwt>
<pdfrwt beam="1">  1        2 0.60953797E+00 0.67698048E+04</pdfrwt>
<pdfrwt beam="2">  1       -2 0.44490247E+00 0.67698048E+04</pdfrwt>
<totfact> 0.70190414E-04</totfact>
</mgrwt>
<rwgt>
<wgt id='morphing_basis_vector_1'> +1.9602494e-07 </wgt>
<wgt id='morphing_basis_vector_2'> +1.3382648e-07 </wgt>
<wgt id='morphing_basis_vector_3'> +2.1663908e-07 </wgt>
<wgt id='morphing_basis_vector_4'> +1.5639909e-07 </wgt>
<wgt id='morphing_basis_vector_5'> +2.5005210e-07 </wgt>
</rwgt>
</event>
<event>
 4      1 +6.9060000e-13 6.99935400e+03 7.81860800e-03 7.16118900e-02
        2 -1    0    0  501    0 +0.0000000000e+00 +0.0000000000e+00 +2.4664549054e+03 2.4664549054e+03 0.0000000000e+00 0.0000e+00 1.0000e+00
       -2 -1    0    0    0  501 -0.0000000000e+00 -0.0000000000e+00 -4.9657255950e+03 4.9657255950e+03 0.0000000000e+00 0.0000e+00 -1.0000e+00
      -13  1    1    2    0    0 +1.0425962399e+03 -2.0597874404e+02 -4.7902411627e+03 4.9067142325e+03 0.0000000000e+00 0.0000e+00 -1.0000e+00
       13  1    1    2    0    0 -1.0425962399e+03 +2.0597874404e+02 +2.2909704731e+03 2.5254662680e+03 0.0000000000e+00 0.0000e+00 1.0000e+00
<mgrwt>
<rscale>  0 0.69993538E+04</rscale>
<asrwt>0</asrwt>
<pdfrwt beam="1">  1        2 0.37945460E+00 0.69993538E+04</pdfrwt>
<pdfrwt beam="2">  1       -2 0.76395778E+00 0.69993538E+04</pdfrwt>
<totfact> 0.27694493E-04</totfact>
</mgrwt>
<rwgt>
<wgt id='morphing_basis_vector_1'> +2.2370747e-07 </wgt>
<wgt id='morphing_basis_vector_2'> +1.5221604e-07 </wgt>
<wgt id='morphing_basis_vector_3'> +2.4716070e-07 </wgt>
<wgt id='morphing_basis_vector_4'> +1.7925963e-07 </wgt>
<wgt id='morphing_basis_vector_5'> +2.8583751e-07 </wgt>
</rwgt>
</event>
<event>
 4      1 +6.9060000e-13 7.71047200e+03 7.81860800e-03 7.09946500e-02
        2 -1    0    0  501    0 +0.0000000000e+00 +0.0000000000e+00 +2.7657793249e+03 2.7657793249e+03 0.0000000000e+00 0.0000e+00 -1.0000e+00
       -2 -1    0    0    0  501 -0.0000000000e+00 -0.0000000000e+00 -5.3738355030e+03 5.3738355030e+03 0.0000000000e+00 0.0000e+00 1.0000e+00
      -13  1    1    2    0    0 -1.7085890530e+03 +7.2473472194e+02 -4.8712007734e+03 5.2127837039e+03 0.0000000000e+00 0.0000e+00 1.0000e+00
       13  1    1    2    0    0 +1.7085890530e+03 -7.2473472194e+02 +2.2631445952e+03 2.9268311240e+03 0.0000000000e+00 0.0000e+00 -1.0000e+00
<mgrwt>
<rscale>  0 0.77104716E+04</rscale>
<asrwt>0</asrwt>
<pdfrwt beam="1">  1        2 0.42550451E+00 0.77104716E+04</pdfrwt>
<pdfrwt beam="2">  1       -2 0.82674393E+00 0.77104716E+04</pdfrwt>
<totfact> 0.14083868E-04</totfact>
</mgrwt>
<rwgt>
<wgt id='morphing_basis_vector_1'> +3.2929278e-07 </wgt>
<wgt id='morphing_basis_vector_2'> +2.2425328e-07 </wgt>
<wgt id='morphing_basis_vector_3'> +3.6404365e-07 </wgt>
<wgt id='morphing_basis_vector_4'> +2.6402074e-07 </wgt>
<wgt id='morphing_basis_vector_5'> +4.2116155e-07 </wgt>
</rwgt>
</event>
<event>
 4      1 +6.9060000e-13 6.88234700e+03 7.81860800e-03 7.17205200e-02
        2 -1    0    0  501    0 +0.0000000000e+00 +0.0000000000e+00 +4.0634996536e+03 4.0634996536e+03 0.0000000000e+00 0.0000e+00 1.0000e+00
       -2 -1    0    0    0  501 -0.0000000000e+00 -0.0000000000e+00 -2.9141570663e+03 2.9141570663e+03 0.0000000000e+00 0.0000e+00 -1.0000e+00
      -13  1    1    2    0    0 -2.2161607351e+02 +3.3923182840e+03 +3.3672063873e+01 3.3997162870e+03 0.0000000000e+00 0.0000e+00 1.0000e+00
       13  1    1    2    0    0 +2.2161607351e+02 -3.3923182840e+03 +1.1156705234e+03 3.5779404328e+03 0.0000000000e+00 0.0000e+00 -1.0000e+00
<mgrwt>
<rscale>  0 0.68823473E+04</rscale>
<asrwt>0</asrwt>
<pdfrwt beam="1">  1        2 0.62515380E+00 0.68823473E+04</pdfrwt>
<pdfrwt beam="2">  1       -2 0.44833185E+00 0.68823473E+04</pdfrwt>
<totfact> 0.53950526E-04</totfact>
</mgrwt>
<rwgt>
<wgt id='morphing_basis_vector_1'> +2.1345978e-07 </wgt>
<wgt id='morphing_basis_vector_2'> +1.5496115e-07 </wgt>
<wgt id='morphing_basis_vector_3'> +2.3811623e-07 </wgt>
<wgt id='morphing_basis_vector_4'> +1.5829983e-07 </wgt>
<wgt id='morphing_basis_vector_5'> +2.6638910e-07 </wgt>
</rwgt>
</event>
<event>
 4      1 +6.9060000e-13 6.78534400e+03 7.81860800e-03 7.18122400e-02
        2 -1    0    0  501    0 +0.0000000000e+00 +0.0000000000e+00 +4.2754936646e+03 4.2754936646e+03 0.0000000000e+00 0.0000e+00 -1.0000e+00
       -2 -1    0    0    0  501 -0.0000000000e+00 -0.0000000000e+00 -2.6921390209e+03 2.6921390209e+03 0.0000000000e+00 0.0000e+00 1.0000e+00
      -13  1    1    2    0    0 -6.8418688381e+01 -1.9655285885e+03 -2.0470501537e+03 2.8387317733e+03 0.0000000000e+00 0.0000e+00 1.0000e+00
       13  1    1    2    0    0 +6.8418688381e+01 +1.9655285885e+03 +3.6304047975e+03 4.1289009122e+03 0.0000000000e+00 0.0000e+00 -1.0000e+00
<mgrwt>
<rscale>  0 0.67853440E+04</rscale>
<asrwt>0</asrwt>
<pdfrwt beam="1">  1        2 0.65776826E+00 0.67853440E+04</pdfrwt>
<pdfrwt beam="2">  1       -2 0.41417523E+00 0.67853440E+04</pdfrwt>
<totfact> 0.59321936E-04</totfact>
</mgrwt>
<rwgt>
<wgt id='morphing_basis_vector_1'> +1.9769874e-07 </wgt>
<wgt id='morphing_basis_vector_2'> +1.3468014e-07 </wgt>
<wgt id='morphing_basis_vector_3'> +2.1842358e-07 </wgt>
<wgt id='morphing_basis_vector_4'> +1.5811887e-07 </wgt>
<wgt id='morphing_basis_vector_5'> +2.5238315e-07 </wgt>
</rwgt>
</event>
<event>
 4      1 +6.9060000e-13 6.96761300e+03 7.81860800e-03 7.16411500e-02
        2 -1    0    0  501    0 +0.0000000000e+00 +0.0000000000e+00 +5.5128484990e+03 5.5128484990e+03 0.0000000000e+00 0.0000e+00 1.0000e+00
       -2 -1    0    0    0  501 -0.0000000000e+00 -0.0000000000e+00 -2.2015671833e+03 2.2015671833e+03 0.0000000000e+00 0.0000e+00 -1.0000e+00
      -13  1    1    2    0    0 +2.6859992281e+02 -1.5345451848e+03 -1.7944231215e+03 2.3763268255e+03 0.0000000000e+00 0.0000e+00 -1.0000e+00
       13  1    1    2    0    0 -2.6859992281e+02 +1.5345451848e+03 +5.1057044372e+03 5.3380888568e+03 0.0000000000e+00 0.0000e+00 1.0000e+00
<mgrwt>
<rscale>  0 0.69676126E+04</rscale>
<asrwt>0</asrwt>
<pdfrwt beam="1">  1        2 0.84813054E+00 0.69676126E+04</pdfrwt>
<pdfrwt beam="2">  1       -2 0.33870264E+00 0.69676126E+04</pdfrwt>
<totfact> 0.42763935E-05</totfact>
</mgrwt>
<rwgt>
<wgt id='morphing_basis_vector_1'> +2.1970641e-07 </wgt>
<wgt id='morphing_basis_vector_2'> +1.4954182e-07 </wgt>
<wgt id='morphing_basis_vector_3'> +2.4274530e-07 </wgt>
<wgt id='morphing_basis_vector_4'> +1.7597642e-07 </wgt>
<wgt id='morphing_basis_vector_5'> +2.8067536e-07 </wgt>
</rwgt>
</event>
<event>
 4      1 +6.9060000e-13 7.64558900e+03 7.81860800e-03 7.10481400e-02
        2 -1    0    0  501    0 +0.0000000000e+00 +0.0000000000e+00 +4.8825701360e+03 4.8825701360e+03 0.0000000000e+00 0.0000e+00 1.0000e+00
       -2 -1    0    0    0  501 -0.0000000000e+00 -0.0000000000e+00 -2.9930464803e+03 2.9930464803e+03 0.0000000000e+00 0.0000e+00 -1.0000e+00
      -13  1    1    2    0    0 -6.9523957024e+02 +2.8078596308e+03 -1.6296967246e+03 3.3201423434e+03 0.0000000000e+00 0.0000e+00 -1.0000e+00
       13  1    1    2    0    0 +6.9523957024e+02 -2.8078596308e+03 +3.5192203804e+03 4.5554742730e+03 0.0000000000e+00 0.0000e+00 1.0000e+00
<mgrwt>
<rscale>  0 0.76455894E+04</rscale>
<asrwt>0</asrwt>
<pdfrwt beam="1">  1        2 0.75116464E+00 0.76455894E+04</pdfrwt>
<pdfrwt beam="2">  1       -2 0.46046869E+00 0.76455894E+04</pdfrwt>
<totfact> 0.59283148E-05</totfact>
</mgrwt>
<rwgt>
<wgt id='morphing_basis_vector_1'> +3.1887456e-07 </wgt>
<wgt id='morphing_basis_vector_2'> +2.1830417e-07 </wgt>
<wgt id='morphing_basis_vector_3'> +3.5278457e-07 </wgt>
<wgt id='morphing_basis_vector_4'> +2.5413650e-07 </wgt>
<wgt id='morphing_basis_vector_5'> +4.0705242e-07 </wgt>
</rwgt>
</event>
<event>
 4      1 +6.9060000e-13 6.87552100e+03 7.81860800e-03 7.17269200e-02
        2 -1    0    0  501    0 +0.0000000000e+00 +0.0000000000e+00 +2.0466606208e+03 2.0466606208e+03 0.0000000000e+00 0.0000e+00 -1.0000e+00
       -2 -1    0    0    0  501 -0.0000000000e+00 -0.0000000000e+00 -5.7743799578e+03 5.7743799578e+03 0.0000000000e+00 0.0000e+00 1.0000e+00
      -13  1    1    2    0    0 -7.2786268848e+02 -1.9274240911e+03 -4.9943025358e+03 5.4025739735e+03 0.0000000000e+00 0.0000e+00 1.0000e+00
       13  1    1    2    0    0 +7.2786268848e+02 +1.9274240911e+03 +1.2665831988e+03 2.4184666051e+03 0.0000000000e+00 0.0000e+00 -1.0000e+00
<mgrwt>
<rscale>  0 0.68755207E+04</rscale>
<asrwt>0</asrwt>
<pdfrwt beam="1">  1        2 0.31487087E+00 0.68755207E+04</pdfrwt>
<pdfrwt beam="2">  1       -2 0.88836615E+00 0.68755207E+04</pdfrwt>
<totfact> 0.13080958E-04</totfact>
</mgrwt>
<rwgt>
<wgt id='morphing_basis_vector_1'> +2.0841613e-07 </wgt>
<wgt id='morphing_basis_vector_2'> +1.4202499e-07 </wgt>
<wgt id='morphing_basis_vector_3'> +2.3029301e-07 </wgt>
<wgt id='morphing_basis_vector_4'> +1.6667412e-07 </wgt>
<wgt id='morphing_basis_vector_5'> +2.6609057e-07 </wgt>
</rwgt>
</event>
<event>
 4      1 +6.9060000e-13 7.40722200e+03 7.81860800e-03 7.12493300e-02
        2 -1    0    0  501    0 +0.0000000000e+00 +0.0000000000e+00 +2.6018827894e+03 2.6018827894e+03 0.0000000000e+00 0.0000e+00 -1.0000e+00
       -2 -1    0    0    0  501 -0.0000000000e+00 -0.0000000000e+00 -5.2718490374e+03 5.2718490374e+03 0.0000000000e+00 0.0000e+00 1.0000e+00
      -13  1    1    2    0    0 +3.0232322183e+00 -3.0804768603e+03 -3.5205356677e+03 4.6779822803e+03 0.0000000000e+00 0.0000e+00 1.0000e+00
       13  1    1    2    0    0 -3.0232322183e+00 +3.0804768603e+03 +8.5056941978e+02 3.1957495466e+03 0.0000000000e+00 0.0000e+00 -1.0000e+00
<mgrwt>
<rscale>  0 0.74072217E+04</rscale>
<asrwt>0</asrwt>
<pdfrwt beam="1">  1        2 0.40028967E+00 0.74072217E+04</pdfrwt>
<pdfrwt beam="2">  1       -2 0.81105368E+00 0.74072217E+04</pdfrwt>
<totfact> 0.20778478E-04</totfact>
</mgrwt>
<rwgt>
<wgt id='morphing_basis_vector_1'> +2.8141105e-07 </wgt>
<wgt id='morphing_basis_vector_2'> +1.9360176e-07 </wgt>
<wgt id='morphing_basis_vector_3'> +3.1151292e-07 </wgt>
<wgt id='morphing_basis_vector_4'> +2.2293403e-07 </wgt>
<wgt id='morphing_basis_vector_5'> +3.5847323e-07 </wgt>
</rwgt>
</event>
<event>
 4      1 +6.9060000e-13 7.00015700e+03 7.81860800e-03 7.16111600e-02
        2 -1    0    0  501    0 +0.0000000000e+00 +0.0000000000e+00 +3.2155805516e+03 3.2155805516e+03 0.0000000000e+00 0.0000e+00 -1.0000e+00
       -2 -1    0    0    0  501 -0.0000000000e+00 -0.0000000000e+00 -3.8097476452e+03 3.8097476452e+03 0.0000000000e+00 0.0000e+00 1.0000e+00
      -13  1    1    2    0    0 +3.2689477499e+03 -9.3592527044e+01 -1.5488742558e+03 3.6185342907e+03 0.0000000000e+00 0.0000e+00 1.0000e+00
       13  1    1    2    0    0 -3.2689477499e+03 +9.3592527044e+01 +9.5470716219e+02 3.4067939061e+03 0.0000000000e+00 0.0000e+00 -1.0000e+00
<mgrwt>
<rscale>  0 0.70001573E+04</rscale>
<asrwt>0</asrwt>
<pdfrwt beam="1">  1        2 0.49470470E+00 0.70001573E+04</pdfrwt>
<pdfrwt beam="2">  1       -2 0.58611502E+00 0.70001573E+04</pdfrwt>
<totfact> 0.23287416E-04</totfact>
</mgrwt>
<rwgt>
<wgt id='morphing_basis_vector_1'> +2.2581541e-07 </wgt>
<wgt id='morphing_basis_vector_2'> +1.5817023e-07 </wgt>
<wgt id='morphing_basis_vector_3'> +2.5056079e-07 </wgt>
<wgt id='morphing_basis_vector_4'> +1.7504208e-07 </wgt>
<wgt id='morphing_basis_vector_5'> +2.8560659e-07 </wgt>
</rwgt>
</event>
<event>
 4      1 +6.9060000e-13 7.86799900e+03 7.81860800e-03 7.08669400e-02
        2 -1    0    0  501    0 +0.0000000000e+00 +0.0000000000e+00 +4.1029345234e+03 4.1029345234e+03 0.0000000000e+00 0.0000e+00 1.0000e+00
       -2 -1    0    0    0  501 -0.0000000000e+00 -0.0000000000e+00 -3.7720204220e+03 3.7720204220e+03 0.0000000000e+00 0.0000e+00 -1.0000e+00
      -13  1    1    2    0    0 +1.5493183790e+03 +3.6157302355e+03 +2.1510167547e+02 3.9395635934e+03 0.0000000000e+00 0.0000e+00 -1.0000e+00
       13  1    1    2    0    0 -1.5493183790e+03 -3.6157302355e+03 +1.1581242589e+02 3.9353913520e+03 0.0000000000e+00 0.0000e+00 1.0000e+00
<mgrwt>
<rscale>  0 0.78679992E+04</rscale>
<asrwt>0</asrwt>
<pdfrwt beam="1">  1        2 0.63122070E+00 0.78679992E+04</pdfrwt>
<pdfrwt beam="2">  1       -2 0.58031083E+00 0.78679992E+04</pdfrwt>
<totfact> 0.50161996E-05</totfact>
</mgrwt>
<rwgt>
<wgt id='morphing_basis_vector_1'> +3.7069395e-07 </wgt>
<wgt id='morphing_basis_vector_2'> +2.8331385e-07 </wgt>
<wgt id='morphing_basis_vector_3'> +4.1720640e-07 </wgt>
<wgt id='morphing_basis_vector_4'> +2.5689266e-07 </wgt>
<wgt id='morphing_basis_vector_5'> +4.5421575e-07 </wgt>
</rwgt>
</event>
<event>
 4      1 +6.9060000e-13 6.87700900e+03 7.81860800e-03 7.17255300e-02
        2 -1    0    0  501    0 +0.0000000000e+00 +0.0000000000e+00 +4.0301990913e+03 4.0301990913e+03 0.0000000000e+00 0.0000e+00 1.0000e+00
       -2 -1    0    0    0  501 -0.0000000000e+00 -0.0000000000e+00 -2.9336799441e+03 2.9336799441e+03 0.0000000000e+00 0.0000e+00 -1.0000e+00
      -13  1    1    2    0    0 +1.3569998593e+03 +1.1018967182e+03 -2.4501722677e+03 3.0098121432e+03 0.0000000000e+00 0.0000e+00 -1.0000e+00
       13  1    1    2    0    0 -1.3569998593e+03 -1.1018967182e+03 +3.5466914149e+03 3.9540668923e+03 0.0000000000e+00 0.0000e+00 1.0000e+00
<mgrwt>
<rscale>  0 0.68770093E+04</rscale>
<asrwt>0</asrwt>
<pdfrwt beam="1">  1        2 0.62003063E+00 0.68770093E+04</pdfrwt>
<pdfrwt beam="2">  1       -2 0.45133537E+00 0.68770093E+04</pdfrwt>
<totfact> 0.54963988E-04</totfact>
</mgrwt>
<rwgt>
<wgt id='morphing_basis_vector_1'> +2.0853931e-07 </wgt>
<wgt id='morphing_basis_vector_2'> +1.4198048e-07 </wgt>
<wgt id='morphing_basis_vector_3'> +2.3039900e-07 </wgt>
<wgt id='morphing_basis_vector_4'> +1.6694109e-07 </wgt>
<wgt id='morphing_basis_vector_5'> +2.6633179e-07 </wgt>
</rwgt>
</event>
<event>
 4      1 +6.9060000e-13 7.25426200e+03 7.81860800e-03 7.13824800e-02
        2 -1    0    0  501    0 +0.0000000000e+00 +0.0000000000e+00 +4.7491246959e+03 4.7491246959e+03 0.0000000000e+00 0.0000e+00 -1.0000e+00
       -2 -1    0    0    0  501 -0.0000000000e+00 -0.0000000000e+00 -2.7702114019e+03 2.7702114019e+03 0.0000000000e+00 0.0000e+00 1.0000e+00
      -13  1    1    2    0    0 +1.2413786220e+03 +3.2064237363e+03 -2.0769388165e+02 3.4446060454e+03 0.0000000000e+00 0.0000e+00 1.0000e+00
       13  1    1    2    0    0 -1.2413786220e+03 -3.2064237363e+03 +2.1866071756e+03 4.0747300524e+03 0.0000000000e+00 0.0000e+00 -1.0000e+00
<mgrwt>
<rscale>  0 0.72542620E+04</rscale>
<asrwt>0</asrwt>
<pdfrwt beam="1">  1        2 0.73063457E+00 0.72542620E+04</pdfrwt>
<pdfrwt beam="2">  1       -2 0.42618637E+00 0.72542620E+04</pdfrwt>
<totfact> 0.15233324E-04</totfact>
</mgrwt>
<rwgt>
<wgt id='morphing_basis_vector_1'> +2.6079335e-07 </wgt>
<wgt id='morphing_basis_vector_2'> +1.8363486e-07 </wgt>
<wgt id='morphing_basis_vector_3'> +2.8965932e-07 </wgt>
<wgt id='morphing_basis_vector_4'> +2.0101661e-07 </wgt>
<wgt id='morphing_basis_vector_5'> +3.2938664e-07 </wgt>
</rwgt>
</event>
<event>
 4      1 +6.9060000e-13 6.79888200e+03 7.81860800e-03 7.17993400e-02
        2 -1    0    0  501    0 +0.0000000000e+00 +0.0000000000e+00 +4.2360939328e+03 4.2360939328e+03 0.0000000000e+00 0.0000e+00 1.0000e+00
       -2 -1    0    0    0  501 -0.0000000000e+00 -0.0000000000e+00 -2.7280318730e+03 2.7280318730e+03 0.0000000000e+00 0.0000e+00 -1.0000e+00
      -13  1    1    2    0    0 +1.2930233529e+01 -1.2182448007e+03 +4.0047921422e+03 4.1860061739e+03 0.0000000000e+00 0.0000e+00 1.0000e+00
       13  1    1    2    0    0 -1.2930233529e+01 +1.2182448007e+03 -2.4967300824e+03 2.7781196320e+03 0.0000000000e+00 0.0000e+00 -1.0000e+00
<mgrwt>
<rscale>  0 0.67988820E+04</rscale>
<asrwt>0</asrwt>
<pdfrwt beam="1">  1        2 0.65170676E+00 0.67988820E+04</pdfrwt>
<pdfrwt beam="2">  1       -2 0.41969721E+00 0.67988820E+04</pdfrwt>
<totfact> 0.59316932E-04</totfact>
</mgrwt>
<rwgt>
<wgt id='morphing_basis_vector_1'> +2.7232855e-07 </wgt>
<wgt id='morphing_basis_vector_2'> +3.5011830e-07 </wgt>
<wgt id='morphing_basis_vector_3'> +3.3981972e-07 </wgt>
<wgt id='morphing_basis_vector_4'> +2.8113261e-09 </wgt>
<wgt id='morphing_basis_vector_5'> +2.4121486e-07 </wgt>
</rwgt>
</event>
<event>
 4      1 +6.9060000e-13 6.78889200e+03 7.81860800e-03 7.18088500e-02
        2 -1    0    0  501    0 +0.0000000000e+00 +0.0000000000e+00 +2.8480499889e+03 2.8480499889e+03 0.0000000000e+00 0.0000e+00 1.0000e+00
       -2 -1    0    0    0  501 -0.0000000000e+00 -0.0000000000e+00 -4.0456677532e+03 4.0456677532e+03 0.0000000000e+00 0.0000e+00 -1.0000e+00
      -13  1    1    2    0    0 +1.7845050443e+03 +2.9516793523e+02 -3.5155608929e+03 3.9535744276e+03 0.0000000000e+00 0.0000e+00 -1.0000e+00
       13  1    1    2    0    0 -1.7845050443e+03 -2.9516793523e+02 +2.3179431285e+03 2.9401433145e+03 0.0000000000e+00 0.0000e+00 1.0000e+00
<mgrwt>
<rscale>  0 0.67888921E+04</rscale>
<asrwt>0</asrwt>
<pdfrwt beam="1">  1        2 0.43816154E+00 0.67888921E+04</pdfrwt>
<pdfrwt beam="2">  1       -2 0.62241042E+00 0.67888921E+04</pdfrwt>
<totfact> 0.17667468E-04</totfact>
</mgrwt>
<rwgt>
<wgt id='morphing_basis_vector_1'> +1.9808378e-07 </wgt>
<wgt id='morphing_basis_vector_2'> +1.3487956e-07 </wgt>
<wgt id='morphing_basis_vector_3'> +2.1883480e-07 </wgt>
<wgt id='morphing_basis_vector_4'> +1.5851053e-07 </wgt>
<wgt id='morphing_basis_vector_5'> +2.5291743e-07 </wgt>
</rwgt>
</event>
<event>
 4      1 +6.9060000e-13 7.12292200e+03 7.81860800e-03 7.14994800e-02
        2 -1    0    0  501    0 +0.0000000000e+00 +0.0000000000e+00 +2.6438886511e+03 2.6438886511e+03 0.0000000000e+00 0.0000e+00 1.0000e+00
       -2 -1    0    0    0  501 -0.0000000000e+00 -0.0000000000e+00 -4.7974806274e+03 4.7974806274e+03 0.0000000000e+00 0.0000e+00 -1.0000e+00
      -13  1    1    2    0    0 -1.0757691241e+03 +9.9551539870e+02 -4.4677807468e+03 4.7020628365e+03 0.0000000000e+00 0.0000e+00 -1.0000e+00
       13  1    1    2    0    0 +1.0757691241e+03 -9.9551539870e+02 +2.3141887705e+03 2.7393064419e+03 0.0000000000e+00 0.0000e+00 1.0000e+00
<mgrwt>
<rscale>  0 0.71229220E+04</rscale>
<asrwt>0</asrwt>
<pdfrwt beam="1">  1        2 0.40675210E+00 0.71229220E+04</pdfrwt>
<pdfrwt beam="2">  1       -2 0.73807394E+00 0.71229220E+04</pdfrwt>
<totfact> 0.16477769E-04</totfact>
</mgrwt>
<rwgt>
<wgt id='morphing_basis_vector_1'> +2.3991591e-07 </wgt>
<wgt id='morphing_basis_vector_2'> +1.6329074e-07 </wgt>
<wgt id='morphing_basis_vector_3'> +2.6510525e-07 </wgt>
<wgt id='morphing_basis_vector_4'> +1.9224559e-07 </wgt>
<wgt id='morphing_basis_vector_5'> +3.0659464e-07 </wgt>
</rwgt>
</event>
<event>
 4      1 +6.9060000e-13 6.96293600e+03 7.81860800e-03 7.16454700e-02
        2 -1    0    0  501    0 +0.0000000000e+00 +0.0000000000e+00 +3.7810752177e+03 3.7810752177e+03 0.0000000000e+00 0.0000e+00 -1.0000e+00
       -2 -1    0    0    0  501 -0.0000000000e+00 -0.0000000000e+00 -3.2056016882e+03 3.2056016882e+03 0.0000000000e+00 0.0000e+00 1.0000e+00
      -13  1    1    2    0    0 -4.2367749256e+02 +1.5291702038e+03 -2.8216603822e+03 3.2372258869e+03 0.0000000000e+00 0.0000e+00 1.0000e+00
       13  1    1    2    0    0 +4.2367749256e+02 -1.5291702038e+03 +3.3971339118e+03 3.7494510191e+03 0.0000000000e+00 0.0000e+00 -1.0000e+00
<mgrwt>
<rscale>  0 0.69629365E+04</rscale>
<asrwt>0</asrwt>
<pdfrwt beam="1">  1        2 0.58170388E+00 0.69629365E+04</pdfrwt>
<pdfrwt beam="2">  1       -2 0.49316949E+00 0.69629365E+04</pdfrwt>
<totfact> 0.43540132E-04</totfact>
</mgrwt>
<rwgt>
<wgt id='morphing_basis_vector_1'> +2.1912068e-07 </wgt>
<wgt id='morphing_basis_vector_2'> +1.4914831e-07 </wgt>
<wgt id='morphing_basis_vector_3'> +2.4209844e-07 </wgt>
<wgt id='morphing_basis_vector_4'> +1.7549842e-07 </wgt>
<wgt id='morphing_basis_vector_5'> +2.7992097e-07 </wgt>
</rwgt>
</event>
<event>
 4      1 +6.9060000e-13 7.03317800e+03 7.81860800e-03 7.15808900e-02
        2 -1    0    0  501    0 +0.0000000000e+00 +0.0000000000e+00 +4.6353248267e+03 4.6353248267e+03 0.0000000000e+00 0.0000e+00 1.0000e+00
       -2 -1    0    0    0  501 -0.0000000000e+00 -0.0000000000e+00 -2.6678602753e+03 2.6678602753e+03 0.0000000000e+00 0.0000e+00 -1.0000e+00
      -13  1    1    2    0    0 -2.1842158036e+03 +1.8516377265e+03 +3.1034323605e+03 4.2226358312e+03 0.0000000000e+00 0.0000e+00 1.0000e+00
       13  1    1    2    0    0 +2.1842158036e+03 -1.8516377265e+03 -1.1359678091e+03 3.0805492709e+03 0.0000000000e+00 0.0000e+00 -1.0000e+00
<mgrwt>
<rscale>  0 0.70331782E+04</rscale>
<asrwt>0</asrwt>
<pdfrwt beam="1">  1        2 0.71312690E+00 0.70331782E+04</pdfrwt>
<pdfrwt beam="2">  1       -2 0.41044004E+00 0.70331782E+04</pdfrwt>
<totfact> 0.26498933E-04</totfact>
</mgrwt>
<rwgt>
<wgt id='morphing_basis_vector_1'> +2.7967094e-07 </wgt>
<wgt id='morphing_basis_vector_2'> +3.0663004e-07 </wgt>
<wgt id='morphing_basis_vector_3'> +3.3657245e-07 </wgt>
<wgt id='morphing_basis_vector_4'> +7.2073123e-08 </wgt>
<wgt id='morphing_basis_vector_5'> +2.8208302e-07 </wgt>
</rwgt>
</event>
<event>
 4      1 +6.9060000e-13 7.31543800e+03 7.81860800e-03 7.13288400e-02
        2 -1    0    0  501    0 +0.0000000000e+00 +0.0000000000e+00 +3.9556095909e+03 3.9556095909e+03 0.0000000000e+00 0.0000e+00 -1.0000e+00
       -2 -1    0    0    0  501 -0.0000000000e+00 -0.0000000000e+00 -3.3822622308e+03 3.3822622308e+03 0.0000000000e+00 0.0000e+00 1.0000e+00
      -13  1    1    2    0    0 +3.1203554717e+03 -6.6927571225e+02 +2.0794320219e+03 3.8090137546e+03 0.0000000000e+00 0.0000e+00 1.0000e+00
       13  1    1    2    0    0 -3.1203554717e+03 +6.6927571225e+02 -1.5060846619e+03 3.5288580671e+03 0.0000000000e+00 0.0000e+00 -1.0000e+00
<mgrwt>
<rscale>  0 0.73154382E+04</rscale>
<asrwt>0</asrwt>
<pdfrwt beam="1">  1        2 0.60855532E+00 0.73154382E+04</pdfrwt>
<pdfrwt beam="2">  1       -2 0.52034804E+00 0.73154382E+04</pdfrwt>
<totfact> 0.19153099E-04</totfact>
</mgrwt>
<rwgt>
<wgt id='morphing_basis_vector_1'> +3.1467499e-07 </wgt>
<wgt id='morphing_basis_vector_2'> +3.2189783e-07 </wgt>
<wgt id='morphing_basis_vector_3'> +3.7334605e-07 </wgt>
<wgt id='morphing_basis_vector_4'> +1.1137784e-07 </wgt>
<wgt id='morphing_basis_vector_5'> +3.3251772e-07 </wgt>
</rwgt>
</event>
<event>
 4      1 +6.9060000e-13 6.77929700e+03 7.81860800e-03 7.18180100e-02
        2 -1    0    0  501    0 +0.0000000000e+00 +0.0000000000e+00 +4.6397289746e+03 4.6397289746e+03 0.0000000000e+00 0.0000e+00 1.0000e+00
       -2 -1    0    0    0  501 -0.0000000000e+00 -0.0000000000e+00 -2.4763765457e+03 2.4763765457e+03 0.0000000000e+00 0.0000e+00 -1.0000e+00
      -13  1    1    2    0    0 +7.4255661670e+02 +3.0520455887e+03 +2.4190811979e+03 3.9646344657e+03 0.0000000000e+00 0.0000e+00 1.0000e+00
       13  1    1    2    0    0 -7.4255661670e+02 -3.0520455887e+03 -2.5572876896e+02 3.1514710546e+03 0.0000000000e+00 0.0000e+00 -1.0000e+00
<mgrwt>
<rscale>  0 0.67792967E+04</rscale>
<asrwt>0</asrwt>
<pdfrwt beam="1">  1        2 0.71380446E+00 0.67792967E+04</pdfrwt>
<pdfrwt beam="2">  1       -2 0.38098101E+00 0.67792967E+04</pdfrwt>
<totfact> 0.41547598E-04</totfact>
</mgrwt>
<rwgt>
<wgt id='morphing_basis_vector_1'> +2.2239485e-07 </wgt>
<wgt id='morphing_basis_vector_2'> +2.0873220e-07 </wgt>
<wgt id='morphing_basis_vector_3'> +2.5924365e-07 </wgt>
<wgt id='morphing_basis_vector_4'> +1.0311774e-07 </wgt>
<wgt id='morphing_basis_vector_5'> +2.4689672e-07 </wgt>
</rwgt>
</event>
<event>
 4      1 +6.9060000e-13 6.82937100e+03 7.81860800e-03 7.17704200e-02
        2 -1    0    0  501    0 +0.0000000000e+00 +0.0000000000e+00 +4.3427654329e+03 4.3427654329e+03 0.0000000000e+00 0.0000e+00 1.0000e+00
       -2 -1    0    0    0  501 -0.0000000000e+00 -0.0000000000e+00 -2.6849426559e+03 2.6849426559e+03 0.0000000000e+00 0.0000e+00 -1.0000e+00
      -13  1    1    2    0    0 -6.4142246699e+02 -8.8673016803e+02 -2.4995836691e+03 2.7286684832e+03 0.0000000000e+00 0.0000e+00 -1.0000e+00
       13  1    1    2    0    0 +6.4142246699e+02 +8.8673016803e+02 +4.1574064462e+03 4.2990396056e+03 0.0000000000e+00 0.0000e+00 1.0000e+00
<mgrwt>
<rscale>  0 0.68293707E+04</rscale>
<asrwt>0</asrwt>
<pdfrwt beam="1">  1        2 0.66811776E+00 0.68293707E+04</pdfrwt>
<pdfrwt beam="2">  1       -2 0.41306810E+00 0.68293707E+04</pdfrwt>
<totfact> 0.51844011E-04</totfact>
</mgrwt>
<rwgt>
<wgt id='morphing_basis_vector_1'> +2.0279052e-07 </wgt>
<wgt id='morphing_basis_vector_2'> +1.3797218e-07 </wgt>
<wgt id='morphing_basis_vector_3'> +2.2401604e-07 </wgt>
<wgt id='morphing_basis_vector_4'> +1.6244158e-07 </wgt>
<wgt id='morphing_basis_vector_5'> +2.5902345e-07 </wgt>
</rwgt>
</event>
<event>
 4      1 +6.9060000e-13 7.15385000e+03 7.81860800e-03 7.14717000e-02
        2 -1    0    0  501    0 +0.0000000000e+00 +0.0000000000e+00 +4.2213879667e+03 4.2213879667e+03 0.0000000000e+00 0.0000e+00 -1.0000e+00
       -2 -1    0    0    0  501 -0.0000000000e+00 -0.0000000000e+00 -3.0308500076e+03 3.0308500076e+03 0.0000000000e+00 0.0000e+00 1.0000e+00
      -13  1    1    2    0    0 -2.4827425514e+03 +1.8048918839e+03 -1.2664930612e+03 3.3204894162e+03 0.0000000000e+00 0.0000e+00 1.0000e+00
       13  1    1    2    0    0 +2.4827425514e+03 -1.8048918839e+03 +2.4570310204e+03 3.9317485581e+03 0.0000000000e+00 0.0000e+00 -1.0000e+00
<mgrwt>
<rscale>  0 0.71538504E+04</rscale>
<asrwt>0</asrwt>
<pdfrwt beam="1">  1        2 0.64944431E+00 0.71538504E+04</pdfrwt>
<pdfrwt beam="2">  1       -2 0.46628461E+00 0.71538504E+04</pdfrwt>
<totfact> 0.28466762E-04</totfact>
</mgrwt>
<rwgt>
<wgt id='morphing_basis_vector_1'> +2.4510178e-07 </wgt>
<wgt id='morphing_basis_vector_2'> +1.6907343e-07 </wgt>
<wgt id='morphing_basis_vector_3'> +2.7137649e-07 </wgt>
<wgt id='morphing_basis_vector_4'> +1.9346982e-07 </wgt>
<wgt id='morphing_basis_vector_5'> +3.1178231e-07 </wgt>
</rwgt>
</event>
<event>
 4      1 +6.9060000e-13 6.77138100e+03 7.81860800e-03 7.18255700e-02
        2 -1    0    0  501    0 +0.0000000000e+00 +0.0000000000e+00 +3.0935749996e+03 3.0935749996e+03 0.0000000000e+00 0.0000e+00 -1.0000e+00
       -2 -1    0    0    0  501 -0.0000000000e+00 -0.0000000000e+00 -3.7053898063e+03 3.7053898063e+03 0.0000000000e+00 0.0000e+00 1.0000e+00
      -13  1    1    2    0    0 -2.7940099110e+03 -1.9075680317e+03 -4.3909044479e+02 3.4114670740e+03 0.0000000000e+00 0.0000e+00 -1.0000e+00
       13  1    1    2    0    0 +2.7940099110e+03 +1.9075680317e+03 -1.7272436193e+02 3.3874977319e+03 0.0000000000e+00 0.0000e+00 1.0000e+00
<mgrwt>
<rscale>  0 0.67713813E+04</rscale>
<asrwt>0</asrwt>
<pdfrwt beam="1">  1        2 0.47593461E+00 0.67713813E+04</pdfrwt>
<pdfrwt beam="2">  1       -2 0.57005997E+00 0.67713813E+04</pdfrwt>
<totfact> 0.37980003E-04</totfact>
</mgrwt>
<rwgt>
<wgt id='morphing_basis_vector_1'> +2.0225700e-07 </wgt>
<wgt id='morphing_basis_vector_2'> +1.5170376e-07 </wgt>
<wgt id='morphing_basis_vector_3'> +2.2674883e-07 </wgt>
<wgt id='morphing_basis_vector_4'> +1.4357886e-07 </wgt>
<wgt id='morphing_basis_vector_5'> +2.4919312e-07 </wgt>
</rwgt>
</event>
<event>
 4      1 +6.9060000e-13 6.74740500e+03 7.81860800e-03 7.18485300e-02
        2 -1    0    0  501    0 +0.0000000000e+00 +0.0000000000e+00 +3.1101766179e+03 3.1101766179e+03 0.0000000000e+00 0.0000e+00 -1.0000e+00
       -2 -1    0    0    0  501 -0.0000000000e+00 -0.0000000000e+00 -3.6595572793e+03 3.6595572793e+03 0.0000000000e+00 0.0000e+00 1.0000e+00
      -13  1    1    2    0    0 -7.2078650459e+02 -3.1310752003e+03 +7.5764824942e+02 3.3010901177e+03 0.0000000000e+00 0.0000e+00 1.0000e+00
       13  1    1    2    0    0 +7.2078650459e+02 +3.1310752003e+03 -1.3070289108e+03 3.4686437795e+03 0.0000000000e+00 0.0000e+00 -1.0000e+00
<mgrwt>
<rscale>  0 0.67474053E+04</rscale>
<asrwt>0</asrwt>
<pdfrwt beam="1">  1        2 0.47848871E+00 0.67474053E+04</pdfrwt>
<pdfrwt beam="2">  1       -2 0.56300882E+00 0.67474053E+04</pdfrwt>
<totfact> 0.41735095E-04</totfact>
</mgrwt>
<rwgt>
<wgt id='morphing_basis_vector_1'> +2.1330162e-07 </wgt>
<wgt id='morphing_basis_vector_2'> +1.9032518e-07 </wgt>
<wgt id='morphing_basis_vector_3'> +2.4629895e-07 </wgt>
<wgt id='morphing_basis_vector_4'> +1.1178639e-07 </wgt>
<wgt id='morphing_basis_vector_5'> +2.4316878e-07 </wgt>
</rwgt>
</event>
<event>
 4      1 +6.9060000e-13 7.43094300e+03 7.81860800e-03 7.12289700e-02
        2 -1    0    0  501    0 +0.0000000000e+00 +0.0000000000e+00 +3.0044977223e+03 3.0044977223e+03 0.0000000000e+00 0.0000e+00 1.0000e+00
       -2 -1    0    0    0  501 -0.0000000000e+00 -0.0000000000e+00 -4.5946877842e+03 4.5946877842e+03 0.0000000000e+00 0.0000e+00 -1.0000e+00
      -13  1    1    2    0    0 -6.4249054779e+02 -3.5904780708e+03 -1.5185019706e+03 3.9509714142e+03 0.0000000000e+00 0.0000e+00 -1.0000e+00
       13  1    1    2    0    0 +6.4249054779e+02 +3.5904780708e+03 -7.1688091278e+01 3.6482140923e+03 0.0000000000e+00 0.0000e+00 1.0000e+00
<mgrwt>
<rscale>  0 0.74309431E+04</rscale>
<asrwt>0</asrwt>
<pdfrwt beam="1">  1        2 0.46223042E+00 0.74309431E+04</pdfrwt>
<pdfrwt beam="2">  1       -2 0.70687504E+00 0.74309431E+04</pdfrwt>
<totfact> 0.44495120E-05</totfact>
</mgrwt>
<rwgt>
<wgt id='morphing_basis_vector_1'> +2.8919865e-07 </wgt>
<wgt id='morphing_basis_vector_2'> +2.0832948e-07 </wgt>
<wgt id='morphing_basis_vector_3'> +3.2236571e-07 </wgt>
<wgt id='morphing_basis_vector_4'> +2.1685764e-07 </wgt>
<wgt id='morphing_basis_vector_5'> +3.6233923e-07 </wgt>
</rwgt>
</event>
<event>
 4      1 +6.9060000e-13 7.11388300e+03 7.81860800e-03 7.15076200e-02
        2 -1    0    0  501    0 +0.0000000000e+00 +0.0000000000e+00 +4.7690095497e+03 4.7690095497e+03 0.0000000000e+00 0.0000e+00 -1.0000e+00
       -2 -1    0    0    0  501 -0.0000000000e+00 -0.0000000000e+00 -2.6529267418e+03 2.6529267418e+03 0.0000000000e+00 0.0000e+00 1.0000e+00
      -13  1    1    2    0    0 -1.3855125404e+03 +4.6998655261e+02 -2.3244657974e+03 2.7465748856e+03 0.0000000000e+00 0.0000e+00 1.0000e+00
       13  1    1    2    0    0 +1.3855125404e+03 -4.6998655261e+02 +4.4405486053e+03 4.6753614058e+03 0.0000000000e+00 0.0000e+00 -1.0000e+00
<mgrwt>
<rscale>  0 0.71138830E+04</rscale>
<asrwt>0</asrwt>
<pdfrwt beam="1">  1        2 0.73369378E+00 0.71138830E+04</pdfrwt>
<pdfrwt beam="2">  1       -2 0.40814257E+00 0.71138830E+04</pdfrwt>
<totfact> 0.19209400E-04</totfact>
</mgrwt>
<rwgt>
<wgt id='morphing_basis_vector_1'> +2.3870233e-07 </wgt>
<wgt id='morphing_basis_vector_2'> +1.6246383e-07 </wgt>
<wgt id='morphing_basis_vector_3'> +2.6376219e-07 </wgt>
<wgt id='morphing_basis_vector_4'> +1.9127023e-07 </wgt>
<wgt id='morphing_basis_vector_5'> +3.0503891e-07 </wgt>
</rwgt>
</event>
<event>
 4      1 +6.9060000e-13 7.26476200e+03 7.81860800e-03 7.13732400e-02
        2 -1    0    0  501    0 +0.0000000000e+00 +0.0000000000e+00 +5.2094704008e+03 5.2094704008e+03 0.0000000000e+00 0.0000e+00 1.0000e+00
       -2 -1    0    0    0  501 -0.0000000000e+00 -0.0000000000e+00 -2.5327316744e+03 2.5327316744e+03 0.0000000000e+00 0.0000e+00 -1.0000e+00
      -13  1    1    2    0    0 +2.7387901060e+03 -2.2635097986e+03 +5.3394990769e+02 3.5929862729e+03 0.0000000000e+00 0.0000e+00 -1.0000e+00
       13  1    1    2    0    0 -2.7387901060e+03 +2.2635097986e+03 +2.1427888187e+03 4.1492158024e+03 0.0000000000e+00 0.0000e+00 1.0000e+00
<mgrwt>
<rscale>  0 0.72647617E+04</rscale>
<asrwt>0</asrwt>
<pdfrwt beam="1">  1        2 0.80145698E+00 0.72647617E+04</pdfrwt>
<pdfrwt beam="2">  1       -2 0.38965103E+00 0.72647617E+04</pdfrwt>
<totfact> 0.64729589E-05</totfact>
</mgrwt>
<rwgt>
<wgt id='morphing_basis_vector_1'> +2.6390804e-07 </wgt>
<wgt id='morphing_basis_vector_2'> +1.8940566e-07 </wgt>
<wgt id='morphing_basis_vector_3'> +2.9397044e-07 </wgt>
<wgt id='morphing_basis_vector_4'> +1.9874385e-07 </wgt>
<wgt id='morphing_basis_vector_5'> +3.3101053e-07 </wgt>
</rwgt>
</event>
<event>
 4      1 +6.9060000e-13 6.66960900e+03 7.81860800e-03 7.19237100e-02
        2 -1    0    0  501    0 +0.0000000000e+00 +0.0000000000e+00 +3.6601975431e+03 3.6601975431e+03 0.0000000000e+00 0.0000e+00 -1.0000e+00
       -2 -1    0    0    0  501 -0.0000000000e+00 -0.0000000000e+00 -3.0383393451e+03 3.0383393451e+03 0.0000000000e+00 0.0000e+00 1.0000e+00
      -13  1    1    2    0    0 -1.0824747949e+03 +8.9424399675e+02 -2.7270039205e+03 3.0672421472e+03 0.0000000000e+00 0.0000e+00 1.0000e+00
       13  1    1    2    0    0 +1.0824747949e+03 -8.9424399675e+02 +3.3488621184e+03 3.6312947409e+03 0.0000000000e+00 0.0000e+00 -1.0000e+00
<mgrwt>
<rscale>  0 0.66696093E+04</rscale>
<asrwt>0</asrwt>
<pdfrwt beam="1">  1        2 0.56310732E+00 0.66696093E+04</pdfrwt>
<pdfrwt beam="2">  1       -2 0.46743682E+00 0.66696093E+04</pdfrwt>
<totfact> 0.85602468E-04</totfact>
</mgrwt>
<rwgt>
<wgt id='morphing_basis_vector_1'> +1.8451425e-07 </wgt>
<wgt id='morphing_basis_vector_2'> +1.2555242e-07 </wgt>
<wgt id='morphing_basis_vector_3'> +2.0380086e-07 </wgt>
<wgt id='morphing_basis_vector_4'> +1.4771619e-07 </wgt>
<wgt id='morphing_basis_vector_5'> +2.3558212e-07 </wgt>
</rwgt>
</event>
<event>
 4      1 +6.9060000e-13 6.72895600e+03 7.81860800e-03 7.18662700e-02
        2 -1    0    0  501    0 +0.0000000000e+00 +0.0000000000e+00 +3.1312156064e+03 3.1312156064e+03 0.0000000000e+00 0.0000e+00 1.0000e+00
       -2 -1    0    0    0  501 -0.0000000000e+00 -0.0000000000e+00 -3.6151176023e+03 3.6151176023e+03 0.0000000000e+00 0.0000e+00 -1.0000e+00
      -13  1    1    2    0    0 +3.0830196915e+03 -1.2110840518e+03 +3.4946867991e+02 3.3307451654e+03 0.0000000000e+00 0.0000e+00 -1.0000e+00
       13  1    1    2    0    0 -3.0830196915e+03 +1.2110840518e+03 -8.3337067583e+02 3.4155880433e+03 0.0000000000e+00 0.0000e+00 1.0000e+00
<mgrwt>
<rscale>  0 0.67289561E+04</rscale>
<asrwt>0</asrwt>
<pdfrwt beam="1">  1        2 0.48172548E+00 0.67289561E+04</pdfrwt>
<pdfrwt beam="2">  1       -2 0.55617194E+00 0.67289561E+04</pdfrwt>
<totfact> 0.45340761E-04</totfact>
</mgrwt>
<rwgt>
<wgt id='morphing_basis_vector_1'> +2.0410976e-07 </wgt>
<wgt id='morphing_basis_vector_2'> +1.6808668e-07 </wgt>
<wgt id='morphing_basis_vector_3'> +2.3236098e-07 </wgt>
<wgt id='morphing_basis_vector_4'> +1.2529552e-07 </wgt>
<wgt id='morphing_basis_vector_5'> +2.4175644e-07 </wgt>
</rwgt>
</event>
<event>
 4      1 +6.9060000e-13 6.73583800e+03 7.81860800e-03 7.18596400e-02
        2 -1    0    0  501    0 +0.0000000000e+00 +0.0000000000e+00 +3.1292767109e+03 3.1292767109e+03 0.0000000000e+00 0.0000e+00 -1.0000e+00
       -2 -1    0    0    0  501 -0.0000000000e+00 -0.0000000000e+00 -3.6247601965e+03 3.6247601965e+03 0.0000000000e+00 0.0000e+00 1.0000e+00
      -13  1    1    2    0    0 -2.0418117739e+03 -5.4120964976e+02 +2.3825067640e+03 3.1840605656e+03 0.0000000000e+00 0.0000e+00 -1.0000e+00
       13  1    1    2    0    0 +2.0418117739e+03 +5.4120964976e+02 -2.8779902495e+03 3.5699763418e+03 0.0000000000e+00 0.0000e+00 1.0000e+00
<mgrwt>
<rscale>  0 0.67358378E+04</rscale>
<asrwt>0</asrwt>
<pdfrwt beam="1">  1        2 0.48142719E+00 0.67358378E+04</pdfrwt>
<pdfrwt beam="2">  1       -2 0.55765541E+00 0.67358378E+04</pdfrwt>
<totfact> 0.44347207E-04</totfact>
</mgrwt>
<rwgt>
<wgt id='morphing_basis_vector_1'> +2.5437911e-07 </wgt>
<wgt id='morphing_basis_vector_2'> +3.1383973e-07 </wgt>
<wgt id='morphing_basis_vector_3'> +3.1426503e-07 </wgt>
<wgt id='morphing_basis_vector_4'> +1.9865716e-08 </wgt>
<wgt id='morphing_basis_vector_5'> +2.3382348e-07 </wgt>
</rwgt>
</event>
<event>
 4      1 +6.9060000e-13 7.38641700e+03 7.81860800e-03 7.12672500e-02
        2 -1    0    0  501    0 +0.0000000000e+00 +0.0000000000e+00 +4.6429988947e+03 4.6429988947e+03 0.0000000000e+00 0.0000e+00 -1.0000e+00
       -2 -1    0    0    0  501 -0.0000000000e+00 -0.0000000000e+00 -2.9377111200e+03 2.9377111200e+03 0.0000000000e+00 0.0000e+00 1.0000e+00
      -13  1    1    2    0    0 +1.6402635978e+03 -3.4757613398e+02 -2.5245851807e+03 3.0306441846e+03 0.0000000000e+00 0.0000e+00 1.0000e+00
       13  1    1    2    0    0 -1.6402635978e+03 +3.4757613398e+02 +4.2298729554e+03 4.5500658300e+03 0.0000000000e+00 0.0000e+00 -1.0000e+00
<mgrwt>
<rscale>  0 0.73864171E+04</rscale>
<asrwt>0</asrwt>
<pdfrwt beam="1">  1        2 0.71430752E+00 0.73864171E+04</pdfrwt>
<pdfrwt beam="2">  1       -2 0.45195556E+00 0.73864171E+04</pdfrwt>
<totfact> 0.13277513E-04</totfact>
</mgrwt>
<rwgt>
<wgt id='morphing_basis_vector_1'> +2.7738545e-07 </wgt>
<wgt id='morphing_basis_vector_2'> +1.8884925e-07 </wgt>
<wgt id='morphing_basis_vector_3'> +3.0658110e-07 </wgt>
<wgt id='morphing_basis_vector_4'> +2.2232900e-07 </wgt>
<wgt id='morphing_basis_vector_5'> +3.5461665e-07 </wgt>
</rwgt>
</event>
<event>
 4      1 +6.9060000e-13 7.10094700e+03 7.81860800e-03 7.15193000e-02
        2 -1    0    0  501    0 +0.0000000000e+00 +0.0000000000e+00 +3.4518476816e+03 3.4518476816e+03 0.0000000000e+00 0.0000e+00 -1.0000e+00
       -2 -1    0    0    0  501 -0.0000000000e+00 -0.0000000000e+00 -3.6519170111e+03 3.6519170111e+03 0.0000000000e+00 0.0000e+00 1.0000e+00
      -13  1    1    2    0    0 -1.4482325465e+02 -1.7772366150e+03 -3.1714839023e+03 3.6383861674e+03 0.0000000000e+00 0.0000e+00 1.0000e+00
       13  1    1    2    0    0 +1.4482325465e+02 +1.7772366150e+03 +2.9714145728e+03 3.4653785254e+03 0.0000000000e+00 0.0000e+00 -1.0000e+00
<mgrwt>
<rscale>  0 0.71009468E+04</rscale>
<asrwt>0</asrwt>
<pdfrwt beam="1">  1        2 0.53105349E+00 0.71009468E+04</pdfrwt>
<pdfrwt beam="2">  1       -2 0.56183338E+00 0.71009468E+04</pdfrwt>
<totfact> 0.24034376E-04</totfact>
</mgrwt>
<rwgt>
<wgt id='morphing_basis_vector_1'> +2.3700378e-07 </wgt>
<wgt id='morphing_basis_vector_2'> +1.6137461e-07 </wgt>
<wgt id='morphing_basis_vector_3'> +2.6189854e-07 </wgt>
<wgt id='morphing_basis_vector_4'> +1.8981591e-07 </wgt>
<wgt id='morphing_basis_vector_5'> +3.0281725e-07 </wgt>
</rwgt>
</event>
<event>
 4      1 +6.9060000e-13 6.91657500e+03 7.81860800e-03 7.16885200e-02
        2 -1    0    0  501    0 +0.0000000000e+00 +0.0000000000e+00 +4.1297347735e+03 4.1297347735e+03 0.0000000000e+00 0.0000e+00 1.0000e+00
       -2 -1    0    0    0  501 -0.0000000000e+00 -0.0000000000e+00 -2.8960098527e+03 2.8960098527e+03 0.0000000000e+00 0.0000e+00 -1.0000e+00
      -13  1    1    2    0    0 -1.6823560757e+03 -1.4941917313e+03 -2.0507686008e+03 3.0444347175e+03 0.0000000000e+00 0.0000e+00 -1.0000e+00
       13  1    1    2    0    0 +1.6823560757e+03 +1.4941917313e+03 +3.2844935217e+03 3.9813099087e+03 0.0000000000e+00 0.0000e+00 1.0000e+00
<mgrwt>
<rscale>  0 0.69165750E+04</rscale>
<asrwt>0</asrwt>
<pdfrwt beam="1">  1        2 0.63534381E+00 0.69165750E+04</pdfrwt>
<pdfrwt beam="2">  1       -2 0.44553998E+00 0.69165750E+04</pdfrwt>
<totfact> 0.49175297E-04</totfact>
</mgrwt>
<rwgt>
<wgt id='morphing_basis_vector_1'> +2.1348587e-07 </wgt>
<wgt id='morphing_basis_vector_2'> +1.4560929e-07 </wgt>
<wgt id='morphing_basis_vector_3'> +2.3593381e-07 </wgt>
<wgt id='morphing_basis_vector_4'> +1.7057764e-07 </wgt>
<wgt id='morphing_basis_vector_5'> +2.7250384e-07 </wgt>
</rwgt>
</event>
<event>
 4      1 +6.9060000e-13 6.81761900e+03 7.81860800e-03 7.17815500e-02
        2 -1    0    0  501    0 +0.0000000000e+00 +0.0000000000e+00 +4.3224726047e+03 4.3224726047e+03 0.0000000000e+00 0.0000e+00 1.0000e+00
       -2 -1    0    0    0  501 -0.0000000000e+00 -0.0000000000e+00 -2.6882722735e+03 2.6882722735e+03 0.0000000000e+00 0.0000e+00 -1.0000e+00
      -13  1    1    2    0    0 -3.1991419899e+03 +1.1352349634e+03 +1.1369006732e+03 3.5799177413e+03 0.0000000000e+00 0.0000e+00 1.0000e+00
       13  1    1    2    0    0 +3.1991419899e+03 -1.1352349634e+03 +4.9729965799e+02 3.4308271369e+03 0.0000000000e+00 0.0000e+00 -1.0000e+00
<mgrwt>
<rscale>  0 0.68176193E+04</rscale>
<asrwt>0</asrwt>
<pdfrwt beam="1">  1        2 0.66499579E+00 0.68176193E+04</pdfrwt>
<pdfrwt beam="2">  1       -2 0.41358035E+00 0.68176193E+04</pdfrwt>
<totfact> 0.53867653E-04</totfact>
</mgrwt>
<rwgt>
<wgt id='morphing_basis_vector_1'> +2.1164007e-07 </wgt>
<wgt id='morphing_basis_vector_2'> +1.6707200e-07 </wgt>
<wgt id='morphing_basis_vector_3'> +2.3925012e-07 </wgt>
<wgt id='morphing_basis_vector_4'> +1.3937686e-07 </wgt>
<wgt id='morphing_basis_vector_5'> +2.5539298e-07 </wgt>
</rwgt>
</event>
<event>
 4      1 +6.9060000e-13 6.98756300e+03 7.81860800e-03 7.16227400e-02
        2 -1    0    0  501    0 +0.0000000000e+00 +0.0000000000e+00 +2.2833710058e+03 2.2833710058e+03 0.0000000000e+00 0.0000e+00 1.0000e+00
       -2 -1    0    0    0  501 -0.0000000000e+00 -0.0000000000e+00 -5.3458288854e+03 5.3458288854e+03 0.0000000000e+00 0.0000e+00 -1.0000e+00
      -13  1    1    2    0    0 -7.2025616356e+02 -3.1740572642e+03 -1.4452364077e+02 3.2579587997e+03 0.0000000000e+00 0.0000e+00 -1.0000e+00
       13  1    1    2    0    0 +7.2025616356e+02 +3.1740572642e+03 -2.9179342389e+03 4.3712410915e+03 0.0000000000e+00 0.0000e+00 1.0000e+00
<mgrwt>
<rscale>  0 0.69875634E+04</rscale>
<asrwt>0</asrwt>
<pdfrwt beam="1">  1        2 0.35128785E+00 0.69875634E+04</pdfrwt>
<pdfrwt beam="2">  1       -2 0.82243521E+00 0.69875634E+04</pdfrwt>
<totfact> 0.30062384E-04</totfact>
</mgrwt>
<rwgt>
<wgt id='morphing_basis_vector_1'> +2.4989453e-07 </wgt>
<wgt id='morphing_basis_vector_2'> +2.3243859e-07 </wgt>
<wgt id='morphing_basis_vector_3'> +2.9087591e-07 </wgt>
<wgt id='morphing_basis_vector_4'> +1.1868432e-07 </wgt>
<wgt id='morphing_basis_vector_5'> +2.7890974e-07 </wgt>
</rwgt>
</event>
<event>
 4      1 +6.9060000e-13 7.18774100e+03 7.81860800e-03 7.14414200e-02
        2 -1    0    0  501    0 +0.0000000000e+00 +0.0000000000e+00 +4.4716538178e+03 4.4716538178e+03 0.0000000000e+00 0.0000e+00 1.0000e+00
       -2 -1    0    0    0  501 -0.0000000000e+00 -0.0000000000e+00 -2.8883959607e+03 2.8883959607e+03 0.0000000000e+00 0.0000e+00 -1.0000e+00
      -13  1    1    2    0    0 -2.9273499714e+03 +7.0625920850e+02 -1.2169570379e+03 3.2479477146e+03 0.0000000000e+00 0.0000e+00 -1.0000e+00
       13  1    1    2    0    0 +2.9273499714e+03 -7.0625920850e+02 +2.8002148951e+03 4.1121020639e+03 0.0000000000e+00 0.0000e+00 1.0000e+00
<mgrwt>
<rscale>  0 0.71877415E+04</rscale>
<asrwt>0</asrwt>
<pdfrwt beam="1">  1        2 0.68794674E+00 0.71877415E+04</pdfrwt>
<pdfrwt beam="2">  1       -2 0.44436861E+00 0.71877415E+04</pdfrwt>
<totfact> 0.23141675E-04</totfact>
</mgrwt>
<rwgt>
<wgt id='morphing_basis_vector_1'> +2.4960232e-07 </wgt>
<wgt id='morphing_basis_vector_2'> +1.7180030e-07 </wgt>
<wgt id='morphing_basis_vector_3'> +2.7627707e-07 </wgt>
<wgt id='morphing_basis_vector_4'> +1.9753169e-07 </wgt>
<wgt id='morphing_basis_vector_5'> +3.1777257e-07 </wgt>
</rwgt>
</event>
<event>
 4      1 +6.9060000e-13 6.90235600e+03 7.81860800e-03 7.17017900e-02
        2 -1    0    0  501    0 +0.0000000000e+00 +0.0000000000e+00 +5.9102269708e+03 5.9102269708e+03 0.0000000000e+00 0.0000e+00 -1.0000e+00
       -2 -1    0    0    0  501 -0.0000000000e+00 -0.0000000000e+00 -2.0152574564e+03 2.0152574564e+03 0.0000000000e+00 0.0000e+00 1.0000e+00
      -13  1    1    2    0    0 +7.2649648550e+02 -3.3735164792e+03 +2.0015661314e+03 3.9893204381e+03 0.0000000000e+00 0.0000e+00 1.0000e+00
       13  1    1    2    0    0 -7.2649648550e+02 +3.3735164792e+03 +1.8934033830e+03 3.9361639892e+03 0.0000000000e+00 0.0000e+00 -1.0000e+00
<mgrwt>
<rscale>  0 0.69023558E+04</rscale>
<asrwt>0</asrwt>
<pdfrwt beam="1">  1        2 0.90926568E+00 0.69023558E+04</pdfrwt>
<pdfrwt beam="2">  1       -2 0.31003961E+00 0.69023558E+04</pdfrwt>
<totfact> 0.73726843E-06</totfact>
</mgrwt>
<rwgt>
<wgt id='morphing_basis_vector_1'> +2.1976124e-07 </wgt>
<wgt id='morphing_basis_vector_2'> +1.6795730e-07 </wgt>
<wgt id='morphing_basis_vector_3'> +2.4714407e-07 </wgt>
<wgt id='morphing_basis_vector_4'> +1.5197800e-07 </wgt>
<wgt id='morphing_basis_vector_5'> +2.6881685e-07 </wgt>
</rwgt>
</event>
<event>
 4      1 +6.9060000e-13 7.32311300e+03 7.81860800e-03 7.13221400e-02
        2 -1    0    0  501    0 +0.0000000000e+00 +0.0000000000e+00 +3.8781138012e+03 3.8781138012e+03 0.0000000000e+00 0.0000e+00 -1.0000e+00
       -2 -1    0    0    0  501 -0.0000000000e+00 -0.0000000000e+00 -3.4570922207e+03 3.4570922207e+03 0.0000000000e+00 0.0000e+00 1.0000e+00
      -13  1    1    2    0    0 -2.7104771272e+03 -1.1842459492e+03 -1.9512635314e+03 3.5435228367e+03 0.0000000000e+00 0.0000e+00 1.0000e+00
       13  1    1    2    0    0 +2.7104771272e+03 +1.1842459492e+03 +2.3722851119e+03 3.7916831852e+03 0.0000000000e+00 0.0000e+00 -1.0000e+00
<mgrwt>
<rscale>  0 0.73231133E+04</rscale>
<asrwt>0</asrwt>
<pdfrwt beam="1">  1        2 0.59663289E+00 0.73231133E+04</pdfrwt>
<pdfrwt beam="2">  1       -2 0.53186034E+00 0.73231133E+04</pdfrwt>
<totfact> 0.18263685E-04</totfact>
</mgrwt>
<rwgt>
<wgt id='morphing_basis_vector_1'> +2.6870139e-07 </wgt>
<wgt id='morphing_basis_vector_2'> +1.8448468e-07 </wgt>
<wgt id='morphing_basis_vector_3'> +2.9733742e-07 </wgt>
<wgt id='morphing_basis_vector_4'> +2.1331492e-07 </wgt>
<wgt id='morphing_basis_vector_5'> +3.4247336e-07 </wgt>
</rwgt>
</event>
<event>
 4      1 +6.9060000e-13 6.96044000e+03 7.81860800e-03 7.16477800e-02
        2 -1    0    0  501    0 +0.0000000000e+00 +0.0000000000e+00 +2.2747404978e+03 2.2747404978e+03 0.0000000000e+00 0.0000e+00 -1.0000e+00
       -2 -1    0    0    0  501 -0.0000000000e+00 -0.0000000000e+00 -5.3245326957e+03 5.3245326957e+03 0.0000000000e+00 0.0000e+00 1.0000e+00
      -13  1    1    2    0    0 +2.7105453003e+02 -3.4420847282e+03 -2.0014334173e+03 3.9908838066e+03 0.0000000000e+00 0.0000e+00 1.0000e+00
       13  1    1    2    0    0 -2.7105453003e+02 +3.4420847282e+03 -1.0483587807e+03 3.6083893869e+03 0.0000000000e+00 0.0000e+00 -1.0000e+00
<mgrwt>
<rscale>  0 0.69604397E+04</rscale>
<asrwt>0</asrwt>
<pdfrwt beam="1">  1        2 0.34996008E+00 0.69604397E+04</pdfrwt>
<pdfrwt beam="2">  1       -2 0.81915886E+00 0.69604397E+04</pdfrwt>
<totfact> 0.31393916E-04</totfact>
</mgrwt>
<rwgt>
<wgt id='morphing_basis_vector_1'> +2.2384206e-07 </wgt>
<wgt id='morphing_basis_vector_2'> +1.6370880e-07 </wgt>
<wgt id='morphing_basis_vector_3'> +2.5000223e-07 </wgt>
<wgt id='morphing_basis_vector_4'> +1.6445104e-07 </wgt>
<wgt id='morphing_basis_vector_5'> +2.7860924e-07 </wgt>
</rwgt>
</event>
<event>
 4      1 +6.9060000e-13 7.69802600e+03 7.81860800e-03 7.10048700e-02
        2 -1    0    0  501    0 +0.0000000000e+00 +0.0000000000e+00 +4.5424221923e+03 4.5424221923e+03 0.0000000000e+00 0.0000e+00 1.0000e+00
       -2 -1    0    0    0  501 -0.0000000000e+00 -0.0000000000e+00 -3.2614542191e+03 3.2614542191e+03 0.0000000000e+00 0.0000e+00 -1.0000e+00
      -13  1    1    2    0    0 -1.7110444016e+02 -1.3126587811e+03 -3.0234278532e+03 3.3005250777e+03 0.0000000000e+00 0.0000e+00 -1.0000e+00
       13  1    1    2    0    0 +1.7110444016e+02 +1.3126587811e+03 +4.3043958264e+03 4.5033513338e+03 0.0000000000e+00 0.0000e+00 1.0000e+00
<mgrwt>
<rscale>  0 0.76980262E+04</rscale>
<asrwt>0</asrwt>
<pdfrwt beam="1">  1        2 0.69883419E+00 0.76980262E+04</pdfrwt>
<pdfrwt beam="2">  1       -2 0.50176218E+00 0.76980262E+04</pdfrwt>
<totfact> 0.72027109E-05</totfact>
</mgrwt>
<rwgt>
<wgt id='morphing_basis_vector_1'> +3.2713014e-07 </wgt>
<wgt id='morphing_basis_vector_2'> +2.2267863e-07 </wgt>
<wgt id='morphing_basis_vector_3'> +3.6162579e-07 </wgt>
<wgt id='morphing_basis_vector_4'> +2.6241396e-07 </wgt>
<wgt id='morphing_basis_vector_5'> +4.1845345e-07 </wgt>
</rwgt>
</event>
<event>
 4      1 +6.9060000e-13 7.35634000e+03 7.81860800e-03 7.12932600e-02
        2 -1    0    0  501    0 +0.0000000000e+00 +0.0000000000e+00 +2.3895709532e+03 2.3895709532e+03 0.0000000000e+00 0.0000e+00 1.0000e+00
       -2 -1    0    0    0  501 -0.0000000000e+00 -0.0000000000e+00 -5.6616589217e+03 5.6616589217e+03 0.0000000000e+00 0.0000e+00 -1.0000e+00
      -13  1    1    2    0    0 +2.4323558277e+03 -1.7350810130e+03 -3.9839312856e+03 4.9798162097e+03 0.0000000000e+00 0.0000e+00 -1.0000e+00
       13  1    1    2    0    0 -2.4323558277e+03 +1.7350810130e+03 +7.1184331707e+02 3.0714136651e+03 0.0000000000e+00 0.0000e+00 1.0000e+00
<mgrwt>
<rscale>  0 0.73563403E+04</rscale>
<asrwt>0</asrwt>
<pdfrwt beam="1">  1        2 0.36762630E+00 0.73563403E+04</pdfrwt>
<pdfrwt beam="2">  1       -2 0.87102445E+00 0.73563403E+04</pdfrwt>
<totfact> 0.11994429E-04</totfact>
</mgrwt>
<rwgt>
<wgt id='morphing_basis_vector_1'> +2.7363200e-07 </wgt>
<wgt id='morphing_basis_vector_2'> +1.8793642e-07 </wgt>
<wgt id='morphing_basis_vector_3'> +3.0281645e-07 </wgt>
<wgt id='morphing_basis_vector_4'> +2.1715798e-07 </wgt>
<wgt id='morphing_basis_vector_5'> +3.4873555e-07 </wgt>
</rwgt>
</event>
<event>
 4      1 +6.9060000e-13 6.70634800e+03 7.81860800e-03 7.18880800e-02
        2 -1    0    0  501    0 +0.0000000000e+00 +0.0000000000e+00 +4.1577552243e+03 4.1577552243e+03 0.0000000000e+00 0.0000e+00 1.0000e+00
       -2 -1    0    0    0  501 -0.0000000000e+00 -0.0000000000e+00 -2.7042900238e+03 2.7042900238e+03 0.0000000000e+00 0.0000e+00 -1.0000e+00
      -13  1    1    2    0    0 -2.1383668293e+03 +2.5536985170e+03 +1.1227413545e+03 3.5149021268e+03 0.0000000000e+00 0.0000e+00 -1.0000e+00
       13  1    1    2    0    0 +2.1383668293e+03 -2.5536985170e+03 +3.3072384596e+02 3.3471431213e+03 0.0000000000e+00 0.0000e+00 1.0000e+00
<mgrwt>
<rscale>  0 0.67063480E+04</rscale>
<asrwt>0</asrwt>
<pdfrwt beam="1">  1        2 0.63965465E+00 0.67063480E+04</pdfrwt>
<pdfrwt beam="2">  1       -2 0.41604462E+00 0.67063480E+04</pdfrwt>
<totfact> 0.74493667E-04</totfact>
</mgrwt>
<rwgt>
<wgt id='morphing_basis_vector_1'> +1.9901987e-07 </wgt>
<wgt id='morphing_basis_vector_2'> +1.5889975e-07 </wgt>
<wgt id='morphing_basis_vector_3'> +2.2537987e-07 </wgt>
<wgt id='morphing_basis_vector_4'> +1.2868657e-07 </wgt>
<wgt id='morphing_basis_vector_5'> +2.3894524e-07 </wgt>
</rwgt>
</event>
<event>
 4      1 +6.9060000e-13 6.73299700e+03 7.81860800e-03 7.18623800e-02
        2 -1    0    0  501    0 +0.0000000000e+00 +0.0000000000e+00 +2.1841756868e+03 2.1841756868e+03 0.0000000000e+00 0.0000e+00 -1.0000e+00
       -2 -1    0    0    0  501 -0.0000000000e+00 -0.0000000000e+00 -5.1888282256e+03 5.1888282256e+03 0.0000000000e+00 0.0000e+00 1.0000e+00
      -13  1    1    2    0    0 -2.6870242100e+03 +2.0171424153e+03 -1.7329383172e+03 3.7804811651e+03 0.0000000000e+00 0.0000e+00 1.0000e+00
       13  1    1    2    0    0 +2.6870242100e+03 -2.0171424153e+03 -1.2717142217e+03 3.5925227474e+03 0.0000000000e+00 0.0000e+00 -1.0000e+00
<mgrwt>
<rscale>  0 0.67329971E+04</rscale>
<asrwt>0</asrwt>
<pdfrwt beam="1">  1        2 0.33602703E+00 0.67329971E+04</pdfrwt>
<pdfrwt beam="2">  1       -2 0.79828127E+00 0.67329971E+04</pdfrwt>
<totfact> 0.41014193E-04</totfact>
</mgrwt>
<rwgt>
<wgt id='morphing_basis_vector_1'> +1.9721336e-07 </wgt>
<wgt id='morphing_basis_vector_2'> +1.4681552e-07 </wgt>
<wgt id='morphing_basis_vector_3'> +2.2082450e-07 </wgt>
<wgt id='morphing_basis_vector_4'> +1.4142677e-07 </wgt>
<wgt id='morphing_basis_vector_5'> +2.4367223e-07 </wgt>
</rwgt>
</event>
<event>
 4      1 +6.9060000e-13 7.04648800e+03 7.81860800e-03 7.15687400e-02
        2 -1    0    0  501    0 +0.0000000000e+00 +0.0000000000e+00 +4.6593136303e+03 4.6593136303e+03 0.0000000000e+00 0.0000e+00 -1.0000e+00
       -2 -1    0    0    0  501 -0.0000000000e+00 -0.0000000000e+00 -2.6641799031e+03 2.6641799031e+03 0.0000000000e+00 0.0000e+00 1.0000e+00
      -13  1    1    2    0    0 +2.7279078651e+03 -1.2550644276e+03 -9.1786449362e+02 3.1399272709e+03 0.0000000000e+00 0.0000e+00 1.0000e+00
       13  1    1    2    0    0 -2.7279078651e+03 +1.2550644276e+03 +2.9129982209e+03 4.1835662625e+03 0.0000000000e+00 0.0000e+00 -1.0000e+00
<mgrwt>
<rscale>  0 0.70464884E+04</rscale>
<asrwt>0</asrwt>
<pdfrwt beam="1">  1        2 0.71681748E+00 0.70464884E+04</pdfrwt>
<pdfrwt beam="2">  1       -2 0.40987383E+00 0.70464884E+04</pdfrwt>
<totfact> 0.25117560E-04</totfact>
</mgrwt>
<rwgt>
<wgt id='morphing_basis_vector_1'> +2.3069004e-07 </wgt>
<wgt id='morphing_basis_vector_2'> +1.5901296e-07 </wgt>
<wgt id='morphing_basis_vector_3'> +2.5536990e-07 </wgt>
<wgt id='morphing_basis_vector_4'> +1.8220258e-07 </wgt>
<wgt id='morphing_basis_vector_5'> +2.9346405e-07 </wgt>
</rwgt>
</event>
<event>
 4      1 +6.9060000e-13 7.10479800e+03 7.81860800e-03 7.15158200e-02
        2 -1    0    0  501    0 +0.0000000000e+00 +0.0000000000e+00 +2.1716992013e+03 2.1716992013e+03 0.0000000000e+00 0.0000e+00 -1.0000e+00
       -2 -1    0    0    0  501 -0.0000000000e+00 -0.0000000000e+00 -5.8109047634e+03 5.8109047634e+03 0.0000000000e+00 0.0000e+00 1.0000e+00
      -13  1    1    2    0    0 -2.6019767331e+03 -2.2024997882e+03 -6.9703566951e+02 3.4795325780e+03 0.0000000000e+00 0.0000e+00 1.0000e+00
       13  1    1    2    0    0 +2.6019767331e+03 +2.2024997882e+03 -2.9421698926e+03 4.5030713867e+03 0.0000000000e+00 0.0000e+00 -1.0000e+00
<mgrwt>
<rscale>  0 0.71047976E+04</rscale>
<asrwt>0</asrwt>
<pdfrwt beam="1">  1        2 0.33410757E+00 0.71047976E+04</pdfrwt>
<pdfrwt beam="2">  1       -2 0.89398536E+00 0.71047976E+04</pdfrwt>
<totfact> 0.94428079E-05</totfact>
</mgrwt>
<rwgt>
<wgt id='morphing_basis_vector_1'> +2.6031981e-07 </wgt>
<wgt id='morphing_basis_vector_2'> +2.2863165e-07 </wgt>
<wgt id='morphing_basis_vector_3'> +2.9984893e-07 </wgt>
<wgt id='morphing_basis_vector_4'> +1.4132533e-07 </wgt>
<wgt id='morphing_basis_vector_5'> +2.9935337e-07 </wgt>
</rwgt>
</event>
<event>
 4      1 +6.9060000e-13 6.79471500e+03 7.81860800e-03 7.18033100e-02
        2 -1    0    0  501    0 +0.0000000000e+00 +0.0000000000e+00 +2.9718568909e+03 2.9718568909e+03 0.0000000000e+00 0.0000e+00 -1.0000e+00
       -2 -1    0    0    0  501 -0.0000000000e+00 -0.0000000000e+00 -3.8837800518e+03 3.8837800518e+03 0.0000000000e+00 0.0000e+00 1.0000e+00
      -13  1    1    2    0    0 +1.4956015411e+03 -2.2216667145e+03 -2.5650171921e+03 3.7083608449e+03 0.0000000000e+00 0.0000e+00 1.0000e+00
       13  1    1    2    0    0 -1.4956015411e+03 +2.2216667145e+03 +1.6530940313e+03 3.1472760979e+03 0.0000000000e+00 0.0000e+00 -1.0000e+00
<mgrwt>
<rscale>  0 0.67947152E+04</rscale>
<asrwt>0</asrwt>
<pdfrwt beam="1">  1        2 0.45720876E+00 0.67947152E+04</pdfrwt>
<pdfrwt beam="2">  1       -2 0.59750462E+00 0.67947152E+04</pdfrwt>
<totfact> 0.27476865E-04</totfact>
</mgrwt>
<rwgt>
<wgt id='morphing_basis_vector_1'> +1.9916475e-07 </wgt>
<wgt id='morphing_basis_vector_2'> +1.3652133e-07 </wgt>
<wgt id='morphing_basis_vector_3'> +2.2024441e-07 </wgt>
<wgt id='morphing_basis_vector_4'> +1.5819500e-07 </wgt>
<wgt id='morphing_basis_vector_5'> +2.5371524e-07 </wgt>
</rwgt>
</event>
<event>
 4      1 +6.9060000e-13 6.78503800e+03 7.81860800e-03 7.18125300e-02
        2 -1    0    0  501    0 +0.0000000000e+00 +0.0000000000e+00 +2.1833844177e+03 2.1833844177e+03 0.0000000000e+00 0.0000e+00 -1.0000e+00
       -2 -1    0    0    0  501 -0.0000000000e+00 -0.0000000000e+00 -5.2712586316e+03 5.2712586316e+03 0.0000000000e+00 0.0000e+00 1.0000e+00
      -13  1    1    2    0    0 +1.7499974987e+03 -2.7520479435e+03 -5.1742750816e+02 3.3021190704e+03 0.0000000000e+00 0.0000e+00 1.0000e+00
       13  1    1    2    0    0 -1.7499974987e+03 +2.7520479435e+03 -2.5704467058e+03 4.1525239790e+03 0.0000000000e+00 0.0000e+00 -1.0000e+00
<mgrwt>
<rscale>  0 0.67850376E+04</rscale>
<asrwt>0</asrwt>
<pdfrwt beam="1">  1        2 0.33590530E+00 0.67850376E+04</pdfrwt>
<pdfrwt beam="2">  1       -2 0.81096286E+00 0.67850376E+04</pdfrwt>
<totfact> 0.38176488E-04</totfact>
</mgrwt>
<rwgt>
<wgt id='morphing_basis_vector_1'> +2.1623764e-07 </wgt>
<wgt id='morphing_basis_vector_2'> +1.8916182e-07 </wgt>
<wgt id='morphing_basis_vector_3'> +2.4880580e-07 </wgt>
<wgt id='morphing_basis_vector_4'> +1.1827881e-07 </wgt>
<wgt id='morphing_basis_vector_5'> +2.4898332e-07 </wgt>
</rwgt>
</event>
<event>
 4      1 +6.9060000e-13 6.87515600e+03 7.81860800e-03 7.17272600e-02
        2 -1    0    0  501    0 +0.0000000000e+00 +0.0000000000e+00 +4.1180439057e+03 4.1180439057e+03 0.0000000000e+00 0.0000e+00 -1.0000e+00
       -2 -1    0    0    0  501 -0.0000000000e+00 -0.0000000000e+00 -2.8695524312e+03 2.8695524312e+03 0.0000000000e+00 0.0000e+00 1.0000e+00
      -13  1    1    2    0    0 +7.0402560425e+02 -2.2964073527e+03 -1.8752022438e+03 3.0472154890e+03 0.0000000000e+00 0.0000e+00 1.0000e+00
       13  1    1    2    0    0 -7.0402560425e+02 +2.2964073527e+03 +3.1236937183e+03 3.9403808479e+03 0.0000000000e+00 0.0000e+00 -1.0000e+00
<mgrwt>
<rscale>  0 0.68751561E+04</rscale>
<asrwt>0</asrwt>
<pdfrwt beam="1">  1        2 0.63354522E+00 0.68751561E+04</pdfrwt>
<pdfrwt beam="2">  1       -2 0.44146960E+00 0.68751561E+04</pdfrwt>
<totfact> 0.53884073E-04</totfact>
</mgrwt>
<rwgt>
<wgt id='morphing_basis_vector_1'> +2.0850132e-07 </wgt>
<wgt id='morphing_basis_vector_2'> +1.4237434e-07 </wgt>
<wgt id='morphing_basis_vector_3'> +2.3045602e-07 </wgt>
<wgt id='morphing_basis_vector_4'> +1.6636151e-07 </wgt>
<wgt id='morphing_basis_vector_5'> +2.6601069e-07 </wgt>
</rwgt>
</event>
<event>
 4      1 +6.9060000e-13 6.75445900e+03 7.81860800e-03 7.18417600e-02
        2 -1    0    0  501    0 +0.0000000000e+00 +0.0000000000e+00 +2.2906387300e+03 2.2906387300e+03 0.0000000000e+00 0.0000e+00 1.0000e+00
       -2 -1    0    0    0  501 -0.0000000000e+00 -0.0000000000e+00 -4.9792568163e+03 4.9792568163e+03 0.0000000000e+00 0.0000e+00 -1.0000e+00
      -13  1    1    2    0    0 +1.1898030645e+03 +2.3777450399e+03 -3.5856145774e+03 4.4638475226e+03 0.0000000000e+00 0.0000e+00 -1.0000e+00
       13  1    1    2    0    0 -1.1898030645e+03 -2.3777450399e+03 +8.9699649116e+02 2.8060480238e+03 0.0000000000e+00 0.0000e+00 1.0000e+00
<mgrwt>
<rscale>  0 0.67544588E+04</rscale>
<asrwt>0</asrwt>
<pdfrwt beam="1">  1        2 0.35240596E+00 0.67544588E+04</pdfrwt>
<pdfrwt beam="2">  1       -2 0.76603951E+00 0.67544588E+04</pdfrwt>
<totfact> 0.35957474E-04</totfact>
</mgrwt>
<rwgt>
<wgt id='morphing_basis_vector_1'> +1.9449111e-07 </wgt>
<wgt id='morphing_basis_vector_2'> +1.3330579e-07 </wgt>
<wgt id='morphing_basis_vector_3'> +2.1506547e-07 </wgt>
<wgt id='morphing_basis_vector_4'> +1.5448109e-07 </wgt>
<wgt id='morphing_basis_vector_5'> +2.4774630e-07 </wgt>
</rwgt>
</event>
<event>
 4      1 +6.9060000e-13 7.00889500e+03 7.81860800e-03 7.16031300e-02
        2 -1    0    0  501    0 +0.0000000000e+00 +0.0000000000e+00 +3.1236166711e+03 3.1236166711e+03 0.0000000000e+00 0.0000e+00 -1.0000e+00
       -2 -1    0    0    0  501 -0.0000000000e+00 -0.0000000000e+00 -3.9317086490e+03 3.9317086490e+03 0.0000000000e+00 0.0000e+00 1.0000e+00
      -13  1    1    2    0    0 -8.1469968880e+02 -3.3121390306e+03 -1.2138315767e+03 3.6204126336e+03 0.0000000000e+00 0.0000e+00 1.0000e+00
       13  1    1    2    0    0 +8.1469968880e+02 +3.3121390306e+03 +4.0573959891e+02 3.4349126864e+03 0.0000000000e+00 0.0000e+00 -1.0000e+00
<mgrwt>
<rscale>  0 0.70088945E+04</rscale>
<asrwt>0</asrwt>
<pdfrwt beam="1">  1        2 0.48055641E+00 0.70088945E+04</pdfrwt>
<pdfrwt beam="2">  1       -2 0.60487825E+00 0.70088945E+04</pdfrwt>
<totfact> 0.18265401E-04</totfact>
</mgrwt>
<rwgt>
<wgt id='morphing_basis_vector_1'> +2.2838350e-07 </wgt>
<wgt id='morphing_basis_vector_2'> +1.6318758e-07 </wgt>
<wgt id='morphing_basis_vector_3'> +2.5417486e-07 </wgt>
<wgt id='morphing_basis_vector_4'> +1.7283024e-07 </wgt>
<wgt id='morphing_basis_vector_5'> +2.8677716e-07 </wgt>
</rwgt>
</event>
<event>
 4      1 +6.9060000e-13 6.89846100e+03 7.81860800e-03 7.17054300e-02
        2 -1    0    0  501    0 +0.0000000000e+00 +0.0000000000e+00 +5.0910644381e+03 5.0910644381e+03 0.0000000000e+00 0.0000e+00 -1.0000e+00
       -2 -1    0    0    0  501 -0.0000000000e+00 -0.0000000000e+00 -2.3368767576e+03 2.3368767576e+03 0.0000000000e+00 0.0000e+00 1.0000e+00
      -13  1    1    2    0    0 -2.7507320048e+03 +1.6917831011e+03 +7.2251039784e+01 3.2301512095e+03 0.0000000000e+00 0.0000e+00 1.0000e+00
       13  1    1    2    0    0 +2.7507320048e+03 -1.6917831011e+03 +2.6819366407e+03 4.1977899862e+03 0.0000000000e+00 0.0000e+00 -1.0000e+00
<mgrwt>
<rscale>  0 0.68984607E+04</rscale>
<asrwt>0</asrwt>
<pdfrwt beam="1">  1        2 0.78324068E+00 0.68984607E+04</pdfrwt>
<pdfrwt beam="2">  1       -2 0.35951950E+00 0.68984607E+04</pdfrwt>
<totfact> 0.15503071E-04</totfact>
</mgrwt>
<rwgt>
<wgt id='morphing_basis_vector_1'> +2.1304050e-07 </wgt>
<wgt id='morphing_basis_vector_2'> +1.4930965e-07 </wgt>
<wgt id='morphing_basis_vector_3'> +2.3638604e-07 </wgt>
<wgt id='morphing_basis_vector_4'> +1.6498205e-07 </wgt>
<wgt id='morphing_basis_vector_5'> +2.6933433e-07 </wgt>
</rwgt>
</event>
<event>
 4      1 +6.9060000e-13 6.88366100e+03 7.81860800e-03 7.17192900e-02
        2 -1    0    0  501    0 +0.0000000000e+00 +0.0000000000e+00 +5.1512917632e+03 5.1512917632e+03 0.0000000000e+00 0.0000e+00 -1.0000e+00
       -2 -1    0    0    0  501 -0.0000000000e+00 -0.0000000000e+00 -2.2996555609e+03 2.2996555609e+03 0.0000000000e+00 0.0000e+00 1.0000e+00
      -13  1    1    2    0    0 +1.8906046661e+03 +4.5231478910e+02 -1.6485370286e+03 2.5488524882e+03 0.0000000000e+00 0.0000e+00 1.0000e+00
       13  1    1    2    0    0 -1.8906046661e+03 -4.5231478910e+02 +4.5001732309e+03 4.9020948359e+03 0.0000000000e+00 0.0000e+00 -1.0000e+00
<mgrwt>
<rscale>  0 0.68836609E+04</rscale>
<asrwt>0</asrwt>
<pdfrwt beam="1">  1        2 0.79250643E+00 0.68836609E+04</pdfrwt>
<pdfrwt beam="2">  1       -2 0.35379316E+00 0.68836609E+04</pdfrwt>
<totfact> 0.13853790E-04</totfact>
</mgrwt>
<rwgt>
<wgt id='morphing_basis_vector_1'> +2.0937666e-07 </wgt>
<wgt id='morphing_basis_vector_2'> +1.4262052e-07 </wgt>
<wgt id='morphing_basis_vector_3'> +2.3134200e-07 </wgt>
<wgt id='morphing_basis_vector_4'> +1.6752299e-07 </wgt>
<wgt id='morphing_basis_vector_5'> +2.6735986e-07 </wgt>
</rwgt>
</event>
<event>
 4      1 +6.9060000e-13 6.68437000e+03 7.81860800e-03 7.19093700e-02
        2 -1    0    0  501    0 +0.0000000000e+00 +0.0000000000e+00 +2.4462237908e+03 2.4462237908e+03 0.0000000000e+00 0.0000e+00 -1.0000e+00
       -2 -1    0    0    0  501 -0.0000000000e+00 -0.0000000000e+00 -4.5663035567e+03 4.5663035567e+03 0.0000000000e+00 0.0000e+00 1.0000e+00
      -13  1    1    2    0    0 +1.6281716295e+03 -2.4753654378e+03 -2.6825172730e+03 3.9967831848e+03 0.0000000000e+00 0.0000e+00 1.0000e+00
       13  1    1    2    0    0 -1.6281716295e+03 +2.4753654378e+03 +5.6243750716e+02 3.0157441628e+03 0.0000000000e+00 0.0000e+00 -1.0000e+00
<mgrwt>
<rscale>  0 0.66843699E+04</rscale>
<asrwt>0</asrwt>
<pdfrwt beam="1">  1        2 0.37634212E+00 0.66843699E+04</pdfrwt>
<pdfrwt beam="2">  1       -2 0.70250824E+00 0.66843699E+04</pdfrwt>
<totfact> 0.87592655E-05</totfact>
</mgrwt>
<rwgt>
<wgt id='morphing_basis_vector_1'> +1.8714361e-07 </wgt>
<wgt id='morphing_basis_vector_2'> +1.2958239e-07 </wgt>
<wgt id='morphing_basis_vector_3'> +2.0723751e-07 </wgt>
<wgt id='morphing_basis_vector_4'> +1.4690139e-07 </wgt>
<wgt id='morphing_basis_vector_5'> +2.3749892e-07 </wgt>
</rwgt>
</event>
<event>
 4      1 +6.9060000e-13 7.08013900e+03 7.81860800e-03 7.15381400e-02
        2 -1    0    0  501    0 +0.0000000000e+00 +0.0000000000e+00 +3.3097017132e+03 3.3097017132e+03 0.0000000000e+00 0.0000e+00 -1.0000e+00
       -2 -1    0    0    0  501 -0.0000000000e+00 -0.0000000000e+00 -3.7864716537e+03 3.7864716537e+03 0.0000000000e+00 0.0000e+00 1.0000e+00
      -13  1    1    2    0    0 -4.9808150527e+02 +3.4891688216e+03 -5.7035626608e+02 3.5703908080e+03 0.0000000000e+00 0.0000e+00 -1.0000e+00
       13  1    1    2    0    0 +4.9808150527e+02 -3.4891688216e+03 +9.3586325630e+01 3.5257825588e+03 0.0000000000e+00 0.0000e+00 1.0000e+00
<mgrwt>
<rscale>  0 0.70801389E+04</rscale>
<asrwt>0</asrwt>
<pdfrwt beam="1">  1        2 0.50918488E+00 0.70801389E+04</pdfrwt>
<pdfrwt beam="2">  1       -2 0.58253410E+00 0.70801389E+04</pdfrwt>
<totfact> 0.21276997E-04</totfact>
</mgrwt>
<rwgt>
<wgt id='morphing_basis_vector_1'> +2.4030824e-07 </wgt>
<wgt id='morphing_basis_vector_2'> +1.7729087e-07 </wgt>
<wgt id='morphing_basis_vector_3'> +2.6878597e-07 </wgt>
<wgt id='morphing_basis_vector_4'> +1.7458905e-07 </wgt>
<wgt id='morphing_basis_vector_5'> +2.9818141e-07 </wgt>
</rwgt>
</event>
<event>
 4      1 +6.9060000e-13 7.28893500e+03 7.81860800e-03 7.13520100e-02
        2 -1    0    0  501    0 +0.0000000000e+00 +0.0000000000e+00 +5.1603712707e+03 5.1603712707e+03 0.0000000000e+00 0.0000e+00 1.0000e+00
       -2 -1    0    0    0  501 -0.0000000000e+00 -0.0000000000e+00 -2.5738736807e+03 2.5738736807e+03 0.0000000000e+00 0.0000e+00 -1.0000e+00
      -13  1    1    2    0    0 +2.8884833621e+03 -9.2333792515e+01 -1.0628295312e+03 3.0791992912e+03 0.0000000000e+00 0.0000e+00 -1.0000e+00
       13  1    1    2    0    0 -2.8884833621e+03 +9.2333792515e+01 +3.6493271212e+03 4.6550456603e+03 0.0000000000e+00 0.0000e+00 1.0000e+00
<mgrwt>
<rscale>  0 0.72889351E+04</rscale>
<asrwt>0</asrwt>
<pdfrwt beam="1">  1        2 0.79390327E+00 0.72889351E+04</pdfrwt>
<pdfrwt beam="2">  1       -2 0.39598057E+00 0.72889351E+04</pdfrwt>
<totfact> 0.69653082E-05</totfact>
</mgrwt>
<rwgt>
<wgt id='morphing_basis_vector_1'> +2.6364527e-07 </wgt>
<wgt id='morphing_basis_vector_2'> +1.8082482e-07 </wgt>
<wgt id='morphing_basis_vector_3'> +2.9169052e-07 </wgt>
<wgt id='morphing_basis_vector_4'> +2.0953160e-07 </wgt>
<wgt id='morphing_basis_vector_5'> +3.3613005e-07 </wgt>
</rwgt>
</event>
<event>
 4      1 +6.9060000e-13 7.44892300e+03 7.81860800e-03 7.12135900e-02
        2 -1    0    0  501    0 +0.0000000000e+00 +0.0000000000e+00 +2.6240668807e+03 2.6240668807e+03 0.0000000000e+00 0.0000e+00 1.0000e+00
       -2 -1    0    0    0  501 -0.0000000000e+00 -0.0000000000e+00 -5.2863039019e+03 5.2863039019e+03 0.0000000000e+00 0.0000e+00 -1.0000e+00
      -13  1    1    2    0    0 +3.6573171255e+03 -4.2458105342e+02 -1.9274923584e+03 4.1558951405e+03 0.0000000000e+00 0.0000e+00 -1.0000e+00
       13  1    1    2    0    0 -3.6573171255e+03 +4.2458105342e+02 -7.3474466288e+02 3.7544756421e+03 0.0000000000e+00 0.0000e+00 1.0000e+00
<mgrwt>
<rscale>  0 0.74489234E+04</rscale>
<asrwt>0</asrwt>
<pdfrwt beam="1">  1        2 0.40370260E+00 0.74489234E+04</pdfrwt>
<pdfrwt beam="2">  1       -2 0.81327752E+00 0.74489234E+04</pdfrwt>
<totfact> 0.19769949E-04</totfact>
</mgrwt>
<rwgt>
<wgt id='morphing_basis_vector_1'> +2.9286706e-07 </wgt>
<wgt id='morphing_basis_vector_2'> +2.1288499e-07 </wgt>
<wgt id='morphing_basis_vector_3'> +3.2691377e-07 </wgt>
<wgt id='morphing_basis_vector_4'> +2.1711434e-07 </wgt>
<wgt id='morphing_basis_vector_5'> +3.6570769e-07 </wgt>
</rwgt>
</event>
<event>
 4      1 +6.9060000e-13 7.31507200e+03 7.81860800e-03 7.13291600e-02
        2 -1    0    0  501    0 +0.0000000000e+00 +0.0000000000e+00 +2.4456393151e+03 2.4456393151e+03 0.0000000000e+00 0.0000e+00 -1.0000e+00
       -2 -1    0    0    0  501 -0.0000000000e+00 -0.0000000000e+00 -5.4699678664e+03 5.4699678664e+03 0.0000000000e+00 0.0000e+00 1.0000e+00
      -13  1    1    2    0    0 -3.2995409007e+02 -2.8272389730e+03 -3.9975517669e+03 4.9073995192e+03 0.0000000000e+00 0.0000e+00 1.0000e+00
       13  1    1    2    0    0 +3.2995409007e+02 +2.8272389730e+03 +9.7322321561e+02 3.0082076623e+03 0.0000000000e+00 0.0000e+00 -1.0000e+00
<mgrwt>
<rscale>  0 0.73150717E+04</rscale>
<asrwt>0</asrwt>
<pdfrwt beam="1">  1        2 0.37625221E+00 0.73150717E+04</pdfrwt>
<pdfrwt beam="2">  1       -2 0.84153351E+00 0.73150717E+04</pdfrwt>
<totfact> 0.18851912E-04</totfact>
</mgrwt>
<rwgt>
<wgt id='morphing_basis_vector_1'> +2.6736869e-07 </wgt>
<wgt id='morphing_basis_vector_2'> +1.8321788e-07 </wgt>
<wgt id='morphing_basis_vector_3'> +2.9577744e-07 </wgt>
<wgt id='morphing_basis_vector_4'> +2.1271324e-07 </wgt>
<wgt id='morphing_basis_vector_5'> +3.4099758e-07 </wgt>
</rwgt>
</event>
<event>
 4      1 +6.9060000e-13 6.79259800e+03 7.81860800e-03 7.18053200e-02
        2 -1    0    0  501    0 +0.0000000000e+00 +0.0000000000e+00 +2.9006406328e+03 2.9006406328e+03 0.0000000000e+00 0.0000e+00 -1.0000e+00
       -2 -1    0    0    0  501 -0.0000000000e+00 -0.0000000000e+00 -3.9766544801e+03 3.9766544801e+03 0.0000000000e+00 0.0000e+00 1.0000e+00
      -13  1    1    2    0    0 +1.4997988549e+02 +2.7168802854e+03 -2.5958146965e+03 3.7606098428e+03 0.0000000000e+00 0.0000e+00 1.0000e+00
       13  1    1    2    0    0 -1.4997988549e+02 -2.7168802854e+03 +1.5198008492e+03 3.1166852701e+03 0.0000000000e+00 0.0000e+00 -1.0000e+00
<mgrwt>
<rscale>  0 0.67925976E+04</rscale>
<asrwt>0</asrwt>
<pdfrwt beam="1">  1        2 0.44625241E+00 0.67925976E+04</pdfrwt>
<pdfrwt beam="2">  1       -2 0.61179299E+00 0.67925976E+04</pdfrwt>
<totfact> 0.21948824E-04</totfact>
</mgrwt>
<rwgt>
<wgt id='morphing_basis_vector_1'> +1.9896816e-07 </wgt>
<wgt id='morphing_basis_vector_2'> +1.3650138e-07 </wgt>
<wgt id='morphing_basis_vector_3'> +2.2005375e-07 </wgt>
<wgt id='morphing_basis_vector_4'> +1.5788797e-07 </wgt>
<wgt id='morphing_basis_vector_5'> +2.5338934e-07 </wgt>
</rwgt>
</event>
<event>
 4      1 +6.9060000e-13 7.01287100e+03 7.81860800e-03 7.15994800e-02
        2 -1    0    0  501    0 +0.0000000000e+00 +0.0000000000e+00 +5.2593398227e+03 5.2593398227e+03 0.0000000000e+00 0.0000e+00 -1.0000e+00
       -2 -1    0    0    0  501 -0.0000000000e+00 -0.0000000000e+00 -2.3377627598e+03 2.3377627598e+03 0.0000000000e+00 0.0000e+00 1.0000e+00
      -13  1    1    2    0    0 +5.6369060574e+02 -1.1543391920e+03 -2.0736610005e+03 2.4393269593e+03 0.0000000000e+00 0.0000e+00 1.0000e+00
       13  1    1    2    0    0 -5.6369060574e+02 +1.1543391920e+03 +4.9952380634e+03 5.1577756232e+03 0.0000000000e+00 0.0000e+00 -1.0000e+00
<mgrwt>
<rscale>  0 0.70128707E+04</rscale>
<asrwt>0</asrwt>
<pdfrwt beam="1">  1        2 0.80912920E+00 0.70128707E+04</pdfrwt>
<pdfrwt beam="2">  1       -2 0.35965581E+00 0.70128707E+04</pdfrwt>
<totfact> 0.86165620E-05</totfact>
</mgrwt>
<rwgt>
<wgt id='morphing_basis_vector_1'> +2.2544419e-07 </wgt>
<wgt id='morphing_basis_vector_2'> +1.5341375e-07 </wgt>
<wgt id='morphing_basis_vector_3'> +2.4908602e-07 </wgt>
<wgt id='morphing_basis_vector_4'> +1.8063649e-07 </wgt>
<wgt id='morphing_basis_vector_5'> +2.8805431e-07 </wgt>
</rwgt>
</event>
<event>
 4      1 +6.9060000e-13 7.59335100e+03 7.81860800e-03 7.10915900e-02
        2 -1    0    0  501    0 +0.0000000000e+00 +0.0000000000e+00 +3.9550884028e+03 3.9550884028e+03 0.0000000000e+00 0.0000e+00 1.0000e+00
       -2 -1    0    0    0  501 -0.0000000000e+00 -0.0000000000e+00 -3.6446076684e+03 3.6446076684e+03 0.0000000000e+00 0.0000e+00 -1.0000e+00
      -13  1    1    2    0    0 -2.3445471546e+03 +2.6128569621e+03 -1.2919355860e+03 3.7407245853e+03 0.0000000000e+00 0.0000e+00 -1.0000e+00
       13  1    1    2    0    0 +2.3445471546e+03 -2.6128569621e+03 +1.6024163204e+03 3.8589714858e+03 0.0000000000e+00 0.0000e+00 1.0000e+00
<mgrwt>
<rscale>  0 0.75933512E+04</rscale>
<asrwt>0</asrwt>
<pdfrwt beam="1">  1        2 0.60847514E+00 0.75933512E+04</pdfrwt>
<pdfrwt beam="2">  1       -2 0.56070887E+00 0.75933512E+04</pdfrwt>
<totfact> 0.95941500E-05</totfact>
</mgrwt>
<rwgt>
<wgt id='morphing_basis_vector_1'> +3.1219935e-07 </wgt>
<wgt id='morphing_basis_vector_2'> +2.1808982e-07 </wgt>
<wgt id='morphing_basis_vector_3'> +3.4642426e-07 </wgt>
<wgt id='morphing_basis_vector_4'> +2.4309180e-07 </wgt>
<wgt id='morphing_basis_vector_5'> +3.9567544e-07 </wgt>
</rwgt>
</event>
<event>
 4      1 +6.9060000e-13 6.72426800e+03 7.81860800e-03 7.18707800e-02
        2 -1    0    0  501    0 +0.0000000000e+00 +0.0000000000e+00 +3.6118020188e+03 3.6118020188e+03 0.0000000000e+00 0.0000e+00 1.0000e+00
       -2 -1    0    0    0  501 -0.0000000000e+00 -0.0000000000e+00 -3.1297246883e+03 3.1297246883e+03 0.0000000000e+00 0.0000e+00 -1.0000e+00
      -13  1    1    2    0    0 -4.8077522150e+02 +7.4520107116e+02 -3.0103508634e+03 3.1382609469e+03 0.0000000000e+00 0.0000e+00 -1.0000e+00
       13  1    1    2    0    0 +4.8077522150e+02 -7.4520107116e+02 +3.4924281938e+03 3.6032657602e+03 0.0000000000e+00 0.0000e+00 1.0000e+00
<mgrwt>
<rscale>  0 0.67242683E+04</rscale>
<asrwt>0</asrwt>
<pdfrwt beam="1">  1        2 0.55566185E+00 0.67242683E+04</pdfrwt>
<pdfrwt beam="2">  1       -2 0.48149611E+00 0.67242683E+04</pdfrwt>
<totfact> 0.73210470E-04</totfact>
</mgrwt>
<rwgt>
<wgt id='morphing_basis_vector_1'> +1.9061016e-07 </wgt>
<wgt id='morphing_basis_vector_2'> +1.2966908e-07 </wgt>
<wgt id='morphing_basis_vector_3'> +2.1053722e-07 </wgt>
<wgt id='morphing_basis_vector_4'> +1.5266116e-07 </wgt>
<wgt id='morphing_basis_vector_5'> +2.4341707e-07 </wgt>
</rwgt>
</event>
<event>
 4      1 +6.9060000e-13 7.30280400e+03 7.81860800e-03 7.13398700e-02
        2 -1    0    0  501    0 +0.0000000000e+00 +0.0000000000e+00 +2.3798443979e+03 2.3798443979e+03 0.0000000000e+00 0.0000e+00 1.0000e+00
       -2 -1    0    0    0  501 -0.0000000000e+00 -0.0000000000e+00 -5.6023567470e+03 5.6023567470e+03 0.0000000000e+00 0.0000e+00 -1.0000e+00
      -13  1    1    2    0    0 -9.8968760026e+01 +2.5909215998e+03 -4.4214480016e+03 5.1256094255e+03 0.0000000000e+00 0.0000e+00 -1.0000e+00
       13  1    1    2    0    0 +9.8968760026e+01 -2.5909215998e+03 +1.1989356525e+03 2.8565917193e+03 0.0000000000e+00 0.0000e+00 1.0000e+00
<mgrwt>
<rscale>  0 0.73028042E+04</rscale>
<asrwt>0</asrwt>
<pdfrwt beam="1">  1        2 0.36612991E+00 0.73028042E+04</pdfrwt>
<pdfrwt beam="2">  1       -2 0.86190102E+00 0.73028042E+04</pdfrwt>
<totfact> 0.14669029E-04</totfact>
</mgrwt>
<rwgt>
<wgt id='morphing_basis_vector_1'> +2.6534535e-07 </wgt>
<wgt id='morphing_basis_vector_2'> +1.8129710e-07 </wgt>
<wgt id='morphing_basis_vector_3'> +2.9340965e-07 </wgt>
<wgt id='morphing_basis_vector_4'> +2.1179649e-07 </wgt>
<wgt id='morphing_basis_vector_5'> +3.3875541e-07 </wgt>
</rwgt>
</event>
<event>
 4      1 +6.9060000e-13 7.13817500e+03 7.81860800e-03 7.14857600e-02
        2 -1    0    0  501    0 +0.0000000000e+00 +0.0000000000e+00 +4.4656572751e+03 4.4656572751e+03 0.0000000000e+00 0.0000e+00 1.0000e+00
       -2 -1    0    0    0  501 -0.0000000000e+00 -0.0000000000e+00 -2.8525223346e+03 2.8525223346e+03 0.0000000000e+00 0.0000e+00 -1.0000e+00
      -13  1    1    2    0    0 +3.1164713783e+03 -1.7322568255e+03 +9.6957233083e+02 3.6950207125e+03 0.0000000000e+00 0.0000e+00 -1.0000e+00
       13  1    1    2    0    0 -3.1164713783e+03 +1.7322568255e+03 +6.4356260972e+02 3.6231588971e+03 0.0000000000e+00 0.0000e+00 1.0000e+00
<mgrwt>
<rscale>  0 0.71381754E+04</rscale>
<asrwt>0</asrwt>
<pdfrwt beam="1">  1        2 0.68702419E+00 0.71381754E+04</pdfrwt>
<pdfrwt beam="2">  1       -2 0.43884959E+00 0.71381754E+04</pdfrwt>
<totfact> 0.25698615E-04</totfact>
</mgrwt>
<rwgt>
<wgt id='morphing_basis_vector_1'> +2.5240146e-07 </wgt>
<wgt id='morphing_basis_vector_2'> +1.9528849e-07 </wgt>
<wgt id='morphing_basis_vector_3'> +2.8447899e-07 </wgt>
<wgt id='morphing_basis_vector_4'> +1.7153597e-07 </wgt>
<wgt id='morphing_basis_vector_5'> +3.0734815e-07 </wgt>
</rwgt>
</event>
<event>
 4      1 +6.9060000e-13 7.32748400e+03 7.81860800e-03 7.13183400e-02
        2 -1    0    0  501    0 +0.0000000000e+00 +0.0000000000e+00 +5.4699890988e+03 5.4699890988e+03 0.0000000000e+00 0.0000e+00 1.0000e+00
       -2 -1    0    0    0  501 -0.0000000000e+00 -0.0000000000e+00 -2.4539361711e+03 2.4539361711e+03 0.0000000000e+00 0.0000e+00 -1.0000e+00
      -13  1    1    2    0    0 -1.5631801627e+03 +2.4782909302e+03 -8.7044565842e+02 3.0566540204e+03 0.0000000000e+00 0.0000e+00 -1.0000e+00
       13  1    1    2    0    0 +1.5631801627e+03 -2.4782909302e+03 +3.8864985861e+03 4.8672712495e+03 0.0000000000e+00 0.0000e+00 1.0000e+00
<mgrwt>
<rscale>  0 0.73274836E+04</rscale>
<asrwt>0</asrwt>
<pdfrwt beam="1">  1        2 0.84153678E+00 0.73274836E+04</pdfrwt>
<pdfrwt beam="2">  1       -2 0.37752864E+00 0.73274836E+04</pdfrwt>
<totfact> 0.28124750E-05</totfact>
</mgrwt>
<rwgt>
<wgt id='morphing_basis_vector_1'> +2.6929524e-07 </wgt>
<wgt id='morphing_basis_vector_2'> +1.8478681e-07 </wgt>
<wgt id='morphing_basis_vector_3'> +2.9797041e-07 </wgt>
<wgt id='morphing_basis_vector_4'> +2.1392651e-07 </wgt>
<wgt id='morphing_basis_vector_5'> +3.4330136e-07 </wgt>
</rwgt>
</event>
<event>
 4      1 +6.9060000e-13 6.90849500e+03 7.81860800e-03 7.16960600e-02
        2 -1    0    0  501    0 +0.0000000000e+00 +0.0000000000e+00 +3.9511725962e+03 3.9511725962e+03 0.0000000000e+00 0.0000e+00 1.0000e+00
       -2 -1    0    0    0  501 -0.0000000000e+00 -0.0000000000e+00 -3.0198187660e+03 3.0198187660e+03 0.0000000000e+00 0.0000e+00 -1.0000e+00
      -13  1    1    2    0    0 +3.3689503262e+03 -9.7004448074e+01 -2.9786451171e+02 3.3834833280e+03 0.0000000000e+00 0.0000e+00 -1.0000e+00
       13  1    1    2    0    0 -3.3689503262e+03 +9.7004448074e+01 +1.2292183419e+03 3.5875080342e+03 0.0000000000e+00 0.0000e+00 1.0000e+00
<mgrwt>
<rscale>  0 0.69084948E+04</rscale>
<asrwt>0</asrwt>
<pdfrwt beam="1">  1        2 0.60787271E+00 0.69084948E+04</pdfrwt>
<pdfrwt beam="2">  1       -2 0.46458750E+00 0.69084948E+04</pdfrwt>
<totfact> 0.51550172E-04</totfact>
</mgrwt>
<rwgt>
<wgt id='morphing_basis_vector_1'> +2.1573829e-07 </wgt>
<wgt id='morphing_basis_vector_2'> +1.5445710e-07 </wgt>
<wgt id='morphing_basis_vector_3'> +2.4015269e-07 </wgt>
<wgt id='morphing_basis_vector_4'> +1.6282042e-07 </wgt>
<wgt id='morphing_basis_vector_5'> +2.7064403e-07 </wgt>
</rwgt>
</event>
<event>
 4      1 +6.9060000e-13 7.48640500e+03 7.81860800e-03 7.11816600e-02
        2 -1    0    0  501    0 +0.0000000000e+00 +0.0000000000e+00 +2.7436109306e+03 2.7436109306e+03 0.0000000000e+00 0.0000e+00 -1.0000e+00
       -2 -1    0    0    0  501 -0.0000000000e+00 -0.0000000000e+00 -5.1069788926e+03 5.1069788926e+03 0.0000000000e+00 0.0000e+00 1.0000e+00
      -13  1    1    2    0    0 +1.9769882004e+03 -3.0515105389e+03 -2.1145455395e+03 4.2061266924e+03 0.0000000000e+00 0.0000e+00 1.0000e+00
       13  1    1    2    0    0 -1.9769882004e+03 +3.0515105389e+03 -2.4882242257e+02 3.6444631308e+03 0.0000000000e+00 0.0000e+00 -1.0000e+00
<mgrwt>
<rscale>  0 0.74864045E+04</rscale>
<asrwt>0</asrwt>
<pdfrwt beam="1">  1        2 0.42209400E+00 0.74864045E+04</pdfrwt>
<pdfrwt beam="2">  1       -2 0.78568905E+00 0.74864045E+04</pdfrwt>
<totfact> 0.18809852E-04</totfact>
</mgrwt>
<rwgt>
<wgt id='morphing_basis_vector_1'> +2.9700766e-07 </wgt>
<wgt id='morphing_basis_vector_2'> +2.1194823e-07 </wgt>
<wgt id='morphing_basis_vector_3'> +3.3060644e-07 </wgt>
<wgt id='morphing_basis_vector_4'> +2.2536422e-07 </wgt>
<wgt id='morphing_basis_vector_5'> +3.7345854e-07 </wgt>
</rwgt>
</event>
<event>
 4      1 +6.9060000e-13 6.96663600e+03 7.81860800e-03 7.16420500e-02
        2 -1    0    0  501    0 +0.0000000000e+00 +0.0000000000e+00 +5.7162298815e+03 5.7162298815e+03 0.0000000000e+00 0.0000e+00 -1.0000e+00
       -2 -1    0    0    0  501 -0.0000000000e+00 -0.0000000000e+00 -2.1226407735e+03 2.1226407735e+03 0.0000000000e+00 0.0000e+00 1.0000e+00
      -13  1    1    2    0    0 -9.0221787947e+02 +2.0647577346e+03 -1.1921533305e+03 2.5492059878e+03 0.0000000000e+00 0.0000e+00 1.0000e+00
       13  1    1    2    0    0 +9.0221787947e+02 -2.0647577346e+03 +4.7857424385e+03 5.2896646673e+03 0.0000000000e+00 0.0000e+00 -1.0000e+00
<mgrwt>
<rscale>  0 0.69666355E+04</rscale>
<asrwt>0</asrwt>
<pdfrwt beam="1">  1        2 0.87941998E+00 0.69666355E+04</pdfrwt>
<pdfrwt beam="2">  1       -2 0.32656012E+00 0.69666355E+04</pdfrwt>
<totfact> 0.18974815E-05</totfact>
</mgrwt>
<rwgt>
<wgt id='morphing_basis_vector_1'> +2.1971808e-07 </wgt>
<wgt id='morphing_basis_vector_2'> +1.4985318e-07 </wgt>
<wgt id='morphing_basis_vector_3'> +2.4282987e-07 </wgt>
<wgt id='morphing_basis_vector_4'> +1.7558882e-07 </wgt>
<wgt id='morphing_basis_vector_5'> +2.8049336e-07 </wgt>
</rwgt>
</event>
<event>
 4      1 +6.9060000e-13 7.05552800e+03 7.81860800e-03 7.15605000e-02
        2 -1    0    0  501    0 +0.0000000000e+00 +0.0000000000e+00 +2.4342490228e+03 2.4342490228e+03 0.0000000000e+00 0.0000e+00 -1.0000e+00
       -2 -1    0    0    0  501 -0.0000000000e+00 -0.0000000000e+00 -5.1125085224e+03 5.1125085224e+03 0.0000000000e+00 0.0000e+00 1.0000e+00
      -13  1    1    2    0    0 +1.5196295595e+03 +3.0814040135e+03 -2.1953591917e+03 4.0772449857e+03 0.0000000000e+00 0.0000e+00 1.0000e+00
       13  1    1    2    0    0 -1.5196295595e+03 -3.0814040135e+03 -4.8290030781e+02 3.4695125594e+03 0.0000000000e+00 0.0000e+00 -1.0000e+00
<mgrwt>
<rscale>  0 0.70555280E+04</rscale>
<asrwt>0</asrwt>
<pdfrwt beam="1">  1        2 0.37449986E+00 0.70555280E+04</pdfrwt>
<pdfrwt beam="2">  1       -2 0.78653976E+00 0.70555280E+04</pdfrwt>
<totfact> 0.29712340E-04</totfact>
</mgrwt>
<rwgt>
<wgt id='morphing_basis_vector_1'> +2.3455043e-07 </wgt>
<wgt id='morphing_basis_vector_2'> +1.6768290e-07 </wgt>
<wgt id='morphing_basis_vector_3'> +2.6106961e-07 </wgt>
<wgt id='morphing_basis_vector_4'> +1.7740153e-07 </wgt>
<wgt id='morphing_basis_vector_5'> +2.9449148e-07 </wgt>
</rwgt>
</event>
<event>
 4      1 +6.9060000e-13 7.03517500e+03 7.81860800e-03 7.15790700e-02
        2 -1    0    0  501    0 +0.0000000000e+00 +0.0000000000e+00 +4.3745137441e+03 4.3745137441e+03 0.0000000000e+00 0.0000e+00 -1.0000e+00
       -2 -1    0    0    0  501 -0.0000000000e+00 -0.0000000000e+00 -2.8285248281e+03 2.8285248281e+03 0.0000000000e+00 0.0000e+00 1.0000e+00
      -13  1    1    2    0    0 +1.9206344031e+03 -9.6673136868e+02 -2.0773156781e+03 2.9897569259e+03 0.0000000000e+00 0.0000e+00 1.0000e+00
       13  1    1    2    0    0 -1.9206344031e+03 +9.6673136868e+02 +3.6233045940e+03 4.2132816463e+03 0.0000000000e+00 0.0000e+00 -1.0000e+00
<mgrwt>
<rscale>  0 0.70351747E+04</rscale>
<asrwt>0</asrwt>
<pdfrwt beam="1">  1        2 0.67300212E+00 0.70351747E+04</pdfrwt>
<pdfrwt beam="2">  1       -2 0.43515766E+00 0.70351747E+04</pdfrwt>
<totfact> 0.33855617E-04</totfact>
</mgrwt>
<rwgt>
<wgt id='morphing_basis_vector_1'> +2.2843537e-07 </wgt>
<wgt id='morphing_basis_vector_2'> +1.5570876e-07 </wgt>
<wgt id='morphing_basis_vector_3'> +2.5245691e-07 </wgt>
<wgt id='morphing_basis_vector_4'> +1.8270412e-07 </wgt>
<wgt id='morphing_basis_vector_5'> +2.9172169e-07 </wgt>
</rwgt>
</event>
<event>
 4      1 +6.9060000e-13 7.17894800e+03 7.81860800e-03 7.14492600e-02
        2 -1    0    0  501    0 +0.0000000000e+00 +0.0000000000e+00 +3.2539876789e+03 3.2539876789e+03 0.0000000000e+00 0.0000e+00 -1.0000e+00
       -2 -1    0    0    0  501 -0.0000000000e+00 -0.0000000000e+00 -3.9595485507e+03 3.9595485507e+03 0.0000000000e+00 0.0000e+00 1.0000e+00
      -13  1    1    2    0    0 -2.8585471081e+03 +1.8112325250e+03 -1.5554042577e+03 3.7243975666e+03 0.0000000000e+00 0.0000e+00 1.0000e+00
       13  1    1    2    0    0 +2.8585471081e+03 -1.8112325250e+03 +8.4984338587e+02 3.4891386630e+03 0.0000000000e+00 0.0000e+00 -1.0000e+00
<mgrwt>
<rscale>  0 0.71789476E+04</rscale>
<asrwt>0</asrwt>
<pdfrwt beam="1">  1        2 0.50061349E+00 0.71789476E+04</pdfrwt>
<pdfrwt beam="2">  1       -2 0.60916131E+00 0.71789476E+04</pdfrwt>
<totfact> 0.13291918E-04</totfact>
</mgrwt>
<rwgt>
<wgt id='morphing_basis_vector_1'> +2.4998079e-07 </wgt>
<wgt id='morphing_basis_vector_2'> +1.7564394e-07 </wgt>
<wgt id='morphing_basis_vector_3'> +2.7754428e-07 </wgt>
<wgt id='morphing_basis_vector_4'> +1.9314244e-07 </wgt>
<wgt id='morphing_basis_vector_5'> +3.1592937e-07 </wgt>
</rwgt>
</event>
<event>
 4      1 +6.9060000e-13 7.95777400e+03 7.81860800e-03 7.07954900e-02
        2 -1    0    0  501    0 +0.0000000000e+00 +0.0000000000e+00 +2.7454211158e+03 2.7454211158e+03 0.0000000000e+00 0.0000e+00 -1.0000e+00
       -2 -1    0    0    0  501 -0.0000000000e+00 -0.0000000000e+00 -5.7665260405e+03 5.7665260405e+03 0.0000000000e+00 0.0000e+00 1.0000e+00
      -13  1    1    2    0    0 -1.8061791458e+03 +1.0051791462e+03 -5.1471486310e+03 5.5466933620e+03 0.0000000000e+00 0.0000e+00 1.0000e+00
       13  1    1    2    0    0 +1.8061791458e+03 -1.0051791462e+03 +2.1260437063e+03 2.9652537942e+03 0.0000000000e+00 0.0000e+00 -1.0000e+00
<mgrwt>
<rscale>  0 0.79577742E+04</rscale>
<asrwt>0</asrwt>
<pdfrwt beam="1">  1        2 0.42237248E+00 0.79577742E+04</pdfrwt>
<pdfrwt beam="2">  1       -2 0.88715785E+00 0.79577742E+04</pdfrwt>
<totfact> 0.48368014E-05</totfact>
</mgrwt>
<rwgt>
<wgt id='morphing_basis_vector_1'> +3.7358005e-07 </wgt>
<wgt id='morphing_basis_vector_2'> +2.5450265e-07 </wgt>
<wgt id='morphing_basis_vector_3'> +4.1308509e-07 </wgt>
<wgt id='morphing_basis_vector_4'> +2.9954575e-07 </wgt>
<wgt id='morphing_basis_vector_5'> +4.7792257e-07 </wgt>
</rwgt>
</event>
<event>
 4      1 +6.9060000e-13 7.60622200e+03 7.81860800e-03 7.10808600e-02
        2 -1    0    0  501    0 +0.0000000000e+00 +0.0000000000e+00 +3.9688322816e+03 3.9688322816e+03 0.0000000000e+00 0.0000e+00 1.0000e+00
       -2 -1    0    0    0  501 -0.0000000000e+00 -0.0000000000e+00 -3.6443090497e+03 3.6443090497e+03 0.0000000000e+00 0.0000e+00 -1.0000e+00
      -13  1    1    2    0    0 +2.2067924065e+03 +2.0250387985e+03 -2.1835720478e+03 3.7065754746e+03 0.0000000000e+00 0.0000e+00 -1.0000e+00
       13  1    1    2    0    0 -2.2067924065e+03 -2.0250387985e+03 +2.5080952797e+03 3.9065658567e+03 0.0000000000e+00 0.0000e+00 1.0000e+00
<mgrwt>
<rscale>  0 0.76062215E+04</rscale>
<asrwt>0</asrwt>
<pdfrwt beam="1">  1        2 0.61058958E+00 0.76062215E+04</pdfrwt>
<pdfrwt beam="2">  1       -2 0.56066293E+00 0.76062215E+04</pdfrwt>
<totfact> 0.93404713E-05</totfact>
</mgrwt>
<rwgt>
<wgt id='morphing_basis_vector_1'> +3.1252475e-07 </wgt>
<wgt id='morphing_basis_vector_2'> +2.1430905e-07 </wgt>
<wgt id='morphing_basis_vector_3'> +3.4583465e-07 </wgt>
<wgt id='morphing_basis_vector_4'> +2.4859613e-07 </wgt>
<wgt id='morphing_basis_vector_5'> +3.9869330e-07 </wgt>
</rwgt>
</event>
<event>
 4      1 +6.9060000e-13 6.74216600e+03 7.81860800e-03 7.18535600e-02
        2 -1    0    0  501    0 +0.0000000000e+00 +0.0000000000e+00 +3.3184518695e+03 3.3184518695e+03 0.0000000000e+00 0.0000e+00 1.0000e+00
       -2 -1    0    0    0  501 -0.0000000000e+00 -0.0000000000e+00 -3.4245488970e+03 3.4245488970e+03 0.0000000000e+00 0.0000e+00 -1.0000e+00
      -13  1    1    2    0    0 -3.1701514560e+03 -9.3352565017e+02 -7.1861591459e+02 3.3819726827e+03 0.0000000000e+00 0.0000e+00 1.0000e+00
       13  1    1    2    0    0 +3.1701514560e+03 +9.3352565017e+02 +6.1251888700e+02 3.3610280839e+03 0.0000000000e+00 0.0000e+00 -1.0000e+00
<mgrwt>
<rscale>  0 0.67421660E+04</rscale>
<asrwt>0</asrwt>
<pdfrwt beam="1">  1        2 0.51053106E+00 0.67421660E+04</pdfrwt>
<pdfrwt beam="2">  1       -2 0.52685367E+00 0.67421660E+04</pdfrwt>
<totfact> 0.54874105E-04</totfact>
</mgrwt>
<rwgt>
<wgt id='morphing_basis_vector_1'> +1.9601304e-07 </wgt>
<wgt id='morphing_basis_vector_2'> +1.4094077e-07 </wgt>
<wgt id='morphing_basis_vector_3'> +2.1830466e-07 </wgt>
<wgt id='morphing_basis_vector_4'> +1.4707529e-07 </wgt>
<wgt id='morphing_basis_vector_5'> +2.4541529e-07 </wgt>
</rwgt>
</event>
<event>
 4      1 +6.9060000e-13 7.34712700e+03 7.81860800e-03 7.13012600e-02
        2 -1    0    0  501    0 +0.0000000000e+00 +0.0000000000e+00 +3.2817672026e+03 3.2817672026e+03 0.0000000000e+00 0.0000e+00 1.0000e+00
       -2 -1    0    0    0  501 -0.0000000000e+00 -0.0000000000e+00 -4.1121342333e+03 4.1121342333e+03 0.0000000000e+00 0.0000e+00 -1.0000e+00
      -13  1    1    2    0    0 +1.5482528582e+03 +9.5427080672e+02 -3.6272660534e+03 4.0576814448e+03 0.0000000000e+00 0.0000e+00 -1.0000e+00
       13  1    1    2    0    0 -1.5482528582e+03 -9.5427080672e+02 +2.7968990228e+03 3.3362199911e+03 0.0000000000e+00 0.0000e+00 1.0000e+00
<mgrwt>
<rscale>  0 0.73471266E+04</rscale>
<asrwt>0</asrwt>
<pdfrwt beam="1">  1        2 0.50488726E+00 0.73471266E+04</pdfrwt>
<pdfrwt beam="2">  1       -2 0.63263604E+00 0.73471266E+04</pdfrwt>
<totfact> 0.63036650E-05</totfact>
</mgrwt>
<rwgt>
<wgt id='morphing_basis_vector_1'> +2.7155696e-07 </wgt>
<wgt id='morphing_basis_vector_2'> +1.8491752e-07 </wgt>
<wgt id='morphing_basis_vector_3'> +3.0013957e-07 </wgt>
<wgt id='morphing_basis_vector_4'> +2.1759131e-07 </wgt>
<wgt id='morphing_basis_vector_5'> +3.4711738e-07 </wgt>
</rwgt>
</event>
<event>
 4      1 +6.9060000e-13 6.69730100e+03 7.81860800e-03 7.18968300e-02
        2 -1    0    0  501    0 +0.0000000000e+00 +0.0000000000e+00 +3.4308828629e+03 3.4308828629e+03 0.0000000000e+00 0.0000e+00 1.0000e+00
       -2 -1    0    0    0  501 -0.0000000000e+00 -0.0000000000e+00 -3.2683892926e+03 3.2683892926e+03 0.0000000000e+00 0.0000e+00 -1.0000e+00
      -13  1    1    2    0    0 +2.2453622025e+03 -9.7271852003e+02 -2.2053892264e+03 3.2941727914e+03 0.0000000000e+00 0.0000e+00 -1.0000e+00
       13  1    1    2    0    0 -2.2453622025e+03 +9.7271852003e+02 +2.3678827968e+03 3.4050993640e+03 0.0000000000e+00 0.0000e+00 1.0000e+00
<mgrwt>
<rscale>  0 0.66973012E+04</rscale>
<asrwt>0</asrwt>
<pdfrwt beam="1">  1        2 0.52782813E+00 0.66973012E+04</pdfrwt>
<pdfrwt beam="2">  1       -2 0.50282912E+00 0.66973012E+04</pdfrwt>
<totfact> 0.69119707E-04</totfact>
</mgrwt>
<rwgt>
<wgt id='morphing_basis_vector_1'> +1.8784554e-07 </wgt>
<wgt id='morphing_basis_vector_2'> +1.2839298e-07 </wgt>
<wgt id='morphing_basis_vector_3'> +2.0762134e-07 </wgt>
<wgt id='morphing_basis_vector_4'> +1.4964581e-07 </wgt>
<wgt id='morphing_basis_vector_5'> +2.3948032e-07 </wgt>
</rwgt>
</event>
<event>
 4      1 +6.9060000e-13 7.06239100e+03 7.81860800e-03 7.15542600e-02
        2 -1    0    0  501    0 +0.0000000000e+00 +0.0000000000e+00 +5.1315388749e+03 5.1315388749e+03 0.0000000000e+00 0.0000e+00 -1.0000e+00
       -2 -1    0    0    0  501 -0.0000000000e+00 -0.0000000000e+00 -2.4299422586e+03 2.4299422586e+03 0.0000000000e+00 0.0000e+00 1.0000e+00
      -13  1    1    2    0    0 +2.5982403183e+03 -1.2423380431e+03 -8.3690202350e+02 2.9991101284e+03 0.0000000000e+00 0.0000e+00 1.0000e+00
       13  1    1    2    0    0 -2.5982403183e+03 +1.2423380431e+03 +3.5384986398e+03 4.5623710052e+03 0.0000000000e+00 0.0000e+00 -1.0000e+00
<mgrwt>
<rscale>  0 0.70623914E+04</rscale>
<asrwt>0</asrwt>
<pdfrwt beam="1">  1        2 0.78946752E+00 0.70623914E+04</pdfrwt>
<pdfrwt beam="2">  1       -2 0.37383727E+00 0.70623914E+04</pdfrwt>
<totfact> 0.10855858E-04</totfact>
</mgrwt>
<rwgt>
<wgt id='morphing_basis_vector_1'> +2.3252677e-07 </wgt>
<wgt id='morphing_basis_vector_2'> +1.5972051e-07 </wgt>
<wgt id='morphing_basis_vector_3'> +2.5727403e-07 </wgt>
<wgt id='morphing_basis_vector_4'> +1.8439043e-07 </wgt>
<wgt id='morphing_basis_vector_5'> +2.9617160e-07 </wgt>
</rwgt>
</event>
<event>
 4      1 +6.9060000e-13 7.29351000e+03 7.81860800e-03 7.13480100e-02
        2 -1    0    0  501    0 +0.0000000000e+00 +0.0000000000e+00 +2.4500422606e+03 2.4500422606e+03 0.0000000000e+00 0.0000e+00 -1.0000e+00
       -2 -1    0    0    0  501 -0.0000000000e+00 -0.0000000000e+00 -5.4279965541e+03 5.4279965541e+03 0.0000000000e+00 0.0000e+00 1.0000e+00
      -13  1    1    2    0    0 +6.9120066583e+02 -1.7994816474e+03 -4.8327030724e+03 5.2029714151e+03 0.0000000000e+00 0.0000e+00 1.0000e+00
       13  1    1    2    0    0 -6.9120066583e+02 +1.7994816474e+03 +1.8547487789e+03 2.6750673996e+03 0.0000000000e+00 0.0000e+00 -1.0000e+00
<mgrwt>
<rscale>  0 0.72935097E+04</rscale>
<asrwt>0</asrwt>
<pdfrwt beam="1">  1        2 0.37692958E+00 0.72935097E+04</pdfrwt>
<pdfrwt beam="2">  1       -2 0.83507639E+00 0.72935097E+04</pdfrwt>
<totfact> 0.20466205E-04</totfact>
</mgrwt>
<rwgt>
<wgt id='morphing_basis_vector_1'> +2.6374716e-07 </wgt>
<wgt id='morphing_basis_vector_2'> +1.7963711e-07 </wgt>
<wgt id='morphing_basis_vector_3'> +2.9150560e-07 </wgt>
<wgt id='morphing_basis_vector_4'> +2.1125934e-07 </wgt>
<wgt id='morphing_basis_vector_5'> +3.3707716e-07 </wgt>
</rwgt>
</event>
<event>
 4      1 +6.9060000e-13 6.80191600e+03 7.81860800e-03 7.17964600e-02
        2 -1    0    0  501    0 +0.0000000000e+00 +0.0000000000e+00 +3.4340783615e+03 3.4340783615e+03 0.0000000000e+00 0.0000e+00 1.0000e+00
       -2 -1    0    0    0  501 -0.0000000000e+00 -0.0000000000e+00 -3.3681570549e+03 3.3681570549e+03 0.0000000000e+00 0.0000e+00 -1.0000e+00
      -13  1    1    2    0    0 -1.4676970756e+03 -8.1706104274e+02 -2.9243376368e+03 3.3724581639e+03 0.0000000000e+00 0.0000e+00 -1.0000e+00
       13  1    1    2    0    0 +1.4676970756e+03 +8.1706104274e+02 +2.9902589434e+03 3.4297772525e+03 0.0000000000e+00 0.0000e+00 1.0000e+00
<mgrwt>
<rscale>  0 0.68019160E+04</rscale>
<asrwt>0</asrwt>
<pdfrwt beam="1">  1        2 0.52831974E+00 0.68019160E+04</pdfrwt>
<pdfrwt beam="2">  1       -2 0.51817801E+00 0.68019160E+04</pdfrwt>
<totfact> 0.52405491E-04</totfact>
</mgrwt>
<rwgt>
<wgt id='morphing_basis_vector_1'> +1.9958862e-07 </wgt>
<wgt id='morphing_basis_vector_2'> +1.3586740e-07 </wgt>
<wgt id='morphing_basis_vector_3'> +2.2049112e-07 </wgt>
<wgt id='morphing_basis_vector_4'> +1.5976854e-07 </wgt>
<wgt id='morphing_basis_vector_5'> +2.5487021e-07 </wgt>
</rwgt>
</event>
<event>
 4      1 +6.9060000e-13 6.75040600e+03 7.81860800e-03 7.18456500e-02
        2 -1    0    0  501    0 +0.0000000000e+00 +0.0000000000e+00 +4.4596357799e+03 4.4596357799e+03 0.0000000000e+00 0.0000e+00 -1.0000e+00
       -2 -1    0    0    0  501 -0.0000000000e+00 -0.0000000000e+00 -2.5544678753e+03 2.5544678753e+03 0.0000000000e+00 0.0000e+00 1.0000e+00
      -13  1    1    2    0    0 -2.7334772094e+03 -1.0051295460e+03 -8.1986944930e+02 3.0256187751e+03 0.0000000000e+00 0.0000e+00 1.0000e+00
       13  1    1    2    0    0 +2.7334772094e+03 +1.0051295460e+03 +2.7250373539e+03 3.9884848801e+03 0.0000000000e+00 0.0000e+00 -1.0000e+00
<mgrwt>
<rscale>  0 0.67504063E+04</rscale>
<asrwt>0</asrwt>
<pdfrwt beam="1">  1        2 0.68609781E+00 0.67504063E+04</pdfrwt>
<pdfrwt beam="2">  1       -2 0.39299506E+00 0.67504063E+04</pdfrwt>
<totfact> 0.54014297E-04</totfact>
</mgrwt>
<rwgt>
<wgt id='morphing_basis_vector_1'> +1.9442751e-07 </wgt>
<wgt id='morphing_basis_vector_2'> +1.3416575e-07 </wgt>
<wgt id='morphing_basis_vector_3'> +2.1520802e-07 </wgt>
<wgt id='morphing_basis_vector_4'> +1.5324871e-07 </wgt>
<wgt id='morphing_basis_vector_5'> +2.4707867e-07 </wgt>
</rwgt>
</event>
<event>
 4      1 +6.9060000e-13 7.52926500e+03 7.81860800e-03 7.11453900e-02
        2 -1    0    0  501    0 +0.0000000000e+00 +0.0000000000e+00 +4.9363326658e+03 4.9363326658e+03 0.0000000000e+00 0.0000e+00 1.0000e+00
       -2 -1    0    0    0  501 -0.0000000000e+00 -0.0000000000e+00 -2.8710499277e+03 2.8710499277e+03 0.0000000000e+00 0.0000e+00 -1.0000e+00
      -13  1    1    2    0    0 +5.3527509752e+02 -2.5815598855e+03 +3.8191872045e+03 4.6408147749e+03 0.0000000000e+00 0.0000e+00 1.0000e+00
       13  1    1    2    0    0 -5.3527509752e+02 +2.5815598855e+03 -1.7539044664e+03 3.1665678186e+03 0.0000000000e+00 0.0000e+00 -1.0000e+00
<mgrwt>
<rscale>  0 0.75292649E+04</rscale>
<asrwt>0</asrwt>
<pdfrwt beam="1">  1        2 0.75943580E+00 0.75292649E+04</pdfrwt>
<pdfrwt beam="2">  1       -2 0.44169999E+00 0.75292649E+04</pdfrwt>
<totfact> 0.69114335E-05</totfact>
</mgrwt>
<rwgt>
<wgt id='morphing_basis_vector_1'> +3.8807045e-07 </wgt>
<wgt id='morphing_basis_vector_2'> +4.6391611e-07 </wgt>
<wgt id='morphing_basis_vector_3'> +4.7645011e-07 </wgt>
<wgt id='morphing_basis_vector_4'> +4.9842362e-08 </wgt>
<wgt id='morphing_basis_vector_5'> +3.6685277e-07 </wgt>
</rwgt>
</event>
<event>
 4      1 +6.9060000e-13 7.01380500e+03 7.81860800e-03 7.15986300e-02
        2 -1    0    0  501    0 +0.0000000000e+00 +0.0000000000e+00 +3.5843261276e+03 3.5843261276e+03 0.0000000000e+00 0.0000e+00 -1.0000e+00
       -2 -1    0    0    0  501 -0.0000000000e+00 -0.0000000000e+00 -3.4311517479e+03 3.4311517479e+03 0.0000000000e+00 0.0000e+00 1.0000e+00
      -13  1    1    2    0    0 +3.3682687710e+03 -9.7618654372e+02 +9.0453251325e+01 3.5080416862e+03 0.0000000000e+00 0.0000e+00 1.0000e+00
       13  1    1    2    0    0 -3.3682687710e+03 +9.7618654372e+02 +6.2721128321e+01 3.5074361892e+03 0.0000000000e+00 0.0000e+00 -1.0000e+00
<mgrwt>
<rscale>  0 0.70138055E+04</rscale>
<asrwt>0</asrwt>
<pdfrwt beam="1">  1        2 0.55143479E+00 0.70138055E+04</pdfrwt>
<pdfrwt beam="2">  1       -2 0.52786950E+00 0.70138055E+04</pdfrwt>
<totfact> 0.33946356E-04</totfact>
</mgrwt>
<rwgt>
<wgt id='morphing_basis_vector_1'> +2.3397851e-07 </wgt>
<wgt id='morphing_basis_vector_2'> +1.7818536e-07 </wgt>
<wgt id='morphing_basis_vector_3'> +2.6300954e-07 </wgt>
<wgt id='morphing_basis_vector_4'> +1.6269020e-07 </wgt>
<wgt id='morphing_basis_vector_5'> +2.8668748e-07 </wgt>
</rwgt>
</event>
<event>
 4      1 +6.9060000e-13 7.28522100e+03 7.81860800e-03 7.13552700e-02
        2 -1    0    0  501    0 +0.0000000000e+00 +0.0000000000e+00 +2.2766796448e+03 2.2766796448e+03 0.0000000000e+00 0.0000e+00 -1.0000e+00
       -2 -1    0    0    0  501 -0.0000000000e+00 -0.0000000000e+00 -5.8280532297e+03 5.8280532297e+03 0.0000000000e+00 0.0000e+00 1.0000e+00
      -13  1    1    2    0    0 +4.7128378614e+02 +2.4154133859e+03 -4.7633544089e+03 5.3615180179e+03 0.0000000000e+00 0.0000e+00 1.0000e+00
       13  1    1    2    0    0 -4.7128378614e+02 -2.4154133859e+03 +1.2119808240e+03 2.7432148566e+03 0.0000000000e+00 0.0000e+00 -1.0000e+00
<mgrwt>
<rscale>  0 0.72852207E+04</rscale>
<asrwt>0</asrwt>
<pdfrwt beam="1">  1        2 0.35025841E+00 0.72852207E+04</pdfrwt>
<pdfrwt beam="2">  1       -2 0.89662357E+00 0.72852207E+04</pdfrwt>
<totfact> 0.75503067E-05</totfact>
</mgrwt>
<rwgt>
<wgt id='morphing_basis_vector_1'> +2.6272528e-07 </wgt>
<wgt id='morphing_basis_vector_2'> +1.7933057e-07 </wgt>
<wgt id='morphing_basis_vector_3'> +2.9046691e-07 </wgt>
<wgt id='morphing_basis_vector_4'> +2.0992762e-07 </wgt>
<wgt id='morphing_basis_vector_5'> +3.3551382e-07 </wgt>
</rwgt>
</event>
<event>
 4      1 +6.9060000e-13 6.83756100e+03 7.81860800e-03 7.17626700e-02
        2 -1    0    0  501    0 +0.0000000000e+00 +0.0000000000e+00 +3.9610450705e+03 3.9610450705e+03 0.0000000000e+00 0.0000e+00 1.0000e+00
       -2 -1    0    0    0  501 -0.0000000000e+00 -0.0000000000e+00 -2.9507517182e+03 2.9507517182e+03 0.0000000000e+00 0.0000e+00 -1.0000e+00
      -13  1    1    2    0    0 -3.5148685066e+02 -2.2627919675e+03 -2.0609751989e+03 3.0808098392e+03 0.0000000000e+00 0.0000e+00 -1.0000e+00
       13  1    1    2    0    0 +3.5148685066e+02 +2.2627919675e+03 +3.0712685511e+03 3.8309869495e+03 0.0000000000e+00 0.0000e+00 1.0000e+00
<mgrwt>
<rscale>  0 0.68375611E+04</rscale>
<asrwt>0</asrwt>
<pdfrwt beam="1">  1        2 0.60939155E+00 0.68375611E+04</pdfrwt>
<pdfrwt beam="2">  1       -2 0.45396180E+00 0.68375611E+04</pdfrwt>
<totfact> 0.60511429E-04</totfact>
</mgrwt>
<rwgt>
<wgt id='morphing_basis_vector_1'> +2.0393869e-07 </wgt>
<wgt id='morphing_basis_vector_2'> +1.3914926e-07 </wgt>
<wgt id='morphing_basis_vector_3'> +2.2537969e-07 </wgt>
<wgt id='morphing_basis_vector_4'> +1.6284771e-07 </wgt>
<wgt id='morphing_basis_vector_5'> +2.6023872e-07 </wgt>
</rwgt>
</event>
<event>
 4      1 +6.9060000e-13 6.86998000e+03 7.81860800e-03 7.17321300e-02
        2 -1    0    0  501    0 +0.0000000000e+00 +0.0000000000e+00 +4.5337570643e+03 4.5337570643e+03 0.0000000000e+00 0.0000e+00 -1.0000e+00
       -2 -1    0    0    0  501 -0.0000000000e+00 -0.0000000000e+00 -2.6025115412e+03 2.6025115412e+03 0.0000000000e+00 0.0000e+00 1.0000e+00
      -13  1    1    2    0    0 -1.1898539907e+03 +2.3775292936e+03 -1.2937144712e+03 2.9567034336e+03 0.0000000000e+00 0.0000e+00 1.0000e+00
       13  1    1    2    0    0 +1.1898539907e+03 -2.3775292936e+03 +3.2249599943e+03 4.1795651719e+03 0.0000000000e+00 0.0000e+00 -1.0000e+00
<mgrwt>
<rscale>  0 0.68699796E+04</rscale>
<asrwt>0</asrwt>
<pdfrwt beam="1">  1        2 0.69750109E+00 0.68699796E+04</pdfrwt>
<pdfrwt beam="2">  1       -2 0.40038639E+00 0.68699796E+04</pdfrwt>
<totfact> 0.40158841E-04</totfact>
</mgrwt>
<rwgt>
<wgt id='morphing_basis_vector_1'> +2.0806806e-07 </wgt>
<wgt id='morphing_basis_vector_2'> +1.4251231e-07 </wgt>
<wgt id='morphing_basis_vector_3'> +2.3007881e-07 </wgt>
<wgt id='morphing_basis_vector_4'> +1.6544674e-07 </wgt>
<wgt id='morphing_basis_vector_5'> +2.6517427e-07 </wgt>
</rwgt>
</event>
<event>
 4      1 +6.9060000e-13 6.84025600e+03 7.81860800e-03 7.17601300e-02
        2 -1    0    0  501    0 +0.0000000000e+00 +0.0000000000e+00 +4.8821718892e+03 4.8821718892e+03 0.0000000000e+00 0.0000e+00 1.0000e+00
       -2 -1    0    0    0  501 -0.0000000000e+00 -0.0000000000e+00 -2.3959165409e+03 2.3959165409e+03 0.0000000000e+00 0.0000e+00 -1.0000e+00
      -13  1    1    2    0    0 -3.2761351119e+02 +1.8099318177e+03 -1.8248513420e+03 2.5909971474e+03 0.0000000000e+00 0.0000e+00 -1.0000e+00
       13  1    1    2    0    0 +3.2761351119e+02 -1.8099318177e+03 +4.3111066903e+03 4.6870912827e+03 0.0000000000e+00 0.0000e+00 1.0000e+00
<mgrwt>
<rscale>  0 0.68402562E+04</rscale>
<asrwt>0</asrwt>
<pdfrwt beam="1">  1        2 0.75110336E+00 0.68402562E+04</pdfrwt>
<pdfrwt beam="2">  1       -2 0.36860255E+00 0.68402562E+04</pdfrwt>
<totfact> 0.25790453E-04</totfact>
</mgrwt>
<rwgt>
<wgt id='morphing_basis_vector_1'> +2.0413858e-07 </wgt>
<wgt id='morphing_basis_vector_2'> +1.3901274e-07 </wgt>
<wgt id='morphing_basis_vector_3'> +2.2553654e-07 </wgt>
<wgt id='morphing_basis_vector_4'> +1.6336502e-07 </wgt>
<wgt id='morphing_basis_vector_5'> +2.6067187e-07 </wgt>
</rwgt>
</event>
<event>
 4      1 +6.9060000e-13 7.45150100e+03 7.81860800e-03 7.12113900e-02
        2 -1    0    0  501    0 +0.0000000000e+00 +0.0000000000e+00 +4.9406393495e+03 4.9406393495e+03 0.0000000000e+00 0.0000e+00 -1.0000e+00
       -2 -1    0    0    0  501 -0.0000000000e+00 -0.0000000000e+00 -2.8095995196e+03 2.8095995196e+03 0.0000000000e+00 0.0000e+00 1.0000e+00
      -13  1    1    2    0    0 +4.7505508731e+02 -2.3017821376e+03 +4.0723253796e+03 4.7018839142e+03 0.0000000000e+00 0.0000e+00 -1.0000e+00
       13  1    1    2    0    0 -4.7505508731e+02 +2.3017821376e+03 -1.9412855497e+03 3.0483549548e+03 0.0000000000e+00 0.0000e+00 1.0000e+00
<mgrwt>
<rscale>  0 0.74515013E+04</rscale>
<asrwt>0</asrwt>
<pdfrwt beam="1">  1        2 0.76009836E+00 0.74515013E+04</pdfrwt>
<pdfrwt beam="2">  1       -2 0.43224608E+00 0.74515013E+04</pdfrwt>
<totfact> 0.79579647E-05</totfact>
</mgrwt>
<rwgt>
<wgt id='morphing_basis_vector_1'> +3.8037699e-07 </wgt>
<wgt id='morphing_basis_vector_2'> +4.6874469e-07 </wgt>
<wgt id='morphing_basis_vector_3'> +4.7029423e-07 </wgt>
<wgt id='morphing_basis_vector_4'> +3.0496178e-08 </wgt>
<wgt id='morphing_basis_vector_5'> +3.5045081e-07 </wgt>
</rwgt>
</event>
<event>
 4      1 +6.9060000e-13 7.93855000e+03 7.81860800e-03 7.08107100e-02
        2 -1    0    0  501    0 +0.0000000000e+00 +0.0000000000e+00 +3.4602748168e+03 3.4602748168e+03 0.0000000000e+00 0.0000e+00 1.0000e+00
       -2 -1    0    0    0  501 -0.0000000000e+00 -0.0000000000e+00 -4.5531482874e+03 4.5531482874e+03 0.0000000000e+00 0.0000e+00 -1.0000e+00
      -13  1    1    2    0    0 +1.1945718734e+03 +2.9443110415e+03 +1.8549020885e+03 3.6792161159e+03 0.0000000000e+00 0.0000e+00 1.0000e+00
       13  1    1    2    0    0 -1.1945718734e+03 -2.9443110415e+03 -2.9477755592e+03 4.3342069883e+03 0.0000000000e+00 0.0000e+00 -1.0000e+00
<mgrwt>
<rscale>  0 0.79385501E+04</rscale>
<asrwt>0</asrwt>
<pdfrwt beam="1">  1        2 0.53234998E+00 0.79385501E+04</pdfrwt>
<pdfrwt beam="2">  1       -2 0.70048435E+00 0.79385501E+04</pdfrwt>
<totfact> 0.17552327E-05</totfact>
</mgrwt>
<rwgt>
<wgt id='morphing_basis_vector_1'> +4.5735455e-07 </wgt>
<wgt id='morphing_basis_vector_2'> +5.0836376e-07 </wgt>
<wgt id='morphing_basis_vector_3'> +5.5261951e-07 </wgt>
<wgt id='morphing_basis_vector_4'> +1.0904716e-07 </wgt>
<wgt id='morphing_basis_vector_5'> +4.5748369e-07 </wgt>
</rwgt>
</event>
<event>
 4      1 +6.9060000e-13 7.69584400e+03 7.81860800e-03 7.10066600e-02
        2 -1    0    0  501    0 +0.0000000000e+00 +0.0000000000e+00 +2.8259187865e+03 2.8259187865e+03 0.0000000000e+00 0.0000e+00 -1.0000e+00
       -2 -1    0    0    0  501 -0.0000000000e+00 -0.0000000000e+00 -5.2395367030e+03 5.2395367030e+03 0.0000000000e+00 0.0000e+00 1.0000e+00
      -13  1    1    2    0    0 -2.6209350687e+03 +1.5572852074e+03 +1.2537279230e+03 3.2964028207e+03 0.0000000000e+00 0.0000e+00 1.0000e+00
       13  1    1    2    0    0 +2.6209350687e+03 -1.5572852074e+03 -3.6673458395e+03 4.7690526688e+03 0.0000000000e+00 0.0000e+00 -1.0000e+00
<mgrwt>
<rscale>  0 0.76958444E+04</rscale>
<asrwt>0</asrwt>
<pdfrwt beam="1">  1        2 0.43475674E+00 0.76958444E+04</pdfrwt>
<pdfrwt beam="2">  1       -2 0.80608257E+00 0.76958444E+04</pdfrwt>
<totfact> 0.15303172E-04</totfact>
</mgrwt>
<rwgt>
<wgt id='morphing_basis_vector_1'> +4.0589608e-07 </wgt>
<wgt id='morphing_basis_vector_2'> +4.5460029e-07 </wgt>
<wgt id='morphing_basis_vector_3'> +4.9114133e-07 </wgt>
<wgt id='morphing_basis_vector_4'> +9.2235310e-08 </wgt>
<wgt id='morphing_basis_vector_5'> +4.0364707e-07 </wgt>
</rwgt>
</event>
<event>
 4      1 +6.9060000e-13 6.74591100e+03 7.81860800e-03 7.18499700e-02
        2 -1    0    0  501    0 +0.0000000000e+00 +0.0000000000e+00 +3.7675657760e+03 3.7675657760e+03 0.0000000000e+00 0.0000e+00 1.0000e+00
       -2 -1    0    0    0  501 -0.0000000000e+00 -0.0000000000e+00 -3.0196764078e+03 3.0196764078e+03 0.0000000000e+00 0.0000e+00 -1.0000e+00
      -13  1    1    2    0    0 +1.2539355062e+03 -6.7335106684e+02 -2.7027433530e+03 3.0545994083e+03 0.0000000000e+00 0.0000e+00 -1.0000e+00
       13  1    1    2    0    0 -1.2539355062e+03 +6.7335106684e+02 +3.4506327212e+03 3.7326427755e+03 0.0000000000e+00 0.0000e+00 1.0000e+00
<mgrwt>
<rscale>  0 0.67459112E+04</rscale>
<asrwt>0</asrwt>
<pdfrwt beam="1">  1        2 0.57962550E+00 0.67459112E+04</pdfrwt>
<pdfrwt beam="2">  1       -2 0.46456560E+00 0.67459112E+04</pdfrwt>
<totfact> 0.73645298E-04</totfact>
</mgrwt>
<rwgt>
<wgt id='morphing_basis_vector_1'> +1.9308791e-07 </wgt>
<wgt id='morphing_basis_vector_2'> +1.3139342e-07 </wgt>
<wgt id='morphing_basis_vector_3'> +2.1328738e-07 </wgt>
<wgt id='morphing_basis_vector_4'> +1.5460442e-07 </wgt>
<wgt id='morphing_basis_vector_5'> +2.4656869e-07 </wgt>
</rwgt>
</event>
<event>
 4      1 +6.9060000e-13 6.68985600e+03 7.81860800e-03 7.19040500e-02
        2 -1    0    0  501    0 +0.0000000000e+00 +0.0000000000e+00 +3.3189635164e+03 3.3189635164e+03 0.0000000000e+00 0.0000e+00 -1.0000e+00
       -2 -1    0    0    0  501 -0.0000000000e+00 -0.0000000000e+00 -3.3710953221e+03 3.3710953221e+03 0.0000000000e+00 0.0000e+00 1.0000e+00
      -13  1    1    2    0    0 +1.4463980610e+03 -1.8552297925e+03 -2.4040778518e+03 3.3635599075e+03 0.0000000000e+00 0.0000e+00 1.0000e+00
       13  1    1    2    0    0 -1.4463980610e+03 +1.8552297925e+03 +2.3519460462e+03 3.3264989310e+03 0.0000000000e+00 0.0000e+00 -1.0000e+00
<mgrwt>
<rscale>  0 0.66898557E+04</rscale>
<asrwt>0</asrwt>
<pdfrwt beam="1">  1        2 0.51060977E+00 0.66898557E+04</pdfrwt>
<pdfrwt beam="2">  1       -2 0.51863005E+00 0.66898557E+04</pdfrwt>
<totfact> 0.63281241E-04</totfact>
</mgrwt>
<rwgt>
<wgt id='morphing_basis_vector_1'> +1.8695992e-07 </wgt>
<wgt id='morphing_basis_vector_2'> +1.2766724e-07 </wgt>
<wgt id='morphing_basis_vector_3'> +2.0661259e-07 </wgt>
<wgt id='morphing_basis_vector_4'> +1.4909437e-07 </wgt>
<wgt id='morphing_basis_vector_5'> +2.3842489e-07 </wgt>
</rwgt>
</event>
<event>
 4      1 +6.9060000e-13 7.56334900e+03 7.81860800e-03 7.11167100e-02
        2 -1    0    0  501    0 +0.0000000000e+00 +0.0000000000e+00 +2.6031758609e+03 2.6031758609e+03 0.0000000000e+00 0.0000e+00 -1.0000e+00
       -2 -1    0    0    0  501 -0.0000000000e+00 -0.0000000000e+00 -5.4936985620e+03 5.4936985620e+03 0.0000000000e+00 0.0000e+00 1.0000e+00
      -13  1    1    2    0    0 +1.3096302452e+03 +1.1353638360e+02 -5.2412369920e+03 5.4035716981e+03 0.0000000000e+00 0.0000e+00 1.0000e+00
       13  1    1    2    0    0 -1.3096302452e+03 -1.1353638360e+02 +2.3507142910e+03 2.6933027248e+03 0.0000000000e+00 0.0000e+00 -1.0000e+00
<mgrwt>
<rscale>  0 0.75633494E+04</rscale>
<asrwt>0</asrwt>
<pdfrwt beam="1">  1        2 0.40048860E+00 0.75633494E+04</pdfrwt>
<pdfrwt beam="2">  1       -2 0.84518438E+00 0.75633494E+04</pdfrwt>
<totfact> 0.14120435E-04</totfact>
</mgrwt>
<rwgt>
<wgt id='morphing_basis_vector_1'> +3.0486238e-07 </wgt>
<wgt id='morphing_basis_vector_2'> +2.0750954e-07 </wgt>
<wgt id='morphing_basis_vector_3'> +3.3697876e-07 </wgt>
<wgt id='morphing_basis_vector_4'> +2.4450237e-07 </wgt>
<wgt id='morphing_basis_vector_5'> +3.8989212e-07 </wgt>
</rwgt>
</event>
<event>
 4      1 +6.9060000e-13 6.72969800e+03 7.81860800e-03 7.18655500e-02
        2 -1    0    0  501    0 +0.0000000000e+00 +0.0000000000e+00 +3.9258691933e+03 3.9258691933e+03 0.0000000000e+00 0.0000e+00 1.0000e+00
       -2 -1    0    0    0  501 -0.0000000000e+00 -0.0000000000e+00 -2.8840009043e+03 2.8840009043e+03 0.0000000000e+00 0.0000e+00 -1.0000e+00
      -13  1    1    2    0    0 -1.4954379928e+03 +3.0141970115e+03 +5.4337693648e+02 3.4083686581e+03 0.0000000000e+00 0.0000e+00 -1.0000e+00
       13  1    1    2    0    0 +1.4954379928e+03 -3.0141970115e+03 +4.9849135258e+02 3.4015014395e+03 0.0000000000e+00 0.0000e+00 1.0000e+00
<mgrwt>
<rscale>  0 0.67296984E+04</rscale>
<asrwt>0</asrwt>
<pdfrwt beam="1">  1        2 0.60397988E+00 0.67296984E+04</pdfrwt>
<pdfrwt beam="2">  1       -2 0.44369245E+00 0.67296984E+04</pdfrwt>
<totfact> 0.76934295E-04</totfact>
</mgrwt>
<rwgt>
<wgt id='morphing_basis_vector_1'> +1.9843440e-07 </wgt>
<wgt id='morphing_basis_vector_2'> +1.5124263e-07 </wgt>
<wgt id='morphing_basis_vector_3'> +2.2302279e-07 </wgt>
<wgt id='morphing_basis_vector_4'> +1.3770640e-07 </wgt>
<wgt id='morphing_basis_vector_5'> +2.4290419e-07 </wgt>
</rwgt>
</event>
<event>
 4      1 +6.9060000e-13 7.16433800e+03 7.81860800e-03 7.14623100e-02
        2 -1    0    0  501    0 +0.0000000000e+00 +0.0000000000e+00 +2.5463653646e+03 2.5463653646e+03 0.0000000000e+00 0.0000e+00 1.0000e+00
       -2 -1    0    0    0  501 -0.0000000000e+00 -0.0000000000e+00 -5.0393135480e+03 5.0393135480e+03 0.0000000000e+00 0.0000e+00 -1.0000e+00
      -13  1    1    2    0    0 -2.8704600158e+03 +2.0201328288e+03 -2.0036950141e+03 4.0416916085e+03 0.0000000000e+00 0.0000e+00 -1.0000e+00
       13  1    1    2    0    0 +2.8704600158e+03 -2.0201328288e+03 -4.8925316922e+02 3.5439873041e+03 0.0000000000e+00 0.0000e+00 1.0000e+00
<mgrwt>
<rscale>  0 0.71643376E+04</rscale>
<asrwt>0</asrwt>
<pdfrwt beam="1">  1        2 0.39174852E+00 0.71643376E+04</pdfrwt>
<pdfrwt beam="2">  1       -2 0.77527900E+00 0.71643376E+04</pdfrwt>
<totfact> 0.25351564E-04</totfact>
</mgrwt>
<rwgt>
<wgt id='morphing_basis_vector_1'> +2.4977337e-07 </wgt>
<wgt id='morphing_basis_vector_2'> +1.7955405e-07 </wgt>
<wgt id='morphing_basis_vector_3'> +2.7827301e-07 </wgt>
<wgt id='morphing_basis_vector_4'> +1.8767301e-07 </wgt>
<wgt id='morphing_basis_vector_5'> +3.1303273e-07 </wgt>
</rwgt>
</event>
<event>
 4      1 +6.9060000e-13 6.67652400e+03 7.81860800e-03 7.19169900e-02
        2 -1    0    0  501    0 +0.0000000000e+00 +0.0000000000e+00 +4.5779500680e+03 4.5779500680e+03 0.0000000000e+00 0.0000e+00 -1.0000e+00
       -2 -1    0    0    0  501 -0.0000000000e+00 -0.0000000000e+00 -2.4342755332e+03 2.4342755332e+03 0.0000000000e+00 0.0000e+00 1.0000e+00
      -13  1    1    2    0    0 -3.2768768158e+03 +2.2818092901e+02 +1.6967355853e+03 3.6971475287e+03 0.0000000000e+00 0.0000e+00 1.0000e+00
       13  1    1    2    0    0 +3.2768768158e+03 -2.2818092901e+02 +4.4693894944e+02 3.3150780725e+03 0.0000000000e+00 0.0000e+00 -1.0000e+00
<mgrwt>
<rscale>  0 0.66765236E+04</rscale>
<asrwt>0</asrwt>
<pdfrwt beam="1">  1        2 0.70430001E+00 0.66765236E+04</pdfrwt>
<pdfrwt beam="2">  1       -2 0.37450393E+00 0.66765236E+04</pdfrwt>
<totfact> 0.53806740E-04</totfact>
</mgrwt>
<rwgt>
<wgt id='morphing_basis_vector_1'> +1.9795668e-07 </wgt>
<wgt id='morphing_basis_vector_2'> +1.6327610e-07 </wgt>
<wgt id='morphing_basis_vector_3'> +2.2540321e-07 </wgt>
<wgt id='morphing_basis_vector_4'> +1.2116482e-07 </wgt>
<wgt id='morphing_basis_vector_5'> +2.3427395e-07 </wgt>
</rwgt>
</event>
<event>
 4      1 +6.9060000e-13 6.93756400e+03 7.81860800e-03 7.16689900e-02
        2 -1    0    0  501    0 +0.0000000000e+00 +0.0000000000e+00 +3.5129363496e+03 3.5129363496e+03 0.0000000000e+00 0.0000e+00 1.0000e+00
       -2 -1    0    0    0  501 -0.0000000000e+00 -0.0000000000e+00 -3.4251826208e+03 3.4251826208e+03 0.0000000000e+00 0.0000e+00 -1.0000e+00
      -13  1    1    2    0    0 -9.5435418272e+02 -3.0675491655e+03 -1.2645850686e+03 3.4525099832e+03 0.0000000000e+00 0.0000e+00 -1.0000e+00
       13  1    1    2    0    0 +9.5435418272e+02 +3.0675491655e+03 +1.3523387973e+03 3.4856089872e+03 0.0000000000e+00 0.0000e+00 1.0000e+00
<mgrwt>
<rscale>  0 0.69375640E+04</rscale>
<asrwt>0</asrwt>
<pdfrwt beam="1">  1        2 0.54045175E+00 0.69375640E+04</pdfrwt>
<pdfrwt beam="2">  1       -2 0.52695117E+00 0.69375640E+04</pdfrwt>
<totfact> 0.39190924E-04</totfact>
</mgrwt>
<rwgt>
<wgt id='morphing_basis_vector_1'> +2.1768563e-07 </wgt>
<wgt id='morphing_basis_vector_2'> +1.5208165e-07 </wgt>
<wgt id='morphing_basis_vector_3'> +2.4143390e-07 </wgt>
<wgt id='morphing_basis_vector_4'> +1.6922833e-07 </wgt>
<wgt id='morphing_basis_vector_5'> +2.7554290e-07 </wgt>
</rwgt>
</event>
<event>
 4      1 +6.9060000e-13 6.73904300e+03 7.81860800e-03 7.18565600e-02
        2 -1    0    0  501    0 +0.0000000000e+00 +0.0000000000e+00 +2.5590566620e+03 2.5590566620e+03 0.0000000000e+00 0.0000e+00 -1.0000e+00
       -2 -1    0    0    0  501 -0.0000000000e+00 -0.0000000000e+00 -4.4366644102e+03 4.4366644102e+03 0.0000000000e+00 0.0000e+00 1.0000e+00
      -13  1    1    2    0    0 -1.1866275847e+03 -1.0728556562e+03 -4.0173210897e+03 4.3241152877e+03 0.0000000000e+00 0.0000e+00 1.0000e+00
       13  1    1    2    0    0 +1.1866275847e+03 +1.0728556562e+03 +2.1397133414e+03 2.6716057844e+03 0.0000000000e+00 0.0000e+00 -1.0000e+00
<mgrwt>
<rscale>  0 0.67390431E+04</rscale>
<asrwt>0</asrwt>
<pdfrwt beam="1">  1        2 0.39370103E+00 0.67390431E+04</pdfrwt>
<pdfrwt beam="2">  1       -2 0.68256375E+00 0.67390431E+04</pdfrwt>
<totfact> 0.43957314E-05</totfact>
</mgrwt>
<rwgt>
<wgt id='morphing_basis_vector_1'> +1.9231729e-07 </wgt>
<wgt id='morphing_basis_vector_2'> +1.3089795e-07 </wgt>
<wgt id='morphing_basis_vector_3'> +2.1244165e-07 </wgt>
<wgt id='morphing_basis_vector_4'> +1.5394663e-07 </wgt>
<wgt id='morphing_basis_vector_5'> +2.4556198e-07 </wgt>
</rwgt>
</event>
<event>
 4      1 +6.9060000e-13 6.99683400e+03 7.81860800e-03 7.16142100e-02
        2 -1    0    0  501    0 +0.0000000000e+00 +0.0000000000e+00 +3.0743350009e+03 3.0743350009e+03 0.0000000000e+00 0.0000e+00 1.0000e+00
       -2 -1    0    0    0  501 -0.0000000000e+00 -0.0000000000e+00 -3.9809982837e+03 3.9809982837e+03 0.0000000000e+00 0.0000e+00 -1.0000e+00
      -13  1    1    2    0    0 -3.1380633577e+03 -1.5450544835e+03 -3.8730619322e+02 3.5191818767e+03 0.0000000000e+00 0.0000e+00 -1.0000e+00
       13  1    1    2    0    0 +3.1380633577e+03 +1.5450544835e+03 -5.1935708950e+02 3.5361514080e+03 0.0000000000e+00 0.0000e+00 1.0000e+00
<mgrwt>
<rscale>  0 0.69968342E+04</rscale>
<asrwt>0</asrwt>
<pdfrwt beam="1">  1        2 0.47297462E+00 0.69968342E+04</pdfrwt>
<pdfrwt beam="2">  1       -2 0.61246127E+00 0.69968342E+04</pdfrwt>
<totfact> 0.16394523E-04</totfact>
</mgrwt>
<rwgt>
<wgt id='morphing_basis_vector_1'> +2.3217967e-07 </wgt>
<wgt id='morphing_basis_vector_2'> +1.7780007e-07 </wgt>
<wgt id='morphing_basis_vector_3'> +2.6121671e-07 </wgt>
<wgt id='morphing_basis_vector_4'> +1.6014574e-07 </wgt>
<wgt id='morphing_basis_vector_5'> +2.8383634e-07 </wgt>
</rwgt>
</event>
<event>
 4      1 +6.9060000e-13 7.50098200e+03 7.81860800e-03 7.11693000e-02
        2 -1    0    0  501    0 +0.0000000000e+00 +0.0000000000e+00 +5.2222733903e+03 5.2222733903e+03 0.0000000000e+00 0.0000e+00 -1.0000e+00
       -2 -1    0    0    0  501 -0.0000000000e+00 -0.0000000000e+00 -2.6934978667e+03 2.6934978667e+03 0.0000000000e+00 0.0000e+00 1.0000e+00
      -13  1    1    2    0    0 -8.2217673099e+02 +4.7107226723e+02 -2.5650935366e+03 2.7345179665e+03 0.0000000000e+00 0.0000e+00 1.0000e+00
       13  1    1    2    0    0 +8.2217673099e+02 -4.7107226723e+02 +5.0938690601e+03 5.1812532904e+03 0.0000000000e+00 0.0000e+00 -1.0000e+00
<mgrwt>
<rscale>  0 0.75009819E+04</rscale>
<asrwt>0</asrwt>
<pdfrwt beam="1">  1        2 0.80342667E+00 0.75009819E+04</pdfrwt>
<pdfrwt beam="2">  1       -2 0.41438429E+00 0.75009819E+04</pdfrwt>
<totfact> 0.41882541E-05</totfact>
</mgrwt>
<rwgt>
<wgt id='morphing_basis_vector_1'> +2.9493544e-07 </wgt>
<wgt id='morphing_basis_vector_2'> +2.0072596e-07 </wgt>
<wgt id='morphing_basis_vector_3'> +3.2598646e-07 </wgt>
<wgt id='morphing_basis_vector_4'> +2.3654596e-07 </wgt>
<wgt id='morphing_basis_vector_5'> +3.7717433e-07 </wgt>
</rwgt>
</event>
<event>
 4      1 +6.9060000e-13 6.91944000e+03 7.81860800e-03 7.16858500e-02
        2 -1    0    0  501    0 +0.0000000000e+00 +0.0000000000e+00 +2.3066024076e+03 2.3066024076e+03 0.0000000000e+00 0.0000e+00 -1.0000e+00
       -2 -1    0    0    0  501 -0.0000000000e+00 -0.0000000000e+00 -5.1893041472e+03 5.1893041472e+03 0.0000000000e+00 0.0000e+00 1.0000e+00
      -13  1    1    2    0    0 -2.5591258836e+03 -1.8696813895e+03 -2.9443168820e+03 4.3259491083e+03 0.0000000000e+00 0.0000e+00 1.0000e+00
       13  1    1    2    0    0 +2.5591258836e+03 +1.8696813895e+03 +6.1615142334e+01 3.1699574464e+03 0.0000000000e+00 0.0000e+00 -1.0000e+00
<mgrwt>
<rscale>  0 0.69194397E+04</rscale>
<asrwt>0</asrwt>
<pdfrwt beam="1">  1        2 0.35486191E+00 0.69194397E+04</pdfrwt>
<pdfrwt beam="2">  1       -2 0.79835447E+00 0.69194397E+04</pdfrwt>
<totfact> 0.34436481E-04</totfact>
</mgrwt>
<rwgt>
<wgt id='morphing_basis_vector_1'> +2.1524157e-07 </wgt>
<wgt id='morphing_basis_vector_2'> +1.4996566e-07 </wgt>
<wgt id='morphing_basis_vector_3'> +2.3862273e-07 </wgt>
<wgt id='morphing_basis_vector_4'> +1.6785423e-07 </wgt>
<wgt id='morphing_basis_vector_5'> +2.7270295e-07 </wgt>
</rwgt>
</event>
<event>
 4      1 +6.9060000e-13 7.58126200e+03 7.81860800e-03 7.11017000e-02
        2 -1    0    0  501    0 +0.0000000000e+00 +0.0000000000e+00 +4.6287142441e+03 4.6287142441e+03 0.0000000000e+00 0.0000e+00 -1.0000e+00
       -2 -1    0    0    0  501 -0.0000000000e+00 -0.0000000000e+00 -3.1042925462e+03 3.1042925462e+03 0.0000000000e+00 0.0000e+00 1.0000e+00
      -13  1    1    2    0    0 -2.3891684497e+02 +3.7031798787e+03 -2.6743928340e+01 3.7109753045e+03 0.0000000000e+00 0.0000e+00 1.0000e+00
       13  1    1    2    0    0 +2.3891684497e+02 -3.7031798787e+03 +1.5511656262e+03 4.0220314858e+03 0.0000000000e+00 0.0000e+00 -1.0000e+00
<mgrwt>
<rscale>  0 0.75812619E+04</rscale>
<asrwt>0</asrwt>
<pdfrwt beam="1">  1        2 0.71210988E+00 0.75812619E+04</pdfrwt>
<pdfrwt beam="2">  1       -2 0.47758347E+00 0.75812619E+04</pdfrwt>
<totfact> 0.88759710E-05</totfact>
</mgrwt>
<rwgt>
<wgt id='morphing_basis_vector_1'> +3.1299029e-07 </wgt>
<wgt id='morphing_basis_vector_2'> +2.2483662e-07 </wgt>
<wgt id='morphing_basis_vector_3'> +3.4877266e-07 </wgt>
<wgt id='morphing_basis_vector_4'> +2.3559664e-07 </wgt>
<wgt id='morphing_basis_vector_5'> +3.9265644e-07 </wgt>
</rwgt>
</event>
<event>
 4      1 +6.9060000e-13 7.43868400e+03 7.81860800e-03 7.12223400e-02
        2 -1    0    0  501    0 +0.0000000000e+00 +0.0000000000e+00 +5.1452035853e+03 5.1452035853e+03 0.0000000000e+00 0.0000e+00 -1.0000e+00
       -2 -1    0    0    0  501 -0.0000000000e+00 -0.0000000000e+00 -2.6886211479e+03 2.6886211479e+03 0.0000000000e+00 0.0000e+00 1.0000e+00
      -13  1    1    2    0    0 +2.2459501003e+03 +2.3044273944e+03 -7.3594675643e+02 3.3009536648e+03 0.0000000000e+00 0.0000e+00 1.0000e+00
       13  1    1    2    0    0 -2.2459501003e+03 -2.3044273944e+03 +3.1925291938e+03 4.5328710684e+03 0.0000000000e+00 0.0000e+00 -1.0000e+00
<mgrwt>
<rscale>  0 0.74386835E+04</rscale>
<asrwt>0</asrwt>
<pdfrwt beam="1">  1        2 0.79156978E+00 0.74386835E+04</pdfrwt>
<pdfrwt beam="2">  1       -2 0.41363402E+00 0.74386835E+04</pdfrwt>
<totfact> 0.55543578E-05</totfact>
</mgrwt>
<rwgt>
<wgt id='morphing_basis_vector_1'> +2.8654004e-07 </wgt>
<wgt id='morphing_basis_vector_2'> +1.9786229e-07 </wgt>
<wgt id='morphing_basis_vector_3'> +3.1737139e-07 </wgt>
<wgt id='morphing_basis_vector_4'> +2.2605478e-07 </wgt>
<wgt id='morphing_basis_vector_5'> +3.6455268e-07 </wgt>
</rwgt>
</event>
<event>
 4      1 +6.9060000e-13 6.71324300e+03 7.81860800e-03 7.18814200e-02
        2 -1    0    0  501    0 +0.0000000000e+00 +0.0000000000e+00 +3.9326211617e+03 3.9326211617e+03 0.0000000000e+00 0.0000e+00 1.0000e+00
       -2 -1    0    0    0  501 -0.0000000000e+00 -0.0000000000e+00 -2.8649871288e+03 2.8649871288e+03 0.0000000000e+00 0.0000e+00 -1.0000e+00
      -13  1    1    2    0    0 +3.0461476712e+03 +2.1996075319e+02 -8.7634765211e+02 3.1773233349e+03 0.0000000000e+00 0.0000e+00 -1.0000e+00
       13  1    1    2    0    0 -3.0461476712e+03 -2.1996075319e+02 +1.9439816850e+03 3.6202849555e+03 0.0000000000e+00 0.0000e+00 1.0000e+00
<mgrwt>
<rscale>  0 0.67132433E+04</rscale>
<asrwt>0</asrwt>
<pdfrwt beam="1">  1        2 0.60501864E+00 0.67132433E+04</pdfrwt>
<pdfrwt beam="2">  1       -2 0.44076725E+00 0.67132433E+04</pdfrwt>
<totfact> 0.79629999E-04</totfact>
</mgrwt>
<rwgt>
<wgt id='morphing_basis_vector_1'> +1.9066238e-07 </wgt>
<wgt id='morphing_basis_vector_2'> +1.3262732e-07 </wgt>
<wgt id='morphing_basis_vector_3'> +2.1128371e-07 </wgt>
<wgt id='morphing_basis_vector_4'> +1.4888130e-07 </wgt>
<wgt id='morphing_basis_vector_5'> +2.4158767e-07 </wgt>
</rwgt>
</event>
<event>
 4      1 +6.9060000e-13 7.11168600e+03 7.81860800e-03 7.15096100e-02
        2 -1    0    0  501    0 +0.0000000000e+00 +0.0000000000e+00 +4.1101362290e+03 4.1101362290e+03 0.0000000000e+00 0.0000e+00 1.0000e+00
       -2 -1    0    0    0  501 -0.0000000000e+00 -0.0000000000e+00 -3.0763016519e+03 3.0763016519e+03 0.0000000000e+00 0.0000e+00 -1.0000e+00
      -13  1    1    2    0    0 -6.0667574143e+02 -2.4342372976e+03 -2.0295812901e+03 3.2268819144e+03 0.0000000000e+00 0.0000e+00 -1.0000e+00
       13  1    1    2    0    0 +6.0667574143e+02 +2.4342372976e+03 +3.0634158673e+03 3.9595559665e+03 0.0000000000e+00 0.0000e+00 1.0000e+00
<mgrwt>
<rscale>  0 0.71116858E+04</rscale>
<asrwt>0</asrwt>
<pdfrwt beam="1">  1        2 0.63232865E+00 0.71116858E+04</pdfrwt>
<pdfrwt beam="2">  1       -2 0.47327718E+00 0.71116858E+04</pdfrwt>
<totfact> 0.32028699E-04</totfact>
</mgrwt>
<rwgt>
<wgt id='morphing_basis_vector_1'> +2.3866955e-07 </wgt>
<wgt id='morphing_basis_vector_2'> +1.6303065e-07 </wgt>
<wgt id='morphing_basis_vector_3'> +2.6386524e-07 </wgt>
<wgt id='morphing_basis_vector_4'> +1.9047282e-07 </wgt>
<wgt id='morphing_basis_vector_5'> +3.0461436e-07 </wgt>
</rwgt>
</event>
<event>
 4      1 +6.9060000e-13 7.01571300e+03 7.81860800e-03 7.15968800e-02
        2 -1    0    0  501    0 +0.0000000000e+00 +0.0000000000e+00 +2.4821795348e+03 2.4821795348e+03 0.0000000000e+00 0.0000e+00 1.0000e+00
       -2 -1    0    0    0  501 -0.0000000000e+00 -0.0000000000e+00 -4.9573595260e+03 4.9573595260e+03 0.0000000000e+00 0.0000e+00 -1.0000e+00
      -13  1    1    2    0    0 +2.5011034681e+03 +2.1788303184e+03 -2.4476840272e+03 4.1223751905e+03 0.0000000000e+00 0.0000e+00 -1.0000e+00
       13  1    1    2    0    0 -2.5011034681e+03 -2.1788303184e+03 -2.7495963988e+01 3.3171638703e+03 0.0000000000e+00 0.0000e+00 1.0000e+00
<mgrwt>
<rscale>  0 0.70157128E+04</rscale>
<asrwt>0</asrwt>
<pdfrwt beam="1">  1        2 0.38187377E+00 0.70157128E+04</pdfrwt>
<pdfrwt beam="2">  1       -2 0.76267070E+00 0.70157128E+04</pdfrwt>
<totfact> 0.26906751E-04</totfact>
</mgrwt>
<rwgt>
<wgt id='morphing_basis_vector_1'> +2.2812355e-07 </wgt>
<wgt id='morphing_basis_vector_2'> +1.6045318e-07 </wgt>
<wgt id='morphing_basis_vector_3'> +2.5328305e-07 </wgt>
<wgt id='morphing_basis_vector_4'> +1.7596741e-07 </wgt>
<wgt id='morphing_basis_vector_5'> +2.8810404e-07 </wgt>
</rwgt>
</event>
<event>
 4      1 +6.9060000e-13 7.14560800e+03 7.81860800e-03 7.14790900e-02
        2 -1    0    0  501    0 +0.0000000000e+00 +0.0000000000e+00 +3.8356218362e+03 3.8356218362e+03 0.0000000000e+00 0.0000e+00 1.0000e+00
       -2 -1    0    0    0  501 -0.0000000000e+00 -0.0000000000e+00 -3.3279944427e+03 3.3279944427e+03 0.0000000000e+00 0.0000e+00 -1.0000e+00
      -13  1    1    2    0    0 +1.1055009308e+03 +7.5127586187e+02 -3.0679005535e+03 3.3464251874e+03 0.0000000000e+00 0.0000e+00 -1.0000e+00
       13  1    1    2    0    0 -1.1055009308e+03 -7.5127586187e+02 +3.5755279471e+03 3.8171910915e+03 0.0000000000e+00 0.0000e+00 1.0000e+00
<mgrwt>
<rscale>  0 0.71456079E+04</rscale>
<asrwt>0</asrwt>
<pdfrwt beam="1">  1        2 0.59009567E+00 0.71456079E+04</pdfrwt>
<pdfrwt beam="2">  1       -2 0.51199915E+00 0.71456079E+04</pdfrwt>
<totfact> 0.28084530E-04</totfact>
</mgrwt>
<rwgt>
<wgt id='morphing_basis_vector_1'> +2.4297474e-07 </wgt>
<wgt id='morphing_basis_vector_2'> +1.6535837e-07 </wgt>
<wgt id='morphing_basis_vector_3'> +2.6848653e-07 </wgt>
<wgt id='morphing_basis_vector_4'> +1.9472577e-07 </wgt>
<wgt id='morphing_basis_vector_5'> +3.1052670e-07 </wgt>
</rwgt>
</event>
<event>
 4      1 +6.9060000e-13 6.81628000e+03 7.81860800e-03 7.17828200e-02
        2 -1    0    0  501    0 +0.0000000000e+00 +0.0000000000e+00 +4.9795907045e+03 4.9795907045e+03 0.0000000000e+00 0.0000e+00 1.0000e+00
       -2 -1    0    0    0  501 -0.0000000000e+00 -0.0000000000e+00 -2.3326048522e+03 2.3326048522e+03 0.0000000000e+00 0.0000e+00 -1.0000e+00
      -13  1    1    2    0    0 +1.1807419513e+03 -1.1120222823e+03 -1.8920292738e+03 2.4920914680e+03 0.0000000000e+00 0.0000e+00 -1.0000e+00
       13  1    1    2    0    0 -1.1807419513e+03 +1.1120222823e+03 +4.5390151260e+03 4.8201040887e+03 0.0000000000e+00 0.0000e+00 1.0000e+00
<mgrwt>
<rscale>  0 0.68162798E+04</rscale>
<asrwt>0</asrwt>
<pdfrwt beam="1">  1        2 0.76609088E+00 0.68162798E+04</pdfrwt>
<pdfrwt beam="2">  1       -2 0.35886229E+00 0.68162798E+04</pdfrwt>
<totfact> 0.22358665E-04</totfact>
</mgrwt>
<rwgt>
<wgt id='morphing_basis_vector_1'> +2.0127060e-07 </wgt>
<wgt id='morphing_basis_vector_2'> +1.3699953e-07 </wgt>
<wgt id='morphing_basis_vector_3'> +2.2234903e-07 </wgt>
<wgt id='morphing_basis_vector_4'> +1.6113806e-07 </wgt>
<wgt id='morphing_basis_vector_5'> +2.5703474e-07 </wgt>
</rwgt>
</event>
<event>
 4      1 +6.9060000e-13 6.82998000e+03 7.81860800e-03 7.17698400e-02
        2 -1    0    0  501    0 +0.0000000000e+00 +0.0000000000e+00 +4.2257513532e+03 4.2257513532e+03 0.0000000000e+00 0.0000e+00 1.0000e+00
       -2 -1    0    0    0  501 -0.0000000000e+00 -0.0000000000e+00 -2.7597833217e+03 2.7597833217e+03 0.0000000000e+00 0.0000e+00 -1.0000e+00
      -13  1    1    2    0    0 +1.3891538189e+03 -2.8412279633e+03 +2.0506715846e+03 3.7692941806e+03 0.0000000000e+00 0.0000e+00 1.0000e+00
       13  1    1    2    0    0 -1.3891538189e+03 +2.8412279633e+03 -5.8470355308e+02 3.2162404943e+03 0.0000000000e+00 0.0000e+00 -1.0000e+00
<mgrwt>
<rscale>  0 0.68299804E+04</rscale>
<asrwt>0</asrwt>
<pdfrwt beam="1">  1        2 0.65011559E+00 0.68299804E+04</pdfrwt>
<pdfrwt beam="2">  1       -2 0.42458205E+00 0.68299804E+04</pdfrwt>
<totfact> 0.56140873E-04</totfact>
</mgrwt>
<rwgt>
<wgt id='morphing_basis_vector_1'> +2.2921874e-07 </wgt>
<wgt id='morphing_basis_vector_2'> +2.1536053e-07 </wgt>
<wgt id='morphing_basis_vector_3'> +2.6726835e-07 </wgt>
<wgt id='morphing_basis_vector_4'> +1.0600491e-07 </wgt>
<wgt id='morphing_basis_vector_5'> +2.5435599e-07 </wgt>
</rwgt>
</event>
<event>
 4      1 +6.9060000e-13 6.91831700e+03 7.81860800e-03 7.16868900e-02
        2 -1    0    0  501    0 +0.0000000000e+00 +0.0000000000e+00 +3.9355631449e+03 3.9355631449e+03 0.0000000000e+00 0.0000e+00 -1.0000e+00
       -2 -1    0    0    0  501 -0.0000000000e+00 -0.0000000000e+00 -3.0404228298e+03 3.0404228298e+03 0.0000000000e+00 0.0000e+00 1.0000e+00
      -13  1    1    2    0    0 +2.1097802079e+03 -1.2294914476e+03 -2.0229459304e+03 3.1709828102e+03 0.0000000000e+00 0.0000e+00 1.0000e+00
       13  1    1    2    0    0 -2.1097802079e+03 +1.2294914476e+03 +2.9180862456e+03 3.8050031645e+03 0.0000000000e+00 0.0000e+00 -1.0000e+00
<mgrwt>
<rscale>  0 0.69183166E+04</rscale>
<asrwt>0</asrwt>
<pdfrwt beam="1">  1        2 0.60547126E+00 0.69183166E+04</pdfrwt>
<pdfrwt beam="2">  1       -2 0.46775735E+00 0.69183166E+04</pdfrwt>
<totfact> 0.50357201E-04</totfact>
</mgrwt>
<rwgt>
<wgt id='morphing_basis_vector_1'> +2.1379141e-07 </wgt>
<wgt id='morphing_basis_vector_2'> +1.4602238e-07 </wgt>
<wgt id='morphing_basis_vector_3'> +2.3632030e-07 </wgt>
<wgt id='morphing_basis_vector_4'> +1.7055509e-07 </wgt>
<wgt id='morphing_basis_vector_5'> +2.7276244e-07 </wgt>
</rwgt>
</event>
<event>
 4      1 +6.9060000e-13 7.42475400e+03 7.81860800e-03 7.12342800e-02
        2 -1    0    0  501    0 +0.0000000000e+00 +0.0000000000e+00 +3.9390637507e+03 3.9390637507e+03 0.0000000000e+00 0.0000e+00 -1.0000e+00
       -2 -1    0    0    0  501 -0.0000000000e+00 -0.0000000000e+00 -3.4987354465e+03 3.4987354465e+03 0.0000000000e+00 0.0000e+00 1.0000e+00
      -13  1    1    2    0    0 -2.3170463494e+03 -2.8526908604e+03 -3.0534601125e+02 3.6877886486e+03 0.0000000000e+00 0.0000e+00 1.0000e+00
       13  1    1    2    0    0 +2.3170463494e+03 +2.8526908604e+03 +7.4567431541e+02 3.7500105486e+03 0.0000000000e+00 0.0000e+00 -1.0000e+00
<mgrwt>
<rscale>  0 0.74247537E+04</rscale>
<asrwt>0</asrwt>
<pdfrwt beam="1">  1        2 0.60600981E+00 0.74247537E+04</pdfrwt>
<pdfrwt beam="2">  1       -2 0.53826699E+00 0.74247537E+04</pdfrwt>
<totfact> 0.14514189E-04</totfact>
</mgrwt>
<rwgt>
<wgt id='morphing_basis_vector_1'> +2.8931108e-07 </wgt>
<wgt id='morphing_basis_vector_2'> +2.1078584e-07 </wgt>
<wgt id='morphing_basis_vector_3'> +3.2305410e-07 </wgt>
<wgt id='morphing_basis_vector_4'> +2.1383189e-07 </wgt>
<wgt id='morphing_basis_vector_5'> +3.6093758e-07 </wgt>
</rwgt>
</event>
<event>
 4      1 +6.9060000e-13 6.94387800e+03 7.81860800e-03 7.16631300e-02
        2 -1    0    0  501    0 +0.0000000000e+00 +0.0000000000e+00 +2.5661023009e+03 2.5661023009e+03 0.0000000000e+00 0.0000e+00 -1.0000e+00
       -2 -1    0    0    0  501 -0.0000000000e+00 -0.0000000000e+00 -4.6975373156e+03 4.6975373156e+03 0.0000000000e+00 0.0000e+00 1.0000e+00
      -13  1    1    2    0    0 -3.1855641802e+03 -1.1572055063e+03 -1.8536764445e+03 3.8630376766e+03 0.0000000000e+00 0.0000e+00 1.0000e+00
       13  1    1    2    0    0 +3.1855641802e+03 +1.1572055063e+03 -2.7775857025e+02 3.4006019399e+03 0.0000000000e+00 0.0000e+00 -1.0000e+00
<mgrwt>
<rscale>  0 0.69438783E+04</rscale>
<asrwt>0</asrwt>
<pdfrwt beam="1">  1        2 0.39478497E+00 0.69438783E+04</pdfrwt>
<pdfrwt beam="2">  1       -2 0.72269805E+00 0.69438783E+04</pdfrwt>
<totfact> 0.13383809E-04</totfact>
</mgrwt>
<rwgt>
<wgt id='morphing_basis_vector_1'> +2.2021399e-07 </wgt>
<wgt id='morphing_basis_vector_2'> +1.5773004e-07 </wgt>
<wgt id='morphing_basis_vector_3'> +2.4515887e-07 </wgt>
<wgt id='morphing_basis_vector_4'> +1.6612398e-07 </wgt>
<wgt id='morphing_basis_vector_5'> +2.7623538e-07 </wgt>
</rwgt>
</event>
<event>
 4      1 +6.9060000e-13 6.96658400e+03 7.81860800e-03 7.16421000e-02
        2 -1    0    0  501    0 +0.0000000000e+00 +0.0000000000e+00 +3.1355425191e+03 3.1355425191e+03 0.0000000000e+00 0.0000e+00 -1.0000e+00
       -2 -1    0    0    0  501 -0.0000000000e+00 -0.0000000000e+00 -3.8696085361e+03 3.8696085361e+03 0.0000000000e+00 0.0000e+00 1.0000e+00
      -13  1    1    2    0    0 +1.8805872404e+03 -1.8830555353e+03 -2.6268767016e+03 3.7393833346e+03 0.0000000000e+00 0.0000e+00 1.0000e+00
       13  1    1    2    0    0 -1.8805872404e+03 +1.8830555353e+03 +1.8928106846e+03 3.2657677207e+03 0.0000000000e+00 0.0000e+00 -1.0000e+00
<mgrwt>
<rscale>  0 0.69665837E+04</rscale>
<asrwt>0</asrwt>
<pdfrwt beam="1">  1        2 0.48239116E+00 0.69665837E+04</pdfrwt>
<pdfrwt beam="2">  1       -2 0.59532439E+00 0.69665837E+04</pdfrwt>
<totfact> 0.22144047E-04</totfact>
</mgrwt>
<rwgt>
<wgt id='morphing_basis_vector_1'> +2.1996442e-07 </wgt>
<wgt id='morphing_basis_vector_2'> +1.5059069e-07 </wgt>
<wgt id='morphing_basis_vector_3'> +2.4323702e-07 </wgt>
<wgt id='morphing_basis_vector_4'> +1.7504143e-07 </wgt>
<wgt id='morphing_basis_vector_5'> +2.8043931e-07 </wgt>
</rwgt>
</event>
<event>
 4      1 +6.9060000e-13 7.24326800e+03 7.81860800e-03 7.13921800e-02
        2 -1    0    0  501    0 +0.0000000000e+00 +0.0000000000e+00 +4.1427580938e+03 4.1427580938e+03 0.0000000000e+00 0.0000e+00 -1.0000e+00
       -2 -1    0    0    0  501 -0.0000000000e+00 -0.0000000000e+00 -3.1660633235e+03 3.1660633235e+03 0.0000000000e+00 0.0000e+00 1.0000e+00
      -13  1    1    2    0    0 +2.0166320537e+03 +1.2277309433e+03 -2.2827966222e+03 3.2840963030e+03 0.0000000000e+00 0.0000e+00 1.0000e+00
       13  1    1    2    0    0 -2.0166320537e+03 -1.2277309433e+03 +3.2594913924e+03 4.0247251143e+03 0.0000000000e+00 0.0000e+00 -1.0000e+00
<mgrwt>
<rscale>  0 0.72432684E+04</rscale>
<asrwt>0</asrwt>
<pdfrwt beam="1">  1        2 0.63734740E+00 0.72432684E+04</pdfrwt>
<pdfrwt beam="2">  1       -2 0.48708666E+00 0.72432684E+04</pdfrwt>
<totfact> 0.23459723E-04</totfact>
</mgrwt>
<rwgt>
<wgt id='morphing_basis_vector_1'> +2.5669343e-07 </wgt>
<wgt id='morphing_basis_vector_2'> +1.7511606e-07 </wgt>
<wgt id='morphing_basis_vector_3'> +2.8376637e-07 </wgt>
<wgt id='morphing_basis_vector_4'> +2.0521582e-07 </wgt>
<wgt id='morphing_basis_vector_5'> +3.2784819e-07 </wgt>
</rwgt>
</event>
<event>
 4      1 +6.9060000e-13 6.77802600e+03 7.81860800e-03 7.18192200e-02
        2 -1    0    0  501    0 +0.0000000000e+00 +0.0000000000e+00 +4.0605666939e+03 4.0605666939e+03 0.0000000000e+00 0.0000e+00 -1.0000e+00
       -2 -1    0    0    0  501 -0.0000000000e+00 -0.0000000000e+00 -2.8285240193e+03 2.8285240193e+03 0.0000000000e+00 0.0000e+00 1.0000e+00
      -13  1    1    2    0    0 -1.0375085397e+02 +6.9859034994e+02 -2.7528983260e+03 2.8420488930e+03 0.0000000000e+00 0.0000e+00 1.0000e+00
       13  1    1    2    0    0 +1.0375085397e+02 -6.9859034994e+02 +3.9849410006e+03 4.0470418203e+03 0.0000000000e+00 0.0000e+00 -1.0000e+00
<mgrwt>
<rscale>  0 0.67780264E+04</rscale>
<asrwt>0</asrwt>
<pdfrwt beam="1">  1        2 0.62470257E+00 0.67780264E+04</pdfrwt>
<pdfrwt beam="2">  1       -2 0.43515754E+00 0.67780264E+04</pdfrwt>
<totfact> 0.67328792E-04</totfact>
</mgrwt>
<rwgt>
<wgt id='morphing_basis_vector_1'> +1.9676614e-07 </wgt>
<wgt id='morphing_basis_vector_2'> +1.3385793e-07 </wgt>
<wgt id='morphing_basis_vector_3'> +2.1734759e-07 </wgt>
<wgt id='morphing_basis_vector_4'> +1.5761391e-07 </wgt>
<wgt id='morphing_basis_vector_5'> +2.5130924e-07 </wgt>
</rwgt>
</event>
<event>
 4      1 +6.9060000e-13 6.98951900e+03 7.81860800e-03 7.16209400e-02
        2 -1    0    0  501    0 +0.0000000000e+00 +0.0000000000e+00 +2.3440348917e+03 2.3440348917e+03 0.0000000000e+00 0.0000e+00 1.0000e+00
       -2 -1    0    0    0  501 -0.0000000000e+00 -0.0000000000e+00 -5.2103941033e+03 5.2103941033e+03 0.0000000000e+00 0.0000e+00 -1.0000e+00
      -13  1    1    2    0    0 +5.3004436794e+02 +1.0944165345e+03 -4.9743619455e+03 5.1208369773e+03 0.0000000000e+00 0.0000e+00 -1.0000e+00
       13  1    1    2    0    0 -5.3004436794e+02 -1.0944165345e+03 +2.1080027339e+03 2.4335920178e+03 0.0000000000e+00 0.0000e+00 1.0000e+00
<mgrwt>
<rscale>  0 0.69895195E+04</rscale>
<asrwt>0</asrwt>
<pdfrwt beam="1">  1        2 0.36062076E+00 0.69895195E+04</pdfrwt>
<pdfrwt beam="2">  1       -2 0.80159908E+00 0.69895195E+04</pdfrwt>
<totfact> 0.32136698E-04</totfact>
</mgrwt>
<rwgt>
<wgt id='morphing_basis_vector_1'> +2.2245910e-07 </wgt>
<wgt id='morphing_basis_vector_2'> +1.5137508e-07 </wgt>
<wgt id='morphing_basis_vector_3'> +2.4578149e-07 </wgt>
<wgt id='morphing_basis_vector_4'> +1.7824383e-07 </wgt>
<wgt id='morphing_basis_vector_5'> +2.8423112e-07 </wgt>
</rwgt>
</event>
<event>
 4      1 +6.9060000e-13 7.05357700e+03 7.81860800e-03 7.15622800e-02
        2 -1    0    0  501    0 +0.0000000000e+00 +0.0000000000e+00 +3.7098618096e+03 3.7098618096e+03 0.0000000000e+00 0.0000e+00 -1.0000e+00
       -2 -1    0    0    0  501 -0.0000000000e+00 -0.0000000000e+00 -3.3527495499e+03 3.3527495499e+03 0.0000000000e+00 0.0000e+00 1.0000e+00
      -13  1    1    2    0    0 -3.0139499981e+02 +2.3288110320e+03 -2.4561707576e+03 3.3980839541e+03 0.0000000000e+00 0.0000e+00 1.0000e+00
       13  1    1    2    0    0 +3.0139499981e+02 -2.3288110320e+03 +2.8132830174e+03 3.6645274053e+03 0.0000000000e+00 0.0000e+00 -1.0000e+00
<mgrwt>
<rscale>  0 0.70535771E+04</rscale>
<asrwt>0</asrwt>
<pdfrwt beam="1">  1        2 0.57074797E+00 0.70535771E+04</pdfrwt>
<pdfrwt beam="2">  1       -2 0.51580762E+00 0.70535771E+04</pdfrwt>
<totfact> 0.33314887E-04</totfact>
</mgrwt>
<rwgt>
<wgt id='morphing_basis_vector_1'> +2.3090220e-07 </wgt>
<wgt id='morphing_basis_vector_2'> +1.5755247e-07 </wgt>
<wgt id='morphing_basis_vector_3'> +2.5522535e-07 </wgt>
<wgt id='morphing_basis_vector_4'> +1.8447342e-07 </wgt>
<wgt id='morphing_basis_vector_5'> +2.9477802e-07 </wgt>
</rwgt>
</event>
<event>
 4      1 +6.9060000e-13 7.66880200e+03 7.81860800e-03 7.10289400e-02
        2 -1    0    0  501    0 +0.0000000000e+00 +0.0000000000e+00 +4.9702836452e+03 4.9702836452e+03 0.0000000000e+00 0.0000e+00 -1.0000e+00
       -2 -1    0    0    0  501 -0.0000000000e+00 -0.0000000000e+00 -2.9581066569e+03 2.9581066569e+03 0.0000000000e+00 0.0000e+00 1.0000e+00
      -13  1    1    2    0    0 +1.0672848264e+03 +1.4157560138e+03 -2.5088748190e+03 3.0721189509e+03 0.0000000000e+00 0.0000e+00 1.0000e+00
       13  1    1    2    0    0 -1.0672848264e+03 -1.4157560138e+03 +4.5210518073e+03 4.8562713511e+03 0.0000000000e+00 0.0000e+00 -1.0000e+00
<mgrwt>
<rscale>  0 0.76688015E+04</rscale>
<asrwt>0</asrwt>
<pdfrwt beam="1">  1        2 0.76465902E+00 0.76688015E+04</pdfrwt>
<pdfrwt beam="2">  1       -2 0.45509333E+00 0.76688015E+04</pdfrwt>
<totfact> 0.49859646E-05</totfact>
</mgrwt>
<rwgt>
<wgt id='morphing_basis_vector_1'> +3.2223201e-07 </wgt>
<wgt id='morphing_basis_vector_2'> +2.1941929e-07 </wgt>
<wgt id='morphing_basis_vector_3'> +3.5622258e-07 </wgt>
<wgt id='morphing_basis_vector_4'> +2.5837252e-07 </wgt>
<wgt id='morphing_basis_vector_5'> +4.1212044e-07 </wgt>
</rwgt>
</event>
<event>
 4      1 +6.9060000e-13 6.69147800e+03 7.81860800e-03 7.19024800e-02
        2 -1    0    0  501    0 +0.0000000000e+00 +0.0000000000e+00 +3.9116801320e+03 3.9116801320e+03 0.0000000000e+00 0.0000e+00 1.0000e+00
       -2 -1    0    0    0  501 -0.0000000000e+00 -0.0000000000e+00 -2.8616780535e+03 2.8616780535e+03 0.0000000000e+00 0.0000e+00 -1.0000e+00
      -13  1    1    2    0    0 -3.2051909985e+03 +5.4123586977e+02 -2.7702223274e+02 3.2623499078e+03 0.0000000000e+00 0.0000e+00 -1.0000e+00
       13  1    1    2    0    0 +3.2051909985e+03 -5.4123586977e+02 +1.3270243112e+03 3.5110082777e+03 0.0000000000e+00 0.0000e+00 1.0000e+00
<mgrwt>
<rscale>  0 0.66914779E+04</rscale>
<asrwt>0</asrwt>
<pdfrwt beam="1">  1        2 0.60179695E+00 0.66914779E+04</pdfrwt>
<pdfrwt beam="2">  1       -2 0.44025816E+00 0.66914779E+04</pdfrwt>
<totfact> 0.83684544E-04</totfact>
</mgrwt>
<rwgt>
<wgt id='morphing_basis_vector_1'> +1.8971625e-07 </wgt>
<wgt id='morphing_basis_vector_2'> +1.3534816e-07 </wgt>
<wgt id='morphing_basis_vector_3'> +2.1102954e-07 </wgt>
<wgt id='morphing_basis_vector_4'> +1.4372074e-07 </wgt>
<wgt id='morphing_basis_vector_5'> +2.3819178e-07 </wgt>
</rwgt>
</event>
<event>
 4      1 +6.9060000e-13 6.74489800e+03 7.81860800e-03 7.18509400e-02
        2 -1    0    0  501    0 +0.0000000000e+00 +0.0000000000e+00 +3.3749990824e+03 3.3749990824e+03 0.0000000000e+00 0.0000e+00 -1.0000e+00
       -2 -1    0    0    0  501 -0.0000000000e+00 -0.0000000000e+00 -3.3699005989e+03 3.3699005989e+03 0.0000000000e+00 0.0000e+00 1.0000e+00
      -13  1    1    2    0    0 -2.8804652873e+03 -1.6294483741e+03 -6.4647263366e+02 3.3719592437e+03 0.0000000000e+00 0.0000e+00 1.0000e+00
       13  1    1    2    0    0 +2.8804652873e+03 +1.6294483741e+03 +6.5157111716e+02 3.3729404377e+03 0.0000000000e+00 0.0000e+00 -1.0000e+00
<mgrwt>
<rscale>  0 0.67448978E+04</rscale>
<asrwt>0</asrwt>
<pdfrwt beam="1">  1        2 0.51923063E+00 0.67448978E+04</pdfrwt>
<pdfrwt beam="2">  1       -2 0.51844624E+00 0.67448978E+04</pdfrwt>
<totfact> 0.57734037E-04</totfact>
</mgrwt>
<rwgt>
<wgt id='morphing_basis_vector_1'> +1.9639734e-07 </wgt>
<wgt id='morphing_basis_vector_2'> +1.4136579e-07 </wgt>
<wgt id='morphing_basis_vector_3'> +2.1876841e-07 </wgt>
<wgt id='morphing_basis_vector_4'> +1.4717059e-07 </wgt>
<wgt id='morphing_basis_vector_5'> +2.4580187e-07 </wgt>
</rwgt>
</event>
<event>
 4      1 +6.9060000e-13 6.86031000e+03 7.81860800e-03 7.17412200e-02
        2 -1    0    0  501    0 +0.0000000000e+00 +0.0000000000e+00 +3.8256888184e+03 3.8256888184e+03 0.0000000000e+00 0.0000e+00 -1.0000e+00
       -2 -1    0    0    0  501 -0.0000000000e+00 -0.0000000000e+00 -3.0755148173e+03 3.0755148173e+03 0.0000000000e+00 0.0000e+00 1.0000e+00
      -13  1    1    2    0    0 -5.5816532252e+02 +5.6630034902e+02 -2.9815256215e+03 3.0857316222e+03 0.0000000000e+00 0.0000e+00 1.0000e+00
       13  1    1    2    0    0 +5.5816532252e+02 -5.6630034902e+02 +3.7316996226e+03 3.8154720135e+03 0.0000000000e+00 0.0000e+00 -1.0000e+00
<mgrwt>
<rscale>  0 0.68603098E+04</rscale>
<asrwt>0</asrwt>
<pdfrwt beam="1">  1        2 0.58856751E+00 0.68603098E+04</pdfrwt>
<pdfrwt beam="2">  1       -2 0.47315613E+00 0.68603098E+04</pdfrwt>
<totfact> 0.56843360E-04</totfact>
</mgrwt>
<rwgt>
<wgt id='morphing_basis_vector_1'> +2.0647923e-07 </wgt>
<wgt id='morphing_basis_vector_2'> +1.4047424e-07 </wgt>
<wgt id='morphing_basis_vector_3'> +2.2809516e-07 </wgt>
<wgt id='morphing_basis_vector_4'> +1.6542005e-07 </wgt>
<wgt id='morphing_basis_vector_5'> +2.6375814e-07 </wgt>
</rwgt>
</event>
<event>
 4      1 +6.9060000e-13 6.82737500e+03 7.81860800e-03 7.17723100e-02
        2 -1    0    0  501    0 +0.0000000000e+00 +0.0000000000e+00 +3.3281666200e+03 3.3281666200e+03 0.0000000000e+00 0.0000e+00 -1.0000e+00
       -2 -1    0    0    0  501 -0.0000000000e+00 -0.0000000000e+00 -3.5014054931e+03 3.5014054931e+03 0.0000000000e+00 0.0000e+00 1.0000e+00
      -13  1    1    2    0    0 -3.2850211255e+03 -2.8778453342e+02 +7.9631813766e+02 3.3923894689e+03 0.0000000000e+00 0.0000e+00 -1.0000e+00
       13  1    1    2    0    0 +3.2850211255e+03 +2.8778453342e+02 -9.6955701073e+02 3.4371826442e+03 0.0000000000e+00 0.0000e+00 1.0000e+00
<mgrwt>
<rscale>  0 0.68273746E+04</rscale>
<asrwt>0</asrwt>
<pdfrwt beam="1">  1        2 0.51202563E+00 0.68273746E+04</pdfrwt>
<pdfrwt beam="2">  1       -2 0.53867777E+00 0.68273746E+04</pdfrwt>
<totfact> 0.44035830E-04</totfact>
</mgrwt>
<rwgt>
<wgt id='morphing_basis_vector_1'> +2.2066010e-07 </wgt>
<wgt id='morphing_basis_vector_2'> +1.9094197e-07 </wgt>
<wgt id='morphing_basis_vector_3'> +2.5341281e-07 </wgt>
<wgt id='morphing_basis_vector_4'> +1.2344051e-07 </wgt>
<wgt id='morphing_basis_vector_5'> +2.5545012e-07 </wgt>
</rwgt>
</event>
<event>
 4      1 +6.9060000e-13 6.92507900e+03 7.81860800e-03 7.16806000e-02
        2 -1    0    0  501    0 +0.0000000000e+00 +0.0000000000e+00 +4.9511996549e+03 4.9511996549e+03 0.0000000000e+00 0.0000e+00 -1.0000e+00
       -2 -1    0    0    0  501 -0.0000000000e+00 -0.0000000000e+00 -2.4214693742e+03 2.4214693742e+03 0.0000000000e+00 0.0000e+00 1.0000e+00
      -13  1    1    2    0    0 +2.3237674551e+03 -2.1171962201e+02 -1.4586943951e+03 2.7518193477e+03 0.0000000000e+00 0.0000e+00 1.0000e+00
       13  1    1    2    0    0 -2.3237674551e+03 +2.1171962201e+02 +3.9884246758e+03 4.6208496815e+03 0.0000000000e+00 0.0000e+00 -1.0000e+00
<mgrwt>
<rscale>  0 0.69250786E+04</rscale>
<asrwt>0</asrwt>
<pdfrwt beam="1">  1        2 0.76172302E+00 0.69250786E+04</pdfrwt>
<pdfrwt beam="2">  1       -2 0.37253375E+00 0.69250786E+04</pdfrwt>
<totfact> 0.19745808E-04</totfact>
</mgrwt>
<rwgt>
<wgt id='morphing_basis_vector_1'> +2.1456953e-07 </wgt>
<wgt id='morphing_basis_vector_2'> +1.4642497e-07 </wgt>
<wgt id='morphing_basis_vector_3'> +2.3715125e-07 </wgt>
<wgt id='morphing_basis_vector_4'> +1.7134725e-07 </wgt>
<wgt id='morphing_basis_vector_5'> +2.7384256e-07 </wgt>
</rwgt>
</event>
<event>
 4      1 +6.9060000e-13 6.84576400e+03 7.81860800e-03 7.17549300e-02
        2 -1    0    0  501    0 +0.0000000000e+00 +0.0000000000e+00 +4.8621802150e+03 4.8621802150e+03 0.0000000000e+00 0.0000e+00 -1.0000e+00
       -2 -1    0    0    0  501 -0.0000000000e+00 -0.0000000000e+00 -2.4096437798e+03 2.4096437798e+03 0.0000000000e+00 0.0000e+00 1.0000e+00
      -13  1    1    2    0    0 +2.5567538731e+02 -3.3261333104e+03 +2.0405195317e+03 3.9105309949e+03 0.0000000000e+00 0.0000e+00 1.0000e+00
       13  1    1    2    0    0 -2.5567538731e+02 +3.3261333104e+03 +4.1201690344e+02 3.3612929999e+03 0.0000000000e+00 0.0000e+00 -1.0000e+00
<mgrwt>
<rscale>  0 0.68457643E+04</rscale>
<asrwt>0</asrwt>
<pdfrwt beam="1">  1        2 0.74802772E+00 0.68457643E+04</pdfrwt>
<pdfrwt beam="2">  1       -2 0.37071443E+00 0.68457643E+04</pdfrwt>
<totfact> 0.26459786E-04</totfact>
</mgrwt>
<rwgt>
<wgt id='morphing_basis_vector_1'> +2.2107804e-07 </wgt>
<wgt id='morphing_basis_vector_2'> +1.8723951e-07 </wgt>
<wgt id='morphing_basis_vector_3'> +2.5293633e-07 </wgt>
<wgt id='morphing_basis_vector_4'> +1.2898996e-07 </wgt>
<wgt id='morphing_basis_vector_5'> +2.5857301e-07 </wgt>
</rwgt>
</event>
<event>
 4      1 +6.9060000e-13 6.70679600e+03 7.81860800e-03 7.18876500e-02
        2 -1    0    0  501    0 +0.0000000000e+00 +0.0000000000e+00 +3.2479899139e+03 3.2479899139e+03 0.0000000000e+00 0.0000e+00 1.0000e+00
       -2 -1    0    0    0  501 -0.0000000000e+00 -0.0000000000e+00 -3.4622264431e+03 3.4622264431e+03 0.0000000000e+00 0.0000e+00 -1.0000e+00
      -13  1    1    2    0    0 +1.0125603442e+03 +2.3891174562e+03 -2.2323758764e+03 3.4229611046e+03 0.0000000000e+00 0.0000e+00 -1.0000e+00
       13  1    1    2    0    0 -1.0125603442e+03 -2.3891174562e+03 +2.0181393472e+03 3.2872552525e+03 0.0000000000e+00 0.0000e+00 1.0000e+00
<mgrwt>
<rscale>  0 0.67067955E+04</rscale>
<asrwt>0</asrwt>
<pdfrwt beam="1">  1        2 0.49969076E+00 0.67067955E+04</pdfrwt>
<pdfrwt beam="2">  1       -2 0.53265022E+00 0.67067955E+04</pdfrwt>
<totfact> 0.55807981E-04</totfact>
</mgrwt>
<rwgt>
<wgt id='morphing_basis_vector_1'> +1.8902403e-07 </wgt>
<wgt id='morphing_basis_vector_2'> +1.2945366e-07 </wgt>
<wgt id='morphing_basis_vector_3'> +2.0898607e-07 </wgt>
<wgt id='morphing_basis_vector_4'> +1.5025551e-07 </wgt>
<wgt id='morphing_basis_vector_5'> +2.4082320e-07 </wgt>
</rwgt>
</event>
<event>
 4      1 +6.9060000e-13 6.69932500e+03 7.81860800e-03 7.18948800e-02
        2 -1    0    0  501    0 +0.0000000000e+00 +0.0000000000e+00 +4.0376347814e+03 4.0376347814e+03 0.0000000000e+00 0.0000e+00 1.0000e+00
       -2 -1    0    0    0  501 -0.0000000000e+00 -0.0000000000e+00 -2.7789135528e+03 2.7789135528e+03 0.0000000000e+00 0.0000e+00 -1.0000e+00
      -13  1    1    2    0    0 +2.4256342875e+03 +2.2249608969e+03 +1.2615906666e+03 3.5250196736e+03 0.0000000000e+00 0.0000e+00 -1.0000e+00
       13  1    1    2    0    0 -2.4256342875e+03 -2.2249608969e+03 -2.8694379554e+00 3.2915286605e+03 0.0000000000e+00 0.0000e+00 1.0000e+00
<mgrwt>
<rscale>  0 0.66993247E+04</rscale>
<asrwt>0</asrwt>
<pdfrwt beam="1">  1        2 0.62117458E+00 0.66993247E+04</pdfrwt>
<pdfrwt beam="2">  1       -2 0.42752516E+00 0.66993247E+04</pdfrwt>
<totfact> 0.79805033E-04</totfact>
</mgrwt>
<rwgt>
<wgt id='morphing_basis_vector_1'> +2.0098824e-07 </wgt>
<wgt id='morphing_basis_vector_2'> +1.6645025e-07 </wgt>
<wgt id='morphing_basis_vector_3'> +2.2902041e-07 </wgt>
<wgt id='morphing_basis_vector_4'> +1.2214880e-07 </wgt>
<wgt id='morphing_basis_vector_5'> +2.3743882e-07 </wgt>
</rwgt>
</event>
<event>
 4      1 +6.9060000e-13 6.74117100e+03 7.81860800e-03 7.18545200e-02
        2 -1    0    0  501    0 +0.0000000000e+00 +0.0000000000e+00 +3.7434910881e+03 3.7434910881e+03 0.0000000000e+00 0.0000e+00 -1.0000e+00
       -2 -1    0    0    0  501 -0.0000000000e+00 -0.0000000000e+00 -3.0348269890e+03 3.0348269890e+03 0.0000000000e+00 0.0000e+00 1.0000e+00
      -13  1    1    2    0    0 +2.0711002214e+03 +1.5955983212e+03 -1.7847026568e+03 3.1655258177e+03 0.0000000000e+00 0.0000e+00 1.0000e+00
       13  1    1    2    0    0 -2.0711002214e+03 -1.5955983212e+03 +2.4933667559e+03 3.6127922594e+03 0.0000000000e+00 0.0000e+00 -1.0000e+00
<mgrwt>
<rscale>  0 0.67411713E+04</rscale>
<asrwt>0</asrwt>
<pdfrwt beam="1">  1        2 0.57592170E+00 0.67411713E+04</pdfrwt>
<pdfrwt beam="2">  1       -2 0.46689646E+00 0.67411713E+04</pdfrwt>
<totfact> 0.74038458E-04</totfact>
</mgrwt>
<rwgt>
<wgt id='morphing_basis_vector_1'> +1.9292819e-07 </wgt>
<wgt id='morphing_basis_vector_2'> +1.3214402e-07 </wgt>
<wgt id='morphing_basis_vector_3'> +2.1331322e-07 </wgt>
<wgt id='morphing_basis_vector_4'> +1.5335222e-07 </wgt>
<wgt id='morphing_basis_vector_5'> +2.4580637e-07 </wgt>
</rwgt>
</event>
<event>
 4      1 +6.9060000e-13 7.07739800e+03 7.81860800e-03 7.15406200e-02
        2 -1    0    0  501    0 +0.0000000000e+00 +0.0000000000e+00 +3.6765838524e+03 3.6765838524e+03 0.0000000000e+00 0.0000e+00 -1.0000e+00
       -2 -1    0    0    0  501 -0.0000000000e+00 -0.0000000000e+00 -3.4059855538e+03 3.4059855538e+03 0.0000000000e+00 0.0000e+00 1.0000e+00
      -13  1    1    2    0    0 +8.9601810319e+02 +2.5579572800e+03 -2.1415330181e+03 3.4542955223e+03 0.0000000000e+00 0.0000e+00 1.0000e+00
       13  1    1    2    0    0 -8.9601810319e+02 -2.5579572800e+03 +2.4121313168e+03 3.6282738839e+03 0.0000000000e+00 0.0000e+00 -1.0000e+00
<mgrwt>
<rscale>  0 0.70773982E+04</rscale>
<asrwt>0</asrwt>
<pdfrwt beam="1">  1        2 0.56562828E+00 0.70773982E+04</pdfrwt>
<pdfrwt beam="2">  1       -2 0.52399778E+00 0.70773982E+04</pdfrwt>
<totfact> 0.30700489E-04</totfact>
</mgrwt>
<rwgt>
<wgt id='morphing_basis_vector_1'> +2.3427959e-07 </wgt>
<wgt id='morphing_basis_vector_2'> +1.6041665e-07 </wgt>
<wgt id='morphing_basis_vector_3'> +2.5909609e-07 </wgt>
<wgt id='morphing_basis_vector_4'> +1.8645103e-07 </wgt>
<wgt id='morphing_basis_vector_5'> +2.9874194e-07 </wgt>
</rwgt>
</event>
<event>
 4      1 +6.9060000e-13 6.88120400e+03 7.81860800e-03 7.17215900e-02
        2 -1    0    0  501    0 +0.0000000000e+00 +0.0000000000e+00 +4.5905487271e+03 4.5905487271e+03 0.0000000000e+00 0.0000e+00 -1.0000e+00
       -2 -1    0    0    0  501 -0.0000000000e+00 -0.0000000000e+00 -2.5787207785e+03 2.5787207785e+03 0.0000000000e+00 0.0000e+00 1.0000e+00
      -13  1    1    2    0    0 +2.7640530265e+03 +1.4311908094e+03 -5.2156004829e+02 3.1559976473e+03 0.0000000000e+00 0.0000e+00 1.0000e+00
       13  1    1    2    0    0 -2.7640530265e+03 -1.4311908094e+03 +2.5333879969e+03 4.0132718583e+03 0.0000000000e+00 0.0000e+00 -1.0000e+00
<mgrwt>
<rscale>  0 0.68812044E+04</rscale>
<asrwt>0</asrwt>
<pdfrwt beam="1">  1        2 0.70623826E+00 0.68812044E+04</pdfrwt>
<pdfrwt beam="2">  1       -2 0.39672627E+00 0.68812044E+04</pdfrwt>
<totfact> 0.36878018E-04</totfact>
</mgrwt>
<rwgt>
<wgt id='morphing_basis_vector_1'> +2.1035973e-07 </wgt>
<wgt id='morphing_basis_vector_2'> +1.4617690e-07 </wgt>
<wgt id='morphing_basis_vector_3'> +2.3311110e-07 </wgt>
<wgt id='morphing_basis_vector_4'> +1.6453688e-07 </wgt>
<wgt id='morphing_basis_vector_5'> +2.6674633e-07 </wgt>
</rwgt>
</event>
<event>
 4      1 +6.9060000e-13 7.02343100e+03 7.81860800e-03 7.15898100e-02
        2 -1    0    0  501    0 +0.0000000000e+00 +0.0000000000e+00 +3.8505538574e+03 3.8505538574e+03 0.0000000000e+00 0.0000e+00 -1.0000e+00
       -2 -1    0    0    0  501 -0.0000000000e+00 -0.0000000000e+00 -3.2026941188e+03 3.2026941188e+03 0.0000000000e+00 0.0000e+00 1.0000e+00
      -13  1    1    2    0    0 +2.5733486206e+03 +1.9556887533e+03 -1.0549631887e+03 3.3999689635e+03 0.0000000000e+00 0.0000e+00 1.0000e+00
       13  1    1    2    0    0 -2.5733486206e+03 -1.9556887533e+03 +1.7028229274e+03 3.6532790127e+03 0.0000000000e+00 0.0000e+00 -1.0000e+00
<mgrwt>
<rscale>  0 0.70234311E+04</rscale>
<asrwt>0</asrwt>
<pdfrwt beam="1">  1        2 0.59239290E+00 0.70234311E+04</pdfrwt>
<pdfrwt beam="2">  1       -2 0.49272217E+00 0.70234311E+04</pdfrwt>
<totfact> 0.38416994E-04</totfact>
</mgrwt>
<rwgt>
<wgt id='morphing_basis_vector_1'> +2.2853168e-07 </wgt>
<wgt id='morphing_basis_vector_2'> +1.5941191e-07 </wgt>
<wgt id='morphing_basis_vector_3'> +2.5342303e-07 </wgt>
<wgt id='morphing_basis_vector_4'> +1.7802172e-07 </wgt>
<wgt id='morphing_basis_vector_5'> +2.8948368e-07 </wgt>
</rwgt>
</event>
<event>
 4      1 +6.9060000e-13 6.94099500e+03 7.81860800e-03 7.16658000e-02
        2 -1    0    0  501    0 +0.0000000000e+00 +0.0000000000e+00 +2.1591338302e+03 2.1591338302e+03 0.0000000000e+00 0.0000e+00 -1.0000e+00
       -2 -1    0    0    0  501 -0.0000000000e+00 -0.0000000000e+00 -5.5783261723e+03 5.5783261723e+03 0.0000000000e+00 0.0000e+00 1.0000e+00
      -13  1    1    2    0    0 -2.0616976337e+03 +2.4179315309e+03 -1.5398835890e+02 3.1813051465e+03 0.0000000000e+00 0.0000e+00 1.0000e+00
       13  1    1    2    0    0 +2.0616976337e+03 -2.4179315309e+03 -3.2652039832e+03 4.5561548561e+03 0.0000000000e+00 0.0000e+00 -1.0000e+00
<mgrwt>
<rscale>  0 0.69409950E+04</rscale>
<asrwt>0</asrwt>
<pdfrwt beam="1">  1        2 0.33217443E+00 0.69409950E+04</pdfrwt>
<pdfrwt beam="2">  1       -2 0.85820403E+00 0.69409950E+04</pdfrwt>
<totfact> 0.21632011E-04</totfact>
</mgrwt>
<rwgt>
<wgt id='morphing_basis_vector_1'> +2.4663790e-07 </wgt>
<wgt id='morphing_basis_vector_2'> +2.3607559e-07 </wgt>
<wgt id='morphing_basis_vector_3'> +2.8864833e-07 </wgt>
<wgt id='morphing_basis_vector_4'> +1.0841246e-07 </wgt>
<wgt id='morphing_basis_vector_5'> +2.7093583e-07 </wgt>
</rwgt>
</event>
<event>
 4      1 +6.9060000e-13 7.46051700e+03 7.81860800e-03 7.12036900e-02
        2 -1    0    0  501    0 +0.0000000000e+00 +0.0000000000e+00 +3.7443688765e+03 3.7443688765e+03 0.0000000000e+00 0.0000e+00 1.0000e+00
       -2 -1    0    0    0  501 -0.0000000000e+00 -0.0000000000e+00 -3.7162014602e+03 3.7162014602e+03 0.0000000000e+00 0.0000e+00 -1.0000e+00
      -13  1    1    2    0    0 +2.7731156799e+03 -5.8254447140e+02 +2.4400648177e+03 3.7394444708e+03 0.0000000000e+00 0.0000e+00 1.0000e+00
       13  1    1    2    0    0 -2.7731156799e+03 +5.8254447140e+02 -2.4118974014e+03 3.7211258660e+03 0.0000000000e+00 0.0000e+00 -1.0000e+00
<mgrwt>
<rscale>  0 0.74605172E+04</rscale>
<asrwt>0</asrwt>
<pdfrwt beam="1">  1        2 0.57605675E+00 0.74605172E+04</pdfrwt>
<pdfrwt beam="2">  1       -2 0.57172330E+00 0.74605172E+04</pdfrwt>
<totfact> 0.11940126E-04</totfact>
</mgrwt>
<rwgt>
<wgt id='morphing_basis_vector_1'> +3.6473637e-07 </wgt>
<wgt id='morphing_basis_vector_2'> +4.1972200e-07 </wgt>
<wgt id='morphing_basis_vector_3'> +4.4389003e-07 </wgt>
<wgt id='morphing_basis_vector_4'> +6.8159873e-08 </wgt>
<wgt id='morphing_basis_vector_5'> +3.5531619e-07 </wgt>
</rwgt>
</event>
<event>
 4      1 +6.9060000e-13 6.70838300e+03 7.81860800e-03 7.18861100e-02
        2 -1    0    0  501    0 +0.0000000000e+00 +0.0000000000e+00 +3.2959037235e+03 3.2959037235e+03 0.0000000000e+00 0.0000e+00 1.0000e+00
       -2 -1    0    0    0  501 -0.0000000000e+00 -0.0000000000e+00 -3.4135100650e+03 3.4135100650e+03 0.0000000000e+00 0.0000e+00 -1.0000e+00
      -13  1    1    2    0    0 -2.4160409303e+03 +6.1023300510e+02 -2.3043569441e+03 3.3940682114e+03 0.0000000000e+00 0.0000e+00 -1.0000e+00
       13  1    1    2    0    0 +2.4160409303e+03 -6.1023300510e+02 +2.1867506026e+03 3.3153455771e+03 0.0000000000e+00 0.0000e+00 1.0000e+00
<mgrwt>
<rscale>  0 0.67083830E+04</rscale>
<asrwt>0</asrwt>
<pdfrwt beam="1">  1        2 0.50706211E+00 0.67083830E+04</pdfrwt>
<pdfrwt beam="2">  1       -2 0.52515540E+00 0.67083830E+04</pdfrwt>
<totfact> 0.58702856E-04</totfact>
</mgrwt>
<rwgt>
<wgt id='morphing_basis_vector_1'> +1.8911762e-07 </wgt>
<wgt id='morphing_basis_vector_2'> +1.2932640e-07 </wgt>
<wgt id='morphing_basis_vector_3'> +2.0904461e-07 </wgt>
<wgt id='morphing_basis_vector_4'> +1.5058047e-07 </wgt>
<wgt id='morphing_basis_vector_5'> +2.4106705e-07 </wgt>
</rwgt>
</event>
<event>
 4      1 +6.9060000e-13 6.82008700e+03 7.81860800e-03 7.17792100e-02
        2 -1    0    0  501    0 +0.0000000000e+00 +0.0000000000e+00 +2.1874066111e+03 2.1874066111e+03 0.0000000000e+00 0.0000e+00 1.0000e+00
       -2 -1    0    0    0  501 -0.0000000000e+00 -0.0000000000e+00 -5.3160657210e+03 5.3160657210e+03 0.0000000000e+00 0.0000e+00 -1.0000e+00
      -13  1    1    2    0    0 +2.0086211720e+03 +2.4574122271e+03 -2.9362611244e+03 4.3237788168e+03 0.0000000000e+00 0.0000e+00 -1.0000e+00
       13  1    1    2    0    0 -2.0086211720e+03 -2.4574122271e+03 -1.9239798542e+02 3.1796935153e+03 0.0000000000e+00 0.0000e+00 1.0000e+00
<mgrwt>
<rscale>  0 0.68200872E+04</rscale>
<asrwt>0</asrwt>
<pdfrwt beam="1">  1        2 0.33652410E+00 0.68200872E+04</pdfrwt>
<pdfrwt beam="2">  1       -2 0.81785625E+00 0.68200872E+04</pdfrwt>
<totfact> 0.35961758E-04</totfact>
</mgrwt>
<rwgt>
<wgt id='morphing_basis_vector_1'> +2.0342371e-07 </wgt>
<wgt id='morphing_basis_vector_2'> +1.4230543e-07 </wgt>
<wgt id='morphing_basis_vector_3'> +2.2563706e-07 </wgt>
<wgt id='morphing_basis_vector_4'> +1.5784685e-07 </wgt>
<wgt id='morphing_basis_vector_5'> +2.5730278e-07 </wgt>
</rwgt>
</event>
<event>
 4      1 +6.9060000e-13 7.25829600e+03 7.81860800e-03 7.13789300e-02
        2 -1    0    0  501    0 +0.0000000000e+00 +0.0000000000e+00 +3.4872397320e+03 3.4872397320e+03 0.0000000000e+00 0.0000e+00 -1.0000e+00
       -2 -1    0    0    0  501 -0.0000000000e+00 -0.0000000000e+00 -3.7768311497e+03 3.7768311497e+03 0.0000000000e+00 0.0000e+00 1.0000e+00
      -13  1    1    2    0    0 +7.9402300352e+02 +2.9067501116e+03 -2.1690385886e+03 3.7127344559e+03 0.0000000000e+00 0.0000e+00 1.0000e+00
       13  1    1    2    0    0 -7.9402300352e+02 -2.9067501116e+03 +1.8794471708e+03 3.5513364258e+03 0.0000000000e+00 0.0000e+00 -1.0000e+00
<mgrwt>
<rscale>  0 0.72582961E+04</rscale>
<asrwt>0</asrwt>
<pdfrwt beam="1">  1        2 0.53649842E+00 0.72582961E+04</pdfrwt>
<pdfrwt beam="2">  1       -2 0.58105095E+00 0.72582961E+04</pdfrwt>
<totfact> 0.16112893E-04</totfact>
</mgrwt>
<rwgt>
<wgt id='morphing_basis_vector_1'> +2.5947448e-07 </wgt>
<wgt id='morphing_basis_vector_2'> +1.7847282e-07 </wgt>
<wgt id='morphing_basis_vector_3'> +2.8719037e-07 </wgt>
<wgt id='morphing_basis_vector_4'> +2.0553764e-07 </wgt>
<wgt id='morphing_basis_vector_5'> +3.3046444e-07 </wgt>
</rwgt>
</event>
<event>
 4      1 +6.9060000e-13 6.89004500e+03 7.81860800e-03 7.17133000e-02
        2 -1    0    0  501    0 +0.0000000000e+00 +0.0000000000e+00 +3.2447787723e+03 3.2447787723e+03 0.0000000000e+00 0.0000e+00 1.0000e+00
       -2 -1    0    0    0  501 -0.0000000000e+00 -0.0000000000e+00 -3.6576240707e+03 3.6576240707e+03 0.0000000000e+00 0.0000e+00 -1.0000e+00
      -13  1    1    2    0    0 -2.1122180326e+03 -2.4138519942e+03 -1.4656713416e+03 3.5265193816e+03 0.0000000000e+00 0.0000e+00 -1.0000e+00
       13  1    1    2    0    0 +2.1122180326e+03 +2.4138519942e+03 +1.0528260431e+03 3.3758834613e+03 0.0000000000e+00 0.0000e+00 1.0000e+00
<mgrwt>
<rscale>  0 0.68900453E+04</rscale>
<asrwt>0</asrwt>
<pdfrwt beam="1">  1        2 0.49919674E+00 0.68900453E+04</pdfrwt>
<pdfrwt beam="2">  1       -2 0.56271139E+00 0.68900453E+04</pdfrwt>
<totfact> 0.33656326E-04</totfact>
</mgrwt>
<rwgt>
<wgt id='morphing_basis_vector_1'> +2.1189108e-07 </wgt>
<wgt id='morphing_basis_vector_2'> +1.4824973e-07 </wgt>
<wgt id='morphing_basis_vector_3'> +2.3504870e-07 </wgt>
<wgt id='morphing_basis_vector_4'> +1.6442060e-07 </wgt>
<wgt id='morphing_basis_vector_5'> +2.6804082e-07 </wgt>
</rwgt>
</event>
<event>
 4      1 +6.9060000e-13 6.79104900e+03 7.81860800e-03 7.18068000e-02
        2 -1    0    0  501    0 +0.0000000000e+00 +0.0000000000e+00 +2.6441844742e+03 2.6441844742e+03 0.0000000000e+00 0.0000e+00 1.0000e+00
       -2 -1    0    0    0  501 -0.0000000000e+00 -0.0000000000e+00 -4.3603568891e+03 4.3603568891e+03 0.0000000000e+00 0.0000e+00 -1.0000e+00
      -13  1    1    2    0    0 -4.0168097225e+02 -1.4494876807e+03 +2.2818273222e+03 2.7329650690e+03 0.0000000000e+00 0.0000e+00 1.0000e+00
       13  1    1    2    0    0 +4.0168097225e+02 +1.4494876807e+03 -3.9979997372e+03 4.2715762943e+03 0.0000000000e+00 0.0000e+00 -1.0000e+00
<mgrwt>
<rscale>  0 0.67910494E+04</rscale>
<asrwt>0</asrwt>
<pdfrwt beam="1">  1        2 0.40679762E+00 0.67910494E+04</pdfrwt>
<pdfrwt beam="2">  1       -2 0.67082412E+00 0.67910494E+04</pdfrwt>
<totfact> 0.41455545E-05</totfact>
</mgrwt>
<rwgt>
<wgt id='morphing_basis_vector_1'> +2.6992256e-07 </wgt>
<wgt id='morphing_basis_vector_2'> +3.4511975e-07 </wgt>
<wgt id='morphing_basis_vector_3'> +3.3636215e-07 </wgt>
<wgt id='morphing_basis_vector_4'> +5.2749227e-09 </wgt>
<wgt id='morphing_basis_vector_5'> +2.4031215e-07 </wgt>
</rwgt>
</event>
<event>
 4      1 +6.9060000e-13 7.13939000e+03 7.81860800e-03 7.14846700e-02
        2 -1    0    0  501    0 +0.0000000000e+00 +0.0000000000e+00 +4.6699604072e+03 4.6699604072e+03 0.0000000000e+00 0.0000e+00 1.0000e+00
       -2 -1    0    0    0  501 -0.0000000000e+00 -0.0000000000e+00 -2.7286572757e+03 2.7286572757e+03 0.0000000000e+00 0.0000e+00 -1.0000e+00
      -13  1    1    2    0    0 -8.0603659479e+02 +1.9272812921e+03 -2.0290328607e+03 2.9122298194e+03 0.0000000000e+00 0.0000e+00 -1.0000e+00
       13  1    1    2    0    0 +8.0603659479e+02 -1.9272812921e+03 +3.9703359922e+03 4.4863878636e+03 0.0000000000e+00 0.0000e+00 1.0000e+00
<mgrwt>
<rscale>  0 0.71393897E+04</rscale>
<asrwt>0</asrwt>
<pdfrwt beam="1">  1        2 0.71845545E+00 0.71393897E+04</pdfrwt>
<pdfrwt beam="2">  1       -2 0.41979343E+00 0.71393897E+04</pdfrwt>
<totfact> 0.20872114E-04</totfact>
</mgrwt>
<rwgt>
<wgt id='morphing_basis_vector_1'> +2.4222525e-07 </wgt>
<wgt id='morphing_basis_vector_2'> +1.6505913e-07 </wgt>
<wgt id='morphing_basis_vector_3'> +2.6770708e-07 </wgt>
<wgt id='morphing_basis_vector_4'> +1.9384663e-07 </wgt>
<wgt id='morphing_basis_vector_5'> +3.0942858e-07 </wgt>
</rwgt>
</event>
<event>
 4      1 +6.9060000e-13 6.69153200e+03 7.81860800e-03 7.19024200e-02
        2 -1    0    0  501    0 +0.0000000000e+00 +0.0000000000e+00 +2.9725982296e+03 2.9725982296e+03 0.0000000000e+00 0.0000e+00 1.0000e+00
       -2 -1    0    0    0  501 -0.0000000000e+00 -0.0000000000e+00 -3.7657799191e+03 3.7657799191e+03 0.0000000000e+00 0.0000e+00 -1.0000e+00
      -13  1    1    2    0    0 +1.1489227807e+03 +2.0542621845e+03 +1.9978982236e+03 3.0873312084e+03 0.0000000000e+00 0.0000e+00 1.0000e+00
       13  1    1    2    0    0 -1.1489227807e+03 -2.0542621845e+03 -2.7910799131e+03 3.6510469403e+03 0.0000000000e+00 0.0000e+00 -1.0000e+00
<mgrwt>
<rscale>  0 0.66915322E+04</rscale>
<asrwt>0</asrwt>
<pdfrwt beam="1">  1        2 0.45732281E+00 0.66915322E+04</pdfrwt>
<pdfrwt beam="2">  1       -2 0.57935076E+00 0.66915322E+04</pdfrwt>
<totfact> 0.39042159E-04</totfact>
</mgrwt>
<rwgt>
<wgt id='morphing_basis_vector_1'> +2.4200142e-07 </wgt>
<wgt id='morphing_basis_vector_2'> +2.8876641e-07 </wgt>
<wgt id='morphing_basis_vector_3'> +2.9663351e-07 </wgt>
<wgt id='morphing_basis_vector_4'> +3.1696117e-08 </wgt>
<wgt id='morphing_basis_vector_5'> +2.2876246e-07 </wgt>
</rwgt>
</event>
<event>
 4      1 +6.9060000e-13 7.10744000e+03 7.81860800e-03 7.15134400e-02
        2 -1    0    0  501    0 +0.0000000000e+00 +0.0000000000e+00 +3.6520111053e+03 3.6520111053e+03 0.0000000000e+00 0.0000e+00 1.0000e+00
       -2 -1    0    0    0  501 -0.0000000000e+00 -0.0000000000e+00 -3.4580745324e+03 3.4580745324e+03 0.0000000000e+00 0.0000e+00 -1.0000e+00
      -13  1    1    2    0    0 -3.0788609137e+03 -5.2215019325e+02 -1.5998060762e+03 3.5087611534e+03 0.0000000000e+00 0.0000e+00 -1.0000e+00
       13  1    1    2    0    0 +3.0788609137e+03 +5.2215019325e+02 +1.7937426490e+03 3.6013244843e+03 0.0000000000e+00 0.0000e+00 1.0000e+00
<mgrwt>
<rscale>  0 0.71074402E+04</rscale>
<asrwt>0</asrwt>
<pdfrwt beam="1">  1        2 0.56184786E+00 0.71074402E+04</pdfrwt>
<pdfrwt beam="2">  1       -2 0.53201147E+00 0.71074402E+04</pdfrwt>
<totfact> 0.27932051E-04</totfact>
</mgrwt>
<rwgt>
<wgt id='morphing_basis_vector_1'> +2.3902021e-07 </wgt>
<wgt id='morphing_basis_vector_2'> +1.6533895e-07 </wgt>
<wgt id='morphing_basis_vector_3'> +2.6474264e-07 </wgt>
<wgt id='morphing_basis_vector_4'> +1.8804639e-07 </wgt>
<wgt id='morphing_basis_vector_5'> +3.0372029e-07 </wgt>
</rwgt>
</event>
<event>
 4      1 +6.9060000e-13 6.69545100e+03 7.81860800e-03 7.18986300e-02
        2 -1    0    0  501    0 +0.0000000000e+00 +0.0000000000e+00 +2.6234533033e+03 2.6234533033e+03 0.0000000000e+00 0.0000e+00 1.0000e+00
       -2 -1    0    0    0  501 -0.0000000000e+00 -0.0000000000e+00 -4.2719516798e+03 4.2719516798e+03 0.0000000000e+00 0.0000e+00 -1.0000e+00
      -13  1    1    2    0    0 +4.9678803119e+02 +2.0933937931e+03 -3.4656389389e+03 4.0791848666e+03 0.0000000000e+00 0.0000e+00 -1.0000e+00
       13  1    1    2    0    0 -4.9678803119e+02 -2.0933937931e+03 +1.8171405624e+03 2.8162201165e+03 0.0000000000e+00 0.0000e+00 1.0000e+00
<mgrwt>
<rscale>  0 0.66954509E+04</rscale>
<asrwt>0</asrwt>
<pdfrwt beam="1">  1        2 0.40360821E+00 0.66954509E+04</pdfrwt>
<pdfrwt beam="2">  1       -2 0.65722333E+00 0.66954509E+04</pdfrwt>
<totfact> 0.67856151E-05</totfact>
</mgrwt>
<rwgt>
<wgt id='morphing_basis_vector_1'> +1.8750107e-07 </wgt>
<wgt id='morphing_basis_vector_2'> +1.2784819e-07 </wgt>
<wgt id='morphing_basis_vector_3'> +2.0716713e-07 </wgt>
<wgt id='morphing_basis_vector_4'> +1.4977457e-07 </wgt>
<wgt id='morphing_basis_vector_5'> +2.3924011e-07 </wgt>
</rwgt>
</event>
<event>
 4      1 +6.9060000e-13 7.00139600e+03 7.81860800e-03 7.16100200e-02
        2 -1    0    0  501    0 +0.0000000000e+00 +0.0000000000e+00 +5.0572467138e+03 5.0572467138e+03 0.0000000000e+00 0.0000e+00 1.0000e+00
       -2 -1    0    0    0  501 -0.0000000000e+00 -0.0000000000e+00 -2.4232330722e+03 2.4232330722e+03 0.0000000000e+00 0.0000e+00 -1.0000e+00
      -13  1    1    2    0    0 -1.8152794229e+03 +9.4027448368e+02 -1.7191931035e+03 2.6711384118e+03 0.0000000000e+00 0.0000e+00 -1.0000e+00
       13  1    1    2    0    0 +1.8152794229e+03 -9.4027448368e+02 +4.3532067451e+03 4.8093413742e+03 0.0000000000e+00 0.0000e+00 1.0000e+00
<mgrwt>
<rscale>  0 0.70013963E+04</rscale>
<asrwt>0</asrwt>
<pdfrwt beam="1">  1        2 0.77803796E+00 0.70013963E+04</pdfrwt>
<pdfrwt beam="2">  1       -2 0.37280509E+00 0.70013963E+04</pdfrwt>
<totfact> 0.14098588E-04</totfact>
</mgrwt>
<rwgt>
<wgt id='morphing_basis_vector_1'> +2.2406164e-07 </wgt>
<wgt id='morphing_basis_vector_2'> +1.5266767e-07 </wgt>
<wgt id='morphing_basis_vector_3'> +2.4760233e-07 </wgt>
<wgt id='morphing_basis_vector_4'> +1.7926908e-07 </wgt>
<wgt id='morphing_basis_vector_5'> +2.8615497e-07 </wgt>
</rwgt>
</event>
<event>
 4      1 +6.9060000e-13 6.81501300e+03 7.81860800e-03 7.17840200e-02
        2 -1    0    0  501    0 +0.0000000000e+00 +0.0000000000e+00 +4.0430213319e+03 4.0430213319e+03 0.0000000000e+00 0.0000e+00 1.0000e+00
       -2 -1    0    0    0  501 -0.0000000000e+00 -0.0000000000e+00 -2.8718871446e+03 2.8718871446e+03 0.0000000000e+00 0.0000e+00 -1.0000e+00
      -13  1    1    2    0    0 +1.5221535239e+02 -3.3863567451e+03 +2.3331924793e+02 3.3977962550e+03 0.0000000000e+00 0.0000e+00 1.0000e+00
       13  1    1    2    0    0 -1.5221535239e+02 +3.3863567451e+03 +9.3781493941e+02 3.5171122216e+03 0.0000000000e+00 0.0000e+00 -1.0000e+00
<mgrwt>
<rscale>  0 0.68150131E+04</rscale>
<asrwt>0</asrwt>
<pdfrwt beam="1">  1        2 0.62200328E+00 0.68150131E+04</pdfrwt>
<pdfrwt beam="2">  1       -2 0.44182879E+00 0.68150131E+04</pdfrwt>
<totfact> 0.62625680E-04</totfact>
</mgrwt>
<rwgt>
<wgt id='morphing_basis_vector_1'> +2.0617716e-07 </wgt>
<wgt id='morphing_basis_vector_2'> +1.5173384e-07 </wgt>
<wgt id='morphing_basis_vector_3'> +2.3046518e-07 </wgt>
<wgt id='morphing_basis_vector_4'> +1.5018104e-07 </wgt>
<wgt id='morphing_basis_vector_5'> +2.5593032e-07 </wgt>
</rwgt>
</event>
<event>
 4      1 +6.9060000e-13 7.22474900e+03 7.81860800e-03 7.14085600e-02
        2 -1    0    0  501    0 +0.0000000000e+00 +0.0000000000e+00 +5.0303656374e+03 5.0303656374e+03 0.0000000000e+00 0.0000e+00 1.0000e+00
       -2 -1    0    0    0  501 -0.0000000000e+00 -0.0000000000e+00 -2.5940952861e+03 2.5940952861e+03 0.0000000000e+00 0.0000e+00 -1.0000e+00
      -13  1    1    2    0    0 +3.3934279688e+03 +1.0792534201e+03 +5.7698135701e+02 3.6073603661e+03 0.0000000000e+00 0.0000e+00 1.0000e+00
       13  1    1    2    0    0 -3.3934279688e+03 -1.0792534201e+03 +1.8592889943e+03 4.0171005575e+03 0.0000000000e+00 0.0000e+00 -1.0000e+00
<mgrwt>
<rscale>  0 0.72247485E+04</rscale>
<asrwt>0</asrwt>
<pdfrwt beam="1">  1        2 0.77390240E+00 0.72247485E+04</pdfrwt>
<pdfrwt beam="2">  1       -2 0.39909158E+00 0.72247485E+04</pdfrwt>
<totfact> 0.10201911E-04</totfact>
</mgrwt>
<rwgt>
<wgt id='morphing_basis_vector_1'> +2.5887170e-07 </wgt>
<wgt id='morphing_basis_vector_2'> +1.8738587e-07 </wgt>
<wgt id='morphing_basis_vector_3'> +2.8872988e-07 </wgt>
<wgt id='morphing_basis_vector_4'> +1.9284808e-07 </wgt>
<wgt id='morphing_basis_vector_5'> +3.2363678e-07 </wgt>
</rwgt>
</event>
<event>
 4      1 +6.9060000e-13 7.19671200e+03 7.81860800e-03 7.14334400e-02
        2 -1    0    0  501    0 +0.0000000000e+00 +0.0000000000e+00 +2.2716080638e+03 2.2716080638e+03 0.0000000000e+00 0.0000e+00 -1.0000e+00
       -2 -1    0    0    0  501 -0.0000000000e+00 -0.0000000000e+00 -5.7000001884e+03 5.7000001884e+03 0.0000000000e+00 0.0000e+00 1.0000e+00
      -13  1    1    2    0    0 +3.5384965697e+03 +6.5057085458e+02 -1.6444391703e+03 3.9558034071e+03 0.0000000000e+00 0.0000e+00 1.0000e+00
       13  1    1    2    0    0 -3.5384965697e+03 -6.5057085458e+02 -1.7839529544e+03 4.0158048451e+03 0.0000000000e+00 0.0000e+00 -1.0000e+00
<mgrwt>
<rscale>  0 0.71967121E+04</rscale>
<asrwt>0</asrwt>
<pdfrwt beam="1">  1        2 0.34947817E+00 0.71967121E+04</pdfrwt>
<pdfrwt beam="2">  1       -2 0.87692310E+00 0.71967121E+04</pdfrwt>
<totfact> 0.12505251E-04</totfact>
</mgrwt>
<rwgt>
<wgt id='morphing_basis_vector_1'> +2.5977872e-07 </wgt>
<wgt id='morphing_basis_vector_2'> +1.9886093e-07 </wgt>
<wgt id='morphing_basis_vector_3'> +2.9230216e-07 </wgt>
<wgt id='morphing_basis_vector_4'> +1.7936623e-07 </wgt>
<wgt id='morphing_basis_vector_5'> +3.1774948e-07 </wgt>
</rwgt>
</event>
<event>
 4      1 +6.9060000e-13 7.20679000e+03 7.81860800e-03 7.14244800e-02
        2 -1    0    0  501    0 +0.0000000000e+00 +0.0000000000e+00 +5.1554157106e+03 5.1554157106e+03 0.0000000000e+00 0.0000e+00 -1.0000e+00
       -2 -1    0    0    0  501 -0.0000000000e+00 -0.0000000000e+00 -2.5186047682e+03 2.5186047682e+03 0.0000000000e+00 0.0000e+00 1.0000e+00
      -13  1    1    2    0    0 -2.7048706860e+03 +4.2383248363e+02 -1.1762337500e+03 2.9798465123e+03 0.0000000000e+00 0.0000e+00 1.0000e+00
       13  1    1    2    0    0 +2.7048706860e+03 -4.2383248363e+02 +3.8130446924e+03 4.6941739666e+03 0.0000000000e+00 0.0000e+00 -1.0000e+00
<mgrwt>
<rscale>  0 0.72067897E+04</rscale>
<asrwt>0</asrwt>
<pdfrwt beam="1">  1        2 0.79314088E+00 0.72067897E+04</pdfrwt>
<pdfrwt beam="2">  1       -2 0.38747766E+00 0.72067897E+04</pdfrwt>
<totfact> 0.80939814E-05</totfact>
</mgrwt>
<rwgt>
<wgt id='morphing_basis_vector_1'> +2.5183523e-07 </wgt>
<wgt id='morphing_basis_vector_2'> +1.7239730e-07 </wgt>
<wgt id='morphing_basis_vector_3'> +2.7852958e-07 </wgt>
<wgt id='morphing_basis_vector_4'> +2.0053648e-07 </wgt>
<wgt id='morphing_basis_vector_5'> +3.2123552e-07 </wgt>
</rwgt>
</event>
<event>
 4      1 +6.9060000e-13 6.83611800e+03 7.81860800e-03 7.17640400e-02
        2 -1    0    0  501    0 +0.0000000000e+00 +0.0000000000e+00 +3.1585890034e+03 3.1585890034e+03 0.0000000000e+00 0.0000e+00 -1.0000e+00
       -2 -1    0    0    0  501 -0.0000000000e+00 -0.0000000000e+00 -3.6988440040e+03 3.6988440040e+03 0.0000000000e+00 0.0000e+00 1.0000e+00
      -13  1    1    2    0    0 +2.2530217771e+03 +1.5586920357e+03 -2.3203936436e+03 3.5902443721e+03 0.0000000000e+00 0.0000e+00 1.0000e+00
       13  1    1    2    0    0 -2.2530217771e+03 -1.5586920357e+03 +1.7801386429e+03 3.2671886353e+03 0.0000000000e+00 0.0000e+00 -1.0000e+00
<mgrwt>
<rscale>  0 0.68361182E+04</rscale>
<asrwt>0</asrwt>
<pdfrwt beam="1">  1        2 0.48593677E+00 0.68361182E+04</pdfrwt>
<pdfrwt beam="2">  1       -2 0.56905292E+00 0.68361182E+04</pdfrwt>
<totfact> 0.34783877E-04</totfact>
</mgrwt>
<rwgt>
<wgt id='morphing_basis_vector_1'> +2.0410885e-07 </wgt>
<wgt id='morphing_basis_vector_2'> +1.4003534e-07 </wgt>
<wgt id='morphing_basis_vector_3'> +2.2574967e-07 </wgt>
<wgt id='morphing_basis_vector_4'> +1.6197708e-07 </wgt>
<wgt id='morphing_basis_vector_5'> +2.5995698e-07 </wgt>
</rwgt>
</event>
<event>
 4      1 +6.9060000e-13 6.75428000e+03 7.81860800e-03 7.18419400e-02
        2 -1    0    0  501    0 +0.0000000000e+00 +0.0000000000e+00 +3.7660412093e+03 3.7660412093e+03 0.0000000000e+00 0.0000e+00 -1.0000e+00
       -2 -1    0    0    0  501 -0.0000000000e+00 -0.0000000000e+00 -3.0283989594e+03 3.0283989594e+03 0.0000000000e+00 0.0000e+00 1.0000e+00
      -13  1    1    2    0    0 +2.2361407097e+02 -1.5394714008e+03 -2.6465172742e+03 3.0698581611e+03 0.0000000000e+00 0.0000e+00 1.0000e+00
       13  1    1    2    0    0 -2.2361407097e+02 +1.5394714008e+03 +3.3841595241e+03 3.7245820076e+03 0.0000000000e+00 0.0000e+00 -1.0000e+00
<mgrwt>
<rscale>  0 0.67542802E+04</rscale>
<asrwt>0</asrwt>
<pdfrwt beam="1">  1        2 0.57939096E+00 0.67542802E+04</pdfrwt>
<pdfrwt beam="2">  1       -2 0.46590753E+00 0.67542802E+04</pdfrwt>
<totfact> 0.72177129E-04</totfact>
</mgrwt>
<rwgt>
<wgt id='morphing_basis_vector_1'> +1.9405524e-07 </wgt>
<wgt id='morphing_basis_vector_2'> +1.3207289e-07 </wgt>
<wgt id='morphing_basis_vector_3'> +2.1436254e-07 </wgt>
<wgt id='morphing_basis_vector_4'> +1.5535488e-07 </wgt>
<wgt id='morphing_basis_vector_5'> +2.4779504e-07 </wgt>
</rwgt>
</event>
<event>
 4      1 +6.9060000e-13 6.82289900e+03 7.81860800e-03 7.17765400e-02
        2 -1    0    0  501    0 +0.0000000000e+00 +0.0000000000e+00 +2.0405630490e+03 2.0405630490e+03 0.0000000000e+00 0.0000e+00 1.0000e+00
       -2 -1    0    0    0  501 -0.0000000000e+00 -0.0000000000e+00 -5.7033217818e+03 5.7033217818e+03 0.0000000000e+00 0.0000e+00 -1.0000e+00
      -13  1    1    2    0    0 +3.0304384284e+03 +1.1023272681e+03 -5.6786821045e+02 3.2743177578e+03 0.0000000000e+00 0.0000e+00 -1.0000e+00
       13  1    1    2    0    0 -3.0304384284e+03 -1.1023272681e+03 -3.0948905223e+03 4.4695670730e+03 0.0000000000e+00 0.0000e+00 1.0000e+00
<mgrwt>
<rscale>  0 0.68228990E+04</rscale>
<asrwt>0</asrwt>
<pdfrwt beam="1">  1        2 0.31393277E+00 0.68228990E+04</pdfrwt>
<pdfrwt beam="2">  1       -2 0.87743413E+00 0.68228990E+04</pdfrwt>
<totfact> 0.17198746E-04</totfact>
</mgrwt>
<rwgt>
<wgt id='morphing_basis_vector_1'> +2.2445324e-07 </wgt>
<wgt id='morphing_basis_vector_2'> +2.0326619e-07 </wgt>
<wgt id='morphing_basis_vector_3'> +2.5990713e-07 </wgt>
<wgt id='morphing_basis_vector_4'> +1.1374918e-07 </wgt>
<wgt id='morphing_basis_vector_5'> +2.5399057e-07 </wgt>
</rwgt>
</event>
<event>
 4      1 +6.9060000e-13 6.78097000e+03 7.81860800e-03 7.18164100e-02
        2 -1    0    0  501    0 +0.0000000000e+00 +0.0000000000e+00 +3.5793516407e+03 3.5793516407e+03 0.0000000000e+00 0.0000e+00 1.0000e+00
       -2 -1    0    0    0  501 -0.0000000000e+00 -0.0000000000e+00 -3.2115839647e+03 3.2115839647e+03 0.0000000000e+00 0.0000e+00 -1.0000e+00
      -13  1    1    2    0    0 +2.3688257749e+03 +2.3357496017e+03 -4.7154463804e+02 3.3599726337e+03 0.0000000000e+00 0.0000e+00 -1.0000e+00
       13  1    1    2    0    0 -2.3688257749e+03 -2.3357496017e+03 +8.3931231403e+02 3.4309629718e+03 0.0000000000e+00 0.0000e+00 1.0000e+00
<mgrwt>
<rscale>  0 0.67809699E+04</rscale>
<asrwt>0</asrwt>
<pdfrwt beam="1">  1        2 0.55066948E+00 0.67809699E+04</pdfrwt>
<pdfrwt beam="2">  1       -2 0.49408984E+00 0.67809699E+04</pdfrwt>
<totfact> 0.62145280E-04</totfact>
</mgrwt>
<rwgt>
<wgt id='morphing_basis_vector_1'> +2.0061679e-07 </wgt>
<wgt id='morphing_basis_vector_2'> +1.4438810e-07 </wgt>
<wgt id='morphing_basis_vector_3'> +2.2347274e-07 </wgt>
<wgt id='morphing_basis_vector_4'> +1.5036696e-07 </wgt>
<wgt id='morphing_basis_vector_5'> +2.5111315e-07 </wgt>
</rwgt>
</event>
<event>
 4      1 +6.9060000e-13 6.70985100e+03 7.81860800e-03 7.18847000e-02
        2 -1    0    0  501    0 +0.0000000000e+00 +0.0000000000e+00 +4.8770305710e+03 4.8770305710e+03 0.0000000000e+00 0.0000e+00 -1.0000e+00
       -2 -1    0    0    0  501 -0.0000000000e+00 -0.0000000000e+00 -2.3078642665e+03 2.3078642665e+03 0.0000000000e+00 0.0000e+00 1.0000e+00
      -13  1    1    2    0    0 +1.6173254450e+03 -2.4608980474e+03 -4.3662721540e+02 2.9769790258e+03 0.0000000000e+00 0.0000e+00 1.0000e+00
       13  1    1    2    0    0 -1.6173254450e+03 +2.4608980474e+03 +3.0057935199e+03 4.2079158118e+03 0.0000000000e+00 0.0000e+00 -1.0000e+00
<mgrwt>
<rscale>  0 0.67098508E+04</rscale>
<asrwt>0</asrwt>
<pdfrwt beam="1">  1        2 0.75031239E+00 0.67098508E+04</pdfrwt>
<pdfrwt beam="2">  1       -2 0.35505604E+00 0.67098508E+04</pdfrwt>
<totfact> 0.32295433E-04</totfact>
</mgrwt>
<rwgt>
<wgt id='morphing_basis_vector_1'> +1.8992641e-07 </wgt>
<wgt id='morphing_basis_vector_2'> +1.3132796e-07 </wgt>
<wgt id='morphing_basis_vector_3'> +2.1028132e-07 </wgt>
<wgt id='morphing_basis_vector_4'> +1.4933347e-07 </wgt>
<wgt id='morphing_basis_vector_5'> +2.4116231e-07 </wgt>
</rwgt>
</event>
<event>
 4      1 +6.9060000e-13 7.09141200e+03 7.81860800e-03 7.15279200e-02
        2 -1    0    0  501    0 +0.0000000000e+00 +0.0000000000e+00 +4.2078821158e+03 4.2078821158e+03 0.0000000000e+00 0.0000e+00 1.0000e+00
       -2 -1    0    0    0  501 -0.0000000000e+00 -0.0000000000e+00 -2.9877340243e+03 2.9877340243e+03 0.0000000000e+00 0.0000e+00 -1.0000e+00
      -13  1    1    2    0    0 -2.2499764592e+03 -4.6012082508e+01 -2.1701739222e+03 3.1263662663e+03 0.0000000000e+00 0.0000e+00 -1.0000e+00
       13  1    1    2    0    0 +2.2499764592e+03 +4.6012082508e+01 +3.3903220136e+03 4.0692498738e+03 0.0000000000e+00 0.0000e+00 1.0000e+00
<mgrwt>
<rscale>  0 0.70914124E+04</rscale>
<asrwt>0</asrwt>
<pdfrwt beam="1">  1        2 0.64736648E+00 0.70914124E+04</pdfrwt>
<pdfrwt beam="2">  1       -2 0.45965139E+00 0.70914124E+04</pdfrwt>
<totfact> 0.32840301E-04</totfact>
</mgrwt>
<rwgt>
<wgt id='morphing_basis_vector_1'> +2.3584290e-07 </wgt>
<wgt id='morphing_basis_vector_2'> +1.6082529e-07 </wgt>
<wgt id='morphing_basis_vector_3'> +2.6067096e-07 </wgt>
<wgt id='morphing_basis_vector_4'> +1.8856666e-07 </wgt>
<wgt id='morphing_basis_vector_5'> +3.0117221e-07 </wgt>
</rwgt>
</event>
<event>
 4      1 +6.9060000e-13 7.49467400e+03 7.81860800e-03 7.11746500e-02
        2 -1    0    0  501    0 +0.0000000000e+00 +0.0000000000e+00 +3.8666953837e+03 3.8666953837e+03 0.0000000000e+00 0.0000e+00 1.0000e+00
       -2 -1    0    0    0  501 -0.0000000000e+00 -0.0000000000e+00 -3.6316626207e+03 3.6316626207e+03 0.0000000000e+00 0.0000e+00 -1.0000e+00
      -13  1    1    2    0    0 -2.5506162408e+03 +1.0959458394e+03 -2.4008210705e+03 3.6702428125e+03 0.0000000000e+00 0.0000e+00 -1.0000e+00
       13  1    1    2    0    0 +2.5506162408e+03 -1.0959458394e+03 +2.6358538334e+03 3.8281151918e+03 0.0000000000e+00 0.0000e+00 1.0000e+00
<mgrwt>
<rscale>  0 0.74946736E+04</rscale>
<asrwt>0</asrwt>
<pdfrwt beam="1">  1        2 0.59487621E+00 0.74946736E+04</pdfrwt>
<pdfrwt beam="2">  1       -2 0.55871733E+00 0.74946736E+04</pdfrwt>
<totfact> 0.11822296E-04</totfact>
</mgrwt>
<rwgt>
<wgt id='morphing_basis_vector_1'> +2.9440432e-07 </wgt>
<wgt id='morphing_basis_vector_2'> +2.0139671e-07 </wgt>
<wgt id='morphing_basis_vector_3'> +3.2564349e-07 </wgt>
<wgt id='morphing_basis_vector_4'> +2.3476652e-07 </wgt>
<wgt id='morphing_basis_vector_5'> +3.7582238e-07 </wgt>
</rwgt>
</event>
<event>
 4      1 +6.9060000e-13 6.86743800e+03 7.81860800e-03 7.17345200e-02
        2 -1    0    0  501    0 +0.0000000000e+00 +0.0000000000e+00 +3.9098670044e+03 3.9098670044e+03 0.0000000000e+00 0.0000e+00 -1.0000e+00
       -2 -1    0    0    0  501 -0.0000000000e+00 -0.0000000000e+00 -3.0155566419e+03 3.0155566419e+03 0.0000000000e+00 0.0000e+00 1.0000e+00
      -13  1    1    2    0    0 +3.3555483999e+03 +7.1748637950e+02 +3.1986081492e+02 3.4462737427e+03 0.0000000000e+00 0.0000e+00 1.0000e+00
       13  1    1    2    0    0 -3.3555483999e+03 -7.1748637950e+02 +5.7444954762e+02 3.4791499036e+03 0.0000000000e+00 0.0000e+00 -1.0000e+00
<mgrwt>
<rscale>  0 0.68674378E+04</rscale>
<asrwt>0</asrwt>
<pdfrwt beam="1">  1        2 0.60151800E+00 0.68674378E+04</pdfrwt>
<pdfrwt beam="2">  1       -2 0.46393179E+00 0.68674378E+04</pdfrwt>
<totfact> 0.56580751E-04</totfact>
</mgrwt>
<rwgt>
<wgt id='morphing_basis_vector_1'> +2.1401772e-07 </wgt>
<wgt id='morphing_basis_vector_2'> +1.6066177e-07 </wgt>
<wgt id='morphing_basis_vector_3'> +2.3998882e-07 </wgt>
<wgt id='morphing_basis_vector_4'> +1.5178876e-07 </wgt>
<wgt id='morphing_basis_vector_5'> +2.6365117e-07 </wgt>
</rwgt>
</event>
<event>
 4      1 +6.9060000e-13 6.78011600e+03 7.81860800e-03 7.18172200e-02
        2 -1    0    0  501    0 +0.0000000000e+00 +0.0000000000e+00 +2.4454648932e+03 2.4454648932e+03 0.0000000000e+00 0.0000e+00 -1.0000e+00
       -2 -1    0    0    0  501 -0.0000000000e+00 -0.0000000000e+00 -4.6995120503e+03 4.6995120503e+03 0.0000000000e+00 0.0000e+00 1.0000e+00
      -13  1    1    2    0    0 +1.6375476564e+03 -6.0389251918e+02 -4.1896605996e+03 4.5386676946e+03 0.0000000000e+00 0.0000e+00 1.0000e+00
       13  1    1    2    0    0 -1.6375476564e+03 +6.0389251918e+02 +1.9356134425e+03 2.6063092489e+03 0.0000000000e+00 0.0000e+00 -1.0000e+00
<mgrwt>
<rscale>  0 0.67801156E+04</rscale>
<asrwt>0</asrwt>
<pdfrwt beam="1">  1        2 0.37622537E+00 0.67801156E+04</pdfrwt>
<pdfrwt beam="2">  1       -2 0.72300186E+00 0.67801156E+04</pdfrwt>
<totfact> 0.16026440E-04</totfact>
</mgrwt>
<rwgt>
<wgt id='morphing_basis_vector_1'> +1.9705495e-07 </wgt>
<wgt id='morphing_basis_vector_2'> +1.3415949e-07 </wgt>
<wgt id='morphing_basis_vector_3'> +2.1769187e-07 </wgt>
<wgt id='morphing_basis_vector_4'> +1.5770891e-07 </wgt>
<wgt id='morphing_basis_vector_5'> +2.5161136e-07 </wgt>
</rwgt>
</event>
<event>
 4      1 +6.9060000e-13 6.95319100e+03 7.81860800e-03 7.16544900e-02
        2 -1    0    0  501    0 +0.0000000000e+00 +0.0000000000e+00 +2.2746867035e+03 2.2746867035e+03 0.0000000000e+00 0.0000e+00 1.0000e+00
       -2 -1    0    0    0  501 -0.0000000000e+00 -0.0000000000e+00 -5.3135734574e+03 5.3135734574e+03 0.0000000000e+00 0.0000e+00 -1.0000e+00
      -13  1    1    2    0    0 +4.3503777615e+02 -2.1771120090e+03 +1.4002887802e+03 2.6248587075e+03 0.0000000000e+00 0.0000e+00 1.0000e+00
       13  1    1    2    0    0 -4.3503777615e+02 +2.1771120090e+03 -4.4391755340e+03 4.9634014535e+03 0.0000000000e+00 0.0000e+00 -1.0000e+00
<mgrwt>
<rscale>  0 0.69531906E+04</rscale>
<asrwt>0</asrwt>
<pdfrwt beam="1">  1        2 0.34995180E+00 0.69531906E+04</pdfrwt>
<pdfrwt beam="2">  1       -2 0.81747284E+00 0.69531906E+04</pdfrwt>
<totfact> 0.31852147E-04</totfact>
</mgrwt>
<rwgt>
<wgt id='morphing_basis_vector_1'> +2.8793187e-07 </wgt>
<wgt id='morphing_basis_vector_2'> +3.5381571e-07 </wgt>
<wgt id='morphing_basis_vector_3'> +3.5550743e-07 </wgt>
<wgt id='morphing_basis_vector_4'> +2.4361053e-08 </wgt>
<wgt id='morphing_basis_vector_5'> +2.6570015e-07 </wgt>
</rwgt>
</event>
<event>
 4      1 +6.9060000e-13 7.11146700e+03 7.81860800e-03 7.15098000e-02
        2 -1    0    0  501    0 +0.0000000000e+00 +0.0000000000e+00 +4.3270174114e+03 4.3270174114e+03 0.0000000000e+00 0.0000e+00 -1.0000e+00
       -2 -1    0    0    0  501 -0.0000000000e+00 -0.0000000000e+00 -2.9219294380e+03 2.9219294380e+03 0.0000000000e+00 0.0000e+00 1.0000e+00
      -13  1    1    2    0    0 +2.7711010688e+03 +2.1431535644e+03 +8.1561316224e+01 3.5041062458e+03 0.0000000000e+00 0.0000e+00 1.0000e+00
       13  1    1    2    0    0 -2.7711010688e+03 -2.1431535644e+03 +1.3235266572e+03 3.7448406036e+03 0.0000000000e+00 0.0000e+00 -1.0000e+00
<mgrwt>
<rscale>  0 0.71114667E+04</rscale>
<asrwt>0</asrwt>
<pdfrwt beam="1">  1        2 0.66569499E+00 0.71114667E+04</pdfrwt>
<pdfrwt beam="2">  1       -2 0.44952761E+00 0.71114667E+04</pdfrwt>
<totfact> 0.29842912E-04</totfact>
</mgrwt>
<rwgt>
<wgt id='morphing_basis_vector_1'> +2.4298087e-07 </wgt>
<wgt id='morphing_basis_vector_2'> +1.7574706e-07 </wgt>
<wgt id='morphing_basis_vector_3'> +2.7094892e-07 </wgt>
<wgt id='morphing_basis_vector_4'> +1.8113988e-07 </wgt>
<wgt id='morphing_basis_vector_5'> +3.0379200e-07 </wgt>
</rwgt>
</event>
<event>
 4      1 +6.9060000e-13 6.98350600e+03 7.81860800e-03 7.16264800e-02
        2 -1    0    0  501    0 +0.0000000000e+00 +0.0000000000e+00 +2.3878831979e+03 2.3878831979e+03 0.0000000000e+00 0.0000e+00 1.0000e+00
       -2 -1    0    0    0  501 -0.0000000000e+00 -0.0000000000e+00 -5.1059187089e+03 5.1059187089e+03 0.0000000000e+00 0.0000e+00 -1.0000e+00
      -13  1    1    2    0    0 -1.8490596345e+03 -2.7816876495e+03 -2.4509860337e+03 4.1429627381e+03 0.0000000000e+00 0.0000e+00 -1.0000e+00
       13  1    1    2    0    0 +1.8490596345e+03 +2.7816876495e+03 -2.6704947737e+02 3.3508391688e+03 0.0000000000e+00 0.0000e+00 1.0000e+00
<mgrwt>
<rscale>  0 0.69835056E+04</rscale>
<asrwt>0</asrwt>
<pdfrwt beam="1">  1        2 0.36736665E+00 0.69835056E+04</pdfrwt>
<pdfrwt beam="2">  1       -2 0.78552596E+00 0.69835056E+04</pdfrwt>
<totfact> 0.31831092E-04</totfact>
</mgrwt>
<rwgt>
<wgt id='morphing_basis_vector_1'> +2.2432742e-07 </wgt>
<wgt id='morphing_basis_vector_2'> +1.5857723e-07 </wgt>
<wgt id='morphing_basis_vector_3'> +2.4924961e-07 </wgt>
<wgt id='morphing_basis_vector_4'> +1.7198740e-07 </wgt>
<wgt id='morphing_basis_vector_5'> +2.8277700e-07 </wgt>
</rwgt>
</event>
<event>
 4      1 +6.9060000e-13 6.76916800e+03 7.81860800e-03 7.18276800e-02
        2 -1    0    0  501    0 +0.0000000000e+00 +0.0000000000e+00 +2.8496566347e+03 2.8496566347e+03 0.0000000000e+00 0.0000e+00 -1.0000e+00
       -2 -1    0    0    0  501 -0.0000000000e+00 -0.0000000000e+00 -4.0199254570e+03 4.0199254570e+03 0.0000000000e+00 0.0000e+00 1.0000e+00
      -13  1    1    2    0    0 +1.4591426941e+03 +2.5922586260e+02 -3.6731516736e+03 3.9608507503e+03 0.0000000000e+00 0.0000e+00 1.0000e+00
       13  1    1    2    0    0 -1.4591426941e+03 -2.5922586260e+02 +2.5028828512e+03 2.9087313414e+03 0.0000000000e+00 0.0000e+00 -1.0000e+00
<mgrwt>
<rscale>  0 0.67691675E+04</rscale>
<asrwt>0</asrwt>
<pdfrwt beam="1">  1        2 0.43840871E+00 0.67691675E+04</pdfrwt>
<pdfrwt beam="2">  1       -2 0.61845007E+00 0.67691675E+04</pdfrwt>
<totfact> 0.19822618E-04</totfact>
</mgrwt>
<rwgt>
<wgt id='morphing_basis_vector_1'> +1.9576293e-07 </wgt>
<wgt id='morphing_basis_vector_2'> +1.3322345e-07 </wgt>
<wgt id='morphing_basis_vector_3'> +2.1624908e-07 </wgt>
<wgt id='morphing_basis_vector_4'> +1.5674378e-07 </wgt>
<wgt id='morphing_basis_vector_5'> +2.4999181e-07 </wgt>
</rwgt>
</event>
<event>
 4      1 +6.9060000e-13 7.09860900e+03 7.81860800e-03 7.15214100e-02
        2 -1    0    0  501    0 +0.0000000000e+00 +0.0000000000e+00 +3.9321635384e+03 3.9321635384e+03 0.0000000000e+00 0.0000e+00 -1.0000e+00
       -2 -1    0    0    0  501 -0.0000000000e+00 -0.0000000000e+00 -3.2037229068e+03 3.2037229068e+03 0.0000000000e+00 0.0000e+00 1.0000e+00
      -13  1    1    2    0    0 -1.3842982044e+03 -1.9741369776e+02 -2.9151661655e+03 3.2331791567e+03 0.0000000000e+00 0.0000e+00 1.0000e+00
       13  1    1    2    0    0 +1.3842982044e+03 +1.9741369776e+02 +3.6436067972e+03 3.9027072885e+03 0.0000000000e+00 0.0000e+00 -1.0000e+00
<mgrwt>
<rscale>  0 0.70986090E+04</rscale>
<asrwt>0</asrwt>
<pdfrwt beam="1">  1        2 0.60494823E+00 0.70986090E+04</pdfrwt>
<pdfrwt beam="2">  1       -2 0.49288045E+00 0.70986090E+04</pdfrwt>
<totfact> 0.32643973E-04</totfact>
</mgrwt>
<rwgt>
<wgt id='morphing_basis_vector_1'> +2.3665863e-07 </wgt>
<wgt id='morphing_basis_vector_2'> +1.6106346e-07 </wgt>
<wgt id='morphing_basis_vector_3'> +2.6149861e-07 </wgt>
<wgt id='morphing_basis_vector_4'> +1.8963796e-07 </wgt>
<wgt id='morphing_basis_vector_5'> +3.0242414e-07 </wgt>
</rwgt>
</event>
<event>
 4      1 +6.9060000e-13 7.15615000e+03 7.81860800e-03 7.14696400e-02
        2 -1    0    0  501    0 +0.0000000000e+00 +0.0000000000e+00 +2.2321680430e+03 2.2321680430e+03 0.0000000000e+00 0.0000e+00 -1.0000e+00
       -2 -1    0    0    0  501 -0.0000000000e+00 -0.0000000000e+00 -5.7355094126e+03 5.7355094126e+03 0.0000000000e+00 0.0000e+00 1.0000e+00
      -13  1    1    2    0    0 -2.8188036255e+03 +1.2224869126e+03 -3.7933286251e+03 4.8815438325e+03 0.0000000000e+00 0.0000e+00 1.0000e+00
       13  1    1    2    0    0 +2.8188036255e+03 -1.2224869126e+03 +2.8998725557e+02 3.0861336230e+03 0.0000000000e+00 0.0000e+00 -1.0000e+00
<mgrwt>
<rscale>  0 0.71561500E+04</rscale>
<asrwt>0</asrwt>
<pdfrwt beam="1">  1        2 0.34341047E+00 0.71561500E+04</pdfrwt>
<pdfrwt beam="2">  1       -2 0.88238606E+00 0.71561500E+04</pdfrwt>
<totfact> 0.11643816E-04</totfact>
</mgrwt>
<rwgt>
<wgt id='morphing_basis_vector_1'> +2.4542178e-07 </wgt>
<wgt id='morphing_basis_vector_2'> +1.6930605e-07 </wgt>
<wgt id='morphing_basis_vector_3'> +2.7173410e-07 </wgt>
<wgt id='morphing_basis_vector_4'> +1.9370794e-07 </wgt>
<wgt id='morphing_basis_vector_5'> +3.1218308e-07 </wgt>
</rwgt>
</event>
<event>
 4      1 +6.9060000e-13 6.73906100e+03 7.81860800e-03 7.18565500e-02
        2 -1    0    0  501    0 +0.0000000000e+00 +0.0000000000e+00 +2.8888077020e+03 2.8888077020e+03 0.0000000000e+00 0.0000e+00 -1.0000e+00
       -2 -1    0    0    0  501 -0.0000000000e+00 -0.0000000000e+00 -3.9302494820e+03 3.9302494820e+03 0.0000000000e+00 0.0000e+00 1.0000e+00
      -13  1    1    2    0    0 +1.4237644875e+03 +1.1891774170e+03 -3.3670260351e+03 3.8442310760e+03 0.0000000000e+00 0.0000e+00 1.0000e+00
       13  1    1    2    0    0 -1.4237644875e+03 -1.1891774170e+03 +2.3255842550e+03 2.9748261079e+03 0.0000000000e+00 0.0000e+00 -1.0000e+00
<mgrwt>
<rscale>  0 0.67390608E+04</rscale>
<asrwt>0</asrwt>
<pdfrwt beam="1">  1        2 0.44443196E+00 0.67390608E+04</pdfrwt>
<pdfrwt beam="2">  1       -2 0.60465376E+00 0.67390608E+04</pdfrwt>
<totfact> 0.26647320E-04</totfact>
</mgrwt>
<rwgt>
<wgt id='morphing_basis_vector_1'> +1.9235101e-07 </wgt>
<wgt id='morphing_basis_vector_2'> +1.3099239e-07 </wgt>
<wgt id='morphing_basis_vector_3'> +2.1249581e-07 </wgt>
<wgt id='morphing_basis_vector_4'> +1.5388027e-07 </wgt>
<wgt id='morphing_basis_vector_5'> +2.4555883e-07 </wgt>
</rwgt>
</event>
<event>
 4      1 +6.9060000e-13 6.91791200e+03 7.81860800e-03 7.16872700e-02
        2 -1    0    0  501    0 +0.0000000000e+00 +0.0000000000e+00 +4.7766915195e+03 4.7766915195e+03 0.0000000000e+00 0.0000e+00 -1.0000e+00
       -2 -1    0    0    0  501 -0.0000000000e+00 -0.0000000000e+00 -2.5047411392e+03 2.5047411392e+03 0.0000000000e+00 0.0000e+00 1.0000e+00
      -13  1    1    2    0    0 -2.3728213132e+03 +2.5055970134e+03 +8.8672267404e+02 3.5629446359e+03 0.0000000000e+00 0.0000e+00 1.0000e+00
       13  1    1    2    0    0 +2.3728213132e+03 -2.5055970134e+03 +1.3852277063e+03 3.7184880229e+03 0.0000000000e+00 0.0000e+00 -1.0000e+00
<mgrwt>
<rscale>  0 0.69179118E+04</rscale>
<asrwt>0</asrwt>
<pdfrwt beam="1">  1        2 0.73487561E+00 0.69179118E+04</pdfrwt>
<pdfrwt beam="2">  1       -2 0.38534479E+00 0.69179118E+04</pdfrwt>
<totfact> 0.26878909E-04</totfact>
</mgrwt>
<rwgt>
<wgt id='morphing_basis_vector_1'> +2.1961010e-07 </wgt>
<wgt id='morphing_basis_vector_2'> +1.6320883e-07 </wgt>
<wgt id='morphing_basis_vector_3'> +2.4588073e-07 </wgt>
<wgt id='morphing_basis_vector_4'> +1.5793329e-07 </wgt>
<wgt id='morphing_basis_vector_5'> +2.7163823e-07 </wgt>
</rwgt>
</event>
<event>
 4      1 +6.9060000e-13 6.79998100e+03 7.81860800e-03 7.17983000e-02
        2 -1    0    0  501    0 +0.0000000000e+00 +0.0000000000e+00 +3.2967438772e+03 3.2967438772e+03 0.0000000000e+00 0.0000e+00 1.0000e+00
       -2 -1    0    0    0  501 -0.0000000000e+00 -0.0000000000e+00 -3.5064710822e+03 3.5064710822e+03 0.0000000000e+00 0.0000e+00 -1.0000e+00
      -13  1    1    2    0    0 -1.4803833578e+03 +2.3676681723e+03 +1.8357880229e+03 3.3417817292e+03 0.0000000000e+00 0.0000e+00 1.0000e+00
       13  1    1    2    0    0 +1.4803833578e+03 -2.3676681723e+03 -2.0455152278e+03 3.4614332303e+03 0.0000000000e+00 0.0000e+00 -1.0000e+00
<mgrwt>
<rscale>  0 0.67999815E+04</rscale>
<asrwt>0</asrwt>
<pdfrwt beam="1">  1        2 0.50719137E+00 0.67999815E+04</pdfrwt>
<pdfrwt beam="2">  1       -2 0.53945709E+00 0.67999815E+04</pdfrwt>
<totfact> 0.45820631E-04</totfact>
</mgrwt>
<rwgt>
<wgt id='morphing_basis_vector_1'> +2.4338220e-07 </wgt>
<wgt id='morphing_basis_vector_2'> +2.6488721e-07 </wgt>
<wgt id='morphing_basis_vector_3'> +2.9234074e-07 </wgt>
<wgt id='morphing_basis_vector_4'> +6.5233752e-08 </wgt>
<wgt id='morphing_basis_vector_5'> +2.4663033e-07 </wgt>
</rwgt>
</event>
<event>
 4      1 +6.9060000e-13 7.38461000e+03 7.81860800e-03 7.12688100e-02
        2 -1    0    0  501    0 +0.0000000000e+00 +0.0000000000e+00 +4.2209905623e+03 4.2209905623e+03 0.0000000000e+00 0.0000e+00 1.0000e+00
       -2 -1    0    0    0  501 -0.0000000000e+00 -0.0000000000e+00 -3.2298379691e+03 3.2298379691e+03 0.0000000000e+00 0.0000e+00 -1.0000e+00
      -13  1    1    2    0    0 -8.0421502487e+02 +3.0364129521e+03 -1.4625869405e+03 3.4649279907e+03 0.0000000000e+00 0.0000e+00 -1.0000e+00
       13  1    1    2    0    0 +8.0421502487e+02 -3.0364129521e+03 +2.4537395337e+03 3.9859005408e+03 0.0000000000e+00 0.0000e+00 1.0000e+00
<mgrwt>
<rscale>  0 0.73846098E+04</rscale>
<asrwt>0</asrwt>
<pdfrwt beam="1">  1        2 0.64938317E+00 0.73846098E+04</pdfrwt>
<pdfrwt beam="2">  1       -2 0.49689815E+00 0.73846098E+04</pdfrwt>
<totfact> 0.16645206E-04</totfact>
</mgrwt>
<rwgt>
<wgt id='morphing_basis_vector_1'> +2.7816073e-07 </wgt>
<wgt id='morphing_basis_vector_2'> +1.9173434e-07 </wgt>
<wgt id='morphing_basis_vector_3'> +3.0799766e-07 </wgt>
<wgt id='morphing_basis_vector_4'> +2.1986625e-07 </wgt>
<wgt id='morphing_basis_vector_5'> +3.5407989e-07 </wgt>
</rwgt>
</event>
<event>
 4      1 +6.9060000e-13 7.37023300e+03 7.81860800e-03 7.12812300e-02
        2 -1    0    0  501    0 +0.0000000000e+00 +0.0000000000e+00 +2.8510019997e+03 2.8510019997e+03 0.0000000000e+00 0.0000e+00 -1.0000e+00
       -2 -1    0    0    0  501 -0.0000000000e+00 -0.0000000000e+00 -4.7632663327e+03 4.7632663327e+03 0.0000000000e+00 0.0000e+00 1.0000e+00
      -13  1    1    2    0    0 -2.6098296540e+03 +6.2386374321e+02 -3.5655638248e+03 4.4624726534e+03 0.0000000000e+00 0.0000e+00 1.0000e+00
       13  1    1    2    0    0 +2.6098296540e+03 -6.2386374321e+02 +1.6532994918e+03 3.1517956791e+03 0.0000000000e+00 0.0000e+00 -1.0000e+00
<mgrwt>
<rscale>  0 0.73702325E+04</rscale>
<asrwt>0</asrwt>
<pdfrwt beam="1">  1        2 0.43861570E+00 0.73702325E+04</pdfrwt>
<pdfrwt beam="2">  1       -2 0.73281020E+00 0.73702325E+04</pdfrwt>
<totfact> 0.10965660E-04</totfact>
</mgrwt>
<rwgt>
<wgt id='morphing_basis_vector_1'> +2.7531878e-07 </wgt>
<wgt id='morphing_basis_vector_2'> +1.8823578e-07 </wgt>
<wgt id='morphing_basis_vector_3'> +3.0448201e-07 </wgt>
<wgt id='morphing_basis_vector_4'> +2.1962694e-07 </wgt>
<wgt id='morphing_basis_vector_5'> +3.5145047e-07 </wgt>
</rwgt>
</event>
<event>
 4      1 +6.9060000e-13 7.44874700e+03 7.81860800e-03 7.12137400e-02
        2 -1    0    0  501    0 +0.0000000000e+00 +0.0000000000e+00 +2.9123845740e+03 2.9123845740e+03 0.0000000000e+00 0.0000e+00 -1.0000e+00
       -2 -1    0    0    0  501 -0.0000000000e+00 -0.0000000000e+00 -4.7627495692e+03 4.7627495692e+03 0.0000000000e+00 0.0000e+00 1.0000e+00
      -13  1    1    2    0    0 -7.4851486908e+02 +3.5185359608e+03 +6.8806549947e+01 3.5979305382e+03 0.0000000000e+00 0.0000e+00 1.0000e+00
       13  1    1    2    0    0 +7.4851486908e+02 -3.5185359608e+03 -1.9191715451e+03 4.0772036050e+03 0.0000000000e+00 0.0000e+00 -1.0000e+00
<mgrwt>
<rscale>  0 0.74487471E+04</rscale>
<asrwt>0</asrwt>
<pdfrwt beam="1">  1        2 0.44805917E+00 0.74487471E+04</pdfrwt>
<pdfrwt beam="2">  1       -2 0.73273070E+00 0.74487471E+04</pdfrwt>
<totfact> 0.99670961E-05</totfact>
</mgrwt>
<rwgt>
<wgt id='morphing_basis_vector_1'> +3.1250185e-07 </wgt>
<wgt id='morphing_basis_vector_2'> +2.7055443e-07 </wgt>
<wgt id='morphing_basis_vector_3'> +3.5914614e-07 </wgt>
<wgt id='morphing_basis_vector_4'> +1.7490003e-07 </wgt>
<wgt id='morphing_basis_vector_5'> +3.6211457e-07 </wgt>
</rwgt>
</event>
<event>
 4      1 +6.9060000e-13 7.08538500e+03 7.81860800e-03 7.15333800e-02
        2 -1    0    0  501    0 +0.0000000000e+00 +0.0000000000e+00 +2.5376679269e+03 2.5376679269e+03 0.0000000000e+00 0.0000e+00 1.0000e+00
       -2 -1    0    0    0  501 -0.0000000000e+00 -0.0000000000e+00 -4.9457496944e+03 4.9457496944e+03 0.0000000000e+00 0.0000e+00 -1.0000e+00
      -13  1    1    2    0    0 -2.2189300371e+03 +2.5190517731e+03 -8.4611337251e+00 3.3569843514e+03 0.0000000000e+00 0.0000e+00 -1.0000e+00
       13  1    1    2    0    0 +2.2189300371e+03 -2.5190517731e+03 -2.3996206337e+03 4.1264332699e+03 0.0000000000e+00 0.0000e+00 1.0000e+00
<mgrwt>
<rscale>  0 0.70853851E+04</rscale>
<asrwt>0</asrwt>
<pdfrwt beam="1">  1        2 0.39041045E+00 0.70853851E+04</pdfrwt>
<pdfrwt beam="2">  1       -2 0.76088456E+00 0.70853851E+04</pdfrwt>
<totfact> 0.24581435E-04</totfact>
</mgrwt>
<rwgt>
<wgt id='morphing_basis_vector_1'> +2.6042068e-07 </wgt>
<wgt id='morphing_basis_vector_2'> +2.3474219e-07 </wgt>
<wgt id='morphing_basis_vector_3'> +3.0138685e-07 </wgt>
<wgt id='morphing_basis_vector_4'> +1.3350169e-07 </wgt>
<wgt id='morphing_basis_vector_5'> +2.9556045e-07 </wgt>
</rwgt>
</event>
<event>
 4      1 +6.9060000e-13 7.13949600e+03 7.81860800e-03 7.14845800e-02
        2 -1    0    0  501    0 +0.0000000000e+00 +0.0000000000e+00 +2.5582183869e+03 2.5582183869e+03 0.0000000000e+00 0.0000e+00 -1.0000e+00
       -2 -1    0    0    0  501 -0.0000000000e+00 -0.0000000000e+00 -4.9812409897e+03 4.9812409897e+03 0.0000000000e+00 0.0000e+00 1.0000e+00
      -13  1    1    2    0    0 +8.7954398097e+02 -1.8401547914e+03 -4.3053712988e+03 4.7640307819e+03 0.0000000000e+00 0.0000e+00 1.0000e+00
       13  1    1    2    0    0 -8.7954398097e+02 +1.8401547914e+03 +1.8823486960e+03 2.7754285947e+03 0.0000000000e+00 0.0000e+00 -1.0000e+00
<mgrwt>
<rscale>  0 0.71394964E+04</rscale>
<asrwt>0</asrwt>
<pdfrwt beam="1">  1        2 0.39357206E+00 0.71394964E+04</pdfrwt>
<pdfrwt beam="2">  1       -2 0.76634476E+00 0.71394964E+04</pdfrwt>
<totfact> 0.24450602E-04</totfact>
</mgrwt>
<rwgt>
<wgt id='morphing_basis_vector_1'> +2.4222775e-07 </wgt>
<wgt id='morphing_basis_vector_2'> +1.6503390e-07 </wgt>
<wgt id='morphing_basis_vector_3'> +2.6770347e-07 </wgt>
<wgt id='morphing_basis_vector_4'> +1.9388388e-07 </wgt>
<wgt id='morphing_basis_vector_5'> +3.0944927e-07 </wgt>
</rwgt>
</event>
<event>
 4      1 +6.9060000e-13 6.91480400e+03 7.81860800e-03 7.16901700e-02
        2 -1    0    0  501    0 +0.0000000000e+00 +0.0000000000e+00 +3.5259092577e+03 3.5259092577e+03 0.0000000000e+00 0.0000e+00 1.0000e+00
       -2 -1    0    0    0  501 -0.0000000000e+00 -0.0000000000e+00 -3.3902258596e+03 3.3902258596e+03 0.0000000000e+00 0.0000e+00 -1.0000e+00
      -13  1    1    2    0    0 -2.8181923752e+02 -3.2342207966e+03 -1.1215139838e+03 3.4347343215e+03 0.0000000000e+00 0.0000e+00 -1.0000e+00
       13  1    1    2    0    0 +2.8181923752e+02 +3.2342207966e+03 +1.2571973819e+03 3.4814007958e+03 0.0000000000e+00 0.0000e+00 1.0000e+00
<mgrwt>
<rscale>  0 0.69148040E+04</rscale>
<asrwt>0</asrwt>
<pdfrwt beam="1">  1        2 0.54244758E+00 0.69148040E+04</pdfrwt>
<pdfrwt beam="2">  1       -2 0.52157321E+00 0.69148040E+04</pdfrwt>
<totfact> 0.42065699E-04</totfact>
</mgrwt>
<rwgt>
<wgt id='morphing_basis_vector_1'> +2.1512837e-07 </wgt>
<wgt id='morphing_basis_vector_2'> +1.5092022e-07 </wgt>
<wgt id='morphing_basis_vector_3'> +2.3874099e-07 </wgt>
<wgt id='morphing_basis_vector_4'> +1.6641360e-07 </wgt>
<wgt id='morphing_basis_vector_5'> +2.7188822e-07 </wgt>
</rwgt>
</event>
<event>
 4      1 +6.9060000e-13 6.70207000e+03 7.81860800e-03 7.18922200e-02
        2 -1    0    0  501    0 +0.0000000000e+00 +0.0000000000e+00 +3.6421869422e+03 3.6421869422e+03 0.0000000000e+00 0.0000e+00 -1.0000e+00
       -2 -1    0    0    0  501 -0.0000000000e+00 -0.0000000000e+00 -3.0831578350e+03 3.0831578350e+03 0.0000000000e+00 0.0000e+00 1.0000e+00
      -13  1    1    2    0    0 +2.0262269451e+03 +6.9127106773e+02 -2.3074189750e+03 3.1476393771e+03 0.0000000000e+00 0.0000e+00 1.0000e+00
       13  1    1    2    0    0 -2.0262269451e+03 -6.9127106773e+02 +2.8664480822e+03 3.5777054001e+03 0.0000000000e+00 0.0000e+00 -1.0000e+00
<mgrwt>
<rscale>  0 0.67020705E+04</rscale>
<asrwt>0</asrwt>
<pdfrwt beam="1">  1        2 0.56033646E+00 0.67020705E+04</pdfrwt>
<pdfrwt beam="2">  1       -2 0.47433197E+00 0.67020705E+04</pdfrwt>
<totfact> 0.78515523E-04</totfact>
</mgrwt>
<rwgt>
<wgt id='morphing_basis_vector_1'> +1.8823821e-07 </wgt>
<wgt id='morphing_basis_vector_2'> +1.2834215e-07 </wgt>
<wgt id='morphing_basis_vector_3'> +2.0798082e-07 </wgt>
<wgt id='morphing_basis_vector_4'> +1.5037756e-07 </wgt>
<wgt id='morphing_basis_vector_5'> +2.4019004e-07 </wgt>
</rwgt>
</event>
<event>
 4      1 +6.9060000e-13 6.66829300e+03 7.81860800e-03 7.19250000e-02
        2 -1    0    0  501    0 +0.0000000000e+00 +0.0000000000e+00 +2.9989952254e+03 2.9989952254e+03 0.0000000000e+00 0.0000e+00 -1.0000e+00
       -2 -1    0    0    0  501 -0.0000000000e+00 -0.0000000000e+00 -3.7067522408e+03 3.7067522408e+03 0.0000000000e+00 0.0000e+00 1.0000e+00
      -13  1    1    2    0    0 +2.2543308296e+03 -1.5406093015e+03 +1.5702551184e+03 3.1497913655e+03 0.0000000000e+00 0.0000e+00 1.0000e+00
       13  1    1    2    0    0 -2.2543308296e+03 +1.5406093015e+03 -2.2780121337e+03 3.5559561008e+03 0.0000000000e+00 0.0000e+00 -1.0000e+00
<mgrwt>
<rscale>  0 0.66682928E+04</rscale>
<asrwt>0</asrwt>
<pdfrwt beam="1">  1        2 0.46138388E+00 0.66682928E+04</pdfrwt>
<pdfrwt beam="2">  1       -2 0.57026958E+00 0.66682928E+04</pdfrwt>
<totfact> 0.44005244E-04</totfact>
</mgrwt>
<rwgt>
<wgt id='morphing_basis_vector_1'> +2.2542981e-07 </wgt>
<wgt id='morphing_basis_vector_2'> +2.4594829e-07 </wgt>
<wgt id='morphing_basis_vector_3'> +2.7086433e-07 </wgt>
<wgt id='morphing_basis_vector_4'> +5.9613926e-08 </wgt>
<wgt id='morphing_basis_vector_5'> +2.2798448e-07 </wgt>
</rwgt>
</event>
<event>
 4      1 +6.9060000e-13 6.89864900e+03 7.81860800e-03 7.17052500e-02
        2 -1    0    0  501    0 +0.0000000000e+00 +0.0000000000e+00 +4.8347301478e+03 4.8347301478e+03 0.0000000000e+00 0.0000e+00 -1.0000e+00
       -2 -1    0    0    0  501 -0.0000000000e+00 -0.0000000000e+00 -2.4609105115e+03 2.4609105115e+03 0.0000000000e+00 0.0000e+00 1.0000e+00
      -13  1    1    2    0    0 +1.5235732620e+03 +1.7746564257e+03 -1.4941646369e+03 2.7754655242e+03 0.0000000000e+00 0.0000e+00 1.0000e+00
       13  1    1    2    0    0 -1.5235732620e+03 -1.7746564257e+03 +3.8679842732e+03 4.5201751350e+03 0.0000000000e+00 0.0000e+00 -1.0000e+00
<mgrwt>
<rscale>  0 0.68986486E+04</rscale>
<asrwt>0</asrwt>
<pdfrwt beam="1">  1        2 0.74380464E+00 0.68986486E+04</pdfrwt>
<pdfrwt beam="2">  1       -2 0.37860162E+00 0.68986486E+04</pdfrwt>
<totfact> 0.25349096E-04</totfact>
</mgrwt>
<rwgt>
<wgt id='morphing_basis_vector_1'> +2.1132477e-07 </wgt>
<wgt id='morphing_basis_vector_2'> +1.4422333e-07 </wgt>
<wgt id='morphing_basis_vector_3'> +2.3356277e-07 </wgt>
<wgt id='morphing_basis_vector_4'> +1.6872796e-07 </wgt>
<wgt id='morphing_basis_vector_5'> +2.6967786e-07 </wgt>
</rwgt>
</event>
<event>
 4      1 +6.9060000e-13 7.00321500e+03 7.81860800e-03 7.16083500e-02
        2 -1    0    0  501    0 +0.0000000000e+00 +0.0000000000e+00 +3.2662368397e+03 3.2662368397e+03 0.0000000000e+00 0.0000e+00 1.0000e+00
       -2 -1    0    0    0  501 -0.0000000000e+00 -0.0000000000e+00 -3.7539389360e+03 3.7539389360e+03 0.0000000000e+00 0.0000e+00 -1.0000e+00
      -13  1    1    2    0    0 +6.4847663089e+02 +2.5163893514e+03 -2.5965582036e+03 3.6735339679e+03 0.0000000000e+00 0.0000e+00 -1.0000e+00
       13  1    1    2    0    0 -6.4847663089e+02 -2.5163893514e+03 +2.1088561073e+03 3.3466418078e+03 0.0000000000e+00 0.0000e+00 1.0000e+00
<mgrwt>
<rscale>  0 0.70032146E+04</rscale>
<asrwt>0</asrwt>
<pdfrwt beam="1">  1        2 0.50249797E+00 0.70032146E+04</pdfrwt>
<pdfrwt beam="2">  1       -2 0.57752907E+00 0.70032146E+04</pdfrwt>
<totfact> 0.25081634E-04</totfact>
</mgrwt>
<rwgt>
<wgt id='morphing_basis_vector_1'> +2.2455099e-07 </wgt>
<wgt id='morphing_basis_vector_2'> +1.5358000e-07 </wgt>
<wgt id='morphing_basis_vector_3'> +2.4828063e-07 </wgt>
<wgt id='morphing_basis_vector_4'> +1.7890484e-07 </wgt>
<wgt id='morphing_basis_vector_5'> +2.8640641e-07 </wgt>
</rwgt>
</event>
<event>
 4      1 +6.9060000e-13 6.76993900e+03 7.81860800e-03 7.18269500e-02
        2 -1    0    0  501    0 +0.0000000000e+00 +0.0000000000e+00 +2.5071259391e+03 2.5071259391e+03 0.0000000000e+00 0.0000e+00 -1.0000e+00
       -2 -1    0    0    0  501 -0.0000000000e+00 -0.0000000000e+00 -4.5701804945e+03 4.5701804945e+03 0.0000000000e+00 0.0000e+00 1.0000e+00
      -13  1    1    2    0    0 +3.2053000854e+03 -7.8284809271e+02 -2.4142319533e+02 3.3083356742e+03 0.0000000000e+00 0.0000e+00 1.0000e+00
       13  1    1    2    0    0 -3.2053000854e+03 +7.8284809271e+02 -1.8216313600e+03 3.7689707595e+03 0.0000000000e+00 0.0000e+00 -1.0000e+00
<mgrwt>
<rscale>  0 0.67699389E+04</rscale>
<asrwt>0</asrwt>
<pdfrwt beam="1">  1        2 0.38571168E+00 0.67699389E+04</pdfrwt>
<pdfrwt beam="2">  1       -2 0.70310469E+00 0.67699389E+04</pdfrwt>
<totfact> 0.82017860E-05</totfact>
</mgrwt>
<rwgt>
<wgt id='morphing_basis_vector_1'> +2.1142670e-07 </wgt>
<wgt id='morphing_basis_vector_2'> +1.7898739e-07 </wgt>
<wgt id='morphing_basis_vector_3'> +2.4185487e-07 </wgt>
<wgt id='morphing_basis_vector_4'> +1.2343464e-07 </wgt>
<wgt id='morphing_basis_vector_5'> +2.4729368e-07 </wgt>
</rwgt>
</event>
<event>
 4      1 +6.9060000e-13 7.79087700e+03 7.81860800e-03 7.09290800e-02
        2 -1    0    0  501    0 +0.0000000000e+00 +0.0000000000e+00 +3.0614777710e+03 3.0614777710e+03 0.0000000000e+00 0.0000e+00 -1.0000e+00
       -2 -1    0    0    0  501 -0.0000000000e+00 -0.0000000000e+00 -4.9565735533e+03 4.9565735533e+03 0.0000000000e+00 0.0000e+00 1.0000e+00
      -13  1    1    2    0    0 -2.3035077530e+03 -3.0169198598e+03 -1.8485684794e+03 4.2219851766e+03 0.0000000000e+00 0.0000e+00 1.0000e+00
       13  1    1    2    0    0 +2.3035077530e+03 +3.0169198598e+03 -4.6527302861e+01 3.7960661477e+03 0.0000000000e+00 0.0000e+00 -1.0000e+00
<mgrwt>
<rscale>  0 0.77908767E+04</rscale>
<asrwt>0</asrwt>
<pdfrwt beam="1">  1        2 0.47099658E+00 0.77908767E+04</pdfrwt>
<pdfrwt beam="2">  1       -2 0.76254978E+00 0.77908767E+04</pdfrwt>
<totfact> 0.11150279E-04</totfact>
</mgrwt>
<rwgt>
<wgt id='morphing_basis_vector_1'> +3.4854938e-07 </wgt>
<wgt id='morphing_basis_vector_2'> +2.4936989e-07 </wgt>
<wgt id='morphing_basis_vector_3'> +3.8820963e-07 </wgt>
<wgt id='morphing_basis_vector_4'> +2.6379070e-07 </wgt>
<wgt id='morphing_basis_vector_5'> +4.3806534e-07 </wgt>
</rwgt>
</event>
<event>
 4      1 +6.9060000e-13 6.70703400e+03 7.81860800e-03 7.18874200e-02
        2 -1    0    0  501    0 +0.0000000000e+00 +0.0000000000e+00 +2.2206453900e+03 2.2206453900e+03 0.0000000000e+00 0.0000e+00 -1.0000e+00
       -2 -1    0    0    0  501 -0.0000000000e+00 -0.0000000000e+00 -5.0643276223e+03 5.0643276223e+03 0.0000000000e+00 0.0000e+00 1.0000e+00
      -13  1    1    2    0    0 -1.0245451989e+03 +6.9940436964e+02 -4.8059537198e+03 4.9634716172e+03 0.0000000000e+00 0.0000e+00 1.0000e+00
       13  1    1    2    0    0 +1.0245451989e+03 -6.9940436964e+02 +1.9622714875e+03 2.3215013952e+03 0.0000000000e+00 0.0000e+00 -1.0000e+00
<mgrwt>
<rscale>  0 0.67070339E+04</rscale>
<asrwt>0</asrwt>
<pdfrwt beam="1">  1        2 0.34163776E+00 0.67070339E+04</pdfrwt>
<pdfrwt beam="2">  1       -2 0.77912732E+00 0.67070339E+04</pdfrwt>
<totfact> 0.40628033E-04</totfact>
</mgrwt>
<rwgt>
<wgt id='morphing_basis_vector_1'> +1.8867496e-07 </wgt>
<wgt id='morphing_basis_vector_2'> +1.2836899e-07 </wgt>
<wgt id='morphing_basis_vector_3'> +2.0840029e-07 </wgt>
<wgt id='morphing_basis_vector_4'> +1.5108243e-07 </wgt>
<wgt id='morphing_basis_vector_5'> +2.4092535e-07 </wgt>
</rwgt>
</event>
<event>
 4      1 +6.9060000e-13 6.71248900e+03 7.81860800e-03 7.18821500e-02
        2 -1    0    0  501    0 +0.0000000000e+00 +0.0000000000e+00 +4.1582938610e+03 4.1582938610e+03 0.0000000000e+00 0.0000e+00 1.0000e+00
       -2 -1    0    0    0  501 -0.0000000000e+00 -0.0000000000e+00 -2.7088942686e+03 2.7088942686e+03 0.0000000000e+00 0.0000e+00 -1.0000e+00
      -13  1    1    2    0    0 -8.7195055396e+02 +2.9772534355e+03 -5.8545587433e+02 3.1570705359e+03 0.0000000000e+00 0.0000e+00 -1.0000e+00
       13  1    1    2    0    0 +8.7195055396e+02 -2.9772534355e+03 +2.0348554667e+03 3.7101175936e+03 0.0000000000e+00 0.0000e+00 1.0000e+00
<mgrwt>
<rscale>  0 0.67124894E+04</rscale>
<asrwt>0</asrwt>
<pdfrwt beam="1">  1        2 0.63973752E+00 0.67124894E+04</pdfrwt>
<pdfrwt beam="2">  1       -2 0.41675296E+00 0.67124894E+04</pdfrwt>
<totfact> 0.73578617E-04</totfact>
</mgrwt>
<rwgt>
<wgt id='morphing_basis_vector_1'> +1.9079514e-07 </wgt>
<wgt id='morphing_basis_vector_2'> +1.3320823e-07 </wgt>
<wgt id='morphing_basis_vector_3'> +2.1154617e-07 </wgt>
<wgt id='morphing_basis_vector_4'> +1.4834662e-07 </wgt>
<wgt id='morphing_basis_vector_5'> +2.4143957e-07 </wgt>
</rwgt>
</event>
<event>
 4      1 +6.9060000e-13 6.85185300e+03 7.81860800e-03 7.17491900e-02
        2 -1    0    0  501    0 +0.0000000000e+00 +0.0000000000e+00 +2.4473884147e+03 2.4473884147e+03 0.0000000000e+00 0.0000e+00 1.0000e+00
       -2 -1    0    0    0  501 -0.0000000000e+00 -0.0000000000e+00 -4.7957126142e+03 4.7957126142e+03 0.0000000000e+00 0.0000e+00 -1.0000e+00
      -13  1    1    2    0    0 +2.7808452814e+03 +1.9336181189e+03 -1.7183299629e+03 3.7979780634e+03 0.0000000000e+00 0.0000e+00 -1.0000e+00
       13  1    1    2    0    0 -2.7808452814e+03 -1.9336181189e+03 -6.2999423668e+02 3.4451229655e+03 0.0000000000e+00 0.0000e+00 1.0000e+00
<mgrwt>
<rscale>  0 0.68518527E+04</rscale>
<asrwt>0</asrwt>
<pdfrwt beam="1">  1        2 0.37652130E+00 0.68518527E+04</pdfrwt>
<pdfrwt beam="2">  1       -2 0.73780193E+00 0.68518527E+04</pdfrwt>
<totfact> 0.21828576E-04</totfact>
</mgrwt>
<rwgt>
<wgt id='morphing_basis_vector_1'> +2.0978772e-07 </wgt>
<wgt id='morphing_basis_vector_2'> +1.5246867e-07 </wgt>
<wgt id='morphing_basis_vector_3'> +2.3405439e-07 </wgt>
<wgt id='morphing_basis_vector_4'> +1.5533765e-07 </wgt>
<wgt id='morphing_basis_vector_5'> +2.6167694e-07 </wgt>
</rwgt>
</event>
<event>
 4      1 +6.9060000e-13 7.21626500e+03 7.81860800e-03 7.14160700e-02
        2 -1    0    0  501    0 +0.0000000000e+00 +0.0000000000e+00 +3.8488228691e+03 3.8488228691e+03 0.0000000000e+00 0.0000e+00 -1.0000e+00
       -2 -1    0    0    0  501 -0.0000000000e+00 -0.0000000000e+00 -3.3824941060e+03 3.3824941060e+03 0.0000000000e+00 0.0000e+00 1.0000e+00
      -13  1    1    2    0    0 -3.9381000188e+02 -3.2614161407e+03 -1.2621609284e+03 3.5192288600e+03 0.0000000000e+00 0.0000e+00 1.0000e+00
       13  1    1    2    0    0 +3.9381000188e+02 +3.2614161407e+03 +1.7284896915e+03 3.7120881150e+03 0.0000000000e+00 0.0000e+00 -1.0000e+00
<mgrwt>
<rscale>  0 0.72162651E+04</rscale>
<asrwt>0</asrwt>
<pdfrwt beam="1">  1        2 0.59212659E+00 0.72162651E+04</pdfrwt>
<pdfrwt beam="2">  1       -2 0.52038371E+00 0.72162651E+04</pdfrwt>
<totfact> 0.23618709E-04</totfact>
</mgrwt>
<rwgt>
<wgt id='morphing_basis_vector_1'> +2.5444328e-07 </wgt>
<wgt id='morphing_basis_vector_2'> +1.7707000e-07 </wgt>
<wgt id='morphing_basis_vector_3'> +2.8210132e-07 </wgt>
<wgt id='morphing_basis_vector_4'> +1.9884242e-07 </wgt>
<wgt id='morphing_basis_vector_5'> +3.2269882e-07 </wgt>
</rwgt>
</event>
<event>
 4      1 +6.9060000e-13 6.89062700e+03 7.81860800e-03 7.17127600e-02
        2 -1    0    0  501    0 +0.0000000000e+00 +0.0000000000e+00 +3.2159766015e+03 3.2159766015e+03 0.0000000000e+00 0.0000e+00 1.0000e+00
       -2 -1    0    0    0  501 -0.0000000000e+00 -0.0000000000e+00 -3.6910049205e+03 3.6910049205e+03 0.0000000000e+00 0.0000e+00 -1.0000e+00
      -13  1    1    2    0    0 +4.5727775071e+02 +9.2175323154e+02 -3.5333956590e+03 3.6801653284e+03 0.0000000000e+00 0.0000e+00 -1.0000e+00
       13  1    1    2    0    0 -4.5727775071e+02 -9.2175323154e+02 +3.0583673399e+03 3.2268161936e+03 0.0000000000e+00 0.0000e+00 1.0000e+00
<mgrwt>
<rscale>  0 0.68906271E+04</rscale>
<asrwt>0</asrwt>
<pdfrwt beam="1">  1        2 0.49476563E+00 0.68906271E+04</pdfrwt>
<pdfrwt beam="2">  1       -2 0.56784691E+00 0.68906271E+04</pdfrwt>
<totfact> 0.32323514E-04</totfact>
</mgrwt>
<rwgt>
<wgt id='morphing_basis_vector_1'> +2.1015001e-07 </wgt>
<wgt id='morphing_basis_vector_2'> +1.4298113e-07 </wgt>
<wgt id='morphing_basis_vector_3'> +2.3215852e-07 </wgt>
<wgt id='morphing_basis_vector_4'> +1.6836194e-07 </wgt>
<wgt id='morphing_basis_vector_5'> +2.6845896e-07 </wgt>
</rwgt>
</event>
<event>
 4      1 +6.9060000e-13 6.66088400e+03 7.81860800e-03 7.19322100e-02
        2 -1    0    0  501    0 +0.0000000000e+00 +0.0000000000e+00 +3.6708123782e+03 3.6708123782e+03 0.0000000000e+00 0.0000e+00 -1.0000e+00
       -2 -1    0    0    0  501 -0.0000000000e+00 -0.0000000000e+00 -3.0216316061e+03 3.0216316061e+03 0.0000000000e+00 0.0000e+00 1.0000e+00
      -13  1    1    2    0    0 -2.6330442273e+03 +5.2733678888e+02 -1.6547276544e+03 3.1542240887e+03 0.0000000000e+00 0.0000e+00 1.0000e+00
       13  1    1    2    0    0 +2.6330442273e+03 -5.2733678888e+02 +2.3039084266e+03 3.5382198956e+03 0.0000000000e+00 0.0000e+00 -1.0000e+00
<mgrwt>
<rscale>  0 0.66608836E+04</rscale>
<asrwt>0</asrwt>
<pdfrwt beam="1">  1        2 0.56474037E+00 0.66608836E+04</pdfrwt>
<pdfrwt beam="2">  1       -2 0.46486640E+00 0.66608836E+04</pdfrwt>
<totfact> 0.87739943E-04</totfact>
</mgrwt>
<rwgt>
<wgt id='morphing_basis_vector_1'> +1.8402531e-07 </wgt>
<wgt id='morphing_basis_vector_2'> +1.2628508e-07 </wgt>
<wgt id='morphing_basis_vector_3'> +2.0351088e-07 </wgt>
<wgt id='morphing_basis_vector_4'> +1.4592990e-07 </wgt>
<wgt id='morphing_basis_vector_5'> +2.3426415e-07 </wgt>
</rwgt>
</event>
<event>
 4      1 +6.9060000e-13 6.69878600e+03 7.81860800e-03 7.18954000e-02
        2 -1    0    0  501    0 +0.0000000000e+00 +0.0000000000e+00 +3.6285258670e+03 3.6285258670e+03 0.0000000000e+00 0.0000e+00 1.0000e+00
       -2 -1    0    0    0  501 -0.0000000000e+00 -0.0000000000e+00 -3.0917333321e+03 3.0917333321e+03 0.0000000000e+00 0.0000e+00 -1.0000e+00
      -13  1    1    2    0    0 -2.3397934823e+03 -1.0014326390e+03 -1.9159517580e+03 3.1856509554e+03 0.0000000000e+00 0.0000e+00 -1.0000e+00
       13  1    1    2    0    0 +2.3397934823e+03 +1.0014326390e+03 +2.4527442929e+03 3.5346082437e+03 0.0000000000e+00 0.0000e+00 1.0000e+00
<mgrwt>
<rscale>  0 0.66987863E+04</rscale>
<asrwt>0</asrwt>
<pdfrwt beam="1">  1        2 0.55823475E+00 0.66987863E+04</pdfrwt>
<pdfrwt beam="2">  1       -2 0.47565128E+00 0.66987863E+04</pdfrwt>
<totfact> 0.78666254E-04</totfact>
</mgrwt>
<rwgt>
<wgt id='morphing_basis_vector_1'> +1.8808343e-07 </wgt>
<wgt id='morphing_basis_vector_2'> +1.2871671e-07 </wgt>
<wgt id='morphing_basis_vector_3'> +2.0792265e-07 </wgt>
<wgt id='morphing_basis_vector_4'> +1.4962554e-07 </wgt>
<wgt id='morphing_basis_vector_5'> +2.3968027e-07 </wgt>
</rwgt>
</event>
<event>
 4      1 +6.9060000e-13 6.69516000e+03 7.81860800e-03 7.18989100e-02
        2 -1    0    0  501    0 +0.0000000000e+00 +0.0000000000e+00 +3.1736453410e+03 3.1736453410e+03 0.0000000000e+00 0.0000e+00 1.0000e+00
       -2 -1    0    0    0  501 -0.0000000000e+00 -0.0000000000e+00 -3.5310468150e+03 3.5310468150e+03 0.0000000000e+00 0.0000e+00 -1.0000e+00
      -13  1    1    2    0    0 +9.5696200932e+02 +2.8659695671e+03 -1.6218398077e+03 3.4292742977e+03 0.0000000000e+00 0.0000e+00 -1.0000e+00
       13  1    1    2    0    0 -9.5696200932e+02 -2.8659695671e+03 +1.2644383337e+03 3.2754178583e+03 0.0000000000e+00 0.0000e+00 1.0000e+00
<mgrwt>
<rscale>  0 0.66951595E+04</rscale>
<asrwt>0</asrwt>
<pdfrwt beam="1">  1        2 0.48825313E+00 0.66951595E+04</pdfrwt>
<pdfrwt beam="2">  1       -2 0.54323797E+00 0.66951595E+04</pdfrwt>
<totfact> 0.52704442E-04</totfact>
</mgrwt>
<rwgt>
<wgt id='morphing_basis_vector_1'> +1.8852764e-07 </wgt>
<wgt id='morphing_basis_vector_2'> +1.3093405e-07 </wgt>
<wgt id='morphing_basis_vector_3'> +2.0886525e-07 </wgt>
<wgt id='morphing_basis_vector_4'> +1.4747877e-07 </wgt>
<wgt id='morphing_basis_vector_5'> +2.3900720e-07 </wgt>
</rwgt>
</event>
<event>
 4      1 +6.9060000e-13 7.49778700e+03 7.81860800e-03 7.11720100e-02
        2 -1    0    0  501    0 +0.0000000000e+00 +0.0000000000e+00 +3.8247359348e+03 3.8247359348e+03 0.0000000000e+00 0.0000e+00 -1.0000e+00
       -2 -1    0    0    0  501 -0.0000000000e+00 -0.0000000000e+00 -3.6745553780e+03 3.6745553780e+03 0.0000000000e+00 0.0000e+00 1.0000e+00
      -13  1    1    2    0    0 +2.4430586793e+03 -7.9301379747e+02 -2.6561711653e+03 3.6949495062e+03 0.0000000000e+00 0.0000e+00 1.0000e+00
       13  1    1    2    0    0 -2.4430586793e+03 +7.9301379747e+02 +2.8063517222e+03 3.8043418067e+03 0.0000000000e+00 0.0000e+00 -1.0000e+00
<mgrwt>
<rscale>  0 0.74977874E+04</rscale>
<asrwt>0</asrwt>
<pdfrwt beam="1">  1        2 0.58842092E+00 0.74977874E+04</pdfrwt>
<pdfrwt beam="2">  1       -2 0.56531621E+00 0.74977874E+04</pdfrwt>
<totfact> 0.11449066E-04</totfact>
</mgrwt>
<rwgt>
<wgt id='morphing_basis_vector_1'> +2.9472728e-07 </wgt>
<wgt id='morphing_basis_vector_2'> +2.0124469e-07 </wgt>
<wgt id='morphing_basis_vector_3'> +3.2591272e-07 </wgt>
<wgt id='morphing_basis_vector_4'> +2.3551348e-07 </wgt>
<wgt id='morphing_basis_vector_5'> +3.7647825e-07 </wgt>
</rwgt>
</event>
<event>
 4      1 +6.9060000e-13 6.81939500e+03 7.81860800e-03 7.17798700e-02
        2 -1    0    0  501    0 +0.0000000000e+00 +0.0000000000e+00 +3.4529170183e+03 3.4529170183e+03 0.0000000000e+00 0.0000e+00 -1.0000e+00
       -2 -1    0    0    0  501 -0.0000000000e+00 -0.0000000000e+00 -3.3670191657e+03 3.3670191657e+03 0.0000000000e+00 0.0000e+00 1.0000e+00
      -13  1    1    2    0    0 +2.5992098759e+03 +1.2028943829e+02 -2.1607857813e+03 3.3822118090e+03 0.0000000000e+00 0.0000e+00 1.0000e+00
       13  1    1    2    0    0 -2.5992098759e+03 -1.2028943829e+02 +2.2466836339e+03 3.4377243750e+03 0.0000000000e+00 0.0000e+00 -1.0000e+00
<mgrwt>
<rscale>  0 0.68193952E+04</rscale>
<asrwt>0</asrwt>
<pdfrwt beam="1">  1        2 0.53121800E+00 0.68193952E+04</pdfrwt>
<pdfrwt beam="2">  1       -2 0.51800295E+00 0.68193952E+04</pdfrwt>
<totfact> 0.50876016E-04</totfact>
</mgrwt>
<rwgt>
<wgt id='morphing_basis_vector_1'> +2.0198295e-07 </wgt>
<wgt id='morphing_basis_vector_2'> +1.3826175e-07 </wgt>
<wgt id='morphing_basis_vector_3'> +2.2332052e-07 </wgt>
<wgt id='morphing_basis_vector_4'> +1.6069431e-07 </wgt>
<wgt id='morphing_basis_vector_5'> +2.5744351e-07 </wgt>
</rwgt>
</event>
<event>
 4      1 +6.9060000e-13 7.70602500e+03 7.81860800e-03 7.09983000e-02
        2 -1    0    0  501    0 +0.0000000000e+00 +0.0000000000e+00 +2.7326349244e+03 2.7326349244e+03 0.0000000000e+00 0.0000e+00 -1.0000e+00
       -2 -1    0    0    0  501 -0.0000000000e+00 -0.0000000000e+00 -5.4327442289e+03 5.4327442289e+03 0.0000000000e+00 0.0000e+00 1.0000e+00
      -13  1    1    2    0    0 -6.7956432160e+02 -3.5949634281e+03 -2.6304459424e+03 4.5060865029e+03 0.0000000000e+00 0.0000e+00 1.0000e+00
       13  1    1    2    0    0 +6.7956432160e+02 +3.5949634281e+03 -6.9663362137e+01 3.6592926503e+03 0.0000000000e+00 0.0000e+00 -1.0000e+00
<mgrwt>
<rscale>  0 0.77060253E+04</rscale>
<asrwt>0</asrwt>
<pdfrwt beam="1">  1        2 0.42040538E+00 0.77060253E+04</pdfrwt>
<pdfrwt beam="2">  1       -2 0.83580679E+00 0.77060253E+04</pdfrwt>
<totfact> 0.13298446E-04</totfact>
</mgrwt>
<rwgt>
<wgt id='morphing_basis_vector_1'> +3.3203705e-07 </wgt>
<wgt id='morphing_basis_vector_2'> +2.3401143e-07 </wgt>
<wgt id='morphing_basis_vector_3'> +3.6895463e-07 </wgt>
<wgt id='morphing_basis_vector_4'> +2.5589340e-07 </wgt>
<wgt id='morphing_basis_vector_5'> +4.1955539e-07 </wgt>
</rwgt>
</event>
<event>
 4      1 +6.9060000e-13 6.77824100e+03 7.81860800e-03 7.18190100e-02
        2 -1    0    0  501    0 +0.0000000000e+00 +0.0000000000e+00 +4.5247031369e+03 4.5247031369e+03 0.0000000000e+00 0.0000e+00 -1.0000e+00
       -2 -1    0    0    0  501 -0.0000000000e+00 -0.0000000000e+00 -2.5385392522e+03 2.5385392522e+03 0.0000000000e+00 0.0000e+00 1.0000e+00
      -13  1    1    2    0    0 +2.6290464025e+03 -1.2373748604e+03 -8.2473088315e+02 3.0204573431e+03 0.0000000000e+00 0.0000e+00 1.0000e+00
       13  1    1    2    0    0 -2.6290464025e+03 +1.2373748604e+03 +2.8108947679e+03 4.0427850460e+03 0.0000000000e+00 0.0000e+00 -1.0000e+00
<mgrwt>
<rscale>  0 0.67782406E+04</rscale>
<asrwt>0</asrwt>
<pdfrwt beam="1">  1        2 0.69610818E+00 0.67782406E+04</pdfrwt>
<pdfrwt beam="2">  1       -2 0.39054450E+00 0.67782406E+04</pdfrwt>
<totfact> 0.47895187E-04</totfact>
</mgrwt>
<rwgt>
<wgt id='morphing_basis_vector_1'> +1.9760659e-07 </wgt>
<wgt id='morphing_basis_vector_2'> +1.3626821e-07 </wgt>
<wgt id='morphing_basis_vector_3'> +2.1871086e-07 </wgt>
<wgt id='morphing_basis_vector_4'> +1.5588578e-07 </wgt>
<wgt id='morphing_basis_vector_5'> +2.5119380e-07 </wgt>
</rwgt>
</event>
<event>
 4      1 +6.9060000e-13 7.23837300e+03 7.81860800e-03 7.13965000e-02
        2 -1    0    0  501    0 +0.0000000000e+00 +0.0000000000e+00 +3.9056596267e+03 3.9056596267e+03 0.0000000000e+00 0.0000e+00 -1.0000e+00
       -2 -1    0    0    0  501 -0.0000000000e+00 -0.0000000000e+00 -3.3537260026e+03 3.3537260026e+03 0.0000000000e+00 0.0000e+00 1.0000e+00
      -13  1    1    2    0    0 -1.7794981316e+03 +8.1866726025e+02 -2.7761688434e+03 3.3976378751e+03 0.0000000000e+00 0.0000e+00 1.0000e+00
       13  1    1    2    0    0 +1.7794981316e+03 -8.1866726025e+02 +3.3281024675e+03 3.8617477542e+03 0.0000000000e+00 0.0000e+00 -1.0000e+00
<mgrwt>
<rscale>  0 0.72383734E+04</rscale>
<asrwt>0</asrwt>
<pdfrwt beam="1">  1        2 0.60087071E+00 0.72383734E+04</pdfrwt>
<pdfrwt beam="2">  1       -2 0.51595785E+00 0.72383734E+04</pdfrwt>
<totfact> 0.22843108E-04</totfact>
</mgrwt>
<rwgt>
<wgt id='morphing_basis_vector_1'> +2.5588216e-07 </wgt>
<wgt id='morphing_basis_vector_2'> +1.7429385e-07 </wgt>
<wgt id='morphing_basis_vector_3'> +2.8280473e-07 </wgt>
<wgt id='morphing_basis_vector_4'> +2.0491641e-07 </wgt>
<wgt id='morphing_basis_vector_5'> +3.2698305e-07 </wgt>
</rwgt>
</event>
<event>
 4      1 +6.9060000e-13 6.71143600e+03 7.81860800e-03 7.18831600e-02
        2 -1    0    0  501    0 +0.0000000000e+00 +0.0000000000e+00 +3.9303536208e+03 3.9303536208e+03 0.0000000000e+00 0.0000e+00 1.0000e+00
       -2 -1    0    0    0  501 -0.0000000000e+00 -0.0000000000e+00 -2.8650965717e+03 2.8650965717e+03 0.0000000000e+00 0.0000e+00 -1.0000e+00
      -13  1    1    2    0    0 +2.3674918468e+03 -1.4126821401e+03 -1.4044734513e+03 3.0940643415e+03 0.0000000000e+00 0.0000e+00 -1.0000e+00
       13  1    1    2    0    0 -2.3674918468e+03 +1.4126821401e+03 +2.4697305004e+03 3.7013858510e+03 0.0000000000e+00 0.0000e+00 1.0000e+00
<mgrwt>
<rscale>  0 0.67114358E+04</rscale>
<asrwt>0</asrwt>
<pdfrwt beam="1">  1        2 0.60466978E+00 0.67114358E+04</pdfrwt>
<pdfrwt beam="2">  1       -2 0.44078409E+00 0.67114358E+04</pdfrwt>
<totfact> 0.79966593E-04</totfact>
</mgrwt>
<rwgt>
<wgt id='morphing_basis_vector_1'> +1.8973441e-07 </wgt>
<wgt id='morphing_basis_vector_2'> +1.3036273e-07 </wgt>
<wgt id='morphing_basis_vector_3'> +2.0987226e-07 </wgt>
<wgt id='morphing_basis_vector_4'> +1.5027033e-07 </wgt>
<wgt id='morphing_basis_vector_5'> +2.4145767e-07 </wgt>
</rwgt>
</event>
<event>
 4      1 +6.9060000e-13 7.05752400e+03 7.81860800e-03 7.15586900e-02
        2 -1    0    0  501    0 +0.0000000000e+00 +0.0000000000e+00 +2.3119883586e+03 2.3119883586e+03 0.0000000000e+00 0.0000e+00 -1.0000e+00
       -2 -1    0    0    0  501 -0.0000000000e+00 -0.0000000000e+00 -5.3859104108e+03 5.3859104108e+03 0.0000000000e+00 0.0000e+00 1.0000e+00
      -13  1    1    2    0    0 +9.3297353272e+02 +3.3395454971e+03 -2.2515044722e+03 4.1342806059e+03 0.0000000000e+00 0.0000e+00 1.0000e+00
       13  1    1    2    0    0 -9.3297353272e+02 -3.3395454971e+03 -8.2241757997e+02 3.5636181636e+03 0.0000000000e+00 0.0000e+00 -1.0000e+00
<mgrwt>
<rscale>  0 0.70575243E+04</rscale>
<asrwt>0</asrwt>
<pdfrwt beam="1">  1        2 0.35569052E+00 0.70575243E+04</pdfrwt>
<pdfrwt beam="2">  1       -2 0.82860160E+00 0.70575243E+04</pdfrwt>
<totfact> 0.27024645E-04</totfact>
</mgrwt>
<rwgt>
<wgt id='morphing_basis_vector_1'> +2.3545892e-07 </wgt>
<wgt id='morphing_basis_vector_2'> +1.6976041e-07 </wgt>
<wgt id='morphing_basis_vector_3'> +2.6241978e-07 </wgt>
<wgt id='morphing_basis_vector_4'> +1.7622302e-07 </wgt>
<wgt id='morphing_basis_vector_5'> +2.9470915e-07 </wgt>
</rwgt>
</event>
<event>
 4      1 +6.9060000e-13 7.00512800e+03 7.81860800e-03 7.16065900e-02
        2 -1    0    0  501    0 +0.0000000000e+00 +0.0000000000e+00 +3.3450622745e+03 3.3450622745e+03 0.0000000000e+00 0.0000e+00 -1.0000e+00
       -2 -1    0    0    0  501 -0.0000000000e+00 -0.0000000000e+00 -3.6674811715e+03 3.6674811715e+03 0.0000000000e+00 0.0000e+00 1.0000e+00
      -13  1    1    2    0    0 -1.0178499787e+03 +1.5390085471e+03 -3.1415052830e+03 3.6432981391e+03 0.0000000000e+00 0.0000e+00 1.0000e+00
       13  1    1    2    0    0 +1.0178499787e+03 -1.5390085471e+03 +2.8190863859e+03 3.3692453069e+03 0.0000000000e+00 0.0000e+00 -1.0000e+00
<mgrwt>
<rscale>  0 0.70051275E+04</rscale>
<asrwt>0</asrwt>
<pdfrwt beam="1">  1        2 0.51462496E+00 0.70051275E+04</pdfrwt>
<pdfrwt beam="2">  1       -2 0.56422787E+00 0.70051275E+04</pdfrwt>
<totfact> 0.27715326E-04</totfact>
</mgrwt>
<rwgt>
<wgt id='morphing_basis_vector_1'> +2.2450021e-07 </wgt>
<wgt id='morphing_basis_vector_2'> +1.5287976e-07 </wgt>
<wgt id='morphing_basis_vector_3'> +2.4806717e-07 </wgt>
<wgt id='morphing_basis_vector_4'> +1.7973500e-07 </wgt>
<wgt id='morphing_basis_vector_5'> +2.8677343e-07 </wgt>
</rwgt>
</event>
<event>
 4      1 +6.9060000e-13 6.76540200e+03 7.81860800e-03 7.18312800e-02
        2 -1    0    0  501    0 +0.0000000000e+00 +0.0000000000e+00 +5.2498950883e+03 5.2498950883e+03 0.0000000000e+00 0.0000e+00 -1.0000e+00
       -2 -1    0    0    0  501 -0.0000000000e+00 -0.0000000000e+00 -2.1795988797e+03 2.1795988797e+03 0.0000000000e+00 0.0000e+00 1.0000e+00
      -13  1    1    2    0    0 +2.2435031000e+03 -1.7325439783e+03 -4.9203590242e+02 2.8769974149e+03 0.0000000000e+00 0.0000e+00 1.0000e+00
       13  1    1    2    0    0 -2.2435031000e+03 +1.7325439783e+03 +3.5623321110e+03 4.5524965531e+03 0.0000000000e+00 0.0000e+00 -1.0000e+00
<mgrwt>
<rscale>  0 0.67654018E+04</rscale>
<asrwt>0</asrwt>
<pdfrwt beam="1">  1        2 0.80767617E+00 0.67654018E+04</pdfrwt>
<pdfrwt beam="2">  1       -2 0.33532291E+00 0.67654018E+04</pdfrwt>
<totfact> 0.13072522E-04</totfact>
</mgrwt>
<rwgt>
<wgt id='morphing_basis_vector_1'> +1.9598916e-07 </wgt>
<wgt id='morphing_basis_vector_2'> +1.3486624e-07 </wgt>
<wgt id='morphing_basis_vector_3'> +2.1685037e-07 </wgt>
<wgt id='morphing_basis_vector_4'> +1.5497866e-07 </wgt>
<wgt id='morphing_basis_vector_5'> +2.4931574e-07 </wgt>
</rwgt>
</event>
<event>
 4      1 +6.9060000e-13 7.37978700e+03 7.81860800e-03 7.12729700e-02
        2 -1    0    0  501    0 +0.0000000000e+00 +0.0000000000e+00 +2.7327529106e+03 2.7327529106e+03 0.0000000000e+00 0.0000e+00 1.0000e+00
       -2 -1    0    0    0  501 -0.0000000000e+00 -0.0000000000e+00 -4.9822699911e+03 4.9822699911e+03 0.0000000000e+00 0.0000e+00 -1.0000e+00
      -13  1    1    2    0    0 -1.4061660968e+03 -3.3897839946e+03 -7.2342621710e+02 3.7404924961e+03 0.0000000000e+00 0.0000e+00 1.0000e+00
       13  1    1    2    0    0 +1.4061660968e+03 +3.3897839946e+03 -1.5260908635e+03 3.9745304056e+03 0.0000000000e+00 0.0000e+00 -1.0000e+00
<mgrwt>
<rscale>  0 0.73797867E+04</rscale>
<asrwt>0</asrwt>
<pdfrwt beam="1">  1        2 0.42042353E+00 0.73797867E+04</pdfrwt>
<pdfrwt beam="2">  1       -2 0.76650307E+00 0.73797867E+04</pdfrwt>
<totfact> 0.18864602E-04</totfact>
</mgrwt>
<rwgt>
<wgt id='morphing_basis_vector_1'> +2.9105423e-07 </wgt>
<wgt id='morphing_basis_vector_2'> +2.3119107e-07 </wgt>
<wgt id='morphing_basis_vector_3'> +3.2953591e-07 </wgt>
<wgt id='morphing_basis_vector_4'> +1.9007105e-07 </wgt>
<wgt id='morphing_basis_vector_5'> +3.5069028e-07 </wgt>
</rwgt>
</event>
<event>
 4      1 +6.9060000e-13 6.71429200e+03 7.81860800e-03 7.18804100e-02
        2 -1    0    0  501    0 +0.0000000000e+00 +0.0000000000e+00 +3.6852190679e+03 3.6852190679e+03 0.0000000000e+00 0.0000e+00 -1.0000e+00
       -2 -1    0    0    0  501 -0.0000000000e+00 -0.0000000000e+00 -3.0582794125e+03 3.0582794125e+03 0.0000000000e+00 0.0000e+00 1.0000e+00
      -13  1    1    2    0    0 -4.6118722571e+01 +1.2139801432e+03 -2.8297690316e+03 3.0795239074e+03 0.0000000000e+00 0.0000e+00 1.0000e+00
       13  1    1    2    0    0 +4.6118722571e+01 -1.2139801432e+03 +3.4567086870e+03 3.6639745730e+03 0.0000000000e+00 0.0000e+00 -1.0000e+00
<mgrwt>
<rscale>  0 0.67142921E+04</rscale>
<asrwt>0</asrwt>
<pdfrwt beam="1">  1        2 0.56695678E+00 0.67142921E+04</pdfrwt>
<pdfrwt beam="2">  1       -2 0.47050452E+00 0.67142921E+04</pdfrwt>
<totfact> 0.77536434E-04</totfact>
</mgrwt>
<rwgt>
<wgt id='morphing_basis_vector_1'> +1.8949057e-07 </wgt>
<wgt id='morphing_basis_vector_2'> +1.2892240e-07 </wgt>
<wgt id='morphing_basis_vector_3'> +2.0930221e-07 </wgt>
<wgt id='morphing_basis_vector_4'> +1.5174064e-07 </wgt>
<wgt id='morphing_basis_vector_5'> +2.4197196e-07 </wgt>
</rwgt>
</event>
<event>
 4      1 +6.9060000e-13 7.24985000e+03 7.81860800e-03 7.13863700e-02
        2 -1    0    0  501    0 +0.0000000000e+00 +0.0000000000e+00 +2.4220794779e+03 2.4220794779e+03 0.0000000000e+00 0.0000e+00 -1.0000e+00
       -2 -1    0    0    0  501 -0.0000000000e+00 -0.0000000000e+00 -5.4251237572e+03 5.4251237572e+03 0.0000000000e+00 0.0000e+00 1.0000e+00
      -13  1    1    2    0    0 -2.3888103795e+02 +2.1994535778e+03 -4.6096029030e+03 5.1130322818e+03 0.0000000000e+00 0.0000e+00 1.0000e+00
       13  1    1    2    0    0 +2.3888103795e+02 -2.1994535778e+03 +1.6065586237e+03 2.7341709534e+03 0.0000000000e+00 0.0000e+00 -1.0000e+00
<mgrwt>
<rscale>  0 0.72498499E+04</rscale>
<asrwt>0</asrwt>
<pdfrwt beam="1">  1        2 0.37262761E+00 0.72498499E+04</pdfrwt>
<pdfrwt beam="2">  1       -2 0.83463442E+00 0.72498499E+04</pdfrwt>
<totfact> 0.21439518E-04</totfact>
</mgrwt>
<rwgt>
<wgt id='morphing_basis_vector_1'> +2.5756909e-07 </wgt>
<wgt id='morphing_basis_vector_2'> +1.7558544e-07 </wgt>
<wgt id='morphing_basis_vector_3'> +2.8470537e-07 </wgt>
<wgt id='morphing_basis_vector_4'> +2.0608631e-07 </wgt>
<wgt id='morphing_basis_vector_5'> +3.2905352e-07 </wgt>
</rwgt>
</event>
<event>
 4      1 +6.9060000e-13 7.26880600e+03 7.81860800e-03 7.13696800e-02
        2 -1    0    0  501    0 +0.0000000000e+00 +0.0000000000e+00 +4.7168676884e+03 4.7168676884e+03 0.0000000000e+00 0.0000e+00 -1.0000e+00
       -2 -1    0    0    0  501 -0.0000000000e+00 -0.0000000000e+00 -2.8003512849e+03 2.8003512849e+03 0.0000000000e+00 0.0000e+00 1.0000e+00
      -13  1    1    2    0    0 -1.7362064089e+02 -1.5759736876e+03 -2.4238344196e+03 2.8963443311e+03 0.0000000000e+00 0.0000e+00 1.0000e+00
       13  1    1    2    0    0 +1.7362064089e+02 +1.5759736876e+03 +4.3403508231e+03 4.6208746421e+03 0.0000000000e+00 0.0000e+00 -1.0000e+00
<mgrwt>
<rscale>  0 0.72688064E+04</rscale>
<asrwt>0</asrwt>
<pdfrwt beam="1">  1        2 0.72567195E+00 0.72688064E+04</pdfrwt>
<pdfrwt beam="2">  1       -2 0.43082328E+00 0.72688064E+04</pdfrwt>
<totfact> 0.15437025E-04</totfact>
</mgrwt>
<rwgt>
<wgt id='morphing_basis_vector_1'> +2.6015603e-07 </wgt>
<wgt id='morphing_basis_vector_2'> +1.7709553e-07 </wgt>
<wgt id='morphing_basis_vector_3'> +2.8750867e-07 </wgt>
<wgt id='morphing_basis_vector_4'> +2.0849648e-07 </wgt>
<wgt id='morphing_basis_vector_5'> +3.3253430e-07 </wgt>
</rwgt>
</event>
<event>
 4      1 +6.9060000e-13 7.25867800e+03 7.81860800e-03 7.13785900e-02
        2 -1    0    0  501    0 +0.0000000000e+00 +0.0000000000e+00 +2.8241208499e+03 2.8241208499e+03 0.0000000000e+00 0.0000e+00 1.0000e+00
       -2 -1    0    0    0  501 -0.0000000000e+00 -0.0000000000e+00 -4.6641426204e+03 4.6641426204e+03 0.0000000000e+00 0.0000e+00 -1.0000e+00
      -13  1    1    2    0    0 -2.9076901767e+03 +1.8826661464e+03 +1.9730028218e+02 3.4695851890e+03 0.0000000000e+00 0.0000e+00 -1.0000e+00
       13  1    1    2    0    0 +2.9076901767e+03 -1.8826661464e+03 -2.0373220526e+03 4.0186782813e+03 0.0000000000e+00 0.0000e+00 1.0000e+00
<mgrwt>
<rscale>  0 0.72586782E+04</rscale>
<asrwt>0</asrwt>
<pdfrwt beam="1">  1        2 0.43448014E+00 0.72586782E+04</pdfrwt>
<pdfrwt beam="2">  1       -2 0.71756040E+00 0.72586782E+04</pdfrwt>
<totfact> 0.80265550E-05</totfact>
</mgrwt>
<rwgt>
<wgt id='morphing_basis_vector_1'> +2.8498445e-07 </wgt>
<wgt id='morphing_basis_vector_2'> +2.5319939e-07 </wgt>
<wgt id='morphing_basis_vector_3'> +3.2899953e-07 </wgt>
<wgt id='morphing_basis_vector_4'> +1.5097308e-07 </wgt>
<wgt id='morphing_basis_vector_5'> +3.2592991e-07 </wgt>
</rwgt>
</event>
<event>
 4      1 +6.9060000e-13 6.73334300e+03 7.81860800e-03 7.18620400e-02
        2 -1    0    0  501    0 +0.0000000000e+00 +0.0000000000e+00 +3.2702938050e+03 3.2702938050e+03 0.0000000000e+00 0.0000e+00 -1.0000e+00
       -2 -1    0    0    0  501 -0.0000000000e+00 -0.0000000000e+00 -3.4658895054e+03 3.4658895054e+03 0.0000000000e+00 0.0000e+00 1.0000e+00
      -13  1    1    2    0    0 +2.2990167909e+03 +1.9390911676e+03 +1.4157594463e+03 3.3241431333e+03 0.0000000000e+00 0.0000e+00 1.0000e+00
       13  1    1    2    0    0 -2.2990167909e+03 -1.9390911676e+03 -1.6113551467e+03 3.4120401771e+03 0.0000000000e+00 0.0000e+00 -1.0000e+00
<mgrwt>
<rscale>  0 0.67333430E+04</rscale>
<asrwt>0</asrwt>
<pdfrwt beam="1">  1        2 0.50312213E+00 0.67333430E+04</pdfrwt>
<pdfrwt beam="2">  1       -2 0.53321377E+00 0.67333430E+04</pdfrwt>
<totfact> 0.53254792E-04</totfact>
</mgrwt>
<rwgt>
<wgt id='morphing_basis_vector_1'> +2.2242335e-07 </wgt>
<wgt id='morphing_basis_vector_2'> +2.2070533e-07 </wgt>
<wgt id='morphing_basis_vector_3'> +2.6208601e-07 </wgt>
<wgt id='morphing_basis_vector_4'> +8.7514983e-08 </wgt>
<wgt id='morphing_basis_vector_5'> +2.3917822e-07 </wgt>
</rwgt>
</event>
<event>
 4      1 +6.9060000e-13 6.79708400e+03 7.81860800e-03 7.18010500e-02
        2 -1    0    0  501    0 +0.0000000000e+00 +0.0000000000e+00 +2.3764158168e+03 2.3764158168e+03 0.0000000000e+00 0.0000e+00 1.0000e+00
       -2 -1    0    0    0  501 -0.0000000000e+00 -0.0000000000e+00 -4.8602976566e+03 4.8602976566e+03 0.0000000000e+00 0.0000e+00 -1.0000e+00
      -13  1    1    2    0    0 +3.2171668716e+02 -2.1337105864e+03 -4.0373807036e+03 4.5778450650e+03 0.0000000000e+00 0.0000e+00 -1.0000e+00
       13  1    1    2    0    0 -3.2171668716e+02 +2.1337105864e+03 +1.5534988638e+03 2.6588684084e+03 0.0000000000e+00 0.0000e+00 1.0000e+00
<mgrwt>
<rscale>  0 0.67970841E+04</rscale>
<asrwt>0</asrwt>
<pdfrwt beam="1">  1        2 0.36560244E+00 0.67970841E+04</pdfrwt>
<pdfrwt beam="2">  1       -2 0.74773810E+00 0.67970841E+04</pdfrwt>
<totfact> 0.27740261E-04</totfact>
</mgrwt>
<rwgt>
<wgt id='morphing_basis_vector_1'> +1.9911718e-07 </wgt>
<wgt id='morphing_basis_vector_2'> +1.3575807e-07 </wgt>
<wgt id='morphing_basis_vector_3'> +2.2001942e-07 </wgt>
<wgt id='morphing_basis_vector_4'> +1.5911266e-07 </wgt>
<wgt id='morphing_basis_vector_5'> +2.5412855e-07 </wgt>
</rwgt>
</event>
<event>
 4      1 +6.9060000e-13 7.01870900e+03 7.81860800e-03 7.15941300e-02
        2 -1    0    0  501    0 +0.0000000000e+00 +0.0000000000e+00 +2.4725119615e+03 2.4725119615e+03 0.0000000000e+00 0.0000e+00 1.0000e+00
       -2 -1    0    0    0  501 -0.0000000000e+00 -0.0000000000e+00 -4.9809944098e+03 4.9809944098e+03 0.0000000000e+00 0.0000e+00 -1.0000e+00
      -13  1    1    2    0    0 -1.7550637206e+03 +5.0356526855e+01 -4.4810240510e+03 4.8127290583e+03 0.0000000000e+00 0.0000e+00 -1.0000e+00
       13  1    1    2    0    0 +1.7550637206e+03 -5.0356526855e+01 +1.9725416026e+03 2.6407773130e+03 0.0000000000e+00 0.0000e+00 1.0000e+00
<mgrwt>
<rscale>  0 0.70187088E+04</rscale>
<asrwt>0</asrwt>
<pdfrwt beam="1">  1        2 0.38038645E+00 0.70187088E+04</pdfrwt>
<pdfrwt beam="2">  1       -2 0.76630684E+00 0.70187088E+04</pdfrwt>
<totfact> 0.27711731E-04</totfact>
</mgrwt>
<rwgt>
<wgt id='morphing_basis_vector_1'> +2.2623038e-07 </wgt>
<wgt id='morphing_basis_vector_2'> +1.5402994e-07 </wgt>
<wgt id='morphing_basis_vector_3'> +2.4997507e-07 </wgt>
<wgt id='morphing_basis_vector_4'> +1.8116295e-07 </wgt>
<wgt id='morphing_basis_vector_5'> +2.8900980e-07 </wgt>
</rwgt>
</event>
<event>
 4      1 +6.9060000e-13 6.76079900e+03 7.81860800e-03 7.18356900e-02
        2 -1    0    0  501    0 +0.0000000000e+00 +0.0000000000e+00 +1.9374278962e+03 1.9374278962e+03 0.0000000000e+00 0.0000e+00 -1.0000e+00
       -2 -1    0    0    0  501 -0.0000000000e+00 -0.0000000000e+00 -5.8980784327e+03 5.8980784327e+03 0.0000000000e+00 0.0000e+00 1.0000e+00
      -13  1    1    2    0    0 -6.0412406727e+02 +1.5824063575e+03 -5.3707832000e+03 5.6315440112e+03 0.0000000000e+00 0.0000e+00 1.0000e+00
       13  1    1    2    0    0 +6.0412406727e+02 -1.5824063575e+03 +1.4101326636e+03 2.2039623177e+03 0.0000000000e+00 0.0000e+00 -1.0000e+00
<mgrwt>
<rscale>  0 0.67607993E+04</rscale>
<asrwt>0</asrwt>
<pdfrwt beam="1">  1        2 0.29806583E+00 0.67607993E+04</pdfrwt>
<pdfrwt beam="2">  1       -2 0.90739667E+00 0.67607993E+04</pdfrwt>
<totfact> 0.89255402E-05</totfact>
</mgrwt>
<rwgt>
<wgt id='morphing_basis_vector_1'> +1.9481736e-07 </wgt>
<wgt id='morphing_basis_vector_2'> +1.3262190e-07 </wgt>
<wgt id='morphing_basis_vector_3'> +2.1521285e-07 </wgt>
<wgt id='morphing_basis_vector_4'> +1.5592825e-07 </wgt>
<wgt id='morphing_basis_vector_5'> +2.4875237e-07 </wgt>
</rwgt>
</event>
<event>
 4      1 +6.9060000e-13 6.76351400e+03 7.81860800e-03 7.18330900e-02
        2 -1    0    0  501    0 +0.0000000000e+00 +0.0000000000e+00 +4.1052298114e+03 4.1052298114e+03 0.0000000000e+00 0.0000e+00 1.0000e+00
       -2 -1    0    0    0  501 -0.0000000000e+00 -0.0000000000e+00 -2.7857831190e+03 2.7857831190e+03 0.0000000000e+00 0.0000e+00 -1.0000e+00
      -13  1    1    2    0    0 -2.4235679707e+03 -1.9144905270e+03 -7.4367660306e+02 3.1767924982e+03 0.0000000000e+00 0.0000e+00 -1.0000e+00
       13  1    1    2    0    0 +2.4235679707e+03 +1.9144905270e+03 +2.0631232954e+03 3.7142204322e+03 0.0000000000e+00 0.0000e+00 1.0000e+00
<mgrwt>
<rscale>  0 0.67635139E+04</rscale>
<asrwt>0</asrwt>
<pdfrwt beam="1">  1        2 0.63157382E+00 0.67635139E+04</pdfrwt>
<pdfrwt beam="2">  1       -2 0.42858202E+00 0.67635139E+04</pdfrwt>
<totfact> 0.68201313E-04</totfact>
</mgrwt>
<rwgt>
<wgt id='morphing_basis_vector_1'> +1.9647600e-07 </wgt>
<wgt id='morphing_basis_vector_2'> +1.3678506e-07 </wgt>
<wgt id='morphing_basis_vector_3'> +2.1776323e-07 </wgt>
<wgt id='morphing_basis_vector_4'> +1.5329418e-07 </wgt>
<wgt id='morphing_basis_vector_5'> +2.4890975e-07 </wgt>
</rwgt>
</event>
<event>
 4      1 +6.9060000e-13 6.87103800e+03 7.81860800e-03 7.17311300e-02
        2 -1    0    0  501    0 +0.0000000000e+00 +0.0000000000e+00 +2.1473954192e+03 2.1473954192e+03 0.0000000000e+00 0.0000e+00 -1.0000e+00
       -2 -1    0    0    0  501 -0.0000000000e+00 -0.0000000000e+00 -5.4963292642e+03 5.4963292642e+03 0.0000000000e+00 0.0000e+00 1.0000e+00
      -13  1    1    2    0    0 +2.3987279858e+03 -1.7537242288e+03 -3.5927182378e+03 4.6623029671e+03 0.0000000000e+00 0.0000e+00 1.0000e+00
       13  1    1    2    0    0 -2.3987279858e+03 +1.7537242288e+03 +2.4378439273e+02 2.9814217164e+03 0.0000000000e+00 0.0000e+00 -1.0000e+00
<mgrwt>
<rscale>  0 0.68710384E+04</rscale>
<asrwt>0</asrwt>
<pdfrwt beam="1">  1        2 0.33036853E+00 0.68710384E+04</pdfrwt>
<pdfrwt beam="2">  1       -2 0.84558912E+00 0.68710384E+04</pdfrwt>
<totfact> 0.27241166E-04</totfact>
</mgrwt>
<rwgt>
<wgt id='morphing_basis_vector_1'> +2.0869312e-07 </wgt>
<wgt id='morphing_basis_vector_2'> +1.4405845e-07 </wgt>
<wgt id='morphing_basis_vector_3'> +2.3103484e-07 </wgt>
<wgt id='morphing_basis_vector_4'> +1.6448355e-07 </wgt>
<wgt id='morphing_basis_vector_5'> +2.6524828e-07 </wgt>
</rwgt>
</event>
<event>
 4      1 +6.9060000e-13 7.22197000e+03 7.81860800e-03 7.14110200e-02
        2 -1    0    0  501    0 +0.0000000000e+00 +0.0000000000e+00 +2.4972495390e+03 2.4972495390e+03 0.0000000000e+00 0.0000e+00 1.0000e+00
       -2 -1    0    0    0  501 -0.0000000000e+00 -0.0000000000e+00 -5.2214293231e+03 5.2214293231e+03 0.0000000000e+00 0.0000e+00 -1.0000e+00
      -13  1    1    2    0    0 +1.8606030696e+03 -9.8460772497e+02 +1.7736231295e+03 2.7526414877e+03 0.0000000000e+00 0.0000e+00 1.0000e+00
       13  1    1    2    0    0 -1.8606030696e+03 +9.8460772497e+02 -4.4978029135e+03 4.9660373744e+03 0.0000000000e+00 0.0000e+00 -1.0000e+00
<mgrwt>
<rscale>  0 0.72219698E+04</rscale>
<asrwt>0</asrwt>
<pdfrwt beam="1">  1        2 0.38419224E+00 0.72219698E+04</pdfrwt>
<pdfrwt beam="2">  1       -2 0.80329682E+00 0.72219698E+04</pdfrwt>
<totfact> 0.25488317E-04</totfact>
</mgrwt>
<rwgt>
<wgt id='morphing_basis_vector_1'> +3.3924152e-07 </wgt>
<wgt id='morphing_basis_vector_2'> +4.2407980e-07 </wgt>
<wgt id='morphing_basis_vector_3'> +4.2073705e-07 </wgt>
<wgt id='morphing_basis_vector_4'> +1.9297129e-08 </wgt>
<wgt id='morphing_basis_vector_5'> +3.0853140e-07 </wgt>
</rwgt>
</event>
<event>
 4      1 +6.9060000e-13 6.81798900e+03 7.81860800e-03 7.17812000e-02
        2 -1    0    0  501    0 +0.0000000000e+00 +0.0000000000e+00 +2.1923810595e+03 2.1923810595e+03 0.0000000000e+00 0.0000e+00 -1.0000e+00
       -2 -1    0    0    0  501 -0.0000000000e+00 -0.0000000000e+00 -5.3007407141e+03 5.3007407141e+03 0.0000000000e+00 0.0000e+00 1.0000e+00
      -13  1    1    2    0    0 +2.0645075334e+03 -6.6089968653e+01 -4.5346756078e+03 4.9829551581e+03 0.0000000000e+00 0.0000e+00 1.0000e+00
       13  1    1    2    0    0 -2.0645075334e+03 +6.6089968653e+01 +1.4263159532e+03 2.5101666155e+03 0.0000000000e+00 0.0000e+00 -1.0000e+00
<mgrwt>
<rscale>  0 0.68179890E+04</rscale>
<asrwt>0</asrwt>
<pdfrwt beam="1">  1        2 0.33728939E+00 0.68179890E+04</pdfrwt>
<pdfrwt beam="2">  1       -2 0.81549857E+00 0.68179890E+04</pdfrwt>
<totfact> 0.36411047E-04</totfact>
</mgrwt>
<rwgt>
<wgt id='morphing_basis_vector_1'> +2.0154501e-07 </wgt>
<wgt id='morphing_basis_vector_2'> +1.3735058e-07 </wgt>
<wgt id='morphing_basis_vector_3'> +2.2269138e-07 </wgt>
<wgt id='morphing_basis_vector_4'> +1.6114394e-07 </wgt>
<wgt id='morphing_basis_vector_5'> +2.5727994e-07 </wgt>
</rwgt>
</event>
<event>
 4      1 +6.9060000e-13 6.72390400e+03 7.81860800e-03 7.18711300e-02
        2 -1    0    0  501    0 +0.0000000000e+00 +0.0000000000e+00 +4.2877702498e+03 4.2877702498e+03 0.0000000000e+00 0.0000e+00 1.0000e+00
       -2 -1    0    0    0  501 -0.0000000000e+00 -0.0000000000e+00 -2.6360367638e+03 2.6360367638e+03 0.0000000000e+00 0.0000e+00 -1.0000e+00
      -13  1    1    2    0    0 -3.4891704719e+02 +7.3005426091e+02 -2.5342738394e+03 2.6603131814e+03 0.0000000000e+00 0.0000e+00 -1.0000e+00
       13  1    1    2    0    0 +3.4891704719e+02 -7.3005426091e+02 +4.1860073254e+03 4.2634938323e+03 0.0000000000e+00 0.0000e+00 1.0000e+00
<mgrwt>
<rscale>  0 0.67239036E+04</rscale>
<asrwt>0</asrwt>
<pdfrwt beam="1">  1        2 0.65965696E+00 0.67239036E+04</pdfrwt>
<pdfrwt beam="2">  1       -2 0.40554412E+00 0.67239036E+04</pdfrwt>
<totfact> 0.66130511E-04</totfact>
</mgrwt>
<rwgt>
<wgt id='morphing_basis_vector_1'> +1.9056809e-07 </wgt>
<wgt id='morphing_basis_vector_2'> +1.2963863e-07 </wgt>
<wgt id='morphing_basis_vector_3'> +2.1049025e-07 </wgt>
<wgt id='morphing_basis_vector_4'> +1.5262970e-07 </wgt>
<wgt id='morphing_basis_vector_5'> +2.4336433e-07 </wgt>
</rwgt>
</event>
<event>
 4      1 +6.9060000e-13 7.44074900e+03 7.81860800e-03 7.12205800e-02
        2 -1    0    0  501    0 +0.0000000000e+00 +0.0000000000e+00 +4.7364456443e+03 4.7364456443e+03 0.0000000000e+00 0.0000e+00 -1.0000e+00
       -2 -1    0    0    0  501 -0.0000000000e+00 -0.0000000000e+00 -2.9222726977e+03 2.9222726977e+03 0.0000000000e+00 0.0000e+00 1.0000e+00
      -13  1    1    2    0    0 -7.2146623566e+02 -1.2437811355e+03 -2.6247092887e+03 2.9927585757e+03 0.0000000000e+00 0.0000e+00 1.0000e+00
       13  1    1    2    0    0 +7.2146623566e+02 +1.2437811355e+03 +4.4388822352e+03 4.6659597663e+03 0.0000000000e+00 0.0000e+00 -1.0000e+00
<mgrwt>
<rscale>  0 0.74407488E+04</rscale>
<asrwt>0</asrwt>
<pdfrwt beam="1">  1        2 0.72868395E+00 0.74407488E+04</pdfrwt>
<pdfrwt beam="2">  1       -2 0.44958042E+00 0.74407488E+04</pdfrwt>
<totfact> 0.10769508E-04</totfact>
</mgrwt>
<rwgt>
<wgt id='morphing_basis_vector_1'> +2.8560507e-07 </wgt>
<wgt id='morphing_basis_vector_2'> +1.9440614e-07 </wgt>
<wgt id='morphing_basis_vector_3'> +3.1566827e-07 </wgt>
<wgt id='morphing_basis_vector_4'> +2.2899474e-07 </wgt>
<wgt id='morphing_basis_vector_5'> +3.6518502e-07 </wgt>
</rwgt>
</event>
<event>
 4      1 +6.9060000e-13 6.69571800e+03 7.81860800e-03 7.18983700e-02
        2 -1    0    0  501    0 +0.0000000000e+00 +0.0000000000e+00 +3.5790449481e+03 3.5790449481e+03 0.0000000000e+00 0.0000e+00 1.0000e+00
       -2 -1    0    0    0  501 -0.0000000000e+00 -0.0000000000e+00 -3.1316064532e+03 3.1316064532e+03 0.0000000000e+00 0.0000e+00 -1.0000e+00
      -13  1    1    2    0    0 +3.7340285317e+02 +1.4414923231e+03 -2.7814395189e+03 3.1549541369e+03 0.0000000000e+00 0.0000e+00 -1.0000e+00
       13  1    1    2    0    0 -3.7340285317e+02 -1.4414923231e+03 +3.2288780138e+03 3.5556972644e+03 0.0000000000e+00 0.0000e+00 1.0000e+00
<mgrwt>
<rscale>  0 0.66957181E+04</rscale>
<asrwt>0</asrwt>
<pdfrwt beam="1">  1        2 0.55062230E+00 0.66957181E+04</pdfrwt>
<pdfrwt beam="2">  1       -2 0.48178561E+00 0.66957181E+04</pdfrwt>
<totfact> 0.77261215E-04</totfact>
</mgrwt>
<rwgt>
<wgt id='morphing_basis_vector_1'> +1.8742007e-07 </wgt>
<wgt id='morphing_basis_vector_2'> +1.2754321e-07 </wgt>
<wgt id='morphing_basis_vector_3'> +2.0701865e-07 </wgt>
<wgt id='morphing_basis_vector_4'> +1.5003612e-07 </wgt>
<wgt id='morphing_basis_vector_5'> +2.3929838e-07 </wgt>
</rwgt>
</event>
<event>
 4      1 +6.9060000e-13 7.47889900e+03 7.81860800e-03 7.11880400e-02
        2 -1    0    0  501    0 +0.0000000000e+00 +0.0000000000e+00 +4.3991253579e+03 4.3991253579e+03 0.0000000000e+00 0.0000e+00 -1.0000e+00
       -2 -1    0    0    0  501 -0.0000000000e+00 -0.0000000000e+00 -3.1786959397e+03 3.1786959397e+03 0.0000000000e+00 0.0000e+00 1.0000e+00
      -13  1    1    2    0    0 -2.6913695827e+03 -1.1047307368e+03 -1.7702392361e+03 3.4055318505e+03 0.0000000000e+00 0.0000e+00 1.0000e+00
       13  1    1    2    0    0 +2.6913695827e+03 +1.1047307368e+03 +2.9906686542e+03 4.1722894471e+03 0.0000000000e+00 0.0000e+00 -1.0000e+00
<mgrwt>
<rscale>  0 0.74788988E+04</rscale>
<asrwt>0</asrwt>
<pdfrwt beam="1">  1        2 0.67678852E+00 0.74788988E+04</pdfrwt>
<pdfrwt beam="2">  1       -2 0.48903014E+00 0.74788988E+04</pdfrwt>
<totfact> 0.12776661E-04</totfact>
</mgrwt>
<rwgt>
<wgt id='morphing_basis_vector_1'> +2.9209705e-07 </wgt>
<wgt id='morphing_basis_vector_2'> +2.0017670e-07 </wgt>
<wgt id='morphing_basis_vector_3'> +3.2317318e-07 </wgt>
<wgt id='morphing_basis_vector_4'> +2.3245026e-07 </wgt>
<wgt id='morphing_basis_vector_5'> +3.7263486e-07 </wgt>
</rwgt>
</event>
<event>
 4      1 +6.9060000e-13 7.71601800e+03 7.81860800e-03 7.09901000e-02
        2 -1    0    0  501    0 +0.0000000000e+00 +0.0000000000e+00 +3.8875884641e+03 3.8875884641e+03 0.0000000000e+00 0.0000e+00 -1.0000e+00
       -2 -1    0    0    0  501 -0.0000000000e+00 -0.0000000000e+00 -3.8286547905e+03 3.8286547905e+03 0.0000000000e+00 0.0000e+00 1.0000e+00
      -13  1    1    2    0    0 -3.5100979225e+03 +1.5846330321e+03 -1.9941736944e+02 3.8563734985e+03 0.0000000000e+00 0.0000e+00 1.0000e+00
       13  1    1    2    0    0 +3.5100979225e+03 -1.5846330321e+03 +2.5835104306e+02 3.8598697561e+03 0.0000000000e+00 0.0000e+00 -1.0000e+00
<mgrwt>
<rscale>  0 0.77160182E+04</rscale>
<asrwt>0</asrwt>
<pdfrwt beam="1">  1        2 0.59809053E+00 0.77160182E+04</pdfrwt>
<pdfrwt beam="2">  1       -2 0.58902381E+00 0.77160182E+04</pdfrwt>
<totfact> 0.65972988E-05</totfact>
</mgrwt>
<rwgt>
<wgt id='morphing_basis_vector_1'> +3.3997735e-07 </wgt>
<wgt id='morphing_basis_vector_2'> +2.5346676e-07 </wgt>
<wgt id='morphing_basis_vector_3'> +3.8107963e-07 </wgt>
<wgt id='morphing_basis_vector_4'> +2.4387858e-07 </wgt>
<wgt id='morphing_basis_vector_5'> +4.2061281e-07 </wgt>
</rwgt>
</event>
<event>
 4      1 +6.9060000e-13 7.64876100e+03 7.81860800e-03 7.10455100e-02
        2 -1    0    0  501    0 +0.0000000000e+00 +0.0000000000e+00 +2.4871981672e+03 2.4871981672e+03 0.0000000000e+00 0.0000e+00 -1.0000e+00
       -2 -1    0    0    0  501 -0.0000000000e+00 -0.0000000000e+00 -5.8804664351e+03 5.8804664351e+03 0.0000000000e+00 0.0000e+00 1.0000e+00
      -13  1    1    2    0    0 +1.5685498198e+03 -2.5180776858e+03 -4.3369415741e+03 5.2545338505e+03 0.0000000000e+00 0.0000e+00 1.0000e+00
       13  1    1    2    0    0 -1.5685498198e+03 +2.5180776858e+03 +9.4367330622e+02 3.1131307518e+03 0.0000000000e+00 0.0000e+00 -1.0000e+00
<mgrwt>
<rscale>  0 0.76487608E+04</rscale>
<asrwt>0</asrwt>
<pdfrwt beam="1">  1        2 0.38264587E+00 0.76487608E+04</pdfrwt>
<pdfrwt beam="2">  1       -2 0.90468714E+00 0.76487608E+04</pdfrwt>
<totfact> 0.43864341E-05</totfact>
</mgrwt>
<rwgt>
<wgt id='morphing_basis_vector_1'> +3.1949782e-07 </wgt>
<wgt id='morphing_basis_vector_2'> +2.1894396e-07 </wgt>
<wgt id='morphing_basis_vector_3'> +3.5352553e-07 </wgt>
<wgt id='morphing_basis_vector_4'> +2.5435591e-07 </wgt>
<wgt id='morphing_basis_vector_5'> +4.0771200e-07 </wgt>
</rwgt>
</event>
<event>
 4      1 +6.9060000e-13 6.74241700e+03 7.81860800e-03 7.18533200e-02
        2 -1    0    0  501    0 +0.0000000000e+00 +0.0000000000e+00 +3.3744376061e+03 3.3744376061e+03 0.0000000000e+00 0.0000e+00 -1.0000e+00
       -2 -1    0    0    0  501 -0.0000000000e+00 -0.0000000000e+00 -3.3679823592e+03 3.3679823592e+03 0.0000000000e+00 0.0000e+00 1.0000e+00
      -13  1    1    2    0    0 -2.8590735788e+03 +1.2647041164e+02 -1.7785559620e+03 3.3695040887e+03 0.0000000000e+00 0.0000e+00 1.0000e+00
       13  1    1    2    0    0 +2.8590735788e+03 -1.2647041164e+02 +1.7850112090e+03 3.3729158765e+03 0.0000000000e+00 0.0000e+00 -1.0000e+00
<mgrwt>
<rscale>  0 0.67424169E+04</rscale>
<asrwt>0</asrwt>
<pdfrwt beam="1">  1        2 0.51914425E+00 0.67424169E+04</pdfrwt>
<pdfrwt beam="2">  1       -2 0.51815113E+00 0.67424169E+04</pdfrwt>
<totfact> 0.58089098E-04</totfact>
</mgrwt>
<rwgt>
<wgt id='morphing_basis_vector_1'> +1.9341167e-07 </wgt>
<wgt id='morphing_basis_vector_2'> +1.3324262e-07 </wgt>
<wgt id='morphing_basis_vector_3'> +2.1402950e-07 </wgt>
<wgt id='morphing_basis_vector_4'> +1.5273473e-07 </wgt>
<wgt id='morphing_basis_vector_5'> +2.4592682e-07 </wgt>
</rwgt>
</event>
<event>
 4      1 +6.9060000e-13 6.78748100e+03 7.81860800e-03 7.18102000e-02
        2 -1    0    0  501    0 +0.0000000000e+00 +0.0000000000e+00 +3.9854944478e+03 3.9854944478e+03 0.0000000000e+00 0.0000e+00 1.0000e+00
       -2 -1    0    0    0  501 -0.0000000000e+00 -0.0000000000e+00 -2.8898481431e+03 2.8898481431e+03 0.0000000000e+00 0.0000e+00 -1.0000e+00
      -13  1    1    2    0    0 -8.0030429779e+01 +3.3398634929e+03 +1.1525271311e+03 3.5340361923e+03 0.0000000000e+00 0.0000e+00 1.0000e+00
       13  1    1    2    0    0 +8.0030429779e+01 -3.3398634929e+03 -5.6880826382e+01 3.3413063986e+03 0.0000000000e+00 0.0000e+00 -1.0000e+00
<mgrwt>
<rscale>  0 0.67874807E+04</rscale>
<asrwt>0</asrwt>
<pdfrwt beam="1">  1        2 0.61315299E+00 0.67874807E+04</pdfrwt>
<pdfrwt beam="2">  1       -2 0.44459202E+00 0.67874807E+04</pdfrwt>
<totfact> 0.67295198E-04</totfact>
</mgrwt>
<rwgt>
<wgt id='morphing_basis_vector_1'> +2.1131686e-07 </wgt>
<wgt id='morphing_basis_vector_2'> +1.7408157e-07 </wgt>
<wgt id='morphing_basis_vector_3'> +2.4059563e-07 </wgt>
<wgt id='morphing_basis_vector_4'> +1.2966317e-07 </wgt>
<wgt id='morphing_basis_vector_5'> +2.5028750e-07 </wgt>
</rwgt>
</event>
<event>
 4      1 +6.9060000e-13 6.90700600e+03 7.81860800e-03 7.16974500e-02
        2 -1    0    0  501    0 +0.0000000000e+00 +0.0000000000e+00 +2.2098715068e+03 2.2098715068e+03 0.0000000000e+00 0.0000e+00 -1.0000e+00
       -2 -1    0    0    0  501 -0.0000000000e+00 -0.0000000000e+00 -5.3970032198e+03 5.3970032198e+03 0.0000000000e+00 0.0000e+00 1.0000e+00
      -13  1    1    2    0    0 -1.0591783479e+03 -1.3134179616e+03 -4.9121555378e+03 5.1938615251e+03 0.0000000000e+00 0.0000e+00 1.0000e+00
       13  1    1    2    0    0 +1.0591783479e+03 +1.3134179616e+03 +1.7250238248e+03 2.4130132015e+03 0.0000000000e+00 0.0000e+00 -1.0000e+00
<mgrwt>
<rscale>  0 0.69070062E+04</rscale>
<asrwt>0</asrwt>
<pdfrwt beam="1">  1        2 0.33998023E+00 0.69070062E+04</pdfrwt>
<pdfrwt beam="2">  1       -2 0.83030818E+00 0.69070062E+04</pdfrwt>
<totfact> 0.30679765E-04</totfact>
</mgrwt>
<rwgt>
<wgt id='morphing_basis_vector_1'> +2.1218722e-07 </wgt>
<wgt id='morphing_basis_vector_2'> +1.4444855e-07 </wgt>
<wgt id='morphing_basis_vector_3'> +2.3443160e-07 </wgt>
<wgt id='morphing_basis_vector_4'> +1.6989507e-07 </wgt>
<wgt id='morphing_basis_vector_5'> +2.7101847e-07 </wgt>
</rwgt>
</event>
<event>
 4      1 +6.9060000e-13 7.14189900e+03 7.81860800e-03 7.14824200e-02
        2 -1    0    0  501    0 +0.0000000000e+00 +0.0000000000e+00 +3.4702889550e+03 3.4702889550e+03 0.0000000000e+00 0.0000e+00 -1.0000e+00
       -2 -1    0    0    0  501 -0.0000000000e+00 -0.0000000000e+00 -3.6745296015e+03 3.6745296015e+03 0.0000000000e+00 0.0000e+00 1.0000e+00
      -13  1    1    2    0    0 -1.0554958929e+03 +2.7900002292e+03 -2.0659579187e+03 3.6285472273e+03 0.0000000000e+00 0.0000e+00 1.0000e+00
       13  1    1    2    0    0 +1.0554958929e+03 -2.7900002292e+03 +1.8617172722e+03 3.5162713292e+03 0.0000000000e+00 0.0000e+00 -1.0000e+00
<mgrwt>
<rscale>  0 0.71418988E+04</rscale>
<asrwt>0</asrwt>
<pdfrwt beam="1">  1        2 0.53389061E+00 0.71418988E+04</pdfrwt>
<pdfrwt beam="2">  1       -2 0.56531225E+00 0.71418988E+04</pdfrwt>
<totfact> 0.21928162E-04</totfact>
</mgrwt>
<rwgt>
<wgt id='morphing_basis_vector_1'> +2.4328662e-07 </wgt>
<wgt id='morphing_basis_vector_2'> +1.6740735e-07 </wgt>
<wgt id='morphing_basis_vector_3'> +2.6926606e-07 </wgt>
<wgt id='morphing_basis_vector_4'> +1.9257279e-07 </wgt>
<wgt id='morphing_basis_vector_5'> +3.0973406e-07 </wgt>
</rwgt>
</event>
<event>
 4      1 +6.9060000e-13 7.00298200e+03 7.81860800e-03 7.16085600e-02
        2 -1    0    0  501    0 +0.0000000000e+00 +0.0000000000e+00 +4.7784950185e+03 4.7784950185e+03 0.0000000000e+00 0.0000e+00 -1.0000e+00
       -2 -1    0    0    0  501 -0.0000000000e+00 -0.0000000000e+00 -2.5657529737e+03 2.5657529737e+03 0.0000000000e+00 0.0000e+00 1.0000e+00
      -13  1    1    2    0    0 -3.3770071031e+03 +4.1980944365e+01 +1.3693314823e+02 3.3800429081e+03 0.0000000000e+00 0.0000e+00 1.0000e+00
       13  1    1    2    0    0 +3.3770071031e+03 -4.1980944365e+01 +2.0758088965e+03 3.9642050841e+03 0.0000000000e+00 0.0000e+00 -1.0000e+00
<mgrwt>
<rscale>  0 0.70029816E+04</rscale>
<asrwt>0</asrwt>
<pdfrwt beam="1">  1        2 0.73515308E+00 0.70029816E+04</pdfrwt>
<pdfrwt beam="2">  1       -2 0.39473123E+00 0.70029816E+04</pdfrwt>
<totfact> 0.23099515E-04</totfact>
</mgrwt>
<rwgt>
<wgt id='morphing_basis_vector_1'> +2.2716122e-07 </wgt>
<wgt id='morphing_basis_vector_2'> +1.6130627e-07 </wgt>
<wgt id='morphing_basis_vector_3'> +2.5257442e-07 </wgt>
<wgt id='morphing_basis_vector_4'> +1.7322002e-07 </wgt>
<wgt id='morphing_basis_vector_5'> +2.8589111e-07 </wgt>
</rwgt>
</event>
<event>
 4      1 +6.9060000e-13 6.76162100e+03 7.81860800e-03 7.18349000e-02
        2 -1    0    0  501    0 +0.0000000000e+00 +0.0000000000e+00 +1.9528726302e+03 1.9528726302e+03 0.0000000000e+00 0.0000e+00 -1.0000e+00
       -2 -1    0    0    0  501 -0.0000000000e+00 -0.0000000000e+00 -5.8528541981e+03 5.8528541981e+03 0.0000000000e+00 0.0000e+00 1.0000e+00
      -13  1    1    2    0    0 -1.3361903135e+03 -1.9075832133e+03 -4.7790416777e+03 5.3163443856e+03 0.0000000000e+00 0.0000e+00 1.0000e+00
       13  1    1    2    0    0 +1.3361903135e+03 +1.9075832133e+03 +8.7906010979e+02 2.4893824427e+03 0.0000000000e+00 0.0000e+00 -1.0000e+00
<mgrwt>
<rscale>  0 0.67616207E+04</rscale>
<asrwt>0</asrwt>
<pdfrwt beam="1">  1        2 0.30044195E+00 0.67616207E+04</pdfrwt>
<pdfrwt beam="2">  1       -2 0.90043910E+00 0.67616207E+04</pdfrwt>
<totfact> 0.10761323E-04</totfact>
</mgrwt>
<rwgt>
<wgt id='morphing_basis_vector_1'> +1.9507259e-07 </wgt>
<wgt id='morphing_basis_vector_2'> +1.3315791e-07 </wgt>
<wgt id='morphing_basis_vector_3'> +2.1558064e-07 </wgt>
<wgt id='morphing_basis_vector_4'> +1.5565975e-07 </wgt>
<wgt id='morphing_basis_vector_5'> +2.4884448e-07 </wgt>
</rwgt>
</event>
<event>
 4      1 +6.9060000e-13 6.81314400e+03 7.81860800e-03 7.17857900e-02
        2 -1    0    0  501    0 +0.0000000000e+00 +0.0000000000e+00 +3.2293971520e+03 3.2293971520e+03 0.0000000000e+00 0.0000e+00 1.0000e+00
       -2 -1    0    0    0  501 -0.0000000000e+00 -0.0000000000e+00 -3.5934676452e+03 3.5934676452e+03 0.0000000000e+00 0.0000e+00 -1.0000e+00
      -13  1    1    2    0    0 -3.1920927220e+03 -1.1636851940e+03 -4.2960243684e+02 3.4246426720e+03 0.0000000000e+00 0.0000e+00 -1.0000e+00
       13  1    1    2    0    0 +3.1920927220e+03 +1.1636851940e+03 +6.5531943716e+01 3.3982221252e+03 0.0000000000e+00 0.0000e+00 1.0000e+00
<mgrwt>
<rscale>  0 0.68131444E+04</rscale>
<asrwt>0</asrwt>
<pdfrwt beam="1">  1        2 0.49683033E+00 0.68131444E+04</pdfrwt>
<pdfrwt beam="2">  1       -2 0.55284117E+00 0.68131444E+04</pdfrwt>
<totfact> 0.40828511E-04</totfact>
</mgrwt>
<rwgt>
<wgt id='morphing_basis_vector_1'> +2.0654060e-07 </wgt>
<wgt id='morphing_basis_vector_2'> +1.5329625e-07 </wgt>
<wgt id='morphing_basis_vector_3'> +2.3117740e-07 </wgt>
<wgt id='morphing_basis_vector_4'> +1.4875343e-07 </wgt>
<wgt id='morphing_basis_vector_5'> +2.5554287e-07 </wgt>
</rwgt>
</event>
<event>
 4      1 +6.9060000e-13 7.06223100e+03 7.81860800e-03 7.15544000e-02
        2 -1    0    0  501    0 +0.0000000000e+00 +0.0000000000e+00 +4.3146716826e+03 4.3146716826e+03 0.0000000000e+00 0.0000e+00 -1.0000e+00
       -2 -1    0    0    0  501 -0.0000000000e+00 -0.0000000000e+00 -2.8898553370e+03 2.8898553370e+03 0.0000000000e+00 0.0000e+00 1.0000e+00
      -13  1    1    2    0    0 -8.7116438551e+02 -1.3869056521e+03 -2.4789367934e+03 2.9711213876e+03 0.0000000000e+00 0.0000e+00 1.0000e+00
       13  1    1    2    0    0 +8.7116438551e+02 +1.3869056521e+03 +3.9037531391e+03 4.2334056320e+03 0.0000000000e+00 0.0000e+00 -1.0000e+00
<mgrwt>
<rscale>  0 0.70622311E+04</rscale>
<asrwt>0</asrwt>
<pdfrwt beam="1">  1        2 0.66379564E+00 0.70622311E+04</pdfrwt>
<pdfrwt beam="2">  1       -2 0.44459313E+00 0.70622311E+04</pdfrwt>
<totfact> 0.33301320E-04</totfact>
</mgrwt>
<rwgt>
<wgt id='morphing_basis_vector_1'> +2.3187028e-07 </wgt>
<wgt id='morphing_basis_vector_2'> +1.5784159e-07 </wgt>
<wgt id='morphing_basis_vector_3'> +2.5620912e-07 </wgt>
<wgt id='morphing_basis_vector_4'> +1.8573628e-07 </wgt>
<wgt id='morphing_basis_vector_5'> +2.9625952e-07 </wgt>
</rwgt>
</event>
<event>
 4      1 +6.9060000e-13 6.71228600e+03 7.81860800e-03 7.18823400e-02
        2 -1    0    0  501    0 +0.0000000000e+00 +0.0000000000e+00 +5.4312493967e+03 5.4312493967e+03 0.0000000000e+00 0.0000e+00 1.0000e+00
       -2 -1    0    0    0  501 -0.0000000000e+00 -0.0000000000e+00 -2.0738681190e+03 2.0738681190e+03 0.0000000000e+00 0.0000e+00 -1.0000e+00
      -13  1    1    2    0    0 +2.1610630808e+03 -2.1635445023e+03 +1.3238097394e+02 3.0608239373e+03 0.0000000000e+00 0.0000e+00 -1.0000e+00
       13  1    1    2    0    0 -2.1610630808e+03 +2.1635445023e+03 +3.2250003038e+03 4.4442935785e+03 0.0000000000e+00 0.0000e+00 1.0000e+00
<mgrwt>
<rscale>  0 0.67122857E+04</rscale>
<asrwt>0</asrwt>
<pdfrwt beam="1">  1        2 0.83557682E+00 0.67122857E+04</pdfrwt>
<pdfrwt beam="2">  1       -2 0.31905664E+00 0.67122857E+04</pdfrwt>
<totfact> 0.83302114E-05</totfact>
</mgrwt>
<rwgt>
<wgt id='morphing_basis_vector_1'> +1.9057135e-07 </wgt>
<wgt id='morphing_basis_vector_2'> +1.3260317e-07 </wgt>
<wgt id='morphing_basis_vector_3'> +2.1119190e-07 </wgt>
<wgt id='morphing_basis_vector_4'> +1.4875865e-07 </wgt>
<wgt id='morphing_basis_vector_5'> +2.4144645e-07 </wgt>
</rwgt>
</event>
<event>
 4      1 +6.9060000e-13 7.03460000e+03 7.81860800e-03 7.15795900e-02
        2 -1    0    0  501    0 +0.0000000000e+00 +0.0000000000e+00 +2.4916329842e+03 2.4916329842e+03 0.0000000000e+00 0.0000e+00 -1.0000e+00
       -2 -1    0    0    0  501 -0.0000000000e+00 -0.0000000000e+00 -4.9651778718e+03 4.9651778718e+03 0.0000000000e+00 0.0000e+00 1.0000e+00
      -13  1    1    2    0    0 -1.0045928620e+03 +2.1932677940e+03 -3.9500425449e+03 4.6284410487e+03 0.0000000000e+00 0.0000e+00 1.0000e+00
       13  1    1    2    0    0 +1.0045928620e+03 -2.1932677940e+03 +1.4764976574e+03 2.8283698073e+03 0.0000000000e+00 0.0000e+00 -1.0000e+00
<mgrwt>
<rscale>  0 0.70346005E+04</rscale>
<asrwt>0</asrwt>
<pdfrwt beam="1">  1        2 0.38332815E+00 0.70346005E+04</pdfrwt>
<pdfrwt beam="2">  1       -2 0.76387352E+00 0.70346005E+04</pdfrwt>
<totfact> 0.26688854E-04</totfact>
</mgrwt>
<rwgt>
<wgt id='morphing_basis_vector_1'> +2.2846573e-07 </wgt>
<wgt id='morphing_basis_vector_2'> +1.5596547e-07 </wgt>
<wgt id='morphing_basis_vector_3'> +2.5254628e-07 </wgt>
<wgt id='morphing_basis_vector_4'> +1.8241966e-07 </wgt>
<wgt id='morphing_basis_vector_5'> +2.9160736e-07 </wgt>
</rwgt>
</event>
<event>
 4      1 +6.9060000e-13 6.85258700e+03 7.81860800e-03 7.17484900e-02
        2 -1    0    0  501    0 +0.0000000000e+00 +0.0000000000e+00 +4.1856881455e+03 4.1856881455e+03 0.0000000000e+00 0.0000e+00 -1.0000e+00
       -2 -1    0    0    0  501 -0.0000000000e+00 -0.0000000000e+00 -2.8046729512e+03 2.8046729512e+03 0.0000000000e+00 0.0000e+00 1.0000e+00
      -13  1    1    2    0    0 -2.2261591985e+03 -1.5462886653e+03 -1.4475061296e+03 3.0727947228e+03 0.0000000000e+00 0.0000e+00 1.0000e+00
       13  1    1    2    0    0 +2.2261591985e+03 +1.5462886653e+03 +2.8285213240e+03 3.9175663739e+03 0.0000000000e+00 0.0000e+00 -1.0000e+00
<mgrwt>
<rscale>  0 0.68525868E+04</rscale>
<asrwt>0</asrwt>
<pdfrwt beam="1">  1        2 0.64395202E+00 0.68525868E+04</pdfrwt>
<pdfrwt beam="2">  1       -2 0.43148815E+00 0.68525868E+04</pdfrwt>
<totfact> 0.54843219E-04</totfact>
</mgrwt>
<rwgt>
<wgt id='morphing_basis_vector_1'> +2.0603576e-07 </wgt>
<wgt id='morphing_basis_vector_2'> +1.4126085e-07 </wgt>
<wgt id='morphing_basis_vector_3'> +2.2786133e-07 </wgt>
<wgt id='morphing_basis_vector_4'> +1.6363955e-07 </wgt>
<wgt id='morphing_basis_vector_5'> +2.6248318e-07 </wgt>
</rwgt>
</event>
<event>
 4      1 +6.9060000e-13 7.52245500e+03 7.81860800e-03 7.11511400e-02
        2 -1    0    0  501    0 +0.0000000000e+00 +0.0000000000e+00 +4.3274403195e+03 4.3274403195e+03 0.0000000000e+00 0.0000e+00 1.0000e+00
       -2 -1    0    0    0  501 -0.0000000000e+00 -0.0000000000e+00 -3.2690991733e+03 3.2690991733e+03 0.0000000000e+00 0.0000e+00 -1.0000e+00
      -13  1    1    2    0    0 -9.3156257547e+02 -1.1648783593e+03 +4.0160124210e+03 4.2840525428e+03 0.0000000000e+00 0.0000e+00 1.0000e+00
       13  1    1    2    0    0 +9.3156257547e+02 +1.1648783593e+03 -2.9576712748e+03 3.3124869499e+03 0.0000000000e+00 0.0000e+00 -1.0000e+00
<mgrwt>
<rscale>  0 0.75224548E+04</rscale>
<asrwt>0</asrwt>
<pdfrwt beam="1">  1        2 0.66576005E+00 0.75224548E+04</pdfrwt>
<pdfrwt beam="2">  1       -2 0.50293833E+00 0.75224548E+04</pdfrwt>
<totfact> 0.11779753E-04</totfact>
</mgrwt>
<rwgt>
<wgt id='morphing_basis_vector_1'> +4.0722099e-07 </wgt>
<wgt id='morphing_basis_vector_2'> +5.2253660e-07 </wgt>
<wgt id='morphing_basis_vector_3'> +5.0845382e-07 </wgt>
<wgt id='morphing_basis_vector_4'> +5.5574366e-09 </wgt>
<wgt id='morphing_basis_vector_5'> +3.6180564e-07 </wgt>
</rwgt>
</event>
<event>
 4      1 +6.9060000e-13 6.76860900e+03 7.81860800e-03 7.18282200e-02
        2 -1    0    0  501    0 +0.0000000000e+00 +0.0000000000e+00 +3.1062824551e+03 3.1062824551e+03 0.0000000000e+00 0.0000e+00 -1.0000e+00
       -2 -1    0    0    0  501 -0.0000000000e+00 -0.0000000000e+00 -3.6872104711e+03 3.6872104711e+03 0.0000000000e+00 0.0000e+00 1.0000e+00
      -13  1    1    2    0    0 +1.3446453074e+03 -1.9716033336e+03 -2.6989164066e+03 3.6026990546e+03 0.0000000000e+00 0.0000e+00 1.0000e+00
       13  1    1    2    0    0 -1.3446453074e+03 +1.9716033336e+03 +2.1179883907e+03 3.1907938716e+03 0.0000000000e+00 0.0000e+00 -1.0000e+00
<mgrwt>
<rscale>  0 0.67686091E+04</rscale>
<asrwt>0</asrwt>
<pdfrwt beam="1">  1        2 0.47788961E+00 0.67686091E+04</pdfrwt>
<pdfrwt beam="2">  1       -2 0.56726315E+00 0.67686091E+04</pdfrwt>
<totfact> 0.39047027E-04</totfact>
</mgrwt>
<rwgt>
<wgt id='morphing_basis_vector_1'> +1.9590699e-07 </wgt>
<wgt id='morphing_basis_vector_2'> +1.3379145e-07 </wgt>
<wgt id='morphing_basis_vector_3'> +2.1651925e-07 </wgt>
<wgt id='morphing_basis_vector_4'> +1.5624504e-07 </wgt>
<wgt id='morphing_basis_vector_5'> +2.4987153e-07 </wgt>
</rwgt>
</event>
<event>
 4      1 +6.9060000e-13 7.04057900e+03 7.81860800e-03 7.15741300e-02
        2 -1    0    0  501    0 +0.0000000000e+00 +0.0000000000e+00 +3.7112730189e+03 3.7112730189e+03 0.0000000000e+00 0.0000e+00 1.0000e+00
       -2 -1    0    0    0  501 -0.0000000000e+00 -0.0000000000e+00 -3.3391343780e+03 3.3391343780e+03 0.0000000000e+00 0.0000e+00 -1.0000e+00
      -13  1    1    2    0    0 +6.7709645320e+02 -3.4409234243e+03 +4.9313347117e+02 3.5414113343e+03 0.0000000000e+00 0.0000e+00 -1.0000e+00
       13  1    1    2    0    0 -6.7709645320e+02 +3.4409234243e+03 -1.2099483023e+02 3.5089960626e+03 0.0000000000e+00 0.0000e+00 1.0000e+00
<mgrwt>
<rscale>  0 0.70405793E+04</rscale>
<asrwt>0</asrwt>
<pdfrwt beam="1">  1        2 0.57096508E+00 0.70405793E+04</pdfrwt>
<pdfrwt beam="2">  1       -2 0.51371298E+00 0.70405793E+04</pdfrwt>
<totfact> 0.34479955E-04</totfact>
</mgrwt>
<rwgt>
<wgt id='morphing_basis_vector_1'> +2.4049463e-07 </wgt>
<wgt id='morphing_basis_vector_2'> +1.8951375e-07 </wgt>
<wgt id='morphing_basis_vector_3'> +2.7184970e-07 </wgt>
<wgt id='morphing_basis_vector_4'> +1.5891164e-07 </wgt>
<wgt id='morphing_basis_vector_5'> +2.9056775e-07 </wgt>
</rwgt>
</event>
<event>
 4      1 +6.9060000e-13 7.35790700e+03 7.81860800e-03 7.12919000e-02
        2 -1    0    0  501    0 +0.0000000000e+00 +0.0000000000e+00 +3.3496198665e+03 3.3496198665e+03 0.0000000000e+00 0.0000e+00 -1.0000e+00
       -2 -1    0    0    0  501 -0.0000000000e+00 -0.0000000000e+00 -4.0406667329e+03 4.0406667329e+03 0.0000000000e+00 0.0000e+00 1.0000e+00
      -13  1    1    2    0    0 -8.5802732484e+02 +2.7022734327e+03 -2.7002390684e+03 3.9153267580e+03 0.0000000000e+00 0.0000e+00 1.0000e+00
       13  1    1    2    0    0 +8.5802732484e+02 -2.7022734327e+03 +2.0091922020e+03 3.4749598414e+03 0.0000000000e+00 0.0000e+00 -1.0000e+00
<mgrwt>
<rscale>  0 0.73579066E+04</rscale>
<asrwt>0</asrwt>
<pdfrwt beam="1">  1        2 0.51532614E+00 0.73579066E+04</pdfrwt>
<pdfrwt beam="2">  1       -2 0.62164103E+00 0.73579066E+04</pdfrwt>
<totfact> 0.80455718E-05</totfact>
</mgrwt>
<rwgt>
<wgt id='morphing_basis_vector_1'> +2.7364208e-07 </wgt>
<wgt id='morphing_basis_vector_2'> +1.8744306e-07 </wgt>
<wgt id='morphing_basis_vector_3'> +3.0270910e-07 </wgt>
<wgt id='morphing_basis_vector_4'> +2.1782105e-07 </wgt>
<wgt id='morphing_basis_vector_5'> +3.4907339e-07 </wgt>
</rwgt>
</event>
<event>
 4      1 +6.9060000e-13 6.67858900e+03 7.81860800e-03 7.19149800e-02
        2 -1    0    0  501    0 +0.0000000000e+00 +0.0000000000e+00 +3.4988828315e+03 3.4988828315e+03 0.0000000000e+00 0.0000e+00 -1.0000e+00
       -2 -1    0    0    0  501 -0.0000000000e+00 -0.0000000000e+00 -3.1869847697e+03 3.1869847697e+03 0.0000000000e+00 0.0000e+00 1.0000e+00
      -13  1    1    2    0    0 -2.8934893083e+03 -1.1728032617e+03 -1.0298834508e+03 3.2876143006e+03 0.0000000000e+00 0.0000e+00 1.0000e+00
       13  1    1    2    0    0 +2.8934893083e+03 +1.1728032617e+03 +1.3417815125e+03 3.3982533006e+03 0.0000000000e+00 0.0000e+00 -1.0000e+00
<mgrwt>
<rscale>  0 0.66785886E+04</rscale>
<asrwt>0</asrwt>
<pdfrwt beam="1">  1        2 0.53828967E+00 0.66785886E+04</pdfrwt>
<pdfrwt beam="2">  1       -2 0.49030535E+00 0.66785886E+04</pdfrwt>
<totfact> 0.76697526E-04</totfact>
</mgrwt>
<rwgt>
<wgt id='morphing_basis_vector_1'> +1.8716865e-07 </wgt>
<wgt id='morphing_basis_vector_2'> +1.3110249e-07 </wgt>
<wgt id='morphing_basis_vector_3'> +2.0761925e-07 </wgt>
<wgt id='morphing_basis_vector_4'> +1.4495625e-07 </wgt>
<wgt id='morphing_basis_vector_5'> +2.3655585e-07 </wgt>
</rwgt>
</event>
<event>
 4      1 +6.9060000e-13 6.75803700e+03 7.81860800e-03 7.18383400e-02
        2 -1    0    0  501    0 +0.0000000000e+00 +0.0000000000e+00 +3.0947353380e+03 3.0947353380e+03 0.0000000000e+00 0.0000e+00 1.0000e+00
       -2 -1    0    0    0  501 -0.0000000000e+00 -0.0000000000e+00 -3.6894162722e+03 3.6894162722e+03 0.0000000000e+00 0.0000e+00 -1.0000e+00
      -13  1    1    2    0    0 -2.9271683455e+03 -4.8657563326e+02 -1.9199702691e+03 3.5343112772e+03 0.0000000000e+00 0.0000e+00 1.0000e+00
       13  1    1    2    0    0 +2.9271683455e+03 +4.8657563326e+02 +1.3252893349e+03 3.2498403331e+03 0.0000000000e+00 0.0000e+00 -1.0000e+00
<mgrwt>
<rscale>  0 0.67580373E+04</rscale>
<asrwt>0</asrwt>
<pdfrwt beam="1">  1        2 0.47611313E+00 0.67580373E+04</pdfrwt>
<pdfrwt beam="2">  1       -2 0.56760250E+00 0.67580373E+04</pdfrwt>
<totfact> 0.39548185E-04</totfact>
</mgrwt>
<rwgt>
<wgt id='morphing_basis_vector_1'> +1.9543490e-07 </wgt>
<wgt id='morphing_basis_vector_2'> +1.3514959e-07 </wgt>
<wgt id='morphing_basis_vector_3'> +2.1639287e-07 </wgt>
<wgt id='morphing_basis_vector_4'> +1.5366898e-07 </wgt>
<wgt id='morphing_basis_vector_5'> +2.4817657e-07 </wgt>
</rwgt>
</event>
<event>
 4      1 +6.9060000e-13 6.89550300e+03 7.81860800e-03 7.17082000e-02
        2 -1    0    0  501    0 +0.0000000000e+00 +0.0000000000e+00 +4.4598214461e+03 4.4598214461e+03 0.0000000000e+00 0.0000e+00 1.0000e+00
       -2 -1    0    0    0  501 -0.0000000000e+00 -0.0000000000e+00 -2.6653512623e+03 2.6653512623e+03 0.0000000000e+00 0.0000e+00 -1.0000e+00
      -13  1    1    2    0    0 +1.6634467795e+03 -1.8715785776e+02 -2.2172746411e+03 2.7781990724e+03 0.0000000000e+00 0.0000e+00 -1.0000e+00
       13  1    1    2    0    0 -1.6634467795e+03 +1.8715785776e+02 +4.0117448249e+03 4.3469736360e+03 0.0000000000e+00 0.0000e+00 1.0000e+00
<mgrwt>
<rscale>  0 0.68955031E+04</rscale>
<asrwt>0</asrwt>
<pdfrwt beam="1">  1        2 0.68612638E+00 0.68955031E+04</pdfrwt>
<pdfrwt beam="2">  1       -2 0.41005404E+00 0.68955031E+04</pdfrwt>
<totfact> 0.41311872E-04</totfact>
</mgrwt>
<rwgt>
<wgt id='morphing_basis_vector_1'> +2.1077852e-07 </wgt>
<wgt id='morphing_basis_vector_2'> +1.4348601e-07 </wgt>
<wgt id='morphing_basis_vector_3'> +2.3287211e-07 </wgt>
<wgt id='morphing_basis_vector_4'> +1.6876670e-07 </wgt>
<wgt id='morphing_basis_vector_5'> +2.6921475e-07 </wgt>
</rwgt>
</event>
<event>
 4      1 +6.9060000e-13 7.63164000e+03 7.81860800e-03 7.10597100e-02
        2 -1    0    0  501    0 +0.0000000000e+00 +0.0000000000e+00 +4.9974246254e+03 4.9974246254e+03 0.0000000000e+00 0.0000e+00 1.0000e+00
       -2 -1    0    0    0  501 -0.0000000000e+00 -0.0000000000e+00 -2.9135974405e+03 2.9135974405e+03 0.0000000000e+00 0.0000e+00 -1.0000e+00
      -13  1    1    2    0    0 -3.8067734885e+03 -1.9818709449e+02 +8.6332465523e+02 3.9084692627e+03 0.0000000000e+00 0.0000e+00 -1.0000e+00
       13  1    1    2    0    0 +3.8067734885e+03 +1.9818709449e+02 +1.2205025297e+03 4.0025528032e+03 0.0000000000e+00 0.0000e+00 1.0000e+00
<mgrwt>
<rscale>  0 0.76316403E+04</rscale>
<asrwt>0</asrwt>
<pdfrwt beam="1">  1        2 0.76883456E+00 0.76316403E+04</pdfrwt>
<pdfrwt beam="2">  1       -2 0.44824576E+00 0.76316403E+04</pdfrwt>
<totfact> 0.51395467E-05</totfact>
</mgrwt>
<rwgt>
<wgt id='morphing_basis_vector_1'> +3.2587053e-07 </wgt>
<wgt id='morphing_basis_vector_2'> +2.4404087e-07 </wgt>
<wgt id='morphing_basis_vector_3'> +3.6550584e-07 </wgt>
<wgt id='morphing_basis_vector_4'> +2.3229323e-07 </wgt>
<wgt id='morphing_basis_vector_5'> +4.0239956e-07 </wgt>
</rwgt>
</event>
<event>
 4      1 +6.9060000e-13 7.26125900e+03 7.81860800e-03 7.13763200e-02
        2 -1    0    0  501    0 +0.0000000000e+00 +0.0000000000e+00 +4.4296642182e+03 4.4296642182e+03 0.0000000000e+00 0.0000e+00 1.0000e+00
       -2 -1    0    0    0  501 -0.0000000000e+00 -0.0000000000e+00 -2.9757268507e+03 2.9757268507e+03 0.0000000000e+00 0.0000e+00 -1.0000e+00
      -13  1    1    2    0    0 +1.1436530006e+03 +3.4449888985e+03 +8.0315121461e+02 3.7176528307e+03 0.0000000000e+00 0.0000e+00 1.0000e+00
       13  1    1    2    0    0 -1.1436530006e+03 -3.4449888985e+03 +6.5078615286e+02 3.6877382381e+03 0.0000000000e+00 0.0000e+00 -1.0000e+00
<mgrwt>
<rscale>  0 0.72612591E+04</rscale>
<asrwt>0</asrwt>
<pdfrwt beam="1">  1        2 0.68148680E+00 0.72612591E+04</pdfrwt>
<pdfrwt beam="2">  1       -2 0.45780413E+00 0.72612591E+04</pdfrwt>
<totfact> 0.20454450E-04</totfact>
</mgrwt>
<rwgt>
<wgt id='morphing_basis_vector_1'> +2.6932187e-07 </wgt>
<wgt id='morphing_basis_vector_2'> +2.0641561e-07 </wgt>
<wgt id='morphing_basis_vector_3'> +3.0311587e-07 </wgt>
<wgt id='morphing_basis_vector_4'> +1.8565691e-07 </wgt>
<wgt id='morphing_basis_vector_5'> +3.2930058e-07 </wgt>
</rwgt>
</event>
<event>
 4      1 +6.9060000e-13 6.93982800e+03 7.81860800e-03 7.16668800e-02
        2 -1    0    0  501    0 +0.0000000000e+00 +0.0000000000e+00 +4.4556348501e+03 4.4556348501e+03 0.0000000000e+00 0.0000e+00 -1.0000e+00
       -2 -1    0    0    0  501 -0.0000000000e+00 -0.0000000000e+00 -2.7022645909e+03 2.7022645909e+03 0.0000000000e+00 0.0000e+00 1.0000e+00
      -13  1    1    2    0    0 +1.5508747575e+03 -1.8505250677e+03 -1.6937423156e+03 2.9493081513e+03 0.0000000000e+00 0.0000e+00 1.0000e+00
       13  1    1    2    0    0 -1.5508747575e+03 +1.8505250677e+03 +3.4471125748e+03 4.2085912896e+03 0.0000000000e+00 0.0000e+00 -1.0000e+00
<mgrwt>
<rscale>  0 0.69398283E+04</rscale>
<asrwt>0</asrwt>
<pdfrwt beam="1">  1        2 0.68548228E+00 0.69398283E+04</pdfrwt>
<pdfrwt beam="2">  1       -2 0.41573301E+00 0.69398283E+04</pdfrwt>
<totfact> 0.38147917E-04</totfact>
</mgrwt>
<rwgt>
<wgt id='morphing_basis_vector_1'> +2.1643840e-07 </wgt>
<wgt id='morphing_basis_vector_2'> +1.4778748e-07 </wgt>
<wgt id='morphing_basis_vector_3'> +2.3924041e-07 </wgt>
<wgt id='morphing_basis_vector_4'> +1.7273235e-07 </wgt>
<wgt id='morphing_basis_vector_5'> +2.7618004e-07 </wgt>
</rwgt>
</event>
<event>
 4      1 +6.9060000e-13 6.95188600e+03 7.81860800e-03 7.16557000e-02
        2 -1    0    0  501    0 +0.0000000000e+00 +0.0000000000e+00 +3.5508869412e+03 3.5508869412e+03 0.0000000000e+00 0.0000e+00 1.0000e+00
       -2 -1    0    0    0  501 -0.0000000000e+00 -0.0000000000e+00 -3.4025806599e+03 3.4025806599e+03 0.0000000000e+00 0.0000e+00 -1.0000e+00
      -13  1    1    2    0    0 +1.6185508372e+03 -2.5189844542e+03 -1.6918050680e+03 3.4390687520e+03 0.0000000000e+00 0.0000e+00 -1.0000e+00
       13  1    1    2    0    0 -1.6185508372e+03 +2.5189844542e+03 +1.8401113493e+03 3.5143988491e+03 0.0000000000e+00 0.0000e+00 1.0000e+00
<mgrwt>
<rscale>  0 0.69518859E+04</rscale>
<asrwt>0</asrwt>
<pdfrwt beam="1">  1        2 0.54629030E+00 0.69518859E+04</pdfrwt>
<pdfrwt beam="2">  1       -2 0.52347395E+00 0.69518859E+04</pdfrwt>
<totfact> 0.38923995E-04</totfact>
</mgrwt>
<rwgt>
<wgt id='morphing_basis_vector_1'> +2.1864209e-07 </wgt>
<wgt id='morphing_basis_vector_2'> +1.5086513e-07 </wgt>
<wgt id='morphing_basis_vector_3'> +2.4205126e-07 </wgt>
<wgt id='morphing_basis_vector_4'> +1.7244102e-07 </wgt>
<wgt id='morphing_basis_vector_5'> +2.7798145e-07 </wgt>
</rwgt>
</event>
<event>
 4      1 +6.9060000e-13 6.93586000e+03 7.81860800e-03 7.16705700e-02
        2 -1    0    0  501    0 +0.0000000000e+00 +0.0000000000e+00 +3.9213532259e+03 3.9213532259e+03 0.0000000000e+00 0.0000e+00 -1.0000e+00
       -2 -1    0    0    0  501 -0.0000000000e+00 -0.0000000000e+00 -3.0669357747e+03 3.0669357747e+03 0.0000000000e+00 0.0000e+00 1.0000e+00
      -13  1    1    2    0    0 +3.0771422429e+03 -2.6644389976e+02 -1.1616521907e+03 3.2998837171e+03 0.0000000000e+00 0.0000e+00 1.0000e+00
       13  1    1    2    0    0 -3.0771422429e+03 +2.6644389976e+02 +2.0160696418e+03 3.6884052835e+03 0.0000000000e+00 0.0000e+00 -1.0000e+00
<mgrwt>
<rscale>  0 0.69358600E+04</rscale>
<asrwt>0</asrwt>
<pdfrwt beam="1">  1        2 0.60328511E+00 0.69358600E+04</pdfrwt>
<pdfrwt beam="2">  1       -2 0.47183627E+00 0.69358600E+04</pdfrwt>
<totfact> 0.48266642E-04</totfact>
</mgrwt>
<rwgt>
<wgt id='morphing_basis_vector_1'> +2.1692839e-07 </wgt>
<wgt id='morphing_basis_vector_2'> +1.5033668e-07 </wgt>
<wgt id='morphing_basis_vector_3'> +2.4030572e-07 </wgt>
<wgt id='morphing_basis_vector_4'> +1.7022778e-07 </wgt>
<wgt id='morphing_basis_vector_5'> +2.7537010e-07 </wgt>
</rwgt>
</event>
<event>
 4      1 +6.9060000e-13 6.74011100e+03 7.81860800e-03 7.18555400e-02
        2 -1    0    0  501    0 +0.0000000000e+00 +0.0000000000e+00 +1.9833930386e+03 1.9833930386e+03 0.0000000000e+00 0.0000e+00 1.0000e+00
       -2 -1    0    0    0  501 -0.0000000000e+00 -0.0000000000e+00 -5.7261846008e+03 5.7261846008e+03 0.0000000000e+00 0.0000e+00 -1.0000e+00
      -13  1    1    2    0    0 -2.9445191843e+03 -1.6081016041e+03 -1.5077160624e+03 3.6782321461e+03 0.0000000000e+00 0.0000e+00 -1.0000e+00
       13  1    1    2    0    0 +2.9445191843e+03 +1.6081016041e+03 -2.2350754998e+03 4.0313454933e+03 0.0000000000e+00 0.0000e+00 1.0000e+00
<mgrwt>
<rscale>  0 0.67401112E+04</rscale>
<asrwt>0</asrwt>
<pdfrwt beam="1">  1        2 0.30513739E+00 0.67401112E+04</pdfrwt>
<pdfrwt beam="2">  1       -2 0.88095147E+00 0.67401112E+04</pdfrwt>
<totfact> 0.17182566E-04</totfact>
</mgrwt>
<rwgt>
<wgt id='morphing_basis_vector_1'> +2.0230158e-07 </wgt>
<wgt id='morphing_basis_vector_2'> +1.5992241e-07 </wgt>
<wgt id='morphing_basis_vector_3'> +2.2872706e-07 </wgt>
<wgt id='morphing_basis_vector_4'> +1.3290762e-07 </wgt>
<wgt id='morphing_basis_vector_5'> +2.4393730e-07 </wgt>
</rwgt>
</event>
<event>
 4      1 +6.9060000e-13 7.15357000e+03 7.81860800e-03 7.14719500e-02
        2 -1    0    0  501    0 +0.0000000000e+00 +0.0000000000e+00 +4.4363764514e+03 4.4363764514e+03 0.0000000000e+00 0.0000e+00 -1.0000e+00
       -2 -1    0    0    0  501 -0.0000000000e+00 -0.0000000000e+00 -2.8837476969e+03 2.8837476969e+03 0.0000000000e+00 0.0000e+00 1.0000e+00
      -13  1    1    2    0    0 -2.3280097041e+03 +8.3496791976e+02 -1.8677557601e+03 3.0992438092e+03 0.0000000000e+00 0.0000e+00 1.0000e+00
       13  1    1    2    0    0 +2.3280097041e+03 -8.3496791976e+02 +3.4203845146e+03 4.2208803391e+03 0.0000000000e+00 0.0000e+00 -1.0000e+00
<mgrwt>
<rscale>  0 0.71535698E+04</rscale>
<asrwt>0</asrwt>
<pdfrwt beam="1">  1        2 0.68251946E+00 0.71535698E+04</pdfrwt>
<pdfrwt beam="2">  1       -2 0.44365349E+00 0.71535698E+04</pdfrwt>
<totfact> 0.25483907E-04</totfact>
</mgrwt>
<rwgt>
<wgt id='morphing_basis_vector_1'> +2.4430202e-07 </wgt>
<wgt id='morphing_basis_vector_2'> +1.6681291e-07 </wgt>
<wgt id='morphing_basis_vector_3'> +2.7008557e-07 </wgt>
<wgt id='morphing_basis_vector_4'> +1.9507248e-07 </wgt>
<wgt id='morphing_basis_vector_5'> +3.1187100e-07 </wgt>
</rwgt>
</event>
<event>
 4      1 +6.9060000e-13 6.88304000e+03 7.81860800e-03 7.17198700e-02
        2 -1    0    0  501    0 +0.0000000000e+00 +0.0000000000e+00 +3.6735554680e+03 3.6735554680e+03 0.0000000000e+00 0.0000e+00 -1.0000e+00
       -2 -1    0    0    0  501 -0.0000000000e+00 -0.0000000000e+00 -3.2241412072e+03 3.2241412072e+03 0.0000000000e+00 0.0000e+00 1.0000e+00
      -13  1    1    2    0    0 +2.0886490188e+03 -1.6770147227e+03 -1.9407337463e+03 3.3077606591e+03 0.0000000000e+00 0.0000e+00 1.0000e+00
       13  1    1    2    0    0 -2.0886490188e+03 +1.6770147227e+03 +2.3901480071e+03 3.5899360161e+03 0.0000000000e+00 0.0000e+00 -1.0000e+00
<mgrwt>
<rscale>  0 0.68830405E+04</rscale>
<asrwt>0</asrwt>
<pdfrwt beam="1">  1        2 0.56516237E+00 0.68830405E+04</pdfrwt>
<pdfrwt beam="2">  1       -2 0.49602173E+00 0.68830405E+04</pdfrwt>
<totfact> 0.50599200E-04</totfact>
</mgrwt>
<rwgt>
<wgt id='morphing_basis_vector_1'> +2.0966744e-07 </wgt>
<wgt id='morphing_basis_vector_2'> +1.4364346e-07 </wgt>
<wgt id='morphing_basis_vector_3'> +2.3185843e-07 </wgt>
<wgt id='morphing_basis_vector_4'> +1.6667764e-07 </wgt>
<wgt id='morphing_basis_vector_5'> +2.6719719e-07 </wgt>
</rwgt>
</event>
<event>
 4      1 +6.9060000e-13 7.22430500e+03 7.81860800e-03 7.14089500e-02
        2 -1    0    0  501    0 +0.0000000000e+00 +0.0000000000e+00 +2.5468340591e+03 2.5468340591e+03 0.0000000000e+00 0.0000e+00 1.0000e+00
       -2 -1    0    0    0  501 -0.0000000000e+00 -0.0000000000e+00 -5.1230839160e+03 5.1230839160e+03 0.0000000000e+00 0.0000e+00 -1.0000e+00
      -13  1    1    2    0    0 +1.6876147086e+03 -9.8082782813e+02 -4.5149373718e+03 4.9188134854e+03 0.0000000000e+00 0.0000e+00 -1.0000e+00
       13  1    1    2    0    0 -1.6876147086e+03 +9.8082782813e+02 +1.9386875149e+03 2.7511044898e+03 0.0000000000e+00 0.0000e+00 1.0000e+00
<mgrwt>
<rscale>  0 0.72243047E+04</rscale>
<asrwt>0</asrwt>
<pdfrwt beam="1">  1        2 0.39182063E+00 0.72243047E+04</pdfrwt>
<pdfrwt beam="2">  1       -2 0.78816675E+00 0.72243047E+04</pdfrwt>
<totfact> 0.25115397E-04</totfact>
</mgrwt>
<rwgt>
<wgt id='morphing_basis_vector_1'> +2.5390114e-07 </wgt>
<wgt id='morphing_basis_vector_2'> +1.7294190e-07 </wgt>
<wgt id='morphing_basis_vector_3'> +2.8061176e-07 </wgt>
<wgt id='morphing_basis_vector_4'> +2.0332681e-07 </wgt>
<wgt id='morphing_basis_vector_5'> +3.2444461e-07 </wgt>
</rwgt>
</event>
<event>
 4      1 +6.9060000e-13 7.19856500e+03 7.81860800e-03 7.14317900e-02
        2 -1    0    0  501    0 +0.0000000000e+00 +0.0000000000e+00 +5.0793074945e+03 5.0793074945e+03 0.0000000000e+00 0.0000e+00 -1.0000e+00
       -2 -1    0    0    0  501 -0.0000000000e+00 -0.0000000000e+00 -2.5505117754e+03 2.5505117754e+03 0.0000000000e+00 0.0000e+00 1.0000e+00
      -13  1    1    2    0    0 -2.5574510404e+03 +1.0414529473e+03 -1.1825111718e+03 3.0039162333e+03 0.0000000000e+00 0.0000e+00 1.0000e+00
       13  1    1    2    0    0 +2.5574510404e+03 -1.0414529473e+03 +3.7113068909e+03 4.6259030366e+03 0.0000000000e+00 0.0000e+00 -1.0000e+00
<mgrwt>
<rscale>  0 0.71985647E+04</rscale>
<asrwt>0</asrwt>
<pdfrwt beam="1">  1        2 0.78143192E+00 0.71985647E+04</pdfrwt>
<pdfrwt beam="2">  1       -2 0.39238643E+00 0.71985647E+04</pdfrwt>
<totfact> 0.96705018E-05</totfact>
</mgrwt>
<rwgt>
<wgt id='morphing_basis_vector_1'> +2.5071750e-07 </wgt>
<wgt id='morphing_basis_vector_2'> +1.7169473e-07 </wgt>
<wgt id='morphing_basis_vector_3'> +2.7730651e-07 </wgt>
<wgt id='morphing_basis_vector_4'> +1.9956082e-07 </wgt>
<wgt id='morphing_basis_vector_5'> +3.1976423e-07 </wgt>
</rwgt>
</event>
<event>
 4      1 +6.9060000e-13 6.72951500e+03 7.81860800e-03 7.18657300e-02
        2 -1    0    0  501    0 +0.0000000000e+00 +0.0000000000e+00 +4.2456296588e+03 4.2456296588e+03 0.0000000000e+00 0.0000e+00 -1.0000e+00
       -2 -1    0    0    0  501 -0.0000000000e+00 -0.0000000000e+00 -2.6666464026e+03 2.6666464026e+03 0.0000000000e+00 0.0000e+00 1.0000e+00
      -13  1    1    2    0    0 -3.0770970629e+03 +1.3497126378e+03 +6.0764542167e+02 3.4145985852e+03 0.0000000000e+00 0.0000e+00 1.0000e+00
       13  1    1    2    0    0 +3.0770970629e+03 -1.3497126378e+03 +9.7133783455e+02 3.4976774763e+03 0.0000000000e+00 0.0000e+00 -1.0000e+00
<mgrwt>
<rscale>  0 0.67295150E+04</rscale>
<asrwt>0</asrwt>
<pdfrwt beam="1">  1        2 0.65317380E+00 0.67295150E+04</pdfrwt>
<pdfrwt beam="2">  1       -2 0.41025329E+00 0.67295150E+04</pdfrwt>
<totfact> 0.67437752E-04</totfact>
</mgrwt>
<rwgt>
<wgt id='morphing_basis_vector_1'> +1.9701585e-07 </wgt>
<wgt id='morphing_basis_vector_2'> +1.4712680e-07 </wgt>
<wgt id='morphing_basis_vector_3'> +2.2071092e-07 </wgt>
<wgt id='morphing_basis_vector_4'> +1.4068516e-07 </wgt>
<wgt id='morphing_basis_vector_5'> +2.4312987e-07 </wgt>
</rwgt>
</event>
<event>
 4      1 +6.9060000e-13 6.79174700e+03 7.81860800e-03 7.18061400e-02
        2 -1    0    0  501    0 +0.0000000000e+00 +0.0000000000e+00 +2.0214429560e+03 2.0214429560e+03 0.0000000000e+00 0.0000e+00 -1.0000e+00
       -2 -1    0    0    0  501 -0.0000000000e+00 -0.0000000000e+00 -5.7048136992e+03 5.7048136992e+03 0.0000000000e+00 0.0000e+00 1.0000e+00
      -13  1    1    2    0    0 -2.0757535344e+03 +3.8425301074e+02 -4.8676777592e+03 5.3057223712e+03 0.0000000000e+00 0.0000e+00 1.0000e+00
       13  1    1    2    0    0 +2.0757535344e+03 -3.8425301074e+02 +1.1843070161e+03 2.4205342841e+03 0.0000000000e+00 0.0000e+00 -1.0000e+00
<mgrwt>
<rscale>  0 0.67917466E+04</rscale>
<asrwt>0</asrwt>
<pdfrwt beam="1">  1        2 0.31099123E+00 0.67917466E+04</pdfrwt>
<pdfrwt beam="2">  1       -2 0.87766363E+00 0.67917466E+04</pdfrwt>
<totfact> 0.17579019E-04</totfact>
</mgrwt>
<rwgt>
<wgt id='morphing_basis_vector_1'> +1.9847987e-07 </wgt>
<wgt id='morphing_basis_vector_2'> +1.3529221e-07 </wgt>
<wgt id='morphing_basis_vector_3'> +2.1930676e-07 </wgt>
<wgt id='morphing_basis_vector_4'> +1.5864201e-07 </wgt>
<wgt id='morphing_basis_vector_5'> +2.5333237e-07 </wgt>
</rwgt>
</event>
<event>
 4      1 +6.9060000e-13 6.79097600e+03 7.81860800e-03 7.18068700e-02
        2 -1    0    0  501    0 +0.0000000000e+00 +0.0000000000e+00 +4.8346619308e+03 4.8346619308e+03 0.0000000000e+00 0.0000e+00 1.0000e+00
       -2 -1    0    0    0  501 -0.0000000000e+00 -0.0000000000e+00 -2.3847252458e+03 2.3847252458e+03 0.0000000000e+00 0.0000e+00 -1.0000e+00
      -13  1    1    2    0    0 +1.3997377579e+03 -2.1401390901e+03 -1.1497555721e+03 2.8038186445e+03 0.0000000000e+00 0.0000e+00 -1.0000e+00
       13  1    1    2    0    0 -1.3997377579e+03 +2.1401390901e+03 +3.5996922571e+03 4.4155685321e+03 0.0000000000e+00 0.0000e+00 1.0000e+00
<mgrwt>
<rscale>  0 0.67909765E+04</rscale>
<asrwt>0</asrwt>
<pdfrwt beam="1">  1        2 0.74379414E+00 0.67909765E+04</pdfrwt>
<pdfrwt beam="2">  1       -2 0.36688081E+00 0.67909765E+04</pdfrwt>
<totfact> 0.30398191E-04</totfact>
</mgrwt>
<rwgt>
<wgt id='morphing_basis_vector_1'> +1.9861414e-07 </wgt>
<wgt id='morphing_basis_vector_2'> +1.3588854e-07 </wgt>
<wgt id='morphing_basis_vector_3'> +2.1957438e-07 </wgt>
<wgt id='morphing_basis_vector_4'> +1.5808960e-07 </wgt>
<wgt id='morphing_basis_vector_5'> +2.5317681e-07 </wgt>
</rwgt>
</event>
<event>
 4      1 +6.9060000e-13 7.76182500e+03 7.81860800e-03 7.09526800e-02
        2 -1    0    0  501    0 +0.0000000000e+00 +0.0000000000e+00 +4.3970111855e+03 4.3970111855e+03 0.0000000000e+00 0.0000e+00 -1.0000e+00
       -2 -1    0    0    0  501 -0.0000000000e+00 -0.0000000000e+00 -3.4253911009e+03 3.4253911009e+03 0.0000000000e+00 0.0000e+00 1.0000e+00
      -13  1    1    2    0    0 +2.0158494296e+03 +1.3139413947e+02 -2.8537458684e+03 3.4963951184e+03 0.0000000000e+00 0.0000e+00 1.0000e+00
       13  1    1    2    0    0 -2.0158494296e+03 -1.3139413947e+02 +3.8253659530e+03 4.3260071679e+03 0.0000000000e+00 0.0000e+00 -1.0000e+00
<mgrwt>
<rscale>  0 0.77618253E+04</rscale>
<asrwt>0</asrwt>
<pdfrwt beam="1">  1        2 0.67646326E+00 0.77618253E+04</pdfrwt>
<pdfrwt beam="2">  1       -2 0.52698324E+00 0.77618253E+04</pdfrwt>
<totfact> 0.65640792E-05</totfact>
</mgrwt>
<rwgt>
<wgt id='morphing_basis_vector_1'> +3.3816717e-07 </wgt>
<wgt id='morphing_basis_vector_2'> +2.3036061e-07 </wgt>
<wgt id='morphing_basis_vector_3'> +3.7388130e-07 </wgt>
<wgt id='morphing_basis_vector_4'> +2.7107857e-07 </wgt>
<wgt id='morphing_basis_vector_5'> +4.3250479e-07 </wgt>
</rwgt>
</event>
<event>
 4      1 +6.9060000e-13 7.06595400e+03 7.81860800e-03 7.15510200e-02
        2 -1    0    0  501    0 +0.0000000000e+00 +0.0000000000e+00 +3.9924272693e+03 3.9924272693e+03 0.0000000000e+00 0.0000e+00 -1.0000e+00
       -2 -1    0    0    0  501 -0.0000000000e+00 -0.0000000000e+00 -3.1264005703e+03 3.1264005703e+03 0.0000000000e+00 0.0000e+00 1.0000e+00
      -13  1    1    2    0    0 +1.2843175845e+03 -3.0093621668e+03 -9.0969889029e+02 3.3960689598e+03 0.0000000000e+00 0.0000e+00 1.0000e+00
       13  1    1    2    0    0 -1.2843175845e+03 +3.0093621668e+03 +1.7757255893e+03 3.7227588798e+03 0.0000000000e+00 0.0000e+00 -1.0000e+00
<mgrwt>
<rscale>  0 0.70659541E+04</rscale>
<asrwt>0</asrwt>
<pdfrwt beam="1">  1        2 0.61421958E+00 0.70659541E+04</pdfrwt>
<pdfrwt beam="2">  1       -2 0.48098471E+00 0.70659541E+04</pdfrwt>
<totfact> 0.35688171E-04</totfact>
</mgrwt>
<rwgt>
<wgt id='morphing_basis_vector_1'> +2.3422370e-07 </wgt>
<wgt id='morphing_basis_vector_2'> +1.6364651e-07 </wgt>
<wgt id='morphing_basis_vector_3'> +2.5980670e-07 </wgt>
<wgt id='morphing_basis_vector_4'> +1.8212959e-07 </wgt>
<wgt id='morphing_basis_vector_5'> +2.9654862e-07 </wgt>
</rwgt>
</event>
<event>
 4      1 +6.9060000e-13 7.30227500e+03 7.81860800e-03 7.13403400e-02
        2 -1    0    0  501    0 +0.0000000000e+00 +0.0000000000e+00 +4.1441350194e+03 4.1441350194e+03 0.0000000000e+00 0.0000e+00 -1.0000e+00
       -2 -1    0    0    0  501 -0.0000000000e+00 -0.0000000000e+00 -3.2167881185e+03 3.2167881185e+03 0.0000000000e+00 0.0000e+00 1.0000e+00
      -13  1    1    2    0    0 -2.4625631674e+03 -1.8705667573e+03 -1.4929380409e+03 3.4339629208e+03 0.0000000000e+00 0.0000e+00 1.0000e+00
       13  1    1    2    0    0 +2.4625631674e+03 +1.8705667573e+03 +2.4202849418e+03 3.9269602171e+03 0.0000000000e+00 0.0000e+00 -1.0000e+00
<mgrwt>
<rscale>  0 0.73022748E+04</rscale>
<asrwt>0</asrwt>
<pdfrwt beam="1">  1        2 0.63755924E+00 0.73022748E+04</pdfrwt>
<pdfrwt beam="2">  1       -2 0.49489048E+00 0.73022748E+04</pdfrwt>
<totfact> 0.20369059E-04</totfact>
</mgrwt>
<rwgt>
<wgt id='morphing_basis_vector_1'> +2.6594581e-07 </wgt>
<wgt id='morphing_basis_vector_2'> +1.8323175e-07 </wgt>
<wgt id='morphing_basis_vector_3'> +2.9443549e-07 </wgt>
<wgt id='morphing_basis_vector_4'> +2.1028196e-07 </wgt>
<wgt id='morphing_basis_vector_5'> +3.3853453e-07 </wgt>
</rwgt>
</event>
<event>
 4      1 +6.9060000e-13 6.72700200e+03 7.81860800e-03 7.18681500e-02
        2 -1    0    0  501    0 +0.0000000000e+00 +0.0000000000e+00 +3.9425060331e+03 3.9425060331e+03 0.0000000000e+00 0.0000e+00 -1.0000e+00
       -2 -1    0    0    0  501 -0.0000000000e+00 -0.0000000000e+00 -2.8695295026e+03 2.8695295026e+03 0.0000000000e+00 0.0000e+00 1.0000e+00
      -13  1    1    2    0    0 +1.8011086100e+03 +9.2792216634e+02 -2.1822409189e+03 2.9777856202e+03 0.0000000000e+00 0.0000e+00 1.0000e+00
       13  1    1    2    0    0 -1.8011086100e+03 -9.2792216634e+02 +3.2552174494e+03 3.8342499155e+03 0.0000000000e+00 0.0000e+00 -1.0000e+00
<mgrwt>
<rscale>  0 0.67270015E+04</rscale>
<asrwt>0</asrwt>
<pdfrwt beam="1">  1        2 0.60653939E+00 0.67270015E+04</pdfrwt>
<pdfrwt beam="2">  1       -2 0.44146608E+00 0.67270015E+04</pdfrwt>
<totfact> 0.77197161E-04</totfact>
</mgrwt>
<rwgt>
<wgt id='morphing_basis_vector_1'> +1.9101531e-07 </wgt>
<wgt id='morphing_basis_vector_2'> +1.3016048e-07 </wgt>
<wgt id='morphing_basis_vector_3'> +2.1103628e-07 </wgt>
<wgt id='morphing_basis_vector_4'> +1.5270503e-07 </wgt>
<wgt id='morphing_basis_vector_5'> +2.4379652e-07 </wgt>
</rwgt>
</event>
<event>
 4      1 +6.9060000e-13 6.69491200e+03 7.81860800e-03 7.18991500e-02
        2 -1    0    0  501    0 +0.0000000000e+00 +0.0000000000e+00 +1.9571889696e+03 1.9571889696e+03 0.0000000000e+00 0.0000e+00 1.0000e+00
       -2 -1    0    0    0  501 -0.0000000000e+00 -0.0000000000e+00 -5.7252826920e+03 5.7252826920e+03 0.0000000000e+00 0.0000e+00 -1.0000e+00
      -13  1    1    2    0    0 -1.0496031145e+03 -2.7207482537e+03 -3.7700583407e+03 4.7662855191e+03 0.0000000000e+00 0.0000e+00 -1.0000e+00
       13  1    1    2    0    0 +1.0496031145e+03 +2.7207482537e+03 +1.9646182684e+00 2.9161861425e+03 0.0000000000e+00 0.0000e+00 1.0000e+00
<mgrwt>
<rscale>  0 0.66949115E+04</rscale>
<asrwt>0</asrwt>
<pdfrwt beam="1">  1        2 0.30110600E+00 0.66949115E+04</pdfrwt>
<pdfrwt beam="2">  1       -2 0.88081272E+00 0.66949115E+04</pdfrwt>
<totfact> 0.17890962E-04</totfact>
</mgrwt>
<rwgt>
<wgt id='morphing_basis_vector_1'> +1.8818796e-07 </wgt>
<wgt id='morphing_basis_vector_2'> +1.2999969e-07 </wgt>
<wgt id='morphing_basis_vector_3'> +2.0832380e-07 </wgt>
<wgt id='morphing_basis_vector_4'> +1.4812504e-07 </wgt>
<wgt id='morphing_basis_vector_5'> +2.3902801e-07 </wgt>
</rwgt>
</event>
<event>
 4      1 +6.9060000e-13 6.72771400e+03 7.81860800e-03 7.18674600e-02
        2 -1    0    0  501    0 +0.0000000000e+00 +0.0000000000e+00 +2.3837552025e+03 2.3837552025e+03 0.0000000000e+00 0.0000e+00 1.0000e+00
       -2 -1    0    0    0  501 -0.0000000000e+00 -0.0000000000e+00 -4.7469367834e+03 4.7469367834e+03 0.0000000000e+00 0.0000e+00 -1.0000e+00
      -13  1    1    2    0    0 +2.7512010504e+03 -1.5118044932e+03 -2.4626543864e+03 3.9899030906e+03 0.0000000000e+00 0.0000e+00 -1.0000e+00
       13  1    1    2    0    0 -2.7512010504e+03 +1.5118044932e+03 +9.9472805519e+01 3.1407888953e+03 0.0000000000e+00 0.0000e+00 1.0000e+00
<mgrwt>
<rscale>  0 0.67277144E+04</rscale>
<asrwt>0</asrwt>
<pdfrwt beam="1">  1        2 0.36673158E+00 0.67277144E+04</pdfrwt>
<pdfrwt beam="2">  1       -2 0.73029796E+00 0.67277144E+04</pdfrwt>
<totfact> 0.20676706E-04</totfact>
</mgrwt>
<rwgt>
<wgt id='morphing_basis_vector_1'> +1.9269136e-07 </wgt>
<wgt id='morphing_basis_vector_2'> +1.3489675e-07 </wgt>
<wgt id='morphing_basis_vector_3'> +2.1373791e-07 </wgt>
<wgt id='morphing_basis_vector_4'> +1.4935122e-07 </wgt>
<wgt id='morphing_basis_vector_5'> +2.4361206e-07 </wgt>
</rwgt>
</event>
<event>
 4      1 +6.9060000e-13 6.89330600e+03 7.81860800e-03 7.17102500e-02
        2 -1    0    0  501    0 +0.0000000000e+00 +0.0000000000e+00 +2.4901418848e+03 2.4901418848e+03 0.0000000000e+00 0.0000e+00 1.0000e+00
       -2 -1    0    0    0  501 -0.0000000000e+00 -0.0000000000e+00 -4.7705781379e+03 4.7705781379e+03 0.0000000000e+00 0.0000e+00 -1.0000e+00
      -13  1    1    2    0    0 +2.8220080839e+03 -6.8699727866e+02 +8.1441905367e+02 3.0164504441e+03 0.0000000000e+00 0.0000e+00 -1.0000e+00
       13  1    1    2    0    0 -2.8220080839e+03 +6.8699727866e+02 -3.0948553068e+03 4.2442695787e+03 0.0000000000e+00 0.0000e+00 1.0000e+00
<mgrwt>
<rscale>  0 0.68933059E+04</rscale>
<asrwt>0</asrwt>
<pdfrwt beam="1">  1        2 0.38309875E+00 0.68933059E+04</pdfrwt>
<pdfrwt beam="2">  1       -2 0.73393509E+00 0.68933059E+04</pdfrwt>
<totfact> 0.19110940E-04</totfact>
</mgrwt>
<rwgt>
<wgt id='morphing_basis_vector_1'> +2.5345574e-07 </wgt>
<wgt id='morphing_basis_vector_2'> +2.6932039e-07 </wgt>
<wgt id='morphing_basis_vector_3'> +3.0293582e-07 </wgt>
<wgt id='morphing_basis_vector_4'> +7.6485060e-08 </wgt>
<wgt id='morphing_basis_vector_5'> +2.6111306e-07 </wgt>
</rwgt>
</event>
<event>
 4      1 +6.9060000e-13 7.69516300e+03 7.81860800e-03 7.10072200e-02
        2 -1    0    0  501    0 +0.0000000000e+00 +0.0000000000e+00 +3.0356713424e+03 3.0356713424e+03 0.0000000000e+00 0.0000e+00 -1.0000e+00
       -2 -1    0    0    0  501 -0.0000000000e+00 -0.0000000000e+00 -4.8766419200e+03 4.8766419200e+03 0.0000000000e+00 0.0000e+00 1.0000e+00
      -13  1    1    2    0    0 -2.2160222173e+03 +1.3296061174e+03 -3.8514103134e+03 4.6380996429e+03 0.0000000000e+00 0.0000e+00 1.0000e+00
       13  1    1    2    0    0 +2.2160222173e+03 -1.3296061174e+03 +2.0104397359e+03 3.2742136196e+03 0.0000000000e+00 0.0000e+00 -1.0000e+00
<mgrwt>
<rscale>  0 0.76951627E+04</rscale>
<asrwt>0</asrwt>
<pdfrwt beam="1">  1        2 0.46702637E+00 0.76951627E+04</pdfrwt>
<pdfrwt beam="2">  1       -2 0.75025259E+00 0.76951627E+04</pdfrwt>
<totfact> 0.10602394E-04</totfact>
</mgrwt>
<rwgt>
<wgt id='morphing_basis_vector_1'> +3.2692639e-07 </wgt>
<wgt id='morphing_basis_vector_2'> +2.2317516e-07 </wgt>
<wgt id='morphing_basis_vector_3'> +3.6155113e-07 </wgt>
<wgt id='morphing_basis_vector_4'> +2.6141772e-07 </wgt>
<wgt id='morphing_basis_vector_5'> +4.1777925e-07 </wgt>
</rwgt>
</event>
<event>
 4      1 +6.9060000e-13 7.28366300e+03 7.81860800e-03 7.13566300e-02
        2 -1    0    0  501    0 +0.0000000000e+00 +0.0000000000e+00 +4.4934988648e+03 4.4934988648e+03 0.0000000000e+00 0.0000e+00 -1.0000e+00
       -2 -1    0    0    0  501 -0.0000000000e+00 -0.0000000000e+00 -2.9515837310e+03 2.9515837310e+03 0.0000000000e+00 0.0000e+00 1.0000e+00
      -13  1    1    2    0    0 -3.4609944404e+03 -8.1252439965e+02 +1.5785687269e+03 3.8898017485e+03 0.0000000000e+00 0.0000e+00 -1.0000e+00
       13  1    1    2    0    0 +3.4609944404e+03 +8.1252439965e+02 -3.6653593148e+01 3.5552808472e+03 0.0000000000e+00 0.0000e+00 1.0000e+00
<mgrwt>
<rscale>  0 0.72836634E+04</rscale>
<asrwt>0</asrwt>
<pdfrwt beam="1">  1        2 0.69130752E+00 0.72836634E+04</pdfrwt>
<pdfrwt beam="2">  1       -2 0.45408980E+00 0.72836634E+04</pdfrwt>
<totfact> 0.18671636E-04</totfact>
</mgrwt>
<rwgt>
<wgt id='morphing_basis_vector_1'> +2.8271325e-07 </wgt>
<wgt id='morphing_basis_vector_2'> +2.3848186e-07 </wgt>
<wgt id='morphing_basis_vector_3'> +3.2337024e-07 </wgt>
<wgt id='morphing_basis_vector_4'> +1.6638615e-07 </wgt>
<wgt id='morphing_basis_vector_5'> +3.3157046e-07 </wgt>
</rwgt>
</event>
<event>
 4      1 +6.9060000e-13 6.76236900e+03 7.81860800e-03 7.18341900e-02
        2 -1    0    0  501    0 +0.0000000000e+00 +0.0000000000e+00 +3.8954856309e+03 3.8954856309e+03 0.0000000000e+00 0.0000e+00 -1.0000e+00
       -2 -1    0    0    0  501 -0.0000000000e+00 -0.0000000000e+00 -2.9347842487e+03 2.9347842487e+03 0.0000000000e+00 0.0000e+00 1.0000e+00
      -13  1    1    2    0    0 +7.2395680017e+02 -1.3642451221e+03 -2.5576959057e+03 2.9878230449e+03 0.0000000000e+00 0.0000e+00 1.0000e+00
       13  1    1    2    0    0 -7.2395680017e+02 +1.3642451221e+03 +3.5183972880e+03 3.8424468347e+03 0.0000000000e+00 0.0000e+00 -1.0000e+00
<mgrwt>
<rscale>  0 0.67623694E+04</rscale>
<asrwt>0</asrwt>
<pdfrwt beam="1">  1        2 0.59930548E+00 0.67623694E+04</pdfrwt>
<pdfrwt beam="2">  1       -2 0.45150527E+00 0.67623694E+04</pdfrwt>
<totfact> 0.71787737E-04</totfact>
</mgrwt>
<rwgt>
<wgt id='morphing_basis_vector_1'> +1.9498380e-07 </wgt>
<wgt id='morphing_basis_vector_2'> +1.3270320e-07 </wgt>
<wgt id='morphing_basis_vector_3'> +2.1538946e-07 </wgt>
<wgt id='morphing_basis_vector_4'> +1.5610397e-07 </wgt>
<wgt id='morphing_basis_vector_5'> +2.4898650e-07 </wgt>
</rwgt>
</event>
<event>
 4      1 +6.9060000e-13 6.73450300e+03 7.81860800e-03 7.18609300e-02
        2 -1    0    0  501    0 +0.0000000000e+00 +0.0000000000e+00 +3.6233344064e+03 3.6233344064e+03 0.0000000000e+00 0.0000e+00 -1.0000e+00
       -2 -1    0    0    0  501 -0.0000000000e+00 -0.0000000000e+00 -3.1292674337e+03 3.1292674337e+03 0.0000000000e+00 0.0000e+00 1.0000e+00
      -13  1    1    2    0    0 -1.6534600686e+03 +9.4603814300e+02 -2.5370207408e+03 3.1726002909e+03 0.0000000000e+00 0.0000e+00 1.0000e+00
       13  1    1    2    0    0 +1.6534600686e+03 -9.4603814300e+02 +3.0310877134e+03 3.5800015493e+03 0.0000000000e+00 0.0000e+00 -1.0000e+00
<mgrwt>
<rscale>  0 0.67345029E+04</rscale>
<asrwt>0</asrwt>
<pdfrwt beam="1">  1        2 0.55743606E+00 0.67345029E+04</pdfrwt>
<pdfrwt beam="2">  1       -2 0.48142576E+00 0.67345029E+04</pdfrwt>
<totfact> 0.71783099E-04</totfact>
</mgrwt>
<rwgt>
<wgt id='morphing_basis_vector_1'> +1.9184100e-07 </wgt>
<wgt id='morphing_basis_vector_2'> +1.3066473e-07 </wgt>
<wgt id='morphing_basis_vector_3'> +2.1193616e-07 </wgt>
<wgt id='morphing_basis_vector_4'> +1.5344462e-07 </wgt>
<wgt id='morphing_basis_vector_5'> +2.4489242e-07 </wgt>
</rwgt>
</event>
<event>
 4      1 +6.9060000e-13 7.41681900e+03 7.81860800e-03 7.12410800e-02
        2 -1    0    0  501    0 +0.0000000000e+00 +0.0000000000e+00 +4.7571078895e+03 4.7571078895e+03 0.0000000000e+00 0.0000e+00 -1.0000e+00
       -2 -1    0    0    0  501 -0.0000000000e+00 -0.0000000000e+00 -2.8908953109e+03 2.8908953109e+03 0.0000000000e+00 0.0000e+00 1.0000e+00
      -13  1    1    2    0    0 +1.3448881757e+02 -1.5731180043e+03 -2.5270060030e+03 2.9796890504e+03 0.0000000000e+00 0.0000e+00 1.0000e+00
       13  1    1    2    0    0 -1.3448881757e+02 +1.5731180043e+03 +4.3932185816e+03 4.6683141500e+03 0.0000000000e+00 0.0000e+00 -1.0000e+00
<mgrwt>
<rscale>  0 0.74168190E+04</rscale>
<asrwt>0</asrwt>
<pdfrwt beam="1">  1        2 0.73186276E+00 0.74168190E+04</pdfrwt>
<pdfrwt beam="2">  1       -2 0.44475312E+00 0.74168190E+04</pdfrwt>
<totfact> 0.11023537E-04</totfact>
</mgrwt>
<rwgt>
<wgt id='morphing_basis_vector_1'> +2.8196402e-07 </wgt>
<wgt id='morphing_basis_vector_2'> +1.9194786e-07 </wgt>
<wgt id='morphing_basis_vector_3'> +3.1164367e-07 </wgt>
<wgt id='morphing_basis_vector_4'> +2.2603769e-07 </wgt>
<wgt id='morphing_basis_vector_5'> +3.6050135e-07 </wgt>
</rwgt>
</event>
<event>
 4      1 +6.9060000e-13 6.97765100e+03 7.81860800e-03 7.16318800e-02
        2 -1    0    0  501    0 +0.0000000000e+00 +0.0000000000e+00 +4.0804541202e+03 4.0804541202e+03 0.0000000000e+00 0.0000e+00 1.0000e+00
       -2 -1    0    0    0  501 -0.0000000000e+00 -0.0000000000e+00 -2.9829777430e+03 2.9829777430e+03 0.0000000000e+00 0.0000e+00 -1.0000e+00
      -13  1    1    2    0    0 -1.9640956151e+03 -5.8719832508e+02 -2.3089849320e+03 3.0876989611e+03 0.0000000000e+00 0.0000e+00 -1.0000e+00
       13  1    1    2    0    0 +1.9640956151e+03 +5.8719832508e+02 +3.4064613092e+03 3.9757329022e+03 0.0000000000e+00 0.0000e+00 1.0000e+00
<mgrwt>
<rscale>  0 0.69776511E+04</rscale>
<asrwt>0</asrwt>
<pdfrwt beam="1">  1        2 0.62776217E+00 0.69776511E+04</pdfrwt>
<pdfrwt beam="2">  1       -2 0.45891966E+00 0.69776511E+04</pdfrwt>
<totfact> 0.43622388E-04</totfact>
</mgrwt>
<rwgt>
<wgt id='morphing_basis_vector_1'> +2.2104552e-07 </wgt>
<wgt id='morphing_basis_vector_2'> +1.5061725e-07 </wgt>
<wgt id='morphing_basis_vector_3'> +2.4426569e-07 </wgt>
<wgt id='morphing_basis_vector_4'> +1.7683922e-07 </wgt>
<wgt id='morphing_basis_vector_5'> +2.8228595e-07 </wgt>
</rwgt>
</event>
<event>
 4      1 +6.9060000e-13 7.51268700e+03 7.81860800e-03 7.11593900e-02
        2 -1    0    0  501    0 +0.0000000000e+00 +0.0000000000e+00 +4.5092334431e+03 4.5092334431e+03 0.0000000000e+00 0.0000e+00 -1.0000e+00
       -2 -1    0    0    0  501 -0.0000000000e+00 -0.0000000000e+00 -3.1291609988e+03 3.1291609988e+03 0.0000000000e+00 0.0000e+00 1.0000e+00
      -13  1    1    2    0    0 +3.2140253021e+02 +3.6859838120e+03 +1.3492218636e+03 3.9382960638e+03 0.0000000000e+00 0.0000e+00 1.0000e+00
       13  1    1    2    0    0 -3.2140253021e+02 -3.6859838120e+03 +3.0850580675e+01 3.7000983780e+03 0.0000000000e+00 0.0000e+00 -1.0000e+00
<mgrwt>
<rscale>  0 0.75126872E+04</rscale>
<asrwt>0</asrwt>
<pdfrwt beam="1">  1        2 0.69372822E+00 0.75126872E+04</pdfrwt>
<pdfrwt beam="2">  1       -2 0.48140938E+00 0.75126872E+04</pdfrwt>
<totfact> 0.11217575E-04</totfact>
</mgrwt>
<rwgt>
<wgt id='morphing_basis_vector_1'> +3.1673218e-07 </wgt>
<wgt id='morphing_basis_vector_2'> +2.6052567e-07 </wgt>
<wgt id='morphing_basis_vector_3'> +3.6077276e-07 </wgt>
<wgt id='morphing_basis_vector_4'> +1.9520417e-07 </wgt>
<wgt id='morphing_basis_vector_5'> +3.7592561e-07 </wgt>
</rwgt>
</event>
<event>
 4      1 +6.9060000e-13 7.18133500e+03 7.81860800e-03 7.14471300e-02
        2 -1    0    0  501    0 +0.0000000000e+00 +0.0000000000e+00 +2.4768630222e+03 2.4768630222e+03 0.0000000000e+00 0.0000e+00 -1.0000e+00
       -2 -1    0    0    0  501 -0.0000000000e+00 -0.0000000000e+00 -5.2053321667e+03 5.2053321667e+03 0.0000000000e+00 0.0000e+00 1.0000e+00
      -13  1    1    2    0    0 +7.7755930868e+02 -1.9028460276e+03 +1.7851549527e+03 2.7225355257e+03 0.0000000000e+00 0.0000e+00 -1.0000e+00
       13  1    1    2    0    0 -7.7755930868e+02 +1.9028460276e+03 -4.5136240973e+03 4.9596596632e+03 0.0000000000e+00 0.0000e+00 1.0000e+00
<mgrwt>
<rscale>  0 0.71813355E+04</rscale>
<asrwt>0</asrwt>
<pdfrwt beam="1">  1        2 0.38105585E+00 0.71813355E+04</pdfrwt>
<pdfrwt beam="2">  1       -2 0.80082033E+00 0.71813355E+04</pdfrwt>
<totfact> 0.26605600E-04</totfact>
</mgrwt>
<rwgt>
<wgt id='morphing_basis_vector_1'> +3.3231855e-07 </wgt>
<wgt id='morphing_basis_vector_2'> +4.1649500e-07 </wgt>
<wgt id='morphing_basis_vector_3'> +4.1238086e-07 </wgt>
<wgt id='morphing_basis_vector_4'> +1.7501998e-08 </wgt>
<wgt id='morphing_basis_vector_5'> +3.0152151e-07 </wgt>
</rwgt>
</event>
<event>
 4      1 +6.9060000e-13 6.75260000e+03 7.81860800e-03 7.18435500e-02
        2 -1    0    0  501    0 +0.0000000000e+00 +0.0000000000e+00 +2.2750801350e+03 2.2750801350e+03 0.0000000000e+00 0.0000e+00 -1.0000e+00
       -2 -1    0    0    0  501 -0.0000000000e+00 -0.0000000000e+00 -5.0105502023e+03 5.0105502023e+03 0.0000000000e+00 0.0000e+00 1.0000e+00
      -13  1    1    2    0    0 -1.9363157018e+03 -2.4915337696e+03 -2.6635128356e+03 4.1293292007e+03 0.0000000000e+00 0.0000e+00 1.0000e+00
       13  1    1    2    0    0 +1.9363157018e+03 +2.4915337696e+03 -7.1957231708e+01 3.1563011366e+03 0.0000000000e+00 0.0000e+00 -1.0000e+00
<mgrwt>
<rscale>  0 0.67526005E+04</rscale>
<asrwt>0</asrwt>
<pdfrwt beam="1">  1        2 0.35001233E+00 0.67526005E+04</pdfrwt>
<pdfrwt beam="2">  1       -2 0.77085387E+00 0.67526005E+04</pdfrwt>
<totfact> 0.37273545E-04</totfact>
</mgrwt>
<rwgt>
<wgt id='morphing_basis_vector_1'> +1.9558101e-07 </wgt>
<wgt id='morphing_basis_vector_2'> +1.3698425e-07 </wgt>
<wgt id='morphing_basis_vector_3'> +2.1696353e-07 </wgt>
<wgt id='morphing_basis_vector_4'> +1.5151727e-07 </wgt>
<wgt id='morphing_basis_vector_5'> +2.4723793e-07 </wgt>
</rwgt>
</event>
<event>
 4      1 +6.9060000e-13 7.34873300e+03 7.81860800e-03 7.12998600e-02
        2 -1    0    0  501    0 +0.0000000000e+00 +0.0000000000e+00 +3.7321434600e+03 3.7321434600e+03 0.0000000000e+00 0.0000e+00 1.0000e+00
       -2 -1    0    0    0  501 -0.0000000000e+00 -0.0000000000e+00 -3.6174835276e+03 3.6174835276e+03 0.0000000000e+00 0.0000e+00 -1.0000e+00
      -13  1    1    2    0    0 +1.5882376290e+03 -2.3572968862e+03 -2.2713907067e+03 3.6384836290e+03 0.0000000000e+00 0.0000e+00 -1.0000e+00
       13  1    1    2    0    0 -1.5882376290e+03 +2.3572968862e+03 +2.3860506392e+03 3.7111433587e+03 0.0000000000e+00 0.0000e+00 1.0000e+00
<mgrwt>
<rscale>  0 0.73487325E+04</rscale>
<asrwt>0</asrwt>
<pdfrwt beam="1">  1        2 0.57417592E+00 0.73487325E+04</pdfrwt>
<pdfrwt beam="2">  1       -2 0.55653593E+00 0.73487325E+04</pdfrwt>
<totfact> 0.15869366E-04</totfact>
</mgrwt>
<rwgt>
<wgt id='morphing_basis_vector_1'> +2.7229495e-07 </wgt>
<wgt id='morphing_basis_vector_2'> +1.8654867e-07 </wgt>
<wgt id='morphing_basis_vector_3'> +3.0122367e-07 </wgt>
<wgt id='morphing_basis_vector_4'> +2.1670729e-07 </wgt>
<wgt id='morphing_basis_vector_5'> +3.4733080e-07 </wgt>
</rwgt>
</event>
<event>
 4      1 +6.9060000e-13 7.09182900e+03 7.81860800e-03 7.15275500e-02
        2 -1    0    0  501    0 +0.0000000000e+00 +0.0000000000e+00 +4.0876332129e+03 4.0876332129e+03 0.0000000000e+00 0.0000e+00 -1.0000e+00
       -2 -1    0    0    0  501 -0.0000000000e+00 -0.0000000000e+00 -3.0759879237e+03 3.0759879237e+03 0.0000000000e+00 0.0000e+00 1.0000e+00
      -13  1    1    2    0    0 -1.5102788133e+03 +3.0915772685e+03 +1.3716569099e+03 3.7040835276e+03 0.0000000000e+00 0.0000e+00 1.0000e+00
       13  1    1    2    0    0 +1.5102788133e+03 -3.0915772685e+03 -3.6001162075e+02 3.4595376090e+03 0.0000000000e+00 0.0000e+00 -1.0000e+00
<mgrwt>
<rscale>  0 0.70918292E+04</rscale>
<asrwt>0</asrwt>
<pdfrwt beam="1">  1        2 0.62886665E+00 0.70918292E+04</pdfrwt>
<pdfrwt beam="2">  1       -2 0.47322891E+00 0.70918292E+04</pdfrwt>
<totfact> 0.33605902E-04</totfact>
</mgrwt>
<rwgt>
<wgt id='morphing_basis_vector_1'> +2.5569365e-07 </wgt>
<wgt id='morphing_basis_vector_2'> +2.1894710e-07 </wgt>
<wgt id='morphing_basis_vector_3'> +2.9318336e-07 </wgt>
<wgt id='morphing_basis_vector_4'> +1.4615768e-07 </wgt>
<wgt id='morphing_basis_vector_5'> +2.9766458e-07 </wgt>
</rwgt>
</event>
<event>
 4      1 +6.9060000e-13 6.70031800e+03 7.81860800e-03 7.18939100e-02
        2 -1    0    0  501    0 +0.0000000000e+00 +0.0000000000e+00 +3.5078543799e+03 3.5078543799e+03 0.0000000000e+00 0.0000e+00 -1.0000e+00
       -2 -1    0    0    0  501 -0.0000000000e+00 -0.0000000000e+00 -3.1995526364e+03 3.1995526364e+03 0.0000000000e+00 0.0000e+00 1.0000e+00
      -13  1    1    2    0    0 +1.9864440456e+03 -1.3281577028e+03 -2.1964395388e+03 3.2456600988e+03 0.0000000000e+00 0.0000e+00 1.0000e+00
       13  1    1    2    0    0 -1.9864440456e+03 +1.3281577028e+03 +2.5047412823e+03 3.4617469175e+03 0.0000000000e+00 0.0000e+00 -1.0000e+00
<mgrwt>
<rscale>  0 0.67003178E+04</rscale>
<asrwt>0</asrwt>
<pdfrwt beam="1">  1        2 0.53966990E+00 0.67003178E+04</pdfrwt>
<pdfrwt beam="2">  1       -2 0.49223887E+00 0.67003178E+04</pdfrwt>
<totfact> 0.72959964E-04</totfact>
</mgrwt>
<rwgt>
<wgt id='morphing_basis_vector_1'> +1.8814816e-07 </wgt>
<wgt id='morphing_basis_vector_2'> +1.2852032e-07 </wgt>
<wgt id='morphing_basis_vector_3'> +2.0793761e-07 </wgt>
<wgt id='morphing_basis_vector_4'> +1.4999201e-07 </wgt>
<wgt id='morphing_basis_vector_5'> +2.3991924e-07 </wgt>
</rwgt>
</event>
<event>
 4      1 +6.9060000e-13 7.89538500e+03 7.81860800e-03 7.08450400e-02
        2 -1    0    0  501    0 +0.0000000000e+00 +0.0000000000e+00 +3.3743133342e+03 3.3743133342e+03 0.0000000000e+00 0.0000e+00 1.0000e+00
       -2 -1    0    0    0  501 -0.0000000000e+00 -0.0000000000e+00 -4.6185029489e+03 4.6185029489e+03 0.0000000000e+00 0.0000e+00 -1.0000e+00
      -13  1    1    2    0    0 +3.2234830650e+03 +6.3150584776e+02 -2.8387810226e+03 4.3414652366e+03 0.0000000000e+00 0.0000e+00 -1.0000e+00
       13  1    1    2    0    0 -3.2234830650e+03 -6.3150584776e+02 +1.5945914079e+03 3.6513510465e+03 0.0000000000e+00 0.0000e+00 1.0000e+00
<mgrwt>
<rscale>  0 0.78953850E+04</rscale>
<asrwt>0</asrwt>
<pdfrwt beam="1">  1        2 0.51912513E+00 0.78953850E+04</pdfrwt>
<pdfrwt beam="2">  1       -2 0.71053891E+00 0.78953850E+04</pdfrwt>
<totfact> 0.27480149E-05</totfact>
</mgrwt>
<rwgt>
<wgt id='morphing_basis_vector_1'> +3.6312899e-07 </wgt>
<wgt id='morphing_basis_vector_2'> +2.4988243e-07 </wgt>
<wgt id='morphing_basis_vector_3'> +4.0211050e-07 </wgt>
<wgt id='morphing_basis_vector_4'> +2.8786185e-07 </wgt>
<wgt id='morphing_basis_vector_5'> +4.6289027e-07 </wgt>
</rwgt>
</event>
<event>
 4      1 +6.9060000e-13 7.27431300e+03 7.81860800e-03 7.13648400e-02
        2 -1    0    0  501    0 +0.0000000000e+00 +0.0000000000e+00 +3.7233949105e+03 3.7233949105e+03 0.0000000000e+00 0.0000e+00 -1.0000e+00
       -2 -1    0    0    0  501 -0.0000000000e+00 -0.0000000000e+00 -3.5529150928e+03 3.5529150928e+03 0.0000000000e+00 0.0000e+00 1.0000e+00
      -13  1    1    2    0    0 -1.3399909346e+03 +1.7331381650e+03 -2.8189281685e+03 3.5701119903e+03 0.0000000000e+00 0.0000e+00 1.0000e+00
       13  1    1    2    0    0 +1.3399909346e+03 -1.7331381650e+03 +2.9894079863e+03 3.7061980131e+03 0.0000000000e+00 0.0000e+00 -1.0000e+00
<mgrwt>
<rscale>  0 0.72743126E+04</rscale>
<asrwt>0</asrwt>
<pdfrwt beam="1">  1        2 0.57282999E+00 0.72743126E+04</pdfrwt>
<pdfrwt beam="2">  1       -2 0.54660232E+00 0.72743126E+04</pdfrwt>
<totfact> 0.19095313E-04</totfact>
</mgrwt>
<rwgt>
<wgt id='morphing_basis_vector_1'> +2.6104843e-07 </wgt>
<wgt id='morphing_basis_vector_2'> +1.7793888e-07 </wgt>
<wgt id='morphing_basis_vector_3'> +2.8855205e-07 </wgt>
<wgt id='morphing_basis_vector_4'> +2.0890581e-07 </wgt>
<wgt id='morphing_basis_vector_5'> +3.3352567e-07 </wgt>
</rwgt>
</event>
<event>
 4      1 +6.9060000e-13 6.83343100e+03 7.81860800e-03 7.17665800e-02
        2 -1    0    0  501    0 +0.0000000000e+00 +0.0000000000e+00 +4.6784935261e+03 4.6784935261e+03 0.0000000000e+00 0.0000e+00 1.0000e+00
       -2 -1    0    0    0  501 -0.0000000000e+00 -0.0000000000e+00 -2.4952358614e+03 2.4952358614e+03 0.0000000000e+00 0.0000e+00 -1.0000e+00
      -13  1    1    2    0    0 +3.1165189871e+03 +3.0414314217e+02 -3.4347034496e+02 3.1501056373e+03 0.0000000000e+00 0.0000e+00 -1.0000e+00
       13  1    1    2    0    0 -3.1165189871e+03 -3.0414314217e+02 +2.5267280096e+03 4.0236237502e+03 0.0000000000e+00 0.0000e+00 1.0000e+00
<mgrwt>
<rscale>  0 0.68334310E+04</rscale>
<asrwt>0</asrwt>
<pdfrwt beam="1">  1        2 0.71976823E+00 0.68334310E+04</pdfrwt>
<pdfrwt beam="2">  1       -2 0.38388244E+00 0.68334310E+04</pdfrwt>
<totfact> 0.35880633E-04</totfact>
</mgrwt>
<rwgt>
<wgt id='morphing_basis_vector_1'> +2.0476179e-07 </wgt>
<wgt id='morphing_basis_vector_2'> +1.4267097e-07 </wgt>
<wgt id='morphing_basis_vector_3'> +2.2698899e-07 </wgt>
<wgt id='morphing_basis_vector_4'> +1.5963619e-07 </wgt>
<wgt id='morphing_basis_vector_5'> +2.5937203e-07 </wgt>
</rwgt>
</event>
<event>
 4      1 +6.9060000e-13 7.00990100e+03 7.81860800e-03 7.16022100e-02
        2 -1    0    0  501    0 +0.0000000000e+00 +0.0000000000e+00 +3.0471121186e+03 3.0471121186e+03 0.0000000000e+00 0.0000e+00 -1.0000e+00
       -2 -1    0    0    0  501 -0.0000000000e+00 -0.0000000000e+00 -4.0315801493e+03 4.0315801493e+03 0.0000000000e+00 0.0000e+00 1.0000e+00
      -13  1    1    2    0    0 +1.9714076113e+02 +2.2676833849e+03 -3.1836141933e+03 3.9136494153e+03 0.0000000000e+00 0.0000e+00 1.0000e+00
       13  1    1    2    0    0 -1.9714076113e+02 -2.2676833849e+03 +2.1991461626e+03 3.1650428525e+03 0.0000000000e+00 0.0000e+00 -1.0000e+00
<mgrwt>
<rscale>  0 0.70099006E+04</rscale>
<asrwt>0</asrwt>
<pdfrwt beam="1">  1        2 0.46878648E+00 0.70099006E+04</pdfrwt>
<pdfrwt beam="2">  1       -2 0.62024310E+00 0.70099006E+04</pdfrwt>
<totfact> 0.13804462E-04</totfact>
</mgrwt>
<rwgt>
<wgt id='morphing_basis_vector_1'> +2.2522131e-07 </wgt>
<wgt id='morphing_basis_vector_2'> +1.5361827e-07 </wgt>
<wgt id='morphing_basis_vector_3'> +2.4892357e-07 </wgt>
<wgt id='morphing_basis_vector_4'> +1.7999107e-07 </wgt>
<wgt id='morphing_basis_vector_5'> +2.8753728e-07 </wgt>
</rwgt>
</event>
<event>
 4      1 +6.9060000e-13 6.92631500e+03 7.81860800e-03 7.16794500e-02
        2 -1    0    0  501    0 +0.0000000000e+00 +0.0000000000e+00 +2.3448010947e+03 2.3448010947e+03 0.0000000000e+00 0.0000e+00 -1.0000e+00
       -2 -1    0    0    0  501 -0.0000000000e+00 -0.0000000000e+00 -5.1149161215e+03 5.1149161215e+03 0.0000000000e+00 0.0000e+00 1.0000e+00
      -13  1    1    2    0    0 +1.7691662066e+02 -1.8087700187e+03 -4.5600507148e+03 4.9088706433e+03 0.0000000000e+00 0.0000e+00 1.0000e+00
       13  1    1    2    0    0 -1.7691662066e+02 +1.8087700187e+03 +1.7899356880e+03 2.5508465729e+03 0.0000000000e+00 0.0000e+00 -1.0000e+00
<mgrwt>
<rscale>  0 0.69263153E+04</rscale>
<asrwt>0</asrwt>
<pdfrwt beam="1">  1        2 0.36073863E+00 0.69263153E+04</pdfrwt>
<pdfrwt beam="2">  1       -2 0.78691017E+00 0.69263153E+04</pdfrwt>
<totfact> 0.33786551E-04</totfact>
</mgrwt>
<rwgt>
<wgt id='morphing_basis_vector_1'> +2.1458179e-07 </wgt>
<wgt id='morphing_basis_vector_2'> +1.4611638e-07 </wgt>
<wgt id='morphing_basis_vector_3'> +2.3708998e-07 </wgt>
<wgt id='morphing_basis_vector_4'> +1.7177174e-07 </wgt>
<wgt id='morphing_basis_vector_5'> +2.7406400e-07 </wgt>
</rwgt>
</event>
<event>
 4      1 +6.9060000e-13 6.93732300e+03 7.81860800e-03 7.16692100e-02
        2 -1    0    0  501    0 +0.0000000000e+00 +0.0000000000e+00 +4.0877571991e+03 4.0877571991e+03 0.0000000000e+00 0.0000e+00 1.0000e+00
       -2 -1    0    0    0  501 -0.0000000000e+00 -0.0000000000e+00 -2.9433284149e+03 2.9433284149e+03 0.0000000000e+00 0.0000e+00 -1.0000e+00
      -13  1    1    2    0    0 -3.2011656941e+03 -1.1465994853e+03 -1.2221750095e+02 3.4025122040e+03 0.0000000000e+00 0.0000e+00 -1.0000e+00
       13  1    1    2    0    0 +3.2011656941e+03 +1.1465994853e+03 +1.2666462852e+03 3.6285734101e+03 0.0000000000e+00 0.0000e+00 1.0000e+00
<mgrwt>
<rscale>  0 0.69373228E+04</rscale>
<asrwt>0</asrwt>
<pdfrwt beam="1">  1        2 0.62888572E+00 0.69373228E+04</pdfrwt>
<pdfrwt beam="2">  1       -2 0.45281976E+00 0.69373228E+04</pdfrwt>
<totfact> 0.47606177E-04</totfact>
</mgrwt>
<rwgt>
<wgt id='morphing_basis_vector_1'> +2.1966671e-07 </wgt>
<wgt id='morphing_basis_vector_2'> +1.5796236e-07 </wgt>
<wgt id='morphing_basis_vector_3'> +2.4469604e-07 </wgt>
<wgt id='morphing_basis_vector_4'> +1.6489254e-07 </wgt>
<wgt id='morphing_basis_vector_5'> +2.7514112e-07 </wgt>
</rwgt>
</event>
<event>
 4      1 +6.9060000e-13 7.23954500e+03 7.81860800e-03 7.13954700e-02
        2 -1    0    0  501    0 +0.0000000000e+00 +0.0000000000e+00 +2.6180313623e+03 2.6180313623e+03 0.0000000000e+00 0.0000e+00 1.0000e+00
       -2 -1    0    0    0  501 -0.0000000000e+00 -0.0000000000e+00 -5.0048110781e+03 5.0048110781e+03 0.0000000000e+00 0.0000e+00 -1.0000e+00
      -13  1    1    2    0    0 +1.1478555723e+03 +3.3461278136e+03 -2.0012180110e+03 4.0643593945e+03 0.0000000000e+00 0.0000e+00 -1.0000e+00
       13  1    1    2    0    0 -1.1478555723e+03 -3.3461278136e+03 -3.8556170477e+02 3.5584830459e+03 0.0000000000e+00 0.0000e+00 1.0000e+00
<mgrwt>
<rscale>  0 0.72395448E+04</rscale>
<asrwt>0</asrwt>
<pdfrwt beam="1">  1        2 0.40277406E+00 0.72395448E+04</pdfrwt>
<pdfrwt beam="2">  1       -2 0.76997093E+00 0.72395448E+04</pdfrwt>
<totfact> 0.22616109E-04</totfact>
</mgrwt>
<rwgt>
<wgt id='morphing_basis_vector_1'> +2.6019782e-07 </wgt>
<wgt id='morphing_basis_vector_2'> +1.8658390e-07 </wgt>
<wgt id='morphing_basis_vector_3'> +2.8979415e-07 </wgt>
<wgt id='morphing_basis_vector_4'> +1.9614638e-07 </wgt>
<wgt id='morphing_basis_vector_5'> +3.2644448e-07 </wgt>
</rwgt>
</event>
<event>
 4      1 +6.9060000e-13 7.37565400e+03 7.81860800e-03 7.12765500e-02
        2 -1    0    0  501    0 +0.0000000000e+00 +0.0000000000e+00 +2.7871069314e+03 2.7871069314e+03 0.0000000000e+00 0.0000e+00 -1.0000e+00
       -2 -1    0    0    0  501 -0.0000000000e+00 -0.0000000000e+00 -4.8796357295e+03 4.8796357295e+03 0.0000000000e+00 0.0000e+00 1.0000e+00
      -13  1    1    2    0    0 +1.6050609034e+03 -3.3200049845e+03 -1.0853373163e+03 3.8440357297e+03 0.0000000000e+00 0.0000e+00 1.0000e+00
       13  1    1    2    0    0 -1.6050609034e+03 +3.3200049845e+03 -1.0071914818e+03 3.8227069312e+03 0.0000000000e+00 0.0000e+00 -1.0000e+00
<mgrwt>
<rscale>  0 0.73756536E+04</rscale>
<asrwt>0</asrwt>
<pdfrwt beam="1">  1        2 0.42878569E+00 0.73756536E+04</pdfrwt>
<pdfrwt beam="2">  1       -2 0.75071318E+00 0.73756536E+04</pdfrwt>
<totfact> 0.15653160E-04</totfact>
</mgrwt>
<rwgt>
<wgt id='morphing_basis_vector_1'> +2.8552633e-07 </wgt>
<wgt id='morphing_basis_vector_2'> +2.1636351e-07 </wgt>
<wgt id='morphing_basis_vector_3'> +3.2079651e-07 </wgt>
<wgt id='morphing_basis_vector_4'> +2.0011024e-07 </wgt>
<wgt id='morphing_basis_vector_5'> +3.5078671e-07 </wgt>
</rwgt>
</event>
<event>
 4      1 +6.9060000e-13 6.74798900e+03 7.81860800e-03 7.18479700e-02
        2 -1    0    0  501    0 +0.0000000000e+00 +0.0000000000e+00 +2.8082550451e+03 2.8082550451e+03 0.0000000000e+00 0.0000e+00 -1.0000e+00
       -2 -1    0    0    0  501 -0.0000000000e+00 -0.0000000000e+00 -4.0537056558e+03 4.0537056558e+03 0.0000000000e+00 0.0000e+00 1.0000e+00
      -13  1    1    2    0    0 +2.2720826450e+03 +5.6783075352e+02 -3.0925425481e+03 3.8792538873e+03 0.0000000000e+00 0.0000e+00 1.0000e+00
       13  1    1    2    0    0 -2.2720826450e+03 -5.6783075352e+02 +1.8470919374e+03 2.9827068136e+03 0.0000000000e+00 0.0000e+00 -1.0000e+00
<mgrwt>
<rscale>  0 0.67479891E+04</rscale>
<asrwt>0</asrwt>
<pdfrwt beam="1">  1        2 0.43203924E+00 0.67479891E+04</pdfrwt>
<pdfrwt beam="2">  1       -2 0.62364702E+00 0.67479891E+04</pdfrwt>
<totfact> 0.18070046E-04</totfact>
</mgrwt>
<rwgt>
<wgt id='morphing_basis_vector_1'> +1.9351563e-07 </wgt>
<wgt id='morphing_basis_vector_2'> +1.3211321e-07 </wgt>
<wgt id='morphing_basis_vector_3'> +2.1386163e-07 </wgt>
<wgt id='morphing_basis_vector_4'> +1.5438784e-07 </wgt>
<wgt id='morphing_basis_vector_5'> +2.4683883e-07 </wgt>
</rwgt>
</event>
<event>
 4      1 +6.9060000e-13 7.04541500e+03 7.81860800e-03 7.15697200e-02
        2 -1    0    0  501    0 +0.0000000000e+00 +0.0000000000e+00 +3.7015313637e+03 3.7015313637e+03 0.0000000000e+00 0.0000e+00 -1.0000e+00
       -2 -1    0    0    0  501 -0.0000000000e+00 -0.0000000000e+00 -3.3525227149e+03 3.3525227149e+03 0.0000000000e+00 0.0000e+00 1.0000e+00
      -13  1    1    2    0    0 -1.1319867881e+02 +2.4880219357e+03 -2.3198153932e+03 3.4036172745e+03 0.0000000000e+00 0.0000e+00 1.0000e+00
       13  1    1    2    0    0 +1.1319867881e+02 -2.4880219357e+03 +2.6688240419e+03 3.6504368040e+03 0.0000000000e+00 0.0000e+00 -1.0000e+00
<mgrwt>
<rscale>  0 0.70454150E+04</rscale>
<asrwt>0</asrwt>
<pdfrwt beam="1">  1        2 0.56946636E+00 0.70454150E+04</pdfrwt>
<pdfrwt beam="2">  1       -2 0.51577273E+00 0.70454150E+04</pdfrwt>
<totfact> 0.33855211E-04</totfact>
</mgrwt>
<rwgt>
<wgt id='morphing_basis_vector_1'> +2.2991429e-07 </wgt>
<wgt id='morphing_basis_vector_2'> +1.5705159e-07 </wgt>
<wgt id='morphing_basis_vector_3'> +2.5417277e-07 </wgt>
<wgt id='morphing_basis_vector_4'> +1.8345407e-07 </wgt>
<wgt id='morphing_basis_vector_5'> +2.9339984e-07 </wgt>
</rwgt>
</event>
<event>
 4      1 +6.9060000e-13 6.78592400e+03 7.81860800e-03 7.18116800e-02
        2 -1    0    0  501    0 +0.0000000000e+00 +0.0000000000e+00 +3.3268459288e+03 3.3268459288e+03 0.0000000000e+00 0.0000e+00 -1.0000e+00
       -2 -1    0    0    0  501 -0.0000000000e+00 -0.0000000000e+00 -3.4603916864e+03 3.4603916864e+03 0.0000000000e+00 0.0000e+00 1.0000e+00
      -13  1    1    2    0    0 +1.6213023465e+03 -2.8907226685e+03 -7.9306164130e+02 3.4079092728e+03 0.0000000000e+00 0.0000e+00 1.0000e+00
       13  1    1    2    0    0 -1.6213023465e+03 +2.8907226685e+03 +6.5951588370e+02 3.3793283424e+03 0.0000000000e+00 0.0000e+00 -1.0000e+00
<mgrwt>
<rscale>  0 0.67859237E+04</rscale>
<asrwt>0</asrwt>
<pdfrwt beam="1">  1        2 0.51182245E+00 0.67859237E+04</pdfrwt>
<pdfrwt beam="2">  1       -2 0.53236795E+00 0.67859237E+04</pdfrwt>
<totfact> 0.49147561E-04</totfact>
</mgrwt>
<rwgt>
<wgt id='morphing_basis_vector_1'> +2.0092045e-07 </wgt>
<wgt id='morphing_basis_vector_2'> +1.4398218e-07 </wgt>
<wgt id='morphing_basis_vector_3'> +2.2366435e-07 </wgt>
<wgt id='morphing_basis_vector_4'> +1.5141232e-07 </wgt>
<wgt id='morphing_basis_vector_5'> +2.5189995e-07 </wgt>
</rwgt>
</event>
<event>
 4      1 +6.9060000e-13 6.90593800e+03 7.81860800e-03 7.16984400e-02
        2 -1    0    0  501    0 +0.0000000000e+00 +0.0000000000e+00 +3.5631134902e+03 3.5631134902e+03 0.0000000000e+00 0.0000e+00 1.0000e+00
       -2 -1    0    0    0  501 -0.0000000000e+00 -0.0000000000e+00 -3.3462291959e+03 3.3462291959e+03 0.0000000000e+00 0.0000e+00 -1.0000e+00
      -13  1    1    2    0    0 -1.8771079602e+03 +2.6959449500e+03 -9.5572737330e+02 3.4212670576e+03 0.0000000000e+00 0.0000e+00 -1.0000e+00
       13  1    1    2    0    0 +1.8771079602e+03 -2.6959449500e+03 +1.1726116676e+03 3.4880756285e+03 0.0000000000e+00 0.0000e+00 1.0000e+00
<mgrwt>
<rscale>  0 0.69059378E+04</rscale>
<asrwt>0</asrwt>
<pdfrwt beam="1">  1        2 0.54817130E+00 0.69059378E+04</pdfrwt>
<pdfrwt beam="2">  1       -2 0.51480449E+00 0.69059378E+04</pdfrwt>
<totfact> 0.44321749E-04</totfact>
</mgrwt>
<rwgt>
<wgt id='morphing_basis_vector_1'> +2.1436944e-07 </wgt>
<wgt id='morphing_basis_vector_2'> +1.5114714e-07 </wgt>
<wgt id='morphing_basis_vector_3'> +2.3807671e-07 </wgt>
<wgt id='morphing_basis_vector_4'> +1.6483054e-07 </wgt>
<wgt id='morphing_basis_vector_5'> +2.7043264e-07 </wgt>
</rwgt>
</event>
<event>
 4      1 +6.9060000e-13 6.78591500e+03 7.81860800e-03 7.18116900e-02
        2 -1    0    0  501    0 +0.0000000000e+00 +0.0000000000e+00 +3.4065601294e+03 3.4065601294e+03 0.0000000000e+00 0.0000e+00 -1.0000e+00
       -2 -1    0    0    0  501 -0.0000000000e+00 -0.0000000000e+00 -3.3794086939e+03 3.3794086939e+03 0.0000000000e+00 0.0000e+00 1.0000e+00
      -13  1    1    2    0    0 +1.1213287298e+03 -1.2363411824e+02 -3.1863710519e+03 3.3801810596e+03 0.0000000000e+00 0.0000e+00 1.0000e+00
       13  1    1    2    0    0 -1.1213287298e+03 +1.2363411824e+02 +3.2135224873e+03 3.4057877638e+03 0.0000000000e+00 0.0000e+00 -1.0000e+00
<mgrwt>
<rscale>  0 0.67859145E+04</rscale>
<asrwt>0</asrwt>
<pdfrwt beam="1">  1        2 0.52408617E+00 0.67859145E+04</pdfrwt>
<pdfrwt beam="2">  1       -2 0.51990903E+00 0.67859145E+04</pdfrwt>
<totfact> 0.53313101E-04</totfact>
</mgrwt>
<rwgt>
<wgt id='morphing_basis_vector_1'> +1.9768800e-07 </wgt>
<wgt id='morphing_basis_vector_2'> +1.3449912e-07 </wgt>
<wgt id='morphing_basis_vector_3'> +2.1837073e-07 </wgt>
<wgt id='morphing_basis_vector_4'> +1.5833743e-07 </wgt>
<wgt id='morphing_basis_vector_5'> +2.5248211e-07 </wgt>
</rwgt>
</event>
<event>
 4      1 +6.9060000e-13 7.26107800e+03 7.81860800e-03 7.13764800e-02
        2 -1    0    0  501    0 +0.0000000000e+00 +0.0000000000e+00 +3.7365064483e+03 3.7365064483e+03 0.0000000000e+00 0.0000e+00 -1.0000e+00
       -2 -1    0    0    0  501 -0.0000000000e+00 -0.0000000000e+00 -3.5275769069e+03 3.5275769069e+03 0.0000000000e+00 0.0000e+00 1.0000e+00
      -13  1    1    2    0    0 +3.2029325238e+03 +6.5370422202e+01 +1.8133180532e+03 3.6811917100e+03 0.0000000000e+00 0.0000e+00 1.0000e+00
       13  1    1    2    0    0 -3.2029325238e+03 -6.5370422202e+01 -1.6043885119e+03 3.5828916451e+03 0.0000000000e+00 0.0000e+00 -1.0000e+00
<mgrwt>
<rscale>  0 0.72610781E+04</rscale>
<asrwt>0</asrwt>
<pdfrwt beam="1">  1        2 0.57484715E+00 0.72610781E+04</pdfrwt>
<pdfrwt beam="2">  1       -2 0.54270414E+00 0.72610781E+04</pdfrwt>
<totfact> 0.19913969E-04</totfact>
</mgrwt>
<rwgt>
<wgt id='morphing_basis_vector_1'> +3.0318290e-07 </wgt>
<wgt id='morphing_basis_vector_2'> +3.0582564e-07 </wgt>
<wgt id='morphing_basis_vector_3'> +3.5866445e-07 </wgt>
<wgt id='morphing_basis_vector_4'> +1.1294065e-07 </wgt>
<wgt id='morphing_basis_vector_5'> +3.2313824e-07 </wgt>
</rwgt>
</event>
<event>
 4      1 +6.9060000e-13 6.72852600e+03 7.81860800e-03 7.18666800e-02
        2 -1    0    0  501    0 +0.0000000000e+00 +0.0000000000e+00 +2.0044312355e+03 2.0044312355e+03 0.0000000000e+00 0.0000e+00 1.0000e+00
       -2 -1    0    0    0  501 -0.0000000000e+00 -0.0000000000e+00 -5.6466223672e+03 5.6466223672e+03 0.0000000000e+00 0.0000e+00 -1.0000e+00
      -13  1    1    2    0    0 -1.0085419488e+03 +6.5861037453e+02 -5.3930127508e+03 5.5258945898e+03 0.0000000000e+00 0.0000e+00 -1.0000e+00
       13  1    1    2    0    0 +1.0085419488e+03 -6.5861037453e+02 +1.7508216191e+03 2.1251590128e+03 0.0000000000e+00 0.0000e+00 1.0000e+00
<mgrwt>
<rscale>  0 0.67285262E+04</rscale>
<asrwt>0</asrwt>
<pdfrwt beam="1">  1        2 0.30837404E+00 0.67285262E+04</pdfrwt>
<pdfrwt beam="2">  1       -2 0.86871112E+00 0.67285262E+04</pdfrwt>
<totfact> 0.21877724E-04</totfact>
</mgrwt>
<rwgt>
<wgt id='morphing_basis_vector_1'> +1.9109917e-07 </wgt>
<wgt id='morphing_basis_vector_2'> +1.3001709e-07 </wgt>
<wgt id='morphing_basis_vector_3'> +2.1108181e-07 </wgt>
<wgt id='morphing_basis_vector_4'> +1.5303463e-07 </wgt>
<wgt id='morphing_basis_vector_5'> +2.4403409e-07 </wgt>
</rwgt>
</event>
<event>
 4      1 +6.9060000e-13 6.86596000e+03 7.81860800e-03 7.17359100e-02
        2 -1    0    0  501    0 +0.0000000000e+00 +0.0000000000e+00 +2.9647262479e+03 2.9647262479e+03 0.0000000000e+00 0.0000e+00 1.0000e+00
       -2 -1    0    0    0  501 -0.0000000000e+00 -0.0000000000e+00 -3.9751900615e+03 3.9751900615e+03 0.0000000000e+00 0.0000e+00 -1.0000e+00
      -13  1    1    2    0    0 -2.3327750542e+03 -1.1293109694e+03 +1.7702766519e+03 3.1386401743e+03 0.0000000000e+00 0.0000e+00 1.0000e+00
       13  1    1    2    0    0 +2.3327750542e+03 +1.1293109694e+03 -2.7807404655e+03 3.8012761351e+03 0.0000000000e+00 0.0000e+00 -1.0000e+00
<mgrwt>
<rscale>  0 0.68659596E+04</rscale>
<asrwt>0</asrwt>
<pdfrwt beam="1">  1        2 0.45611174E+00 0.68659596E+04</pdfrwt>
<pdfrwt beam="2">  1       -2 0.61156769E+00 0.68659596E+04</pdfrwt>
<totfact> 0.19970788E-04</totfact>
</mgrwt>
<rwgt>
<wgt id='morphing_basis_vector_1'> +2.6237260e-07 </wgt>
<wgt id='morphing_basis_vector_2'> +3.0295493e-07 </wgt>
<wgt id='morphing_basis_vector_3'> +3.1930008e-07 </wgt>
<wgt id='morphing_basis_vector_4'> +4.7605959e-08 </wgt>
<wgt id='morphing_basis_vector_5'> +2.5465613e-07 </wgt>
</rwgt>
</event>
<event>
 4      1 +6.9060000e-13 6.66160300e+03 7.81860800e-03 7.19315100e-02
        2 -1    0    0  501    0 +0.0000000000e+00 +0.0000000000e+00 +3.1437519539e+03 3.1437519539e+03 0.0000000000e+00 0.0000e+00 1.0000e+00
       -2 -1    0    0    0  501 -0.0000000000e+00 -0.0000000000e+00 -3.5289806255e+03 3.5289806255e+03 0.0000000000e+00 0.0000e+00 -1.0000e+00
      -13  1    1    2    0    0 -2.9693856660e+03 -5.7057157328e+02 +1.2066577565e+03 3.2555838332e+03 0.0000000000e+00 0.0000e+00 1.0000e+00
       13  1    1    2    0    0 +2.9693856660e+03 +5.7057157328e+02 -1.5918864281e+03 3.4171487462e+03 0.0000000000e+00 0.0000e+00 -1.0000e+00
<mgrwt>
<rscale>  0 0.66616033E+04</rscale>
<asrwt>0</asrwt>
<pdfrwt beam="1">  1        2 0.48365415E+00 0.66616033E+04</pdfrwt>
<pdfrwt beam="2">  1       -2 0.54292010E+00 0.66616033E+04</pdfrwt>
<totfact> 0.55631324E-04</totfact>
</mgrwt>
<rwgt>
<wgt id='morphing_basis_vector_1'> +2.1066669e-07 </wgt>
<wgt id='morphing_basis_vector_2'> +2.0428696e-07 </wgt>
<wgt id='morphing_basis_vector_3'> +2.4708472e-07 </wgt>
<wgt id='morphing_basis_vector_4'> +8.9076832e-08 </wgt>
<wgt id='morphing_basis_vector_5'> +2.2957138e-07 </wgt>
</rwgt>
</event>
<event>
 4      1 +6.9060000e-13 7.01031700e+03 7.81860800e-03 7.16018300e-02
        2 -1    0    0  501    0 +0.0000000000e+00 +0.0000000000e+00 +5.1000304491e+03 5.1000304491e+03 0.0000000000e+00 0.0000e+00 -1.0000e+00
       -2 -1    0    0    0  501 -0.0000000000e+00 -0.0000000000e+00 -2.4090319448e+03 2.4090319448e+03 0.0000000000e+00 0.0000e+00 1.0000e+00
      -13  1    1    2    0    0 +1.1034811865e+03 +3.1208535311e+03 +1.1078102773e+02 3.3120492037e+03 0.0000000000e+00 0.0000e+00 1.0000e+00
       13  1    1    2    0    0 -1.1034811865e+03 -3.1208535311e+03 +2.5802174765e+03 4.1970131901e+03 0.0000000000e+00 0.0000e+00 -1.0000e+00
<mgrwt>
<rscale>  0 0.70103170E+04</rscale>
<asrwt>0</asrwt>
<pdfrwt beam="1">  1        2 0.78462007E+00 0.70103170E+04</pdfrwt>
<pdfrwt beam="2">  1       -2 0.37062030E+00 0.70103170E+04</pdfrwt>
<totfact> 0.12673424E-04</totfact>
</mgrwt>
<rwgt>
<wgt id='morphing_basis_vector_1'> +2.2738819e-07 </wgt>
<wgt id='morphing_basis_vector_2'> +1.5985617e-07 </wgt>
<wgt id='morphing_basis_vector_3'> +2.5244653e-07 </wgt>
<wgt id='morphing_basis_vector_4'> +1.7550208e-07 </wgt>
<wgt id='morphing_basis_vector_5'> +2.8722376e-07 </wgt>
</rwgt>
</event>
<event>
 4      1 +6.9060000e-13 7.40010200e+03 7.81860800e-03 7.12554600e-02
        2 -1    0    0  501    0 +0.0000000000e+00 +0.0000000000e+00 +4.5051239219e+03 4.5051239219e+03 0.0000000000e+00 0.0000e+00 -1.0000e+00
       -2 -1    0    0    0  501 -0.0000000000e+00 -0.0000000000e+00 -3.0388459492e+03 3.0388459492e+03 0.0000000000e+00 0.0000e+00 1.0000e+00
      -13  1    1    2    0    0 +2.8642152773e+03 +9.6491601111e+02 -1.4427379978e+03 3.3490722586e+03 0.0000000000e+00 0.0000e+00 1.0000e+00
       13  1    1    2    0    0 -2.8642152773e+03 -9.6491601111e+02 +2.9090159704e+03 4.1948976125e+03 0.0000000000e+00 0.0000e+00 -1.0000e+00
<mgrwt>
<rscale>  0 0.74001020E+04</rscale>
<asrwt>0</asrwt>
<pdfrwt beam="1">  1        2 0.69309598E+00 0.74001020E+04</pdfrwt>
<pdfrwt beam="2">  1       -2 0.46751476E+00 0.74001020E+04</pdfrwt>
<totfact> 0.14438874E-04</totfact>
</mgrwt>
<rwgt>
<wgt id='morphing_basis_vector_1'> +2.8022205e-07 </wgt>
<wgt id='morphing_basis_vector_2'> +1.9253550e-07 </wgt>
<wgt id='morphing_basis_vector_3'> +3.1013621e-07 </wgt>
<wgt id='morphing_basis_vector_4'> +2.2231349e-07 </wgt>
<wgt id='morphing_basis_vector_5'> +3.5711496e-07 </wgt>
</rwgt>
</event>
<event>
 4      1 +6.9060000e-13 7.09179000e+03 7.81860800e-03 7.15275800e-02
        2 -1    0    0  501    0 +0.0000000000e+00 +0.0000000000e+00 +5.3918214799e+03 5.3918214799e+03 0.0000000000e+00 0.0000e+00 -1.0000e+00
       -2 -1    0    0    0  501 -0.0000000000e+00 -0.0000000000e+00 -2.3319336399e+03 2.3319336399e+03 0.0000000000e+00 0.0000e+00 1.0000e+00
      -13  1    1    2    0    0 +1.7284149183e+02 +3.5081628427e+03 +1.0005309592e+03 3.6521422361e+03 0.0000000000e+00 0.0000e+00 1.0000e+00
       13  1    1    2    0    0 -1.7284149183e+02 -3.5081628427e+03 +2.0593568808e+03 4.0716128837e+03 0.0000000000e+00 0.0000e+00 -1.0000e+00
<mgrwt>
<rscale>  0 0.70917896E+04</rscale>
<asrwt>0</asrwt>
<pdfrwt beam="1">  1        2 0.82951099E+00 0.70917896E+04</pdfrwt>
<pdfrwt beam="2">  1       -2 0.35875902E+00 0.70917896E+04</pdfrwt>
<totfact> 0.52308764E-05</totfact>
</mgrwt>
<rwgt>
<wgt id='morphing_basis_vector_1'> +2.4095477e-07 </wgt>
<wgt id='morphing_basis_vector_2'> +1.7571185e-07 </wgt>
<wgt id='morphing_basis_vector_3'> +2.6902432e-07 </wgt>
<wgt id='morphing_basis_vector_4'> +1.7775131e-07 </wgt>
<wgt id='morphing_basis_vector_5'> +3.0032134e-07 </wgt>
</rwgt>
</event>
<event>
 4      1 +6.9060000e-13 6.71809100e+03 7.81860800e-03 7.18767400e-02
        2 -1    0    0  501    0 +0.0000000000e+00 +0.0000000000e+00 +2.8499144761e+03 2.8499144761e+03 0.0000000000e+00 0.0000e+00 1.0000e+00
       -2 -1    0    0    0  501 -0.0000000000e+00 -0.0000000000e+00 -3.9591318911e+03 3.9591318911e+03 0.0000000000e+00 0.0000e+00 -1.0000e+00
      -13  1    1    2    0    0 +2.1448649194e+03 -2.5835152564e+03 -6.4633641666e+02 3.4194659475e+03 0.0000000000e+00 0.0000e+00 1.0000e+00
       13  1    1    2    0    0 -2.1448649194e+03 +2.5835152564e+03 -4.6288099837e+02 3.3895804196e+03 0.0000000000e+00 0.0000e+00 -1.0000e+00
<mgrwt>
<rscale>  0 0.67180912E+04</rscale>
<asrwt>0</asrwt>
<pdfrwt beam="1">  1        2 0.43844838E+00 0.67180912E+04</pdfrwt>
<pdfrwt beam="2">  1       -2 0.60909721E+00 0.67180912E+04</pdfrwt>
<totfact> 0.25420651E-04</totfact>
</mgrwt>
<rwgt>
<wgt id='morphing_basis_vector_1'> +1.9625312e-07 </wgt>
<wgt id='morphing_basis_vector_2'> +1.4780164e-07 </wgt>
<wgt id='morphing_basis_vector_3'> +2.2014809e-07 </wgt>
<wgt id='morphing_basis_vector_4'> +1.3851077e-07 </wgt>
<wgt id='morphing_basis_vector_5'> +2.4137753e-07 </wgt>
</rwgt>
</event>
<event>
 4      1 +6.9060000e-13 6.66667100e+03 7.81860800e-03 7.19265700e-02
        2 -1    0    0  501    0 +0.0000000000e+00 +0.0000000000e+00 +3.4117157670e+03 3.4117157670e+03 0.0000000000e+00 0.0000e+00 -1.0000e+00
       -2 -1    0    0    0  501 -0.0000000000e+00 -0.0000000000e+00 -3.2567561895e+03 3.2567561895e+03 0.0000000000e+00 0.0000e+00 1.0000e+00
      -13  1    1    2    0    0 -1.1883907690e+03 +2.2732194494e+03 -2.0517865968e+03 3.2847568439e+03 0.0000000000e+00 0.0000e+00 1.0000e+00
       13  1    1    2    0    0 +1.1883907690e+03 -2.2732194494e+03 +2.2067461743e+03 3.3837151125e+03 0.0000000000e+00 0.0000e+00 -1.0000e+00
<mgrwt>
<rscale>  0 0.66666713E+04</rscale>
<asrwt>0</asrwt>
<pdfrwt beam="1">  1        2 0.52487935E+00 0.66666713E+04</pdfrwt>
<pdfrwt beam="2">  1       -2 0.50103941E+00 0.66666713E+04</pdfrwt>
<totfact> 0.73747740E-04</totfact>
</mgrwt>
<rwgt>
<wgt id='morphing_basis_vector_1'> +1.8453637e-07 </wgt>
<wgt id='morphing_basis_vector_2'> +1.2634811e-07 </wgt>
<wgt id='morphing_basis_vector_3'> +2.0400920e-07 </wgt>
<wgt id='morphing_basis_vector_4'> +1.4671329e-07 </wgt>
<wgt id='morphing_basis_vector_5'> +2.3510401e-07 </wgt>
</rwgt>
</event>
<event>
 4      1 +6.9060000e-13 7.03164200e+03 7.81860800e-03 7.15823000e-02
        2 -1    0    0  501    0 +0.0000000000e+00 +0.0000000000e+00 +2.6014083105e+03 2.6014083105e+03 0.0000000000e+00 0.0000e+00 1.0000e+00
       -2 -1    0    0    0  501 -0.0000000000e+00 -0.0000000000e+00 -4.7516565513e+03 4.7516565513e+03 0.0000000000e+00 0.0000e+00 -1.0000e+00
      -13  1    1    2    0    0 +2.9723625570e+03 +1.6923452946e+03 -1.9259672455e+03 3.9253435005e+03 0.0000000000e+00 0.0000e+00 -1.0000e+00
       13  1    1    2    0    0 -2.9723625570e+03 -1.6923452946e+03 -2.2428099525e+02 3.4277213613e+03 0.0000000000e+00 0.0000e+00 1.0000e+00
<mgrwt>
<rscale>  0 0.70316424E+04</rscale>
<asrwt>0</asrwt>
<pdfrwt beam="1">  1        2 0.40021667E+00 0.70316424E+04</pdfrwt>
<pdfrwt beam="2">  1       -2 0.73102408E+00 0.70316424E+04</pdfrwt>
<totfact> 0.15351640E-04</totfact>
</mgrwt>
<rwgt>
<wgt id='morphing_basis_vector_1'> +2.3133143e-07 </wgt>
<wgt id='morphing_basis_vector_2'> +1.6523719e-07 </wgt>
<wgt id='morphing_basis_vector_3'> +2.5744724e-07 </wgt>
<wgt id='morphing_basis_vector_4'> +1.7514525e-07 </wgt>
<wgt id='morphing_basis_vector_5'> +2.9052916e-07 </wgt>
</rwgt>
</event>
<event>
 4      1 +6.9060000e-13 6.94998000e+03 7.81860800e-03 7.16574700e-02
        2 -1    0    0  501    0 +0.0000000000e+00 +0.0000000000e+00 +3.1518122581e+03 3.1518122581e+03 0.0000000000e+00 0.0000e+00 -1.0000e+00
       -2 -1    0    0    0  501 -0.0000000000e+00 -0.0000000000e+00 -3.8313051759e+03 3.8313051759e+03 0.0000000000e+00 0.0000e+00 1.0000e+00
      -13  1    1    2    0    0 -5.5949222612e+02 -1.2565602637e+03 -3.5461341519e+03 3.8035565818e+03 0.0000000000e+00 0.0000e+00 1.0000e+00
       13  1    1    2    0    0 +5.5949222612e+02 +1.2565602637e+03 +2.8666412342e+03 3.1795608522e+03 0.0000000000e+00 0.0000e+00 -1.0000e+00
<mgrwt>
<rscale>  0 0.69499797E+04</rscale>
<asrwt>0</asrwt>
<pdfrwt beam="1">  1        2 0.48489420E+00 0.69499797E+04</pdfrwt>
<pdfrwt beam="2">  1       -2 0.58943156E+00 0.69499797E+04</pdfrwt>
<totfact> 0.24268049E-04</totfact>
</mgrwt>
<rwgt>
<wgt id='morphing_basis_vector_1'> +2.1748307e-07 </wgt>
<wgt id='morphing_basis_vector_2'> +1.4800109e-07 </wgt>
<wgt id='morphing_basis_vector_3'> +2.4027882e-07 </wgt>
<wgt id='morphing_basis_vector_4'> +1.7422359e-07 </wgt>
<wgt id='morphing_basis_vector_5'> +2.7784239e-07 </wgt>
</rwgt>
</event>
<event>
 4      1 +6.9060000e-13 7.00231400e+03 7.81860800e-03 7.16091700e-02
        2 -1    0    0  501    0 +0.0000000000e+00 +0.0000000000e+00 +2.2686631468e+03 2.2686631468e+03 0.0000000000e+00 0.0000e+00 1.0000e+00
       -2 -1    0    0    0  501 -0.0000000000e+00 -0.0000000000e+00 -5.4032259234e+03 5.4032259234e+03 0.0000000000e+00 0.0000e+00 -1.0000e+00
      -13  1    1    2    0    0 -5.9240878100e+02 +2.9013524929e+03 -3.6138684226e+03 4.6721343546e+03 0.0000000000e+00 0.0000e+00 -1.0000e+00
       13  1    1    2    0    0 +5.9240878100e+02 -2.9013524929e+03 +4.7930564600e+02 2.9997547157e+03 0.0000000000e+00 0.0000e+00 1.0000e+00
<mgrwt>
<rscale>  0 0.70023138E+04</rscale>
<asrwt>0</asrwt>
<pdfrwt beam="1">  1        2 0.34902510E+00 0.70023138E+04</pdfrwt>
<pdfrwt beam="2">  1       -2 0.83126553E+00 0.70023138E+04</pdfrwt>
<totfact> 0.27889543E-04</totfact>
</mgrwt>
<rwgt>
<wgt id='morphing_basis_vector_1'> +2.2491933e-07 </wgt>
<wgt id='morphing_basis_vector_2'> +1.5492024e-07 </wgt>
<wgt id='morphing_basis_vector_3'> +2.4894560e-07 </wgt>
<wgt id='morphing_basis_vector_4'> +1.7777557e-07 </wgt>
<wgt id='morphing_basis_vector_5'> +2.8617143e-07 </wgt>
</rwgt>
</event>
<event>
 4      1 +6.9060000e-13 6.77758800e+03 7.81860800e-03 7.18196400e-02
        2 -1    0    0  501    0 +0.0000000000e+00 +0.0000000000e+00 +3.2057321233e+03 3.2057321233e+03 0.0000000000e+00 0.0000e+00 -1.0000e+00
       -2 -1    0    0    0  501 -0.0000000000e+00 -0.0000000000e+00 -3.5823095964e+03 3.5823095964e+03 0.0000000000e+00 0.0000e+00 1.0000e+00
      -13  1    1    2    0    0 -3.0183189332e+02 -2.4610961940e+03 -2.5017926820e+03 3.5223661921e+03 0.0000000000e+00 0.0000e+00 1.0000e+00
       13  1    1    2    0    0 +3.0183189332e+02 +2.4610961940e+03 +2.1252152089e+03 3.2656755276e+03 0.0000000000e+00 0.0000e+00 -1.0000e+00
<mgrwt>
<rscale>  0 0.67775881E+04</rscale>
<asrwt>0</asrwt>
<pdfrwt beam="1">  1        2 0.49318956E+00 0.67775881E+04</pdfrwt>
<pdfrwt beam="2">  1       -2 0.55112455E+00 0.67775881E+04</pdfrwt>
<totfact> 0.43676505E-04</totfact>
</mgrwt>
<rwgt>
<wgt id='morphing_basis_vector_1'> +1.9700148e-07 </wgt>
<wgt id='morphing_basis_vector_2'> +1.3466298e-07 </wgt>
<wgt id='morphing_basis_vector_3'> +2.1776001e-07 </wgt>
<wgt id='morphing_basis_vector_4'> +1.5695980e-07 </wgt>
<wgt id='morphing_basis_vector_5'> +2.5119246e-07 </wgt>
</rwgt>
</event>
<event>
 4      1 +6.9060000e-13 6.75723700e+03 7.81860800e-03 7.18391000e-02
        2 -1    0    0  501    0 +0.0000000000e+00 +0.0000000000e+00 +3.6189914183e+03 3.6189914183e+03 0.0000000000e+00 0.0000e+00 1.0000e+00
       -2 -1    0    0    0  501 -0.0000000000e+00 -0.0000000000e+00 -3.1542111906e+03 3.1542111906e+03 0.0000000000e+00 0.0000e+00 -1.0000e+00
      -13  1    1    2    0    0 +1.3002335802e+03 -3.6390384486e+02 -2.8720277339e+03 3.1735747471e+03 0.0000000000e+00 0.0000e+00 -1.0000e+00
       13  1    1    2    0    0 -1.3002335802e+03 +3.6390384486e+02 +3.3368079615e+03 3.5996278618e+03 0.0000000000e+00 0.0000e+00 1.0000e+00
<mgrwt>
<rscale>  0 0.67572371E+04</rscale>
<asrwt>0</asrwt>
<pdfrwt beam="1">  1        2 0.55676791E+00 0.67572371E+04</pdfrwt>
<pdfrwt beam="2">  1       -2 0.48526326E+00 0.67572371E+04</pdfrwt>
<totfact> 0.67633027E-04</totfact>
</mgrwt>
<rwgt>
<wgt id='morphing_basis_vector_1'> +1.9438150e-07 </wgt>
<wgt id='morphing_basis_vector_2'> +1.3226555e-07 </wgt>
<wgt id='morphing_basis_vector_3'> +2.1471657e-07 </wgt>
<wgt id='morphing_basis_vector_4'> +1.5565576e-07 </wgt>
<wgt id='morphing_basis_vector_5'> +2.4823237e-07 </wgt>
</rwgt>
</event>
<event>
 4      1 +6.9060000e-13 7.06839900e+03 7.81860800e-03 7.15487900e-02
        2 -1    0    0  501    0 +0.0000000000e+00 +0.0000000000e+00 +2.5839613226e+03 2.5839613226e+03 0.0000000000e+00 0.0000e+00 -1.0000e+00
       -2 -1    0    0    0  501 -0.0000000000e+00 -0.0000000000e+00 -4.8338832765e+03 4.8338832765e+03 0.0000000000e+00 0.0000e+00 1.0000e+00
      -13  1    1    2    0    0 +3.2831820415e+03 +1.2455276067e+03 -7.0525925892e+02 3.5816216940e+03 0.0000000000e+00 0.0000e+00 1.0000e+00
       13  1    1    2    0    0 -3.2831820415e+03 -1.2455276067e+03 -1.5446626950e+03 3.8362229051e+03 0.0000000000e+00 0.0000e+00 -1.0000e+00
<mgrwt>
<rscale>  0 0.70683994E+04</rscale>
<asrwt>0</asrwt>
<pdfrwt beam="1">  1        2 0.39753251E+00 0.70683994E+04</pdfrwt>
<pdfrwt beam="2">  1       -2 0.74367435E+00 0.70683994E+04</pdfrwt>
<totfact> 0.19562274E-04</totfact>
</mgrwt>
<rwgt>
<wgt id='morphing_basis_vector_1'> +2.4541572e-07 </wgt>
<wgt id='morphing_basis_vector_2'> +1.9576279e-07 </wgt>
<wgt id='morphing_basis_vector_3'> +2.7798181e-07 </wgt>
<wgt id='morphing_basis_vector_4'> +1.5907522e-07 </wgt>
<wgt id='morphing_basis_vector_5'> +2.9499543e-07 </wgt>
</rwgt>
</event>
<event>
 4      1 +6.9060000e-13 7.41767100e+03 7.81860800e-03 7.12403500e-02
        2 -1    0    0  501    0 +0.0000000000e+00 +0.0000000000e+00 +2.7911060067e+03 2.7911060067e+03 0.0000000000e+00 0.0000e+00 -1.0000e+00
       -2 -1    0    0    0  501 -0.0000000000e+00 -0.0000000000e+00 -4.9283192326e+03 4.9283192326e+03 0.0000000000e+00 0.0000e+00 1.0000e+00
      -13  1    1    2    0    0 -2.2768442513e+03 +2.6811173809e+03 -2.2924800993e+03 4.1985563186e+03 0.0000000000e+00 0.0000e+00 1.0000e+00
       13  1    1    2    0    0 +2.2768442513e+03 -2.6811173809e+03 +1.5526687344e+02 3.5208689207e+03 0.0000000000e+00 0.0000e+00 -1.0000e+00
<mgrwt>
<rscale>  0 0.74176712E+04</rscale>
<asrwt>0</asrwt>
<pdfrwt beam="1">  1        2 0.42940093E+00 0.74176712E+04</pdfrwt>
<pdfrwt beam="2">  1       -2 0.75820296E+00 0.74176712E+04</pdfrwt>
<totfact> 0.16571457E-04</totfact>
</mgrwt>
<rwgt>
<wgt id='morphing_basis_vector_1'> +2.8507628e-07 </wgt>
<wgt id='morphing_basis_vector_2'> +2.0078775e-07 </wgt>
<wgt id='morphing_basis_vector_3'> +3.1668096e-07 </wgt>
<wgt id='morphing_basis_vector_4'> +2.1974117e-07 </wgt>
<wgt id='morphing_basis_vector_5'> +3.6012753e-07 </wgt>
</rwgt>
</event>
<event>
 4      1 +6.9060000e-13 7.82721000e+03 7.81860800e-03 7.08997200e-02
        2 -1    0    0  501    0 +0.0000000000e+00 +0.0000000000e+00 +4.5159554115e+03 4.5159554115e+03 0.0000000000e+00 0.0000e+00 -1.0000e+00
       -2 -1    0    0    0  501 -0.0000000000e+00 -0.0000000000e+00 -3.3915976291e+03 3.3915976291e+03 0.0000000000e+00 0.0000e+00 1.0000e+00
      -13  1    1    2    0    0 +3.3107700262e+03 -6.5786398167e+02 -1.4386348978e+03 3.6692851557e+03 0.0000000000e+00 0.0000e+00 1.0000e+00
       13  1    1    2    0    0 -3.3107700262e+03 +6.5786398167e+02 +2.5629926802e+03 4.2382678848e+03 0.0000000000e+00 0.0000e+00 -1.0000e+00
<mgrwt>
<rscale>  0 0.78272099E+04</rscale>
<asrwt>0</asrwt>
<pdfrwt beam="1">  1        2 0.69476237E+00 0.78272099E+04</pdfrwt>
<pdfrwt beam="2">  1       -2 0.52178425E+00 0.78272099E+04</pdfrwt>
<totfact> 0.53978849E-05</totfact>
</mgrwt>
<rwgt>
<wgt id='morphing_basis_vector_1'> +3.5112181e-07 </wgt>
<wgt id='morphing_basis_vector_2'> +2.4241551e-07 </wgt>
<wgt id='morphing_basis_vector_3'> +3.8898851e-07 </wgt>
<wgt id='morphing_basis_vector_4'> +2.7726817e-07 </wgt>
<wgt id='morphing_basis_vector_5'> +4.4702372e-07 </wgt>
</rwgt>
</event>
<event>
 4      1 +6.9060000e-13 6.95807100e+03 7.81860800e-03 7.16499700e-02
        2 -1    0    0  501    0 +0.0000000000e+00 +0.0000000000e+00 +5.0625224028e+03 5.0625224028e+03 0.0000000000e+00 0.0000e+00 -1.0000e+00
       -2 -1    0    0    0  501 -0.0000000000e+00 -0.0000000000e+00 -2.3908415026e+03 2.3908415026e+03 0.0000000000e+00 0.0000e+00 1.0000e+00
      -13  1    1    2    0    0 +1.2147353447e+03 -2.9132697707e+03 -2.3151803238e+02 3.1648575503e+03 0.0000000000e+00 0.0000e+00 1.0000e+00
       13  1    1    2    0    0 -1.2147353447e+03 +2.9132697707e+03 +2.9031989326e+03 4.2885063550e+03 0.0000000000e+00 0.0000e+00 -1.0000e+00
<mgrwt>
<rscale>  0 0.69580712E+04</rscale>
<asrwt>0</asrwt>
<pdfrwt beam="1">  1        2 0.77884960E+00 0.69580712E+04</pdfrwt>
<pdfrwt beam="2">  1       -2 0.36782177E+00 0.69580712E+04</pdfrwt>
<totfact> 0.14971001E-04</totfact>
</mgrwt>
<rwgt>
<wgt id='morphing_basis_vector_1'> +2.1993915e-07 </wgt>
<wgt id='morphing_basis_vector_2'> +1.5292596e-07 </wgt>
<wgt id='morphing_basis_vector_3'> +2.4376462e-07 </wgt>
<wgt id='morphing_basis_vector_4'> +1.7194328e-07 </wgt>
<wgt id='morphing_basis_vector_5'> +2.7887990e-07 </wgt>
</rwgt>
</event>
<event>
 4      1 +6.9060000e-13 6.85814400e+03 7.81860800e-03 7.17432600e-02
        2 -1    0    0  501    0 +0.0000000000e+00 +0.0000000000e+00 +3.3240657966e+03 3.3240657966e+03 0.0000000000e+00 0.0000e+00 1.0000e+00
       -2 -1    0    0    0  501 -0.0000000000e+00 -0.0000000000e+00 -3.5373951502e+03 3.5373951502e+03 0.0000000000e+00 0.0000e+00 -1.0000e+00
      -13  1    1    2    0    0 -2.2911679978e+03 +2.2739869105e+03 +1.0506432577e+03 3.3947486679e+03 0.0000000000e+00 0.0000e+00 1.0000e+00
       13  1    1    2    0    0 +2.2911679978e+03 -2.2739869105e+03 -1.2639726113e+03 3.4667122790e+03 0.0000000000e+00 0.0000e+00 -1.0000e+00
<mgrwt>
<rscale>  0 0.68581438E+04</rscale>
<asrwt>0</asrwt>
<pdfrwt beam="1">  1        2 0.51139474E+00 0.68581438E+04</pdfrwt>
<pdfrwt beam="2">  1       -2 0.54421464E+00 0.68581438E+04</pdfrwt>
<totfact> 0.40383332E-04</totfact>
</mgrwt>
<rwgt>
<wgt id='morphing_basis_vector_1'> +2.2992101e-07 </wgt>
<wgt id='morphing_basis_vector_2'> +2.0984784e-07 </wgt>
<wgt id='morphing_basis_vector_3'> +2.6663569e-07 </wgt>
<wgt id='morphing_basis_vector_4'> +1.1440207e-07 </wgt>
<wgt id='morphing_basis_vector_5'> +2.5914339e-07 </wgt>
</rwgt>
</event>
<event>
 4      1 +6.9060000e-13 7.01814300e+03 7.81860800e-03 7.15946500e-02
        2 -1    0    0  501    0 +0.0000000000e+00 +0.0000000000e+00 +3.0919535086e+03 3.0919535086e+03 0.0000000000e+00 0.0000e+00 -1.0000e+00
       -2 -1    0    0    0  501 -0.0000000000e+00 -0.0000000000e+00 -3.9824605853e+03 3.9824605853e+03 0.0000000000e+00 0.0000e+00 1.0000e+00
      -13  1    1    2    0    0 +2.9364457506e+03 -9.9822172244e+02 -2.0998844264e+03 3.7454872658e+03 0.0000000000e+00 0.0000e+00 1.0000e+00
       13  1    1    2    0    0 -2.9364457506e+03 +9.9822172244e+02 +1.2093773497e+03 3.3289268282e+03 0.0000000000e+00 0.0000e+00 -1.0000e+00
<mgrwt>
<rscale>  0 0.70181431E+04</rscale>
<asrwt>0</asrwt>
<pdfrwt beam="1">  1        2 0.47568516E+00 0.70181431E+04</pdfrwt>
<pdfrwt beam="2">  1       -2 0.61268624E+00 0.70181431E+04</pdfrwt>
<totfact> 0.15843292E-04</totfact>
</mgrwt>
<rwgt>
<wgt id='morphing_basis_vector_1'> +2.2730802e-07 </wgt>
<wgt id='morphing_basis_vector_2'> +1.5735605e-07 </wgt>
<wgt id='morphing_basis_vector_3'> +2.5178006e-07 </wgt>
<wgt id='morphing_basis_vector_4'> +1.7863752e-07 </wgt>
<wgt id='morphing_basis_vector_5'> +2.8870855e-07 </wgt>
</rwgt>
</event>
<event>
 4      1 +6.9060000e-13 6.71658600e+03 7.81860800e-03 7.18781900e-02
        2 -1    0    0  501    0 +0.0000000000e+00 +0.0000000000e+00 +2.1920107750e+03 2.1920107750e+03 0.0000000000e+00 0.0000e+00 1.0000e+00
       -2 -1    0    0    0  501 -0.0000000000e+00 -0.0000000000e+00 -5.1451077978e+03 5.1451077978e+03 0.0000000000e+00 0.0000e+00 -1.0000e+00
      -13  1    1    2    0    0 -9.5080672679e+02 +2.3312564924e+03 -3.9043405666e+03 4.6457147486e+03 0.0000000000e+00 0.0000e+00 -1.0000e+00
       13  1    1    2    0    0 +9.5080672679e+02 -2.3312564924e+03 +9.5124354378e+02 2.6914038242e+03 0.0000000000e+00 0.0000e+00 1.0000e+00
<mgrwt>
<rscale>  0 0.67165860E+04</rscale>
<asrwt>0</asrwt>
<pdfrwt beam="1">  1        2 0.33723243E+00 0.67165860E+04</pdfrwt>
<pdfrwt beam="2">  1       -2 0.79155503E+00 0.67165860E+04</pdfrwt>
<totfact> 0.41546499E-04</totfact>
</mgrwt>
<rwgt>
<wgt id='morphing_basis_vector_1'> +1.9005952e-07 </wgt>
<wgt id='morphing_basis_vector_2'> +1.3000925e-07 </wgt>
<wgt id='morphing_basis_vector_3'> +2.1009652e-07 </wgt>
<wgt id='morphing_basis_vector_4'> +1.5128339e-07 </wgt>
<wgt id='morphing_basis_vector_5'> +2.4224735e-07 </wgt>
</rwgt>
</event>
<event>
 4      1 +6.9060000e-13 6.85683700e+03 7.81860800e-03 7.17444900e-02
        2 -1    0    0  501    0 +0.0000000000e+00 +0.0000000000e+00 +4.6737607143e+03 4.6737607143e+03 0.0000000000e+00 0.0000e+00 1.0000e+00
       -2 -1    0    0    0  501 -0.0000000000e+00 -0.0000000000e+00 -2.5149024323e+03 2.5149024323e+03 0.0000000000e+00 0.0000e+00 -1.0000e+00
      -13  1    1    2    0    0 +2.8278296266e+03 -1.5297229313e+03 -1.6872266918e+02 3.2194937464e+03 0.0000000000e+00 0.0000e+00 -1.0000e+00
       13  1    1    2    0    0 -2.8278296266e+03 +1.5297229313e+03 +2.3275809511e+03 3.9691694002e+03 0.0000000000e+00 0.0000e+00 1.0000e+00
<mgrwt>
<rscale>  0 0.68568366E+04</rscale>
<asrwt>0</asrwt>
<pdfrwt beam="1">  1        2 0.71904011E+00 0.68568366E+04</pdfrwt>
<pdfrwt beam="2">  1       -2 0.38690807E+00 0.68568366E+04</pdfrwt>
<totfact> 0.34660185E-04</totfact>
</mgrwt>
<rwgt>
<wgt id='morphing_basis_vector_1'> +2.0798841e-07 </wgt>
<wgt id='morphing_basis_vector_2'> +1.4584261e-07 </wgt>
<wgt id='morphing_basis_vector_3'> +2.3078925e-07 </wgt>
<wgt id='morphing_basis_vector_4'> +1.6095552e-07 </wgt>
<wgt id='morphing_basis_vector_5'> +2.6287559e-07 </wgt>
</rwgt>
</event>
<event>
 4      1 +6.9060000e-13 6.78025400e+03 7.81860800e-03 7.18170900e-02
        2 -1    0    0  501    0 +0.0000000000e+00 +0.0000000000e+00 +3.8821742032e+03 3.8821742032e+03 0.0000000000e+00 0.0000e+00 -1.0000e+00
       -2 -1    0    0    0  501 -0.0000000000e+00 -0.0000000000e+00 -2.9604447647e+03 2.9604447647e+03 0.0000000000e+00 0.0000e+00 1.0000e+00
      -13  1    1    2    0    0 -2.2683229579e+02 +2.6753509345e+03 -1.6279573396e+03 3.1399364027e+03 0.0000000000e+00 0.0000e+00 1.0000e+00
       13  1    1    2    0    0 +2.2683229579e+02 -2.6753509345e+03 +2.5496867780e+03 3.7026825653e+03 0.0000000000e+00 0.0000e+00 -1.0000e+00
<mgrwt>
<rscale>  0 0.67802544E+04</rscale>
<asrwt>0</asrwt>
<pdfrwt beam="1">  1        2 0.59725757E+00 0.67802544E+04</pdfrwt>
<pdfrwt beam="2">  1       -2 0.45545304E+00 0.67802544E+04</pdfrwt>
<totfact> 0.68974506E-04</totfact>
</mgrwt>
<rwgt>
<wgt id='morphing_basis_vector_1'> +1.9749160e-07 </wgt>
<wgt id='morphing_basis_vector_2'> +1.3540451e-07 </wgt>
<wgt id='morphing_basis_vector_3'> +2.1839845e-07 </wgt>
<wgt id='morphing_basis_vector_4'> +1.5682050e-07 </wgt>
<wgt id='morphing_basis_vector_5'> +2.5155606e-07 </wgt>
</rwgt>
</event>
<event>
 4      1 +6.9060000e-13 6.72378100e+03 7.81860800e-03 7.18712500e-02
        2 -1    0    0  501    0 +0.0000000000e+00 +0.0000000000e+00 +3.7054571801e+03 3.7054571801e+03 0.0000000000e+00 0.0000e+00 -1.0000e+00
       -2 -1    0    0    0  501 -0.0000000000e+00 -0.0000000000e+00 -3.0501790076e+03 3.0501790076e+03 0.0000000000e+00 0.0000e+00 1.0000e+00
      -13  1    1    2    0    0 +1.5614640744e+03 +1.0628401298e+03 -2.4666353340e+03 3.1067811426e+03 0.0000000000e+00 0.0000e+00 1.0000e+00
       13  1    1    2    0    0 -1.5614640744e+03 -1.0628401298e+03 +3.1219135065e+03 3.6488550450e+03 0.0000000000e+00 0.0000e+00 -1.0000e+00
<mgrwt>
<rscale>  0 0.67237810E+04</rscale>
<asrwt>0</asrwt>
<pdfrwt beam="1">  1        2 0.57007033E+00 0.67237810E+04</pdfrwt>
<pdfrwt beam="2">  1       -2 0.46925831E+00 0.67237810E+04</pdfrwt>
<totfact> 0.76312722E-04</totfact>
</mgrwt>
<rwgt>
<wgt id='morphing_basis_vector_1'> +1.9062205e-07 </wgt>
<wgt id='morphing_basis_vector_2'> +1.2982826e-07 </wgt>
<wgt id='morphing_basis_vector_3'> +2.1058599e-07 </wgt>
<wgt id='morphing_basis_vector_4'> +1.5247316e-07 </wgt>
<wgt id='morphing_basis_vector_5'> +2.4333430e-07 </wgt>
</rwgt>
</event>
<event>
 4      1 +6.9060000e-13 7.51449100e+03 7.81860800e-03 7.11578600e-02
        2 -1    0    0  501    0 +0.0000000000e+00 +0.0000000000e+00 +3.6742021220e+03 3.6742021220e+03 0.0000000000e+00 0.0000e+00 -1.0000e+00
       -2 -1    0    0    0  501 -0.0000000000e+00 -0.0000000000e+00 -3.8421658672e+03 3.8421658672e+03 0.0000000000e+00 0.0000e+00 1.0000e+00
      -13  1    1    2    0    0 +2.8727123801e+03 -2.0400848236e+03 -1.3890956797e+03 3.7873485862e+03 0.0000000000e+00 0.0000e+00 1.0000e+00
       13  1    1    2    0    0 -2.8727123801e+03 +2.0400848236e+03 +1.2211319345e+03 3.7290194030e+03 0.0000000000e+00 0.0000e+00 -1.0000e+00
<mgrwt>
<rscale>  0 0.75144911E+04</rscale>
<asrwt>0</asrwt>
<pdfrwt beam="1">  1        2 0.56526187E+00 0.75144911E+04</pdfrwt>
<pdfrwt beam="2">  1       -2 0.59110244E+00 0.75144911E+04</pdfrwt>
<totfact> 0.95097172E-05</totfact>
</mgrwt>
<rwgt>
<wgt id='morphing_basis_vector_1'> +2.9983883e-07 </wgt>
<wgt id='morphing_basis_vector_2'> +2.1031992e-07 </wgt>
<wgt id='morphing_basis_vector_3'> +3.3289682e-07 </wgt>
<wgt id='morphing_basis_vector_4'> +2.3229923e-07 </wgt>
<wgt id='morphing_basis_vector_5'> +3.7940017e-07 </wgt>
</rwgt>
</event>
<event>
 4      1 +6.9060000e-13 6.73941900e+03 7.81860800e-03 7.18562000e-02
        2 -1    0    0  501    0 +0.0000000000e+00 +0.0000000000e+00 +4.0248995823e+03 4.0248995823e+03 0.0000000000e+00 0.0000e+00 -1.0000e+00
       -2 -1    0    0    0  501 -0.0000000000e+00 -0.0000000000e+00 -2.8211744017e+03 2.8211744017e+03 0.0000000000e+00 0.0000e+00 1.0000e+00
      -13  1    1    2    0    0 +2.1899168960e+03 +2.4924631769e+03 +3.6155747320e+00 3.3178489677e+03 0.0000000000e+00 0.0000e+00 1.0000e+00
       13  1    1    2    0    0 -2.1899168960e+03 -2.4924631769e+03 +1.2001096058e+03 3.5282250163e+03 0.0000000000e+00 0.0000e+00 -1.0000e+00
<mgrwt>
<rscale>  0 0.67394195E+04</rscale>
<asrwt>0</asrwt>
<pdfrwt beam="1">  1        2 0.61921532E+00 0.67394195E+04</pdfrwt>
<pdfrwt beam="2">  1       -2 0.43402683E+00 0.67394195E+04</pdfrwt>
<totfact> 0.73785326E-04</totfact>
</mgrwt>
<rwgt>
<wgt id='morphing_basis_vector_1'> +1.9600840e-07 </wgt>
<wgt id='morphing_basis_vector_2'> +1.4163284e-07 </wgt>
<wgt id='morphing_basis_vector_3'> +2.1846335e-07 </wgt>
<wgt id='morphing_basis_vector_4'> +1.4616244e-07 </wgt>
<wgt id='morphing_basis_vector_5'> +2.4495825e-07 </wgt>
</rwgt>
</event>
<event>
 4      1 +6.9060000e-13 7.52129700e+03 7.81860800e-03 7.11521100e-02
        2 -1    0    0  501    0 +0.0000000000e+00 +0.0000000000e+00 +3.5985244075e+03 3.5985244075e+03 0.0000000000e+00 0.0000e+00 -1.0000e+00
       -2 -1    0    0    0  501 -0.0000000000e+00 -0.0000000000e+00 -3.9300762516e+03 3.9300762516e+03 0.0000000000e+00 0.0000e+00 1.0000e+00
      -13  1    1    2    0    0 +3.1620102492e+03 +1.7269883187e+03 -1.2446342158e+03 3.8118121412e+03 0.0000000000e+00 0.0000e+00 1.0000e+00
       13  1    1    2    0    0 -3.1620102492e+03 -1.7269883187e+03 +9.1308237160e+02 3.7167885179e+03 0.0000000000e+00 0.0000e+00 -1.0000e+00
<mgrwt>
<rscale>  0 0.75212965E+04</rscale>
<asrwt>0</asrwt>
<pdfrwt beam="1">  1        2 0.55361914E+00 0.75212965E+04</pdfrwt>
<pdfrwt beam="2">  1       -2 0.60462712E+00 0.75212965E+04</pdfrwt>
<totfact> 0.81584978E-05</totfact>
</mgrwt>
<rwgt>
<wgt id='morphing_basis_vector_1'> +3.0176089e-07 </wgt>
<wgt id='morphing_basis_vector_2'> +2.1353512e-07 </wgt>
<wgt id='morphing_basis_vector_3'> +3.3547632e-07 </wgt>
<wgt id='morphing_basis_vector_4'> +2.3134891e-07 </wgt>
<wgt id='morphing_basis_vector_5'> +3.8062704e-07 </wgt>
</rwgt>
</event>
<event>
 4      1 +6.9060000e-13 7.00472100e+03 7.81860800e-03 7.16069600e-02
        2 -1    0    0  501    0 +0.0000000000e+00 +0.0000000000e+00 +2.5138299498e+03 2.5138299498e+03 0.0000000000e+00 0.0000e+00 1.0000e+00
       -2 -1    0    0    0  501 -0.0000000000e+00 -0.0000000000e+00 -4.8796174475e+03 4.8796174475e+03 0.0000000000e+00 0.0000e+00 -1.0000e+00
      -13  1    1    2    0    0 -3.0054534620e+03 -1.1464492656e+03 -2.6452141105e+03 4.1646433366e+03 0.0000000000e+00 0.0000e+00 -1.0000e+00
       13  1    1    2    0    0 +3.0054534620e+03 +1.1464492656e+03 +2.7942661284e+02 3.2288040607e+03 0.0000000000e+00 0.0000e+00 1.0000e+00
<mgrwt>
<rscale>  0 0.70047208E+04</rscale>
<asrwt>0</asrwt>
<pdfrwt beam="1">  1        2 0.38674307E+00 0.70047208E+04</pdfrwt>
<pdfrwt beam="2">  1       -2 0.75071037E+00 0.70047208E+04</pdfrwt>
<totfact> 0.23485531E-04</totfact>
</mgrwt>
<rwgt>
<wgt id='morphing_basis_vector_1'> +2.2607405e-07 </wgt>
<wgt id='morphing_basis_vector_2'> +1.5761508e-07 </wgt>
<wgt id='morphing_basis_vector_3'> +2.5067427e-07 </wgt>
<wgt id='morphing_basis_vector_4'> +1.7620688e-07 </wgt>
<wgt id='morphing_basis_vector_5'> +2.8641290e-07 </wgt>
</rwgt>
</event>
<event>
 4      1 +6.9060000e-13 6.78389600e+03 7.81860800e-03 7.18136200e-02
        2 -1    0    0  501    0 +0.0000000000e+00 +0.0000000000e+00 +4.9148279044e+03 4.9148279044e+03 0.0000000000e+00 0.0000e+00 1.0000e+00
       -2 -1    0    0    0  501 -0.0000000000e+00 -0.0000000000e+00 -2.3409385738e+03 2.3409385738e+03 0.0000000000e+00 0.0000e+00 -1.0000e+00
      -13  1    1    2    0    0 -6.5683890397e+02 +1.8869964418e+03 -1.6447195061e+03 2.5879132850e+03 0.0000000000e+00 0.0000e+00 -1.0000e+00
       13  1    1    2    0    0 +6.5683890397e+02 -1.8869964418e+03 +4.2186088366e+03 4.6678531932e+03 0.0000000000e+00 0.0000e+00 1.0000e+00
<mgrwt>
<rscale>  0 0.67838957E+04</rscale>
<asrwt>0</asrwt>
<pdfrwt beam="1">  1        2 0.75612737E+00 0.67838957E+04</pdfrwt>
<pdfrwt beam="2">  1       -2 0.36014440E+00 0.67838957E+04</pdfrwt>
<totfact> 0.26695392E-04</totfact>
</mgrwt>
<rwgt>
<wgt id='morphing_basis_vector_1'> +1.9753719e-07 </wgt>
<wgt id='morphing_basis_vector_2'> +1.3458548e-07 </wgt>
<wgt id='morphing_basis_vector_3'> +2.1824845e-07 </wgt>
<wgt id='morphing_basis_vector_4'> +1.5796892e-07 </wgt>
<wgt id='morphing_basis_vector_5'> +2.5216612e-07 </wgt>
</rwgt>
</event>
<event>
 4      1 +6.9060000e-13 7.63623500e+03 7.81860800e-03 7.10559000e-02
        2 -1    0    0  501    0 +0.0000000000e+00 +0.0000000000e+00 +2.5745510430e+03 2.5745510430e+03 0.0000000000e+00 0.0000e+00 1.0000e+00
       -2 -1    0    0    0  501 -0.0000000000e+00 -0.0000000000e+00 -5.6623542794e+03 5.6623542794e+03 0.0000000000e+00 0.0000e+00 -1.0000e+00
      -13  1    1    2    0    0 +2.9762038881e+02 -3.5466267517e+03 -5.2819314086e+01 3.5594843856e+03 0.0000000000e+00 0.0000e+00 -1.0000e+00
       13  1    1    2    0    0 -2.9762038881e+02 +3.5466267517e+03 -3.0349839223e+03 4.6774209368e+03 0.0000000000e+00 0.0000e+00 1.0000e+00
<mgrwt>
<rscale>  0 0.76362347E+04</rscale>
<asrwt>0</asrwt>
<pdfrwt beam="1">  1        2 0.39608478E+00 0.76362347E+04</pdfrwt>
<pdfrwt beam="2">  1       -2 0.87113142E+00 0.76362347E+04</pdfrwt>
<totfact> 0.91072757E-05</totfact>
</mgrwt>
<rwgt>
<wgt id='morphing_basis_vector_1'> +3.5605707e-07 </wgt>
<wgt id='morphing_basis_vector_2'> +3.3089145e-07 </wgt>
<wgt id='morphing_basis_vector_3'> +4.1465285e-07 </wgt>
<wgt id='morphing_basis_vector_4'> +1.6974174e-07 </wgt>
<wgt id='morphing_basis_vector_5'> +3.9804684e-07 </wgt>
</rwgt>
</event>
<event>
 4      1 +6.9060000e-13 7.57074800e+03 7.81860800e-03 7.11105100e-02
        2 -1    0    0  501    0 +0.0000000000e+00 +0.0000000000e+00 +2.7128333280e+03 2.7128333280e+03 0.0000000000e+00 0.0000e+00 1.0000e+00
       -2 -1    0    0    0  501 -0.0000000000e+00 -0.0000000000e+00 -5.2819526195e+03 5.2819526195e+03 0.0000000000e+00 0.0000e+00 -1.0000e+00
      -13  1    1    2    0    0 -1.7556229760e+03 +1.3356120910e+02 -4.8232185638e+03 5.1345387275e+03 0.0000000000e+00 0.0000e+00 -1.0000e+00
       13  1    1    2    0    0 +1.7556229760e+03 -1.3356120910e+02 +2.2540992722e+03 2.8602472200e+03 0.0000000000e+00 0.0000e+00 1.0000e+00
<mgrwt>
<rscale>  0 0.75707482E+04</rscale>
<asrwt>0</asrwt>
<pdfrwt beam="1">  1        2 0.41735898E+00 0.75707482E+04</pdfrwt>
<pdfrwt beam="2">  1       -2 0.81260809E+00 0.75707482E+04</pdfrwt>
<totfact> 0.17387597E-04</totfact>
</mgrwt>
<rwgt>
<wgt id='morphing_basis_vector_1'> +3.0608873e-07 </wgt>
<wgt id='morphing_basis_vector_2'> +2.0842023e-07 </wgt>
<wgt id='morphing_basis_vector_3'> +3.3835398e-07 </wgt>
<wgt id='morphing_basis_vector_4'> +2.4539014e-07 </wgt>
<wgt id='morphing_basis_vector_5'> +3.9141607e-07 </wgt>
</rwgt>
</event>
<event>
 4      1 +6.9060000e-13 6.67560800e+03 7.81860800e-03 7.19178800e-02
        2 -1    0    0  501    0 +0.0000000000e+00 +0.0000000000e+00 +3.1834857139e+03 3.1834857139e+03 0.0000000000e+00 0.0000e+00 1.0000e+00
       -2 -1    0    0    0  501 -0.0000000000e+00 -0.0000000000e+00 -3.4996024238e+03 3.4996024238e+03 0.0000000000e+00 0.0000e+00 -1.0000e+00
      -13  1    1    2    0    0 +2.9701822229e+02 +2.2027398447e+03 +2.3348427704e+03 3.2236273684e+03 0.0000000000e+00 0.0000e+00 -1.0000e+00
       13  1    1    2    0    0 -2.9701822229e+02 -2.2027398447e+03 -2.6509594803e+03 3.4594607693e+03 0.0000000000e+00 0.0000e+00 1.0000e+00
<mgrwt>
<rscale>  0 0.66756076E+04</rscale>
<asrwt>0</asrwt>
<pdfrwt beam="1">  1        2 0.48976703E+00 0.66756076E+04</pdfrwt>
<pdfrwt beam="2">  1       -2 0.53840037E+00 0.66756076E+04</pdfrwt>
<totfact> 0.56272315E-04</totfact>
</mgrwt>
<rwgt>
<wgt id='morphing_basis_vector_1'> +2.4280094e-07 </wgt>
<wgt id='morphing_basis_vector_2'> +2.9510171e-07 </wgt>
<wgt id='morphing_basis_vector_3'> +2.9887715e-07 </wgt>
<wgt id='morphing_basis_vector_4'> +2.4771996e-08 </wgt>
<wgt id='morphing_basis_vector_5'> +2.2603116e-07 </wgt>
</rwgt>
</event>
<event>
 4      1 +6.9060000e-13 7.78588700e+03 7.81860800e-03 7.09331300e-02
        2 -1    0    0  501    0 +0.0000000000e+00 +0.0000000000e+00 +3.0532703203e+03 3.0532703203e+03 0.0000000000e+00 0.0000e+00 1.0000e+00
       -2 -1    0    0    0  501 -0.0000000000e+00 -0.0000000000e+00 -4.9635334982e+03 4.9635334982e+03 0.0000000000e+00 0.0000e+00 -1.0000e+00
      -13  1    1    2    0    0 +1.5190932612e+03 +3.5178481930e+03 -1.6626119960e+03 4.1769820319e+03 0.0000000000e+00 0.0000e+00 1.0000e+00
       13  1    1    2    0    0 -1.5190932612e+03 -3.5178481930e+03 -2.4765118199e+02 3.8398217867e+03 0.0000000000e+00 0.0000e+00 -1.0000e+00
<mgrwt>
<rscale>  0 0.77858871E+04</rscale>
<asrwt>0</asrwt>
<pdfrwt beam="1">  1        2 0.46973390E+00 0.77858871E+04</pdfrwt>
<pdfrwt beam="2">  1       -2 0.76362053E+00 0.77858871E+04</pdfrwt>
<totfact> 0.11352691E-04</totfact>
</mgrwt>
<rwgt>
<wgt id='morphing_basis_vector_1'> +3.4879393e-07 </wgt>
<wgt id='morphing_basis_vector_2'> +2.5206302e-07 </wgt>
<wgt id='morphing_basis_vector_3'> +3.8908053e-07 </wgt>
<wgt id='morphing_basis_vector_4'> +2.6067714e-07 </wgt>
<wgt id='morphing_basis_vector_5'> +4.3673709e-07 </wgt>
</rwgt>
</event>
<event>
 4      1 +6.9060000e-13 6.80840900e+03 7.81860800e-03 7.17902900e-02
        2 -1    0    0  501    0 +0.0000000000e+00 +0.0000000000e+00 +3.0457539316e+03 3.0457539316e+03 0.0000000000e+00 0.0000e+00 -1.0000e+00
       -2 -1    0    0    0  501 -0.0000000000e+00 -0.0000000000e+00 -3.8048408917e+03 3.8048408917e+03 0.0000000000e+00 0.0000e+00 1.0000e+00
      -13  1    1    2    0    0 +3.0115047409e+02 +1.7183533955e+03 -3.3208698351e+03 3.7512139984e+03 0.0000000000e+00 0.0000e+00 1.0000e+00
       13  1    1    2    0    0 -3.0115047409e+02 -1.7183533955e+03 +2.5617828750e+03 3.0993808250e+03 0.0000000000e+00 0.0000e+00 -1.0000e+00
<mgrwt>
<rscale>  0 0.68084092E+04</rscale>
<asrwt>0</asrwt>
<pdfrwt beam="1">  1        2 0.46857753E+00 0.68084092E+04</pdfrwt>
<pdfrwt beam="2">  1       -2 0.58536013E+00 0.68084092E+04</pdfrwt>
<totfact> 0.31118457E-04</totfact>
</mgrwt>
<rwgt>
<wgt id='morphing_basis_vector_1'> +2.0035789e-07 </wgt>
<wgt id='morphing_basis_vector_2'> +1.3640835e-07 </wgt>
<wgt id='morphing_basis_vector_3'> +2.2134632e-07 </wgt>
<wgt id='morphing_basis_vector_4'> +1.6036462e-07 </wgt>
<wgt id='morphing_basis_vector_5'> +2.5584515e-07 </wgt>
</rwgt>
</event>
<event>
 4      1 +6.9060000e-13 6.77621200e+03 7.81860800e-03 7.18209500e-02
        2 -1    0    0  501    0 +0.0000000000e+00 +0.0000000000e+00 +4.3576245893e+03 4.3576245893e+03 0.0000000000e+00 0.0000e+00 1.0000e+00
       -2 -1    0    0    0  501 -0.0000000000e+00 -0.0000000000e+00 -2.6342936382e+03 2.6342936382e+03 0.0000000000e+00 0.0000e+00 -1.0000e+00
      -13  1    1    2    0    0 -1.4610720841e+03 +2.9657825695e+03 +9.7367136851e+01 3.3075789096e+03 0.0000000000e+00 0.0000e+00 -1.0000e+00
       13  1    1    2    0    0 +1.4610720841e+03 -2.9657825695e+03 +1.6259638142e+03 3.6843393179e+03 0.0000000000e+00 0.0000e+00 1.0000e+00
<mgrwt>
<rscale>  0 0.67762121E+04</rscale>
<asrwt>0</asrwt>
<pdfrwt beam="1">  1        2 0.67040378E+00 0.67762121E+04</pdfrwt>
<pdfrwt beam="2">  1       -2 0.40527594E+00 0.67762121E+04</pdfrwt>
<totfact> 0.56651986E-04</totfact>
</mgrwt>
<rwgt>
<wgt id='morphing_basis_vector_1'> +1.9971581e-07 </wgt>
<wgt id='morphing_basis_vector_2'> +1.4298727e-07 </wgt>
<wgt id='morphing_basis_vector_3'> +2.2229015e-07 </wgt>
<wgt id='morphing_basis_vector_4'> +1.5067240e-07 </wgt>
<wgt id='morphing_basis_vector_5'> +2.5046923e-07 </wgt>
</rwgt>
</event>
<event>
 4      1 +6.9060000e-13 6.70916100e+03 7.81860800e-03 7.18853600e-02
        2 -1    0    0  501    0 +0.0000000000e+00 +0.0000000000e+00 +3.5141411875e+03 3.5141411875e+03 0.0000000000e+00 0.0000e+00 1.0000e+00
       -2 -1    0    0    0  501 -0.0000000000e+00 -0.0000000000e+00 -3.2022651639e+03 3.2022651639e+03 0.0000000000e+00 0.0000e+00 -1.0000e+00
      -13  1    1    2    0    0 +9.4502254738e+01 +7.8523718187e+02 -3.1075951625e+03 3.2066611611e+03 0.0000000000e+00 0.0000e+00 -1.0000e+00
       13  1    1    2    0    0 -9.4502254738e+01 -7.8523718187e+02 +3.4194711861e+03 3.5097451903e+03 0.0000000000e+00 0.0000e+00 1.0000e+00
<mgrwt>
<rscale>  0 0.67091615E+04</rscale>
<asrwt>0</asrwt>
<pdfrwt beam="1">  1        2 0.54063710E+00 0.67091615E+04</pdfrwt>
<pdfrwt beam="2">  1       -2 0.49265618E+00 0.67091615E+04</pdfrwt>
<totfact> 0.71626373E-04</totfact>
</mgrwt>
<rwgt>
<wgt id='morphing_basis_vector_1'> +1.8890518e-07 </wgt>
<wgt id='morphing_basis_vector_2'> +1.2850583e-07 </wgt>
<wgt id='morphing_basis_vector_3'> +2.0865031e-07 </wgt>
<wgt id='morphing_basis_vector_4'> +1.5129355e-07 </wgt>
<wgt id='morphing_basis_vector_5'> +2.4123334e-07 </wgt>
</rwgt>
</event>
<event>
 4      1 +6.9060000e-13 6.72713800e+03 7.81860800e-03 7.18680200e-02
        2 -1    0    0  501    0 +0.0000000000e+00 +0.0000000000e+00 +2.8891485627e+03 2.8891485627e+03 0.0000000000e+00 0.0000e+00 -1.0000e+00
       -2 -1    0    0    0  501 -0.0000000000e+00 -0.0000000000e+00 -3.9158930253e+03 3.9158930253e+03 0.0000000000e+00 0.0000e+00 1.0000e+00
      -13  1    1    2    0    0 -2.9531606039e+03 -1.5780084467e+03 -8.3696494639e+02 3.4513444528e+03 0.0000000000e+00 0.0000e+00 1.0000e+00
       13  1    1    2    0    0 +2.9531606039e+03 +1.5780084467e+03 -1.8977951622e+02 3.3536971352e+03 0.0000000000e+00 0.0000e+00 -1.0000e+00
<mgrwt>
<rscale>  0 0.67271381E+04</rscale>
<asrwt>0</asrwt>
<pdfrwt beam="1">  1        2 0.44448440E+00 0.67271381E+04</pdfrwt>
<pdfrwt beam="2">  1       -2 0.60244508E+00 0.67271381E+04</pdfrwt>
<totfact> 0.28034527E-04</totfact>
</mgrwt>
<rwgt>
<wgt id='morphing_basis_vector_1'> +1.9588989e-07 </wgt>
<wgt id='morphing_basis_vector_2'> +1.4443002e-07 </wgt>
<wgt id='morphing_basis_vector_3'> +2.1901021e-07 </wgt>
<wgt id='morphing_basis_vector_4'> +1.4230405e-07 </wgt>
<wgt id='morphing_basis_vector_5'> +2.4293910e-07 </wgt>
</rwgt>
</event>
<event>
 4      1 +6.9060000e-13 7.28590200e+03 7.81860800e-03 7.13546700e-02
        2 -1    0    0  501    0 +0.0000000000e+00 +0.0000000000e+00 +4.3273602109e+03 4.3273602109e+03 0.0000000000e+00 0.0000e+00 1.0000e+00
       -2 -1    0    0    0  501 -0.0000000000e+00 -0.0000000000e+00 -3.0667869766e+03 3.0667869766e+03 0.0000000000e+00 0.0000e+00 -1.0000e+00
      -13  1    1    2    0    0 -9.2344846114e+02 +8.8810843182e+02 -2.8305980243e+03 3.1070530768e+03 0.0000000000e+00 0.0000e+00 -1.0000e+00
       13  1    1    2    0    0 +9.2344846114e+02 -8.8810843182e+02 +4.0911712586e+03 4.2870941107e+03 0.0000000000e+00 0.0000e+00 1.0000e+00
<mgrwt>
<rscale>  0 0.72859020E+04</rscale>
<asrwt>0</asrwt>
<pdfrwt beam="1">  1        2 0.66574773E+00 0.72859020E+04</pdfrwt>
<pdfrwt beam="2">  1       -2 0.47181338E+00 0.72859020E+04</pdfrwt>
<totfact> 0.20410971E-04</totfact>
</mgrwt>
<rwgt>
<wgt id='morphing_basis_vector_1'> +2.6259015e-07 </wgt>
<wgt id='morphing_basis_vector_2'> +1.7871319e-07 </wgt>
<wgt id='morphing_basis_vector_3'> +2.9019296e-07 </wgt>
<wgt id='morphing_basis_vector_4'> +2.1050671e-07 </wgt>
<wgt id='morphing_basis_vector_5'> +3.3568173e-07 </wgt>
</rwgt>
</event>
<event>
 4      1 +6.9060000e-13 7.14381000e+03 7.81860800e-03 7.14807000e-02
        2 -1    0    0  501    0 +0.0000000000e+00 +0.0000000000e+00 +2.5023750608e+03 2.5023750608e+03 0.0000000000e+00 0.0000e+00 1.0000e+00
       -2 -1    0    0    0  501 -0.0000000000e+00 -0.0000000000e+00 -5.0985577843e+03 5.0985577843e+03 0.0000000000e+00 0.0000e+00 -1.0000e+00
      -13  1    1    2    0    0 +1.9679819700e+03 +9.6584988726e+02 -4.2985932920e+03 4.8253210597e+03 0.0000000000e+00 0.0000e+00 -1.0000e+00
       13  1    1    2    0    0 -1.9679819700e+03 -9.6584988726e+02 +1.7024105686e+03 2.7756117854e+03 0.0000000000e+00 0.0000e+00 1.0000e+00
<mgrwt>
<rscale>  0 0.71438096E+04</rscale>
<asrwt>0</asrwt>
<pdfrwt beam="1">  1        2 0.38498078E+00 0.71438096E+04</pdfrwt>
<pdfrwt beam="2">  1       -2 0.78439350E+00 0.71438096E+04</pdfrwt>
<totfact> 0.26995155E-04</totfact>
</mgrwt>
<rwgt>
<wgt id='morphing_basis_vector_1'> +2.4285365e-07 </wgt>
<wgt id='morphing_basis_vector_2'> +1.6555303e-07 </wgt>
<wgt id='morphing_basis_vector_3'> +2.6841808e-07 </wgt>
<wgt id='morphing_basis_vector_4'> +1.9426567e-07 </wgt>
<wgt id='morphing_basis_vector_5'> +3.1019149e-07 </wgt>
</rwgt>
</event>
<event>
 4      1 +6.9060000e-13 6.78798000e+03 7.81860800e-03 7.18097200e-02
        2 -1    0    0  501    0 +0.0000000000e+00 +0.0000000000e+00 +4.0789699366e+03 4.0789699366e+03 0.0000000000e+00 0.0000e+00 -1.0000e+00
       -2 -1    0    0    0  501 -0.0000000000e+00 -0.0000000000e+00 -2.8240388521e+03 2.8240388521e+03 0.0000000000e+00 0.0000e+00 1.0000e+00
      -13  1    1    2    0    0 +4.6385229884e+02 +2.2311094302e+03 -1.9303426644e+03 2.9865081695e+03 0.0000000000e+00 0.0000e+00 1.0000e+00
       13  1    1    2    0    0 -4.6385229884e+02 -2.2311094302e+03 +3.1852737489e+03 3.9165006192e+03 0.0000000000e+00 0.0000e+00 -1.0000e+00
<mgrwt>
<rscale>  0 0.67879804E+04</rscale>
<asrwt>0</asrwt>
<pdfrwt beam="1">  1        2 0.62753384E+00 0.67879804E+04</pdfrwt>
<pdfrwt beam="2">  1       -2 0.43446752E+00 0.67879804E+04</pdfrwt>
<totfact> 0.65537840E-04</totfact>
</mgrwt>
<rwgt>
<wgt id='morphing_basis_vector_1'> +1.9810003e-07 </wgt>
<wgt id='morphing_basis_vector_2'> +1.3516644e-07 </wgt>
<wgt id='morphing_basis_vector_3'> +2.1891782e-07 </wgt>
<wgt id='morphing_basis_vector_4'> +1.5816284e-07 </wgt>
<wgt id='morphing_basis_vector_5'> +2.5275926e-07 </wgt>
</rwgt>
</event>
<event>
 4      1 +6.9060000e-13 6.78418300e+03 7.81860800e-03 7.18133400e-02
        2 -1    0    0  501    0 +0.0000000000e+00 +0.0000000000e+00 +3.8589771407e+03 3.8589771407e+03 0.0000000000e+00 0.0000e+00 -1.0000e+00
       -2 -1    0    0    0  501 -0.0000000000e+00 -0.0000000000e+00 -2.9816932222e+03 2.9816932222e+03 0.0000000000e+00 0.0000e+00 1.0000e+00
      -13  1    1    2    0    0 +2.8063485742e+03 -1.5749365717e+03 -6.4279371384e+02 3.2816461240e+03 0.0000000000e+00 0.0000e+00 1.0000e+00
       13  1    1    2    0    0 -2.8063485742e+03 +1.5749365717e+03 +1.5200776323e+03 3.5590242389e+03 0.0000000000e+00 0.0000e+00 -1.0000e+00
<mgrwt>
<rscale>  0 0.67841834E+04</rscale>
<asrwt>0</asrwt>
<pdfrwt beam="1">  1        2 0.59368879E+00 0.67841834E+04</pdfrwt>
<pdfrwt beam="2">  1       -2 0.45872204E+00 0.67841834E+04</pdfrwt>
<totfact> 0.68293828E-04</totfact>
</mgrwt>
<rwgt>
<wgt id='morphing_basis_vector_1'> +1.9959636e-07 </wgt>
<wgt id='morphing_basis_vector_2'> +1.4055266e-07 </wgt>
<wgt id='morphing_basis_vector_3'> +2.2160321e-07 </wgt>
<wgt id='morphing_basis_vector_4'> +1.5365398e-07 </wgt>
<wgt id='morphing_basis_vector_5'> +2.5184317e-07 </wgt>
</rwgt>
</event>
<event>
 4      1 +6.9060000e-13 6.81144500e+03 7.81860800e-03 7.17874100e-02
        2 -1    0    0  501    0 +0.0000000000e+00 +0.0000000000e+00 +5.5703524015e+03 5.5703524015e+03 0.0000000000e+00 0.0000e+00 -1.0000e+00
       -2 -1    0    0    0  501 -0.0000000000e+00 -0.0000000000e+00 -2.0822640364e+03 2.0822640364e+03 0.0000000000e+00 0.0000e+00 1.0000e+00
      -13  1    1    2    0    0 +2.4571023275e+03 -1.0188836530e+03 -6.4545294126e+02 2.7371673762e+03 0.0000000000e+00 0.0000e+00 1.0000e+00
       13  1    1    2    0    0 -2.4571023275e+03 +1.0188836530e+03 +4.1335413064e+03 4.9154490617e+03 0.0000000000e+00 0.0000e+00 -1.0000e+00
<mgrwt>
<rscale>  0 0.68114446E+04</rscale>
<asrwt>0</asrwt>
<pdfrwt beam="1">  1        2 0.85697728E+00 0.68114446E+04</pdfrwt>
<pdfrwt beam="2">  1       -2 0.32034832E+00 0.68114446E+04</pdfrwt>
<totfact> 0.43956418E-05</totfact>
</mgrwt>
<rwgt>
<wgt id='morphing_basis_vector_1'> +2.0110324e-07 </wgt>
<wgt id='morphing_basis_vector_2'> +1.3779147e-07 </wgt>
<wgt id='morphing_basis_vector_3'> +2.2237752e-07 </wgt>
<wgt id='morphing_basis_vector_4'> +1.5981865e-07 </wgt>
<wgt id='morphing_basis_vector_5'> +2.5623234e-07 </wgt>
</rwgt>
</event>
<event>
 4      1 +6.9060000e-13 6.90566700e+03 7.81860800e-03 7.16987000e-02
        2 -1    0    0  501    0 +0.0000000000e+00 +0.0000000000e+00 +5.0699787981e+03 5.0699787981e+03 0.0000000000e+00 0.0000e+00 -1.0000e+00
       -2 -1    0    0    0  501 -0.0000000000e+00 -0.0000000000e+00 -2.3515007230e+03 2.3515007230e+03 0.0000000000e+00 0.0000e+00 1.0000e+00
      -13  1    1    2    0    0 -1.9592715180e+03 -1.5244179344e+03 -1.2199067863e+03 2.7660020766e+03 0.0000000000e+00 0.0000e+00 1.0000e+00
       13  1    1    2    0    0 +1.9592715180e+03 +1.5244179344e+03 +3.9383848615e+03 4.6554774446e+03 0.0000000000e+00 0.0000e+00 -1.0000e+00
<mgrwt>
<rscale>  0 0.69056669E+04</rscale>
<asrwt>0</asrwt>
<pdfrwt beam="1">  1        2 0.77999674E+00 0.69056669E+04</pdfrwt>
<pdfrwt beam="2">  1       -2 0.36176934E+00 0.69056669E+04</pdfrwt>
<totfact> 0.16046035E-04</totfact>
</mgrwt>
<rwgt>
<wgt id='morphing_basis_vector_1'> +2.1226237e-07 </wgt>
<wgt id='morphing_basis_vector_2'> +1.4503908e-07 </wgt>
<wgt id='morphing_basis_vector_3'> +2.3464207e-07 </wgt>
<wgt id='morphing_basis_vector_4'> +1.6924991e-07 </wgt>
<wgt id='morphing_basis_vector_5'> +2.7076472e-07 </wgt>
</rwgt>
</event>
<event>
 4      1 +6.9060000e-13 7.66130300e+03 7.81860800e-03 7.10351300e-02
        2 -1    0    0  501    0 +0.0000000000e+00 +0.0000000000e+00 +3.6459857052e+03 3.6459857052e+03 0.0000000000e+00 0.0000e+00 -1.0000e+00
       -2 -1    0    0    0  501 -0.0000000000e+00 -0.0000000000e+00 -4.0246708611e+03 4.0246708611e+03 0.0000000000e+00 0.0000e+00 1.0000e+00
      -13  1    1    2    0    0 +1.3812581680e+03 -1.5539305285e+03 +3.0319317198e+03 3.6763003370e+03 0.0000000000e+00 0.0000e+00 -1.0000e+00
       13  1    1    2    0    0 -1.3812581680e+03 +1.5539305285e+03 -3.4106168757e+03 3.9943562293e+03 0.0000000000e+00 0.0000e+00 1.0000e+00
<mgrwt>
<rscale>  0 0.76613034E+04</rscale>
<asrwt>0</asrwt>
<pdfrwt beam="1">  1        2 0.56092088E+00 0.76613034E+04</pdfrwt>
<pdfrwt beam="2">  1       -2 0.61918013E+00 0.76613034E+04</pdfrwt>
<totfact> 0.51296716E-05</totfact>
</mgrwt>
<rwgt>
<wgt id='morphing_basis_vector_1'> +4.3236954e-07 </wgt>
<wgt id='morphing_basis_vector_2'> +5.4537916e-07 </wgt>
<wgt id='morphing_basis_vector_3'> +5.3770394e-07 </wgt>
<wgt id='morphing_basis_vector_4'> +1.8245092e-08 </wgt>
<wgt id='morphing_basis_vector_5'> +3.9033721e-07 </wgt>
</rwgt>
</event>
<event>
 4      1 +6.9060000e-13 6.94377100e+03 7.81860800e-03 7.16632300e-02
        2 -1    0    0  501    0 +0.0000000000e+00 +0.0000000000e+00 +3.9846223367e+03 3.9846223367e+03 0.0000000000e+00 0.0000e+00 -1.0000e+00
       -2 -1    0    0    0  501 -0.0000000000e+00 -0.0000000000e+00 -3.0251269031e+03 3.0251269031e+03 0.0000000000e+00 0.0000e+00 1.0000e+00
      -13  1    1    2    0    0 -8.7465776279e+02 +1.9117336781e+03 -2.3095181114e+03 3.1230795323e+03 0.0000000000e+00 0.0000e+00 1.0000e+00
       13  1    1    2    0    0 +8.7465776279e+02 -1.9117336781e+03 +3.2690135450e+03 3.8866697075e+03 0.0000000000e+00 0.0000e+00 -1.0000e+00
<mgrwt>
<rscale>  0 0.69437708E+04</rscale>
<asrwt>0</asrwt>
<pdfrwt beam="1">  1        2 0.61301882E+00 0.69437708E+04</pdfrwt>
<pdfrwt beam="2">  1       -2 0.46540414E+00 0.69437708E+04</pdfrwt>
<totfact> 0.47532451E-04</totfact>
</mgrwt>
<rwgt>
<wgt id='morphing_basis_vector_1'> +2.1680657e-07 </wgt>
<wgt id='morphing_basis_vector_2'> +1.4776174e-07 </wgt>
<wgt id='morphing_basis_vector_3'> +2.3958251e-07 </wgt>
<wgt id='morphing_basis_vector_4'> +1.7339007e-07 </wgt>
<wgt id='morphing_basis_vector_5'> +2.7683146e-07 </wgt>
</rwgt>
</event>
<event>
 4      1 +6.9060000e-13 7.14471900e+03 7.81860800e-03 7.14798900e-02
        2 -1    0    0  501    0 +0.0000000000e+00 +0.0000000000e+00 +3.9278419846e+03 3.9278419846e+03 0.0000000000e+00 0.0000e+00 1.0000e+00
       -2 -1    0    0    0  501 -0.0000000000e+00 -0.0000000000e+00 -3.2490493339e+03 3.2490493339e+03 0.0000000000e+00 0.0000e+00 -1.0000e+00
      -13  1    1    2    0    0 -3.3495383028e+03 +2.9104093243e+02 -8.7336813814e+02 3.4737420128e+03 0.0000000000e+00 0.0000e+00 -1.0000e+00
       13  1    1    2    0    0 +3.3495383028e+03 -2.9104093243e+02 +1.5521607889e+03 3.7031493058e+03 0.0000000000e+00 0.0000e+00 1.0000e+00
<mgrwt>
<rscale>  0 0.71447190E+04</rscale>
<asrwt>0</asrwt>
<pdfrwt beam="1">  1        2 0.60428338E+00 0.71447190E+04</pdfrwt>
<pdfrwt beam="2">  1       -2 0.49985375E+00 0.71447190E+04</pdfrwt>
<totfact> 0.29082828E-04</totfact>
</mgrwt>
<rwgt>
<wgt id='morphing_basis_vector_1'> +2.4520723e-07 </wgt>
<wgt id='morphing_basis_vector_2'> +1.7218079e-07 </wgt>
<wgt id='morphing_basis_vector_3'> +2.7221115e-07 </wgt>
<wgt id='morphing_basis_vector_4'> +1.8958163e-07 </wgt>
<wgt id='morphing_basis_vector_5'> +3.0994650e-07 </wgt>
</rwgt>
</event>
<event>
 4      1 +6.9060000e-13 7.22364200e+03 7.81860800e-03 7.14095400e-02
        2 -1    0    0  501    0 +0.0000000000e+00 +0.0000000000e+00 +2.3529110900e+03 2.3529110900e+03 0.0000000000e+00 0.0000e+00 1.0000e+00
       -2 -1    0    0    0  501 -0.0000000000e+00 -0.0000000000e+00 -5.5443030945e+03 5.5443030945e+03 0.0000000000e+00 0.0000e+00 -1.0000e+00
      -13  1    1    2    0    0 -3.5059701225e+03 +4.0040611375e+02 -2.4376374551e+03 4.2888492534e+03 0.0000000000e+00 0.0000e+00 1.0000e+00
       13  1    1    2    0    0 +3.5059701225e+03 -4.0040611375e+02 -7.5375454939e+02 3.6083649312e+03 0.0000000000e+00 0.0000e+00 -1.0000e+00
<mgrwt>
<rscale>  0 0.72236424E+04</rscale>
<asrwt>0</asrwt>
<pdfrwt beam="1">  1        2 0.36198632E+00 0.72236424E+04</pdfrwt>
<pdfrwt beam="2">  1       -2 0.85296970E+00 0.72236424E+04</pdfrwt>
<totfact> 0.17961366E-04</totfact>
</mgrwt>
<rwgt>
<wgt id='morphing_basis_vector_1'> +2.5790133e-07 </wgt>
<wgt id='morphing_basis_vector_2'> +1.8488835e-07 </wgt>
<wgt id='morphing_basis_vector_3'> +2.8722129e-07 </wgt>
<wgt id='morphing_basis_vector_4'> +1.9447191e-07 </wgt>
<wgt id='morphing_basis_vector_5'> +3.2358520e-07 </wgt>
</rwgt>
</event>
<event>
 4      1 +6.9060000e-13 6.67205700e+03 7.81860800e-03 7.19213300e-02
        2 -1    0    0  501    0 +0.0000000000e+00 +0.0000000000e+00 +3.6593144327e+03 3.6593144327e+03 0.0000000000e+00 0.0000e+00 -1.0000e+00
       -2 -1    0    0    0  501 -0.0000000000e+00 -0.0000000000e+00 -3.0413035040e+03 3.0413035040e+03 0.0000000000e+00 0.0000e+00 1.0000e+00
      -13  1    1    2    0    0 -2.3338552038e+03 +1.7536413188e+03 -1.3125107049e+03 3.2007534016e+03 0.0000000000e+00 0.0000e+00 1.0000e+00
       13  1    1    2    0    0 +2.3338552038e+03 -1.7536413188e+03 +1.9305216335e+03 3.4998645352e+03 0.0000000000e+00 0.0000e+00 -1.0000e+00
<mgrwt>
<rscale>  0 0.66720569E+04</rscale>
<asrwt>0</asrwt>
<pdfrwt beam="1">  1        2 0.56297146E+00 0.66720569E+04</pdfrwt>
<pdfrwt beam="2">  1       -2 0.46789284E+00 0.66720569E+04</pdfrwt>
<totfact> 0.85070447E-04</totfact>
</mgrwt>
<rwgt>
<wgt id='morphing_basis_vector_1'> +1.8566817e-07 </wgt>
<wgt id='morphing_basis_vector_2'> +1.2832911e-07 </wgt>
<wgt id='morphing_basis_vector_3'> +2.0554649e-07 </wgt>
<wgt id='morphing_basis_vector_4'> +1.4604050e-07 </wgt>
<wgt id='morphing_basis_vector_5'> +2.3576927e-07 </wgt>
</rwgt>
</event>
<event>
 4      1 +6.9060000e-13 7.01844500e+03 7.81860800e-03 7.15943700e-02
        2 -1    0    0  501    0 +0.0000000000e+00 +0.0000000000e+00 +2.3477161748e+03 2.3477161748e+03 0.0000000000e+00 0.0000e+00 -1.0000e+00
       -2 -1    0    0    0  501 -0.0000000000e+00 -0.0000000000e+00 -5.2453707672e+03 5.2453707672e+03 0.0000000000e+00 0.0000e+00 1.0000e+00
      -13  1    1    2    0    0 -1.7103030904e+03 -2.0926530213e+03 +9.7281346106e+02 2.8724030634e+03 0.0000000000e+00 0.0000e+00 1.0000e+00
       13  1    1    2    0    0 +1.7103030904e+03 +2.0926530213e+03 -3.8704680535e+03 4.7206838786e+03 0.0000000000e+00 0.0000e+00 -1.0000e+00
<mgrwt>
<rscale>  0 0.70184448E+04</rscale>
<asrwt>0</asrwt>
<pdfrwt beam="1">  1        2 0.36118710E+00 0.70184448E+04</pdfrwt>
<pdfrwt beam="2">  1       -2 0.80698012E+00 0.70184448E+04</pdfrwt>
<totfact> 0.30993870E-04</totfact>
</mgrwt>
<rwgt>
<wgt id='morphing_basis_vector_1'> +2.8427828e-07 </wgt>
<wgt id='morphing_basis_vector_2'> +3.2443482e-07 </wgt>
<wgt id='morphing_basis_vector_3'> +3.4513272e-07 </wgt>
<wgt id='morphing_basis_vector_4'> +5.6589499e-08 </wgt>
<wgt id='morphing_basis_vector_5'> +2.7846900e-07 </wgt>
</rwgt>
</event>
<event>
 4      1 +6.9060000e-13 6.96234800e+03 7.81860800e-03 7.16460200e-02
        2 -1    0    0  501    0 +0.0000000000e+00 +0.0000000000e+00 +4.3882091751e+03 4.3882091751e+03 0.0000000000e+00 0.0000e+00 -1.0000e+00
       -2 -1    0    0    0  501 -0.0000000000e+00 -0.0000000000e+00 -2.7616212731e+03 2.7616212731e+03 0.0000000000e+00 0.0000e+00 1.0000e+00
      -13  1    1    2    0    0 +1.9949268453e+03 +2.5842333179e+03 -4.2779306851e+02 3.2925676711e+03 0.0000000000e+00 0.0000e+00 1.0000e+00
       13  1    1    2    0    0 -1.9949268453e+03 -2.5842333179e+03 +2.0543809705e+03 3.8572627771e+03 0.0000000000e+00 0.0000e+00 -1.0000e+00
<mgrwt>
<rscale>  0 0.69623478E+04</rscale>
<asrwt>0</asrwt>
<pdfrwt beam="1">  1        2 0.67510910E+00 0.69623478E+04</pdfrwt>
<pdfrwt beam="2">  1       -2 0.42486481E+00 0.69623478E+04</pdfrwt>
<totfact> 0.38695804E-04</totfact>
</mgrwt>
<rwgt>
<wgt id='morphing_basis_vector_1'> +2.2106640e-07 </wgt>
<wgt id='morphing_basis_vector_2'> +1.5502430e-07 </wgt>
<wgt id='morphing_basis_vector_3'> +2.4532627e-07 </wgt>
<wgt id='morphing_basis_vector_4'> +1.7110860e-07 </wgt>
<wgt id='morphing_basis_vector_5'> +2.7946122e-07 </wgt>
</rwgt>
</event>
<event>
 4      1 +6.9060000e-13 6.84730100e+03 7.81860800e-03 7.17534800e-02
        2 -1    0    0  501    0 +0.0000000000e+00 +0.0000000000e+00 +4.6952835773e+03 4.6952835773e+03 0.0000000000e+00 0.0000e+00 -1.0000e+00
       -2 -1    0    0    0  501 -0.0000000000e+00 -0.0000000000e+00 -2.4964162420e+03 2.4964162420e+03 0.0000000000e+00 0.0000e+00 1.0000e+00
      -13  1    1    2    0    0 -4.1796186216e+02 -3.3558843492e+03 +1.6598734885e+03 3.7672047835e+03 0.0000000000e+00 0.0000e+00 1.0000e+00
       13  1    1    2    0    0 +4.1796186216e+02 +3.3558843492e+03 +5.3899384677e+02 3.4244950358e+03 0.0000000000e+00 0.0000e+00 -1.0000e+00
<mgrwt>
<rscale>  0 0.68473008E+04</rscale>
<asrwt>0</asrwt>
<pdfrwt beam="1">  1        2 0.72235132E+00 0.68473008E+04</pdfrwt>
<pdfrwt beam="2">  1       -2 0.38406404E+00 0.68473008E+04</pdfrwt>
<totfact> 0.34219055E-04</totfact>
</mgrwt>
<rwgt>
<wgt id='morphing_basis_vector_1'> +2.1793800e-07 </wgt>
<wgt id='morphing_basis_vector_2'> +1.7761177e-07 </wgt>
<wgt id='morphing_basis_vector_3'> +2.4769505e-07 </wgt>
<wgt id='morphing_basis_vector_4'> +1.3626187e-07 </wgt>
<wgt id='morphing_basis_vector_5'> +2.5940857e-07 </wgt>
</rwgt>
</event>
<event>
 4      1 +6.9060000e-13 7.37788800e+03 7.81860800e-03 7.12746100e-02
        2 -1    0    0  501    0 +0.0000000000e+00 +0.0000000000e+00 +2.6858311521e+03 2.6858311521e+03 0.0000000000e+00 0.0000e+00 1.0000e+00
       -2 -1    0    0    0  501 -0.0000000000e+00 -0.0000000000e+00 -5.0667023731e+03 5.0667023731e+03 0.0000000000e+00 0.0000e+00 -1.0000e+00
      -13  1    1    2    0    0 +2.2707026128e+03 -8.4482064388e+02 -4.1135099097e+03 4.7739685853e+03 0.0000000000e+00 0.0000e+00 -1.0000e+00
       13  1    1    2    0    0 -2.2707026128e+03 +8.4482064388e+02 +1.7326386886e+03 2.9785649400e+03 0.0000000000e+00 0.0000e+00 1.0000e+00
<mgrwt>
<rscale>  0 0.73778878E+04</rscale>
<asrwt>0</asrwt>
<pdfrwt beam="1">  1        2 0.41320480E+00 0.73778878E+04</pdfrwt>
<pdfrwt beam="2">  1       -2 0.77949266E+00 0.73778878E+04</pdfrwt>
<totfact> 0.20641341E-04</totfact>
</mgrwt>
<rwgt>
<wgt id='morphing_basis_vector_1'> +2.7629226e-07 </wgt>
<wgt id='morphing_basis_vector_2'> +1.8851854e-07 </wgt>
<wgt id='morphing_basis_vector_3'> +3.0546929e-07 </wgt>
<wgt id='morphing_basis_vector_4'> +2.2090784e-07 </wgt>
<wgt id='morphing_basis_vector_5'> +3.5294589e-07 </wgt>
</rwgt>
</event>
<event>
 4      1 +6.9060000e-13 7.20139900e+03 7.81860800e-03 7.14292700e-02
        2 -1    0    0  501    0 +0.0000000000e+00 +0.0000000000e+00 +2.3302696781e+03 2.3302696781e+03 0.0000000000e+00 0.0000e+00 1.0000e+00
       -2 -1    0    0    0  501 -0.0000000000e+00 -0.0000000000e+00 -5.5637488338e+03 5.5637488338e+03 0.0000000000e+00 0.0000e+00 -1.0000e+00
      -13  1    1    2    0    0 +2.5187056700e+03 +1.9485492257e+03 -3.4589434760e+03 4.7015967827e+03 0.0000000000e+00 0.0000e+00 1.0000e+00
       13  1    1    2    0    0 -2.5187056700e+03 -1.9485492257e+03 +2.2546432028e+02 3.1924217291e+03 0.0000000000e+00 0.0000e+00 -1.0000e+00
<mgrwt>
<rscale>  0 0.72013985E+04</rscale>
<asrwt>0</asrwt>
<pdfrwt beam="1">  1        2 0.35850303E+00 0.72013985E+04</pdfrwt>
<pdfrwt beam="2">  1       -2 0.85596135E+00 0.72013985E+04</pdfrwt>
<totfact> 0.17621375E-04</totfact>
</mgrwt>
<rwgt>
<wgt id='morphing_basis_vector_1'> +2.5196054e-07 </wgt>
<wgt id='morphing_basis_vector_2'> +1.7445512e-07 </wgt>
<wgt id='morphing_basis_vector_3'> +2.7913501e-07 </wgt>
<wgt id='morphing_basis_vector_4'> +1.9805535e-07 </wgt>
<wgt id='morphing_basis_vector_5'> +3.2011534e-07 </wgt>
</rwgt>
</event>
<event>
 4      1 +6.9060000e-13 6.96488700e+03 7.81860800e-03 7.16436700e-02
        2 -1    0    0  501    0 +0.0000000000e+00 +0.0000000000e+00 +2.3395260877e+03 2.3395260877e+03 0.0000000000e+00 0.0000e+00 -1.0000e+00
       -2 -1    0    0    0  501 -0.0000000000e+00 -0.0000000000e+00 -5.1837047779e+03 5.1837047779e+03 0.0000000000e+00 0.0000e+00 1.0000e+00
      -13  1    1    2    0    0 +7.5277193996e+02 +2.5908891438e+03 -3.8004265689e+03 4.6607525417e+03 0.0000000000e+00 0.0000e+00 1.0000e+00
       13  1    1    2    0    0 -7.5277193996e+02 -2.5908891438e+03 +9.5624787874e+02 2.8624783239e+03 0.0000000000e+00 0.0000e+00 -1.0000e+00
<mgrwt>
<rscale>  0 0.69648870E+04</rscale>
<asrwt>0</asrwt>
<pdfrwt beam="1">  1        2 0.35992710E+00 0.69648870E+04</pdfrwt>
<pdfrwt beam="2">  1       -2 0.79749302E+00 0.69648870E+04</pdfrwt>
<totfact> 0.32966539E-04</totfact>
</mgrwt>
<rwgt>
<wgt id='morphing_basis_vector_1'> +2.1978824e-07 </wgt>
<wgt id='morphing_basis_vector_2'> +1.5055469e-07 </wgt>
<wgt id='morphing_basis_vector_3'> +2.4306190e-07 </wgt>
<wgt id='morphing_basis_vector_4'> +1.7478990e-07 </wgt>
<wgt id='morphing_basis_vector_5'> +2.8015895e-07 </wgt>
</rwgt>
</event>
<event>
 4      1 +6.9060000e-13 6.68526100e+03 7.81860800e-03 7.19085100e-02
        2 -1    0    0  501    0 +0.0000000000e+00 +0.0000000000e+00 +4.4288558648e+03 4.4288558648e+03 0.0000000000e+00 0.0000e+00 -1.0000e+00
       -2 -1    0    0    0  501 -0.0000000000e+00 -0.0000000000e+00 -2.5228134603e+03 2.5228134603e+03 0.0000000000e+00 0.0000e+00 1.0000e+00
      -13  1    1    2    0    0 -1.6846418324e+03 +1.6116022667e+03 -1.5378263560e+03 2.7928820008e+03 0.0000000000e+00 0.0000e+00 1.0000e+00
       13  1    1    2    0    0 +1.6846418324e+03 -1.6116022667e+03 +3.4438687605e+03 4.1587873243e+03 0.0000000000e+00 0.0000e+00 -1.0000e+00
<mgrwt>
<rscale>  0 0.66852606E+04</rscale>
<asrwt>0</asrwt>
<pdfrwt beam="1">  1        2 0.68136244E+00 0.66852606E+04</pdfrwt>
<pdfrwt beam="2">  1       -2 0.38812515E+00 0.66852606E+04</pdfrwt>
<totfact> 0.62714230E-04</totfact>
</mgrwt>
<rwgt>
<wgt id='morphing_basis_vector_1'> +1.8643789e-07 </wgt>
<wgt id='morphing_basis_vector_2'> +1.2728824e-07 </wgt>
<wgt id='morphing_basis_vector_3'> +2.0602947e-07 </wgt>
<wgt id='morphing_basis_vector_4'> +1.4870550e-07 </wgt>
<wgt id='morphing_basis_vector_5'> +2.3777110e-07 </wgt>
</rwgt>
</event>
<event>
 4      1 +6.9060000e-13 6.93249500e+03 7.81860800e-03 7.16737000e-02
        2 -1    0    0  501    0 +0.0000000000e+00 +0.0000000000e+00 +5.6181912969e+03 5.6181912969e+03 0.0000000000e+00 0.0000e+00 1.0000e+00
       -2 -1    0    0    0  501 -0.0000000000e+00 -0.0000000000e+00 -2.1385656949e+03 2.1385656949e+03 0.0000000000e+00 0.0000e+00 -1.0000e+00
      -13  1    1    2    0    0 -3.3216185615e+03 +9.8915520060e+02 +1.8040232981e+03 3.9071828648e+03 0.0000000000e+00 0.0000e+00 -1.0000e+00
       13  1    1    2    0    0 +3.3216185615e+03 -9.8915520060e+02 +1.6756023039e+03 3.8495741270e+03 0.0000000000e+00 0.0000e+00 1.0000e+00
<mgrwt>
<rscale>  0 0.69324948E+04</rscale>
<asrwt>0</asrwt>
<pdfrwt beam="1">  1        2 0.86433712E+00 0.69324948E+04</pdfrwt>
<pdfrwt beam="2">  1       -2 0.32901011E+00 0.69324948E+04</pdfrwt>
<totfact> 0.30424575E-05</totfact>
</mgrwt>
<rwgt>
<wgt id='morphing_basis_vector_1'> +2.2370534e-07 </wgt>
<wgt id='morphing_basis_vector_2'> +1.7116350e-07 </wgt>
<wgt id='morphing_basis_vector_3'> +2.5163237e-07 </wgt>
<wgt id='morphing_basis_vector_4'> +1.5446715e-07 </wgt>
<wgt id='morphing_basis_vector_5'> +2.7353487e-07 </wgt>
</rwgt>
</event>
<event>
 4      1 +6.9060000e-13 6.66007100e+03 7.81860800e-03 7.19330000e-02
        2 -1    0    0  501    0 +0.0000000000e+00 +0.0000000000e+00 +5.0089961288e+03 5.0089961288e+03 0.0000000000e+00 0.0000e+00 -1.0000e+00
       -2 -1    0    0    0  501 -0.0000000000e+00 -0.0000000000e+00 -2.2138438740e+03 2.2138438740e+03 0.0000000000e+00 0.0000e+00 1.0000e+00
      -13  1    1    2    0    0 +8.7049825396e+02 +2.7329059360e+03 -4.3730943471e+02 2.9013413461e+03 0.0000000000e+00 0.0000e+00 1.0000e+00
       13  1    1    2    0    0 -8.7049825396e+02 -2.7329059360e+03 +3.2324616895e+03 4.3214986566e+03 0.0000000000e+00 0.0000e+00 -1.0000e+00
<mgrwt>
<rscale>  0 0.66600707E+04</rscale>
<asrwt>0</asrwt>
<pdfrwt beam="1">  1        2 0.77061479E+00 0.66600707E+04</pdfrwt>
<pdfrwt beam="2">  1       -2 0.34059137E+00 0.66600707E+04</pdfrwt>
<totfact> 0.27157065E-04</totfact>
</mgrwt>
<rwgt>
<wgt id='morphing_basis_vector_1'> +1.8423388e-07 </wgt>
<wgt id='morphing_basis_vector_2'> +1.2709866e-07 </wgt>
<wgt id='morphing_basis_vector_3'> +2.0389980e-07 </wgt>
<wgt id='morphing_basis_vector_4'> +1.4521950e-07 </wgt>
<wgt id='morphing_basis_vector_5'> +2.3409578e-07 </wgt>
</rwgt>
</event>
<event>
 4      1 +6.9060000e-13 6.79229500e+03 7.81860800e-03 7.18056100e-02
        2 -1    0    0  501    0 +0.0000000000e+00 +0.0000000000e+00 +3.7185323885e+03 3.7185323885e+03 0.0000000000e+00 0.0000e+00 -1.0000e+00
       -2 -1    0    0    0  501 -0.0000000000e+00 -0.0000000000e+00 -3.1017125609e+03 3.1017125609e+03 0.0000000000e+00 0.0000e+00 1.0000e+00
      -13  1    1    2    0    0 -2.1012679005e+03 +1.8361226283e+03 -1.6353100621e+03 3.2343333309e+03 0.0000000000e+00 0.0000e+00 1.0000e+00
       13  1    1    2    0    0 +2.1012679005e+03 -1.8361226283e+03 +2.2521298897e+03 3.5859116186e+03 0.0000000000e+00 0.0000e+00 -1.0000e+00
<mgrwt>
<rscale>  0 0.67922952E+04</rscale>
<asrwt>0</asrwt>
<pdfrwt beam="1">  1        2 0.57208191E+00 0.67922952E+04</pdfrwt>
<pdfrwt beam="2">  1       -2 0.47718654E+00 0.67922952E+04</pdfrwt>
<totfact> 0.64895542E-04</totfact>
</mgrwt>
<rwgt>
<wgt id='morphing_basis_vector_1'> +1.9902794e-07 </wgt>
<wgt id='morphing_basis_vector_2'> +1.3675628e-07 </wgt>
<wgt id='morphing_basis_vector_3'> +2.2017041e-07 </wgt>
<wgt id='morphing_basis_vector_4'> +1.5765589e-07 </wgt>
<wgt id='morphing_basis_vector_5'> +2.5332696e-07 </wgt>
</rwgt>
</event>
<event>
 4      1 +6.9060000e-13 6.72980000e+03 7.81860800e-03 7.18654500e-02
        2 -1    0    0  501    0 +0.0000000000e+00 +0.0000000000e+00 +3.1554681600e+03 3.1554681600e+03 0.0000000000e+00 0.0000e+00 -1.0000e+00
       -2 -1    0    0    0  501 -0.0000000000e+00 -0.0000000000e+00 -3.5882322295e+03 3.5882322295e+03 0.0000000000e+00 0.0000e+00 1.0000e+00
      -13  1    1    2    0    0 -3.1272890074e+03 +1.2232278921e+03 -6.9447826259e-01 3.3580088585e+03 0.0000000000e+00 0.0000e+00 1.0000e+00
       13  1    1    2    0    0 +3.1272890074e+03 -1.2232278921e+03 -4.3206959122e+02 3.3856915310e+03 0.0000000000e+00 0.0000e+00 -1.0000e+00
<mgrwt>
<rscale>  0 0.67298002E+04</rscale>
<asrwt>0</asrwt>
<pdfrwt beam="1">  1        2 0.48545664E+00 0.67298002E+04</pdfrwt>
<pdfrwt beam="2">  1       -2 0.55203573E+00 0.67298002E+04</pdfrwt>
<totfact> 0.46709563E-04</totfact>
</mgrwt>
<rwgt>
<wgt id='morphing_basis_vector_1'> +2.0007780e-07 </wgt>
<wgt id='morphing_basis_vector_2'> +1.5603915e-07 </wgt>
<wgt id='morphing_basis_vector_3'> +2.2570775e-07 </wgt>
<wgt id='morphing_basis_vector_4'> +1.3421847e-07 </wgt>
<wgt id='morphing_basis_vector_5'> +2.4262436e-07 </wgt>
</rwgt>
</event>
<event>
 4      1 +6.9060000e-13 6.95499300e+03 7.81860800e-03 7.16528200e-02
        2 -1    0    0  501    0 +0.0000000000e+00 +0.0000000000e+00 +2.4324913625e+03 2.4324913625e+03 0.0000000000e+00 0.0000e+00 -1.0000e+00
       -2 -1    0    0    0  501 -0.0000000000e+00 -0.0000000000e+00 -4.9714390499e+03 4.9714390499e+03 0.0000000000e+00 0.0000e+00 1.0000e+00
      -13  1    1    2    0    0 +1.6465829670e+03 +2.3942524230e+03 -3.3030973204e+03 4.3993331359e+03 0.0000000000e+00 0.0000e+00 1.0000e+00
       13  1    1    2    0    0 -1.6465829670e+03 -2.3942524230e+03 +7.6414963306e+02 3.0045972765e+03 0.0000000000e+00 0.0000e+00 -1.0000e+00
<mgrwt>
<rscale>  0 0.69549932E+04</rscale>
<asrwt>0</asrwt>
<pdfrwt beam="1">  1        2 0.37422944E+00 0.69549932E+04</pdfrwt>
<pdfrwt beam="2">  1       -2 0.76483677E+00 0.69549932E+04</pdfrwt>
<totfact> 0.29201074E-04</totfact>
</mgrwt>
<rwgt>
<wgt id='morphing_basis_vector_1'> +2.1884158e-07 </wgt>
<wgt id='morphing_basis_vector_2'> +1.5057436e-07 </wgt>
<wgt id='morphing_basis_vector_3'> +2.4217126e-07 </wgt>
<wgt id='morphing_basis_vector_4'> +1.7315957e-07 </wgt>
<wgt id='morphing_basis_vector_5'> +2.7851412e-07 </wgt>
</rwgt>
</event>
<event>
 4      1 +6.9060000e-13 6.79745600e+03 7.81860800e-03 7.18007000e-02
        2 -1    0    0  501    0 +0.0000000000e+00 +0.0000000000e+00 +2.0685278704e+03 2.0685278704e+03 0.0000000000e+00 0.0000e+00 1.0000e+00
       -2 -1    0    0    0  501 -0.0000000000e+00 -0.0000000000e+00 -5.5843340766e+03 5.5843340766e+03 0.0000000000e+00 0.0000e+00 -1.0000e+00
      -13  1    1    2    0    0 -2.7766660956e+03 +1.3660262792e+03 -3.3402814456e+03 4.5533924208e+03 0.0000000000e+00 0.0000e+00 -1.0000e+00
       13  1    1    2    0    0 +2.7766660956e+03 -1.3660262792e+03 -1.7552476061e+02 3.0994695262e+03 0.0000000000e+00 0.0000e+00 1.0000e+00
<mgrwt>
<rscale>  0 0.67974556E+04</rscale>
<asrwt>0</asrwt>
<pdfrwt beam="1">  1        2 0.31823506E+00 0.67974556E+04</pdfrwt>
<pdfrwt beam="2">  1       -2 0.85912831E+00 0.67974556E+04</pdfrwt>
<totfact> 0.24187177E-04</totfact>
</mgrwt>
<rwgt>
<wgt id='morphing_basis_vector_1'> +2.0040158e-07 </wgt>
<wgt id='morphing_basis_vector_2'> +1.3942921e-07 </wgt>
<wgt id='morphing_basis_vector_3'> +2.2210004e-07 </wgt>
<wgt id='morphing_basis_vector_4'> +1.5648767e-07 </wgt>
<wgt id='morphing_basis_vector_5'> +2.5396011e-07 </wgt>
</rwgt>
</event>
<event>
 4      1 +6.9060000e-13 6.94364500e+03 7.81860800e-03 7.16633400e-02
        2 -1    0    0  501    0 +0.0000000000e+00 +0.0000000000e+00 +4.7493236358e+03 4.7493236358e+03 0.0000000000e+00 0.0000e+00 1.0000e+00
       -2 -1    0    0    0  501 -0.0000000000e+00 -0.0000000000e+00 -2.5379514324e+03 2.5379514324e+03 0.0000000000e+00 0.0000e+00 -1.0000e+00
      -13  1    1    2    0    0 +2.6133687018e+03 -2.2837205498e+03 +1.0090578923e+03 3.6143150597e+03 0.0000000000e+00 0.0000e+00 -1.0000e+00
       13  1    1    2    0    0 -2.6133687018e+03 +2.2837205498e+03 +1.2023143111e+03 3.6729600084e+03 0.0000000000e+00 0.0000e+00 1.0000e+00
<mgrwt>
<rscale>  0 0.69436454E+04</rscale>
<asrwt>0</asrwt>
<pdfrwt beam="1">  1        2 0.73066518E+00 0.69436454E+04</pdfrwt>
<pdfrwt beam="2">  1       -2 0.39045407E+00 0.69436454E+04</pdfrwt>
<totfact> 0.26765365E-04</totfact>
</mgrwt>
<rwgt>
<wgt id='morphing_basis_vector_1'> +2.2392583e-07 </wgt>
<wgt id='morphing_basis_vector_2'> +1.6868718e-07 </wgt>
<wgt id='morphing_basis_vector_3'> +2.5125661e-07 </wgt>
<wgt id='morphing_basis_vector_4'> +1.5808019e-07 </wgt>
<wgt id='morphing_basis_vector_5'> +2.7552226e-07 </wgt>
</rwgt>
</event>
<event>
 4      1 +6.9060000e-13 6.68941800e+03 7.81860800e-03 7.19044700e-02
        2 -1    0    0  501    0 +0.0000000000e+00 +0.0000000000e+00 +3.4276044607e+03 3.4276044607e+03 0.0000000000e+00 0.0000e+00 1.0000e+00
       -2 -1    0    0    0  501 -0.0000000000e+00 -0.0000000000e+00 -3.2638179174e+03 3.2638179174e+03 0.0000000000e+00 0.0000e+00 -1.0000e+00
      -13  1    1    2    0    0 -1.4903231118e+03 -2.4985784702e+03 -1.5687890049e+03 3.3053072915e+03 0.0000000000e+00 0.0000e+00 -1.0000e+00
       13  1    1    2    0    0 +1.4903231118e+03 +2.4985784702e+03 +1.7325755481e+03 3.3861150866e+03 0.0000000000e+00 0.0000e+00 1.0000e+00
<mgrwt>
<rscale>  0 0.66894176E+04</rscale>
<asrwt>0</asrwt>
<pdfrwt beam="1">  1        2 0.52732376E+00 0.66894176E+04</pdfrwt>
<pdfrwt beam="2">  1       -2 0.50212583E+00 0.66894176E+04</pdfrwt>
<totfact> 0.70384724E-04</totfact>
</mgrwt>
<rwgt>
<wgt id='morphing_basis_vector_1'> +1.8756130e-07 </wgt>
<wgt id='morphing_basis_vector_2'> +1.2954201e-07 </wgt>
<wgt id='morphing_basis_vector_3'> +2.0762314e-07 </wgt>
<wgt id='morphing_basis_vector_4'> +1.4766181e-07 </wgt>
<wgt id='morphing_basis_vector_5'> +2.3824495e-07 </wgt>
</rwgt>
</event>
<event>
 4      1 +6.9060000e-13 6.90868300e+03 7.81860800e-03 7.16958800e-02
        2 -1    0    0  501    0 +0.0000000000e+00 +0.0000000000e+00 +2.1451129362e+03 2.1451129362e+03 0.0000000000e+00 0.0000e+00 -1.0000e+00
       -2 -1    0    0    0  501 -0.0000000000e+00 -0.0000000000e+00 -5.5626331501e+03 5.5626331501e+03 0.0000000000e+00 0.0000e+00 1.0000e+00
      -13  1    1    2    0    0 +1.3965859119e+03 +3.0161416592e+03 -6.5925984634e+02 3.3885374814e+03 0.0000000000e+00 0.0000e+00 1.0000e+00
       13  1    1    2    0    0 -1.3965859119e+03 -3.0161416592e+03 -2.7582603675e+03 4.3192086049e+03 0.0000000000e+00 0.0000e+00 -1.0000e+00
<mgrwt>
<rscale>  0 0.69086833E+04</rscale>
<asrwt>0</asrwt>
<pdfrwt beam="1">  1        2 0.33001738E+00 0.69086833E+04</pdfrwt>
<pdfrwt beam="2">  1       -2 0.85578971E+00 0.69086833E+04</pdfrwt>
<totfact> 0.23057356E-04</totfact>
</mgrwt>
<rwgt>
<wgt id='morphing_basis_vector_1'> +2.3220862e-07 </wgt>
<wgt id='morphing_basis_vector_2'> +2.0273471e-07 </wgt>
<wgt id='morphing_basis_vector_3'> +2.6712619e-07 </wgt>
<wgt id='morphing_basis_vector_4'> +1.2757838e-07 </wgt>
<wgt id='morphing_basis_vector_5'> +2.6770231e-07 </wgt>
</rwgt>
</event>
<event>
 4      1 +6.9060000e-13 6.92894800e+03 7.81860800e-03 7.16770000e-02
        2 -1    0    0  501    0 +0.0000000000e+00 +0.0000000000e+00 +4.8119534789e+03 4.8119534789e+03 0.0000000000e+00 0.0000e+00 -1.0000e+00
       -2 -1    0    0    0  501 -0.0000000000e+00 -0.0000000000e+00 -2.4943260397e+03 2.4943260397e+03 0.0000000000e+00 0.0000e+00 1.0000e+00
      -13  1    1    2    0    0 +2.7514863774e+03 +1.3130649763e+03 -5.7632566613e+02 3.1027355979e+03 0.0000000000e+00 0.0000e+00 1.0000e+00
       13  1    1    2    0    0 -2.7514863774e+03 -1.3130649763e+03 +2.8939531053e+03 4.2035439206e+03 0.0000000000e+00 0.0000e+00 -1.0000e+00
<mgrwt>
<rscale>  0 0.69289482E+04</rscale>
<asrwt>0</asrwt>
<pdfrwt beam="1">  1        2 0.74030053E+00 0.69289482E+04</pdfrwt>
<pdfrwt beam="2">  1       -2 0.38374247E+00 0.69289482E+04</pdfrwt>
<totfact> 0.24969133E-04</totfact>
</mgrwt>
<rwgt>
<wgt id='morphing_basis_vector_1'> +2.1594877e-07 </wgt>
<wgt id='morphing_basis_vector_2'> +1.4939339e-07 </wgt>
<wgt id='morphing_basis_vector_3'> +2.3915650e-07 </wgt>
<wgt id='morphing_basis_vector_4'> +1.6980149e-07 </wgt>
<wgt id='morphing_basis_vector_5'> +2.7429355e-07 </wgt>
</rwgt>
</event>
<event>
 4      1 +6.9060000e-13 6.74683300e+03 7.81860800e-03 7.18490800e-02
        2 -1    0    0  501    0 +0.0000000000e+00 +0.0000000000e+00 +3.3230274811e+03 3.3230274811e+03 0.0000000000e+00 0.0000e+00 1.0000e+00
       -2 -1    0    0    0  501 -0.0000000000e+00 -0.0000000000e+00 -3.4245700973e+03 3.4245700973e+03 0.0000000000e+00 0.0000e+00 -1.0000e+00
      -13  1    1    2    0    0 -2.8406633927e+03 +7.2356464545e+02 -1.7203992727e+03 3.3989245305e+03 0.0000000000e+00 0.0000e+00 -1.0000e+00
       13  1    1    2    0    0 +2.8406633927e+03 -7.2356464545e+02 +1.6188566566e+03 3.3486730478e+03 0.0000000000e+00 0.0000e+00 1.0000e+00
<mgrwt>
<rscale>  0 0.67468335E+04</rscale>
<asrwt>0</asrwt>
<pdfrwt beam="1">  1        2 0.51123500E+00 0.67468335E+04</pdfrwt>
<pdfrwt beam="2">  1       -2 0.52685694E+00 0.67468335E+04</pdfrwt>
<totfact> 0.54449542E-04</totfact>
</mgrwt>
<rwgt>
<wgt id='morphing_basis_vector_1'> +1.9406497e-07 </wgt>
<wgt id='morphing_basis_vector_2'> +1.3402303e-07 </wgt>
<wgt id='morphing_basis_vector_3'> +2.1483143e-07 </wgt>
<wgt id='morphing_basis_vector_4'> +1.5282107e-07 </wgt>
<wgt id='morphing_basis_vector_5'> +2.4654642e-07 </wgt>
</rwgt>
</event>
<event>
 4      1 +6.9060000e-13 6.95392400e+03 7.81860800e-03 7.16538100e-02
        2 -1    0    0  501    0 +0.0000000000e+00 +0.0000000000e+00 +4.8430037691e+03 4.8430037691e+03 0.0000000000e+00 0.0000e+00 1.0000e+00
       -2 -1    0    0    0  501 -0.0000000000e+00 -0.0000000000e+00 -2.4962330467e+03 2.4962330467e+03 0.0000000000e+00 0.0000e+00 -1.0000e+00
      -13  1    1    2    0    0 +8.2590205863e+02 -3.3625559763e+03 +8.3902016967e+02 3.5627028713e+03 0.0000000000e+00 0.0000e+00 -1.0000e+00
       13  1    1    2    0    0 -8.2590205863e+02 +3.3625559763e+03 +1.5077505527e+03 3.7765339445e+03 0.0000000000e+00 0.0000e+00 1.0000e+00
<mgrwt>
<rscale>  0 0.69539244E+04</rscale>
<asrwt>0</asrwt>
<pdfrwt beam="1">  1        2 0.74507750E+00 0.69539244E+04</pdfrwt>
<pdfrwt beam="2">  1       -2 0.38403585E+00 0.69539244E+04</pdfrwt>
<totfact> 0.22746886E-04</totfact>
</mgrwt>
<rwgt>
<wgt id='morphing_basis_vector_1'> +2.2370475e-07 </wgt>
<wgt id='morphing_basis_vector_2'> +1.6514595e-07 </wgt>
<wgt id='morphing_basis_vector_3'> +2.5021161e-07 </wgt>
<wgt id='morphing_basis_vector_4'> +1.6233820e-07 </wgt>
<wgt id='morphing_basis_vector_5'> +2.7743969e-07 </wgt>
</rwgt>
</event>
<event>
 4      1 +6.9060000e-13 6.76646400e+03 7.81860800e-03 7.18302700e-02
        2 -1    0    0  501    0 +0.0000000000e+00 +0.0000000000e+00 +4.1257993937e+03 4.1257993937e+03 0.0000000000e+00 0.0000e+00 1.0000e+00
       -2 -1    0    0    0  501 -0.0000000000e+00 -0.0000000000e+00 -2.7743129330e+03 2.7743129330e+03 0.0000000000e+00 0.0000e+00 -1.0000e+00
      -13  1    1    2    0    0 -9.3400606974e+02 +1.2356182098e+03 -2.3915127183e+03 2.8492898730e+03 0.0000000000e+00 0.0000e+00 -1.0000e+00
       13  1    1    2    0    0 +9.3400606974e+02 -1.2356182098e+03 +3.7429991789e+03 4.0508224537e+03 0.0000000000e+00 0.0000e+00 1.0000e+00
<mgrwt>
<rscale>  0 0.67664640E+04</rscale>
<asrwt>0</asrwt>
<pdfrwt beam="1">  1        2 0.63473836E+00 0.67664640E+04</pdfrwt>
<pdfrwt beam="2">  1       -2 0.42681738E+00 0.67664640E+04</pdfrwt>
<totfact> 0.67176745E-04</totfact>
</mgrwt>
<rwgt>
<wgt id='morphing_basis_vector_1'> +1.9545591e-07 </wgt>
<wgt id='morphing_basis_vector_2'> +1.3302550e-07 </wgt>
<wgt id='morphing_basis_vector_3'> +2.1591200e-07 </wgt>
<wgt id='morphing_basis_vector_4'> +1.5648243e-07 </wgt>
<wgt id='morphing_basis_vector_5'> +2.4959108e-07 </wgt>
</rwgt>
</event>
<event>
 4      1 +6.9060000e-13 6.72733000e+03 7.81860800e-03 7.18678300e-02
        2 -1    0    0  501    0 +0.0000000000e+00 +0.0000000000e+00 +3.7542711100e+03 3.7542711100e+03 0.0000000000e+00 0.0000e+00 -1.0000e+00
       -2 -1    0    0    0  501 -0.0000000000e+00 -0.0000000000e+00 -3.0136988327e+03 3.0136988327e+03 0.0000000000e+00 0.0000e+00 1.0000e+00
      -13  1    1    2    0    0 -2.9426674822e+03 +6.9279004431e+02 -1.1134086367e+03 3.2216344840e+03 0.0000000000e+00 0.0000e+00 1.0000e+00
       13  1    1    2    0    0 +2.9426674822e+03 -6.9279004431e+02 +1.8539809140e+03 3.5463354587e+03 0.0000000000e+00 0.0000e+00 -1.0000e+00
<mgrwt>
<rscale>  0 0.67273301E+04</rscale>
<asrwt>0</asrwt>
<pdfrwt beam="1">  1        2 0.57758017E+00 0.67273301E+04</pdfrwt>
<pdfrwt beam="2">  1       -2 0.46364597E+00 0.67273301E+04</pdfrwt>
<totfact> 0.76712829E-04</totfact>
</mgrwt>
<rwgt>
<wgt id='morphing_basis_vector_1'> +1.9212461e-07 </wgt>
<wgt id='morphing_basis_vector_2'> +1.3333181e-07 </wgt>
<wgt id='morphing_basis_vector_3'> +2.1283299e-07 </wgt>
<wgt id='morphing_basis_vector_4'> +1.5043743e-07 </wgt>
<wgt id='morphing_basis_vector_5'> +2.4365069e-07 </wgt>
</rwgt>
</event>
<event>
 4      1 +6.9060000e-13 6.97470600e+03 7.81860800e-03 7.16346000e-02
        2 -1    0    0  501    0 +0.0000000000e+00 +0.0000000000e+00 +3.0836371352e+03 3.0836371352e+03 0.0000000000e+00 0.0000e+00 1.0000e+00
       -2 -1    0    0    0  501 -0.0000000000e+00 -0.0000000000e+00 -3.9439240277e+03 3.9439240277e+03 0.0000000000e+00 0.0000e+00 -1.0000e+00
      -13  1    1    2    0    0 -7.8798766752e+02 -2.5026443621e+03 +1.8845416667e+03 3.2304257708e+03 0.0000000000e+00 0.0000e+00 1.0000e+00
       13  1    1    2    0    0 +7.8798766752e+02 +2.5026443621e+03 -2.7448285591e+03 3.7971353921e+03 0.0000000000e+00 0.0000e+00 -1.0000e+00
<mgrwt>
<rscale>  0 0.69747059E+04</rscale>
<asrwt>0</asrwt>
<pdfrwt beam="1">  1        2 0.47440571E+00 0.69747059E+04</pdfrwt>
<pdfrwt beam="2">  1       -2 0.60675754E+00 0.69747059E+04</pdfrwt>
<totfact> 0.18629246E-04</totfact>
</mgrwt>
<rwgt>
<wgt id='morphing_basis_vector_1'> +2.7970952e-07 </wgt>
<wgt id='morphing_basis_vector_2'> +3.2359380e-07 </wgt>
<wgt id='morphing_basis_vector_3'> +3.4060078e-07 </wgt>
<wgt id='morphing_basis_vector_4'> +4.9958006e-08 </wgt>
<wgt id='morphing_basis_vector_5'> +2.7114075e-07 </wgt>
</rwgt>
</event>
<event>
 4      1 +6.9060000e-13 7.52252300e+03 7.81860800e-03 7.11510800e-02
        2 -1    0    0  501    0 +0.0000000000e+00 +0.0000000000e+00 +4.9685631850e+03 4.9685631850e+03 0.0000000000e+00 0.0000e+00 -1.0000e+00
       -2 -1    0    0    0  501 -0.0000000000e+00 -0.0000000000e+00 -2.8473200788e+03 2.8473200788e+03 0.0000000000e+00 0.0000e+00 1.0000e+00
      -13  1    1    2    0    0 +2.1343787715e+03 -7.1785944317e+02 -2.0695375932e+03 3.0584114782e+03 0.0000000000e+00 0.0000e+00 1.0000e+00
       13  1    1    2    0    0 -2.1343787715e+03 +7.1785944317e+02 +4.1907806993e+03 4.7574717856e+03 0.0000000000e+00 0.0000e+00 -1.0000e+00
<mgrwt>
<rscale>  0 0.75225234E+04</rscale>
<asrwt>0</asrwt>
<pdfrwt beam="1">  1        2 0.76439433E+00 0.75225234E+04</pdfrwt>
<pdfrwt beam="2">  1       -2 0.43804925E+00 0.75225234E+04</pdfrwt>
<totfact> 0.66473128E-05</totfact>
</mgrwt>
<rwgt>
<wgt id='morphing_basis_vector_1'> +2.9847856e-07 </wgt>
<wgt id='morphing_basis_vector_2'> +2.0346719e-07 </wgt>
<wgt id='morphing_basis_vector_3'> +3.2998571e-07 </wgt>
<wgt id='morphing_basis_vector_4'> +2.3896655e-07 </wgt>
<wgt id='morphing_basis_vector_5'> +3.8150556e-07 </wgt>
</rwgt>
</event>
<event>
 4      1 +6.9060000e-13 6.73181000e+03 7.81860800e-03 7.18635200e-02
        2 -1    0    0  501    0 +0.0000000000e+00 +0.0000000000e+00 +4.3040277346e+03 4.3040277346e+03 0.0000000000e+00 0.0000e+00 1.0000e+00
       -2 -1    0    0    0  501 -0.0000000000e+00 -0.0000000000e+00 -2.6322589101e+03 2.6322589101e+03 0.0000000000e+00 0.0000e+00 -1.0000e+00
      -13  1    1    2    0    0 -1.8753289380e+03 -2.4132538311e+02 -2.0333380956e+03 2.7766095112e+03 0.0000000000e+00 0.0000e+00 -1.0000e+00
       13  1    1    2    0    0 +1.8753289380e+03 +2.4132538311e+02 +3.7051069201e+03 4.1596771336e+03 0.0000000000e+00 0.0000e+00 1.0000e+00
<mgrwt>
<rscale>  0 0.67318097E+04</rscale>
<asrwt>0</asrwt>
<pdfrwt beam="1">  1        2 0.66215811E+00 0.67318097E+04</pdfrwt>
<pdfrwt beam="2">  1       -2 0.40496291E+00 0.67318097E+04</pdfrwt>
<totfact> 0.64341921E-04</totfact>
</mgrwt>
<rwgt>
<wgt id='morphing_basis_vector_1'> +1.9153243e-07 </wgt>
<wgt id='morphing_basis_vector_2'> +1.3044885e-07 </wgt>
<wgt id='morphing_basis_vector_3'> +2.1159340e-07 </wgt>
<wgt id='morphing_basis_vector_4'> +1.5320410e-07 </wgt>
<wgt id='morphing_basis_vector_5'> +2.4450066e-07 </wgt>
</rwgt>
</event>
<event>
 4      1 +6.9060000e-13 6.66907900e+03 7.81860800e-03 7.19242300e-02
        2 -1    0    0  501    0 +0.0000000000e+00 +0.0000000000e+00 +1.8497192294e+03 1.8497192294e+03 0.0000000000e+00 0.0000e+00 1.0000e+00
       -2 -1    0    0    0  501 -0.0000000000e+00 -0.0000000000e+00 -6.0112664396e+03 6.0112664396e+03 0.0000000000e+00 0.0000e+00 -1.0000e+00
      -13  1    1    2    0    0 -2.7852041095e+02 -3.3028097664e+03 -2.5106905168e+03 4.1580876426e+03 0.0000000000e+00 0.0000e+00 -1.0000e+00
       13  1    1    2    0    0 +2.7852041095e+02 +3.3028097664e+03 -1.6508566933e+03 3.7028980264e+03 0.0000000000e+00 0.0000e+00 1.0000e+00
<mgrwt>
<rscale>  0 0.66690794E+04</rscale>
<asrwt>0</asrwt>
<pdfrwt beam="1">  1        2 0.28457219E+00 0.66690794E+04</pdfrwt>
<pdfrwt beam="2">  1       -2 0.92481023E+00 0.66690794E+04</pdfrwt>
<totfact> 0.56515851E-05</totfact>
</mgrwt>
<rwgt>
<wgt id='morphing_basis_vector_1'> +1.8897567e-07 </wgt>
<wgt id='morphing_basis_vector_2'> +1.3877650e-07 </wgt>
<wgt id='morphing_basis_vector_3'> +2.1113611e-07 </wgt>
<wgt id='morphing_basis_vector_4'> +1.3798381e-07 </wgt>
<wgt id='morphing_basis_vector_5'> +2.3469129e-07 </wgt>
</rwgt>
</event>
<event>
 4      1 +6.9060000e-13 7.67308700e+03 7.81860800e-03 7.10254000e-02
        2 -1    0    0  501    0 +0.0000000000e+00 +0.0000000000e+00 +4.0092475247e+03 4.0092475247e+03 0.0000000000e+00 0.0000e+00 1.0000e+00
       -2 -1    0    0    0  501 -0.0000000000e+00 -0.0000000000e+00 -3.6712790132e+03 3.6712790132e+03 0.0000000000e+00 0.0000e+00 -1.0000e+00
      -13  1    1    2    0    0 +3.5722792256e+03 -1.3951378546e+03 +6.1745901949e+01 3.8355444275e+03 0.0000000000e+00 0.0000e+00 -1.0000e+00
       13  1    1    2    0    0 -3.5722792256e+03 +1.3951378546e+03 +2.7622260957e+02 3.8449821104e+03 0.0000000000e+00 0.0000e+00 1.0000e+00
<mgrwt>
<rscale>  0 0.76730871E+04</rscale>
<asrwt>0</asrwt>
<pdfrwt beam="1">  1        2 0.61680731E+00 0.76730871E+04</pdfrwt>
<pdfrwt beam="2">  1       -2 0.56481216E+00 0.76730871E+04</pdfrwt>
<totfact> 0.80141407E-05</totfact>
</mgrwt>
<rwgt>
<wgt id='morphing_basis_vector_1'> +3.3365368e-07 </wgt>
<wgt id='morphing_basis_vector_2'> +2.5130749e-07 </wgt>
<wgt id='morphing_basis_vector_3'> +3.7458869e-07 </wgt>
<wgt id='morphing_basis_vector_4'> +2.3597865e-07 </wgt>
<wgt id='morphing_basis_vector_5'> +4.1110570e-07 </wgt>
</rwgt>
</event>
<event>
 4      1 +6.9060000e-13 6.92156700e+03 7.81860800e-03 7.16838700e-02
        2 -1    0    0  501    0 +0.0000000000e+00 +0.0000000000e+00 +3.2976652968e+03 3.2976652968e+03 0.0000000000e+00 0.0000e+00 -1.0000e+00
       -2 -1    0    0    0  501 -0.0000000000e+00 -0.0000000000e+00 -3.6319699931e+03 3.6319699931e+03 0.0000000000e+00 0.0000e+00 1.0000e+00
      -13  1    1    2    0    0 -2.3625857732e+03 -2.5014259632e+03 -5.3917402397e+02 3.4827649954e+03 0.0000000000e+00 0.0000e+00 1.0000e+00
       13  1    1    2    0    0 +2.3625857732e+03 +2.5014259632e+03 +2.0486932765e+02 3.4468702944e+03 0.0000000000e+00 0.0000e+00 -1.0000e+00
<mgrwt>
<rscale>  0 0.69215667E+04</rscale>
<asrwt>0</asrwt>
<pdfrwt beam="1">  1        2 0.50733313E+00 0.69215667E+04</pdfrwt>
<pdfrwt beam="2">  1       -2 0.55876461E+00 0.69215667E+04</pdfrwt>
<totfact> 0.32966195E-04</totfact>
</mgrwt>
<rwgt>
<wgt id='morphing_basis_vector_1'> +2.1924255e-07 </wgt>
<wgt id='morphing_basis_vector_2'> +1.6111463e-07 </wgt>
<wgt id='morphing_basis_vector_3'> +2.4503881e-07 </wgt>
<wgt id='morphing_basis_vector_4'> +1.6004994e-07 </wgt>
<wgt id='morphing_basis_vector_5'> +2.7236386e-07 </wgt>
</rwgt>
</event>
<event>
 4      1 +6.9060000e-13 6.83088700e+03 7.81860800e-03 7.17689800e-02
        2 -1    0    0  501    0 +0.0000000000e+00 +0.0000000000e+00 +3.6508294541e+03 3.6508294541e+03 0.0000000000e+00 0.0000e+00 -1.0000e+00
       -2 -1    0    0    0  501 -0.0000000000e+00 -0.0000000000e+00 -3.1952341092e+03 3.1952341092e+03 0.0000000000e+00 0.0000e+00 1.0000e+00
      -13  1    1    2    0    0 +2.6463606739e+03 +1.7033232983e+03 -1.1020715387e+03 3.3345309642e+03 0.0000000000e+00 0.0000e+00 1.0000e+00
       13  1    1    2    0    0 -2.6463606739e+03 -1.7033232983e+03 +1.5576668836e+03 3.5115325992e+03 0.0000000000e+00 0.0000e+00 -1.0000e+00
<mgrwt>
<rscale>  0 0.68308871E+04</rscale>
<asrwt>0</asrwt>
<pdfrwt beam="1">  1        2 0.56166607E+00 0.68308871E+04</pdfrwt>
<pdfrwt beam="2">  1       -2 0.49157448E+00 0.68308871E+04</pdfrwt>
<totfact> 0.57089063E-04</totfact>
</mgrwt>
<rwgt>
<wgt id='morphing_basis_vector_1'> +2.0454012e-07 </wgt>
<wgt id='morphing_basis_vector_2'> +1.4270095e-07 </wgt>
<wgt id='morphing_basis_vector_3'> +2.2678638e-07 </wgt>
<wgt id='morphing_basis_vector_4'> +1.5922134e-07 </wgt>
<wgt id='morphing_basis_vector_5'> +2.5897047e-07 </wgt>
</rwgt>
</event>
<event>
 4      1 +6.9060000e-13 6.80038700e+03 7.81860800e-03 7.17979100e-02
        2 -1    0    0  501    0 +0.0000000000e+00 +0.0000000000e+00 +3.5371442562e+03 3.5371442562e+03 0.0000000000e+00 0.0000e+00 1.0000e+00
       -2 -1    0    0    0  501 -0.0000000000e+00 -0.0000000000e+00 -3.2685456608e+03 3.2685456608e+03 0.0000000000e+00 0.0000e+00 -1.0000e+00
      -13  1    1    2    0    0 +3.3603307129e+03 -4.6454351793e+02 +3.6620034726e+02 3.4119973438e+03 0.0000000000e+00 0.0000e+00 -1.0000e+00
       13  1    1    2    0    0 -3.3603307129e+03 +4.6454351793e+02 -9.7601751900e+01 3.3936925733e+03 0.0000000000e+00 0.0000e+00 1.0000e+00
<mgrwt>
<rscale>  0 0.68003875E+04</rscale>
<asrwt>0</asrwt>
<pdfrwt beam="1">  1        2 0.54417604E+00 0.68003875E+04</pdfrwt>
<pdfrwt beam="2">  1       -2 0.50285318E+00 0.68003875E+04</pdfrwt>
<totfact> 0.57374511E-04</totfact>
</mgrwt>
<rwgt>
<wgt id='morphing_basis_vector_1'> +2.0872601e-07 </wgt>
<wgt id='morphing_basis_vector_2'> +1.6308379e-07 </wgt>
<wgt id='morphing_basis_vector_3'> +2.3555233e-07 </wgt>
<wgt id='morphing_basis_vector_4'> +1.3965592e-07 </wgt>
<wgt id='morphing_basis_vector_5'> +2.5295836e-07 </wgt>
</rwgt>
</event>
<event>
 4      1 +6.9060000e-13 7.19819500e+03 7.81860800e-03 7.14321200e-02
        2 -1    0    0  501    0 +0.0000000000e+00 +0.0000000000e+00 +2.4242238847e+03 2.4242238847e+03 0.0000000000e+00 0.0000e+00 -1.0000e+00
       -2 -1    0    0    0  501 -0.0000000000e+00 -0.0000000000e+00 -5.3433606367e+03 5.3433606367e+03 0.0000000000e+00 0.0000e+00 1.0000e+00
      -13  1    1    2    0    0 -4.2972223133e+02 -3.1519391455e+03 -3.2762196703e+03 4.5665081738e+03 0.0000000000e+00 0.0000e+00 1.0000e+00
       13  1    1    2    0    0 +4.2972223133e+02 +3.1519391455e+03 +3.5708291838e+02 3.2010763476e+03 0.0000000000e+00 0.0000e+00 -1.0000e+00
<mgrwt>
<rscale>  0 0.71981949E+04</rscale>
<asrwt>0</asrwt>
<pdfrwt beam="1">  1        2 0.37295752E+00 0.71981949E+04</pdfrwt>
<pdfrwt beam="2">  1       -2 0.82205548E+00 0.71981949E+04</pdfrwt>
<totfact> 0.24612809E-04</totfact>
</mgrwt>
<rwgt>
<wgt id='morphing_basis_vector_1'> +2.5150637e-07 </wgt>
<wgt id='morphing_basis_vector_2'> +1.7412506e-07 </wgt>
<wgt id='morphing_basis_vector_3'> +2.7862748e-07 </wgt>
<wgt id='morphing_basis_vector_4'> +1.9771727e-07 </wgt>
<wgt id='morphing_basis_vector_5'> +3.1954646e-07 </wgt>
</rwgt>
</event>
<event>
 4      1 +6.9060000e-13 6.73226800e+03 7.81860800e-03 7.18630800e-02
        2 -1    0    0  501    0 +0.0000000000e+00 +0.0000000000e+00 +3.8244553690e+03 3.8244553690e+03 0.0000000000e+00 0.0000e+00 -1.0000e+00
       -2 -1    0    0    0  501 -0.0000000000e+00 -0.0000000000e+00 -2.9627379127e+03 2.9627379127e+03 0.0000000000e+00 0.0000e+00 1.0000e+00
      -13  1    1    2    0    0 +4.1974362300e+02 +1.0007911569e+03 -2.7815289421e+03 2.9857446147e+03 0.0000000000e+00 0.0000e+00 1.0000e+00
       13  1    1    2    0    0 -4.1974362300e+02 -1.0007911569e+03 +3.6432463984e+03 3.8014486670e+03 0.0000000000e+00 0.0000e+00 -1.0000e+00
<mgrwt>
<rscale>  0 0.67322682E+04</rscale>
<asrwt>0</asrwt>
<pdfrwt beam="1">  1        2 0.58837775E+00 0.67322682E+04</pdfrwt>
<pdfrwt beam="2">  1       -2 0.45580584E+00 0.67322682E+04</pdfrwt>
<totfact> 0.76675583E-04</totfact>
</mgrwt>
<rwgt>
<wgt id='morphing_basis_vector_1'> +1.9152056e-07 </wgt>
<wgt id='morphing_basis_vector_2'> +1.3029664e-07 </wgt>
<wgt id='morphing_basis_vector_3'> +2.1154629e-07 </wgt>
<wgt id='morphing_basis_vector_4'> +1.5338303e-07 </wgt>
<wgt id='morphing_basis_vector_5'> +2.4457896e-07 </wgt>
</rwgt>
</event>
<event>
 4      1 +6.9060000e-13 7.43408300e+03 7.81860800e-03 7.12262800e-02
        2 -1    0    0  501    0 +0.0000000000e+00 +0.0000000000e+00 +2.6401970450e+03 2.6401970450e+03 0.0000000000e+00 0.0000e+00 1.0000e+00
       -2 -1    0    0    0  501 -0.0000000000e+00 -0.0000000000e+00 -5.2330933107e+03 5.2330933107e+03 0.0000000000e+00 0.0000e+00 -1.0000e+00
      -13  1    1    2    0    0 -2.2618198334e+03 +6.9461287187e+02 +1.7396379733e+03 2.9367765116e+03 0.0000000000e+00 0.0000e+00 1.0000e+00
       13  1    1    2    0    0 +2.2618198334e+03 -6.9461287187e+02 -4.3325342390e+03 4.9365138441e+03 0.0000000000e+00 0.0000e+00 -1.0000e+00
<mgrwt>
<rscale>  0 0.74340830E+04</rscale>
<asrwt>0</asrwt>
<pdfrwt beam="1">  1        2 0.40618416E+00 0.74340830E+04</pdfrwt>
<pdfrwt beam="2">  1       -2 0.80509128E+00 0.74340830E+04</pdfrwt>
<totfact> 0.20409028E-04</totfact>
</mgrwt>
<rwgt>
<wgt id='morphing_basis_vector_1'> +3.7628431e-07 </wgt>
<wgt id='morphing_basis_vector_2'> +4.6275823e-07 </wgt>
<wgt id='morphing_basis_vector_3'> +4.6499965e-07 </wgt>
<wgt id='morphing_basis_vector_4'> +3.1399969e-08 </wgt>
<wgt id='morphing_basis_vector_5'> +3.4728144e-07 </wgt>
</rwgt>
</event>
<event>
 4      1 +6.9060000e-13 6.78841100e+03 7.81860800e-03 7.18093100e-02
        2 -1    0    0  501    0 +0.0000000000e+00 +0.0000000000e+00 +4.2507463856e+03 4.2507463856e+03 0.0000000000e+00 0.0000e+00 -1.0000e+00
       -2 -1    0    0    0  501 -0.0000000000e+00 -0.0000000000e+00 -2.7102603751e+03 2.7102603751e+03 0.0000000000e+00 0.0000e+00 1.0000e+00
      -13  1    1    2    0    0 -3.3005201363e+03 -2.8924695525e+02 +1.4251836147e+01 3.3132008823e+03 0.0000000000e+00 0.0000e+00 1.0000e+00
       13  1    1    2    0    0 +3.3005201363e+03 +2.8924695525e+02 +1.5262341743e+03 3.6478058784e+03 0.0000000000e+00 0.0000e+00 -1.0000e+00
<mgrwt>
<rscale>  0 0.67884106E+04</rscale>
<asrwt>0</asrwt>
<pdfrwt beam="1">  1        2 0.65396098E+00 0.67884106E+04</pdfrwt>
<pdfrwt beam="2">  1       -2 0.41696313E+00 0.67884106E+04</pdfrwt>
<totfact> 0.59973240E-04</totfact>
</mgrwt>
<rwgt>
<wgt id='morphing_basis_vector_1'> +2.0117337e-07 </wgt>
<wgt id='morphing_basis_vector_2'> +1.4407215e-07 </wgt>
<wgt id='morphing_basis_vector_3'> +2.2392484e-07 </wgt>
<wgt id='morphing_basis_vector_4'> +1.5172318e-07 </wgt>
<wgt id='morphing_basis_vector_5'> +2.5227750e-07 </wgt>
</rwgt>
</event>
<event>
 4      1 +6.9060000e-13 6.90409300e+03 7.81860800e-03 7.17001700e-02
        2 -1    0    0  501    0 +0.0000000000e+00 +0.0000000000e+00 +3.4997875416e+03 3.4997875416e+03 0.0000000000e+00 0.0000e+00 -1.0000e+00
       -2 -1    0    0    0  501 -0.0000000000e+00 -0.0000000000e+00 -3.4049562209e+03 3.4049562209e+03 0.0000000000e+00 0.0000e+00 1.0000e+00
      -13  1    1    2    0    0 -7.3897173659e+02 +1.7090078443e+03 -2.8597187547e+03 3.4124446363e+03 0.0000000000e+00 0.0000e+00 1.0000e+00
       13  1    1    2    0    0 +7.3897173659e+02 -1.7090078443e+03 +2.9545500754e+03 3.4922991263e+03 0.0000000000e+00 0.0000e+00 -1.0000e+00
<mgrwt>
<rscale>  0 0.69040925E+04</rscale>
<asrwt>0</asrwt>
<pdfrwt beam="1">  1        2 0.53842885E+00 0.69040925E+04</pdfrwt>
<pdfrwt beam="2">  1       -2 0.52383942E+00 0.69040925E+04</pdfrwt>
<totfact> 0.42338864E-04</totfact>
</mgrwt>
<rwgt>
<wgt id='morphing_basis_vector_1'> +2.1185352e-07 </wgt>
<wgt id='morphing_basis_vector_2'> +1.4427406e-07 </wgt>
<wgt id='morphing_basis_vector_3'> +2.3407481e-07 </wgt>
<wgt id='morphing_basis_vector_4'> +1.6955776e-07 </wgt>
<wgt id='morphing_basis_vector_5'> +2.7055644e-07 </wgt>
</rwgt>
</event>
<event>
 4      1 +6.9060000e-13 6.73731900e+03 7.81860800e-03 7.18582200e-02
        2 -1    0    0  501    0 +0.0000000000e+00 +0.0000000000e+00 +3.5782326324e+03 3.5782326324e+03 0.0000000000e+00 0.0000e+00 -1.0000e+00
       -2 -1    0    0    0  501 -0.0000000000e+00 -0.0000000000e+00 -3.1713604932e+03 3.1713604932e+03 0.0000000000e+00 0.0000e+00 1.0000e+00
      -13  1    1    2    0    0 -2.2149692254e+03 +1.1716162718e+02 -2.3365429677e+03 3.2216841180e+03 0.0000000000e+00 0.0000e+00 1.0000e+00
       13  1    1    2    0    0 +2.2149692254e+03 -1.1716162718e+02 +2.7434151069e+03 3.5279090075e+03 0.0000000000e+00 0.0000e+00 -1.0000e+00
<mgrwt>
<rscale>  0 0.67373186E+04</rscale>
<asrwt>0</asrwt>
<pdfrwt beam="1">  1        2 0.55049733E+00 0.67373186E+04</pdfrwt>
<pdfrwt beam="2">  1       -2 0.48790161E+00 0.67373186E+04</pdfrwt>
<totfact> 0.69479481E-04</totfact>
</mgrwt>
<rwgt>
<wgt id='morphing_basis_vector_1'> +1.9224506e-07 </wgt>
<wgt id='morphing_basis_vector_2'> +1.3112855e-07 </wgt>
<wgt id='morphing_basis_vector_3'> +2.1242768e-07 </wgt>
<wgt id='morphing_basis_vector_4'> +1.5352269e-07 </wgt>
<wgt id='morphing_basis_vector_5'> +2.4528786e-07 </wgt>
</rwgt>
</event>
<event>
 4      1 +6.9060000e-13 6.69352900e+03 7.81860800e-03 7.19004900e-02
        2 -1    0    0  501    0 +0.0000000000e+00 +0.0000000000e+00 +2.6393142812e+03 2.6393142812e+03 0.0000000000e+00 0.0000e+00 1.0000e+00
       -2 -1    0    0    0  501 -0.0000000000e+00 -0.0000000000e+00 -4.2438418695e+03 4.2438418695e+03 0.0000000000e+00 0.0000e+00 -1.0000e+00
      -13  1    1    2    0    0 +2.8325073965e+03 -1.7165970950e+03 -1.2965351669e+03 3.5567973202e+03 0.0000000000e+00 0.0000e+00 -1.0000e+00
       13  1    1    2    0    0 -2.8325073965e+03 +1.7165970950e+03 -3.0799242135e+02 3.3263588305e+03 0.0000000000e+00 0.0000e+00 1.0000e+00
<mgrwt>
<rscale>  0 0.66935290E+04</rscale>
<asrwt>0</asrwt>
<pdfrwt beam="1">  1        2 0.40604835E+00 0.66935290E+04</pdfrwt>
<pdfrwt beam="2">  1       -2 0.65289875E+00 0.66935290E+04</pdfrwt>
<totfact> 0.79095967E-05</totfact>
</mgrwt>
<rwgt>
<wgt id='morphing_basis_vector_1'> +1.9119350e-07 </wgt>
<wgt id='morphing_basis_vector_2'> +1.3916742e-07 </wgt>
<wgt id='morphing_basis_vector_3'> +2.1332680e-07 </wgt>
<wgt id='morphing_basis_vector_4'> +1.4122947e-07 </wgt>
<wgt id='morphing_basis_vector_5'> +2.3825973e-07 </wgt>
</rwgt>
</event>
<event>
 4      1 +6.9060000e-13 6.68895300e+03 7.81860800e-03 7.19049200e-02
        2 -1    0    0  501    0 +0.0000000000e+00 +0.0000000000e+00 +4.4118803631e+03 4.4118803631e+03 0.0000000000e+00 0.0000e+00 -1.0000e+00
       -2 -1    0    0    0  501 -0.0000000000e+00 -0.0000000000e+00 -2.5353187564e+03 2.5353187564e+03 0.0000000000e+00 0.0000e+00 1.0000e+00
      -13  1    1    2    0    0 +1.3573100672e+03 -2.5675263588e+03 -7.8438137832e+02 3.0082779739e+03 0.0000000000e+00 0.0000e+00 1.0000e+00
       13  1    1    2    0    0 -1.3573100672e+03 +2.5675263588e+03 +2.6609429850e+03 3.9389211456e+03 0.0000000000e+00 0.0000e+00 -1.0000e+00
<mgrwt>
<rscale>  0 0.66889530E+04</rscale>
<asrwt>0</asrwt>
<pdfrwt beam="1">  1        2 0.67875082E+00 0.66889530E+04</pdfrwt>
<pdfrwt beam="2">  1       -2 0.39004904E+00 0.66889530E+04</pdfrwt>
<totfact> 0.63352033E-04</totfact>
</mgrwt>
<rwgt>
<wgt id='morphing_basis_vector_1'> +1.8749777e-07 </wgt>
<wgt id='morphing_basis_vector_2'> +1.2947224e-07 </wgt>
<wgt id='morphing_basis_vector_3'> +2.0754661e-07 </wgt>
<wgt id='morphing_basis_vector_4'> +1.4764541e-07 </wgt>
<wgt id='morphing_basis_vector_5'> +2.3818073e-07 </wgt>
</rwgt>
</event>
<event>
 4      1 +6.9060000e-13 7.33675400e+03 7.81860800e-03 7.13102700e-02
        2 -1    0    0  501    0 +0.0000000000e+00 +0.0000000000e+00 +5.0687913571e+03 5.0687913571e+03 0.0000000000e+00 0.0000e+00 1.0000e+00
       -2 -1    0    0    0  501 -0.0000000000e+00 -0.0000000000e+00 -2.6548714247e+03 2.6548714247e+03 0.0000000000e+00 0.0000e+00 -1.0000e+00
      -13  1    1    2    0    0 +1.1739960632e+03 -2.9507290980e+02 -2.4385551965e+03 2.7224779567e+03 0.0000000000e+00 0.0000e+00 -1.0000e+00
       13  1    1    2    0    0 -1.1739960632e+03 +2.9507290980e+02 +4.8524751289e+03 5.0011848251e+03 0.0000000000e+00 0.0000e+00 1.0000e+00
<mgrwt>
<rscale>  0 0.73367539E+04</rscale>
<asrwt>0</asrwt>
<pdfrwt beam="1">  1        2 0.77981405E+00 0.73367539E+04</pdfrwt>
<pdfrwt beam="2">  1       -2 0.40844176E+00 0.73367539E+04</pdfrwt>
<totfact> 0.77764842E-05</totfact>
</mgrwt>
<rwgt>
<wgt id='morphing_basis_vector_1'> +2.6998382e-07 </wgt>
<wgt id='morphing_basis_vector_2'> +1.8374353e-07 </wgt>
<wgt id='morphing_basis_vector_3'> +2.9837426e-07 </wgt>
<wgt id='morphing_basis_vector_4'> +2.1646029e-07 </wgt>
<wgt id='morphing_basis_vector_5'> +3.4516658e-07 </wgt>
</rwgt>
</event>
<event>
 4      1 +6.9060000e-13 6.76973600e+03 7.81860800e-03 7.18271400e-02
        2 -1    0    0  501    0 +0.0000000000e+00 +0.0000000000e+00 +2.3866746006e+03 2.3866746006e+03 0.0000000000e+00 0.0000e+00 -1.0000e+00
       -2 -1    0    0    0  501 -0.0000000000e+00 -0.0000000000e+00 -4.8005421885e+03 4.8005421885e+03 0.0000000000e+00 0.0000e+00 1.0000e+00
      -13  1    1    2    0    0 +1.4287731834e+03 -1.1426159626e+02 -4.4624474973e+03 4.6869911658e+03 0.0000000000e+00 0.0000e+00 1.0000e+00
       13  1    1    2    0    0 -1.4287731834e+03 +1.1426159626e+02 +2.0485799094e+03 2.5002256233e+03 0.0000000000e+00 0.0000e+00 -1.0000e+00
<mgrwt>
<rscale>  0 0.67697362E+04</rscale>
<asrwt>0</asrwt>
<pdfrwt beam="1">  1        2 0.36718071E+00 0.67697362E+04</pdfrwt>
<pdfrwt beam="2">  1       -2 0.73854495E+00 0.67697362E+04</pdfrwt>
<totfact> 0.24112549E-04</totfact>
</mgrwt>
<rwgt>
<wgt id='morphing_basis_vector_1'> +1.9582549e-07 </wgt>
<wgt id='morphing_basis_vector_2'> +1.3325904e-07 </wgt>
<wgt id='morphing_basis_vector_3'> +2.1631664e-07 </wgt>
<wgt id='morphing_basis_vector_4'> +1.5680323e-07 </wgt>
<wgt id='morphing_basis_vector_5'> +2.5007654e-07 </wgt>
</rwgt>
</event>
<event>
 4      1 +6.9060000e-13 6.77084300e+03 7.81860800e-03 7.18260800e-02
        2 -1    0    0  501    0 +0.0000000000e+00 +0.0000000000e+00 +2.4561590287e+03 2.4561590287e+03 0.0000000000e+00 0.0000e+00 -1.0000e+00
       -2 -1    0    0    0  501 -0.0000000000e+00 -0.0000000000e+00 -4.6662603407e+03 4.6662603407e+03 0.0000000000e+00 0.0000e+00 1.0000e+00
      -13  1    1    2    0    0 -7.8841092720e+02 +5.0137268449e+01 -4.5679414516e+03 4.6357517881e+03 0.0000000000e+00 0.0000e+00 1.0000e+00
       13  1    1    2    0    0 +7.8841092720e+02 -5.0137268449e+01 +2.3578401396e+03 2.4866675813e+03 0.0000000000e+00 0.0000e+00 -1.0000e+00
<mgrwt>
<rscale>  0 0.67708426E+04</rscale>
<asrwt>0</asrwt>
<pdfrwt beam="1">  1        2 0.37787063E+00 0.67708426E+04</pdfrwt>
<pdfrwt beam="2">  1       -2 0.71788620E+00 0.67708426E+04</pdfrwt>
<totfact> 0.13836395E-04</totfact>
</mgrwt>
<rwgt>
<wgt id='morphing_basis_vector_1'> +1.9593536e-07 </wgt>
<wgt id='morphing_basis_vector_2'> +1.3329346e-07 </wgt>
<wgt id='morphing_basis_vector_3'> +2.1642869e-07 </wgt>
<wgt id='morphing_basis_vector_4'> +1.5694440e-07 </wgt>
<wgt id='morphing_basis_vector_5'> +2.5024359e-07 </wgt>
</rwgt>
</event>
<event>
 4      1 +6.9060000e-13 6.80283400e+03 7.81860800e-03 7.17955900e-02
        2 -1    0    0  501    0 +0.0000000000e+00 +0.0000000000e+00 +4.0118178134e+03 4.0118178134e+03 0.0000000000e+00 0.0000e+00 -1.0000e+00
       -2 -1    0    0    0  501 -0.0000000000e+00 -0.0000000000e+00 -2.8838887522e+03 2.8838887522e+03 0.0000000000e+00 0.0000e+00 1.0000e+00
      -13  1    1    2    0    0 -3.3869752849e+03 +2.9599768897e-01 +8.8134384188e+02 3.4997669403e+03 0.0000000000e+00 0.0000e+00 1.0000e+00
       13  1    1    2    0    0 +3.3869752849e+03 -2.9599768897e-01 +2.4658521924e+02 3.3959396253e+03 0.0000000000e+00 0.0000e+00 -1.0000e+00
<mgrwt>
<rscale>  0 0.68028336E+04</rscale>
<asrwt>0</asrwt>
<pdfrwt beam="1">  1        2 0.61720274E+00 0.68028336E+04</pdfrwt>
<pdfrwt beam="2">  1       -2 0.44367519E+00 0.68028336E+04</pdfrwt>
<totfact> 0.64765905E-04</totfact>
</mgrwt>
<rwgt>
<wgt id='morphing_basis_vector_1'> +2.0984228e-07 </wgt>
<wgt id='morphing_basis_vector_2'> +1.6571382e-07 </wgt>
<wgt id='morphing_basis_vector_3'> +2.3722855e-07 </wgt>
<wgt id='morphing_basis_vector_4'> +1.3810756e-07 </wgt>
<wgt id='morphing_basis_vector_5'> +2.5317571e-07 </wgt>
</rwgt>
</event>
<event>
 4      1 +6.9060000e-13 7.79664300e+03 7.81860800e-03 7.09244100e-02
        2 -1    0    0  501    0 +0.0000000000e+00 +0.0000000000e+00 +3.0152248615e+03 3.0152248615e+03 0.0000000000e+00 0.0000e+00 -1.0000e+00
       -2 -1    0    0    0  501 -0.0000000000e+00 -0.0000000000e+00 -5.0400592123e+03 5.0400592123e+03 0.0000000000e+00 0.0000e+00 1.0000e+00
      -13  1    1    2    0    0 +1.3463710312e+03 -2.0477385037e+03 -4.1446477410e+03 4.8149821215e+03 0.0000000000e+00 0.0000e+00 1.0000e+00
       13  1    1    2    0    0 -1.3463710312e+03 +2.0477385037e+03 +2.1198133902e+03 3.2403019523e+03 0.0000000000e+00 0.0000e+00 -1.0000e+00
<mgrwt>
<rscale>  0 0.77966433E+04</rscale>
<asrwt>0</asrwt>
<pdfrwt beam="1">  1        2 0.46388075E+00 0.77966433E+04</pdfrwt>
<pdfrwt beam="2">  1       -2 0.77539372E+00 0.77966433E+04</pdfrwt>
<totfact> 0.12407224E-04</totfact>
</mgrwt>
<rwgt>
<wgt id='morphing_basis_vector_1'> +3.4439987e-07 </wgt>
<wgt id='morphing_basis_vector_2'> +2.3490791e-07 </wgt>
<wgt id='morphing_basis_vector_3'> +3.8085191e-07 </wgt>
<wgt id='morphing_basis_vector_4'> +2.7569763e-07 </wgt>
<wgt id='morphing_basis_vector_5'> +4.4030403e-07 </wgt>
</rwgt>
</event>
<event>
 4      1 +6.9060000e-13 6.88593500e+03 7.81860800e-03 7.17171500e-02
        2 -1    0    0  501    0 +0.0000000000e+00 +0.0000000000e+00 +4.1048727531e+03 4.1048727531e+03 0.0000000000e+00 0.0000e+00 1.0000e+00
       -2 -1    0    0    0  501 -0.0000000000e+00 -0.0000000000e+00 -2.8877937686e+03 2.8877937686e+03 0.0000000000e+00 0.0000e+00 -1.0000e+00
      -13  1    1    2    0    0 -1.7181333101e+03 +2.9342641849e+03 +1.1574146791e+03 3.5918654091e+03 0.0000000000e+00 0.0000e+00 -1.0000e+00
       13  1    1    2    0    0 +1.7181333101e+03 -2.9342641849e+03 +5.9664305418e+01 3.4008011125e+03 0.0000000000e+00 0.0000e+00 1.0000e+00
<mgrwt>
<rscale>  0 0.68859352E+04</rscale>
<asrwt>0</asrwt>
<pdfrwt beam="1">  1        2 0.63151888E+00 0.68859352E+04</pdfrwt>
<pdfrwt beam="2">  1       -2 0.44427597E+00 0.68859352E+04</pdfrwt>
<totfact> 0.52912068E-04</totfact>
</mgrwt>
<rwgt>
<wgt id='morphing_basis_vector_1'> +2.2294094e-07 </wgt>
<wgt id='morphing_basis_vector_2'> +1.8180061e-07 </wgt>
<wgt id='morphing_basis_vector_3'> +2.5341791e-07 </wgt>
<wgt id='morphing_basis_vector_4'> +1.3925858e-07 </wgt>
<wgt id='morphing_basis_vector_5'> +2.6531355e-07 </wgt>
</rwgt>
</event>
<event>
 4      1 +6.9060000e-13 6.74271800e+03 7.81860800e-03 7.18530300e-02
        2 -1    0    0  501    0 +0.0000000000e+00 +0.0000000000e+00 +4.9837479452e+03 4.9837479452e+03 0.0000000000e+00 0.0000e+00 -1.0000e+00
       -2 -1    0    0    0  501 -0.0000000000e+00 -0.0000000000e+00 -2.2806253205e+03 2.2806253205e+03 0.0000000000e+00 0.0000e+00 1.0000e+00
      -13  1    1    2    0    0 -5.0939972306e+02 -2.8005521922e+03 -5.9471143192e+02 2.9079653276e+03 0.0000000000e+00 0.0000e+00 1.0000e+00
       13  1    1    2    0    0 +5.0939972306e+02 +2.8005521922e+03 +3.2978340565e+03 4.3564079381e+03 0.0000000000e+00 0.0000e+00 -1.0000e+00
<mgrwt>
<rscale>  0 0.67427181E+04</rscale>
<asrwt>0</asrwt>
<pdfrwt beam="1">  1        2 0.76673045E+00 0.67427181E+04</pdfrwt>
<pdfrwt beam="2">  1       -2 0.35086544E+00 0.67427181E+04</pdfrwt>
<totfact> 0.25000292E-04</totfact>
</mgrwt>
<rwgt>
<wgt id='morphing_basis_vector_1'> +1.9341681e-07 </wgt>
<wgt id='morphing_basis_vector_2'> +1.3318025e-07 </wgt>
<wgt id='morphing_basis_vector_3'> +2.1401966e-07 </wgt>
<wgt id='morphing_basis_vector_4'> +1.5282500e-07 </wgt>
<wgt id='morphing_basis_vector_5'> +2.4597614e-07 </wgt>
</rwgt>
</event>
<event>
 4      1 +6.9060000e-13 7.41007400e+03 7.81860800e-03 7.12468800e-02
        2 -1    0    0  501    0 +0.0000000000e+00 +0.0000000000e+00 +3.9467000164e+03 3.9467000164e+03 0.0000000000e+00 0.0000e+00 1.0000e+00
       -2 -1    0    0    0  501 -0.0000000000e+00 -0.0000000000e+00 -3.4781710775e+03 3.4781710775e+03 0.0000000000e+00 0.0000e+00 -1.0000e+00
      -13  1    1    2    0    0 -2.0927428895e+03 -7.5478936183e+02 -2.7344240239e+03 3.5251034772e+03 0.0000000000e+00 0.0000e+00 -1.0000e+00
       13  1    1    2    0    0 +2.0927428895e+03 +7.5478936183e+02 +3.2029529628e+03 3.8997676167e+03 0.0000000000e+00 0.0000e+00 1.0000e+00
<mgrwt>
<rscale>  0 0.74100736E+04</rscale>
<asrwt>0</asrwt>
<pdfrwt beam="1">  1        2 0.60718462E+00 0.74100736E+04</pdfrwt>
<pdfrwt beam="2">  1       -2 0.53510324E+00 0.74100736E+04</pdfrwt>
<totfact> 0.15083882E-04</totfact>
</mgrwt>
<rwgt>
<wgt id='morphing_basis_vector_1'> +2.8105470e-07 </wgt>
<wgt id='morphing_basis_vector_2'> +1.9158394e-07 </wgt>
<wgt id='morphing_basis_vector_3'> +3.1069782e-07 </wgt>
<wgt id='morphing_basis_vector_4'> +2.2497183e-07 </wgt>
<wgt id='morphing_basis_vector_5'> +3.5916927e-07 </wgt>
</rwgt>
</event>
<event>
 4      1 +6.9060000e-13 6.87745500e+03 7.81860800e-03 7.17251100e-02
        2 -1    0    0  501    0 +0.0000000000e+00 +0.0000000000e+00 +4.3083866095e+03 4.3083866095e+03 0.0000000000e+00 0.0000e+00 -1.0000e+00
       -2 -1    0    0    0  501 -0.0000000000e+00 -0.0000000000e+00 -2.7446114759e+03 2.7446114759e+03 0.0000000000e+00 0.0000e+00 1.0000e+00
      -13  1    1    2    0    0 -2.1639869570e+02 +2.7206076201e+03 -1.3634725005e+03 3.0508345543e+03 0.0000000000e+00 0.0000e+00 1.0000e+00
       13  1    1    2    0    0 +2.1639869570e+02 -2.7206076201e+03 +2.9272476342e+03 4.0021635311e+03 0.0000000000e+00 0.0000e+00 -1.0000e+00
<mgrwt>
<rscale>  0 0.68774551E+04</rscale>
<asrwt>0</asrwt>
<pdfrwt beam="1">  1        2 0.66282871E+00 0.68774551E+04</pdfrwt>
<pdfrwt beam="2">  1       -2 0.42224792E+00 0.68774551E+04</pdfrwt>
<totfact> 0.48472871E-04</totfact>
</mgrwt>
<rwgt>
<wgt id='morphing_basis_vector_1'> +2.0904819e-07 </wgt>
<wgt id='morphing_basis_vector_2'> +1.4335209e-07 </wgt>
<wgt id='morphing_basis_vector_3'> +2.3120399e-07 </wgt>
<wgt id='morphing_basis_vector_4'> +1.6600930e-07 </wgt>
<wgt id='morphing_basis_vector_5'> +2.6631881e-07 </wgt>
</rwgt>
</event>
<event>
 4      1 +6.9060000e-13 6.73288000e+03 7.81860800e-03 7.18624900e-02
        2 -1    0    0  501    0 +0.0000000000e+00 +0.0000000000e+00 +4.1807408181e+03 4.1807408181e+03 0.0000000000e+00 0.0000e+00 -1.0000e+00
       -2 -1    0    0    0  501 -0.0000000000e+00 -0.0000000000e+00 -2.7107439845e+03 2.7107439845e+03 0.0000000000e+00 0.0000e+00 1.0000e+00
      -13  1    1    2    0    0 +2.6226750410e+02 -2.0909617137e+03 -1.9521086681e+03 2.8725656449e+03 0.0000000000e+00 0.0000e+00 1.0000e+00
       13  1    1    2    0    0 -2.6226750410e+02 +2.0909617137e+03 +3.4221055017e+03 4.0189191578e+03 0.0000000000e+00 0.0000e+00 -1.0000e+00
<mgrwt>
<rscale>  0 0.67328799E+04</rscale>
<asrwt>0</asrwt>
<pdfrwt beam="1">  1        2 0.64319090E+00 0.67328799E+04</pdfrwt>
<pdfrwt beam="2">  1       -2 0.41703753E+00 0.67328799E+04</pdfrwt>
<totfact> 0.69802875E-04</totfact>
</mgrwt>
<rwgt>
<wgt id='morphing_basis_vector_1'> +1.9170381e-07 </wgt>
<wgt id='morphing_basis_vector_2'> +1.3067781e-07 </wgt>
<wgt id='morphing_basis_vector_3'> +2.1180947e-07 </wgt>
<wgt id='morphing_basis_vector_4'> +1.5319506e-07 </wgt>
<wgt id='morphing_basis_vector_5'> +2.4464748e-07 </wgt>
</rwgt>
</event>
<event>
 4      1 +6.9060000e-13 6.76447700e+03 7.81860800e-03 7.18321700e-02
        2 -1    0    0  501    0 +0.0000000000e+00 +0.0000000000e+00 +4.3547300881e+03 4.3547300881e+03 0.0000000000e+00 0.0000e+00 1.0000e+00
       -2 -1    0    0    0  501 -0.0000000000e+00 -0.0000000000e+00 -2.6269220969e+03 2.6269220969e+03 0.0000000000e+00 0.0000e+00 -1.0000e+00
      -13  1    1    2    0    0 -1.1214289306e+03 +5.3946915040e+02 -2.3820476974e+03 2.6875232173e+03 0.0000000000e+00 0.0000e+00 -1.0000e+00
       13  1    1    2    0    0 +1.1214289306e+03 -5.3946915040e+02 +4.1098556886e+03 4.2941289678e+03 0.0000000000e+00 0.0000e+00 1.0000e+00
<mgrwt>
<rscale>  0 0.67644768E+04</rscale>
<asrwt>0</asrwt>
<pdfrwt beam="1">  1        2 0.66995847E+00 0.67644768E+04</pdfrwt>
<pdfrwt beam="2">  1       -2 0.40414186E+00 0.67644768E+04</pdfrwt>
<totfact> 0.58057237E-04</totfact>
</mgrwt>
<rwgt>
<wgt id='morphing_basis_vector_1'> +1.9520984e-07 </wgt>
<wgt id='morphing_basis_vector_2'> +1.3281959e-07 </wgt>
<wgt id='morphing_basis_vector_3'> +2.1563071e-07 </wgt>
<wgt id='morphing_basis_vector_4'> +1.5633477e-07 </wgt>
<wgt id='morphing_basis_vector_5'> +2.4930058e-07 </wgt>
</rwgt>
</event>
<event>
 4      1 +6.9060000e-13 6.99241400e+03 7.81860800e-03 7.16182800e-02
        2 -1    0    0  501    0 +0.0000000000e+00 +0.0000000000e+00 +4.3008029886e+03 4.3008029886e+03 0.0000000000e+00 0.0000e+00 -1.0000e+00
       -2 -1    0    0    0  501 -0.0000000000e+00 -0.0000000000e+00 -2.8421350683e+03 2.8421350683e+03 0.0000000000e+00 0.0000e+00 1.0000e+00
      -13  1    1    2    0    0 +2.1111385650e+03 +2.7762943633e+03 +9.7692845909e+02 3.6220305971e+03 0.0000000000e+00 0.0000e+00 1.0000e+00
       13  1    1    2    0    0 -2.1111385650e+03 -2.7762943633e+03 +4.8173946119e+02 3.5209074598e+03 0.0000000000e+00 0.0000e+00 -1.0000e+00
<mgrwt>
<rscale>  0 0.69924139E+04</rscale>
<asrwt>0</asrwt>
<pdfrwt beam="1">  1        2 0.66166200E+00 0.69924139E+04</pdfrwt>
<pdfrwt beam="2">  1       -2 0.43725155E+00 0.69924139E+04</pdfrwt>
<totfact> 0.38742698E-04</totfact>
</mgrwt>
<rwgt>
<wgt id='morphing_basis_vector_1'> +2.3331784e-07 </wgt>
<wgt id='morphing_basis_vector_2'> +1.8240841e-07 </wgt>
<wgt id='morphing_basis_vector_3'> +2.6338151e-07 </wgt>
<wgt id='morphing_basis_vector_4'> +1.5604553e-07 </wgt>
<wgt id='morphing_basis_vector_5'> +2.8280716e-07 </wgt>
</rwgt>
</event>
<event>
 4      1 +6.9060000e-13 6.91107300e+03 7.81860800e-03 7.16936500e-02
        2 -1    0    0  501    0 +0.0000000000e+00 +0.0000000000e+00 +4.6577430697e+03 4.6577430697e+03 0.0000000000e+00 0.0000e+00 -1.0000e+00
       -2 -1    0    0    0  501 -0.0000000000e+00 -0.0000000000e+00 -2.5636305243e+03 2.5636305243e+03 0.0000000000e+00 0.0000e+00 1.0000e+00
      -13  1    1    2    0    0 -1.3561582488e+02 -3.0186384995e+03 -7.0456429333e+02 3.1027376438e+03 0.0000000000e+00 0.0000e+00 1.0000e+00
       13  1    1    2    0    0 +1.3561582488e+02 +3.0186384995e+03 +2.7986768388e+03 4.1186359502e+03 0.0000000000e+00 0.0000e+00 -1.0000e+00
<mgrwt>
<rscale>  0 0.69110729E+04</rscale>
<asrwt>0</asrwt>
<pdfrwt beam="1">  1        2 0.71657586E+00 0.69110729E+04</pdfrwt>
<pdfrwt beam="2">  1       -2 0.39440470E+00 0.69110729E+04</pdfrwt>
<totfact> 0.32159100E-04</totfact>
</mgrwt>
<rwgt>
<wgt id='morphing_basis_vector_1'> +2.1367765e-07 </wgt>
<wgt id='morphing_basis_vector_2'> +1.4769710e-07 </wgt>
<wgt id='morphing_basis_vector_3'> +2.3660805e-07 </wgt>
<wgt id='morphing_basis_vector_4'> +1.6817137e-07 </wgt>
<wgt id='morphing_basis_vector_5'> +2.7147932e-07 </wgt>
</rwgt>
</event>
<event>
 4      1 +6.9060000e-13 7.75732800e+03 7.81860800e-03 7.09563400e-02
        2 -1    0    0  501    0 +0.0000000000e+00 +0.0000000000e+00 +2.7831876252e+03 2.7831876252e+03 0.0000000000e+00 0.0000e+00 1.0000e+00
       -2 -1    0    0    0  501 -0.0000000000e+00 -0.0000000000e+00 -5.4053246022e+03 5.4053246022e+03 0.0000000000e+00 0.0000e+00 -1.0000e+00
      -13  1    1    2    0    0 +1.7023087569e+03 +3.2659366499e+03 -2.5951705890e+03 4.5054531061e+03 0.0000000000e+00 0.0000e+00 -1.0000e+00
       13  1    1    2    0    0 -1.7023087569e+03 -3.2659366499e+03 -2.6966388014e+01 3.6830591213e+03 0.0000000000e+00 0.0000e+00 1.0000e+00
<mgrwt>
<rscale>  0 0.77573275E+04</rscale>
<asrwt>0</asrwt>
<pdfrwt beam="1">  1        2 0.42818271E+00 0.77573275E+04</pdfrwt>
<pdfrwt beam="2">  1       -2 0.83158840E+00 0.77573275E+04</pdfrwt>
<totfact> 0.12970969E-04</totfact>
</mgrwt>
<rwgt>
<wgt id='morphing_basis_vector_1'> +3.4095501e-07 </wgt>
<wgt id='morphing_basis_vector_2'> +2.4030095e-07 </wgt>
<wgt id='morphing_basis_vector_3'> +3.7887739e-07 </wgt>
<wgt id='morphing_basis_vector_4'> +2.6278577e-07 </wgt>
<wgt id='morphing_basis_vector_5'> +4.3085522e-07 </wgt>
</rwgt>
</event>
<event>
 4      1 +6.9060000e-13 6.79028600e+03 7.81860800e-03 7.18075300e-02
        2 -1    0    0  501    0 +0.0000000000e+00 +0.0000000000e+00 +4.0426584241e+03 4.0426584241e+03 0.0000000000e+00 0.0000e+00 1.0000e+00
       -2 -1    0    0    0  501 -0.0000000000e+00 -0.0000000000e+00 -2.8513407676e+03 2.8513407676e+03 0.0000000000e+00 0.0000e+00 -1.0000e+00
      -13  1    1    2    0    0 +3.2645721945e+02 -1.4284868165e+03 +3.7050906879e+03 3.9843250253e+03 0.0000000000e+00 0.0000e+00 1.0000e+00
       13  1    1    2    0    0 -3.2645721945e+02 +1.4284868165e+03 -2.5137730315e+03 2.9096741664e+03 0.0000000000e+00 0.0000e+00 -1.0000e+00
<mgrwt>
<rscale>  0 0.67902862E+04</rscale>
<asrwt>0</asrwt>
<pdfrwt beam="1">  1        2 0.62194745E+00 0.67902862E+04</pdfrwt>
<pdfrwt beam="2">  1       -2 0.43866781E+00 0.67902862E+04</pdfrwt>
<totfact> 0.65986733E-04</totfact>
</mgrwt>
<rwgt>
<wgt id='morphing_basis_vector_1'> +2.7000790e-07 </wgt>
<wgt id='morphing_basis_vector_2'> +3.4557066e-07 </wgt>
<wgt id='morphing_basis_vector_3'> +3.3654890e-07 </wgt>
<wgt id='morphing_basis_vector_4'> +4.8300863e-09 </wgt>
<wgt id='morphing_basis_vector_5'> +2.4016670e-07 </wgt>
</rwgt>
</event>
<event>
 4      1 +6.9060000e-13 6.76279500e+03 7.81860800e-03 7.18337800e-02
        2 -1    0    0  501    0 +0.0000000000e+00 +0.0000000000e+00 +3.2535453489e+03 3.2535453489e+03 0.0000000000e+00 0.0000e+00 1.0000e+00
       -2 -1    0    0    0  501 -0.0000000000e+00 -0.0000000000e+00 -3.5142733545e+03 3.5142733545e+03 0.0000000000e+00 0.0000e+00 -1.0000e+00
      -13  1    1    2    0    0 -2.5142648988e+03 +1.9061410536e+03 -1.3473867103e+03 3.4307947541e+03 0.0000000000e+00 0.0000e+00 -1.0000e+00
       13  1    1    2    0    0 +2.5142648988e+03 -1.9061410536e+03 +1.0866587048e+03 3.3370239493e+03 0.0000000000e+00 0.0000e+00 1.0000e+00
<mgrwt>
<rscale>  0 0.67627946E+04</rscale>
<asrwt>0</asrwt>
<pdfrwt beam="1">  1        2 0.50054544E+00 0.67627946E+04</pdfrwt>
<pdfrwt beam="2">  1       -2 0.54065744E+00 0.67627946E+04</pdfrwt>
<totfact> 0.48261289E-04</totfact>
</mgrwt>
<rwgt>
<wgt id='morphing_basis_vector_1'> +1.9673187e-07 </wgt>
<wgt id='morphing_basis_vector_2'> +1.3772251e-07 </wgt>
<wgt id='morphing_basis_vector_3'> +2.1822625e-07 </wgt>
<wgt id='morphing_basis_vector_4'> +1.5250172e-07 </wgt>
<wgt id='morphing_basis_vector_5'> +2.4874245e-07 </wgt>
</rwgt>
</event>
<event>
 4      1 +6.9060000e-13 7.02485000e+03 7.81860800e-03 7.15885100e-02
        2 -1    0    0  501    0 +0.0000000000e+00 +0.0000000000e+00 +2.2876484554e+03 2.2876484554e+03 0.0000000000e+00 0.0000e+00 1.0000e+00
       -2 -1    0    0    0  501 -0.0000000000e+00 -0.0000000000e+00 -5.3929305517e+03 5.3929305517e+03 0.0000000000e+00 0.0000e+00 -1.0000e+00
      -13  1    1    2    0    0 +1.0256347073e+03 -1.8761493022e+03 -4.5993789147e+03 5.0720951448e+03 0.0000000000e+00 0.0000e+00 -1.0000e+00
       13  1    1    2    0    0 -1.0256347073e+03 +1.8761493022e+03 +1.4940968184e+03 2.6084838622e+03 0.0000000000e+00 0.0000e+00 1.0000e+00
<mgrwt>
<rscale>  0 0.70248500E+04</rscale>
<asrwt>0</asrwt>
<pdfrwt beam="1">  1        2 0.35194592E+00 0.70248500E+04</pdfrwt>
<pdfrwt beam="2">  1       -2 0.82968161E+00 0.70248500E+04</pdfrwt>
<totfact> 0.27645275E-04</totfact>
</mgrwt>
<rwgt>
<wgt id='morphing_basis_vector_1'> +2.2709696e-07 </wgt>
<wgt id='morphing_basis_vector_2'> +1.5478969e-07 </wgt>
<wgt id='morphing_basis_vector_3'> +2.5097407e-07 </wgt>
<wgt id='morphing_basis_vector_4'> +1.8163783e-07 </wgt>
<wgt id='morphing_basis_vector_5'> +2.9001068e-07 </wgt>
</rwgt>
</event>
<event>
 4      1 +6.9060000e-13 6.97014800e+03 7.81860800e-03 7.16388100e-02
        2 -1    0    0  501    0 +0.0000000000e+00 +0.0000000000e+00 +3.8093714317e+03 3.8093714317e+03 0.0000000000e+00 0.0000e+00 1.0000e+00
       -2 -1    0    0    0  501 -0.0000000000e+00 -0.0000000000e+00 -3.1883845430e+03 3.1883845430e+03 0.0000000000e+00 0.0000e+00 -1.0000e+00
      -13  1    1    2    0    0 -1.1992530163e+03 +1.3680036466e+03 +3.2948250762e+03 3.7637101452e+03 0.0000000000e+00 0.0000e+00 1.0000e+00
       13  1    1    2    0    0 +1.1992530163e+03 -1.3680036466e+03 -2.6738381875e+03 3.2340458295e+03 0.0000000000e+00 0.0000e+00 -1.0000e+00
<mgrwt>
<rscale>  0 0.69701481E+04</rscale>
<asrwt>0</asrwt>
<pdfrwt beam="1">  1        2 0.58605714E+00 0.69701481E+04</pdfrwt>
<pdfrwt beam="2">  1       -2 0.49052070E+00 0.69701481E+04</pdfrwt>
<totfact> 0.43239324E-04</totfact>
</mgrwt>
<rwgt>
<wgt id='morphing_basis_vector_1'> +2.9722268e-07 </wgt>
<wgt id='morphing_basis_vector_2'> +3.7627863e-07 </wgt>
<wgt id='morphing_basis_vector_3'> +3.6960521e-07 </wgt>
<wgt id='morphing_basis_vector_4'> +1.0713499e-08 </wgt>
<wgt id='morphing_basis_vector_5'> +2.6713521e-07 </wgt>
</rwgt>
</event>
<event>
 4      1 +6.9060000e-13 6.77904400e+03 7.81860800e-03 7.18182500e-02
        2 -1    0    0  501    0 +0.0000000000e+00 +0.0000000000e+00 +3.2658014099e+03 3.2658014099e+03 0.0000000000e+00 0.0000e+00 -1.0000e+00
       -2 -1    0    0    0  501 -0.0000000000e+00 -0.0000000000e+00 -3.5179294482e+03 3.5179294482e+03 0.0000000000e+00 0.0000e+00 1.0000e+00
      -13  1    1    2    0    0 +2.5095040840e+03 -1.5940813593e+03 -1.7551185571e+03 3.4524118059e+03 0.0000000000e+00 0.0000e+00 1.0000e+00
       13  1    1    2    0    0 -2.5095040840e+03 +1.5940813593e+03 +1.5029905188e+03 3.3313190522e+03 0.0000000000e+00 0.0000e+00 -1.0000e+00
<mgrwt>
<rscale>  0 0.67790439E+04</rscale>
<asrwt>0</asrwt>
<pdfrwt beam="1">  1        2 0.50243099E+00 0.67790439E+04</pdfrwt>
<pdfrwt beam="2">  1       -2 0.54121991E+00 0.67790439E+04</pdfrwt>
<totfact> 0.46840878E-04</totfact>
</mgrwt>
<rwgt>
<wgt id='morphing_basis_vector_1'> +1.9786210e-07 </wgt>
<wgt id='morphing_basis_vector_2'> +1.3680814e-07 </wgt>
<wgt id='morphing_basis_vector_3'> +2.1907985e-07 </wgt>
<wgt id='morphing_basis_vector_4'> +1.5561259e-07 </wgt>
<wgt id='morphing_basis_vector_5'> +2.5128384e-07 </wgt>
</rwgt>
</event>
<event>
 4      1 +6.9060000e-13 7.19820100e+03 7.81860800e-03 7.14321100e-02
        2 -1    0    0  501    0 +0.0000000000e+00 +0.0000000000e+00 +4.4408342629e+03 4.4408342629e+03 0.0000000000e+00 0.0000e+00 -1.0000e+00
       -2 -1    0    0    0  501 -0.0000000000e+00 -0.0000000000e+00 -2.9169125881e+03 2.9169125881e+03 0.0000000000e+00 0.0000e+00 1.0000e+00
      -13  1    1    2    0    0 -2.8235670121e+03 -1.8179725786e+03 -5.6132610577e+02 3.4047969051e+03 0.0000000000e+00 0.0000e+00 1.0000e+00
       13  1    1    2    0    0 +2.8235670121e+03 +1.8179725786e+03 +2.0852477805e+03 3.9529499458e+03 0.0000000000e+00 0.0000e+00 -1.0000e+00
<mgrwt>
<rscale>  0 0.71982013E+04</rscale>
<asrwt>0</asrwt>
<pdfrwt beam="1">  1        2 0.68320527E+00 0.71982013E+04</pdfrwt>
<pdfrwt beam="2">  1       -2 0.44875578E+00 0.71982013E+04</pdfrwt>
<totfact> 0.23178805E-04</totfact>
</mgrwt>
<rwgt>
<wgt id='morphing_basis_vector_1'> +2.5239572e-07 </wgt>
<wgt id='morphing_basis_vector_2'> +1.7673255e-07 </wgt>
<wgt id='morphing_basis_vector_3'> +2.8008537e-07 </wgt>
<wgt id='morphing_basis_vector_4'> +1.9581221e-07 </wgt>
<wgt id='morphing_basis_vector_5'> +3.1938692e-07 </wgt>
</rwgt>
</event>
<event>
 4      1 +6.9060000e-13 7.23418100e+03 7.81860800e-03 7.14002100e-02
        2 -1    0    0  501    0 +0.0000000000e+00 +0.0000000000e+00 +4.5438679291e+03 4.5438679291e+03 0.0000000000e+00 0.0000e+00 -1.0000e+00
       -2 -1    0    0    0  501 -0.0000000000e+00 -0.0000000000e+00 -2.8793407726e+03 2.8793407726e+03 0.0000000000e+00 0.0000e+00 1.0000e+00
      -13  1    1    2    0    0 +3.3584266169e+02 -2.0544187934e+03 -2.2030549042e+03 3.0309862723e+03 0.0000000000e+00 0.0000e+00 1.0000e+00
       13  1    1    2    0    0 -3.3584266169e+02 +2.0544187934e+03 +3.8675820608e+03 4.3922224294e+03 0.0000000000e+00 0.0000e+00 -1.0000e+00
<mgrwt>
<rscale>  0 0.72341811E+04</rscale>
<asrwt>0</asrwt>
<pdfrwt beam="1">  1        2 0.69905661E+00 0.72341811E+04</pdfrwt>
<pdfrwt beam="2">  1       -2 0.44297550E+00 0.72341811E+04</pdfrwt>
<totfact> 0.19833049E-04</totfact>
</mgrwt>
<rwgt>
<wgt id='morphing_basis_vector_1'> +2.5531765e-07 </wgt>
<wgt id='morphing_basis_vector_2'> +1.7396939e-07 </wgt>
<wgt id='morphing_basis_vector_3'> +2.8219420e-07 </wgt>
<wgt id='morphing_basis_vector_4'> +2.0438385e-07 </wgt>
<wgt id='morphing_basis_vector_5'> +3.2622020e-07 </wgt>
</rwgt>
</event>
<event>
 4      1 +6.9060000e-13 6.66800200e+03 7.81860800e-03 7.19252800e-02
        2 -1    0    0  501    0 +0.0000000000e+00 +0.0000000000e+00 +3.4369097728e+03 3.4369097728e+03 0.0000000000e+00 0.0000e+00 1.0000e+00
       -2 -1    0    0    0  501 -0.0000000000e+00 -0.0000000000e+00 -3.2341737178e+03 3.2341737178e+03 0.0000000000e+00 0.0000e+00 -1.0000e+00
      -13  1    1    2    0    0 -6.6730033362e+02 +3.0340544756e+03 +1.3122111402e+03 3.3723395992e+03 0.0000000000e+00 0.0000e+00 1.0000e+00
       13  1    1    2    0    0 +6.6730033362e+02 -3.0340544756e+03 -1.1094750852e+03 3.2987438914e+03 0.0000000000e+00 0.0000e+00 -1.0000e+00
<mgrwt>
<rscale>  0 0.66680022E+04</rscale>
<asrwt>0</asrwt>
<pdfrwt beam="1">  1        2 0.52875535E+00 0.66680022E+04</pdfrwt>
<pdfrwt beam="2">  1       -2 0.49756519E+00 0.66680022E+04</pdfrwt>
<totfact> 0.75104982E-04</totfact>
</mgrwt>
<rwgt>
<wgt id='morphing_basis_vector_1'> +2.0725362e-07 </wgt>
<wgt id='morphing_basis_vector_2'> +1.9268186e-07 </wgt>
<wgt id='morphing_basis_vector_3'> +2.4112355e-07 </wgt>
<wgt id='morphing_basis_vector_4'> +9.8467411e-08 </wgt>
<wgt id='morphing_basis_vector_5'> +2.3121832e-07 </wgt>
</rwgt>
</event>
<event>
 4      1 +6.9060000e-13 6.90283700e+03 7.81860800e-03 7.17013400e-02
        2 -1    0    0  501    0 +0.0000000000e+00 +0.0000000000e+00 +4.2715802699e+03 4.2715802699e+03 0.0000000000e+00 0.0000e+00 1.0000e+00
       -2 -1    0    0    0  501 -0.0000000000e+00 -0.0000000000e+00 -2.7887310785e+03 2.7887310785e+03 0.0000000000e+00 0.0000e+00 -1.0000e+00
      -13  1    1    2    0    0 -3.4239443185e+03 -4.2528203236e+02 +6.4977489850e+02 3.5109068518e+03 0.0000000000e+00 0.0000e+00 -1.0000e+00
       13  1    1    2    0    0 +3.4239443185e+03 +4.2528203236e+02 +8.3307429292e+02 3.5494044966e+03 0.0000000000e+00 0.0000e+00 1.0000e+00
<mgrwt>
<rscale>  0 0.69028367E+04</rscale>
<asrwt>0</asrwt>
<pdfrwt beam="1">  1        2 0.65716620E+00 0.69028367E+04</pdfrwt>
<pdfrwt beam="2">  1       -2 0.42903555E+00 0.69028367E+04</pdfrwt>
<totfact> 0.47239179E-04</totfact>
</mgrwt>
<rwgt>
<wgt id='morphing_basis_vector_1'> +2.1873109e-07 </wgt>
<wgt id='morphing_basis_vector_2'> +1.6480184e-07 </wgt>
<wgt id='morphing_basis_vector_3'> +2.4542496e-07 </wgt>
<wgt id='morphing_basis_vector_4'> +1.5435998e-07 </wgt>
<wgt id='morphing_basis_vector_5'> +2.6908904e-07 </wgt>
</rwgt>
</event>
<event>
 4      1 +6.9060000e-13 6.74427900e+03 7.81860800e-03 7.18515300e-02
        2 -1    0    0  501    0 +0.0000000000e+00 +0.0000000000e+00 +3.8555761599e+03 3.8555761599e+03 0.0000000000e+00 0.0000e+00 -1.0000e+00
       -2 -1    0    0    0  501 -0.0000000000e+00 -0.0000000000e+00 -2.9493195425e+03 2.9493195425e+03 0.0000000000e+00 0.0000e+00 1.0000e+00
      -13  1    1    2    0    0 -2.2991685992e+03 +5.7878435281e+02 -1.9663728238e+03 3.0802255854e+03 0.0000000000e+00 0.0000e+00 1.0000e+00
       13  1    1    2    0    0 +2.2991685992e+03 -5.7878435281e+02 +2.8726294411e+03 3.7246701170e+03 0.0000000000e+00 0.0000e+00 -1.0000e+00
<mgrwt>
<rscale>  0 0.67442794E+04</rscale>
<asrwt>0</asrwt>
<pdfrwt beam="1">  1        2 0.59316556E+00 0.67442794E+04</pdfrwt>
<pdfrwt beam="2">  1       -2 0.45374147E+00 0.67442794E+04</pdfrwt>
<totfact> 0.74754060E-04</totfact>
</mgrwt>
<rwgt>
<wgt id='morphing_basis_vector_1'> +1.9310667e-07 </wgt>
<wgt id='morphing_basis_vector_2'> +1.3186852e-07 </wgt>
<wgt id='morphing_basis_vector_3'> +2.1341711e-07 </wgt>
<wgt id='morphing_basis_vector_4'> +1.5401490e-07 </wgt>
<wgt id='morphing_basis_vector_5'> +2.4629274e-07 </wgt>
</rwgt>
</event>
<event>
 4      1 +6.9060000e-13 7.60589500e+03 7.81860800e-03 7.10811300e-02
        2 -1    0    0  501    0 +0.0000000000e+00 +0.0000000000e+00 +5.0774312704e+03 5.0774312704e+03 0.0000000000e+00 0.0000e+00 1.0000e+00
       -2 -1    0    0    0  501 -0.0000000000e+00 -0.0000000000e+00 -2.8483710634e+03 2.8483710634e+03 0.0000000000e+00 0.0000e+00 -1.0000e+00
      -13  1    1    2    0    0 -1.8747932917e+03 -2.9691170468e+03 -4.0698612740e+02 3.5349884911e+03 0.0000000000e+00 0.0000e+00 1.0000e+00
       13  1    1    2    0    0 +1.8747932917e+03 +2.9691170468e+03 +2.6360463344e+03 4.3908138427e+03 0.0000000000e+00 0.0000e+00 -1.0000e+00
<mgrwt>
<rscale>  0 0.76058946E+04</rscale>
<asrwt>0</asrwt>
<pdfrwt beam="1">  1        2 0.78114327E+00 0.76058946E+04</pdfrwt>
<pdfrwt beam="2">  1       -2 0.43821093E+00 0.76058946E+04</pdfrwt>
<totfact> 0.46915041E-05</totfact>
</mgrwt>
<rwgt>
<wgt id='morphing_basis_vector_1'> +3.1422915e-07 </wgt>
<wgt id='morphing_basis_vector_2'> +2.1943015e-07 </wgt>
<wgt id='morphing_basis_vector_3'> +3.4866097e-07 </wgt>
<wgt id='morphing_basis_vector_4'> +2.4477987e-07 </wgt>
<wgt id='morphing_basis_vector_5'> +3.9830637e-07 </wgt>
</rwgt>
</event>
<event>
 4      1 +6.9060000e-13 7.27530500e+03 7.81860800e-03 7.13639700e-02
        2 -1    0    0  501    0 +0.0000000000e+00 +0.0000000000e+00 +5.1814076854e+03 5.1814076854e+03 0.0000000000e+00 0.0000e+00 -1.0000e+00
       -2 -1    0    0    0  501 -0.0000000000e+00 -0.0000000000e+00 -2.5538453509e+03 2.5538453509e+03 0.0000000000e+00 0.0000e+00 1.0000e+00
      -13  1    1    2    0    0 +3.1157492678e+03 +1.6491179221e+02 -6.7459031245e+02 3.1922032343e+03 0.0000000000e+00 0.0000e+00 1.0000e+00
       13  1    1    2    0    0 -3.1157492678e+03 -1.6491179221e+02 +3.3021526470e+03 4.5430498020e+03 0.0000000000e+00 0.0000e+00 -1.0000e+00
<mgrwt>
<rscale>  0 0.72753045E+04</rscale>
<asrwt>0</asrwt>
<pdfrwt beam="1">  1        2 0.79713964E+00 0.72753045E+04</pdfrwt>
<pdfrwt beam="2">  1       -2 0.39289929E+00 0.72753045E+04</pdfrwt>
<totfact> 0.67938728E-05</totfact>
</mgrwt>
<rwgt>
<wgt id='morphing_basis_vector_1'> +2.6214344e-07 </wgt>
<wgt id='morphing_basis_vector_2'> +1.8083156e-07 </wgt>
<wgt id='morphing_basis_vector_3'> +2.9027221e-07 </wgt>
<wgt id='morphing_basis_vector_4'> +2.0697587e-07 </wgt>
<wgt id='morphing_basis_vector_5'> +3.3353555e-07 </wgt>
</rwgt>
</event>
<event>
 4      1 +6.9060000e-13 6.85077900e+03 7.81860800e-03 7.17502000e-02
        2 -1    0    0  501    0 +0.0000000000e+00 +0.0000000000e+00 +4.3239962807e+03 4.3239962807e+03 0.0000000000e+00 0.0000e+00 -1.0000e+00
       -2 -1    0    0    0  501 -0.0000000000e+00 -0.0000000000e+00 -2.7135297880e+03 2.7135297880e+03 0.0000000000e+00 0.0000e+00 1.0000e+00
      -13  1    1    2    0    0 -2.1539297672e+03 -2.6242408336e+03 +3.3758840971e+02 3.4117472546e+03 0.0000000000e+00 0.0000e+00 1.0000e+00
       13  1    1    2    0    0 +2.1539297672e+03 +2.6242408336e+03 +1.2728780830e+03 3.6257788141e+03 0.0000000000e+00 0.0000e+00 -1.0000e+00
<mgrwt>
<rscale>  0 0.68507788E+04</rscale>
<asrwt>0</asrwt>
<pdfrwt beam="1">  1        2 0.66523020E+00 0.68507788E+04</pdfrwt>
<pdfrwt beam="2">  1       -2 0.41746612E+00 0.68507788E+04</pdfrwt>
<totfact> 0.50480042E-04</totfact>
</mgrwt>
<rwgt>
<wgt id='morphing_basis_vector_1'> +2.0995455e-07 </wgt>
<wgt id='morphing_basis_vector_2'> +1.5324790e-07 </wgt>
<wgt id='morphing_basis_vector_3'> +2.3439601e-07 </wgt>
<wgt id='morphing_basis_vector_4'> +1.5460113e-07 </wgt>
<wgt id='morphing_basis_vector_5'> +2.6145881e-07 </wgt>
</rwgt>
</event>
<event>
 4      1 +6.9060000e-13 6.77762400e+03 7.81860800e-03 7.18196000e-02
        2 -1    0    0  501    0 +0.0000000000e+00 +0.0000000000e+00 +4.9509627606e+03 4.9509627606e+03 0.0000000000e+00 0.0000e+00 -1.0000e+00
       -2 -1    0    0    0  501 -0.0000000000e+00 -0.0000000000e+00 -2.3195582090e+03 2.3195582090e+03 0.0000000000e+00 0.0000e+00 1.0000e+00
      -13  1    1    2    0    0 +2.3512550488e+03 -8.9273358393e+02 -1.1207452235e+03 2.7534421026e+03 0.0000000000e+00 0.0000e+00 1.0000e+00
       13  1    1    2    0    0 -2.3512550488e+03 +8.9273358393e+02 +3.7521497750e+03 4.5170788670e+03 0.0000000000e+00 0.0000e+00 -1.0000e+00
<mgrwt>
<rscale>  0 0.67776239E+04</rscale>
<asrwt>0</asrwt>
<pdfrwt beam="1">  1        2 0.76168658E+00 0.67776239E+04</pdfrwt>
<pdfrwt beam="2">  1       -2 0.35685511E+00 0.67776239E+04</pdfrwt>
<totfact> 0.25189969E-04</totfact>
</mgrwt>
<rwgt>
<wgt id='morphing_basis_vector_1'> +1.9703071e-07 </wgt>
<wgt id='morphing_basis_vector_2'> +1.3473942e-07 </wgt>
<wgt id='morphing_basis_vector_3'> +2.1780568e-07 </wgt>
<wgt id='morphing_basis_vector_4'> +1.5690938e-07 </wgt>
<wgt id='morphing_basis_vector_5'> +2.5119325e-07 </wgt>
</rwgt>
</event>
<event>
 4      1 +6.9060000e-13 6.71717200e+03 7.81860800e-03 7.18776300e-02
        2 -1    0    0  501    0 +0.0000000000e+00 +0.0000000000e+00 +3.5494409428e+03 3.5494409428e+03 0.0000000000e+00 0.0000e+00 -1.0000e+00
       -2 -1    0    0    0  501 -0.0000000000e+00 -0.0000000000e+00 -3.1779938030e+03 3.1779938030e+03 0.0000000000e+00 0.0000e+00 1.0000e+00
      -13  1    1    2    0    0 +1.7187067580e+03 -5.1327260741e+02 -2.6581038569e+03 3.2066988950e+03 0.0000000000e+00 0.0000e+00 1.0000e+00
       13  1    1    2    0    0 -1.7187067580e+03 +5.1327260741e+02 +3.0295509966e+03 3.5207358507e+03 0.0000000000e+00 0.0000e+00 -1.0000e+00
<mgrwt>
<rscale>  0 0.67171724E+04</rscale>
<asrwt>0</asrwt>
<pdfrwt beam="1">  1        2 0.54606784E+00 0.67171724E+04</pdfrwt>
<pdfrwt beam="2">  1       -2 0.48892212E+00 0.67171724E+04</pdfrwt>
<totfact> 0.71874161E-04</totfact>
</mgrwt>
<rwgt>
<wgt id='morphing_basis_vector_1'> +1.8986019e-07 </wgt>
<wgt id='morphing_basis_vector_2'> +1.2927521e-07 </wgt>
<wgt id='morphing_basis_vector_3'> +2.0973498e-07 </wgt>
<wgt id='morphing_basis_vector_4'> +1.5190553e-07 </wgt>
<wgt id='morphing_basis_vector_5'> +2.4238007e-07 </wgt>
</rwgt>
</event>
<event>
 4      1 +6.9060000e-13 6.87305600e+03 7.81860800e-03 7.17292400e-02
        2 -1    0    0  501    0 +0.0000000000e+00 +0.0000000000e+00 +3.4623975556e+03 3.4623975556e+03 0.0000000000e+00 0.0000e+00 -1.0000e+00
       -2 -1    0    0    0  501 -0.0000000000e+00 -0.0000000000e+00 -3.4108515560e+03 3.4108515560e+03 0.0000000000e+00 0.0000e+00 1.0000e+00
      -13  1    1    2    0    0 +1.6612266741e+03 -1.8923651347e+03 -2.3128829887e+03 3.4190857821e+03 0.0000000000e+00 0.0000e+00 1.0000e+00
       13  1    1    2    0    0 -1.6612266741e+03 +1.8923651347e+03 +2.3644289884e+03 3.4541633295e+03 0.0000000000e+00 0.0000e+00 -1.0000e+00
<mgrwt>
<rscale>  0 0.68730558E+04</rscale>
<asrwt>0</asrwt>
<pdfrwt beam="1">  1        2 0.53267655E+00 0.68730558E+04</pdfrwt>
<pdfrwt beam="2">  1       -2 0.52474639E+00 0.68730558E+04</pdfrwt>
<totfact> 0.44485171E-04</totfact>
</mgrwt>
<rwgt>
<wgt id='morphing_basis_vector_1'> +2.0831988e-07 </wgt>
<wgt id='morphing_basis_vector_2'> +1.4241412e-07 </wgt>
<wgt id='morphing_basis_vector_3'> +2.3029381e-07 </wgt>
<wgt id='morphing_basis_vector_4'> +1.6600196e-07 </wgt>
<wgt id='morphing_basis_vector_5'> +2.6567209e-07 </wgt>
</rwgt>
</event>
<event>
 4      1 +6.9060000e-13 6.83192000e+03 7.81860800e-03 7.17680100e-02
        2 -1    0    0  501    0 +0.0000000000e+00 +0.0000000000e+00 +4.2221978518e+03 4.2221978518e+03 0.0000000000e+00 0.0000e+00 1.0000e+00
       -2 -1    0    0    0  501 -0.0000000000e+00 -0.0000000000e+00 -2.7636753705e+03 2.7636753705e+03 0.0000000000e+00 0.0000e+00 -1.0000e+00
      -13  1    1    2    0    0 +1.8675158561e+03 -2.8362514289e+03 +3.5099737060e+02 3.4139620377e+03 0.0000000000e+00 0.0000e+00 -1.0000e+00
       13  1    1    2    0    0 -1.8675158561e+03 +2.8362514289e+03 +1.1075251107e+03 3.5719111847e+03 0.0000000000e+00 0.0000e+00 1.0000e+00
<mgrwt>
<rscale>  0 0.68319204E+04</rscale>
<asrwt>0</asrwt>
<pdfrwt beam="1">  1        2 0.64956890E+00 0.68319204E+04</pdfrwt>
<pdfrwt beam="2">  1       -2 0.42518083E+00 0.68319204E+04</pdfrwt>
<totfact> 0.56042302E-04</totfact>
</mgrwt>
<rwgt>
<wgt id='morphing_basis_vector_1'> +2.0810431e-07 </wgt>
<wgt id='morphing_basis_vector_2'> +1.5288345e-07 </wgt>
<wgt id='morphing_basis_vector_3'> +2.3255957e-07 </wgt>
<wgt id='morphing_basis_vector_4'> +1.5194274e-07 </wgt>
<wgt id='morphing_basis_vector_5'> +2.5850605e-07 </wgt>
</rwgt>
</event>
<event>
 4      1 +6.9060000e-13 6.86023500e+03 7.81860800e-03 7.17412900e-02
        2 -1    0    0  501    0 +0.0000000000e+00 +0.0000000000e+00 +3.4589361848e+03 3.4589361848e+03 0.0000000000e+00 0.0000e+00 1.0000e+00
       -2 -1    0    0    0  501 -0.0000000000e+00 -0.0000000000e+00 -3.4015386674e+03 3.4015386674e+03 0.0000000000e+00 0.0000e+00 -1.0000e+00
      -13  1    1    2    0    0 +2.8695352490e+03 -2.1764465047e+02 +1.8953394137e+03 3.4458544995e+03 0.0000000000e+00 0.0000e+00 1.0000e+00
       13  1    1    2    0    0 -2.8695352490e+03 +2.1764465047e+02 -1.8379418963e+03 3.4146203527e+03 0.0000000000e+00 0.0000e+00 -1.0000e+00
<mgrwt>
<rscale>  0 0.68602347E+04</rscale>
<asrwt>0</asrwt>
<pdfrwt beam="1">  1        2 0.53214403E+00 0.68602347E+04</pdfrwt>
<pdfrwt beam="2">  1       -2 0.52331364E+00 0.68602347E+04</pdfrwt>
<totfact> 0.45884593E-04</totfact>
</mgrwt>
<rwgt>
<wgt id='morphing_basis_vector_1'> +2.4925152e-07 </wgt>
<wgt id='morphing_basis_vector_2'> +2.6600506e-07 </wgt>
<wgt id='morphing_basis_vector_3'> +2.9816973e-07 </wgt>
<wgt id='morphing_basis_vector_4'> +7.3704066e-08 </wgt>
<wgt id='morphing_basis_vector_5'> +2.5601900e-07 </wgt>
</rwgt>
</event>
<event>
 4      1 +6.9060000e-13 7.23607100e+03 7.81860800e-03 7.13985400e-02
        2 -1    0    0  501    0 +0.0000000000e+00 +0.0000000000e+00 +4.5080302787e+03 4.5080302787e+03 0.0000000000e+00 0.0000e+00 -1.0000e+00
       -2 -1    0    0    0  501 -0.0000000000e+00 -0.0000000000e+00 -2.9037471819e+03 2.9037471819e+03 0.0000000000e+00 0.0000e+00 1.0000e+00
      -13  1    1    2    0    0 +1.1882101370e+03 -3.9984256882e+02 -2.6741550605e+03 2.9534425164e+03 0.0000000000e+00 0.0000e+00 1.0000e+00
       13  1    1    2    0    0 -1.1882101370e+03 +3.9984256882e+02 +4.2784381573e+03 4.4583349442e+03 0.0000000000e+00 0.0000e+00 -1.0000e+00
<mgrwt>
<rscale>  0 0.72360708E+04</rscale>
<asrwt>0</asrwt>
<pdfrwt beam="1">  1        2 0.69354312E+00 0.72360708E+04</pdfrwt>
<pdfrwt beam="2">  1       -2 0.44673034E+00 0.72360708E+04</pdfrwt>
<totfact> 0.20369131E-04</totfact>
</mgrwt>
<rwgt>
<wgt id='morphing_basis_vector_1'> +2.5548993e-07 </wgt>
<wgt id='morphing_basis_vector_2'> +1.7387482e-07 </wgt>
<wgt id='morphing_basis_vector_3'> +2.8233470e-07 </wgt>
<wgt id='morphing_basis_vector_4'> +2.0479981e-07 </wgt>
<wgt id='morphing_basis_vector_5'> +3.2657874e-07 </wgt>
</rwgt>
</event>
<event>
 4      1 +6.9060000e-13 7.28760800e+03 7.81860800e-03 7.13531800e-02
        2 -1    0    0  501    0 +0.0000000000e+00 +0.0000000000e+00 +5.1659394432e+03 5.1659394432e+03 0.0000000000e+00 0.0000e+00 -1.0000e+00
       -2 -1    0    0    0  501 -0.0000000000e+00 -0.0000000000e+00 -2.5701632834e+03 2.5701632834e+03 0.0000000000e+00 0.0000e+00 1.0000e+00
      -13  1    1    2    0    0 -2.3833248903e+03 +8.9663109368e+02 -1.4688749216e+03 2.9396901854e+03 0.0000000000e+00 0.0000e+00 1.0000e+00
       13  1    1    2    0    0 +2.3833248903e+03 -8.9663109368e+02 +4.0646510815e+03 4.7964125412e+03 0.0000000000e+00 0.0000e+00 -1.0000e+00
<mgrwt>
<rscale>  0 0.72876081E+04</rscale>
<asrwt>0</asrwt>
<pdfrwt beam="1">  1        2 0.79475991E+00 0.72876081E+04</pdfrwt>
<pdfrwt beam="2">  1       -2 0.39540974E+00 0.72876081E+04</pdfrwt>
<totfact> 0.68937579E-05</totfact>
</mgrwt>
<rwgt>
<wgt id='morphing_basis_vector_1'> +2.6311931e-07 </wgt>
<wgt id='morphing_basis_vector_2'> +1.7971236e-07 </wgt>
<wgt id='morphing_basis_vector_3'> +2.9092984e-07 </wgt>
<wgt id='morphing_basis_vector_4'> +2.1009604e-07 </wgt>
<wgt id='morphing_basis_vector_5'> +3.3594544e-07 </wgt>
</rwgt>
</event>
<event>
 4      1 +6.9060000e-13 6.87556400e+03 7.81860800e-03 7.17268800e-02
        2 -1    0    0  501    0 +0.0000000000e+00 +0.0000000000e+00 +3.3166748949e+03 3.3166748949e+03 0.0000000000e+00 0.0000e+00 -1.0000e+00
       -2 -1    0    0    0  501 -0.0000000000e+00 -0.0000000000e+00 -3.5633115091e+03 3.5633115091e+03 0.0000000000e+00 0.0000e+00 1.0000e+00
      -13  1    1    2    0    0 +7.6688817789e+02 +3.2708127236e+03 +6.0654267190e+02 3.4138288421e+03 0.0000000000e+00 0.0000e+00 1.0000e+00
       13  1    1    2    0    0 -7.6688817789e+02 -3.2708127236e+03 -8.5317928614e+02 3.4661575620e+03 0.0000000000e+00 0.0000e+00 -1.0000e+00
<mgrwt>
<rscale>  0 0.68755642E+04</rscale>
<asrwt>0</asrwt>
<pdfrwt beam="1">  1        2 0.51025768E+00 0.68755642E+04</pdfrwt>
<pdfrwt beam="2">  1       -2 0.54820177E+00 0.68755642E+04</pdfrwt>
<totfact> 0.38178454E-04</totfact>
</mgrwt>
<rwgt>
<wgt id='morphing_basis_vector_1'> +2.2430947e-07 </wgt>
<wgt id='morphing_basis_vector_2'> +1.8865013e-07 </wgt>
<wgt id='morphing_basis_vector_3'> +2.5632798e-07 </wgt>
<wgt id='morphing_basis_vector_4'> +1.3261866e-07 </wgt>
<wgt id='morphing_basis_vector_5'> +2.6322731e-07 </wgt>
</rwgt>
</event>
<event>
 4      1 +6.9060000e-13 6.72999200e+03 7.81860800e-03 7.18652700e-02
        2 -1    0    0  501    0 +0.0000000000e+00 +0.0000000000e+00 +4.3477525877e+03 4.3477525877e+03 0.0000000000e+00 0.0000e+00 -1.0000e+00
       -2 -1    0    0    0  501 -0.0000000000e+00 -0.0000000000e+00 -2.6043797669e+03 2.6043797669e+03 0.0000000000e+00 0.0000e+00 1.0000e+00
      -13  1    1    2    0    0 -2.5716699974e+03 -1.3694665675e+03 -8.6741279006e+02 3.0399556253e+03 0.0000000000e+00 0.0000e+00 1.0000e+00
       13  1    1    2    0    0 +2.5716699974e+03 +1.3694665675e+03 +2.6107856109e+03 3.9121767293e+03 0.0000000000e+00 0.0000e+00 -1.0000e+00
<mgrwt>
<rscale>  0 0.67299922E+04</rscale>
<asrwt>0</asrwt>
<pdfrwt beam="1">  1        2 0.66888502E+00 0.67299922E+04</pdfrwt>
<pdfrwt beam="2">  1       -2 0.40067381E+00 0.67299922E+04</pdfrwt>
<totfact> 0.62294641E-04</totfact>
</mgrwt>
<rwgt>
<wgt id='morphing_basis_vector_1'> +1.9211325e-07 </wgt>
<wgt id='morphing_basis_vector_2'> +1.3261814e-07 </wgt>
<wgt id='morphing_basis_vector_3'> +2.1265406e-07 </wgt>
<wgt id='morphing_basis_vector_4'> +1.5135142e-07 </wgt>
<wgt id='morphing_basis_vector_5'> +2.4409415e-07 </wgt>
</rwgt>
</event>
<event>
 4      1 +6.9060000e-13 6.80390000e+03 7.81860800e-03 7.17945700e-02
        2 -1    0    0  501    0 +0.0000000000e+00 +0.0000000000e+00 +4.5675871258e+03 4.5675871258e+03 0.0000000000e+00 0.0000e+00 1.0000e+00
       -2 -1    0    0    0  501 -0.0000000000e+00 -0.0000000000e+00 -2.5337804066e+03 2.5337804066e+03 0.0000000000e+00 0.0000e+00 -1.0000e+00
      -13  1    1    2    0    0 -3.0692934426e+03 -1.4529262245e+03 +1.2300521695e+03 3.6117288367e+03 0.0000000000e+00 0.0000e+00 1.0000e+00
       13  1    1    2    0    0 +3.0692934426e+03 +1.4529262245e+03 +8.0375454968e+02 3.4896386957e+03 0.0000000000e+00 0.0000e+00 -1.0000e+00
<mgrwt>
<rscale>  0 0.68038997E+04</rscale>
<asrwt>0</asrwt>
<pdfrwt beam="1">  1        2 0.70270571E+00 0.68038997E+04</pdfrwt>
<pdfrwt beam="2">  1       -2 0.38981237E+00 0.68038997E+04</pdfrwt>
<totfact> 0.43542125E-04</totfact>
</mgrwt>
<rwgt>
<wgt id='morphing_basis_vector_1'> +2.0889295e-07 </wgt>
<wgt id='morphing_basis_vector_2'> +1.6264648e-07 </wgt>
<wgt id='morphing_basis_vector_3'> +2.3560728e-07 </wgt>
<wgt id='morphing_basis_vector_4'> +1.4051062e-07 </wgt>
<wgt id='morphing_basis_vector_5'> +2.5352987e-07 </wgt>
</rwgt>
</event>
<event>
 4      1 +6.9060000e-13 6.71221800e+03 7.81860800e-03 7.18824100e-02
        2 -1    0    0  501    0 +0.0000000000e+00 +0.0000000000e+00 +2.1713752650e+03 2.1713752650e+03 0.0000000000e+00 0.0000e+00 -1.0000e+00
       -2 -1    0    0    0  501 -0.0000000000e+00 -0.0000000000e+00 -5.1872509650e+03 5.1872509650e+03 0.0000000000e+00 0.0000e+00 1.0000e+00
      -13  1    1    2    0    0 -1.5642269346e+03 -2.3993354216e+03 -3.4256388324e+03 4.4652679403e+03 0.0000000000e+00 0.0000e+00 1.0000e+00
       13  1    1    2    0    0 +1.5642269346e+03 +2.3993354216e+03 +4.0976313247e+02 2.8933582897e+03 0.0000000000e+00 0.0000e+00 -1.0000e+00
<mgrwt>
<rscale>  0 0.67122182E+04</rscale>
<asrwt>0</asrwt>
<pdfrwt beam="1">  1        2 0.33405774E+00 0.67122182E+04</pdfrwt>
<pdfrwt beam="2">  1       -2 0.79803859E+00 0.67122182E+04</pdfrwt>
<totfact> 0.41807757E-04</totfact>
</mgrwt>
<rwgt>
<wgt id='morphing_basis_vector_1'> +1.9000570e-07 </wgt>
<wgt id='morphing_basis_vector_2'> +1.3096039e-07 </wgt>
<wgt id='morphing_basis_vector_3'> +2.1026972e-07 </wgt>
<wgt id='morphing_basis_vector_4'> +1.4994845e-07 </wgt>
<wgt id='morphing_basis_vector_5'> +2.4153745e-07 </wgt>
</rwgt>
</event>
<event>
 4      1 +6.9060000e-13 7.18156700e+03 7.81860800e-03 7.14469300e-02
        2 -1    0    0  501    0 +0.0000000000e+00 +0.0000000000e+00 +4.0871027933e+03 4.0871027933e+03 0.0000000000e+00 0.0000e+00 -1.0000e+00
       -2 -1    0    0    0  501 -0.0000000000e+00 -0.0000000000e+00 -3.1547346420e+03 3.1547346420e+03 0.0000000000e+00 0.0000e+00 1.0000e+00
      -13  1    1    2    0    0 -2.3261822271e+03 -2.5763185209e+03 -4.6087024870e+02 3.5015628312e+03 0.0000000000e+00 0.0000e+00 1.0000e+00
       13  1    1    2    0    0 +2.3261822271e+03 +2.5763185209e+03 +1.3932384000e+03 3.7402746041e+03 0.0000000000e+00 0.0000e+00 -1.0000e+00
<mgrwt>
<rscale>  0 0.71815666E+04</rscale>
<asrwt>0</asrwt>
<pdfrwt beam="1">  1        2 0.62878505E+00 0.71815666E+04</pdfrwt>
<pdfrwt beam="2">  1       -2 0.48534379E+00 0.71815666E+04</pdfrwt>
<totfact> 0.27208040E-04</totfact>
</mgrwt>
<rwgt>
<wgt id='morphing_basis_vector_1'> +2.5130402e-07 </wgt>
<wgt id='morphing_basis_vector_2'> +1.7871356e-07 </wgt>
<wgt id='morphing_basis_vector_3'> +2.7952171e-07 </wgt>
<wgt id='morphing_basis_vector_4'> +1.9136824e-07 </wgt>
<wgt id='morphing_basis_vector_5'> +3.1621797e-07 </wgt>
</rwgt>
</event>
<event>
 4      1 +6.9060000e-13 7.75182100e+03 7.81860800e-03 7.09608300e-02
        2 -1    0    0  501    0 +0.0000000000e+00 +0.0000000000e+00 +3.1249121853e+03 3.1249121853e+03 0.0000000000e+00 0.0000e+00 -1.0000e+00
       -2 -1    0    0    0  501 -0.0000000000e+00 -0.0000000000e+00 -4.8073937647e+03 4.8073937647e+03 0.0000000000e+00 0.0000e+00 1.0000e+00
      -13  1    1    2    0    0 +2.6204028693e+03 -2.0008938231e+02 -3.7564543323e+03 4.5844842795e+03 0.0000000000e+00 0.0000e+00 1.0000e+00
       13  1    1    2    0    0 -2.6204028693e+03 +2.0008938231e+02 +2.0739727529e+03 3.3478216705e+03 0.0000000000e+00 0.0000e+00 -1.0000e+00
<mgrwt>
<rscale>  0 0.77518213E+04</rscale>
<asrwt>0</asrwt>
<pdfrwt beam="1">  1        2 0.48075573E+00 0.77518213E+04</pdfrwt>
<pdfrwt beam="2">  1       -2 0.73959903E+00 0.77518213E+04</pdfrwt>
<totfact> 0.80649804E-05</totfact>
</mgrwt>
<rwgt>
<wgt id='morphing_basis_vector_1'> +3.3666404e-07 </wgt>
<wgt id='morphing_basis_vector_2'> +2.2986405e-07 </wgt>
<wgt id='morphing_basis_vector_3'> +3.7234278e-07 </wgt>
<wgt id='morphing_basis_vector_4'> +2.6917838e-07 </wgt>
<wgt id='morphing_basis_vector_5'> +4.3023392e-07 </wgt>
</rwgt>
</event>
<event>
 4      1 +6.9060000e-13 6.74374400e+03 7.81860800e-03 7.18520500e-02
        2 -1    0    0  501    0 +0.0000000000e+00 +0.0000000000e+00 +3.0867387107e+03 3.0867387107e+03 0.0000000000e+00 0.0000e+00 1.0000e+00
       -2 -1    0    0    0  501 -0.0000000000e+00 -0.0000000000e+00 -3.6833442196e+03 3.6833442196e+03 0.0000000000e+00 0.0000e+00 -1.0000e+00
      -13  1    1    2    0    0 +1.3296452077e+03 +3.0633033317e+03 -7.6674874753e+02 3.4263227114e+03 0.0000000000e+00 0.0000e+00 -1.0000e+00
       13  1    1    2    0    0 -1.3296452077e+03 -3.0633033317e+03 +1.7014323867e+02 3.3437602190e+03 0.0000000000e+00 0.0000e+00 1.0000e+00
<mgrwt>
<rscale>  0 0.67437441E+04</rscale>
<asrwt>0</asrwt>
<pdfrwt beam="1">  1        2 0.47488288E+00 0.67437441E+04</pdfrwt>
<pdfrwt beam="2">  1       -2 0.56666834E+00 0.67437441E+04</pdfrwt>
<totfact> 0.40709272E-04</totfact>
</mgrwt>
<rwgt>
<wgt id='morphing_basis_vector_1'> +1.9706957e-07 </wgt>
<wgt id='morphing_basis_vector_2'> +1.4363529e-07 </wgt>
<wgt id='morphing_basis_vector_3'> +2.1993920e-07 </wgt>
<wgt id='morphing_basis_vector_4'> +1.4534170e-07 </wgt>
<wgt id='morphing_basis_vector_5'> +2.4548787e-07 </wgt>
</rwgt>
</event>
<event>
 4      1 +6.9060000e-13 6.76460900e+03 7.81860800e-03 7.18320400e-02
        2 -1    0    0  501    0 +0.0000000000e+00 +0.0000000000e+00 +2.7410059820e+03 2.7410059820e+03 0.0000000000e+00 0.0000e+00 -1.0000e+00
       -2 -1    0    0    0  501 -0.0000000000e+00 -0.0000000000e+00 -4.1736443145e+03 4.1736443145e+03 0.0000000000e+00 0.0000e+00 1.0000e+00
      -13  1    1    2    0    0 +1.1274668590e+03 -2.7383681185e+03 -2.3866201649e+03 3.8033928646e+03 0.0000000000e+00 0.0000e+00 1.0000e+00
       13  1    1    2    0    0 -1.1274668590e+03 +2.7383681185e+03 +9.5398183250e+02 3.1112574319e+03 0.0000000000e+00 0.0000e+00 -1.0000e+00
<mgrwt>
<rscale>  0 0.67646091E+04</rscale>
<asrwt>0</asrwt>
<pdfrwt beam="1">  1        2 0.42169323E+00 0.67646091E+04</pdfrwt>
<pdfrwt beam="2">  1       -2 0.64209912E+00 0.67646091E+04</pdfrwt>
<totfact> 0.10502553E-04</totfact>
</mgrwt>
<rwgt>
<wgt id='morphing_basis_vector_1'> +1.9617118e-07 </wgt>
<wgt id='morphing_basis_vector_2'> +1.3560623e-07 </wgt>
<wgt id='morphing_basis_vector_3'> +2.1719699e-07 </wgt>
<wgt id='morphing_basis_vector_4'> +1.5431932e-07 </wgt>
<wgt id='morphing_basis_vector_5'> +2.4914928e-07 </wgt>
</rwgt>
</event>
<event>
 4      1 +6.9060000e-13 7.05834500e+03 7.81860800e-03 7.15579400e-02
        2 -1    0    0  501    0 +0.0000000000e+00 +0.0000000000e+00 +2.7626510317e+03 2.7626510317e+03 0.0000000000e+00 0.0000e+00 -1.0000e+00
       -2 -1    0    0    0  501 -0.0000000000e+00 -0.0000000000e+00 -4.5083716037e+03 4.5083716037e+03 0.0000000000e+00 0.0000e+00 1.0000e+00
      -13  1    1    2    0    0 -6.6549254268e+02 -1.6935473072e+03 -3.9878923031e+03 4.3834082433e+03 0.0000000000e+00 0.0000e+00 1.0000e+00
       13  1    1    2    0    0 +6.6549254268e+02 +1.6935473072e+03 +2.2421717311e+03 2.8876143921e+03 0.0000000000e+00 0.0000e+00 -1.0000e+00
<mgrwt>
<rscale>  0 0.70583447E+04</rscale>
<asrwt>0</asrwt>
<pdfrwt beam="1">  1        2 0.42502324E+00 0.70583447E+04</pdfrwt>
<pdfrwt beam="2">  1       -2 0.69359563E+00 0.70583447E+04</pdfrwt>
<totfact> 0.41981554E-05</totfact>
</mgrwt>
<rwgt>
<wgt id='morphing_basis_vector_1'> +2.3138275e-07 </wgt>
<wgt id='morphing_basis_vector_2'> +1.5755803e-07 </wgt>
<wgt id='morphing_basis_vector_3'> +2.5568107e-07 </wgt>
<wgt id='morphing_basis_vector_4'> +1.8528081e-07 </wgt>
<wgt id='morphing_basis_vector_5'> +2.9560298e-07 </wgt>
</rwgt>
</event>
<event>
 4      1 +6.9060000e-13 7.06637700e+03 7.81860800e-03 7.15506300e-02
        2 -1    0    0  501    0 +0.0000000000e+00 +0.0000000000e+00 +3.4391120912e+03 3.4391120912e+03 0.0000000000e+00 0.0000e+00 -1.0000e+00
       -2 -1    0    0    0  501 -0.0000000000e+00 -0.0000000000e+00 -3.6298383941e+03 3.6298383941e+03 0.0000000000e+00 0.0000e+00 1.0000e+00
      -13  1    1    2    0    0 -1.6445824060e+03 -5.2458283117e+02 -3.1792739806e+03 3.6176817826e+03 0.0000000000e+00 0.0000e+00 1.0000e+00
       13  1    1    2    0    0 +1.6445824060e+03 +5.2458283117e+02 +2.9885476777e+03 3.4512687028e+03 0.0000000000e+00 0.0000e+00 -1.0000e+00
<mgrwt>
<rscale>  0 0.70663770E+04</rscale>
<asrwt>0</asrwt>
<pdfrwt beam="1">  1        2 0.52909417E+00 0.70663770E+04</pdfrwt>
<pdfrwt beam="2">  1       -2 0.55843667E+00 0.70663770E+04</pdfrwt>
<totfact> 0.26045669E-04</totfact>
</mgrwt>
<rwgt>
<wgt id='morphing_basis_vector_1'> +2.3242361e-07 </wgt>
<wgt id='morphing_basis_vector_2'> +1.5823951e-07 </wgt>
<wgt id='morphing_basis_vector_3'> +2.5682641e-07 </wgt>
<wgt id='morphing_basis_vector_4'> +1.8615363e-07 </wgt>
<wgt id='morphing_basis_vector_5'> +2.9695525e-07 </wgt>
</rwgt>
</event>
<event>
 4      1 +6.9060000e-13 6.69326900e+03 7.81860800e-03 7.19007400e-02
        2 -1    0    0  501    0 +0.0000000000e+00 +0.0000000000e+00 +4.7439735419e+03 4.7439735419e+03 0.0000000000e+00 0.0000e+00 -1.0000e+00
       -2 -1    0    0    0  501 -0.0000000000e+00 -0.0000000000e+00 -2.3608824547e+03 2.3608824547e+03 0.0000000000e+00 0.0000e+00 1.0000e+00
      -13  1    1    2    0    0 +3.0151391527e+03 -5.2149046611e+02 -2.4713822262e+02 3.0698686808e+03 0.0000000000e+00 0.0000e+00 1.0000e+00
       13  1    1    2    0    0 -3.0151391527e+03 +5.2149046611e+02 +2.6302293098e+03 4.0349873158e+03 0.0000000000e+00 0.0000e+00 -1.0000e+00
<mgrwt>
<rscale>  0 0.66932694E+04</rscale>
<asrwt>0</asrwt>
<pdfrwt beam="1">  1        2 0.72984208E+00 0.66932694E+04</pdfrwt>
<pdfrwt beam="2">  1       -2 0.36321269E+00 0.66932694E+04</pdfrwt>
<totfact> 0.41443842E-04</totfact>
</mgrwt>
<rwgt>
<wgt id='morphing_basis_vector_1'> +1.8846897e-07 </wgt>
<wgt id='morphing_basis_vector_2'> +1.3123751e-07 </wgt>
<wgt id='morphing_basis_vector_3'> +2.0888123e-07 </wgt>
<wgt id='morphing_basis_vector_4'> +1.4698257e-07 </wgt>
<wgt id='morphing_basis_vector_5'> +2.3870919e-07 </wgt>
</rwgt>
</event>
<event>
 4      1 +6.9060000e-13 7.59171200e+03 7.81860800e-03 7.10929600e-02
        2 -1    0    0  501    0 +0.0000000000e+00 +0.0000000000e+00 +2.9815743070e+03 2.9815743070e+03 0.0000000000e+00 0.0000e+00 1.0000e+00
       -2 -1    0    0    0  501 -0.0000000000e+00 -0.0000000000e+00 -4.8325219572e+03 4.8325219572e+03 0.0000000000e+00 0.0000e+00 -1.0000e+00
      -13  1    1    2    0    0 -3.1120291111e+03 -1.2600975288e+03 -2.7482097417e+03 4.3388048763e+03 0.0000000000e+00 0.0000e+00 -1.0000e+00
       13  1    1    2    0    0 +3.1120291111e+03 +1.2600975288e+03 +8.9726209142e+02 3.4752913879e+03 0.0000000000e+00 0.0000e+00 1.0000e+00
<mgrwt>
<rscale>  0 0.75917121E+04</rscale>
<asrwt>0</asrwt>
<pdfrwt beam="1">  1        2 0.45870374E+00 0.75917121E+04</pdfrwt>
<pdfrwt beam="2">  1       -2 0.74346491E+00 0.75917121E+04</pdfrwt>
<totfact> 0.10690427E-04</totfact>
</mgrwt>
<rwgt>
<wgt id='morphing_basis_vector_1'> +3.1109177e-07 </wgt>
<wgt id='morphing_basis_vector_2'> +2.1544163e-07 </wgt>
<wgt id='morphing_basis_vector_3'> +3.4474896e-07 </wgt>
<wgt id='morphing_basis_vector_4'> +2.4468142e-07 </wgt>
<wgt id='morphing_basis_vector_5'> +3.9548526e-07 </wgt>
</rwgt>
</event>
<event>
 4      1 +6.9060000e-13 7.09903800e+03 7.81860800e-03 7.15210300e-02
        2 -1    0    0  501    0 +0.0000000000e+00 +0.0000000000e+00 +3.7064968136e+03 3.7064968136e+03 0.0000000000e+00 0.0000e+00 1.0000e+00
       -2 -1    0    0    0  501 -0.0000000000e+00 -0.0000000000e+00 -3.3991892585e+03 3.3991892585e+03 0.0000000000e+00 0.0000e+00 -1.0000e+00
      -13  1    1    2    0    0 +3.5292086623e+03 -3.7431541674e+02 +9.3112899559e+01 3.5502247570e+03 0.0000000000e+00 0.0000e+00 -1.0000e+00
       13  1    1    2    0    0 -3.5292086623e+03 +3.7431541674e+02 +2.1419465554e+02 3.5554613152e+03 0.0000000000e+00 0.0000e+00 1.0000e+00
<mgrwt>
<rscale>  0 0.70990377E+04</rscale>
<asrwt>0</asrwt>
<pdfrwt beam="1">  1        2 0.57023028E+00 0.70990377E+04</pdfrwt>
<pdfrwt beam="2">  1       -2 0.52295219E+00 0.70990377E+04</pdfrwt>
<totfact> 0.29581193E-04</totfact>
</mgrwt>
<rwgt>
<wgt id='morphing_basis_vector_1'> +2.4489551e-07 </wgt>
<wgt id='morphing_basis_vector_2'> +1.8510363e-07 </wgt>
<wgt id='morphing_basis_vector_3'> +2.7497142e-07 </wgt>
<wgt id='morphing_basis_vector_4'> +1.7214115e-07 </wgt>
<wgt id='morphing_basis_vector_5'> +3.0101857e-07 </wgt>
</rwgt>
</event>
<event>
 4      1 +6.9060000e-13 7.50548200e+03 7.81860800e-03 7.11654900e-02
        2 -1    0    0  501    0 +0.0000000000e+00 +0.0000000000e+00 +2.3989071465e+03 2.3989071465e+03 0.0000000000e+00 0.0000e+00 1.0000e+00
       -2 -1    0    0    0  501 -0.0000000000e+00 -0.0000000000e+00 -5.8706165919e+03 5.8706165919e+03 0.0000000000e+00 0.0000e+00 -1.0000e+00
      -13  1    1    2    0    0 +1.7624370356e+03 -1.2373441451e+03 -5.1221331181e+03 5.5563884419e+03 0.0000000000e+00 0.0000e+00 -1.0000e+00
       13  1    1    2    0    0 -1.7624370356e+03 +1.2373441451e+03 +1.6504236727e+03 2.7131352965e+03 0.0000000000e+00 0.0000e+00 1.0000e+00
<mgrwt>
<rscale>  0 0.75054818E+04</rscale>
<asrwt>0</asrwt>
<pdfrwt beam="1">  1        2 0.36906264E+00 0.75054818E+04</pdfrwt>
<pdfrwt beam="2">  1       -2 0.90317178E+00 0.75054818E+04</pdfrwt>
<totfact> 0.52292909E-05</totfact>
</mgrwt>
<rwgt>
<wgt id='morphing_basis_vector_1'> +2.9575909e-07 </wgt>
<wgt id='morphing_basis_vector_2'> +2.0154905e-07 </wgt>
<wgt id='morphing_basis_vector_3'> +3.2696021e-07 </wgt>
<wgt id='morphing_basis_vector_4'> +2.3686526e-07 </wgt>
<wgt id='morphing_basis_vector_5'> +3.7806044e-07 </wgt>
</rwgt>
</event>
<event>
 4      1 +6.9060000e-13 7.05252900e+03 7.81860800e-03 7.15632300e-02
        2 -1    0    0  501    0 +0.0000000000e+00 +0.0000000000e+00 +3.7435932326e+03 3.7435932326e+03 0.0000000000e+00 0.0000e+00 1.0000e+00
       -2 -1    0    0    0  501 -0.0000000000e+00 -0.0000000000e+00 -3.3215524759e+03 3.3215524759e+03 0.0000000000e+00 0.0000e+00 -1.0000e+00
      -13  1    1    2    0    0 +2.0891911176e+03 -2.1402784050e+03 -1.6602157995e+03 3.4207934281e+03 0.0000000000e+00 0.0000e+00 -1.0000e+00
       13  1    1    2    0    0 -2.0891911176e+03 +2.1402784050e+03 +2.0822565562e+03 3.6443522803e+03 0.0000000000e+00 0.0000e+00 1.0000e+00
<mgrwt>
<rscale>  0 0.70525290E+04</rscale>
<asrwt>0</asrwt>
<pdfrwt beam="1">  1        2 0.57593742E+00 0.70525290E+04</pdfrwt>
<pdfrwt beam="2">  1       -2 0.51100808E+00 0.70525290E+04</pdfrwt>
<totfact> 0.34051269E-04</totfact>
</mgrwt>
<rwgt>
<wgt id='morphing_basis_vector_1'> +2.3144825e-07 </wgt>
<wgt id='morphing_basis_vector_2'> +1.5946309e-07 </wgt>
<wgt id='morphing_basis_vector_3'> +2.5619328e-07 </wgt>
<wgt id='morphing_basis_vector_4'> +1.8289890e-07 </wgt>
<wgt id='morphing_basis_vector_5'> +2.9447912e-07 </wgt>
</rwgt>
</event>
<event>
 4      1 +6.9060000e-13 6.81193100e+03 7.81860800e-03 7.17869400e-02
        2 -1    0    0  501    0 +0.0000000000e+00 +0.0000000000e+00 +4.5452495395e+03 4.5452495395e+03 0.0000000000e+00 0.0000e+00 -1.0000e+00
       -2 -1    0    0    0  501 -0.0000000000e+00 -0.0000000000e+00 -2.5522472303e+03 2.5522472303e+03 0.0000000000e+00 0.0000e+00 1.0000e+00
      -13  1    1    2    0    0 +2.9316142133e+03 +4.7571343060e+02 -7.4070885192e+02 3.0609336430e+03 0.0000000000e+00 0.0000e+00 1.0000e+00
       13  1    1    2    0    0 -2.9316142133e+03 -4.7571343060e+02 +2.7337111612e+03 4.0365631268e+03 0.0000000000e+00 0.0000e+00 -1.0000e+00
<mgrwt>
<rscale>  0 0.68119309E+04</rscale>
<asrwt>0</asrwt>
<pdfrwt beam="1">  1        2 0.69926916E+00 0.68119309E+04</pdfrwt>
<pdfrwt beam="2">  1       -2 0.39265342E+00 0.68119309E+04</pdfrwt>
<totfact> 0.44048150E-04</totfact>
</mgrwt>
<rwgt>
<wgt id='morphing_basis_vector_1'> +2.0167621e-07 </wgt>
<wgt id='morphing_basis_vector_2'> +1.3934388e-07 </wgt>
<wgt id='morphing_basis_vector_3'> +2.2328561e-07 </wgt>
<wgt id='morphing_basis_vector_4'> +1.5875913e-07 </wgt>
<wgt id='morphing_basis_vector_5'> +2.5621252e-07 </wgt>
</rwgt>
</event>
<event>
 4      1 +6.9060000e-13 7.64447300e+03 7.81860800e-03 7.10490600e-02
        2 -1    0    0  501    0 +0.0000000000e+00 +0.0000000000e+00 +2.6114231853e+03 2.6114231853e+03 0.0000000000e+00 0.0000e+00 1.0000e+00
       -2 -1    0    0    0  501 -0.0000000000e+00 -0.0000000000e+00 -5.5944558515e+03 5.5944558515e+03 0.0000000000e+00 0.0000e+00 -1.0000e+00
      -13  1    1    2    0    0 -3.6851133443e+03 -1.0133616515e+03 -1.4375283865e+03 4.0833136127e+03 0.0000000000e+00 0.0000e+00 -1.0000e+00
       13  1    1    2    0    0 +3.6851133443e+03 +1.0133616515e+03 -1.5455042797e+03 4.1225654241e+03 0.0000000000e+00 0.0000e+00 1.0000e+00
<mgrwt>
<rscale>  0 0.76444730E+04</rscale>
<asrwt>0</asrwt>
<pdfrwt beam="1">  1        2 0.40175742E+00 0.76444730E+04</pdfrwt>
<pdfrwt beam="2">  1       -2 0.86068550E+00 0.76444730E+04</pdfrwt>
<totfact> 0.10667152E-04</totfact>
</mgrwt>
<rwgt>
<wgt id='morphing_basis_vector_1'> +3.3040631e-07 </wgt>
<wgt id='morphing_basis_vector_2'> +2.5255512e-07 </wgt>
<wgt id='morphing_basis_vector_3'> +3.7181445e-07 </wgt>
<wgt id='morphing_basis_vector_4'> +2.2883545e-07 </wgt>
<wgt id='morphing_basis_vector_5'> +4.0469260e-07 </wgt>
</rwgt>
</event>
<event>
 4      1 +6.9060000e-13 6.75481600e+03 7.81860800e-03 7.18414200e-02
        2 -1    0    0  501    0 +0.0000000000e+00 +0.0000000000e+00 +2.7615538485e+03 2.7615538485e+03 0.0000000000e+00 0.0000e+00 1.0000e+00
       -2 -1    0    0    0  501 -0.0000000000e+00 -0.0000000000e+00 -4.1306043478e+03 4.1306043478e+03 0.0000000000e+00 0.0000e+00 -1.0000e+00
      -13  1    1    2    0    0 -2.0040942824e+03 -2.0752830677e+03 -2.4762744776e+03 3.8019901358e+03 0.0000000000e+00 0.0000e+00 -1.0000e+00
       13  1    1    2    0    0 +2.0040942824e+03 +2.0752830677e+03 +1.1072239783e+03 3.0901680605e+03 0.0000000000e+00 0.0000e+00 1.0000e+00
<mgrwt>
<rscale>  0 0.67548165E+04</rscale>
<asrwt>0</asrwt>
<pdfrwt beam="1">  1        2 0.42485444E+00 0.67548165E+04</pdfrwt>
<pdfrwt beam="2">  1       -2 0.63547759E+00 0.67548165E+04</pdfrwt>
<totfact> 0.13035826E-04</totfact>
</mgrwt>
<rwgt>
<wgt id='morphing_basis_vector_1'> +1.9487165e-07 </wgt>
<wgt id='morphing_basis_vector_2'> +1.3433001e-07 </wgt>
<wgt id='morphing_basis_vector_3'> +2.1566686e-07 </wgt>
<wgt id='morphing_basis_vector_4'> +1.5378643e-07 </wgt>
<wgt id='morphing_basis_vector_5'> +2.4773758e-07 </wgt>
</rwgt>
</event>
<event>
 4      1 +6.9060000e-13 6.70450300e+03 7.81860800e-03 7.18898700e-02
        2 -1    0    0  501    0 +0.0000000000e+00 +0.0000000000e+00 +4.0308922930e+03 4.0308922930e+03 0.0000000000e+00 0.0000e+00 -1.0000e+00
       -2 -1    0    0    0  501 -0.0000000000e+00 -0.0000000000e+00 -2.7878665946e+03 2.7878665946e+03 0.0000000000e+00 0.0000e+00 1.0000e+00
      -13  1    1    2    0    0 -1.6540622922e+03 -2.8778671444e+03 +1.0980580344e+03 3.4962512516e+03 0.0000000000e+00 0.0000e+00 1.0000e+00
       13  1    1    2    0    0 +1.6540622922e+03 +2.8778671444e+03 +1.4496766407e+02 3.3225076360e+03 0.0000000000e+00 0.0000e+00 -1.0000e+00
<mgrwt>
<rscale>  0 0.67045030E+04</rscale>
<asrwt>0</asrwt>
<pdfrwt beam="1">  1        2 0.62013727E+00 0.67045030E+04</pdfrwt>
<pdfrwt beam="2">  1       -2 0.42890255E+00 0.67045030E+04</pdfrwt>
<totfact> 0.79151081E-04</totfact>
</mgrwt>
<rwgt>
<wgt id='morphing_basis_vector_1'> +1.9971039e-07 </wgt>
<wgt id='morphing_basis_vector_2'> +1.6139274e-07 </wgt>
<wgt id='morphing_basis_vector_3'> +2.2662036e-07 </wgt>
<wgt id='morphing_basis_vector_4'> +1.2659671e-07 </wgt>
<wgt id='morphing_basis_vector_5'> +2.3851783e-07 </wgt>
</rwgt>
</event>
<event>
 4      1 +6.9060000e-13 6.99442300e+03 7.81860800e-03 7.16164300e-02
        2 -1    0    0  501    0 +0.0000000000e+00 +0.0000000000e+00 +2.4144199856e+03 2.4144199856e+03 0.0000000000e+00 0.0000e+00 -1.0000e+00
       -2 -1    0    0    0  501 -0.0000000000e+00 -0.0000000000e+00 -5.0656007140e+03 5.0656007140e+03 0.0000000000e+00 0.0000e+00 1.0000e+00
      -13  1    1    2    0    0 +7.8727227773e+02 +2.1298050203e+03 -4.1700678029e+03 4.7481925556e+03 0.0000000000e+00 0.0000e+00 1.0000e+00
       13  1    1    2    0    0 -7.8727227773e+02 -2.1298050203e+03 +1.5188870745e+03 2.7318281441e+03 0.0000000000e+00 0.0000e+00 -1.0000e+00
<mgrwt>
<rscale>  0 0.69944228E+04</rscale>
<asrwt>0</asrwt>
<pdfrwt beam="1">  1        2 0.37144923E+00 0.69944228E+04</pdfrwt>
<pdfrwt beam="2">  1       -2 0.77932317E+00 0.69944228E+04</pdfrwt>
<totfact> 0.30788855E-04</totfact>
</mgrwt>
<rwgt>
<wgt id='morphing_basis_vector_1'> +2.2324184e-07 </wgt>
<wgt id='morphing_basis_vector_2'> +1.5226625e-07 </wgt>
<wgt id='morphing_basis_vector_3'> +2.4673223e-07 </wgt>
<wgt id='morphing_basis_vector_4'> +1.7840462e-07 </wgt>
<wgt id='morphing_basis_vector_5'> +2.8500212e-07 </wgt>
</rwgt>
</event>
<event>
 4      1 +6.9060000e-13 6.69397300e+03 7.81860800e-03 7.19000600e-02
        2 -1    0    0  501    0 +0.0000000000e+00 +0.0000000000e+00 +5.2072198400e+03 5.2072198400e+03 0.0000000000e+00 0.0000e+00 -1.0000e+00
       -2 -1    0    0    0  501 -0.0000000000e+00 -0.0000000000e+00 -2.1513049590e+03 2.1513049590e+03 0.0000000000e+00 0.0000e+00 1.0000e+00
      -13  1    1    2    0    0 +1.8843258811e+03 -4.0339198581e+02 -1.4803075233e+03 2.4299628564e+03 0.0000000000e+00 0.0000e+00 1.0000e+00
       13  1    1    2    0    0 -1.8843258811e+03 +4.0339198581e+02 +4.5362224043e+03 4.9285619425e+03 0.0000000000e+00 0.0000e+00 -1.0000e+00
<mgrwt>
<rscale>  0 0.66939728E+04</rscale>
<asrwt>0</asrwt>
<pdfrwt beam="1">  1        2 0.80111074E+00 0.66939728E+04</pdfrwt>
<pdfrwt beam="2">  1       -2 0.33097000E+00 0.66939728E+04</pdfrwt>
<totfact> 0.16332304E-04</totfact>
</mgrwt>
<rwgt>
<wgt id='morphing_basis_vector_1'> +1.8727887e-07 </wgt>
<wgt id='morphing_basis_vector_2'> +1.2756819e-07 </wgt>
<wgt id='morphing_basis_vector_3'> +2.0689097e-07 </wgt>
<wgt id='morphing_basis_vector_4'> +1.4976423e-07 </wgt>
<wgt id='morphing_basis_vector_5'> +2.3903883e-07 </wgt>
</rwgt>
</event>
<event>
 4      1 +6.9060000e-13 6.79952600e+03 7.81860800e-03 7.17987300e-02
        2 -1    0    0  501    0 +0.0000000000e+00 +0.0000000000e+00 +4.2067116840e+03 4.2067116840e+03 0.0000000000e+00 0.0000e+00 -1.0000e+00
       -2 -1    0    0    0  501 -0.0000000000e+00 -0.0000000000e+00 -2.7476061307e+03 2.7476061307e+03 0.0000000000e+00 0.0000e+00 1.0000e+00
      -13  1    1    2    0    0 -7.3451955332e+02 -3.3002589000e+03 +1.0942643403e+03 3.5536800964e+03 0.0000000000e+00 0.0000e+00 1.0000e+00
       13  1    1    2    0    0 +7.3451955332e+02 +3.3002589000e+03 +3.6484121303e+02 3.4006377184e+03 0.0000000000e+00 0.0000e+00 -1.0000e+00
<mgrwt>
<rscale>  0 0.67995255E+04</rscale>
<asrwt>0</asrwt>
<pdfrwt beam="1">  1        2 0.64718641E+00 0.67995255E+04</pdfrwt>
<pdfrwt beam="2">  1       -2 0.42270864E+00 0.67995255E+04</pdfrwt>
<totfact> 0.60300432E-04</totfact>
</mgrwt>
<rwgt>
<wgt id='morphing_basis_vector_1'> +2.0989837e-07 </wgt>
<wgt id='morphing_basis_vector_2'> +1.6675137e-07 </wgt>
<wgt id='morphing_basis_vector_3'> +2.3752611e-07 </wgt>
<wgt id='morphing_basis_vector_4'> +1.3684577e-07 </wgt>
<wgt id='morphing_basis_vector_5'> +2.5259912e-07 </wgt>
</rwgt>
</event>
<event>
 4      1 +6.9060000e-13 6.99267500e+03 7.81860800e-03 7.16180400e-02
        2 -1    0    0  501    0 +0.0000000000e+00 +0.0000000000e+00 +3.4683984507e+03 3.4683984507e+03 0.0000000000e+00 0.0000e+00 1.0000e+00
       -2 -1    0    0    0  501 -0.0000000000e+00 -0.0000000000e+00 -3.5245015468e+03 3.5245015468e+03 0.0000000000e+00 0.0000e+00 -1.0000e+00
      -13  1    1    2    0    0 +3.2752743173e+03 +1.8085096772e+02 -1.2381511442e+03 3.5061584651e+03 0.0000000000e+00 0.0000e+00 -1.0000e+00
       13  1    1    2    0    0 -3.2752743173e+03 -1.8085096772e+02 +1.1820480481e+03 3.4867415325e+03 0.0000000000e+00 0.0000e+00 1.0000e+00
<mgrwt>
<rscale>  0 0.69926749E+04</rscale>
<asrwt>0</asrwt>
<pdfrwt beam="1">  1        2 0.53359976E+00 0.69926749E+04</pdfrwt>
<pdfrwt beam="2">  1       -2 0.54223101E+00 0.69926749E+04</pdfrwt>
<totfact> 0.32602738E-04</totfact>
</mgrwt>
<rwgt>
<wgt id='morphing_basis_vector_1'> +2.2494672e-07 </wgt>
<wgt id='morphing_basis_vector_2'> +1.5777027e-07 </wgt>
<wgt id='morphing_basis_vector_3'> +2.4964475e-07 </wgt>
<wgt id='morphing_basis_vector_4'> +1.7409294e-07 </wgt>
<wgt id='morphing_basis_vector_5'> +2.8436855e-07 </wgt>
</rwgt>
</event>
<event>
 4      1 +6.9060000e-13 6.68738800e+03 7.81860800e-03 7.19064400e-02
        2 -1    0    0  501    0 +0.0000000000e+00 +0.0000000000e+00 +3.1605579759e+03 3.1605579759e+03 0.0000000000e+00 0.0000e+00 -1.0000e+00
       -2 -1    0    0    0  501 -0.0000000000e+00 -0.0000000000e+00 -3.5374414989e+03 3.5374414989e+03 0.0000000000e+00 0.0000e+00 1.0000e+00
      -13  1    1    2    0    0 -2.9863440624e+02 +3.2038045629e+03 -1.0991385378e+03 3.4002428900e+03 0.0000000000e+00 0.0000e+00 1.0000e+00
       13  1    1    2    0    0 +2.9863440624e+02 -3.2038045629e+03 +7.2225501488e+02 3.2977565848e+03 0.0000000000e+00 0.0000e+00 -1.0000e+00
<mgrwt>
<rscale>  0 0.66873878E+04</rscale>
<asrwt>0</asrwt>
<pdfrwt beam="1">  1        2 0.48623969E+00 0.66873878E+04</pdfrwt>
<pdfrwt beam="2">  1       -2 0.54422177E+00 0.66873878E+04</pdfrwt>
<totfact> 0.52950870E-04</totfact>
</mgrwt>
<rwgt>
<wgt id='morphing_basis_vector_1'> +1.8887869e-07 </wgt>
<wgt id='morphing_basis_vector_2'> +1.3391739e-07 </wgt>
<wgt id='morphing_basis_vector_3'> +2.0990011e-07 </wgt>
<wgt id='morphing_basis_vector_4'> +1.4417263e-07 </wgt>
<wgt id='morphing_basis_vector_5'> +2.3767661e-07 </wgt>
</rwgt>
</event>
<event>
 4      1 +6.9060000e-13 7.01421200e+03 7.81860800e-03 7.15982500e-02
        2 -1    0    0  501    0 +0.0000000000e+00 +0.0000000000e+00 +2.1858433118e+03 2.1858433118e+03 0.0000000000e+00 0.0000e+00 -1.0000e+00
       -2 -1    0    0    0  501 -0.0000000000e+00 -0.0000000000e+00 -5.6270235871e+03 5.6270235871e+03 0.0000000000e+00 0.0000e+00 1.0000e+00
      -13  1    1    2    0    0 +2.4370112214e+03 -1.9901977446e+03 -3.4461356276e+03 4.6664506341e+03 0.0000000000e+00 0.0000e+00 1.0000e+00
       13  1    1    2    0    0 -2.4370112214e+03 +1.9901977446e+03 +4.9553524019e+00 3.1464162648e+03 0.0000000000e+00 0.0000e+00 -1.0000e+00
<mgrwt>
<rscale>  0 0.70142118E+04</rscale>
<asrwt>0</asrwt>
<pdfrwt beam="1">  1        2 0.33628359E+00 0.70142118E+04</pdfrwt>
<pdfrwt beam="2">  1       -2 0.86569592E+00 0.70142118E+04</pdfrwt>
<totfact> 0.17989266E-04</totfact>
</mgrwt>
<rwgt>
<wgt id='morphing_basis_vector_1'> +2.2696519e-07 </wgt>
<wgt id='morphing_basis_vector_2'> +1.5748876e-07 </wgt>
<wgt id='morphing_basis_vector_3'> +2.5148720e-07 </wgt>
<wgt id='morphing_basis_vector_4'> +1.7788273e-07 </wgt>
<wgt id='morphing_basis_vector_5'> +2.8803132e-07 </wgt>
</rwgt>
</event>
<event>
 4      1 +6.9060000e-13 6.66345400e+03 7.81860800e-03 7.19297100e-02
        2 -1    0    0  501    0 +0.0000000000e+00 +0.0000000000e+00 +4.1961192248e+03 4.1961192248e+03 0.0000000000e+00 0.0000e+00 -1.0000e+00
       -2 -1    0    0    0  501 -0.0000000000e+00 -0.0000000000e+00 -2.6453978493e+03 2.6453978493e+03 0.0000000000e+00 0.0000e+00 1.0000e+00
      -13  1    1    2    0    0 +2.3844829200e+03 +8.8104309534e+02 -1.4358877242e+03 2.9195495009e+03 0.0000000000e+00 0.0000e+00 1.0000e+00
       13  1    1    2    0    0 -2.3844829200e+03 -8.8104309534e+02 +2.9866090997e+03 3.9219675733e+03 0.0000000000e+00 0.0000e+00 -1.0000e+00
<mgrwt>
<rscale>  0 0.66634540E+04</rscale>
<asrwt>0</asrwt>
<pdfrwt beam="1">  1        2 0.64555680E+00 0.66634540E+04</pdfrwt>
<pdfrwt beam="2">  1       -2 0.40698428E+00 0.66634540E+04</pdfrwt>
<totfact> 0.79130447E-04</totfact>
</mgrwt>
<rwgt>
<wgt id='morphing_basis_vector_1'> +1.8416231e-07 </wgt>
<wgt id='morphing_basis_vector_2'> +1.2604953e-07 </wgt>
<wgt id='morphing_basis_vector_3'> +2.0358501e-07 </wgt>
<wgt id='morphing_basis_vector_4'> +1.4646998e-07 </wgt>
<wgt id='morphing_basis_vector_5'> +2.3465308e-07 </wgt>
</rwgt>
</event>
<event>
 4      1 +6.9060000e-13 6.68391200e+03 7.81860800e-03 7.19098100e-02
        2 -1    0    0  501    0 +0.0000000000e+00 +0.0000000000e+00 +3.9156803727e+03 3.9156803727e+03 0.0000000000e+00 0.0000e+00 -1.0000e+00
       -2 -1    0    0    0  501 -0.0000000000e+00 -0.0000000000e+00 -2.8522934543e+03 2.8522934543e+03 0.0000000000e+00 0.0000e+00 1.0000e+00
      -13  1    1    2    0    0 +2.5125031376e+02 -1.6021465142e+03 -2.4271572468e+03 2.9190910355e+03 0.0000000000e+00 0.0000e+00 1.0000e+00
       13  1    1    2    0    0 -2.5125031376e+02 +1.6021465142e+03 +3.4905441652e+03 3.8488827914e+03 0.0000000000e+00 0.0000e+00 -1.0000e+00
<mgrwt>
<rscale>  0 0.66839119E+04</rscale>
<asrwt>0</asrwt>
<pdfrwt beam="1">  1        2 0.60241236E+00 0.66839119E+04</pdfrwt>
<pdfrwt beam="2">  1       -2 0.43881438E+00 0.66839119E+04</pdfrwt>
<totfact> 0.85002145E-04</totfact>
</mgrwt>
<rwgt>
<wgt id='morphing_basis_vector_1'> +1.8611521e-07 </wgt>
<wgt id='morphing_basis_vector_2'> +1.2667928e-07 </wgt>
<wgt id='morphing_basis_vector_3'> +2.0558077e-07 </wgt>
<wgt id='morphing_basis_vector_4'> +1.4895508e-07 </wgt>
<wgt id='morphing_basis_vector_5'> +2.3761010e-07 </wgt>
</rwgt>
</event>
<event>
 4      1 +6.9060000e-13 6.67056100e+03 7.81860800e-03 7.19227900e-02
        2 -1    0    0  501    0 +0.0000000000e+00 +0.0000000000e+00 +3.7283822762e+03 3.7283822762e+03 0.0000000000e+00 0.0000e+00 1.0000e+00
       -2 -1    0    0    0  501 -0.0000000000e+00 -0.0000000000e+00 -2.9836250077e+03 2.9836250077e+03 0.0000000000e+00 0.0000e+00 -1.0000e+00
      -13  1    1    2    0    0 -3.1700674920e+03 +1.0728095110e+02 -6.6517202895e+02 3.2408781117e+03 0.0000000000e+00 0.0000e+00 -1.0000e+00
       13  1    1    2    0    0 +3.1700674920e+03 -1.0728095110e+02 +1.4099292975e+03 3.4711291723e+03 0.0000000000e+00 0.0000e+00 1.0000e+00
<mgrwt>
<rscale>  0 0.66705606E+04</rscale>
<asrwt>0</asrwt>
<pdfrwt beam="1">  1        2 0.57359727E+00 0.66705606E+04</pdfrwt>
<pdfrwt beam="2">  1       -2 0.45901923E+00 0.66705606E+04</pdfrwt>
<totfact> 0.87119828E-04</totfact>
</mgrwt>
<rwgt>
<wgt id='morphing_basis_vector_1'> +1.8664055e-07 </wgt>
<wgt id='morphing_basis_vector_2'> +1.3155531e-07 </wgt>
<wgt id='morphing_basis_vector_3'> +2.0722625e-07 </wgt>
<wgt id='morphing_basis_vector_4'> +1.4346956e-07 </wgt>
<wgt id='morphing_basis_vector_5'> +2.3535196e-07 </wgt>
</rwgt>
</event>
<event>
 4      1 +6.9060000e-13 6.82342100e+03 7.81860800e-03 7.17760500e-02
        2 -1    0    0  501    0 +0.0000000000e+00 +0.0000000000e+00 +3.4957461240e+03 3.4957461240e+03 0.0000000000e+00 0.0000e+00 1.0000e+00
       -2 -1    0    0    0  501 -0.0000000000e+00 -0.0000000000e+00 -3.3296946178e+03 3.3296946178e+03 0.0000000000e+00 0.0000e+00 -1.0000e+00
      -13  1    1    2    0    0 -8.6571356135e+02 -2.1158813878e+03 -2.4501838983e+03 3.3510916360e+03 0.0000000000e+00 0.0000e+00 -1.0000e+00
       13  1    1    2    0    0 +8.6571356135e+02 +2.1158813878e+03 +2.6162354045e+03 3.4743491058e+03 0.0000000000e+00 0.0000e+00 1.0000e+00
<mgrwt>
<rscale>  0 0.68234206E+04</rscale>
<asrwt>0</asrwt>
<pdfrwt beam="1">  1        2 0.53780710E+00 0.68234206E+04</pdfrwt>
<pdfrwt beam="2">  1       -2 0.51226071E+00 0.68234206E+04</pdfrwt>
<totfact> 0.52249553E-04</totfact>
</mgrwt>
<rwgt>
<wgt id='morphing_basis_vector_1'> +2.0226023e-07 </wgt>
<wgt id='morphing_basis_vector_2'> +1.3800371e-07 </wgt>
<wgt id='morphing_basis_vector_3'> +2.2352192e-07 </wgt>
<wgt id='morphing_basis_vector_4'> +1.6150169e-07 </wgt>
<wgt id='morphing_basis_vector_5'> +2.5808892e-07 </wgt>
</rwgt>
</event>
<event>
 4      1 +6.9060000e-13 7.56685300e+03 7.81860800e-03 7.11137700e-02
        2 -1    0    0  501    0 +0.0000000000e+00 +0.0000000000e+00 +2.9433162584e+03 2.9433162584e+03 0.0000000000e+00 0.0000e+00 1.0000e+00
       -2 -1    0    0    0  501 -0.0000000000e+00 -0.0000000000e+00 -4.8633288933e+03 4.8633288933e+03 0.0000000000e+00 0.0000e+00 -1.0000e+00
      -13  1    1    2    0    0 +1.4195457250e+03 +2.5892225089e+03 -3.4003686702e+03 4.5035197745e+03 0.0000000000e+00 0.0000e+00 -1.0000e+00
       13  1    1    2    0    0 -1.4195457250e+03 -2.5892225089e+03 +1.4803560353e+03 3.3031253772e+03 0.0000000000e+00 0.0000e+00 1.0000e+00
<mgrwt>
<rscale>  0 0.75668527E+04</rscale>
<asrwt>0</asrwt>
<pdfrwt beam="1">  1        2 0.45281789E+00 0.75668527E+04</pdfrwt>
<pdfrwt beam="2">  1       -2 0.74820445E+00 0.75668527E+04</pdfrwt>
<totfact> 0.11999056E-04</totfact>
</mgrwt>
<rwgt>
<wgt id='morphing_basis_vector_1'> +3.0607423e-07 </wgt>
<wgt id='morphing_basis_vector_2'> +2.0979354e-07 </wgt>
<wgt id='morphing_basis_vector_3'> +3.3866611e-07 </wgt>
<wgt id='morphing_basis_vector_4'> +2.4356676e-07 </wgt>
<wgt id='morphing_basis_vector_5'> +3.9049881e-07 </wgt>
</rwgt>
</event>
<event>
 4      1 +6.9060000e-13 6.83657100e+03 7.81860800e-03 7.17636100e-02
        2 -1    0    0  501    0 +0.0000000000e+00 +0.0000000000e+00 +4.9322359886e+03 4.9322359886e+03 0.0000000000e+00 0.0000e+00 1.0000e+00
       -2 -1    0    0    0  501 -0.0000000000e+00 -0.0000000000e+00 -2.3690423564e+03 2.3690423564e+03 0.0000000000e+00 0.0000e+00 -1.0000e+00
      -13  1    1    2    0    0 -8.7575278516e+02 -1.0162487211e+03 +4.6393462544e+03 4.8294138435e+03 0.0000000000e+00 0.0000e+00 1.0000e+00
       13  1    1    2    0    0 +8.7575278516e+02 +1.0162487211e+03 -2.0761526221e+03 2.4718645015e+03 0.0000000000e+00 0.0000e+00 -1.0000e+00
<mgrwt>
<rscale>  0 0.68365711E+04</rscale>
<asrwt>0</asrwt>
<pdfrwt beam="1">  1        2 0.75880553E+00 0.68365711E+04</pdfrwt>
<pdfrwt beam="2">  1       -2 0.36446806E+00 0.68365711E+04</pdfrwt>
<totfact> 0.23697690E-04</totfact>
</mgrwt>
<rwgt>
<wgt id='morphing_basis_vector_1'> +2.7802853e-07 </wgt>
<wgt id='morphing_basis_vector_2'> +3.5682430e-07 </wgt>
<wgt id='morphing_basis_vector_3'> +3.4680765e-07 </wgt>
<wgt id='morphing_basis_vector_4'> +3.6844803e-09 </wgt>
<wgt id='morphing_basis_vector_5'> +2.4668481e-07 </wgt>
</rwgt>
</event>
<event>
 4      1 +6.9060000e-13 6.68474900e+03 7.81860800e-03 7.19090000e-02
        2 -1    0    0  501    0 +0.0000000000e+00 +0.0000000000e+00 +3.5809742977e+03 3.5809742977e+03 0.0000000000e+00 0.0000e+00 1.0000e+00
       -2 -1    0    0    0  501 -0.0000000000e+00 -0.0000000000e+00 -3.1196721255e+03 3.1196721255e+03 0.0000000000e+00 0.0000e+00 -1.0000e+00
      -13  1    1    2    0    0 +2.6187946339e+03 -2.0563935140e+03 -6.0946375852e+01 3.3302483510e+03 0.0000000000e+00 0.0000e+00 -1.0000e+00
       13  1    1    2    0    0 -2.6187946339e+03 +2.0563935140e+03 +5.2224854799e+02 3.3703980721e+03 0.0000000000e+00 0.0000e+00 1.0000e+00
<mgrwt>
<rscale>  0 0.66847485E+04</rscale>
<asrwt>0</asrwt>
<pdfrwt beam="1">  1        2 0.55091912E+00 0.66847485E+04</pdfrwt>
<pdfrwt beam="2">  1       -2 0.47994956E+00 0.66847485E+04</pdfrwt>
<totfact> 0.79512695E-04</totfact>
</mgrwt>
<rwgt>
<wgt id='morphing_basis_vector_1'> +1.9115609e-07 </wgt>
<wgt id='morphing_basis_vector_2'> +1.4126225e-07 </wgt>
<wgt id='morphing_basis_vector_3'> +2.1378470e-07 </wgt>
<wgt id='morphing_basis_vector_4'> +1.3842717e-07 </wgt>
<wgt id='morphing_basis_vector_5'> +2.3683617e-07 </wgt>
</rwgt>
</event>
<event>
 4      1 +6.9060000e-13 6.98764900e+03 7.81860800e-03 7.16226600e-02
        2 -1    0    0  501    0 +0.0000000000e+00 +0.0000000000e+00 +2.9867557597e+03 2.9867557597e+03 0.0000000000e+00 0.0000e+00 1.0000e+00
       -2 -1    0    0    0  501 -0.0000000000e+00 -0.0000000000e+00 -4.0869800359e+03 4.0869800359e+03 0.0000000000e+00 0.0000e+00 -1.0000e+00
      -13  1    1    2    0    0 -2.6435799461e+03 -2.2752341507e+03 -7.5660004012e+02 3.5689843083e+03 0.0000000000e+00 0.0000e+00 -1.0000e+00
       13  1    1    2    0    0 +2.6435799461e+03 +2.2752341507e+03 -3.4362423613e+02 3.5047514873e+03 0.0000000000e+00 0.0000e+00 1.0000e+00
<mgrwt>
<rscale>  0 0.69876494E+04</rscale>
<asrwt>0</asrwt>
<pdfrwt beam="1">  1        2 0.45950089E+00 0.69876494E+04</pdfrwt>
<pdfrwt beam="2">  1       -2 0.62876616E+00 0.69876494E+04</pdfrwt>
<totfact> 0.11601659E-04</totfact>
</mgrwt>
<rwgt>
<wgt id='morphing_basis_vector_1'> +2.2882688e-07 </wgt>
<wgt id='morphing_basis_vector_2'> +1.7059533e-07 </wgt>
<wgt id='morphing_basis_vector_3'> +2.5634370e-07 </wgt>
<wgt id='morphing_basis_vector_4'> +1.6388965e-07 </wgt>
<wgt id='morphing_basis_vector_5'> +2.8273290e-07 </wgt>
</rwgt>
</event>
<event>
 4      1 +6.9060000e-13 7.19091400e+03 7.81860800e-03 7.14386000e-02
        2 -1    0    0  501    0 +0.0000000000e+00 +0.0000000000e+00 +3.3845461827e+03 3.3845461827e+03 0.0000000000e+00 0.0000e+00 1.0000e+00
       -2 -1    0    0    0  501 -0.0000000000e+00 -0.0000000000e+00 -3.8195111112e+03 3.8195111112e+03 0.0000000000e+00 0.0000e+00 -1.0000e+00
      -13  1    1    2    0    0 +1.5113600351e+02 +3.5499247171e+03 +3.3352658189e+02 3.5687599484e+03 0.0000000000e+00 0.0000e+00 -1.0000e+00
       13  1    1    2    0    0 -1.5113600351e+02 -3.5499247171e+03 -7.6849151042e+02 3.6352973455e+03 0.0000000000e+00 0.0000e+00 1.0000e+00
<mgrwt>
<rscale>  0 0.71909142E+04</rscale>
<asrwt>0</asrwt>
<pdfrwt beam="1">  1        2 0.52069942E+00 0.71909142E+04</pdfrwt>
<pdfrwt beam="2">  1       -2 0.58761709E+00 0.71909142E+04</pdfrwt>
<totfact> 0.17031199E-04</totfact>
</mgrwt>
<rwgt>
<wgt id='morphing_basis_vector_1'> +2.6484863e-07 </wgt>
<wgt id='morphing_basis_vector_2'> +2.1554677e-07 </wgt>
<wgt id='morphing_basis_vector_3'> +3.0104369e-07 </wgt>
<wgt id='morphing_basis_vector_4'> +1.6612249e-07 </wgt>
<wgt id='morphing_basis_vector_5'> +3.1565742e-07 </wgt>
</rwgt>
</event>
<event>
 4      1 +6.9060000e-13 6.83055500e+03 7.81860800e-03 7.17693000e-02
        2 -1    0    0  501    0 +0.0000000000e+00 +0.0000000000e+00 +3.2201438077e+03 3.2201438077e+03 0.0000000000e+00 0.0000e+00 -1.0000e+00
       -2 -1    0    0    0  501 -0.0000000000e+00 -0.0000000000e+00 -3.6222355235e+03 3.6222355235e+03 0.0000000000e+00 0.0000e+00 1.0000e+00
      -13  1    1    2    0    0 -4.9465485191e+02 -3.1686649442e+03 -1.3773863506e+03 3.4903171933e+03 0.0000000000e+00 0.0000e+00 1.0000e+00
       13  1    1    2    0    0 +4.9465485191e+02 +3.1686649442e+03 +9.7529463484e+02 3.3520621378e+03 0.0000000000e+00 0.0000e+00 -1.0000e+00
<mgrwt>
<rscale>  0 0.68305547E+04</rscale>
<asrwt>0</asrwt>
<pdfrwt beam="1">  1        2 0.49540674E+00 0.68305547E+04</pdfrwt>
<pdfrwt beam="2">  1       -2 0.55726700E+00 0.68305547E+04</pdfrwt>
<totfact> 0.38480422E-04</totfact>
</mgrwt>
<rwgt>
<wgt id='morphing_basis_vector_1'> +2.0485230e-07 </wgt>
<wgt id='morphing_basis_vector_2'> +1.4370590e-07 </wgt>
<wgt id='morphing_basis_vector_3'> +2.2731871e-07 </wgt>
<wgt id='morphing_basis_vector_4'> +1.5843592e-07 </wgt>
<wgt id='morphing_basis_vector_5'> +2.5885640e-07 </wgt>
</rwgt>
</event>
<event>
 4      1 +6.9060000e-13 6.87537000e+03 7.81860800e-03 7.17270600e-02
        2 -1    0    0  501    0 +0.0000000000e+00 +0.0000000000e+00 +3.3974537290e+03 3.3974537290e+03 0.0000000000e+00 0.0000e+00 1.0000e+00
       -2 -1    0    0    0  501 -0.0000000000e+00 -0.0000000000e+00 -3.4783922512e+03 3.4783922512e+03 0.0000000000e+00 0.0000e+00 -1.0000e+00
      -13  1    1    2    0    0 +2.0103725080e+03 +2.0224664953e+03 -1.9604221683e+03 3.4605235765e+03 0.0000000000e+00 0.0000e+00 -1.0000e+00
       13  1    1    2    0    0 -2.0103725080e+03 -2.0224664953e+03 +1.8794836460e+03 3.4153224037e+03 0.0000000000e+00 0.0000e+00 1.0000e+00
<mgrwt>
<rscale>  0 0.68753696E+04</rscale>
<asrwt>0</asrwt>
<pdfrwt beam="1">  1        2 0.52268519E+00 0.68753696E+04</pdfrwt>
<pdfrwt beam="2">  1       -2 0.53513727E+00 0.68753696E+04</pdfrwt>
<totfact> 0.41559458E-04</totfact>
</mgrwt>
<rwgt>
<wgt id='morphing_basis_vector_1'> +2.0897106e-07 </wgt>
<wgt id='morphing_basis_vector_2'> +1.4369455e-07 </wgt>
<wgt id='morphing_basis_vector_3'> +2.3121186e-07 </wgt>
<wgt id='morphing_basis_vector_4'> +1.6543063e-07 </wgt>
<wgt id='morphing_basis_vector_5'> +2.6596360e-07 </wgt>
</rwgt>
</event>
<event>
 4      1 +6.9060000e-13 7.28081200e+03 7.81860800e-03 7.13591400e-02
        2 -1    0    0  501    0 +0.0000000000e+00 +0.0000000000e+00 +4.4638599670e+03 4.4638599670e+03 0.0000000000e+00 0.0000e+00 -1.0000e+00
       -2 -1    0    0    0  501 -0.0000000000e+00 -0.0000000000e+00 -2.9688559778e+03 2.9688559778e+03 0.0000000000e+00 0.0000e+00 1.0000e+00
      -13  1    1    2    0    0 +1.8282845805e+03 +2.0293830164e+03 -1.7092687229e+03 3.2222072406e+03 0.0000000000e+00 0.0000e+00 1.0000e+00
       13  1    1    2    0    0 -1.8282845805e+03 -2.0293830164e+03 +3.2042727121e+03 4.2105087042e+03 0.0000000000e+00 0.0000e+00 -1.0000e+00
<mgrwt>
<rscale>  0 0.72808124E+04</rscale>
<asrwt>0</asrwt>
<pdfrwt beam="1">  1        2 0.68674769E+00 0.72808124E+04</pdfrwt>
<pdfrwt beam="2">  1       -2 0.45674707E+00 0.72808124E+04</pdfrwt>
<totfact> 0.19187188E-04</totfact>
</mgrwt>
<rwgt>
<wgt id='morphing_basis_vector_1'> +2.6229040e-07 </wgt>
<wgt id='morphing_basis_vector_2'> +1.7948243e-07 </wgt>
<wgt id='morphing_basis_vector_3'> +2.9009173e-07 </wgt>
<wgt id='morphing_basis_vector_4'> +2.0899132e-07 </wgt>
<wgt id='morphing_basis_vector_5'> +3.3466519e-07 </wgt>
</rwgt>
</event>
<event>
 4      1 +6.9060000e-13 7.36468000e+03 7.81860800e-03 7.12860400e-02
        2 -1    0    0  501    0 +0.0000000000e+00 +0.0000000000e+00 +2.7003499794e+03 2.7003499794e+03 0.0000000000e+00 0.0000e+00 1.0000e+00
       -2 -1    0    0    0  501 -0.0000000000e+00 -0.0000000000e+00 -5.0214337227e+03 5.0214337227e+03 0.0000000000e+00 0.0000e+00 -1.0000e+00
      -13  1    1    2    0    0 -2.7542243743e+03 -2.3817820644e+03 -1.7357702612e+03 4.0337992149e+03 0.0000000000e+00 0.0000e+00 -1.0000e+00
       13  1    1    2    0    0 +2.7542243743e+03 +2.3817820644e+03 -5.8531348209e+02 3.6879844873e+03 0.0000000000e+00 0.0000e+00 1.0000e+00
<mgrwt>
<rscale>  0 0.73646802E+04</rscale>
<asrwt>0</asrwt>
<pdfrwt beam="1">  1        2 0.41543846E+00 0.73646802E+04</pdfrwt>
<pdfrwt beam="2">  1       -2 0.77252826E+00 0.73646802E+04</pdfrwt>
<totfact> 0.20096159E-04</totfact>
</mgrwt>
<rwgt>
<wgt id='morphing_basis_vector_1'> +2.7990050e-07 </wgt>
<wgt id='morphing_basis_vector_2'> +2.0354027e-07 </wgt>
<wgt id='morphing_basis_vector_3'> +3.1243944e-07 </wgt>
<wgt id='morphing_basis_vector_4'> +2.0735893e-07 </wgt>
<wgt id='morphing_basis_vector_5'> +3.4941237e-07 </wgt>
</rwgt>
</event>
<event>
 4      1 +6.9060000e-13 7.01333800e+03 7.81860800e-03 7.15990600e-02
        2 -1    0    0  501    0 +0.0000000000e+00 +0.0000000000e+00 +2.5036478942e+03 2.5036478942e+03 0.0000000000e+00 0.0000e+00 1.0000e+00
       -2 -1    0    0    0  501 -0.0000000000e+00 -0.0000000000e+00 -4.9115242348e+03 4.9115242348e+03 0.0000000000e+00 0.0000e+00 -1.0000e+00
      -13  1    1    2    0    0 -3.1092721661e+02 -1.4609575003e+03 -4.5583585287e+03 4.7968432357e+03 0.0000000000e+00 0.0000e+00 -1.0000e+00
       13  1    1    2    0    0 +3.1092721661e+02 +1.4609575003e+03 +2.1504821881e+03 2.6183288932e+03 0.0000000000e+00 0.0000e+00 1.0000e+00
<mgrwt>
<rscale>  0 0.70133380E+04</rscale>
<asrwt>0</asrwt>
<pdfrwt beam="1">  1        2 0.38517660E+00 0.70133380E+04</pdfrwt>
<pdfrwt beam="2">  1       -2 0.75561911E+00 0.70133380E+04</pdfrwt>
<totfact> 0.24932643E-04</totfact>
</mgrwt>
<rwgt>
<wgt id='morphing_basis_vector_1'> +2.2551528e-07 </wgt>
<wgt id='morphing_basis_vector_2'> +1.5348717e-07 </wgt>
<wgt id='morphing_basis_vector_3'> +2.4917059e-07 </wgt>
<wgt id='morphing_basis_vector_4'> +1.8066093e-07 </wgt>
<wgt id='morphing_basis_vector_5'> +2.8812921e-07 </wgt>
</rwgt>
</event>
<event>
 4      1 +6.9060000e-13 6.84430700e+03 7.81860800e-03 7.17563000e-02
        2 -1    0    0  501    0 +0.0000000000e+00 +0.0000000000e+00 +3.2023069880e+03 3.2023069880e+03 0.0000000000e+00 0.0000e+00 1.0000e+00
       -2 -1    0    0    0  501 -0.0000000000e+00 -0.0000000000e+00 -3.6570926444e+03 3.6570926444e+03 0.0000000000e+00 0.0000e+00 -1.0000e+00
      -13  1    1    2    0    0 +4.7610308904e+02 +2.7986848456e+03 +1.6877954124e+03 3.3027207527e+03 0.0000000000e+00 0.0000e+00 1.0000e+00
       13  1    1    2    0    0 -4.7610308904e+02 -2.7986848456e+03 -2.1425810689e+03 3.5566788796e+03 0.0000000000e+00 0.0000e+00 -1.0000e+00
<mgrwt>
<rscale>  0 0.68443066E+04</rscale>
<asrwt>0</asrwt>
<pdfrwt beam="1">  1        2 0.49266262E+00 0.68443066E+04</pdfrwt>
<pdfrwt beam="2">  1       -2 0.56262964E+00 0.68443066E+04</pdfrwt>
<totfact> 0.36153449E-04</totfact>
</mgrwt>
<rwgt>
<wgt id='morphing_basis_vector_1'> +2.4847242e-07 </wgt>
<wgt id='morphing_basis_vector_2'> +2.6801770e-07 </wgt>
<wgt id='morphing_basis_vector_3'> +2.9790408e-07 </wgt>
<wgt id='morphing_basis_vector_4'> +6.9754722e-08 </wgt>
<wgt id='morphing_basis_vector_5'> +2.5337059e-07 </wgt>
</rwgt>
</event>
<event>
 4      1 +6.9060000e-13 6.68424000e+03 7.81860800e-03 7.19095000e-02
        2 -1    0    0  501    0 +0.0000000000e+00 +0.0000000000e+00 +4.6537976030e+03 4.6537976030e+03 0.0000000000e+00 0.0000e+00 -1.0000e+00
       -2 -1    0    0    0  501 -0.0000000000e+00 -0.0000000000e+00 -2.4001400345e+03 2.4001400345e+03 0.0000000000e+00 0.0000e+00 1.0000e+00
      -13  1    1    2    0    0 -2.8069845214e+03 +1.1763306690e+03 -3.3043391500e+02 3.0613889852e+03 0.0000000000e+00 0.0000e+00 1.0000e+00
       13  1    1    2    0    0 +2.8069845214e+03 -1.1763306690e+03 +2.5840914835e+03 3.9925486524e+03 0.0000000000e+00 0.0000e+00 -1.0000e+00
<mgrwt>
<rscale>  0 0.66842400E+04</rscale>
<asrwt>0</asrwt>
<pdfrwt beam="1">  1        2 0.71596886E+00 0.66842400E+04</pdfrwt>
<pdfrwt beam="2">  1       -2 0.36925231E+00 0.66842400E+04</pdfrwt>
<totfact> 0.48029854E-04</totfact>
</mgrwt>
<rwgt>
<wgt id='morphing_basis_vector_1'> +1.8740520e-07 </wgt>
<wgt id='morphing_basis_vector_2'> +1.3038258e-07 </wgt>
<wgt id='morphing_basis_vector_3'> +2.0767347e-07 </wgt>
<wgt id='morphing_basis_vector_4'> +1.4629827e-07 </wgt>
<wgt id='morphing_basis_vector_5'> +2.3743057e-07 </wgt>
</rwgt>
</event>
<event>
 4      1 +6.9060000e-13 7.06202600e+03 7.81860800e-03 7.15545900e-02
        2 -1    0    0  501    0 +0.0000000000e+00 +0.0000000000e+00 +4.2521553558e+03 4.2521553558e+03 0.0000000000e+00 0.0000e+00 1.0000e+00
       -2 -1    0    0    0  501 -0.0000000000e+00 -0.0000000000e+00 -2.9321727992e+03 2.9321727992e+03 0.0000000000e+00 0.0000e+00 -1.0000e+00
      -13  1    1    2    0    0 +1.7507623074e+03 -2.4447688697e+03 +2.5429895395e+03 3.9381289061e+03 0.0000000000e+00 0.0000e+00 1.0000e+00
       13  1    1    2    0    0 -1.7507623074e+03 +2.4447688697e+03 -1.2230069830e+03 3.2461992489e+03 0.0000000000e+00 0.0000e+00 -1.0000e+00
<mgrwt>
<rscale>  0 0.70620264E+04</rscale>
<asrwt>0</asrwt>
<pdfrwt beam="1">  1        2 0.65417775E+00 0.70620264E+04</pdfrwt>
<pdfrwt beam="2">  1       -2 0.45110351E+00 0.70620264E+04</pdfrwt>
<totfact> 0.34397760E-04</totfact>
</mgrwt>
<rwgt>
<wgt id='morphing_basis_vector_1'> +2.7745864e-07 </wgt>
<wgt id='morphing_basis_vector_2'> +2.9166928e-07 </wgt>
<wgt id='morphing_basis_vector_3'> +3.3095134e-07 </wgt>
<wgt id='morphing_basis_vector_4'> +8.7893236e-08 </wgt>
<wgt id='morphing_basis_vector_5'> +2.8797977e-07 </wgt>
</rwgt>
</event>
<event>
 4      1 +6.9060000e-13 6.80440400e+03 7.81860800e-03 7.17940900e-02
        2 -1    0    0  501    0 +0.0000000000e+00 +0.0000000000e+00 +3.9644359411e+03 3.9644359411e+03 0.0000000000e+00 0.0000e+00 -1.0000e+00
       -2 -1    0    0    0  501 -0.0000000000e+00 -0.0000000000e+00 -2.9197036318e+03 2.9197036318e+03 0.0000000000e+00 0.0000e+00 1.0000e+00
      -13  1    1    2    0    0 -9.8122466055e+01 +3.4005404484e+03 +4.8096405506e+02 3.4357866322e+03 0.0000000000e+00 0.0000e+00 1.0000e+00
       13  1    1    2    0    0 +9.8122466055e+01 -3.4005404484e+03 +5.6376825428e+02 3.4483529408e+03 0.0000000000e+00 0.0000e+00 -1.0000e+00
<mgrwt>
<rscale>  0 0.68044039E+04</rscale>
<asrwt>0</asrwt>
<pdfrwt beam="1">  1        2 0.60991322E+00 0.68044039E+04</pdfrwt>
<pdfrwt beam="2">  1       -2 0.44918517E+00 0.68044039E+04</pdfrwt>
<totfact> 0.65082704E-04</totfact>
</mgrwt>
<rwgt>
<wgt id='morphing_basis_vector_1'> +2.0688750e-07 </wgt>
<wgt id='morphing_basis_vector_2'> +1.5662841e-07 </wgt>
<wgt id='morphing_basis_vector_3'> +2.3229112e-07 </wgt>
<wgt id='morphing_basis_vector_4'> +1.4498335e-07 </wgt>
<wgt id='morphing_basis_vector_5'> +2.5397849e-07 </wgt>
</rwgt>
</event>
<event>
 4      1 +6.9060000e-13 7.20463700e+03 7.81860800e-03 7.14263900e-02
        2 -1    0    0  501    0 +0.0000000000e+00 +0.0000000000e+00 +4.3298218875e+03 4.3298218875e+03 0.0000000000e+00 0.0000e+00 -1.0000e+00
       -2 -1    0    0    0  501 -0.0000000000e+00 -0.0000000000e+00 -2.9970515363e+03 2.9970515363e+03 0.0000000000e+00 0.0000e+00 1.0000e+00
      -13  1    1    2    0    0 +1.4934844571e+03 +3.0716817937e+03 +1.8307891789e+03 3.8752437192e+03 0.0000000000e+00 0.0000e+00 1.0000e+00
       13  1    1    2    0    0 -1.4934844571e+03 -3.0716817937e+03 -4.9801882775e+02 3.4516297047e+03 0.0000000000e+00 0.0000e+00 -1.0000e+00
<mgrwt>
<rscale>  0 0.72046372E+04</rscale>
<asrwt>0</asrwt>
<pdfrwt beam="1">  1        2 0.66612645E+00 0.72046372E+04</pdfrwt>
<pdfrwt beam="2">  1       -2 0.46108485E+00 0.72046372E+04</pdfrwt>
<totfact> 0.24413419E-04</totfact>
</mgrwt>
<rwgt>
<wgt id='morphing_basis_vector_1'> +2.7822670e-07 </wgt>
<wgt id='morphing_basis_vector_2'> +2.5050900e-07 </wgt>
<wgt id='morphing_basis_vector_3'> +3.2196706e-07 </wgt>
<wgt id='morphing_basis_vector_4'> +1.4304182e-07 </wgt>
<wgt id='morphing_basis_vector_5'> +3.1602430e-07 </wgt>
</rwgt>
</event>
<event>
 4      1 +6.9060000e-13 7.46176900e+03 7.81860800e-03 7.12026300e-02
        2 -1    0    0  501    0 +0.0000000000e+00 +0.0000000000e+00 +3.5240642617e+03 3.5240642617e+03 0.0000000000e+00 0.0000e+00 -1.0000e+00
       -2 -1    0    0    0  501 -0.0000000000e+00 -0.0000000000e+00 -3.9498424448e+03 3.9498424448e+03 0.0000000000e+00 0.0000e+00 1.0000e+00
      -13  1    1    2    0    0 -2.1742016449e+03 +1.8545976418e+03 -2.6152929925e+03 3.8738149984e+03 0.0000000000e+00 0.0000e+00 1.0000e+00
       13  1    1    2    0    0 +2.1742016449e+03 -1.8545976418e+03 +2.1895148094e+03 3.6000917080e+03 0.0000000000e+00 0.0000e+00 -1.0000e+00
<mgrwt>
<rscale>  0 0.74617689E+04</rscale>
<asrwt>0</asrwt>
<pdfrwt beam="1">  1        2 0.54216373E+00 0.74617689E+04</pdfrwt>
<pdfrwt beam="2">  1       -2 0.60766807E+00 0.74617689E+04</pdfrwt>
<totfact> 0.86728270E-05</totfact>
</mgrwt>
<rwgt>
<wgt id='morphing_basis_vector_1'> +2.8937715e-07 </wgt>
<wgt id='morphing_basis_vector_2'> +1.9818324e-07 </wgt>
<wgt id='morphing_basis_vector_3'> +3.2012944e-07 </wgt>
<wgt id='morphing_basis_vector_4'> +2.3044702e-07 </wgt>
<wgt id='morphing_basis_vector_5'> +3.6923807e-07 </wgt>
</rwgt>
</event>
<event>
 4      1 +6.9060000e-13 6.80425500e+03 7.81860800e-03 7.17942300e-02
        2 -1    0    0  501    0 +0.0000000000e+00 +0.0000000000e+00 +3.2016451997e+03 3.2016451997e+03 0.0000000000e+00 0.0000e+00 -1.0000e+00
       -2 -1    0    0    0  501 -0.0000000000e+00 -0.0000000000e+00 -3.6151640157e+03 3.6151640157e+03 0.0000000000e+00 0.0000e+00 1.0000e+00
      -13  1    1    2    0    0 +2.0642937058e+01 -2.2203663391e+03 -2.7891147087e+03 3.5650545113e+03 0.0000000000e+00 0.0000e+00 1.0000e+00
       13  1    1    2    0    0 -2.0642937058e+01 +2.2203663391e+03 +2.3755958927e+03 3.2517547041e+03 0.0000000000e+00 0.0000e+00 -1.0000e+00
<mgrwt>
<rscale>  0 0.68042553E+04</rscale>
<asrwt>0</asrwt>
<pdfrwt beam="1">  1        2 0.49256080E+00 0.68042553E+04</pdfrwt>
<pdfrwt beam="2">  1       -2 0.55617908E+00 0.68042553E+04</pdfrwt>
<totfact> 0.40413743E-04</totfact>
</mgrwt>
<rwgt>
<wgt id='morphing_basis_vector_1'> +1.9997807e-07 </wgt>
<wgt id='morphing_basis_vector_2'> +1.3639241e-07 </wgt>
<wgt id='morphing_basis_vector_3'> +2.2098330e-07 </wgt>
<wgt id='morphing_basis_vector_4'> +1.5974183e-07 </wgt>
<wgt id='morphing_basis_vector_5'> +2.5520080e-07 </wgt>
</rwgt>
</event>
<event>
 4      1 +6.9060000e-13 6.84498600e+03 7.81860800e-03 7.17556600e-02
        2 -1    0    0  501    0 +0.0000000000e+00 +0.0000000000e+00 +2.2371461602e+03 2.2371461602e+03 0.0000000000e+00 0.0000e+00 1.0000e+00
       -2 -1    0    0    0  501 -0.0000000000e+00 -0.0000000000e+00 -5.2358924787e+03 5.2358924787e+03 0.0000000000e+00 0.0000e+00 -1.0000e+00
      -13  1    1    2    0    0 -1.5025339408e+03 -1.7686264494e+02 -4.8509981628e+03 5.0814438710e+03 0.0000000000e+00 0.0000e+00 -1.0000e+00
       13  1    1    2    0    0 +1.5025339408e+03 +1.7686264494e+02 +1.8522518444e+03 2.3915947678e+03 0.0000000000e+00 0.0000e+00 1.0000e+00
<mgrwt>
<rscale>  0 0.68449855E+04</rscale>
<asrwt>0</asrwt>
<pdfrwt beam="1">  1        2 0.34417634E+00 0.68449855E+04</pdfrwt>
<pdfrwt beam="2">  1       -2 0.80552191E+00 0.68449855E+04</pdfrwt>
<totfact> 0.36646505E-04</totfact>
</mgrwt>
<rwgt>
<wgt id='morphing_basis_vector_1'> +2.0466678e-07 </wgt>
<wgt id='morphing_basis_vector_2'> +1.3929184e-07 </wgt>
<wgt id='morphing_basis_vector_3'> +2.2610196e-07 </wgt>
<wgt id='morphing_basis_vector_4'> +1.6389509e-07 </wgt>
<wgt id='morphing_basis_vector_5'> +2.6140123e-07 </wgt>
</rwgt>
</event>
<event>
 4      1 +6.9060000e-13 6.71514800e+03 7.81860800e-03 7.18795800e-02
        2 -1    0    0  501    0 +0.0000000000e+00 +0.0000000000e+00 +4.2407519136e+03 4.2407519136e+03 0.0000000000e+00 0.0000e+00 -1.0000e+00
       -2 -1    0    0    0  501 -0.0000000000e+00 -0.0000000000e+00 -2.6583267203e+03 2.6583267203e+03 0.0000000000e+00 0.0000e+00 1.0000e+00
      -13  1    1    2    0    0 -5.2584239225e+02 +2.5819814953e+03 -1.3466891076e+03 2.9591739077e+03 0.0000000000e+00 0.0000e+00 1.0000e+00
       13  1    1    2    0    0 +5.2584239225e+02 -2.5819814953e+03 +2.9291143009e+03 3.9399047262e+03 0.0000000000e+00 0.0000e+00 -1.0000e+00
<mgrwt>
<rscale>  0 0.67151483E+04</rscale>
<asrwt>0</asrwt>
<pdfrwt beam="1">  1        2 0.65242337E+00 0.67151483E+04</pdfrwt>
<pdfrwt beam="2">  1       -2 0.40897334E+00 0.67151483E+04</pdfrwt>
<totfact> 0.69557483E-04</totfact>
</mgrwt>
<rwgt>
<wgt id='morphing_basis_vector_1'> +1.9000209e-07 </wgt>
<wgt id='morphing_basis_vector_2'> +1.3020600e-07 </wgt>
<wgt id='morphing_basis_vector_3'> +2.1008855e-07 </wgt>
<wgt id='morphing_basis_vector_4'> +1.5092879e-07 </wgt>
<wgt id='morphing_basis_vector_5'> +2.4202070e-07 </wgt>
</rwgt>
</event>
<event>
 4      1 +6.9060000e-13 6.76560600e+03 7.81860800e-03 7.18310900e-02
        2 -1    0    0  501    0 +0.0000000000e+00 +0.0000000000e+00 +3.1494356612e+03 3.1494356612e+03 0.0000000000e+00 0.0000e+00 -1.0000e+00
       -2 -1    0    0    0  501 -0.0000000000e+00 -0.0000000000e+00 -3.6334619797e+03 3.6334619797e+03 0.0000000000e+00 0.0000e+00 1.0000e+00
      -13  1    1    2    0    0 +3.0054311740e+03 +1.5488162545e+03 -3.5140850035e+02 3.3992552517e+03 0.0000000000e+00 0.0000e+00 1.0000e+00
       13  1    1    2    0    0 -3.0054311740e+03 -1.5488162545e+03 -1.3261781811e+02 3.3836423892e+03 0.0000000000e+00 0.0000e+00 -1.0000e+00
<mgrwt>
<rscale>  0 0.67656056E+04</rscale>
<asrwt>0</asrwt>
<pdfrwt beam="1">  1        2 0.48452857E+00 0.67656056E+04</pdfrwt>
<pdfrwt beam="2">  1       -2 0.55899415E+00 0.67656056E+04</pdfrwt>
<totfact> 0.41948787E-04</totfact>
</mgrwt>
<rwgt>
<wgt id='morphing_basis_vector_1'> +2.0172894e-07 </wgt>
<wgt id='morphing_basis_vector_2'> +1.5165648e-07 </wgt>
<wgt id='morphing_basis_vector_3'> +2.2623801e-07 </wgt>
<wgt id='morphing_basis_vector_4'> +1.4274610e-07 </wgt>
<wgt id='morphing_basis_vector_5'> +2.4831367e-07 </wgt>
</rwgt>
</event>
<event>
 4      1 +6.9060000e-13 7.58997100e+03 7.81860800e-03 7.10944200e-02
        2 -1    0    0  501    0 +0.0000000000e+00 +0.0000000000e+00 +2.8899284461e+03 2.8899284461e+03 0.0000000000e+00 0.0000e+00 -1.0000e+00
       -2 -1    0    0    0  501 -0.0000000000e+00 -0.0000000000e+00 -4.9834855881e+03 4.9834855881e+03 0.0000000000e+00 0.0000e+00 1.0000e+00
      -13  1    1    2    0    0 -2.0687925260e+03 +3.0722417476e+03 -1.8926120889e+02 3.7086913698e+03 0.0000000000e+00 0.0000e+00 1.0000e+00
       13  1    1    2    0    0 +2.0687925260e+03 -3.0722417476e+03 -1.9042959331e+03 4.1647226645e+03 0.0000000000e+00 0.0000e+00 -1.0000e+00
<mgrwt>
<rscale>  0 0.75899715E+04</rscale>
<asrwt>0</asrwt>
<pdfrwt beam="1">  1        2 0.44460438E+00 0.75899715E+04</pdfrwt>
<pdfrwt beam="2">  1       -2 0.76669009E+00 0.75899715E+04</pdfrwt>
<totfact> 0.14846239E-04</totfact>
</mgrwt>
<rwgt>
<wgt id='morphing_basis_vector_1'> +3.3334448e-07 </wgt>
<wgt id='morphing_basis_vector_2'> +2.8136731e-07 </wgt>
<wgt id='morphing_basis_vector_3'> +3.8142608e-07 </wgt>
<wgt id='morphing_basis_vector_4'> +1.9608311e-07 </wgt>
<wgt id='morphing_basis_vector_5'> +3.9104179e-07 </wgt>
</rwgt>
</event>
<event>
 4      1 +6.9060000e-13 6.99772600e+03 7.81860800e-03 7.16133900e-02
        2 -1    0    0  501    0 +0.0000000000e+00 +0.0000000000e+00 +4.6638543463e+03 4.6638543463e+03 0.0000000000e+00 0.0000e+00 -1.0000e+00
       -2 -1    0    0    0  501 -0.0000000000e+00 -0.0000000000e+00 -2.6248765940e+03 2.6248765940e+03 0.0000000000e+00 0.0000e+00 1.0000e+00
      -13  1    1    2    0    0 +3.2264656343e+02 +2.2770350417e+03 -1.7270310228e+03 2.8760433828e+03 0.0000000000e+00 0.0000e+00 1.0000e+00
       13  1    1    2    0    0 -3.2264656343e+02 -2.2770350417e+03 +3.7660087751e+03 4.4126875575e+03 0.0000000000e+00 0.0000e+00 -1.0000e+00
<mgrwt>
<rscale>  0 0.69977259E+04</rscale>
<asrwt>0</asrwt>
<pdfrwt beam="1">  1        2 0.71751605E+00 0.69977259E+04</pdfrwt>
<pdfrwt beam="2">  1       -2 0.40382717E+00 0.69977259E+04</pdfrwt>
<totfact> 0.27303661E-04</totfact>
</mgrwt>
<rwgt>
<wgt id='morphing_basis_vector_1'> +2.2367441e-07 </wgt>
<wgt id='morphing_basis_vector_2'> +1.5258699e-07 </wgt>
<wgt id='morphing_basis_vector_3'> +2.4721707e-07 </wgt>
<wgt id='morphing_basis_vector_4'> +1.7871822e-07 </wgt>
<wgt id='morphing_basis_vector_5'> +2.8553971e-07 </wgt>
</rwgt>
</event>
<event>
 4      1 +6.9060000e-13 6.74128900e+03 7.81860800e-03 7.18544000e-02
        2 -1    0    0  501    0 +0.0000000000e+00 +0.0000000000e+00 +3.1508975075e+03 3.1508975075e+03 0.0000000000e+00 0.0000e+00 -1.0000e+00
       -2 -1    0    0    0  501 -0.0000000000e+00 -0.0000000000e+00 -3.6057164959e+03 3.6057164959e+03 0.0000000000e+00 0.0000e+00 1.0000e+00
      -13  1    1    2    0    0 +5.4991906815e+02 -2.3558623621e+03 -2.5798167388e+03 3.5366584308e+03 0.0000000000e+00 0.0000e+00 1.0000e+00
       13  1    1    2    0    0 -5.4991906815e+02 +2.3558623621e+03 +2.1249977503e+03 3.2199555726e+03 0.0000000000e+00 0.0000e+00 -1.0000e+00
<mgrwt>
<rscale>  0 0.67412886E+04</rscale>
<asrwt>0</asrwt>
<pdfrwt beam="1">  1        2 0.48475346E+00 0.67412886E+04</pdfrwt>
<pdfrwt beam="2">  1       -2 0.55472561E+00 0.67412886E+04</pdfrwt>
<totfact> 0.45005893E-04</totfact>
</mgrwt>
<rwgt>
<wgt id='morphing_basis_vector_1'> +1.9279268e-07 </wgt>
<wgt id='morphing_basis_vector_2'> +1.3171622e-07 </wgt>
<wgt id='morphing_basis_vector_3'> +2.1308420e-07 </wgt>
<wgt id='morphing_basis_vector_4'> +1.5368206e-07 </wgt>
<wgt id='morphing_basis_vector_5'> +2.4585039e-07 </wgt>
</rwgt>
</event>
<event>
 4      1 +6.9060000e-13 6.99344500e+03 7.81860800e-03 7.16173300e-02
        2 -1    0    0  501    0 +0.0000000000e+00 +0.0000000000e+00 +3.8720595632e+03 3.8720595632e+03 0.0000000000e+00 0.0000e+00 -1.0000e+00
       -2 -1    0    0    0  501 -0.0000000000e+00 -0.0000000000e+00 -3.1577689665e+03 3.1577689665e+03 0.0000000000e+00 0.0000e+00 1.0000e+00
      -13  1    1    2    0    0 +2.0352735509e+03 -3.1709266434e+02 -2.4831846692e+03 3.2263124905e+03 0.0000000000e+00 0.0000e+00 1.0000e+00
       13  1    1    2    0    0 -2.0352735509e+03 +3.1709266434e+02 +3.1974752660e+03 3.8035160393e+03 0.0000000000e+00 0.0000e+00 -1.0000e+00
<mgrwt>
<rscale>  0 0.69934454E+04</rscale>
<asrwt>0</asrwt>
<pdfrwt beam="1">  1        2 0.59570147E+00 0.69934454E+04</pdfrwt>
<pdfrwt beam="2">  1       -2 0.48581061E+00 0.69934454E+04</pdfrwt>
<totfact> 0.41634406E-04</totfact>
</mgrwt>
<rwgt>
<wgt id='morphing_basis_vector_1'> +2.2305159e-07 </wgt>
<wgt id='morphing_basis_vector_2'> +1.5198843e-07 </wgt>
<wgt id='morphing_basis_vector_3'> +2.4648668e-07 </wgt>
<wgt id='morphing_basis_vector_4'> +1.7844564e-07 </wgt>
<wgt id='morphing_basis_vector_5'> +2.8485446e-07 </wgt>
</rwgt>
</event>
<event>
 4      1 +6.9060000e-13 6.82941100e+03 7.81860800e-03 7.17703800e-02
        2 -1    0    0  501    0 +0.0000000000e+00 +0.0000000000e+00 +4.5039011123e+03 4.5039011123e+03 0.0000000000e+00 0.0000e+00 1.0000e+00
       -2 -1    0    0    0  501 -0.0000000000e+00 -0.0000000000e+00 -2.5889142880e+03 2.5889142880e+03 0.0000000000e+00 0.0000e+00 -1.0000e+00
      -13  1    1    2    0    0 -2.0842475710e+03 -2.5280229282e+03 +1.9564792570e+03 3.8161235496e+03 0.0000000000e+00 0.0000e+00 1.0000e+00
       13  1    1    2    0    0 +2.0842475710e+03 +2.5280229282e+03 -4.1492432649e+01 3.2766918508e+03 0.0000000000e+00 0.0000e+00 -1.0000e+00
<mgrwt>
<rscale>  0 0.68294111E+04</rscale>
<asrwt>0</asrwt>
<pdfrwt beam="1">  1        2 0.69290786E+00 0.68294111E+04</pdfrwt>
<pdfrwt beam="2">  1       -2 0.39829451E+00 0.68294111E+04</pdfrwt>
<totfact> 0.44656806E-04</totfact>
</mgrwt>
<rwgt>
<wgt id='morphing_basis_vector_1'> +2.2233185e-07 </wgt>
<wgt id='morphing_basis_vector_2'> +1.9530369e-07 </wgt>
<wgt id='morphing_basis_vector_3'> +2.5602311e-07 </wgt>
<wgt id='morphing_basis_vector_4'> +1.2056826e-07 </wgt>
<wgt id='morphing_basis_vector_5'> +2.5550111e-07 </wgt>
</rwgt>
</event>
<event>
 4      1 +6.9060000e-13 6.90223900e+03 7.81860800e-03 7.17019000e-02
        2 -1    0    0  501    0 +0.0000000000e+00 +0.0000000000e+00 +4.2633945682e+03 4.2633945682e+03 0.0000000000e+00 0.0000e+00 -1.0000e+00
       -2 -1    0    0    0  501 -0.0000000000e+00 -0.0000000000e+00 -2.7936014244e+03 2.7936014244e+03 0.0000000000e+00 0.0000e+00 1.0000e+00
      -13  1    1    2    0    0 -1.9476024525e+02 +3.4421357058e+03 +8.9327411375e+02 3.5614840183e+03 0.0000000000e+00 0.0000e+00 1.0000e+00
       13  1    1    2    0    0 +1.9476024525e+02 -3.4421357058e+03 +5.7651903011e+02 3.4955119743e+03 0.0000000000e+00 0.0000e+00 -1.0000e+00
<mgrwt>
<rscale>  0 0.69022388E+04</rscale>
<asrwt>0</asrwt>
<pdfrwt beam="1">  1        2 0.65590685E+00 0.69022388E+04</pdfrwt>
<pdfrwt beam="2">  1       -2 0.42978484E+00 0.69022388E+04</pdfrwt>
<totfact> 0.47533328E-04</totfact>
</mgrwt>
<rwgt>
<wgt id='morphing_basis_vector_1'> +2.2070959e-07 </wgt>
<wgt id='morphing_basis_vector_2'> +1.7077237e-07 </wgt>
<wgt id='morphing_basis_vector_3'> +2.4870547e-07 </wgt>
<wgt id='morphing_basis_vector_4'> +1.4990267e-07 </wgt>
<wgt id='morphing_basis_vector_5'> +2.6862457e-07 </wgt>
</rwgt>
</event>
<event>
 4      1 +6.9060000e-13 7.41076700e+03 7.81860800e-03 7.12462800e-02
        2 -1    0    0  501    0 +0.0000000000e+00 +0.0000000000e+00 +4.2229649134e+03 4.2229649134e+03 0.0000000000e+00 0.0000e+00 1.0000e+00
       -2 -1    0    0    0  501 -0.0000000000e+00 -0.0000000000e+00 -3.2512390869e+03 3.2512390869e+03 0.0000000000e+00 0.0000e+00 -1.0000e+00
      -13  1    1    2    0    0 +9.1663134676e+02 -1.2334623784e+03 +3.8864046777e+03 4.1792085117e+03 0.0000000000e+00 0.0000e+00 1.0000e+00
       13  1    1    2    0    0 -9.1663134676e+02 +1.2334623784e+03 -2.9146788512e+03 3.2949954887e+03 0.0000000000e+00 0.0000e+00 -1.0000e+00
<mgrwt>
<rscale>  0 0.74107675E+04</rscale>
<asrwt>0</asrwt>
<pdfrwt beam="1">  1        2 0.64968691E+00 0.74107675E+04</pdfrwt>
<pdfrwt beam="2">  1       -2 0.50019063E+00 0.74107675E+04</pdfrwt>
<totfact> 0.15629251E-04</totfact>
</mgrwt>
<rwgt>
<wgt id='morphing_basis_vector_1'> +3.8324172e-07 </wgt>
<wgt id='morphing_basis_vector_2'> +4.9116562e-07 </wgt>
<wgt id='morphing_basis_vector_3'> +4.7830050e-07 </wgt>
<wgt id='morphing_basis_vector_4'> +6.0116835e-09 </wgt>
<wgt id='morphing_basis_vector_5'> +3.4083155e-07 </wgt>
</rwgt>
</event>
<event>
 4      1 +6.9060000e-13 6.85809200e+03 7.81860800e-03 7.17433100e-02
        2 -1    0    0  501    0 +0.0000000000e+00 +0.0000000000e+00 +2.1283239022e+03 2.1283239022e+03 0.0000000000e+00 0.0000e+00 1.0000e+00
       -2 -1    0    0    0  501 -0.0000000000e+00 -0.0000000000e+00 -5.5247026680e+03 5.5247026680e+03 0.0000000000e+00 0.0000e+00 -1.0000e+00
      -13  1    1    2    0    0 -9.7157520397e+02 +2.6097515110e+03 +5.3463723566e+02 2.8355948758e+03 0.0000000000e+00 0.0000e+00 1.0000e+00
       13  1    1    2    0    0 +9.7157520397e+02 -2.6097515110e+03 -3.9310160014e+03 4.8174316943e+03 0.0000000000e+00 0.0000e+00 -1.0000e+00
<mgrwt>
<rscale>  0 0.68580921E+04</rscale>
<asrwt>0</asrwt>
<pdfrwt beam="1">  1        2 0.32743445E+00 0.68580921E+04</pdfrwt>
<pdfrwt beam="2">  1       -2 0.84995426E+00 0.68580921E+04</pdfrwt>
<totfact> 0.26080598E-04</totfact>
</mgrwt>
<rwgt>
<wgt id='morphing_basis_vector_1'> +2.5322011e-07 </wgt>
<wgt id='morphing_basis_vector_2'> +2.7823047e-07 </wgt>
<wgt id='morphing_basis_vector_3'> +3.0480743e-07 </wgt>
<wgt id='morphing_basis_vector_4'> +6.4438555e-08 </wgt>
<wgt id='morphing_basis_vector_5'> +2.5492582e-07 </wgt>
</rwgt>
</event>
<event>
 4      1 +6.9060000e-13 6.86801300e+03 7.81860800e-03 7.17339700e-02
        2 -1    0    0  501    0 +0.0000000000e+00 +0.0000000000e+00 +5.5858375107e+03 5.5858375107e+03 0.0000000000e+00 0.0000e+00 -1.0000e+00
       -2 -1    0    0    0  501 -0.0000000000e+00 -0.0000000000e+00 -2.1111249148e+03 2.1111249148e+03 0.0000000000e+00 0.0000e+00 1.0000e+00
      -13  1    1    2    0    0 -2.6614735407e+03 +1.6015603299e+03 +9.6400115722e+01 3.1076888326e+03 0.0000000000e+00 0.0000e+00 1.0000e+00
       13  1    1    2    0    0 +2.6614735407e+03 -1.6015603299e+03 +3.3783124801e+03 4.5892735930e+03 0.0000000000e+00 0.0000e+00 -1.0000e+00
<mgrwt>
<rscale>  0 0.68680130E+04</rscale>
<asrwt>0</asrwt>
<pdfrwt beam="1">  1        2 0.85935961E+00 0.68680130E+04</pdfrwt>
<pdfrwt beam="2">  1       -2 0.32478845E+00 0.68680130E+04</pdfrwt>
<totfact> 0.38033865E-05</totfact>
</mgrwt>
<rwgt>
<wgt id='morphing_basis_vector_1'> +2.0875233e-07 </wgt>
<wgt id='morphing_basis_vector_2'> +1.4505482e-07 </wgt>
<wgt id='morphing_basis_vector_3'> +2.3132596e-07 </wgt>
<wgt id='morphing_basis_vector_4'> +1.6328058e-07 </wgt>
<wgt id='morphing_basis_vector_5'> +2.6470371e-07 </wgt>
</rwgt>
</event>
<event>
 4      1 +6.9060000e-13 6.79420200e+03 7.81860800e-03 7.18038000e-02
        2 -1    0    0  501    0 +0.0000000000e+00 +0.0000000000e+00 +4.0226246305e+03 4.0226246305e+03 0.0000000000e+00 0.0000e+00 1.0000e+00
       -2 -1    0    0    0  501 -0.0000000000e+00 -0.0000000000e+00 -2.8688470370e+03 2.8688470370e+03 0.0000000000e+00 0.0000e+00 -1.0000e+00
      -13  1    1    2    0    0 -3.1250365718e+03 -3.8201070230e+02 +1.8712891127e+03 3.6624457259e+03 0.0000000000e+00 0.0000e+00 -1.0000e+00
       13  1    1    2    0    0 +3.1250365718e+03 +3.8201070230e+02 -7.1751151920e+02 3.2290259417e+03 0.0000000000e+00 0.0000e+00 1.0000e+00
<mgrwt>
<rscale>  0 0.67942019E+04</rscale>
<asrwt>0</asrwt>
<pdfrwt beam="1">  1        2 0.61886533E+00 0.67942019E+04</pdfrwt>
<pdfrwt beam="2">  1       -2 0.44136108E+00 0.67942019E+04</pdfrwt>
<totfact> 0.65798314E-04</totfact>
</mgrwt>
<rwgt>
<wgt id='morphing_basis_vector_1'> +2.2433591e-07 </wgt>
<wgt id='morphing_basis_vector_2'> +2.1051960e-07 </wgt>
<wgt id='morphing_basis_vector_3'> +2.6150318e-07 </wgt>
<wgt id='morphing_basis_vector_4'> +1.0406714e-07 </wgt>
<wgt id='morphing_basis_vector_5'> +2.4908207e-07 </wgt>
</rwgt>
</event>
<event>
 4      1 +6.9060000e-13 7.39916500e+03 7.81860800e-03 7.12562600e-02
        2 -1    0    0  501    0 +0.0000000000e+00 +0.0000000000e+00 +4.0412852754e+03 4.0412852754e+03 0.0000000000e+00 0.0000e+00 1.0000e+00
       -2 -1    0    0    0  501 -0.0000000000e+00 -0.0000000000e+00 -3.3867720838e+03 3.3867720838e+03 0.0000000000e+00 0.0000e+00 -1.0000e+00
      -13  1    1    2    0    0 -2.3226525007e+03 +2.3676405894e+03 -1.3181906369e+03 3.5690423302e+03 0.0000000000e+00 0.0000e+00 -1.0000e+00
       13  1    1    2    0    0 +2.3226525007e+03 -2.3676405894e+03 +1.9727038285e+03 3.8590150291e+03 0.0000000000e+00 0.0000e+00 1.0000e+00
<mgrwt>
<rscale>  0 0.73991654E+04</rscale>
<asrwt>0</asrwt>
<pdfrwt beam="1">  1        2 0.62173620E+00 0.73991654E+04</pdfrwt>
<pdfrwt beam="2">  1       -2 0.52104186E+00 0.73991654E+04</pdfrwt>
<totfact> 0.15901841E-04</totfact>
</mgrwt>
<rwgt>
<wgt id='morphing_basis_vector_1'> +2.8093825e-07 </wgt>
<wgt id='morphing_basis_vector_2'> +1.9495501e-07 </wgt>
<wgt id='morphing_basis_vector_3'> +3.1138664e-07 </wgt>
<wgt id='morphing_basis_vector_4'> +2.2036011e-07 </wgt>
<wgt id='morphing_basis_vector_5'> +3.5677871e-07 </wgt>
</rwgt>
</event>
<event>
 4      1 +6.9060000e-13 7.01538800e+03 7.81860800e-03 7.15971800e-02
        2 -1    0    0  501    0 +0.0000000000e+00 +0.0000000000e+00 +5.1438151124e+03 5.1438151124e+03 0.0000000000e+00 0.0000e+00 -1.0000e+00
       -2 -1    0    0    0  501 -0.0000000000e+00 -0.0000000000e+00 -2.3919829717e+03 2.3919829717e+03 0.0000000000e+00 0.0000e+00 1.0000e+00
      -13  1    1    2    0    0 +1.7270728844e+03 +3.0450393024e+03 +1.6133880071e+03 3.8546161888e+03 0.0000000000e+00 0.0000e+00 1.0000e+00
       13  1    1    2    0    0 -1.7270728844e+03 -3.0450393024e+03 +1.1384441335e+03 3.6811818953e+03 0.0000000000e+00 0.0000e+00 -1.0000e+00
<mgrwt>
<rscale>  0 0.70153883E+04</rscale>
<asrwt>0</asrwt>
<pdfrwt beam="1">  1        2 0.79135617E+00 0.70153883E+04</pdfrwt>
<pdfrwt beam="2">  1       -2 0.36799738E+00 0.70153883E+04</pdfrwt>
<totfact> 0.11400298E-04</totfact>
</mgrwt>
<rwgt>
<wgt id='morphing_basis_vector_1'> +2.3616131e-07 </wgt>
<wgt id='morphing_basis_vector_2'> +1.8413213e-07 </wgt>
<wgt id='morphing_basis_vector_3'> +2.6647888e-07 </wgt>
<wgt id='morphing_basis_vector_4'> +1.5860904e-07 </wgt>
<wgt id='morphing_basis_vector_5'> +2.8659039e-07 </wgt>
</rwgt>
</event>
<event>
 4      1 +6.9060000e-13 7.09199900e+03 7.81860800e-03 7.15273900e-02
        2 -1    0    0  501    0 +0.0000000000e+00 +0.0000000000e+00 +4.1745414404e+03 4.1745414404e+03 0.0000000000e+00 0.0000e+00 -1.0000e+00
       -2 -1    0    0    0  501 -0.0000000000e+00 -0.0000000000e+00 -3.0120941094e+03 3.0120941094e+03 0.0000000000e+00 0.0000e+00 1.0000e+00
      -13  1    1    2    0    0 -6.5925413361e+00 +1.2532231120e+03 -2.7801933484e+03 3.0496043489e+03 0.0000000000e+00 0.0000e+00 1.0000e+00
       13  1    1    2    0    0 +6.5925413361e+00 -1.2532231120e+03 +3.9426406795e+03 4.1370312009e+03 0.0000000000e+00 0.0000e+00 -1.0000e+00
<mgrwt>
<rscale>  0 0.70919988E+04</rscale>
<asrwt>0</asrwt>
<pdfrwt beam="1">  1        2 0.64223714E+00 0.70919988E+04</pdfrwt>
<pdfrwt beam="2">  1       -2 0.46339910E+00 0.70919988E+04</pdfrwt>
<totfact> 0.33116039E-04</totfact>
</mgrwt>
<rwgt>
<wgt id='morphing_basis_vector_1'> +2.3577340e-07 </wgt>
<wgt id='morphing_basis_vector_2'> +1.6044597e-07 </wgt>
<wgt id='morphing_basis_vector_3'> +2.6051555e-07 </wgt>
<wgt id='morphing_basis_vector_4'> +1.8894523e-07 </wgt>
<wgt id='morphing_basis_vector_5'> +3.0129863e-07 </wgt>
</rwgt>
</event>
<event>
 4      1 +6.9060000e-13 6.85787900e+03 7.81860800e-03 7.17435100e-02
        2 -1    0    0  501    0 +0.0000000000e+00 +0.0000000000e+00 +3.8135473722e+03 3.8135473722e+03 0.0000000000e+00 0.0000e+00 -1.0000e+00
       -2 -1    0    0    0  501 -0.0000000000e+00 -0.0000000000e+00 -3.0831201535e+03 3.0831201535e+03 0.0000000000e+00 0.0000e+00 1.0000e+00
      -13  1    1    2    0    0 +2.3581688995e+03 +1.5648372684e+03 -1.5816983160e+03 3.2421359931e+03 0.0000000000e+00 0.0000e+00 1.0000e+00
       13  1    1    2    0    0 -2.3581688995e+03 -1.5648372684e+03 +2.3121255346e+03 3.6545315326e+03 0.0000000000e+00 0.0000e+00 -1.0000e+00
<mgrwt>
<rscale>  0 0.68578786E+04</rscale>
<asrwt>0</asrwt>
<pdfrwt beam="1">  1        2 0.58669960E+00 0.68578786E+04</pdfrwt>
<pdfrwt beam="2">  1       -2 0.47432618E+00 0.68578786E+04</pdfrwt>
<totfact> 0.57009664E-04</totfact>
</mgrwt>
<rwgt>
<wgt id='morphing_basis_vector_1'> +2.0683294e-07 </wgt>
<wgt id='morphing_basis_vector_2'> +1.4217021e-07 </wgt>
<wgt id='morphing_basis_vector_3'> +2.2882989e-07 </wgt>
<wgt id='morphing_basis_vector_4'> +1.6380105e-07 </wgt>
<wgt id='morphing_basis_vector_5'> +2.6326719e-07 </wgt>
</rwgt>
</event>
<event>
 4      1 +6.9060000e-13 7.12419200e+03 7.81860800e-03 7.14983400e-02
        2 -1    0    0  501    0 +0.0000000000e+00 +0.0000000000e+00 +2.2693153293e+03 2.2693153293e+03 0.0000000000e+00 0.0000e+00 -1.0000e+00
       -2 -1    0    0    0  501 -0.0000000000e+00 -0.0000000000e+00 -5.5913467861e+03 5.5913467861e+03 0.0000000000e+00 0.0000e+00 1.0000e+00
      -13  1    1    2    0    0 +2.2068601901e+03 -1.1588166080e+03 -4.4687640449e+03 5.1169268041e+03 0.0000000000e+00 0.0000e+00 1.0000e+00
       13  1    1    2    0    0 -2.2068601901e+03 +1.1588166080e+03 +1.1467325881e+03 2.7437353113e+03 0.0000000000e+00 0.0000e+00 -1.0000e+00
<mgrwt>
<rscale>  0 0.71241923E+04</rscale>
<asrwt>0</asrwt>
<pdfrwt beam="1">  1        2 0.34912544E+00 0.71241923E+04</pdfrwt>
<pdfrwt beam="2">  1       -2 0.86020718E+00 0.71241923E+04</pdfrwt>
<totfact> 0.17789948E-04</totfact>
</mgrwt>
<rwgt>
<wgt id='morphing_basis_vector_1'> +2.4033736e-07 </wgt>
<wgt id='morphing_basis_vector_2'> +1.6414231e-07 </wgt>
<wgt id='morphing_basis_vector_3'> +2.6570514e-07 </wgt>
<wgt id='morphing_basis_vector_4'> +1.9184563e-07 </wgt>
<wgt id='morphing_basis_vector_5'> +3.0676845e-07 </wgt>
</rwgt>
</event>
<event>
 4      1 +6.9060000e-13 6.71190100e+03 7.81860800e-03 7.18827200e-02
        2 -1    0    0  501    0 +0.0000000000e+00 +0.0000000000e+00 +2.9306699749e+03 2.9306699749e+03 0.0000000000e+00 0.0000e+00 1.0000e+00
       -2 -1    0    0    0  501 -0.0000000000e+00 -0.0000000000e+00 -3.8429445652e+03 3.8429445652e+03 0.0000000000e+00 0.0000e+00 -1.0000e+00
      -13  1    1    2    0    0 +2.6373250206e+03 +1.9293656937e+03 -1.2276711128e+03 3.4907179212e+03 0.0000000000e+00 0.0000e+00 -1.0000e+00
       13  1    1    2    0    0 -2.6373250206e+03 -1.9293656937e+03 +3.1539652238e+02 3.2828966189e+03 0.0000000000e+00 0.0000e+00 1.0000e+00
<mgrwt>
<rscale>  0 0.67119006E+04</rscale>
<asrwt>0</asrwt>
<pdfrwt beam="1">  1        2 0.45087230E+00 0.67119006E+04</pdfrwt>
<pdfrwt beam="2">  1       -2 0.59122224E+00 0.67119006E+04</pdfrwt>
<totfact> 0.33352826E-04</totfact>
</mgrwt>
<rwgt>
<wgt id='morphing_basis_vector_1'> +1.9214389e-07 </wgt>
<wgt id='morphing_basis_vector_2'> +1.3731551e-07 </wgt>
<wgt id='morphing_basis_vector_3'> +2.1378984e-07 </wgt>
<wgt id='morphing_basis_vector_4'> +1.4526092e-07 </wgt>
<wgt id='morphing_basis_vector_5'> +2.4109916e-07 </wgt>
</rwgt>
</event>
<event>
 4      1 +6.9060000e-13 6.70482500e+03 7.81860800e-03 7.18895500e-02
        2 -1    0    0  501    0 +0.0000000000e+00 +0.0000000000e+00 +3.6890909305e+03 3.6890909305e+03 0.0000000000e+00 0.0000e+00 1.0000e+00
       -2 -1    0    0    0  501 -0.0000000000e+00 -0.0000000000e+00 -3.0464606393e+03 3.0464606393e+03 0.0000000000e+00 0.0000e+00 -1.0000e+00
      -13  1    1    2    0    0 -1.6271421454e+03 -3.7195597511e+00 +3.2657991854e+03 3.6487052109e+03 0.0000000000e+00 0.0000e+00 1.0000e+00
       13  1    1    2    0    0 +1.6271421454e+03 +3.7195597511e+00 -2.6231688941e+03 3.0868463589e+03 0.0000000000e+00 0.0000e+00 -1.0000e+00
<mgrwt>
<rscale>  0 0.67048252E+04</rscale>
<asrwt>0</asrwt>
<pdfrwt beam="1">  1        2 0.56755245E+00 0.67048252E+04</pdfrwt>
<pdfrwt beam="2">  1       -2 0.46868625E+00 0.67048252E+04</pdfrwt>
<totfact> 0.79441012E-04</totfact>
</mgrwt>
<rwgt>
<wgt id='morphing_basis_vector_1'> +2.5559325e-07 </wgt>
<wgt id='morphing_basis_vector_2'> +3.2530004e-07 </wgt>
<wgt id='morphing_basis_vector_3'> +3.1810297e-07 </wgt>
<wgt id='morphing_basis_vector_4'> +6.9478191e-09 </wgt>
<wgt id='morphing_basis_vector_5'> +2.2848257e-07 </wgt>
</rwgt>
</event>
<event>
 4      1 +6.9060000e-13 6.67982500e+03 7.81860800e-03 7.19137800e-02
        2 -1    0    0  501    0 +0.0000000000e+00 +0.0000000000e+00 +2.3415340518e+03 2.3415340518e+03 0.0000000000e+00 0.0000e+00 -1.0000e+00
       -2 -1    0    0    0  501 -0.0000000000e+00 -0.0000000000e+00 -4.7639778170e+03 4.7639778170e+03 0.0000000000e+00 0.0000e+00 1.0000e+00
      -13  1    1    2    0    0 +1.8626239081e+03 +1.2915060999e+03 -3.8206426159e+03 4.4423716444e+03 0.0000000000e+00 0.0000e+00 1.0000e+00
       13  1    1    2    0    0 -1.8626239081e+03 -1.2915060999e+03 +1.3981988506e+03 2.6631402244e+03 0.0000000000e+00 0.0000e+00 -1.0000e+00
<mgrwt>
<rscale>  0 0.66798252E+04</rscale>
<asrwt>0</asrwt>
<pdfrwt beam="1">  1        2 0.36023601E+00 0.66798252E+04</pdfrwt>
<pdfrwt beam="2">  1       -2 0.73291967E+00 0.66798252E+04</pdfrwt>
<totfact> 0.23155550E-04</totfact>
</mgrwt>
<rwgt>
<wgt id='morphing_basis_vector_1'> +1.8580461e-07 </wgt>
<wgt id='morphing_basis_vector_2'> +1.2679055e-07 </wgt>
<wgt id='morphing_basis_vector_3'> +2.0531317e-07 </wgt>
<wgt id='morphing_basis_vector_4'> +1.4828337e-07 </wgt>
<wgt id='morphing_basis_vector_5'> +2.3700262e-07 </wgt>
</rwgt>
</event>
<event>
 4      1 +6.9060000e-13 7.34908500e+03 7.81860800e-03 7.12995600e-02
        2 -1    0    0  501    0 +0.0000000000e+00 +0.0000000000e+00 +4.1836148433e+03 4.1836148433e+03 0.0000000000e+00 0.0000e+00 -1.0000e+00
       -2 -1    0    0    0  501 -0.0000000000e+00 -0.0000000000e+00 -3.2274153716e+03 3.2274153716e+03 0.0000000000e+00 0.0000e+00 1.0000e+00
      -13  1    1    2    0    0 +2.0180002427e+02 -3.0538055240e+03 -1.5727114304e+03 3.4409116047e+03 0.0000000000e+00 0.0000e+00 1.0000e+00
       13  1    1    2    0    0 -2.0180002427e+02 +3.0538055240e+03 +2.5289109021e+03 3.9701186102e+03 0.0000000000e+00 0.0000e+00 -1.0000e+00
<mgrwt>
<rscale>  0 0.73490851E+04</rscale>
<asrwt>0</asrwt>
<pdfrwt beam="1">  1        2 0.64363305E+00 0.73490851E+04</pdfrwt>
<pdfrwt beam="2">  1       -2 0.49652544E+00 0.73490851E+04</pdfrwt>
<totfact> 0.18176910E-04</totfact>
</mgrwt>
<rwgt>
<wgt id='morphing_basis_vector_1'> +2.7270155e-07 </wgt>
<wgt id='morphing_basis_vector_2'> +1.8762435e-07 </wgt>
<wgt id='morphing_basis_vector_3'> +3.0186289e-07 </wgt>
<wgt id='morphing_basis_vector_4'> +2.1598850e-07 </wgt>
<wgt id='morphing_basis_vector_5'> +3.4733343e-07 </wgt>
</rwgt>
</event>
<event>
 4      1 +6.9060000e-13 7.27055600e+03 7.81860800e-03 7.13681400e-02
        2 -1    0    0  501    0 +0.0000000000e+00 +0.0000000000e+00 +4.4671501116e+03 4.4671501116e+03 0.0000000000e+00 0.0000e+00 -1.0000e+00
       -2 -1    0    0    0  501 -0.0000000000e+00 -0.0000000000e+00 -2.9583172003e+03 2.9583172003e+03 0.0000000000e+00 0.0000e+00 1.0000e+00
      -13  1    1    2    0    0 -1.5315956765e+03 +1.8594059354e+03 +3.5349359574e+03 4.2777269633e+03 0.0000000000e+00 0.0000e+00 1.0000e+00
       13  1    1    2    0    0 +1.5315956765e+03 -1.8594059354e+03 -2.0261030462e+03 3.1477403487e+03 0.0000000000e+00 0.0000e+00 -1.0000e+00
<mgrwt>
<rscale>  0 0.72705562E+04</rscale>
<asrwt>0</asrwt>
<pdfrwt beam="1">  1        2 0.68725386E+00 0.72705562E+04</pdfrwt>
<pdfrwt beam="2">  1       -2 0.45512572E+00 0.72705562E+04</pdfrwt>
<totfact> 0.19562597E-04</totfact>
</mgrwt>
<rwgt>
<wgt id='morphing_basis_vector_1'> +3.4177615e-07 </wgt>
<wgt id='morphing_basis_vector_2'> +4.1601370e-07 </wgt>
<wgt id='morphing_basis_vector_3'> +4.2124215e-07 </wgt>
<wgt id='morphing_basis_vector_4'> +3.4136362e-08 </wgt>
<wgt id='morphing_basis_vector_5'> +3.1813686e-07 </wgt>
</rwgt>
</event>
<event>
 4      1 +6.9060000e-13 7.27369800e+03 7.81860800e-03 7.13653800e-02
        2 -1    0    0  501    0 +0.0000000000e+00 +0.0000000000e+00 +4.3045461466e+03 4.3045461466e+03 0.0000000000e+00 0.0000e+00 -1.0000e+00
       -2 -1    0    0    0  501 -0.0000000000e+00 -0.0000000000e+00 -3.0727210397e+03 3.0727210397e+03 0.0000000000e+00 0.0000e+00 1.0000e+00
      -13  1    1    2    0    0 +3.1972350141e+02 -1.8384772188e+03 -2.5501455827e+03 3.1599784959e+03 0.0000000000e+00 0.0000e+00 1.0000e+00
       13  1    1    2    0    0 -3.1972350141e+02 +1.8384772188e+03 +3.7819706896e+03 4.2172886904e+03 0.0000000000e+00 0.0000e+00 -1.0000e+00
<mgrwt>
<rscale>  0 0.72736977E+04</rscale>
<asrwt>0</asrwt>
<pdfrwt beam="1">  1        2 0.66223786E+00 0.72736977E+04</pdfrwt>
<pdfrwt beam="2">  1       -2 0.47272632E+00 0.72736977E+04</pdfrwt>
<totfact> 0.21159166E-04</totfact>
</mgrwt>
<rwgt>
<wgt id='morphing_basis_vector_1'> +2.6088820e-07 </wgt>
<wgt id='morphing_basis_vector_2'> +1.7766719e-07 </wgt>
<wgt id='morphing_basis_vector_3'> +2.8833624e-07 </wgt>
<wgt id='morphing_basis_vector_4'> +2.0898977e-07 </wgt>
<wgt id='morphing_basis_vector_5'> +3.3342578e-07 </wgt>
</rwgt>
</event>
<event>
 4      1 +6.9060000e-13 6.92420400e+03 7.81860800e-03 7.16814100e-02
        2 -1    0    0  501    0 +0.0000000000e+00 +0.0000000000e+00 +2.3823447359e+03 2.3823447359e+03 0.0000000000e+00 0.0000e+00 -1.0000e+00
       -2 -1    0    0    0  501 -0.0000000000e+00 -0.0000000000e+00 -5.0312416162e+03 5.0312416162e+03 0.0000000000e+00 0.0000e+00 1.0000e+00
      -13  1    1    2    0    0 -1.3528097968e+03 +2.3419826630e+03 -3.6384919808e+03 4.5336079489e+03 0.0000000000e+00 0.0000e+00 1.0000e+00
       13  1    1    2    0    0 +1.3528097968e+03 -2.3419826630e+03 +9.8959510045e+02 2.8799784032e+03 0.0000000000e+00 0.0000e+00 -1.0000e+00
<mgrwt>
<rscale>  0 0.69242045E+04</rscale>
<asrwt>0</asrwt>
<pdfrwt beam="1">  1        2 0.36651458E+00 0.69242045E+04</pdfrwt>
<pdfrwt beam="2">  1       -2 0.77403717E+00 0.69242045E+04</pdfrwt>
<totfact> 0.32140076E-04</totfact>
</mgrwt>
<rwgt>
<wgt id='morphing_basis_vector_1'> +2.1473029e-07 </wgt>
<wgt id='morphing_basis_vector_2'> +1.4714009e-07 </wgt>
<wgt id='morphing_basis_vector_3'> +2.3747212e-07 </wgt>
<wgt id='morphing_basis_vector_4'> +1.7068415e-07 </wgt>
<wgt id='morphing_basis_vector_5'> +2.7365553e-07 </wgt>
</rwgt>
</event>
<event>
 4      1 +6.9060000e-13 6.90596200e+03 7.81860800e-03 7.16984200e-02
        2 -1    0    0  501    0 +0.0000000000e+00 +0.0000000000e+00 +4.1076853227e+03 4.1076853227e+03 0.0000000000e+00 0.0000e+00 -1.0000e+00
       -2 -1    0    0    0  501 -0.0000000000e+00 -0.0000000000e+00 -2.9026271088e+03 2.9026271088e+03 0.0000000000e+00 0.0000e+00 1.0000e+00
      -13  1    1    2    0    0 -2.6024254275e+02 -1.5345897395e+03 -2.5263142284e+03 2.9673145149e+03 0.0000000000e+00 0.0000e+00 1.0000e+00
       13  1    1    2    0    0 +2.6024254275e+02 +1.5345897395e+03 +3.7313724423e+03 4.0429979165e+03 0.0000000000e+00 0.0000e+00 -1.0000e+00
<mgrwt>
<rscale>  0 0.69059623E+04</rscale>
<asrwt>0</asrwt>
<pdfrwt beam="1">  1        2 0.63195158E+00 0.69059623E+04</pdfrwt>
<pdfrwt beam="2">  1       -2 0.44655802E+00 0.69059623E+04</pdfrwt>
<totfact> 0.50662117E-04</totfact>
</mgrwt>
<rwgt>
<wgt id='morphing_basis_vector_1'> +2.1204692e-07 </wgt>
<wgt id='morphing_basis_vector_2'> +1.4432530e-07 </wgt>
<wgt id='morphing_basis_vector_3'> +2.3426982e-07 </wgt>
<wgt id='morphing_basis_vector_4'> +1.6981853e-07 </wgt>
<wgt id='morphing_basis_vector_5'> +2.7085660e-07 </wgt>
</rwgt>
</event>
<event>
 4      1 +6.9060000e-13 6.97092300e+03 7.81860800e-03 7.16380900e-02
        2 -1    0    0  501    0 +0.0000000000e+00 +0.0000000000e+00 +3.2785618262e+03 3.2785618262e+03 0.0000000000e+00 0.0000e+00 1.0000e+00
       -2 -1    0    0    0  501 -0.0000000000e+00 -0.0000000000e+00 -3.7054183667e+03 3.7054183667e+03 0.0000000000e+00 0.0000e+00 -1.0000e+00
      -13  1    1    2    0    0 +2.5634455571e+03 +1.5198129880e+03 -2.0243975701e+03 3.6026754176e+03 0.0000000000e+00 0.0000e+00 -1.0000e+00
       13  1    1    2    0    0 -2.5634455571e+03 -1.5198129880e+03 +1.5975410295e+03 3.3813047754e+03 0.0000000000e+00 0.0000e+00 1.0000e+00
<mgrwt>
<rscale>  0 0.69709234E+04</rscale>
<asrwt>0</asrwt>
<pdfrwt beam="1">  1        2 0.50439413E+00 0.69709234E+04</pdfrwt>
<pdfrwt beam="2">  1       -2 0.57006436E+00 0.69709234E+04</pdfrwt>
<totfact> 0.28038003E-04</totfact>
</mgrwt>
<rwgt>
<wgt id='morphing_basis_vector_1'> +2.2099007e-07 </wgt>
<wgt id='morphing_basis_vector_2'> +1.5236858e-07 </wgt>
<wgt id='morphing_basis_vector_3'> +2.4462690e-07 </wgt>
<wgt id='morphing_basis_vector_4'> +1.7445382e-07 </wgt>
<wgt id='morphing_basis_vector_5'> +2.8105351e-07 </wgt>
</rwgt>
</event>
<event>
 4      1 +6.9060000e-13 6.66876500e+03 7.81860800e-03 7.19245400e-02
        2 -1    0    0  501    0 +0.0000000000e+00 +0.0000000000e+00 +3.6752268467e+03 3.6752268467e+03 0.0000000000e+00 0.0000e+00 -1.0000e+00
       -2 -1    0    0    0  501 -0.0000000000e+00 -0.0000000000e+00 -3.0251486024e+03 3.0251486024e+03 0.0000000000e+00 0.0000e+00 1.0000e+00
      -13  1    1    2    0    0 -3.1326810476e+03 +4.5614283413e+02 -7.2699160877e+02 3.2481184755e+03 0.0000000000e+00 0.0000e+00 1.0000e+00
       13  1    1    2    0    0 +3.1326810476e+03 -4.5614283413e+02 +1.3770698531e+03 3.4522569736e+03 0.0000000000e+00 0.0000e+00 -1.0000e+00
<mgrwt>
<rscale>  0 0.66687652E+04</rscale>
<asrwt>0</asrwt>
<pdfrwt beam="1">  1        2 0.56541951E+00 0.66687652E+04</pdfrwt>
<pdfrwt beam="2">  1       -2 0.46540748E+00 0.66687652E+04</pdfrwt>
<totfact> 0.86226935E-04</totfact>
</mgrwt>
<rwgt>
<wgt id='morphing_basis_vector_1'> +1.8639795e-07 </wgt>
<wgt id='morphing_basis_vector_2'> +1.3129026e-07 </wgt>
<wgt id='morphing_basis_vector_3'> +2.0693431e-07 </wgt>
<wgt id='morphing_basis_vector_4'> +1.4340514e-07 </wgt>
<wgt id='morphing_basis_vector_5'> +2.3510583e-07 </wgt>
</rwgt>
</event>
<event>
 4      1 +6.9060000e-13 6.82202100e+03 7.81860800e-03 7.17773800e-02
        2 -1    0    0  501    0 +0.0000000000e+00 +0.0000000000e+00 +3.5937698708e+03 3.5937698708e+03 0.0000000000e+00 0.0000e+00 -1.0000e+00
       -2 -1    0    0    0  501 -0.0000000000e+00 -0.0000000000e+00 -3.2375452763e+03 3.2375452763e+03 0.0000000000e+00 0.0000e+00 1.0000e+00
      -13  1    1    2    0    0 -3.2371046251e+03 +9.7940559636e+02 -2.6623879246e+02 3.3924865174e+03 0.0000000000e+00 0.0000e+00 1.0000e+00
       13  1    1    2    0    0 +3.2371046251e+03 -9.7940559636e+02 +6.2246338692e+02 3.4388286297e+03 0.0000000000e+00 0.0000e+00 -1.0000e+00
<mgrwt>
<rscale>  0 0.68220210E+04</rscale>
<asrwt>0</asrwt>
<pdfrwt beam="1">  1        2 0.55288767E+00 0.68220210E+04</pdfrwt>
<pdfrwt beam="2">  1       -2 0.49808389E+00 0.68220210E+04</pdfrwt>
<totfact> 0.56403813E-04</totfact>
</mgrwt>
<rwgt>
<wgt id='morphing_basis_vector_1'> +2.0650646e-07 </wgt>
<wgt id='morphing_basis_vector_2'> +1.5083673e-07 </wgt>
<wgt id='morphing_basis_vector_3'> +2.3056522e-07 </wgt>
<wgt id='morphing_basis_vector_4'> +1.5191228e-07 </wgt>
<wgt id='morphing_basis_vector_5'> +2.5708008e-07 </wgt>
</rwgt>
</event>
<event>
 4      1 +6.9060000e-13 7.50625200e+03 7.81860800e-03 7.11648400e-02
        2 -1    0    0  501    0 +0.0000000000e+00 +0.0000000000e+00 +2.6844951204e+03 2.6844951204e+03 0.0000000000e+00 0.0000e+00 1.0000e+00
       -2 -1    0    0    0  501 -0.0000000000e+00 -0.0000000000e+00 -5.2471527339e+03 5.2471527339e+03 0.0000000000e+00 0.0000e+00 -1.0000e+00
      -13  1    1    2    0    0 -3.3905529246e+03 +1.3404654432e+03 -2.2224549057e+03 4.2698949105e+03 0.0000000000e+00 0.0000e+00 -1.0000e+00
       13  1    1    2    0    0 +3.3905529246e+03 -1.3404654432e+03 -3.4020270782e+02 3.6617529438e+03 0.0000000000e+00 0.0000e+00 1.0000e+00
<mgrwt>
<rscale>  0 0.75062523E+04</rscale>
<asrwt>0</asrwt>
<pdfrwt beam="1">  1        2 0.41299926E+00 0.75062523E+04</pdfrwt>
<pdfrwt beam="2">  1       -2 0.80725425E+00 0.75062523E+04</pdfrwt>
<totfact> 0.18840259E-04</totfact>
</mgrwt>
<rwgt>
<wgt id='morphing_basis_vector_1'> +3.0017143e-07 </wgt>
<wgt id='morphing_basis_vector_2'> +2.1422155e-07 </wgt>
<wgt id='morphing_basis_vector_3'> +3.3413646e-07 </wgt>
<wgt id='morphing_basis_vector_4'> +2.2775369e-07 </wgt>
<wgt id='morphing_basis_vector_5'> +3.7743923e-07 </wgt>
</rwgt>
</event>
<event>
 4      1 +6.9060000e-13 6.66065000e+03 7.81860800e-03 7.19324400e-02
        2 -1    0    0  501    0 +0.0000000000e+00 +0.0000000000e+00 +2.2272897854e+03 2.2272897854e+03 0.0000000000e+00 0.0000e+00 -1.0000e+00
       -2 -1    0    0    0  501 -0.0000000000e+00 -0.0000000000e+00 -4.9796234037e+03 4.9796234037e+03 0.0000000000e+00 0.0000e+00 1.0000e+00
      -13  1    1    2    0    0 -1.4424585719e+03 -1.6238288047e+03 +1.3554743073e+03 2.5602377461e+03 0.0000000000e+00 0.0000e+00 -1.0000e+00
       13  1    1    2    0    0 +1.4424585719e+03 +1.6238288047e+03 -4.1078079256e+03 4.6466754430e+03 0.0000000000e+00 0.0000e+00 1.0000e+00
<mgrwt>
<rscale>  0 0.66606499E+04</rscale>
<asrwt>0</asrwt>
<pdfrwt beam="1">  1        2 0.34265997E+00 0.66606499E+04</pdfrwt>
<pdfrwt beam="2">  1       -2 0.76609591E+00 0.66606499E+04</pdfrwt>
<totfact> 0.39345539E-04</totfact>
</mgrwt>
<rwgt>
<wgt id='morphing_basis_vector_1'> +2.4161757e-07 </wgt>
<wgt id='morphing_basis_vector_2'> +2.9535013e-07 </wgt>
<wgt id='morphing_basis_vector_3'> +2.9781124e-07 </wgt>
<wgt id='morphing_basis_vector_4'> +2.2447355e-08 </wgt>
<wgt id='morphing_basis_vector_5'> +2.2383169e-07 </wgt>
</rwgt>
</event>
<event>
 4      1 +6.9060000e-13 7.20972200e+03 7.81860800e-03 7.14218800e-02
        2 -1    0    0  501    0 +0.0000000000e+00 +0.0000000000e+00 +3.5087239135e+03 3.5087239135e+03 0.0000000000e+00 0.0000e+00 1.0000e+00
       -2 -1    0    0    0  501 -0.0000000000e+00 -0.0000000000e+00 -3.7036323349e+03 3.7036323349e+03 0.0000000000e+00 0.0000e+00 -1.0000e+00
      -13  1    1    2    0    0 +1.1292162266e+03 +2.1791750074e+03 -2.7387010970e+03 3.6775558049e+03 0.0000000000e+00 0.0000e+00 -1.0000e+00
       13  1    1    2    0    0 -1.1292162266e+03 -2.1791750074e+03 +2.5437926756e+03 3.5348004435e+03 0.0000000000e+00 0.0000e+00 1.0000e+00
<mgrwt>
<rscale>  0 0.72097221E+04</rscale>
<asrwt>0</asrwt>
<pdfrwt beam="1">  1        2 0.53980368E+00 0.72097221E+04</pdfrwt>
<pdfrwt beam="2">  1       -2 0.56978959E+00 0.72097221E+04</pdfrwt>
<totfact> 0.18977775E-04</totfact>
</mgrwt>
<rwgt>
<wgt id='morphing_basis_vector_1'> +2.5202919e-07 </wgt>
<wgt id='morphing_basis_vector_2'> +1.7204552e-07 </wgt>
<wgt id='morphing_basis_vector_3'> +2.7862972e-07 </wgt>
<wgt id='morphing_basis_vector_4'> +2.0132586e-07 </wgt>
<wgt id='morphing_basis_vector_5'> +3.2179845e-07 </wgt>
</rwgt>
</event>
<event>
 4      1 +6.9060000e-13 7.26925400e+03 7.81860800e-03 7.13692900e-02
        2 -1    0    0  501    0 +0.0000000000e+00 +0.0000000000e+00 +2.4284012655e+03 2.4284012655e+03 0.0000000000e+00 0.0000e+00 -1.0000e+00
       -2 -1    0    0    0  501 -0.0000000000e+00 -0.0000000000e+00 -5.4400044545e+03 5.4400044545e+03 0.0000000000e+00 0.0000e+00 1.0000e+00
      -13  1    1    2    0    0 +9.5672315298e+02 +1.0192025026e+03 -5.1373936407e+03 5.3241812847e+03 0.0000000000e+00 0.0000e+00 1.0000e+00
       13  1    1    2    0    0 -9.5672315298e+02 -1.0192025026e+03 +2.1257904517e+03 2.5442244353e+03 0.0000000000e+00 0.0000e+00 -1.0000e+00
<mgrwt>
<rscale>  0 0.72692541E+04</rscale>
<asrwt>0</asrwt>
<pdfrwt beam="1">  1        2 0.37360020E+00 0.72692541E+04</pdfrwt>
<pdfrwt beam="2">  1       -2 0.83692375E+00 0.72692541E+04</pdfrwt>
<totfact> 0.20626686E-04</totfact>
</mgrwt>
<rwgt>
<wgt id='morphing_basis_vector_1'> +2.6020748e-07 </wgt>
<wgt id='morphing_basis_vector_2'> +1.7710231e-07 </wgt>
<wgt id='morphing_basis_vector_3'> +2.8755892e-07 </wgt>
<wgt id='morphing_basis_vector_4'> +2.0857486e-07 </wgt>
<wgt id='morphing_basis_vector_5'> +3.3261863e-07 </wgt>
</rwgt>
</event>
<event>
 4      1 +6.9060000e-13 7.10310200e+03 7.81860800e-03 7.15173500e-02
        2 -1    0    0  501    0 +0.0000000000e+00 +0.0000000000e+00 +4.6680677043e+03 4.6680677043e+03 0.0000000000e+00 0.0000e+00 1.0000e+00
       -2 -1    0    0    0  501 -0.0000000000e+00 -0.0000000000e+00 -2.7020845318e+03 2.7020845318e+03 0.0000000000e+00 0.0000e+00 -1.0000e+00
      -13  1    1    2    0    0 -8.7247597761e+02 +2.7101554426e+03 +3.1858642187e+03 4.2726909173e+03 0.0000000000e+00 0.0000e+00 1.0000e+00
       13  1    1    2    0    0 +8.7247597761e+02 -2.7101554426e+03 -1.2198810462e+03 3.0974613188e+03 0.0000000000e+00 0.0000e+00 -1.0000e+00
<mgrwt>
<rscale>  0 0.71031017E+04</rscale>
<asrwt>0</asrwt>
<pdfrwt beam="1">  1        2 0.71816426E+00 0.71031017E+04</pdfrwt>
<pdfrwt beam="2">  1       -2 0.41570531E+00 0.71031017E+04</pdfrwt>
<totfact> 0.22383809E-04</totfact>
</mgrwt>
<rwgt>
<wgt id='morphing_basis_vector_1'> +2.9313326e-07 </wgt>
<wgt id='morphing_basis_vector_2'> +3.2542316e-07 </wgt>
<wgt id='morphing_basis_vector_3'> +3.5376299e-07 </wgt>
<wgt id='morphing_basis_vector_4'> +7.0284759e-08 </wgt>
<wgt id='morphing_basis_vector_5'> +2.9309024e-07 </wgt>
</rwgt>
</event>
<event>
 4      1 +6.9060000e-13 6.74139800e+03 7.81860800e-03 7.18543000e-02
        2 -1    0    0  501    0 +0.0000000000e+00 +0.0000000000e+00 +2.5471172806e+03 2.5471172806e+03 0.0000000000e+00 0.0000e+00 -1.0000e+00
       -2 -1    0    0    0  501 -0.0000000000e+00 -0.0000000000e+00 -4.4605772092e+03 4.4605772092e+03 0.0000000000e+00 0.0000e+00 1.0000e+00
      -13  1    1    2    0    0 -8.9343565788e+02 -1.2928210883e+03 -4.0564672050e+03 4.3502344565e+03 0.0000000000e+00 0.0000e+00 1.0000e+00
       13  1    1    2    0    0 +8.9343565788e+02 +1.2928210883e+03 +2.1430072765e+03 2.6574600332e+03 0.0000000000e+00 0.0000e+00 -1.0000e+00
<mgrwt>
<rscale>  0 0.67413985E+04</rscale>
<asrwt>0</asrwt>
<pdfrwt beam="1">  1        2 0.39186420E+00 0.67413985E+04</pdfrwt>
<pdfrwt beam="2">  1       -2 0.68624265E+00 0.67413985E+04</pdfrwt>
<totfact> 0.47289912E-05</totfact>
</mgrwt>
<rwgt>
<wgt id='morphing_basis_vector_1'> +1.9258328e-07 </wgt>
<wgt id='morphing_basis_vector_2'> +1.3107350e-07 </wgt>
<wgt id='morphing_basis_vector_3'> +2.1273463e-07 </wgt>
<wgt id='morphing_basis_vector_4'> +1.5416775e-07 </wgt>
<wgt id='morphing_basis_vector_5'> +2.4590652e-07 </wgt>
</rwgt>
</event>
<event>
 4      1 +6.9060000e-13 7.01283500e+03 7.81860800e-03 7.15995200e-02
        2 -1    0    0  501    0 +0.0000000000e+00 +0.0000000000e+00 +3.9724168704e+03 3.9724168704e+03 0.0000000000e+00 0.0000e+00 -1.0000e+00
       -2 -1    0    0    0  501 -0.0000000000e+00 -0.0000000000e+00 -3.0950843620e+03 3.0950843620e+03 0.0000000000e+00 0.0000e+00 1.0000e+00
      -13  1    1    2    0    0 -1.0230601471e+03 -2.0650487422e+03 -2.2246383733e+03 3.2031381900e+03 0.0000000000e+00 0.0000e+00 1.0000e+00
       13  1    1    2    0    0 +1.0230601471e+03 +2.0650487422e+03 +3.1019708817e+03 3.8643630424e+03 0.0000000000e+00 0.0000e+00 -1.0000e+00
<mgrwt>
<rscale>  0 0.70128355E+04</rscale>
<asrwt>0</asrwt>
<pdfrwt beam="1">  1        2 0.61114106E+00 0.70128355E+04</pdfrwt>
<pdfrwt beam="2">  1       -2 0.47616682E+00 0.70128355E+04</pdfrwt>
<totfact> 0.40429174E-04</totfact>
</mgrwt>
<rwgt>
<wgt id='morphing_basis_vector_1'> +2.2560918e-07 </wgt>
<wgt id='morphing_basis_vector_2'> +1.5390805e-07 </wgt>
<wgt id='morphing_basis_vector_3'> +2.4935883e-07 </wgt>
<wgt id='morphing_basis_vector_4'> +1.8026939e-07 </wgt>
<wgt id='morphing_basis_vector_5'> +2.8801789e-07 </wgt>
</rwgt>
</event>
<event>
 4      1 +6.9060000e-13 6.73683500e+03 7.81860800e-03 7.18586900e-02
        2 -1    0    0  501    0 +0.0000000000e+00 +0.0000000000e+00 +2.0271597612e+03 2.0271597612e+03 0.0000000000e+00 0.0000e+00 -1.0000e+00
       -2 -1    0    0    0  501 -0.0000000000e+00 -0.0000000000e+00 -5.5971105731e+03 5.5971105731e+03 0.0000000000e+00 0.0000e+00 1.0000e+00
      -13  1    1    2    0    0 -1.1053795233e+03 +2.8148730414e+03 -3.4639297401e+03 4.5982804801e+03 0.0000000000e+00 0.0000e+00 1.0000e+00
       13  1    1    2    0    0 +1.1053795233e+03 -2.8148730414e+03 -1.0602107183e+02 3.0259898542e+03 0.0000000000e+00 0.0000e+00 -1.0000e+00
<mgrwt>
<rscale>  0 0.67368353E+04</rscale>
<asrwt>0</asrwt>
<pdfrwt beam="1">  1        2 0.31187073E+00 0.67368353E+04</pdfrwt>
<pdfrwt beam="2">  1       -2 0.86109394E+00 0.67368353E+04</pdfrwt>
<totfact> 0.24704791E-04</totfact>
</mgrwt>
<rwgt>
<wgt id='morphing_basis_vector_1'> +1.9319947e-07 </wgt>
<wgt id='morphing_basis_vector_2'> +1.3405326e-07 </wgt>
<wgt id='morphing_basis_vector_3'> +2.1401982e-07 </wgt>
<wgt id='morphing_basis_vector_4'> +1.5131512e-07 </wgt>
<wgt id='morphing_basis_vector_5'> +2.4503510e-07 </wgt>
</rwgt>
</event>
<event>
 4      1 +6.9060000e-13 6.91303200e+03 7.81860800e-03 7.16918200e-02
        2 -1    0    0  501    0 +0.0000000000e+00 +0.0000000000e+00 +3.6990197593e+03 3.6990197593e+03 0.0000000000e+00 0.0000e+00 -1.0000e+00
       -2 -1    0    0    0  501 -0.0000000000e+00 -0.0000000000e+00 -3.2299101268e+03 3.2299101268e+03 0.0000000000e+00 0.0000e+00 1.0000e+00
      -13  1    1    2    0    0 -8.0181930330e+02 -3.1736866695e+03 -8.7808825997e+02 3.3891356219e+03 0.0000000000e+00 0.0000e+00 1.0000e+00
       13  1    1    2    0    0 +8.0181930330e+02 +3.1736866695e+03 +1.3471978924e+03 3.5397942642e+03 0.0000000000e+00 0.0000e+00 -1.0000e+00
<mgrwt>
<rscale>  0 0.69130316E+04</rscale>
<asrwt>0</asrwt>
<pdfrwt beam="1">  1        2 0.56907996E+00 0.69130316E+04</pdfrwt>
<pdfrwt beam="2">  1       -2 0.49690925E+00 0.69130316E+04</pdfrwt>
<totfact> 0.47517121E-04</totfact>
</mgrwt>
<rwgt>
<wgt id='morphing_basis_vector_1'> +2.1512014e-07 </wgt>
<wgt id='morphing_basis_vector_2'> +1.5138740e-07 </wgt>
<wgt id='morphing_basis_vector_3'> +2.3884348e-07 </wgt>
<wgt id='morphing_basis_vector_4'> +1.6578850e-07 </wgt>
<wgt id='morphing_basis_vector_5'> +2.7157081e-07 </wgt>
</rwgt>
</event>
<event>
 4      1 +6.9060000e-13 7.46425000e+03 7.81860800e-03 7.12005100e-02
        2 -1    0    0  501    0 +0.0000000000e+00 +0.0000000000e+00 +4.9373472457e+03 4.9373472457e+03 0.0000000000e+00 0.0000e+00 -1.0000e+00
       -2 -1    0    0    0  501 -0.0000000000e+00 -0.0000000000e+00 -2.8211014119e+03 2.8211014119e+03 0.0000000000e+00 0.0000e+00 1.0000e+00
      -13  1    1    2    0    0 -4.6450182695e+02 -3.2105536061e+03 -8.5996719079e+02 3.3560333691e+03 0.0000000000e+00 0.0000e+00 1.0000e+00
       13  1    1    2    0    0 +4.6450182695e+02 +3.2105536061e+03 +2.9762130245e+03 4.4024152885e+03 0.0000000000e+00 0.0000e+00 -1.0000e+00
<mgrwt>
<rscale>  0 0.74642501E+04</rscale>
<asrwt>0</asrwt>
<pdfrwt beam="1">  1        2 0.75959189E+00 0.74642501E+04</pdfrwt>
<pdfrwt beam="2">  1       -2 0.43401560E+00 0.74642501E+04</pdfrwt>
<totfact> 0.78106972E-05</totfact>
</mgrwt>
<rwgt>
<wgt id='morphing_basis_vector_1'> +2.9054223e-07 </wgt>
<wgt id='morphing_basis_vector_2'> +2.0073697e-07 </wgt>
<wgt id='morphing_basis_vector_3'> +3.2183625e-07 </wgt>
<wgt id='morphing_basis_vector_4'> +2.2907907e-07 </wgt>
<wgt id='morphing_basis_vector_5'> +3.6958886e-07 </wgt>
</rwgt>
</event>
<event>
 4      1 +6.9060000e-13 6.96616100e+03 7.81860800e-03 7.16424900e-02
        2 -1    0    0  501    0 +0.0000000000e+00 +0.0000000000e+00 +2.9145732020e+03 2.9145732020e+03 0.0000000000e+00 0.0000e+00 1.0000e+00
       -2 -1    0    0    0  501 -0.0000000000e+00 -0.0000000000e+00 -4.1624795435e+03 4.1624795435e+03 0.0000000000e+00 0.0000e+00 -1.0000e+00
      -13  1    1    2    0    0 +2.1604373300e+03 +2.2905283070e+03 -2.1369018404e+03 3.8053066706e+03 0.0000000000e+00 0.0000e+00 -1.0000e+00
       13  1    1    2    0    0 -2.1604373300e+03 -2.2905283070e+03 +8.8899549883e+02 3.2717460749e+03 0.0000000000e+00 0.0000e+00 1.0000e+00
<mgrwt>
<rscale>  0 0.69661614E+04</rscale>
<asrwt>0</asrwt>
<pdfrwt beam="1">  1        2 0.44839588E+00 0.69661614E+04</pdfrwt>
<pdfrwt beam="2">  1       -2 0.64038147E+00 0.69661614E+04</pdfrwt>
<totfact> 0.85976025E-05</totfact>
</mgrwt>
<rwgt>
<wgt id='morphing_basis_vector_1'> +2.2091384e-07 </wgt>
<wgt id='morphing_basis_vector_2'> +1.5349631e-07 </wgt>
<wgt id='morphing_basis_vector_3'> +2.4482114e-07 </wgt>
<wgt id='morphing_basis_vector_4'> +1.7284913e-07 </wgt>
<wgt id='morphing_basis_vector_5'> +2.8019004e-07 </wgt>
</rwgt>
</event>
<event>
 4      1 +6.9060000e-13 6.88469600e+03 7.81860800e-03 7.17183200e-02
        2 -1    0    0  501    0 +0.0000000000e+00 +0.0000000000e+00 +2.3678169010e+03 2.3678169010e+03 0.0000000000e+00 0.0000e+00 1.0000e+00
       -2 -1    0    0    0  501 -0.0000000000e+00 -0.0000000000e+00 -5.0045079372e+03 5.0045079372e+03 0.0000000000e+00 0.0000e+00 -1.0000e+00
      -13  1    1    2    0    0 +2.4709227845e+03 +1.3113093989e+03 -3.4666215095e+03 4.4544872249e+03 0.0000000000e+00 0.0000e+00 -1.0000e+00
       13  1    1    2    0    0 -2.4709227845e+03 -1.3113093989e+03 +8.2993047332e+02 2.9178376132e+03 0.0000000000e+00 0.0000e+00 1.0000e+00
<mgrwt>
<rscale>  0 0.68846956E+04</rscale>
<asrwt>0</asrwt>
<pdfrwt beam="1">  1        2 0.36427953E+00 0.68846956E+04</pdfrwt>
<pdfrwt beam="2">  1       -2 0.76992428E+00 0.68846956E+04</pdfrwt>
<totfact> 0.32579969E-04</totfact>
</mgrwt>
<rwgt>
<wgt id='morphing_basis_vector_1'> +2.1001434e-07 </wgt>
<wgt id='morphing_basis_vector_2'> +1.4420857e-07 </wgt>
<wgt id='morphing_basis_vector_3'> +2.3231991e-07 </wgt>
<wgt id='morphing_basis_vector_4'> +1.6652634e-07 </wgt>
<wgt id='morphing_basis_vector_5'> +2.6742844e-07 </wgt>
</rwgt>
</event>
<event>
 4      1 +6.9060000e-13 6.75087300e+03 7.81860800e-03 7.18452000e-02
        2 -1    0    0  501    0 +0.0000000000e+00 +0.0000000000e+00 +3.9271642930e+03 3.9271642930e+03 0.0000000000e+00 0.0000e+00 -1.0000e+00
       -2 -1    0    0    0  501 -0.0000000000e+00 -0.0000000000e+00 -2.9012213253e+03 2.9012213253e+03 0.0000000000e+00 0.0000e+00 1.0000e+00
      -13  1    1    2    0    0 +1.6259040227e+03 +1.1215913948e+03 -2.2556154761e+03 2.9982215268e+03 0.0000000000e+00 0.0000e+00 1.0000e+00
       13  1    1    2    0    0 -1.6259040227e+03 -1.1215913948e+03 +3.2815584438e+03 3.8301640915e+03 0.0000000000e+00 0.0000e+00 -1.0000e+00
<mgrwt>
<rscale>  0 0.67508734E+04</rscale>
<asrwt>0</asrwt>
<pdfrwt beam="1">  1        2 0.60417912E+00 0.67508734E+04</pdfrwt>
<pdfrwt beam="2">  1       -2 0.44634175E+00 0.67508734E+04</pdfrwt>
<totfact> 0.73469795E-04</totfact>
</mgrwt>
<rwgt>
<wgt id='morphing_basis_vector_1'> +1.9372287e-07 </wgt>
<wgt id='morphing_basis_vector_2'> +1.3197746e-07 </wgt>
<wgt id='morphing_basis_vector_3'> +2.1402566e-07 </wgt>
<wgt id='morphing_basis_vector_4'> +1.5491651e-07 </wgt>
<wgt id='morphing_basis_vector_5'> +2.4728410e-07 </wgt>
</rwgt>
</event>
<event>
 4      1 +6.9060000e-13 7.01192400e+03 7.81860800e-03 7.16003500e-02
        2 -1    0    0  501    0 +0.0000000000e+00 +0.0000000000e+00 +2.1430857757e+03 2.1430857757e+03 0.0000000000e+00 0.0000e+00 -1.0000e+00
       -2 -1    0    0    0  501 -0.0000000000e+00 -0.0000000000e+00 -5.7355470018e+03 5.7355470018e+03 0.0000000000e+00 0.0000e+00 1.0000e+00
      -13  1    1    2    0    0 -3.2612632955e+03 -1.2803637147e+03 -1.9409955566e+03 4.0053256141e+03 0.0000000000e+00 0.0000e+00 1.0000e+00
       13  1    1    2    0    0 +3.2612632955e+03 +1.2803637147e+03 -1.6514656695e+03 3.8733071634e+03 0.0000000000e+00 0.0000e+00 -1.0000e+00
<mgrwt>
<rscale>  0 0.70119239E+04</rscale>
<asrwt>0</asrwt>
<pdfrwt beam="1">  1        2 0.32970550E+00 0.70119239E+04</pdfrwt>
<pdfrwt beam="2">  1       -2 0.88239186E+00 0.70119239E+04</pdfrwt>
<totfact> 0.13227596E-04</totfact>
</mgrwt>
<rwgt>
<wgt id='morphing_basis_vector_1'> +2.3257272e-07 </wgt>
<wgt id='morphing_basis_vector_2'> +1.7460460e-07 </wgt>
<wgt id='morphing_basis_vector_3'> +2.6083402e-07 </wgt>
<wgt id='morphing_basis_vector_4'> +1.6499259e-07 </wgt>
<wgt id='morphing_basis_vector_5'> +2.8658826e-07 </wgt>
</rwgt>
</event>
<event>
 4      1 +6.9060000e-13 6.94363000e+03 7.81860800e-03 7.16633600e-02
        2 -1    0    0  501    0 +0.0000000000e+00 +0.0000000000e+00 +3.4507272518e+03 3.4507272518e+03 0.0000000000e+00 0.0000e+00 -1.0000e+00
       -2 -1    0    0    0  501 -0.0000000000e+00 -0.0000000000e+00 -3.4930317673e+03 3.4930317673e+03 0.0000000000e+00 0.0000e+00 1.0000e+00
      -13  1    1    2    0    0 -1.9963573401e+03 -1.2876870805e+03 +2.5106765666e+03 3.4564544650e+03 0.0000000000e+00 0.0000e+00 -1.0000e+00
       13  1    1    2    0    0 +1.9963573401e+03 +1.2876870805e+03 -2.5529810822e+03 3.4873045540e+03 0.0000000000e+00 0.0000e+00 1.0000e+00
<mgrwt>
<rscale>  0 0.69436301E+04</rscale>
<asrwt>0</asrwt>
<pdfrwt beam="1">  1        2 0.53088112E+00 0.69436301E+04</pdfrwt>
<pdfrwt beam="2">  1       -2 0.53738950E+00 0.69436301E+04</pdfrwt>
<totfact> 0.36482963E-04</totfact>
</mgrwt>
<rwgt>
<wgt id='morphing_basis_vector_1'> +2.8244604e-07 </wgt>
<wgt id='morphing_basis_vector_2'> +3.4040883e-07 </wgt>
<wgt id='morphing_basis_vector_3'> +3.4715012e-07 </wgt>
<wgt id='morphing_basis_vector_4'> +3.2606376e-08 </wgt>
<wgt id='morphing_basis_vector_5'> +2.6494579e-07 </wgt>
</rwgt>
</event>
<event>
 4      1 +6.9060000e-13 7.83082400e+03 7.81860800e-03 7.08968100e-02
        2 -1    0    0  501    0 +0.0000000000e+00 +0.0000000000e+00 +3.2489569221e+03 3.2489569221e+03 0.0000000000e+00 0.0000e+00 -1.0000e+00
       -2 -1    0    0    0  501 -0.0000000000e+00 -0.0000000000e+00 -4.7185767761e+03 4.7185767761e+03 0.0000000000e+00 0.0000e+00 1.0000e+00
      -13  1    1    2    0    0 +7.7137440572e+02 +2.7039926516e+03 -3.5070526388e+03 4.4951098925e+03 0.0000000000e+00 0.0000e+00 1.0000e+00
       13  1    1    2    0    0 -7.7137440572e+02 -2.7039926516e+03 +2.0374327848e+03 3.4724238057e+03 0.0000000000e+00 0.0000e+00 -1.0000e+00
<mgrwt>
<rscale>  0 0.78308244E+04</rscale>
<asrwt>0</asrwt>
<pdfrwt beam="1">  1        2 0.49983953E+00 0.78308244E+04</pdfrwt>
<pdfrwt beam="2">  1       -2 0.72593488E+00 0.78308244E+04</pdfrwt>
<totfact> 0.50634456E-05</totfact>
</mgrwt>
<rwgt>
<wgt id='morphing_basis_vector_1'> +3.5070627e-07 </wgt>
<wgt id='morphing_basis_vector_2'> +2.3974273e-07 </wgt>
<wgt id='morphing_basis_vector_3'> +3.8796061e-07 </wgt>
<wgt id='morphing_basis_vector_4'> +2.8006516e-07 </wgt>
<wgt id='morphing_basis_vector_5'> +4.4804378e-07 </wgt>
</rwgt>
</event>
<event>
 4      1 +6.9060000e-13 7.13572000e+03 7.81860800e-03 7.14879700e-02
        2 -1    0    0  501    0 +0.0000000000e+00 +0.0000000000e+00 +2.6495185742e+03 2.6495185742e+03 0.0000000000e+00 0.0000e+00 1.0000e+00
       -2 -1    0    0    0  501 -0.0000000000e+00 -0.0000000000e+00 -4.8045051738e+03 4.8045051738e+03 0.0000000000e+00 0.0000e+00 -1.0000e+00
      -13  1    1    2    0    0 +2.5189312259e+03 -1.9315445442e+03 -2.7791921499e+03 4.2189794800e+03 0.0000000000e+00 0.0000e+00 -1.0000e+00
       13  1    1    2    0    0 -2.5189312259e+03 +1.9315445442e+03 +6.2420555030e+02 3.2350442680e+03 0.0000000000e+00 0.0000e+00 1.0000e+00
<mgrwt>
<rscale>  0 0.71357202E+04</rscale>
<asrwt>0</asrwt>
<pdfrwt beam="1">  1        2 0.40761825E+00 0.71357202E+04</pdfrwt>
<pdfrwt beam="2">  1       -2 0.73915463E+00 0.71357202E+04</pdfrwt>
<totfact> 0.16637896E-04</totfact>
</mgrwt>
<rwgt>
<wgt id='morphing_basis_vector_1'> +2.4297515e-07 </wgt>
<wgt id='morphing_basis_vector_2'> +1.6837833e-07 </wgt>
<wgt id='morphing_basis_vector_3'> +2.6920118e-07 </wgt>
<wgt id='morphing_basis_vector_4'> +1.9077389e-07 </wgt>
<wgt id='morphing_basis_vector_5'> +3.0856651e-07 </wgt>
</rwgt>
</event>
<event>
 4      1 +6.9060000e-13 7.93034400e+03 7.81860800e-03 7.08172200e-02
        2 -1    0    0  501    0 +0.0000000000e+00 +0.0000000000e+00 +3.1475501525e+03 3.1475501525e+03 0.0000000000e+00 0.0000e+00 1.0000e+00
       -2 -1    0    0    0  501 -0.0000000000e+00 -0.0000000000e+00 -4.9951832607e+03 4.9951832607e+03 0.0000000000e+00 0.0000e+00 -1.0000e+00
      -13  1    1    2    0    0 -3.3226021958e+03 +4.9287179730e+02 +1.2397426162e+03 3.5804426702e+03 0.0000000000e+00 0.0000e+00 -1.0000e+00
       13  1    1    2    0    0 +3.3226021958e+03 -4.9287179730e+02 -3.0873757244e+03 4.5622907430e+03 0.0000000000e+00 0.0000e+00 1.0000e+00
<mgrwt>
<rscale>  0 0.79303442E+04</rscale>
<asrwt>0</asrwt>
<pdfrwt beam="1">  1        2 0.48423849E+00 0.79303442E+04</pdfrwt>
<pdfrwt beam="2">  1       -2 0.76848973E+00 0.79303442E+04</pdfrwt>
<totfact> 0.99220229E-05</totfact>
</mgrwt>
<rwgt>
<wgt id='morphing_basis_vector_1'> +4.4227902e-07 </wgt>
<wgt id='morphing_basis_vector_2'> +4.6757170e-07 </wgt>
<wgt id='morphing_basis_vector_3'> +5.2867091e-07 </wgt>
<wgt id='morphing_basis_vector_4'> +1.3692011e-07 </wgt>
<wgt id='morphing_basis_vector_5'> +4.5798292e-07 </wgt>
</rwgt>
</event>
<event>
 4      1 +6.9060000e-13 6.99953200e+03 7.81860800e-03 7.16117300e-02
        2 -1    0    0  501    0 +0.0000000000e+00 +0.0000000000e+00 +3.7133630919e+03 3.7133630919e+03 0.0000000000e+00 0.0000e+00 1.0000e+00
       -2 -1    0    0    0  501 -0.0000000000e+00 -0.0000000000e+00 -3.2984551724e+03 3.2984551724e+03 0.0000000000e+00 0.0000e+00 -1.0000e+00
      -13  1    1    2    0    0 +1.6516286158e+03 -3.0133971092e+03 -4.5697679924e+02 3.4665929986e+03 0.0000000000e+00 0.0000e+00 -1.0000e+00
       13  1    1    2    0    0 -1.6516286158e+03 +3.0133971092e+03 +8.7188471871e+02 3.5452252658e+03 0.0000000000e+00 0.0000e+00 1.0000e+00
<mgrwt>
<rscale>  0 0.69995319E+04</rscale>
<asrwt>0</asrwt>
<pdfrwt beam="1">  1        2 0.57128663E+00 0.69995319E+04</pdfrwt>
<pdfrwt beam="2">  1       -2 0.50745464E+00 0.69995319E+04</pdfrwt>
<totfact> 0.38370662E-04</totfact>
</mgrwt>
<rwgt>
<wgt id='morphing_basis_vector_1'> +2.2776498e-07 </wgt>
<wgt id='morphing_basis_vector_2'> +1.6407071e-07 </wgt>
<wgt id='morphing_basis_vector_3'> +2.5379842e-07 </wgt>
<wgt id='morphing_basis_vector_4'> +1.7062637e-07 </wgt>
<wgt id='morphing_basis_vector_5'> +2.8513750e-07 </wgt>
</rwgt>
</event>
<event>
 4      1 +6.9060000e-13 6.86321400e+03 7.81860800e-03 7.17384900e-02
        2 -1    0    0  501    0 +0.0000000000e+00 +0.0000000000e+00 +3.7884423004e+03 3.7884423004e+03 0.0000000000e+00 0.0000e+00 1.0000e+00
       -2 -1    0    0    0  501 -0.0000000000e+00 -0.0000000000e+00 -3.1083818013e+03 3.1083818013e+03 0.0000000000e+00 0.0000e+00 -1.0000e+00
      -13  1    1    2    0    0 +2.8260714120e+03 -1.1241904311e+02 +2.2928967637e+03 3.6409742152e+03 0.0000000000e+00 0.0000e+00 -1.0000e+00
       13  1    1    2    0    0 -2.8260714120e+03 +1.1241904311e+02 -1.6128362645e+03 3.2558498865e+03 0.0000000000e+00 0.0000e+00 1.0000e+00
<mgrwt>
<rscale>  0 0.68632136E+04</rscale>
<asrwt>0</asrwt>
<pdfrwt beam="1">  1        2 0.58283728E+00 0.68632136E+04</pdfrwt>
<pdfrwt beam="2">  1       -2 0.47821258E+00 0.68632136E+04</pdfrwt>
<totfact> 0.55882777E-04</totfact>
</mgrwt>
<rwgt>
<wgt id='morphing_basis_vector_1'> +2.5208588e-07 </wgt>
<wgt id='morphing_basis_vector_2'> +2.7351490e-07 </wgt>
<wgt id='morphing_basis_vector_3'> +3.0262322e-07 </wgt>
<wgt id='morphing_basis_vector_4'> +6.8683424e-08 </wgt>
<wgt id='morphing_basis_vector_5'> +2.5603080e-07 </wgt>
</rwgt>
</event>
<event>
 4      1 +6.9060000e-13 6.71144000e+03 7.81860800e-03 7.18831600e-02
        2 -1    0    0  501    0 +0.0000000000e+00 +0.0000000000e+00 +4.5256346926e+03 4.5256346926e+03 0.0000000000e+00 0.0000e+00 1.0000e+00
       -2 -1    0    0    0  501 -0.0000000000e+00 -0.0000000000e+00 -2.4882379873e+03 2.4882379873e+03 0.0000000000e+00 0.0000e+00 -1.0000e+00
      -13  1    1    2    0    0 +1.4189895265e+02 -3.2516112436e+03 +1.8726780647e+03 3.7550012153e+03 0.0000000000e+00 0.0000e+00 -1.0000e+00
       13  1    1    2    0    0 -1.4189895265e+02 +3.2516112436e+03 +1.6471864063e+02 3.2588714646e+03 0.0000000000e+00 0.0000e+00 1.0000e+00
<mgrwt>
<rscale>  0 0.67114398E+04</rscale>
<asrwt>0</asrwt>
<pdfrwt beam="1">  1        2 0.69625149E+00 0.67114398E+04</pdfrwt>
<pdfrwt beam="2">  1       -2 0.38280584E+00 0.67114398E+04</pdfrwt>
<totfact> 0.53903260E-04</totfact>
</mgrwt>
<rwgt>
<wgt id='morphing_basis_vector_1'> +2.0526335e-07 </wgt>
<wgt id='morphing_basis_vector_2'> +1.7593146e-07 </wgt>
<wgt id='morphing_basis_vector_3'> +2.3529945e-07 </wgt>
<wgt id='morphing_basis_vector_4'> +1.1699309e-07 </wgt>
<wgt id='morphing_basis_vector_5'> +2.3865493e-07 </wgt>
</rwgt>
</event>
<event>
 4      1 +6.9060000e-13 7.92211600e+03 7.81860800e-03 7.08237600e-02
        2 -1    0    0  501    0 +0.0000000000e+00 +0.0000000000e+00 +3.3100588706e+03 3.3100588706e+03 0.0000000000e+00 0.0000e+00 1.0000e+00
       -2 -1    0    0    0  501 -0.0000000000e+00 -0.0000000000e+00 -4.7400912085e+03 4.7400912085e+03 0.0000000000e+00 0.0000e+00 -1.0000e+00
      -13  1    1    2    0    0 -3.4622863513e+02 +2.9113554262e+03 -3.4215404281e+03 4.5058632455e+03 0.0000000000e+00 0.0000e+00 -1.0000e+00
       13  1    1    2    0    0 +3.4622863513e+02 -2.9113554262e+03 +1.9915080903e+03 3.5442868337e+03 0.0000000000e+00 0.0000e+00 1.0000e+00
<mgrwt>
<rscale>  0 0.79221161E+04</rscale>
<asrwt>0</asrwt>
<pdfrwt beam="1">  1        2 0.50923983E+00 0.79221161E+04</pdfrwt>
<pdfrwt beam="2">  1       -2 0.72924480E+00 0.79221161E+04</pdfrwt>
<totfact> 0.49194083E-05</totfact>
</mgrwt>
<rwgt>
<wgt id='morphing_basis_vector_1'> +3.6741845e-07 </wgt>
<wgt id='morphing_basis_vector_2'> +2.5138452e-07 </wgt>
<wgt id='morphing_basis_vector_3'> +4.0652113e-07 </wgt>
<wgt id='morphing_basis_vector_4'> +2.9317379e-07 </wgt>
<wgt id='morphing_basis_vector_5'> +4.6931616e-07 </wgt>
</rwgt>
</event>
<event>
 4      1 +6.9060000e-13 7.18492600e+03 7.81860800e-03 7.14439300e-02
        2 -1    0    0  501    0 +0.0000000000e+00 +0.0000000000e+00 +4.5042146923e+03 4.5042146923e+03 0.0000000000e+00 0.0000e+00 1.0000e+00
       -2 -1    0    0    0  501 -0.0000000000e+00 -0.0000000000e+00 -2.8652701913e+03 2.8652701913e+03 0.0000000000e+00 0.0000e+00 -1.0000e+00
      -13  1    1    2    0    0 +2.7755733273e+03 -1.9537472303e+03 -3.8755534839e+02 3.4163042434e+03 0.0000000000e+00 0.0000e+00 -1.0000e+00
       13  1    1    2    0    0 -2.7755733273e+03 +1.9537472303e+03 +2.0264998493e+03 3.9531806403e+03 0.0000000000e+00 0.0000e+00 1.0000e+00
<mgrwt>
<rscale>  0 0.71849265E+04</rscale>
<asrwt>0</asrwt>
<pdfrwt beam="1">  1        2 0.69295610E+00 0.71849265E+04</pdfrwt>
<pdfrwt beam="2">  1       -2 0.44081080E+00 0.71849265E+04</pdfrwt>
<totfact> 0.22660173E-04</totfact>
</mgrwt>
<rwgt>
<wgt id='morphing_basis_vector_1'> +2.5087732e-07 </wgt>
<wgt id='morphing_basis_vector_2'> +1.7641733e-07 </wgt>
<wgt id='morphing_basis_vector_3'> +2.7857500e-07 </wgt>
<wgt id='morphing_basis_vector_4'> +1.9365025e-07 </wgt>
<wgt id='morphing_basis_vector_5'> +3.1697318e-07 </wgt>
</rwgt>
</event>
<event>
 4      1 +6.9060000e-13 6.70605600e+03 7.81860800e-03 7.18883600e-02
        2 -1    0    0  501    0 +0.0000000000e+00 +0.0000000000e+00 +3.5868823389e+03 3.5868823389e+03 0.0000000000e+00 0.0000e+00 -1.0000e+00
       -2 -1    0    0    0  501 -0.0000000000e+00 -0.0000000000e+00 -3.1344203138e+03 3.1344203138e+03 0.0000000000e+00 0.0000e+00 1.0000e+00
      -13  1    1    2    0    0 -2.6071982737e+02 +2.2747739199e+03 -2.2288739584e+03 3.1953795295e+03 0.0000000000e+00 0.0000e+00 1.0000e+00
       13  1    1    2    0    0 +2.6071982737e+02 -2.2747739199e+03 +2.6813359834e+03 3.5259231232e+03 0.0000000000e+00 0.0000e+00 -1.0000e+00
<mgrwt>
<rscale>  0 0.67060560E+04</rscale>
<asrwt>0</asrwt>
<pdfrwt beam="1">  1        2 0.55182805E+00 0.67060560E+04</pdfrwt>
<pdfrwt beam="2">  1       -2 0.48221851E+00 0.67060560E+04</pdfrwt>
<totfact> 0.75605259E-04</totfact>
</mgrwt>
<rwgt>
<wgt id='morphing_basis_vector_1'> +1.8874114e-07 </wgt>
<wgt id='morphing_basis_vector_2'> +1.2881063e-07 </wgt>
<wgt id='morphing_basis_vector_3'> +2.0856695e-07 </wgt>
<wgt id='morphing_basis_vector_4'> +1.5061706e-07 </wgt>
<wgt id='morphing_basis_vector_5'> +2.4075286e-07 </wgt>
</rwgt>
</event>
<event>
 4      1 +6.9060000e-13 6.67368100e+03 7.81860800e-03 7.19197500e-02
        2 -1    0    0  501    0 +0.0000000000e+00 +0.0000000000e+00 +2.1754155866e+03 2.1754155866e+03 0.0000000000e+00 0.0000e+00 -1.0000e+00
       -2 -1    0    0    0  501 -0.0000000000e+00 -0.0000000000e+00 -5.1183349171e+03 5.1183349171e+03 0.0000000000e+00 0.0000e+00 1.0000e+00
      -13  1    1    2    0    0 +1.1676524611e+03 +1.9589404784e+03 -4.1336937367e+03 4.7210469153e+03 0.0000000000e+00 0.0000e+00 1.0000e+00
       13  1    1    2    0    0 -1.1676524611e+03 -1.9589404784e+03 +1.1907744061e+03 2.5727035884e+03 0.0000000000e+00 0.0000e+00 -1.0000e+00
<mgrwt>
<rscale>  0 0.66736813E+04</rscale>
<asrwt>0</asrwt>
<pdfrwt beam="1">  1        2 0.33467932E+00 0.66736813E+04</pdfrwt>
<pdfrwt beam="2">  1       -2 0.78743614E+00 0.66736813E+04</pdfrwt>
<totfact> 0.42963091E-04</totfact>
</mgrwt>
<rwgt>
<wgt id='morphing_basis_vector_1'> +1.8513016e-07 </wgt>
<wgt id='morphing_basis_vector_2'> +1.2634541e-07 </wgt>
<wgt id='morphing_basis_vector_3'> +2.0457028e-07 </wgt>
<wgt id='morphing_basis_vector_4'> +1.4772277e-07 </wgt>
<wgt id='morphing_basis_vector_5'> +2.3612907e-07 </wgt>
</rwgt>
</event>
<event>
 4      1 +6.9060000e-13 7.41015700e+03 7.81860800e-03 7.12468100e-02
        2 -1    0    0  501    0 +0.0000000000e+00 +0.0000000000e+00 +4.3401795671e+03 4.3401795671e+03 0.0000000000e+00 0.0000e+00 1.0000e+00
       -2 -1    0    0    0  501 -0.0000000000e+00 -0.0000000000e+00 -3.1629122530e+03 3.1629122530e+03 0.0000000000e+00 0.0000e+00 -1.0000e+00
      -13  1    1    2    0    0 -3.2704729858e+02 +2.8160521973e+03 -1.8267601721e+03 3.3725602500e+03 0.0000000000e+00 0.0000e+00 -1.0000e+00
       13  1    1    2    0    0 +3.2704729858e+02 -2.8160521973e+03 +3.0040274862e+03 4.1305315701e+03 0.0000000000e+00 0.0000e+00 1.0000e+00
<mgrwt>
<rscale>  0 0.74101571E+04</rscale>
<asrwt>0</asrwt>
<pdfrwt beam="1">  1        2 0.66771994E+00 0.74101571E+04</pdfrwt>
<pdfrwt beam="2">  1       -2 0.48660188E+00 0.74101571E+04</pdfrwt>
<totfact> 0.15293542E-04</totfact>
</mgrwt>
<rwgt>
<wgt id='morphing_basis_vector_1'> +2.8146167e-07 </wgt>
<wgt id='morphing_basis_vector_2'> +1.9274951e-07 </wgt>
<wgt id='morphing_basis_vector_3'> +3.1135878e-07 </wgt>
<wgt id='morphing_basis_vector_4'> +2.2413586e-07 </wgt>
<wgt id='morphing_basis_vector_5'> +3.5911412e-07 </wgt>
</rwgt>
</event>
<event>
 4      1 +6.9060000e-13 6.81049400e+03 7.81860800e-03 7.17883100e-02
        2 -1    0    0  501    0 +0.0000000000e+00 +0.0000000000e+00 +3.7634936450e+03 3.7634936450e+03 0.0000000000e+00 0.0000e+00 -1.0000e+00
       -2 -1    0    0    0  501 -0.0000000000e+00 -0.0000000000e+00 -3.0811019937e+03 3.0811019937e+03 0.0000000000e+00 0.0000e+00 1.0000e+00
      -13  1    1    2    0    0 -7.3031718791e+02 -1.9851219469e+02 +3.6779010533e+03 3.7549602454e+03 0.0000000000e+00 0.0000e+00 -1.0000e+00
       13  1    1    2    0    0 +7.3031718791e+02 +1.9851219469e+02 -2.9955094020e+03 3.0896353934e+03 0.0000000000e+00 0.0000e+00 1.0000e+00
<mgrwt>
<rscale>  0 0.68104942E+04</rscale>
<asrwt>0</asrwt>
<pdfrwt beam="1">  1        2 0.57899902E+00 0.68104942E+04</pdfrwt>
<pdfrwt beam="2">  1       -2 0.47401569E+00 0.68104942E+04</pdfrwt>
<totfact> 0.63037956E-04</totfact>
</mgrwt>
<rwgt>
<wgt id='morphing_basis_vector_1'> +2.7487115e-07 </wgt>
<wgt id='morphing_basis_vector_2'> +3.5450980e-07 </wgt>
<wgt id='morphing_basis_vector_3'> +3.4326497e-07 </wgt>
<wgt id='morphing_basis_vector_4'> +1.3716035e-09 </wgt>
<wgt id='morphing_basis_vector_5'> +2.4274666e-07 </wgt>
</rwgt>
</event>
<event>
 4      1 +6.9060000e-13 6.66607200e+03 7.81860800e-03 7.19271600e-02
        2 -1    0    0  501    0 +0.0000000000e+00 +0.0000000000e+00 +4.0827085876e+03 4.0827085876e+03 0.0000000000e+00 0.0000e+00 1.0000e+00
       -2 -1    0    0    0  501 -0.0000000000e+00 -0.0000000000e+00 -2.7210189517e+03 2.7210189517e+03 0.0000000000e+00 0.0000e+00 -1.0000e+00
      -13  1    1    2    0    0 +1.1559686353e+03 +1.2975121305e+03 -2.2220621544e+03 2.8208795495e+03 0.0000000000e+00 0.0000e+00 -1.0000e+00
       13  1    1    2    0    0 -1.1559686353e+03 -1.2975121305e+03 +3.5837517904e+03 3.9828479898e+03 0.0000000000e+00 0.0000e+00 1.0000e+00
<mgrwt>
<rscale>  0 0.66660715E+04</rscale>
<asrwt>0</asrwt>
<pdfrwt beam="1">  1        2 0.62810902E+00 0.66660715E+04</pdfrwt>
<pdfrwt beam="2">  1       -2 0.41861830E+00 0.66660715E+04</pdfrwt>
<totfact> 0.83790805E-04</totfact>
</mgrwt>
<rwgt>
<wgt id='morphing_basis_vector_1'> +1.8415303e-07 </wgt>
<wgt id='morphing_basis_vector_2'> +1.2537221e-07 </wgt>
<wgt id='morphing_basis_vector_3'> +2.0341670e-07 </wgt>
<wgt id='morphing_basis_vector_4'> +1.4733984e-07 </wgt>
<wgt id='morphing_basis_vector_5'> +2.3507650e-07 </wgt>
</rwgt>
</event>
<event>
 4      1 +6.9060000e-13 6.66587600e+03 7.81860800e-03 7.19273500e-02
        2 -1    0    0  501    0 +0.0000000000e+00 +0.0000000000e+00 +3.9760117366e+03 3.9760117366e+03 0.0000000000e+00 0.0000e+00 1.0000e+00
       -2 -1    0    0    0  501 -0.0000000000e+00 -0.0000000000e+00 -2.7938738195e+03 2.7938738195e+03 0.0000000000e+00 0.0000e+00 -1.0000e+00
      -13  1    1    2    0    0 -7.6217538209e+02 +3.1337042454e+03 -2.6316239897e+02 3.2357793588e+03 0.0000000000e+00 0.0000e+00 -1.0000e+00
       13  1    1    2    0    0 +7.6217538209e+02 -3.1337042454e+03 +1.4453003161e+03 3.5341061974e+03 0.0000000000e+00 0.0000e+00 1.0000e+00
<mgrwt>
<rscale>  0 0.66658758E+04</rscale>
<asrwt>0</asrwt>
<pdfrwt beam="1">  1        2 0.61169411E+00 0.66658758E+04</pdfrwt>
<pdfrwt beam="2">  1       -2 0.42982674E+00 0.66658758E+04</pdfrwt>
<totfact> 0.87172191E-04</totfact>
</mgrwt>
<rwgt>
<wgt id='morphing_basis_vector_1'> +1.8666530e-07 </wgt>
<wgt id='morphing_basis_vector_2'> +1.3279322e-07 </wgt>
<wgt id='morphing_basis_vector_3'> +2.0754118e-07 </wgt>
<wgt id='morphing_basis_vector_4'> +1.4189297e-07 </wgt>
<wgt id='morphing_basis_vector_5'> +2.3459150e-07 </wgt>
</rwgt>
</event>
<event>
 4      1 +6.9060000e-13 7.53238100e+03 7.81860800e-03 7.11427600e-02
        2 -1    0    0  501    0 +0.0000000000e+00 +0.0000000000e+00 +3.3910724283e+03 3.3910724283e+03 0.0000000000e+00 0.0000e+00 -1.0000e+00
       -2 -1    0    0    0  501 -0.0000000000e+00 -0.0000000000e+00 -4.1828039673e+03 4.1828039673e+03 0.0000000000e+00 0.0000e+00 1.0000e+00
      -13  1    1    2    0    0 -7.6339599486e+02 +1.6330807669e+03 -3.7208125464e+03 4.1345099156e+03 0.0000000000e+00 0.0000e+00 1.0000e+00
       13  1    1    2    0    0 +7.6339599486e+02 -1.6330807669e+03 +2.9290810074e+03 3.4393664801e+03 0.0000000000e+00 0.0000e+00 -1.0000e+00
<mgrwt>
<rscale>  0 0.75323811E+04</rscale>
<asrwt>0</asrwt>
<pdfrwt beam="1">  1        2 0.52170345E+00 0.75323811E+04</pdfrwt>
<pdfrwt beam="2">  1       -2 0.64350830E+00 0.75323811E+04</pdfrwt>
<totfact> 0.35095509E-05</totfact>
</mgrwt>
<rwgt>
<wgt id='morphing_basis_vector_1'> +2.9994604e-07 </wgt>
<wgt id='morphing_basis_vector_2'> +2.0424813e-07 </wgt>
<wgt id='morphing_basis_vector_3'> +3.3155806e-07 </wgt>
<wgt id='morphing_basis_vector_4'> +2.4043329e-07 </wgt>
<wgt id='morphing_basis_vector_5'> +3.8352974e-07 </wgt>
</rwgt>
</event>
<event>
 4      1 +6.9060000e-13 6.90602100e+03 7.81860800e-03 7.16983700e-02
        2 -1    0    0  501    0 +0.0000000000e+00 +0.0000000000e+00 +3.1153624304e+03 3.1153624304e+03 0.0000000000e+00 0.0000e+00 1.0000e+00
       -2 -1    0    0    0  501 -0.0000000000e+00 -0.0000000000e+00 -3.8272532796e+03 3.8272532796e+03 0.0000000000e+00 0.0000e+00 -1.0000e+00
      -13  1    1    2    0    0 +2.5167970734e+03 -1.0408404245e+03 -2.4898484475e+03 3.6901167447e+03 0.0000000000e+00 0.0000e+00 -1.0000e+00
       13  1    1    2    0    0 -2.5167970734e+03 +1.0408404245e+03 +1.7779575983e+03 3.2524989653e+03 0.0000000000e+00 0.0000e+00 1.0000e+00
<mgrwt>
<rscale>  0 0.69060209E+04</rscale>
<asrwt>0</asrwt>
<pdfrwt beam="1">  1        2 0.47928653E+00 0.69060209E+04</pdfrwt>
<pdfrwt beam="2">  1       -2 0.58880819E+00 0.69060209E+04</pdfrwt>
<totfact> 0.26058682E-04</totfact>
</mgrwt>
<rwgt>
<wgt id='morphing_basis_vector_1'> +2.1251669e-07 </wgt>
<wgt id='morphing_basis_vector_2'> +1.4568756e-07 </wgt>
<wgt id='morphing_basis_vector_3'> +2.3503568e-07 </wgt>
<wgt id='morphing_basis_vector_4'> +1.6883260e-07 </wgt>
<wgt id='morphing_basis_vector_5'> +2.7078224e-07 </wgt>
</rwgt>
</event>
<event>
 4      1 +6.9060000e-13 6.98206400e+03 7.81860800e-03 7.16278100e-02
        2 -1    0    0  501    0 +0.0000000000e+00 +0.0000000000e+00 +4.2669385053e+03 4.2669385053e+03 0.0000000000e+00 0.0000e+00 -1.0000e+00
       -2 -1    0    0    0  501 -0.0000000000e+00 -0.0000000000e+00 -2.8562173841e+03 2.8562173841e+03 0.0000000000e+00 0.0000e+00 1.0000e+00
      -13  1    1    2    0    0 -1.0497893091e+03 +2.8908231751e+03 -9.7980150692e+02 3.2278363057e+03 0.0000000000e+00 0.0000e+00 1.0000e+00
       13  1    1    2    0    0 +1.0497893091e+03 -2.8908231751e+03 +2.3905226281e+03 3.8953195837e+03 0.0000000000e+00 0.0000e+00 -1.0000e+00
<mgrwt>
<rscale>  0 0.69820639E+04</rscale>
<asrwt>0</asrwt>
<pdfrwt beam="1">  1        2 0.65645208E+00 0.69820639E+04</pdfrwt>
<pdfrwt beam="2">  1       -2 0.43941806E+00 0.69820639E+04</pdfrwt>
<totfact> 0.40348093E-04</totfact>
</mgrwt>
<rwgt>
<wgt id='morphing_basis_vector_1'> +2.2264592e-07 </wgt>
<wgt id='morphing_basis_vector_2'> +1.5405487e-07 </wgt>
<wgt id='morphing_basis_vector_3'> +2.4659118e-07 </wgt>
<wgt id='morphing_basis_vector_4'> +1.7505422e-07 </wgt>
<wgt id='morphing_basis_vector_5'> +2.8281364e-07 </wgt>
</rwgt>
</event>
<event>
 4      1 +6.9060000e-13 7.54223300e+03 7.81860800e-03 7.11344600e-02
        2 -1    0    0  501    0 +0.0000000000e+00 +0.0000000000e+00 +2.5901751912e+03 2.5901751912e+03 0.0000000000e+00 0.0000e+00 -1.0000e+00
       -2 -1    0    0    0  501 -0.0000000000e+00 -0.0000000000e+00 -5.4904850014e+03 5.4904850014e+03 0.0000000000e+00 0.0000e+00 1.0000e+00
      -13  1    1    2    0    0 +1.4453835019e+03 +1.1929913152e+03 +2.0559144042e+03 2.7819320235e+03 0.0000000000e+00 0.0000e+00 -1.0000e+00
       13  1    1    2    0    0 -1.4453835019e+03 -1.1929913152e+03 -4.9562242145e+03 5.2987281691e+03 0.0000000000e+00 0.0000e+00 1.0000e+00
<mgrwt>
<rscale>  0 0.75422326E+04</rscale>
<asrwt>0</asrwt>
<pdfrwt beam="1">  1        2 0.39848849E+00 0.75422326E+04</pdfrwt>
<pdfrwt beam="2">  1       -2 0.84469000E+00 0.75422326E+04</pdfrwt>
<totfact> 0.14509813E-04</totfact>
</mgrwt>
<rwgt>
<wgt id='morphing_basis_vector_1'> +4.0847206e-07 </wgt>
<wgt id='morphing_basis_vector_2'> +5.1912067e-07 </wgt>
<wgt id='morphing_basis_vector_3'> +5.0883458e-07 </wgt>
<wgt id='morphing_basis_vector_4'> +1.2145276e-08 </wgt>
<wgt id='morphing_basis_vector_5'> +3.6618122e-07 </wgt>
</rwgt>
</event>
<event>
 4      1 +6.9060000e-13 6.77336800e+03 7.81860800e-03 7.18236700e-02
        2 -1    0    0  501    0 +0.0000000000e+00 +0.0000000000e+00 +4.3904831728e+03 4.3904831728e+03 0.0000000000e+00 0.0000e+00 -1.0000e+00
       -2 -1    0    0    0  501 -0.0000000000e+00 -0.0000000000e+00 -2.6123843661e+03 2.6123843661e+03 0.0000000000e+00 0.0000e+00 1.0000e+00
      -13  1    1    2    0    0 +8.8346214859e+02 -9.8640346563e+01 -2.4896109105e+03 2.6435577867e+03 0.0000000000e+00 0.0000e+00 1.0000e+00
       13  1    1    2    0    0 -8.8346214859e+02 +9.8640346563e+01 +4.2677097172e+03 4.3593097523e+03 0.0000000000e+00 0.0000e+00 -1.0000e+00
<mgrwt>
<rscale>  0 0.67733683E+04</rscale>
<asrwt>0</asrwt>
<pdfrwt beam="1">  1        2 0.67545895E+00 0.67733683E+04</pdfrwt>
<pdfrwt beam="2">  1       -2 0.40190529E+00 0.67733683E+04</pdfrwt>
<totfact> 0.55346746E-04</totfact>
</mgrwt>
<rwgt>
<wgt id='morphing_basis_vector_1'> +1.9622834e-07 </wgt>
<wgt id='morphing_basis_vector_2'> +1.3349520e-07 </wgt>
<wgt id='morphing_basis_vector_3'> +2.1675337e-07 </wgt>
<wgt id='morphing_basis_vector_4'> +1.5717700e-07 </wgt>
<wgt id='morphing_basis_vector_5'> +2.5061766e-07 </wgt>
</rwgt>
</event>
<event>
 4      1 +6.9060000e-13 6.80273700e+03 7.81860800e-03 7.17956800e-02
        2 -1    0    0  501    0 +0.0000000000e+00 +0.0000000000e+00 +4.0763481971e+03 4.0763481971e+03 0.0000000000e+00 0.0000e+00 -1.0000e+00
       -2 -1    0    0    0  501 -0.0000000000e+00 -0.0000000000e+00 -2.8381552575e+03 2.8381552575e+03 0.0000000000e+00 0.0000e+00 1.0000e+00
      -13  1    1    2    0    0 +1.0206491359e+03 +5.2878300890e+02 -2.6347441441e+03 2.8745804623e+03 0.0000000000e+00 0.0000e+00 1.0000e+00
       13  1    1    2    0    0 -1.0206491359e+03 -5.2878300890e+02 +3.8729370837e+03 4.0399229923e+03 0.0000000000e+00 0.0000e+00 -1.0000e+00
<mgrwt>
<rscale>  0 0.68027374E+04</rscale>
<asrwt>0</asrwt>
<pdfrwt beam="1">  1        2 0.62713049E+00 0.68027374E+04</pdfrwt>
<pdfrwt beam="2">  1       -2 0.43663927E+00 0.68027374E+04</pdfrwt>
<totfact> 0.63614944E-04</totfact>
</mgrwt>
<rwgt>
<wgt id='morphing_basis_vector_1'> +1.9965262e-07 </wgt>
<wgt id='morphing_basis_vector_2'> +1.3583836e-07 </wgt>
<wgt id='morphing_basis_vector_3'> +2.2054481e-07 </wgt>
<wgt id='morphing_basis_vector_4'> +1.5991499e-07 </wgt>
<wgt id='morphing_basis_vector_5'> +2.5499938e-07 </wgt>
</rwgt>
</event>
<event>
 4      1 +6.9060000e-13 6.80174300e+03 7.81860800e-03 7.17966200e-02
        2 -1    0    0  501    0 +0.0000000000e+00 +0.0000000000e+00 +3.3532308102e+03 3.3532308102e+03 0.0000000000e+00 0.0000e+00 1.0000e+00
       -2 -1    0    0    0  501 -0.0000000000e+00 -0.0000000000e+00 -3.4491894559e+03 3.4491894559e+03 0.0000000000e+00 0.0000e+00 -1.0000e+00
      -13  1    1    2    0    0 +7.8445773859e+02 +2.0632158187e+03 -2.6354543798e+03 3.4377104657e+03 0.0000000000e+00 0.0000e+00 -1.0000e+00
       13  1    1    2    0    0 -7.8445773859e+02 -2.0632158187e+03 +2.5394957340e+03 3.3647098004e+03 0.0000000000e+00 0.0000e+00 1.0000e+00
<mgrwt>
<rscale>  0 0.68017434E+04</rscale>
<asrwt>0</asrwt>
<pdfrwt beam="1">  1        2 0.51588166E+00 0.68017434E+04</pdfrwt>
<pdfrwt beam="2">  1       -2 0.53064453E+00 0.68017434E+04</pdfrwt>
<totfact> 0.48433741E-04</totfact>
</mgrwt>
<rwgt>
<wgt id='morphing_basis_vector_1'> +1.9967899e-07 </wgt>
<wgt id='morphing_basis_vector_2'> +1.3617815e-07 </wgt>
<wgt id='morphing_basis_vector_3'> +2.2064988e-07 </wgt>
<wgt id='morphing_basis_vector_4'> +1.5951526e-07 </wgt>
<wgt id='morphing_basis_vector_5'> +2.5482433e-07 </wgt>
</rwgt>
</event>
<event>
 4      1 +6.9060000e-13 6.88807600e+03 7.81860800e-03 7.17151500e-02
        2 -1    0    0  501    0 +0.0000000000e+00 +0.0000000000e+00 +4.2002480094e+03 4.2002480094e+03 0.0000000000e+00 0.0000e+00 -1.0000e+00
       -2 -1    0    0    0  501 -0.0000000000e+00 -0.0000000000e+00 -2.8239752438e+03 2.8239752438e+03 0.0000000000e+00 0.0000e+00 1.0000e+00
      -13  1    1    2    0    0 -1.9432889732e+03 -6.3278621642e+01 -2.2107653675e+03 2.9441229131e+03 0.0000000000e+00 0.0000e+00 1.0000e+00
       13  1    1    2    0    0 +1.9432889732e+03 +6.3278621642e+01 +3.5870381330e+03 4.0801003401e+03 0.0000000000e+00 0.0000e+00 -1.0000e+00
<mgrwt>
<rscale>  0 0.68880756E+04</rscale>
<asrwt>0</asrwt>
<pdfrwt beam="1">  1        2 0.64619200E+00 0.68880756E+04</pdfrwt>
<pdfrwt beam="2">  1       -2 0.43445773E+00 0.68880756E+04</pdfrwt>
<totfact> 0.50652643E-04</totfact>
</mgrwt>
<rwgt>
<wgt id='morphing_basis_vector_1'> +2.0991319e-07 </wgt>
<wgt id='morphing_basis_vector_2'> +1.4298598e-07 </wgt>
<wgt id='morphing_basis_vector_3'> +2.3193569e-07 </wgt>
<wgt id='morphing_basis_vector_4'> +1.6795423e-07 </wgt>
<wgt id='morphing_basis_vector_5'> +2.6804757e-07 </wgt>
</rwgt>
</event>
<event>
 4      1 +6.9060000e-13 6.69996100e+03 7.81860800e-03 7.18942600e-02
        2 -1    0    0  501    0 +0.0000000000e+00 +0.0000000000e+00 +3.4096601748e+03 3.4096601748e+03 0.0000000000e+00 0.0000e+00 -1.0000e+00
       -2 -1    0    0    0  501 -0.0000000000e+00 -0.0000000000e+00 -3.2913452269e+03 3.2913452269e+03 0.0000000000e+00 0.0000e+00 1.0000e+00
      -13  1    1    2    0    0 -3.7765340975e+02 -2.0972395013e+03 -2.5260730068e+03 3.3048571012e+03 0.0000000000e+00 0.0000e+00 1.0000e+00
       13  1    1    2    0    0 +3.7765340975e+02 +2.0972395013e+03 +2.6443879547e+03 3.3961483004e+03 0.0000000000e+00 0.0000e+00 -1.0000e+00
<mgrwt>
<rscale>  0 0.66999608E+04</rscale>
<asrwt>0</asrwt>
<pdfrwt beam="1">  1        2 0.52456310E+00 0.66999608E+04</pdfrwt>
<pdfrwt beam="2">  1       -2 0.50636080E+00 0.66999608E+04</pdfrwt>
<totfact> 0.67349887E-04</totfact>
</mgrwt>
<rwgt>
<wgt id='morphing_basis_vector_1'> +1.8799885e-07 </wgt>
<wgt id='morphing_basis_vector_2'> +1.2817225e-07 </wgt>
<wgt id='morphing_basis_vector_3'> +2.0771436e-07 </wgt>
<wgt id='morphing_basis_vector_4'> +1.5019418e-07 </wgt>
<wgt id='morphing_basis_vector_5'> +2.3988775e-07 </wgt>
</rwgt>
</event>
<event>
 4      1 +6.9060000e-13 7.33679700e+03 7.81860800e-03 7.13102300e-02
        2 -1    0    0  501    0 +0.0000000000e+00 +0.0000000000e+00 +2.6561563125e+03 2.6561563125e+03 0.0000000000e+00 0.0000e+00 1.0000e+00
       -2 -1    0    0    0  501 -0.0000000000e+00 -0.0000000000e+00 -5.0663989357e+03 5.0663989357e+03 0.0000000000e+00 0.0000e+00 -1.0000e+00
      -13  1    1    2    0    0 +2.5858004571e+03 -2.1657739723e+03 -2.7232471010e+03 4.3350911958e+03 0.0000000000e+00 0.0000e+00 -1.0000e+00
       13  1    1    2    0    0 -2.5858004571e+03 +2.1657739723e+03 +3.1300447775e+02 3.3874640524e+03 0.0000000000e+00 0.0000e+00 1.0000e+00
<mgrwt>
<rscale>  0 0.73367970E+04</rscale>
<asrwt>0</asrwt>
<pdfrwt beam="1">  1        2 0.40863944E+00 0.73367970E+04</pdfrwt>
<pdfrwt beam="2">  1       -2 0.77944597E+00 0.73367970E+04</pdfrwt>
<totfact> 0.21579826E-04</totfact>
</mgrwt>
<rwgt>
<wgt id='morphing_basis_vector_1'> +2.7203266e-07 </wgt>
<wgt id='morphing_basis_vector_2'> +1.8974068e-07 </wgt>
<wgt id='morphing_basis_vector_3'> +3.0173180e-07 </wgt>
<wgt id='morphing_basis_vector_4'> +2.1208316e-07 </wgt>
<wgt id='morphing_basis_vector_5'> +3.4480518e-07 </wgt>
</rwgt>
</event>
<event>
 4      1 +6.9060000e-13 7.29663700e+03 7.81860800e-03 7.13452700e-02
        2 -1    0    0  501    0 +0.0000000000e+00 +0.0000000000e+00 +2.4873810106e+03 2.4873810106e+03 0.0000000000e+00 0.0000e+00 -1.0000e+00
       -2 -1    0    0    0  501 -0.0000000000e+00 -0.0000000000e+00 -5.3511008669e+03 5.3511008669e+03 0.0000000000e+00 0.0000e+00 1.0000e+00
      -13  1    1    2    0    0 -1.1482477766e+03 +5.4781505444e+02 -5.1050819924e+03 5.2612200524e+03 0.0000000000e+00 0.0000e+00 1.0000e+00
       13  1    1    2    0    0 +1.1482477766e+03 -5.4781505444e+02 +2.2413621361e+03 2.5772618252e+03 0.0000000000e+00 0.0000e+00 -1.0000e+00
<mgrwt>
<rscale>  0 0.72966367E+04</rscale>
<asrwt>0</asrwt>
<pdfrwt beam="1">  1        2 0.38267401E+00 0.72966367E+04</pdfrwt>
<pdfrwt beam="2">  1       -2 0.82324627E+00 0.72966367E+04</pdfrwt>
<totfact> 0.22175349E-04</totfact>
</mgrwt>
<rwgt>
<wgt id='morphing_basis_vector_1'> +2.6413829e-07 </wgt>
<wgt id='morphing_basis_vector_2'> +1.7976688e-07 </wgt>
<wgt id='morphing_basis_vector_3'> +2.9190611e-07 </wgt>
<wgt id='morphing_basis_vector_4'> +2.1175277e-07 </wgt>
<wgt id='morphing_basis_vector_5'> +3.3766745e-07 </wgt>
</rwgt>
</event>
<event>
 4      1 +6.9060000e-13 6.91029600e+03 7.81860800e-03 7.16943700e-02
        2 -1    0    0  501    0 +0.0000000000e+00 +0.0000000000e+00 +3.8512555438e+03 3.8512555438e+03 0.0000000000e+00 0.0000e+00 -1.0000e+00
       -2 -1    0    0    0  501 -0.0000000000e+00 -0.0000000000e+00 -3.0997805144e+03 3.0997805144e+03 0.0000000000e+00 0.0000e+00 1.0000e+00
      -13  1    1    2    0    0 +6.0299732462e+02 +2.8832697088e+03 -1.4407876399e+03 3.2791338811e+03 0.0000000000e+00 0.0000e+00 1.0000e+00
       13  1    1    2    0    0 -6.0299732462e+02 -2.8832697088e+03 +2.1922626692e+03 3.6719021771e+03 0.0000000000e+00 0.0000e+00 -1.0000e+00
<mgrwt>
<rscale>  0 0.69102958E+04</rscale>
<asrwt>0</asrwt>
<pdfrwt beam="1">  1        2 0.59250085E+00 0.69102958E+04</pdfrwt>
<pdfrwt beam="2">  1       -2 0.47688931E+00 0.69102958E+04</pdfrwt>
<totfact> 0.50700905E-04</totfact>
</mgrwt>
<rwgt>
<wgt id='morphing_basis_vector_1'> +2.1339572e-07 </wgt>
<wgt id='morphing_basis_vector_2'> +1.4708494e-07 </wgt>
<wgt id='morphing_basis_vector_3'> +2.3619690e-07 </wgt>
<wgt id='morphing_basis_vector_4'> +1.6849437e-07 </wgt>
<wgt id='morphing_basis_vector_5'> +2.7139063e-07 </wgt>
</rwgt>
</event>
<event>
 4      1 +6.9060000e-13 6.69996700e+03 7.81860800e-03 7.18942500e-02
        2 -1    0    0  501    0 +0.0000000000e+00 +0.0000000000e+00 +3.7017890452e+03 3.7017890452e+03 0.0000000000e+00 0.0000e+00 -1.0000e+00
       -2 -1    0    0    0  501 -0.0000000000e+00 -0.0000000000e+00 -3.0316127022e+03 3.0316127022e+03 0.0000000000e+00 0.0000e+00 1.0000e+00
      -13  1    1    2    0    0 +1.8084046803e+03 -8.7371908251e+02 -2.3594625323e+03 3.0985118952e+03 0.0000000000e+00 0.0000e+00 1.0000e+00
       13  1    1    2    0    0 -1.8084046803e+03 +8.7371908251e+02 +3.0296388753e+03 3.6348898522e+03 0.0000000000e+00 0.0000e+00 -1.0000e+00
<mgrwt>
<rscale>  0 0.66999674E+04</rscale>
<asrwt>0</asrwt>
<pdfrwt beam="1">  1        2 0.56950601E+00 0.66999674E+04</pdfrwt>
<pdfrwt beam="2">  1       -2 0.46640195E+00 0.66999674E+04</pdfrwt>
<totfact> 0.80709022E-04</totfact>
</mgrwt>
<rwgt>
<wgt id='morphing_basis_vector_1'> +1.8796647e-07 </wgt>
<wgt id='morphing_basis_vector_2'> +1.2807558e-07 </wgt>
<wgt id='morphing_basis_vector_3'> +2.0766095e-07 </wgt>
<wgt id='morphing_basis_vector_4'> +1.5026573e-07 </wgt>
<wgt id='morphing_basis_vector_5'> +2.3989467e-07 </wgt>
</rwgt>
</event>
<event>
 4      1 +6.9060000e-13 7.63907100e+03 7.81860800e-03 7.10535400e-02
        2 -1    0    0  501    0 +0.0000000000e+00 +0.0000000000e+00 +4.7463970711e+03 4.7463970711e+03 0.0000000000e+00 0.0000e+00 1.0000e+00
       -2 -1    0    0    0  501 -0.0000000000e+00 -0.0000000000e+00 -3.0736683602e+03 3.0736683602e+03 0.0000000000e+00 0.0000e+00 -1.0000e+00
      -13  1    1    2    0    0 +2.2166401756e+03 +1.6747119429e+03 -1.8469419074e+03 3.3360677705e+03 0.0000000000e+00 0.0000e+00 -1.0000e+00
       13  1    1    2    0    0 -2.2166401756e+03 -1.6747119429e+03 +3.5196706183e+03 4.4839976607e+03 0.0000000000e+00 0.0000e+00 1.0000e+00
<mgrwt>
<rscale>  0 0.76390708E+04</rscale>
<asrwt>0</asrwt>
<pdfrwt beam="1">  1        2 0.73021493E+00 0.76390708E+04</pdfrwt>
<pdfrwt beam="2">  1       -2 0.47287206E+00 0.76390708E+04</pdfrwt>
<totfact> 0.70449299E-05</totfact>
</mgrwt>
<rwgt>
<wgt id='morphing_basis_vector_1'> +3.1767152e-07 </wgt>
<wgt id='morphing_basis_vector_2'> +2.1721346e-07 </wgt>
<wgt id='morphing_basis_vector_3'> +3.5138860e-07 </wgt>
<wgt id='morphing_basis_vector_4'> +2.5352404e-07 </wgt>
<wgt id='morphing_basis_vector_5'> +4.0568555e-07 </wgt>
</rwgt>
</event>
<event>
 4      1 +6.9060000e-13 6.72827100e+03 7.81860800e-03 7.18669300e-02
        2 -1    0    0  501    0 +0.0000000000e+00 +0.0000000000e+00 +3.9510878252e+03 3.9510878252e+03 0.0000000000e+00 0.0000e+00 -1.0000e+00
       -2 -1    0    0    0  501 -0.0000000000e+00 -0.0000000000e+00 -2.8643772668e+03 2.8643772668e+03 0.0000000000e+00 0.0000e+00 1.0000e+00
      -13  1    1    2    0    0 +4.2954131173e+02 -2.1252109946e+03 -2.0622116092e+03 2.9922807741e+03 0.0000000000e+00 0.0000e+00 1.0000e+00
       13  1    1    2    0    0 -4.2954131173e+02 +2.1252109946e+03 +3.1489221677e+03 3.8231843178e+03 0.0000000000e+00 0.0000e+00 -1.0000e+00
<mgrwt>
<rscale>  0 0.67282705E+04</rscale>
<asrwt>0</asrwt>
<pdfrwt beam="1">  1        2 0.60785967E+00 0.67282705E+04</pdfrwt>
<pdfrwt beam="2">  1       -2 0.44067343E+00 0.67282705E+04</pdfrwt>
<totfact> 0.76876551E-04</totfact>
</mgrwt>
<rwgt>
<wgt id='morphing_basis_vector_1'> +1.9119974e-07 </wgt>
<wgt id='morphing_basis_vector_2'> +1.3037753e-07 </wgt>
<wgt id='morphing_basis_vector_3'> +2.1126188e-07 </wgt>
<wgt id='morphing_basis_vector_4'> +1.5273367e-07 </wgt>
<wgt id='morphing_basis_vector_5'> +2.4397354e-07 </wgt>
</rwgt>
</event>
<event>
 4      1 +6.9060000e-13 6.98748900e+03 7.81860800e-03 7.16228100e-02
        2 -1    0    0  501    0 +0.0000000000e+00 +0.0000000000e+00 +4.3791451080e+03 4.3791451080e+03 0.0000000000e+00 0.0000e+00 1.0000e+00
       -2 -1    0    0    0  501 -0.0000000000e+00 -0.0000000000e+00 -2.7873589736e+03 2.7873589736e+03 0.0000000000e+00 0.0000e+00 -1.0000e+00
      -13  1    1    2    0    0 +2.2568343660e+02 +3.2512983562e+03 -4.9507435266e+02 3.2965091581e+03 0.0000000000e+00 0.0000e+00 -1.0000e+00
       13  1    1    2    0    0 -2.2568343660e+02 -3.2512983562e+03 +2.0868604871e+03 3.8699949234e+03 0.0000000000e+00 0.0000e+00 1.0000e+00
<mgrwt>
<rscale>  0 0.69874887E+04</rscale>
<asrwt>0</asrwt>
<pdfrwt beam="1">  1        2 0.67371463E+00 0.69874887E+04</pdfrwt>
<pdfrwt beam="2">  1       -2 0.42882446E+00 0.69874887E+04</pdfrwt>
<totfact> 0.37096050E-04</totfact>
</mgrwt>
<rwgt>
<wgt id='morphing_basis_vector_1'> +2.2415320e-07 </wgt>
<wgt id='morphing_basis_vector_2'> +1.5692735e-07 </wgt>
<wgt id='morphing_basis_vector_3'> +2.4869515e-07 </wgt>
<wgt id='morphing_basis_vector_4'> +1.7385077e-07 </wgt>
<wgt id='morphing_basis_vector_5'> +2.8354763e-07 </wgt>
</rwgt>
</event>
<event>
 4      1 +6.9060000e-13 6.67442200e+03 7.81860800e-03 7.19190300e-02
        2 -1    0    0  501    0 +0.0000000000e+00 +0.0000000000e+00 +4.0410475588e+03 4.0410475588e+03 0.0000000000e+00 0.0000e+00 -1.0000e+00
       -2 -1    0    0    0  501 -0.0000000000e+00 -0.0000000000e+00 -2.7559632228e+03 2.7559632228e+03 0.0000000000e+00 0.0000e+00 1.0000e+00
      -13  1    1    2    0    0 +4.2752037523e+02 +3.0393351813e+03 -6.9173084418e+02 3.1462395930e+03 0.0000000000e+00 0.0000e+00 1.0000e+00
       13  1    1    2    0    0 -4.2752037523e+02 -3.0393351813e+03 +1.9768151802e+03 3.6507711887e+03 0.0000000000e+00 0.0000e+00 -1.0000e+00
<mgrwt>
<rscale>  0 0.66744224E+04</rscale>
<asrwt>0</asrwt>
<pdfrwt beam="1">  1        2 0.62169962E+00 0.66744224E+04</pdfrwt>
<pdfrwt beam="2">  1       -2 0.42399434E+00 0.66744224E+04</pdfrwt>
<totfact> 0.83840711E-04</totfact>
</mgrwt>
<rwgt>
<wgt id='morphing_basis_vector_1'> +1.8643805e-07 </wgt>
<wgt id='morphing_basis_vector_2'> +1.2999865e-07 </wgt>
<wgt id='morphing_basis_vector_3'> +2.0666805e-07 </wgt>
<wgt id='morphing_basis_vector_4'> +1.4516183e-07 </wgt>
<wgt id='morphing_basis_vector_5'> +2.3601290e-07 </wgt>
</rwgt>
</event>
<event>
 4      1 +6.9060000e-13 7.77734500e+03 7.81860800e-03 7.09400600e-02
        2 -1    0    0  501    0 +0.0000000000e+00 +0.0000000000e+00 +3.2285479060e+03 3.2285479060e+03 0.0000000000e+00 0.0000e+00 -1.0000e+00
       -2 -1    0    0    0  501 -0.0000000000e+00 -0.0000000000e+00 -4.6837693627e+03 4.6837693627e+03 0.0000000000e+00 0.0000e+00 1.0000e+00
      -13  1    1    2    0    0 -3.0607981226e+03 +4.1859953776e+02 -3.1303908967e+03 4.3980743384e+03 0.0000000000e+00 0.0000e+00 1.0000e+00
       13  1    1    2    0    0 +3.0607981226e+03 -4.1859953776e+02 +1.6751694400e+03 3.5142429303e+03 0.0000000000e+00 0.0000e+00 -1.0000e+00
<mgrwt>
<rscale>  0 0.77773450E+04</rscale>
<asrwt>0</asrwt>
<pdfrwt beam="1">  1        2 0.49669968E+00 0.77773450E+04</pdfrwt>
<pdfrwt beam="2">  1       -2 0.72057990E+00 0.77773450E+04</pdfrwt>
<totfact> 0.46148439E-05</totfact>
</mgrwt>
<rwgt>
<wgt id='morphing_basis_vector_1'> +3.4161585e-07 </wgt>
<wgt id='morphing_basis_vector_2'> +2.3437751e-07 </wgt>
<wgt id='morphing_basis_vector_3'> +3.7809484e-07 </wgt>
<wgt id='morphing_basis_vector_4'> +2.7166801e-07 </wgt>
<wgt id='morphing_basis_vector_5'> +4.3584492e-07 </wgt>
</rwgt>
</event>
<event>
 4      1 +6.9060000e-13 6.68089700e+03 7.81860800e-03 7.19127400e-02
        2 -1    0    0  501    0 +0.0000000000e+00 +0.0000000000e+00 +3.5794993828e+03 3.5794993828e+03 0.0000000000e+00 0.0000e+00 -1.0000e+00
       -2 -1    0    0    0  501 -0.0000000000e+00 -0.0000000000e+00 -3.1173625443e+03 3.1173625443e+03 0.0000000000e+00 0.0000e+00 1.0000e+00
      -13  1    1    2    0    0 -7.7667850611e+02 +8.6058337330e+02 -2.9092701906e+03 3.1317225750e+03 0.0000000000e+00 0.0000e+00 1.0000e+00
       13  1    1    2    0    0 +7.7667850611e+02 -8.6058337330e+02 +3.3714070291e+03 3.5651393521e+03 0.0000000000e+00 0.0000e+00 -1.0000e+00
<mgrwt>
<rscale>  0 0.66808973E+04</rscale>
<asrwt>0</asrwt>
<pdfrwt beam="1">  1        2 0.55069221E+00 0.66808973E+04</pdfrwt>
<pdfrwt beam="2">  1       -2 0.47959424E+00 0.66808973E+04</pdfrwt>
<totfact> 0.80221326E-04</totfact>
</mgrwt>
<rwgt>
<wgt id='morphing_basis_vector_1'> +1.8575400e-07 </wgt>
<wgt id='morphing_basis_vector_2'> +1.2637391e-07 </wgt>
<wgt id='morphing_basis_vector_3'> +2.0516714e-07 </wgt>
<wgt id='morphing_basis_vector_4'> +1.4874241e-07 </wgt>
<wgt id='morphing_basis_vector_5'> +2.3718571e-07 </wgt>
</rwgt>
</event>
<event>
 4      1 +6.9060000e-13 7.01281100e+03 7.81860800e-03 7.15995400e-02
        2 -1    0    0  501    0 +0.0000000000e+00 +0.0000000000e+00 +4.1588195922e+03 4.1588195922e+03 0.0000000000e+00 0.0000e+00 1.0000e+00
       -2 -1    0    0    0  501 -0.0000000000e+00 -0.0000000000e+00 -2.9563386202e+03 2.9563386202e+03 0.0000000000e+00 0.0000e+00 -1.0000e+00
      -13  1    1    2    0    0 -1.0158736836e+03 -1.4029430034e+03 +3.6944440576e+03 4.0803388715e+03 0.0000000000e+00 0.0000e+00 1.0000e+00
       13  1    1    2    0    0 +1.0158736836e+03 +1.4029430034e+03 -2.4919630856e+03 3.0348193408e+03 0.0000000000e+00 0.0000e+00 -1.0000e+00
<mgrwt>
<rscale>  0 0.70128108E+04</rscale>
<asrwt>0</asrwt>
<pdfrwt beam="1">  1        2 0.63981840E+00 0.70128108E+04</pdfrwt>
<pdfrwt beam="2">  1       -2 0.45482133E+00 0.70128108E+04</pdfrwt>
<totfact> 0.39612210E-04</totfact>
</mgrwt>
<rwgt>
<wgt id='morphing_basis_vector_1'> +3.0553364e-07 </wgt>
<wgt id='morphing_basis_vector_2'> +3.8843560e-07 </wgt>
<wgt id='morphing_basis_vector_3'> +3.8035325e-07 </wgt>
<wgt id='morphing_basis_vector_4'> +8.8782408e-09 </wgt>
<wgt id='morphing_basis_vector_5'> +2.7356865e-07 </wgt>
</rwgt>
</event>
<event>
 4      1 +6.9060000e-13 7.82458600e+03 7.81860800e-03 7.09018300e-02
        2 -1    0    0  501    0 +0.0000000000e+00 +0.0000000000e+00 +2.8175139048e+03 2.8175139048e+03 0.0000000000e+00 0.0000e+00 1.0000e+00
       -2 -1    0    0    0  501 -0.0000000000e+00 -0.0000000000e+00 -5.4324617523e+03 5.4324617523e+03 0.0000000000e+00 0.0000e+00 -1.0000e+00
      -13  1    1    2    0    0 -3.5916496533e+03 -1.4584081650e+03 -7.5041853260e+02 3.9484211505e+03 0.0000000000e+00 0.0000e+00 -1.0000e+00
       13  1    1    2    0    0 +3.5916496533e+03 +1.4584081650e+03 -1.8645293149e+03 4.3015545067e+03 0.0000000000e+00 0.0000e+00 1.0000e+00
<mgrwt>
<rscale>  0 0.78245860E+04</rscale>
<asrwt>0</asrwt>
<pdfrwt beam="1">  1        2 0.43346368E+00 0.78245860E+04</pdfrwt>
<pdfrwt beam="2">  1       -2 0.83576334E+00 0.78245860E+04</pdfrwt>
<totfact> 0.11683048E-04</totfact>
</mgrwt>
<rwgt>
<wgt id='morphing_basis_vector_1'> +3.6979889e-07 </wgt>
<wgt id='morphing_basis_vector_2'> +2.9826410e-07 </wgt>
<wgt id='morphing_basis_vector_3'> +4.1991140e-07 </wgt>
<wgt id='morphing_basis_vector_4'> +2.3578599e-07 </wgt>
<wgt id='morphing_basis_vector_5'> +4.4295517e-07 </wgt>
</rwgt>
</event>
<event>
 4      1 +6.9060000e-13 7.20257300e+03 7.81860800e-03 7.14282300e-02
        2 -1    0    0  501    0 +0.0000000000e+00 +0.0000000000e+00 +2.7731215410e+03 2.7731215410e+03 0.0000000000e+00 0.0000e+00 -1.0000e+00
       -2 -1    0    0    0  501 -0.0000000000e+00 -0.0000000000e+00 -4.6767742358e+03 4.6767742358e+03 0.0000000000e+00 0.0000e+00 1.0000e+00
      -13  1    1    2    0    0 +7.8958739180e+02 +1.3922454914e+03 -4.2886640246e+03 4.5776014324e+03 0.0000000000e+00 0.0000e+00 1.0000e+00
       13  1    1    2    0    0 -7.8958739180e+02 -1.3922454914e+03 +2.3850113298e+03 2.8722943444e+03 0.0000000000e+00 0.0000e+00 -1.0000e+00
<mgrwt>
<rscale>  0 0.72025727E+04</rscale>
<asrwt>0</asrwt>
<pdfrwt beam="1">  1        2 0.42663409E+00 0.72025727E+04</pdfrwt>
<pdfrwt beam="2">  1       -2 0.71950373E+00 0.72025727E+04</pdfrwt>
<totfact> 0.91171959E-05</totfact>
</mgrwt>
<rwgt>
<wgt id='morphing_basis_vector_1'> +2.5081954e-07 </wgt>
<wgt id='morphing_basis_vector_2'> +1.7073947e-07 </wgt>
<wgt id='morphing_basis_vector_3'> +2.7717694e-07 </wgt>
<wgt id='morphing_basis_vector_4'> +2.0098424e-07 </wgt>
<wgt id='morphing_basis_vector_5'> +3.2056050e-07 </wgt>
</rwgt>
</event>
<event>
 4      1 +6.9060000e-13 6.71326900e+03 7.81860800e-03 7.18813900e-02
        2 -1    0    0  501    0 +0.0000000000e+00 +0.0000000000e+00 +3.5686106446e+03 3.5686106446e+03 0.0000000000e+00 0.0000e+00 1.0000e+00
       -2 -1    0    0    0  501 -0.0000000000e+00 -0.0000000000e+00 -3.1572498750e+03 3.1572498750e+03 0.0000000000e+00 0.0000e+00 -1.0000e+00
      -13  1    1    2    0    0 -3.5625279889e+02 +2.2254374201e+03 -2.2864552670e+03 3.2105085977e+03 0.0000000000e+00 0.0000e+00 -1.0000e+00
       13  1    1    2    0    0 +3.5625279889e+02 -2.2254374201e+03 +2.6978160366e+03 3.5153519219e+03 0.0000000000e+00 0.0000e+00 1.0000e+00
<mgrwt>
<rscale>  0 0.67132691E+04</rscale>
<asrwt>0</asrwt>
<pdfrwt beam="1">  1        2 0.54901702E+00 0.67132691E+04</pdfrwt>
<pdfrwt beam="2">  1       -2 0.48573075E+00 0.67132691E+04</pdfrwt>
<totfact> 0.73453804E-04</totfact>
</mgrwt>
<rwgt>
<wgt id='morphing_basis_vector_1'> +1.8953664e-07 </wgt>
<wgt id='morphing_basis_vector_2'> +1.2931728e-07 </wgt>
<wgt id='morphing_basis_vector_3'> +2.0943884e-07 </wgt>
<wgt id='morphing_basis_vector_4'> +1.5130233e-07 </wgt>
<wgt id='morphing_basis_vector_5'> +2.4179514e-07 </wgt>
</rwgt>
</event>
<event>
 4      1 +6.9060000e-13 6.86621100e+03 7.81860800e-03 7.17356700e-02
        2 -1    0    0  501    0 +0.0000000000e+00 +0.0000000000e+00 +4.9427640183e+03 4.9427640183e+03 0.0000000000e+00 0.0000e+00 -1.0000e+00
       -2 -1    0    0    0  501 -0.0000000000e+00 -0.0000000000e+00 -2.3845392544e+03 2.3845392544e+03 0.0000000000e+00 0.0000e+00 1.0000e+00
      -13  1    1    2    0    0 +1.9984424279e+03 +1.2082324688e+03 -1.4063471114e+03 2.7260612675e+03 0.0000000000e+00 0.0000e+00 1.0000e+00
       13  1    1    2    0    0 -1.9984424279e+03 -1.2082324688e+03 +3.9645718753e+03 4.6012420052e+03 0.0000000000e+00 0.0000e+00 -1.0000e+00
<mgrwt>
<rscale>  0 0.68662114E+04</rscale>
<asrwt>0</asrwt>
<pdfrwt beam="1">  1        2 0.76042523E+00 0.68662114E+04</pdfrwt>
<pdfrwt beam="2">  1       -2 0.36685219E+00 0.68662114E+04</pdfrwt>
<totfact> 0.22122779E-04</totfact>
</mgrwt>
<rwgt>
<wgt id='morphing_basis_vector_1'> +2.0738834e-07 </wgt>
<wgt id='morphing_basis_vector_2'> +1.4154168e-07 </wgt>
<wgt id='morphing_basis_vector_3'> +2.2920688e-07 </wgt>
<wgt id='morphing_basis_vector_4'> +1.6556446e-07 </wgt>
<wgt id='morphing_basis_vector_5'> +2.6463251e-07 </wgt>
</rwgt>
</event>
<event>
 4      1 +6.9060000e-13 6.91962200e+03 7.81860800e-03 7.16856800e-02
        2 -1    0    0  501    0 +0.0000000000e+00 +0.0000000000e+00 +3.0319602555e+03 3.0319602555e+03 0.0000000000e+00 0.0000e+00 -1.0000e+00
       -2 -1    0    0    0  501 -0.0000000000e+00 -0.0000000000e+00 -3.9480368341e+03 3.9480368341e+03 0.0000000000e+00 0.0000e+00 1.0000e+00
      -13  1    1    2    0    0 +4.1784181598e+02 +5.7870123342e+02 -3.8729575189e+03 3.9381831907e+03 0.0000000000e+00 0.0000e+00 1.0000e+00
       13  1    1    2    0    0 -4.1784181598e+02 -5.7870123342e+02 +2.9568809403e+03 3.0418138989e+03 0.0000000000e+00 0.0000e+00 -1.0000e+00
<mgrwt>
<rscale>  0 0.69196216E+04</rscale>
<asrwt>0</asrwt>
<pdfrwt beam="1">  1        2 0.46645542E+00 0.69196216E+04</pdfrwt>
<pdfrwt beam="2">  1       -2 0.60739028E+00 0.69196216E+04</pdfrwt>
<totfact> 0.19928546E-04</totfact>
</mgrwt>
<rwgt>
<wgt id='morphing_basis_vector_1'> +2.1369956e-07 </wgt>
<wgt id='morphing_basis_vector_2'> +1.4539032e-07 </wgt>
<wgt id='morphing_basis_vector_3'> +2.3608421e-07 </wgt>
<wgt id='morphing_basis_vector_4'> +1.7122629e-07 </wgt>
<wgt id='morphing_basis_vector_5'> +2.7301435e-07 </wgt>
</rwgt>
</event>
<event>
 4      1 +6.9060000e-13 6.67877700e+03 7.81860800e-03 7.19148000e-02
        2 -1    0    0  501    0 +0.0000000000e+00 +0.0000000000e+00 +5.4890766573e+03 5.4890766573e+03 0.0000000000e+00 0.0000e+00 -1.0000e+00
       -2 -1    0    0    0  501 -0.0000000000e+00 -0.0000000000e+00 -2.0315833009e+03 2.0315833009e+03 0.0000000000e+00 0.0000e+00 1.0000e+00
      -13  1    1    2    0    0 +1.6157758269e+03 -1.1686587330e+02 -1.5594695299e+03 2.2486294425e+03 0.0000000000e+00 0.0000e+00 1.0000e+00
       13  1    1    2    0    0 -1.6157758269e+03 +1.1686587330e+02 +5.0169628863e+03 5.2720305156e+03 0.0000000000e+00 0.0000e+00 -1.0000e+00
<mgrwt>
<rscale>  0 0.66787773E+04</rscale>
<asrwt>0</asrwt>
<pdfrwt beam="1">  1        2 0.84447332E+00 0.66787773E+04</pdfrwt>
<pdfrwt beam="2">  1       -2 0.31255128E+00 0.66787773E+04</pdfrwt>
<totfact> 0.72226336E-05</totfact>
</mgrwt>
<rwgt>
<wgt id='morphing_basis_vector_1'> +1.8554498e-07 </wgt>
<wgt id='morphing_basis_vector_2'> +1.2629061e-07 </wgt>
<wgt id='morphing_basis_vector_3'> +2.0494979e-07 </wgt>
<wgt id='morphing_basis_vector_4'> +1.4849721e-07 </wgt>
<wgt id='morphing_basis_vector_5'> +2.3687952e-07 </wgt>
</rwgt>
</event>
<event>
 4      1 +6.9060000e-13 6.67510300e+03 7.81860800e-03 7.19183700e-02
        2 -1    0    0  501    0 +0.0000000000e+00 +0.0000000000e+00 +3.7946873820e+03 3.7946873820e+03 0.0000000000e+00 0.0000e+00 -1.0000e+00
       -2 -1    0    0    0  501 -0.0000000000e+00 -0.0000000000e+00 -2.9354852492e+03 2.9354852492e+03 0.0000000000e+00 0.0000e+00 1.0000e+00
      -13  1    1    2    0    0 +8.6461701226e+02 -1.2088317639e+02 -2.8183217673e+03 2.9504428319e+03 0.0000000000e+00 0.0000e+00 1.0000e+00
       13  1    1    2    0    0 -8.6461701226e+02 +1.2088317639e+02 +3.6775239001e+03 3.7797297993e+03 0.0000000000e+00 0.0000e+00 -1.0000e+00
<mgrwt>
<rscale>  0 0.66751026E+04</rscale>
<asrwt>0</asrwt>
<pdfrwt beam="1">  1        2 0.58379805E+00 0.66751026E+04</pdfrwt>
<pdfrwt beam="2">  1       -2 0.45161312E+00 0.66751026E+04</pdfrwt>
<totfact> 0.87060057E-04</totfact>
</mgrwt>
<rwgt>
<wgt id='morphing_basis_vector_1'> +1.8510616e-07 </wgt>
<wgt id='morphing_basis_vector_2'> +1.2592048e-07 </wgt>
<wgt id='morphing_basis_vector_3'> +2.0444749e-07 </wgt>
<wgt id='morphing_basis_vector_4'> +1.4823773e-07 </wgt>
<wgt id='morphing_basis_vector_5'> +2.3636341e-07 </wgt>
</rwgt>
</event>
<event>
 4      1 +6.9060000e-13 6.88283800e+03 7.81860800e-03 7.17200600e-02
        2 -1    0    0  501    0 +0.0000000000e+00 +0.0000000000e+00 +3.9430398677e+03 3.9430398677e+03 0.0000000000e+00 0.0000e+00 -1.0000e+00
       -2 -1    0    0    0  501 -0.0000000000e+00 -0.0000000000e+00 -3.0036129624e+03 3.0036129624e+03 0.0000000000e+00 0.0000e+00 1.0000e+00
      -13  1    1    2    0    0 -2.4317612215e+03 -1.3813698282e+03 +2.4937295775e+03 3.7470431605e+03 0.0000000000e+00 0.0000e+00 1.0000e+00
       13  1    1    2    0    0 +2.4317612215e+03 +1.3813698282e+03 -1.5543026722e+03 3.1996096696e+03 0.0000000000e+00 0.0000e+00 -1.0000e+00
<mgrwt>
<rscale>  0 0.68828383E+04</rscale>
<asrwt>0</asrwt>
<pdfrwt beam="1">  1        2 0.60662152E+00 0.68828383E+04</pdfrwt>
<pdfrwt beam="2">  1       -2 0.46209430E+00 0.68828383E+04</pdfrwt>
<totfact> 0.54673632E-04</totfact>
</mgrwt>
<rwgt>
<wgt id='morphing_basis_vector_1'> +2.5680106e-07 </wgt>
<wgt id='morphing_basis_vector_2'> +2.8200630e-07 </wgt>
<wgt id='morphing_basis_vector_3'> +3.0909142e-07 </wgt>
<wgt id='morphing_basis_vector_4'> +6.5562121e-08 </wgt>
<wgt id='morphing_basis_vector_5'> +2.5864685e-07 </wgt>
</rwgt>
</event>
<event>
 4      1 +6.9060000e-13 6.66349200e+03 7.81860800e-03 7.19296700e-02
        2 -1    0    0  501    0 +0.0000000000e+00 +0.0000000000e+00 +3.8873293537e+03 3.8873293537e+03 0.0000000000e+00 0.0000e+00 1.0000e+00
       -2 -1    0    0    0  501 -0.0000000000e+00 -0.0000000000e+00 -2.8555670991e+03 2.8555670991e+03 0.0000000000e+00 0.0000e+00 -1.0000e+00
      -13  1    1    2    0    0 -2.0917099163e+03 +2.4491667154e+03 +1.3786025322e+03 3.5034572804e+03 0.0000000000e+00 0.0000e+00 1.0000e+00
       13  1    1    2    0    0 +2.0917099163e+03 -2.4491667154e+03 -3.4684027754e+02 3.2394391724e+03 0.0000000000e+00 0.0000e+00 -1.0000e+00
<mgrwt>
<rscale>  0 0.66634915E+04</rscale>
<asrwt>0</asrwt>
<pdfrwt beam="1">  1        2 0.59805067E+00 0.66634915E+04</pdfrwt>
<pdfrwt beam="2">  1       -2 0.43931801E+00 0.66634915E+04</pdfrwt>
<totfact> 0.89135178E-04</totfact>
</mgrwt>
<rwgt>
<wgt id='morphing_basis_vector_1'> +2.0011637e-07 </wgt>
<wgt id='morphing_basis_vector_2'> +1.7285807e-07 </wgt>
<wgt id='morphing_basis_vector_3'> +2.2970212e-07 </wgt>
<wgt id='morphing_basis_vector_4'> +1.1229613e-07 </wgt>
<wgt id='morphing_basis_vector_5'> +2.3177953e-07 </wgt>
</rwgt>
</event>
<event>
 4      1 +6.9060000e-13 6.72026800e+03 7.81860800e-03 7.18746400e-02
        2 -1    0    0  501    0 +0.0000000000e+00 +0.0000000000e+00 +3.9554524782e+03 3.9554524782e+03 0.0000000000e+00 0.0000e+00 -1.0000e+00
       -2 -1    0    0    0  501 -0.0000000000e+00 -0.0000000000e+00 -2.8544142270e+03 2.8544142270e+03 0.0000000000e+00 0.0000e+00 1.0000e+00
      -13  1    1    2    0    0 +2.4024906148e+03 -1.0315674593e+03 -1.5881667023e+03 3.0591446602e+03 0.0000000000e+00 0.0000e+00 1.0000e+00
       13  1    1    2    0    0 -2.4024906148e+03 +1.0315674593e+03 +2.6892049535e+03 3.7507220451e+03 0.0000000000e+00 0.0000e+00 -1.0000e+00
<mgrwt>
<rscale>  0 0.67202678E+04</rscale>
<asrwt>0</asrwt>
<pdfrwt beam="1">  1        2 0.60853115E+00 0.67202678E+04</pdfrwt>
<pdfrwt beam="2">  1       -2 0.43914065E+00 0.67202678E+04</pdfrwt>
<totfact> 0.78136477E-04</totfact>
</mgrwt>
<rwgt>
<wgt id='morphing_basis_vector_1'> +1.9055858e-07 </wgt>
<wgt id='morphing_basis_vector_2'> +1.3053711e-07 </wgt>
<wgt id='morphing_basis_vector_3'> +2.1069299e-07 </wgt>
<wgt id='morphing_basis_vector_4'> +1.5143866e-07 </wgt>
<wgt id='morphing_basis_vector_5'> +2.4276496e-07 </wgt>
</rwgt>
</event>
<event>
 4      1 +6.9060000e-13 7.29353900e+03 7.81860800e-03 7.13479800e-02
        2 -1    0    0  501    0 +0.0000000000e+00 +0.0000000000e+00 +5.0249985742e+03 5.0249985742e+03 0.0000000000e+00 0.0000e+00 -1.0000e+00
       -2 -1    0    0    0  501 -0.0000000000e+00 -0.0000000000e+00 -2.6465533232e+03 2.6465533232e+03 0.0000000000e+00 0.0000e+00 1.0000e+00
      -13  1    1    2    0    0 +3.4942229281e+03 -2.5505251550e+02 +1.2470097564e+02 3.5057375815e+03 0.0000000000e+00 0.0000e+00 1.0000e+00
       13  1    1    2    0    0 -3.4942229281e+03 +2.5505251550e+02 +2.2537442754e+03 4.1658143160e+03 0.0000000000e+00 0.0000e+00 -1.0000e+00
<mgrwt>
<rscale>  0 0.72935387E+04</rscale>
<asrwt>0</asrwt>
<pdfrwt beam="1">  1        2 0.77307670E+00 0.72935387E+04</pdfrwt>
<pdfrwt beam="2">  1       -2 0.40716205E+00 0.72935387E+04</pdfrwt>
<totfact> 0.91388620E-05</totfact>
</mgrwt>
<rwgt>
<wgt id='morphing_basis_vector_1'> +2.6701030e-07 </wgt>
<wgt id='morphing_basis_vector_2'> +1.8920201e-07 </wgt>
<wgt id='morphing_basis_vector_3'> +2.9685563e-07 </wgt>
<wgt id='morphing_basis_vector_4'> +2.0427107e-07 </wgt>
<wgt id='morphing_basis_vector_5'> +3.3649300e-07 </wgt>
</rwgt>
</event>
<event>
 4      1 +6.9060000e-13 7.18834100e+03 7.81860800e-03 7.14408900e-02
        2 -1    0    0  501    0 +0.0000000000e+00 +0.0000000000e+00 +4.6162241452e+03 4.6162241452e+03 0.0000000000e+00 0.0000e+00 -1.0000e+00
       -2 -1    0    0    0  501 -0.0000000000e+00 -0.0000000000e+00 -2.7984039592e+03 2.7984039592e+03 0.0000000000e+00 0.0000e+00 1.0000e+00
      -13  1    1    2    0    0 +2.9508478335e+03 -1.9383581077e+03 +1.6033992757e+03 3.8775796998e+03 0.0000000000e+00 0.0000e+00 1.0000e+00
       13  1    1    2    0    0 -2.9508478335e+03 +1.9383581077e+03 +2.1442091030e+02 3.5370484047e+03 0.0000000000e+00 0.0000e+00 -1.0000e+00
<mgrwt>
<rscale>  0 0.71883405E+04</rscale>
<asrwt>0</asrwt>
<pdfrwt beam="1">  1        2 0.71018833E+00 0.71883405E+04</pdfrwt>
<pdfrwt beam="2">  1       -2 0.43052369E+00 0.71883405E+04</pdfrwt>
<totfact> 0.20217401E-04</totfact>
</mgrwt>
<rwgt>
<wgt id='morphing_basis_vector_1'> +2.6639736e-07 </wgt>
<wgt id='morphing_basis_vector_2'> +2.2089301e-07 </wgt>
<wgt id='morphing_basis_vector_3'> +3.0377283e-07 </wgt>
<wgt id='morphing_basis_vector_4'> +1.6175088e-07 </wgt>
<wgt id='morphing_basis_vector_5'> +3.1485660e-07 </wgt>
</rwgt>
</event>
<event>
 4      1 +6.9060000e-13 7.33436800e+03 7.81860800e-03 7.13123400e-02
        2 -1    0    0  501    0 +0.0000000000e+00 +0.0000000000e+00 +4.0691409991e+03 4.0691409991e+03 0.0000000000e+00 0.0000e+00 -1.0000e+00
       -2 -1    0    0    0  501 -0.0000000000e+00 -0.0000000000e+00 -3.3049326380e+03 3.3049326380e+03 0.0000000000e+00 0.0000e+00 1.0000e+00
      -13  1    1    2    0    0 +1.7766262283e+03 -2.0284176258e+03 -2.1167803427e+03 3.4280661952e+03 0.0000000000e+00 0.0000e+00 1.0000e+00
       13  1    1    2    0    0 -1.7766262283e+03 +2.0284176258e+03 +2.8809887038e+03 3.9460074418e+03 0.0000000000e+00 0.0000e+00 -1.0000e+00
<mgrwt>
<rscale>  0 0.73343676E+04</rscale>
<asrwt>0</asrwt>
<pdfrwt beam="1">  1        2 0.62602169E+00 0.73343676E+04</pdfrwt>
<pdfrwt beam="2">  1       -2 0.50845118E+00 0.73343676E+04</pdfrwt>
<totfact> 0.18745679E-04</totfact>
</mgrwt>
<rwgt>
<wgt id='morphing_basis_vector_1'> +2.7002922e-07 </wgt>
<wgt id='morphing_basis_vector_2'> +1.8466646e-07 </wgt>
<wgt id='morphing_basis_vector_3'> +2.9863580e-07 </wgt>
<wgt id='morphing_basis_vector_4'> +2.1532890e-07 </wgt>
<wgt id='morphing_basis_vector_5'> +3.4464544e-07 </wgt>
</rwgt>
</event>
<event>
 4      1 +6.9060000e-13 7.32208900e+03 7.81860800e-03 7.13230400e-02
        2 -1    0    0  501    0 +0.0000000000e+00 +0.0000000000e+00 +4.4679856511e+03 4.4679856511e+03 0.0000000000e+00 0.0000e+00 1.0000e+00
       -2 -1    0    0    0  501 -0.0000000000e+00 -0.0000000000e+00 -2.9998409814e+03 2.9998409814e+03 0.0000000000e+00 0.0000e+00 -1.0000e+00
      -13  1    1    2    0    0 +1.8340189390e+03 -2.6124215538e+03 +2.5627672175e+03 4.0934273726e+03 0.0000000000e+00 0.0000e+00 -1.0000e+00
       13  1    1    2    0    0 -1.8340189390e+03 +2.6124215538e+03 -1.0946225478e+03 3.3743992599e+03 0.0000000000e+00 0.0000e+00 1.0000e+00
<mgrwt>
<rscale>  0 0.73220889E+04</rscale>
<asrwt>0</asrwt>
<pdfrwt beam="1">  1        2 0.68738241E+00 0.73220889E+04</pdfrwt>
<pdfrwt beam="2">  1       -2 0.46151399E+00 0.73220889E+04</pdfrwt>
<totfact> 0.17521139E-04</totfact>
</mgrwt>
<rwgt>
<wgt id='morphing_basis_vector_1'> +3.1596550e-07 </wgt>
<wgt id='morphing_basis_vector_2'> +3.2349812e-07 </wgt>
<wgt id='morphing_basis_vector_3'> +3.7494650e-07 </wgt>
<wgt id='morphing_basis_vector_4'> +1.1146995e-07 </wgt>
<wgt id='morphing_basis_vector_5'> +3.3370381e-07 </wgt>
</rwgt>
</event>
<event>
 4      1 +6.9060000e-13 6.78397700e+03 7.81860800e-03 7.18135400e-02
        2 -1    0    0  501    0 +0.0000000000e+00 +0.0000000000e+00 +3.3428487018e+03 3.3428487018e+03 0.0000000000e+00 0.0000e+00 1.0000e+00
       -2 -1    0    0    0  501 -0.0000000000e+00 -0.0000000000e+00 -3.4418511317e+03 3.4418511317e+03 0.0000000000e+00 0.0000e+00 -1.0000e+00
      -13  1    1    2    0    0 -2.9323677210e+03 -1.6876670712e+03 -2.9157448995e+02 3.3958822532e+03 0.0000000000e+00 0.0000e+00 -1.0000e+00
       13  1    1    2    0    0 +2.9323677210e+03 +1.6876670712e+03 +1.9257206004e+02 3.3888175803e+03 0.0000000000e+00 0.0000e+00 1.0000e+00
<mgrwt>
<rscale>  0 0.67839775E+04</rscale>
<asrwt>0</asrwt>
<pdfrwt beam="1">  1        2 0.51428441E+00 0.67839775E+04</pdfrwt>
<pdfrwt beam="2">  1       -2 0.52951556E+00 0.67839775E+04</pdfrwt>
<totfact> 0.50274126E-04</totfact>
</mgrwt>
<rwgt>
<wgt id='morphing_basis_vector_1'> +2.0305778e-07 </wgt>
<wgt id='morphing_basis_vector_2'> +1.5076394e-07 </wgt>
<wgt id='morphing_basis_vector_3'> +2.2728508e-07 </wgt>
<wgt id='morphing_basis_vector_4'> +1.4616448e-07 </wgt>
<wgt id='morphing_basis_vector_5'> +2.5118312e-07 </wgt>
</rwgt>
</event>
<event>
 4      1 +6.9060000e-13 7.31320600e+03 7.81860800e-03 7.13307900e-02
        2 -1    0    0  501    0 +0.0000000000e+00 +0.0000000000e+00 +3.7360506326e+03 3.7360506326e+03 0.0000000000e+00 0.0000e+00 1.0000e+00
       -2 -1    0    0    0  501 -0.0000000000e+00 -0.0000000000e+00 -3.5788447140e+03 3.5788447140e+03 0.0000000000e+00 0.0000e+00 -1.0000e+00
      -13  1    1    2    0    0 -1.1530633267e+03 -5.2783503961e+02 -3.3518511665e+03 3.5837230790e+03 0.0000000000e+00 0.0000e+00 -1.0000e+00
       13  1    1    2    0    0 +1.1530633267e+03 +5.2783503961e+02 +3.5090570851e+03 3.7311722677e+03 0.0000000000e+00 0.0000e+00 1.0000e+00
<mgrwt>
<rscale>  0 0.73132059E+04</rscale>
<asrwt>0</asrwt>
<pdfrwt beam="1">  1        2 0.57477702E+00 0.73132059E+04</pdfrwt>
<pdfrwt beam="2">  1       -2 0.55059150E+00 0.73132059E+04</pdfrwt>
<totfact> 0.17403390E-04</totfact>
</mgrwt>
<rwgt>
<wgt id='morphing_basis_vector_1'> +2.6654170e-07 </wgt>
<wgt id='morphing_basis_vector_2'> +1.8140354e-07 </wgt>
<wgt id='morphing_basis_vector_3'> +2.9456590e-07 </wgt>
<wgt id='morphing_basis_vector_4'> +2.1368611e-07 </wgt>
<wgt id='morphing_basis_vector_5'> +3.4074965e-07 </wgt>
</rwgt>
</event>
<event>
 4      1 +6.9060000e-13 6.68530100e+03 7.81860800e-03 7.19084700e-02
        2 -1    0    0  501    0 +0.0000000000e+00 +0.0000000000e+00 +3.5532915838e+03 3.5532915838e+03 0.0000000000e+00 0.0000e+00 -1.0000e+00
       -2 -1    0    0    0  501 -0.0000000000e+00 -0.0000000000e+00 -3.1444967259e+03 3.1444967259e+03 0.0000000000e+00 0.0000e+00 1.0000e+00
      -13  1    1    2    0    0 +8.9385949002e+01 +2.8436267430e+03 -1.5536196360e+03 3.2415948043e+03 0.0000000000e+00 0.0000e+00 1.0000e+00
       13  1    1    2    0    0 -8.9385949002e+01 -2.8436267430e+03 +1.9624144939e+03 3.4561935055e+03 0.0000000000e+00 0.0000e+00 -1.0000e+00
<mgrwt>
<rscale>  0 0.66853014E+04</rscale>
<asrwt>0</asrwt>
<pdfrwt beam="1">  1        2 0.54666025E+00 0.66853014E+04</pdfrwt>
<pdfrwt beam="2">  1       -2 0.48376872E+00 0.66853014E+04</pdfrwt>
<totfact> 0.78164575E-04</totfact>
</mgrwt>
<rwgt>
<wgt id='morphing_basis_vector_1'> +1.8696665e-07 </wgt>
<wgt id='morphing_basis_vector_2'> +1.2882965e-07 </wgt>
<wgt id='morphing_basis_vector_3'> +2.0689278e-07 </wgt>
<wgt id='morphing_basis_vector_4'> +1.4758582e-07 </wgt>
<wgt id='morphing_basis_vector_5'> +2.3768230e-07 </wgt>
</rwgt>
</event>
<event>
 4      1 +6.9060000e-13 6.73623100e+03 7.81860800e-03 7.18592700e-02
        2 -1    0    0  501    0 +0.0000000000e+00 +0.0000000000e+00 +3.3734265158e+03 3.3734265158e+03 0.0000000000e+00 0.0000e+00 -1.0000e+00
       -2 -1    0    0    0  501 -0.0000000000e+00 -0.0000000000e+00 -3.3628127763e+03 3.3628127763e+03 0.0000000000e+00 0.0000e+00 1.0000e+00
      -13  1    1    2    0    0 +2.6719154345e+03 +2.0474509919e+03 +1.1938651679e+02 3.3682993920e+03 0.0000000000e+00 0.0000e+00 1.0000e+00
       13  1    1    2    0    0 -2.6719154345e+03 -2.0474509919e+03 -1.0877277725e+02 3.3679399001e+03 0.0000000000e+00 0.0000e+00 -1.0000e+00
<mgrwt>
<rscale>  0 0.67362309E+04</rscale>
<asrwt>0</asrwt>
<pdfrwt beam="1">  1        2 0.51898869E+00 0.67362309E+04</pdfrwt>
<pdfrwt beam="2">  1       -2 0.51735581E+00 0.67362309E+04</pdfrwt>
<totfact> 0.59007101E-04</totfact>
</mgrwt>
<rwgt>
<wgt id='morphing_basis_vector_1'> +1.9994612e-07 </wgt>
<wgt id='morphing_basis_vector_2'> +1.5400617e-07 </wgt>
<wgt id='morphing_basis_vector_3'> +2.2510435e-07 </wgt>
<wgt id='morphing_basis_vector_4'> +1.3665361e-07 </wgt>
<wgt id='morphing_basis_vector_5'> +2.4371647e-07 </wgt>
</rwgt>
</event>
<event>
 4      1 +6.9060000e-13 7.20968300e+03 7.81860800e-03 7.14219100e-02
        2 -1    0    0  501    0 +0.0000000000e+00 +0.0000000000e+00 +2.5046754707e+03 2.5046754707e+03 0.0000000000e+00 0.0000e+00 1.0000e+00
       -2 -1    0    0    0  501 -0.0000000000e+00 -0.0000000000e+00 -5.1882492762e+03 5.1882492762e+03 0.0000000000e+00 0.0000e+00 -1.0000e+00
      -13  1    1    2    0    0 +1.1154113632e+03 -9.8947837686e+02 +2.1602190083e+03 2.6248344960e+03 0.0000000000e+00 0.0000e+00 1.0000e+00
       13  1    1    2    0    0 -1.1154113632e+03 +9.8947837686e+02 -4.8437928139e+03 5.0680902509e+03 0.0000000000e+00 0.0000e+00 -1.0000e+00
<mgrwt>
<rscale>  0 0.72096826E+04</rscale>
<asrwt>0</asrwt>
<pdfrwt beam="1">  1        2 0.38533469E+00 0.72096826E+04</pdfrwt>
<pdfrwt beam="2">  1       -2 0.79819219E+00 0.72096826E+04</pdfrwt>
<totfact> 0.25856587E-04</totfact>
</mgrwt>
<rwgt>
<wgt id='morphing_basis_vector_1'> +3.4338678e-07 </wgt>
<wgt id='morphing_basis_vector_2'> +4.4011410e-07 </wgt>
<wgt id='morphing_basis_vector_3'> +4.2844611e-07 </wgt>
<wgt id='morphing_basis_vector_4'> +5.3422905e-09 </wgt>
<wgt id='morphing_basis_vector_5'> +3.0526870e-07 </wgt>
</rwgt>
</event>
<event>
 4      1 +6.9060000e-13 7.10103000e+03 7.81860800e-03 7.15192300e-02
        2 -1    0    0  501    0 +0.0000000000e+00 +0.0000000000e+00 +3.1342136577e+03 3.1342136577e+03 0.0000000000e+00 0.0000e+00 1.0000e+00
       -2 -1    0    0    0  501 -0.0000000000e+00 -0.0000000000e+00 -4.0221119843e+03 4.0221119843e+03 0.0000000000e+00 0.0000e+00 -1.0000e+00
      -13  1    1    2    0    0 +3.1695777870e+03 +2.0032047029e+01 +1.1683630546e+03 3.3781203143e+03 0.0000000000e+00 0.0000e+00 1.0000e+00
       13  1    1    2    0    0 -3.1695777870e+03 -2.0032047029e+01 -2.0562613812e+03 3.7782053277e+03 0.0000000000e+00 0.0000e+00 -1.0000e+00
<mgrwt>
<rscale>  0 0.71010304E+04</rscale>
<asrwt>0</asrwt>
<pdfrwt beam="1">  1        2 0.48218672E+00 0.71010304E+04</pdfrwt>
<pdfrwt beam="2">  1       -2 0.61878646E+00 0.71010304E+04</pdfrwt>
<totfact> 0.12518144E-04</totfact>
</mgrwt>
<rwgt>
<wgt id='morphing_basis_vector_1'> +2.7516629e-07 </wgt>
<wgt id='morphing_basis_vector_2'> +2.7332650e-07 </wgt>
<wgt id='morphing_basis_vector_3'> +3.2445507e-07 </wgt>
<wgt id='morphing_basis_vector_4'> +1.0800371e-07 </wgt>
<wgt id='morphing_basis_vector_5'> +2.9593445e-07 </wgt>
</rwgt>
</event>
<event>
 4      1 +6.9060000e-13 7.32401700e+03 7.81860800e-03 7.13213600e-02
        2 -1    0    0  501    0 +0.0000000000e+00 +0.0000000000e+00 +2.6265124591e+03 2.6265124591e+03 0.0000000000e+00 0.0000e+00 1.0000e+00
       -2 -1    0    0    0  501 -0.0000000000e+00 -0.0000000000e+00 -5.1057455974e+03 5.1057455974e+03 0.0000000000e+00 0.0000e+00 -1.0000e+00
      -13  1    1    2    0    0 -3.1363174553e+03 -1.0597487547e+02 -3.2323065578e+03 4.5050553313e+03 0.0000000000e+00 0.0000e+00 -1.0000e+00
       13  1    1    2    0    0 +3.1363174553e+03 +1.0597487547e+02 +7.5307341947e+02 3.2272027252e+03 0.0000000000e+00 0.0000e+00 1.0000e+00
<mgrwt>
<rscale>  0 0.73240165E+04</rscale>
<asrwt>0</asrwt>
<pdfrwt beam="1">  1        2 0.40407884E+00 0.73240165E+04</pdfrwt>
<pdfrwt beam="2">  1       -2 0.78549932E+00 0.73240165E+04</pdfrwt>
<totfact> 0.22435169E-04</totfact>
</mgrwt>
<rwgt>
<wgt id='morphing_basis_vector_1'> +2.6921605e-07 </wgt>
<wgt id='morphing_basis_vector_2'> +1.8569727e-07 </wgt>
<wgt id='morphing_basis_vector_3'> +2.9811119e-07 </wgt>
<wgt id='morphing_basis_vector_4'> +2.1260017e-07 </wgt>
<wgt id='morphing_basis_vector_5'> +3.4257344e-07 </wgt>
</rwgt>
</event>
<event>
 4      1 +6.9060000e-13 7.22136600e+03 7.81860800e-03 7.14115500e-02
        2 -1    0    0  501    0 +0.0000000000e+00 +0.0000000000e+00 +3.9941294346e+03 3.9941294346e+03 0.0000000000e+00 0.0000e+00 -1.0000e+00
       -2 -1    0    0    0  501 -0.0000000000e+00 -0.0000000000e+00 -3.2640480248e+03 3.2640480248e+03 0.0000000000e+00 0.0000e+00 1.0000e+00
      -13  1    1    2    0    0 +4.0049775858e+02 -6.3858065101e+02 -3.1840850690e+03 3.2720912929e+03 0.0000000000e+00 0.0000e+00 1.0000e+00
       13  1    1    2    0    0 -4.0049775858e+02 +6.3858065101e+02 +3.9141664788e+03 3.9860861664e+03 0.0000000000e+00 0.0000e+00 -1.0000e+00
<mgrwt>
<rscale>  0 0.72213656E+04</rscale>
<asrwt>0</asrwt>
<pdfrwt beam="1">  1        2 0.61448145E+00 0.72213656E+04</pdfrwt>
<pdfrwt beam="2">  1       -2 0.50216124E+00 0.72213656E+04</pdfrwt>
<totfact> 0.24441988E-04</totfact>
</mgrwt>
<rwgt>
<wgt id='morphing_basis_vector_1'> +2.5341336e-07 </wgt>
<wgt id='morphing_basis_vector_2'> +1.7243929e-07 </wgt>
<wgt id='morphing_basis_vector_3'> +2.8003162e-07 </wgt>
<wgt id='morphing_basis_vector_4'> +2.0315760e-07 </wgt>
<wgt id='morphing_basis_vector_5'> +3.2392980e-07 </wgt>
</rwgt>
</event>
<event>
 4      1 +6.9060000e-13 6.68339300e+03 7.81860800e-03 7.19103200e-02
        2 -1    0    0  501    0 +0.0000000000e+00 +0.0000000000e+00 +3.9613384616e+03 3.9613384616e+03 0.0000000000e+00 0.0000e+00 1.0000e+00
       -2 -1    0    0    0  501 -0.0000000000e+00 -0.0000000000e+00 -2.8189802094e+03 2.8189802094e+03 0.0000000000e+00 0.0000e+00 -1.0000e+00
      -13  1    1    2    0    0 -1.7710087301e+03 +2.7928220755e+03 +8.3998527696e+01 3.3080784181e+03 0.0000000000e+00 0.0000e+00 -1.0000e+00
       13  1    1    2    0    0 +1.7710087301e+03 -2.7928220755e+03 +1.0583597246e+03 3.4722402529e+03 0.0000000000e+00 0.0000e+00 1.0000e+00
<mgrwt>
<rscale>  0 0.66833928E+04</rscale>
<asrwt>0</asrwt>
<pdfrwt beam="1">  1        2 0.60943669E+00 0.66833928E+04</pdfrwt>
<pdfrwt beam="2">  1       -2 0.43368926E+00 0.66833928E+04</pdfrwt>
<totfact> 0.84364275E-04</totfact>
</mgrwt>
<rwgt>
<wgt id='morphing_basis_vector_1'> +1.9003878e-07 </wgt>
<wgt id='morphing_basis_vector_2'> +1.3832312e-07 </wgt>
<wgt id='morphing_basis_vector_3'> +2.1203534e-07 </wgt>
<wgt id='morphing_basis_vector_4'> +1.4037736e-07 </wgt>
<wgt id='morphing_basis_vector_5'> +2.3681751e-07 </wgt>
</rwgt>
</event>
<event>
 4      1 +6.9060000e-13 6.78944700e+03 7.81860800e-03 7.18083300e-02
        2 -1    0    0  501    0 +0.0000000000e+00 +0.0000000000e+00 +3.0946993599e+03 3.0946993599e+03 0.0000000000e+00 0.0000e+00 -1.0000e+00
       -2 -1    0    0    0  501 -0.0000000000e+00 -0.0000000000e+00 -3.7238338717e+03 3.7238338717e+03 0.0000000000e+00 0.0000e+00 1.0000e+00
      -13  1    1    2    0    0 +1.2236525160e+03 +1.2106727904e+03 -3.2530366510e+03 3.6803942096e+03 0.0000000000e+00 0.0000e+00 1.0000e+00
       13  1    1    2    0    0 -1.2236525160e+03 -1.2106727904e+03 +2.6239021392e+03 3.1381390220e+03 0.0000000000e+00 0.0000e+00 -1.0000e+00
<mgrwt>
<rscale>  0 0.67894466E+04</rscale>
<asrwt>0</asrwt>
<pdfrwt beam="1">  1        2 0.47610759E+00 0.67894466E+04</pdfrwt>
<pdfrwt beam="2">  1       -2 0.57289752E+00 0.67894466E+04</pdfrwt>
<totfact> 0.36088686E-04</totfact>
</mgrwt>
<rwgt>
<wgt id='morphing_basis_vector_1'> +1.9813676e-07 </wgt>
<wgt id='morphing_basis_vector_2'> +1.3488946e-07 </wgt>
<wgt id='morphing_basis_vector_3'> +2.1888724e-07 </wgt>
<wgt id='morphing_basis_vector_4'> +1.5858735e-07 </wgt>
<wgt id='morphing_basis_vector_5'> +2.5300231e-07 </wgt>
</rwgt>
</event>
<event>
 4      1 +6.9060000e-13 7.00893400e+03 7.81860800e-03 7.16030900e-02
        2 -1    0    0  501    0 +0.0000000000e+00 +0.0000000000e+00 +4.2586204502e+03 4.2586204502e+03 0.0000000000e+00 0.0000e+00 1.0000e+00
       -2 -1    0    0    0  501 -0.0000000000e+00 -0.0000000000e+00 -2.8838657573e+03 2.8838657573e+03 0.0000000000e+00 0.0000e+00 -1.0000e+00
      -13  1    1    2    0    0 +2.2073111756e+03 +8.6731849464e+02 -1.9418674287e+03 3.0651775002e+03 0.0000000000e+00 0.0000e+00 -1.0000e+00
       13  1    1    2    0    0 -2.2073111756e+03 -8.6731849464e+02 +3.3166221216e+03 4.0773087073e+03 0.0000000000e+00 0.0000e+00 1.0000e+00
<mgrwt>
<rscale>  0 0.70089342E+04</rscale>
<asrwt>0</asrwt>
<pdfrwt beam="1">  1        2 0.65517237E+00 0.70089342E+04</pdfrwt>
<pdfrwt beam="2">  1       -2 0.44367166E+00 0.70089342E+04</pdfrwt>
<totfact> 0.38340751E-04</totfact>
</mgrwt>
<rwgt>
<wgt id='morphing_basis_vector_1'> +2.2513908e-07 </wgt>
<wgt id='morphing_basis_vector_2'> +1.5365610e-07 </wgt>
<wgt id='morphing_basis_vector_3'> +2.4885475e-07 </wgt>
<wgt id='morphing_basis_vector_4'> +1.7980218e-07 </wgt>
<wgt id='morphing_basis_vector_5'> +2.8737095e-07 </wgt>
</rwgt>
</event>
<event>
 4      1 +6.9060000e-13 7.09368800e+03 7.81860800e-03 7.15258700e-02
        2 -1    0    0  501    0 +0.0000000000e+00 +0.0000000000e+00 +2.9962206441e+03 2.9962206441e+03 0.0000000000e+00 0.0000e+00 1.0000e+00
       -2 -1    0    0    0  501 -0.0000000000e+00 -0.0000000000e+00 -4.1986564155e+03 4.1986564155e+03 0.0000000000e+00 0.0000e+00 -1.0000e+00
      -13  1    1    2    0    0 +1.2241819550e+03 +2.0124910193e+03 +2.0882785182e+03 3.1479594551e+03 0.0000000000e+00 0.0000e+00 -1.0000e+00
       13  1    1    2    0    0 -1.2241819550e+03 -2.0124910193e+03 -3.2907142896e+03 4.0469176045e+03 0.0000000000e+00 0.0000e+00 1.0000e+00
<mgrwt>
<rscale>  0 0.70936876E+04</rscale>
<asrwt>0</asrwt>
<pdfrwt beam="1">  1        2 0.46095702E+00 0.70936876E+04</pdfrwt>
<pdfrwt beam="2">  1       -2 0.64594714E+00 0.70936876E+04</pdfrwt>
<totfact> 0.60867472E-05</totfact>
</mgrwt>
<rwgt>
<wgt id='morphing_basis_vector_1'> +3.0962261e-07 </wgt>
<wgt id='morphing_basis_vector_2'> +3.7663045e-07 </wgt>
<wgt id='morphing_basis_vector_3'> +3.8145975e-07 </wgt>
<wgt id='morphing_basis_vector_4'> +3.1228254e-08 </wgt>
<wgt id='morphing_basis_vector_5'> +2.8827642e-07 </wgt>
</rwgt>
</event>
<event>
 4      1 +6.9060000e-13 7.39991500e+03 7.81860800e-03 7.12556200e-02
        2 -1    0    0  501    0 +0.0000000000e+00 +0.0000000000e+00 +5.3799837602e+03 5.3799837602e+03 0.0000000000e+00 0.0000e+00 -1.0000e+00
       -2 -1    0    0    0  501 -0.0000000000e+00 -0.0000000000e+00 -2.5445586196e+03 2.5445586196e+03 0.0000000000e+00 0.0000e+00 1.0000e+00
      -13  1    1    2    0    0 +7.1772199151e+02 -3.5468764296e+03 +5.9220017908e+02 3.6669003690e+03 0.0000000000e+00 0.0000e+00 1.0000e+00
       13  1    1    2    0    0 -7.1772199151e+02 +3.5468764296e+03 +2.2432249616e+03 4.2576420108e+03 0.0000000000e+00 0.0000e+00 -1.0000e+00
<mgrwt>
<rscale>  0 0.73999146E+04</rscale>
<asrwt>0</asrwt>
<pdfrwt beam="1">  1        2 0.82768980E+00 0.73999146E+04</pdfrwt>
<pdfrwt beam="2">  1       -2 0.39147056E+00 0.73999146E+04</pdfrwt>
<totfact> 0.32983580E-05</totfact>
</mgrwt>
<rwgt>
<wgt id='morphing_basis_vector_1'> +2.8405968e-07 </wgt>
<wgt id='morphing_basis_vector_2'> +2.0385885e-07 </wgt>
<wgt id='morphing_basis_vector_3'> +3.1644753e-07 </wgt>
<wgt id='morphing_basis_vector_4'> +2.1399558e-07 </wgt>
<wgt id='morphing_basis_vector_5'> +3.5637918e-07 </wgt>
</rwgt>
</event>
<event>
 4      1 +6.9060000e-13 6.87324900e+03 7.81860800e-03 7.17290600e-02
        2 -1    0    0  501    0 +0.0000000000e+00 +0.0000000000e+00 +2.1907655201e+03 2.1907655201e+03 0.0000000000e+00 0.0000e+00 1.0000e+00
       -2 -1    0    0    0  501 -0.0000000000e+00 -0.0000000000e+00 -5.3909864214e+03 5.3909864214e+03 0.0000000000e+00 0.0000e+00 -1.0000e+00
      -13  1    1    2    0    0 -2.0720254573e+03 -2.7417286043e+03 -1.6052768640e+03 3.7930566889e+03 0.0000000000e+00 0.0000e+00 -1.0000e+00
       13  1    1    2    0    0 +2.0720254573e+03 +2.7417286043e+03 -1.5949440372e+03 3.7886952526e+03 0.0000000000e+00 0.0000e+00 1.0000e+00
<mgrwt>
<rscale>  0 0.68732488E+04</rscale>
<asrwt>0</asrwt>
<pdfrwt beam="1">  1        2 0.33704085E+00 0.68732488E+04</pdfrwt>
<pdfrwt beam="2">  1       -2 0.82938252E+00 0.68732488E+04</pdfrwt>
<totfact> 0.31865707E-04</totfact>
</mgrwt>
<rwgt>
<wgt id='morphing_basis_vector_1'> +2.1566136e-07 </wgt>
<wgt id='morphing_basis_vector_2'> +1.6390424e-07 </wgt>
<wgt id='morphing_basis_vector_3'> +2.4230873e-07 </wgt>
<wgt id='morphing_basis_vector_4'> +1.5033264e-07 </wgt>
<wgt id='morphing_basis_vector_5'> +2.6438004e-07 </wgt>
</rwgt>
</event>
<event>
 4      1 +6.9060000e-13 7.33296000e+03 7.81860800e-03 7.13135700e-02
        2 -1    0    0  501    0 +0.0000000000e+00 +0.0000000000e+00 +2.7974933091e+03 2.7974933091e+03 0.0000000000e+00 0.0000e+00 1.0000e+00
       -2 -1    0    0    0  501 -0.0000000000e+00 -0.0000000000e+00 -4.8054003906e+03 4.8054003906e+03 0.0000000000e+00 0.0000e+00 -1.0000e+00
      -13  1    1    2    0    0 -2.0527127087e+03 -3.9553216588e+02 -4.1269757091e+03 4.6262299621e+03 0.0000000000e+00 0.0000e+00 -1.0000e+00
       13  1    1    2    0    0 +2.0527127087e+03 +3.9553216588e+02 +2.1190686276e+03 2.9766637376e+03 0.0000000000e+00 0.0000e+00 1.0000e+00
<mgrwt>
<rscale>  0 0.73329600E+04</rscale>
<asrwt>0</asrwt>
<pdfrwt beam="1">  1        2 0.43038358E+00 0.73329600E+04</pdfrwt>
<pdfrwt beam="2">  1       -2 0.73929237E+00 0.73329600E+04</pdfrwt>
<totfact> 0.13366056E-04</totfact>
</mgrwt>
<rwgt>
<wgt id='morphing_basis_vector_1'> +2.6952315e-07 </wgt>
<wgt id='morphing_basis_vector_2'> +1.8364711e-07 </wgt>
<wgt id='morphing_basis_vector_3'> +2.9791592e-07 </wgt>
<wgt id='morphing_basis_vector_4'> +2.1580523e-07 </wgt>
<wgt id='morphing_basis_vector_5'> +3.4443467e-07 </wgt>
</rwgt>
</event>
<event>
 4      1 +6.9060000e-13 6.69706600e+03 7.81860800e-03 7.18970600e-02
        2 -1    0    0  501    0 +0.0000000000e+00 +0.0000000000e+00 +3.7596688960e+03 3.7596688960e+03 0.0000000000e+00 0.0000e+00 1.0000e+00
       -2 -1    0    0    0  501 -0.0000000000e+00 -0.0000000000e+00 -2.9823569164e+03 2.9823569164e+03 0.0000000000e+00 0.0000e+00 -1.0000e+00
      -13  1    1    2    0    0 +1.9251460937e+03 +2.6512156770e+03 -3.0702769065e+02 3.2908050764e+03 0.0000000000e+00 0.0000e+00 -1.0000e+00
       13  1    1    2    0    0 -1.9251460937e+03 -2.6512156770e+03 +1.0843396702e+03 3.4512207360e+03 0.0000000000e+00 0.0000e+00 1.0000e+00
<mgrwt>
<rscale>  0 0.66970664E+04</rscale>
<asrwt>0</asrwt>
<pdfrwt beam="1">  1        2 0.57841060E+00 0.66970664E+04</pdfrwt>
<pdfrwt beam="2">  1       -2 0.45882414E+00 0.66970664E+04</pdfrwt>
<totfact> 0.82423923E-04</totfact>
</mgrwt>
<rwgt>
<wgt id='morphing_basis_vector_1'> +1.9071512e-07 </wgt>
<wgt id='morphing_basis_vector_2'> +1.3687298e-07 </wgt>
<wgt id='morphing_basis_vector_3'> +2.1233377e-07 </wgt>
<wgt id='morphing_basis_vector_4'> +1.4341912e-07 </wgt>
<wgt id='morphing_basis_vector_5'> +2.3892392e-07 </wgt>
</rwgt>
</event>
<event>
 4      1 +6.9060000e-13 6.71170300e+03 7.81860800e-03 7.18829100e-02
        2 -1    0    0  501    0 +0.0000000000e+00 +0.0000000000e+00 +3.6105927575e+03 3.6105927575e+03 0.0000000000e+00 0.0000e+00 -1.0000e+00
       -2 -1    0    0    0  501 -0.0000000000e+00 -0.0000000000e+00 -3.1190829591e+03 3.1190829591e+03 0.0000000000e+00 0.0000e+00 1.0000e+00
      -13  1    1    2    0    0 +8.4753576242e+02 -2.3196709911e+03 -2.0324536397e+03 3.1984462123e+03 0.0000000000e+00 0.0000e+00 1.0000e+00
       13  1    1    2    0    0 -8.4753576242e+02 +2.3196709911e+03 +2.5239634381e+03 3.5312295043e+03 0.0000000000e+00 0.0000e+00 -1.0000e+00
<mgrwt>
<rscale>  0 0.67117027E+04</rscale>
<asrwt>0</asrwt>
<pdfrwt beam="1">  1        2 0.55547581E+00 0.67117027E+04</pdfrwt>
<pdfrwt beam="2">  1       -2 0.47985892E+00 0.67117027E+04</pdfrwt>
<totfact> 0.75507370E-04</totfact>
</mgrwt>
<rwgt>
<wgt id='morphing_basis_vector_1'> +1.8947510e-07 </wgt>
<wgt id='morphing_basis_vector_2'> +1.2953410e-07 </wgt>
<wgt id='morphing_basis_vector_3'> +2.0943172e-07 </wgt>
<wgt id='morphing_basis_vector_4'> +1.5091454e-07 </wgt>
<wgt id='morphing_basis_vector_5'> +2.4154840e-07 </wgt>
</rwgt>
</event>
<event>
 4      1 +6.9060000e-13 6.96031700e+03 7.81860800e-03 7.16478900e-02
        2 -1    0    0  501    0 +0.0000000000e+00 +0.0000000000e+00 +3.4914115795e+03 3.4914115795e+03 0.0000000000e+00 0.0000e+00 1.0000e+00
       -2 -1    0    0    0  501 -0.0000000000e+00 -0.0000000000e+00 -3.4689420049e+03 3.4689420049e+03 0.0000000000e+00 0.0000e+00 -1.0000e+00
      -13  1    1    2    0    0 +1.6031407850e+03 -1.2762351868e+03 -2.8017263071e+03 3.4710959261e+03 0.0000000000e+00 0.0000e+00 -1.0000e+00
       13  1    1    2    0    0 -1.6031407850e+03 +1.2762351868e+03 +2.8241958816e+03 3.4892576583e+03 0.0000000000e+00 0.0000e+00 1.0000e+00
<mgrwt>
<rscale>  0 0.69603173E+04</rscale>
<asrwt>0</asrwt>
<pdfrwt beam="1">  1        2 0.53714024E+00 0.69603173E+04</pdfrwt>
<pdfrwt beam="2">  1       -2 0.53368339E+00 0.69603173E+04</pdfrwt>
<totfact> 0.36201648E-04</totfact>
</mgrwt>
<rwgt>
<wgt id='morphing_basis_vector_1'> +2.1886192e-07 </wgt>
<wgt id='morphing_basis_vector_2'> +1.4913013e-07 </wgt>
<wgt id='morphing_basis_vector_3'> +2.4184943e-07 </wgt>
<wgt id='morphing_basis_vector_4'> +1.7508360e-07 </wgt>
<wgt id='morphing_basis_vector_5'> +2.7948666e-07 </wgt>
</rwgt>
</event>
<event>
 4      1 +6.9060000e-13 6.80240800e+03 7.81860800e-03 7.17959900e-02
        2 -1    0    0  501    0 +0.0000000000e+00 +0.0000000000e+00 +4.1530558686e+03 4.1530558686e+03 0.0000000000e+00 0.0000e+00 -1.0000e+00
       -2 -1    0    0    0  501 -0.0000000000e+00 -0.0000000000e+00 -2.7854638893e+03 2.7854638893e+03 0.0000000000e+00 0.0000e+00 1.0000e+00
      -13  1    1    2    0    0 +4.9079227295e+02 -2.5764621672e+03 -1.5249784753e+03 3.0339073329e+03 0.0000000000e+00 0.0000e+00 1.0000e+00
       13  1    1    2    0    0 -4.9079227295e+02 +2.5764621672e+03 +2.8925704547e+03 3.9046124250e+03 0.0000000000e+00 0.0000e+00 -1.0000e+00
<mgrwt>
<rscale>  0 0.68024076E+04</rscale>
<asrwt>0</asrwt>
<pdfrwt beam="1">  1        2 0.63893167E+00 0.68024076E+04</pdfrwt>
<pdfrwt beam="2">  1       -2 0.42853291E+00 0.68024076E+04</pdfrwt>
<totfact> 0.61681386E-04</totfact>
</mgrwt>
<rwgt>
<wgt id='morphing_basis_vector_1'> +2.0000650e-07 </wgt>
<wgt id='morphing_basis_vector_2'> +1.3696388e-07 </wgt>
<wgt id='morphing_basis_vector_3'> +2.2114497e-07 </wgt>
<wgt id='morphing_basis_vector_4'> +1.5904258e-07 </wgt>
<wgt id='morphing_basis_vector_5'> +2.5487896e-07 </wgt>
</rwgt>
</event>
<event>
 4      1 +6.9060000e-13 7.00427300e+03 7.81860800e-03 7.16073700e-02
        2 -1    0    0  501    0 +0.0000000000e+00 +0.0000000000e+00 +2.9508732796e+03 2.9508732796e+03 0.0000000000e+00 0.0000e+00 1.0000e+00
       -2 -1    0    0    0  501 -0.0000000000e+00 -0.0000000000e+00 -4.1563832891e+03 4.1563832891e+03 0.0000000000e+00 0.0000e+00 -1.0000e+00
      -13  1    1    2    0    0 -1.2160231170e+03 +2.7779950330e+03 -2.3803662310e+03 3.8551409855e+03 0.0000000000e+00 0.0000e+00 -1.0000e+00
       13  1    1    2    0    0 +1.2160231170e+03 -2.7779950330e+03 +1.1748562215e+03 3.2521155831e+03 0.0000000000e+00 0.0000e+00 1.0000e+00
<mgrwt>
<rscale>  0 0.70042731E+04</rscale>
<asrwt>0</asrwt>
<pdfrwt beam="1">  1        2 0.45398051E+00 0.70042731E+04</pdfrwt>
<pdfrwt beam="2">  1       -2 0.63944358E+00 0.70042731E+04</pdfrwt>
<totfact> 0.84172163E-05</totfact>
</mgrwt>
<rwgt>
<wgt id='morphing_basis_vector_1'> +2.2533627e-07 </wgt>
<wgt id='morphing_basis_vector_2'> +1.5557927e-07 </wgt>
<wgt id='morphing_basis_vector_3'> +2.4949559e-07 </wgt>
<wgt id='morphing_basis_vector_4'> +1.7762003e-07 </wgt>
<wgt id='morphing_basis_vector_5'> +2.8646246e-07 </wgt>
</rwgt>
</event>
<event>
 4      1 +6.9060000e-13 7.12138600e+03 7.81860800e-03 7.15008600e-02
        2 -1    0    0  501    0 +0.0000000000e+00 +0.0000000000e+00 +2.6832186360e+03 2.6832186360e+03 0.0000000000e+00 0.0000e+00 1.0000e+00
       -2 -1    0    0    0  501 -0.0000000000e+00 -0.0000000000e+00 -4.7251219003e+03 4.7251219003e+03 0.0000000000e+00 0.0000e+00 -1.0000e+00
      -13  1    1    2    0    0 -4.7849019217e+02 +1.5744331100e+03 +2.2639332608e+03 2.7987830019e+03 0.0000000000e+00 0.0000e+00 1.0000e+00
       13  1    1    2    0    0 +4.7849019217e+02 -1.5744331100e+03 -4.3058365252e+03 4.6095575345e+03 0.0000000000e+00 0.0000e+00 -1.0000e+00
<mgrwt>
<rscale>  0 0.71213861E+04</rscale>
<asrwt>0</asrwt>
<pdfrwt beam="1">  1        2 0.41280287E+00 0.71213861E+04</pdfrwt>
<pdfrwt beam="2">  1       -2 0.72694182E+00 0.71213861E+04</pdfrwt>
<totfact> 0.12461212E-04</totfact>
</mgrwt>
<rwgt>
<wgt id='morphing_basis_vector_1'> +3.2582243e-07 </wgt>
<wgt id='morphing_basis_vector_2'> +4.1582300e-07 </wgt>
<wgt id='morphing_basis_vector_3'> +4.0605584e-07 </wgt>
<wgt id='morphing_basis_vector_4'> +7.3908160e-09 </wgt>
<wgt id='morphing_basis_vector_5'> +2.9076110e-07 </wgt>
</rwgt>
</event>
<event>
 4      1 +6.9060000e-13 6.73484700e+03 7.81860800e-03 7.18606000e-02
        2 -1    0    0  501    0 +0.0000000000e+00 +0.0000000000e+00 +4.6662682932e+03 4.6662682932e+03 0.0000000000e+00 0.0000e+00 1.0000e+00
       -2 -1    0    0    0  501 -0.0000000000e+00 -0.0000000000e+00 -2.4301090753e+03 2.4301090753e+03 0.0000000000e+00 0.0000e+00 -1.0000e+00
      -13  1    1    2    0    0 -9.2717664332e+02 +1.9923740964e+03 -1.5704230286e+03 2.7010071375e+03 0.0000000000e+00 0.0000e+00 -1.0000e+00
       13  1    1    2    0    0 +9.2717664332e+02 -1.9923740964e+03 +3.8065822466e+03 4.3953702310e+03 0.0000000000e+00 0.0000e+00 1.0000e+00
<mgrwt>
<rscale>  0 0.67348470E+04</rscale>
<asrwt>0</asrwt>
<pdfrwt beam="1">  1        2 0.71788743E+00 0.67348470E+04</pdfrwt>
<pdfrwt beam="2">  1       -2 0.37386293E+00 0.67348470E+04</pdfrwt>
<totfact> 0.43288103E-04</totfact>
</mgrwt>
<rwgt>
<wgt id='morphing_basis_vector_1'> +1.9195643e-07 </wgt>
<wgt id='morphing_basis_vector_2'> +1.3091529e-07 </wgt>
<wgt id='morphing_basis_vector_3'> +2.1210440e-07 </wgt>
<wgt id='morphing_basis_vector_4'> +1.5331254e-07 </wgt>
<wgt id='morphing_basis_vector_5'> +2.4492878e-07 </wgt>
</rwgt>
</event>
<event>
 4      1 +6.9060000e-13 6.80888000e+03 7.81860800e-03 7.17898400e-02
        2 -1    0    0  501    0 +0.0000000000e+00 +0.0000000000e+00 +2.2222598241e+03 2.2222598241e+03 0.0000000000e+00 0.0000e+00 1.0000e+00
       -2 -1    0    0    0  501 -0.0000000000e+00 -0.0000000000e+00 -5.2155063736e+03 5.2155063736e+03 0.0000000000e+00 0.0000e+00 -1.0000e+00
      -13  1    1    2    0    0 +5.6302352867e+02 +3.3254506331e+03 -9.9059531638e+02 3.5152377569e+03 0.0000000000e+00 0.0000e+00 -1.0000e+00
       13  1    1    2    0    0 -5.6302352867e+02 -3.3254506331e+03 -2.0026512332e+03 3.9225284408e+03 0.0000000000e+00 0.0000e+00 1.0000e+00
<mgrwt>
<rscale>  0 0.68088796E+04</rscale>
<asrwt>0</asrwt>
<pdfrwt beam="1">  1        2 0.34188613E+00 0.68088796E+04</pdfrwt>
<pdfrwt beam="2">  1       -2 0.80238559E+00 0.68088796E+04</pdfrwt>
<totfact> 0.38100495E-04</totfact>
</mgrwt>
<rwgt>
<wgt id='morphing_basis_vector_1'> +2.1226512e-07 </wgt>
<wgt id='morphing_basis_vector_2'> +1.7122472e-07 </wgt>
<wgt id='morphing_basis_vector_3'> +2.4082027e-07 </wgt>
<wgt id='morphing_basis_vector_4'> +1.3500505e-07 </wgt>
<wgt id='morphing_basis_vector_5'> +2.5377557e-07 </wgt>
</rwgt>
</event>
<event>
 4      1 +6.9060000e-13 7.01610700e+03 7.81860800e-03 7.15965200e-02
        2 -1    0    0  501    0 +0.0000000000e+00 +0.0000000000e+00 +2.4295768976e+03 2.4295768976e+03 0.0000000000e+00 0.0000e+00 -1.0000e+00
       -2 -1    0    0    0  501 -0.0000000000e+00 -0.0000000000e+00 -5.0652601801e+03 5.0652601801e+03 0.0000000000e+00 0.0000e+00 1.0000e+00
      -13  1    1    2    0    0 +3.0314752756e+03 +1.3085887366e+03 -2.5836830218e+03 4.1925725736e+03 0.0000000000e+00 0.0000e+00 1.0000e+00
       13  1    1    2    0    0 -3.0314752756e+03 -1.3085887366e+03 -5.2000260705e+01 3.3022645041e+03 0.0000000000e+00 0.0000e+00 -1.0000e+00
<mgrwt>
<rscale>  0 0.70161069E+04</rscale>
<asrwt>0</asrwt>
<pdfrwt beam="1">  1        2 0.37378106E+00 0.70161069E+04</pdfrwt>
<pdfrwt beam="2">  1       -2 0.77927079E+00 0.70161069E+04</pdfrwt>
<totfact> 0.30120422E-04</totfact>
</mgrwt>
<rwgt>
<wgt id='morphing_basis_vector_1'> +2.2805120e-07 </wgt>
<wgt id='morphing_basis_vector_2'> +1.6012674e-07 </wgt>
<wgt id='morphing_basis_vector_3'> +2.5313751e-07 </wgt>
<wgt id='morphing_basis_vector_4'> +1.7627192e-07 </wgt>
<wgt id='morphing_basis_vector_5'> +2.8819123e-07 </wgt>
</rwgt>
</event>
<event>
 4      1 +6.9060000e-13 7.79184200e+03 7.81860800e-03 7.09283000e-02
        2 -1    0    0  501    0 +0.0000000000e+00 +0.0000000000e+00 +3.5913979465e+03 3.5913979465e+03 0.0000000000e+00 0.0000e+00 1.0000e+00
       -2 -1    0    0    0  501 -0.0000000000e+00 -0.0000000000e+00 -4.2262656355e+03 4.2262656355e+03 0.0000000000e+00 0.0000e+00 -1.0000e+00
      -13  1    1    2    0    0 -3.2009092867e+03 -1.4351765996e+03 -2.0179397650e+03 4.0469288391e+03 0.0000000000e+00 0.0000e+00 -1.0000e+00
       13  1    1    2    0    0 +3.2009092867e+03 +1.4351765996e+03 +1.3830720761e+03 3.7707347429e+03 0.0000000000e+00 0.0000e+00 1.0000e+00
<mgrwt>
<rscale>  0 0.77918423E+04</rscale>
<asrwt>0</asrwt>
<pdfrwt beam="1">  1        2 0.55252276E+00 0.77918423E+04</pdfrwt>
<pdfrwt beam="2">  1       -2 0.65019471E+00 0.77918423E+04</pdfrwt>
<totfact> 0.18931249E-05</totfact>
</mgrwt>
<rwgt>
<wgt id='morphing_basis_vector_1'> +3.4547385e-07 </wgt>
<wgt id='morphing_basis_vector_2'> +2.3996405e-07 </wgt>
<wgt id='morphing_basis_vector_3'> +3.8306824e-07 </wgt>
<wgt id='morphing_basis_vector_4'> +2.7089538e-07 </wgt>
<wgt id='morphing_basis_vector_5'> +4.3887124e-07 </wgt>
</rwgt>
</event>
<event>
 4      1 +6.9060000e-13 6.96337100e+03 7.81860800e-03 7.16450700e-02
        2 -1    0    0  501    0 +0.0000000000e+00 +0.0000000000e+00 +2.3850795655e+03 2.3850795655e+03 0.0000000000e+00 0.0000e+00 1.0000e+00
       -2 -1    0    0    0  501 -0.0000000000e+00 -0.0000000000e+00 -5.0824867234e+03 5.0824867234e+03 0.0000000000e+00 0.0000e+00 -1.0000e+00
      -13  1    1    2    0    0 +3.1487309144e+03 -1.4601803670e+03 -1.6433757947e+03 3.8402235714e+03 0.0000000000e+00 0.0000e+00 1.0000e+00
       13  1    1    2    0    0 -3.1487309144e+03 +1.4601803670e+03 -1.0540313632e+03 3.6273427175e+03 0.0000000000e+00 0.0000e+00 -1.0000e+00
<mgrwt>
<rscale>  0 0.69633714E+04</rscale>
<asrwt>0</asrwt>
<pdfrwt beam="1">  1        2 0.36693532E+00 0.69633714E+04</pdfrwt>
<pdfrwt beam="2">  1       -2 0.78192103E+00 0.69633714E+04</pdfrwt>
<totfact> 0.32091755E-04</totfact>
</mgrwt>
<rwgt>
<wgt id='morphing_basis_vector_1'> +2.2519009e-07 </wgt>
<wgt id='morphing_basis_vector_2'> +1.6683469e-07 </wgt>
<wgt id='morphing_basis_vector_3'> +2.5201540e-07 </wgt>
<wgt id='morphing_basis_vector_4'> +1.6264615e-07 </wgt>
<wgt id='morphing_basis_vector_5'> +2.7890418e-07 </wgt>
</rwgt>
</event>
<event>
 4      1 +6.9060000e-13 6.69946100e+03 7.81860800e-03 7.18947400e-02
        2 -1    0    0  501    0 +0.0000000000e+00 +0.0000000000e+00 +3.4838478249e+03 3.4838478249e+03 0.0000000000e+00 0.0000e+00 -1.0000e+00
       -2 -1    0    0    0  501 -0.0000000000e+00 -0.0000000000e+00 -3.2207763477e+03 3.2207763477e+03 0.0000000000e+00 0.0000e+00 1.0000e+00
      -13  1    1    2    0    0 +2.2008388981e+03 -2.2837627051e+03 -9.4699176813e+02 3.3099935585e+03 0.0000000000e+00 0.0000e+00 1.0000e+00
       13  1    1    2    0    0 -2.2008388981e+03 +2.2837627051e+03 +1.2100632454e+03 3.3946306141e+03 0.0000000000e+00 0.0000e+00 -1.0000e+00
<mgrwt>
<rscale>  0 0.66994611E+04</rscale>
<asrwt>0</asrwt>
<pdfrwt beam="1">  1        2 0.53597659E+00 0.66994611E+04</pdfrwt>
<pdfrwt beam="2">  1       -2 0.49550406E+00 0.66994611E+04</pdfrwt>
<totfact> 0.71804836E-04</totfact>
</mgrwt>
<rwgt>
<wgt id='morphing_basis_vector_1'> +1.8978067e-07 </wgt>
<wgt id='morphing_basis_vector_2'> +1.3352710e-07 </wgt>
<wgt id='morphing_basis_vector_3'> +2.1066154e-07 </wgt>
<wgt id='morphing_basis_vector_4'> +1.4621098e-07 </wgt>
<wgt id='morphing_basis_vector_5'> +2.3948430e-07 </wgt>
</rwgt>
</event>
<event>
 4      1 +6.9060000e-13 7.29377400e+03 7.81860800e-03 7.13477700e-02
        2 -1    0    0  501    0 +0.0000000000e+00 +0.0000000000e+00 +3.6398801125e+03 3.6398801125e+03 0.0000000000e+00 0.0000e+00 -1.0000e+00
       -2 -1    0    0    0  501 -0.0000000000e+00 -0.0000000000e+00 -3.6539075631e+03 3.6539075631e+03 0.0000000000e+00 0.0000e+00 1.0000e+00
      -13  1    1    2    0    0 +2.6426775356e+03 +1.6468690774e+03 -1.9054015903e+03 3.6505448272e+03 0.0000000000e+00 0.0000e+00 1.0000e+00
       13  1    1    2    0    0 -2.6426775356e+03 -1.6468690774e+03 +1.8913741397e+03 3.6432428483e+03 0.0000000000e+00 0.0000e+00 -1.0000e+00
<mgrwt>
<rscale>  0 0.72937742E+04</rscale>
<asrwt>0</asrwt>
<pdfrwt beam="1">  1        2 0.55998156E+00 0.72937742E+04</pdfrwt>
<pdfrwt beam="2">  1       -2 0.56213963E+00 0.72937742E+04</pdfrwt>
<totfact> 0.17097912E-04</totfact>
</mgrwt>
<rwgt>
<wgt id='morphing_basis_vector_1'> +2.6477387e-07 </wgt>
<wgt id='morphing_basis_vector_2'> +1.8256351e-07 </wgt>
<wgt id='morphing_basis_vector_3'> +2.9316925e-07 </wgt>
<wgt id='morphing_basis_vector_4'> +2.0916933e-07 </wgt>
<wgt id='morphing_basis_vector_5'> +3.3694731e-07 </wgt>
</rwgt>
</event>
<event>
 4      1 +6.9060000e-13 6.98820600e+03 7.81860800e-03 7.16221500e-02
        2 -1    0    0  501    0 +0.0000000000e+00 +0.0000000000e+00 +2.3191248784e+03 2.3191248784e+03 0.0000000000e+00 0.0000e+00 1.0000e+00
       -2 -1    0    0    0  501 -0.0000000000e+00 -0.0000000000e+00 -5.2643802469e+03 5.2643802469e+03 0.0000000000e+00 0.0000e+00 -1.0000e+00
      -13  1    1    2    0    0 +2.7653797730e+03 -1.0160905824e+03 -3.5112158562e+03 4.5834923529e+03 0.0000000000e+00 0.0000e+00 -1.0000e+00
       13  1    1    2    0    0 -2.7653797730e+03 +1.0160905824e+03 +5.6596048767e+02 3.0000127724e+03 0.0000000000e+00 0.0000e+00 1.0000e+00
<mgrwt>
<rscale>  0 0.69882058E+04</rscale>
<asrwt>0</asrwt>
<pdfrwt beam="1">  1        2 0.35678844E+00 0.69882058E+04</pdfrwt>
<pdfrwt beam="2">  1       -2 0.80990466E+00 0.69882058E+04</pdfrwt>
<totfact> 0.31679746E-04</totfact>
</mgrwt>
<rwgt>
<wgt id='morphing_basis_vector_1'> +2.2309642e-07 </wgt>
<wgt id='morphing_basis_vector_2'> +1.5362124e-07 </wgt>
<wgt id='morphing_basis_vector_3'> +2.4691480e-07 </wgt>
<wgt id='morphing_basis_vector_4'> +1.7638522e-07 </wgt>
<wgt id='morphing_basis_vector_5'> +2.8387182e-07 </wgt>
</rwgt>
</event>
<event>
 4      1 +6.9060000e-13 7.27088600e+03 7.81860800e-03 7.13678500e-02
        2 -1    0    0  501    0 +0.0000000000e+00 +0.0000000000e+00 +2.4856082088e+03 2.4856082088e+03 0.0000000000e+00 0.0000e+00 -1.0000e+00
       -2 -1    0    0    0  501 -0.0000000000e+00 -0.0000000000e+00 -5.3171880746e+03 5.3171880746e+03 0.0000000000e+00 0.0000e+00 1.0000e+00
      -13  1    1    2    0    0 +7.1765825272e+02 +1.3244611355e+03 -4.9664963198e+03 5.1899245045e+03 0.0000000000e+00 0.0000e+00 1.0000e+00
       13  1    1    2    0    0 -7.1765825272e+02 -1.3244611355e+03 +2.1349164540e+03 2.6128717789e+03 0.0000000000e+00 0.0000e+00 -1.0000e+00
<mgrwt>
<rscale>  0 0.72708861E+04</rscale>
<asrwt>0</asrwt>
<pdfrwt beam="1">  1        2 0.38240127E+00 0.72708861E+04</pdfrwt>
<pdfrwt beam="2">  1       -2 0.81802892E+00 0.72708861E+04</pdfrwt>
<totfact> 0.23348781E-04</totfact>
</mgrwt>
<rwgt>
<wgt id='morphing_basis_vector_1'> +2.6044742e-07 </wgt>
<wgt id='morphing_basis_vector_2'> +1.7728051e-07 </wgt>
<wgt id='morphing_basis_vector_3'> +2.8782796e-07 </wgt>
<wgt id='morphing_basis_vector_4'> +2.0874847e-07 </wgt>
<wgt id='morphing_basis_vector_5'> +3.3291671e-07 </wgt>
</rwgt>
</event>
<event>
 4      1 +6.9060000e-13 7.30389100e+03 7.81860800e-03 7.13389200e-02
        2 -1    0    0  501    0 +0.0000000000e+00 +0.0000000000e+00 +5.2363395547e+03 5.2363395547e+03 0.0000000000e+00 0.0000e+00 1.0000e+00
       -2 -1    0    0    0  501 -0.0000000000e+00 -0.0000000000e+00 -2.5469517402e+03 2.5469517402e+03 0.0000000000e+00 0.0000e+00 -1.0000e+00
      -13  1    1    2    0    0 +1.9000020215e+03 +7.2410856709e+02 -1.8879563193e+03 2.7746567287e+03 0.0000000000e+00 0.0000e+00 -1.0000e+00
       13  1    1    2    0    0 -1.9000020215e+03 -7.2410856709e+02 +4.5773441338e+03 5.0086345662e+03 0.0000000000e+00 0.0000e+00 1.0000e+00
<mgrwt>
<rscale>  0 0.73038905E+04</rscale>
<asrwt>0</asrwt>
<pdfrwt beam="1">  1        2 0.80559070E+00 0.73038905E+04</pdfrwt>
<pdfrwt beam="2">  1       -2 0.39183873E+00 0.73038905E+04</pdfrwt>
<totfact> 0.56809881E-05</totfact>
</mgrwt>
<rwgt>
<wgt id='morphing_basis_vector_1'> +2.6526989e-07 </wgt>
<wgt id='morphing_basis_vector_2'> +1.8072092e-07 </wgt>
<wgt id='morphing_basis_vector_3'> +2.9320187e-07 </wgt>
<wgt id='morphing_basis_vector_4'> +2.1242286e-07 </wgt>
<wgt id='morphing_basis_vector_5'> +3.3899949e-07 </wgt>
</rwgt>
</event>
<event>
 4      1 +6.9060000e-13 7.30268800e+03 7.81860800e-03 7.13399700e-02
        2 -1    0    0  501    0 +0.0000000000e+00 +0.0000000000e+00 +5.2055025584e+03 5.2055025584e+03 0.0000000000e+00 0.0000e+00 -1.0000e+00
       -2 -1    0    0    0  501 -0.0000000000e+00 -0.0000000000e+00 -2.5611964233e+03 2.5611964233e+03 0.0000000000e+00 0.0000e+00 1.0000e+00
      -13  1    1    2    0    0 -1.3546033971e+03 -5.5415916307e+02 -2.2355854005e+03 2.6720562914e+03 0.0000000000e+00 0.0000e+00 1.0000e+00
       13  1    1    2    0    0 +1.3546033971e+03 +5.5415916307e+02 +4.8798915357e+03 5.0946426903e+03 0.0000000000e+00 0.0000e+00 -1.0000e+00
<mgrwt>
<rscale>  0 0.73026884E+04</rscale>
<asrwt>0</asrwt>
<pdfrwt beam="1">  1        2 0.80084654E+00 0.73026884E+04</pdfrwt>
<pdfrwt beam="2">  1       -2 0.39403022E+00 0.73026884E+04</pdfrwt>
<totfact> 0.61299166E-05</totfact>
</mgrwt>
<rwgt>
<wgt id='morphing_basis_vector_1'> +2.6502369e-07 </wgt>
<wgt id='morphing_basis_vector_2'> +1.8039113e-07 </wgt>
<wgt id='morphing_basis_vector_3'> +2.9289100e-07 </wgt>
<wgt id='morphing_basis_vector_4'> +2.1243707e-07 </wgt>
<wgt id='morphing_basis_vector_5'> +3.3878905e-07 </wgt>
</rwgt>
</event>
<event>
 4      1 +6.9060000e-13 7.59430700e+03 7.81860800e-03 7.10908000e-02
        2 -1    0    0  501    0 +0.0000000000e+00 +0.0000000000e+00 +3.6800624546e+03 3.6800624546e+03 0.0000000000e+00 0.0000e+00 -1.0000e+00
       -2 -1    0    0    0  501 -0.0000000000e+00 -0.0000000000e+00 -3.9179699350e+03 3.9179699350e+03 0.0000000000e+00 0.0000e+00 1.0000e+00
      -13  1    1    2    0    0 +3.0232390856e+03 -2.1559126002e+03 -9.1334599427e+02 3.8238899845e+03 0.0000000000e+00 0.0000e+00 1.0000e+00
       13  1    1    2    0    0 -3.0232390856e+03 +2.1559126002e+03 +6.7543851385e+02 3.7741424052e+03 0.0000000000e+00 0.0000e+00 -1.0000e+00
<mgrwt>
<rscale>  0 0.75943068E+04</rscale>
<asrwt>0</asrwt>
<pdfrwt beam="1">  1        2 0.56616345E+00 0.75943068E+04</pdfrwt>
<pdfrwt beam="2">  1       -2 0.60276461E+00 0.75943068E+04</pdfrwt>
<totfact> 0.73385755E-05</totfact>
</mgrwt>
<rwgt>
<wgt id='morphing_basis_vector_1'> +3.1504152e-07 </wgt>
<wgt id='morphing_basis_vector_2'> +2.2607771e-07 </wgt>
<wgt id='morphing_basis_vector_3'> +3.5100622e-07 </wgt>
<wgt id='morphing_basis_vector_4'> +2.3745091e-07 </wgt>
<wgt id='morphing_basis_vector_5'> +3.9538878e-07 </wgt>
</rwgt>
</event>
<event>
 4      1 +6.9060000e-13 6.66896000e+03 7.81860800e-03 7.19243500e-02
        2 -1    0    0  501    0 +0.0000000000e+00 +0.0000000000e+00 +2.9499373917e+03 2.9499373917e+03 0.0000000000e+00 0.0000e+00 -1.0000e+00
       -2 -1    0    0    0  501 -0.0000000000e+00 -0.0000000000e+00 -3.7691503158e+03 3.7691503158e+03 0.0000000000e+00 0.0000e+00 1.0000e+00
      -13  1    1    2    0    0 +2.0854305005e+03 -8.0013947606e+02 -2.9040013244e+03 3.6636685501e+03 0.0000000000e+00 0.0000e+00 1.0000e+00
       13  1    1    2    0    0 -2.0854305005e+03 +8.0013947606e+02 +2.0847884003e+03 3.0554191574e+03 0.0000000000e+00 0.0000e+00 -1.0000e+00
<mgrwt>
<rscale>  0 0.66689602E+04</rscale>
<asrwt>0</asrwt>
<pdfrwt beam="1">  1        2 0.45383652E+00 0.66689602E+04</pdfrwt>
<pdfrwt beam="2">  1       -2 0.57986928E+00 0.66689602E+04</pdfrwt>
<totfact> 0.40076621E-04</totfact>
</mgrwt>
<rwgt>
<wgt id='morphing_basis_vector_1'> +1.8458895e-07 </wgt>
<wgt id='morphing_basis_vector_2'> +1.2593315e-07 </wgt>
<wgt id='morphing_basis_vector_3'> +2.0396120e-07 </wgt>
<wgt id='morphing_basis_vector_4'> +1.4734491e-07 </wgt>
<wgt id='morphing_basis_vector_5'> +2.3546382e-07 </wgt>
</rwgt>
</event>
<event>
 4      1 +6.9060000e-13 7.14198100e+03 7.81860800e-03 7.14823400e-02
        2 -1    0    0  501    0 +0.0000000000e+00 +0.0000000000e+00 +3.6923409525e+03 3.6923409525e+03 0.0000000000e+00 0.0000e+00 1.0000e+00
       -2 -1    0    0    0  501 -0.0000000000e+00 -0.0000000000e+00 -3.4536282481e+03 3.4536282481e+03 0.0000000000e+00 0.0000e+00 -1.0000e+00
      -13  1    1    2    0    0 +8.0814814528e+01 -3.5426779488e+03 +5.6104927480e+02 3.5877394515e+03 0.0000000000e+00 0.0000e+00 1.0000e+00
       13  1    1    2    0    0 -8.0814814528e+01 +3.5426779488e+03 -3.2233657038e+02 3.5582297491e+03 0.0000000000e+00 0.0000e+00 -1.0000e+00
<mgrwt>
<rscale>  0 0.71419810E+04</rscale>
<asrwt>0</asrwt>
<pdfrwt beam="1">  1        2 0.56805246E+00 0.71419810E+04</pdfrwt>
<pdfrwt beam="2">  1       -2 0.53132742E+00 0.71419810E+04</pdfrwt>
<totfact> 0.26243729E-04</totfact>
</mgrwt>
<rwgt>
<wgt id='morphing_basis_vector_1'> +2.5626683e-07 </wgt>
<wgt id='morphing_basis_vector_2'> +2.0546863e-07 </wgt>
<wgt id='morphing_basis_vector_3'> +2.9054192e-07 </wgt>
<wgt id='morphing_basis_vector_4'> +1.6476565e-07 </wgt>
<wgt id='morphing_basis_vector_5'> +3.0740345e-07 </wgt>
</rwgt>
</event>
<event>
 4      1 +6.9060000e-13 6.98475100e+03 7.81860800e-03 7.16253300e-02
        2 -1    0    0  501    0 +0.0000000000e+00 +0.0000000000e+00 +3.0223479355e+03 3.0223479355e+03 0.0000000000e+00 0.0000e+00 -1.0000e+00
       -2 -1    0    0    0  501 -0.0000000000e+00 -0.0000000000e+00 -4.0355001863e+03 4.0355001863e+03 0.0000000000e+00 0.0000e+00 1.0000e+00
      -13  1    1    2    0    0 +2.3383470385e+03 +2.0934267574e+03 -2.0543975979e+03 3.7511134282e+03 0.0000000000e+00 0.0000e+00 1.0000e+00
       13  1    1    2    0    0 -2.3383470385e+03 -2.0934267574e+03 +1.0412453471e+03 3.3067346936e+03 0.0000000000e+00 0.0000e+00 -1.0000e+00
<mgrwt>
<rscale>  0 0.69847507E+04</rscale>
<asrwt>0</asrwt>
<pdfrwt beam="1">  1        2 0.46497661E+00 0.69847507E+04</pdfrwt>
<pdfrwt beam="2">  1       -2 0.62084618E+00 0.69847507E+04</pdfrwt>
<totfact> 0.14105173E-04</totfact>
</mgrwt>
<rwgt>
<wgt id='morphing_basis_vector_1'> +2.2320271e-07 </wgt>
<wgt id='morphing_basis_vector_2'> +1.5492125e-07 </wgt>
<wgt id='morphing_basis_vector_3'> +2.4732239e-07 </wgt>
<wgt id='morphing_basis_vector_4'> +1.7486444e-07 </wgt>
<wgt id='morphing_basis_vector_5'> +2.8321118e-07 </wgt>
</rwgt>
</event>
<event>
 4      1 +6.9060000e-13 6.67153100e+03 7.81860800e-03 7.19218400e-02
        2 -1    0    0  501    0 +0.0000000000e+00 +0.0000000000e+00 +4.4684955867e+03 4.4684955867e+03 0.0000000000e+00 0.0000e+00 -1.0000e+00
       -2 -1    0    0    0  501 -0.0000000000e+00 -0.0000000000e+00 -2.4901741003e+03 2.4901741003e+03 0.0000000000e+00 0.0000e+00 1.0000e+00
      -13  1    1    2    0    0 -2.4625099244e+03 +2.2250873285e+03 +1.3387940612e+03 3.5787341736e+03 0.0000000000e+00 0.0000e+00 1.0000e+00
       13  1    1    2    0    0 +2.4625099244e+03 -2.2250873285e+03 +6.3952742520e+02 3.3799355134e+03 0.0000000000e+00 0.0000e+00 -1.0000e+00
<mgrwt>
<rscale>  0 0.66715312E+04</rscale>
<asrwt>0</asrwt>
<pdfrwt beam="1">  1        2 0.68746086E+00 0.66715312E+04</pdfrwt>
<pdfrwt beam="2">  1       -2 0.38310371E+00 0.66715312E+04</pdfrwt>
<totfact> 0.61679739E-04</totfact>
</mgrwt>
<rwgt>
<wgt id='morphing_basis_vector_1'> +1.9441203e-07 </wgt>
<wgt id='morphing_basis_vector_2'> +1.5411927e-07 </wgt>
<wgt id='morphing_basis_vector_3'> +2.1989281e-07 </wgt>
<wgt id='morphing_basis_vector_4'> +1.2713275e-07 </wgt>
<wgt id='morphing_basis_vector_5'> +2.3410604e-07 </wgt>
</rwgt>
</event>
<event>
 4      1 +6.9060000e-13 7.17598200e+03 7.81860800e-03 7.14519100e-02
        2 -1    0    0  501    0 +0.0000000000e+00 +0.0000000000e+00 +2.3972461734e+03 2.3972461734e+03 0.0000000000e+00 0.0000e+00 -1.0000e+00
       -2 -1    0    0    0  501 -0.0000000000e+00 -0.0000000000e+00 -5.3701946992e+03 5.3701946992e+03 0.0000000000e+00 0.0000e+00 1.0000e+00
      -13  1    1    2    0    0 +2.1299317522e+03 -1.5994733681e+03 -4.0885129233e+03 4.8796375120e+03 0.0000000000e+00 0.0000e+00 1.0000e+00
       13  1    1    2    0    0 -2.1299317522e+03 +1.5994733681e+03 +1.1155643976e+03 2.8878033606e+03 0.0000000000e+00 0.0000e+00 -1.0000e+00
<mgrwt>
<rscale>  0 0.71759818E+04</rscale>
<asrwt>0</asrwt>
<pdfrwt beam="1">  1        2 0.36880711E+00 0.71759818E+04</pdfrwt>
<pdfrwt beam="2">  1       -2 0.82618379E+00 0.71759818E+04</pdfrwt>
<totfact> 0.24533694E-04</totfact>
</mgrwt>
<rwgt>
<wgt id='morphing_basis_vector_1'> +2.4750425e-07 </wgt>
<wgt id='morphing_basis_vector_2'> +1.6929687e-07 </wgt>
<wgt id='morphing_basis_vector_3'> +2.7370099e-07 </wgt>
<wgt id='morphing_basis_vector_4'> +1.9725092e-07 </wgt>
<wgt id='morphing_basis_vector_5'> +3.1578011e-07 </wgt>
</rwgt>
</event>
<event>
 4      1 +6.9060000e-13 6.91349800e+03 7.81860800e-03 7.16913900e-02
        2 -1    0    0  501    0 +0.0000000000e+00 +0.0000000000e+00 +2.6470990527e+03 2.6470990527e+03 0.0000000000e+00 0.0000e+00 -1.0000e+00
       -2 -1    0    0    0  501 -0.0000000000e+00 -0.0000000000e+00 -4.5140403732e+03 4.5140403732e+03 0.0000000000e+00 0.0000e+00 1.0000e+00
      -13  1    1    2    0    0 +9.7452451357e+02 -1.2552002133e+03 -4.1132672475e+03 4.4095570132e+03 0.0000000000e+00 0.0000e+00 1.0000e+00
       13  1    1    2    0    0 -9.7452451357e+02 +1.2552002133e+03 +2.2463259271e+03 2.7515824127e+03 0.0000000000e+00 0.0000e+00 -1.0000e+00
<mgrwt>
<rscale>  0 0.69134975E+04</rscale>
<asrwt>0</asrwt>
<pdfrwt beam="1">  1        2 0.40724601E+00 0.69134975E+04</pdfrwt>
<pdfrwt beam="2">  1       -2 0.69446775E+00 0.69134975E+04</pdfrwt>
<totfact> 0.50856507E-05</totfact>
</mgrwt>
<rwgt>
<wgt id='morphing_basis_vector_1'> +2.1297489e-07 </wgt>
<wgt id='morphing_basis_vector_2'> +1.4496338e-07 </wgt>
<wgt id='morphing_basis_vector_3'> +2.3529808e-07 </wgt>
<wgt id='morphing_basis_vector_4'> +1.7055658e-07 </wgt>
<wgt id='morphing_basis_vector_5'> +2.7204219e-07 </wgt>
</rwgt>
</event>
<event>
 4      1 +6.9060000e-13 6.72385300e+03 7.81860800e-03 7.18711800e-02
        2 -1    0    0  501    0 +0.0000000000e+00 +0.0000000000e+00 +4.0103374422e+03 4.0103374422e+03 0.0000000000e+00 0.0000e+00 -1.0000e+00
       -2 -1    0    0    0  501 -0.0000000000e+00 -0.0000000000e+00 -2.8183541090e+03 2.8183541090e+03 0.0000000000e+00 0.0000e+00 1.0000e+00
      -13  1    1    2    0    0 +1.6126275011e+03 +2.8690256696e+03 +1.2927464317e+03 3.5359679137e+03 0.0000000000e+00 0.0000e+00 1.0000e+00
       13  1    1    2    0    0 -1.6126275011e+03 -2.8690256696e+03 -1.0076309847e+02 3.2927236374e+03 0.0000000000e+00 0.0000e+00 -1.0000e+00
<mgrwt>
<rscale>  0 0.67238534E+04</rscale>
<asrwt>0</asrwt>
<pdfrwt beam="1">  1        2 0.61697499E+00 0.67238534E+04</pdfrwt>
<pdfrwt beam="2">  1       -2 0.43359294E+00 0.67238534E+04</pdfrwt>
<totfact> 0.76543784E-04</totfact>
</mgrwt>
<rwgt>
<wgt id='morphing_basis_vector_1'> +2.0480041e-07 </wgt>
<wgt id='morphing_basis_vector_2'> +1.7141611e-07 </wgt>
<wgt id='morphing_basis_vector_3'> +2.3379854e-07 </wgt>
<wgt id='morphing_basis_vector_4'> +1.2211224e-07 </wgt>
<wgt id='morphing_basis_vector_5'> +2.4078656e-07 </wgt>
</rwgt>
</event>
<event>
 4      1 +6.9060000e-13 7.44903100e+03 7.81860800e-03 7.12135000e-02
        2 -1    0    0  501    0 +0.0000000000e+00 +0.0000000000e+00 +3.5186896645e+03 3.5186896645e+03 0.0000000000e+00 0.0000e+00 -1.0000e+00
       -2 -1    0    0    0  501 -0.0000000000e+00 -0.0000000000e+00 -3.9423811552e+03 3.9423811552e+03 0.0000000000e+00 0.0000e+00 1.0000e+00
      -13  1    1    2    0    0 +4.0925215017e+01 +2.5601933589e+03 -2.9209819116e+03 3.8843790026e+03 0.0000000000e+00 0.0000e+00 1.0000e+00
       13  1    1    2    0    0 -4.0925215017e+01 -2.5601933589e+03 +2.4972904209e+03 3.5766918171e+03 0.0000000000e+00 0.0000e+00 -1.0000e+00
<mgrwt>
<rscale>  0 0.74490310E+04</rscale>
<asrwt>0</asrwt>
<pdfrwt beam="1">  1        2 0.54133688E+00 0.74490310E+04</pdfrwt>
<pdfrwt beam="2">  1       -2 0.60652017E+00 0.74490310E+04</pdfrwt>
<totfact> 0.90022742E-05</totfact>
</mgrwt>
<rwgt>
<wgt id='morphing_basis_vector_1'> +2.8715203e-07 </wgt>
<wgt id='morphing_basis_vector_2'> +1.9607984e-07 </wgt>
<wgt id='morphing_basis_vector_3'> +3.1752737e-07 </wgt>
<wgt id='morphing_basis_vector_4'> +2.2942706e-07 </wgt>
<wgt id='morphing_basis_vector_5'> +3.6676621e-07 </wgt>
</rwgt>
</event>
<event>
 4      1 +6.9060000e-13 6.70417200e+03 7.81860800e-03 7.18901800e-02
        2 -1    0    0  501    0 +0.0000000000e+00 +0.0000000000e+00 +1.9689757406e+03 1.9689757406e+03 0.0000000000e+00 0.0000e+00 1.0000e+00
       -2 -1    0    0    0  501 -0.0000000000e+00 -0.0000000000e+00 -5.7067647755e+03 5.7067647755e+03 0.0000000000e+00 0.0000e+00 -1.0000e+00
      -13  1    1    2    0    0 +9.4909267626e+02 +2.5127775602e+03 -4.1649238985e+03 4.9559478463e+03 0.0000000000e+00 0.0000e+00 -1.0000e+00
       13  1    1    2    0    0 -9.4909267626e+02 -2.5127775602e+03 +4.2713486355e+02 2.7197926698e+03 0.0000000000e+00 0.0000e+00 1.0000e+00
<mgrwt>
<rscale>  0 0.67041723E+04</rscale>
<asrwt>0</asrwt>
<pdfrwt beam="1">  1        2 0.30291935E+00 0.67041723E+04</pdfrwt>
<pdfrwt beam="2">  1       -2 0.87796380E+00 0.67041723E+04</pdfrwt>
<totfact> 0.18805543E-04</totfact>
</mgrwt>
<rwgt>
<wgt id='morphing_basis_vector_1'> +1.8882654e-07 </wgt>
<wgt id='morphing_basis_vector_2'> +1.2953758e-07 </wgt>
<wgt id='morphing_basis_vector_3'> +2.0881902e-07 </wgt>
<wgt id='morphing_basis_vector_4'> +1.4981117e-07 </wgt>
<wgt id='morphing_basis_vector_5'> +2.4042837e-07 </wgt>
</rwgt>
</event>
<event>
 4      1 +6.9060000e-13 6.91369300e+03 7.81860800e-03 7.16912000e-02
        2 -1    0    0  501    0 +0.0000000000e+00 +0.0000000000e+00 +2.4403598728e+03 2.4403598728e+03 0.0000000000e+00 0.0000e+00 -1.0000e+00
       -2 -1    0    0    0  501 -0.0000000000e+00 -0.0000000000e+00 -4.8967323002e+03 4.8967323002e+03 0.0000000000e+00 0.0000e+00 1.0000e+00
      -13  1    1    2    0    0 +8.2032027498e+02 +2.6160745563e+03 -3.4625999223e+03 4.4166015962e+03 0.0000000000e+00 0.0000e+00 1.0000e+00
       13  1    1    2    0    0 -8.2032027498e+02 -2.6160745563e+03 +1.0062274949e+03 2.9204905768e+03 0.0000000000e+00 0.0000e+00 -1.0000e+00
<mgrwt>
<rscale>  0 0.69136934E+04</rscale>
<asrwt>0</asrwt>
<pdfrwt beam="1">  1        2 0.37543999E+00 0.69136934E+04</pdfrwt>
<pdfrwt beam="2">  1       -2 0.75334342E+00 0.69136934E+04</pdfrwt>
<totfact> 0.26797170E-04</totfact>
</mgrwt>
<rwgt>
<wgt id='morphing_basis_vector_1'> +2.1347906e-07 </wgt>
<wgt id='morphing_basis_vector_2'> +1.4638849e-07 </wgt>
<wgt id='morphing_basis_vector_3'> +2.3611132e-07 </wgt>
<wgt id='morphing_basis_vector_4'> +1.6954673e-07 </wgt>
<wgt id='morphing_basis_vector_5'> +2.7198634e-07 </wgt>
</rwgt>
</event>
<event>
 4      1 +6.9060000e-13 6.85459700e+03 7.81860800e-03 7.17466000e-02
        2 -1    0    0  501    0 +0.0000000000e+00 +0.0000000000e+00 +2.1876210612e+03 2.1876210612e+03 0.0000000000e+00 0.0000e+00 -1.0000e+00
       -2 -1    0    0    0  501 -0.0000000000e+00 -0.0000000000e+00 -5.3694736542e+03 5.3694736542e+03 0.0000000000e+00 0.0000e+00 1.0000e+00
      -13  1    1    2    0    0 +9.0857586353e+02 -3.2467363543e+03 -9.1169614195e+02 3.4925630859e+03 0.0000000000e+00 0.0000e+00 1.0000e+00
       13  1    1    2    0    0 -9.0857586353e+02 +3.2467363543e+03 -2.2701564510e+03 4.0645316294e+03 0.0000000000e+00 0.0000e+00 -1.0000e+00
<mgrwt>
<rscale>  0 0.68545966E+04</rscale>
<asrwt>0</asrwt>
<pdfrwt beam="1">  1        2 0.33655709E+00 0.68545966E+04</pdfrwt>
<pdfrwt beam="2">  1       -2 0.82607287E+00 0.68545966E+04</pdfrwt>
<totfact> 0.33204911E-04</totfact>
</mgrwt>
<rwgt>
<wgt id='morphing_basis_vector_1'> +2.1996757e-07 </wgt>
<wgt id='morphing_basis_vector_2'> +1.8159955e-07 </wgt>
<wgt id='morphing_basis_vector_3'> +2.5055604e-07 </wgt>
<wgt id='morphing_basis_vector_4'> +1.3448465e-07 </wgt>
<wgt id='morphing_basis_vector_5'> +2.6031893e-07 </wgt>
</rwgt>
</event>
<event>
 4      1 +6.9060000e-13 7.13293100e+03 7.81860800e-03 7.14904700e-02
        2 -1    0    0  501    0 +0.0000000000e+00 +0.0000000000e+00 +3.9272431413e+03 3.9272431413e+03 0.0000000000e+00 0.0000e+00 1.0000e+00
       -2 -1    0    0    0  501 -0.0000000000e+00 -0.0000000000e+00 -3.2388311292e+03 3.2388311292e+03 0.0000000000e+00 0.0000e+00 -1.0000e+00
      -13  1    1    2    0    0 -1.2715342987e+03 +2.6185935700e+03 -1.7259132229e+03 3.3841702396e+03 0.0000000000e+00 0.0000e+00 -1.0000e+00
       13  1    1    2    0    0 +1.2715342987e+03 -2.6185935700e+03 +2.4143252351e+03 3.7819040308e+03 0.0000000000e+00 0.0000e+00 1.0000e+00
<mgrwt>
<rscale>  0 0.71329313E+04</rscale>
<asrwt>0</asrwt>
<pdfrwt beam="1">  1        2 0.60419125E+00 0.71329313E+04</pdfrwt>
<pdfrwt beam="2">  1       -2 0.49828171E+00 0.71329313E+04</pdfrwt>
<totfact> 0.29943212E-04</totfact>
</mgrwt>
<rwgt>
<wgt id='morphing_basis_vector_1'> +2.4194488e-07 </wgt>
<wgt id='morphing_basis_vector_2'> +1.6620453e-07 </wgt>
<wgt id='morphing_basis_vector_3'> +2.6771287e-07 </wgt>
<wgt id='morphing_basis_vector_4'> +1.9187215e-07 </wgt>
<wgt id='morphing_basis_vector_5'> +3.0820140e-07 </wgt>
</rwgt>
</event>
<event>
 4      1 +6.9060000e-13 7.21831100e+03 7.81860800e-03 7.14142600e-02
        2 -1    0    0  501    0 +0.0000000000e+00 +0.0000000000e+00 +2.4025463118e+03 2.4025463118e+03 0.0000000000e+00 0.0000e+00 -1.0000e+00
       -2 -1    0    0    0  501 -0.0000000000e+00 -0.0000000000e+00 -5.4217485701e+03 5.4217485701e+03 0.0000000000e+00 0.0000e+00 1.0000e+00
      -13  1    1    2    0    0 -2.0129388959e+03 +6.4102779332e+02 -4.6815540561e+03 5.1361257783e+03 0.0000000000e+00 0.0000e+00 1.0000e+00
       13  1    1    2    0    0 +2.0129388959e+03 -6.4102779332e+02 +1.6623517978e+03 2.6881691037e+03 0.0000000000e+00 0.0000e+00 -1.0000e+00
<mgrwt>
<rscale>  0 0.72183106E+04</rscale>
<asrwt>0</asrwt>
<pdfrwt beam="1">  1        2 0.36962251E+00 0.72183106E+04</pdfrwt>
<pdfrwt beam="2">  1       -2 0.83411516E+00 0.72183106E+04</pdfrwt>
<totfact> 0.22202427E-04</totfact>
</mgrwt>
<rwgt>
<wgt id='morphing_basis_vector_1'> +2.5309700e-07 </wgt>
<wgt id='morphing_basis_vector_2'> +1.7247506e-07 </wgt>
<wgt id='morphing_basis_vector_3'> +2.7974097e-07 </wgt>
<wgt id='morphing_basis_vector_4'> +2.0257431e-07 </wgt>
<wgt id='morphing_basis_vector_5'> +3.2336100e-07 </wgt>
</rwgt>
</event>
<event>
 4      1 +6.9060000e-13 7.45154000e+03 7.81860800e-03 7.12113500e-02
        2 -1    0    0  501    0 +0.0000000000e+00 +0.0000000000e+00 +4.4250875563e+03 4.4250875563e+03 0.0000000000e+00 0.0000e+00 1.0000e+00
       -2 -1    0    0    0  501 -0.0000000000e+00 -0.0000000000e+00 -3.1369687118e+03 3.1369687118e+03 0.0000000000e+00 0.0000e+00 -1.0000e+00
      -13  1    1    2    0    0 -3.1094919447e+03 -1.4160687958e+03 +2.1517485237e+03 4.0378475327e+03 0.0000000000e+00 0.0000e+00 -1.0000e+00
       13  1    1    2    0    0 +3.1094919447e+03 +1.4160687958e+03 -8.6362967921e+02 3.5242087355e+03 0.0000000000e+00 0.0000e+00 1.0000e+00
<mgrwt>
<rscale>  0 0.74515398E+04</rscale>
<asrwt>0</asrwt>
<pdfrwt beam="1">  1        2 0.68078271E+00 0.74515398E+04</pdfrwt>
<pdfrwt beam="2">  1       -2 0.48261057E+00 0.74515398E+04</pdfrwt>
<totfact> 0.13459098E-04</totfact>
</mgrwt>
<rwgt>
<wgt id='morphing_basis_vector_1'> +3.2706613e-07 </wgt>
<wgt id='morphing_basis_vector_2'> +3.1231774e-07 </wgt>
<wgt id='morphing_basis_vector_3'> +3.8281497e-07 </wgt>
<wgt id='morphing_basis_vector_4'> +1.4491395e-07 </wgt>
<wgt id='morphing_basis_vector_5'> +3.6010759e-07 </wgt>
</rwgt>
</event>
<event>
 4      1 +6.9060000e-13 6.75275300e+03 7.81860800e-03 7.18434000e-02
        2 -1    0    0  501    0 +0.0000000000e+00 +0.0000000000e+00 +2.3456064850e+03 2.3456064850e+03 0.0000000000e+00 0.0000e+00 -1.0000e+00
       -2 -1    0    0    0  501 -0.0000000000e+00 -0.0000000000e+00 -4.8601158846e+03 4.8601158846e+03 0.0000000000e+00 0.0000e+00 1.0000e+00
      -13  1    1    2    0    0 -2.0268567655e+03 -2.9044427108e+02 -4.1220021931e+03 4.6025436774e+03 0.0000000000e+00 0.0000e+00 1.0000e+00
       13  1    1    2    0    0 +2.0268567655e+03 +2.9044427108e+02 +1.6074927935e+03 2.6031786922e+03 0.0000000000e+00 0.0000e+00 -1.0000e+00
<mgrwt>
<rscale>  0 0.67527533E+04</rscale>
<asrwt>0</asrwt>
<pdfrwt beam="1">  1        2 0.36086253E+00 0.67527533E+04</pdfrwt>
<pdfrwt beam="2">  1       -2 0.74771014E+00 0.67527533E+04</pdfrwt>
<totfact> 0.28976963E-04</totfact>
</mgrwt>
<rwgt>
<wgt id='morphing_basis_vector_1'> +1.9395512e-07 </wgt>
<wgt id='morphing_basis_vector_2'> +1.3217363e-07 </wgt>
<wgt id='morphing_basis_vector_3'> +2.1429159e-07 </wgt>
<wgt id='morphing_basis_vector_4'> +1.5505350e-07 </wgt>
<wgt id='morphing_basis_vector_5'> +2.4755712e-07 </wgt>
</rwgt>
</event>
<event>
 4      1 +6.9060000e-13 6.81726300e+03 7.81860800e-03 7.17818900e-02
        2 -1    0    0  501    0 +0.0000000000e+00 +0.0000000000e+00 +4.1884804231e+03 4.1884804231e+03 0.0000000000e+00 0.0000e+00 -1.0000e+00
       -2 -1    0    0    0  501 -0.0000000000e+00 -0.0000000000e+00 -2.7739817611e+03 2.7739817611e+03 0.0000000000e+00 0.0000e+00 1.0000e+00
      -13  1    1    2    0    0 +6.1388702528e+02 +2.8306889293e+03 -1.1279967655e+03 3.1083812181e+03 0.0000000000e+00 0.0000e+00 1.0000e+00
       13  1    1    2    0    0 -6.1388702528e+02 -2.8306889293e+03 +2.5424954275e+03 3.8540809661e+03 0.0000000000e+00 0.0000e+00 -1.0000e+00
<mgrwt>
<rscale>  0 0.68172629E+04</rscale>
<asrwt>0</asrwt>
<pdfrwt beam="1">  1        2 0.64438161E+00 0.68172629E+04</pdfrwt>
<pdfrwt beam="2">  1       -2 0.42676642E+00 0.68172629E+04</pdfrwt>
<totfact> 0.58801002E-04</totfact>
</mgrwt>
<rwgt>
<wgt id='morphing_basis_vector_1'> +2.0213358e-07 </wgt>
<wgt id='morphing_basis_vector_2'> +1.3927069e-07 </wgt>
<wgt id='morphing_basis_vector_3'> +2.2370097e-07 </wgt>
<wgt id='morphing_basis_vector_4'> +1.5962991e-07 </wgt>
<wgt id='morphing_basis_vector_5'> +2.5704839e-07 </wgt>
</rwgt>
</event>
<event>
 4      1 +6.9060000e-13 7.12194100e+03 7.81860800e-03 7.15003600e-02
        2 -1    0    0  501    0 +0.0000000000e+00 +0.0000000000e+00 +3.1955660316e+03 3.1955660316e+03 0.0000000000e+00 0.0000e+00 -1.0000e+00
       -2 -1    0    0    0  501 -0.0000000000e+00 -0.0000000000e+00 -3.9681584456e+03 3.9681584456e+03 0.0000000000e+00 0.0000e+00 1.0000e+00
      -13  1    1    2    0    0 -1.3911555981e+03 +2.5882435895e+03 +1.6370202097e+03 3.3636518761e+03 0.0000000000e+00 0.0000e+00 1.0000e+00
       13  1    1    2    0    0 +1.3911555981e+03 -2.5882435895e+03 -2.4096126237e+03 3.8000726010e+03 0.0000000000e+00 0.0000e+00 -1.0000e+00
<mgrwt>
<rscale>  0 0.71219414E+04</rscale>
<asrwt>0</asrwt>
<pdfrwt beam="1">  1        2 0.49162554E+00 0.71219414E+04</pdfrwt>
<pdfrwt beam="2">  1       -2 0.61048592E+00 0.71219414E+04</pdfrwt>
<totfact> 0.14163676E-04</totfact>
</mgrwt>
<rwgt>
<wgt id='morphing_basis_vector_1'> +2.9204978e-07 </wgt>
<wgt id='morphing_basis_vector_2'> +3.1655905e-07 </wgt>
<wgt id='morphing_basis_vector_3'> +3.5064718e-07 </wgt>
<wgt id='morphing_basis_vector_4'> +8.0043851e-08 </wgt>
<wgt id='morphing_basis_vector_5'> +2.9697619e-07 </wgt>
</rwgt>
</event>
<event>
 4      1 +6.9060000e-13 7.27869600e+03 7.81860800e-03 7.13609900e-02
        2 -1    0    0  501    0 +0.0000000000e+00 +0.0000000000e+00 +4.6747398343e+03 4.6747398343e+03 0.0000000000e+00 0.0000e+00 -1.0000e+00
       -2 -1    0    0    0  501 -0.0000000000e+00 -0.0000000000e+00 -2.8332812269e+03 2.8332812269e+03 0.0000000000e+00 0.0000e+00 1.0000e+00
      -13  1    1    2    0    0 -1.2397751283e+03 -2.6264984936e+03 -1.3413799394e+03 3.1991931556e+03 0.0000000000e+00 0.0000e+00 1.0000e+00
       13  1    1    2    0    0 +1.2397751283e+03 +2.6264984936e+03 +3.1828385467e+03 4.3088279056e+03 0.0000000000e+00 0.0000e+00 -1.0000e+00
<mgrwt>
<rscale>  0 0.72786957E+04</rscale>
<asrwt>0</asrwt>
<pdfrwt beam="1">  1        2 0.71919074E+00 0.72786957E+04</pdfrwt>
<pdfrwt beam="2">  1       -2 0.43588942E+00 0.72786957E+04</pdfrwt>
<totfact> 0.15914959E-04</totfact>
</mgrwt>
<rwgt>
<wgt id='morphing_basis_vector_1'> +2.6219601e-07 </wgt>
<wgt id='morphing_basis_vector_2'> +1.7989016e-07 </wgt>
<wgt id='morphing_basis_vector_3'> +2.9009902e-07 </wgt>
<wgt id='morphing_basis_vector_4'> +2.0829746e-07 </wgt>
<wgt id='morphing_basis_vector_5'> +3.3423760e-07 </wgt>
</rwgt>
</event>
<event>
 4      1 +6.9060000e-13 7.15622400e+03 7.81860800e-03 7.14695700e-02
        2 -1    0    0  501    0 +0.0000000000e+00 +0.0000000000e+00 +4.0788797749e+03 4.0788797749e+03 0.0000000000e+00 0.0000e+00 -1.0000e+00
       -2 -1    0    0    0  501 -0.0000000000e+00 -0.0000000000e+00 -3.1388242309e+03 3.1388242309e+03 0.0000000000e+00 0.0000e+00 1.0000e+00
      -13  1    1    2    0    0 -1.3602597223e+03 -2.0006780614e+03 -2.1888806682e+03 3.2625477463e+03 0.0000000000e+00 0.0000e+00 1.0000e+00
       13  1    1    2    0    0 +1.3602597223e+03 +2.0006780614e+03 +3.1289362122e+03 3.9551562596e+03 0.0000000000e+00 0.0000e+00 -1.0000e+00
<mgrwt>
<rscale>  0 0.71562243E+04</rscale>
<asrwt>0</asrwt>
<pdfrwt beam="1">  1        2 0.62751996E+00 0.71562243E+04</pdfrwt>
<pdfrwt beam="2">  1       -2 0.48289604E+00 0.71562243E+04</pdfrwt>
<totfact> 0.28898017E-04</totfact>
</mgrwt>
<rwgt>
<wgt id='morphing_basis_vector_1'> +2.4463440e-07 </wgt>
<wgt id='morphing_basis_vector_2'> +1.6697290e-07 </wgt>
<wgt id='morphing_basis_vector_3'> +2.7043769e-07 </wgt>
<wgt id='morphing_basis_vector_4'> +1.9542664e-07 </wgt>
<wgt id='morphing_basis_vector_5'> +3.1234028e-07 </wgt>
</rwgt>
</event>
<event>
 4      1 +6.9060000e-13 6.81982500e+03 7.81860800e-03 7.17794600e-02
        2 -1    0    0  501    0 +0.0000000000e+00 +0.0000000000e+00 +2.2166316418e+03 2.2166316418e+03 0.0000000000e+00 0.0000e+00 -1.0000e+00
       -2 -1    0    0    0  501 -0.0000000000e+00 -0.0000000000e+00 -5.2455734539e+03 5.2455734539e+03 0.0000000000e+00 0.0000e+00 1.0000e+00
      -13  1    1    2    0    0 +1.5016763189e+03 +2.2139593793e+03 -3.8280762867e+03 4.6702051300e+03 0.0000000000e+00 0.0000e+00 1.0000e+00
       13  1    1    2    0    0 -1.5016763189e+03 -2.2139593793e+03 +7.9913447461e+02 2.7919999657e+03 0.0000000000e+00 0.0000e+00 -1.0000e+00
<mgrwt>
<rscale>  0 0.68198252E+04</rscale>
<asrwt>0</asrwt>
<pdfrwt beam="1">  1        2 0.34102025E+00 0.68198252E+04</pdfrwt>
<pdfrwt beam="2">  1       -2 0.80701130E+00 0.68198252E+04</pdfrwt>
<totfact> 0.37388646E-04</totfact>
</mgrwt>
<rwgt>
<wgt id='morphing_basis_vector_1'> +2.0210574e-07 </wgt>
<wgt id='morphing_basis_vector_2'> +1.3850766e-07 </wgt>
<wgt id='morphing_basis_vector_3'> +2.2349467e-07 </wgt>
<wgt id='morphing_basis_vector_4'> +1.6058074e-07 </wgt>
<wgt id='morphing_basis_vector_5'> +2.5749558e-07 </wgt>
</rwgt>
</event>
<event>
 4      1 +6.9060000e-13 6.83895000e+03 7.81860800e-03 7.17613600e-02
        2 -1    0    0  501    0 +0.0000000000e+00 +0.0000000000e+00 +2.0064115807e+03 2.0064115807e+03 0.0000000000e+00 0.0000e+00 -1.0000e+00
       -2 -1    0    0    0  501 -0.0000000000e+00 -0.0000000000e+00 -5.8277222775e+03 5.8277222775e+03 0.0000000000e+00 0.0000e+00 1.0000e+00
      -13  1    1    2    0    0 -4.2758804246e+02 -1.9359100054e+03 -5.1021551367e+03 5.4738072785e+03 0.0000000000e+00 0.0000e+00 1.0000e+00
       13  1    1    2    0    0 +4.2758804246e+02 +1.9359100054e+03 +1.2808444400e+03 2.3603265796e+03 0.0000000000e+00 0.0000e+00 -1.0000e+00
<mgrwt>
<rscale>  0 0.68389501E+04</rscale>
<asrwt>0</asrwt>
<pdfrwt beam="1">  1        2 0.30867871E+00 0.68389501E+04</pdfrwt>
<pdfrwt beam="2">  1       -2 0.89657264E+00 0.68389501E+04</pdfrwt>
<totfact> 0.11133189E-04</totfact>
</mgrwt>
<rwgt>
<wgt id='morphing_basis_vector_1'> +2.0400934e-07 </wgt>
<wgt id='morphing_basis_vector_2'> +1.3898404e-07 </wgt>
<wgt id='morphing_basis_vector_3'> +2.2540753e-07 </wgt>
<wgt id='morphing_basis_vector_4'> +1.6318355e-07 </wgt>
<wgt id='morphing_basis_vector_5'> +2.6046772e-07 </wgt>
</rwgt>
</event>
<event>
 4      1 +6.9060000e-13 6.75689600e+03 7.81860800e-03 7.18394300e-02
        2 -1    0    0  501    0 +0.0000000000e+00 +0.0000000000e+00 +3.1367711592e+03 3.1367711592e+03 0.0000000000e+00 0.0000e+00 -1.0000e+00
       -2 -1    0    0    0  501 -0.0000000000e+00 -0.0000000000e+00 -3.6387448711e+03 3.6387448711e+03 0.0000000000e+00 0.0000e+00 1.0000e+00
      -13  1    1    2    0    0 +2.1838732993e+03 -2.9899585694e+02 -2.8183566478e+03 3.5779652464e+03 0.0000000000e+00 0.0000e+00 1.0000e+00
       13  1    1    2    0    0 -2.1838732993e+03 +2.9899585694e+02 +2.3163829359e+03 3.1975507839e+03 0.0000000000e+00 0.0000e+00 -1.0000e+00
<mgrwt>
<rscale>  0 0.67568957E+04</rscale>
<asrwt>0</asrwt>
<pdfrwt beam="1">  1        2 0.48258018E+00 0.67568957E+04</pdfrwt>
<pdfrwt beam="2">  1       -2 0.55980690E+00 0.67568957E+04</pdfrwt>
<totfact> 0.42228392E-04</totfact>
</mgrwt>
<rwgt>
<wgt id='morphing_basis_vector_1'> +1.9447776e-07 </wgt>
<wgt id='morphing_basis_vector_2'> +1.3263635e-07 </wgt>
<wgt id='morphing_basis_vector_3'> +2.1489503e-07 </wgt>
<wgt id='morphing_basis_vector_4'> +1.5533393e-07 </wgt>
<wgt id='morphing_basis_vector_5'> +2.4815767e-07 </wgt>
</rwgt>
</event>
<event>
 4      1 +6.9060000e-13 6.73895300e+03 7.81860800e-03 7.18566500e-02
        2 -1    0    0  501    0 +0.0000000000e+00 +0.0000000000e+00 +2.3459602797e+03 2.3459602797e+03 0.0000000000e+00 0.0000e+00 -1.0000e+00
       -2 -1    0    0    0  501 -0.0000000000e+00 -0.0000000000e+00 -4.8395407996e+03 4.8395407996e+03 0.0000000000e+00 0.0000e+00 1.0000e+00
      -13  1    1    2    0    0 +2.1581972830e+03 +2.4570523030e+03 -3.8157192340e+02 3.2924942923e+03 0.0000000000e+00 0.0000e+00 1.0000e+00
       13  1    1    2    0    0 -2.1581972830e+03 -2.4570523030e+03 -2.1120085965e+03 3.8930067870e+03 0.0000000000e+00 0.0000e+00 -1.0000e+00
<mgrwt>
<rscale>  0 0.67389526E+04</rscale>
<asrwt>0</asrwt>
<pdfrwt beam="1">  1        2 0.36091697E+00 0.67389526E+04</pdfrwt>
<pdfrwt beam="2">  1       -2 0.74454473E+00 0.67389526E+04</pdfrwt>
<totfact> 0.27888471E-04</totfact>
</mgrwt>
<rwgt>
<wgt id='morphing_basis_vector_1'> +2.0850015e-07 </wgt>
<wgt id='morphing_basis_vector_2'> +1.7840953e-07 </wgt>
<wgt id='morphing_basis_vector_3'> +2.3894772e-07 </wgt>
<wgt id='morphing_basis_vector_4'> +1.1923428e-07 </wgt>
<wgt id='morphing_basis_vector_5'> +2.4262513e-07 </wgt>
</rwgt>
</event>
<event>
 4      1 +6.9060000e-13 7.75964700e+03 7.81860800e-03 7.09544600e-02
        2 -1    0    0  501    0 +0.0000000000e+00 +0.0000000000e+00 +2.8438493232e+03 2.8438493232e+03 0.0000000000e+00 0.0000e+00 -1.0000e+00
       -2 -1    0    0    0  501 -0.0000000000e+00 -0.0000000000e+00 -5.2931881399e+03 5.2931881399e+03 0.0000000000e+00 0.0000e+00 1.0000e+00
      -13  1    1    2    0    0 +1.4646997975e+03 +3.1261043297e+03 -3.0814215030e+03 4.6274217720e+03 0.0000000000e+00 0.0000e+00 1.0000e+00
       13  1    1    2    0    0 -1.4646997975e+03 -3.1261043297e+03 +6.3208268629e+02 3.5096156911e+03 0.0000000000e+00 0.0000e+00 -1.0000e+00
<mgrwt>
<rscale>  0 0.77596468E+04</rscale>
<asrwt>0</asrwt>
<pdfrwt beam="1">  1        2 0.43751528E+00 0.77596468E+04</pdfrwt>
<pdfrwt beam="2">  1       -2 0.81433664E+00 0.77596468E+04</pdfrwt>
<totfact> 0.14039750E-04</totfact>
</mgrwt>
<rwgt>
<wgt id='morphing_basis_vector_1'> +3.3959752e-07 </wgt>
<wgt id='morphing_basis_vector_2'> +2.3541049e-07 </wgt>
<wgt id='morphing_basis_vector_3'> +3.7643272e-07 </wgt>
<wgt id='morphing_basis_vector_4'> +2.6688954e-07 </wgt>
<wgt id='morphing_basis_vector_5'> +4.3169106e-07 </wgt>
</rwgt>
</event>
<event>
 4      1 +6.9060000e-13 7.20436200e+03 7.81860800e-03 7.14266400e-02
        2 -1    0    0  501    0 +0.0000000000e+00 +0.0000000000e+00 +3.1201479695e+03 3.1201479695e+03 0.0000000000e+00 0.0000e+00 -1.0000e+00
       -2 -1    0    0    0  501 -0.0000000000e+00 -0.0000000000e+00 -4.1586832504e+03 4.1586832504e+03 0.0000000000e+00 0.0000e+00 1.0000e+00
      -13  1    1    2    0    0 +2.4386534066e+03 +1.7525685240e+03 -2.5290963797e+03 3.9261756668e+03 0.0000000000e+00 0.0000e+00 1.0000e+00
       13  1    1    2    0    0 -2.4386534066e+03 -1.7525685240e+03 +1.4905610987e+03 3.3526555531e+03 0.0000000000e+00 0.0000e+00 -1.0000e+00
<mgrwt>
<rscale>  0 0.72043618E+04</rscale>
<asrwt>0</asrwt>
<pdfrwt beam="1">  1        2 0.48002276E+00 0.72043618E+04</pdfrwt>
<pdfrwt beam="2">  1       -2 0.63979742E+00 0.72043618E+04</pdfrwt>
<totfact> 0.63468582E-05</totfact>
</mgrwt>
<rwgt>
<wgt id='morphing_basis_vector_1'> +2.5188383e-07 </wgt>
<wgt id='morphing_basis_vector_2'> +1.7330154e-07 </wgt>
<wgt id='morphing_basis_vector_3'> +2.7878951e-07 </wgt>
<wgt id='morphing_basis_vector_4'> +1.9943527e-07 </wgt>
<wgt id='morphing_basis_vector_5'> +3.2073215e-07 </wgt>
</rwgt>
</event>
<event>
 4      1 +6.9060000e-13 7.37525400e+03 7.81860800e-03 7.12768900e-02
        2 -1    0    0  501    0 +0.0000000000e+00 +0.0000000000e+00 +3.4798526072e+03 3.4798526072e+03 0.0000000000e+00 0.0000e+00 -1.0000e+00
       -2 -1    0    0    0  501 -0.0000000000e+00 -0.0000000000e+00 -3.9078066416e+03 3.9078066416e+03 0.0000000000e+00 0.0000e+00 1.0000e+00
      -13  1    1    2    0    0 +5.4060331453e+02 -4.9727738503e+02 -3.8337869493e+03 3.9035188118e+03 0.0000000000e+00 0.0000e+00 1.0000e+00
       13  1    1    2    0    0 -5.4060331453e+02 +4.9727738503e+02 +3.4058329148e+03 3.4841404370e+03 0.0000000000e+00 0.0000e+00 -1.0000e+00
<mgrwt>
<rscale>  0 0.73752535E+04</rscale>
<asrwt>0</asrwt>
<pdfrwt beam="1">  1        2 0.53536194E+00 0.73752535E+04</pdfrwt>
<pdfrwt beam="2">  1       -2 0.60120102E+00 0.73752535E+04</pdfrwt>
<totfact> 0.10909092E-04</totfact>
</mgrwt>
<rwgt>
<wgt id='morphing_basis_vector_1'> +2.7567856e-07 </wgt>
<wgt id='morphing_basis_vector_2'> +1.8760437e-07 </wgt>
<wgt id='morphing_basis_vector_3'> +3.0467252e-07 </wgt>
<wgt id='morphing_basis_vector_4'> +2.2106391e-07 </wgt>
<wgt id='morphing_basis_vector_5'> +3.5248114e-07 </wgt>
</rwgt>
</event>
<event>
 4      1 +6.9060000e-13 7.89535500e+03 7.81860800e-03 7.08450700e-02
        2 -1    0    0  501    0 +0.0000000000e+00 +0.0000000000e+00 +5.0784612664e+03 5.0784612664e+03 0.0000000000e+00 0.0000e+00 -1.0000e+00
       -2 -1    0    0    0  501 -0.0000000000e+00 -0.0000000000e+00 -3.0686772447e+03 3.0686772447e+03 0.0000000000e+00 0.0000e+00 1.0000e+00
      -13  1    1    2    0    0 -3.4382686385e+02 +3.2058797268e+03 -1.3455253932e+03 3.4937544732e+03 0.0000000000e+00 0.0000e+00 1.0000e+00
       13  1    1    2    0    0 +3.4382686385e+02 -3.2058797268e+03 +3.3553094149e+03 4.6533840380e+03 0.0000000000e+00 0.0000e+00 -1.0000e+00
<mgrwt>
<rscale>  0 0.78953552E+04</rscale>
<asrwt>0</asrwt>
<pdfrwt beam="1">  1        2 0.78130173E+00 0.78953552E+04</pdfrwt>
<pdfrwt beam="2">  1       -2 0.47210419E+00 0.78953552E+04</pdfrwt>
<totfact> 0.26397719E-05</totfact>
</mgrwt>
<rwgt>
<wgt id='morphing_basis_vector_1'> +3.6297653e-07 </wgt>
<wgt id='morphing_basis_vector_2'> +2.4944743e-07 </wgt>
<wgt id='morphing_basis_vector_3'> +4.0186301e-07 </wgt>
<wgt id='morphing_basis_vector_4'> +2.8817313e-07 </wgt>
<wgt id='morphing_basis_vector_5'> +4.6290991e-07 </wgt>
</rwgt>
</event>
<event>
 4      1 +6.9060000e-13 7.02246100e+03 7.81860800e-03 7.15907000e-02
        2 -1    0    0  501    0 +0.0000000000e+00 +0.0000000000e+00 +2.3824569544e+03 2.3824569544e+03 0.0000000000e+00 0.0000e+00 -1.0000e+00
       -2 -1    0    0    0  501 -0.0000000000e+00 -0.0000000000e+00 -5.1748006305e+03 5.1748006305e+03 0.0000000000e+00 0.0000e+00 1.0000e+00
      -13  1    1    2    0    0 +2.5483237491e+03 -2.3810980988e+03 -1.8335169250e+03 3.9402241561e+03 0.0000000000e+00 0.0000e+00 1.0000e+00
       13  1    1    2    0    0 -2.5483237491e+03 +2.3810980988e+03 -9.5882675103e+02 3.6170334288e+03 0.0000000000e+00 0.0000e+00 -1.0000e+00
<mgrwt>
<rscale>  0 0.70224610E+04</rscale>
<asrwt>0</asrwt>
<pdfrwt beam="1">  1        2 0.36653184E+00 0.70224610E+04</pdfrwt>
<pdfrwt beam="2">  1       -2 0.79612317E+00 0.70224610E+04</pdfrwt>
<totfact> 0.31158183E-04</totfact>
</mgrwt>
<rwgt>
<wgt id='morphing_basis_vector_1'> +2.3211034e-07 </wgt>
<wgt id='morphing_basis_vector_2'> +1.7019446e-07 </wgt>
<wgt id='morphing_basis_vector_3'> +2.5935504e-07 </wgt>
<wgt id='morphing_basis_vector_4'> +1.6997914e-07 </wgt>
<wgt id='morphing_basis_vector_5'> +2.8865396e-07 </wgt>
</rwgt>
</event>
<event>
 4      1 +6.9060000e-13 6.70142900e+03 7.81860800e-03 7.18928400e-02
        2 -1    0    0  501    0 +0.0000000000e+00 +0.0000000000e+00 +4.8535381046e+03 4.8535381046e+03 0.0000000000e+00 0.0000e+00 -1.0000e+00
       -2 -1    0    0    0  501 -0.0000000000e+00 -0.0000000000e+00 -2.3132171835e+03 2.3132171835e+03 0.0000000000e+00 0.0000e+00 1.0000e+00
      -13  1    1    2    0    0 +1.8222359311e+02 +1.7266660082e+03 -1.7946125364e+03 2.4970412687e+03 0.0000000000e+00 0.0000e+00 1.0000e+00
       13  1    1    2    0    0 -1.8222359311e+02 -1.7266660082e+03 +4.3349334575e+03 4.6697140194e+03 0.0000000000e+00 0.0000e+00 -1.0000e+00
<mgrwt>
<rscale>  0 0.67014290E+04</rscale>
<asrwt>0</asrwt>
<pdfrwt beam="1">  1        2 0.74669817E+00 0.67014290E+04</pdfrwt>
<pdfrwt beam="2">  1       -2 0.35587957E+00 0.67014290E+04</pdfrwt>
<totfact> 0.34137882E-04</totfact>
</mgrwt>
<rwgt>
<wgt id='morphing_basis_vector_1'> +1.8808259e-07 </wgt>
<wgt id='morphing_basis_vector_2'> +1.2804743e-07 </wgt>
<wgt id='morphing_basis_vector_3'> +2.0776416e-07 </wgt>
<wgt id='morphing_basis_vector_4'> +1.5049927e-07 </wgt>
<wgt id='morphing_basis_vector_5'> +2.4011305e-07 </wgt>
</rwgt>
</event>
<event>
 4      1 +6.9060000e-13 7.20959800e+03 7.81860800e-03 7.14219900e-02
        2 -1    0    0  501    0 +0.0000000000e+00 +0.0000000000e+00 +4.5841328465e+03 4.5841328465e+03 0.0000000000e+00 0.0000e+00 1.0000e+00
       -2 -1    0    0    0  501 -0.0000000000e+00 -0.0000000000e+00 -2.8346859575e+03 2.8346859575e+03 0.0000000000e+00 0.0000e+00 -1.0000e+00
      -13  1    1    2    0    0 +1.7813299752e+03 +8.3176605346e+02 -2.2344840567e+03 2.9762207996e+03 0.0000000000e+00 0.0000e+00 -1.0000e+00
       13  1    1    2    0    0 -1.7813299752e+03 -8.3176605346e+02 +3.9839309457e+03 4.4425980043e+03 0.0000000000e+00 0.0000e+00 1.0000e+00
<mgrwt>
<rscale>  0 0.72095983E+04</rscale>
<asrwt>0</asrwt>
<pdfrwt beam="1">  1        2 0.70525121E+00 0.72095983E+04</pdfrwt>
<pdfrwt beam="2">  1       -2 0.43610553E+00 0.72095983E+04</pdfrwt>
<totfact> 0.20049932E-04</totfact>
</mgrwt>
<rwgt>
<wgt id='morphing_basis_vector_1'> +2.5184666e-07 </wgt>
<wgt id='morphing_basis_vector_2'> +1.7154885e-07 </wgt>
<wgt id='morphing_basis_vector_3'> +2.7833960e-07 </wgt>
<wgt id='morphing_basis_vector_4'> +2.0166647e-07 </wgt>
<wgt id='morphing_basis_vector_5'> +3.2180620e-07 </wgt>
</rwgt>
</event>
<event>
 4      1 +6.9060000e-13 7.09109400e+03 7.81860800e-03 7.15282100e-02
        2 -1    0    0  501    0 +0.0000000000e+00 +0.0000000000e+00 +4.0591618656e+03 4.0591618656e+03 0.0000000000e+00 0.0000e+00 -1.0000e+00
       -2 -1    0    0    0  501 -0.0000000000e+00 -0.0000000000e+00 -3.0969207385e+03 3.0969207385e+03 0.0000000000e+00 0.0000e+00 1.0000e+00
      -13  1    1    2    0    0 +5.3398248793e+02 -1.5071541680e+03 -2.7124121414e+03 3.1486236054e+03 0.0000000000e+00 0.0000e+00 1.0000e+00
       13  1    1    2    0    0 -5.3398248793e+02 +1.5071541680e+03 +3.6746532684e+03 4.0074589987e+03 0.0000000000e+00 0.0000e+00 -1.0000e+00
<mgrwt>
<rscale>  0 0.70910937E+04</rscale>
<asrwt>0</asrwt>
<pdfrwt beam="1">  1        2 0.62448644E+00 0.70910937E+04</pdfrwt>
<pdfrwt beam="2">  1       -2 0.47644935E+00 0.70910937E+04</pdfrwt>
<totfact> 0.33707601E-04</totfact>
</mgrwt>
<rwgt>
<wgt id='morphing_basis_vector_1'> +2.3567361e-07 </wgt>
<wgt id='morphing_basis_vector_2'> +1.6042383e-07 </wgt>
<wgt id='morphing_basis_vector_3'> +2.6041596e-07 </wgt>
<wgt id='morphing_basis_vector_4'> +1.8880502e-07 </wgt>
<wgt id='morphing_basis_vector_5'> +3.0114094e-07 </wgt>
</rwgt>
</event>
<event>
 4      1 +6.9060000e-13 6.95678300e+03 7.81860800e-03 7.16511700e-02
        2 -1    0    0  501    0 +0.0000000000e+00 +0.0000000000e+00 +4.3521738206e+03 4.3521738206e+03 0.0000000000e+00 0.0000e+00 -1.0000e+00
       -2 -1    0    0    0  501 -0.0000000000e+00 -0.0000000000e+00 -2.7800376558e+03 2.7800376558e+03 0.0000000000e+00 0.0000e+00 1.0000e+00
      -13  1    1    2    0    0 +3.1857118317e+03 -1.2084292420e+03 +6.8309339312e+01 3.4078919105e+03 0.0000000000e+00 0.0000e+00 1.0000e+00
       13  1    1    2    0    0 -3.1857118317e+03 +1.2084292420e+03 +1.5038268255e+03 3.7243195659e+03 0.0000000000e+00 0.0000e+00 -1.0000e+00
<mgrwt>
<rscale>  0 0.69567829E+04</rscale>
<asrwt>0</asrwt>
<pdfrwt beam="1">  1        2 0.66956521E+00 0.69567829E+04</pdfrwt>
<pdfrwt beam="2">  1       -2 0.42769810E+00 0.69567829E+04</pdfrwt>
<totfact> 0.40204941E-04</totfact>
</mgrwt>
<rwgt>
<wgt id='morphing_basis_vector_1'> +2.2208134e-07 </wgt>
<wgt id='morphing_basis_vector_2'> +1.5957569e-07 </wgt>
<wgt id='morphing_basis_vector_3'> +2.4736092e-07 </wgt>
<wgt id='morphing_basis_vector_4'> +1.6687422e-07 </wgt>
<wgt id='morphing_basis_vector_5'> +2.7825663e-07 </wgt>
</rwgt>
</event>
<event>
 4      1 +6.9060000e-13 7.50510100e+03 7.81860800e-03 7.11658100e-02
        2 -1    0    0  501    0 +0.0000000000e+00 +0.0000000000e+00 +4.5765572556e+03 4.5765572556e+03 0.0000000000e+00 0.0000e+00 -1.0000e+00
       -2 -1    0    0    0  501 -0.0000000000e+00 -0.0000000000e+00 -3.0769056783e+03 3.0769056783e+03 0.0000000000e+00 0.0000e+00 1.0000e+00
      -13  1    1    2    0    0 +1.5969678441e+03 +3.3711682990e+03 +3.3364915673e+02 3.7451840749e+03 0.0000000000e+00 0.0000e+00 1.0000e+00
       13  1    1    2    0    0 -1.5969678441e+03 -3.3711682990e+03 +1.1660024205e+03 3.9082788590e+03 0.0000000000e+00 0.0000e+00 -1.0000e+00
<mgrwt>
<rscale>  0 0.75051009E+04</rscale>
<asrwt>0</asrwt>
<pdfrwt beam="1">  1        2 0.70408573E+00 0.75051009E+04</pdfrwt>
<pdfrwt beam="2">  1       -2 0.47337010E+00 0.75051009E+04</pdfrwt>
<totfact> 0.10919666E-04</totfact>
</mgrwt>
<rwgt>
<wgt id='morphing_basis_vector_1'> +3.0287023e-07 </wgt>
<wgt id='morphing_basis_vector_2'> +2.2254783e-07 </wgt>
<wgt id='morphing_basis_vector_3'> +3.3866218e-07 </wgt>
<wgt id='morphing_basis_vector_4'> +2.2142735e-07 </wgt>
<wgt id='morphing_basis_vector_5'> +3.7668560e-07 </wgt>
</rwgt>
</event>
<event>
 4      1 +6.9060000e-13 6.90753200e+03 7.81860800e-03 7.16969500e-02
        2 -1    0    0  501    0 +0.0000000000e+00 +0.0000000000e+00 +3.4337144167e+03 3.4337144167e+03 0.0000000000e+00 0.0000e+00 -1.0000e+00
       -2 -1    0    0    0  501 -0.0000000000e+00 -0.0000000000e+00 -3.4739348750e+03 3.4739348750e+03 0.0000000000e+00 0.0000e+00 1.0000e+00
      -13  1    1    2    0    0 -2.3636571659e+03 -2.3640672458e+03 -8.8777182540e+02 3.4588766897e+03 0.0000000000e+00 0.0000e+00 1.0000e+00
       13  1    1    2    0    0 +2.3636571659e+03 +2.3640672458e+03 +8.4755136718e+02 3.4487726020e+03 0.0000000000e+00 0.0000e+00 -1.0000e+00
<mgrwt>
<rscale>  0 0.69075322E+04</rscale>
<asrwt>0</asrwt>
<pdfrwt beam="1">  1        2 0.52826376E+00 0.69075322E+04</pdfrwt>
<pdfrwt beam="2">  1       -2 0.53445152E+00 0.69075322E+04</pdfrwt>
<totfact> 0.39501570E-04</totfact>
</mgrwt>
<rwgt>
<wgt id='morphing_basis_vector_1'> +2.1520107e-07 </wgt>
<wgt id='morphing_basis_vector_2'> +1.5314685e-07 </wgt>
<wgt id='morphing_basis_vector_3'> +2.3933530e-07 </wgt>
<wgt id='morphing_basis_vector_4'> +1.6362399e-07 </wgt>
<wgt id='morphing_basis_vector_5'> +2.7056834e-07 </wgt>
</rwgt>
</event>
<event>
 4      1 +6.9060000e-13 7.39946100e+03 7.81860800e-03 7.12560100e-02
        2 -1    0    0  501    0 +0.0000000000e+00 +0.0000000000e+00 +2.6843079722e+03 2.6843079722e+03 0.0000000000e+00 0.0000e+00 1.0000e+00
       -2 -1    0    0    0  501 -0.0000000000e+00 -0.0000000000e+00 -5.0992679017e+03 5.0992679017e+03 0.0000000000e+00 0.0000e+00 -1.0000e+00
      -13  1    1    2    0    0 +3.0144152016e+03 +2.0448758719e+03 -1.8890251947e+03 4.1032465836e+03 0.0000000000e+00 0.0000e+00 -1.0000e+00
       13  1    1    2    0    0 -3.0144152016e+03 -2.0448758719e+03 -5.2593473480e+02 3.6803292903e+03 0.0000000000e+00 0.0000e+00 1.0000e+00
<mgrwt>
<rscale>  0 0.73994609E+04</rscale>
<asrwt>0</asrwt>
<pdfrwt beam="1">  1        2 0.41297046E+00 0.73994609E+04</pdfrwt>
<pdfrwt beam="2">  1       -2 0.78450276E+00 0.73994609E+04</pdfrwt>
<totfact> 0.20608552E-04</totfact>
</mgrwt>
<rwgt>
<wgt id='morphing_basis_vector_1'> +2.8464694e-07 </wgt>
<wgt id='morphing_basis_vector_2'> +2.0573602e-07 </wgt>
<wgt id='morphing_basis_vector_3'> +3.1744755e-07 </wgt>
<wgt id='morphing_basis_vector_4'> +2.1253368e-07 </wgt>
<wgt id='morphing_basis_vector_5'> +3.5617281e-07 </wgt>
</rwgt>
</event>
<event>
 4      1 +6.9060000e-13 6.66504700e+03 7.81860800e-03 7.19281600e-02
        2 -1    0    0  501    0 +0.0000000000e+00 +0.0000000000e+00 +2.7107329887e+03 2.7107329887e+03 0.0000000000e+00 0.0000e+00 -1.0000e+00
       -2 -1    0    0    0  501 -0.0000000000e+00 -0.0000000000e+00 -4.0969409840e+03 4.0969409840e+03 0.0000000000e+00 0.0000e+00 1.0000e+00
      -13  1    1    2    0    0 -2.1269169720e+03 -2.4973111420e+03 -1.2933655923e+03 3.5260648464e+03 0.0000000000e+00 0.0000e+00 1.0000e+00
       13  1    1    2    0    0 +2.1269169720e+03 +2.4973111420e+03 -9.2842402999e+01 3.2816091262e+03 0.0000000000e+00 0.0000e+00 -1.0000e+00
<mgrwt>
<rscale>  0 0.66650471E+04</rscale>
<asrwt>0</asrwt>
<pdfrwt beam="1">  1        2 0.41703585E+00 0.66650471E+04</pdfrwt>
<pdfrwt beam="2">  1       -2 0.63029861E+00 0.66650471E+04</pdfrwt>
<totfact> 0.16862737E-04</totfact>
</mgrwt>
<rwgt>
<wgt id='morphing_basis_vector_1'> +1.8749193e-07 </wgt>
<wgt id='morphing_basis_vector_2'> +1.3542490e-07 </wgt>
<wgt id='morphing_basis_vector_3'> +2.0894300e-07 </wgt>
<wgt id='morphing_basis_vector_4'> +1.3985249e-07 </wgt>
<wgt id='morphing_basis_vector_5'> +2.3430872e-07 </wgt>
</rwgt>
</event>
<event>
 4      1 +6.9060000e-13 6.71316700e+03 7.81860800e-03 7.18814900e-02
        2 -1    0    0  501    0 +0.0000000000e+00 +0.0000000000e+00 +3.0727521589e+03 3.0727521589e+03 0.0000000000e+00 0.0000e+00 -1.0000e+00
       -2 -1    0    0    0  501 -0.0000000000e+00 -0.0000000000e+00 -3.6666325079e+03 3.6666325079e+03 0.0000000000e+00 0.0000e+00 1.0000e+00
      -13  1    1    2    0    0 +1.5521900170e+03 -7.0428568990e+02 -3.1998313370e+03 3.6254975889e+03 0.0000000000e+00 0.0000e+00 1.0000e+00
       13  1    1    2    0    0 -1.5521900170e+03 +7.0428568990e+02 +2.6059509880e+03 3.1138870779e+03 0.0000000000e+00 0.0000e+00 -1.0000e+00
<mgrwt>
<rscale>  0 0.67131670E+04</rscale>
<asrwt>0</asrwt>
<pdfrwt beam="1">  1        2 0.47273110E+00 0.67131670E+04</pdfrwt>
<pdfrwt beam="2">  1       -2 0.56409731E+00 0.67131670E+04</pdfrwt>
<totfact> 0.43506938E-04</totfact>
</mgrwt>
<rwgt>
<wgt id='morphing_basis_vector_1'> +1.8939716e-07 </wgt>
<wgt id='morphing_basis_vector_2'> +1.2893387e-07 </wgt>
<wgt id='morphing_basis_vector_3'> +2.0921655e-07 </wgt>
<wgt id='morphing_basis_vector_4'> +1.5156737e-07 </wgt>
<wgt id='morphing_basis_vector_5'> +2.4180352e-07 </wgt>
</rwgt>
</event>
<event>
 4      1 +6.9060000e-13 7.32706600e+03 7.81860800e-03 7.13187000e-02
        2 -1    0    0  501    0 +0.0000000000e+00 +0.0000000000e+00 +2.4043529374e+03 2.4043529374e+03 0.0000000000e+00 0.0000e+00 -1.0000e+00
       -2 -1    0    0    0  501 -0.0000000000e+00 -0.0000000000e+00 -5.5821556955e+03 5.5821556955e+03 0.0000000000e+00 0.0000e+00 1.0000e+00
      -13  1    1    2    0    0 -2.7022438644e+03 +2.4573558751e+03 -1.8986470619e+03 4.1165009979e+03 0.0000000000e+00 0.0000e+00 1.0000e+00
       13  1    1    2    0    0 +2.7022438644e+03 -2.4573558751e+03 -1.2791556962e+03 3.8700076350e+03 0.0000000000e+00 0.0000e+00 -1.0000e+00
<mgrwt>
<rscale>  0 0.73270656E+04</rscale>
<asrwt>0</asrwt>
<pdfrwt beam="1">  1        2 0.36990045E+00 0.73270656E+04</pdfrwt>
<pdfrwt beam="2">  1       -2 0.85879319E+00 0.73270656E+04</pdfrwt>
<totfact> 0.15022404E-04</totfact>
</mgrwt>
<rwgt>
<wgt id='morphing_basis_vector_1'> +2.7599948e-07 </wgt>
<wgt id='morphing_basis_vector_2'> +2.0459539e-07 </wgt>
<wgt id='morphing_basis_vector_3'> +3.0900045e-07 </wgt>
<wgt id='morphing_basis_vector_4'> +1.9936216e-07 </wgt>
<wgt id='morphing_basis_vector_5'> +3.4199893e-07 </wgt>
</rwgt>
</event>
<event>
 4      1 +6.9060000e-13 7.40128100e+03 7.81860800e-03 7.12544400e-02
        2 -1    0    0  501    0 +0.0000000000e+00 +0.0000000000e+00 +2.5016058518e+03 2.5016058518e+03 0.0000000000e+00 0.0000e+00 -1.0000e+00
       -2 -1    0    0    0  501 -0.0000000000e+00 -0.0000000000e+00 -5.4743791739e+03 5.4743791739e+03 0.0000000000e+00 0.0000e+00 1.0000e+00
      -13  1    1    2    0    0 -2.9300667320e+03 -1.5479304539e+03 -3.2615204986e+03 4.6496124254e+03 0.0000000000e+00 0.0000e+00 1.0000e+00
       13  1    1    2    0    0 +2.9300667320e+03 +1.5479304539e+03 +2.8874717644e+02 3.3263726003e+03 0.0000000000e+00 0.0000e+00 -1.0000e+00
<mgrwt>
<rscale>  0 0.74012807E+04</rscale>
<asrwt>0</asrwt>
<pdfrwt beam="1">  1        2 0.38486245E+00 0.74012807E+04</pdfrwt>
<pdfrwt beam="2">  1       -2 0.84221217E+00 0.74012807E+04</pdfrwt>
<totfact> 0.17188143E-04</totfact>
</mgrwt>
<rwgt>
<wgt id='morphing_basis_vector_1'> +2.8124214e-07 </wgt>
<wgt id='morphing_basis_vector_2'> +1.9512793e-07 </wgt>
<wgt id='morphing_basis_vector_3'> +3.1171491e-07 </wgt>
<wgt id='morphing_basis_vector_4'> +2.2064911e-07 </wgt>
<wgt id='morphing_basis_vector_5'> +3.5719054e-07 </wgt>
</rwgt>
</event>
<event>
 4      1 +6.9060000e-13 6.78535900e+03 7.81860800e-03 7.18122200e-02
        2 -1    0    0  501    0 +0.0000000000e+00 +0.0000000000e+00 +2.3165474289e+03 2.3165474289e+03 0.0000000000e+00 0.0000e+00 -1.0000e+00
       -2 -1    0    0    0  501 -0.0000000000e+00 -0.0000000000e+00 -4.9687195978e+03 4.9687195978e+03 0.0000000000e+00 0.0000e+00 1.0000e+00
      -13  1    1    2    0    0 +8.2590738360e+02 +3.2780816569e+03 -1.6341619227e+03 3.7547872836e+03 0.0000000000e+00 0.0000e+00 1.0000e+00
       13  1    1    2    0    0 -8.2590738360e+02 -3.2780816569e+03 -1.0180102462e+03 3.5304797432e+03 0.0000000000e+00 0.0000e+00 -1.0000e+00
<mgrwt>
<rscale>  0 0.67853591E+04</rscale>
<asrwt>0</asrwt>
<pdfrwt beam="1">  1        2 0.35639192E+00 0.67853591E+04</pdfrwt>
<pdfrwt beam="2">  1       -2 0.76441839E+00 0.67853591E+04</pdfrwt>
<totfact> 0.34428886E-04</totfact>
</mgrwt>
<rwgt>
<wgt id='morphing_basis_vector_1'> +2.0295368e-07 </wgt>
<wgt id='morphing_basis_vector_2'> +1.5009651e-07 </wgt>
<wgt id='morphing_basis_vector_3'> +2.2702927e-07 </wgt>
<wgt id='morphing_basis_vector_4'> +1.4686095e-07 </wgt>
<wgt id='morphing_basis_vector_5'> +2.5143679e-07 </wgt>
</rwgt>
</event>
<event>
 4      1 +6.9060000e-13 6.74792400e+03 7.81860800e-03 7.18480300e-02
        2 -1    0    0  501    0 +0.0000000000e+00 +0.0000000000e+00 +2.7921955672e+03 2.7921955672e+03 0.0000000000e+00 0.0000e+00 -1.0000e+00
       -2 -1    0    0    0  501 -0.0000000000e+00 -0.0000000000e+00 -4.0769421859e+03 4.0769421859e+03 0.0000000000e+00 0.0000e+00 1.0000e+00
      -13  1    1    2    0    0 +6.4828601750e+02 -1.9445454116e+03 -3.3704552243e+03 3.9448067174e+03 0.0000000000e+00 0.0000e+00 1.0000e+00
       13  1    1    2    0    0 -6.4828601750e+02 +1.9445454116e+03 +2.0857086057e+03 2.9243310357e+03 0.0000000000e+00 0.0000e+00 -1.0000e+00
<mgrwt>
<rscale>  0 0.67479241E+04</rscale>
<asrwt>0</asrwt>
<pdfrwt beam="1">  1        2 0.42956855E+00 0.67479241E+04</pdfrwt>
<pdfrwt beam="2">  1       -2 0.62722187E+00 0.67479241E+04</pdfrwt>
<totfact> 0.16507234E-04</totfact>
</mgrwt>
<rwgt>
<wgt id='morphing_basis_vector_1'> +1.9340282e-07 </wgt>
<wgt id='morphing_basis_vector_2'> +1.3179893e-07 </wgt>
<wgt id='morphing_basis_vector_3'> +2.1368084e-07 </wgt>
<wgt id='morphing_basis_vector_4'> +1.5460769e-07 </wgt>
<wgt id='morphing_basis_vector_5'> +2.4684832e-07 </wgt>
</rwgt>
</event>
<event>
 4      1 +6.9060000e-13 6.99740900e+03 7.81860800e-03 7.16136800e-02
        2 -1    0    0  501    0 +0.0000000000e+00 +0.0000000000e+00 +2.3468608437e+03 2.3468608437e+03 0.0000000000e+00 0.0000e+00 -1.0000e+00
       -2 -1    0    0    0  501 -0.0000000000e+00 -0.0000000000e+00 -5.2158756421e+03 5.2158756421e+03 0.0000000000e+00 0.0000e+00 1.0000e+00
      -13  1    1    2    0    0 +1.9341224687e+03 +2.8293206740e+03 -2.1949489361e+03 4.0698508611e+03 0.0000000000e+00 0.0000e+00 1.0000e+00
       13  1    1    2    0    0 -1.9341224687e+03 -2.8293206740e+03 -6.7406586236e+02 3.4928856246e+03 0.0000000000e+00 0.0000e+00 -1.0000e+00
<mgrwt>
<rscale>  0 0.69974093E+04</rscale>
<asrwt>0</asrwt>
<pdfrwt beam="1">  1        2 0.36105552E+00 0.69974093E+04</pdfrwt>
<pdfrwt beam="2">  1       -2 0.80244240E+00 0.69974093E+04</pdfrwt>
<totfact> 0.31865484E-04</totfact>
</mgrwt>
<rwgt>
<wgt id='morphing_basis_vector_1'> +2.2730832e-07 </wgt>
<wgt id='morphing_basis_vector_2'> +1.6334089e-07 </wgt>
<wgt id='morphing_basis_vector_3'> +2.5319411e-07 </wgt>
<wgt id='morphing_basis_vector_4'> +1.7080723e-07 </wgt>
<wgt id='morphing_basis_vector_5'> +2.8482394e-07 </wgt>
</rwgt>
</event>
<event>
 4      1 +6.9060000e-13 6.71339600e+03 7.81860800e-03 7.18812700e-02
        2 -1    0    0  501    0 +0.0000000000e+00 +0.0000000000e+00 +3.3840809422e+03 3.3840809422e+03 0.0000000000e+00 0.0000e+00 1.0000e+00
       -2 -1    0    0    0  501 -0.0000000000e+00 -0.0000000000e+00 -3.3295369642e+03 3.3295369642e+03 0.0000000000e+00 0.0000e+00 -1.0000e+00
      -13  1    1    2    0    0 +3.3974654700e+02 -7.5164676713e+02 -3.2266058293e+03 3.3303732158e+03 0.0000000000e+00 0.0000e+00 -1.0000e+00
       13  1    1    2    0    0 -3.3974654700e+02 +7.5164676713e+02 +3.2811498073e+03 3.3832446906e+03 0.0000000000e+00 0.0000e+00 1.0000e+00
<mgrwt>
<rscale>  0 0.67133963E+04</rscale>
<asrwt>0</asrwt>
<pdfrwt beam="1">  1        2 0.52062784E+00 0.67133963E+04</pdfrwt>
<pdfrwt beam="2">  1       -2 0.51223646E+00 0.67133963E+04</pdfrwt>
<totfact> 0.63422111E-04</totfact>
</mgrwt>
<rwgt>
<wgt id='morphing_basis_vector_1'> +1.8938201e-07 </wgt>
<wgt id='morphing_basis_vector_2'> +1.2883122e-07 </wgt>
<wgt id='morphing_basis_vector_3'> +2.0917803e-07 </wgt>
<wgt id='morphing_basis_vector_4'> +1.5167593e-07 </wgt>
<wgt id='morphing_basis_vector_5'> +2.4184401e-07 </wgt>
</rwgt>
</event>
<event>
 4      1 +6.9060000e-13 6.76819600e+03 7.81860800e-03 7.18286100e-02
        2 -1    0    0  501    0 +0.0000000000e+00 +0.0000000000e+00 +2.9625229990e+03 2.9625229990e+03 0.0000000000e+00 0.0000e+00 -1.0000e+00
       -2 -1    0    0    0  501 -0.0000000000e+00 -0.0000000000e+00 -3.8656647027e+03 3.8656647027e+03 0.0000000000e+00 0.0000e+00 1.0000e+00
      -13  1    1    2    0    0 +2.1147331435e+03 +2.3669523984e+03 -1.6356694465e+03 3.5707106383e+03 0.0000000000e+00 0.0000e+00 1.0000e+00
       13  1    1    2    0    0 -2.1147331435e+03 -2.3669523984e+03 +7.3252774288e+02 3.2574770634e+03 0.0000000000e+00 0.0000e+00 -1.0000e+00
<mgrwt>
<rscale>  0 0.67681964E+04</rscale>
<asrwt>0</asrwt>
<pdfrwt beam="1">  1        2 0.45577277E+00 0.67681964E+04</pdfrwt>
<pdfrwt beam="2">  1       -2 0.59471765E+00 0.67681964E+04</pdfrwt>
<totfact> 0.29567623E-04</totfact>
</mgrwt>
<rwgt>
<wgt id='morphing_basis_vector_1'> +1.9746194e-07 </wgt>
<wgt id='morphing_basis_vector_2'> +1.3846173e-07 </wgt>
<wgt id='morphing_basis_vector_3'> +2.1909115e-07 </wgt>
<wgt id='morphing_basis_vector_4'> +1.5277200e-07 </wgt>
<wgt id='morphing_basis_vector_5'> +2.4952111e-07 </wgt>
</rwgt>
</event>
<event>
 4      1 +6.9060000e-13 7.21141900e+03 7.81860800e-03 7.14203700e-02
        2 -1    0    0  501    0 +0.0000000000e+00 +0.0000000000e+00 +4.3186046873e+03 4.3186046873e+03 0.0000000000e+00 0.0000e+00 -1.0000e+00
       -2 -1    0    0    0  501 -0.0000000000e+00 -0.0000000000e+00 -3.0104953818e+03 3.0104953818e+03 0.0000000000e+00 0.0000e+00 1.0000e+00
      -13  1    1    2    0    0 +3.1902379792e+02 -3.5347001900e+03 +7.0674871671e+00 3.5490747479e+03 0.0000000000e+00 0.0000e+00 1.0000e+00
       13  1    1    2    0    0 -3.1902379792e+02 +3.5347001900e+03 +1.3010418183e+03 3.7800253213e+03 0.0000000000e+00 0.0000e+00 -1.0000e+00
<mgrwt>
<rscale>  0 0.72114186E+04</rscale>
<asrwt>0</asrwt>
<pdfrwt beam="1">  1        2 0.66440072E+00 0.72114186E+04</pdfrwt>
<pdfrwt beam="2">  1       -2 0.46315313E+00 0.72114186E+04</pdfrwt>
<totfact> 0.24177427E-04</totfact>
</mgrwt>
<rwgt>
<wgt id='morphing_basis_vector_1'> +2.5681022e-07 </wgt>
<wgt id='morphing_basis_vector_2'> +1.8554049e-07 </wgt>
<wgt id='morphing_basis_vector_3'> +2.8634377e-07 </wgt>
<wgt id='morphing_basis_vector_4'> +1.9176826e-07 </wgt>
<wgt id='morphing_basis_vector_5'> +3.2128010e-07 </wgt>
</rwgt>
</event>
<event>
 4      1 +6.9060000e-13 6.95140300e+03 7.81860800e-03 7.16561500e-02
        2 -1    0    0  501    0 +0.0000000000e+00 +0.0000000000e+00 +4.1969196322e+03 4.1969196322e+03 0.0000000000e+00 0.0000e+00 -1.0000e+00
       -2 -1    0    0    0  501 -0.0000000000e+00 -0.0000000000e+00 -2.8784209753e+03 2.8784209753e+03 0.0000000000e+00 0.0000e+00 1.0000e+00
      -13  1    1    2    0    0 -1.8041525533e+03 -2.9519279794e+03 +9.9935700252e+02 3.6010497983e+03 0.0000000000e+00 0.0000e+00 1.0000e+00
       13  1    1    2    0    0 +1.8041525533e+03 +2.9519279794e+03 +3.1914165440e+02 3.4742908092e+03 0.0000000000e+00 0.0000e+00 -1.0000e+00
<mgrwt>
<rscale>  0 0.69514032E+04</rscale>
<asrwt>0</asrwt>
<pdfrwt beam="1">  1        2 0.64567994E+00 0.69514032E+04</pdfrwt>
<pdfrwt beam="2">  1       -2 0.44283400E+00 0.69514032E+04</pdfrwt>
<totfact> 0.44514186E-04</totfact>
</mgrwt>
<rwgt>
<wgt id='morphing_basis_vector_1'> +2.2890772e-07 </wgt>
<wgt id='morphing_basis_vector_2'> +1.8112378e-07 </wgt>
<wgt id='morphing_basis_vector_3'> +2.5890526e-07 </wgt>
<wgt id='morphing_basis_vector_4'> +1.5025309e-07 </wgt>
<wgt id='morphing_basis_vector_5'> +2.7603829e-07 </wgt>
</rwgt>
</event>
<event>
 4      1 +6.9060000e-13 6.67600300e+03 7.81860800e-03 7.19175000e-02
        2 -1    0    0  501    0 +0.0000000000e+00 +0.0000000000e+00 +2.1813477058e+03 2.1813477058e+03 0.0000000000e+00 0.0000e+00 -1.0000e+00
       -2 -1    0    0    0  501 -0.0000000000e+00 -0.0000000000e+00 -5.1079675574e+03 5.1079675574e+03 0.0000000000e+00 0.0000e+00 1.0000e+00
      -13  1    1    2    0    0 -3.6940606313e+02 -2.4837221730e+03 -3.8646547400e+03 4.6087843226e+03 0.0000000000e+00 0.0000e+00 1.0000e+00
       13  1    1    2    0    0 +3.6940606313e+02 +2.4837221730e+03 +9.3803488844e+02 2.6805309407e+03 0.0000000000e+00 0.0000e+00 -1.0000e+00
<mgrwt>
<rscale>  0 0.66760028E+04</rscale>
<asrwt>0</asrwt>
<pdfrwt beam="1">  1        2 0.33559196E+00 0.66760028E+04</pdfrwt>
<pdfrwt beam="2">  1       -2 0.78584115E+00 0.66760028E+04</pdfrwt>
<totfact> 0.42727743E-04</totfact>
</mgrwt>
<rwgt>
<wgt id='morphing_basis_vector_1'> +1.8552220e-07 </wgt>
<wgt id='morphing_basis_vector_2'> +1.2691672e-07 </wgt>
<wgt id='morphing_basis_vector_3'> +2.0507573e-07 </wgt>
<wgt id='morphing_basis_vector_4'> +1.4763995e-07 </wgt>
<wgt id='morphing_basis_vector_5'> +2.3643405e-07 </wgt>
</rwgt>
</event>
<event>
 4      1 +6.9060000e-13 6.84209700e+03 7.81860800e-03 7.17583900e-02
        2 -1    0    0  501    0 +0.0000000000e+00 +0.0000000000e+00 +4.1948297782e+03 4.1948297782e+03 0.0000000000e+00 0.0000e+00 -1.0000e+00
       -2 -1    0    0    0  501 -0.0000000000e+00 -0.0000000000e+00 -2.7899997418e+03 2.7899997418e+03 0.0000000000e+00 0.0000e+00 1.0000e+00
      -13  1    1    2    0    0 +1.2487068059e+03 +2.7470586706e+03 +2.3478622530e+03 3.8233567955e+03 0.0000000000e+00 0.0000e+00 -1.0000e+00
       13  1    1    2    0    0 -1.2487068059e+03 -2.7470586706e+03 -9.4303221656e+02 3.1614727246e+03 0.0000000000e+00 0.0000e+00 1.0000e+00
<mgrwt>
<rscale>  0 0.68420973E+04</rscale>
<asrwt>0</asrwt>
<pdfrwt beam="1">  1        2 0.64535843E+00 0.68420973E+04</pdfrwt>
<pdfrwt beam="2">  1       -2 0.42923073E+00 0.68420973E+04</pdfrwt>
<totfact> 0.55755395E-04</totfact>
</mgrwt>
<rwgt>
<wgt id='morphing_basis_vector_1'> +2.3918825e-07 </wgt>
<wgt id='morphing_basis_vector_2'> +2.4136813e-07 </wgt>
<wgt id='morphing_basis_vector_3'> +2.8283518e-07 </wgt>
<wgt id='morphing_basis_vector_4'> +8.8879793e-08 </wgt>
<wgt id='morphing_basis_vector_5'> +2.5466215e-07 </wgt>
</rwgt>
</event>
<event>
 4      1 +6.9060000e-13 6.67011200e+03 7.81860800e-03 7.19232300e-02
        2 -1    0    0  501    0 +0.0000000000e+00 +0.0000000000e+00 +4.1466285925e+03 4.1466285925e+03 0.0000000000e+00 0.0000e+00 1.0000e+00
       -2 -1    0    0    0  501 -0.0000000000e+00 -0.0000000000e+00 -2.6823236412e+03 2.6823236412e+03 0.0000000000e+00 0.0000e+00 -1.0000e+00
      -13  1    1    2    0    0 +2.9633545292e+03 -1.4622548514e+03 +2.7093539837e+02 3.3155791812e+03 0.0000000000e+00 0.0000e+00 -1.0000e+00
       13  1    1    2    0    0 -2.9633545292e+03 +1.4622548514e+03 +1.1933695530e+03 3.5133730525e+03 0.0000000000e+00 0.0000e+00 1.0000e+00
<mgrwt>
<rscale>  0 0.66701124E+04</rscale>
<asrwt>0</asrwt>
<pdfrwt beam="1">  1        2 0.63794287E+00 0.66701124E+04</pdfrwt>
<pdfrwt beam="2">  1       -2 0.41266517E+00 0.66701124E+04</pdfrwt>
<totfact> 0.80464944E-04</totfact>
</mgrwt>
<rwgt>
<wgt id='morphing_basis_vector_1'> +1.8866967e-07 </wgt>
<wgt id='morphing_basis_vector_2'> +1.3762143e-07 </wgt>
<wgt id='morphing_basis_vector_3'> +2.1057460e-07 </wgt>
<wgt id='morphing_basis_vector_4'> +1.3897565e-07 </wgt>
<wgt id='morphing_basis_vector_5'> +2.3491331e-07 </wgt>
</rwgt>
</event>
<event>
 4      1 +6.9060000e-13 6.87332600e+03 7.81860800e-03 7.17289800e-02
        2 -1    0    0  501    0 +0.0000000000e+00 +0.0000000000e+00 +3.3556503832e+03 3.3556503832e+03 0.0000000000e+00 0.0000e+00 -1.0000e+00
       -2 -1    0    0    0  501 -0.0000000000e+00 -0.0000000000e+00 -3.5196318139e+03 3.5196318139e+03 0.0000000000e+00 0.0000e+00 1.0000e+00
      -13  1    1    2    0    0 -2.2225243824e+03 +2.2262138349e+03 +1.3022423490e+03 3.4046259419e+03 0.0000000000e+00 0.0000e+00 1.0000e+00
       13  1    1    2    0    0 +2.2225243824e+03 -2.2262138349e+03 -1.4662237796e+03 3.4706562551e+03 0.0000000000e+00 0.0000e+00 -1.0000e+00
<mgrwt>
<rscale>  0 0.68733264E+04</rscale>
<asrwt>0</asrwt>
<pdfrwt beam="1">  1        2 0.51625390E+00 0.68733264E+04</pdfrwt>
<pdfrwt beam="2">  1       -2 0.54148182E+00 0.68733264E+04</pdfrwt>
<totfact> 0.40093111E-04</totfact>
</mgrwt>
<rwgt>
<wgt id='morphing_basis_vector_1'> +2.3722486e-07 </wgt>
<wgt id='morphing_basis_vector_2'> +2.2715856e-07 </wgt>
<wgt id='morphing_basis_vector_3'> +2.7763061e-07 </wgt>
<wgt id='morphing_basis_vector_4'> +1.0413419e-07 </wgt>
<wgt id='morphing_basis_vector_5'> +2.6049856e-07 </wgt>
</rwgt>
</event>
<event>
 4      1 +6.9060000e-13 6.74927800e+03 7.81860800e-03 7.18467300e-02
        2 -1    0    0  501    0 +0.0000000000e+00 +0.0000000000e+00 +2.5661026429e+03 2.5661026429e+03 0.0000000000e+00 0.0000e+00 -1.0000e+00
       -2 -1    0    0    0  501 -0.0000000000e+00 -0.0000000000e+00 -4.4379320099e+03 4.4379320099e+03 0.0000000000e+00 0.0000e+00 1.0000e+00
      -13  1    1    2    0    0 +1.8308154734e+03 -2.7784030987e+03 -3.5183806398e+02 3.3459227576e+03 0.0000000000e+00 0.0000e+00 1.0000e+00
       13  1    1    2    0    0 -1.8308154734e+03 +2.7784030987e+03 -1.5199913030e+03 3.6581118952e+03 0.0000000000e+00 0.0000e+00 -1.0000e+00
<mgrwt>
<rscale>  0 0.67492782E+04</rscale>
<asrwt>0</asrwt>
<pdfrwt beam="1">  1        2 0.39478503E+00 0.67492782E+04</pdfrwt>
<pdfrwt beam="2">  1       -2 0.68275876E+00 0.67492782E+04</pdfrwt>
<totfact> 0.43629569E-05</totfact>
</mgrwt>
<rwgt>
<wgt id='morphing_basis_vector_1'> +2.0620859e-07 </wgt>
<wgt id='morphing_basis_vector_2'> +1.6902801e-07 </wgt>
<wgt id='morphing_basis_vector_3'> +2.3456960e-07 </wgt>
<wgt id='morphing_basis_vector_4'> +1.2761924e-07 </wgt>
<wgt id='morphing_basis_vector_5'> +2.4476272e-07 </wgt>
</rwgt>
</event>
<event>
 4      1 +6.9060000e-13 7.02419200e+03 7.81860800e-03 7.15891100e-02
        2 -1    0    0  501    0 +0.0000000000e+00 +0.0000000000e+00 +4.0624486681e+03 4.0624486681e+03 0.0000000000e+00 0.0000e+00 1.0000e+00
       -2 -1    0    0    0  501 -0.0000000000e+00 -0.0000000000e+00 -3.0363011425e+03 3.0363011425e+03 0.0000000000e+00 0.0000e+00 -1.0000e+00
      -13  1    1    2    0    0 +2.0988386158e+03 -2.7459041535e+03 +1.1439630481e+03 3.6405720169e+03 0.0000000000e+00 0.0000e+00 -1.0000e+00
       13  1    1    2    0    0 -2.0988386158e+03 +2.7459041535e+03 -1.1781552245e+02 3.4581777937e+03 0.0000000000e+00 0.0000e+00 1.0000e+00
<mgrwt>
<rscale>  0 0.70241918E+04</rscale>
<asrwt>0</asrwt>
<pdfrwt beam="1">  1        2 0.62499211E+00 0.70241918E+04</pdfrwt>
<pdfrwt beam="2">  1       -2 0.46712325E+00 0.70241918E+04</pdfrwt>
<totfact> 0.39361432E-04</totfact>
</mgrwt>
<rwgt>
<wgt id='morphing_basis_vector_1'> +2.4241284e-07 </wgt>
<wgt id='morphing_basis_vector_2'> +1.9992191e-07 </wgt>
<wgt id='morphing_basis_vector_3'> +2.7612217e-07 </wgt>
<wgt id='morphing_basis_vector_4'> +1.4854498e-07 </wgt>
<wgt id='morphing_basis_vector_5'> +2.8711836e-07 </wgt>
</rwgt>
</event>
<event>
 4      1 +6.9060000e-13 7.12017900e+03 7.81860800e-03 7.15019500e-02
        2 -1    0    0  501    0 +0.0000000000e+00 +0.0000000000e+00 +3.9540041449e+03 3.9540041449e+03 0.0000000000e+00 0.0000e+00 -1.0000e+00
       -2 -1    0    0    0  501 -0.0000000000e+00 -0.0000000000e+00 -3.2054180571e+03 3.2054180571e+03 0.0000000000e+00 0.0000e+00 1.0000e+00
      -13  1    1    2    0    0 -1.7842762769e+03 -3.0007064134e+03 -3.2694259818e+02 3.5063902057e+03 0.0000000000e+00 0.0000e+00 1.0000e+00
       13  1    1    2    0    0 +1.7842762769e+03 +3.0007064134e+03 +1.0755286859e+03 3.6530319963e+03 0.0000000000e+00 0.0000e+00 -1.0000e+00
<mgrwt>
<rscale>  0 0.71201787E+04</rscale>
<asrwt>0</asrwt>
<pdfrwt beam="1">  1        2 0.60830833E+00 0.71201787E+04</pdfrwt>
<pdfrwt beam="2">  1       -2 0.49314124E+00 0.71201787E+04</pdfrwt>
<totfact> 0.31109746E-04</totfact>
</mgrwt>
<rwgt>
<wgt id='morphing_basis_vector_1'> +2.4374397e-07 </wgt>
<wgt id='morphing_basis_vector_2'> +1.7535387e-07 </wgt>
<wgt id='morphing_basis_vector_3'> +2.7157767e-07 </wgt>
<wgt id='morphing_basis_vector_4'> +1.8294809e-07 </wgt>
<wgt id='morphing_basis_vector_5'> +3.0536309e-07 </wgt>
</rwgt>
</event>
<event>
 4      1 +6.9060000e-13 6.87067400e+03 7.81860800e-03 7.17314700e-02
        2 -1    0    0  501    0 +0.0000000000e+00 +0.0000000000e+00 +3.9590993030e+03 3.9590993030e+03 0.0000000000e+00 0.0000e+00 -1.0000e+00
       -2 -1    0    0    0  501 -0.0000000000e+00 -0.0000000000e+00 -2.9808647838e+03 2.9808647838e+03 0.0000000000e+00 0.0000e+00 1.0000e+00
      -13  1    1    2    0    0 -2.3340045352e+03 -1.0905319598e+03 -1.8063999309e+03 3.1464134878e+03 0.0000000000e+00 0.0000e+00 1.0000e+00
       13  1    1    2    0    0 +2.3340045352e+03 +1.0905319598e+03 +2.7846344502e+03 3.7935505990e+03 0.0000000000e+00 0.0000e+00 -1.0000e+00
<mgrwt>
<rscale>  0 0.68706738E+04</rscale>
<asrwt>0</asrwt>
<pdfrwt beam="1">  1        2 0.60909220E+00 0.68706738E+04</pdfrwt>
<pdfrwt beam="2">  1       -2 0.45859458E+00 0.68706738E+04</pdfrwt>
<totfact> 0.56190711E-04</totfact>
</mgrwt>
<rwgt>
<wgt id='morphing_basis_vector_1'> +2.0807682e-07 </wgt>
<wgt id='morphing_basis_vector_2'> +1.4234919e-07 </wgt>
<wgt id='morphing_basis_vector_3'> +2.3004859e-07 </wgt>
<wgt id='morphing_basis_vector_4'> +1.6567496e-07 </wgt>
<wgt id='morphing_basis_vector_5'> +2.6529523e-07 </wgt>
</rwgt>
</event>
<event>
 4      1 +6.9060000e-13 6.68025400e+03 7.81860800e-03 7.19133700e-02
        2 -1    0    0  501    0 +0.0000000000e+00 +0.0000000000e+00 +2.2575631431e+03 2.2575631431e+03 0.0000000000e+00 0.0000e+00 1.0000e+00
       -2 -1    0    0    0  501 -0.0000000000e+00 -0.0000000000e+00 -4.9418096108e+03 4.9418096108e+03 0.0000000000e+00 0.0000e+00 -1.0000e+00
      -13  1    1    2    0    0 +2.4090438622e+02 +8.8602299911e+02 -4.8031274068e+03 4.8901027151e+03 0.0000000000e+00 0.0000e+00 -1.0000e+00
       13  1    1    2    0    0 -2.4090438622e+02 -8.8602299911e+02 +2.1188809391e+03 2.3092700389e+03 0.0000000000e+00 0.0000e+00 1.0000e+00
<mgrwt>
<rscale>  0 0.66802537E+04</rscale>
<asrwt>0</asrwt>
<pdfrwt beam="1">  1        2 0.34731741E+00 0.66802537E+04</pdfrwt>
<pdfrwt beam="2">  1       -2 0.76027839E+00 0.66802537E+04</pdfrwt>
<totfact> 0.36655084E-04</totfact>
</mgrwt>
<rwgt>
<wgt id='morphing_basis_vector_1'> +1.8567768e-07 </wgt>
<wgt id='morphing_basis_vector_2'> +1.2631093e-07 </wgt>
<wgt id='morphing_basis_vector_3'> +2.0508011e-07 </wgt>
<wgt id='morphing_basis_vector_4'> +1.4869545e-07 </wgt>
<wgt id='morphing_basis_vector_5'> +2.3709504e-07 </wgt>
</rwgt>
</event>
<event>
 4      1 +6.9060000e-13 6.89196300e+03 7.81860800e-03 7.17115100e-02
        2 -1    0    0  501    0 +0.0000000000e+00 +0.0000000000e+00 +4.1235204610e+03 4.1235204610e+03 0.0000000000e+00 0.0000e+00 1.0000e+00
       -2 -1    0    0    0  501 -0.0000000000e+00 -0.0000000000e+00 -2.8797691271e+03 2.8797691271e+03 0.0000000000e+00 0.0000e+00 -1.0000e+00
      -13  1    1    2    0    0 -2.8390096698e+03 -1.7342630621e+03 -2.9104770015e+02 3.3395138924e+03 0.0000000000e+00 0.0000e+00 -1.0000e+00
       13  1    1    2    0    0 +2.8390096698e+03 +1.7342630621e+03 +1.5347990340e+03 3.6637756957e+03 0.0000000000e+00 0.0000e+00 1.0000e+00
<mgrwt>
<rscale>  0 0.68919625E+04</rscale>
<asrwt>0</asrwt>
<pdfrwt beam="1">  1        2 0.63438776E+00 0.68919625E+04</pdfrwt>
<pdfrwt beam="2">  1       -2 0.44304140E+00 0.68919625E+04</pdfrwt>
<totfact> 0.51912386E-04</totfact>
</mgrwt>
<rwgt>
<wgt id='morphing_basis_vector_1'> +2.1315698e-07 </wgt>
<wgt id='morphing_basis_vector_2'> +1.5143813e-07 </wgt>
<wgt id='morphing_basis_vector_3'> +2.3699852e-07 </wgt>
<wgt id='morphing_basis_vector_4'> +1.6239511e-07 </wgt>
<wgt id='morphing_basis_vector_5'> +2.6815365e-07 </wgt>
</rwgt>
</event>
<event>
 4      1 +6.9060000e-13 7.12178200e+03 7.81860800e-03 7.15005100e-02
        2 -1    0    0  501    0 +0.0000000000e+00 +0.0000000000e+00 +4.2414608437e+03 4.2414608437e+03 0.0000000000e+00 0.0000e+00 -1.0000e+00
       -2 -1    0    0    0  501 -0.0000000000e+00 -0.0000000000e+00 -2.9895233456e+03 2.9895233456e+03 0.0000000000e+00 0.0000e+00 1.0000e+00
      -13  1    1    2    0    0 +1.1304444556e+03 -1.1102346639e+03 -2.6118819135e+03 3.0549063498e+03 0.0000000000e+00 0.0000e+00 1.0000e+00
       13  1    1    2    0    0 -1.1304444556e+03 +1.1102346639e+03 +3.8638194116e+03 4.1760778395e+03 0.0000000000e+00 0.0000e+00 -1.0000e+00
<mgrwt>
<rscale>  0 0.71217824E+04</rscale>
<asrwt>0</asrwt>
<pdfrwt beam="1">  1        2 0.65253243E+00 0.71217824E+04</pdfrwt>
<pdfrwt beam="2">  1       -2 0.45992667E+00 0.71217824E+04</pdfrwt>
<totfact> 0.30363610E-04</totfact>
</mgrwt>
<rwgt>
<wgt id='morphing_basis_vector_1'> +2.3977135e-07 </wgt>
<wgt id='morphing_basis_vector_2'> +1.6321183e-07 </wgt>
<wgt id='morphing_basis_vector_3'> +2.6494990e-07 </wgt>
<wgt id='morphing_basis_vector_4'> +1.9210376e-07 </wgt>
<wgt id='morphing_basis_vector_5'> +3.0639660e-07 </wgt>
</rwgt>
</event>
<event>
 4      1 +6.9060000e-13 7.35110900e+03 7.81860800e-03 7.12978000e-02
        2 -1    0    0  501    0 +0.0000000000e+00 +0.0000000000e+00 +2.7870278476e+03 2.7870278476e+03 0.0000000000e+00 0.0000e+00 -1.0000e+00
       -2 -1    0    0    0  501 -0.0000000000e+00 -0.0000000000e+00 -4.8473509741e+03 4.8473509741e+03 0.0000000000e+00 0.0000e+00 1.0000e+00
      -13  1    1    2    0    0 +3.4370320536e+03 +1.2832908186e+03 -1.2616347238e+03 3.8796580827e+03 0.0000000000e+00 0.0000e+00 1.0000e+00
       13  1    1    2    0    0 -3.4370320536e+03 -1.2832908186e+03 -7.9868840272e+02 3.7547207389e+03 0.0000000000e+00 0.0000e+00 -1.0000e+00
<mgrwt>
<rscale>  0 0.73511093E+04</rscale>
<asrwt>0</asrwt>
<pdfrwt beam="1">  1        2 0.42877352E+00 0.73511093E+04</pdfrwt>
<pdfrwt beam="2">  1       -2 0.74574630E+00 0.73511093E+04</pdfrwt>
<totfact> 0.14834011E-04</totfact>
</mgrwt>
<rwgt>
<wgt id='morphing_basis_vector_1'> +2.8012343e-07 </wgt>
<wgt id='morphing_basis_vector_2'> +2.0872663e-07 </wgt>
<wgt id='morphing_basis_vector_3'> +3.1387854e-07 </wgt>
<wgt id='morphing_basis_vector_4'> +2.0094671e-07 </wgt>
<wgt id='morphing_basis_vector_5'> +3.4642833e-07 </wgt>
</rwgt>
</event>
<event>
 4      1 +6.9060000e-13 7.15534700e+03 7.81860800e-03 7.14703600e-02
        2 -1    0    0  501    0 +0.0000000000e+00 +0.0000000000e+00 +2.9086762039e+03 2.9086762039e+03 0.0000000000e+00 0.0000e+00 1.0000e+00
       -2 -1    0    0    0  501 -0.0000000000e+00 -0.0000000000e+00 -4.4005410866e+03 4.4005410866e+03 0.0000000000e+00 0.0000e+00 -1.0000e+00
      -13  1    1    2    0    0 -2.8812828564e+03 +3.8713291737e+02 -2.8759796468e+03 4.0893669098e+03 0.0000000000e+00 0.0000e+00 -1.0000e+00
       13  1    1    2    0    0 +2.8812828564e+03 -3.8713291737e+02 +1.3841147641e+03 3.2198503808e+03 0.0000000000e+00 0.0000e+00 1.0000e+00
<mgrwt>
<rscale>  0 0.71553474E+04</rscale>
<asrwt>0</asrwt>
<pdfrwt beam="1">  1        2 0.44748864E+00 0.71553474E+04</pdfrwt>
<pdfrwt beam="2">  1       -2 0.67700632E+00 0.71553474E+04</pdfrwt>
<totfact> 0.26139535E-05</totfact>
</mgrwt>
<rwgt>
<wgt id='morphing_basis_vector_1'> +2.4497439e-07 </wgt>
<wgt id='morphing_basis_vector_2'> +1.6823991e-07 </wgt>
<wgt id='morphing_basis_vector_3'> +2.7105887e-07 </wgt>
<wgt id='morphing_basis_vector_4'> +1.9434477e-07 </wgt>
<wgt id='morphing_basis_vector_5'> +3.1210386e-07 </wgt>
</rwgt>
</event>
<event>
 4      1 +6.9060000e-13 6.91447900e+03 7.81860800e-03 7.16904700e-02
        2 -1    0    0  501    0 +0.0000000000e+00 +0.0000000000e+00 +4.2978282475e+03 4.2978282475e+03 0.0000000000e+00 0.0000e+00 -1.0000e+00
       -2 -1    0    0    0  501 -0.0000000000e+00 -0.0000000000e+00 -2.7810570239e+03 2.7810570239e+03 0.0000000000e+00 0.0000e+00 1.0000e+00
      -13  1    1    2    0    0 -2.1586668217e+03 -2.5026520559e+03 -2.8032979359e+02 3.3168802440e+03 0.0000000000e+00 0.0000e+00 1.0000e+00
       13  1    1    2    0    0 +2.1586668217e+03 +2.5026520559e+03 +1.7971010172e+03 3.7620050274e+03 0.0000000000e+00 0.0000e+00 -1.0000e+00
<mgrwt>
<rscale>  0 0.69144791E+04</rscale>
<asrwt>0</asrwt>
<pdfrwt beam="1">  1        2 0.66120434E+00 0.69144791E+04</pdfrwt>
<pdfrwt beam="2">  1       -2 0.42785493E+00 0.69144791E+04</pdfrwt>
<totfact> 0.45392060E-04</totfact>
</mgrwt>
<rwgt>
<wgt id='morphing_basis_vector_1'> +2.1558163e-07 </wgt>
<wgt id='morphing_basis_vector_2'> +1.5234035e-07 </wgt>
<wgt id='morphing_basis_vector_3'> +2.3950492e-07 </wgt>
<wgt id='morphing_basis_vector_4'> +1.6532399e-07 </wgt>
<wgt id='morphing_basis_vector_5'> +2.7174786e-07 </wgt>
</rwgt>
</event>
<event>
 4      1 +6.9060000e-13 6.68302000e+03 7.81860800e-03 7.19106800e-02
        2 -1    0    0  501    0 +0.0000000000e+00 +0.0000000000e+00 +3.0024640812e+03 3.0024640812e+03 0.0000000000e+00 0.0000e+00 -1.0000e+00
       -2 -1    0    0    0  501 -0.0000000000e+00 -0.0000000000e+00 -3.7188416380e+03 3.7188416380e+03 0.0000000000e+00 0.0000e+00 1.0000e+00
      -13  1    1    2    0    0 -1.1512708498e+03 +2.7997906207e+03 -1.7810147802e+03 3.5123020566e+03 0.0000000000e+00 0.0000e+00 1.0000e+00
       13  1    1    2    0    0 +1.1512708498e+03 -2.7997906207e+03 +1.0646372233e+03 3.2090036626e+03 0.0000000000e+00 0.0000e+00 -1.0000e+00
<mgrwt>
<rscale>  0 0.66830198E+04</rscale>
<asrwt>0</asrwt>
<pdfrwt beam="1">  1        2 0.46191755E+00 0.66830198E+04</pdfrwt>
<pdfrwt beam="2">  1       -2 0.57212948E+00 0.66830198E+04</pdfrwt>
<totfact> 0.42377245E-04</totfact>
</mgrwt>
<rwgt>
<wgt id='morphing_basis_vector_1'> +1.8720766e-07 </wgt>
<wgt id='morphing_basis_vector_2'> +1.3010851e-07 </wgt>
<wgt id='morphing_basis_vector_3'> +2.0742203e-07 </wgt>
<wgt id='morphing_basis_vector_4'> +1.4632198e-07 </wgt>
<wgt id='morphing_basis_vector_5'> +2.3726795e-07 </wgt>
</rwgt>
</event>
<event>
 4      1 +6.9060000e-13 7.09632400e+03 7.81860800e-03 7.15234800e-02
        2 -1    0    0  501    0 +0.0000000000e+00 +0.0000000000e+00 +2.5504318917e+03 2.5504318917e+03 0.0000000000e+00 0.0000e+00 -1.0000e+00
       -2 -1    0    0    0  501 -0.0000000000e+00 -0.0000000000e+00 -4.9362046587e+03 4.9362046587e+03 0.0000000000e+00 0.0000e+00 1.0000e+00
      -13  1    1    2    0    0 +1.5435098950e+03 -2.8118826907e+03 -2.7929968313e+03 4.2532268176e+03 0.0000000000e+00 0.0000e+00 1.0000e+00
       13  1    1    2    0    0 -1.5435098950e+03 +2.8118826907e+03 +4.0722406434e+02 3.2334097329e+03 0.0000000000e+00 0.0000e+00 -1.0000e+00
<mgrwt>
<rscale>  0 0.70963241E+04</rscale>
<asrwt>0</asrwt>
<pdfrwt beam="1">  1        2 0.39237414E+00 0.70963241E+04</pdfrwt>
<pdfrwt beam="2">  1       -2 0.75941609E+00 0.70963241E+04</pdfrwt>
<totfact> 0.23918266E-04</totfact>
</mgrwt>
<rwgt>
<wgt id='morphing_basis_vector_1'> +2.3786497e-07 </wgt>
<wgt id='morphing_basis_vector_2'> +1.6528816e-07 </wgt>
<wgt id='morphing_basis_vector_3'> +2.6363819e-07 </wgt>
<wgt id='morphing_basis_vector_4'> +1.8615429e-07 </wgt>
<wgt id='morphing_basis_vector_5'> +3.0176128e-07 </wgt>
</rwgt>
</event>
<event>
 4      1 +6.9060000e-13 7.47118500e+03 7.81860800e-03 7.11946100e-02
        2 -1    0    0  501    0 +0.0000000000e+00 +0.0000000000e+00 +2.6280277252e+03 2.6280277252e+03 0.0000000000e+00 0.0000e+00 -1.0000e+00
       -2 -1    0    0    0  501 -0.0000000000e+00 -0.0000000000e+00 -5.3099326455e+03 5.3099326455e+03 0.0000000000e+00 0.0000e+00 1.0000e+00
      -13  1    1    2    0    0 +1.6459289471e+03 -3.0532602480e+03 -2.8143783201e+03 4.4667891790e+03 0.0000000000e+00 0.0000e+00 1.0000e+00
       13  1    1    2    0    0 -1.6459289471e+03 +3.0532602480e+03 +1.3247339970e+02 3.4711711917e+03 0.0000000000e+00 0.0000e+00 -1.0000e+00
<mgrwt>
<rscale>  0 0.74711847E+04</rscale>
<asrwt>0</asrwt>
<pdfrwt beam="1">  1        2 0.40431196E+00 0.74711847E+04</pdfrwt>
<pdfrwt beam="2">  1       -2 0.81691270E+00 0.74711847E+04</pdfrwt>
<totfact> 0.19084395E-04</totfact>
</mgrwt>
<rwgt>
<wgt id='morphing_basis_vector_1'> +2.9271967e-07 </wgt>
<wgt id='morphing_basis_vector_2'> +2.0470453e-07 </wgt>
<wgt id='morphing_basis_vector_3'> +3.2483530e-07 </wgt>
<wgt id='morphing_basis_vector_4'> +2.2757684e-07 </wgt>
<wgt id='morphing_basis_vector_5'> +3.7076750e-07 </wgt>
</rwgt>
</event>
<event>
 4      1 +6.9060000e-13 6.89758900e+03 7.81860800e-03 7.17062400e-02
        2 -1    0    0  501    0 +0.0000000000e+00 +0.0000000000e+00 +4.3182846381e+03 4.3182846381e+03 0.0000000000e+00 0.0000e+00 -1.0000e+00
       -2 -1    0    0    0  501 -0.0000000000e+00 -0.0000000000e+00 -2.7543771135e+03 2.7543771135e+03 0.0000000000e+00 0.0000e+00 1.0000e+00
      -13  1    1    2    0    0 -8.9340356015e+02 +3.3298562699e+03 +8.7407662986e+02 3.5567010915e+03 0.0000000000e+00 0.0000e+00 1.0000e+00
       13  1    1    2    0    0 +8.9340356015e+02 -3.3298562699e+03 +6.8983089479e+02 3.5159606601e+03 0.0000000000e+00 0.0000e+00 -1.0000e+00
<mgrwt>
<rscale>  0 0.68975893E+04</rscale>
<asrwt>0</asrwt>
<pdfrwt beam="1">  1        2 0.66435149E+00 0.68975893E+04</pdfrwt>
<pdfrwt beam="2">  1       -2 0.42375032E+00 0.68975893E+04</pdfrwt>
<totfact> 0.46275513E-04</totfact>
</mgrwt>
<rwgt>
<wgt id='morphing_basis_vector_1'> +2.1952590e-07 </wgt>
<wgt id='morphing_basis_vector_2'> +1.6858004e-07 </wgt>
<wgt id='morphing_basis_vector_3'> +2.4706829e-07 </wgt>
<wgt id='morphing_basis_vector_4'> +1.5076467e-07 </wgt>
<wgt id='morphing_basis_vector_5'> +2.6800700e-07 </wgt>
</rwgt>
</event>
<event>
 4      1 +6.9060000e-13 7.94346700e+03 7.81860800e-03 7.08068100e-02
        2 -1    0    0  501    0 +0.0000000000e+00 +0.0000000000e+00 +2.9926773109e+03 2.9926773109e+03 0.0000000000e+00 0.0000e+00 1.0000e+00
       -2 -1    0    0    0  501 -0.0000000000e+00 -0.0000000000e+00 -5.2710885449e+03 5.2710885449e+03 0.0000000000e+00 0.0000e+00 -1.0000e+00
      -13  1    1    2    0    0 +4.5828842414e+02 +3.4040295647e+03 -3.2139175153e+03 4.7039038417e+03 0.0000000000e+00 0.0000e+00 -1.0000e+00
       13  1    1    2    0    0 -4.5828842414e+02 -3.4040295647e+03 +9.3550628124e+02 3.5598620141e+03 0.0000000000e+00 0.0000e+00 1.0000e+00
<mgrwt>
<rscale>  0 0.79434670E+04</rscale>
<asrwt>0</asrwt>
<pdfrwt beam="1">  1        2 0.46041190E+00 0.79434670E+04</pdfrwt>
<pdfrwt beam="2">  1       -2 0.81093668E+00 0.79434670E+04</pdfrwt>
<totfact> 0.11414840E-04</totfact>
</mgrwt>
<rwgt>
<wgt id='morphing_basis_vector_1'> +3.7245682e-07 </wgt>
<wgt id='morphing_basis_vector_2'> +2.5723333e-07 </wgt>
<wgt id='morphing_basis_vector_3'> +4.1267311e-07 </wgt>
<wgt id='morphing_basis_vector_4'> +2.9406054e-07 </wgt>
<wgt id='morphing_basis_vector_5'> +4.7420920e-07 </wgt>
</rwgt>
</event>
<event>
 4      1 +6.9060000e-13 6.81616000e+03 7.81860800e-03 7.17829300e-02
        2 -1    0    0  501    0 +0.0000000000e+00 +0.0000000000e+00 +3.6556448187e+03 3.6556448187e+03 0.0000000000e+00 0.0000e+00 -1.0000e+00
       -2 -1    0    0    0  501 -0.0000000000e+00 -0.0000000000e+00 -3.1772801476e+03 3.1772801476e+03 0.0000000000e+00 0.0000e+00 1.0000e+00
      -13  1    1    2    0    0 -4.1363081823e+02 -1.3864458014e+03 -2.8541303064e+03 3.1999034704e+03 0.0000000000e+00 0.0000e+00 1.0000e+00
       13  1    1    2    0    0 +4.1363081823e+02 +1.3864458014e+03 +3.3324949775e+03 3.6330214958e+03 0.0000000000e+00 0.0000e+00 -1.0000e+00
<mgrwt>
<rscale>  0 0.68161595E+04</rscale>
<asrwt>0</asrwt>
<pdfrwt beam="1">  1        2 0.56240689E+00 0.68161595E+04</pdfrwt>
<pdfrwt beam="2">  1       -2 0.48881233E+00 0.68161595E+04</pdfrwt>
<totfact> 0.59421735E-04</totfact>
</mgrwt>
<rwgt>
<wgt id='morphing_basis_vector_1'> +2.0124289e-07 </wgt>
<wgt id='morphing_basis_vector_2'> +1.3695015e-07 </wgt>
<wgt id='morphing_basis_vector_3'> +2.2231117e-07 </wgt>
<wgt id='morphing_basis_vector_4'> +1.6115569e-07 </wgt>
<wgt id='morphing_basis_vector_5'> +2.5701902e-07 </wgt>
</rwgt>
</event>
<event>
 4      1 +6.9060000e-13 7.77991200e+03 7.81860800e-03 7.09379800e-02
        2 -1    0    0  501    0 +0.0000000000e+00 +0.0000000000e+00 +2.7296278767e+03 2.7296278767e+03 0.0000000000e+00 0.0000e+00 1.0000e+00
       -2 -1    0    0    0  501 -0.0000000000e+00 -0.0000000000e+00 -5.5435245990e+03 5.5435245990e+03 0.0000000000e+00 0.0000e+00 -1.0000e+00
      -13  1    1    2    0    0 -1.8568343068e+03 -2.3828361707e+03 -4.0130395911e+03 5.0229700994e+03 0.0000000000e+00 0.0000e+00 -1.0000e+00
       13  1    1    2    0    0 +1.8568343068e+03 +2.3828361707e+03 +1.1991428688e+03 3.2501823763e+03 0.0000000000e+00 0.0000e+00 1.0000e+00
<mgrwt>
<rscale>  0 0.77799124E+04</rscale>
<asrwt>0</asrwt>
<pdfrwt beam="1">  1        2 0.41994276E+00 0.77799124E+04</pdfrwt>
<pdfrwt beam="2">  1       -2 0.85284993E+00 0.77799124E+04</pdfrwt>
<totfact> 0.10283741E-04</totfact>
</mgrwt>
<rwgt>
<wgt id='morphing_basis_vector_1'> +3.4195418e-07 </wgt>
<wgt id='morphing_basis_vector_2'> +2.3435730e-07 </wgt>
<wgt id='morphing_basis_vector_3'> +3.7840978e-07 </wgt>
<wgt id='morphing_basis_vector_4'> +2.7226864e-07 </wgt>
<wgt id='morphing_basis_vector_5'> +4.3644183e-07 </wgt>
</rwgt>
</event>
<event>
 4      1 +6.9060000e-13 6.68984900e+03 7.81860800e-03 7.19040600e-02
        2 -1    0    0  501    0 +0.0000000000e+00 +0.0000000000e+00 +2.8508951009e+03 2.8508951009e+03 0.0000000000e+00 0.0000e+00 -1.0000e+00
       -2 -1    0    0    0  501 -0.0000000000e+00 -0.0000000000e+00 -3.9245636371e+03 3.9245636371e+03 0.0000000000e+00 0.0000e+00 1.0000e+00
      -13  1    1    2    0    0 -1.7910981414e+03 +1.2866012825e+03 -3.0840023582e+03 3.7913646564e+03 0.0000000000e+00 0.0000e+00 1.0000e+00
       13  1    1    2    0    0 +1.7910981414e+03 -1.2866012825e+03 +2.0103338220e+03 2.9840940817e+03 0.0000000000e+00 0.0000e+00 -1.0000e+00
<mgrwt>
<rscale>  0 0.66898488E+04</rscale>
<asrwt>0</asrwt>
<pdfrwt beam="1">  1        2 0.43859925E+00 0.66898488E+04</pdfrwt>
<pdfrwt beam="2">  1       -2 0.60377902E+00 0.66898488E+04</pdfrwt>
<totfact> 0.28843693E-04</totfact>
</mgrwt>
<rwgt>
<wgt id='morphing_basis_vector_1'> +1.8689467e-07 </wgt>
<wgt id='morphing_basis_vector_2'> +1.2747747e-07 </wgt>
<wgt id='morphing_basis_vector_3'> +2.0650615e-07 </wgt>
<wgt id='morphing_basis_vector_4'> +1.4923194e-07 </wgt>
<wgt id='morphing_basis_vector_5'> +2.3843555e-07 </wgt>
</rwgt>
</event>
<event>
 4      1 +6.9060000e-13 6.68857900e+03 7.81860800e-03 7.19052900e-02
        2 -1    0    0  501    0 +0.0000000000e+00 +0.0000000000e+00 +4.6225988454e+03 4.6225988454e+03 0.0000000000e+00 0.0000e+00 -1.0000e+00
       -2 -1    0    0    0  501 -0.0000000000e+00 -0.0000000000e+00 -2.4194773024e+03 2.4194773024e+03 0.0000000000e+00 0.0000e+00 1.0000e+00
      -13  1    1    2    0    0 -1.4294528342e+03 -2.8947381190e+03 +1.8284432301e+02 3.2336165866e+03 0.0000000000e+00 0.0000e+00 1.0000e+00
       13  1    1    2    0    0 +1.4294528342e+03 +2.8947381190e+03 +2.0202772201e+03 3.8084595611e+03 0.0000000000e+00 0.0000e+00 -1.0000e+00
<mgrwt>
<rscale>  0 0.66885792E+04</rscale>
<asrwt>0</asrwt>
<pdfrwt beam="1">  1        2 0.71116905E+00 0.66885792E+04</pdfrwt>
<pdfrwt beam="2">  1       -2 0.37222728E+00 0.66885792E+04</pdfrwt>
<totfact> 0.49731544E-04</totfact>
</mgrwt>
<rwgt>
<wgt id='morphing_basis_vector_1'> +1.8912592e-07 </wgt>
<wgt id='morphing_basis_vector_2'> +1.3434393e-07 </wgt>
<wgt id='morphing_basis_vector_3'> +2.1023448e-07 </wgt>
<wgt id='morphing_basis_vector_4'> +1.4403376e-07 </wgt>
<wgt id='morphing_basis_vector_5'> +2.3782596e-07 </wgt>
</rwgt>
</event>
</LesHouchesEvents>
