<LesHouchesEvents version="3.0">
<header>
<!--
#*********************************************************************
#                                                                    *
#                        MadGraph5_aMC@NLO                           *
#                                                                    *
#                           Going Beyond                             *
#                                                                    *
#                   http://madgraph.hep.uiuc.edu                     *
#                   http://madgraph.phys.ucl.ac.be                   *
#                   http://amcatnlo.cern.ch                          *
#                                                                    *
#                     The MadGraph5_aMC@NLO team                     *
#                                                                    *
#....................................................................*
#                                                                    *
# This file contains all the information necessary to reproduce      *
# the events generated:                                              *
#                                                                    *
# 1. software version                                                *
# 2. proc_card          : code generation info including model       *
# 3. param_card         : model primary parameters in the LH format  *
# 4. run_card           : running parameters (collider and cuts)     *
# 5. pythia_card        : present only if pythia has been run        *
# 6. pgs_card           : present only if pgs has been run           *
# 7. delphes_cards      : present only if delphes has been run       *
#                                                                    *
#                                                                    *
#*********************************************************************
-->
<MGVersion>
2.6.4
</MGVersion>
<MG5ProcCard>
<![CDATA[
#************************************************************
#*                     MadGraph5_aMC@NLO                    *
#*                                                          *
#*                *                       *                 *
#*                  *        * *        *                   *
#*                    * * * * 5 * * * *                     *
#*                  *        * *        *                   *
#*                *                       *                 *
#*                                                          *
#*                                                          *
#*         VERSION 2.6.4                 2018-11-09         *
#*                                                          *
#*    The MadGraph5_aMC@NLO Development Team - Find us at   *
#*    https://server06.fynu.ucl.ac.be/projects/madgraph     *
#*                                                          *
#************************************************************
#*                                                          *
#*               Command File for MadGraph5_aMC@NLO         *
#*                                                          *
#*     run as ./bin/mg5_aMC  filename                       *
#*                                                          *
#************************************************************
set default_unset_couplings 99
set group_subprocesses Auto
set ignore_six_quark_processes False
set loop_optimized_output True
set loop_color_flows False
set gauge unitary
set complex_mass_scheme False
set max_npoint_for_channel 0
import model SM4fLL_UFO
define p = g u c d s u~ c~ d~ s~
define j = g u c d s u~ c~ d~ s~
define l+ = e+ mu+
define l- = e- mu-
define vl = ve vm vt
define vl~ = ve~ vm~ vt~
generate u u~ > mu+ mu- NP=2 QED=99 QCD=0
output /Users/dpappadopulo/Projects/~Physics/madminer/examples/example\
4_systematics_DY/data/mg_processes/DY_sys/
]]>
</MG5ProcCard>
<MGProcCard>
#*********************************************************************
#                        MadGraph/MadEvent                           *
#                   http://madgraph.hep.uiuc.edu                     *
#                                                                    *
#                          proc_card.dat                             *
#*********************************************************************
#                                                                    *
#            This Files is generated by MADGRAPH 5                   *
#                                                                    *
# WARNING: This Files is generated for MADEVENT (compatibility issue)*
#          This files is NOT a valid MG4 proc_card.dat               *
#          Running this in MG4 will NEVER reproduce the result of MG5*
#                                                                    *
#*********************************************************************
#*********************************************************************
# Process(es) requested : mg2 input                                  *
#*********************************************************************
# Begin PROCESS # This is TAG. Do not modify this line
u u~ > mu+ mu-           #Process
# Be carefull the coupling are here in MG5 convention
NP=2
QED=99
QCD=0
          
end_coup           # End the couplings input

done               # this tells MG there are no more procs
# End PROCESS  # This is TAG. Do not modify this line
#*********************************************************************
# Model information                                                  *
#*********************************************************************
# Begin MODEL  # This is TAG. Do not modify this line
SM4fLL_UFO
# End   MODEL  # This is TAG. Do not modify this line
#*********************************************************************
# Start multiparticle definitions                                    *
#*********************************************************************
# Begin MULTIPARTICLES # This is TAG. Do not modify this line

# End  MULTIPARTICLES # This is TAG. Do not modify this line
</MGProcCard>
<MGRunCard>
<![CDATA[
#*********************************************************************
#                       MadGraph5_aMC@NLO                            *
#                                                                    *
#                     run_card.dat MadEvent                          *
#                                                                    *
#  This file is used to set the parameters of the run.               *
#                                                                    *
#  Some notation/conventions:                                        *
#                                                                    *
#   Lines starting with a '# ' are info or comments                  *
#                                                                    *
#   mind the format:   value    = variable     ! comment             *
#*********************************************************************
#
#*******************                                                 
# Running parameters
#*******************                                                 
#                                                                    
#*********************************************************************
# Tag name for the run (one word)                                    *
#*********************************************************************
  tag_1     = run_tag ! name of the run 
#*********************************************************************
# Run to generate the grid pack                                      *
#*********************************************************************
  False     = gridpack  !True = setting up the grid pack
#*********************************************************************
# Number of events and rnd seed                                      *
# Warning: Do not generate more than 1M events in a single run       *
# If you want to run Pythia, avoid more than 50k events in a run.    *
#*********************************************************************
  1000 = nevents ! Number of unweighted events requested
 147 = iseed   ! rnd seed (0=assigned automatically=default))
#*********************************************************************
# Collider type and energy                                           *
# lpp: 0=No PDF, 1=proton, -1=antiproton, 2=photon from proton,      *
#                                         3=photon from electron     *
#*********************************************************************
     1        = lpp1    ! beam 1 type 
     1        = lpp2    ! beam 2 type
     6500.0     = ebeam1  ! beam 1 total energy in GeV
     6500.0     = ebeam2  ! beam 2 total energy in GeV
#*********************************************************************
# Beam polarization from -100 (left-handed) to 100 (right-handed)    *
#*********************************************************************
     0.0     = polbeam1 ! beam polarization for beam 1
     0.0     = polbeam2 ! beam polarization for beam 2
#*********************************************************************
# PDF CHOICE: this automatically fixes also alpha_s and its evol.    *
#*********************************************************************
     lhapdf    = pdlabel     ! PDF set
     90900   = lhaid     ! if pdlabel=lhapdf, this is the lhapdf number
#*********************************************************************
# Renormalization and factorization scales                           *
#*********************************************************************
 False = fixed_ren_scale  ! if .true. use fixed ren scale
 False        = fixed_fac_scale  ! if .true. use fixed fac scale
 91.188  = scale            ! fixed ren scale
 91.188  = dsqrt_q2fact1    ! fixed fact scale for pdf1
 91.188  = dsqrt_q2fact2    ! fixed fact scale for pdf2
 -1 = dynamical_scale_choice ! Choose one of the preselected dynamical choices
 1.0  = scalefact        ! scale factor for event-by-event scales
#*********************************************************************
# Type and output format
#*********************************************************************
  False     = gridpack  !True = setting up the grid pack
  -1.0 = time_of_flight ! threshold (in mm) below which the invariant livetime is not written (-1 means not written)
  3.0 = lhe_version       ! Change the way clustering information pass to shower.        
  True = clusinfo         ! include clustering tag in output
  sum =  event_norm       ! average/sum. Normalization of the weight in the LHEF
#*********************************************************************
# Matching - Warning! ickkw > 1 is still beta
#*********************************************************************
 0 = ickkw            ! 0 no matching, 1 MLM, 2 CKKW matching
 1 = highestmult      ! for ickkw=2, highest mult group
 1 = ktscheme         ! for ickkw=1, 1 Durham kT, 2 Pythia pTE
 1.0 = alpsfact         ! scale factor for QCD emission vx
 False = chcluster        ! cluster only according to channel diag
 True = pdfwgt           ! for ickkw=1, perform pdf reweighting
 4 = asrwgtflavor     ! highest quark flavor for a_s reweight    
#*********************************************************************
#**********************************************************
#
#**********************************************************
# Automatic ptj and mjj cuts if xqcut > 0
# (turn off for VBF and single top processes)
#**********************************************************
   False  = auto_ptj_mjj  ! Automatic setting of ptj and mjj
#**********************************************************
#                                                                    
#**********************************
# BW cutoff (M+/-bwcutoff*Gamma)
#**********************************
  15.0  = bwcutoff      ! (M+/-bwcutoff*Gamma)
#**********************************************************
# Apply pt/E/eta/dr/mij/kt_durham cuts on decay products or not
# (note that etmiss/ptll/ptheavy/ht/sorted cuts always apply)
#*************************************************************
   False  = cut_decays    ! Cut decay products 
#*************************************************************
# Number of helicities to sum per event (0 = all helicities)
# 0 gives more stable result, but longer run time (needed for
# long decay chains e.g.).
# Use >=2 if most helicities contribute, e.g. pure QCD.
#*************************************************************
   0  = nhel          ! Number of helicities used per event
#*******************                                                 
# Standard Cuts
#*******************                                                 
#                                                                    
#*********************************************************************
# Minimum and maximum pt's (for max, -1 means no cut)                *
#*********************************************************************
 15.0  = ptj       ! minimum pt for the jets
 0.0  = ptb       ! minimum pt for the b 
 0.0 = pta       ! minimum pt for the photons
 25.0  = ptl       ! minimum pt for the charged leptons
 0.0  = misset    ! minimum missing Et (sum of neutrino's momenta)
 0.0  = ptheavy   ! minimum pt for one heavy final state
 -1.0  = ptjmax    ! maximum pt for the jets
 -1.0  = ptbmax    ! maximum pt for the b
 -1.0 = ptamax       ! maximum pt for the photons
 -1.0  = ptlmax    ! maximum pt for the charged leptons
 -1.0  = missetmax ! maximum missing Et (sum of neutrino's momenta)
#*********************************************************************
# Minimum and maximum E's (in the center of mass frame)              *
#*********************************************************************
  0.0  = ej     ! minimum E for the jets 
  0.0  = eb     ! minimum E for the b 
  0.0  = ea     ! minimum E for the photons 
  0.0  = el     ! minimum E for the charged leptons 
  -1.0   = ejmax ! maximum E for the jets
 -1.0   = ebmax ! maximum E for the b
 -1.0   = eamax ! maximum E for the photons
 -1.0   = elmax ! maximum E for the charged leptons
#*********************************************************************
# Maximum and minimum absolute rapidity (for max, -1 means no cut)   *
#*********************************************************************
 2.5 = etaj    ! max rap for the jets
  -1.0  = etab    ! max rap for the b
 3.0  = etaa    ! max rap for the photons
 2.5  = etal    ! max rap for the charged leptons
 0.0  = etajmin ! min rap for the jets
 0.0  = etabmin ! min rap for the b
 0.0  = etaamin ! min rap for the photons
 0.0  = etalmin ! main rap for the charged leptons
#*********************************************************************
# Minimum and maximum DeltaR distance                                *
#*********************************************************************
 0.0 = drjj    ! min distance between jets
 0.0 = drbb    ! min distance between b's
 0.0 = drll    ! min distance between leptons
 0.0 = draa    ! min distance between gammas
 0.0 = drbj    ! min distance between b and jet
 0.0 = draj    ! min distance between gamma and jet
 0.0 = drjl    ! min distance between jet and lepton
 0.0 = drab    ! min distance between gamma and b
 0.0 = drbl    ! min distance between b and lepton
 0.0 = dral    ! min distance between gamma and lepton
 -1.0  = drjjmax ! max distance between jets
 -1.0  = drbbmax ! max distance between b's
 -1.0  = drllmax ! max distance between leptons
 -1.0  = draamax ! max distance between gammas
 -1.0  = drbjmax ! max distance between b and jet
 -1.0  = drajmax ! max distance between gamma and jet
 -1.0  = drjlmax ! max distance between jet and lepton
 -1.0  = drabmax ! max distance between gamma and b
 -1.0  = drblmax ! max distance between b and lepton
 -1.0  = dralmax ! maxdistance between gamma and lepton
#*********************************************************************
# Minimum and maximum invariant mass for pairs                       *
# WARNING: for four lepton final state mmll cut require to have      *
#          different lepton masses for each flavor!                  *           
#*********************************************************************
 0.0   = mmjj    ! min invariant mass of a jet pair 
 0.0   = mmbb    ! min invariant mass of a b pair 
 0.0   = mmaa    ! min invariant mass of gamma gamma pair
 3850   = mmll    ! min invariant mass of l+l- (same flavour) lepton pair
 -1.0  = mmjjmax ! max invariant mass of a jet pair
 -1.0  = mmbbmax ! max invariant mass of a b pair
 -1.0  = mmaamax ! max invariant mass of gamma gamma pair
 4620  = mmllmax ! max invariant mass of l+l- (same flavour) lepton pair
#*********************************************************************
# Minimum and maximum invariant mass for all letpons                 *
#*********************************************************************
 0.0   = mmnl    ! min invariant mass for all letpons (l+- and vl) 
 -1.0  = mmnlmax ! max invariant mass for all letpons (l+- and vl) 
#*********************************************************************
# Minimum and maximum pt for 4-momenta sum of leptons                *
#*********************************************************************
 0.0   = ptllmin  ! Minimum pt for 4-momenta sum of leptons(l and vl)
 -1.0  = ptllmax  ! Maximum pt for 4-momenta sum of leptons(l and vl)
#*********************************************************************
# Inclusive cuts                                                     *
#*********************************************************************
 0.0  = xptj ! minimum pt for at least one jet  
 0.0  = xptb ! minimum pt for at least one b 
 0.0  = xpta ! minimum pt for at least one photon 
 0.0  = xptl ! minimum pt for at least one charged lepton 
#*********************************************************************
# Control the pt's of the jets sorted by pt                          *
#*********************************************************************
 0.0   = ptj1min ! minimum pt for the leading jet in pt
 0.0   = ptj2min ! minimum pt for the second jet in pt
 0.0   = ptj3min ! minimum pt for the third jet in pt
 0.0   = ptj4min ! minimum pt for the fourth jet in pt
 -1.0  = ptj1max ! maximum pt for the leading jet in pt 
 -1.0  = ptj2max ! maximum pt for the second jet in pt
 -1.0  = ptj3max ! maximum pt for the third jet in pt
 -1.0  = ptj4max ! maximum pt for the fourth jet in pt
 0   = cutuse  ! reject event if fails any (0) / all (1) jet pt cuts
#*********************************************************************
# Control the pt's of leptons sorted by pt                           *
#*********************************************************************
 0.0   = ptl1min ! minimum pt for the leading lepton in pt
 0.0   = ptl2min ! minimum pt for the second lepton in pt
 0.0   = ptl3min ! minimum pt for the third lepton in pt
 0.0   = ptl4min ! minimum pt for the fourth lepton in pt
 -1.0  = ptl1max ! maximum pt for the leading lepton in pt 
 -1.0  = ptl2max ! maximum pt for the second lepton in pt
 -1.0  = ptl3max ! maximum pt for the third lepton in pt
 -1.0  = ptl4max ! maximum pt for the fourth lepton in pt
#*********************************************************************
# Control the Ht(k)=Sum of k leading jets                            *
#*********************************************************************
 0.0   = htjmin ! minimum jet HT=Sum(jet pt)
 -1.0  = htjmax ! maximum jet HT=Sum(jet pt)
 0.0   = ihtmin  !inclusive Ht for all partons (including b)
 -1.0  = ihtmax  !inclusive Ht for all partons (including b)
 0.0   = ht2min ! minimum Ht for the two leading jets
 0.0   = ht3min ! minimum Ht for the three leading jets
 0.0   = ht4min ! minimum Ht for the four leading jets
 -1.0  = ht2max ! maximum Ht for the two leading jets
 -1.0  = ht3max ! maximum Ht for the three leading jets
 -1.0  = ht4max ! maximum Ht for the four leading jets
#***********************************************************************
# Photon-isolation cuts, according to hep-ph/9801442                   *
# When ptgmin=0, all the other parameters are ignored                  *
# When ptgmin>0, pta and draj are not going to be used                 *
#***********************************************************************
 0.0 = ptgmin ! Min photon transverse momentum
 0.4 = R0gamma ! Radius of isolation code
 1.0 = xn ! n parameter of eq.(3.4) in hep-ph/9801442
 1.0 = epsgamma ! epsilon_gamma parameter of eq.(3.4) in hep-ph/9801442
 True = isoEM ! isolate photons from EM energy (photons and leptons)
#*********************************************************************
# WBF cuts                                                           *
#*********************************************************************
 0.0   = xetamin ! minimum rapidity for two jets in the WBF case  
 0.0   = deltaeta ! minimum rapidity for two jets in the WBF case 
#*********************************************************************
# KT DURHAM CUT                                                      *
#*********************************************************************
 -1.0    =  ktdurham        
 0.4  =  dparameter 
#*********************************************************************
# maximal pdg code for quark to be considered as a light jet         *
# (otherwise b cuts are applied)                                     *
#*********************************************************************
 4 = maxjetflavor    ! Maximum jet pdg code
#*********************************************************************
# Jet measure cuts                                                   *
#*********************************************************************
 0.0   = xqcut   ! minimum kt jet measure between partons
#*********************************************************************
#
#*********************************************************************
# Store info for systematics studies                                 *
# WARNING: If use_syst is T, matched Pythia output is                *
#          meaningful ONLY if plotted taking matchscale              *
#          reweighting into account!                                 *
#*********************************************************************
#    False  = use_syst      ! Enable systematics studies # Commented out by MadMiner
#
#**************************************
# Parameter of the systematics study
#  will be used by SysCalc (if installed)
#**************************************                                  
#
0.5 1 2 = sys_scalefact  # factorization/renormalization scale factor
None = sys_alpsfact  # \alpha_s emission scale factors
30 50 = sys_matchscale # variation of merging scale
# PDF sets and number of members (0 or none for all members).
NNPDF23_lo_as_0130_qed = sys_pdf # matching scales
# MSTW2008nlo68cl.LHgrid 1  = sys_pdf


#*********************************************************************
# MadMiner systematics setup                                         *
#*********************************************************************
True = use_syst
systematics = systematics_program
['--pdf=90900'] = systematics_arguments
]]>
</MGRunCard>
<slha>
######################################################################
## PARAM_CARD AUTOMATICALY GENERATED BY MG5 FOLLOWING UFO MODEL   ####
######################################################################
##                                                                  ##
##  Width set on Auto will be computed following the information    ##
##        present in the decay.py files of the model.               ##
##        See  arXiv:1402.1178 for more details.                    ##
##                                                                  ##
######################################################################

###################################
## INFORMATION FOR CKMBLOCK
###################################
Block ckmblock 
    1 2.277360e-01 # cabi 

###################################
## INFORMATION FOR MASS
###################################
Block mass 
    5 4.700000e+00 # MB 
    6 1.720000e+02 # MT 
   15 1.777000e+00 # MTA 
   23 9.118760e+01 # MZ 
   25 1.250000e+02 # MH 
## Dependent parameters, given by model restrictions.
## Those values should be edited following the 
## analytical expression. MG5 ignores those values 
## but they are important for interfacing the output of MG5
## to external program such as Pythia.
  1 0.000000 # d : 0.0 
  2 0.000000 # u : 0.0 
  3 0.000000 # s : 0.0 
  4 0.000000 # c : 0.0 
  11 0.000000 # e- : 0.0 
  12 0.000000 # ve : 0.0 
  13 0.000000 # mu- : 0.0 
  14 0.000000 # vm : 0.0 
  16 0.000000 # vt : 0.0 
  21 0.000000 # g : 0.0 
  22 0.000000 # a : 0.0 
  24 79.824360 # w+ : cmath.sqrt(MZ__exp__2/2. + cmath.sqrt(MZ__exp__4/4. - (aEW*cmath.pi*MZ__exp__2)/(Gf*sqrt__2))) 

###################################
## INFORMATION FOR OBLIQUE
###################################
Block oblique 
    1    0.0    # MadMiner
    2    0.0    # MadMiner

###################################
## INFORMATION FOR SMINPUTS
###################################
Block sminputs 
    1 1.279000e+02 # aEWM1 
    2 1.166370e-05 # Gf 
    3 1.184000e-01 # aS 

###################################
## INFORMATION FOR YUKAWA
###################################
Block yukawa 
    5 4.700000e+00 # ymb 
    6 1.720000e+02 # ymt 
   15 1.777000e+00 # ymtau 

###################################
## INFORMATION FOR DECAY
###################################
DECAY   6 1.508336e+00 # WT 
DECAY  23 2.495200e+00 # WZ 
DECAY  24 2.085000e+00 # WW 
DECAY  25 4.070000e-03 # WH 
## Dependent parameters, given by model restrictions.
## Those values should be edited following the 
## analytical expression. MG5 ignores those values 
## but they are important for interfacing the output of MG5
## to external program such as Pythia.
DECAY  1 0.000000 # d : 0.0 
DECAY  2 0.000000 # u : 0.0 
DECAY  3 0.000000 # s : 0.0 
DECAY  4 0.000000 # c : 0.0 
DECAY  5 0.000000 # b : 0.0 
DECAY  11 0.000000 # e- : 0.0 
DECAY  12 0.000000 # ve : 0.0 
DECAY  13 0.000000 # mu- : 0.0 
DECAY  14 0.000000 # vm : 0.0 
DECAY  15 0.000000 # ta- : 0.0 
DECAY  16 0.000000 # vt : 0.0 
DECAY  21 0.000000 # g : 0.0 
DECAY  22 0.000000 # a : 0.0
</slha>
<initrwgt>
<weightgroup name='mg_reweighting' weight_name_strategy='includeIdInWeightName'>
<weight id='morphing_basis_vector_1'>set param_card oblique 1 -0.06391685 # orig: 0.0
set param_card oblique 2 -0.08653588 # orig: 0.0
</weight>
<weight id='morphing_basis_vector_2'>set param_card oblique 1 0.0342439 # orig: 0.0
set param_card oblique 2 -0.09831893 # orig: 0.0
</weight>
<weight id='morphing_basis_vector_3'>set param_card oblique 1 -0.08145691 # orig: 0.0
set param_card oblique 2 0.09700122 # orig: 0.0
</weight>
<weight id='morphing_basis_vector_4'>set param_card oblique 1 0.09132942 # orig: 0.0
set param_card oblique 2 -0.005442744 # orig: 0.0
</weight>
<weight id='morphing_basis_vector_5'>set param_card oblique 1 0.08535809 # orig: 0.0
set param_card oblique 2 0.08156918 # orig: 0.0
</weight>
</weightgroup>
</initrwgt>
<MGGenerationInfo>
#  Number of Events        :       1000
#  Integrated weight (pb)  :       4.5322e-07
</MGGenerationInfo>
</header>
<init>
2212 2212 6.500000e+03 6.500000e+03 0 0 90900 90900 -3 1
4.532200e-07 1.777712e-09 4.532200e-10 1
<generator name='MadGraph5_aMC@NLO' version='2.6.4'>please cite 1405.0301 </generator>
</init>
<event>
 4      1 +4.5322000e-10 4.10341900e+03 7.81860800e-03 7.52253400e-02
        2 -1    0    0  501    0 +0.0000000000e+00 +0.0000000000e+00 +3.9505123340e+03 3.9505123340e+03 0.0000000000e+00 0.0000e+00 -1.0000e+00
       -2 -1    0    0    0  501 -0.0000000000e+00 -0.0000000000e+00 -1.0655609492e+03 1.0655609492e+03 0.0000000000e+00 0.0000e+00 1.0000e+00
      -13  1    1    2    0    0 -1.0299693771e+03 -5.2449649619e+02 -6.2971408404e+02 1.3162345231e+03 0.0000000000e+00 0.0000e+00 1.0000e+00
       13  1    1    2    0    0 +1.0299693771e+03 +5.2449649619e+02 +3.5146654688e+03 3.6998387600e+03 0.0000000000e+00 0.0000e+00 -1.0000e+00
<mgrwt>
<rscale>  0 0.41034189E+04</rscale>
<asrwt>0</asrwt>
<pdfrwt beam="1">  1        2 0.60777112E+00 0.41034189E+04</pdfrwt>
<pdfrwt beam="2">  1       -2 0.16393246E+00 0.41034189E+04</pdfrwt>
<totfact> 0.73559918E-02</totfact>
</mgrwt>
<rwgt>
<wgt id='morphing_basis_vector_1'> +1.7460092e-05 </wgt>
<wgt id='morphing_basis_vector_2'> +1.1847803e-05 </wgt>
<wgt id='morphing_basis_vector_3'> +1.9178707e-05 </wgt>
<wgt id='morphing_basis_vector_4'> +1.3800399e-05 </wgt>
<wgt id='morphing_basis_vector_5'> +2.2021561e-05 </wgt>
</rwgt>
</event>
<event>
 4      1 +4.5322000e-10 4.42989900e+03 7.81860800e-03 7.46849300e-02
        2 -1    0    0  501    0 +0.0000000000e+00 +0.0000000000e+00 +3.7103500834e+03 3.7103500834e+03 0.0000000000e+00 0.0000e+00 1.0000e+00
       -2 -1    0    0    0  501 -0.0000000000e+00 -0.0000000000e+00 -1.3222474103e+03 1.3222474103e+03 0.0000000000e+00 0.0000e+00 -1.0000e+00
      -13  1    1    2    0    0 -1.4309349762e+03 +1.6694418811e+03 +8.9051119016e+02 2.3722607951e+03 0.0000000000e+00 0.0000e+00 -1.0000e+00
       13  1    1    2    0    0 +1.4309349762e+03 -1.6694418811e+03 +1.4975914829e+03 2.6603366986e+03 0.0000000000e+00 0.0000e+00 1.0000e+00
<mgrwt>
<rscale>  0 0.44298988E+04</rscale>
<asrwt>0</asrwt>
<pdfrwt beam="1">  1        2 0.57082309E+00 0.44298988E+04</pdfrwt>
<pdfrwt beam="2">  1       -2 0.20342268E+00 0.44298988E+04</pdfrwt>
<totfact> 0.56304062E-02</totfact>
</mgrwt>
<rwgt>
<wgt id='morphing_basis_vector_1'> +2.4231936e-05 </wgt>
<wgt id='morphing_basis_vector_2'> +1.7696577e-05 </wgt>
<wgt id='morphing_basis_vector_3'> +2.6933642e-05 </wgt>
<wgt id='morphing_basis_vector_4'> +1.7604034e-05 </wgt>
<wgt id='morphing_basis_vector_5'> +2.9854277e-05 </wgt>
</rwgt>
</event>
<event>
 4      1 +4.5322000e-10 4.23921700e+03 7.81860800e-03 7.49945800e-02
        2 -1    0    0  501    0 +0.0000000000e+00 +0.0000000000e+00 +2.2987575051e+03 2.2987575051e+03 0.0000000000e+00 0.0000e+00 -1.0000e+00
       -2 -1    0    0    0  501 -0.0000000000e+00 -0.0000000000e+00 -1.9544207177e+03 1.9544207177e+03 0.0000000000e+00 0.0000e+00 1.0000e+00
      -13  1    1    2    0    0 +7.5746137230e+02 +4.3685617657e+02 -1.7650320660e+03 1.9697535997e+03 0.0000000000e+00 0.0000e+00 1.0000e+00
       13  1    1    2    0    0 -7.5746137230e+02 -4.3685617657e+02 +2.1093688534e+03 2.2834246231e+03 0.0000000000e+00 0.0000e+00 -1.0000e+00
<mgrwt>
<rscale>  0 0.42392166E+04</rscale>
<asrwt>0</asrwt>
<pdfrwt beam="1">  1        2 0.35365500E+00 0.42392166E+04</pdfrwt>
<pdfrwt beam="2">  1       -2 0.30068011E+00 0.42392166E+04</pdfrwt>
<totfact> 0.10381940E-01</totfact>
</mgrwt>
<rwgt>
<wgt id='morphing_basis_vector_1'> +1.9870867e-05 </wgt>
<wgt id='morphing_basis_vector_2'> +1.3476065e-05 </wgt>
<wgt id='morphing_basis_vector_3'> +2.1836437e-05 </wgt>
<wgt id='morphing_basis_vector_4'> +1.5740883e-05 </wgt>
<wgt id='morphing_basis_vector_5'> +2.5100499e-05 </wgt>
</rwgt>
</event>
<event>
 4      1 +4.5322000e-10 4.42902600e+03 7.81860800e-03 7.46863100e-02
        2 -1    0    0  501    0 +0.0000000000e+00 +0.0000000000e+00 +2.6238361531e+03 2.6238361531e+03 0.0000000000e+00 0.0000e+00 -1.0000e+00
       -2 -1    0    0    0  501 -0.0000000000e+00 -0.0000000000e+00 -1.8690447656e+03 1.8690447656e+03 0.0000000000e+00 0.0000e+00 1.0000e+00
      -13  1    1    2    0    0 -1.9392431861e+02 -1.7810182153e+03 -9.4307608404e+02 2.0246049059e+03 0.0000000000e+00 0.0000e+00 1.0000e+00
       13  1    1    2    0    0 +1.9392431861e+02 +1.7810182153e+03 +1.6978674715e+03 2.4682760128e+03 0.0000000000e+00 0.0000e+00 -1.0000e+00
<mgrwt>
<rscale>  0 0.44290257E+04</rscale>
<asrwt>0</asrwt>
<pdfrwt beam="1">  1        2 0.40366710E+00 0.44290257E+04</pdfrwt>
<pdfrwt beam="2">  1       -2 0.28754535E+00 0.44290257E+04</pdfrwt>
<totfact> 0.80433575E-02</totfact>
</mgrwt>
<rwgt>
<wgt id='morphing_basis_vector_1'> +2.3720346e-05 </wgt>
<wgt id='morphing_basis_vector_2'> +1.6235481e-05 </wgt>
<wgt id='morphing_basis_vector_3'> +2.6117473e-05 </wgt>
<wgt id='morphing_basis_vector_4'> +1.8635900e-05 </wgt>
<wgt id='morphing_basis_vector_5'> +2.9918061e-05 </wgt>
</rwgt>
</event>
<event>
 4      1 +4.5322000e-10 4.45965700e+03 7.81860800e-03 7.46380300e-02
        2 -1    0    0  501    0 +0.0000000000e+00 +0.0000000000e+00 +2.1781651116e+03 2.1781651116e+03 0.0000000000e+00 0.0000e+00 -1.0000e+00
       -2 -1    0    0    0  501 -0.0000000000e+00 -0.0000000000e+00 -2.2827172530e+03 2.2827172530e+03 0.0000000000e+00 0.0000e+00 1.0000e+00
      -13  1    1    2    0    0 -3.5891717675e+02 -1.9682164557e+03 -1.0371467967e+03 2.2535241365e+03 0.0000000000e+00 0.0000e+00 1.0000e+00
       13  1    1    2    0    0 +3.5891717675e+02 +1.9682164557e+03 +9.3259465530e+02 2.2073582281e+03 0.0000000000e+00 0.0000e+00 -1.0000e+00
<mgrwt>
<rscale>  0 0.44596570E+04</rscale>
<asrwt>0</asrwt>
<pdfrwt beam="1">  1        2 0.33510233E+00 0.44596570E+04</pdfrwt>
<pdfrwt beam="2">  1       -2 0.35118727E+00 0.44596570E+04</pdfrwt>
<totfact> 0.55473466E-02</totfact>
</mgrwt>
<rwgt>
<wgt id='morphing_basis_vector_1'> +2.4460777e-05 </wgt>
<wgt id='morphing_basis_vector_2'> +1.6924103e-05 </wgt>
<wgt id='morphing_basis_vector_3'> +2.6976788e-05 </wgt>
<wgt id='morphing_basis_vector_4'> +1.8988611e-05 </wgt>
<wgt id='morphing_basis_vector_5'> +3.0743513e-05 </wgt>
</rwgt>
</event>
<event>
 4      1 +4.5322000e-10 3.87348300e+03 7.81860800e-03 7.56375700e-02
        2 -1    0    0  501    0 +0.0000000000e+00 +0.0000000000e+00 +2.3608928904e+03 2.3608928904e+03 0.0000000000e+00 0.0000e+00 1.0000e+00
       -2 -1    0    0    0  501 -0.0000000000e+00 -0.0000000000e+00 -1.5887919722e+03 1.5887919722e+03 0.0000000000e+00 0.0000e+00 -1.0000e+00
      -13  1    1    2    0    0 -6.3916401247e+02 +1.6384823880e+03 +1.2130625339e+03 2.1365102110e+03 0.0000000000e+00 0.0000e+00 1.0000e+00
       13  1    1    2    0    0 +6.3916401247e+02 -1.6384823880e+03 -4.4096161563e+02 1.8131746516e+03 0.0000000000e+00 0.0000e+00 -1.0000e+00
<mgrwt>
<rscale>  0 0.38734830E+04</rscale>
<asrwt>0</asrwt>
<pdfrwt beam="1">  1        2 0.36321429E+00 0.38734830E+04</pdfrwt>
<pdfrwt beam="2">  1       -2 0.24442953E+00 0.38734830E+04</pdfrwt>
<totfact> 0.23835392E-01</totfact>
</mgrwt>
<rwgt>
<wgt id='morphing_basis_vector_1'> +1.5913021e-05 </wgt>
<wgt id='morphing_basis_vector_2'> +1.5388726e-05 </wgt>
<wgt id='morphing_basis_vector_3'> +1.8484423e-05 </wgt>
<wgt id='morphing_basis_vector_4'> +6.6506059e-06 </wgt>
<wgt id='morphing_basis_vector_5'> +1.7107687e-05 </wgt>
</rwgt>
</event>
<event>
 4      1 +4.5322000e-10 4.40929900e+03 7.81860800e-03 7.47176100e-02
        2 -1    0    0  501    0 +0.0000000000e+00 +0.0000000000e+00 +3.0903361798e+03 3.0903361798e+03 0.0000000000e+00 0.0000e+00 1.0000e+00
       -2 -1    0    0    0  501 -0.0000000000e+00 -0.0000000000e+00 -1.5727995164e+03 1.5727995164e+03 0.0000000000e+00 0.0000e+00 -1.0000e+00
      -13  1    1    2    0    0 -2.1498890729e+03 -4.2940086680e+02 +1.0046868253e+03 2.4115977581e+03 0.0000000000e+00 0.0000e+00 1.0000e+00
       13  1    1    2    0    0 +2.1498890729e+03 +4.2940086680e+02 +5.1284983813e+02 2.2515379381e+03 0.0000000000e+00 0.0000e+00 -1.0000e+00
<mgrwt>
<rscale>  0 0.44092989E+04</rscale>
<asrwt>0</asrwt>
<pdfrwt beam="1">  1        2 0.47543634E+00 0.44092989E+04</pdfrwt>
<pdfrwt beam="2">  1       -2 0.24196916E+00 0.44092989E+04</pdfrwt>
<totfact> 0.83651114E-02</totfact>
</mgrwt>
<rwgt>
<wgt id='morphing_basis_vector_1'> +2.4479796e-05 </wgt>
<wgt id='morphing_basis_vector_2'> +1.9408155e-05 </wgt>
<wgt id='morphing_basis_vector_3'> +2.7555236e-05 </wgt>
<wgt id='morphing_basis_vector_4'> +1.5805219e-05 </wgt>
<wgt id='morphing_basis_vector_5'> +2.9177577e-05 </wgt>
</rwgt>
</event>
<event>
 4      1 +4.5322000e-10 3.88081800e+03 7.81860800e-03 7.56239800e-02
        2 -1    0    0  501    0 +0.0000000000e+00 +0.0000000000e+00 +1.4163057240e+03 1.4163057240e+03 0.0000000000e+00 0.0000e+00 -1.0000e+00
       -2 -1    0    0    0  501 -0.0000000000e+00 -0.0000000000e+00 -2.6584562924e+03 2.6584562924e+03 0.0000000000e+00 0.0000e+00 1.0000e+00
      -13  1    1    2    0    0 +4.6365999831e+02 +1.8840060632e+03 -6.4939394303e+02 2.0460136689e+03 0.0000000000e+00 0.0000e+00 1.0000e+00
       13  1    1    2    0    0 -4.6365999831e+02 -1.8840060632e+03 -5.9275662538e+02 2.0287483474e+03 0.0000000000e+00 0.0000e+00 -1.0000e+00
<mgrwt>
<rscale>  0 0.38808179E+04</rscale>
<asrwt>0</asrwt>
<pdfrwt beam="1">  1        2 0.21789319E+00 0.38808179E+04</pdfrwt>
<pdfrwt beam="2">  1       -2 0.40899327E+00 0.38808179E+04</pdfrwt>
<totfact> 0.65583929E-02</totfact>
</mgrwt>
<rwgt>
<wgt id='morphing_basis_vector_1'> +1.4468556e-05 </wgt>
<wgt id='morphing_basis_vector_2'> +1.0905245e-05 </wgt>
<wgt id='morphing_basis_vector_3'> +1.6119541e-05 </wgt>
<wgt id='morphing_basis_vector_4'> +1.0006818e-05 </wgt>
<wgt id='morphing_basis_vector_5'> +1.7513388e-05 </wgt>
</rwgt>
</event>
<event>
 4      1 +4.5322000e-10 4.19826000e+03 7.81860800e-03 7.50632400e-02
        2 -1    0    0  501    0 +0.0000000000e+00 +0.0000000000e+00 +1.9820005638e+03 1.9820005638e+03 0.0000000000e+00 0.0000e+00 -1.0000e+00
       -2 -1    0    0    0  501 -0.0000000000e+00 -0.0000000000e+00 -2.2231814842e+03 2.2231814842e+03 0.0000000000e+00 0.0000e+00 1.0000e+00
      -13  1    1    2    0    0 -1.1553275481e+03 +1.1494973834e+03 -1.4457308863e+03 2.1785921540e+03 0.0000000000e+00 0.0000e+00 1.0000e+00
       13  1    1    2    0    0 +1.1553275481e+03 -1.1494973834e+03 +1.2045499659e+03 2.0265898940e+03 0.0000000000e+00 0.0000e+00 -1.0000e+00
<mgrwt>
<rscale>  0 0.41982601E+04</rscale>
<asrwt>0</asrwt>
<pdfrwt beam="1">  1        2 0.30492316E+00 0.41982601E+04</pdfrwt>
<pdfrwt beam="2">  1       -2 0.34202792E+00 0.41982601E+04</pdfrwt>
<totfact> 0.83876926E-02</totfact>
</mgrwt>
<rwgt>
<wgt id='morphing_basis_vector_1'> +1.9155669e-05 </wgt>
<wgt id='morphing_basis_vector_2'> +1.3076067e-05 </wgt>
<wgt id='morphing_basis_vector_3'> +2.1066500e-05 </wgt>
<wgt id='morphing_basis_vector_4'> +1.5057735e-05 </wgt>
<wgt id='morphing_basis_vector_5'> +2.4133505e-05 </wgt>
</rwgt>
</event>
<event>
 4      1 +4.5322000e-10 4.28349800e+03 7.81860800e-03 7.49212200e-02
        2 -1    0    0  501    0 +0.0000000000e+00 +0.0000000000e+00 +2.7355312174e+03 2.7355312174e+03 0.0000000000e+00 0.0000e+00 1.0000e+00
       -2 -1    0    0    0  501 -0.0000000000e+00 -0.0000000000e+00 -1.6768547655e+03 1.6768547655e+03 0.0000000000e+00 0.0000e+00 -1.0000e+00
      -13  1    1    2    0    0 +8.2035000445e+01 -1.3167386417e+03 -1.2086025368e+03 1.7892038687e+03 0.0000000000e+00 0.0000e+00 -1.0000e+00
       13  1    1    2    0    0 -8.2035000445e+01 +1.3167386417e+03 +2.2672789887e+03 2.6231821142e+03 0.0000000000e+00 0.0000e+00 1.0000e+00
<mgrwt>
<rscale>  0 0.42834979E+04</rscale>
<asrwt>0</asrwt>
<pdfrwt beam="1">  1        2 0.42085096E+00 0.42834979E+04</pdfrwt>
<pdfrwt beam="2">  1       -2 0.25797766E+00 0.42834979E+04</pdfrwt>
<totfact> 0.11059696E-01</totfact>
</mgrwt>
<rwgt>
<wgt id='morphing_basis_vector_1'> +2.0720397e-05 </wgt>
<wgt id='morphing_basis_vector_2'> +1.4076549e-05 </wgt>
<wgt id='morphing_basis_vector_3'> +2.2779139e-05 </wgt>
<wgt id='morphing_basis_vector_4'> +1.6390520e-05 </wgt>
<wgt id='morphing_basis_vector_5'> +2.6168782e-05 </wgt>
</rwgt>
</event>
<event>
 4      1 +4.5322000e-10 4.37735900e+03 7.81860800e-03 7.47686500e-02
        2 -1    0    0  501    0 +0.0000000000e+00 +0.0000000000e+00 +3.7916963035e+03 3.7916963035e+03 0.0000000000e+00 0.0000e+00 -1.0000e+00
       -2 -1    0    0    0  501 -0.0000000000e+00 -0.0000000000e+00 -1.2633705828e+03 1.2633705828e+03 0.0000000000e+00 0.0000e+00 1.0000e+00
      -13  1    1    2    0    0 -9.1585803992e+02 -1.9447165037e+03 +7.8857929689e+02 2.2896671235e+03 0.0000000000e+00 0.0000e+00 1.0000e+00
       13  1    1    2    0    0 +9.1585803992e+02 +1.9447165037e+03 +1.7397464238e+03 2.7653997628e+03 0.0000000000e+00 0.0000e+00 -1.0000e+00
<mgrwt>
<rscale>  0 0.43773588E+04</rscale>
<asrwt>0</asrwt>
<pdfrwt beam="1">  1        2 0.58333789E+00 0.43773588E+04</pdfrwt>
<pdfrwt beam="2">  1       -2 0.19436471E+00 0.43773588E+04</pdfrwt>
<totfact> 0.56831515E-02</totfact>
</mgrwt>
<rwgt>
<wgt id='morphing_basis_vector_1'> +2.2984979e-05 </wgt>
<wgt id='morphing_basis_vector_2'> +1.6514059e-05 </wgt>
<wgt id='morphing_basis_vector_3'> +2.5481119e-05 </wgt>
<wgt id='morphing_basis_vector_4'> +1.7040029e-05 </wgt>
<wgt id='morphing_basis_vector_5'> +2.8479116e-05 </wgt>
</rwgt>
</event>
<event>
 4      1 +4.5322000e-10 4.01794700e+03 7.81860800e-03 7.53752900e-02
        2 -1    0    0  501    0 +0.0000000000e+00 +0.0000000000e+00 +2.2603868502e+03 2.2603868502e+03 0.0000000000e+00 0.0000e+00 1.0000e+00
       -2 -1    0    0    0  501 -0.0000000000e+00 -0.0000000000e+00 -1.7855239890e+03 1.7855239890e+03 0.0000000000e+00 0.0000e+00 -1.0000e+00
      -13  1    1    2    0    0 -1.7654809607e+03 -2.0279914087e+02 -7.0606584149e+02 1.9122184726e+03 0.0000000000e+00 0.0000e+00 -1.0000e+00
       13  1    1    2    0    0 +1.7654809607e+03 +2.0279914087e+02 +1.1809287027e+03 2.1336923666e+03 0.0000000000e+00 0.0000e+00 1.0000e+00
<mgrwt>
<rscale>  0 0.40179472E+04</rscale>
<asrwt>0</asrwt>
<pdfrwt beam="1">  1        2 0.34775183E+00 0.40179472E+04</pdfrwt>
<pdfrwt beam="2">  1       -2 0.27469600E+00 0.40179472E+04</pdfrwt>
<totfact> 0.16687242E-01</totfact>
</mgrwt>
<rwgt>
<wgt id='morphing_basis_vector_1'> +1.6136517e-05 </wgt>
<wgt id='morphing_basis_vector_2'> +1.1126891e-05 </wgt>
<wgt id='morphing_basis_vector_3'> +1.7758284e-05 </wgt>
<wgt id='morphing_basis_vector_4'> +1.2512573e-05 </wgt>
<wgt id='morphing_basis_vector_5'> +2.0221071e-05 </wgt>
</rwgt>
</event>
<event>
 4      1 +4.5322000e-10 3.87544300e+03 7.81860800e-03 7.56339400e-02
        2 -1    0    0  501    0 +0.0000000000e+00 +0.0000000000e+00 +1.3447802133e+03 1.3447802133e+03 0.0000000000e+00 0.0000e+00 -1.0000e+00
       -2 -1    0    0    0  501 -0.0000000000e+00 -0.0000000000e+00 -2.7921029804e+03 2.7921029804e+03 0.0000000000e+00 0.0000e+00 1.0000e+00
      -13  1    1    2    0    0 -7.3680314743e+02 +1.6226293432e+03 -1.5358860290e+03 2.3526051002e+03 0.0000000000e+00 0.0000e+00 1.0000e+00
       13  1    1    2    0    0 +7.3680314743e+02 -1.6226293432e+03 +8.8563261862e+01 1.7842780935e+03 0.0000000000e+00 0.0000e+00 -1.0000e+00
<mgrwt>
<rscale>  0 0.38754431E+04</rscale>
<asrwt>0</asrwt>
<pdfrwt beam="1">  1        2 0.20688927E+00 0.38754431E+04</pdfrwt>
<pdfrwt beam="2">  1       -2 0.42955430E+00 0.38754431E+04</pdfrwt>
<totfact> 0.52568951E-02</totfact>
</mgrwt>
<rwgt>
<wgt id='morphing_basis_vector_1'> +1.4008470e-05 </wgt>
<wgt id='morphing_basis_vector_2'> +9.7264080e-06 </wgt>
<wgt id='morphing_basis_vector_3'> +1.5421116e-05 </wgt>
<wgt id='morphing_basis_vector_4'> +1.0755055e-05 </wgt>
<wgt id='morphing_basis_vector_5'> +1.7482957e-05 </wgt>
</rwgt>
</event>
<event>
 4      1 +4.5322000e-10 3.94656500e+03 7.81860800e-03 7.55034600e-02
        2 -1    0    0  501    0 +0.0000000000e+00 +0.0000000000e+00 +2.3243871197e+03 2.3243871197e+03 0.0000000000e+00 0.0000e+00 -1.0000e+00
       -2 -1    0    0    0  501 -0.0000000000e+00 -0.0000000000e+00 -1.6752130538e+03 1.6752130538e+03 0.0000000000e+00 0.0000e+00 1.0000e+00
      -13  1    1    2    0    0 -1.7191256495e+03 -4.5151678942e+02 +1.1931830524e+03 2.1407816812e+03 0.0000000000e+00 0.0000e+00 1.0000e+00
       13  1    1    2    0    0 +1.7191256495e+03 +4.5151678942e+02 -5.4400898650e+02 1.8588184923e+03 0.0000000000e+00 0.0000e+00 -1.0000e+00
<mgrwt>
<rscale>  0 0.39465649E+04</rscale>
<asrwt>0</asrwt>
<pdfrwt beam="1">  1        2 0.35759802E+00 0.39465649E+04</pdfrwt>
<pdfrwt beam="2">  1       -2 0.25772508E+00 0.39465649E+04</pdfrwt>
<totfact> 0.20140945E-01</totfact>
</mgrwt>
<rwgt>
<wgt id='morphing_basis_vector_1'> +1.7243330e-05 </wgt>
<wgt id='morphing_basis_vector_2'> +1.6877875e-05 </wgt>
<wgt id='morphing_basis_vector_3'> +2.0085139e-05 </wgt>
<wgt id='morphing_basis_vector_4'> +6.9542917e-06 </wgt>
<wgt id='morphing_basis_vector_5'> +1.8424762e-05 </wgt>
</rwgt>
</event>
<event>
 4      1 +4.5322000e-10 3.91326200e+03 7.81860800e-03 7.55642000e-02
        2 -1    0    0  501    0 +0.0000000000e+00 +0.0000000000e+00 +2.1001679592e+03 2.1001679592e+03 0.0000000000e+00 0.0000e+00 -1.0000e+00
       -2 -1    0    0    0  501 -0.0000000000e+00 -0.0000000000e+00 -1.8229044283e+03 1.8229044283e+03 0.0000000000e+00 0.0000e+00 1.0000e+00
      -13  1    1    2    0    0 -1.9389272878e+03 +1.8986011718e+02 +3.2052414882e+02 1.9743914560e+03 0.0000000000e+00 0.0000e+00 1.0000e+00
       13  1    1    2    0    0 +1.9389272878e+03 -1.8986011718e+02 -4.3260617950e+01 1.9486809315e+03 0.0000000000e+00 0.0000e+00 -1.0000e+00
<mgrwt>
<rscale>  0 0.39132623E+04</rscale>
<asrwt>0</asrwt>
<pdfrwt beam="1">  1        2 0.32310277E+00 0.39132623E+04</pdfrwt>
<pdfrwt beam="2">  1       -2 0.28044683E+00 0.39132623E+04</pdfrwt>
<totfact> 0.18991291E-01</totfact>
</mgrwt>
<rwgt>
<wgt id='morphing_basis_vector_1'> +1.5188366e-05 </wgt>
<wgt id='morphing_basis_vector_2'> +1.1957146e-05 </wgt>
<wgt id='morphing_basis_vector_3'> +1.7038099e-05 </wgt>
<wgt id='morphing_basis_vector_4'> +9.8559658e-06 </wgt>
<wgt id='morphing_basis_vector_5'> +1.8068650e-05 </wgt>
</rwgt>
</event>
<event>
 4      1 +4.5322000e-10 4.25990300e+03 7.81860800e-03 7.49601900e-02
        2 -1    0    0  501    0 +0.0000000000e+00 +0.0000000000e+00 +2.0390029652e+03 2.0390029652e+03 0.0000000000e+00 0.0000e+00 1.0000e+00
       -2 -1    0    0    0  501 -0.0000000000e+00 -0.0000000000e+00 -2.2249567705e+03 2.2249567705e+03 0.0000000000e+00 0.0000e+00 -1.0000e+00
      -13  1    1    2    0    0 -4.1654096299e+02 +1.3696966153e+03 +1.4855849376e+03 2.0631378526e+03 0.0000000000e+00 0.0000e+00 1.0000e+00
       13  1    1    2    0    0 +4.1654096299e+02 -1.3696966153e+03 -1.6715387430e+03 2.2008218831e+03 0.0000000000e+00 0.0000e+00 -1.0000e+00
<mgrwt>
<rscale>  0 0.42599030E+04</rscale>
<asrwt>0</asrwt>
<pdfrwt beam="1">  1        2 0.31369276E+00 0.42599030E+04</pdfrwt>
<pdfrwt beam="2">  1       -2 0.34230104E+00 0.42599030E+04</pdfrwt>
<totfact> 0.77206319E-02</totfact>
</mgrwt>
<rwgt>
<wgt id='morphing_basis_vector_1'> +2.6509170e-05 </wgt>
<wgt id='morphing_basis_vector_2'> +3.2104311e-05 </wgt>
<wgt id='morphing_basis_vector_3'> +3.2330248e-05 </wgt>
<wgt id='morphing_basis_vector_4'> +2.8012520e-06 </wgt>
<wgt id='morphing_basis_vector_5'> +2.4490032e-05 </wgt>
</rwgt>
</event>
<event>
 4      1 +4.5322000e-10 4.05486500e+03 7.81860800e-03 7.53100600e-02
        2 -1    0    0  501    0 +0.0000000000e+00 +0.0000000000e+00 +2.1457901086e+03 2.1457901086e+03 0.0000000000e+00 0.0000e+00 1.0000e+00
       -2 -1    0    0    0  501 -0.0000000000e+00 -0.0000000000e+00 -1.9156028617e+03 1.9156028617e+03 0.0000000000e+00 0.0000e+00 -1.0000e+00
      -13  1    1    2    0    0 -2.5695342385e+02 +1.1654918563e+03 -1.5264731860e+03 1.9376575334e+03 0.0000000000e+00 0.0000e+00 -1.0000e+00
       13  1    1    2    0    0 +2.5695342385e+02 -1.1654918563e+03 +1.7566604329e+03 2.1237354369e+03 0.0000000000e+00 0.0000e+00 1.0000e+00
<mgrwt>
<rscale>  0 0.40548646E+04</rscale>
<asrwt>0</asrwt>
<pdfrwt beam="1">  1        2 0.33012156E+00 0.40548646E+04</pdfrwt>
<pdfrwt beam="2">  1       -2 0.29470813E+00 0.40548646E+04</pdfrwt>
<totfact> 0.14153362E-01</totfact>
</mgrwt>
<rwgt>
<wgt id='morphing_basis_vector_1'> +1.6653630e-05 </wgt>
<wgt id='morphing_basis_vector_2'> +1.1302298e-05 </wgt>
<wgt id='morphing_basis_vector_3'> +1.8289609e-05 </wgt>
<wgt id='morphing_basis_vector_4'> +1.3152681e-05 </wgt>
<wgt id='morphing_basis_vector_5'> +2.0992590e-05 </wgt>
</rwgt>
</event>
<event>
 4      1 +4.5322000e-10 4.12627200e+03 7.81860800e-03 7.51858800e-02
        2 -1    0    0  501    0 +0.0000000000e+00 +0.0000000000e+00 +2.4906251839e+03 2.4906251839e+03 0.0000000000e+00 0.0000e+00 -1.0000e+00
       -2 -1    0    0    0  501 -0.0000000000e+00 -0.0000000000e+00 -1.7090204070e+03 1.7090204070e+03 0.0000000000e+00 0.0000e+00 1.0000e+00
      -13  1    1    2    0    0 -9.2062400379e+02 +1.7857710921e+03 +8.6818704917e+02 2.1886698477e+03 0.0000000000e+00 0.0000e+00 1.0000e+00
       13  1    1    2    0    0 +9.2062400379e+02 -1.7857710921e+03 -8.6582272256e+01 2.0109757432e+03 0.0000000000e+00 0.0000e+00 -1.0000e+00
<mgrwt>
<rscale>  0 0.41262716E+04</rscale>
<asrwt>0</asrwt>
<pdfrwt beam="1">  1        2 0.38317311E+00 0.41262716E+04</pdfrwt>
<pdfrwt beam="2">  1       -2 0.26292622E+00 0.41262716E+04</pdfrwt>
<totfact> 0.14593681E-01</totfact>
</mgrwt>
<rwgt>
<wgt id='morphing_basis_vector_1'> +1.9282685e-05 </wgt>
<wgt id='morphing_basis_vector_2'> +1.6322850e-05 </wgt>
<wgt id='morphing_basis_vector_3'> +2.1911863e-05 </wgt>
<wgt id='morphing_basis_vector_4'> +1.1078524e-05 </wgt>
<wgt id='morphing_basis_vector_5'> +2.2265610e-05 </wgt>
</rwgt>
</event>
<event>
 4      1 +4.5322000e-10 3.93855700e+03 7.81860800e-03 7.55180100e-02
        2 -1    0    0  501    0 +0.0000000000e+00 +0.0000000000e+00 +2.2787904709e+03 2.2787904709e+03 0.0000000000e+00 0.0000e+00 -1.0000e+00
       -2 -1    0    0    0  501 -0.0000000000e+00 -0.0000000000e+00 -1.7018051757e+03 1.7018051757e+03 0.0000000000e+00 0.0000e+00 1.0000e+00
      -13  1    1    2    0    0 -7.8267688162e+02 -7.3036845736e+02 -1.3820369629e+03 1.7481554140e+03 0.0000000000e+00 0.0000e+00 1.0000e+00
       13  1    1    2    0    0 +7.8267688162e+02 +7.3036845736e+02 +1.9590222581e+03 2.2324402327e+03 0.0000000000e+00 0.0000e+00 -1.0000e+00
<mgrwt>
<rscale>  0 0.39385568E+04</rscale>
<asrwt>0</asrwt>
<pdfrwt beam="1">  1        2 0.35058315E+00 0.39385568E+04</pdfrwt>
<pdfrwt beam="2">  1       -2 0.26181618E+00 0.39385568E+04</pdfrwt>
<totfact> 0.20078596E-01</totfact>
</mgrwt>
<rwgt>
<wgt id='morphing_basis_vector_1'> +1.4830232e-05 </wgt>
<wgt id='morphing_basis_vector_2'> +1.0056273e-05 </wgt>
<wgt id='morphing_basis_vector_3'> +1.6276912e-05 </wgt>
<wgt id='morphing_basis_vector_4'> +1.1705296e-05 </wgt>
<wgt id='morphing_basis_vector_5'> +1.8675254e-05 </wgt>
</rwgt>
</event>
<event>
 4      1 +4.5322000e-10 3.95053600e+03 7.81860800e-03 7.54962600e-02
        2 -1    0    0  501    0 +0.0000000000e+00 +0.0000000000e+00 +2.6981366433e+03 2.6981366433e+03 0.0000000000e+00 0.0000e+00 -1.0000e+00
       -2 -1    0    0    0  501 -0.0000000000e+00 -0.0000000000e+00 -1.4460661056e+03 1.4460661056e+03 0.0000000000e+00 0.0000e+00 1.0000e+00
      -13  1    1    2    0    0 +1.0683740133e+03 +1.3973812582e+03 -3.1667771808e+02 1.7872834666e+03 0.0000000000e+00 0.0000e+00 1.0000e+00
       13  1    1    2    0    0 -1.0683740133e+03 -1.3973812582e+03 +1.5687482558e+03 2.3569192822e+03 0.0000000000e+00 0.0000e+00 -1.0000e+00
<mgrwt>
<rscale>  0 0.39505361E+04</rscale>
<asrwt>0</asrwt>
<pdfrwt beam="1">  1        2 0.41509795E+00 0.39505361E+04</pdfrwt>
<pdfrwt beam="2">  1       -2 0.22247171E+00 0.39505361E+04</pdfrwt>
<totfact> 0.21176901E-01</totfact>
</mgrwt>
<rwgt>
<wgt id='morphing_basis_vector_1'> +1.5090524e-05 </wgt>
<wgt id='morphing_basis_vector_2'> +1.0414087e-05 </wgt>
<wgt id='morphing_basis_vector_3'> +1.6604030e-05 </wgt>
<wgt id='morphing_basis_vector_4'> +1.1679943e-05 </wgt>
<wgt id='morphing_basis_vector_5'> +1.8890588e-05 </wgt>
</rwgt>
</event>
<event>
 4      1 +4.5322000e-10 4.25371700e+03 7.81860800e-03 7.49704600e-02
        2 -1    0    0  501    0 +0.0000000000e+00 +0.0000000000e+00 +2.4153150863e+03 2.4153150863e+03 0.0000000000e+00 0.0000e+00 -1.0000e+00
       -2 -1    0    0    0  501 -0.0000000000e+00 -0.0000000000e+00 -1.8728514661e+03 1.8728514661e+03 0.0000000000e+00 0.0000e+00 1.0000e+00
      -13  1    1    2    0    0 +1.2399670361e+03 -1.7033944849e+03 +5.6419748666e+02 2.1811441552e+03 0.0000000000e+00 0.0000e+00 1.0000e+00
       13  1    1    2    0    0 -1.2399670361e+03 +1.7033944849e+03 -2.1733866505e+01 2.1070223973e+03 0.0000000000e+00 0.0000e+00 -1.0000e+00
<mgrwt>
<rscale>  0 0.42537167E+04</rscale>
<asrwt>0</asrwt>
<pdfrwt beam="1">  1        2 0.37158694E+00 0.42537167E+04</pdfrwt>
<pdfrwt beam="2">  1       -2 0.28813099E+00 0.42537167E+04</pdfrwt>
<totfact> 0.10775362E-01</totfact>
</mgrwt>
<rwgt>
<wgt id='morphing_basis_vector_1'> +2.1338345e-05 </wgt>
<wgt id='morphing_basis_vector_2'> +1.7173929e-05 </wgt>
<wgt id='morphing_basis_vector_3'> +2.4061768e-05 </wgt>
<wgt id='morphing_basis_vector_4'> +1.3423706e-05 </wgt>
<wgt id='morphing_basis_vector_5'> +2.5235630e-05 </wgt>
</rwgt>
</event>
<event>
 4      1 +4.5322000e-10 3.94730800e+03 7.81860800e-03 7.55021100e-02
        2 -1    0    0  501    0 +0.0000000000e+00 +0.0000000000e+00 +3.1919598889e+03 3.1919598889e+03 0.0000000000e+00 0.0000e+00 -1.0000e+00
       -2 -1    0    0    0  501 -0.0000000000e+00 -0.0000000000e+00 -1.2203507406e+03 1.2203507406e+03 0.0000000000e+00 0.0000e+00 1.0000e+00
      -13  1    1    2    0    0 +1.6506909966e+03 -1.0803127731e+03 +1.0515001732e+03 2.2355109188e+03 0.0000000000e+00 0.0000e+00 1.0000e+00
       13  1    1    2    0    0 -1.6506909966e+03 +1.0803127731e+03 +9.2010897514e+02 2.1767997106e+03 0.0000000000e+00 0.0000e+00 -1.0000e+00
<mgrwt>
<rscale>  0 0.39473083E+04</rscale>
<asrwt>0</asrwt>
<pdfrwt beam="1">  1        2 0.49107075E+00 0.39473083E+04</pdfrwt>
<pdfrwt beam="2">  1       -2 0.18774627E+00 0.39473083E+04</pdfrwt>
<totfact> 0.18149804E-01</totfact>
</mgrwt>
<rwgt>
<wgt id='morphing_basis_vector_1'> +1.5569176e-05 </wgt>
<wgt id='morphing_basis_vector_2'> +1.1931243e-05 </wgt>
<wgt id='morphing_basis_vector_3'> +1.7395729e-05 </wgt>
<wgt id='morphing_basis_vector_4'> +1.0526139e-05 </wgt>
<wgt id='morphing_basis_vector_5'> +1.8735719e-05 </wgt>
</rwgt>
</event>
<event>
 4      1 +4.5322000e-10 4.04731500e+03 7.81860800e-03 7.53233400e-02
        2 -1    0    0  501    0 +0.0000000000e+00 +0.0000000000e+00 +2.0555862160e+03 2.0555862160e+03 0.0000000000e+00 0.0000e+00 -1.0000e+00
       -2 -1    0    0    0  501 -0.0000000000e+00 -0.0000000000e+00 -1.9922243851e+03 1.9922243851e+03 0.0000000000e+00 0.0000e+00 1.0000e+00
      -13  1    1    2    0    0 -8.4587343514e+02 +6.9762610922e+02 -1.6694110775e+03 1.9972774975e+03 0.0000000000e+00 0.0000e+00 1.0000e+00
       13  1    1    2    0    0 +8.4587343514e+02 -6.9762610922e+02 +1.7327729084e+03 2.0505331035e+03 0.0000000000e+00 0.0000e+00 -1.0000e+00
<mgrwt>
<rscale>  0 0.40473147E+04</rscale>
<asrwt>0</asrwt>
<pdfrwt beam="1">  1        2 0.31624403E+00 0.40473147E+04</pdfrwt>
<pdfrwt beam="2">  1       -2 0.30649606E+00 0.40473147E+04</pdfrwt>
<totfact> 0.13273294E-01</totfact>
</mgrwt>
<rwgt>
<wgt id='morphing_basis_vector_1'> +1.6528056e-05 </wgt>
<wgt id='morphing_basis_vector_2'> +1.1211163e-05 </wgt>
<wgt id='morphing_basis_vector_3'> +1.8149798e-05 </wgt>
<wgt id='morphing_basis_vector_4'> +1.3059835e-05 </wgt>
<wgt id='morphing_basis_vector_5'> +2.0836369e-05 </wgt>
</rwgt>
</event>
<event>
 4      1 +4.5322000e-10 4.43923800e+03 7.81860800e-03 7.46701700e-02
        2 -1    0    0  501    0 +0.0000000000e+00 +0.0000000000e+00 +1.6799748953e+03 1.6799748953e+03 0.0000000000e+00 0.0000e+00 -1.0000e+00
       -2 -1    0    0    0  501 -0.0000000000e+00 -0.0000000000e+00 -2.9326089551e+03 2.9326089551e+03 0.0000000000e+00 0.0000e+00 1.0000e+00
      -13  1    1    2    0    0 +8.2283002709e+02 -1.7587577170e+03 -1.7436838053e+03 2.6097339277e+03 0.0000000000e+00 0.0000e+00 1.0000e+00
       13  1    1    2    0    0 -8.2283002709e+02 +1.7587577170e+03 +4.9104974550e+02 2.0028499227e+03 0.0000000000e+00 0.0000e+00 -1.0000e+00
<mgrwt>
<rscale>  0 0.44392384E+04</rscale>
<asrwt>0</asrwt>
<pdfrwt beam="1">  1        2 0.25845768E+00 0.44392384E+04</pdfrwt>
<pdfrwt beam="2">  1       -2 0.45117061E+00 0.44392384E+04</pdfrwt>
<totfact> 0.23204775E-02</totfact>
</mgrwt>
<rwgt>
<wgt id='morphing_basis_vector_1'> +2.3989790e-05 </wgt>
<wgt id='morphing_basis_vector_2'> +1.6534814e-05 </wgt>
<wgt id='morphing_basis_vector_3'> +2.6441174e-05 </wgt>
<wgt id='morphing_basis_vector_4'> +1.8701149e-05 </wgt>
<wgt id='morphing_basis_vector_5'> +3.0187066e-05 </wgt>
</rwgt>
</event>
<event>
 4      1 +4.5322000e-10 4.06010000e+03 7.81860800e-03 7.53008700e-02
        2 -1    0    0  501    0 +0.0000000000e+00 +0.0000000000e+00 +2.1906568652e+03 2.1906568652e+03 0.0000000000e+00 0.0000e+00 -1.0000e+00
       -2 -1    0    0    0  501 -0.0000000000e+00 -0.0000000000e+00 -1.8812181783e+03 1.8812181783e+03 0.0000000000e+00 0.0000e+00 1.0000e+00
      -13  1    1    2    0    0 -5.7013124326e+02 -1.3302314047e+03 -1.2729745166e+03 1.9274411390e+03 0.0000000000e+00 0.0000e+00 1.0000e+00
       13  1    1    2    0    0 +5.7013124326e+02 +1.3302314047e+03 +1.5824132035e+03 2.1444339046e+03 0.0000000000e+00 0.0000e+00 -1.0000e+00
<mgrwt>
<rscale>  0 0.40601003E+04</rscale>
<asrwt>0</asrwt>
<pdfrwt beam="1">  1        2 0.33702413E+00 0.40601003E+04</pdfrwt>
<pdfrwt beam="2">  1       -2 0.28941818E+00 0.40601003E+04</pdfrwt>
<totfact> 0.14483640E-01</totfact>
</mgrwt>
<rwgt>
<wgt id='morphing_basis_vector_1'> +1.6752715e-05 </wgt>
<wgt id='morphing_basis_vector_2'> +1.1399866e-05 </wgt>
<wgt id='morphing_basis_vector_3'> +1.8405640e-05 </wgt>
<wgt id='morphing_basis_vector_4'> +1.3192841e-05 </wgt>
<wgt id='morphing_basis_vector_5'> +2.1099397e-05 </wgt>
</rwgt>
</event>
<event>
 4      1 +4.5322000e-10 4.19708500e+03 7.81860800e-03 7.50652200e-02
        2 -1    0    0  501    0 +0.0000000000e+00 +0.0000000000e+00 +2.3655899558e+03 2.3655899558e+03 0.0000000000e+00 0.0000e+00 -1.0000e+00
       -2 -1    0    0    0  501 -0.0000000000e+00 -0.0000000000e+00 -1.8616417093e+03 1.8616417093e+03 0.0000000000e+00 0.0000e+00 1.0000e+00
      -13  1    1    2    0    0 +1.4735188050e+02 -1.8617069421e+03 -7.1209264715e+02 1.9986848808e+03 0.0000000000e+00 0.0000e+00 1.0000e+00
       13  1    1    2    0    0 -1.4735188050e+02 +1.8617069421e+03 +1.2160408936e+03 2.2285467843e+03 0.0000000000e+00 0.0000e+00 -1.0000e+00
<mgrwt>
<rscale>  0 0.41970851E+04</rscale>
<asrwt>0</asrwt>
<pdfrwt beam="1">  1        2 0.36393692E+00 0.41970851E+04</pdfrwt>
<pdfrwt beam="2">  1       -2 0.28640642E+00 0.41970851E+04</pdfrwt>
<totfact> 0.11893489E-01</totfact>
</mgrwt>
<rwgt>
<wgt id='morphing_basis_vector_1'> +1.9201588e-05 </wgt>
<wgt id='morphing_basis_vector_2'> +1.3259101e-05 </wgt>
<wgt id='morphing_basis_vector_3'> +2.1151155e-05 </wgt>
<wgt id='morphing_basis_vector_4'> +1.4898290e-05 </wgt>
<wgt id='morphing_basis_vector_5'> +2.4094486e-05 </wgt>
</rwgt>
</event>
<event>
 4      1 +4.5322000e-10 4.22573200e+03 7.81860800e-03 7.50171000e-02
        2 -1    0    0  501    0 +0.0000000000e+00 +0.0000000000e+00 +4.1292526885e+03 4.1292526885e+03 0.0000000000e+00 0.0000e+00 -1.0000e+00
       -2 -1    0    0    0  501 -0.0000000000e+00 -0.0000000000e+00 -1.0811163698e+03 1.0811163698e+03 0.0000000000e+00 0.0000e+00 1.0000e+00
      -13  1    1    2    0    0 +1.7098422704e+03 -1.2496599247e+02 +1.4005690157e+00 1.7144034095e+03 0.0000000000e+00 0.0000e+00 1.0000e+00
       13  1    1    2    0    0 -1.7098422704e+03 +1.2496599247e+02 +3.0467357497e+03 3.4959656487e+03 0.0000000000e+00 0.0000e+00 -1.0000e+00
<mgrwt>
<rscale>  0 0.42257320E+04</rscale>
<asrwt>0</asrwt>
<pdfrwt beam="1">  1        2 0.63526964E+00 0.42257320E+04</pdfrwt>
<pdfrwt beam="2">  1       -2 0.16632560E+00 0.42257320E+04</pdfrwt>
<totfact> 0.48874036E-02</totfact>
</mgrwt>
<rwgt>
<wgt id='morphing_basis_vector_1'> +1.9673334e-05 </wgt>
<wgt id='morphing_basis_vector_2'> +1.3461319e-05 </wgt>
<wgt id='morphing_basis_vector_3'> +2.1645241e-05 </wgt>
<wgt id='morphing_basis_vector_4'> +1.5428464e-05 </wgt>
<wgt id='morphing_basis_vector_5'> +2.4771882e-05 </wgt>
</rwgt>
</event>
<event>
 4      1 +4.5322000e-10 3.94232900e+03 7.81860800e-03 7.55111500e-02
        2 -1    0    0  501    0 +0.0000000000e+00 +0.0000000000e+00 +3.8426569942e+03 3.8426569942e+03 0.0000000000e+00 0.0000e+00 -1.0000e+00
       -2 -1    0    0    0  501 -0.0000000000e+00 -0.0000000000e+00 -1.0111466474e+03 1.0111466474e+03 0.0000000000e+00 0.0000e+00 1.0000e+00
      -13  1    1    2    0    0 -4.1849074771e+02 +1.6515904841e+03 +1.9530905283e+02 1.7149435148e+03 0.0000000000e+00 0.0000e+00 1.0000e+00
       13  1    1    2    0    0 +4.1849074771e+02 -1.6515904841e+03 +2.6362012940e+03 3.1388601268e+03 0.0000000000e+00 0.0000e+00 -1.0000e+00
<mgrwt>
<rscale>  0 0.39423291E+04</rscale>
<asrwt>0</asrwt>
<pdfrwt beam="1">  1        2 0.59117799E+00 0.39423291E+04</pdfrwt>
<pdfrwt beam="2">  1       -2 0.15556102E+00 0.39423291E+04</pdfrwt>
<totfact> 0.10672579E-01</totfact>
</mgrwt>
<rwgt>
<wgt id='morphing_basis_vector_1'> +1.4947888e-05 </wgt>
<wgt id='morphing_basis_vector_2'> +1.0274260e-05 </wgt>
<wgt id='morphing_basis_vector_3'> +1.6437213e-05 </wgt>
<wgt id='morphing_basis_vector_4'> +1.1621358e-05 </wgt>
<wgt id='morphing_basis_vector_5'> +1.8736524e-05 </wgt>
</rwgt>
</event>
<event>
 4      1 +4.5322000e-10 4.11775100e+03 7.81860800e-03 7.52005600e-02
        2 -1    0    0  501    0 +0.0000000000e+00 +0.0000000000e+00 +2.4439318316e+03 2.4439318316e+03 0.0000000000e+00 0.0000e+00 -1.0000e+00
       -2 -1    0    0    0  501 -0.0000000000e+00 -0.0000000000e+00 -1.7344867335e+03 1.7344867335e+03 0.0000000000e+00 0.0000e+00 1.0000e+00
      -13  1    1    2    0    0 +3.2506553484e+02 -1.9073877303e+03 +1.0687745760e+03 2.2104467082e+03 0.0000000000e+00 0.0000e+00 1.0000e+00
       13  1    1    2    0    0 -3.2506553484e+02 +1.9073877303e+03 -3.5932947789e+02 1.9679718568e+03 0.0000000000e+00 0.0000e+00 -1.0000e+00
<mgrwt>
<rscale>  0 0.41177505E+04</rscale>
<asrwt>0</asrwt>
<pdfrwt beam="1">  1        2 0.37598952E+00 0.41177505E+04</pdfrwt>
<pdfrwt beam="2">  1       -2 0.26684411E+00 0.41177505E+04</pdfrwt>
<totfact> 0.14633134E-01</totfact>
</mgrwt>
<rwgt>
<wgt id='morphing_basis_vector_1'> +1.9758020e-05 </wgt>
<wgt id='morphing_basis_vector_2'> +1.8050249e-05 </wgt>
<wgt id='morphing_basis_vector_3'> +2.2749311e-05 </wgt>
<wgt id='morphing_basis_vector_4'> +9.6456666e-06 </wgt>
<wgt id='morphing_basis_vector_5'> +2.1969573e-05 </wgt>
</rwgt>
</event>
<event>
 4      1 +4.5322000e-10 3.87764500e+03 7.81860800e-03 7.56298500e-02
        2 -1    0    0  501    0 +0.0000000000e+00 +0.0000000000e+00 +2.3124435805e+03 2.3124435805e+03 0.0000000000e+00 0.0000e+00 -1.0000e+00
       -2 -1    0    0    0  501 -0.0000000000e+00 -0.0000000000e+00 -1.6255673833e+03 1.6255673833e+03 0.0000000000e+00 0.0000e+00 1.0000e+00
      -13  1    1    2    0    0 +7.3393159727e+01 -1.9193742309e+03 +7.5418909640e+01 1.9222570083e+03 0.0000000000e+00 0.0000e+00 1.0000e+00
       13  1    1    2    0    0 -7.3393159727e+01 +1.9193742309e+03 +6.1145728759e+02 2.0157539554e+03 0.0000000000e+00 0.0000e+00 -1.0000e+00
<mgrwt>
<rscale>  0 0.38776451E+04</rscale>
<asrwt>0</asrwt>
<pdfrwt beam="1">  1        2 0.35576055E+00 0.38776451E+04</pdfrwt>
<pdfrwt beam="2">  1       -2 0.25008729E+00 0.38776451E+04</pdfrwt>
<totfact> 0.23235114E-01</totfact>
</mgrwt>
<rwgt>
<wgt id='morphing_basis_vector_1'> +1.4243424e-05 </wgt>
<wgt id='morphing_basis_vector_2'> +1.0346043e-05 </wgt>
<wgt id='morphing_basis_vector_3'> +1.5781653e-05 </wgt>
<wgt id='morphing_basis_vector_4'> +1.0350262e-05 </wgt>
<wgt id='morphing_basis_vector_5'> +1.7487202e-05 </wgt>
</rwgt>
</event>
<event>
 4      1 +4.5322000e-10 4.51846400e+03 7.81860800e-03 7.45464300e-02
        2 -1    0    0  501    0 +0.0000000000e+00 +0.0000000000e+00 +3.1108973641e+03 3.1108973641e+03 0.0000000000e+00 0.0000e+00 -1.0000e+00
       -2 -1    0    0    0  501 -0.0000000000e+00 -0.0000000000e+00 -1.6407255265e+03 1.6407255265e+03 0.0000000000e+00 0.0000e+00 1.0000e+00
      -13  1    1    2    0    0 -1.1180208631e+03 +1.5804937436e+03 -4.8956593907e+02 1.9968990792e+03 0.0000000000e+00 0.0000e+00 1.0000e+00
       13  1    1    2    0    0 +1.1180208631e+03 -1.5804937436e+03 +1.9597377766e+03 2.7547238114e+03 0.0000000000e+00 0.0000e+00 -1.0000e+00
<mgrwt>
<rscale>  0 0.45184638E+04</rscale>
<asrwt>0</asrwt>
<pdfrwt beam="1">  1        2 0.47859959E+00 0.45184638E+04</pdfrwt>
<pdfrwt beam="2">  1       -2 0.25241931E+00 0.45184638E+04</pdfrwt>
<totfact> 0.68021366E-02</totfact>
</mgrwt>
<rwgt>
<wgt id='morphing_basis_vector_1'> +2.5722519e-05 </wgt>
<wgt id='morphing_basis_vector_2'> +1.7689944e-05 </wgt>
<wgt id='morphing_basis_vector_3'> +2.8349120e-05 </wgt>
<wgt id='morphing_basis_vector_4'> +2.0117650e-05 </wgt>
<wgt id='morphing_basis_vector_5'> +3.2412782e-05 </wgt>
</rwgt>
</event>
<event>
 4      1 +4.5322000e-10 4.21836000e+03 7.81860800e-03 7.50294400e-02
        2 -1    0    0  501    0 +0.0000000000e+00 +0.0000000000e+00 +3.1282244787e+03 3.1282244787e+03 0.0000000000e+00 0.0000e+00 1.0000e+00
       -2 -1    0    0    0  501 -0.0000000000e+00 -0.0000000000e+00 -1.4220976489e+03 1.4220976489e+03 0.0000000000e+00 0.0000e+00 -1.0000e+00
      -13  1    1    2    0    0 +1.4795515982e+03 +3.3386941167e+02 -7.2791385117e+02 1.6823793540e+03 0.0000000000e+00 0.0000e+00 -1.0000e+00
       13  1    1    2    0    0 -1.4795515982e+03 -3.3386941167e+02 +2.4340406810e+03 2.8679427736e+03 0.0000000000e+00 0.0000e+00 1.0000e+00
<mgrwt>
<rscale>  0 0.42183602E+04</rscale>
<asrwt>0</asrwt>
<pdfrwt beam="1">  1        2 0.48126530E+00 0.42183602E+04</pdfrwt>
<pdfrwt beam="2">  1       -2 0.21878425E+00 0.42183602E+04</pdfrwt>
<totfact> 0.11657067E-01</totfact>
</mgrwt>
<rwgt>
<wgt id='morphing_basis_vector_1'> +1.9508425e-05 </wgt>
<wgt id='morphing_basis_vector_2'> +1.3283714e-05 </wgt>
<wgt id='morphing_basis_vector_3'> +2.1448576e-05 </wgt>
<wgt id='morphing_basis_vector_4'> +1.5381273e-05 </wgt>
<wgt id='morphing_basis_vector_5'> +2.4603773e-05 </wgt>
</rwgt>
</event>
<event>
 4      1 +4.5322000e-10 3.88126400e+03 7.81860800e-03 7.56231500e-02
        2 -1    0    0  501    0 +0.0000000000e+00 +0.0000000000e+00 +2.7982525797e+03 2.7982525797e+03 0.0000000000e+00 0.0000e+00 -1.0000e+00
       -2 -1    0    0    0  501 -0.0000000000e+00 -0.0000000000e+00 -1.3458586730e+03 1.3458586730e+03 0.0000000000e+00 0.0000e+00 1.0000e+00
      -13  1    1    2    0    0 -2.6849223774e+02 -1.9191833480e+03 +6.1575247734e+02 2.0333479580e+03 0.0000000000e+00 0.0000e+00 1.0000e+00
       13  1    1    2    0    0 +2.6849223774e+02 +1.9191833480e+03 +8.3664142937e+02 2.1107632947e+03 0.0000000000e+00 0.0000e+00 -1.0000e+00
<mgrwt>
<rscale>  0 0.38812640E+04</rscale>
<asrwt>0</asrwt>
<pdfrwt beam="1">  1        2 0.43050039E+00 0.38812640E+04</pdfrwt>
<pdfrwt beam="2">  1       -2 0.20705518E+00 0.38812640E+04</pdfrwt>
<totfact> 0.23777351E-01</totfact>
</mgrwt>
<rwgt>
<wgt id='morphing_basis_vector_1'> +1.4409593e-05 </wgt>
<wgt id='morphing_basis_vector_2'> +1.0717451e-05 </wgt>
<wgt id='morphing_basis_vector_3'> +1.6021941e-05 </wgt>
<wgt id='morphing_basis_vector_4'> +1.0149984e-05 </wgt>
<wgt id='morphing_basis_vector_5'> +1.7533014e-05 </wgt>
</rwgt>
</event>
<event>
 4      1 +4.5322000e-10 3.88724800e+03 7.81860800e-03 7.56120800e-02
        2 -1    0    0  501    0 +0.0000000000e+00 +0.0000000000e+00 +1.6495604151e+03 1.6495604151e+03 0.0000000000e+00 0.0000e+00 -1.0000e+00
       -2 -1    0    0    0  501 -0.0000000000e+00 -0.0000000000e+00 -2.2901102242e+03 2.2901102242e+03 0.0000000000e+00 0.0000e+00 1.0000e+00
      -13  1    1    2    0    0 -1.8643016387e+03 +4.6930642513e+02 -6.1014961567e+02 2.0169659577e+03 0.0000000000e+00 0.0000e+00 1.0000e+00
       13  1    1    2    0    0 +1.8643016387e+03 -4.6930642513e+02 -3.0400193395e+01 1.9227046816e+03 0.0000000000e+00 0.0000e+00 -1.0000e+00
<mgrwt>
<rscale>  0 0.38872485E+04</rscale>
<asrwt>0</asrwt>
<pdfrwt beam="1">  1        2 0.25377853E+00 0.38872485E+04</pdfrwt>
<pdfrwt beam="2">  1       -2 0.35232465E+00 0.38872485E+04</pdfrwt>
<totfact> 0.11293419E-01</totfact>
</mgrwt>
<rwgt>
<wgt id='morphing_basis_vector_1'> +1.4371310e-05 </wgt>
<wgt id='morphing_basis_vector_2'> +1.0410535e-05 </wgt>
<wgt id='morphing_basis_vector_3'> +1.5917809e-05 </wgt>
<wgt id='morphing_basis_vector_4'> +1.0481100e-05 </wgt>
<wgt id='morphing_basis_vector_5'> +1.7664278e-05 </wgt>
</rwgt>
</event>
<event>
 4      1 +4.5322000e-10 3.94001600e+03 7.81860800e-03 7.55153500e-02
        2 -1    0    0  501    0 +0.0000000000e+00 +0.0000000000e+00 +2.7073740572e+03 2.7073740572e+03 0.0000000000e+00 0.0000e+00 -1.0000e+00
       -2 -1    0    0    0  501 -0.0000000000e+00 -0.0000000000e+00 -1.4334673595e+03 1.4334673595e+03 0.0000000000e+00 0.0000e+00 1.0000e+00
      -13  1    1    2    0    0 -9.7120878244e+02 -1.6463378356e+03 +1.1379672191e+03 2.2245548228e+03 0.0000000000e+00 0.0000e+00 1.0000e+00
       13  1    1    2    0    0 +9.7120878244e+02 +1.6463378356e+03 +1.3593947861e+02 1.9162865939e+03 0.0000000000e+00 0.0000e+00 -1.0000e+00
<mgrwt>
<rscale>  0 0.39400164E+04</rscale>
<asrwt>0</asrwt>
<pdfrwt beam="1">  1        2 0.41651908E+00 0.39400164E+04</pdfrwt>
<pdfrwt beam="2">  1       -2 0.22053344E+00 0.39400164E+04</pdfrwt>
<totfact> 0.21589389E-01</totfact>
</mgrwt>
<rwgt>
<wgt id='morphing_basis_vector_1'> +1.6103650e-05 </wgt>
<wgt id='morphing_basis_vector_2'> +1.3750184e-05 </wgt>
<wgt id='morphing_basis_vector_3'> +1.8307154e-05 </wgt>
<wgt id='morphing_basis_vector_4'> +9.0771288e-06 </wgt>
<wgt id='morphing_basis_vector_5'> +1.8482799e-05 </wgt>
</rwgt>
</event>
<event>
 4      1 +4.5322000e-10 4.49113000e+03 7.81860800e-03 7.45888300e-02
        2 -1    0    0  501    0 +0.0000000000e+00 +0.0000000000e+00 +2.2659850972e+03 2.2659850972e+03 0.0000000000e+00 0.0000e+00 -1.0000e+00
       -2 -1    0    0    0  501 -0.0000000000e+00 -0.0000000000e+00 -2.2253290550e+03 2.2253290550e+03 0.0000000000e+00 0.0000e+00 1.0000e+00
      -13  1    1    2    0    0 -2.0273991755e+03 +7.4381367384e+02 -5.9529144883e+02 2.2400843973e+03 0.0000000000e+00 0.0000e+00 1.0000e+00
       13  1    1    2    0    0 +2.0273991755e+03 -7.4381367384e+02 +6.3594749103e+02 2.2512297549e+03 0.0000000000e+00 0.0000e+00 -1.0000e+00
<mgrwt>
<rscale>  0 0.44911301E+04</rscale>
<asrwt>0</asrwt>
<pdfrwt beam="1">  1        2 0.34861309E+00 0.44911301E+04</pdfrwt>
<pdfrwt beam="2">  1       -2 0.34235832E+00 0.44911301E+04</pdfrwt>
<totfact> 0.56224946E-02</totfact>
</mgrwt>
<rwgt>
<wgt id='morphing_basis_vector_1'> +2.5324999e-05 </wgt>
<wgt id='morphing_basis_vector_2'> +1.7903390e-05 </wgt>
<wgt id='morphing_basis_vector_3'> +2.8019636e-05 </wgt>
<wgt id='morphing_basis_vector_4'> +1.9172926e-05 </wgt>
<wgt id='morphing_basis_vector_5'> +3.1594066e-05 </wgt>
</rwgt>
</event>
<event>
 4      1 +4.5322000e-10 4.35861200e+03 7.81860800e-03 7.47988100e-02
        2 -1    0    0  501    0 +0.0000000000e+00 +0.0000000000e+00 +3.2490891496e+03 3.2490891496e+03 0.0000000000e+00 0.0000e+00 1.0000e+00
       -2 -1    0    0    0  501 -0.0000000000e+00 -0.0000000000e+00 -1.4617555480e+03 1.4617555480e+03 0.0000000000e+00 0.0000e+00 -1.0000e+00
      -13  1    1    2    0    0 -1.3022870813e+03 +1.5515670974e+03 +1.7624025584e+03 2.6850279100e+03 0.0000000000e+00 0.0000e+00 -1.0000e+00
       13  1    1    2    0    0 +1.3022870813e+03 -1.5515670974e+03 +2.4931043152e+01 2.0258167876e+03 0.0000000000e+00 0.0000e+00 1.0000e+00
<mgrwt>
<rscale>  0 0.43586117E+04</rscale>
<asrwt>0</asrwt>
<pdfrwt beam="1">  1        2 0.49985987E+00 0.43586117E+04</pdfrwt>
<pdfrwt beam="2">  1       -2 0.22488547E+00 0.43586117E+04</pdfrwt>
<totfact> 0.86396593E-02</totfact>
</mgrwt>
<rwgt>
<wgt id='morphing_basis_vector_1'> +2.5001594e-05 </wgt>
<wgt id='morphing_basis_vector_2'> +2.3303333e-05 </wgt>
<wgt id='morphing_basis_vector_3'> +2.8927393e-05 </wgt>
<wgt id='morphing_basis_vector_4'> +1.1642955e-05 </wgt>
<wgt id='morphing_basis_vector_5'> +2.7565831e-05 </wgt>
</rwgt>
</event>
<event>
 4      1 +4.5322000e-10 3.98450000e+03 7.81860800e-03 7.54350000e-02
        2 -1    0    0  501    0 +0.0000000000e+00 +0.0000000000e+00 +3.6394563613e+03 3.6394563613e+03 0.0000000000e+00 0.0000e+00 -1.0000e+00
       -2 -1    0    0    0  501 -0.0000000000e+00 -0.0000000000e+00 -1.0905642111e+03 1.0905642111e+03 0.0000000000e+00 0.0000e+00 1.0000e+00
      -13  1    1    2    0    0 -6.0272069019e+02 -1.8178657206e+03 +6.2299374505e+02 2.0139585932e+03 0.0000000000e+00 0.0000e+00 1.0000e+00
       13  1    1    2    0    0 +6.0272069019e+02 +1.8178657206e+03 +1.9258984051e+03 2.7160619793e+03 0.0000000000e+00 0.0000e+00 -1.0000e+00
<mgrwt>
<rscale>  0 0.39845004E+04</rscale>
<asrwt>0</asrwt>
<pdfrwt beam="1">  1        2 0.55991636E+00 0.39845004E+04</pdfrwt>
<pdfrwt beam="2">  1       -2 0.16777911E+00 0.39845004E+04</pdfrwt>
<totfact> 0.12269103E-01</totfact>
</mgrwt>
<rwgt>
<wgt id='morphing_basis_vector_1'> +1.5723371e-05 </wgt>
<wgt id='morphing_basis_vector_2'> +1.1099244e-05 </wgt>
<wgt id='morphing_basis_vector_3'> +1.7358644e-05 </wgt>
<wgt id='morphing_basis_vector_4'> +1.1856338e-05 </wgt>
<wgt id='morphing_basis_vector_5'> +1.9532656e-05 </wgt>
</rwgt>
</event>
<event>
 4      1 +4.5322000e-10 3.86618100e+03 7.81860800e-03 7.56511400e-02
        2 -1    0    0  501    0 +0.0000000000e+00 +0.0000000000e+00 +2.6198781672e+03 2.6198781672e+03 0.0000000000e+00 0.0000e+00 -1.0000e+00
       -2 -1    0    0    0  501 -0.0000000000e+00 -0.0000000000e+00 -1.4263403847e+03 1.4263403847e+03 0.0000000000e+00 0.0000e+00 1.0000e+00
      -13  1    1    2    0    0 -1.8734562266e+03 +1.4087896995e+02 +1.2043363299e+02 1.8826017575e+03 0.0000000000e+00 0.0000e+00 1.0000e+00
       13  1    1    2    0    0 +1.8734562266e+03 -1.4087896995e+02 +1.0731041496e+03 2.1636167944e+03 0.0000000000e+00 0.0000e+00 -1.0000e+00
<mgrwt>
<rscale>  0 0.38661806E+04</rscale>
<asrwt>0</asrwt>
<pdfrwt beam="1">  1        2 0.40305818E+00 0.38661806E+04</pdfrwt>
<pdfrwt beam="2">  1       -2 0.21943698E+00 0.38661806E+04</pdfrwt>
<totfact> 0.25017650E-01</totfact>
</mgrwt>
<rwgt>
<wgt id='morphing_basis_vector_1'> +1.3977627e-05 </wgt>
<wgt id='morphing_basis_vector_2'> +9.9334691e-06 </wgt>
<wgt id='morphing_basis_vector_3'> +1.5437341e-05 </wgt>
<wgt id='morphing_basis_vector_4'> +1.0436896e-05 </wgt>
<wgt id='morphing_basis_vector_5'> +1.7297632e-05 </wgt>
</rwgt>
</event>
<event>
 4      1 +4.5322000e-10 3.87323600e+03 7.81860800e-03 7.56380300e-02
        2 -1    0    0  501    0 +0.0000000000e+00 +0.0000000000e+00 +2.4740687616e+03 2.4740687616e+03 0.0000000000e+00 0.0000e+00 1.0000e+00
       -2 -1    0    0    0  501 -0.0000000000e+00 -0.0000000000e+00 -1.5159198616e+03 1.5159198616e+03 0.0000000000e+00 0.0000e+00 -1.0000e+00
      -13  1    1    2    0    0 -1.6169390535e+03 +8.2825048994e+02 -2.1196609150e+02 1.8290490427e+03 0.0000000000e+00 0.0000e+00 -1.0000e+00
       13  1    1    2    0    0 +1.6169390535e+03 -8.2825048994e+02 +1.1701149916e+03 2.1609395804e+03 0.0000000000e+00 0.0000e+00 1.0000e+00
<mgrwt>
<rscale>  0 0.38732364E+04</rscale>
<asrwt>0</asrwt>
<pdfrwt beam="1">  1        2 0.38062596E+00 0.38732364E+04</pdfrwt>
<pdfrwt beam="2">  1       -2 0.23321844E+00 0.38732364E+04</pdfrwt>
<totfact> 0.24467694E-01</totfact>
</mgrwt>
<rwgt>
<wgt id='morphing_basis_vector_1'> +1.4001363e-05 </wgt>
<wgt id='morphing_basis_vector_2'> +9.7766410e-06 </wgt>
<wgt id='morphing_basis_vector_3'> +1.5425415e-05 </wgt>
<wgt id='morphing_basis_vector_4'> +1.0678492e-05 </wgt>
<wgt id='morphing_basis_vector_5'> +1.7438637e-05 </wgt>
</rwgt>
</event>
<event>
 4      1 +4.5322000e-10 3.88554200e+03 7.81860800e-03 7.56152400e-02
        2 -1    0    0  501    0 +0.0000000000e+00 +0.0000000000e+00 +1.7841909537e+03 1.7841909537e+03 0.0000000000e+00 0.0000e+00 -1.0000e+00
       -2 -1    0    0    0  501 -0.0000000000e+00 -0.0000000000e+00 -2.1154455696e+03 2.1154455696e+03 0.0000000000e+00 0.0000e+00 1.0000e+00
      -13  1    1    2    0    0 +1.3295227196e+03 -1.4145554881e+03 -2.4180360687e+02 1.9562890572e+03 0.0000000000e+00 0.0000e+00 1.0000e+00
       13  1    1    2    0    0 -1.3295227196e+03 +1.4145554881e+03 -8.9451009106e+01 1.9433474661e+03 0.0000000000e+00 0.0000e+00 -1.0000e+00
<mgrwt>
<rscale>  0 0.38855418E+04</rscale>
<asrwt>0</asrwt>
<pdfrwt beam="1">  1        2 0.27449092E+00 0.38855418E+04</pdfrwt>
<pdfrwt beam="2">  1       -2 0.32545316E+00 0.38855418E+04</pdfrwt>
<totfact> 0.14264829E-01</totfact>
</mgrwt>
<rwgt>
<wgt id='morphing_basis_vector_1'> +1.4495713e-05 </wgt>
<wgt id='morphing_basis_vector_2'> +1.0831778e-05 </wgt>
<wgt id='morphing_basis_vector_3'> +1.6129268e-05 </wgt>
<wgt id='morphing_basis_vector_4'> +1.0146798e-05 </wgt>
<wgt id='morphing_basis_vector_5'> +1.7606832e-05 </wgt>
</rwgt>
</event>
<event>
 4      1 +4.5322000e-10 3.89182300e+03 7.81860800e-03 7.56036300e-02
        2 -1    0    0  501    0 +0.0000000000e+00 +0.0000000000e+00 +3.7173811690e+03 3.7173811690e+03 0.0000000000e+00 0.0000e+00 -1.0000e+00
       -2 -1    0    0    0  501 -0.0000000000e+00 -0.0000000000e+00 -1.0186127576e+03 1.0186127576e+03 0.0000000000e+00 0.0000e+00 1.0000e+00
      -13  1    1    2    0    0 +1.0770361353e+03 +8.5196396322e+02 -3.2832771608e+02 1.4119661895e+03 0.0000000000e+00 0.0000e+00 1.0000e+00
       13  1    1    2    0    0 -1.0770361353e+03 -8.5196396322e+02 +3.0270961275e+03 3.3240277370e+03 0.0000000000e+00 0.0000e+00 -1.0000e+00
<mgrwt>
<rscale>  0 0.38918232E+04</rscale>
<asrwt>0</asrwt>
<pdfrwt beam="1">  1        2 0.57190479E+00 0.38918232E+04</pdfrwt>
<pdfrwt beam="2">  1       -2 0.15670966E+00 0.38918232E+04</pdfrwt>
<totfact> 0.13187029E-01</totfact>
</mgrwt>
<rwgt>
<wgt id='morphing_basis_vector_1'> +1.4154740e-05 </wgt>
<wgt id='morphing_basis_vector_2'> +9.6246805e-06 </wgt>
<wgt id='morphing_basis_vector_3'> +1.5538056e-05 </wgt>
<wgt id='morphing_basis_vector_4'> +1.1130755e-05 </wgt>
<wgt id='morphing_basis_vector_5'> +1.7797951e-05 </wgt>
</rwgt>
</event>
<event>
 4      1 +4.5322000e-10 4.06376800e+03 7.81860800e-03 7.52944400e-02
        2 -1    0    0  501    0 +0.0000000000e+00 +0.0000000000e+00 +4.1041040657e+03 4.1041040657e+03 0.0000000000e+00 0.0000e+00 1.0000e+00
       -2 -1    0    0    0  501 -0.0000000000e+00 -0.0000000000e+00 -1.0059569849e+03 1.0059569849e+03 0.0000000000e+00 0.0000e+00 -1.0000e+00
      -13  1    1    2    0    0 +1.7934788992e+03 +7.9697536732e+00 +3.4825863650e+02 1.8269959378e+03 0.0000000000e+00 0.0000e+00 -1.0000e+00
       13  1    1    2    0    0 -1.7934788992e+03 -7.9697536732e+00 +2.7498884444e+03 3.2830651129e+03 0.0000000000e+00 0.0000e+00 1.0000e+00
<mgrwt>
<rscale>  0 0.40637678E+04</rscale>
<asrwt>0</asrwt>
<pdfrwt beam="1">  1        2 0.63140062E+00 0.40637678E+04</pdfrwt>
<pdfrwt beam="2">  1       -2 0.15476261E+00 0.40637678E+04</pdfrwt>
<totfact> 0.64515727E-02</totfact>
</mgrwt>
<rwgt>
<wgt id='morphing_basis_vector_1'> +1.6879837e-05 </wgt>
<wgt id='morphing_basis_vector_2'> +1.1637394e-05 </wgt>
<wgt id='morphing_basis_vector_3'> +1.8579513e-05 </wgt>
<wgt id='morphing_basis_vector_4'> +1.3099393e-05 </wgt>
<wgt id='morphing_basis_vector_5'> +2.1164318e-05 </wgt>
</rwgt>
</event>
<event>
 4      1 +4.5322000e-10 3.94665700e+03 7.81860800e-03 7.55032900e-02
        2 -1    0    0  501    0 +0.0000000000e+00 +0.0000000000e+00 +1.9417842432e+03 1.9417842432e+03 0.0000000000e+00 0.0000e+00 -1.0000e+00
       -2 -1    0    0    0  501 -0.0000000000e+00 -0.0000000000e+00 -2.0053849499e+03 2.0053849499e+03 0.0000000000e+00 0.0000e+00 1.0000e+00
      -13  1    1    2    0    0 +2.1248924325e+02 -1.0929071840e+03 -1.6612531602e+03 1.9998399570e+03 0.0000000000e+00 0.0000e+00 1.0000e+00
       13  1    1    2    0    0 -2.1248924325e+02 +1.0929071840e+03 +1.5976524536e+03 1.9473292361e+03 0.0000000000e+00 0.0000e+00 -1.0000e+00
<mgrwt>
<rscale>  0 0.39466568E+04</rscale>
<asrwt>0</asrwt>
<pdfrwt beam="1">  1        2 0.29873604E+00 0.39466568E+04</pdfrwt>
<pdfrwt beam="2">  1       -2 0.30852076E+00 0.39466568E+04</pdfrwt>
<totfact> 0.15029971E-01</totfact>
</mgrwt>
<rwgt>
<wgt id='morphing_basis_vector_1'> +1.4952868e-05 </wgt>
<wgt id='morphing_basis_vector_2'> +1.0141753e-05 </wgt>
<wgt id='morphing_basis_vector_3'> +1.6412634e-05 </wgt>
<wgt id='morphing_basis_vector_4'> +1.1800447e-05 </wgt>
<wgt id='morphing_basis_vector_5'> +1.8829988e-05 </wgt>
</rwgt>
</event>
<event>
 4      1 +4.5322000e-10 3.88009500e+03 7.81860800e-03 7.56253200e-02
        2 -1    0    0  501    0 +0.0000000000e+00 +0.0000000000e+00 +3.2317095437e+03 3.2317095437e+03 0.0000000000e+00 0.0000e+00 -1.0000e+00
       -2 -1    0    0    0  501 -0.0000000000e+00 -0.0000000000e+00 -1.1646417550e+03 1.1646417550e+03 0.0000000000e+00 0.0000e+00 1.0000e+00
      -13  1    1    2    0    0 -7.3918500475e+02 +2.0471750694e+01 -9.9869948514e+02 1.2426641644e+03 0.0000000000e+00 0.0000e+00 1.0000e+00
       13  1    1    2    0    0 +7.3918500475e+02 -2.0471750694e+01 +3.0657672738e+03 3.1536871343e+03 0.0000000000e+00 0.0000e+00 -1.0000e+00
<mgrwt>
<rscale>  0 0.38800948E+04</rscale>
<asrwt>0</asrwt>
<pdfrwt beam="1">  1        2 0.49718608E+00 0.38800948E+04</pdfrwt>
<pdfrwt beam="2">  1       -2 0.17917566E+00 0.38800948E+04</pdfrwt>
<totfact> 0.19892195E-01</totfact>
</mgrwt>
<rwgt>
<wgt id='morphing_basis_vector_1'> +1.3970127e-05 </wgt>
<wgt id='morphing_basis_vector_2'> +9.4633598e-06 </wgt>
<wgt id='morphing_basis_vector_3'> +1.5326570e-05 </wgt>
<wgt id='morphing_basis_vector_4'> +1.1029612e-05 </wgt>
<wgt id='morphing_basis_vector_5'> +1.7586014e-05 </wgt>
</rwgt>
</event>
<event>
 4      1 +4.5322000e-10 3.98350000e+03 7.81860800e-03 7.54368000e-02
        2 -1    0    0  501    0 +0.0000000000e+00 +0.0000000000e+00 +3.1103451644e+03 3.1103451644e+03 0.0000000000e+00 0.0000e+00 1.0000e+00
       -2 -1    0    0    0  501 -0.0000000000e+00 -0.0000000000e+00 -1.2754431039e+03 1.2754431039e+03 0.0000000000e+00 0.0000e+00 -1.0000e+00
      -13  1    1    2    0    0 -9.2535638592e+02 -1.0180650991e+03 +2.5031526487e+03 2.8563112873e+03 0.0000000000e+00 0.0000e+00 1.0000e+00
       13  1    1    2    0    0 +9.2535638592e+02 +1.0180650991e+03 -6.6825058812e+02 1.5294769810e+03 0.0000000000e+00 0.0000e+00 -1.0000e+00
<mgrwt>
<rscale>  0 0.39835001E+04</rscale>
<asrwt>0</asrwt>
<pdfrwt beam="1">  1        2 0.47851464E+00 0.39835001E+04</pdfrwt>
<pdfrwt beam="2">  1       -2 0.19622202E+00 0.39835001E+04</pdfrwt>
<totfact> 0.17767337E-01</totfact>
</mgrwt>
<rwgt>
<wgt id='morphing_basis_vector_1'> +2.0169883e-05 </wgt>
<wgt id='morphing_basis_vector_2'> +2.4204529e-05 </wgt>
<wgt id='morphing_basis_vector_3'> +2.4498846e-05 </wgt>
<wgt id='morphing_basis_vector_4'> +2.4074583e-06 </wgt>
<wgt id='morphing_basis_vector_5'> +1.8726848e-05 </wgt>
</rwgt>
</event>
<event>
 4      1 +4.5322000e-10 4.01492000e+03 7.81860800e-03 7.53806700e-02
        2 -1    0    0  501    0 +0.0000000000e+00 +0.0000000000e+00 +2.8791308347e+03 2.8791308347e+03 0.0000000000e+00 0.0000e+00 -1.0000e+00
       -2 -1    0    0    0  501 -0.0000000000e+00 -0.0000000000e+00 -1.3996916796e+03 1.3996916796e+03 0.0000000000e+00 0.0000e+00 1.0000e+00
      -13  1    1    2    0    0 +1.7326912217e+03 +1.5723128077e+02 +1.8070234722e+03 2.5084406261e+03 0.0000000000e+00 0.0000e+00 1.0000e+00
       13  1    1    2    0    0 -1.7326912217e+03 -1.5723128077e+02 -3.2758431710e+02 1.7703818883e+03 0.0000000000e+00 0.0000e+00 -1.0000e+00
<mgrwt>
<rscale>  0 0.40149199E+04</rscale>
<asrwt>0</asrwt>
<pdfrwt beam="1">  1        2 0.44294320E+00 0.40149199E+04</pdfrwt>
<pdfrwt beam="2">  1       -2 0.21533718E+00 0.40149199E+04</pdfrwt>
<totfact> 0.18231049E-01</totfact>
</mgrwt>
<rwgt>
<wgt id='morphing_basis_vector_1'> +1.8947988e-05 </wgt>
<wgt id='morphing_basis_vector_2'> +1.9499337e-05 </wgt>
<wgt id='morphing_basis_vector_3'> +2.2294394e-05 </wgt>
<wgt id='morphing_basis_vector_4'> +6.4247428e-06 </wgt>
<wgt id='morphing_basis_vector_5'> +1.9655794e-05 </wgt>
</rwgt>
</event>
<event>
 4      1 +4.5322000e-10 4.02145700e+03 7.81860800e-03 7.53690600e-02
        2 -1    0    0  501    0 +0.0000000000e+00 +0.0000000000e+00 +1.6964550270e+03 1.6964550270e+03 0.0000000000e+00 0.0000e+00 -1.0000e+00
       -2 -1    0    0    0  501 -0.0000000000e+00 -0.0000000000e+00 -2.3832221433e+03 2.3832221433e+03 0.0000000000e+00 0.0000e+00 1.0000e+00
      -13  1    1    2    0    0 +1.2528380535e+03 +1.1976992831e+03 -1.3774253814e+03 2.2139077312e+03 0.0000000000e+00 0.0000e+00 1.0000e+00
       13  1    1    2    0    0 -1.2528380535e+03 -1.1976992831e+03 +6.9065826507e+02 1.8657694391e+03 0.0000000000e+00 0.0000e+00 -1.0000e+00
<mgrwt>
<rscale>  0 0.40214570E+04</rscale>
<asrwt>0</asrwt>
<pdfrwt beam="1">  1        2 0.26099308E+00 0.40214570E+04</pdfrwt>
<pdfrwt beam="2">  1       -2 0.36664956E+00 0.40214570E+04</pdfrwt>
<totfact> 0.85078387E-02</totfact>
</mgrwt>
<rwgt>
<wgt id='morphing_basis_vector_1'> +1.6176446e-05 </wgt>
<wgt id='morphing_basis_vector_2'> +1.1118002e-05 </wgt>
<wgt id='morphing_basis_vector_3'> +1.7794332e-05 </wgt>
<wgt id='morphing_basis_vector_4'> +1.2590922e-05 </wgt>
<wgt id='morphing_basis_vector_5'> +2.0295031e-05 </wgt>
</rwgt>
</event>
<event>
 4      1 +4.5322000e-10 4.00011200e+03 7.81860800e-03 7.54070600e-02
        2 -1    0    0  501    0 +0.0000000000e+00 +0.0000000000e+00 +1.5577031382e+03 1.5577031382e+03 0.0000000000e+00 0.0000e+00 1.0000e+00
       -2 -1    0    0    0  501 -0.0000000000e+00 -0.0000000000e+00 -2.5680271061e+03 2.5680271061e+03 0.0000000000e+00 0.0000e+00 -1.0000e+00
      -13  1    1    2    0    0 -4.3020769374e+02 +1.0529546488e+03 -2.2019485698e+03 2.4783804503e+03 0.0000000000e+00 0.0000e+00 -1.0000e+00
       13  1    1    2    0    0 +4.3020769374e+02 -1.0529546488e+03 +1.1916246019e+03 1.6473497941e+03 0.0000000000e+00 0.0000e+00 1.0000e+00
<mgrwt>
<rscale>  0 0.40001119E+04</rscale>
<asrwt>0</asrwt>
<pdfrwt beam="1">  1        2 0.23964664E+00 0.40001119E+04</pdfrwt>
<pdfrwt beam="2">  1       -2 0.39508109E+00 0.40001119E+04</pdfrwt>
<totfact> 0.66746767E-02</totfact>
</mgrwt>
<rwgt>
<wgt id='morphing_basis_vector_1'> +1.5775408e-05 </wgt>
<wgt id='morphing_basis_vector_2'> +1.0701963e-05 </wgt>
<wgt id='morphing_basis_vector_3'> +1.7320103e-05 </wgt>
<wgt id='morphing_basis_vector_4'> +1.2455679e-05 </wgt>
<wgt id='morphing_basis_vector_5'> +1.9876407e-05 </wgt>
</rwgt>
</event>
<event>
 4      1 +4.5322000e-10 3.96701500e+03 7.81860800e-03 7.54664600e-02
        2 -1    0    0  501    0 +0.0000000000e+00 +0.0000000000e+00 +2.6423237485e+03 2.6423237485e+03 0.0000000000e+00 0.0000e+00 1.0000e+00
       -2 -1    0    0    0  501 -0.0000000000e+00 -0.0000000000e+00 -1.4889554811e+03 1.4889554811e+03 0.0000000000e+00 0.0000e+00 -1.0000e+00
      -13  1    1    2    0    0 -6.7146028350e+02 -6.8926859876e+01 -1.3656713246e+03 1.5233738843e+03 0.0000000000e+00 0.0000e+00 -1.0000e+00
       13  1    1    2    0    0 +6.7146028350e+02 +6.8926859876e+01 +2.5190395920e+03 2.6079053454e+03 0.0000000000e+00 0.0000e+00 1.0000e+00
<mgrwt>
<rscale>  0 0.39670152E+04</rscale>
<asrwt>0</asrwt>
<pdfrwt beam="1">  1        2 0.40651135E+00 0.39670152E+04</pdfrwt>
<pdfrwt beam="2">  1       -2 0.22907007E+00 0.39670152E+04</pdfrwt>
<totfact> 0.20557553E-01</totfact>
</mgrwt>
<rwgt>
<wgt id='morphing_basis_vector_1'> +1.5257063e-05 </wgt>
<wgt id='morphing_basis_vector_2'> +1.0337241e-05 </wgt>
<wgt id='morphing_basis_vector_3'> +1.6745634e-05 </wgt>
<wgt id='morphing_basis_vector_4'> +1.2057809e-05 </wgt>
<wgt id='morphing_basis_vector_5'> +1.9224438e-05 </wgt>
</rwgt>
</event>
<event>
 4      1 +4.5322000e-10 4.11084200e+03 7.81860800e-03 7.52124900e-02
        2 -1    0    0  501    0 +0.0000000000e+00 +0.0000000000e+00 +2.0511419415e+03 2.0511419415e+03 0.0000000000e+00 0.0000e+00 1.0000e+00
       -2 -1    0    0    0  501 -0.0000000000e+00 -0.0000000000e+00 -2.0597085894e+03 2.0597085894e+03 0.0000000000e+00 0.0000e+00 -1.0000e+00
      -13  1    1    2    0    0 -1.3353322749e+03 -8.0856504981e+02 -1.3413968999e+03 2.0582116915e+03 0.0000000000e+00 0.0000e+00 -1.0000e+00
       13  1    1    2    0    0 +1.3353322749e+03 +8.0856504981e+02 +1.3328302520e+03 2.0526388394e+03 0.0000000000e+00 0.0000e+00 1.0000e+00
<mgrwt>
<rscale>  0 0.41108416E+04</rscale>
<asrwt>0</asrwt>
<pdfrwt beam="1">  1        2 0.31556030E+00 0.41108416E+04</pdfrwt>
<pdfrwt beam="2">  1       -2 0.31687824E+00 0.41108416E+04</pdfrwt>
<totfact> 0.11319846E-01</totfact>
</mgrwt>
<rwgt>
<wgt id='morphing_basis_vector_1'> +1.7611682e-05 </wgt>
<wgt id='morphing_basis_vector_2'> +1.2008630e-05 </wgt>
<wgt id='morphing_basis_vector_3'> +1.9358841e-05 </wgt>
<wgt id='morphing_basis_vector_4'> +1.3846925e-05 </wgt>
<wgt id='morphing_basis_vector_5'> +2.2177580e-05 </wgt>
</rwgt>
</event>
<event>
 4      1 +4.5322000e-10 4.33264300e+03 7.81860800e-03 7.48408500e-02
        2 -1    0    0  501    0 +0.0000000000e+00 +0.0000000000e+00 +1.6146325824e+03 1.6146325824e+03 0.0000000000e+00 0.0000e+00 -1.0000e+00
       -2 -1    0    0    0  501 -0.0000000000e+00 -0.0000000000e+00 -2.9065125181e+03 2.9065125181e+03 0.0000000000e+00 0.0000e+00 1.0000e+00
      -13  1    1    2    0    0 +8.8436838870e+02 -7.4475358383e+02 -2.5576340962e+03 2.8068233855e+03 0.0000000000e+00 0.0000e+00 1.0000e+00
       13  1    1    2    0    0 -8.8436838870e+02 +7.4475358383e+02 +1.2657541605e+03 1.7143217150e+03 0.0000000000e+00 0.0000e+00 -1.0000e+00
<mgrwt>
<rscale>  0 0.43326434E+04</rscale>
<asrwt>0</asrwt>
<pdfrwt beam="1">  1        2 0.24840502E+00 0.43326434E+04</pdfrwt>
<pdfrwt beam="2">  1       -2 0.44715577E+00 0.43326434E+04</pdfrwt>
<totfact> 0.27133580E-02</totfact>
</mgrwt>
<rwgt>
<wgt id='morphing_basis_vector_1'> +2.1677159e-05 </wgt>
<wgt id='morphing_basis_vector_2'> +1.4714158e-05 </wgt>
<wgt id='morphing_basis_vector_3'> +2.3832240e-05 </wgt>
<wgt id='morphing_basis_vector_4'> +1.7172349e-05 </wgt>
<wgt id='morphing_basis_vector_5'> +2.7397027e-05 </wgt>
</rwgt>
</event>
<event>
 4      1 +4.5322000e-10 4.51711400e+03 7.81860800e-03 7.45485100e-02
        2 -1    0    0  501    0 +0.0000000000e+00 +0.0000000000e+00 +4.7055109564e+03 4.7055109564e+03 0.0000000000e+00 0.0000e+00 -1.0000e+00
       -2 -1    0    0    0  501 -0.0000000000e+00 -0.0000000000e+00 -1.0840650475e+03 1.0840650475e+03 0.0000000000e+00 0.0000e+00 1.0000e+00
      -13  1    1    2    0    0 -1.5640974214e+03 -1.5860290995e+03 +1.3325432530e+03 2.5956811378e+03 0.0000000000e+00 0.0000e+00 1.0000e+00
       13  1    1    2    0    0 +1.5640974214e+03 +1.5860290995e+03 +2.2889026560e+03 3.1938948662e+03 0.0000000000e+00 0.0000e+00 -1.0000e+00
<mgrwt>
<rscale>  0 0.45171141E+04</rscale>
<asrwt>0</asrwt>
<pdfrwt beam="1">  1        2 0.72392475E+00 0.45171141E+04</pdfrwt>
<pdfrwt beam="2">  1       -2 0.16677924E+00 0.45171141E+04</pdfrwt>
<totfact> 0.12500870E-02</totfact>
</mgrwt>
<rwgt>
<wgt id='morphing_basis_vector_1'> +2.6094078e-05 </wgt>
<wgt id='morphing_basis_vector_2'> +1.8850283e-05 </wgt>
<wgt id='morphing_basis_vector_3'> +2.8964937e-05 </wgt>
<wgt id='morphing_basis_vector_4'> +1.9239164e-05 </wgt>
<wgt id='morphing_basis_vector_5'> +3.2302476e-05 </wgt>
</rwgt>
</event>
<event>
 4      1 +4.5322000e-10 3.85203500e+03 7.81860800e-03 7.56775100e-02
        2 -1    0    0  501    0 +0.0000000000e+00 +0.0000000000e+00 +2.9943888972e+03 2.9943888972e+03 0.0000000000e+00 0.0000e+00 1.0000e+00
       -2 -1    0    0    0  501 -0.0000000000e+00 -0.0000000000e+00 -1.2388315090e+03 1.2388315090e+03 0.0000000000e+00 0.0000e+00 -1.0000e+00
      -13  1    1    2    0    0 +2.1776023359e+01 +9.5699794636e+02 -9.5890152393e+02 1.3549211775e+03 0.0000000000e+00 0.0000e+00 -1.0000e+00
       13  1    1    2    0    0 -2.1776023359e+01 -9.5699794636e+02 +2.7144589122e+03 2.8782992288e+03 0.0000000000e+00 0.0000e+00 1.0000e+00
<mgrwt>
<rscale>  0 0.38520350E+04</rscale>
<asrwt>0</asrwt>
<pdfrwt beam="1">  1        2 0.46067521E+00 0.38520350E+04</pdfrwt>
<pdfrwt beam="2">  1       -2 0.19058946E+00 0.38520350E+04</pdfrwt>
<totfact> 0.23571449E-01</totfact>
</mgrwt>
<rwgt>
<wgt id='morphing_basis_vector_1'> +1.3574462e-05 </wgt>
<wgt id='morphing_basis_vector_2'> +9.1988064e-06 </wgt>
<wgt id='morphing_basis_vector_3'> +1.4891249e-05 </wgt>
<wgt id='morphing_basis_vector_4'> +1.0708326e-05 </wgt>
<wgt id='morphing_basis_vector_5'> +1.7079821e-05 </wgt>
</rwgt>
</event>
<event>
 4      1 +4.5322000e-10 3.87861800e+03 7.81860800e-03 7.56280500e-02
        2 -1    0    0  501    0 +0.0000000000e+00 +0.0000000000e+00 +3.3216436379e+03 3.3216436379e+03 0.0000000000e+00 0.0000e+00 1.0000e+00
       -2 -1    0    0    0  501 -0.0000000000e+00 -0.0000000000e+00 -1.1322467893e+03 1.1322467893e+03 0.0000000000e+00 0.0000e+00 -1.0000e+00
      -13  1    1    2    0    0 +2.6761330518e+02 -5.2552085831e+02 -1.0267816759e+03 1.1840902261e+03 0.0000000000e+00 0.0000e+00 -1.0000e+00
       13  1    1    2    0    0 -2.6761330518e+02 +5.2552085831e+02 +3.2161785245e+03 3.2698002011e+03 0.0000000000e+00 0.0000e+00 1.0000e+00
<mgrwt>
<rscale>  0 0.38786185E+04</rscale>
<asrwt>0</asrwt>
<pdfrwt beam="1">  1        2 0.51102209E+00 0.38786185E+04</pdfrwt>
<pdfrwt beam="2">  1       -2 0.17419182E+00 0.38786185E+04</pdfrwt>
<totfact> 0.18819846E-01</totfact>
</mgrwt>
<rwgt>
<wgt id='morphing_basis_vector_1'> +1.3948453e-05 </wgt>
<wgt id='morphing_basis_vector_2'> +9.4474060e-06 </wgt>
<wgt id='morphing_basis_vector_3'> +1.5302400e-05 </wgt>
<wgt id='morphing_basis_vector_4'> +1.1013893e-05 </wgt>
<wgt id='morphing_basis_vector_5'> +1.7559219e-05 </wgt>
</rwgt>
</event>
<event>
 4      1 +4.5322000e-10 4.24376600e+03 7.81860800e-03 7.49870000e-02
        2 -1    0    0  501    0 +0.0000000000e+00 +0.0000000000e+00 +3.0279481804e+03 3.0279481804e+03 0.0000000000e+00 0.0000e+00 -1.0000e+00
       -2 -1    0    0    0  501 -0.0000000000e+00 -0.0000000000e+00 -1.4869432878e+03 1.4869432878e+03 0.0000000000e+00 0.0000e+00 1.0000e+00
      -13  1    1    2    0    0 +1.4560014408e+03 +5.9189911653e+02 -7.4608933711e+02 1.7398086270e+03 0.0000000000e+00 0.0000e+00 1.0000e+00
       13  1    1    2    0    0 -1.4560014408e+03 -5.9189911653e+02 +2.2870942297e+03 2.7750828411e+03 0.0000000000e+00 0.0000e+00 -1.0000e+00
<mgrwt>
<rscale>  0 0.42437659E+04</rscale>
<asrwt>0</asrwt>
<pdfrwt beam="1">  1        2 0.46583818E+00 0.42437659E+04</pdfrwt>
<pdfrwt beam="2">  1       -2 0.22876051E+00 0.42437659E+04</pdfrwt>
<totfact> 0.11525739E-01</totfact>
</mgrwt>
<rwgt>
<wgt id='morphing_basis_vector_1'> +1.9985412e-05 </wgt>
<wgt id='morphing_basis_vector_2'> +1.3620591e-05 </wgt>
<wgt id='morphing_basis_vector_3'> +2.1977795e-05 </wgt>
<wgt id='morphing_basis_vector_4'> +1.5746311e-05 </wgt>
<wgt id='morphing_basis_vector_5'> +2.5203675e-05 </wgt>
</rwgt>
</event>
<event>
 4      1 +4.5322000e-10 4.42720100e+03 7.81860800e-03 7.46892000e-02
        2 -1    0    0  501    0 +0.0000000000e+00 +0.0000000000e+00 +2.3718119185e+03 2.3718119185e+03 0.0000000000e+00 0.0000e+00 -1.0000e+00
       -2 -1    0    0    0  501 -0.0000000000e+00 -0.0000000000e+00 -2.0659423501e+03 2.0659423501e+03 0.0000000000e+00 0.0000e+00 1.0000e+00
      -13  1    1    2    0    0 -1.9458000011e+01 +2.1906949110e+03 -1.6484440338e+02 2.1969743931e+03 0.0000000000e+00 0.0000e+00 1.0000e+00
       13  1    1    2    0    0 +1.9458000011e+01 -2.1906949110e+03 +4.7071397174e+02 2.2407798754e+03 0.0000000000e+00 0.0000e+00 -1.0000e+00
<mgrwt>
<rscale>  0 0.44272008E+04</rscale>
<asrwt>0</asrwt>
<pdfrwt beam="1">  1        2 0.36489414E+00 0.44272008E+04</pdfrwt>
<pdfrwt beam="2">  1       -2 0.31783729E+00 0.44272008E+04</pdfrwt>
<totfact> 0.71174726E-02</totfact>
</mgrwt>
<rwgt>
<wgt id='morphing_basis_vector_1'> +2.4127178e-05 </wgt>
<wgt id='morphing_basis_vector_2'> +1.7518367e-05 </wgt>
<wgt id='morphing_basis_vector_3'> +2.6793810e-05 </wgt>
<wgt id='morphing_basis_vector_4'> +1.7658734e-05 </wgt>
<wgt id='morphing_basis_vector_5'> +2.9789489e-05 </wgt>
</rwgt>
</event>
<event>
 4      1 +4.5322000e-10 4.20333100e+03 7.81860800e-03 7.50547000e-02
        2 -1    0    0  501    0 +0.0000000000e+00 +0.0000000000e+00 +3.7757216765e+03 3.7757216765e+03 0.0000000000e+00 0.0000e+00 -1.0000e+00
       -2 -1    0    0    0  501 -0.0000000000e+00 -0.0000000000e+00 -1.1698418733e+03 1.1698418733e+03 0.0000000000e+00 0.0000e+00 1.0000e+00
      -13  1    1    2    0    0 +2.6286965896e+02 -1.5853703507e+03 -2.9066556420e+02 1.6330909579e+03 0.0000000000e+00 0.0000e+00 1.0000e+00
       13  1    1    2    0    0 -2.6286965896e+02 +1.5853703507e+03 +2.8965453674e+03 3.3124725919e+03 0.0000000000e+00 0.0000e+00 -1.0000e+00
<mgrwt>
<rscale>  0 0.42033307E+04</rscale>
<asrwt>0</asrwt>
<pdfrwt beam="1">  1        2 0.58088025E+00 0.42033307E+04</pdfrwt>
<pdfrwt beam="2">  1       -2 0.17997567E+00 0.42033307E+04</pdfrwt>
<totfact> 0.76048328E-02</totfact>
</mgrwt>
<rwgt>
<wgt id='morphing_basis_vector_1'> +1.9244303e-05 </wgt>
<wgt id='morphing_basis_vector_2'> +1.3128520e-05 </wgt>
<wgt id='morphing_basis_vector_3'> +2.1162564e-05 </wgt>
<wgt id='morphing_basis_vector_4'> +1.5138662e-05 </wgt>
<wgt id='morphing_basis_vector_5'> +2.4251481e-05 </wgt>
</rwgt>
</event>
<event>
 4      1 +4.5322000e-10 3.99903600e+03 7.81860800e-03 7.54089800e-02
        2 -1    0    0  501    0 +0.0000000000e+00 +0.0000000000e+00 +3.6464875313e+03 3.6464875313e+03 0.0000000000e+00 0.0000e+00 -1.0000e+00
       -2 -1    0    0    0  501 -0.0000000000e+00 -0.0000000000e+00 -1.0964172705e+03 1.0964172705e+03 0.0000000000e+00 0.0000e+00 1.0000e+00
      -13  1    1    2    0    0 +1.1328975361e+03 -1.1677692230e+03 -1.0346100894e+02 1.6302901478e+03 0.0000000000e+00 0.0000e+00 1.0000e+00
       13  1    1    2    0    0 -1.1328975361e+03 +1.1677692230e+03 +2.6535312697e+03 3.1126146541e+03 0.0000000000e+00 0.0000e+00 -1.0000e+00
<mgrwt>
<rscale>  0 0.39990358E+04</rscale>
<asrwt>0</asrwt>
<pdfrwt beam="1">  1        2 0.56099807E+00 0.39990358E+04</pdfrwt>
<pdfrwt beam="2">  1       -2 0.16867958E+00 0.39990358E+04</pdfrwt>
<totfact> 0.11909667E-01</totfact>
</mgrwt>
<rwgt>
<wgt id='morphing_basis_vector_1'> +1.5797186e-05 </wgt>
<wgt id='morphing_basis_vector_2'> +1.0804111e-05 </wgt>
<wgt id='morphing_basis_vector_3'> +1.7363507e-05 </wgt>
<wgt id='morphing_basis_vector_4'> +1.2360443e-05 </wgt>
<wgt id='morphing_basis_vector_5'> +1.9848109e-05 </wgt>
</rwgt>
</event>
<event>
 4      1 +4.5322000e-10 4.10787200e+03 7.81860800e-03 7.52176300e-02
        2 -1    0    0  501    0 +0.0000000000e+00 +0.0000000000e+00 +2.8613351809e+03 2.8613351809e+03 0.0000000000e+00 0.0000e+00 -1.0000e+00
       -2 -1    0    0    0  501 -0.0000000000e+00 -0.0000000000e+00 -1.4743650704e+03 1.4743650704e+03 0.0000000000e+00 0.0000e+00 1.0000e+00
      -13  1    1    2    0    0 -1.1264255394e+03 +1.7159774553e+03 +6.1708595783e+02 2.1434104139e+03 0.0000000000e+00 0.0000e+00 1.0000e+00
       13  1    1    2    0    0 +1.1264255394e+03 -1.7159774553e+03 +7.6988415261e+02 2.1922898375e+03 0.0000000000e+00 0.0000e+00 -1.0000e+00
<mgrwt>
<rscale>  0 0.41078718E+04</rscale>
<asrwt>0</asrwt>
<pdfrwt beam="1">  1        2 0.44020541E+00 0.41078718E+04</pdfrwt>
<pdfrwt beam="2">  1       -2 0.22682540E+00 0.41078718E+04</pdfrwt>
<totfact> 0.15399738E-01</totfact>
</mgrwt>
<rwgt>
<wgt id='morphing_basis_vector_1'> +1.8096562e-05 </wgt>
<wgt id='morphing_basis_vector_2'> +1.3547777e-05 </wgt>
<wgt id='morphing_basis_vector_3'> +2.0163537e-05 </wgt>
<wgt id='morphing_basis_vector_4'> +1.2672947e-05 </wgt>
<wgt id='morphing_basis_vector_5'> +2.2018715e-05 </wgt>
</rwgt>
</event>
<event>
 4      1 +4.5322000e-10 4.25191600e+03 7.81860800e-03 7.49734500e-02
        2 -1    0    0  501    0 +0.0000000000e+00 +0.0000000000e+00 +1.6267678217e+03 1.6267678217e+03 0.0000000000e+00 0.0000e+00 1.0000e+00
       -2 -1    0    0    0  501 -0.0000000000e+00 -0.0000000000e+00 -2.7783298486e+03 2.7783298486e+03 0.0000000000e+00 0.0000e+00 -1.0000e+00
      -13  1    1    2    0    0 +1.3252960976e+03 -1.0581548307e+03 -1.9039961406e+03 2.5497652236e+03 0.0000000000e+00 0.0000e+00 -1.0000e+00
       13  1    1    2    0    0 -1.3252960976e+03 +1.0581548307e+03 +7.5243411371e+02 1.8553324466e+03 0.0000000000e+00 0.0000e+00 1.0000e+00
<mgrwt>
<rscale>  0 0.42519161E+04</rscale>
<asrwt>0</asrwt>
<pdfrwt beam="1">  1        2 0.25027198E+00 0.42519161E+04</pdfrwt>
<pdfrwt beam="2">  1       -2 0.42743535E+00 0.42519161E+04</pdfrwt>
<totfact> 0.36623103E-02</totfact>
</mgrwt>
<rwgt>
<wgt id='morphing_basis_vector_1'> +2.0157190e-05 </wgt>
<wgt id='morphing_basis_vector_2'> +1.3779724e-05 </wgt>
<wgt id='morphing_basis_vector_3'> +2.2176873e-05 </wgt>
<wgt id='morphing_basis_vector_4'> +1.5828906e-05 </wgt>
<wgt id='morphing_basis_vector_5'> +2.5395431e-05 </wgt>
</rwgt>
</event>
<event>
 4      1 +4.5322000e-10 4.41231800e+03 7.81860800e-03 7.47128100e-02
        2 -1    0    0  501    0 +0.0000000000e+00 +0.0000000000e+00 +3.4463298190e+03 3.4463298190e+03 0.0000000000e+00 0.0000e+00 1.0000e+00
       -2 -1    0    0    0  501 -0.0000000000e+00 -0.0000000000e+00 -1.4122668813e+03 1.4122668813e+03 0.0000000000e+00 0.0000e+00 -1.0000e+00
      -13  1    1    2    0    0 +1.1077809045e+03 +2.7709327904e+02 -1.0615297650e+03 1.5591038001e+03 0.0000000000e+00 0.0000e+00 -1.0000e+00
       13  1    1    2    0    0 -1.1077809045e+03 -2.7709327904e+02 +3.0955927027e+03 3.2994929002e+03 0.0000000000e+00 0.0000e+00 1.0000e+00
<mgrwt>
<rscale>  0 0.44123180E+04</rscale>
<asrwt>0</asrwt>
<pdfrwt beam="1">  1        2 0.53020459E+00 0.44123180E+04</pdfrwt>
<pdfrwt beam="2">  1       -2 0.21727183E+00 0.44123180E+04</pdfrwt>
<totfact> 0.70705291E-02</totfact>
</mgrwt>
<rwgt>
<wgt id='morphing_basis_vector_1'> +2.3308011e-05 </wgt>
<wgt id='morphing_basis_vector_2'> +1.5822138e-05 </wgt>
<wgt id='morphing_basis_vector_3'> +2.5632252e-05 </wgt>
<wgt id='morphing_basis_vector_4'> +1.8478127e-05 </wgt>
<wgt id='morphing_basis_vector_5'> +2.9477632e-05 </wgt>
</rwgt>
</event>
<event>
 4      1 +4.5322000e-10 3.90980500e+03 7.81860800e-03 7.55705400e-02
        2 -1    0    0  501    0 +0.0000000000e+00 +0.0000000000e+00 +2.9858032781e+03 2.9858032781e+03 0.0000000000e+00 0.0000e+00 -1.0000e+00
       -2 -1    0    0    0  501 -0.0000000000e+00 -0.0000000000e+00 -1.2799379847e+03 1.2799379847e+03 0.0000000000e+00 0.0000e+00 1.0000e+00
      -13  1    1    2    0    0 -8.8963847582e+02 -3.2257004565e+02 -1.0133896000e+03 1.3865303939e+03 0.0000000000e+00 0.0000e+00 1.0000e+00
       13  1    1    2    0    0 +8.8963847582e+02 +3.2257004565e+02 +2.7192548934e+03 2.8792108688e+03 0.0000000000e+00 0.0000e+00 -1.0000e+00
<mgrwt>
<rscale>  0 0.39098046E+04</rscale>
<asrwt>0</asrwt>
<pdfrwt beam="1">  1        2 0.45935435E+00 0.39098046E+04</pdfrwt>
<pdfrwt beam="2">  1       -2 0.19691354E+00 0.39098046E+04</pdfrwt>
<totfact> 0.21337851E-01</totfact>
</mgrwt>
<rwgt>
<wgt id='morphing_basis_vector_1'> +1.4402274e-05 </wgt>
<wgt id='morphing_basis_vector_2'> +9.7609260e-06 </wgt>
<wgt id='morphing_basis_vector_3'> +1.5803963e-05 </wgt>
<wgt id='morphing_basis_vector_4'> +1.1369495e-05 </wgt>
<wgt id='morphing_basis_vector_5'> +1.8133453e-05 </wgt>
</rwgt>
</event>
<event>
 4      1 +4.5322000e-10 3.95543800e+03 7.81860800e-03 7.54873800e-02
        2 -1    0    0  501    0 +0.0000000000e+00 +0.0000000000e+00 +1.5003039792e+03 1.5003039792e+03 0.0000000000e+00 0.0000e+00 -1.0000e+00
       -2 -1    0    0    0  501 -0.0000000000e+00 -0.0000000000e+00 -2.6070531736e+03 2.6070531736e+03 0.0000000000e+00 0.0000e+00 1.0000e+00
      -13  1    1    2    0    0 -1.4046736951e+03 -1.3592346632e+03 -8.6618393376e+02 2.1379667131e+03 0.0000000000e+00 0.0000e+00 1.0000e+00
       13  1    1    2    0    0 +1.4046736951e+03 +1.3592346632e+03 -2.4056526060e+02 1.9693904397e+03 0.0000000000e+00 0.0000e+00 -1.0000e+00
<mgrwt>
<rscale>  0 0.39554379E+04</rscale>
<asrwt>0</asrwt>
<pdfrwt beam="1">  1        2 0.23081600E+00 0.39554379E+04</pdfrwt>
<pdfrwt beam="2">  1       -2 0.40108510E+00 0.39554379E+04</pdfrwt>
<totfact> 0.65908911E-02</totfact>
</mgrwt>
<rwgt>
<wgt id='morphing_basis_vector_1'> +1.5394535e-05 </wgt>
<wgt id='morphing_basis_vector_2'> +1.1139999e-05 </wgt>
<wgt id='morphing_basis_vector_3'> +1.7054323e-05 </wgt>
<wgt id='morphing_basis_vector_4'> +1.1253367e-05 </wgt>
<wgt id='morphing_basis_vector_5'> +1.8944611e-05 </wgt>
</rwgt>
</event>
<event>
 4      1 +4.5322000e-10 4.40299800e+03 7.81860800e-03 7.47276500e-02
        2 -1    0    0  501    0 +0.0000000000e+00 +0.0000000000e+00 +2.1049144369e+03 2.1049144369e+03 0.0000000000e+00 0.0000e+00 1.0000e+00
       -2 -1    0    0    0  501 -0.0000000000e+00 -0.0000000000e+00 -2.3025152807e+03 2.3025152807e+03 0.0000000000e+00 0.0000e+00 -1.0000e+00
      -13  1    1    2    0    0 -2.1519197905e+03 +3.1216387867e+02 -4.4322898889e+02 2.2191568238e+03 0.0000000000e+00 0.0000e+00 -1.0000e+00
       13  1    1    2    0    0 +2.1519197905e+03 -3.1216387867e+02 +2.4562814502e+02 2.1882728938e+03 0.0000000000e+00 0.0000e+00 1.0000e+00
<mgrwt>
<rscale>  0 0.44029979E+04</rscale>
<asrwt>0</asrwt>
<pdfrwt beam="1">  1        2 0.32383299E+00 0.44029979E+04</pdfrwt>
<pdfrwt beam="2">  1       -2 0.35423312E+00 0.44029979E+04</pdfrwt>
<totfact> 0.58619293E-02</totfact>
</mgrwt>
<rwgt>
<wgt id='morphing_basis_vector_1'> +2.3581487e-05 </wgt>
<wgt id='morphing_basis_vector_2'> +1.7066930e-05 </wgt>
<wgt id='morphing_basis_vector_3'> +2.6173029e-05 </wgt>
<wgt id='morphing_basis_vector_4'> +1.7326417e-05 </wgt>
<wgt id='morphing_basis_vector_5'> +2.9145165e-05 </wgt>
</rwgt>
</event>
<event>
 4      1 +4.5322000e-10 3.87974300e+03 7.81860800e-03 7.56259700e-02
        2 -1    0    0  501    0 +0.0000000000e+00 +0.0000000000e+00 +3.2608760567e+03 3.2608760567e+03 0.0000000000e+00 0.0000e+00 1.0000e+00
       -2 -1    0    0    0  501 -0.0000000000e+00 -0.0000000000e+00 -1.1540156647e+03 1.1540156647e+03 0.0000000000e+00 0.0000e+00 -1.0000e+00
      -13  1    1    2    0    0 +9.4114612241e+02 -4.2202554088e+02 -8.1612310457e+02 1.3152636628e+03 0.0000000000e+00 0.0000e+00 -1.0000e+00
       13  1    1    2    0    0 -9.4114612241e+02 +4.2202554088e+02 +2.9229834965e+03 3.0996280586e+03 0.0000000000e+00 0.0000e+00 1.0000e+00
<mgrwt>
<rscale>  0 0.38797433E+04</rscale>
<asrwt>0</asrwt>
<pdfrwt beam="1">  1        2 0.50167323E+00 0.38797433E+04</pdfrwt>
<pdfrwt beam="2">  1       -2 0.17754087E+00 0.38797433E+04</pdfrwt>
<totfact> 0.19547480E-01</totfact>
</mgrwt>
<rwgt>
<wgt id='morphing_basis_vector_1'> +1.3968130e-05 </wgt>
<wgt id='morphing_basis_vector_2'> +9.4688638e-06 </wgt>
<wgt id='morphing_basis_vector_3'> +1.5325881e-05 </wgt>
<wgt id='morphing_basis_vector_4'> +1.1019183e-05 </wgt>
<wgt id='morphing_basis_vector_5'> +1.7579076e-05 </wgt>
</rwgt>
</event>
<event>
 4      1 +4.5322000e-10 4.02895600e+03 7.81860800e-03 7.53557600e-02
        2 -1    0    0  501    0 +0.0000000000e+00 +0.0000000000e+00 +4.4998246588e+03 4.4998246588e+03 0.0000000000e+00 0.0000e+00 1.0000e+00
       -2 -1    0    0    0  501 -0.0000000000e+00 -0.0000000000e+00 -9.0184009694e+02 9.0184009694e+02 0.0000000000e+00 0.0000e+00 -1.0000e+00
      -13  1    1    2    0    0 -1.0120021479e+03 +5.9400623162e+02 -3.9630857363e+02 1.2385686239e+03 0.0000000000e+00 0.0000e+00 -1.0000e+00
       13  1    1    2    0    0 +1.0120021479e+03 -5.9400623162e+02 +3.9942931355e+03 4.1630961318e+03 0.0000000000e+00 0.0000e+00 1.0000e+00
<mgrwt>
<rscale>  0 0.40289563E+04</rscale>
<asrwt>0</asrwt>
<pdfrwt beam="1">  1        2 0.69228070E+00 0.40289563E+04</pdfrwt>
<pdfrwt beam="2">  1       -2 0.13874463E+00 0.40289563E+04</pdfrwt>
<totfact> 0.36936433E-02</totfact>
</mgrwt>
<rwgt>
<wgt id='morphing_basis_vector_1'> +1.6233778e-05 </wgt>
<wgt id='morphing_basis_vector_2'> +1.1015654e-05 </wgt>
<wgt id='morphing_basis_vector_3'> +1.7826182e-05 </wgt>
<wgt id='morphing_basis_vector_4'> +1.2818972e-05 </wgt>
<wgt id='morphing_basis_vector_5'> +2.0458705e-05 </wgt>
</rwgt>
</event>
<event>
 4      1 +4.5322000e-10 4.12583700e+03 7.81860800e-03 7.51866300e-02
        2 -1    0    0  501    0 +0.0000000000e+00 +0.0000000000e+00 +3.1942314031e+03 3.1942314031e+03 0.0000000000e+00 0.0000e+00 1.0000e+00
       -2 -1    0    0    0  501 -0.0000000000e+00 -0.0000000000e+00 -1.3322869648e+03 1.3322869648e+03 0.0000000000e+00 0.0000e+00 -1.0000e+00
      -13  1    1    2    0    0 +4.6314124363e+02 +1.6441735777e+03 -3.3799989484e+02 1.7412784080e+03 0.0000000000e+00 0.0000e+00 -1.0000e+00
       13  1    1    2    0    0 -4.6314124363e+02 -1.6441735777e+03 +2.1999443331e+03 2.7852399599e+03 0.0000000000e+00 0.0000e+00 1.0000e+00
<mgrwt>
<rscale>  0 0.41258371E+04</rscale>
<asrwt>0</asrwt>
<pdfrwt beam="1">  1        2 0.49142022E+00 0.41258371E+04</pdfrwt>
<pdfrwt beam="2">  1       -2 0.20496723E+00 0.41258371E+04</pdfrwt>
<totfact> 0.13316942E-01</totfact>
</mgrwt>
<rwgt>
<wgt id='morphing_basis_vector_1'> +1.7893529e-05 </wgt>
<wgt id='morphing_basis_vector_2'> +1.2257121e-05 </wgt>
<wgt id='morphing_basis_vector_3'> +1.9682511e-05 </wgt>
<wgt id='morphing_basis_vector_4'> +1.3998656e-05 </wgt>
<wgt id='morphing_basis_vector_5'> +2.2500119e-05 </wgt>
</rwgt>
</event>
<event>
 4      1 +4.5322000e-10 3.99403200e+03 7.81860800e-03 7.54179300e-02
        2 -1    0    0  501    0 +0.0000000000e+00 +0.0000000000e+00 +1.5782445691e+03 1.5782445691e+03 0.0000000000e+00 0.0000e+00 1.0000e+00
       -2 -1    0    0    0  501 -0.0000000000e+00 -0.0000000000e+00 -2.5269037695e+03 2.5269037695e+03 0.0000000000e+00 0.0000e+00 -1.0000e+00
      -13  1    1    2    0    0 -1.9707747645e+02 +5.3596037004e+02 -2.4411979258e+03 2.5070979963e+03 0.0000000000e+00 0.0000e+00 -1.0000e+00
       13  1    1    2    0    0 +1.9707747645e+02 -5.3596037004e+02 +1.4925387254e+03 1.5980503424e+03 0.0000000000e+00 0.0000e+00 1.0000e+00
<mgrwt>
<rscale>  0 0.39940316E+04</rscale>
<asrwt>0</asrwt>
<pdfrwt beam="1">  1        2 0.24280686E+00 0.39940316E+04</pdfrwt>
<pdfrwt beam="2">  1       -2 0.38875442E+00 0.39940316E+04</pdfrwt>
<totfact> 0.71482546E-02</totfact>
</mgrwt>
<rwgt>
<wgt id='morphing_basis_vector_1'> +1.5674429e-05 </wgt>
<wgt id='morphing_basis_vector_2'> +1.0620212e-05 </wgt>
<wgt id='morphing_basis_vector_3'> +1.7205813e-05 </wgt>
<wgt id='morphing_basis_vector_4'> +1.2391958e-05 </wgt>
<wgt id='morphing_basis_vector_5'> +1.9756250e-05 </wgt>
</rwgt>
</event>
<event>
 4      1 +4.5322000e-10 4.60742200e+03 7.81860800e-03 7.44105000e-02
        2 -1    0    0  501    0 +0.0000000000e+00 +0.0000000000e+00 +3.4723582429e+03 3.4723582429e+03 0.0000000000e+00 0.0000e+00 -1.0000e+00
       -2 -1    0    0    0  501 -0.0000000000e+00 -0.0000000000e+00 -1.5283805708e+03 1.5283805708e+03 0.0000000000e+00 0.0000e+00 1.0000e+00
      -13  1    1    2    0    0 -4.9903798932e+02 +1.8904973615e+03 -3.5022811786e+02 1.9863733091e+03 0.0000000000e+00 0.0000e+00 1.0000e+00
       13  1    1    2    0    0 +4.9903798932e+02 -1.8904973615e+03 +2.2942057899e+03 3.0143655046e+03 0.0000000000e+00 0.0000e+00 -1.0000e+00
<mgrwt>
<rscale>  0 0.46074222E+04</rscale>
<asrwt>0</asrwt>
<pdfrwt beam="1">  1        2 0.53420896E+00 0.46074222E+04</pdfrwt>
<pdfrwt beam="2">  1       -2 0.23513547E+00 0.46074222E+04</pdfrwt>
<totfact> 0.49887794E-02</totfact>
</mgrwt>
<rwgt>
<wgt id='morphing_basis_vector_1'> +2.7792254e-05 </wgt>
<wgt id='morphing_basis_vector_2'> +1.9098829e-05 </wgt>
<wgt id='morphing_basis_vector_3'> +3.0634993e-05 </wgt>
<wgt id='morphing_basis_vector_4'> +2.1772655e-05 </wgt>
<wgt id='morphing_basis_vector_5'> +3.5053526e-05 </wgt>
</rwgt>
</event>
<event>
 4      1 +4.5322000e-10 4.16041700e+03 7.81860800e-03 7.51273900e-02
        2 -1    0    0  501    0 +0.0000000000e+00 +0.0000000000e+00 +2.0625358831e+03 2.0625358831e+03 0.0000000000e+00 0.0000e+00 -1.0000e+00
       -2 -1    0    0    0  501 -0.0000000000e+00 -0.0000000000e+00 -2.0980323288e+03 2.0980323288e+03 0.0000000000e+00 0.0000e+00 1.0000e+00
      -13  1    1    2    0    0 +6.9563679828e+02 -1.9488021642e+03 -2.3112546142e+02 2.0821045625e+03 0.0000000000e+00 0.0000e+00 1.0000e+00
       13  1    1    2    0    0 -6.9563679828e+02 +1.9488021642e+03 +1.9562901566e+02 2.0784636494e+03 0.0000000000e+00 0.0000e+00 -1.0000e+00
<mgrwt>
<rscale>  0 0.41604168E+04</rscale>
<asrwt>0</asrwt>
<pdfrwt beam="1">  1        2 0.31731321E+00 0.41604168E+04</pdfrwt>
<pdfrwt beam="2">  1       -2 0.32277420E+00 0.41604168E+04</pdfrwt>
<totfact> 0.10150291E-01</totfact>
</mgrwt>
<rwgt>
<wgt id='morphing_basis_vector_1'> +1.8903842e-05 </wgt>
<wgt id='morphing_basis_vector_2'> +1.3864983e-05 </wgt>
<wgt id='morphing_basis_vector_3'> +2.1003177e-05 </wgt>
<wgt id='morphing_basis_vector_4'> +1.3616408e-05 </wgt>
<wgt id='morphing_basis_vector_5'> +2.3195848e-05 </wgt>
</rwgt>
</event>
<event>
 4      1 +4.5322000e-10 4.10180900e+03 7.81860800e-03 7.52281300e-02
        2 -1    0    0  501    0 +0.0000000000e+00 +0.0000000000e+00 +3.3685380110e+03 3.3685380110e+03 0.0000000000e+00 0.0000e+00 -1.0000e+00
       -2 -1    0    0    0  501 -0.0000000000e+00 -0.0000000000e+00 -1.2486752253e+03 1.2486752253e+03 0.0000000000e+00 0.0000e+00 1.0000e+00
      -13  1    1    2    0    0 -9.5376285481e+02 -1.1779216054e+03 +2.6152264104e+03 3.0226763090e+03 0.0000000000e+00 0.0000e+00 -1.0000e+00
       13  1    1    2    0    0 +9.5376285481e+02 +1.1779216054e+03 -4.9536362468e+02 1.5945369272e+03 0.0000000000e+00 0.0000e+00 1.0000e+00
<mgrwt>
<rscale>  0 0.41018093E+04</rscale>
<asrwt>0</asrwt>
<pdfrwt beam="1">  1        2 0.51823661E+00 0.41018093E+04</pdfrwt>
<pdfrwt beam="2">  1       -2 0.19210388E+00 0.41018093E+04</pdfrwt>
<totfact> 0.12546391E-01</totfact>
</mgrwt>
<rwgt>
<wgt id='morphing_basis_vector_1'> +2.2231093e-05 </wgt>
<wgt id='morphing_basis_vector_2'> +2.5931350e-05 </wgt>
<wgt id='morphing_basis_vector_3'> +2.6859265e-05 </wgt>
<wgt id='morphing_basis_vector_4'> +3.6192819e-06 </wgt>
<wgt id='morphing_basis_vector_5'> +2.1139742e-05 </wgt>
</rwgt>
</event>
<event>
 4      1 +4.5322000e-10 3.91410000e+03 7.81860800e-03 7.55626700e-02
        2 -1    0    0  501    0 +0.0000000000e+00 +0.0000000000e+00 +3.3864401069e+03 3.3864401069e+03 0.0000000000e+00 0.0000e+00 -1.0000e+00
       -2 -1    0    0    0  501 -0.0000000000e+00 -0.0000000000e+00 -1.1309945448e+03 1.1309945448e+03 0.0000000000e+00 0.0000e+00 1.0000e+00
      -13  1    1    2    0    0 -4.4477667064e+02 +7.3925651290e+02 -8.9967096493e+02 1.2464887981e+03 0.0000000000e+00 0.0000e+00 1.0000e+00
       13  1    1    2    0    0 +4.4477667064e+02 -7.3925651290e+02 +3.1551165270e+03 3.2709458537e+03 0.0000000000e+00 0.0000e+00 -1.0000e+00
<mgrwt>
<rscale>  0 0.39141003E+04</rscale>
<asrwt>0</asrwt>
<pdfrwt beam="1">  1        2 0.52099078E+00 0.39141003E+04</pdfrwt>
<pdfrwt beam="2">  1       -2 0.17399916E+00 0.39141003E+04</pdfrwt>
<totfact> 0.16948867E-01</totfact>
</mgrwt>
<rwgt>
<wgt id='morphing_basis_vector_1'> +1.4464430e-05 </wgt>
<wgt id='morphing_basis_vector_2'> +9.8011496e-06 </wgt>
<wgt id='morphing_basis_vector_3'> +1.5872061e-05 </wgt>
<wgt id='morphing_basis_vector_4'> +1.1421705e-05 </wgt>
<wgt id='morphing_basis_vector_5'> +1.8213851e-05 </wgt>
</rwgt>
</event>
<event>
 4      1 +4.5322000e-10 4.05992300e+03 7.81860800e-03 7.53011800e-02
        2 -1    0    0  501    0 +0.0000000000e+00 +0.0000000000e+00 +3.1585728384e+03 3.1585728384e+03 0.0000000000e+00 0.0000e+00 -1.0000e+00
       -2 -1    0    0    0  501 -0.0000000000e+00 -0.0000000000e+00 -1.3046219705e+03 1.3046219705e+03 0.0000000000e+00 0.0000e+00 1.0000e+00
      -13  1    1    2    0    0 -1.6837782654e+03 -4.8919108121e+02 -1.9753020771e+02 1.7644929424e+03 0.0000000000e+00 0.0000e+00 1.0000e+00
       13  1    1    2    0    0 +1.6837782654e+03 +4.8919108121e+02 +2.0514810755e+03 2.6987018665e+03 0.0000000000e+00 0.0000e+00 -1.0000e+00
<mgrwt>
<rscale>  0 0.40599229E+04</rscale>
<asrwt>0</asrwt>
<pdfrwt beam="1">  1        2 0.48593428E+00 0.40599229E+04</pdfrwt>
<pdfrwt beam="2">  1       -2 0.20071107E+00 0.40599229E+04</pdfrwt>
<totfact> 0.15197422E-01</totfact>
</mgrwt>
<rwgt>
<wgt id='morphing_basis_vector_1'> +1.6802261e-05 </wgt>
<wgt id='morphing_basis_vector_2'> +1.1552061e-05 </wgt>
<wgt id='morphing_basis_vector_3'> +1.8486671e-05 </wgt>
<wgt id='morphing_basis_vector_4'> +1.3079499e-05 </wgt>
<wgt id='morphing_basis_vector_5'> +2.1086438e-05 </wgt>
</rwgt>
</event>
<event>
 4      1 +4.5322000e-10 3.90873100e+03 7.81860800e-03 7.55725100e-02
        2 -1    0    0  501    0 +0.0000000000e+00 +0.0000000000e+00 +2.3886772232e+03 2.3886772232e+03 0.0000000000e+00 0.0000e+00 1.0000e+00
       -2 -1    0    0    0  501 -0.0000000000e+00 -0.0000000000e+00 -1.5990209371e+03 1.5990209371e+03 0.0000000000e+00 0.0000e+00 -1.0000e+00
      -13  1    1    2    0    0 +2.7089532110e+02 +1.6491543173e+03 -6.3877902137e+02 1.7891710022e+03 0.0000000000e+00 0.0000e+00 -1.0000e+00
       13  1    1    2    0    0 -2.7089532110e+02 -1.6491543173e+03 +1.4284353075e+03 2.1985271581e+03 0.0000000000e+00 0.0000e+00 1.0000e+00
<mgrwt>
<rscale>  0 0.39087312E+04</rscale>
<asrwt>0</asrwt>
<pdfrwt beam="1">  1        2 0.36748881E+00 0.39087312E+04</pdfrwt>
<pdfrwt beam="2">  1       -2 0.24600322E+00 0.39087312E+04</pdfrwt>
<totfact> 0.22324503E-01</totfact>
</mgrwt>
<rwgt>
<wgt id='morphing_basis_vector_1'> +1.4442373e-05 </wgt>
<wgt id='morphing_basis_vector_2'> +9.9143416e-06 </wgt>
<wgt id='morphing_basis_vector_3'> +1.5876055e-05 </wgt>
<wgt id='morphing_basis_vector_4'> +1.1238985e-05 </wgt>
<wgt id='morphing_basis_vector_5'> +1.8103624e-05 </wgt>
</rwgt>
</event>
<event>
 4      1 +4.5322000e-10 4.26520400e+03 7.81860800e-03 7.49514100e-02
        2 -1    0    0  501    0 +0.0000000000e+00 +0.0000000000e+00 +2.5399840530e+03 2.5399840530e+03 0.0000000000e+00 0.0000e+00 1.0000e+00
       -2 -1    0    0    0  501 -0.0000000000e+00 -0.0000000000e+00 -1.7905590080e+03 1.7905590080e+03 0.0000000000e+00 0.0000e+00 -1.0000e+00
      -13  1    1    2    0    0 -7.3365307056e+02 -6.3898886859e+02 +2.3015296874e+03 2.4987181722e+03 0.0000000000e+00 0.0000e+00 1.0000e+00
       13  1    1    2    0    0 +7.3365307056e+02 +6.3898886859e+02 -1.5521046424e+03 1.8318248887e+03 0.0000000000e+00 0.0000e+00 -1.0000e+00
<mgrwt>
<rscale>  0 0.42652040E+04</rscale>
<asrwt>0</asrwt>
<pdfrwt beam="1">  1        2 0.39076678E+00 0.42652040E+04</pdfrwt>
<pdfrwt beam="2">  1       -2 0.27547062E+00 0.42652040E+04</pdfrwt>
<totfact> 0.11064060E-01</totfact>
</mgrwt>
<rwgt>
<wgt id='morphing_basis_vector_1'> +2.7684067e-05 </wgt>
<wgt id='morphing_basis_vector_2'> +3.5329472e-05 </wgt>
<wgt id='morphing_basis_vector_3'> +3.4172252e-05 </wgt>
<wgt id='morphing_basis_vector_4'> +6.0308599e-07 </wgt>
<wgt id='morphing_basis_vector_5'> +2.4427965e-05 </wgt>
</rwgt>
</event>
<event>
 4      1 +4.5322000e-10 4.19679200e+03 7.81860800e-03 7.50657200e-02
        2 -1    0    0  501    0 +0.0000000000e+00 +0.0000000000e+00 +3.0553106523e+03 3.0553106523e+03 0.0000000000e+00 0.0000e+00 1.0000e+00
       -2 -1    0    0    0  501 -0.0000000000e+00 -0.0000000000e+00 -1.4411841020e+03 1.4411841020e+03 0.0000000000e+00 0.0000e+00 -1.0000e+00
      -13  1    1    2    0    0 -1.8105420699e+03 +1.6929503558e+02 +1.9290023177e+03 2.6509947827e+03 0.0000000000e+00 0.0000e+00 1.0000e+00
       13  1    1    2    0    0 +1.8105420699e+03 -1.6929503558e+02 -3.1487576743e+02 1.8454999716e+03 0.0000000000e+00 0.0000e+00 -1.0000e+00
<mgrwt>
<rscale>  0 0.41967917E+04</rscale>
<asrwt>0</asrwt>
<pdfrwt beam="1">  1        2 0.47004779E+00 0.41967917E+04</pdfrwt>
<pdfrwt beam="2">  1       -2 0.22172063E+00 0.41967917E+04</pdfrwt>
<totfact> 0.12445212E-01</totfact>
</mgrwt>
<rwgt>
<wgt id='morphing_basis_vector_1'> +2.2604037e-05 </wgt>
<wgt id='morphing_basis_vector_2'> +2.3269848e-05 </wgt>
<wgt id='morphing_basis_vector_3'> +2.6628831e-05 </wgt>
<wgt id='morphing_basis_vector_4'> +7.6725245e-06 </wgt>
<wgt id='morphing_basis_vector_5'> +2.3485113e-05 </wgt>
</rwgt>
</event>
<event>
 4      1 +4.5322000e-10 4.00090100e+03 7.81860800e-03 7.54056500e-02
        2 -1    0    0  501    0 +0.0000000000e+00 +0.0000000000e+00 +3.6225854093e+03 3.6225854093e+03 0.0000000000e+00 0.0000e+00 -1.0000e+00
       -2 -1    0    0    0  501 -0.0000000000e+00 -0.0000000000e+00 -1.1046815086e+03 1.1046815086e+03 0.0000000000e+00 0.0000e+00 1.0000e+00
      -13  1    1    2    0    0 -1.4389798976e+03 -7.2060896823e+01 -3.8078603764e+02 1.4902529734e+03 0.0000000000e+00 0.0000e+00 1.0000e+00
       13  1    1    2    0    0 +1.4389798976e+03 +7.2060896823e+01 +2.8986899383e+03 3.2370139445e+03 0.0000000000e+00 0.0000e+00 -1.0000e+00
<mgrwt>
<rscale>  0 0.40009015E+04</rscale>
<asrwt>0</asrwt>
<pdfrwt beam="1">  1        2 0.55732083E+00 0.40009015E+04</pdfrwt>
<pdfrwt beam="2">  1       -2 0.16995100E+00 0.40009015E+04</pdfrwt>
<totfact> 0.12137049E-01</totfact>
</mgrwt>
<rwgt>
<wgt id='morphing_basis_vector_1'> +1.5802693e-05 </wgt>
<wgt id='morphing_basis_vector_2'> +1.0754166e-05 </wgt>
<wgt id='morphing_basis_vector_3'> +1.7357668e-05 </wgt>
<wgt id='morphing_basis_vector_4'> +1.2434066e-05 </wgt>
<wgt id='morphing_basis_vector_5'> +1.9889558e-05 </wgt>
</rwgt>
</event>
<event>
 4      1 +4.5322000e-10 4.57222000e+03 7.81860800e-03 7.44639100e-02
        2 -1    0    0  501    0 +0.0000000000e+00 +0.0000000000e+00 +4.1655533986e+03 4.1655533986e+03 0.0000000000e+00 0.0000e+00 1.0000e+00
       -2 -1    0    0    0  501 -0.0000000000e+00 -0.0000000000e+00 -1.2546467190e+03 1.2546467190e+03 0.0000000000e+00 0.0000e+00 -1.0000e+00
      -13  1    1    2    0    0 -1.3984710828e+03 -1.1045600350e+03 +3.1529957679e+03 3.6217615262e+03 0.0000000000e+00 0.0000e+00 1.0000e+00
       13  1    1    2    0    0 +1.3984710828e+03 +1.1045600350e+03 -2.4208908834e+02 1.7984385914e+03 0.0000000000e+00 0.0000e+00 -1.0000e+00
<mgrwt>
<rscale>  0 0.45722196E+04</rscale>
<asrwt>0</asrwt>
<pdfrwt beam="1">  1        2 0.64085436E+00 0.45722196E+04</pdfrwt>
<pdfrwt beam="2">  1       -2 0.19302257E+00 0.45722196E+04</pdfrwt>
<totfact> 0.27605800E-02</totfact>
</mgrwt>
<rwgt>
<wgt id='morphing_basis_vector_1'> +3.3586668e-05 </wgt>
<wgt id='morphing_basis_vector_2'> +3.8001673e-05 </wgt>
<wgt id='morphing_basis_vector_3'> +4.0427917e-05 </wgt>
<wgt id='morphing_basis_vector_4'> +7.0199156e-06 </wgt>
<wgt id='morphing_basis_vector_5'> +3.2811666e-05 </wgt>
</rwgt>
</event>
<event>
 4      1 +4.5322000e-10 4.01638500e+03 7.81860800e-03 7.53780700e-02
        2 -1    0    0  501    0 +0.0000000000e+00 +0.0000000000e+00 +3.0938152618e+03 3.0938152618e+03 0.0000000000e+00 0.0000e+00 1.0000e+00
       -2 -1    0    0    0  501 -0.0000000000e+00 -0.0000000000e+00 -1.3035158469e+03 1.3035158469e+03 0.0000000000e+00 0.0000e+00 -1.0000e+00
      -13  1    1    2    0    0 -1.2086102031e+03 +3.3288027645e+02 -8.2250221474e+02 1.4993524585e+03 0.0000000000e+00 0.0000e+00 -1.0000e+00
       13  1    1    2    0    0 +1.2086102031e+03 -3.3288027645e+02 +2.6128016297e+03 2.8979786503e+03 0.0000000000e+00 0.0000e+00 1.0000e+00
<mgrwt>
<rscale>  0 0.40163851E+04</rscale>
<asrwt>0</asrwt>
<pdfrwt beam="1">  1        2 0.47597158E+00 0.40163851E+04</pdfrwt>
<pdfrwt beam="2">  1       -2 0.20054090E+00 0.40163851E+04</pdfrwt>
<totfact> 0.16899452E-01</totfact>
</mgrwt>
<rwgt>
<wgt id='morphing_basis_vector_1'> +1.6036015e-05 </wgt>
<wgt id='morphing_basis_vector_2'> +1.0887571e-05 </wgt>
<wgt id='morphing_basis_vector_3'> +1.7609443e-05 </wgt>
<wgt id='morphing_basis_vector_4'> +1.2652860e-05 </wgt>
<wgt id='morphing_basis_vector_5'> +2.0202805e-05 </wgt>
</rwgt>
</event>
<event>
 4      1 +4.5322000e-10 3.93330200e+03 7.81860800e-03 7.55275800e-02
        2 -1    0    0  501    0 +0.0000000000e+00 +0.0000000000e+00 +1.7806482111e+03 1.7806482111e+03 0.0000000000e+00 0.0000e+00 1.0000e+00
       -2 -1    0    0    0  501 -0.0000000000e+00 -0.0000000000e+00 -2.1720837862e+03 2.1720837862e+03 0.0000000000e+00 0.0000e+00 -1.0000e+00
      -13  1    1    2    0    0 +2.6354380499e+02 -7.7361597504e+02 -1.9933468846e+03 2.1543836280e+03 0.0000000000e+00 0.0000e+00 -1.0000e+00
       13  1    1    2    0    0 -2.6354380499e+02 +7.7361597504e+02 +1.6019113095e+03 1.7983483694e+03 0.0000000000e+00 0.0000e+00 1.0000e+00
<mgrwt>
<rscale>  0 0.39333025E+04</rscale>
<asrwt>0</asrwt>
<pdfrwt beam="1">  1        2 0.27394588E+00 0.39333025E+04</pdfrwt>
<pdfrwt beam="2">  1       -2 0.33416673E+00 0.39333025E+04</pdfrwt>
<totfact> 0.12502227E-01</totfact>
</mgrwt>
<rwgt>
<wgt id='morphing_basis_vector_1'> +1.4748429e-05 </wgt>
<wgt id='morphing_basis_vector_2'> +9.9933053e-06 </wgt>
<wgt id='morphing_basis_vector_3'> +1.6185066e-05 </wgt>
<wgt id='morphing_basis_vector_4'> +1.1649496e-05 </wgt>
<wgt id='morphing_basis_vector_5'> +1.8575858e-05 </wgt>
</rwgt>
</event>
<event>
 4      1 +4.5322000e-10 4.06825700e+03 7.81860800e-03 7.52865700e-02
        2 -1    0    0  501    0 +0.0000000000e+00 +0.0000000000e+00 +2.1649350350e+03 2.1649350350e+03 0.0000000000e+00 0.0000e+00 1.0000e+00
       -2 -1    0    0    0  501 -0.0000000000e+00 -0.0000000000e+00 -1.9112250039e+03 1.9112250039e+03 0.0000000000e+00 0.0000e+00 -1.0000e+00
      -13  1    1    2    0    0 +1.8572907167e+03 -6.4513391659e+02 -3.9564767659e+02 2.0055581918e+03 0.0000000000e+00 0.0000e+00 -1.0000e+00
       13  1    1    2    0    0 -1.8572907167e+03 +6.4513391659e+02 +6.4935770764e+02 2.0706018471e+03 0.0000000000e+00 0.0000e+00 1.0000e+00
<mgrwt>
<rscale>  0 0.40682566E+04</rscale>
<asrwt>0</asrwt>
<pdfrwt beam="1">  1        2 0.33306693E+00 0.40682566E+04</pdfrwt>
<pdfrwt beam="2">  1       -2 0.29403462E+00 0.40682566E+04</pdfrwt>
<totfact> 0.13932358E-01</totfact>
</mgrwt>
<rwgt>
<wgt id='morphing_basis_vector_1'> +1.7098213e-05 </wgt>
<wgt id='morphing_basis_vector_2'> +1.2112149e-05 </wgt>
<wgt id='morphing_basis_vector_3'> +1.8893075e-05 </wgt>
<wgt id='morphing_basis_vector_4'> +1.2852755e-05 </wgt>
<wgt id='morphing_basis_vector_5'> +2.1233020e-05 </wgt>
</rwgt>
</event>
<event>
 4      1 +4.5322000e-10 4.06992800e+03 7.81860800e-03 7.52836500e-02
        2 -1    0    0  501    0 +0.0000000000e+00 +0.0000000000e+00 +4.3215454872e+03 4.3215454872e+03 0.0000000000e+00 0.0000e+00 -1.0000e+00
       -2 -1    0    0    0  501 -0.0000000000e+00 -0.0000000000e+00 -9.5824005618e+02 9.5824005618e+02 0.0000000000e+00 0.0000e+00 1.0000e+00
      -13  1    1    2    0    0 -9.0876419063e+02 -1.9515543501e+02 -6.6677436062e+02 1.1439082332e+03 0.0000000000e+00 0.0000e+00 1.0000e+00
       13  1    1    2    0    0 +9.0876419063e+02 +1.9515543501e+02 +4.0300797917e+03 4.1358773102e+03 0.0000000000e+00 0.0000e+00 -1.0000e+00
<mgrwt>
<rscale>  0 0.40699278E+04</rscale>
<asrwt>0</asrwt>
<pdfrwt beam="1">  1        2 0.66485314E+00 0.40699278E+04</pdfrwt>
<pdfrwt beam="2">  1       -2 0.14742155E+00 0.40699278E+04</pdfrwt>
<totfact> 0.46763474E-02</totfact>
</mgrwt>
<rwgt>
<wgt id='morphing_basis_vector_1'> +1.6895847e-05 </wgt>
<wgt id='morphing_basis_vector_2'> +1.1455027e-05 </wgt>
<wgt id='morphing_basis_vector_3'> +1.8554162e-05 </wgt>
<wgt id='morphing_basis_vector_4'> +1.3361535e-05 </wgt>
<wgt id='morphing_basis_vector_5'> +2.1308740e-05 </wgt>
</rwgt>
</event>
<event>
 4      1 +4.5322000e-10 4.25125500e+03 7.81860800e-03 7.49745400e-02
        2 -1    0    0  501    0 +0.0000000000e+00 +0.0000000000e+00 +1.6222171151e+03 1.6222171151e+03 0.0000000000e+00 0.0000e+00 1.0000e+00
       -2 -1    0    0    0  501 -0.0000000000e+00 -0.0000000000e+00 -2.7852570852e+03 2.7852570852e+03 0.0000000000e+00 0.0000e+00 -1.0000e+00
      -13  1    1    2    0    0 +9.2999044868e+02 -1.6361995210e+03 -1.6058868746e+03 2.4740460305e+03 0.0000000000e+00 0.0000e+00 -1.0000e+00
       13  1    1    2    0    0 -9.2999044868e+02 +1.6361995210e+03 +4.4284690443e+02 1.9334281698e+03 0.0000000000e+00 0.0000e+00 1.0000e+00
<mgrwt>
<rscale>  0 0.42512547E+04</rscale>
<asrwt>0</asrwt>
<pdfrwt beam="1">  1        2 0.24957187E+00 0.42512547E+04</pdfrwt>
<pdfrwt beam="2">  1       -2 0.42850108E+00 0.42512547E+04</pdfrwt>
<totfact> 0.36237948E-02</totfact>
</mgrwt>
<rwgt>
<wgt id='morphing_basis_vector_1'> +2.0202676e-05 </wgt>
<wgt id='morphing_basis_vector_2'> +1.3941505e-05 </wgt>
<wgt id='morphing_basis_vector_3'> +2.2256427e-05 </wgt>
<wgt id='morphing_basis_vector_4'> +1.5696120e-05 </wgt>
<wgt id='morphing_basis_vector_5'> +2.5369306e-05 </wgt>
</rwgt>
</event>
<event>
 4      1 +4.5322000e-10 4.47711800e+03 7.81860800e-03 7.46106800e-02
        2 -1    0    0  501    0 +0.0000000000e+00 +0.0000000000e+00 +3.2886583047e+03 3.2886583047e+03 0.0000000000e+00 0.0000e+00 1.0000e+00
       -2 -1    0    0    0  501 -0.0000000000e+00 -0.0000000000e+00 -1.5237661052e+03 1.5237661052e+03 0.0000000000e+00 0.0000e+00 -1.0000e+00
      -13  1    1    2    0    0 -7.6341234803e+02 +2.0600620555e+03 +4.2075220710e+02 2.2368921533e+03 0.0000000000e+00 0.0000e+00 -1.0000e+00
       13  1    1    2    0    0 +7.6341234803e+02 -2.0600620555e+03 +1.3441399924e+03 2.5755322566e+03 0.0000000000e+00 0.0000e+00 1.0000e+00
<mgrwt>
<rscale>  0 0.44771178E+04</rscale>
<asrwt>0</asrwt>
<pdfrwt beam="1">  1        2 0.50594743E+00 0.44771178E+04</pdfrwt>
<pdfrwt beam="2">  1       -2 0.23442556E+00 0.44771178E+04</pdfrwt>
<totfact> 0.68863924E-02</totfact>
</mgrwt>
<rwgt>
<wgt id='morphing_basis_vector_1'> +2.5137005e-05 </wgt>
<wgt id='morphing_basis_vector_2'> +1.8049536e-05 </wgt>
<wgt id='morphing_basis_vector_3'> +2.7873967e-05 </wgt>
<wgt id='morphing_basis_vector_4'> +1.8667715e-05 </wgt>
<wgt id='morphing_basis_vector_5'> +3.1177830e-05 </wgt>
</rwgt>
</event>
<event>
 4      1 +4.5322000e-10 3.91902300e+03 7.81860800e-03 7.55536500e-02
        2 -1    0    0  501    0 +0.0000000000e+00 +0.0000000000e+00 +2.3915381965e+03 2.3915381965e+03 0.0000000000e+00 0.0000e+00 -1.0000e+00
       -2 -1    0    0    0  501 -0.0000000000e+00 -0.0000000000e+00 -1.6055294101e+03 1.6055294101e+03 0.0000000000e+00 0.0000e+00 1.0000e+00
      -13  1    1    2    0    0 +1.8722987550e+03 +9.8740152494e+01 +9.7393731812e+02 2.1127721470e+03 0.0000000000e+00 0.0000e+00 1.0000e+00
       13  1    1    2    0    0 -1.8722987550e+03 -9.8740152494e+01 -1.8792853170e+02 1.8842954595e+03 0.0000000000e+00 0.0000e+00 -1.0000e+00
<mgrwt>
<rscale>  0 0.39190228E+04</rscale>
<asrwt>0</asrwt>
<pdfrwt beam="1">  1        2 0.36792895E+00 0.39190228E+04</pdfrwt>
<pdfrwt beam="2">  1       -2 0.24700452E+00 0.39190228E+04</pdfrwt>
<totfact> 0.21867660E-01</totfact>
</mgrwt>
<rwgt>
<wgt id='morphing_basis_vector_1'> +1.5975192e-05 </wgt>
<wgt id='morphing_basis_vector_2'> +1.4078454e-05 </wgt>
<wgt id='morphing_basis_vector_3'> +1.8256614e-05 </wgt>
<wgt id='morphing_basis_vector_4'> +8.4399360e-06 </wgt>
<wgt id='morphing_basis_vector_5'> +1.8053069e-05 </wgt>
</rwgt>
</event>
<event>
 4      1 +4.5322000e-10 4.17280200e+03 7.81860800e-03 7.51063200e-02
        2 -1    0    0  501    0 +0.0000000000e+00 +0.0000000000e+00 +2.0610559107e+03 2.0610559107e+03 0.0000000000e+00 0.0000e+00 1.0000e+00
       -2 -1    0    0    0  501 -0.0000000000e+00 -0.0000000000e+00 -2.1120573729e+03 2.1120573729e+03 0.0000000000e+00 0.0000e+00 -1.0000e+00
      -13  1    1    2    0    0 -1.1717856534e+03 +4.5988080227e+01 +1.7002792848e+03 2.0654651213e+03 0.0000000000e+00 0.0000e+00 1.0000e+00
       13  1    1    2    0    0 +1.1717856534e+03 -4.5988080227e+01 -1.7512807470e+03 2.1076481622e+03 0.0000000000e+00 0.0000e+00 -1.0000e+00
<mgrwt>
<rscale>  0 0.41728016E+04</rscale>
<asrwt>0</asrwt>
<pdfrwt beam="1">  1        2 0.31708552E+00 0.41728016E+04</pdfrwt>
<pdfrwt beam="2">  1       -2 0.32493190E+00 0.41728016E+04</pdfrwt>
<totfact> 0.98307881E-02</totfact>
</mgrwt>
<rwgt>
<wgt id='morphing_basis_vector_1'> +2.5058387e-05 </wgt>
<wgt id='morphing_basis_vector_2'> +3.1455919e-05 </wgt>
<wgt id='morphing_basis_vector_3'> +3.0792613e-05 </wgt>
<wgt id='morphing_basis_vector_4'> +1.2172016e-06 </wgt>
<wgt id='morphing_basis_vector_5'> +2.2426440e-05 </wgt>
</rwgt>
</event>
<event>
 4      1 +4.5322000e-10 3.90601000e+03 7.81860800e-03 7.55775100e-02
        2 -1    0    0  501    0 +0.0000000000e+00 +0.0000000000e+00 +3.0120617063e+03 3.0120617063e+03 0.0000000000e+00 0.0000e+00 -1.0000e+00
       -2 -1    0    0    0  501 -0.0000000000e+00 -0.0000000000e+00 -1.2663183697e+03 1.2663183697e+03 0.0000000000e+00 0.0000e+00 1.0000e+00
      -13  1    1    2    0    0 -1.8987294666e+03 -7.6209845993e+01 +1.3666802490e+03 2.3406828984e+03 0.0000000000e+00 0.0000e+00 1.0000e+00
       13  1    1    2    0    0 +1.8987294666e+03 +7.6209845993e+01 +3.7906308762e+02 1.9376971776e+03 0.0000000000e+00 0.0000e+00 -1.0000e+00
<mgrwt>
<rscale>  0 0.39060103E+04</rscale>
<asrwt>0</asrwt>
<pdfrwt beam="1">  1        2 0.46339411E+00 0.39060103E+04</pdfrwt>
<pdfrwt beam="2">  1       -2 0.19481821E+00 0.39060103E+04</pdfrwt>
<totfact> 0.21261166E-01</totfact>
</mgrwt>
<rwgt>
<wgt id='morphing_basis_vector_1'> +1.5514009e-05 </wgt>
<wgt id='morphing_basis_vector_2'> +1.3154619e-05 </wgt>
<wgt id='morphing_basis_vector_3'> +1.7612680e-05 </wgt>
<wgt id='morphing_basis_vector_4'> +8.8586358e-06 </wgt>
<wgt id='morphing_basis_vector_5'> +1.7857475e-05 </wgt>
</rwgt>
</event>
<event>
 4      1 +4.5322000e-10 4.34967700e+03 7.81860800e-03 7.48132400e-02
        2 -1    0    0  501    0 +0.0000000000e+00 +0.0000000000e+00 +3.3297171583e+03 3.3297171583e+03 0.0000000000e+00 0.0000e+00 1.0000e+00
       -2 -1    0    0    0  501 -0.0000000000e+00 -0.0000000000e+00 -1.4205176086e+03 1.4205176086e+03 0.0000000000e+00 0.0000e+00 -1.0000e+00
      -13  1    1    2    0    0 +1.0152342679e+03 -1.2903048762e+03 -6.0304809064e+02 1.7490724090e+03 0.0000000000e+00 0.0000e+00 -1.0000e+00
       13  1    1    2    0    0 -1.0152342679e+03 +1.2903048762e+03 +2.5122476403e+03 3.0011623579e+03 0.0000000000e+00 0.0000e+00 1.0000e+00
<mgrwt>
<rscale>  0 0.43496767E+04</rscale>
<asrwt>0</asrwt>
<pdfrwt beam="1">  1        2 0.51226417E+00 0.43496767E+04</pdfrwt>
<pdfrwt beam="2">  1       -2 0.21854117E+00 0.43496767E+04</pdfrwt>
<totfact> 0.84262472E-02</totfact>
</mgrwt>
<rwgt>
<wgt id='morphing_basis_vector_1'> +2.2050934e-05 </wgt>
<wgt id='morphing_basis_vector_2'> +1.5041649e-05 </wgt>
<wgt id='morphing_basis_vector_3'> +2.4261326e-05 </wgt>
<wgt id='morphing_basis_vector_4'> +1.7376410e-05 </wgt>
<wgt id='morphing_basis_vector_5'> +2.7826507e-05 </wgt>
</rwgt>
</event>
<event>
 4      1 +4.5322000e-10 4.05403300e+03 7.81860800e-03 7.53115200e-02
        2 -1    0    0  501    0 +0.0000000000e+00 +0.0000000000e+00 +2.9837853842e+03 2.9837853842e+03 0.0000000000e+00 0.0000e+00 -1.0000e+00
       -2 -1    0    0    0  501 -0.0000000000e+00 -0.0000000000e+00 -1.3770416171e+03 1.3770416171e+03 0.0000000000e+00 0.0000e+00 1.0000e+00
      -13  1    1    2    0    0 -1.9921670043e+03 -5.1795957476e+01 +1.2020756495e+03 2.3273156343e+03 0.0000000000e+00 0.0000e+00 1.0000e+00
       13  1    1    2    0    0 +1.9921670043e+03 +5.1795957476e+01 +4.0466811757e+02 2.0335113670e+03 0.0000000000e+00 0.0000e+00 -1.0000e+00
<mgrwt>
<rscale>  0 0.40540334E+04</rscale>
<asrwt>0</asrwt>
<pdfrwt beam="1">  1        2 0.45904390E+00 0.40540334E+04</pdfrwt>
<pdfrwt beam="2">  1       -2 0.21185256E+00 0.40540334E+04</pdfrwt>
<totfact> 0.16484375E-01</totfact>
</mgrwt>
<rwgt>
<wgt id='morphing_basis_vector_1'> +1.7788778e-05 </wgt>
<wgt id='morphing_basis_vector_2'> +1.4669375e-05 </wgt>
<wgt id='morphing_basis_vector_3'> +2.0119276e-05 </wgt>
<wgt id='morphing_basis_vector_4'> +1.0710741e-05 </wgt>
<wgt id='morphing_basis_vector_5'> +2.0772665e-05 </wgt>
</rwgt>
</event>
<event>
 4      1 +4.5322000e-10 4.48734200e+03 7.81860800e-03 7.45947300e-02
        2 -1    0    0  501    0 +0.0000000000e+00 +0.0000000000e+00 +1.7414271354e+03 1.7414271354e+03 0.0000000000e+00 0.0000e+00 1.0000e+00
       -2 -1    0    0    0  501 -0.0000000000e+00 -0.0000000000e+00 -2.8907665330e+03 2.8907665330e+03 0.0000000000e+00 0.0000e+00 -1.0000e+00
      -13  1    1    2    0    0 -1.1993794792e+03 +1.4428827167e+03 -1.8446836910e+03 2.6312125701e+03 0.0000000000e+00 0.0000e+00 -1.0000e+00
       13  1    1    2    0    0 +1.1993794792e+03 -1.4428827167e+03 +6.9534429341e+02 2.0009810983e+03 0.0000000000e+00 0.0000e+00 1.0000e+00
<mgrwt>
<rscale>  0 0.44873419E+04</rscale>
<asrwt>0</asrwt>
<pdfrwt beam="1">  1        2 0.26791187E+00 0.44873419E+04</pdfrwt>
<pdfrwt beam="2">  1       -2 0.44473331E+00 0.44873419E+04</pdfrwt>
<totfact> 0.23682637E-02</totfact>
</mgrwt>
<rwgt>
<wgt id='morphing_basis_vector_1'> +2.5006842e-05 </wgt>
<wgt id='morphing_basis_vector_2'> +1.7158165e-05 </wgt>
<wgt id='morphing_basis_vector_3'> +2.7548681e-05 </wgt>
<wgt id='morphing_basis_vector_4'> +1.9603322e-05 </wgt>
<wgt id='morphing_basis_vector_5'> +3.1528593e-05 </wgt>
</rwgt>
</event>
<event>
 4      1 +4.5322000e-10 3.98801900e+03 7.81860800e-03 7.54286900e-02
        2 -1    0    0  501    0 +0.0000000000e+00 +0.0000000000e+00 +2.5150952860e+03 2.5150952860e+03 0.0000000000e+00 0.0000e+00 -1.0000e+00
       -2 -1    0    0    0  501 -0.0000000000e+00 -0.0000000000e+00 -1.5808842693e+03 1.5808842693e+03 0.0000000000e+00 0.0000e+00 1.0000e+00
      -13  1    1    2    0    0 +8.6509478637e+02 -7.0805742449e+02 -1.2287566641e+03 1.6611975335e+03 0.0000000000e+00 0.0000e+00 1.0000e+00
       13  1    1    2    0    0 -8.6509478637e+02 +7.0805742449e+02 +2.1629676808e+03 2.4347820219e+03 0.0000000000e+00 0.0000e+00 -1.0000e+00
<mgrwt>
<rscale>  0 0.39880193E+04</rscale>
<asrwt>0</asrwt>
<pdfrwt beam="1">  1        2 0.38693774E+00 0.39880193E+04</pdfrwt>
<pdfrwt beam="2">  1       -2 0.24321296E+00 0.39880193E+04</pdfrwt>
<totfact> 0.19516776E-01</totfact>
</mgrwt>
<rwgt>
<wgt id='morphing_basis_vector_1'> +1.5586078e-05 </wgt>
<wgt id='morphing_basis_vector_2'> +1.0572215e-05 </wgt>
<wgt id='morphing_basis_vector_3'> +1.7111037e-05 </wgt>
<wgt id='morphing_basis_vector_4'> +1.2305871e-05 </wgt>
<wgt id='morphing_basis_vector_5'> +1.9636031e-05 </wgt>
</rwgt>
</event>
<event>
 4      1 +4.5322000e-10 3.93953000e+03 7.81860800e-03 7.55162400e-02
        2 -1    0    0  501    0 +0.0000000000e+00 +0.0000000000e+00 +3.7696654917e+03 3.7696654917e+03 0.0000000000e+00 0.0000e+00 -1.0000e+00
       -2 -1    0    0    0  501 -0.0000000000e+00 -0.0000000000e+00 -1.0292621433e+03 1.0292621433e+03 0.0000000000e+00 0.0000e+00 1.0000e+00
      -13  1    1    2    0    0 +2.6797019474e+02 -1.9501657500e+03 +1.2838978025e+03 2.3501804281e+03 0.0000000000e+00 0.0000e+00 1.0000e+00
       13  1    1    2    0    0 -2.6797019474e+02 +1.9501657500e+03 +1.4565055460e+03 2.4487472069e+03 0.0000000000e+00 0.0000e+00 -1.0000e+00
<mgrwt>
<rscale>  0 0.39395299E+04</rscale>
<asrwt>0</asrwt>
<pdfrwt beam="1">  1        2 0.57994853E+00 0.39395299E+04</pdfrwt>
<pdfrwt beam="2">  1       -2 0.15834802E+00 0.39395299E+04</pdfrwt>
<totfact> 0.11591688E-01</totfact>
</mgrwt>
<rwgt>
<wgt id='morphing_basis_vector_1'> +1.5319211e-05 </wgt>
<wgt id='morphing_basis_vector_2'> +1.1460726e-05 </wgt>
<wgt id='morphing_basis_vector_3'> +1.7053405e-05 </wgt>
<wgt id='morphing_basis_vector_4'> +1.0714114e-05 </wgt>
<wgt id='morphing_basis_vector_5'> +1.8610310e-05 </wgt>
</rwgt>
</event>
<event>
 4      1 +4.5322000e-10 4.17152900e+03 7.81860800e-03 7.51084800e-02
        2 -1    0    0  501    0 +0.0000000000e+00 +0.0000000000e+00 +1.9737770004e+03 1.9737770004e+03 0.0000000000e+00 0.0000e+00 1.0000e+00
       -2 -1    0    0    0  501 -0.0000000000e+00 -0.0000000000e+00 -2.2041061876e+03 2.2041061876e+03 0.0000000000e+00 0.0000e+00 -1.0000e+00
      -13  1    1    2    0    0 -4.2457101410e+01 +4.7461974221e+02 -2.1488603014e+03 2.2010604490e+03 0.0000000000e+00 0.0000e+00 -1.0000e+00
       13  1    1    2    0    0 +4.2457101410e+01 -4.7461974221e+02 +1.9185311142e+03 1.9768227390e+03 0.0000000000e+00 0.0000e+00 1.0000e+00
<mgrwt>
<rscale>  0 0.41715293E+04</rscale>
<asrwt>0</asrwt>
<pdfrwt beam="1">  1        2 0.30365800E+00 0.41715293E+04</pdfrwt>
<pdfrwt beam="2">  1       -2 0.33909326E+00 0.41715293E+04</pdfrwt>
<totfact> 0.88799550E-02</totfact>
</mgrwt>
<rwgt>
<wgt id='morphing_basis_vector_1'> +1.8635884e-05 </wgt>
<wgt id='morphing_basis_vector_2'> +1.2632812e-05 </wgt>
<wgt id='morphing_basis_vector_3'> +2.0472819e-05 </wgt>
<wgt id='morphing_basis_vector_4'> +1.4758418e-05 </wgt>
<wgt id='morphing_basis_vector_5'> +2.3528841e-05 </wgt>
</rwgt>
</event>
<event>
 4      1 +4.5322000e-10 3.91413100e+03 7.81860800e-03 7.55626100e-02
        2 -1    0    0  501    0 +0.0000000000e+00 +0.0000000000e+00 +2.0116490596e+03 2.0116490596e+03 0.0000000000e+00 0.0000e+00 -1.0000e+00
       -2 -1    0    0    0  501 -0.0000000000e+00 -0.0000000000e+00 -1.9039630322e+03 1.9039630322e+03 0.0000000000e+00 0.0000e+00 1.0000e+00
      -13  1    1    2    0    0 +1.3780741075e+03 +1.2626113557e+03 -5.2674695679e+02 1.9418388290e+03 0.0000000000e+00 0.0000e+00 1.0000e+00
       13  1    1    2    0    0 -1.3780741075e+03 -1.2626113557e+03 +6.3443298414e+02 1.9737732628e+03 0.0000000000e+00 0.0000e+00 -1.0000e+00
<mgrwt>
<rscale>  0 0.39141310E+04</rscale>
<asrwt>0</asrwt>
<pdfrwt beam="1">  1        2 0.30948447E+00 0.39141310E+04</pdfrwt>
<pdfrwt beam="2">  1       -2 0.29291739E+00 0.39141310E+04</pdfrwt>
<totfact> 0.17533321E-01</totfact>
</mgrwt>
<rwgt>
<wgt id='morphing_basis_vector_1'> +1.4631526e-05 </wgt>
<wgt id='morphing_basis_vector_2'> +1.0291342e-05 </wgt>
<wgt id='morphing_basis_vector_3'> +1.6139560e-05 </wgt>
<wgt id='morphing_basis_vector_4'> +1.1069896e-05 </wgt>
<wgt id='morphing_basis_vector_5'> +1.8185108e-05 </wgt>
</rwgt>
</event>
<event>
 4      1 +4.5322000e-10 4.06442300e+03 7.81860800e-03 7.52932900e-02
        2 -1    0    0  501    0 +0.0000000000e+00 +0.0000000000e+00 +2.5731480313e+03 2.5731480313e+03 0.0000000000e+00 0.0000e+00 -1.0000e+00
       -2 -1    0    0    0  501 -0.0000000000e+00 -0.0000000000e+00 -1.6049929010e+03 1.6049929010e+03 0.0000000000e+00 0.0000e+00 1.0000e+00
      -13  1    1    2    0    0 -1.7689792997e+03 +5.2623873630e+02 -3.9041120371e+02 1.8864347002e+03 0.0000000000e+00 0.0000e+00 1.0000e+00
       13  1    1    2    0    0 +1.7689792997e+03 -5.2623873630e+02 +1.3585663341e+03 2.2917062321e+03 0.0000000000e+00 0.0000e+00 -1.0000e+00
<mgrwt>
<rscale>  0 0.40644234E+04</rscale>
<asrwt>0</asrwt>
<pdfrwt beam="1">  1        2 0.39586893E+00 0.40644234E+04</pdfrwt>
<pdfrwt beam="2">  1       -2 0.24692199E+00 0.40644234E+04</pdfrwt>
<totfact> 0.16869605E-01</totfact>
</mgrwt>
<rwgt>
<wgt id='morphing_basis_vector_1'> +1.6915891e-05 </wgt>
<wgt id='morphing_basis_vector_2'> +1.1718995e-05 </wgt>
<wgt id='morphing_basis_vector_3'> +1.8631997e-05 </wgt>
<wgt id='morphing_basis_vector_4'> +1.3054522e-05 </wgt>
<wgt id='morphing_basis_vector_5'> +2.1173596e-05 </wgt>
</rwgt>
</event>
<event>
 4      1 +4.5322000e-10 4.43392600e+03 7.81860800e-03 7.46785600e-02
        2 -1    0    0  501    0 +0.0000000000e+00 +0.0000000000e+00 +3.7185972655e+03 3.7185972655e+03 0.0000000000e+00 0.0000e+00 -1.0000e+00
       -2 -1    0    0    0  501 -0.0000000000e+00 -0.0000000000e+00 -1.3217144955e+03 1.3217144955e+03 0.0000000000e+00 0.0000e+00 1.0000e+00
      -13  1    1    2    0    0 -6.4018590400e+02 +1.1862071018e+03 -8.0238596618e+02 1.5686773151e+03 0.0000000000e+00 0.0000e+00 1.0000e+00
       13  1    1    2    0    0 +6.4018590400e+02 -1.1862071018e+03 +3.1992687362e+03 3.4716344460e+03 0.0000000000e+00 0.0000e+00 -1.0000e+00
<mgrwt>
<rscale>  0 0.44339255E+04</rscale>
<asrwt>0</asrwt>
<pdfrwt beam="1">  1        2 0.57209188E+00 0.44339255E+04</pdfrwt>
<pdfrwt beam="2">  1       -2 0.20334069E+00 0.44339255E+04</pdfrwt>
<totfact> 0.55536113E-02</totfact>
</mgrwt>
<rwgt>
<wgt id='morphing_basis_vector_1'> +2.3772910e-05 </wgt>
<wgt id='morphing_basis_vector_2'> +1.6154150e-05 </wgt>
<wgt id='morphing_basis_vector_3'> +2.6149066e-05 </wgt>
<wgt id='morphing_basis_vector_4'> +1.8829526e-05 </wgt>
<wgt id='morphing_basis_vector_5'> +3.0060462e-05 </wgt>
</rwgt>
</event>
<event>
 4      1 +4.5322000e-10 4.20889500e+03 7.81860800e-03 7.50453400e-02
        2 -1    0    0  501    0 +0.0000000000e+00 +0.0000000000e+00 +3.5438001668e+03 3.5438001668e+03 0.0000000000e+00 0.0000e+00 1.0000e+00
       -2 -1    0    0    0  501 -0.0000000000e+00 -0.0000000000e+00 -1.2497031870e+03 1.2497031870e+03 0.0000000000e+00 0.0000e+00 -1.0000e+00
      -13  1    1    2    0    0 +8.6862866847e+02 -2.0380870709e+02 -1.0236347101e+03 1.3578960831e+03 0.0000000000e+00 0.0000e+00 -1.0000e+00
       13  1    1    2    0    0 -8.6862866847e+02 +2.0380870709e+02 +3.3177316898e+03 3.4356072707e+03 0.0000000000e+00 0.0000e+00 1.0000e+00
<mgrwt>
<rscale>  0 0.42088946E+04</rscale>
<asrwt>0</asrwt>
<pdfrwt beam="1">  1        2 0.54520002E+00 0.42088946E+04</pdfrwt>
<pdfrwt beam="2">  1       -2 0.19226203E+00 0.42088946E+04</pdfrwt>
<totfact> 0.92624416E-02</totfact>
</mgrwt>
<rwgt>
<wgt id='morphing_basis_vector_1'> +1.9311182e-05 </wgt>
<wgt id='morphing_basis_vector_2'> +1.3095946e-05 </wgt>
<wgt id='morphing_basis_vector_3'> +2.1218890e-05 </wgt>
<wgt id='morphing_basis_vector_4'> +1.5292958e-05 </wgt>
<wgt id='morphing_basis_vector_5'> +2.4386864e-05 </wgt>
</rwgt>
</event>
<event>
 4      1 +4.5322000e-10 4.06965300e+03 7.81860800e-03 7.52841300e-02
        2 -1    0    0  501    0 +0.0000000000e+00 +0.0000000000e+00 +2.6544453169e+03 2.6544453169e+03 0.0000000000e+00 0.0000e+00 -1.0000e+00
       -2 -1    0    0    0  501 -0.0000000000e+00 -0.0000000000e+00 -1.5598437321e+03 1.5598437321e+03 0.0000000000e+00 0.0000e+00 1.0000e+00
      -13  1    1    2    0    0 +1.1739131270e+02 +6.8820981458e+02 -1.4319373346e+03 1.5930655980e+03 0.0000000000e+00 0.0000e+00 1.0000e+00
       13  1    1    2    0    0 -1.1739131270e+02 -6.8820981458e+02 +2.5265389194e+03 2.6212234510e+03 0.0000000000e+00 0.0000e+00 -1.0000e+00
<mgrwt>
<rscale>  0 0.40696535E+04</rscale>
<asrwt>0</asrwt>
<pdfrwt beam="1">  1        2 0.40837620E+00 0.40696535E+04</pdfrwt>
<pdfrwt beam="2">  1       -2 0.23997596E+00 0.40696535E+04</pdfrwt>
<totfact> 0.16815703E-01</totfact>
</mgrwt>
<rwgt>
<wgt id='morphing_basis_vector_1'> +1.6889637e-05 </wgt>
<wgt id='morphing_basis_vector_2'> +1.1447014e-05 </wgt>
<wgt id='morphing_basis_vector_3'> +1.8546468e-05 </wgt>
<wgt id='morphing_basis_vector_4'> +1.3361469e-05 </wgt>
<wgt id='morphing_basis_vector_5'> +2.1303265e-05 </wgt>
</rwgt>
</event>
<event>
 4      1 +4.5322000e-10 4.28554700e+03 7.81860800e-03 7.49178500e-02
        2 -1    0    0  501    0 +0.0000000000e+00 +0.0000000000e+00 +3.2411313828e+03 3.2411313828e+03 0.0000000000e+00 0.0000e+00 -1.0000e+00
       -2 -1    0    0    0  501 -0.0000000000e+00 -0.0000000000e+00 -1.4166280720e+03 1.4166280720e+03 0.0000000000e+00 0.0000e+00 1.0000e+00
      -13  1    1    2    0    0 -3.0177945707e+02 +7.7012907397e+02 -1.2361211575e+03 1.4873349143e+03 0.0000000000e+00 0.0000e+00 1.0000e+00
       13  1    1    2    0    0 +3.0177945707e+02 -7.7012907397e+02 +3.0606244683e+03 3.1704245406e+03 0.0000000000e+00 0.0000e+00 -1.0000e+00
<mgrwt>
<rscale>  0 0.42855467E+04</rscale>
<asrwt>0</asrwt>
<pdfrwt beam="1">  1        2 0.49863559E+00 0.42855467E+04</pdfrwt>
<pdfrwt beam="2">  1       -2 0.21794278E+00 0.42855467E+04</pdfrwt>
<totfact> 0.98543634E-02</totfact>
</mgrwt>
<rwgt>
<wgt id='morphing_basis_vector_1'> +2.0749343e-05 </wgt>
<wgt id='morphing_basis_vector_2'> +1.4072457e-05 </wgt>
<wgt id='morphing_basis_vector_3'> +2.2805746e-05 </wgt>
<wgt id='morphing_basis_vector_4'> +1.6444403e-05 </wgt>
<wgt id='morphing_basis_vector_5'> +2.6220969e-05 </wgt>
</rwgt>
</event>
<event>
 4      1 +4.5322000e-10 4.39257100e+03 7.81860800e-03 7.47442900e-02
        2 -1    0    0  501    0 +0.0000000000e+00 +0.0000000000e+00 +1.6905047861e+03 1.6905047861e+03 0.0000000000e+00 0.0000e+00 1.0000e+00
       -2 -1    0    0    0  501 -0.0000000000e+00 -0.0000000000e+00 -2.8533906324e+03 2.8533906324e+03 0.0000000000e+00 0.0000e+00 -1.0000e+00
      -13  1    1    2    0    0 -3.3645116347e+02 -1.2463148157e+03 -2.4194980508e+03 2.7423476846e+03 0.0000000000e+00 0.0000e+00 -1.0000e+00
       13  1    1    2    0    0 +3.3645116347e+02 +1.2463148157e+03 +1.2566122045e+03 1.8015477340e+03 0.0000000000e+00 0.0000e+00 1.0000e+00
<mgrwt>
<rscale>  0 0.43925712E+04</rscale>
<asrwt>0</asrwt>
<pdfrwt beam="1">  1        2 0.26007766E+00 0.43925712E+04</pdfrwt>
<pdfrwt beam="2">  1       -2 0.43898317E+00 0.43925712E+04</pdfrwt>
<totfact> 0.27884201E-02</totfact>
</mgrwt>
<rwgt>
<wgt id='morphing_basis_vector_1'> +2.2900047e-05 </wgt>
<wgt id='morphing_basis_vector_2'> +1.5555220e-05 </wgt>
<wgt id='morphing_basis_vector_3'> +2.5184261e-05 </wgt>
<wgt id='morphing_basis_vector_4'> +1.8138169e-05 </wgt>
<wgt id='morphing_basis_vector_5'> +2.8950502e-05 </wgt>
</rwgt>
</event>
<event>
 4      1 +4.5322000e-10 4.49226400e+03 7.81860800e-03 7.45870600e-02
        2 -1    0    0  501    0 +0.0000000000e+00 +0.0000000000e+00 +3.0635556927e+03 3.0635556927e+03 0.0000000000e+00 0.0000e+00 -1.0000e+00
       -2 -1    0    0    0  501 -0.0000000000e+00 -0.0000000000e+00 -1.6468151915e+03 1.6468151915e+03 0.0000000000e+00 0.0000e+00 1.0000e+00
      -13  1    1    2    0    0 -1.4942491745e+03 +1.6769996361e+03 +7.0972913957e+02 2.3555941558e+03 0.0000000000e+00 0.0000e+00 1.0000e+00
       13  1    1    2    0    0 +1.4942491745e+03 -1.6769996361e+03 +7.0701136161e+02 2.3547767284e+03 0.0000000000e+00 0.0000e+00 -1.0000e+00
<mgrwt>
<rscale>  0 0.44922645E+04</rscale>
<asrwt>0</asrwt>
<pdfrwt beam="1">  1        2 0.47131626E+00 0.44922645E+04</pdfrwt>
<pdfrwt beam="2">  1       -2 0.25335618E+00 0.44922645E+04</pdfrwt>
<totfact> 0.72195075E-02</totfact>
</mgrwt>
<rwgt>
<wgt id='morphing_basis_vector_1'> +2.5953050e-05 </wgt>
<wgt id='morphing_basis_vector_2'> +1.9691666e-05 </wgt>
<wgt id='morphing_basis_vector_3'> +2.9021098e-05 </wgt>
<wgt id='morphing_basis_vector_4'> +1.7912478e-05 </wgt>
<wgt id='morphing_basis_vector_5'> +3.1519108e-05 </wgt>
</rwgt>
</event>
<event>
 4      1 +4.5322000e-10 4.08697200e+03 7.81860800e-03 7.52539000e-02
        2 -1    0    0  501    0 +0.0000000000e+00 +0.0000000000e+00 +4.0628419306e+03 4.0628419306e+03 0.0000000000e+00 0.0000e+00 -1.0000e+00
       -2 -1    0    0    0  501 -0.0000000000e+00 -0.0000000000e+00 -1.0278113269e+03 1.0278113269e+03 0.0000000000e+00 0.0000e+00 1.0000e+00
      -13  1    1    2    0    0 +1.8596638177e+03 +2.7200452869e+02 +5.1833057086e+02 1.9496160031e+03 0.0000000000e+00 0.0000e+00 1.0000e+00
       13  1    1    2    0    0 -1.8596638177e+03 -2.7200452869e+02 +2.5167000329e+03 3.1410372545e+03 0.0000000000e+00 0.0000e+00 -1.0000e+00
<mgrwt>
<rscale>  0 0.40869720E+04</rscale>
<asrwt>0</asrwt>
<pdfrwt beam="1">  1        2 0.62505260E+00 0.40869720E+04</pdfrwt>
<pdfrwt beam="2">  1       -2 0.15812482E+00 0.40869720E+04</pdfrwt>
<totfact> 0.65723302E-02</totfact>
</mgrwt>
<rwgt>
<wgt id='morphing_basis_vector_1'> +1.7307571e-05 </wgt>
<wgt id='morphing_basis_vector_2'> +1.2024912e-05 </wgt>
<wgt id='morphing_basis_vector_3'> +1.9072998e-05 </wgt>
<wgt id='morphing_basis_vector_4'> +1.3316152e-05 </wgt>
<wgt id='morphing_basis_vector_5'> +2.1647018e-05 </wgt>
</rwgt>
</event>
<event>
 4      1 +4.5322000e-10 4.19016800e+03 7.81860800e-03 7.50769000e-02
        2 -1    0    0  501    0 +0.0000000000e+00 +0.0000000000e+00 +2.8550823786e+03 2.8550823786e+03 0.0000000000e+00 0.0000e+00 1.0000e+00
       -2 -1    0    0    0  501 -0.0000000000e+00 -0.0000000000e+00 -1.5373909294e+03 1.5373909294e+03 0.0000000000e+00 0.0000e+00 -1.0000e+00
      -13  1    1    2    0    0 -1.3279301272e+03 -1.0315194370e+03 -6.5127344208e+02 1.8032159793e+03 0.0000000000e+00 0.0000e+00 -1.0000e+00
       13  1    1    2    0    0 +1.3279301272e+03 +1.0315194370e+03 +1.9689648912e+03 2.5892573288e+03 0.0000000000e+00 0.0000e+00 1.0000e+00
<mgrwt>
<rscale>  0 0.41901684E+04</rscale>
<asrwt>0</asrwt>
<pdfrwt beam="1">  1        2 0.43924344E+00 0.41901684E+04</pdfrwt>
<pdfrwt beam="2">  1       -2 0.23652168E+00 0.41901684E+04</pdfrwt>
<totfact> 0.13201845E-01</totfact>
</mgrwt>
<rwgt>
<wgt id='morphing_basis_vector_1'> +1.9018600e-05 </wgt>
<wgt id='morphing_basis_vector_2'> +1.3003659e-05 </wgt>
<wgt id='morphing_basis_vector_3'> +2.0919891e-05 </wgt>
<wgt id='morphing_basis_vector_4'> +1.4921338e-05 </wgt>
<wgt id='morphing_basis_vector_5'> +2.3945469e-05 </wgt>
</rwgt>
</event>
<event>
 4      1 +4.5322000e-10 4.52168800e+03 7.81860800e-03 7.45414400e-02
        2 -1    0    0  501    0 +0.0000000000e+00 +0.0000000000e+00 +2.3350776385e+03 2.3350776385e+03 0.0000000000e+00 0.0000e+00 -1.0000e+00
       -2 -1    0    0    0  501 -0.0000000000e+00 -0.0000000000e+00 -2.1889702360e+03 2.1889702360e+03 0.0000000000e+00 0.0000e+00 1.0000e+00
      -13  1    1    2    0    0 -5.5354157618e+02 +1.5504341119e+03 -1.4773231229e+03 2.2119533949e+03 0.0000000000e+00 0.0000e+00 1.0000e+00
       13  1    1    2    0    0 +5.5354157618e+02 -1.5504341119e+03 +1.6234305254e+03 2.3120944796e+03 0.0000000000e+00 0.0000e+00 -1.0000e+00
<mgrwt>
<rscale>  0 0.45216879E+04</rscale>
<asrwt>0</asrwt>
<pdfrwt beam="1">  1        2 0.35924271E+00 0.45216879E+04</pdfrwt>
<pdfrwt beam="2">  1       -2 0.33676465E+00 0.45216879E+04</pdfrwt>
<totfact> 0.55648458E-02</totfact>
</mgrwt>
<rwgt>
<wgt id='morphing_basis_vector_1'> +2.5726065e-05 </wgt>
<wgt id='morphing_basis_vector_2'> +1.7535778e-05 </wgt>
<wgt id='morphing_basis_vector_3'> +2.8317573e-05 </wgt>
<wgt id='morphing_basis_vector_4'> +2.0323334e-05 </wgt>
<wgt id='morphing_basis_vector_5'> +3.2518129e-05 </wgt>
</rwgt>
</event>
<event>
 4      1 +4.5322000e-10 3.94517600e+03 7.81860800e-03 7.55059800e-02
        2 -1    0    0  501    0 +0.0000000000e+00 +0.0000000000e+00 +2.7483807908e+03 2.7483807908e+03 0.0000000000e+00 0.0000e+00 -1.0000e+00
       -2 -1    0    0    0  501 -0.0000000000e+00 -0.0000000000e+00 -1.4157802556e+03 1.4157802556e+03 0.0000000000e+00 0.0000e+00 1.0000e+00
      -13  1    1    2    0    0 +1.7151882749e+03 -1.6075727445e+02 +1.6805703577e+03 2.4066637585e+03 0.0000000000e+00 0.0000e+00 1.0000e+00
       13  1    1    2    0    0 -1.7151882749e+03 +1.6075727445e+02 -3.4796982253e+02 1.7574972879e+03 0.0000000000e+00 0.0000e+00 -1.0000e+00
<mgrwt>
<rscale>  0 0.39451759E+04</rscale>
<asrwt>0</asrwt>
<pdfrwt beam="1">  1        2 0.42282781E+00 0.39451759E+04</pdfrwt>
<pdfrwt beam="2">  1       -2 0.21781235E+00 0.39451759E+04</pdfrwt>
<totfact> 0.21278508E-01</totfact>
</mgrwt>
<rwgt>
<wgt id='morphing_basis_vector_1'> +1.7585808e-05 </wgt>
<wgt id='morphing_basis_vector_2'> +1.7931908e-05 </wgt>
<wgt id='morphing_basis_vector_3'> +2.0644529e-05 </wgt>
<wgt id='morphing_basis_vector_4'> +6.1694372e-06 </wgt>
<wgt id='morphing_basis_vector_5'> +1.8334172e-05 </wgt>
</rwgt>
</event>
<event>
 4      1 +4.5322000e-10 4.04015400e+03 7.81860800e-03 7.53359700e-02
        2 -1    0    0  501    0 +0.0000000000e+00 +0.0000000000e+00 +2.5914305056e+03 2.5914305056e+03 0.0000000000e+00 0.0000e+00 1.0000e+00
       -2 -1    0    0    0  501 -0.0000000000e+00 -0.0000000000e+00 -1.5746944901e+03 1.5746944901e+03 0.0000000000e+00 0.0000e+00 -1.0000e+00
      -13  1    1    2    0    0 -1.1300470345e+03 +8.7515258500e+02 -9.6366153517e+02 1.7238160869e+03 0.0000000000e+00 0.0000e+00 -1.0000e+00
       13  1    1    2    0    0 +1.1300470345e+03 -8.7515258500e+02 +1.9803975506e+03 2.4423089088e+03 0.0000000000e+00 0.0000e+00 1.0000e+00
<mgrwt>
<rscale>  0 0.40401541E+04</rscale>
<asrwt>0</asrwt>
<pdfrwt beam="1">  1        2 0.39868162E+00 0.40401541E+04</pdfrwt>
<pdfrwt beam="2">  1       -2 0.24226069E+00 0.40401541E+04</pdfrwt>
<totfact> 0.17751301E-01</totfact>
</mgrwt>
<rwgt>
<wgt id='morphing_basis_vector_1'> +1.6426682e-05 </wgt>
<wgt id='morphing_basis_vector_2'> +1.1175396e-05 </wgt>
<wgt id='morphing_basis_vector_3'> +1.8045339e-05 </wgt>
<wgt id='morphing_basis_vector_4'> +1.2936117e-05 </wgt>
<wgt id='morphing_basis_vector_5'> +2.0686000e-05 </wgt>
</rwgt>
</event>
<event>
 4      1 +4.5322000e-10 4.61993700e+03 7.81860800e-03 7.43916200e-02
        2 -1    0    0  501    0 +0.0000000000e+00 +0.0000000000e+00 +2.0774391927e+03 2.0774391927e+03 0.0000000000e+00 0.0000e+00 1.0000e+00
       -2 -1    0    0    0  501 -0.0000000000e+00 -0.0000000000e+00 -2.5685249322e+03 2.5685249322e+03 0.0000000000e+00 0.0000e+00 -1.0000e+00
      -13  1    1    2    0    0 -1.5267596848e+03 -4.7195462744e+02 -1.9229380294e+03 2.5002853778e+03 0.0000000000e+00 0.0000e+00 -1.0000e+00
       13  1    1    2    0    0 +1.5267596848e+03 +4.7195462744e+02 +1.4318522898e+03 2.1456787471e+03 0.0000000000e+00 0.0000e+00 1.0000e+00
<mgrwt>
<rscale>  0 0.46199370E+04</rscale>
<asrwt>0</asrwt>
<pdfrwt beam="1">  1        2 0.31960603E+00 0.46199370E+04</pdfrwt>
<pdfrwt beam="2">  1       -2 0.39515768E+00 0.46199370E+04</pdfrwt>
<totfact> 0.32522614E-02</totfact>
</mgrwt>
<rwgt>
<wgt id='morphing_basis_vector_1'> +2.8016479e-05 </wgt>
<wgt id='morphing_basis_vector_2'> +1.9078344e-05 </wgt>
<wgt id='morphing_basis_vector_3'> +3.0843320e-05 </wgt>
<wgt id='morphing_basis_vector_4'> +2.2176426e-05 </wgt>
<wgt id='morphing_basis_vector_5'> +3.5451201e-05 </wgt>
</rwgt>
</event>
<event>
 4      1 +4.5322000e-10 3.90228300e+03 7.81860800e-03 7.55843600e-02
        2 -1    0    0  501    0 +0.0000000000e+00 +0.0000000000e+00 +2.9052462231e+03 2.9052462231e+03 0.0000000000e+00 0.0000e+00 1.0000e+00
       -2 -1    0    0    0  501 -0.0000000000e+00 -0.0000000000e+00 -1.3103722615e+03 1.3103722615e+03 0.0000000000e+00 0.0000e+00 -1.0000e+00
      -13  1    1    2    0    0 +1.1142328615e+03 -6.1894953451e+01 +2.5264522929e+03 2.7619390006e+03 0.0000000000e+00 0.0000e+00 1.0000e+00
       13  1    1    2    0    0 -1.1142328615e+03 +6.1894953451e+01 -9.3157833125e+02 1.4536794840e+03 0.0000000000e+00 0.0000e+00 -1.0000e+00
<mgrwt>
<rscale>  0 0.39022835E+04</rscale>
<asrwt>0</asrwt>
<pdfrwt beam="1">  1        2 0.44696096E+00 0.39022835E+04</pdfrwt>
<pdfrwt beam="2">  1       -2 0.20159573E+00 0.39022835E+04</pdfrwt>
<totfact> 0.22241957E-01</totfact>
</mgrwt>
<rwgt>
<wgt id='morphing_basis_vector_1'> +1.9158342e-05 </wgt>
<wgt id='morphing_basis_vector_2'> +2.3990974e-05 </wgt>
<wgt id='morphing_basis_vector_3'> +2.3477551e-05 </wgt>
<wgt id='morphing_basis_vector_4'> +9.9984659e-07 </wgt>
<wgt id='morphing_basis_vector_5'> +1.7137735e-05 </wgt>
</rwgt>
</event>
<event>
 4      1 +4.5322000e-10 4.07394100e+03 7.81860800e-03 7.52766300e-02
        2 -1    0    0  501    0 +0.0000000000e+00 +0.0000000000e+00 +1.5956313946e+03 1.5956313946e+03 0.0000000000e+00 0.0000e+00 -1.0000e+00
       -2 -1    0    0    0  501 -0.0000000000e+00 -0.0000000000e+00 -2.6003807348e+03 2.6003807348e+03 0.0000000000e+00 0.0000e+00 1.0000e+00
      -13  1    1    2    0    0 +1.0223255550e+01 -1.0465067597e+03 -2.3022989697e+03 2.5290040448e+03 0.0000000000e+00 0.0000e+00 1.0000e+00
       13  1    1    2    0    0 -1.0223255550e+01 +1.0465067597e+03 +1.2975496294e+03 1.6670080845e+03 0.0000000000e+00 0.0000e+00 -1.0000e+00
<mgrwt>
<rscale>  0 0.40739412E+04</rscale>
<asrwt>0</asrwt>
<pdfrwt beam="1">  1        2 0.24548175E+00 0.40739412E+04</pdfrwt>
<pdfrwt beam="2">  1       -2 0.40005857E+00 0.40739412E+04</pdfrwt>
<totfact> 0.58653405E-02</totfact>
</mgrwt>
<rwgt>
<wgt id='morphing_basis_vector_1'> +1.6963943e-05 </wgt>
<wgt id='morphing_basis_vector_2'> +1.1505138e-05 </wgt>
<wgt id='morphing_basis_vector_3'> +1.8630137e-05 </wgt>
<wgt id='morphing_basis_vector_4'> +1.3411000e-05 </wgt>
<wgt id='morphing_basis_vector_5'> +2.1393022e-05 </wgt>
</rwgt>
</event>
<event>
 4      1 +4.5322000e-10 4.09846800e+03 7.81860800e-03 7.52339300e-02
        2 -1    0    0  501    0 +0.0000000000e+00 +0.0000000000e+00 +1.2114306456e+03 1.2114306456e+03 0.0000000000e+00 0.0000e+00 -1.0000e+00
       -2 -1    0    0    0  501 -0.0000000000e+00 -0.0000000000e+00 -3.4664465165e+03 3.4664465165e+03 0.0000000000e+00 0.0000e+00 1.0000e+00
      -13  1    1    2    0    0 +5.6736353961e+02 -1.8636001735e+03 -1.8533816602e+03 2.6888530214e+03 0.0000000000e+00 0.0000e+00 1.0000e+00
       13  1    1    2    0    0 -5.6736353961e+02 +1.8636001735e+03 -4.0163421072e+02 1.9890241406e+03 0.0000000000e+00 0.0000e+00 -1.0000e+00
<mgrwt>
<rscale>  0 0.40984678E+04</rscale>
<asrwt>0</asrwt>
<pdfrwt beam="1">  1        2 0.18637395E+00 0.40984678E+04</pdfrwt>
<pdfrwt beam="2">  1       -2 0.53329946E+00 0.40984678E+04</pdfrwt>
<totfact> 0.10864050E-02</totfact>
</mgrwt>
<rwgt>
<wgt id='morphing_basis_vector_1'> +1.7560638e-05 </wgt>
<wgt id='morphing_basis_vector_2'> +1.2332357e-05 </wgt>
<wgt id='morphing_basis_vector_3'> +1.9382415e-05 </wgt>
<wgt id='morphing_basis_vector_4'> +1.3343500e-05 </wgt>
<wgt id='morphing_basis_vector_5'> +2.1882442e-05 </wgt>
</rwgt>
</event>
<event>
 4      1 +4.5322000e-10 4.22869100e+03 7.81860800e-03 7.50121500e-02
        2 -1    0    0  501    0 +0.0000000000e+00 +0.0000000000e+00 +3.4032508628e+03 3.4032508628e+03 0.0000000000e+00 0.0000e+00 -1.0000e+00
       -2 -1    0    0    0  501 -0.0000000000e+00 -0.0000000000e+00 -1.3135844393e+03 1.3135844393e+03 0.0000000000e+00 0.0000e+00 1.0000e+00
      -13  1    1    2    0    0 +1.0752515141e+03 +1.8177782684e+03 +1.1562301953e+03 2.4077690745e+03 0.0000000000e+00 0.0000e+00 1.0000e+00
       13  1    1    2    0    0 -1.0752515141e+03 -1.8177782684e+03 +9.3343622828e+02 2.3090662277e+03 0.0000000000e+00 0.0000e+00 -1.0000e+00
<mgrwt>
<rscale>  0 0.42286912E+04</rscale>
<asrwt>0</asrwt>
<pdfrwt beam="1">  1        2 0.52357705E+00 0.42286912E+04</pdfrwt>
<pdfrwt beam="2">  1       -2 0.20208991E+00 0.42286912E+04</pdfrwt>
<totfact> 0.99097363E-02</totfact>
</mgrwt>
<rwgt>
<wgt id='morphing_basis_vector_1'> +2.0530130e-05 </wgt>
<wgt id='morphing_basis_vector_2'> +1.5855398e-05 </wgt>
<wgt id='morphing_basis_vector_3'> +2.2996813e-05 </wgt>
<wgt id='morphing_basis_vector_4'> +1.3772145e-05 </wgt>
<wgt id='morphing_basis_vector_5'> +2.4699784e-05 </wgt>
</rwgt>
</event>
<event>
 4      1 +4.5322000e-10 3.88594300e+03 7.81860800e-03 7.56144900e-02
        2 -1    0    0  501    0 +0.0000000000e+00 +0.0000000000e+00 +2.0283019732e+03 2.0283019732e+03 0.0000000000e+00 0.0000e+00 -1.0000e+00
       -2 -1    0    0    0  501 -0.0000000000e+00 -0.0000000000e+00 -1.8612310468e+03 1.8612310468e+03 0.0000000000e+00 0.0000e+00 1.0000e+00
      -13  1    1    2    0    0 +6.3080736152e+02 +1.1502303034e+03 -1.3510334637e+03 1.8831460639e+03 0.0000000000e+00 0.0000e+00 1.0000e+00
       13  1    1    2    0    0 -6.3080736152e+02 -1.1502303034e+03 +1.5181043901e+03 2.0063869560e+03 0.0000000000e+00 0.0000e+00 -1.0000e+00
<mgrwt>
<rscale>  0 0.38859432E+04</rscale>
<asrwt>0</asrwt>
<pdfrwt beam="1">  1        2 0.31204646E+00 0.38859432E+04</pdfrwt>
<pdfrwt beam="2">  1       -2 0.28634324E+00 0.38859432E+04</pdfrwt>
<totfact> 0.19057738E-01</totfact>
</mgrwt>
<rwgt>
<wgt id='morphing_basis_vector_1'> +1.4066247e-05 </wgt>
<wgt id='morphing_basis_vector_2'> +9.5561757e-06 </wgt>
<wgt id='morphing_basis_vector_3'> +1.5438627e-05 </wgt>
<wgt id='morphing_basis_vector_4'> +1.1070911e-05 </wgt>
<wgt id='morphing_basis_vector_5'> +1.7690705e-05 </wgt>
</rwgt>
</event>
<event>
 4      1 +4.5322000e-10 4.52260600e+03 7.81860800e-03 7.45400300e-02
        2 -1    0    0  501    0 +0.0000000000e+00 +0.0000000000e+00 +2.9802115370e+03 2.9802115370e+03 0.0000000000e+00 0.0000e+00 -1.0000e+00
       -2 -1    0    0    0  501 -0.0000000000e+00 -0.0000000000e+00 -1.7158149094e+03 1.7158149094e+03 0.0000000000e+00 0.0000e+00 1.0000e+00
      -13  1    1    2    0    0 -5.6140604446e+02 -1.0384830838e+03 -1.3704537885e+03 1.8088027666e+03 0.0000000000e+00 0.0000e+00 1.0000e+00
       13  1    1    2    0    0 +5.6140604446e+02 +1.0384830838e+03 +2.6348504161e+03 2.8872236798e+03 0.0000000000e+00 0.0000e+00 -1.0000e+00
<mgrwt>
<rscale>  0 0.45226061E+04</rscale>
<asrwt>0</asrwt>
<pdfrwt beam="1">  1        2 0.45849408E+00 0.45226061E+04</pdfrwt>
<pdfrwt beam="2">  1       -2 0.26397152E+00 0.45226061E+04</pdfrwt>
<totfact> 0.69036895E-02</totfact>
</mgrwt>
<rwgt>
<wgt id='morphing_basis_vector_1'> +2.5717040e-05 </wgt>
<wgt id='morphing_basis_vector_2'> +1.7462334e-05 </wgt>
<wgt id='morphing_basis_vector_3'> +2.8292362e-05 </wgt>
<wgt id='morphing_basis_vector_4'> +2.0403310e-05 </wgt>
<wgt id='morphing_basis_vector_5'> +3.2549952e-05 </wgt>
</rwgt>
</event>
<event>
 4      1 +4.5322000e-10 3.90307600e+03 7.81860800e-03 7.55829100e-02
        2 -1    0    0  501    0 +0.0000000000e+00 +0.0000000000e+00 +4.5787283709e+03 4.5787283709e+03 0.0000000000e+00 0.0000e+00 -1.0000e+00
       -2 -1    0    0    0  501 -0.0000000000e+00 -0.0000000000e+00 -8.3178114507e+02 8.3178114507e+02 0.0000000000e+00 0.0000e+00 1.0000e+00
      -13  1    1    2    0    0 -1.0095267309e+03 -4.6824748470e+02 -3.4884439023e+02 1.1662299670e+03 0.0000000000e+00 0.0000e+00 1.0000e+00
       13  1    1    2    0    0 +1.0095267309e+03 +4.6824748470e+02 +4.0957916160e+03 4.2442795489e+03 0.0000000000e+00 0.0000e+00 -1.0000e+00
<mgrwt>
<rscale>  0 0.39030757E+04</rscale>
<asrwt>0</asrwt>
<pdfrwt beam="1">  1        2 0.70441973E+00 0.39030757E+04</pdfrwt>
<pdfrwt beam="2">  1       -2 0.12796633E+00 0.39030757E+04</pdfrwt>
<totfact> 0.38414633E-02</totfact>
</mgrwt>
<rwgt>
<wgt id='morphing_basis_vector_1'> +1.4306921e-05 </wgt>
<wgt id='morphing_basis_vector_2'> +9.7028943e-06 </wgt>
<wgt id='morphing_basis_vector_3'> +1.5700308e-05 </wgt>
<wgt id='morphing_basis_vector_4'> +1.1284672e-05 </wgt>
<wgt id='morphing_basis_vector_5'> +1.8007765e-05 </wgt>
</rwgt>
</event>
<event>
 4      1 +4.5322000e-10 4.37696100e+03 7.81860800e-03 7.47692900e-02
        2 -1    0    0  501    0 +0.0000000000e+00 +0.0000000000e+00 +2.7911833459e+03 2.7911833459e+03 0.0000000000e+00 0.0000e+00 -1.0000e+00
       -2 -1    0    0    0  501 -0.0000000000e+00 -0.0000000000e+00 -1.7159200018e+03 1.7159200018e+03 0.0000000000e+00 0.0000e+00 1.0000e+00
      -13  1    1    2    0    0 -5.1801955310e+02 -1.9467429444e+03 -3.4295299043e+02 2.0434698683e+03 0.0000000000e+00 0.0000e+00 1.0000e+00
       13  1    1    2    0    0 +5.1801955310e+02 +1.9467429444e+03 +1.4182163346e+03 2.4636334794e+03 0.0000000000e+00 0.0000e+00 -1.0000e+00
<mgrwt>
<rscale>  0 0.43769612E+04</rscale>
<asrwt>0</asrwt>
<pdfrwt beam="1">  1        2 0.42941282E+00 0.43769612E+04</pdfrwt>
<pdfrwt beam="2">  1       -2 0.26398769E+00 0.43769612E+04</pdfrwt>
<totfact> 0.92162992E-02</totfact>
</mgrwt>
<rwgt>
<wgt id='morphing_basis_vector_1'> +2.2740598e-05 </wgt>
<wgt id='morphing_basis_vector_2'> +1.5814475e-05 </wgt>
<wgt id='morphing_basis_vector_3'> +2.5091120e-05 </wgt>
<wgt id='morphing_basis_vector_4'> +1.7534814e-05 </wgt>
<wgt id='morphing_basis_vector_5'> +2.8510586e-05 </wgt>
</rwgt>
</event>
<event>
 4      1 +4.5322000e-10 4.50819200e+03 7.81860800e-03 7.45623200e-02
        2 -1    0    0  501    0 +0.0000000000e+00 +0.0000000000e+00 +3.3641789549e+03 3.3641789549e+03 0.0000000000e+00 0.0000e+00 -1.0000e+00
       -2 -1    0    0    0  501 -0.0000000000e+00 -0.0000000000e+00 -1.5103090160e+03 1.5103090160e+03 0.0000000000e+00 0.0000e+00 1.0000e+00
      -13  1    1    2    0    0 +5.3214677630e+02 -6.0295165226e+02 -1.3499187021e+03 1.5713088139e+03 0.0000000000e+00 0.0000e+00 1.0000e+00
       13  1    1    2    0    0 -5.3214677630e+02 +6.0295165226e+02 +3.2037886410e+03 3.3031791569e+03 0.0000000000e+00 0.0000e+00 -1.0000e+00
<mgrwt>
<rscale>  0 0.45081925E+04</rscale>
<asrwt>0</asrwt>
<pdfrwt beam="1">  1        2 0.51756599E+00 0.45081925E+04</pdfrwt>
<pdfrwt beam="2">  1       -2 0.23235523E+00 0.45081925E+04</pdfrwt>
<totfact> 0.62871811E-02</totfact>
</mgrwt>
<rwgt>
<wgt id='morphing_basis_vector_1'> +2.5386738e-05 </wgt>
<wgt id='morphing_basis_vector_2'> +1.7225478e-05 </wgt>
<wgt id='morphing_basis_vector_3'> +2.7924897e-05 </wgt>
<wgt id='morphing_basis_vector_4'> +2.0154792e-05 </wgt>
<wgt id='morphing_basis_vector_5'> +3.2136334e-05 </wgt>
</rwgt>
</event>
<event>
 4      1 +4.5322000e-10 4.25925600e+03 7.81860800e-03 7.49612700e-02
        2 -1    0    0  501    0 +0.0000000000e+00 +0.0000000000e+00 +4.4605775052e+03 4.4605775052e+03 0.0000000000e+00 0.0000e+00 1.0000e+00
       -2 -1    0    0    0  501 -0.0000000000e+00 -0.0000000000e+00 -1.0167549999e+03 1.0167549999e+03 0.0000000000e+00 0.0000e+00 -1.0000e+00
      -13  1    1    2    0    0 -1.8353548739e+03 -3.6455424469e+02 +3.0295024251e+03 3.5608021925e+03 0.0000000000e+00 0.0000e+00 1.0000e+00
       13  1    1    2    0    0 +1.8353548739e+03 +3.6455424469e+02 +4.1432008030e+02 1.9165303127e+03 0.0000000000e+00 0.0000e+00 -1.0000e+00
<mgrwt>
<rscale>  0 0.42592556E+04</rscale>
<asrwt>0</asrwt>
<pdfrwt beam="1">  1        2 0.68624268E+00 0.42592556E+04</pdfrwt>
<pdfrwt beam="2">  1       -2 0.15642385E+00 0.42592556E+04</pdfrwt>
<totfact> 0.28297306E-02</totfact>
</mgrwt>
<rwgt>
<wgt id='morphing_basis_vector_1'> +2.3761339e-05 </wgt>
<wgt id='morphing_basis_vector_2'> +2.4057532e-05 </wgt>
<wgt id='morphing_basis_vector_3'> +2.7911053e-05 </wgt>
<wgt id='morphing_basis_vector_4'> +8.5916853e-06 </wgt>
<wgt id='morphing_basis_vector_5'> +2.4958632e-05 </wgt>
</rwgt>
</event>
<event>
 4      1 +4.5322000e-10 4.34348000e+03 7.81860800e-03 7.48232700e-02
        2 -1    0    0  501    0 +0.0000000000e+00 +0.0000000000e+00 +2.0774466415e+03 2.0774466415e+03 0.0000000000e+00 0.0000e+00 -1.0000e+00
       -2 -1    0    0    0  501 -0.0000000000e+00 -0.0000000000e+00 -2.2703129409e+03 2.2703129409e+03 0.0000000000e+00 0.0000e+00 1.0000e+00
      -13  1    1    2    0    0 -1.3423299676e+03 +8.7410433852e+01 -1.8030951781e+03 2.2495871948e+03 0.0000000000e+00 0.0000e+00 1.0000e+00
       13  1    1    2    0    0 +1.3423299676e+03 -8.7410433852e+01 +1.6102288788e+03 2.0981723876e+03 0.0000000000e+00 0.0000e+00 -1.0000e+00
<mgrwt>
<rscale>  0 0.43434797E+04</rscale>
<asrwt>0</asrwt>
<pdfrwt beam="1">  1        2 0.31960718E+00 0.43434797E+04</pdfrwt>
<pdfrwt beam="2">  1       -2 0.34927891E+00 0.43434797E+04</pdfrwt>
<totfact> 0.65715102E-02</totfact>
</mgrwt>
<rwgt>
<wgt id='morphing_basis_vector_1'> +2.1900577e-05 </wgt>
<wgt id='morphing_basis_vector_2'> +1.4881324e-05 </wgt>
<wgt id='morphing_basis_vector_3'> +2.4082280e-05 </wgt>
<wgt id='morphing_basis_vector_4'> +1.7331306e-05 </wgt>
<wgt id='morphing_basis_vector_5'> +2.7672125e-05 </wgt>
</rwgt>
</event>
<event>
 4      1 +4.5322000e-10 3.94044300e+03 7.81860800e-03 7.55145800e-02
        2 -1    0    0  501    0 +0.0000000000e+00 +0.0000000000e+00 +1.8669038840e+03 1.8669038840e+03 0.0000000000e+00 0.0000e+00 -1.0000e+00
       -2 -1    0    0    0  501 -0.0000000000e+00 -0.0000000000e+00 -2.0792573565e+03 2.0792573565e+03 0.0000000000e+00 0.0000e+00 1.0000e+00
      -13  1    1    2    0    0 +6.3359570044e+02 -1.1938176310e+03 -1.5418292437e+03 2.0503369149e+03 0.0000000000e+00 0.0000e+00 1.0000e+00
       13  1    1    2    0    0 -6.3359570044e+02 +1.1938176310e+03 +1.3294757712e+03 1.8958243257e+03 0.0000000000e+00 0.0000e+00 -1.0000e+00
<mgrwt>
<rscale>  0 0.39404434E+04</rscale>
<asrwt>0</asrwt>
<pdfrwt beam="1">  1        2 0.28721598E+00 0.39404434E+04</pdfrwt>
<pdfrwt beam="2">  1       -2 0.31988575E+00 0.39404434E+04</pdfrwt>
<totfact> 0.13905301E-01</totfact>
</mgrwt>
<rwgt>
<wgt id='morphing_basis_vector_1'> +1.4868929e-05 </wgt>
<wgt id='morphing_basis_vector_2'> +1.0106118e-05 </wgt>
<wgt id='morphing_basis_vector_3'> +1.6324798e-05 </wgt>
<wgt id='morphing_basis_vector_4'> +1.1705846e-05 </wgt>
<wgt id='morphing_basis_vector_5'> +1.8709414e-05 </wgt>
</rwgt>
</event>
<event>
 4      1 +4.5322000e-10 4.45163200e+03 7.81860800e-03 7.46506400e-02
        2 -1    0    0  501    0 +0.0000000000e+00 +0.0000000000e+00 +1.5755684159e+03 1.5755684159e+03 0.0000000000e+00 0.0000e+00 -1.0000e+00
       -2 -1    0    0    0  501 -0.0000000000e+00 -0.0000000000e+00 -3.1444247218e+03 3.1444247218e+03 0.0000000000e+00 0.0000e+00 1.0000e+00
      -13  1    1    2    0    0 +1.0508414338e+03 -1.8830691295e+03 -1.3690660140e+03 2.5543215961e+03 0.0000000000e+00 0.0000e+00 1.0000e+00
       13  1    1    2    0    0 -1.0508414338e+03 +1.8830691295e+03 -1.9979029187e+02 2.1656715416e+03 0.0000000000e+00 0.0000e+00 -1.0000e+00
<mgrwt>
<rscale>  0 0.44516317E+04</rscale>
<asrwt>0</asrwt>
<pdfrwt beam="1">  1        2 0.24239514E+00 0.44516317E+04</pdfrwt>
<pdfrwt beam="2">  1       -2 0.48375764E+00 0.44516317E+04</pdfrwt>
<totfact> 0.15395941E-02</totfact>
</mgrwt>
<rwgt>
<wgt id='morphing_basis_vector_1'> +2.4484976e-05 </wgt>
<wgt id='morphing_basis_vector_2'> +1.7387677e-05 </wgt>
<wgt id='morphing_basis_vector_3'> +2.7104526e-05 </wgt>
<wgt id='morphing_basis_vector_4'> +1.8429044e-05 </wgt>
<wgt id='morphing_basis_vector_5'> +3.0486602e-05 </wgt>
</rwgt>
</event>
<event>
 4      1 +4.5322000e-10 4.30089700e+03 7.81860800e-03 7.48926400e-02
        2 -1    0    0  501    0 +0.0000000000e+00 +0.0000000000e+00 +2.8935224682e+03 2.8935224682e+03 0.0000000000e+00 0.0000e+00 -1.0000e+00
       -2 -1    0    0    0  501 -0.0000000000e+00 -0.0000000000e+00 -1.5982004355e+03 1.5982004355e+03 0.0000000000e+00 0.0000e+00 1.0000e+00
      -13  1    1    2    0    0 -1.7380931654e+03 -8.3509591840e+02 -3.4645296198e+02 1.9591790882e+03 0.0000000000e+00 0.0000e+00 1.0000e+00
       13  1    1    2    0    0 +1.7380931654e+03 +8.3509591840e+02 +1.6417749946e+03 2.5325438156e+03 0.0000000000e+00 0.0000e+00 -1.0000e+00
<mgrwt>
<rscale>  0 0.43008971E+04</rscale>
<asrwt>0</asrwt>
<pdfrwt beam="1">  1        2 0.44515730E+00 0.43008971E+04</pdfrwt>
<pdfrwt beam="2">  1       -2 0.24587699E+00 0.43008971E+04</pdfrwt>
<totfact> 0.10647705E-01</totfact>
</mgrwt>
<rwgt>
<wgt id='morphing_basis_vector_1'> +2.1171717e-05 </wgt>
<wgt id='morphing_basis_vector_2'> +1.4641595e-05 </wgt>
<wgt id='morphing_basis_vector_3'> +2.3335295e-05 </wgt>
<wgt id='morphing_basis_vector_4'> +1.6417525e-05 </wgt>
<wgt id='morphing_basis_vector_5'> +2.6578203e-05 </wgt>
</rwgt>
</event>
<event>
 4      1 +4.5322000e-10 4.06056800e+03 7.81860800e-03 7.53000500e-02
        2 -1    0    0  501    0 +0.0000000000e+00 +0.0000000000e+00 +1.9150740221e+03 1.9150740221e+03 0.0000000000e+00 0.0000e+00 -1.0000e+00
       -2 -1    0    0    0  501 -0.0000000000e+00 -0.0000000000e+00 -2.1524247207e+03 2.1524247207e+03 0.0000000000e+00 0.0000e+00 1.0000e+00
      -13  1    1    2    0    0 +2.1363201501e+02 +4.5252772078e+02 -2.0896804022e+03 2.1487634024e+03 0.0000000000e+00 0.0000e+00 1.0000e+00
       13  1    1    2    0    0 -2.1363201501e+02 -4.5252772078e+02 +1.8523297036e+03 1.9187353404e+03 0.0000000000e+00 0.0000e+00 -1.0000e+00
<mgrwt>
<rscale>  0 0.40605678E+04</rscale>
<asrwt>0</asrwt>
<pdfrwt beam="1">  1        2 0.29462677E+00 0.40605678E+04</pdfrwt>
<pdfrwt beam="2">  1       -2 0.33114227E+00 0.40605678E+04</pdfrwt>
<totfact> 0.10902504E-01</totfact>
</mgrwt>
<rwgt>
<wgt id='morphing_basis_vector_1'> +1.6739555e-05 </wgt>
<wgt id='morphing_basis_vector_2'> +1.1343856e-05 </wgt>
<wgt id='morphing_basis_vector_3'> +1.8380648e-05 </wgt>
<wgt id='morphing_basis_vector_4'> +1.3243054e-05 </wgt>
<wgt id='morphing_basis_vector_5'> +2.1112840e-05 </wgt>
</rwgt>
</event>
<event>
 4      1 +4.5322000e-10 3.91595300e+03 7.81860800e-03 7.55592700e-02
        2 -1    0    0  501    0 +0.0000000000e+00 +0.0000000000e+00 +2.8785739801e+03 2.8785739801e+03 0.0000000000e+00 0.0000e+00 1.0000e+00
       -2 -1    0    0    0  501 -0.0000000000e+00 -0.0000000000e+00 -1.3317954814e+03 1.3317954814e+03 0.0000000000e+00 0.0000e+00 -1.0000e+00
      -13  1    1    2    0    0 -1.2594439784e+03 +1.0929969596e+03 -3.2983027487e+02 1.6998910255e+03 0.0000000000e+00 0.0000e+00 -1.0000e+00
       13  1    1    2    0    0 +1.2594439784e+03 -1.0929969596e+03 +1.8766087736e+03 2.5104784360e+03 0.0000000000e+00 0.0000e+00 1.0000e+00
<mgrwt>
<rscale>  0 0.39159529E+04</rscale>
<asrwt>0</asrwt>
<pdfrwt beam="1">  1        2 0.44285753E+00 0.39159529E+04</pdfrwt>
<pdfrwt beam="2">  1       -2 0.20489161E+00 0.39159529E+04</pdfrwt>
<totfact> 0.21867533E-01</totfact>
</mgrwt>
<rwgt>
<wgt id='morphing_basis_vector_1'> +1.4547049e-05 </wgt>
<wgt id='morphing_basis_vector_2'> +9.9824227e-06 </wgt>
<wgt id='morphing_basis_vector_3'> +1.5990824e-05 </wgt>
<wgt id='morphing_basis_vector_4'> +1.1326459e-05 </wgt>
<wgt id='morphing_basis_vector_5'> +1.8238798e-05 </wgt>
</rwgt>
</event>
<event>
 4      1 +4.5322000e-10 4.23059100e+03 7.81860800e-03 7.50089700e-02
        2 -1    0    0  501    0 +0.0000000000e+00 +0.0000000000e+00 +2.1366152224e+03 2.1366152224e+03 0.0000000000e+00 0.0000e+00 -1.0000e+00
       -2 -1    0    0    0  501 -0.0000000000e+00 -0.0000000000e+00 -2.0941880365e+03 2.0941880365e+03 0.0000000000e+00 0.0000e+00 1.0000e+00
      -13  1    1    2    0    0 -2.9968023834e+02 +1.0097693632e+03 -1.8132809043e+03 2.0970050191e+03 0.0000000000e+00 0.0000e+00 1.0000e+00
       13  1    1    2    0    0 +2.9968023834e+02 -1.0097693632e+03 +1.8557080903e+03 2.1337982398e+03 0.0000000000e+00 0.0000e+00 -1.0000e+00
<mgrwt>
<rscale>  0 0.42305905E+04</rscale>
<asrwt>0</asrwt>
<pdfrwt beam="1">  1        2 0.32871004E+00 0.42305905E+04</pdfrwt>
<pdfrwt beam="2">  1       -2 0.32218277E+00 0.42305905E+04</pdfrwt>
<totfact> 0.92458019E-02</totfact>
</mgrwt>
<rwgt>
<wgt id='morphing_basis_vector_1'> +1.9712680e-05 </wgt>
<wgt id='morphing_basis_vector_2'> +1.3373731e-05 </wgt>
<wgt id='morphing_basis_vector_3'> +2.1663037e-05 </wgt>
<wgt id='morphing_basis_vector_4'> +1.5607685e-05 </wgt>
<wgt id='morphing_basis_vector_5'> +2.4895513e-05 </wgt>
</rwgt>
</event>
<event>
 4      1 +4.5322000e-10 3.89510400e+03 7.81860800e-03 7.55975800e-02
        2 -1    0    0  501    0 +0.0000000000e+00 +0.0000000000e+00 +3.3127502068e+03 3.3127502068e+03 0.0000000000e+00 0.0000e+00 -1.0000e+00
       -2 -1    0    0    0  501 -0.0000000000e+00 -0.0000000000e+00 -1.1449578584e+03 1.1449578584e+03 0.0000000000e+00 0.0000e+00 1.0000e+00
      -13  1    1    2    0    0 +3.3276856200e+02 +1.8226431631e+03 +3.9704571134e+02 1.8948372787e+03 0.0000000000e+00 0.0000e+00 1.0000e+00
       13  1    1    2    0    0 -3.3276856200e+02 -1.8226431631e+03 +1.7707466371e+03 2.5628707865e+03 0.0000000000e+00 0.0000e+00 -1.0000e+00
<mgrwt>
<rscale>  0 0.38951043E+04</rscale>
<asrwt>0</asrwt>
<pdfrwt beam="1">  1        2 0.50965387E+00 0.38951043E+04</pdfrwt>
<pdfrwt beam="2">  1       -2 0.17614736E+00 0.38951043E+04</pdfrwt>
<totfact> 0.18415728E-01</totfact>
</mgrwt>
<rwgt>
<wgt id='morphing_basis_vector_1'> +1.4342614e-05 </wgt>
<wgt id='morphing_basis_vector_2'> +1.0069673e-05 </wgt>
<wgt id='morphing_basis_vector_3'> +1.5815284e-05 </wgt>
<wgt id='morphing_basis_vector_4'> +1.0872016e-05 </wgt>
<wgt id='morphing_basis_vector_5'> +1.7833683e-05 </wgt>
</rwgt>
</event>
<event>
 4      1 +4.5322000e-10 4.19328900e+03 7.81860800e-03 7.50716300e-02
        2 -1    0    0  501    0 +0.0000000000e+00 +0.0000000000e+00 +1.3300131762e+03 1.3300131762e+03 0.0000000000e+00 0.0000e+00 1.0000e+00
       -2 -1    0    0    0  501 -0.0000000000e+00 -0.0000000000e+00 -3.3051685316e+03 3.3051685316e+03 0.0000000000e+00 0.0000e+00 -1.0000e+00
      -13  1    1    2    0    0 +1.4028565111e+03 -8.6522900552e+02 -2.4200124418e+03 2.9279835794e+03 0.0000000000e+00 0.0000e+00 -1.0000e+00
       13  1    1    2    0    0 -1.4028565111e+03 +8.6522900552e+02 +4.4485708630e+02 1.7071981285e+03 0.0000000000e+00 0.0000e+00 1.0000e+00
<mgrwt>
<rscale>  0 0.41932888E+04</rscale>
<asrwt>0</asrwt>
<pdfrwt beam="1">  1        2 0.20461741E+00 0.41932888E+04</pdfrwt>
<pdfrwt beam="2">  1       -2 0.50848747E+00 0.41932888E+04</pdfrwt>
<totfact> 0.14087635E-02</totfact>
</mgrwt>
<rwgt>
<wgt id='morphing_basis_vector_1'> +1.9068799e-05 </wgt>
<wgt id='morphing_basis_vector_2'> +1.3023995e-05 </wgt>
<wgt id='morphing_basis_vector_3'> +2.0972201e-05 </wgt>
<wgt id='morphing_basis_vector_4'> +1.4979277e-05 </wgt>
<wgt id='morphing_basis_vector_5'> +2.4018305e-05 </wgt>
</rwgt>
</event>
<event>
 4      1 +4.5322000e-10 4.04315400e+03 7.81860800e-03 7.53306800e-02
        2 -1    0    0  501    0 +0.0000000000e+00 +0.0000000000e+00 +2.5664878697e+03 2.5664878697e+03 0.0000000000e+00 0.0000e+00 -1.0000e+00
       -2 -1    0    0    0  501 -0.0000000000e+00 -0.0000000000e+00 -1.5923604471e+03 1.5923604471e+03 0.0000000000e+00 0.0000e+00 1.0000e+00
      -13  1    1    2    0    0 +6.0521463421e+02 +3.1797926154e+02 -1.4698414112e+03 1.6210580922e+03 0.0000000000e+00 0.0000e+00 1.0000e+00
       13  1    1    2    0    0 -6.0521463421e+02 -3.1797926154e+02 +2.4439688338e+03 2.5377902247e+03 0.0000000000e+00 0.0000e+00 -1.0000e+00
<mgrwt>
<rscale>  0 0.40431541E+04</rscale>
<asrwt>0</asrwt>
<pdfrwt beam="1">  1        2 0.39484429E+00 0.40431541E+04</pdfrwt>
<pdfrwt beam="2">  1       -2 0.24497853E+00 0.40431541E+04</pdfrwt>
<totfact> 0.17592957E-01</totfact>
</mgrwt>
<rwgt>
<wgt id='morphing_basis_vector_1'> +1.6456115e-05 </wgt>
<wgt id='morphing_basis_vector_2'> +1.1152226e-05 </wgt>
<wgt id='morphing_basis_vector_3'> +1.8068206e-05 </wgt>
<wgt id='morphing_basis_vector_4'> +1.3015323e-05 </wgt>
<wgt id='morphing_basis_vector_5'> +2.0751189e-05 </wgt>
</rwgt>
</event>
<event>
 4      1 +4.5322000e-10 3.90947300e+03 7.81860800e-03 7.55711500e-02
        2 -1    0    0  501    0 +0.0000000000e+00 +0.0000000000e+00 +2.7985144655e+03 2.7985144655e+03 0.0000000000e+00 0.0000e+00 -1.0000e+00
       -2 -1    0    0    0  501 -0.0000000000e+00 -0.0000000000e+00 -1.3653651601e+03 1.3653651601e+03 0.0000000000e+00 0.0000e+00 1.0000e+00
      -13  1    1    2    0    0 -8.8689113899e+02 +1.7363628865e+03 +8.6515993192e+02 2.1330807940e+03 0.0000000000e+00 0.0000e+00 1.0000e+00
       13  1    1    2    0    0 +8.8689113899e+02 -1.7363628865e+03 +5.6798937343e+02 2.0307988316e+03 0.0000000000e+00 0.0000e+00 -1.0000e+00
<mgrwt>
<rscale>  0 0.39094727E+04</rscale>
<asrwt>0</asrwt>
<pdfrwt beam="1">  1        2 0.43054069E+00 0.39094727E+04</pdfrwt>
<pdfrwt beam="2">  1       -2 0.21005618E+00 0.39094727E+04</pdfrwt>
<totfact> 0.22561509E-01</totfact>
</mgrwt>
<rwgt>
<wgt id='morphing_basis_vector_1'> +1.5077076e-05 </wgt>
<wgt id='morphing_basis_vector_2'> +1.1755652e-05 </wgt>
<wgt id='morphing_basis_vector_3'> +1.6887489e-05 </wgt>
<wgt id='morphing_basis_vector_4'> +9.9293441e-06 </wgt>
<wgt id='morphing_basis_vector_5'> +1.8007701e-05 </wgt>
</rwgt>
</event>
<event>
 4      1 +4.5322000e-10 4.60182100e+03 7.81860800e-03 7.44189600e-02
        2 -1    0    0  501    0 +0.0000000000e+00 +0.0000000000e+00 +3.3749625707e+03 3.3749625707e+03 0.0000000000e+00 0.0000e+00 -1.0000e+00
       -2 -1    0    0    0  501 -0.0000000000e+00 -0.0000000000e+00 -1.5686660336e+03 1.5686660336e+03 0.0000000000e+00 0.0000e+00 1.0000e+00
      -13  1    1    2    0    0 +1.5584872757e+03 -1.5839173512e+03 +2.6171212916e+02 2.2374472066e+03 0.0000000000e+00 0.0000e+00 1.0000e+00
       13  1    1    2    0    0 -1.5584872757e+03 +1.5839173512e+03 +1.5445844079e+03 2.7061813976e+03 0.0000000000e+00 0.0000e+00 -1.0000e+00
<mgrwt>
<rscale>  0 0.46018210E+04</rscale>
<asrwt>0</asrwt>
<pdfrwt beam="1">  1        2 0.51922501E+00 0.46018210E+04</pdfrwt>
<pdfrwt beam="2">  1       -2 0.24133324E+00 0.46018210E+04</pdfrwt>
<totfact> 0.53084440E-02</totfact>
</mgrwt>
<rwgt>
<wgt id='morphing_basis_vector_1'> +2.7926857e-05 </wgt>
<wgt id='morphing_basis_vector_2'> +1.9796419e-05 </wgt>
<wgt id='morphing_basis_vector_3'> +3.0921250e-05 </wgt>
<wgt id='morphing_basis_vector_4'> +2.1094808e-05 </wgt>
<wgt id='morphing_basis_vector_5'> +3.4834907e-05 </wgt>
</rwgt>
</event>
<event>
 4      1 +4.5322000e-10 4.08428100e+03 7.81860800e-03 7.52585900e-02
        2 -1    0    0  501    0 +0.0000000000e+00 +0.0000000000e+00 +3.9710373054e+03 3.9710373054e+03 0.0000000000e+00 0.0000e+00 -1.0000e+00
       -2 -1    0    0    0  501 -0.0000000000e+00 -0.0000000000e+00 -1.0501887758e+03 1.0501887758e+03 0.0000000000e+00 0.0000e+00 1.0000e+00
      -13  1    1    2    0    0 -1.2729552432e+03 -7.5810189158e+02 -2.6740262768e+02 1.5055356836e+03 0.0000000000e+00 0.0000e+00 1.0000e+00
       13  1    1    2    0    0 +1.2729552432e+03 +7.5810189158e+02 +3.1882511573e+03 3.5156903975e+03 0.0000000000e+00 0.0000e+00 -1.0000e+00
<mgrwt>
<rscale>  0 0.40842815E+04</rscale>
<asrwt>0</asrwt>
<pdfrwt beam="1">  1        2 0.61092881E+00 0.40842815E+04</pdfrwt>
<pdfrwt beam="2">  1       -2 0.16156751E+00 0.40842815E+04</pdfrwt>
<totfact> 0.73931013E-02</totfact>
</mgrwt>
<rwgt>
<wgt id='morphing_basis_vector_1'> +1.7155657e-05 </wgt>
<wgt id='morphing_basis_vector_2'> +1.1680014e-05 </wgt>
<wgt id='morphing_basis_vector_3'> +1.8851563e-05 </wgt>
<wgt id='morphing_basis_vector_4'> +1.3506646e-05 </wgt>
<wgt id='morphing_basis_vector_5'> +2.1608618e-05 </wgt>
</rwgt>
</event>
<event>
 4      1 +4.5322000e-10 4.05983300e+03 7.81860800e-03 7.53013400e-02
        2 -1    0    0  501    0 +0.0000000000e+00 +0.0000000000e+00 +3.2846257564e+03 3.2846257564e+03 0.0000000000e+00 0.0000e+00 -1.0000e+00
       -2 -1    0    0    0  501 -0.0000000000e+00 -0.0000000000e+00 -1.2544994677e+03 1.2544994677e+03 0.0000000000e+00 0.0000e+00 1.0000e+00
      -13  1    1    2    0    0 +1.1872761627e+03 -2.6609192410e+02 -8.0160990592e+02 1.4570545768e+03 0.0000000000e+00 0.0000e+00 1.0000e+00
       13  1    1    2    0    0 -1.1872761627e+03 +2.6609192410e+02 +2.8317361946e+03 3.0820706473e+03 0.0000000000e+00 0.0000e+00 -1.0000e+00
<mgrwt>
<rscale>  0 0.40598331E+04</rscale>
<asrwt>0</asrwt>
<pdfrwt beam="1">  1        2 0.50532703E+00 0.40598331E+04</pdfrwt>
<pdfrwt beam="2">  1       -2 0.19299992E+00 0.40598331E+04</pdfrwt>
<totfact> 0.14195854E-01</totfact>
</mgrwt>
<rwgt>
<wgt id='morphing_basis_vector_1'> +1.6735716e-05 </wgt>
<wgt id='morphing_basis_vector_2'> +1.1359799e-05 </wgt>
<wgt id='morphing_basis_vector_3'> +1.8380542e-05 </wgt>
<wgt id='morphing_basis_vector_4'> +1.3216049e-05 </wgt>
<wgt id='morphing_basis_vector_5'> +2.1096043e-05 </wgt>
</rwgt>
</event>
<event>
 4      1 +4.5322000e-10 4.05827100e+03 7.81860800e-03 7.53040800e-02
        2 -1    0    0  501    0 +0.0000000000e+00 +0.0000000000e+00 +1.0694273293e+03 1.0694273293e+03 0.0000000000e+00 0.0000e+00 -1.0000e+00
       -2 -1    0    0    0  501 -0.0000000000e+00 -0.0000000000e+00 -3.8500892787e+03 3.8500892787e+03 0.0000000000e+00 0.0000e+00 1.0000e+00
      -13  1    1    2    0    0 +1.5838507710e+03 +9.3302532287e+02 -2.4319031096e+03 3.0484868792e+03 0.0000000000e+00 0.0000e+00 1.0000e+00
       13  1    1    2    0    0 -1.5838507710e+03 -9.3302532287e+02 -3.4875883971e+02 1.8710297288e+03 0.0000000000e+00 0.0000e+00 -1.0000e+00
<mgrwt>
<rscale>  0 0.40582709E+04</rscale>
<asrwt>0</asrwt>
<pdfrwt beam="1">  1        2 0.16452728E+00 0.40582709E+04</pdfrwt>
<pdfrwt beam="2">  1       -2 0.59232142E+00 0.40582709E+04</pdfrwt>
<totfact> 0.48288418E-03</totfact>
</mgrwt>
<rwgt>
<wgt id='morphing_basis_vector_1'> +1.6811634e-05 </wgt>
<wgt id='morphing_basis_vector_2'> +1.1640787e-05 </wgt>
<wgt id='morphing_basis_vector_3'> +1.8515334e-05 </wgt>
<wgt id='morphing_basis_vector_4'> +1.2980730e-05 </wgt>
<wgt id='morphing_basis_vector_5'> +2.1045522e-05 </wgt>
</rwgt>
</event>
<event>
 4      1 +4.5322000e-10 3.87107000e+03 7.81860800e-03 7.56420500e-02
        2 -1    0    0  501    0 +0.0000000000e+00 +0.0000000000e+00 +2.1933916202e+03 2.1933916202e+03 0.0000000000e+00 0.0000e+00 -1.0000e+00
       -2 -1    0    0    0  501 -0.0000000000e+00 -0.0000000000e+00 -1.7079923342e+03 1.7079923342e+03 0.0000000000e+00 0.0000e+00 1.0000e+00
      -13  1    1    2    0    0 +7.9567714971e+02 -8.3424334225e+02 -1.3242203287e+03 1.7557401743e+03 0.0000000000e+00 0.0000e+00 1.0000e+00
       13  1    1    2    0    0 -7.9567714971e+02 +8.3424334225e+02 +1.8096196147e+03 2.1456437800e+03 0.0000000000e+00 0.0000e+00 -1.0000e+00
<mgrwt>
<rscale>  0 0.38710702E+04</rscale>
<asrwt>0</asrwt>
<pdfrwt beam="1">  1        2 0.33744486E+00 0.38710702E+04</pdfrwt>
<pdfrwt beam="2">  1       -2 0.26276805E+00 0.38710702E+04</pdfrwt>
<totfact> 0.22270953E-01</totfact>
</mgrwt>
<rwgt>
<wgt id='morphing_basis_vector_1'> +1.3847160e-05 </wgt>
<wgt id='morphing_basis_vector_2'> +9.3930043e-06 </wgt>
<wgt id='morphing_basis_vector_3'> +1.5193891e-05 </wgt>
<wgt id='morphing_basis_vector_4'> +1.0914479e-05 </wgt>
<wgt id='morphing_basis_vector_5'> +1.7421086e-05 </wgt>
</rwgt>
</event>
<event>
 4      1 +4.5322000e-10 4.15601400e+03 7.81860800e-03 7.51349000e-02
        2 -1    0    0  501    0 +0.0000000000e+00 +0.0000000000e+00 +2.1657495062e+03 2.1657495062e+03 0.0000000000e+00 0.0000e+00 -1.0000e+00
       -2 -1    0    0    0  501 -0.0000000000e+00 -0.0000000000e+00 -1.9938193811e+03 1.9938193811e+03 0.0000000000e+00 0.0000e+00 1.0000e+00
      -13  1    1    2    0    0 -7.9107097713e+02 +1.1957814328e+03 -1.4194580398e+03 2.0175598263e+03 0.0000000000e+00 0.0000e+00 1.0000e+00
       13  1    1    2    0    0 +7.9107097713e+02 -1.1957814328e+03 +1.5913881649e+03 2.1420090610e+03 0.0000000000e+00 0.0000e+00 -1.0000e+00
<mgrwt>
<rscale>  0 0.41560141E+04</rscale>
<asrwt>0</asrwt>
<pdfrwt beam="1">  1        2 0.33319223E+00 0.41560141E+04</pdfrwt>
<pdfrwt beam="2">  1       -2 0.30674144E+00 0.41560141E+04</pdfrwt>
<totfact> 0.11349648E-01</totfact>
</mgrwt>
<rwgt>
<wgt id='morphing_basis_vector_1'> +1.8380528e-05 </wgt>
<wgt id='morphing_basis_vector_2'> +1.2502265e-05 </wgt>
<wgt id='morphing_basis_vector_3'> +2.0200680e-05 </wgt>
<wgt id='morphing_basis_vector_4'> +1.4498740e-05 </wgt>
<wgt id='morphing_basis_vector_5'> +2.3175796e-05 </wgt>
</rwgt>
</event>
<event>
 4      1 +4.5322000e-10 4.12798300e+03 7.81860800e-03 7.51829300e-02
        2 -1    0    0  501    0 +0.0000000000e+00 +0.0000000000e+00 +2.8359783559e+03 2.8359783559e+03 0.0000000000e+00 0.0000e+00 -1.0000e+00
       -2 -1    0    0    0  501 -0.0000000000e+00 -0.0000000000e+00 -1.5021486195e+03 1.5021486195e+03 0.0000000000e+00 0.0000e+00 1.0000e+00
      -13  1    1    2    0    0 -1.9035153889e+03 +1.5846675979e+02 -1.5493110874e+02 1.9163731886e+03 0.0000000000e+00 0.0000e+00 1.0000e+00
       13  1    1    2    0    0 +1.9035153889e+03 -1.5846675979e+02 +1.4887608452e+03 2.4217537868e+03 0.0000000000e+00 0.0000e+00 -1.0000e+00
<mgrwt>
<rscale>  0 0.41279830E+04</rscale>
<asrwt>0</asrwt>
<pdfrwt beam="1">  1        2 0.43630436E+00 0.41279830E+04</pdfrwt>
<pdfrwt beam="2">  1       -2 0.23109979E+00 0.41279830E+04</pdfrwt>
<totfact> 0.14887043E-01</totfact>
</mgrwt>
<rwgt>
<wgt id='morphing_basis_vector_1'> +1.8018125e-05 </wgt>
<wgt id='morphing_basis_vector_2'> +1.2539803e-05 </wgt>
<wgt id='morphing_basis_vector_3'> +1.9864175e-05 </wgt>
<wgt id='morphing_basis_vector_4'> +1.3842585e-05 </wgt>
<wgt id='morphing_basis_vector_5'> +2.2531727e-05 </wgt>
</rwgt>
</event>
<event>
 4      1 +4.5322000e-10 4.06039400e+03 7.81860800e-03 7.53003500e-02
        2 -1    0    0  501    0 +0.0000000000e+00 +0.0000000000e+00 +1.1898335663e+03 1.1898335663e+03 0.0000000000e+00 0.0000e+00 -1.0000e+00
       -2 -1    0    0    0  501 -0.0000000000e+00 -0.0000000000e+00 -3.4640984858e+03 3.4640984858e+03 0.0000000000e+00 0.0000e+00 1.0000e+00
      -13  1    1    2    0    0 +1.6223425995e+03 -7.1932821090e+02 -2.2673075321e+03 2.8792554646e+03 0.0000000000e+00 0.0000e+00 1.0000e+00
       13  1    1    2    0    0 -1.6223425995e+03 +7.1932821090e+02 -6.9573874188e+00 1.7746765875e+03 0.0000000000e+00 0.0000e+00 -1.0000e+00
<mgrwt>
<rscale>  0 0.40603944E+04</rscale>
<asrwt>0</asrwt>
<pdfrwt beam="1">  1        2 0.18305132E+00 0.40603944E+04</pdfrwt>
<pdfrwt beam="2">  1       -2 0.53293823E+00 0.40603944E+04</pdfrwt>
<totfact> 0.11286768E-02</totfact>
</mgrwt>
<rwgt>
<wgt id='morphing_basis_vector_1'> +1.6817376e-05 </wgt>
<wgt id='morphing_basis_vector_2'> +1.1579012e-05 </wgt>
<wgt id='morphing_basis_vector_3'> +1.8507058e-05 </wgt>
<wgt id='morphing_basis_vector_4'> +1.3070054e-05 </wgt>
<wgt id='morphing_basis_vector_5'> +2.1094986e-05 </wgt>
</rwgt>
</event>
<event>
 4      1 +4.5322000e-10 4.06353600e+03 7.81860800e-03 7.52948400e-02
        2 -1    0    0  501    0 +0.0000000000e+00 +0.0000000000e+00 +1.8138105507e+03 1.8138105507e+03 0.0000000000e+00 0.0000e+00 1.0000e+00
       -2 -1    0    0    0  501 -0.0000000000e+00 -0.0000000000e+00 -2.2759163698e+03 2.2759163698e+03 0.0000000000e+00 0.0000e+00 -1.0000e+00
      -13  1    1    2    0    0 +1.9286559073e+03 +4.8588961720e+02 -6.4879296119e+02 2.0920646824e+03 0.0000000000e+00 0.0000e+00 -1.0000e+00
       13  1    1    2    0    0 -1.9286559073e+03 -4.8588961720e+02 +1.8668714210e+02 1.9976622382e+03 0.0000000000e+00 0.0000e+00 1.0000e+00
<mgrwt>
<rscale>  0 0.40635360E+04</rscale>
<asrwt>0</asrwt>
<pdfrwt beam="1">  1        2 0.27904778E+00 0.40635360E+04</pdfrwt>
<pdfrwt beam="2">  1       -2 0.35014098E+00 0.40635360E+04</pdfrwt>
<totfact> 0.93222944E-02</totfact>
</mgrwt>
<rwgt>
<wgt id='morphing_basis_vector_1'> +1.7073693e-05 </wgt>
<wgt id='morphing_basis_vector_2'> +1.2215778e-05 </wgt>
<wgt id='morphing_basis_vector_3'> +1.8892773e-05 </wgt>
<wgt id='morphing_basis_vector_4'> +1.2677975e-05 </wgt>
<wgt id='morphing_basis_vector_5'> +2.1124588e-05 </wgt>
</rwgt>
</event>
<event>
 4      1 +4.5322000e-10 4.36736700e+03 7.81860800e-03 7.47847100e-02
        2 -1    0    0  501    0 +0.0000000000e+00 +0.0000000000e+00 +3.8908207779e+03 3.8908207779e+03 0.0000000000e+00 0.0000e+00 -1.0000e+00
       -2 -1    0    0    0  501 -0.0000000000e+00 -0.0000000000e+00 -1.2255702937e+03 1.2255702937e+03 0.0000000000e+00 0.0000e+00 1.0000e+00
      -13  1    1    2    0    0 +1.9278340219e+03 +1.0255698892e+03 +1.3463248408e+03 2.5653319844e+03 0.0000000000e+00 0.0000e+00 1.0000e+00
       13  1    1    2    0    0 -1.9278340219e+03 -1.0255698892e+03 +1.3189256435e+03 2.5510590872e+03 0.0000000000e+00 0.0000e+00 -1.0000e+00
<mgrwt>
<rscale>  0 0.43673673E+04</rscale>
<asrwt>0</asrwt>
<pdfrwt beam="1">  1        2 0.59858781E+00 0.43673673E+04</pdfrwt>
<pdfrwt beam="2">  1       -2 0.18854928E+00 0.43673673E+04</pdfrwt>
<totfact> 0.52236231E-02</totfact>
</mgrwt>
<rwgt>
<wgt id='morphing_basis_vector_1'> +2.3210121e-05 </wgt>
<wgt id='morphing_basis_vector_2'> +1.7637456e-05 </wgt>
<wgt id='morphing_basis_vector_3'> +2.5948194e-05 </wgt>
<wgt id='morphing_basis_vector_4'> +1.5964655e-05 </wgt>
<wgt id='morphing_basis_vector_5'> +2.8142083e-05 </wgt>
</rwgt>
</event>
<event>
 4      1 +4.5322000e-10 4.06086800e+03 7.81860800e-03 7.52995200e-02
        2 -1    0    0  501    0 +0.0000000000e+00 +0.0000000000e+00 +2.7430627184e+03 2.7430627184e+03 0.0000000000e+00 0.0000e+00 1.0000e+00
       -2 -1    0    0    0  501 -0.0000000000e+00 -0.0000000000e+00 -1.5029412208e+03 1.5029412208e+03 0.0000000000e+00 0.0000e+00 -1.0000e+00
      -13  1    1    2    0    0 -6.8101344716e+02 -5.4849827310e+02 -1.2959765929e+03 1.5633889472e+03 0.0000000000e+00 0.0000e+00 -1.0000e+00
       13  1    1    2    0    0 +6.8101344716e+02 +5.4849827310e+02 +2.5360980905e+03 2.6826149920e+03 0.0000000000e+00 0.0000e+00 1.0000e+00
<mgrwt>
<rscale>  0 0.40608679E+04</rscale>
<asrwt>0</asrwt>
<pdfrwt beam="1">  1        2 0.42200965E+00 0.40608679E+04</pdfrwt>
<pdfrwt beam="2">  1       -2 0.23122173E+00 0.40608679E+04</pdfrwt>
<totfact> 0.17081174E-01</totfact>
</mgrwt>
<rwgt>
<wgt id='morphing_basis_vector_1'> +1.6746107e-05 </wgt>
<wgt id='morphing_basis_vector_2'> +1.1351985e-05 </wgt>
<wgt id='morphing_basis_vector_3'> +1.8388694e-05 </wgt>
<wgt id='morphing_basis_vector_4'> +1.3243545e-05 </wgt>
<wgt id='morphing_basis_vector_5'> +2.1118826e-05 </wgt>
</rwgt>
</event>
<event>
 4      1 +4.5322000e-10 4.33392100e+03 7.81860800e-03 7.48387700e-02
        2 -1    0    0  501    0 +0.0000000000e+00 +0.0000000000e+00 +1.3150420488e+03 1.3150420488e+03 0.0000000000e+00 0.0000e+00 -1.0000e+00
       -2 -1    0    0    0  501 -0.0000000000e+00 -0.0000000000e+00 -3.5707733579e+03 3.5707733579e+03 0.0000000000e+00 0.0000e+00 1.0000e+00
      -13  1    1    2    0    0 +9.6854062440e+02 -8.4517293149e+01 -3.3111025133e+03 3.4508859685e+03 0.0000000000e+00 0.0000e+00 1.0000e+00
       13  1    1    2    0    0 -9.6854062440e+02 +8.4517293149e+01 +1.0553712042e+03 1.4349294382e+03 0.0000000000e+00 0.0000e+00 -1.0000e+00
<mgrwt>
<rscale>  0 0.43339207E+04</rscale>
<asrwt>0</asrwt>
<pdfrwt beam="1">  1        2 0.20231416E+00 0.43339207E+04</pdfrwt>
<pdfrwt beam="2">  1       -2 0.54934974E+00 0.43339207E+04</pdfrwt>
<totfact> 0.71158535E-03</totfact>
</mgrwt>
<rwgt>
<wgt id='morphing_basis_vector_1'> +2.1699219e-05 </wgt>
<wgt id='morphing_basis_vector_2'> +1.4721495e-05 </wgt>
<wgt id='morphing_basis_vector_3'> +2.3854865e-05 </wgt>
<wgt id='morphing_basis_vector_4'> +1.7199905e-05 </wgt>
<wgt id='morphing_basis_vector_5'> +2.7430086e-05 </wgt>
</rwgt>
</event>
<event>
 4      1 +4.5322000e-10 4.19956600e+03 7.81860800e-03 7.50610400e-02
        2 -1    0    0  501    0 +0.0000000000e+00 +0.0000000000e+00 +1.7861004629e+03 1.7861004629e+03 0.0000000000e+00 0.0000e+00 -1.0000e+00
       -2 -1    0    0    0  501 -0.0000000000e+00 -0.0000000000e+00 -2.4685557678e+03 2.4685557678e+03 0.0000000000e+00 0.0000e+00 1.0000e+00
      -13  1    1    2    0    0 -1.0290894147e+03 +1.4977483246e+02 -2.1893369530e+03 2.4237685157e+03 0.0000000000e+00 0.0000e+00 1.0000e+00
       13  1    1    2    0    0 +1.0290894147e+03 -1.4977483246e+02 +1.5068816481e+03 1.8308877150e+03 0.0000000000e+00 0.0000e+00 -1.0000e+00
<mgrwt>
<rscale>  0 0.41995660E+04</rscale>
<asrwt>0</asrwt>
<pdfrwt beam="1">  1        2 0.27478469E+00 0.41995660E+04</pdfrwt>
<pdfrwt beam="2">  1       -2 0.37977781E+00 0.41995660E+04</pdfrwt>
<totfact> 0.61577410E-02</totfact>
</mgrwt>
<rwgt>
<wgt id='morphing_basis_vector_1'> +1.9143273e-05 </wgt>
<wgt id='morphing_basis_vector_2'> +1.2986139e-05 </wgt>
<wgt id='morphing_basis_vector_3'> +2.1034576e-05 </wgt>
<wgt id='morphing_basis_vector_4'> +1.5153127e-05 </wgt>
<wgt id='morphing_basis_vector_5'> +2.4170071e-05 </wgt>
</rwgt>
</event>
<event>
 4      1 +4.5322000e-10 4.23106800e+03 7.81860800e-03 7.50081700e-02
        2 -1    0    0  501    0 +0.0000000000e+00 +0.0000000000e+00 +2.4923718676e+03 2.4923718676e+03 0.0000000000e+00 0.0000e+00 1.0000e+00
       -2 -1    0    0    0  501 -0.0000000000e+00 -0.0000000000e+00 -1.7956729010e+03 1.7956729010e+03 0.0000000000e+00 0.0000e+00 -1.0000e+00
      -13  1    1    2    0    0 +1.7734895789e+03 +1.1426477064e+03 +1.8947251537e+02 2.1182088899e+03 0.0000000000e+00 0.0000e+00 1.0000e+00
       13  1    1    2    0    0 -1.7734895789e+03 -1.1426477064e+03 +5.0722645119e+02 2.1698358786e+03 0.0000000000e+00 0.0000e+00 -1.0000e+00
<mgrwt>
<rscale>  0 0.42310682E+04</rscale>
<asrwt>0</asrwt>
<pdfrwt beam="1">  1        2 0.38344183E+00 0.42310682E+04</pdfrwt>
<pdfrwt beam="2">  1       -2 0.27625737E+00 0.42310682E+04</pdfrwt>
<totfact> 0.11701700E-01</totfact>
</mgrwt>
<rwgt>
<wgt id='morphing_basis_vector_1'> +2.0270593e-05 </wgt>
<wgt id='morphing_basis_vector_2'> +1.4993183e-05 </wgt>
<wgt id='morphing_basis_vector_3'> +2.2556721e-05 </wgt>
<wgt id='morphing_basis_vector_4'> +1.4450912e-05 </wgt>
<wgt id='morphing_basis_vector_5'> +2.4809667e-05 </wgt>
</rwgt>
</event>
<event>
 4      1 +4.5322000e-10 3.85605300e+03 7.81860800e-03 7.56700000e-02
        2 -1    0    0  501    0 +0.0000000000e+00 +0.0000000000e+00 +2.5229402039e+03 2.5229402039e+03 0.0000000000e+00 0.0000e+00 1.0000e+00
       -2 -1    0    0    0  501 -0.0000000000e+00 -0.0000000000e+00 -1.4733946266e+03 1.4733946266e+03 0.0000000000e+00 0.0000e+00 -1.0000e+00
      -13  1    1    2    0    0 -5.6972220509e+02 -1.7714074345e+02 -1.3753167239e+03 1.4991525356e+03 0.0000000000e+00 0.0000e+00 -1.0000e+00
       13  1    1    2    0    0 +5.6972220509e+02 +1.7714074345e+02 +2.4248623013e+03 2.4971822949e+03 0.0000000000e+00 0.0000e+00 1.0000e+00
<mgrwt>
<rscale>  0 0.38560532E+04</rscale>
<asrwt>0</asrwt>
<pdfrwt beam="1">  1        2 0.38814464E+00 0.38560532E+04</pdfrwt>
<pdfrwt beam="2">  1       -2 0.22667610E+00 0.38560532E+04</pdfrwt>
<totfact> 0.25466933E-01</totfact>
</mgrwt>
<rwgt>
<wgt id='morphing_basis_vector_1'> +1.3628442e-05 </wgt>
<wgt id='morphing_basis_vector_2'> +9.2300035e-06 </wgt>
<wgt id='morphing_basis_vector_3'> +1.4949558e-05 </wgt>
<wgt id='morphing_basis_vector_4'> +1.0758456e-05 </wgt>
<wgt id='morphing_basis_vector_5'> +1.7152011e-05 </wgt>
</rwgt>
</event>
<event>
 4      1 +4.5322000e-10 3.88527700e+03 7.81860800e-03 7.56157300e-02
        2 -1    0    0  501    0 +0.0000000000e+00 +0.0000000000e+00 +2.2845332658e+03 2.2845332658e+03 0.0000000000e+00 0.0000e+00 -1.0000e+00
       -2 -1    0    0    0  501 -0.0000000000e+00 -0.0000000000e+00 -1.6519101408e+03 1.6519101408e+03 0.0000000000e+00 0.0000e+00 1.0000e+00
      -13  1    1    2    0    0 -1.0719422872e+03 -1.4486117184e+03 +1.0513361030e+03 2.0863469940e+03 0.0000000000e+00 0.0000e+00 1.0000e+00
       13  1    1    2    0    0 +1.0719422872e+03 +1.4486117184e+03 -4.1871297807e+02 1.8500964126e+03 0.0000000000e+00 0.0000e+00 -1.0000e+00
<mgrwt>
<rscale>  0 0.38852767E+04</rscale>
<asrwt>0</asrwt>
<pdfrwt beam="1">  1        2 0.35146666E+00 0.38852767E+04</pdfrwt>
<pdfrwt beam="2">  1       -2 0.25414002E+00 0.38852767E+04</pdfrwt>
<totfact> 0.22598325E-01</totfact>
</mgrwt>
<rwgt>
<wgt id='morphing_basis_vector_1'> +1.5845487e-05 </wgt>
<wgt id='morphing_basis_vector_2'> +1.4808497e-05 </wgt>
<wgt id='morphing_basis_vector_3'> +1.8292736e-05 </wgt>
<wgt id='morphing_basis_vector_4'> +7.2841139e-06 </wgt>
<wgt id='morphing_basis_vector_5'> +1.7363982e-05 </wgt>
</rwgt>
</event>
<event>
 4      1 +4.5322000e-10 4.45608300e+03 7.81860800e-03 7.46436400e-02
        2 -1    0    0  501    0 +0.0000000000e+00 +0.0000000000e+00 +3.1791348165e+03 3.1791348165e+03 0.0000000000e+00 0.0000e+00 -1.0000e+00
       -2 -1    0    0    0  501 -0.0000000000e+00 -0.0000000000e+00 -1.5614844444e+03 1.5614844444e+03 0.0000000000e+00 0.0000e+00 1.0000e+00
      -13  1    1    2    0    0 -3.0968640511e+02 +1.6981362683e+03 -6.8988601908e+02 1.8589016043e+03 0.0000000000e+00 0.0000e+00 1.0000e+00
       13  1    1    2    0    0 +3.0968640511e+02 -1.6981362683e+03 +2.3075363912e+03 2.8817176565e+03 0.0000000000e+00 0.0000e+00 -1.0000e+00
<mgrwt>
<rscale>  0 0.44560833E+04</rscale>
<asrwt>0</asrwt>
<pdfrwt beam="1">  1        2 0.48909766E+00 0.44560833E+04</pdfrwt>
<pdfrwt beam="2">  1       -2 0.24022838E+00 0.44560833E+04</pdfrwt>
<totfact> 0.74716121E-02</totfact>
</mgrwt>
<rwgt>
<wgt id='morphing_basis_vector_1'> +2.4286597e-05 </wgt>
<wgt id='morphing_basis_vector_2'> +1.6587412e-05 </wgt>
<wgt id='morphing_basis_vector_3'> +2.6735152e-05 </wgt>
<wgt id='morphing_basis_vector_4'> +1.9131849e-05 </wgt>
<wgt id='morphing_basis_vector_5'> +3.0661771e-05 </wgt>
</rwgt>
</event>
<event>
 4      1 +4.5322000e-10 4.53348900e+03 7.81860800e-03 7.45232500e-02
        2 -1    0    0  501    0 +0.0000000000e+00 +0.0000000000e+00 +4.7928307578e+03 4.7928307578e+03 0.0000000000e+00 0.0000e+00 -1.0000e+00
       -2 -1    0    0    0  501 -0.0000000000e+00 -0.0000000000e+00 -1.0720448716e+03 1.0720448716e+03 0.0000000000e+00 0.0000e+00 1.0000e+00
      -13  1    1    2    0    0 +3.8059083828e+02 -1.4462611801e+03 -3.4327277746e+02 1.5343914061e+03 0.0000000000e+00 0.0000e+00 1.0000e+00
       13  1    1    2    0    0 -3.8059083828e+02 +1.4462611801e+03 +4.0640586637e+03 4.3304842234e+03 0.0000000000e+00 0.0000e+00 -1.0000e+00
<mgrwt>
<rscale>  0 0.45334886E+04</rscale>
<asrwt>0</asrwt>
<pdfrwt beam="1">  1        2 0.73735857E+00 0.45334886E+04</pdfrwt>
<pdfrwt beam="2">  1       -2 0.16492998E+00 0.45334886E+04</pdfrwt>
<totfact> 0.10218794E-02</totfact>
</mgrwt>
<rwgt>
<wgt id='morphing_basis_vector_1'> +2.5979086e-05 </wgt>
<wgt id='morphing_basis_vector_2'> +1.7673710e-05 </wgt>
<wgt id='morphing_basis_vector_3'> +2.8589215e-05 </wgt>
<wgt id='morphing_basis_vector_4'> +2.0570077e-05 </wgt>
<wgt id='morphing_basis_vector_5'> +3.2863002e-05 </wgt>
</rwgt>
</event>
<event>
 4      1 +4.5322000e-10 4.36599000e+03 7.81860800e-03 7.47869200e-02
        2 -1    0    0  501    0 +0.0000000000e+00 +0.0000000000e+00 +1.2804228971e+03 1.2804228971e+03 0.0000000000e+00 0.0000e+00 1.0000e+00
       -2 -1    0    0    0  501 -0.0000000000e+00 -0.0000000000e+00 -3.7217911250e+03 3.7217911250e+03 0.0000000000e+00 0.0000e+00 -1.0000e+00
      -13  1    1    2    0    0 -9.3451317434e+02 +1.7823351955e+03 -2.5159429789e+02 2.0281354276e+03 0.0000000000e+00 0.0000e+00 -1.0000e+00
       13  1    1    2    0    0 +9.3451317434e+02 -1.7823351955e+03 -2.1897739299e+03 2.9740785945e+03 0.0000000000e+00 0.0000e+00 1.0000e+00
<mgrwt>
<rscale>  0 0.43659897E+04</rscale>
<asrwt>0</asrwt>
<pdfrwt beam="1">  1        2 0.19698814E+00 0.43659897E+04</pdfrwt>
<pdfrwt beam="2">  1       -2 0.57258324E+00 0.43659897E+04</pdfrwt>
<totfact> 0.50585223E-03</totfact>
</mgrwt>
<rwgt>
<wgt id='morphing_basis_vector_1'> +2.5334841e-05 </wgt>
<wgt id='morphing_basis_vector_2'> +2.3943688e-05 </wgt>
<wgt id='morphing_basis_vector_3'> +2.9388891e-05 </wgt>
<wgt id='morphing_basis_vector_4'> +1.1373714e-05 </wgt>
<wgt id='morphing_basis_vector_5'> +2.7724587e-05 </wgt>
</rwgt>
</event>
<event>
 4      1 +4.5322000e-10 3.95533300e+03 7.81860800e-03 7.54875700e-02
        2 -1    0    0  501    0 +0.0000000000e+00 +0.0000000000e+00 +1.5274610518e+03 1.5274610518e+03 0.0000000000e+00 0.0000e+00 -1.0000e+00
       -2 -1    0    0    0  501 -0.0000000000e+00 -0.0000000000e+00 -2.5605663430e+03 2.5605663430e+03 0.0000000000e+00 0.0000e+00 1.0000e+00
      -13  1    1    2    0    0 -5.9988394922e+02 -1.5187267815e+03 -1.6696763294e+03 2.3354251935e+03 0.0000000000e+00 0.0000e+00 1.0000e+00
       13  1    1    2    0    0 +5.9988394922e+02 +1.5187267815e+03 +6.3657103817e+02 1.7526022013e+03 0.0000000000e+00 0.0000e+00 -1.0000e+00
<mgrwt>
<rscale>  0 0.39553333E+04</rscale>
<asrwt>0</asrwt>
<pdfrwt beam="1">  1        2 0.23499401E+00 0.39553333E+04</pdfrwt>
<pdfrwt beam="2">  1       -2 0.39393328E+00 0.39553333E+04</pdfrwt>
<totfact> 0.70850037E-02</totfact>
</mgrwt>
<rwgt>
<wgt id='morphing_basis_vector_1'> +1.5125886e-05 </wgt>
<wgt id='morphing_basis_vector_2'> +1.0353879e-05 </wgt>
<wgt id='morphing_basis_vector_3'> +1.6624386e-05 </wgt>
<wgt id='morphing_basis_vector_4'> +1.1816732e-05 </wgt>
<wgt id='morphing_basis_vector_5'> +1.8989613e-05 </wgt>
</rwgt>
</event>
<event>
 4      1 +4.5322000e-10 4.35198400e+03 7.81860800e-03 7.48095100e-02
        2 -1    0    0  501    0 +0.0000000000e+00 +0.0000000000e+00 +2.5604962874e+03 2.5604962874e+03 0.0000000000e+00 0.0000e+00 1.0000e+00
       -2 -1    0    0    0  501 -0.0000000000e+00 -0.0000000000e+00 -1.8492277897e+03 1.8492277897e+03 0.0000000000e+00 0.0000e+00 -1.0000e+00
      -13  1    1    2    0    0 -1.9927207043e+03 +7.7343523902e+02 +7.6822582070e+02 2.2714111882e+03 0.0000000000e+00 0.0000e+00 -1.0000e+00
       13  1    1    2    0    0 +1.9927207043e+03 -7.7343523902e+02 -5.6957323003e+01 2.1383128889e+03 0.0000000000e+00 0.0000e+00 1.0000e+00
<mgrwt>
<rscale>  0 0.43519839E+04</rscale>
<asrwt>0</asrwt>
<pdfrwt beam="1">  1        2 0.39392251E+00 0.43519839E+04</pdfrwt>
<pdfrwt beam="2">  1       -2 0.28449658E+00 0.43519839E+04</pdfrwt>
<totfact> 0.92720859E-02</totfact>
</mgrwt>
<rwgt>
<wgt id='morphing_basis_vector_1'> +2.3614954e-05 </wgt>
<wgt id='morphing_basis_vector_2'> +1.9531979e-05 </wgt>
<wgt id='morphing_basis_vector_3'> +2.6759444e-05 </wgt>
<wgt id='morphing_basis_vector_4'> +1.4193729e-05 </wgt>
<wgt id='morphing_basis_vector_5'> +2.7616875e-05 </wgt>
</rwgt>
</event>
<event>
 4      1 +4.5322000e-10 4.06236400e+03 7.81860800e-03 7.52969000e-02
        2 -1    0    0  501    0 +0.0000000000e+00 +0.0000000000e+00 +2.7674396508e+03 2.7674396508e+03 0.0000000000e+00 0.0000e+00 1.0000e+00
       -2 -1    0    0    0  501 -0.0000000000e+00 -0.0000000000e+00 -1.4908003974e+03 1.4908003974e+03 0.0000000000e+00 0.0000e+00 -1.0000e+00
      -13  1    1    2    0    0 +6.8048095127e+02 -1.8130126570e+02 -1.3587408046e+03 1.5303924490e+03 0.0000000000e+00 0.0000e+00 -1.0000e+00
       13  1    1    2    0    0 -6.8048095127e+02 +1.8130126570e+02 +2.6353800580e+03 2.7278475992e+03 0.0000000000e+00 0.0000e+00 1.0000e+00
<mgrwt>
<rscale>  0 0.40623639E+04</rscale>
<asrwt>0</asrwt>
<pdfrwt beam="1">  1        2 0.42575995E+00 0.40623639E+04</pdfrwt>
<pdfrwt beam="2">  1       -2 0.22935391E+00 0.40623639E+04</pdfrwt>
<totfact> 0.16998173E-01</totfact>
</mgrwt>
<rwgt>
<wgt id='morphing_basis_vector_1'> +1.6769578e-05 </wgt>
<wgt id='morphing_basis_vector_2'> +1.1365468e-05 </wgt>
<wgt id='morphing_basis_vector_3'> +1.8414037e-05 </wgt>
<wgt id='morphing_basis_vector_4'> +1.3265483e-05 </wgt>
<wgt id='morphing_basis_vector_5'> +2.1150307e-05 </wgt>
</rwgt>
</event>
<event>
 4      1 +4.5322000e-10 4.54534500e+03 7.81860800e-03 7.45050200e-02
        2 -1    0    0  501    0 +0.0000000000e+00 +0.0000000000e+00 +2.9750584657e+03 2.9750584657e+03 0.0000000000e+00 0.0000e+00 -1.0000e+00
       -2 -1    0    0    0  501 -0.0000000000e+00 -0.0000000000e+00 -1.7361136123e+03 1.7361136123e+03 0.0000000000e+00 0.0000e+00 1.0000e+00
      -13  1    1    2    0    0 -1.0563842471e+03 +1.4413692606e+03 -8.3587156694e+02 1.9728594221e+03 0.0000000000e+00 0.0000e+00 1.0000e+00
       13  1    1    2    0    0 +1.0563842471e+03 -1.4413692606e+03 +2.0748164204e+03 2.7383126559e+03 0.0000000000e+00 0.0000e+00 -1.0000e+00
<mgrwt>
<rscale>  0 0.45453447E+04</rscale>
<asrwt>0</asrwt>
<pdfrwt beam="1">  1        2 0.45770130E+00 0.45453447E+04</pdfrwt>
<pdfrwt beam="2">  1       -2 0.26709440E+00 0.45453447E+04</pdfrwt>
<totfact> 0.66105626E-02</totfact>
</mgrwt>
<rwgt>
<wgt id='morphing_basis_vector_1'> +2.6288727e-05 </wgt>
<wgt id='morphing_basis_vector_2'> +1.7970367e-05 </wgt>
<wgt id='morphing_basis_vector_3'> +2.8950629e-05 </wgt>
<wgt id='morphing_basis_vector_4'> +2.0706384e-05 </wgt>
<wgt id='morphing_basis_vector_5'> +3.3202729e-05 </wgt>
</rwgt>
</event>
<event>
 4      1 +4.5322000e-10 4.12780800e+03 7.81860800e-03 7.51832300e-02
        2 -1    0    0  501    0 +0.0000000000e+00 +0.0000000000e+00 +3.4683234799e+03 3.4683234799e+03 0.0000000000e+00 0.0000e+00 1.0000e+00
       -2 -1    0    0    0  501 -0.0000000000e+00 -0.0000000000e+00 -1.2281727424e+03 1.2281727424e+03 0.0000000000e+00 0.0000e+00 -1.0000e+00
      -13  1    1    2    0    0 -6.1856464570e+02 +3.6018389766e+02 +3.3225774935e+03 3.3988050637e+03 0.0000000000e+00 0.0000e+00 1.0000e+00
       13  1    1    2    0    0 +6.1856464570e+02 -3.6018389766e+02 -1.0824267560e+03 1.2976911586e+03 0.0000000000e+00 0.0000e+00 -1.0000e+00
<mgrwt>
<rscale>  0 0.41278083E+04</rscale>
<asrwt>0</asrwt>
<pdfrwt beam="1">  1        2 0.53358822E+00 0.41278083E+04</pdfrwt>
<pdfrwt beam="2">  1       -2 0.18894965E+00 0.41278083E+04</pdfrwt>
<totfact> 0.11207456E-01</totfact>
</mgrwt>
<rwgt>
<wgt id='morphing_basis_vector_1'> +2.4437219e-05 </wgt>
<wgt id='morphing_basis_vector_2'> +3.1411804e-05 </wgt>
<wgt id='morphing_basis_vector_3'> +3.0184861e-05 </wgt>
<wgt id='morphing_basis_vector_4'> +2.3929956e-07 </wgt>
<wgt id='morphing_basis_vector_5'> +2.1393567e-05 </wgt>
</rwgt>
</event>
<event>
 4      1 +4.5322000e-10 4.00468400e+03 7.81860800e-03 7.53989000e-02
        2 -1    0    0  501    0 +0.0000000000e+00 +0.0000000000e+00 +2.9061974501e+03 2.9061974501e+03 0.0000000000e+00 0.0000e+00 1.0000e+00
       -2 -1    0    0    0  501 -0.0000000000e+00 -0.0000000000e+00 -1.3795943221e+03 1.3795943221e+03 0.0000000000e+00 0.0000e+00 -1.0000e+00
      -13  1    1    2    0    0 -1.3748193767e+03 -1.4551554829e+03 +7.1830623032e+02 2.1268685052e+03 0.0000000000e+00 0.0000e+00 -1.0000e+00
       13  1    1    2    0    0 +1.3748193767e+03 +1.4551554829e+03 +8.0829689764e+02 2.1589232670e+03 0.0000000000e+00 0.0000e+00 1.0000e+00
<mgrwt>
<rscale>  0 0.40046840E+04</rscale>
<asrwt>0</asrwt>
<pdfrwt beam="1">  1        2 0.44710730E+00 0.40046840E+04</pdfrwt>
<pdfrwt beam="2">  1       -2 0.21224528E+00 0.40046840E+04</pdfrwt>
<totfact> 0.18451013E-01</totfact>
</mgrwt>
<rwgt>
<wgt id='morphing_basis_vector_1'> +1.6381195e-05 </wgt>
<wgt id='morphing_basis_vector_2'> +1.2320229e-05 </wgt>
<wgt id='morphing_basis_vector_3'> +1.8256106e-05 </wgt>
<wgt id='morphing_basis_vector_4'> +1.1383616e-05 </wgt>
<wgt id='morphing_basis_vector_5'> +1.9873793e-05 </wgt>
</rwgt>
</event>
<event>
 4      1 +4.5322000e-10 3.96110300e+03 7.81860800e-03 7.54771300e-02
        2 -1    0    0  501    0 +0.0000000000e+00 +0.0000000000e+00 +3.5342514296e+03 3.5342514296e+03 0.0000000000e+00 0.0000e+00 -1.0000e+00
       -2 -1    0    0    0  501 -0.0000000000e+00 -0.0000000000e+00 -1.1098771942e+03 1.1098771942e+03 0.0000000000e+00 0.0000e+00 1.0000e+00
      -13  1    1    2    0    0 -1.4612805686e+03 +5.3430248137e+02 -2.2458883544e+02 1.5720242322e+03 0.0000000000e+00 0.0000e+00 1.0000e+00
       13  1    1    2    0    0 +1.4612805686e+03 -5.3430248137e+02 +2.6489630709e+03 3.0721043915e+03 0.0000000000e+00 0.0000e+00 -1.0000e+00
<mgrwt>
<rscale>  0 0.39611034E+04</rscale>
<asrwt>0</asrwt>
<pdfrwt beam="1">  1        2 0.54373098E+00 0.39611034E+04</pdfrwt>
<pdfrwt beam="2">  1       -2 0.17075034E+00 0.39611034E+04</pdfrwt>
<totfact> 0.13983769E-01</totfact>
</mgrwt>
<rwgt>
<wgt id='morphing_basis_vector_1'> +1.5200346e-05 </wgt>
<wgt id='morphing_basis_vector_2'> +1.0374519e-05 </wgt>
<wgt id='morphing_basis_vector_3'> +1.6699876e-05 </wgt>
<wgt id='morphing_basis_vector_4'> +1.1914794e-05 </wgt>
<wgt id='morphing_basis_vector_5'> +1.9103613e-05 </wgt>
</rwgt>
</event>
<event>
 4      1 +4.5322000e-10 3.86713200e+03 7.81860800e-03 7.56493700e-02
        2 -1    0    0  501    0 +0.0000000000e+00 +0.0000000000e+00 +1.0574189647e+03 1.0574189647e+03 0.0000000000e+00 0.0000e+00 1.0000e+00
       -2 -1    0    0    0  501 -0.0000000000e+00 -0.0000000000e+00 -3.5356634880e+03 3.5356634880e+03 0.0000000000e+00 0.0000e+00 -1.0000e+00
      -13  1    1    2    0    0 +9.2907556358e+02 -1.8204172486e+02 -3.2415393892e+03 3.3769658281e+03 0.0000000000e+00 0.0000e+00 -1.0000e+00
       13  1    1    2    0    0 -9.2907556358e+02 +1.8204172486e+02 +7.6329486582e+02 1.2161166246e+03 0.0000000000e+00 0.0000e+00 1.0000e+00
<mgrwt>
<rscale>  0 0.38671321E+04</rscale>
<asrwt>0</asrwt>
<pdfrwt beam="1">  1        2 0.16267984E+00 0.38671321E+04</pdfrwt>
<pdfrwt beam="2">  1       -2 0.54394823E+00 0.38671321E+04</pdfrwt>
<totfact> 0.11460020E-02</totfact>
</mgrwt>
<rwgt>
<wgt id='morphing_basis_vector_1'> +1.3787149e-05 </wgt>
<wgt id='morphing_basis_vector_2'> +9.3429966e-06 </wgt>
<wgt id='morphing_basis_vector_3'> +1.5125686e-05 </wgt>
<wgt id='morphing_basis_vector_4'> +1.0878472e-05 </wgt>
<wgt id='morphing_basis_vector_5'> +1.7350641e-05 </wgt>
</rwgt>
</event>
<event>
 4      1 +4.5322000e-10 4.35166400e+03 7.81860800e-03 7.48100300e-02
        2 -1    0    0  501    0 +0.0000000000e+00 +0.0000000000e+00 +1.5195377987e+03 1.5195377987e+03 0.0000000000e+00 0.0000e+00 1.0000e+00
       -2 -1    0    0    0  501 -0.0000000000e+00 -0.0000000000e+00 -3.1155828390e+03 3.1155828390e+03 0.0000000000e+00 0.0000e+00 -1.0000e+00
      -13  1    1    2    0    0 +5.4695167394e+02 +2.7250890608e+02 +1.4262610409e+03 1.5516564679e+03 0.0000000000e+00 0.0000e+00 1.0000e+00
       13  1    1    2    0    0 -5.4695167394e+02 -2.7250890608e+02 -3.0223060813e+03 3.0834641698e+03 0.0000000000e+00 0.0000e+00 -1.0000e+00
<mgrwt>
<rscale>  0 0.43516645E+04</rscale>
<asrwt>0</asrwt>
<pdfrwt beam="1">  1        2 0.23377505E+00 0.43516645E+04</pdfrwt>
<pdfrwt beam="2">  1       -2 0.47932043E+00 0.43516645E+04</pdfrwt>
<totfact> 0.17987998E-02</totfact>
</mgrwt>
<rwgt>
<wgt id='morphing_basis_vector_1'> +3.0201081e-05 </wgt>
<wgt id='morphing_basis_vector_2'> +3.8897983e-05 </wgt>
<wgt id='morphing_basis_vector_3'> +3.7381962e-05 </wgt>
<wgt id='morphing_basis_vector_4'> +2.0002172e-07 </wgt>
<wgt id='morphing_basis_vector_5'> +2.6440099e-05 </wgt>
</rwgt>
</event>
<event>
 4      1 +4.5322000e-10 3.89874500e+03 7.81860800e-03 7.55908700e-02
        2 -1    0    0  501    0 +0.0000000000e+00 +0.0000000000e+00 +2.4277667216e+03 2.4277667216e+03 0.0000000000e+00 0.0000e+00 -1.0000e+00
       -2 -1    0    0    0  501 -0.0000000000e+00 -0.0000000000e+00 -1.5652465452e+03 1.5652465452e+03 0.0000000000e+00 0.0000e+00 1.0000e+00
      -13  1    1    2    0    0 -1.1506522636e+03 +1.2667596411e+03 -5.2478399146e+02 1.7899940943e+03 0.0000000000e+00 0.0000e+00 1.0000e+00
       13  1    1    2    0    0 +1.1506522636e+03 -1.2667596411e+03 +1.3873041679e+03 2.2030191725e+03 0.0000000000e+00 0.0000e+00 -1.0000e+00
<mgrwt>
<rscale>  0 0.38987452E+04</rscale>
<asrwt>0</asrwt>
<pdfrwt beam="1">  1        2 0.37350257E+00 0.38987452E+04</pdfrwt>
<pdfrwt beam="2">  1       -2 0.24080716E+00 0.38987452E+04</pdfrwt>
<totfact> 0.23024766E-01</totfact>
</mgrwt>
<rwgt>
<wgt id='morphing_basis_vector_1'> +1.4309509e-05 </wgt>
<wgt id='morphing_basis_vector_2'> +9.8529497e-06 </wgt>
<wgt id='morphing_basis_vector_3'> +1.5735906e-05 </wgt>
<wgt id='morphing_basis_vector_4'> +1.1095734e-05 </wgt>
<wgt id='morphing_basis_vector_5'> +1.7916020e-05 </wgt>
</rwgt>
</event>
<event>
 4      1 +4.5322000e-10 3.88693500e+03 7.81860800e-03 7.56126600e-02
        2 -1    0    0  501    0 +0.0000000000e+00 +0.0000000000e+00 +1.3067771831e+03 1.3067771831e+03 0.0000000000e+00 0.0000e+00 1.0000e+00
       -2 -1    0    0    0  501 -0.0000000000e+00 -0.0000000000e+00 -2.8903673680e+03 2.8903673680e+03 0.0000000000e+00 0.0000e+00 -1.0000e+00
      -13  1    1    2    0    0 +9.7937251808e+02 +9.2403206465e+02 -2.3050916708e+03 2.6695417952e+03 0.0000000000e+00 0.0000e+00 -1.0000e+00
       13  1    1    2    0    0 -9.7937251808e+02 -9.2403206465e+02 +7.2150148586e+02 1.5276027559e+03 0.0000000000e+00 0.0000e+00 1.0000e+00
<mgrwt>
<rscale>  0 0.38869351E+04</rscale>
<asrwt>0</asrwt>
<pdfrwt beam="1">  1        2 0.20104264E+00 0.38869351E+04</pdfrwt>
<pdfrwt beam="2">  1       -2 0.44467190E+00 0.38869351E+04</pdfrwt>
<totfact> 0.43563605E-02</totfact>
</mgrwt>
<rwgt>
<wgt id='morphing_basis_vector_1'> +1.4082516e-05 </wgt>
<wgt id='morphing_basis_vector_2'> +9.5717327e-06 </wgt>
<wgt id='morphing_basis_vector_3'> +1.5457560e-05 </wgt>
<wgt id='morphing_basis_vector_4'> +1.1078097e-05 </wgt>
<wgt id='morphing_basis_vector_5'> +1.7708522e-05 </wgt>
</rwgt>
</event>
<event>
 4      1 +4.5322000e-10 3.87665900e+03 7.81860800e-03 7.56316800e-02
        2 -1    0    0  501    0 +0.0000000000e+00 +0.0000000000e+00 +2.0970831746e+03 2.0970831746e+03 0.0000000000e+00 0.0000e+00 1.0000e+00
       -2 -1    0    0    0  501 -0.0000000000e+00 -0.0000000000e+00 -1.7915941831e+03 1.7915941831e+03 0.0000000000e+00 0.0000e+00 -1.0000e+00
      -13  1    1    2    0    0 +1.3309142263e+03 -1.4091339697e+03 +1.4127249701e+02 1.9434374548e+03 0.0000000000e+00 0.0000e+00 1.0000e+00
       13  1    1    2    0    0 -1.3309142263e+03 +1.4091339697e+03 +1.6421649445e+02 1.9452399028e+03 0.0000000000e+00 0.0000e+00 -1.0000e+00
<mgrwt>
<rscale>  0 0.38766594E+04</rscale>
<asrwt>0</asrwt>
<pdfrwt beam="1">  1        2 0.32262818E+00 0.38766594E+04</pdfrwt>
<pdfrwt beam="2">  1       -2 0.27562988E+00 0.38766594E+04</pdfrwt>
<totfact> 0.20624531E-01</totfact>
</mgrwt>
<rwgt>
<wgt id='morphing_basis_vector_1'> +1.4421270e-05 </wgt>
<wgt id='morphing_basis_vector_2'> +1.0900726e-05 </wgt>
<wgt id='morphing_basis_vector_3'> +1.6073432e-05 </wgt>
<wgt id='morphing_basis_vector_4'> +9.9335831e-06 </wgt>
<wgt id='morphing_basis_vector_5'> +1.7435539e-05 </wgt>
</rwgt>
</event>
<event>
 4      1 +4.5322000e-10 4.06377800e+03 7.81860800e-03 7.52944200e-02
        2 -1    0    0  501    0 +0.0000000000e+00 +0.0000000000e+00 +3.0486222533e+03 3.0486222533e+03 0.0000000000e+00 0.0000e+00 1.0000e+00
       -2 -1    0    0    0  501 -0.0000000000e+00 -0.0000000000e+00 -1.3542419554e+03 1.3542419554e+03 0.0000000000e+00 0.0000e+00 -1.0000e+00
      -13  1    1    2    0    0 +1.7730159703e+02 -1.8964030349e+03 +8.0475122025e+01 1.9063726216e+03 0.0000000000e+00 0.0000e+00 -1.0000e+00
       13  1    1    2    0    0 -1.7730159703e+02 +1.8964030349e+03 +1.6139051759e+03 2.4964915870e+03 0.0000000000e+00 0.0000e+00 1.0000e+00
<mgrwt>
<rscale>  0 0.40637776E+04</rscale>
<asrwt>0</asrwt>
<pdfrwt beam="1">  1        2 0.46901881E+00 0.40637776E+04</pdfrwt>
<pdfrwt beam="2">  1       -2 0.20834492E+00 0.40637776E+04</pdfrwt>
<totfact> 0.15832883E-01</totfact>
</mgrwt>
<rwgt>
<wgt id='morphing_basis_vector_1'> +1.6948306e-05 </wgt>
<wgt id='morphing_basis_vector_2'> +1.1838268e-05 </wgt>
<wgt id='morphing_basis_vector_3'> +1.8689397e-05 </wgt>
<wgt id='morphing_basis_vector_4'> +1.2954947e-05 </wgt>
<wgt id='morphing_basis_vector_5'> +2.1152473e-05 </wgt>
</rwgt>
</event>
<event>
 4      1 +4.5322000e-10 3.86178300e+03 7.81860800e-03 7.56593200e-02
        2 -1    0    0  501    0 +0.0000000000e+00 +0.0000000000e+00 +3.3790758051e+03 3.3790758051e+03 0.0000000000e+00 0.0000e+00 -1.0000e+00
       -2 -1    0    0    0  501 -0.0000000000e+00 -0.0000000000e+00 -1.1033616028e+03 1.1033616028e+03 0.0000000000e+00 0.0000e+00 1.0000e+00
      -13  1    1    2    0    0 -1.8415949317e+03 +4.9172262844e+02 +7.7995051369e+02 2.0595110681e+03 0.0000000000e+00 0.0000e+00 1.0000e+00
       13  1    1    2    0    0 +1.8415949317e+03 -4.9172262844e+02 +1.4957636886e+03 2.4229263397e+03 0.0000000000e+00 0.0000e+00 -1.0000e+00
<mgrwt>
<rscale>  0 0.38617833E+04</rscale>
<asrwt>0</asrwt>
<pdfrwt beam="1">  1        2 0.51985781E+00 0.38617833E+04</pdfrwt>
<pdfrwt beam="2">  1       -2 0.16974794E+00 0.38617833E+04</pdfrwt>
<totfact> 0.18587588E-01</totfact>
</mgrwt>
<rwgt>
<wgt id='morphing_basis_vector_1'> +1.3986614e-05 </wgt>
<wgt id='morphing_basis_vector_2'> +1.0100499e-05 </wgt>
<wgt id='morphing_basis_vector_3'> +1.5482690e-05 </wgt>
<wgt id='morphing_basis_vector_4'> +1.0236920e-05 </wgt>
<wgt id='morphing_basis_vector_5'> +1.7205980e-05 </wgt>
</rwgt>
</event>
<event>
 4      1 +4.5322000e-10 3.96864000e+03 7.81860800e-03 7.54635300e-02
        2 -1    0    0  501    0 +0.0000000000e+00 +0.0000000000e+00 +2.9374171093e+03 2.9374171093e+03 0.0000000000e+00 0.0000e+00 -1.0000e+00
       -2 -1    0    0    0  501 -0.0000000000e+00 -0.0000000000e+00 -1.3404719052e+03 1.3404719052e+03 0.0000000000e+00 0.0000e+00 1.0000e+00
      -13  1    1    2    0    0 +3.1922379289e+02 +4.7629401215e+02 -1.2492313474e+03 1.3745322024e+03 0.0000000000e+00 0.0000e+00 1.0000e+00
       13  1    1    2    0    0 -3.1922379289e+02 -4.7629401215e+02 +2.8461765515e+03 2.9033568121e+03 0.0000000000e+00 0.0000e+00 -1.0000e+00
<mgrwt>
<rscale>  0 0.39686396E+04</rscale>
<asrwt>0</asrwt>
<pdfrwt beam="1">  1        2 0.45191032E+00 0.39686396E+04</pdfrwt>
<pdfrwt beam="2">  1       -2 0.20622645E+00 0.39686396E+04</pdfrwt>
<totfact> 0.19525916E-01</totfact>
</mgrwt>
<rwgt>
<wgt id='morphing_basis_vector_1'> +1.5281644e-05 </wgt>
<wgt id='morphing_basis_vector_2'> +1.0353284e-05 </wgt>
<wgt id='morphing_basis_vector_3'> +1.6772598e-05 </wgt>
<wgt id='morphing_basis_vector_4'> +1.2078289e-05 </wgt>
<wgt id='morphing_basis_vector_5'> +1.9256156e-05 </wgt>
</rwgt>
</event>
<event>
 4      1 +4.5322000e-10 4.33196400e+03 7.81860800e-03 7.48419500e-02
        2 -1    0    0  501    0 +0.0000000000e+00 +0.0000000000e+00 +1.6426089229e+03 1.6426089229e+03 0.0000000000e+00 0.0000e+00 1.0000e+00
       -2 -1    0    0    0  501 -0.0000000000e+00 -0.0000000000e+00 -2.8561139003e+03 2.8561139003e+03 0.0000000000e+00 0.0000e+00 -1.0000e+00
      -13  1    1    2    0    0 -9.2548376251e+01 -1.5093559285e+03 -2.2171757992e+03 2.6837639698e+03 0.0000000000e+00 0.0000e+00 -1.0000e+00
       13  1    1    2    0    0 +9.2548376251e+01 +1.5093559285e+03 +1.0036708218e+03 1.8149588534e+03 0.0000000000e+00 0.0000e+00 1.0000e+00
<mgrwt>
<rscale>  0 0.43319641E+04</rscale>
<asrwt>0</asrwt>
<pdfrwt beam="1">  1        2 0.25270907E+00 0.43319641E+04</pdfrwt>
<pdfrwt beam="2">  1       -2 0.43940213E+00 0.43319641E+04</pdfrwt>
<totfact> 0.29594383E-02</totfact>
</mgrwt>
<rwgt>
<wgt id='morphing_basis_vector_1'> +2.1681611e-05 </wgt>
<wgt id='morphing_basis_vector_2'> +1.4757796e-05 </wgt>
<wgt id='morphing_basis_vector_3'> +2.3846293e-05 </wgt>
<wgt id='morphing_basis_vector_4'> +1.7123378e-05 </wgt>
<wgt id='morphing_basis_vector_5'> +2.7376588e-05 </wgt>
</rwgt>
</event>
<event>
 4      1 +4.5322000e-10 4.57767700e+03 7.81860800e-03 7.44556000e-02
        2 -1    0    0  501    0 +0.0000000000e+00 +0.0000000000e+00 +1.9383032783e+03 1.9383032783e+03 0.0000000000e+00 0.0000e+00 1.0000e+00
       -2 -1    0    0    0  501 -0.0000000000e+00 -0.0000000000e+00 -2.7027669694e+03 2.7027669694e+03 0.0000000000e+00 0.0000e+00 -1.0000e+00
      -13  1    1    2    0    0 +6.2530107739e+02 +1.4692994221e+03 -2.0447390017e+03 2.5943785025e+03 0.0000000000e+00 0.0000e+00 -1.0000e+00
       13  1    1    2    0    0 -6.2530107739e+02 -1.4692994221e+03 +1.2802753106e+03 2.0466917453e+03 0.0000000000e+00 0.0000e+00 1.0000e+00
<mgrwt>
<rscale>  0 0.45776772E+04</rscale>
<asrwt>0</asrwt>
<pdfrwt beam="1">  1        2 0.29820050E+00 0.45776772E+04</pdfrwt>
<pdfrwt beam="2">  1       -2 0.41581030E+00 0.45776772E+04</pdfrwt>
<totfact> 0.28604258E-02</totfact>
</mgrwt>
<rwgt>
<wgt id='morphing_basis_vector_1'> +2.7010585e-05 </wgt>
<wgt id='morphing_basis_vector_2'> +1.8394869e-05 </wgt>
<wgt id='morphing_basis_vector_3'> +2.9732667e-05 </wgt>
<wgt id='morphing_basis_vector_4'> +2.1370290e-05 </wgt>
<wgt id='morphing_basis_vector_5'> +3.4166811e-05 </wgt>
</rwgt>
</event>
<event>
 4      1 +4.5322000e-10 3.93519000e+03 7.81860800e-03 7.55241400e-02
        2 -1    0    0  501    0 +0.0000000000e+00 +0.0000000000e+00 +3.4764157069e+03 3.4764157069e+03 0.0000000000e+00 0.0000e+00 -1.0000e+00
       -2 -1    0    0    0  501 -0.0000000000e+00 -0.0000000000e+00 -1.1136267902e+03 1.1136267902e+03 0.0000000000e+00 0.0000e+00 1.0000e+00
      -13  1    1    2    0    0 -1.6157898577e+03 +1.0974398140e+03 +9.0468571552e+02 2.1525815323e+03 0.0000000000e+00 0.0000e+00 1.0000e+00
       13  1    1    2    0    0 +1.6157898577e+03 -1.0974398140e+03 +1.4581032012e+03 2.4374609647e+03 0.0000000000e+00 0.0000e+00 -1.0000e+00
<mgrwt>
<rscale>  0 0.39351898E+04</rscale>
<asrwt>0</asrwt>
<pdfrwt beam="1">  1        2 0.53483318E+00 0.39351898E+04</pdfrwt>
<pdfrwt beam="2">  1       -2 0.17132720E+00 0.39351898E+04</pdfrwt>
<totfact> 0.15288891E-01</totfact>
</mgrwt>
<rwgt>
<wgt id='morphing_basis_vector_1'> +1.5123213e-05 </wgt>
<wgt id='morphing_basis_vector_2'> +1.1031353e-05 </wgt>
<wgt id='morphing_basis_vector_3'> +1.6771678e-05 </wgt>
<wgt id='morphing_basis_vector_4'> +1.0939330e-05 </wgt>
<wgt id='morphing_basis_vector_5'> +1.8550716e-05 </wgt>
</rwgt>
</event>
<event>
 4      1 +4.5322000e-10 4.20935200e+03 7.81860800e-03 7.50445700e-02
        2 -1    0    0  501    0 +0.0000000000e+00 +0.0000000000e+00 +3.6388244041e+03 3.6388244041e+03 0.0000000000e+00 0.0000e+00 -1.0000e+00
       -2 -1    0    0    0  501 -0.0000000000e+00 -0.0000000000e+00 -1.2173331569e+03 1.2173331569e+03 0.0000000000e+00 0.0000e+00 1.0000e+00
      -13  1    1    2    0    0 -6.9736312203e+02 -3.9713253440e+02 -1.0338943725e+03 1.3088037085e+03 0.0000000000e+00 0.0000e+00 1.0000e+00
       13  1    1    2    0    0 +6.9736312203e+02 +3.9713253440e+02 +3.4553856197e+03 3.5473538525e+03 0.0000000000e+00 0.0000e+00 -1.0000e+00
<mgrwt>
<rscale>  0 0.42093523E+04</rscale>
<asrwt>0</asrwt>
<pdfrwt beam="1">  1        2 0.55981913E+00 0.42093523E+04</pdfrwt>
<pdfrwt beam="2">  1       -2 0.18728203E+00 0.42093523E+04</pdfrwt>
<totfact> 0.85549226E-02</totfact>
</mgrwt>
<rwgt>
<wgt id='morphing_basis_vector_1'> +1.9318828e-05 </wgt>
<wgt id='morphing_basis_vector_2'> +1.3099527e-05 </wgt>
<wgt id='morphing_basis_vector_3'> +2.1226965e-05 </wgt>
<wgt id='morphing_basis_vector_4'> +1.5301159e-05 </wgt>
<wgt id='morphing_basis_vector_5'> +2.4397647e-05 </wgt>
</rwgt>
</event>
<event>
 4      1 +4.5322000e-10 3.98261600e+03 7.81860800e-03 7.54383900e-02
        2 -1    0    0  501    0 +0.0000000000e+00 +0.0000000000e+00 +3.6165685582e+03 3.6165685582e+03 0.0000000000e+00 0.0000e+00 -1.0000e+00
       -2 -1    0    0    0  501 -0.0000000000e+00 -0.0000000000e+00 -1.0964281172e+03 1.0964281172e+03 0.0000000000e+00 0.0000e+00 1.0000e+00
      -13  1    1    2    0    0 +6.0286133369e+02 +1.1042913573e+03 -5.6650102171e+02 1.3797915050e+03 0.0000000000e+00 0.0000e+00 1.0000e+00
       13  1    1    2    0    0 -6.0286133369e+02 -1.1042913573e+03 +3.0866414627e+03 3.3332051705e+03 0.0000000000e+00 0.0000e+00 -1.0000e+00
<mgrwt>
<rscale>  0 0.39826160E+04</rscale>
<asrwt>0</asrwt>
<pdfrwt beam="1">  1        2 0.55639516E+00 0.39826160E+04</pdfrwt>
<pdfrwt beam="2">  1       -2 0.16868125E+00 0.39826160E+04</pdfrwt>
<totfact> 0.12566642E-01</totfact>
</mgrwt>
<rwgt>
<wgt id='morphing_basis_vector_1'> +1.5506758e-05 </wgt>
<wgt id='morphing_basis_vector_2'> +1.0528510e-05 </wgt>
<wgt id='morphing_basis_vector_3'> +1.7025812e-05 </wgt>
<wgt id='morphing_basis_vector_4'> +1.2229378e-05 </wgt>
<wgt id='morphing_basis_vector_5'> +1.9528497e-05 </wgt>
</rwgt>
</event>
<event>
 4      1 +4.5322000e-10 3.96422500e+03 7.81860800e-03 7.54714900e-02
        2 -1    0    0  501    0 +0.0000000000e+00 +0.0000000000e+00 +2.1195706140e+03 2.1195706140e+03 0.0000000000e+00 0.0000e+00 1.0000e+00
       -2 -1    0    0    0  501 -0.0000000000e+00 -0.0000000000e+00 -1.8535687520e+03 1.8535687520e+03 0.0000000000e+00 0.0000e+00 -1.0000e+00
      -13  1    1    2    0    0 +1.1812974146e+01 +1.7022952351e+03 -8.8457585057e+02 1.9184428710e+03 0.0000000000e+00 0.0000e+00 -1.0000e+00
       13  1    1    2    0    0 -1.1812974146e+01 -1.7022952351e+03 +1.1505777126e+03 2.0546964950e+03 0.0000000000e+00 0.0000e+00 1.0000e+00
<mgrwt>
<rscale>  0 0.39642249E+04</rscale>
<asrwt>0</asrwt>
<pdfrwt beam="1">  1        2 0.32608779E+00 0.39642249E+04</pdfrwt>
<pdfrwt beam="2">  1       -2 0.28516442E+00 0.39642249E+04</pdfrwt>
<totfact> 0.17126559E-01</totfact>
</mgrwt>
<rwgt>
<wgt id='morphing_basis_vector_1'> +1.5277713e-05 </wgt>
<wgt id='morphing_basis_vector_2'> +1.0494340e-05 </wgt>
<wgt id='morphing_basis_vector_3'> +1.6800104e-05 </wgt>
<wgt id='morphing_basis_vector_4'> +1.1889895e-05 </wgt>
<wgt id='morphing_basis_vector_5'> +1.9158987e-05 </wgt>
</rwgt>
</event>
<event>
 4      1 +4.5322000e-10 3.87028900e+03 7.81860800e-03 7.56435000e-02
        2 -1    0    0  501    0 +0.0000000000e+00 +0.0000000000e+00 +4.7809416475e+03 4.7809416475e+03 0.0000000000e+00 0.0000e+00 -1.0000e+00
       -2 -1    0    0    0  501 -0.0000000000e+00 -0.0000000000e+00 -7.8327320959e+02 7.8327320959e+02 0.0000000000e+00 0.0000e+00 1.0000e+00
      -13  1    1    2    0    0 -1.5128194048e+03 +1.1264044404e+03 +1.3765121596e+03 2.3349936274e+03 0.0000000000e+00 0.0000e+00 1.0000e+00
       13  1    1    2    0    0 +1.5128194048e+03 -1.1264044404e+03 +2.6211562783e+03 3.2292212297e+03 0.0000000000e+00 0.0000e+00 -1.0000e+00
<mgrwt>
<rscale>  0 0.38702886E+04</rscale>
<asrwt>0</asrwt>
<pdfrwt beam="1">  1        2 0.73552946E+00 0.38702886E+04</pdfrwt>
<pdfrwt beam="2">  1       -2 0.12050357E+00 0.38702886E+04</pdfrwt>
<totfact> 0.26753303E-02</totfact>
</mgrwt>
<rwgt>
<wgt id='morphing_basis_vector_1'> +1.4046919e-05 </wgt>
<wgt id='morphing_basis_vector_2'> +1.0005390e-05 </wgt>
<wgt id='morphing_basis_vector_3'> +1.5519245e-05 </wgt>
<wgt id='morphing_basis_vector_4'> +1.0460190e-05 </wgt>
<wgt id='morphing_basis_vector_5'> +1.7369881e-05 </wgt>
</rwgt>
</event>
<event>
 4      1 +4.5322000e-10 3.85672400e+03 7.81860800e-03 7.56687500e-02
        2 -1    0    0  501    0 +0.0000000000e+00 +0.0000000000e+00 +3.7199035694e+03 3.7199035694e+03 0.0000000000e+00 0.0000e+00 -1.0000e+00
       -2 -1    0    0    0  501 -0.0000000000e+00 -0.0000000000e+00 -9.9964397004e+02 9.9964397004e+02 0.0000000000e+00 0.0000e+00 1.0000e+00
      -13  1    1    2    0    0 +1.2773843327e+03 +5.9305824881e+02 -2.5181590568e+02 1.4306781854e+03 0.0000000000e+00 0.0000e+00 1.0000e+00
       13  1    1    2    0    0 -1.2773843327e+03 -5.9305824881e+02 +2.9720755050e+03 3.2888693540e+03 0.0000000000e+00 0.0000e+00 -1.0000e+00
<mgrwt>
<rscale>  0 0.38567236E+04</rscale>
<asrwt>0</asrwt>
<pdfrwt beam="1">  1        2 0.57229285E+00 0.38567236E+04</pdfrwt>
<pdfrwt beam="2">  1       -2 0.15379138E+00 0.38567236E+04</pdfrwt>
<totfact> 0.13905934E-01</totfact>
</mgrwt>
<rwgt>
<wgt id='morphing_basis_vector_1'> +1.3657178e-05 </wgt>
<wgt id='morphing_basis_vector_2'> +9.2931767e-06 </wgt>
<wgt id='morphing_basis_vector_3'> +1.4990859e-05 </wgt>
<wgt id='morphing_basis_vector_4'> +1.0725199e-05 </wgt>
<wgt id='morphing_basis_vector_5'> +1.7160612e-05 </wgt>
</rwgt>
</event>
<event>
 4      1 +4.5322000e-10 4.48435100e+03 7.81860800e-03 7.45993900e-02
        2 -1    0    0  501    0 +0.0000000000e+00 +0.0000000000e+00 +2.8137055727e+03 2.8137055727e+03 0.0000000000e+00 0.0000e+00 -1.0000e+00
       -2 -1    0    0    0  501 -0.0000000000e+00 -0.0000000000e+00 -1.7867367890e+03 1.7867367890e+03 0.0000000000e+00 0.0000e+00 1.0000e+00
      -13  1    1    2    0    0 -1.5876751791e+03 +1.2012295379e+03 -5.4456704877e+02 2.0640295898e+03 0.0000000000e+00 0.0000e+00 1.0000e+00
       13  1    1    2    0    0 +1.5876751791e+03 -1.2012295379e+03 +1.5715358325e+03 2.5364127719e+03 0.0000000000e+00 0.0000e+00 -1.0000e+00
<mgrwt>
<rscale>  0 0.44843511E+04</rscale>
<asrwt>0</asrwt>
<pdfrwt beam="1">  1        2 0.43287778E+00 0.44843511E+04</pdfrwt>
<pdfrwt beam="2">  1       -2 0.27488258E+00 0.44843511E+04</pdfrwt>
<totfact> 0.74497730E-02</totfact>
</mgrwt>
<rwgt>
<wgt id='morphing_basis_vector_1'> +2.4991766e-05 </wgt>
<wgt id='morphing_basis_vector_2'> +1.7263118e-05 </wgt>
<wgt id='morphing_basis_vector_3'> +2.7558096e-05 </wgt>
<wgt id='morphing_basis_vector_4'> +1.9442051e-05 </wgt>
<wgt id='morphing_basis_vector_5'> +3.1435191e-05 </wgt>
</rwgt>
</event>
<event>
 4      1 +4.5322000e-10 4.26463400e+03 7.81860800e-03 7.49523600e-02
        2 -1    0    0  501    0 +0.0000000000e+00 +0.0000000000e+00 +1.7995423892e+03 1.7995423892e+03 0.0000000000e+00 0.0000e+00 1.0000e+00
       -2 -1    0    0    0  501 -0.0000000000e+00 -0.0000000000e+00 -2.5266286539e+03 2.5266286539e+03 0.0000000000e+00 0.0000e+00 -1.0000e+00
      -13  1    1    2    0    0 +3.4047660453e+01 -1.8846004697e+03 -1.3748726260e+03 2.3330565598e+03 0.0000000000e+00 0.0000e+00 -1.0000e+00
       13  1    1    2    0    0 -3.4047660453e+01 +1.8846004697e+03 +6.4778636131e+02 1.9931144832e+03 0.0000000000e+00 0.0000e+00 1.0000e+00
<mgrwt>
<rscale>  0 0.42646338E+04</rscale>
<asrwt>0</asrwt>
<pdfrwt beam="1">  1        2 0.27685268E+00 0.42646338E+04</pdfrwt>
<pdfrwt beam="2">  1       -2 0.38871210E+00 0.42646338E+04</pdfrwt>
<totfact> 0.52721589E-02</totfact>
</mgrwt>
<rwgt>
<wgt id='morphing_basis_vector_1'> +2.0455553e-05 </wgt>
<wgt id='morphing_basis_vector_2'> +1.4113154e-05 </wgt>
<wgt id='morphing_basis_vector_3'> +2.2535474e-05 </wgt>
<wgt id='morphing_basis_vector_4'> +1.5898635e-05 </wgt>
<wgt id='morphing_basis_vector_5'> +2.5691848e-05 </wgt>
</rwgt>
</event>
<event>
 4      1 +4.5322000e-10 4.19409800e+03 7.81860800e-03 7.50702600e-02
        2 -1    0    0  501    0 +0.0000000000e+00 +0.0000000000e+00 +1.3423028545e+03 1.3423028545e+03 0.0000000000e+00 0.0000e+00 -1.0000e+00
       -2 -1    0    0    0  501 -0.0000000000e+00 -0.0000000000e+00 -3.2761709149e+03 3.2761709149e+03 0.0000000000e+00 0.0000e+00 1.0000e+00
      -13  1    1    2    0    0 -5.9254620472e+02 -1.1046961847e+03 -2.8181516442e+03 3.0843870307e+03 0.0000000000e+00 0.0000e+00 1.0000e+00
       13  1    1    2    0    0 +5.9254620472e+02 +1.1046961847e+03 +8.8428358376e+02 1.5340867387e+03 0.0000000000e+00 0.0000e+00 -1.0000e+00
<mgrwt>
<rscale>  0 0.41940976E+04</rscale>
<asrwt>0</asrwt>
<pdfrwt beam="1">  1        2 0.20650813E+00 0.41940976E+04</pdfrwt>
<pdfrwt beam="2">  1       -2 0.50402629E+00 0.41940976E+04</pdfrwt>
<totfact> 0.14972432E-02</totfact>
</mgrwt>
<rwgt>
<wgt id='morphing_basis_vector_1'> +1.9049799e-05 </wgt>
<wgt id='morphing_basis_vector_2'> +1.2935147e-05 </wgt>
<wgt id='morphing_basis_vector_3'> +2.0934240e-05 </wgt>
<wgt id='morphing_basis_vector_4'> +1.5062190e-05 </wgt>
<wgt id='morphing_basis_vector_5'> +2.4042874e-05 </wgt>
</rwgt>
</event>
<event>
 4      1 +4.5322000e-10 3.96634400e+03 7.81860800e-03 7.54676700e-02
        2 -1    0    0  501    0 +0.0000000000e+00 +0.0000000000e+00 +2.6938854978e+03 2.6938854978e+03 0.0000000000e+00 0.0000e+00 -1.0000e+00
       -2 -1    0    0    0  501 -0.0000000000e+00 -0.0000000000e+00 -1.4599619257e+03 1.4599619257e+03 0.0000000000e+00 0.0000e+00 1.0000e+00
      -13  1    1    2    0    0 +8.7266792826e+02 -7.0090207564e+02 -1.0975495043e+03 1.5676185592e+03 0.0000000000e+00 0.0000e+00 1.0000e+00
       13  1    1    2    0    0 -8.7266792826e+02 +7.0090207564e+02 +2.3314730764e+03 2.5862288643e+03 0.0000000000e+00 0.0000e+00 -1.0000e+00
<mgrwt>
<rscale>  0 0.39663435E+04</rscale>
<asrwt>0</asrwt>
<pdfrwt beam="1">  1        2 0.41444392E+00 0.39663435E+04</pdfrwt>
<pdfrwt beam="2">  1       -2 0.22460953E+00 0.39663435E+04</pdfrwt>
<totfact> 0.20550187E-01</totfact>
</mgrwt>
<rwgt>
<wgt id='morphing_basis_vector_1'> +1.5251879e-05 </wgt>
<wgt id='morphing_basis_vector_2'> +1.0345227e-05 </wgt>
<wgt id='morphing_basis_vector_3'> +1.6742467e-05 </wgt>
<wgt id='morphing_basis_vector_4'> +1.2038835e-05 </wgt>
<wgt id='morphing_basis_vector_5'> +1.9210459e-05 </wgt>
</rwgt>
</event>
<event>
 4      1 +4.5322000e-10 4.00541600e+03 7.81860800e-03 7.53975900e-02
        2 -1    0    0  501    0 +0.0000000000e+00 +0.0000000000e+00 +4.5927984497e+03 4.5927984497e+03 0.0000000000e+00 0.0000e+00 -1.0000e+00
       -2 -1    0    0    0  501 -0.0000000000e+00 -0.0000000000e+00 -8.7328867872e+02 8.7328867872e+02 0.0000000000e+00 0.0000e+00 1.0000e+00
      -13  1    1    2    0    0 -1.6314111109e+03 -1.1465688874e+03 +1.6054839710e+03 2.5600197670e+03 0.0000000000e+00 0.0000e+00 1.0000e+00
       13  1    1    2    0    0 +1.6314111109e+03 +1.1465688874e+03 +2.1140258000e+03 2.9060673614e+03 0.0000000000e+00 0.0000e+00 -1.0000e+00
<mgrwt>
<rscale>  0 0.40054158E+04</rscale>
<asrwt>0</asrwt>
<pdfrwt beam="1">  1        2 0.70658436E+00 0.40054158E+04</pdfrwt>
<pdfrwt beam="2">  1       -2 0.13435211E+00 0.40054158E+04</pdfrwt>
<totfact> 0.32267434E-02</totfact>
</mgrwt>
<rwgt>
<wgt id='morphing_basis_vector_1'> +1.6266944e-05 </wgt>
<wgt id='morphing_basis_vector_2'> +1.1958364e-05 </wgt>
<wgt id='morphing_basis_vector_3'> +1.8067007e-05 </wgt>
<wgt id='morphing_basis_vector_4'> +1.1658862e-05 </wgt>
<wgt id='morphing_basis_vector_5'> +1.9910631e-05 </wgt>
</rwgt>
</event>
<event>
 4      1 +4.5322000e-10 3.93153400e+03 7.81860800e-03 7.55308000e-02
        2 -1    0    0  501    0 +0.0000000000e+00 +0.0000000000e+00 +2.2696562657e+03 2.2696562657e+03 0.0000000000e+00 0.0000e+00 1.0000e+00
       -2 -1    0    0    0  501 -0.0000000000e+00 -0.0000000000e+00 -1.7025661187e+03 1.7025661187e+03 0.0000000000e+00 0.0000e+00 -1.0000e+00
      -13  1    1    2    0    0 +1.8214847207e+03 +6.7894970996e+02 +5.7890691997e+02 2.0282782153e+03 0.0000000000e+00 0.0000e+00 -1.0000e+00
       13  1    1    2    0    0 -1.8214847207e+03 -6.7894970996e+02 -1.1816772977e+01 1.9439441691e+03 0.0000000000e+00 0.0000e+00 1.0000e+00
<mgrwt>
<rscale>  0 0.39315340E+04</rscale>
<asrwt>0</asrwt>
<pdfrwt beam="1">  1        2 0.34917789E+00 0.39315340E+04</pdfrwt>
<pdfrwt beam="2">  1       -2 0.26193325E+00 0.39315340E+04</pdfrwt>
<totfact> 0.20298428E-01</totfact>
</mgrwt>
<rwgt>
<wgt id='morphing_basis_vector_1'> +1.5632338e-05 </wgt>
<wgt id='morphing_basis_vector_2'> +1.2651263e-05 </wgt>
<wgt id='morphing_basis_vector_3'> +1.7614876e-05 </wgt>
<wgt id='morphing_basis_vector_4'> +9.7044026e-06 </wgt>
<wgt id='morphing_basis_vector_5'> +1.8382100e-05 </wgt>
</rwgt>
</event>
<event>
 4      1 +4.5322000e-10 4.39470000e+03 7.81860800e-03 7.47408900e-02
        2 -1    0    0  501    0 +0.0000000000e+00 +0.0000000000e+00 +1.4381502375e+03 1.4381502375e+03 0.0000000000e+00 0.0000e+00 1.0000e+00
       -2 -1    0    0    0  501 -0.0000000000e+00 -0.0000000000e+00 -3.3573307090e+03 3.3573307090e+03 0.0000000000e+00 0.0000e+00 -1.0000e+00
      -13  1    1    2    0    0 +2.8541428154e+02 +2.1740965198e+03 -8.0454442613e+02 2.3356902027e+03 0.0000000000e+00 0.0000e+00 1.0000e+00
       13  1    1    2    0    0 -2.8541428154e+02 -2.1740965198e+03 -1.1146360454e+03 2.4597907438e+03 0.0000000000e+00 0.0000e+00 -1.0000e+00
<mgrwt>
<rscale>  0 0.43946995E+04</rscale>
<asrwt>0</asrwt>
<pdfrwt beam="1">  1        2 0.22125389E+00 0.43946995E+04</pdfrwt>
<pdfrwt beam="2">  1       -2 0.51651241E+00 0.43946995E+04</pdfrwt>
<totfact> 0.10486244E-02</totfact>
</mgrwt>
<rwgt>
<wgt id='morphing_basis_vector_1'> +2.3996005e-05 </wgt>
<wgt id='morphing_basis_vector_2'> +1.8675422e-05 </wgt>
<wgt id='morphing_basis_vector_3'> +2.6929752e-05 </wgt>
<wgt id='morphing_basis_vector_4'> +1.5941110e-05 </wgt>
<wgt id='morphing_basis_vector_5'> +2.8820344e-05 </wgt>
</rwgt>
</event>
<event>
 4      1 +4.5322000e-10 4.42051200e+03 7.81860800e-03 7.46998000e-02
        2 -1    0    0  501    0 +0.0000000000e+00 +0.0000000000e+00 +3.1854403490e+03 3.1854403490e+03 0.0000000000e+00 0.0000e+00 1.0000e+00
       -2 -1    0    0    0  501 -0.0000000000e+00 -0.0000000000e+00 -1.5336124685e+03 1.5336124685e+03 0.0000000000e+00 0.0000e+00 -1.0000e+00
      -13  1    1    2    0    0 +4.1840976038e+02 +3.6055452680e+02 -1.4587526895e+03 1.5598159197e+03 0.0000000000e+00 0.0000e+00 -1.0000e+00
       13  1    1    2    0    0 -4.1840976038e+02 -3.6055452680e+02 +3.1105805699e+03 3.1592368978e+03 0.0000000000e+00 0.0000e+00 1.0000e+00
<mgrwt>
<rscale>  0 0.44205118E+04</rscale>
<asrwt>0</asrwt>
<pdfrwt beam="1">  1        2 0.49006775E+00 0.44205118E+04</pdfrwt>
<pdfrwt beam="2">  1       -2 0.23594038E+00 0.44205118E+04</pdfrwt>
<totfact> 0.79479252E-02</totfact>
</mgrwt>
<rwgt>
<wgt id='morphing_basis_vector_1'> +2.3475343e-05 </wgt>
<wgt id='morphing_basis_vector_2'> +1.5923486e-05 </wgt>
<wgt id='morphing_basis_vector_3'> +2.5814169e-05 </wgt>
<wgt id='morphing_basis_vector_4'> +1.8628103e-05 </wgt>
<wgt id='morphing_basis_vector_5'> +2.9699087e-05 </wgt>
</rwgt>
</event>
<event>
 4      1 +4.5322000e-10 3.86870200e+03 7.81860800e-03 7.56464500e-02
        2 -1    0    0  501    0 +0.0000000000e+00 +0.0000000000e+00 +2.1699173978e+03 2.1699173978e+03 0.0000000000e+00 0.0000e+00 -1.0000e+00
       -2 -1    0    0    0  501 -0.0000000000e+00 -0.0000000000e+00 -1.7243579898e+03 1.7243579898e+03 0.0000000000e+00 0.0000e+00 1.0000e+00
      -13  1    1    2    0    0 -3.7120042371e+02 -7.1072936992e+02 -1.5491941437e+03 1.7443991764e+03 0.0000000000e+00 0.0000e+00 1.0000e+00
       13  1    1    2    0    0 +3.7120042371e+02 +7.1072936992e+02 +1.9947535516e+03 2.1498762112e+03 0.0000000000e+00 0.0000e+00 -1.0000e+00
<mgrwt>
<rscale>  0 0.38687023E+04</rscale>
<asrwt>0</asrwt>
<pdfrwt beam="1">  1        2 0.33383344E+00 0.38687023E+04</pdfrwt>
<pdfrwt beam="2">  1       -2 0.26528585E+00 0.38687023E+04</pdfrwt>
<totfact> 0.22079031E-01</totfact>
</mgrwt>
<rwgt>
<wgt id='morphing_basis_vector_1'> +1.3808046e-05 </wgt>
<wgt id='morphing_basis_vector_2'> +9.3540697e-06 </wgt>
<wgt id='morphing_basis_vector_3'> +1.5148038e-05 </wgt>
<wgt id='morphing_basis_vector_4'> +1.0899173e-05 </wgt>
<wgt id='morphing_basis_vector_5'> +1.7379233e-05 </wgt>
</rwgt>
</event>
<event>
 4      1 +4.5322000e-10 4.09338300e+03 7.81860800e-03 7.52427600e-02
        2 -1    0    0  501    0 +0.0000000000e+00 +0.0000000000e+00 +2.2965609841e+03 2.2965609841e+03 0.0000000000e+00 0.0000e+00 -1.0000e+00
       -2 -1    0    0    0  501 -0.0000000000e+00 -0.0000000000e+00 -1.8240079282e+03 1.8240079282e+03 0.0000000000e+00 0.0000e+00 1.0000e+00
      -13  1    1    2    0    0 -9.8887804652e+02 +4.0724028670e+02 -1.5203694353e+03 1.8588296484e+03 0.0000000000e+00 0.0000e+00 1.0000e+00
       13  1    1    2    0    0 +9.8887804652e+02 -4.0724028670e+02 +1.9929224912e+03 2.2617392639e+03 0.0000000000e+00 0.0000e+00 -1.0000e+00
<mgrwt>
<rscale>  0 0.40933827E+04</rscale>
<asrwt>0</asrwt>
<pdfrwt beam="1">  1        2 0.35331707E+00 0.40933827E+04</pdfrwt>
<pdfrwt beam="2">  1       -2 0.28061660E+00 0.40933827E+04</pdfrwt>
<totfact> 0.14404423E-01</totfact>
</mgrwt>
<rwgt>
<wgt id='morphing_basis_vector_1'> +1.7288806e-05 </wgt>
<wgt id='morphing_basis_vector_2'> +1.1726892e-05 </wgt>
<wgt id='morphing_basis_vector_3'> +1.8988738e-05 </wgt>
<wgt id='morphing_basis_vector_4'> +1.3669330e-05 </wgt>
<wgt id='morphing_basis_vector_5'> +2.1806237e-05 </wgt>
</rwgt>
</event>
<event>
 4      1 +4.5322000e-10 4.21042200e+03 7.81860800e-03 7.50427700e-02
        2 -1    0    0  501    0 +0.0000000000e+00 +0.0000000000e+00 +4.1250398098e+03 4.1250398098e+03 0.0000000000e+00 0.0000e+00 1.0000e+00
       -2 -1    0    0    0  501 -0.0000000000e+00 -0.0000000000e+00 -1.0743929021e+03 1.0743929021e+03 0.0000000000e+00 0.0000e+00 -1.0000e+00
      -13  1    1    2    0    0 -1.0580628957e+02 +2.0901826429e+03 +1.2441166536e+03 2.4347247687e+03 0.0000000000e+00 0.0000e+00 -1.0000e+00
       13  1    1    2    0    0 +1.0580628957e+02 -2.0901826429e+03 +1.8065302541e+03 2.7647079431e+03 0.0000000000e+00 0.0000e+00 1.0000e+00
<mgrwt>
<rscale>  0 0.42104221E+04</rscale>
<asrwt>0</asrwt>
<pdfrwt beam="1">  1        2 0.63462150E+00 0.42104221E+04</pdfrwt>
<pdfrwt beam="2">  1       -2 0.16529122E+00 0.42104221E+04</pdfrwt>
<totfact> 0.50293104E-02</totfact>
</mgrwt>
<rwgt>
<wgt id='morphing_basis_vector_1'> +1.9814597e-05 </wgt>
<wgt id='morphing_basis_vector_2'> +1.4512247e-05 </wgt>
<wgt id='morphing_basis_vector_3'> +2.2014978e-05 </wgt>
<wgt id='morphing_basis_vector_4'> +1.4307507e-05 </wgt>
<wgt id='morphing_basis_vector_5'> +2.4338343e-05 </wgt>
</rwgt>
</event>
<event>
 4      1 +4.5322000e-10 4.11420800e+03 7.81860800e-03 7.52066800e-02
        2 -1    0    0  501    0 +0.0000000000e+00 +0.0000000000e+00 +1.9839243896e+03 1.9839243896e+03 0.0000000000e+00 0.0000e+00 1.0000e+00
       -2 -1    0    0    0  501 -0.0000000000e+00 -0.0000000000e+00 -2.1329832827e+03 2.1329832827e+03 0.0000000000e+00 0.0000e+00 -1.0000e+00
      -13  1    1    2    0    0 +1.6397411413e+03 +1.1718200843e+03 -4.8682433452e+02 2.0733815985e+03 0.0000000000e+00 0.0000e+00 1.0000e+00
       13  1    1    2    0    0 -1.6397411413e+03 -1.1718200843e+03 +3.3776544139e+02 2.0435260737e+03 0.0000000000e+00 0.0000e+00 -1.0000e+00
<mgrwt>
<rscale>  0 0.41142083E+04</rscale>
<asrwt>0</asrwt>
<pdfrwt beam="1">  1        2 0.30521914E+00 0.41142083E+04</pdfrwt>
<pdfrwt beam="2">  1       -2 0.32815127E+00 0.41142083E+04</pdfrwt>
<totfact> 0.10394375E-01</totfact>
</mgrwt>
<rwgt>
<wgt id='morphing_basis_vector_1'> +1.7941848e-05 </wgt>
<wgt id='morphing_basis_vector_2'> +1.2849339e-05 </wgt>
<wgt id='morphing_basis_vector_3'> +1.9860586e-05 </wgt>
<wgt id='morphing_basis_vector_4'> +1.3315135e-05 </wgt>
<wgt id='morphing_basis_vector_5'> +2.2202513e-05 </wgt>
</rwgt>
</event>
<event>
 4      1 +4.5322000e-10 4.04959400e+03 7.81860800e-03 7.53193300e-02
        2 -1    0    0  501    0 +0.0000000000e+00 +0.0000000000e+00 +2.0667441526e+03 2.0667441526e+03 0.0000000000e+00 0.0000e+00 -1.0000e+00
       -2 -1    0    0    0  501 -0.0000000000e+00 -0.0000000000e+00 -1.9837010934e+03 1.9837010934e+03 0.0000000000e+00 0.0000e+00 1.0000e+00
      -13  1    1    2    0    0 -1.1028405968e+03 +9.1538191616e+02 -1.3890313076e+03 1.9958931353e+03 0.0000000000e+00 0.0000e+00 1.0000e+00
       13  1    1    2    0    0 +1.1028405968e+03 -9.1538191616e+02 +1.4720743667e+03 2.0545521107e+03 0.0000000000e+00 0.0000e+00 -1.0000e+00
<mgrwt>
<rscale>  0 0.40495939E+04</rscale>
<asrwt>0</asrwt>
<pdfrwt beam="1">  1        2 0.31796064E+00 0.40495939E+04</pdfrwt>
<pdfrwt beam="2">  1       -2 0.30518478E+00 0.40495939E+04</pdfrwt>
<totfact> 0.13347066E-01</totfact>
</mgrwt>
<rwgt>
<wgt id='morphing_basis_vector_1'> +1.6580015e-05 </wgt>
<wgt id='morphing_basis_vector_2'> +1.1280135e-05 </wgt>
<wgt id='morphing_basis_vector_3'> +1.8214602e-05 </wgt>
<wgt id='morphing_basis_vector_4'> +1.3057919e-05 </wgt>
<wgt id='morphing_basis_vector_5'> +2.0880946e-05 </wgt>
</rwgt>
</event>
<event>
 4      1 +4.5322000e-10 3.99316500e+03 7.81860800e-03 7.54194800e-02
        2 -1    0    0  501    0 +0.0000000000e+00 +0.0000000000e+00 +3.6360776909e+03 3.6360776909e+03 0.0000000000e+00 0.0000e+00 1.0000e+00
       -2 -1    0    0    0  501 -0.0000000000e+00 -0.0000000000e+00 -1.0963302370e+03 1.0963302370e+03 0.0000000000e+00 0.0000e+00 -1.0000e+00
      -13  1    1    2    0    0 -3.1628032600e+01 +8.4841911758e+02 -8.7174184660e+02 1.2168603776e+03 0.0000000000e+00 0.0000e+00 -1.0000e+00
       13  1    1    2    0    0 +3.1628032600e+01 -8.4841911758e+02 +3.4114893005e+03 3.5155475503e+03 0.0000000000e+00 0.0000e+00 1.0000e+00
<mgrwt>
<rscale>  0 0.39931651E+04</rscale>
<asrwt>0</asrwt>
<pdfrwt beam="1">  1        2 0.55939656E+00 0.39931651E+04</pdfrwt>
<pdfrwt beam="2">  1       -2 0.16866619E+00 0.39931651E+04</pdfrwt>
<totfact> 0.12138032E-01</totfact>
</mgrwt>
<rwgt>
<wgt id='morphing_basis_vector_1'> +1.5662197e-05 </wgt>
<wgt id='morphing_basis_vector_2'> +1.0614827e-05 </wgt>
<wgt id='morphing_basis_vector_3'> +1.7192971e-05 </wgt>
<wgt id='morphing_basis_vector_4'> +1.2378414e-05 </wgt>
<wgt id='morphing_basis_vector_5'> +1.9738798e-05 </wgt>
</rwgt>
</event>
<event>
 4      1 +4.5322000e-10 4.54720500e+03 7.81860800e-03 7.45021700e-02
        2 -1    0    0  501    0 +0.0000000000e+00 +0.0000000000e+00 +3.4560449754e+03 3.4560449754e+03 0.0000000000e+00 0.0000e+00 -1.0000e+00
       -2 -1    0    0    0  501 -0.0000000000e+00 -0.0000000000e+00 -1.4957176795e+03 1.4957176795e+03 0.0000000000e+00 0.0000e+00 1.0000e+00
      -13  1    1    2    0    0 +1.7478398776e+03 +6.3880567057e+01 -6.0174540648e+02 1.8496276649e+03 0.0000000000e+00 0.0000e+00 1.0000e+00
       13  1    1    2    0    0 -1.7478398776e+03 -6.3880567057e+01 +2.5620727024e+03 3.1021349901e+03 0.0000000000e+00 0.0000e+00 -1.0000e+00
<mgrwt>
<rscale>  0 0.45472047E+04</rscale>
<asrwt>0</asrwt>
<pdfrwt beam="1">  1        2 0.53169923E+00 0.45472047E+04</pdfrwt>
<pdfrwt beam="2">  1       -2 0.23011041E+00 0.45472047E+04</pdfrwt>
<totfact> 0.55855240E-02</totfact>
</mgrwt>
<rwgt>
<wgt id='morphing_basis_vector_1'> +2.6323903e-05 </wgt>
<wgt id='morphing_basis_vector_2'> +1.7977105e-05 </wgt>
<wgt id='morphing_basis_vector_3'> +2.8985576e-05 </wgt>
<wgt id='morphing_basis_vector_4'> +2.0756807e-05 </wgt>
<wgt id='morphing_basis_vector_5'> +3.3258689e-05 </wgt>
</rwgt>
</event>
<event>
 4      1 +4.5322000e-10 4.50117800e+03 7.81860800e-03 7.45732100e-02
        2 -1    0    0  501    0 +0.0000000000e+00 +0.0000000000e+00 +3.5546387117e+03 3.5546387117e+03 0.0000000000e+00 0.0000e+00 1.0000e+00
       -2 -1    0    0    0  501 -0.0000000000e+00 -0.0000000000e+00 -1.4249412310e+03 1.4249412310e+03 0.0000000000e+00 0.0000e+00 -1.0000e+00
      -13  1    1    2    0    0 -4.9989846226e+01 -8.3036064978e+02 -1.2486212102e+03 1.5003508657e+03 0.0000000000e+00 0.0000e+00 -1.0000e+00
       13  1    1    2    0    0 +4.9989846226e+01 +8.3036064978e+02 +3.3783186909e+03 3.4792290771e+03 0.0000000000e+00 0.0000e+00 1.0000e+00
<mgrwt>
<rscale>  0 0.45011782E+04</rscale>
<asrwt>0</asrwt>
<pdfrwt beam="1">  1        2 0.54686749E+00 0.45011782E+04</pdfrwt>
<pdfrwt beam="2">  1       -2 0.21922173E+00 0.45011782E+04</pdfrwt>
<totfact> 0.56652657E-02</totfact>
</mgrwt>
<rwgt>
<wgt id='morphing_basis_vector_1'> +2.5229941e-05 </wgt>
<wgt id='morphing_basis_vector_2'> +1.7119268e-05 </wgt>
<wgt id='morphing_basis_vector_3'> +2.7751873e-05 </wgt>
<wgt id='morphing_basis_vector_4'> +2.0028758e-05 </wgt>
<wgt id='morphing_basis_vector_5'> +3.1935984e-05 </wgt>
</rwgt>
</event>
<event>
 4      1 +4.5322000e-10 4.01242600e+03 7.81860800e-03 7.53851000e-02
        2 -1    0    0  501    0 +0.0000000000e+00 +0.0000000000e+00 +4.3141150438e+03 4.3141150438e+03 0.0000000000e+00 0.0000e+00 1.0000e+00
       -2 -1    0    0    0  501 -0.0000000000e+00 -0.0000000000e+00 -9.3295879694e+02 9.3295879694e+02 0.0000000000e+00 0.0000e+00 -1.0000e+00
      -13  1    1    2    0    0 +1.3366412279e+03 +1.6055626635e+02 -2.5456727358e+02 1.3701067782e+03 0.0000000000e+00 0.0000e+00 -1.0000e+00
       13  1    1    2    0    0 -1.3366412279e+03 -1.6055626635e+02 +3.6357235204e+03 3.8769670625e+03 0.0000000000e+00 0.0000e+00 1.0000e+00
<mgrwt>
<rscale>  0 0.40124265E+04</rscale>
<asrwt>0</asrwt>
<pdfrwt beam="1">  1        2 0.66370999E+00 0.40124265E+04</pdfrwt>
<pdfrwt beam="2">  1       -2 0.14353213E+00 0.40124265E+04</pdfrwt>
<totfact> 0.51494594E-02</totfact>
</mgrwt>
<rwgt>
<wgt id='morphing_basis_vector_1'> +1.5977728e-05 </wgt>
<wgt id='morphing_basis_vector_2'> +1.0858083e-05 </wgt>
<wgt id='morphing_basis_vector_3'> +1.7547399e-05 </wgt>
<wgt id='morphing_basis_vector_4'> +1.2593250e-05 </wgt>
<wgt id='morphing_basis_vector_5'> +2.0122087e-05 </wgt>
</rwgt>
</event>
<event>
 4      1 +4.5322000e-10 4.03845900e+03 7.81860800e-03 7.53389600e-02
        2 -1    0    0  501    0 +0.0000000000e+00 +0.0000000000e+00 +2.7673556275e+03 2.7673556275e+03 0.0000000000e+00 0.0000e+00 -1.0000e+00
       -2 -1    0    0    0  501 -0.0000000000e+00 -0.0000000000e+00 -1.4733518940e+03 1.4733518940e+03 0.0000000000e+00 0.0000e+00 1.0000e+00
      -13  1    1    2    0    0 -1.3851538828e+03 -2.7791451794e+02 +2.1619594179e+03 2.5826258504e+03 0.0000000000e+00 0.0000e+00 -1.0000e+00
       13  1    1    2    0    0 +1.3851538828e+03 +2.7791451794e+02 -8.6795568442e+02 1.6580816712e+03 0.0000000000e+00 0.0000e+00 1.0000e+00
<mgrwt>
<rscale>  0 0.40384594E+04</rscale>
<asrwt>0</asrwt>
<pdfrwt beam="1">  1        2 0.42574702E+00 0.40384594E+04</pdfrwt>
<pdfrwt beam="2">  1       -2 0.22666952E+00 0.40384594E+04</pdfrwt>
<totfact> 0.17790911E-01</totfact>
</mgrwt>
<rwgt>
<wgt id='morphing_basis_vector_1'> +2.1232214e-05 </wgt>
<wgt id='morphing_basis_vector_2'> +2.5361827e-05 </wgt>
<wgt id='morphing_basis_vector_3'> +2.5774068e-05 </wgt>
<wgt id='morphing_basis_vector_4'> +2.6877307e-06 </wgt>
<wgt id='morphing_basis_vector_5'> +1.9798860e-05 </wgt>
</rwgt>
</event>
<event>
 4      1 +4.5322000e-10 4.46614400e+03 7.81860800e-03 7.46278600e-02
        2 -1    0    0  501    0 +0.0000000000e+00 +0.0000000000e+00 +2.5031149395e+03 2.5031149395e+03 0.0000000000e+00 0.0000e+00 -1.0000e+00
       -2 -1    0    0    0  501 -0.0000000000e+00 -0.0000000000e+00 -1.9921618406e+03 1.9921618406e+03 0.0000000000e+00 0.0000e+00 1.0000e+00
      -13  1    1    2    0    0 +7.1042348041e+02 +2.4291336481e+02 -1.8613115115e+03 2.0070348695e+03 0.0000000000e+00 0.0000e+00 1.0000e+00
       13  1    1    2    0    0 -7.1042348041e+02 -2.4291336481e+02 +2.3722646104e+03 2.4882419107e+03 0.0000000000e+00 0.0000e+00 -1.0000e+00
<mgrwt>
<rscale>  0 0.44661438E+04</rscale>
<asrwt>0</asrwt>
<pdfrwt beam="1">  1        2 0.38509461E+00 0.44661438E+04</pdfrwt>
<pdfrwt beam="2">  1       -2 0.30648644E+00 0.44661438E+04</pdfrwt>
<totfact> 0.70667099E-02</totfact>
</mgrwt>
<rwgt>
<wgt id='morphing_basis_vector_1'> +2.4456241e-05 </wgt>
<wgt id='morphing_basis_vector_2'> +1.6591994e-05 </wgt>
<wgt id='morphing_basis_vector_3'> +2.6897403e-05 </wgt>
<wgt id='morphing_basis_vector_4'> +1.9411046e-05 </wgt>
<wgt id='morphing_basis_vector_5'> +3.0949513e-05 </wgt>
</rwgt>
</event>
<event>
 4      1 +4.5322000e-10 3.89780000e+03 7.81860800e-03 7.55926200e-02
        2 -1    0    0  501    0 +0.0000000000e+00 +0.0000000000e+00 +3.1441314760e+03 3.1441314760e+03 0.0000000000e+00 0.0000e+00 -1.0000e+00
       -2 -1    0    0    0  501 -0.0000000000e+00 -0.0000000000e+00 -1.2080316624e+03 1.2080316624e+03 0.0000000000e+00 0.0000e+00 1.0000e+00
      -13  1    1    2    0    0 +1.1582258941e+03 -1.0809678169e+03 -2.9925950131e+02 1.6123073193e+03 0.0000000000e+00 0.0000e+00 1.0000e+00
       13  1    1    2    0    0 -1.1582258941e+03 +1.0809678169e+03 +2.2353593149e+03 2.7398558191e+03 0.0000000000e+00 0.0000e+00 -1.0000e+00
<mgrwt>
<rscale>  0 0.38977996E+04</rscale>
<asrwt>0</asrwt>
<pdfrwt beam="1">  1        2 0.48371253E+00 0.38977996E+04</pdfrwt>
<pdfrwt beam="2">  1       -2 0.18585103E+00 0.38977996E+04</pdfrwt>
<totfact> 0.20282066E-01</totfact>
</mgrwt>
<rwgt>
<wgt id='morphing_basis_vector_1'> +1.4264703e-05 </wgt>
<wgt id='morphing_basis_vector_2'> +9.7522752e-06 </wgt>
<wgt id='morphing_basis_vector_3'> +1.5670991e-05 </wgt>
<wgt id='morphing_basis_vector_4'> +1.1150425e-05 </wgt>
<wgt id='morphing_basis_vector_5'> +1.7904007e-05 </wgt>
</rwgt>
</event>
<event>
 4      1 +4.5322000e-10 3.97746200e+03 7.81860800e-03 7.54476400e-02
        2 -1    0    0  501    0 +0.0000000000e+00 +0.0000000000e+00 +2.8421711793e+03 2.8421711793e+03 0.0000000000e+00 0.0000e+00 -1.0000e+00
       -2 -1    0    0    0  501 -0.0000000000e+00 -0.0000000000e+00 -1.3915600728e+03 1.3915600728e+03 0.0000000000e+00 0.0000e+00 1.0000e+00
      -13  1    1    2    0    0 -1.6552504684e+03 -8.1613546830e+02 -6.3465764995e+01 1.8466074621e+03 0.0000000000e+00 0.0000e+00 1.0000e+00
       13  1    1    2    0    0 +1.6552504684e+03 +8.1613546830e+02 +1.5140768715e+03 2.3871237899e+03 0.0000000000e+00 0.0000e+00 -1.0000e+00
<mgrwt>
<rscale>  0 0.39774625E+04</rscale>
<asrwt>0</asrwt>
<pdfrwt beam="1">  1        2 0.43725710E+00 0.39774625E+04</pdfrwt>
<pdfrwt beam="2">  1       -2 0.21408617E+00 0.39774625E+04</pdfrwt>
<totfact> 0.19703212E-01</totfact>
</mgrwt>
<rwgt>
<wgt id='morphing_basis_vector_1'> +1.5545532e-05 </wgt>
<wgt id='morphing_basis_vector_2'> +1.0822462e-05 </wgt>
<wgt id='morphing_basis_vector_3'> +1.7127898e-05 </wgt>
<wgt id='morphing_basis_vector_4'> +1.1915368e-05 </wgt>
<wgt id='morphing_basis_vector_5'> +1.9406242e-05 </wgt>
</rwgt>
</event>
<event>
 4      1 +4.5322000e-10 3.99125900e+03 7.81860800e-03 7.54228900e-02
        2 -1    0    0  501    0 +0.0000000000e+00 +0.0000000000e+00 +3.8893754947e+03 3.8893754947e+03 0.0000000000e+00 0.0000e+00 -1.0000e+00
       -2 -1    0    0    0  501 -0.0000000000e+00 -0.0000000000e+00 -1.0239527160e+03 1.0239527160e+03 0.0000000000e+00 0.0000e+00 1.0000e+00
      -13  1    1    2    0    0 -9.1469323543e+02 +1.6274126916e+03 +2.3009101066e+03 2.9629922548e+03 0.0000000000e+00 0.0000e+00 1.0000e+00
       13  1    1    2    0    0 +9.1469323543e+02 -1.6274126916e+03 +5.6451267216e+02 1.9503359559e+03 0.0000000000e+00 0.0000e+00 -1.0000e+00
<mgrwt>
<rscale>  0 0.39912587E+04</rscale>
<asrwt>0</asrwt>
<pdfrwt beam="1">  1        2 0.59836545E+00 0.39912587E+04</pdfrwt>
<pdfrwt beam="2">  1       -2 0.15753119E+00 0.39912587E+04</pdfrwt>
<totfact> 0.93854843E-02</totfact>
</mgrwt>
<rwgt>
<wgt id='morphing_basis_vector_1'> +1.7517208e-05 </wgt>
<wgt id='morphing_basis_vector_2'> +1.6134649e-05 </wgt>
<wgt id='morphing_basis_vector_3'> +2.0183778e-05 </wgt>
<wgt id='morphing_basis_vector_4'> +8.3684055e-06 </wgt>
<wgt id='morphing_basis_vector_5'> +1.9368861e-05 </wgt>
</rwgt>
</event>
<event>
 4      1 +4.5322000e-10 4.20218400e+03 7.81860800e-03 7.50566300e-02
        2 -1    0    0  501    0 +0.0000000000e+00 +0.0000000000e+00 +2.1833510960e+03 2.1833510960e+03 0.0000000000e+00 0.0000e+00 1.0000e+00
       -2 -1    0    0    0  501 -0.0000000000e+00 -0.0000000000e+00 -2.0219316455e+03 2.0219316455e+03 0.0000000000e+00 0.0000e+00 -1.0000e+00
      -13  1    1    2    0    0 +1.6888648014e+03 +8.2952608508e+02 -8.5497119949e+02 2.0667253313e+03 0.0000000000e+00 0.0000e+00 -1.0000e+00
       13  1    1    2    0    0 -1.6888648014e+03 -8.2952608508e+02 +1.0163906501e+03 2.1385574102e+03 0.0000000000e+00 0.0000e+00 1.0000e+00
<mgrwt>
<rscale>  0 0.42021836E+04</rscale>
<asrwt>0</asrwt>
<pdfrwt beam="1">  1        2 0.33590017E+00 0.42021836E+04</pdfrwt>
<pdfrwt beam="2">  1       -2 0.31106640E+00 0.42021836E+04</pdfrwt>
<totfact> 0.10335998E-01</totfact>
</mgrwt>
<rwgt>
<wgt id='morphing_basis_vector_1'> +1.9300704e-05 </wgt>
<wgt id='morphing_basis_vector_2'> +1.3341390e-05 </wgt>
<wgt id='morphing_basis_vector_3'> +2.1263878e-05 </wgt>
<wgt id='morphing_basis_vector_4'> +1.4958245e-05 </wgt>
<wgt id='morphing_basis_vector_5'> +2.4211228e-05 </wgt>
</rwgt>
</event>
<event>
 4      1 +4.5322000e-10 4.42990900e+03 7.81860800e-03 7.46849100e-02
        2 -1    0    0  501    0 +0.0000000000e+00 +0.0000000000e+00 +2.1289830781e+03 2.1289830781e+03 0.0000000000e+00 0.0000e+00 1.0000e+00
       -2 -1    0    0    0  501 -0.0000000000e+00 -0.0000000000e+00 -2.3043977170e+03 2.3043977170e+03 0.0000000000e+00 0.0000e+00 -1.0000e+00
      -13  1    1    2    0    0 -1.0688251784e+03 +5.3676952866e+02 -1.9534416287e+03 2.2905115118e+03 0.0000000000e+00 0.0000e+00 -1.0000e+00
       13  1    1    2    0    0 +1.0688251784e+03 -5.3676952866e+02 +1.7780269898e+03 2.1428692833e+03 0.0000000000e+00 0.0000e+00 1.0000e+00
<mgrwt>
<rscale>  0 0.44299091E+04</rscale>
<asrwt>0</asrwt>
<pdfrwt beam="1">  1        2 0.32753586E+00 0.44299091E+04</pdfrwt>
<pdfrwt beam="2">  1       -2 0.35452273E+00 0.44299091E+04</pdfrwt>
<totfact> 0.56438924E-02</totfact>
</mgrwt>
<rwgt>
<wgt id='morphing_basis_vector_1'> +2.3681648e-05 </wgt>
<wgt id='morphing_basis_vector_2'> +1.6079339e-05 </wgt>
<wgt id='morphing_basis_vector_3'> +2.6045435e-05 </wgt>
<wgt id='morphing_basis_vector_4'> +1.8773015e-05 </wgt>
<wgt id='morphing_basis_vector_5'> +2.9952246e-05 </wgt>
</rwgt>
</event>
<event>
 4      1 +4.5322000e-10 4.13730100e+03 7.81860800e-03 7.51669300e-02
        2 -1    0    0  501    0 +0.0000000000e+00 +0.0000000000e+00 +3.2376835492e+03 3.2376835492e+03 0.0000000000e+00 0.0000e+00 -1.0000e+00
       -2 -1    0    0    0  501 -0.0000000000e+00 -0.0000000000e+00 -1.3217208699e+03 1.3217208699e+03 0.0000000000e+00 0.0000e+00 1.0000e+00
      -13  1    1    2    0    0 -6.2597338534e+02 -7.8330822417e+02 -1.0360120604e+03 1.4417820371e+03 0.0000000000e+00 0.0000e+00 1.0000e+00
       13  1    1    2    0    0 +6.2597338534e+02 +7.8330822417e+02 +2.9519747397e+03 3.1176223821e+03 0.0000000000e+00 0.0000e+00 -1.0000e+00
<mgrwt>
<rscale>  0 0.41373005E+04</rscale>
<asrwt>0</asrwt>
<pdfrwt beam="1">  1        2 0.49810516E+00 0.41373005E+04</pdfrwt>
<pdfrwt beam="2">  1       -2 0.20334167E+00 0.41373005E+04</pdfrwt>
<totfact> 0.12767274E-01</totfact>
</mgrwt>
<rwgt>
<wgt id='morphing_basis_vector_1'> +1.8037700e-05 </wgt>
<wgt id='morphing_basis_vector_2'> +1.2233299e-05 </wgt>
<wgt id='morphing_basis_vector_3'> +1.9814390e-05 </wgt>
<wgt id='morphing_basis_vector_4'> +1.4271155e-05 </wgt>
<wgt id='morphing_basis_vector_5'> +2.2762037e-05 </wgt>
</rwgt>
</event>
<event>
 4      1 +4.5322000e-10 3.85665200e+03 7.81860800e-03 7.56688900e-02
        2 -1    0    0  501    0 +0.0000000000e+00 +0.0000000000e+00 +2.3503726794e+03 2.3503726794e+03 0.0000000000e+00 0.0000e+00 -1.0000e+00
       -2 -1    0    0    0  501 -0.0000000000e+00 -0.0000000000e+00 -1.5820649010e+03 1.5820649010e+03 0.0000000000e+00 0.0000e+00 1.0000e+00
      -13  1    1    2    0    0 +9.5012638759e+02 -1.5980235367e+03 -1.3778640325e+02 1.8642436722e+03 0.0000000000e+00 0.0000e+00 1.0000e+00
       13  1    1    2    0    0 -9.5012638759e+02 +1.5980235367e+03 +9.0609418159e+02 2.0681939083e+03 0.0000000000e+00 0.0000e+00 -1.0000e+00
<mgrwt>
<rscale>  0 0.38566525E+04</rscale>
<asrwt>0</asrwt>
<pdfrwt beam="1">  1        2 0.36159580E+00 0.38566525E+04</pdfrwt>
<pdfrwt beam="2">  1       -2 0.24339460E+00 0.38566525E+04</pdfrwt>
<totfact> 0.24612272E-01</totfact>
</mgrwt>
<rwgt>
<wgt id='morphing_basis_vector_1'> +1.3817382e-05 </wgt>
<wgt id='morphing_basis_vector_2'> +9.7664264e-06 </wgt>
<wgt id='morphing_basis_vector_3'> +1.5247784e-05 </wgt>
<wgt id='morphing_basis_vector_4'> +1.0383946e-05 </wgt>
<wgt id='morphing_basis_vector_5'> +1.7131013e-05 </wgt>
</rwgt>
</event>
<event>
 4      1 +4.5322000e-10 3.87977100e+03 7.81860800e-03 7.56259100e-02
        2 -1    0    0  501    0 +0.0000000000e+00 +0.0000000000e+00 +4.0141445927e+03 4.0141445927e+03 0.0000000000e+00 0.0000e+00 1.0000e+00
       -2 -1    0    0    0  501 -0.0000000000e+00 -0.0000000000e+00 -9.3747406871e+02 9.3747406871e+02 0.0000000000e+00 0.0000e+00 -1.0000e+00
      -13  1    1    2    0    0 +5.1547731931e+02 -1.2971696324e+03 -1.8097522066e+02 1.4075219190e+03 0.0000000000e+00 0.0000e+00 -1.0000e+00
       13  1    1    2    0    0 -5.1547731931e+02 +1.2971696324e+03 +3.2576457447e+03 3.5440967424e+03 0.0000000000e+00 0.0000e+00 1.0000e+00
<mgrwt>
<rscale>  0 0.38797714E+04</rscale>
<asrwt>0</asrwt>
<pdfrwt beam="1">  1        2 0.61756070E+00 0.38797714E+04</pdfrwt>
<pdfrwt beam="2">  1       -2 0.14422678E+00 0.38797714E+04</pdfrwt>
<totfact> 0.95882601E-02</totfact>
</mgrwt>
<rwgt>
<wgt id='morphing_basis_vector_1'> +1.3983091e-05 </wgt>
<wgt id='morphing_basis_vector_2'> +9.5119413e-06 </wgt>
<wgt id='morphing_basis_vector_3'> +1.5349638e-05 </wgt>
<wgt id='morphing_basis_vector_4'> +1.0988745e-05 </wgt>
<wgt id='morphing_basis_vector_5'> +1.7577027e-05 </wgt>
</rwgt>
</event>
<event>
 4      1 +4.5322000e-10 4.10590700e+03 7.81860800e-03 7.52210300e-02
        2 -1    0    0  501    0 +0.0000000000e+00 +0.0000000000e+00 +2.2968995707e+03 2.2968995707e+03 0.0000000000e+00 0.0000e+00 1.0000e+00
       -2 -1    0    0    0  501 -0.0000000000e+00 -0.0000000000e+00 -1.8349162952e+03 1.8349162952e+03 0.0000000000e+00 0.0000e+00 -1.0000e+00
      -13  1    1    2    0    0 +1.7252118586e+03 +1.1109908363e+03 +2.9433208647e+02 2.0729901043e+03 0.0000000000e+00 0.0000e+00 -1.0000e+00
       13  1    1    2    0    0 -1.7252118586e+03 -1.1109908363e+03 +1.6765118908e+02 2.0588257616e+03 0.0000000000e+00 0.0000e+00 1.0000e+00
<mgrwt>
<rscale>  0 0.41059072E+04</rscale>
<asrwt>0</asrwt>
<pdfrwt beam="1">  1        2 0.35336917E+00 0.41059072E+04</pdfrwt>
<pdfrwt beam="2">  1       -2 0.28229481E+00 0.41059072E+04</pdfrwt>
<totfact> 0.14010449E-01</totfact>
</mgrwt>
<rwgt>
<wgt id='morphing_basis_vector_1'> +1.8214104e-05 </wgt>
<wgt id='morphing_basis_vector_2'> +1.3968574e-05 </wgt>
<wgt id='morphing_basis_vector_3'> +2.0369208e-05 </wgt>
<wgt id='morphing_basis_vector_4'> +1.2326835e-05 </wgt>
<wgt id='morphing_basis_vector_5'> +2.1949595e-05 </wgt>
</rwgt>
</event>
<event>
 4      1 +4.5322000e-10 3.96954300e+03 7.81860800e-03 7.54619000e-02
        2 -1    0    0  501    0 +0.0000000000e+00 +0.0000000000e+00 +3.4281705950e+03 3.4281705950e+03 0.0000000000e+00 0.0000e+00 -1.0000e+00
       -2 -1    0    0    0  501 -0.0000000000e+00 -0.0000000000e+00 -1.1491018968e+03 1.1491018968e+03 0.0000000000e+00 0.0000e+00 1.0000e+00
      -13  1    1    2    0    0 -3.0676997614e+02 +8.6233005400e+02 -8.9122719022e+02 1.2775002328e+03 0.0000000000e+00 0.0000e+00 1.0000e+00
       13  1    1    2    0    0 +3.0676997614e+02 -8.6233005400e+02 +3.1702958884e+03 3.2997722589e+03 0.0000000000e+00 0.0000e+00 -1.0000e+00
<mgrwt>
<rscale>  0 0.39695427E+04</rscale>
<asrwt>0</asrwt>
<pdfrwt beam="1">  1        2 0.52741086E+00 0.39695427E+04</pdfrwt>
<pdfrwt beam="2">  1       -2 0.17678491E+00 0.39695427E+04</pdfrwt>
<totfact> 0.14993044E-01</totfact>
</mgrwt>
<rwgt>
<wgt id='morphing_basis_vector_1'> +1.5297414e-05 </wgt>
<wgt id='morphing_basis_vector_2'> +1.0368360e-05 </wgt>
<wgt id='morphing_basis_vector_3'> +1.6790957e-05 </wgt>
<wgt id='morphing_basis_vector_4'> +1.2085264e-05 </wgt>
<wgt id='morphing_basis_vector_5'> +1.9273439e-05 </wgt>
</rwgt>
</event>
<event>
 4      1 +4.5322000e-10 3.87773100e+03 7.81860800e-03 7.56297000e-02
        2 -1    0    0  501    0 +0.0000000000e+00 +0.0000000000e+00 +3.9540027497e+03 3.9540027497e+03 0.0000000000e+00 0.0000e+00 -1.0000e+00
       -2 -1    0    0    0  501 -0.0000000000e+00 -0.0000000000e+00 -9.5073241459e+02 9.5073241459e+02 0.0000000000e+00 0.0000e+00 1.0000e+00
      -13  1    1    2    0    0 -1.1406675707e+03 -1.3378511816e+03 +4.6768165825e+02 1.8192565581e+03 0.0000000000e+00 0.0000e+00 1.0000e+00
       13  1    1    2    0    0 +1.1406675707e+03 +1.3378511816e+03 +2.5355886768e+03 3.0854786061e+03 0.0000000000e+00 0.0000e+00 -1.0000e+00
<mgrwt>
<rscale>  0 0.38777306E+04</rscale>
<asrwt>0</asrwt>
<pdfrwt beam="1">  1        2 0.60830811E+00 0.38777306E+04</pdfrwt>
<pdfrwt beam="2">  1       -2 0.14626653E+00 0.38777306E+04</pdfrwt>
<totfact> 0.10365719E-01</totfact>
</mgrwt>
<rwgt>
<wgt id='morphing_basis_vector_1'> +1.4027906e-05 </wgt>
<wgt id='morphing_basis_vector_2'> +9.7096912e-06 </wgt>
<wgt id='morphing_basis_vector_3'> +1.5435954e-05 </wgt>
<wgt id='morphing_basis_vector_4'> +1.0809090e-05 </wgt>
<wgt id='morphing_basis_vector_5'> +1.7526860e-05 </wgt>
</rwgt>
</event>
<event>
 4      1 +4.5322000e-10 4.02747600e+03 7.81860800e-03 7.53583900e-02
        2 -1    0    0  501    0 +0.0000000000e+00 +0.0000000000e+00 +1.3623335868e+03 1.3623335868e+03 0.0000000000e+00 0.0000e+00 -1.0000e+00
       -2 -1    0    0    0  501 -0.0000000000e+00 -0.0000000000e+00 -2.9766130067e+03 2.9766130067e+03 0.0000000000e+00 0.0000e+00 1.0000e+00
      -13  1    1    2    0    0 +1.6169902325e+02 -5.8170769304e+02 -2.8768065179e+03 2.9394805928e+03 0.0000000000e+00 0.0000e+00 1.0000e+00
       13  1    1    2    0    0 -1.6169902325e+02 +5.8170769304e+02 +1.2625270979e+03 1.3994660007e+03 0.0000000000e+00 0.0000e+00 -1.0000e+00
<mgrwt>
<rscale>  0 0.40274756E+04</rscale>
<asrwt>0</asrwt>
<pdfrwt beam="1">  1        2 0.20958979E+00 0.40274756E+04</pdfrwt>
<pdfrwt beam="2">  1       -2 0.45794046E+00 0.40274756E+04</pdfrwt>
<totfact> 0.32347772E-02</totfact>
</mgrwt>
<rwgt>
<wgt id='morphing_basis_vector_1'> +1.6203368e-05 </wgt>
<wgt id='morphing_basis_vector_2'> +1.0979872e-05 </wgt>
<wgt id='morphing_basis_vector_3'> +1.7789279e-05 </wgt>
<wgt id='morphing_basis_vector_4'> +1.2814176e-05 </wgt>
<wgt id='morphing_basis_vector_5'> +2.0429675e-05 </wgt>
</rwgt>
</event>
<event>
 4      1 +4.5322000e-10 4.16694400e+03 7.81860800e-03 7.51162800e-02
        2 -1    0    0  501    0 +0.0000000000e+00 +0.0000000000e+00 +4.1143475667e+03 4.1143475667e+03 0.0000000000e+00 0.0000e+00 -1.0000e+00
       -2 -1    0    0    0  501 -0.0000000000e+00 -0.0000000000e+00 -1.0550531932e+03 1.0550531932e+03 0.0000000000e+00 0.0000e+00 1.0000e+00
      -13  1    1    2    0    0 +3.2159508917e+02 +1.4477518488e+03 -2.8576888977e+02 1.5103220436e+03 0.0000000000e+00 0.0000e+00 1.0000e+00
       13  1    1    2    0    0 -3.2159508917e+02 -1.4477518488e+03 +3.3450632633e+03 3.6590787163e+03 0.0000000000e+00 0.0000e+00 -1.0000e+00
<mgrwt>
<rscale>  0 0.41669440E+04</rscale>
<asrwt>0</asrwt>
<pdfrwt beam="1">  1        2 0.63297654E+00 0.41669440E+04</pdfrwt>
<pdfrwt beam="2">  1       -2 0.16231588E+00 0.41669440E+04</pdfrwt>
<totfact> 0.54459570E-02</totfact>
</mgrwt>
<rwgt>
<wgt id='morphing_basis_vector_1'> +1.8577414e-05 </wgt>
<wgt id='morphing_basis_vector_2'> +1.2644900e-05 </wgt>
<wgt id='morphing_basis_vector_3'> +2.0419893e-05 </wgt>
<wgt id='morphing_basis_vector_4'> +1.4644732e-05 </wgt>
<wgt id='morphing_basis_vector_5'> +2.3421034e-05 </wgt>
</rwgt>
</event>
<event>
 4      1 +4.5322000e-10 4.13398800e+03 7.81860800e-03 7.51726100e-02
        2 -1    0    0  501    0 +0.0000000000e+00 +0.0000000000e+00 +1.6308111816e+03 1.6308111816e+03 0.0000000000e+00 0.0000e+00 -1.0000e+00
       -2 -1    0    0    0  501 -0.0000000000e+00 -0.0000000000e+00 -2.6198395175e+03 2.6198395175e+03 0.0000000000e+00 0.0000e+00 1.0000e+00
      -13  1    1    2    0    0 +1.9138270358e+03 +4.6887997946e+02 -1.1365398434e+03 2.2747099098e+03 0.0000000000e+00 0.0000e+00 1.0000e+00
       13  1    1    2    0    0 -1.9138270358e+03 -4.6887997946e+02 +1.4751150754e+02 1.9759407893e+03 0.0000000000e+00 0.0000e+00 -1.0000e+00
<mgrwt>
<rscale>  0 0.41339877E+04</rscale>
<asrwt>0</asrwt>
<pdfrwt beam="1">  1        2 0.25089403E+00 0.41339877E+04</pdfrwt>
<pdfrwt beam="2">  1       -2 0.40305223E+00 0.41339877E+04</pdfrwt>
<totfact> 0.53339753E-02</totfact>
</mgrwt>
<rwgt>
<wgt id='morphing_basis_vector_1'> +1.8181436e-05 </wgt>
<wgt id='morphing_basis_vector_2'> +1.2785434e-05 </wgt>
<wgt id='morphing_basis_vector_3'> +2.0074436e-05 </wgt>
<wgt id='morphing_basis_vector_4'> +1.3799244e-05 </wgt>
<wgt id='morphing_basis_vector_5'> +2.2653349e-05 </wgt>
</rwgt>
</event>
<event>
 4      1 +4.5322000e-10 3.88031400e+03 7.81860800e-03 7.56249100e-02
        2 -1    0    0  501    0 +0.0000000000e+00 +0.0000000000e+00 +2.0926331113e+03 2.0926331113e+03 0.0000000000e+00 0.0000e+00 -1.0000e+00
       -2 -1    0    0    0  501 -0.0000000000e+00 -0.0000000000e+00 -1.7987903987e+03 1.7987903987e+03 0.0000000000e+00 0.0000e+00 1.0000e+00
      -13  1    1    2    0    0 +6.2128998261e+02 -1.7659214967e+03 -3.6417333955e+02 1.9071188207e+03 0.0000000000e+00 0.0000e+00 1.0000e+00
       13  1    1    2    0    0 -6.2128998261e+02 +1.7659214967e+03 +6.5801605218e+02 1.9843046893e+03 0.0000000000e+00 0.0000e+00 -1.0000e+00
<mgrwt>
<rscale>  0 0.38803136E+04</rscale>
<asrwt>0</asrwt>
<pdfrwt beam="1">  1        2 0.32194355E+00 0.38803136E+04</pdfrwt>
<pdfrwt beam="2">  1       -2 0.27673699E+00 0.38803136E+04</pdfrwt>
<totfact> 0.20381400E-01</totfact>
</mgrwt>
<rwgt>
<wgt id='morphing_basis_vector_1'> +1.4159853e-05 </wgt>
<wgt id='morphing_basis_vector_2'> +1.0014041e-05 </wgt>
<wgt id='morphing_basis_vector_3'> +1.5628814e-05 </wgt>
<wgt id='morphing_basis_vector_4'> +1.0637933e-05 </wgt>
<wgt id='morphing_basis_vector_5'> +1.7557197e-05 </wgt>
</rwgt>
</event>
<event>
 4      1 +4.5322000e-10 3.91938700e+03 7.81860800e-03 7.55529900e-02
        2 -1    0    0  501    0 +0.0000000000e+00 +0.0000000000e+00 +3.2851233354e+03 3.2851233354e+03 0.0000000000e+00 0.0000e+00 -1.0000e+00
       -2 -1    0    0    0  501 -0.0000000000e+00 -0.0000000000e+00 -1.1690269703e+03 1.1690269703e+03 0.0000000000e+00 0.0000e+00 1.0000e+00
      -13  1    1    2    0    0 -8.4122075532e+02 -1.7033137855e+03 +5.1129434193e+02 1.9673210504e+03 0.0000000000e+00 0.0000e+00 1.0000e+00
       13  1    1    2    0    0 +8.4122075532e+02 +1.7033137855e+03 +1.6048020232e+03 2.4868292552e+03 0.0000000000e+00 0.0000e+00 -1.0000e+00
<mgrwt>
<rscale>  0 0.39193866E+04</rscale>
<asrwt>0</asrwt>
<pdfrwt beam="1">  1        2 0.50540359E+00 0.39193866E+04</pdfrwt>
<pdfrwt beam="2">  1       -2 0.17985030E+00 0.39193866E+04</pdfrwt>
<totfact> 0.18001644E-01</totfact>
</mgrwt>
<rwgt>
<wgt id='morphing_basis_vector_1'> +1.4749973e-05 </wgt>
<wgt id='morphing_basis_vector_2'> +1.0464558e-05 </wgt>
<wgt id='morphing_basis_vector_3'> +1.6290701e-05 </wgt>
<wgt id='morphing_basis_vector_4'> +1.1044966e-05 </wgt>
<wgt id='morphing_basis_vector_5'> +1.8276421e-05 </wgt>
</rwgt>
</event>
<event>
 4      1 +4.5322000e-10 3.88071900e+03 7.81860800e-03 7.56241600e-02
        2 -1    0    0  501    0 +0.0000000000e+00 +0.0000000000e+00 +1.6805014243e+03 1.6805014243e+03 0.0000000000e+00 0.0000e+00 -1.0000e+00
       -2 -1    0    0    0  501 -0.0000000000e+00 -0.0000000000e+00 -2.2403995503e+03 2.2403995503e+03 0.0000000000e+00 0.0000e+00 1.0000e+00
      -13  1    1    2    0    0 -1.1639080065e+02 -1.1952994760e+03 -1.8197724447e+03 2.1803347005e+03 0.0000000000e+00 0.0000e+00 1.0000e+00
       13  1    1    2    0    0 +1.1639080065e+02 +1.1952994760e+03 +1.2598743187e+03 1.7405662742e+03 0.0000000000e+00 0.0000e+00 -1.0000e+00
<mgrwt>
<rscale>  0 0.38807188E+04</rscale>
<asrwt>0</asrwt>
<pdfrwt beam="1">  1        2 0.25853868E+00 0.38807188E+04</pdfrwt>
<pdfrwt beam="2">  1       -2 0.34467685E+00 0.38807188E+04</pdfrwt>
<totfact> 0.12176026E-01</totfact>
</mgrwt>
<rwgt>
<wgt id='morphing_basis_vector_1'> +1.3986418e-05 </wgt>
<wgt id='morphing_basis_vector_2'> +9.4910437e-06 </wgt>
<wgt id='morphing_basis_vector_3'> +1.5348198e-05 </wgt>
<wgt id='morphing_basis_vector_4'> +1.1021219e-05 </wgt>
<wgt id='morphing_basis_vector_5'> +1.7596098e-05 </wgt>
</rwgt>
</event>
<event>
 4      1 +4.5322000e-10 4.15812300e+03 7.81860800e-03 7.51313100e-02
        2 -1    0    0  501    0 +0.0000000000e+00 +0.0000000000e+00 +2.5623984202e+03 2.5623984202e+03 0.0000000000e+00 0.0000e+00 1.0000e+00
       -2 -1    0    0    0  501 -0.0000000000e+00 -0.0000000000e+00 -1.6868947986e+03 1.6868947986e+03 0.0000000000e+00 0.0000e+00 -1.0000e+00
      -13  1    1    2    0    0 +3.5615617635e+02 -6.4443450684e+02 -1.5491919871e+03 1.7152664133e+03 0.0000000000e+00 0.0000e+00 -1.0000e+00
       13  1    1    2    0    0 -3.5615617635e+02 +6.4443450684e+02 +2.4246956088e+03 2.5340268054e+03 0.0000000000e+00 0.0000e+00 1.0000e+00
<mgrwt>
<rscale>  0 0.41581229E+04</rscale>
<asrwt>0</asrwt>
<pdfrwt beam="1">  1        2 0.39421514E+00 0.41581229E+04</pdfrwt>
<pdfrwt beam="2">  1       -2 0.25952228E+00 0.41581229E+04</pdfrwt>
<totfact> 0.13911435E-01</totfact>
</mgrwt>
<rwgt>
<wgt id='morphing_basis_vector_1'> +1.8399299e-05 </wgt>
<wgt id='morphing_basis_vector_2'> +1.2473578e-05 </wgt>
<wgt id='morphing_basis_vector_3'> +2.0212128e-05 </wgt>
<wgt id='morphing_basis_vector_4'> +1.4567272e-05 </wgt>
<wgt id='morphing_basis_vector_5'> +2.3226336e-05 </wgt>
</rwgt>
</event>
<event>
 4      1 +4.5322000e-10 4.32094600e+03 7.81860800e-03 7.48598800e-02
        2 -1    0    0  501    0 +0.0000000000e+00 +0.0000000000e+00 +4.0400650341e+03 4.0400650341e+03 0.0000000000e+00 0.0000e+00 -1.0000e+00
       -2 -1    0    0    0  501 -0.0000000000e+00 -0.0000000000e+00 -1.1553384798e+03 1.1553384798e+03 0.0000000000e+00 0.0000e+00 1.0000e+00
      -13  1    1    2    0    0 -1.6143375853e+03 +1.4334619704e+03 +1.3436252850e+03 2.5428778906e+03 0.0000000000e+00 0.0000e+00 1.0000e+00
       13  1    1    2    0    0 +1.6143375853e+03 -1.4334619704e+03 +1.5411012693e+03 2.6525256233e+03 0.0000000000e+00 0.0000e+00 -1.0000e+00
<mgrwt>
<rscale>  0 0.43209455E+04</rscale>
<asrwt>0</asrwt>
<pdfrwt beam="1">  1        2 0.62154846E+00 0.43209455E+04</pdfrwt>
<pdfrwt beam="2">  1       -2 0.17774438E+00 0.43209455E+04</pdfrwt>
<totfact> 0.47359793E-02</totfact>
</mgrwt>
<rwgt>
<wgt id='morphing_basis_vector_1'> +2.2125988e-05 </wgt>
<wgt id='morphing_basis_vector_2'> +1.6557075e-05 </wgt>
<wgt id='morphing_basis_vector_3'> +2.4673536e-05 </wgt>
<wgt id='morphing_basis_vector_4'> +1.5542295e-05 </wgt>
<wgt id='morphing_basis_vector_5'> +2.6980448e-05 </wgt>
</rwgt>
</event>
<event>
 4      1 +4.5322000e-10 4.26277400e+03 7.81860800e-03 7.49554400e-02
        2 -1    0    0  501    0 +0.0000000000e+00 +0.0000000000e+00 +2.3329046695e+03 2.3329046695e+03 0.0000000000e+00 0.0000e+00 -1.0000e+00
       -2 -1    0    0    0  501 -0.0000000000e+00 -0.0000000000e+00 -1.9472766978e+03 1.9472766978e+03 0.0000000000e+00 0.0000e+00 1.0000e+00
      -13  1    1    2    0    0 -1.3336237583e+03 +6.1177086817e+02 -1.3594598627e+03 2.0002367465e+03 0.0000000000e+00 0.0000e+00 1.0000e+00
       13  1    1    2    0    0 +1.3336237583e+03 -6.1177086817e+02 +1.7450878344e+03 2.2799446208e+03 0.0000000000e+00 0.0000e+00 -1.0000e+00
<mgrwt>
<rscale>  0 0.42627742E+04</rscale>
<asrwt>0</asrwt>
<pdfrwt beam="1">  1        2 0.35890841E+00 0.42627742E+04</pdfrwt>
<pdfrwt beam="2">  1       -2 0.29958103E+00 0.42627742E+04</pdfrwt>
<totfact> 0.10069500E-01</totfact>
</mgrwt>
<rwgt>
<wgt id='morphing_basis_vector_1'> +2.0333377e-05 </wgt>
<wgt id='morphing_basis_vector_2'> +1.3833889e-05 </wgt>
<wgt id='morphing_basis_vector_3'> +2.2356597e-05 </wgt>
<wgt id='morphing_basis_vector_4'> +1.6054597e-05 </wgt>
<wgt id='morphing_basis_vector_5'> +2.5662214e-05 </wgt>
</rwgt>
</event>
<event>
 4      1 +4.5322000e-10 3.87315600e+03 7.81860800e-03 7.56381800e-02
        2 -1    0    0  501    0 +0.0000000000e+00 +0.0000000000e+00 +3.1970891373e+03 3.1970891373e+03 0.0000000000e+00 0.0000e+00 -1.0000e+00
       -2 -1    0    0    0  501 -0.0000000000e+00 -0.0000000000e+00 -1.1730463537e+03 1.1730463537e+03 0.0000000000e+00 0.0000e+00 1.0000e+00
      -13  1    1    2    0    0 +6.2673366412e+02 +1.7807599230e+03 +1.4992032058e+03 2.4107076225e+03 0.0000000000e+00 0.0000e+00 1.0000e+00
       13  1    1    2    0    0 -6.2673366412e+02 -1.7807599230e+03 +5.2483957785e+02 1.9594278685e+03 0.0000000000e+00 0.0000e+00 -1.0000e+00
<mgrwt>
<rscale>  0 0.38731557E+04</rscale>
<asrwt>0</asrwt>
<pdfrwt beam="1">  1        2 0.49185986E+00 0.38731557E+04</pdfrwt>
<pdfrwt beam="2">  1       -2 0.18046867E+00 0.38731557E+04</pdfrwt>
<totfact> 0.20547152E-01</totfact>
</mgrwt>
<rwgt>
<wgt id='morphing_basis_vector_1'> +1.4972248e-05 </wgt>
<wgt id='morphing_basis_vector_2'> +1.2633517e-05 </wgt>
<wgt id='morphing_basis_vector_3'> +1.6980464e-05 </wgt>
<wgt id='morphing_basis_vector_4'> +8.6242942e-06 </wgt>
<wgt id='morphing_basis_vector_5'> +1.7266307e-05 </wgt>
</rwgt>
</event>
<event>
 4      1 +4.5322000e-10 3.87411700e+03 7.81860800e-03 7.56364000e-02
        2 -1    0    0  501    0 +0.0000000000e+00 +0.0000000000e+00 +2.8482162009e+03 2.8482162009e+03 0.0000000000e+00 0.0000e+00 1.0000e+00
       -2 -1    0    0    0  501 -0.0000000000e+00 -0.0000000000e+00 -1.3173840890e+03 1.3173840890e+03 0.0000000000e+00 0.0000e+00 -1.0000e+00
      -13  1    1    2    0    0 +1.2454707780e+03 +1.2429048249e+03 -1.0558365937e+02 1.7627131848e+03 0.0000000000e+00 0.0000e+00 -1.0000e+00
       13  1    1    2    0    0 -1.2454707780e+03 -1.2429048249e+03 +1.6364157713e+03 2.4028871050e+03 0.0000000000e+00 0.0000e+00 1.0000e+00
<mgrwt>
<rscale>  0 0.38741165E+04</rscale>
<asrwt>0</asrwt>
<pdfrwt beam="1">  1        2 0.43818711E+00 0.38741165E+04</pdfrwt>
<pdfrwt beam="2">  1       -2 0.20267448E+00 0.38741165E+04</pdfrwt>
<totfact> 0.23803573E-01</totfact>
</mgrwt>
<rwgt>
<wgt id='morphing_basis_vector_1'> +1.3977486e-05 </wgt>
<wgt id='morphing_basis_vector_2'> +9.6780897e-06 </wgt>
<wgt id='morphing_basis_vector_3'> +1.5380935e-05 </wgt>
<wgt id='morphing_basis_vector_4'> +1.0765436e-05 </wgt>
<wgt id='morphing_basis_vector_5'> +1.7461000e-05 </wgt>
</rwgt>
</event>
<event>
 4      1 +4.5322000e-10 4.49998200e+03 7.81860800e-03 7.45750600e-02
        2 -1    0    0  501    0 +0.0000000000e+00 +0.0000000000e+00 +2.4067128316e+03 2.4067128316e+03 0.0000000000e+00 0.0000e+00 1.0000e+00
       -2 -1    0    0    0  501 -0.0000000000e+00 -0.0000000000e+00 -2.1034746613e+03 2.1034746613e+03 0.0000000000e+00 0.0000e+00 -1.0000e+00
      -13  1    1    2    0    0 -6.4317816036e+02 -3.3206480209e+02 -1.9835913075e+03 2.1115349047e+03 0.0000000000e+00 0.0000e+00 -1.0000e+00
       13  1    1    2    0    0 +6.4317816036e+02 +3.3206480209e+02 +2.2868294778e+03 2.3986525882e+03 0.0000000000e+00 0.0000e+00 1.0000e+00
<mgrwt>
<rscale>  0 0.44999820E+04</rscale>
<asrwt>0</asrwt>
<pdfrwt beam="1">  1        2 0.37026351E+00 0.44999820E+04</pdfrwt>
<pdfrwt beam="2">  1       -2 0.32361149E+00 0.44999820E+04</pdfrwt>
<totfact> 0.61800290E-02</totfact>
</mgrwt>
<rwgt>
<wgt id='morphing_basis_vector_1'> +2.5202621e-05 </wgt>
<wgt id='morphing_basis_vector_2'> +1.7099287e-05 </wgt>
<wgt id='morphing_basis_vector_3'> +2.7721391e-05 </wgt>
<wgt id='morphing_basis_vector_4'> +2.0008710e-05 </wgt>
<wgt id='morphing_basis_vector_5'> +3.1902027e-05 </wgt>
</rwgt>
</event>
<event>
 4      1 +4.5322000e-10 4.14523100e+03 7.81860800e-03 7.51533300e-02
        2 -1    0    0  501    0 +0.0000000000e+00 +0.0000000000e+00 +1.9749988551e+03 1.9749988551e+03 0.0000000000e+00 0.0000e+00 -1.0000e+00
       -2 -1    0    0    0  501 -0.0000000000e+00 -0.0000000000e+00 -2.1750571753e+03 2.1750571753e+03 0.0000000000e+00 0.0000e+00 1.0000e+00
      -13  1    1    2    0    0 +1.0180571852e+03 +1.5238035896e+03 -1.0693076877e+03 2.1217532238e+03 0.0000000000e+00 0.0000e+00 1.0000e+00
       13  1    1    2    0    0 -1.0180571852e+03 -1.5238035896e+03 +8.6924936752e+02 2.0283028065e+03 0.0000000000e+00 0.0000e+00 -1.0000e+00
<mgrwt>
<rscale>  0 0.41452312E+04</rscale>
<asrwt>0</asrwt>
<pdfrwt beam="1">  1        2 0.30384598E+00 0.41452312E+04</pdfrwt>
<pdfrwt beam="2">  1       -2 0.33462418E+00 0.41452312E+04</pdfrwt>
<totfact> 0.95065278E-02</totfact>
</mgrwt>
<rwgt>
<wgt id='morphing_basis_vector_1'> +1.8268924e-05 </wgt>
<wgt id='morphing_basis_vector_2'> +1.2601054e-05 </wgt>
<wgt id='morphing_basis_vector_3'> +2.0116547e-05 </wgt>
<wgt id='morphing_basis_vector_4'> +1.4184006e-05 </wgt>
<wgt id='morphing_basis_vector_5'> +2.2921417e-05 </wgt>
</rwgt>
</event>
<event>
 4      1 +4.5322000e-10 4.34441900e+03 7.81860800e-03 7.48217500e-02
        2 -1    0    0  501    0 +0.0000000000e+00 +0.0000000000e+00 +3.3382389282e+03 3.3382389282e+03 0.0000000000e+00 0.0000e+00 -1.0000e+00
       -2 -1    0    0    0  501 -0.0000000000e+00 -0.0000000000e+00 -1.4134683261e+03 1.4134683261e+03 0.0000000000e+00 0.0000e+00 1.0000e+00
      -13  1    1    2    0    0 -1.1375808441e+03 -1.8437878124e+02 -1.0515429571e+03 1.5600731722e+03 0.0000000000e+00 0.0000e+00 1.0000e+00
       13  1    1    2    0    0 +1.1375808441e+03 +1.8437878124e+02 +2.9763135591e+03 3.1916340821e+03 0.0000000000e+00 0.0000e+00 -1.0000e+00
<mgrwt>
<rscale>  0 0.43444194E+04</rscale>
<asrwt>0</asrwt>
<pdfrwt beam="1">  1        2 0.51357522E+00 0.43444194E+04</pdfrwt>
<pdfrwt beam="2">  1       -2 0.21745667E+00 0.43444194E+04</pdfrwt>
<totfact> 0.84631600E-02</totfact>
</mgrwt>
<rwgt>
<wgt id='morphing_basis_vector_1'> +2.1912581e-05 </wgt>
<wgt id='morphing_basis_vector_2'> +1.4873992e-05 </wgt>
<wgt id='morphing_basis_vector_3'> +2.4092042e-05 </wgt>
<wgt id='morphing_basis_vector_4'> +1.7360951e-05 </wgt>
<wgt id='morphing_basis_vector_5'> +2.7697399e-05 </wgt>
</rwgt>
</event>
<event>
 4      1 +4.5322000e-10 3.88355700e+03 7.81860800e-03 7.56189100e-02
        2 -1    0    0  501    0 +0.0000000000e+00 +0.0000000000e+00 +3.1014538502e+03 3.1014538502e+03 0.0000000000e+00 0.0000e+00 1.0000e+00
       -2 -1    0    0    0  501 -0.0000000000e+00 -0.0000000000e+00 -1.2157215363e+03 1.2157215363e+03 0.0000000000e+00 0.0000e+00 -1.0000e+00
      -13  1    1    2    0    0 -1.4913977096e+03 -1.2396984008e+03 +8.3517332396e+02 2.1115477106e+03 0.0000000000e+00 0.0000e+00 -1.0000e+00
       13  1    1    2    0    0 +1.4913977096e+03 +1.2396984008e+03 +1.0505589900e+03 2.2056276759e+03 0.0000000000e+00 0.0000e+00 1.0000e+00
<mgrwt>
<rscale>  0 0.38835573E+04</rscale>
<asrwt>0</asrwt>
<pdfrwt beam="1">  1        2 0.47714674E+00 0.38835573E+04</pdfrwt>
<pdfrwt beam="2">  1       -2 0.18703408E+00 0.38835573E+04</pdfrwt>
<totfact> 0.21246740E-01</totfact>
</mgrwt>
<rwgt>
<wgt id='morphing_basis_vector_1'> +1.4448861e-05 </wgt>
<wgt id='morphing_basis_vector_2'> +1.0758512e-05 </wgt>
<wgt id='morphing_basis_vector_3'> +1.6068440e-05 </wgt>
<wgt id='morphing_basis_vector_4'> +1.0162780e-05 </wgt>
<wgt id='morphing_basis_vector_5'> +1.7573763e-05 </wgt>
</rwgt>
</event>
<event>
 4      1 +4.5322000e-10 4.53534600e+03 7.81860800e-03 7.45203900e-02
        2 -1    0    0  501    0 +0.0000000000e+00 +0.0000000000e+00 +2.0611637663e+03 2.0611637663e+03 0.0000000000e+00 0.0000e+00 -1.0000e+00
       -2 -1    0    0    0  501 -0.0000000000e+00 -0.0000000000e+00 -2.4948726512e+03 2.4948726512e+03 0.0000000000e+00 0.0000e+00 1.0000e+00
      -13  1    1    2    0    0 -4.7709225191e+02 +1.8024467180e+03 -1.5134439649e+03 2.4014461941e+03 0.0000000000e+00 0.0000e+00 1.0000e+00
       13  1    1    2    0    0 +4.7709225191e+02 -1.8024467180e+03 +1.0797350800e+03 2.1545902235e+03 0.0000000000e+00 0.0000e+00 -1.0000e+00
<mgrwt>
<rscale>  0 0.45353461E+04</rscale>
<asrwt>0</asrwt>
<pdfrwt beam="1">  1        2 0.31710212E+00 0.45353461E+04</pdfrwt>
<pdfrwt beam="2">  1       -2 0.38382656E+00 0.45353461E+04</pdfrwt>
<totfact> 0.39600749E-02</totfact>
</mgrwt>
<rwgt>
<wgt id='morphing_basis_vector_1'> +2.6079587e-05 </wgt>
<wgt id='morphing_basis_vector_2'> +1.7873232e-05 </wgt>
<wgt id='morphing_basis_vector_3'> +2.8729912e-05 </wgt>
<wgt id='morphing_basis_vector_4'> +2.0480561e-05 </wgt>
<wgt id='morphing_basis_vector_5'> +3.2906786e-05 </wgt>
</rwgt>
</event>
<event>
 4      1 +4.5322000e-10 3.86772900e+03 7.81860800e-03 7.56482600e-02
        2 -1    0    0  501    0 +0.0000000000e+00 +0.0000000000e+00 +2.4770944456e+03 2.4770944456e+03 0.0000000000e+00 0.0000e+00 -1.0000e+00
       -2 -1    0    0    0  501 -0.0000000000e+00 -0.0000000000e+00 -1.5097654983e+03 1.5097654983e+03 0.0000000000e+00 0.0000e+00 1.0000e+00
      -13  1    1    2    0    0 -1.1639809956e+03 -5.4127709675e+02 -1.0072601827e+03 1.6316879999e+03 0.0000000000e+00 0.0000e+00 1.0000e+00
       13  1    1    2    0    0 +1.1639809956e+03 +5.4127709675e+02 +1.9745891300e+03 2.3551719440e+03 0.0000000000e+00 0.0000e+00 -1.0000e+00
<mgrwt>
<rscale>  0 0.38677289E+04</rscale>
<asrwt>0</asrwt>
<pdfrwt beam="1">  1        2 0.38109145E+00 0.38677289E+04</pdfrwt>
<pdfrwt beam="2">  1       -2 0.23227162E+00 0.38677289E+04</pdfrwt>
<totfact> 0.24752286E-01</totfact>
</mgrwt>
<rwgt>
<wgt id='morphing_basis_vector_1'> +1.3804666e-05 </wgt>
<wgt id='morphing_basis_vector_2'> +9.3753608e-06 </wgt>
<wgt id='morphing_basis_vector_3'> +1.5149512e-05 </wgt>
<wgt id='morphing_basis_vector_4'> +1.0866107e-05 </wgt>
<wgt id='morphing_basis_vector_5'> +1.7359821e-05 </wgt>
</rwgt>
</event>
<event>
 4      1 +4.5322000e-10 4.27127100e+03 7.81860800e-03 7.49413800e-02
        2 -1    0    0  501    0 +0.0000000000e+00 +0.0000000000e+00 +2.6368011756e+03 2.6368011756e+03 0.0000000000e+00 0.0000e+00 -1.0000e+00
       -2 -1    0    0    0  501 -0.0000000000e+00 -0.0000000000e+00 -1.7297242405e+03 1.7297242405e+03 0.0000000000e+00 0.0000e+00 1.0000e+00
      -13  1    1    2    0    0 -6.6500246521e+01 -5.5305992762e+02 -1.6541484513e+03 1.7454239213e+03 0.0000000000e+00 0.0000e+00 1.0000e+00
       13  1    1    2    0    0 +6.6500246521e+01 +5.5305992762e+02 +2.5612253863e+03 2.6211014948e+03 0.0000000000e+00 0.0000e+00 -1.0000e+00
<mgrwt>
<rscale>  0 0.42712710E+04</rscale>
<asrwt>0</asrwt>
<pdfrwt beam="1">  1        2 0.40566172E+00 0.42712710E+04</pdfrwt>
<pdfrwt beam="2">  1       -2 0.26611142E+00 0.42712710E+04</pdfrwt>
<totfact> 0.11196952E-01</totfact>
</mgrwt>
<rwgt>
<wgt id='morphing_basis_vector_1'> +2.0474371e-05 </wgt>
<wgt id='morphing_basis_vector_2'> +1.3882980e-05 </wgt>
<wgt id='morphing_basis_vector_3'> +2.2501705e-05 </wgt>
<wgt id='morphing_basis_vector_4'> +1.6227796e-05 </wgt>
<wgt id='morphing_basis_vector_5'> +2.5872025e-05 </wgt>
</rwgt>
</event>
<event>
 4      1 +4.5322000e-10 3.90356300e+03 7.81860800e-03 7.55820100e-02
        2 -1    0    0  501    0 +0.0000000000e+00 +0.0000000000e+00 +2.5856807086e+03 2.5856807086e+03 0.0000000000e+00 0.0000e+00 1.0000e+00
       -2 -1    0    0    0  501 -0.0000000000e+00 -0.0000000000e+00 -1.4732871398e+03 1.4732871398e+03 0.0000000000e+00 0.0000e+00 -1.0000e+00
      -13  1    1    2    0    0 -3.3761190173e+02 +1.2901401636e+03 -9.2567335479e+02 1.6233652077e+03 0.0000000000e+00 0.0000e+00 -1.0000e+00
       13  1    1    2    0    0 +3.3761190173e+02 -1.2901401636e+03 +2.0380669237e+03 2.4356026407e+03 0.0000000000e+00 0.0000e+00 1.0000e+00
<mgrwt>
<rscale>  0 0.39035625E+04</rscale>
<asrwt>0</asrwt>
<pdfrwt beam="1">  1        2 0.39779703E+00 0.39035625E+04</pdfrwt>
<pdfrwt beam="2">  1       -2 0.22665956E+00 0.39035625E+04</pdfrwt>
<totfact> 0.23261287E-01</totfact>
</mgrwt>
<rwgt>
<wgt id='morphing_basis_vector_1'> +1.4322588e-05 </wgt>
<wgt id='morphing_basis_vector_2'> +9.7329050e-06 </wgt>
<wgt id='morphing_basis_vector_3'> +1.5721861e-05 </wgt>
<wgt id='morphing_basis_vector_4'> +1.1272234e-05 </wgt>
<wgt id='morphing_basis_vector_5'> +1.8015293e-05 </wgt>
</rwgt>
</event>
<event>
 4      1 +4.5322000e-10 3.87480200e+03 7.81860800e-03 7.56351200e-02
        2 -1    0    0  501    0 +0.0000000000e+00 +0.0000000000e+00 +2.6727037274e+03 2.6727037274e+03 0.0000000000e+00 0.0000e+00 1.0000e+00
       -2 -1    0    0    0  501 -0.0000000000e+00 -0.0000000000e+00 -1.4043917658e+03 1.4043917658e+03 0.0000000000e+00 0.0000e+00 -1.0000e+00
      -13  1    1    2    0    0 -5.9935887101e+01 -1.8485368198e+03 +2.7111271850e+01 1.8497069243e+03 0.0000000000e+00 0.0000e+00 -1.0000e+00
       13  1    1    2    0    0 +5.9935887101e+01 +1.8485368198e+03 +1.2412006898e+03 2.2273885689e+03 0.0000000000e+00 0.0000e+00 1.0000e+00
<mgrwt>
<rscale>  0 0.38748022E+04</rscale>
<asrwt>0</asrwt>
<pdfrwt beam="1">  1        2 0.41118519E+00 0.38748022E+04</pdfrwt>
<pdfrwt beam="2">  1       -2 0.21606027E+00 0.38748022E+04</pdfrwt>
<totfact> 0.24526634E-01</totfact>
</mgrwt>
<rwgt>
<wgt id='morphing_basis_vector_1'> +1.4054484e-05 </wgt>
<wgt id='morphing_basis_vector_2'> +9.8823501e-06 </wgt>
<wgt id='morphing_basis_vector_3'> +1.5499346e-05 </wgt>
<wgt id='morphing_basis_vector_4'> +1.0631245e-05 </wgt>
<wgt id='morphing_basis_vector_5'> +1.7461627e-05 </wgt>
</rwgt>
</event>
<event>
 4      1 +4.5322000e-10 4.30278300e+03 7.81860800e-03 7.48895500e-02
        2 -1    0    0  501    0 +0.0000000000e+00 +0.0000000000e+00 +2.4560849604e+03 2.4560849604e+03 0.0000000000e+00 0.0000e+00 1.0000e+00
       -2 -1    0    0    0  501 -0.0000000000e+00 -0.0000000000e+00 -1.8844968928e+03 1.8844968928e+03 0.0000000000e+00 0.0000e+00 -1.0000e+00
      -13  1    1    2    0    0 -7.4657426071e+02 -1.4828357721e+03 -1.0945500573e+03 1.9885207772e+03 0.0000000000e+00 0.0000e+00 -1.0000e+00
       13  1    1    2    0    0 +7.4657426071e+02 +1.4828357721e+03 +1.6661381249e+03 2.3520610759e+03 0.0000000000e+00 0.0000e+00 1.0000e+00
<mgrwt>
<rscale>  0 0.43027826E+04</rscale>
<asrwt>0</asrwt>
<pdfrwt beam="1">  1        2 0.37785923E+00 0.43027826E+04</pdfrwt>
<pdfrwt beam="2">  1       -2 0.28992260E+00 0.43027826E+04</pdfrwt>
<totfact> 0.98734916E-02</totfact>
</mgrwt>
<rwgt>
<wgt id='morphing_basis_vector_1'> +2.1124648e-05 </wgt>
<wgt id='morphing_basis_vector_2'> +1.4420255e-05 </wgt>
<wgt id='morphing_basis_vector_3'> +2.3240788e-05 </wgt>
<wgt id='morphing_basis_vector_4'> +1.6624739e-05 </wgt>
<wgt id='morphing_basis_vector_5'> +2.6639930e-05 </wgt>
</rwgt>
</event>
<event>
 4      1 +4.5322000e-10 3.99846100e+03 7.81860800e-03 7.54100100e-02
        2 -1    0    0  501    0 +0.0000000000e+00 +0.0000000000e+00 +2.7283101362e+03 2.7283101362e+03 0.0000000000e+00 0.0000e+00 1.0000e+00
       -2 -1    0    0    0  501 -0.0000000000e+00 -0.0000000000e+00 -1.4649813105e+03 1.4649813105e+03 0.0000000000e+00 0.0000e+00 -1.0000e+00
      -13  1    1    2    0    0 +1.4864365045e+03 -1.1033396118e+03 -1.6015626113e+02 1.8580909043e+03 0.0000000000e+00 0.0000e+00 -1.0000e+00
       13  1    1    2    0    0 -1.4864365045e+03 +1.1033396118e+03 +1.4234850868e+03 2.3352005424e+03 0.0000000000e+00 0.0000e+00 1.0000e+00
<mgrwt>
<rscale>  0 0.39984614E+04</rscale>
<asrwt>0</asrwt>
<pdfrwt beam="1">  1        2 0.41974002E+00 0.39984614E+04</pdfrwt>
<pdfrwt beam="2">  1       -2 0.22538174E+00 0.39984614E+04</pdfrwt>
<totfact> 0.19273656E-01</totfact>
</mgrwt>
<rwgt>
<wgt id='morphing_basis_vector_1'> +1.5871726e-05 </wgt>
<wgt id='morphing_basis_vector_2'> +1.1043559e-05 </wgt>
<wgt id='morphing_basis_vector_3'> +1.7487616e-05 </wgt>
<wgt id='morphing_basis_vector_4'> +1.2176545e-05 </wgt>
<wgt id='morphing_basis_vector_5'> +1.9821924e-05 </wgt>
</rwgt>
</event>
<event>
 4      1 +4.5322000e-10 4.02594400e+03 7.81860800e-03 7.53611000e-02
        2 -1    0    0  501    0 +0.0000000000e+00 +0.0000000000e+00 +2.4655775750e+03 2.4655775750e+03 0.0000000000e+00 0.0000e+00 1.0000e+00
       -2 -1    0    0    0  501 -0.0000000000e+00 -0.0000000000e+00 -1.6434509602e+03 1.6434509602e+03 0.0000000000e+00 0.0000e+00 -1.0000e+00
      -13  1    1    2    0    0 -1.3202013111e+03 +4.0652370117e+02 +1.9054739321e+03 2.3535131033e+03 0.0000000000e+00 0.0000e+00 1.0000e+00
       13  1    1    2    0    0 +1.3202013111e+03 -4.0652370117e+02 -1.0833473174e+03 1.7555154318e+03 0.0000000000e+00 0.0000e+00 -1.0000e+00
<mgrwt>
<rscale>  0 0.40259438E+04</rscale>
<asrwt>0</asrwt>
<pdfrwt beam="1">  1        2 0.37931963E+00 0.40259438E+04</pdfrwt>
<pdfrwt beam="2">  1       -2 0.25283861E+00 0.40259438E+04</pdfrwt>
<totfact> 0.17863424E-01</totfact>
</mgrwt>
<rwgt>
<wgt id='morphing_basis_vector_1'> +2.1071800e-05 </wgt>
<wgt id='morphing_basis_vector_2'> +2.5344942e-05 </wgt>
<wgt id='morphing_basis_vector_3'> +2.5616036e-05 </wgt>
<wgt id='morphing_basis_vector_4'> +2.4423130e-06 </wgt>
<wgt id='morphing_basis_vector_5'> +1.9535790e-05 </wgt>
</rwgt>
</event>
<event>
 4      1 +4.5322000e-10 4.20762400e+03 7.81860800e-03 7.50474700e-02
        2 -1    0    0  501    0 +0.0000000000e+00 +0.0000000000e+00 +2.2388668379e+03 2.2388668379e+03 0.0000000000e+00 0.0000e+00 1.0000e+00
       -2 -1    0    0    0  501 -0.0000000000e+00 -0.0000000000e+00 -1.9769042092e+03 1.9769042092e+03 0.0000000000e+00 0.0000e+00 -1.0000e+00
      -13  1    1    2    0    0 +1.2923395191e+03 +1.7773596454e+02 -1.5227579770e+03 2.0051242760e+03 0.0000000000e+00 0.0000e+00 -1.0000e+00
       13  1    1    2    0    0 -1.2923395191e+03 -1.7773596454e+02 +1.7847206058e+03 2.2106467711e+03 0.0000000000e+00 0.0000e+00 1.0000e+00
<mgrwt>
<rscale>  0 0.42076242E+04</rscale>
<asrwt>0</asrwt>
<pdfrwt beam="1">  1        2 0.34444105E+00 0.42076242E+04</pdfrwt>
<pdfrwt beam="2">  1       -2 0.30413911E+00 0.42076242E+04</pdfrwt>
<totfact> 0.10684211E-01</totfact>
</mgrwt>
<rwgt>
<wgt id='morphing_basis_vector_1'> +1.9297518e-05 </wgt>
<wgt id='morphing_basis_vector_2'> +1.3108185e-05 </wgt>
<wgt id='morphing_basis_vector_3'> +2.1208633e-05 </wgt>
<wgt id='morphing_basis_vector_4'> +1.5254218e-05 </wgt>
<wgt id='morphing_basis_vector_5'> +2.4355616e-05 </wgt>
</rwgt>
</event>
<event>
 4      1 +4.5322000e-10 4.36675400e+03 7.81860800e-03 7.47856900e-02
        2 -1    0    0  501    0 +0.0000000000e+00 +0.0000000000e+00 +1.6915460277e+03 1.6915460277e+03 0.0000000000e+00 0.0000e+00 -1.0000e+00
       -2 -1    0    0    0  501 -0.0000000000e+00 -0.0000000000e+00 -2.8182112626e+03 2.8182112626e+03 0.0000000000e+00 0.0000e+00 1.0000e+00
      -13  1    1    2    0    0 -9.7020805823e+02 -1.3465919041e+03 -2.0284238237e+03 2.6208999678e+03 0.0000000000e+00 0.0000e+00 1.0000e+00
       13  1    1    2    0    0 +9.7020805823e+02 +1.3465919041e+03 +9.0175858882e+02 1.8888573226e+03 0.0000000000e+00 0.0000e+00 -1.0000e+00
<mgrwt>
<rscale>  0 0.43667535E+04</rscale>
<asrwt>0</asrwt>
<pdfrwt beam="1">  1        2 0.26023785E+00 0.43667535E+04</pdfrwt>
<pdfrwt beam="2">  1       -2 0.43357096E+00 0.43667535E+04</pdfrwt>
<totfact> 0.30371833E-02</totfact>
</mgrwt>
<rwgt>
<wgt id='morphing_basis_vector_1'> +2.2399440e-05 </wgt>
<wgt id='morphing_basis_vector_2'> +1.5283812e-05 </wgt>
<wgt id='morphing_basis_vector_3'> +2.4647198e-05 </wgt>
<wgt id='morphing_basis_vector_4'> +1.7648440e-05 </wgt>
<wgt id='morphing_basis_vector_5'> +2.8267625e-05 </wgt>
</rwgt>
</event>
<event>
 4      1 +4.5322000e-10 3.94796900e+03 7.81860800e-03 7.55009100e-02
        2 -1    0    0  501    0 +0.0000000000e+00 +0.0000000000e+00 +2.6517625282e+03 2.6517625282e+03 0.0000000000e+00 0.0000e+00 -1.0000e+00
       -2 -1    0    0    0  501 -0.0000000000e+00 -0.0000000000e+00 -1.4694431252e+03 1.4694431252e+03 0.0000000000e+00 0.0000e+00 1.0000e+00
      -13  1    1    2    0    0 -1.5569177439e+03 +9.0798823989e+02 -2.4926337247e+02 1.8194965605e+03 0.0000000000e+00 0.0000e+00 1.0000e+00
       13  1    1    2    0    0 +1.5569177439e+03 -9.0798823989e+02 +1.4315827754e+03 2.3017090928e+03 0.0000000000e+00 0.0000e+00 -1.0000e+00
<mgrwt>
<rscale>  0 0.39479687E+04</rscale>
<asrwt>0</asrwt>
<pdfrwt beam="1">  1        2 0.40796347E+00 0.39479687E+04</pdfrwt>
<pdfrwt beam="2">  1       -2 0.22606817E+00 0.39479687E+04</pdfrwt>
<totfact> 0.21331733E-01</totfact>
</mgrwt>
<rwgt>
<wgt id='morphing_basis_vector_1'> +1.5073127e-05 </wgt>
<wgt id='morphing_basis_vector_2'> +1.0450559e-05 </wgt>
<wgt id='morphing_basis_vector_3'> +1.6595528e-05 </wgt>
<wgt id='morphing_basis_vector_4'> +1.1603820e-05 </wgt>
<wgt id='morphing_basis_vector_5'> +1.8837478e-05 </wgt>
</rwgt>
</event>
<event>
 4      1 +4.5322000e-10 4.07198600e+03 7.81860800e-03 7.52800500e-02
        2 -1    0    0  501    0 +0.0000000000e+00 +0.0000000000e+00 +1.8234349317e+03 1.8234349317e+03 0.0000000000e+00 0.0000e+00 1.0000e+00
       -2 -1    0    0    0  501 -0.0000000000e+00 -0.0000000000e+00 -2.2733293021e+03 2.2733293021e+03 0.0000000000e+00 0.0000e+00 -1.0000e+00
      -13  1    1    2    0    0 -1.5964094266e+03 +8.0704289283e+02 +7.5330001544e+02 1.9409539411e+03 0.0000000000e+00 0.0000e+00 1.0000e+00
       13  1    1    2    0    0 +1.5964094266e+03 -8.0704289283e+02 -1.2031943858e+03 2.1558102927e+03 0.0000000000e+00 0.0000e+00 -1.0000e+00
<mgrwt>
<rscale>  0 0.40719863E+04</rscale>
<asrwt>0</asrwt>
<pdfrwt beam="1">  1        2 0.28052845E+00 0.40719863E+04</pdfrwt>
<pdfrwt beam="2">  1       -2 0.34974297E+00 0.40719863E+04</pdfrwt>
<totfact> 0.92564973E-02</totfact>
</mgrwt>
<rwgt>
<wgt id='morphing_basis_vector_1'> +1.9867508e-05 </wgt>
<wgt id='morphing_basis_vector_2'> +2.0112180e-05 </wgt>
<wgt id='morphing_basis_vector_3'> +2.3310288e-05 </wgt>
<wgt id='morphing_basis_vector_4'> +7.1706195e-06 </wgt>
<wgt id='morphing_basis_vector_5'> +2.0833729e-05 </wgt>
</rwgt>
</event>
<event>
 4      1 +4.5322000e-10 3.87604900e+03 7.81860800e-03 7.56328100e-02
        2 -1    0    0  501    0 +0.0000000000e+00 +0.0000000000e+00 +4.2870464697e+03 4.2870464697e+03 0.0000000000e+00 0.0000e+00 -1.0000e+00
       -2 -1    0    0    0  501 -0.0000000000e+00 -0.0000000000e+00 -8.7611322221e+02 8.7611322221e+02 0.0000000000e+00 0.0000e+00 1.0000e+00
      -13  1    1    2    0    0 -1.2699311428e+03 -6.9384759819e+02 -1.1707057651e+01 1.4471650397e+03 0.0000000000e+00 0.0000e+00 1.0000e+00
       13  1    1    2    0    0 +1.2699311428e+03 +6.9384759819e+02 +3.4226403051e+03 3.7159946522e+03 0.0000000000e+00 0.0000e+00 -1.0000e+00
<mgrwt>
<rscale>  0 0.38760486E+04</rscale>
<asrwt>0</asrwt>
<pdfrwt beam="1">  1        2 0.65954560E+00 0.38760486E+04</pdfrwt>
<pdfrwt beam="2">  1       -2 0.13478665E+00 0.38760486E+04</pdfrwt>
<totfact> 0.65763208E-02</totfact>
</mgrwt>
<rwgt>
<wgt id='morphing_basis_vector_1'> +1.3934250e-05 </wgt>
<wgt id='morphing_basis_vector_2'> +9.4886763e-06 </wgt>
<wgt id='morphing_basis_vector_3'> +1.5297970e-05 </wgt>
<wgt id='morphing_basis_vector_4'> +1.0936991e-05 </wgt>
<wgt id='morphing_basis_vector_5'> +1.7508521e-05 </wgt>
</rwgt>
</event>
<event>
 4      1 +4.5322000e-10 4.30728800e+03 7.81860800e-03 7.48821800e-02
        2 -1    0    0  501    0 +0.0000000000e+00 +0.0000000000e+00 +2.4349731049e+03 2.4349731049e+03 0.0000000000e+00 0.0000e+00 1.0000e+00
       -2 -1    0    0    0  501 -0.0000000000e+00 -0.0000000000e+00 -1.9048186477e+03 1.9048186477e+03 0.0000000000e+00 0.0000e+00 -1.0000e+00
      -13  1    1    2    0    0 -1.4534477730e+03 -1.1821865777e+03 -8.0506147520e+02 2.0391663768e+03 0.0000000000e+00 0.0000e+00 -1.0000e+00
       13  1    1    2    0    0 +1.4534477730e+03 +1.1821865777e+03 +1.3352159324e+03 2.3006253758e+03 0.0000000000e+00 0.0000e+00 1.0000e+00
<mgrwt>
<rscale>  0 0.43072879E+04</rscale>
<asrwt>0</asrwt>
<pdfrwt beam="1">  1        2 0.37461125E+00 0.43072879E+04</pdfrwt>
<pdfrwt beam="2">  1       -2 0.29304902E+00 0.43072879E+04</pdfrwt>
<totfact> 0.96747344E-02</totfact>
</mgrwt>
<rwgt>
<wgt id='morphing_basis_vector_1'> +2.1268673e-05 </wgt>
<wgt id='morphing_basis_vector_2'> +1.4644608e-05 </wgt>
<wgt id='morphing_basis_vector_3'> +2.3428179e-05 </wgt>
<wgt id='morphing_basis_vector_4'> +1.6576403e-05 </wgt>
<wgt id='morphing_basis_vector_5'> +2.6742275e-05 </wgt>
</rwgt>
</event>
<event>
 4      1 +4.5322000e-10 4.33451900e+03 7.81860800e-03 7.48378000e-02
        2 -1    0    0  501    0 +0.0000000000e+00 +0.0000000000e+00 +3.0203770986e+03 3.0203770986e+03 0.0000000000e+00 0.0000e+00 -1.0000e+00
       -2 -1    0    0    0  501 -0.0000000000e+00 -0.0000000000e+00 -1.5551082958e+03 1.5551082958e+03 0.0000000000e+00 0.0000e+00 1.0000e+00
      -13  1    1    2    0    0 +8.1912245060e+02 +8.7603405508e+02 -1.1728828382e+03 1.6775134595e+03 0.0000000000e+00 0.0000e+00 1.0000e+00
       13  1    1    2    0    0 -8.1912245060e+02 -8.7603405508e+02 +2.6381516409e+03 2.8979719349e+03 0.0000000000e+00 0.0000e+00 -1.0000e+00
<mgrwt>
<rscale>  0 0.43345189E+04</rscale>
<asrwt>0</asrwt>
<pdfrwt beam="1">  1        2 0.46467340E+00 0.43345189E+04</pdfrwt>
<pdfrwt beam="2">  1       -2 0.23924743E+00 0.43345189E+04</pdfrwt>
<totfact> 0.97754330E-02</totfact>
</mgrwt>
<rwgt>
<wgt id='morphing_basis_vector_1'> +2.1715717e-05 </wgt>
<wgt id='morphing_basis_vector_2'> +1.4743032e-05 </wgt>
<wgt id='morphing_basis_vector_3'> +2.3875398e-05 </wgt>
<wgt id='morphing_basis_vector_4'> +1.7199751e-05 </wgt>
<wgt id='morphing_basis_vector_5'> +2.7444489e-05 </wgt>
</rwgt>
</event>
<event>
 4      1 +4.5322000e-10 4.45867800e+03 7.81860800e-03 7.46395700e-02
        2 -1    0    0  501    0 +0.0000000000e+00 +0.0000000000e+00 +1.9170793737e+03 1.9170793737e+03 0.0000000000e+00 0.0000e+00 -1.0000e+00
       -2 -1    0    0    0  501 -0.0000000000e+00 -0.0000000000e+00 -2.5924601940e+03 2.5924601940e+03 0.0000000000e+00 0.0000e+00 1.0000e+00
      -13  1    1    2    0    0 -9.6229185695e+02 -1.1184171121e+03 -2.0280088820e+03 2.5079239383e+03 0.0000000000e+00 0.0000e+00 1.0000e+00
       13  1    1    2    0    0 +9.6229185695e+02 +1.1184171121e+03 +1.3526280617e+03 2.0016156294e+03 0.0000000000e+00 0.0000e+00 -1.0000e+00
<mgrwt>
<rscale>  0 0.44586778E+04</rscale>
<asrwt>0</asrwt>
<pdfrwt beam="1">  1        2 0.29493529E+00 0.44586778E+04</pdfrwt>
<pdfrwt beam="2">  1       -2 0.39884003E+00 0.44586778E+04</pdfrwt>
<totfact> 0.38363908E-02</totfact>
</mgrwt>
<rwgt>
<wgt id='morphing_basis_vector_1'> +2.4313164e-05 </wgt>
<wgt id='morphing_basis_vector_2'> +1.6538430e-05 </wgt>
<wgt id='morphing_basis_vector_3'> +2.6749329e-05 </wgt>
<wgt id='morphing_basis_vector_4'> +1.9239926e-05 </wgt>
<wgt id='morphing_basis_vector_5'> +3.0738821e-05 </wgt>
</rwgt>
</event>
<event>
 4      1 +4.5322000e-10 3.88654700e+03 7.81860800e-03 7.56133800e-02
        2 -1    0    0  501    0 +0.0000000000e+00 +0.0000000000e+00 +1.9697969750e+03 1.9697969750e+03 0.0000000000e+00 0.0000e+00 -1.0000e+00
       -2 -1    0    0    0  501 -0.0000000000e+00 -0.0000000000e+00 -1.9171070628e+03 1.9171070628e+03 0.0000000000e+00 0.0000e+00 1.0000e+00
      -13  1    1    2    0    0 -1.3498102192e+03 -1.0474677228e+03 +9.5224612250e+02 1.9560033067e+03 0.0000000000e+00 0.0000e+00 1.0000e+00
       13  1    1    2    0    0 +1.3498102192e+03 +1.0474677228e+03 -8.9955621032e+02 1.9309007311e+03 0.0000000000e+00 0.0000e+00 -1.0000e+00
<mgrwt>
<rscale>  0 0.38865469E+04</rscale>
<asrwt>0</asrwt>
<pdfrwt beam="1">  1        2 0.30304569E+00 0.38865469E+04</pdfrwt>
<pdfrwt beam="2">  1       -2 0.29493955E+00 0.38865469E+04</pdfrwt>
<totfact> 0.17975999E-01</totfact>
</mgrwt>
<rwgt>
<wgt id='morphing_basis_vector_1'> +1.6496092e-05 </wgt>
<wgt id='morphing_basis_vector_2'> +1.6679841e-05 </wgt>
<wgt id='morphing_basis_vector_3'> +1.9325605e-05 </wgt>
<wgt id='morphing_basis_vector_4'> +5.9627424e-06 </wgt>
<wgt id='morphing_basis_vector_5'> +1.7276045e-05 </wgt>
</rwgt>
</event>
<event>
 4      1 +4.5322000e-10 3.85043100e+03 7.81860800e-03 7.56805000e-02
        2 -1    0    0  501    0 +0.0000000000e+00 +0.0000000000e+00 +2.0103629806e+03 2.0103629806e+03 0.0000000000e+00 0.0000e+00 1.0000e+00
       -2 -1    0    0    0  501 -0.0000000000e+00 -0.0000000000e+00 -1.8436745481e+03 1.8436745481e+03 0.0000000000e+00 0.0000e+00 -1.0000e+00
      -13  1    1    2    0    0 +8.4317813724e+02 +3.8621763528e+02 -1.6053463856e+03 1.8539823221e+03 0.0000000000e+00 0.0000e+00 -1.0000e+00
       13  1    1    2    0    0 -8.4317813724e+02 -3.8621763528e+02 +1.7720348181e+03 2.0000552066e+03 0.0000000000e+00 0.0000e+00 1.0000e+00
<mgrwt>
<rscale>  0 0.38504312E+04</rscale>
<asrwt>0</asrwt>
<pdfrwt beam="1">  1        2 0.30928661E+00 0.38504312E+04</pdfrwt>
<pdfrwt beam="2">  1       -2 0.28364224E+00 0.38504312E+04</pdfrwt>
<totfact> 0.20407322E-01</totfact>
</mgrwt>
<rwgt>
<wgt id='morphing_basis_vector_1'> +1.3551624e-05 </wgt>
<wgt id='morphing_basis_vector_2'> +9.1824429e-06 </wgt>
<wgt id='morphing_basis_vector_3'> +1.4865882e-05 </wgt>
<wgt id='morphing_basis_vector_4'> +1.0691192e-05 </wgt>
<wgt id='morphing_basis_vector_5'> +1.7051308e-05 </wgt>
</rwgt>
</event>
<event>
 4      1 +4.5322000e-10 4.00097800e+03 7.81860800e-03 7.54055100e-02
        2 -1    0    0  501    0 +0.0000000000e+00 +0.0000000000e+00 +4.5254335745e+03 4.5254335745e+03 0.0000000000e+00 0.0000e+00 1.0000e+00
       -2 -1    0    0    0  501 -0.0000000000e+00 -0.0000000000e+00 -8.8432549938e+02 8.8432549938e+02 0.0000000000e+00 0.0000e+00 -1.0000e+00
      -13  1    1    2    0    0 -1.4125401954e+03 -1.9394914149e+02 -7.6773720271e+01 1.4278586334e+03 0.0000000000e+00 0.0000e+00 -1.0000e+00
       13  1    1    2    0    0 +1.4125401954e+03 +1.9394914149e+02 +3.7178817954e+03 3.9819004405e+03 0.0000000000e+00 0.0000e+00 1.0000e+00
<mgrwt>
<rscale>  0 0.40009780E+04</rscale>
<asrwt>0</asrwt>
<pdfrwt beam="1">  1        2 0.69622054E+00 0.40009780E+04</pdfrwt>
<pdfrwt beam="2">  1       -2 0.13605008E+00 0.40009780E+04</pdfrwt>
<totfact> 0.36756328E-02</totfact>
</mgrwt>
<rwgt>
<wgt id='morphing_basis_vector_1'> +1.5802676e-05 </wgt>
<wgt id='morphing_basis_vector_2'> +1.0751401e-05 </wgt>
<wgt id='morphing_basis_vector_3'> +1.7357039e-05 </wgt>
<wgt id='morphing_basis_vector_4'> +1.2437603e-05 </wgt>
<wgt id='morphing_basis_vector_5'> +1.9891303e-05 </wgt>
</rwgt>
</event>
<event>
 4      1 +4.5322000e-10 4.30904500e+03 7.81860800e-03 7.48793000e-02
        2 -1    0    0  501    0 +0.0000000000e+00 +0.0000000000e+00 +3.6626506373e+03 3.6626506373e+03 0.0000000000e+00 0.0000e+00 1.0000e+00
       -2 -1    0    0    0  501 -0.0000000000e+00 -0.0000000000e+00 -1.2673789301e+03 1.2673789301e+03 0.0000000000e+00 0.0000e+00 -1.0000e+00
      -13  1    1    2    0    0 -5.8140231270e+02 -1.9057861592e+03 +2.5980123335e+02 2.0093646296e+03 0.0000000000e+00 0.0000e+00 -1.0000e+00
       13  1    1    2    0    0 +5.8140231270e+02 +1.9057861592e+03 +2.1354704738e+03 2.9206649377e+03 0.0000000000e+00 0.0000e+00 1.0000e+00
<mgrwt>
<rscale>  0 0.43090446E+04</rscale>
<asrwt>0</asrwt>
<pdfrwt beam="1">  1        2 0.56348471E+00 0.43090446E+04</pdfrwt>
<pdfrwt beam="2">  1       -2 0.19498138E+00 0.43090446E+04</pdfrwt>
<totfact> 0.71330745E-02</totfact>
</mgrwt>
<rwgt>
<wgt id='morphing_basis_vector_1'> +2.1375362e-05 </wgt>
<wgt id='morphing_basis_vector_2'> +1.4880395e-05 </wgt>
<wgt id='morphing_basis_vector_3'> +2.3582642e-05 </wgt>
<wgt id='morphing_basis_vector_4'> +1.6450589e-05 </wgt>
<wgt id='morphing_basis_vector_5'> +2.6773338e-05 </wgt>
</rwgt>
</event>
<event>
 4      1 +4.5322000e-10 3.95248600e+03 7.81860800e-03 7.54927200e-02
        2 -1    0    0  501    0 +0.0000000000e+00 +0.0000000000e+00 +1.7722920867e+03 1.7722920867e+03 0.0000000000e+00 0.0000e+00 -1.0000e+00
       -2 -1    0    0    0  501 -0.0000000000e+00 -0.0000000000e+00 -2.2036639173e+03 2.2036639173e+03 0.0000000000e+00 0.0000e+00 1.0000e+00
      -13  1    1    2    0    0 -1.6998177994e+03 +1.0080209607e+03 -2.0862183862e+02 1.9872115841e+03 0.0000000000e+00 0.0000e+00 1.0000e+00
       13  1    1    2    0    0 +1.6998177994e+03 -1.0080209607e+03 -2.2274999202e+02 1.9887444198e+03 0.0000000000e+00 0.0000e+00 -1.0000e+00
<mgrwt>
<rscale>  0 0.39524859E+04</rscale>
<asrwt>0</asrwt>
<pdfrwt beam="1">  1        2 0.27266032E+00 0.39524859E+04</pdfrwt>
<pdfrwt beam="2">  1       -2 0.33902522E+00 0.39524859E+04</pdfrwt>
<totfact> 0.11721643E-01</totfact>
</mgrwt>
<rwgt>
<wgt id='morphing_basis_vector_1'> +1.5595463e-05 </wgt>
<wgt id='morphing_basis_vector_2'> +1.1831735e-05 </wgt>
<wgt id='morphing_basis_vector_3'> +1.7398818e-05 </wgt>
<wgt id='morphing_basis_vector_4'> +1.0698305e-05 </wgt>
<wgt id='morphing_basis_vector_5'> +1.8844418e-05 </wgt>
</rwgt>
</event>
<event>
 4      1 +4.5322000e-10 4.20800800e+03 7.81860800e-03 7.50468300e-02
        2 -1    0    0  501    0 +0.0000000000e+00 +0.0000000000e+00 +1.4986457826e+03 1.4986457826e+03 0.0000000000e+00 0.0000e+00 1.0000e+00
       -2 -1    0    0    0  501 -0.0000000000e+00 -0.0000000000e+00 -2.9538880760e+03 2.9538880760e+03 0.0000000000e+00 0.0000e+00 -1.0000e+00
      -13  1    1    2    0    0 +8.3733090803e+02 +1.0925873433e+02 -2.7667201020e+03 2.8927150989e+03 0.0000000000e+00 0.0000e+00 -1.0000e+00
       13  1    1    2    0    0 -8.3733090803e+02 -1.0925873433e+02 +1.3114778086e+03 1.5598187596e+03 0.0000000000e+00 0.0000e+00 1.0000e+00
<mgrwt>
<rscale>  0 0.42080076E+04</rscale>
<asrwt>0</asrwt>
<pdfrwt beam="1">  1        2 0.23056089E+00 0.42080076E+04</pdfrwt>
<pdfrwt beam="2">  1       -2 0.45444431E+00 0.42080076E+04</pdfrwt>
<totfact> 0.28287942E-02</totfact>
</mgrwt>
<rwgt>
<wgt id='morphing_basis_vector_1'> +1.9294570e-05 </wgt>
<wgt id='morphing_basis_vector_2'> +1.3083717e-05 </wgt>
<wgt id='morphing_basis_vector_3'> +2.1200350e-05 </wgt>
<wgt id='morphing_basis_vector_4'> +1.5280889e-05 </wgt>
<wgt id='morphing_basis_vector_5'> +2.4366293e-05 </wgt>
</rwgt>
</event>
<event>
 4      1 +4.5322000e-10 3.94552200e+03 7.81860800e-03 7.55053500e-02
        2 -1    0    0  501    0 +0.0000000000e+00 +0.0000000000e+00 +3.6211601865e+03 3.6211601865e+03 0.0000000000e+00 0.0000e+00 -1.0000e+00
       -2 -1    0    0    0  501 -0.0000000000e+00 -0.0000000000e+00 -1.0747343850e+03 1.0747343850e+03 0.0000000000e+00 0.0000e+00 1.0000e+00
      -13  1    1    2    0    0 +7.5338992261e+02 +1.6166424558e+03 +2.6988320928e+02 1.8038753150e+03 0.0000000000e+00 0.0000e+00 1.0000e+00
       13  1    1    2    0    0 -7.5338992261e+02 -1.6166424558e+03 +2.2765425923e+03 2.8920192565e+03 0.0000000000e+00 0.0000e+00 -1.0000e+00
<mgrwt>
<rscale>  0 0.39455217E+04</rscale>
<asrwt>0</asrwt>
<pdfrwt beam="1">  1        2 0.55710156E+00 0.39455217E+04</pdfrwt>
<pdfrwt beam="2">  1       -2 0.16534375E+00 0.39455217E+04</pdfrwt>
<totfact> 0.13280472E-01</totfact>
</mgrwt>
<rwgt>
<wgt id='morphing_basis_vector_1'> +1.5026632e-05 </wgt>
<wgt id='morphing_basis_vector_2'> +1.0397227e-05 </wgt>
<wgt id='morphing_basis_vector_3'> +1.6539433e-05 </wgt>
<wgt id='morphing_basis_vector_4'> +1.1594715e-05 </wgt>
<wgt id='morphing_basis_vector_5'> +1.8792228e-05 </wgt>
</rwgt>
</event>
<event>
 4      1 +4.5322000e-10 4.26753000e+03 7.81860800e-03 7.49475700e-02
        2 -1    0    0  501    0 +0.0000000000e+00 +0.0000000000e+00 +2.5388743618e+03 2.5388743618e+03 0.0000000000e+00 0.0000e+00 -1.0000e+00
       -2 -1    0    0    0  501 -0.0000000000e+00 -0.0000000000e+00 -1.7932959182e+03 1.7932959182e+03 0.0000000000e+00 0.0000e+00 1.0000e+00
      -13  1    1    2    0    0 +9.1609772386e+02 +1.0644388174e+03 -1.2579957051e+03 1.8854225600e+03 0.0000000000e+00 0.0000e+00 1.0000e+00
       13  1    1    2    0    0 -9.1609772386e+02 -1.0644388174e+03 +2.0035741487e+03 2.4467477199e+03 0.0000000000e+00 0.0000e+00 -1.0000e+00
<mgrwt>
<rscale>  0 0.42675300E+04</rscale>
<asrwt>0</asrwt>
<pdfrwt beam="1">  1        2 0.39059606E+00 0.42675300E+04</pdfrwt>
<pdfrwt beam="2">  1       -2 0.27589168E+00 0.42675300E+04</pdfrwt>
<totfact> 0.11006035E-01</totfact>
</mgrwt>
<rwgt>
<wgt id='morphing_basis_vector_1'> +2.0419325e-05 </wgt>
<wgt id='morphing_basis_vector_2'> +1.3882296e-05 </wgt>
<wgt id='morphing_basis_vector_3'> +2.2449203e-05 </wgt>
<wgt id='morphing_basis_vector_4'> +1.6136282e-05 </wgt>
<wgt id='morphing_basis_vector_5'> +2.5778231e-05 </wgt>
</rwgt>
</event>
<event>
 4      1 +4.5322000e-10 3.96316900e+03 7.81860800e-03 7.54734000e-02
        2 -1    0    0  501    0 +0.0000000000e+00 +0.0000000000e+00 +2.7300847555e+03 2.7300847555e+03 0.0000000000e+00 0.0000e+00 -1.0000e+00
       -2 -1    0    0    0  501 -0.0000000000e+00 -0.0000000000e+00 -1.4382983265e+03 1.4382983265e+03 0.0000000000e+00 0.0000e+00 1.0000e+00
      -13  1    1    2    0    0 -3.0136384462e+02 -5.6270276740e+02 -1.3272035925e+03 1.4727267049e+03 0.0000000000e+00 0.0000e+00 1.0000e+00
       13  1    1    2    0    0 +3.0136384462e+02 +5.6270276740e+02 +2.6189900214e+03 2.6956563772e+03 0.0000000000e+00 0.0000e+00 -1.0000e+00
<mgrwt>
<rscale>  0 0.39631686E+04</rscale>
<asrwt>0</asrwt>
<pdfrwt beam="1">  1        2 0.42001304E+00 0.39631686E+04</pdfrwt>
<pdfrwt beam="2">  1       -2 0.22127667E+00 0.39631686E+04</pdfrwt>
<totfact> 0.20612013E-01</totfact>
</mgrwt>
<rwgt>
<wgt id='morphing_basis_vector_1'> +1.5198159e-05 </wgt>
<wgt id='morphing_basis_vector_2'> +1.0296929e-05 </wgt>
<wgt id='morphing_basis_vector_3'> +1.6680607e-05 </wgt>
<wgt id='morphing_basis_vector_4'> +1.2011137e-05 </wgt>
<wgt id='morphing_basis_vector_5'> +1.9149629e-05 </wgt>
</rwgt>
</event>
<event>
 4      1 +4.5322000e-10 4.52190600e+03 7.81860800e-03 7.45411100e-02
        2 -1    0    0  501    0 +0.0000000000e+00 +0.0000000000e+00 +3.2211660757e+03 3.2211660757e+03 0.0000000000e+00 0.0000e+00 -1.0000e+00
       -2 -1    0    0    0  501 -0.0000000000e+00 -0.0000000000e+00 -1.5869742395e+03 1.5869742395e+03 0.0000000000e+00 0.0000e+00 1.0000e+00
      -13  1    1    2    0    0 -5.5974378659e+02 +6.7673097700e+02 -1.3982013274e+03 1.6511344203e+03 0.0000000000e+00 0.0000e+00 1.0000e+00
       13  1    1    2    0    0 +5.5974378659e+02 -6.7673097700e+02 +3.0323931636e+03 3.1570058949e+03 0.0000000000e+00 0.0000e+00 -1.0000e+00
<mgrwt>
<rscale>  0 0.45219056E+04</rscale>
<asrwt>0</asrwt>
<pdfrwt beam="1">  1        2 0.49556401E+00 0.45219056E+04</pdfrwt>
<pdfrwt beam="2">  1       -2 0.24414988E+00 0.45219056E+04</pdfrwt>
<totfact> 0.65355075E-02</totfact>
</mgrwt>
<rwgt>
<wgt id='morphing_basis_vector_1'> +2.5696319e-05 </wgt>
<wgt id='morphing_basis_vector_2'> +1.7437267e-05 </wgt>
<wgt id='morphing_basis_vector_3'> +2.8266996e-05 </wgt>
<wgt id='morphing_basis_vector_4'> +2.0400943e-05 </wgt>
<wgt id='morphing_basis_vector_5'> +3.2530577e-05 </wgt>
</rwgt>
</event>
<event>
 4      1 +4.5322000e-10 3.86370700e+03 7.81860800e-03 7.56557400e-02
        2 -1    0    0  501    0 +0.0000000000e+00 +0.0000000000e+00 +2.2774178127e+03 2.2774178127e+03 0.0000000000e+00 0.0000e+00 -1.0000e+00
       -2 -1    0    0    0  501 -0.0000000000e+00 -0.0000000000e+00 -1.6387233584e+03 1.6387233584e+03 0.0000000000e+00 0.0000e+00 1.0000e+00
      -13  1    1    2    0    0 -1.3393673937e+03 +3.0684429509e+02 -1.0570207008e+03 1.7335948773e+03 0.0000000000e+00 0.0000e+00 1.0000e+00
       13  1    1    2    0    0 +1.3393673937e+03 -3.0684429509e+02 +1.6957151551e+03 2.1825462937e+03 0.0000000000e+00 0.0000e+00 -1.0000e+00
<mgrwt>
<rscale>  0 0.38637069E+04</rscale>
<asrwt>0</asrwt>
<pdfrwt beam="1">  1        2 0.35037197E+00 0.38637069E+04</pdfrwt>
<pdfrwt beam="2">  1       -2 0.25211128E+00 0.38637069E+04</pdfrwt>
<totfact> 0.23602800E-01</totfact>
</mgrwt>
<rwgt>
<wgt id='morphing_basis_vector_1'> +1.3753021e-05 </wgt>
<wgt id='morphing_basis_vector_2'> +9.3523047e-06 </wgt>
<wgt id='morphing_basis_vector_3'> +1.5095219e-05 </wgt>
<wgt id='morphing_basis_vector_4'> +1.0809398e-05 </wgt>
<wgt id='morphing_basis_vector_5'> +1.7286398e-05 </wgt>
</rwgt>
</event>
<event>
 4      1 +4.5322000e-10 3.90054300e+03 7.81860800e-03 7.55875600e-02
        2 -1    0    0  501    0 +0.0000000000e+00 +0.0000000000e+00 +2.4172158174e+03 2.4172158174e+03 0.0000000000e+00 0.0000e+00 1.0000e+00
       -2 -1    0    0    0  501 -0.0000000000e+00 -0.0000000000e+00 -1.5735291144e+03 1.5735291144e+03 0.0000000000e+00 0.0000e+00 -1.0000e+00
      -13  1    1    2    0    0 +4.6395625963e+02 -1.8863738824e+03 +2.4493544298e+02 1.9579722179e+03 0.0000000000e+00 0.0000e+00 -1.0000e+00
       13  1    1    2    0    0 -4.6395625963e+02 +1.8863738824e+03 +5.9875126004e+02 2.0327727139e+03 0.0000000000e+00 0.0000e+00 1.0000e+00
<mgrwt>
<rscale>  0 0.39005433E+04</rscale>
<asrwt>0</asrwt>
<pdfrwt beam="1">  1        2 0.37187936E+00 0.39005433E+04</pdfrwt>
<pdfrwt beam="2">  1       -2 0.24208140E+00 0.39005433E+04</pdfrwt>
<totfact> 0.22882209E-01</totfact>
</mgrwt>
<rwgt>
<wgt id='morphing_basis_vector_1'> +1.4643319e-05 </wgt>
<wgt id='morphing_basis_vector_2'> +1.0775182e-05 </wgt>
<wgt id='morphing_basis_vector_3'> +1.6257574e-05 </wgt>
<wgt id='morphing_basis_vector_4'> +1.0466500e-05 </wgt>
<wgt id='morphing_basis_vector_5'> +1.7895177e-05 </wgt>
</rwgt>
</event>
<event>
 4      1 +4.5322000e-10 4.25058800e+03 7.81860800e-03 7.49756500e-02
        2 -1    0    0  501    0 +0.0000000000e+00 +0.0000000000e+00 +3.2605516206e+03 3.2605516206e+03 0.0000000000e+00 0.0000e+00 1.0000e+00
       -2 -1    0    0    0  501 -0.0000000000e+00 -0.0000000000e+00 -1.3853097124e+03 1.3853097124e+03 0.0000000000e+00 0.0000e+00 -1.0000e+00
      -13  1    1    2    0    0 -1.6064018768e+03 +1.3124512536e+03 +4.3221546707e+02 2.1189302709e+03 0.0000000000e+00 0.0000e+00 -1.0000e+00
       13  1    1    2    0    0 +1.6064018768e+03 -1.3124512536e+03 +1.4430264411e+03 2.5269310621e+03 0.0000000000e+00 0.0000e+00 1.0000e+00
<mgrwt>
<rscale>  0 0.42505876E+04</rscale>
<asrwt>0</asrwt>
<pdfrwt beam="1">  1        2 0.50162333E+00 0.42505876E+04</pdfrwt>
<pdfrwt beam="2">  1       -2 0.21312457E+00 0.42505876E+04</pdfrwt>
<totfact> 0.10371418E-01</totfact>
</mgrwt>
<rwgt>
<wgt id='morphing_basis_vector_1'> +2.0406128e-05 </wgt>
<wgt id='morphing_basis_vector_2'> +1.4567706e-05 </wgt>
<wgt id='morphing_basis_vector_3'> +2.2590404e-05 </wgt>
<wgt id='morphing_basis_vector_4'> +1.5228129e-05 </wgt>
<wgt id='morphing_basis_vector_5'> +2.5315075e-05 </wgt>
</rwgt>
</event>
<event>
 4      1 +4.5322000e-10 4.30970400e+03 7.81860800e-03 7.48782300e-02
        2 -1    0    0  501    0 +0.0000000000e+00 +0.0000000000e+00 +2.6893645234e+03 2.6893645234e+03 0.0000000000e+00 0.0000e+00 1.0000e+00
       -2 -1    0    0    0  501 -0.0000000000e+00 -0.0000000000e+00 -1.7265739305e+03 1.7265739305e+03 0.0000000000e+00 0.0000e+00 -1.0000e+00
      -13  1    1    2    0    0 -1.9477828809e+03 +2.6524378004e+02 -4.2307204468e+02 2.0107715855e+03 0.0000000000e+00 0.0000e+00 -1.0000e+00
       13  1    1    2    0    0 +1.9477828809e+03 -2.6524378004e+02 +1.3858626376e+03 2.4051668683e+03 0.0000000000e+00 0.0000e+00 1.0000e+00
<mgrwt>
<rscale>  0 0.43097038E+04</rscale>
<asrwt>0</asrwt>
<pdfrwt beam="1">  1        2 0.41374839E+00 0.43097038E+04</pdfrwt>
<pdfrwt beam="2">  1       -2 0.26562676E+00 0.43097038E+04</pdfrwt>
<totfact> 0.10444155E-01</totfact>
</mgrwt>
<rwgt>
<wgt id='morphing_basis_vector_1'> +2.1366747e-05 </wgt>
<wgt id='morphing_basis_vector_2'> +1.4825898e-05 </wgt>
<wgt id='morphing_basis_vector_3'> +2.3562200e-05 </wgt>
<wgt id='morphing_basis_vector_4'> +1.6506604e-05 </wgt>
<wgt id='morphing_basis_vector_5'> +2.6793629e-05 </wgt>
</rwgt>
</event>
<event>
 4      1 +4.5322000e-10 4.10364900e+03 7.81860800e-03 7.52249400e-02
        2 -1    0    0  501    0 +0.0000000000e+00 +0.0000000000e+00 +3.0030042600e+03 3.0030042600e+03 0.0000000000e+00 0.0000e+00 -1.0000e+00
       -2 -1    0    0    0  501 -0.0000000000e+00 -0.0000000000e+00 -1.4019243024e+03 1.4019243024e+03 0.0000000000e+00 0.0000e+00 1.0000e+00
      -13  1    1    2    0    0 -5.1479477366e+02 +7.2560062246e+02 -1.1841140245e+03 1.4810928213e+03 0.0000000000e+00 0.0000e+00 1.0000e+00
       13  1    1    2    0    0 +5.1479477366e+02 -7.2560062246e+02 +2.7851939822e+03 2.9238357411e+03 0.0000000000e+00 0.0000e+00 -1.0000e+00
<mgrwt>
<rscale>  0 0.41036494E+04</rscale>
<asrwt>0</asrwt>
<pdfrwt beam="1">  1        2 0.46200065E+00 0.41036494E+04</pdfrwt>
<pdfrwt beam="2">  1       -2 0.21568066E+00 0.41036494E+04</pdfrwt>
<totfact> 0.14976556E-01</totfact>
</mgrwt>
<rwgt>
<wgt id='morphing_basis_vector_1'> +1.7459476e-05 </wgt>
<wgt id='morphing_basis_vector_2'> +1.1837175e-05 </wgt>
<wgt id='morphing_basis_vector_3'> +1.9175752e-05 </wgt>
<wgt id='morphing_basis_vector_4'> +1.3813085e-05 </wgt>
<wgt id='morphing_basis_vector_5'> +2.2027331e-05 </wgt>
</rwgt>
</event>
<event>
 4      1 +4.5322000e-10 4.30145100e+03 7.81860800e-03 7.48917300e-02
        2 -1    0    0  501    0 +0.0000000000e+00 +0.0000000000e+00 +4.9041673402e+03 4.9041673402e+03 0.0000000000e+00 0.0000e+00 -1.0000e+00
       -2 -1    0    0    0  501 -0.0000000000e+00 -0.0000000000e+00 -9.4320178516e+02 9.4320178516e+02 0.0000000000e+00 0.0000e+00 1.0000e+00
      -13  1    1    2    0    0 +5.3220027415e+02 -1.3070858895e+03 -2.2572254785e+02 1.4292170314e+03 0.0000000000e+00 0.0000e+00 1.0000e+00
       13  1    1    2    0    0 -5.3220027415e+02 +1.3070858895e+03 +4.1866881029e+03 4.4181520940e+03 0.0000000000e+00 0.0000e+00 -1.0000e+00
<mgrwt>
<rscale>  0 0.43014506E+04</rscale>
<asrwt>0</asrwt>
<pdfrwt beam="1">  1        2 0.75448727E+00 0.43014506E+04</pdfrwt>
<pdfrwt beam="2">  1       -2 0.14510797E+00 0.43014506E+04</pdfrwt>
<totfact> 0.11038797E-02</totfact>
</mgrwt>
<rwgt>
<wgt id='morphing_basis_vector_1'> +2.1073069e-05 </wgt>
<wgt id='morphing_basis_vector_2'> +1.4327364e-05 </wgt>
<wgt id='morphing_basis_vector_3'> +2.3170862e-05 </wgt>
<wgt id='morphing_basis_vector_4'> +1.6658270e-05 </wgt>
<wgt id='morphing_basis_vector_5'> +2.6611344e-05 </wgt>
</rwgt>
</event>
<event>
 4      1 +4.5322000e-10 4.02172600e+03 7.81860800e-03 7.53685800e-02
        2 -1    0    0  501    0 +0.0000000000e+00 +0.0000000000e+00 +2.2938146613e+03 2.2938146613e+03 0.0000000000e+00 0.0000e+00 1.0000e+00
       -2 -1    0    0    0  501 -0.0000000000e+00 -0.0000000000e+00 -1.7628147573e+03 1.7628147573e+03 0.0000000000e+00 0.0000e+00 -1.0000e+00
      -13  1    1    2    0    0 -9.6799183187e+02 -1.6043913445e+02 -1.5049599810e+03 1.7965671284e+03 0.0000000000e+00 0.0000e+00 -1.0000e+00
       13  1    1    2    0    0 +9.6799183187e+02 +1.6043913445e+02 +2.0359598849e+03 2.2600622902e+03 0.0000000000e+00 0.0000e+00 1.0000e+00
<mgrwt>
<rscale>  0 0.40217262E+04</rscale>
<asrwt>0</asrwt>
<pdfrwt beam="1">  1        2 0.35289456E+00 0.40217262E+04</pdfrwt>
<pdfrwt beam="2">  1       -2 0.27120227E+00 0.40217262E+04</pdfrwt>
<totfact> 0.16856881E-01</totfact>
</mgrwt>
<rwgt>
<wgt id='morphing_basis_vector_1'> +1.6114173e-05 </wgt>
<wgt id='morphing_basis_vector_2'> +1.0925267e-05 </wgt>
<wgt id='morphing_basis_vector_3'> +1.7692229e-05 </wgt>
<wgt id='morphing_basis_vector_4'> +1.2735175e-05 </wgt>
<wgt id='morphing_basis_vector_5'> +2.0312229e-05 </wgt>
</rwgt>
</event>
<event>
 4      1 +4.5322000e-10 4.00576100e+03 7.81860800e-03 7.53969800e-02
        2 -1    0    0  501    0 +0.0000000000e+00 +0.0000000000e+00 +3.0272386908e+03 3.0272386908e+03 0.0000000000e+00 0.0000e+00 1.0000e+00
       -2 -1    0    0    0  501 -0.0000000000e+00 -0.0000000000e+00 -1.3251447619e+03 1.3251447619e+03 0.0000000000e+00 0.0000e+00 -1.0000e+00
      -13  1    1    2    0    0 -2.6933216174e+02 +4.9778848745e+02 +2.9385433447e+03 2.9925524524e+03 0.0000000000e+00 0.0000e+00 1.0000e+00
       13  1    1    2    0    0 +2.6933216174e+02 -4.9778848745e+02 -1.2364494158e+03 1.3598310003e+03 0.0000000000e+00 0.0000e+00 -1.0000e+00
<mgrwt>
<rscale>  0 0.40057606E+04</rscale>
<asrwt>0</asrwt>
<pdfrwt beam="1">  1        2 0.46572903E+00 0.40057606E+04</pdfrwt>
<pdfrwt beam="2">  1       -2 0.20386843E+00 0.40057606E+04</pdfrwt>
<totfact> 0.17701537E-01</totfact>
</mgrwt>
<rwgt>
<wgt id='morphing_basis_vector_1'> +2.1716624e-05 </wgt>
<wgt id='morphing_basis_vector_2'> +2.7964631e-05 </wgt>
<wgt id='morphing_basis_vector_3'> +2.6808952e-05 </wgt>
<wgt id='morphing_basis_vector_4'> +1.4681126e-07 </wgt>
<wgt id='morphing_basis_vector_5'> +1.8958037e-05 </wgt>
</rwgt>
</event>
<event>
 4      1 +4.5322000e-10 4.21977600e+03 7.81860800e-03 7.50270700e-02
        2 -1    0    0  501    0 +0.0000000000e+00 +0.0000000000e+00 +2.9939911860e+03 2.9939911860e+03 0.0000000000e+00 0.0000e+00 -1.0000e+00
       -2 -1    0    0    0  501 -0.0000000000e+00 -0.0000000000e+00 -1.4868537294e+03 1.4868537294e+03 0.0000000000e+00 0.0000e+00 1.0000e+00
      -13  1    1    2    0    0 +7.2410521455e+02 -1.2074133641e+03 -9.1510255368e+02 1.6791629097e+03 0.0000000000e+00 0.0000e+00 1.0000e+00
       13  1    1    2    0    0 -7.2410521455e+02 +1.2074133641e+03 +2.4222400104e+03 2.8016820057e+03 0.0000000000e+00 0.0000e+00 -1.0000e+00
<mgrwt>
<rscale>  0 0.42197758E+04</rscale>
<asrwt>0</asrwt>
<pdfrwt beam="1">  1        2 0.46061403E+00 0.42197758E+04</pdfrwt>
<pdfrwt beam="2">  1       -2 0.22874673E+00 0.42197758E+04</pdfrwt>
<totfact> 0.12156011E-01</totfact>
</mgrwt>
<rwgt>
<wgt id='morphing_basis_vector_1'> +1.9525780e-05 </wgt>
<wgt id='morphing_basis_vector_2'> +1.3275885e-05 </wgt>
<wgt id='morphing_basis_vector_3'> +2.1463331e-05 </wgt>
<wgt id='morphing_basis_vector_4'> +1.5420511e-05 </wgt>
<wgt id='morphing_basis_vector_5'> +2.4638507e-05 </wgt>
</rwgt>
</event>
<event>
 4      1 +4.5322000e-10 4.12091200e+03 7.81860800e-03 7.51951100e-02
        2 -1    0    0  501    0 +0.0000000000e+00 +0.0000000000e+00 +2.4393458930e+03 2.4393458930e+03 0.0000000000e+00 0.0000e+00 1.0000e+00
       -2 -1    0    0    0  501 -0.0000000000e+00 -0.0000000000e+00 -1.7404167296e+03 1.7404167296e+03 0.0000000000e+00 0.0000e+00 -1.0000e+00
      -13  1    1    2    0    0 +5.0391504997e+02 +4.1595185295e+02 +2.3314777072e+03 2.4213084522e+03 0.0000000000e+00 0.0000e+00 1.0000e+00
       13  1    1    2    0    0 -5.0391504997e+02 -4.1595185295e+02 -1.6325485438e+03 1.7584541704e+03 0.0000000000e+00 0.0000e+00 -1.0000e+00
<mgrwt>
<rscale>  0 0.41209117E+04</rscale>
<asrwt>0</asrwt>
<pdfrwt beam="1">  1        2 0.37528398E+00 0.41209117E+04</pdfrwt>
<pdfrwt beam="2">  1       -2 0.26775642E+00 0.41209117E+04</pdfrwt>
<totfact> 0.14510718E-01</totfact>
</mgrwt>
<rwgt>
<wgt id='morphing_basis_vector_1'> +2.4294152e-05 </wgt>
<wgt id='morphing_basis_vector_2'> +3.1259331e-05 </wgt>
<wgt id='morphing_basis_vector_3'> +3.0013606e-05 </wgt>
<wgt id='morphing_basis_vector_4'> +1.9735828e-07 </wgt>
<wgt id='morphing_basis_vector_5'> +2.1246985e-05 </wgt>
</rwgt>
</event>
<event>
 4      1 +4.5322000e-10 4.00460800e+03 7.81860800e-03 7.53990300e-02
        2 -1    0    0  501    0 +0.0000000000e+00 +0.0000000000e+00 +1.7582922557e+03 1.7582922557e+03 0.0000000000e+00 0.0000e+00 -1.0000e+00
       -2 -1    0    0    0  501 -0.0000000000e+00 -0.0000000000e+00 -2.2801786780e+03 2.2801786780e+03 0.0000000000e+00 0.0000e+00 1.0000e+00
      -13  1    1    2    0    0 -1.8161989316e+03 -7.2400311841e+02 -6.9640645847e+02 2.0755098241e+03 0.0000000000e+00 0.0000e+00 1.0000e+00
       13  1    1    2    0    0 +1.8161989316e+03 +7.2400311841e+02 +1.7452003620e+02 1.9629611096e+03 0.0000000000e+00 0.0000e+00 -1.0000e+00
<mgrwt>
<rscale>  0 0.40046076E+04</rscale>
<asrwt>0</asrwt>
<pdfrwt beam="1">  1        2 0.27050650E+00 0.40046076E+04</pdfrwt>
<pdfrwt beam="2">  1       -2 0.35079672E+00 0.40046076E+04</pdfrwt>
<totfact> 0.99588743E-02</totfact>
</mgrwt>
<rwgt>
<wgt id='morphing_basis_vector_1'> +1.6097395e-05 </wgt>
<wgt id='morphing_basis_vector_2'> +1.1488757e-05 </wgt>
<wgt id='morphing_basis_vector_3'> +1.7801325e-05 </wgt>
<wgt id='morphing_basis_vector_4'> +1.1980435e-05 </wgt>
<wgt id='morphing_basis_vector_5'> +1.9922067e-05 </wgt>
</rwgt>
</event>
<event>
 4      1 +4.5322000e-10 4.10461800e+03 7.81860800e-03 7.52232600e-02
        2 -1    0    0  501    0 +0.0000000000e+00 +0.0000000000e+00 +1.7179682334e+03 1.7179682334e+03 0.0000000000e+00 0.0000e+00 -1.0000e+00
       -2 -1    0    0    0  501 -0.0000000000e+00 -0.0000000000e+00 -2.4517166580e+03 2.4517166580e+03 0.0000000000e+00 0.0000e+00 1.0000e+00
      -13  1    1    2    0    0 -1.6262948417e+03 +1.2486235856e+03 -4.5816290773e+02 2.1009067139e+03 0.0000000000e+00 0.0000e+00 1.0000e+00
       13  1    1    2    0    0 +1.6262948417e+03 -1.2486235856e+03 -2.7558551690e+02 2.0687781775e+03 0.0000000000e+00 0.0000e+00 -1.0000e+00
<mgrwt>
<rscale>  0 0.41046176E+04</rscale>
<asrwt>0</asrwt>
<pdfrwt beam="1">  1        2 0.26430281E+00 0.41046176E+04</pdfrwt>
<pdfrwt beam="2">  1       -2 0.37718718E+00 0.41046176E+04</pdfrwt>
<totfact> 0.70350652E-02</totfact>
</mgrwt>
<rwgt>
<wgt id='morphing_basis_vector_1'> +1.8022138e-05 </wgt>
<wgt id='morphing_basis_vector_2'> +1.3453785e-05 </wgt>
<wgt id='morphing_basis_vector_3'> +2.0071705e-05 </wgt>
<wgt id='morphing_basis_vector_4'> +1.2669553e-05 </wgt>
<wgt id='morphing_basis_vector_5'> +2.1951777e-05 </wgt>
</rwgt>
</event>
<event>
 4      1 +4.5322000e-10 3.95112500e+03 7.81860800e-03 7.54951900e-02
        2 -1    0    0  501    0 +0.0000000000e+00 +0.0000000000e+00 +2.8880118076e+03 2.8880118076e+03 0.0000000000e+00 0.0000e+00 1.0000e+00
       -2 -1    0    0    0  501 -0.0000000000e+00 -0.0000000000e+00 -1.3513958872e+03 1.3513958872e+03 0.0000000000e+00 0.0000e+00 -1.0000e+00
      -13  1    1    2    0    0 -9.9054218020e+02 +3.7918434367e+02 +2.5566152331e+03 2.7678937890e+03 0.0000000000e+00 0.0000e+00 1.0000e+00
       13  1    1    2    0    0 +9.9054218020e+02 -3.7918434367e+02 -1.0199993126e+03 1.4715139058e+03 0.0000000000e+00 0.0000e+00 -1.0000e+00
<mgrwt>
<rscale>  0 0.39511250E+04</rscale>
<asrwt>0</asrwt>
<pdfrwt beam="1">  1        2 0.44430951E+00 0.39511250E+04</pdfrwt>
<pdfrwt beam="2">  1       -2 0.20790706E+00 0.39511250E+04</pdfrwt>
<totfact> 0.20452719E-01</totfact>
</mgrwt>
<rwgt>
<wgt id='morphing_basis_vector_1'> +2.0241938e-05 </wgt>
<wgt id='morphing_basis_vector_2'> +2.5536866e-05 </wgt>
<wgt id='morphing_basis_vector_3'> +2.4858370e-05 </wgt>
<wgt id='morphing_basis_vector_4'> +8.1506054e-07 </wgt>
<wgt id='morphing_basis_vector_5'> +1.7996535e-05 </wgt>
</rwgt>
</event>
<event>
 4      1 +4.5322000e-10 3.88635800e+03 7.81860800e-03 7.56137300e-02
        2 -1    0    0  501    0 +0.0000000000e+00 +0.0000000000e+00 +2.3804374536e+03 2.3804374536e+03 0.0000000000e+00 0.0000e+00 -1.0000e+00
       -2 -1    0    0    0  501 -0.0000000000e+00 -0.0000000000e+00 -1.5862395820e+03 1.5862395820e+03 0.0000000000e+00 0.0000e+00 1.0000e+00
      -13  1    1    2    0    0 +8.2771645147e+02 +5.2647429622e+02 -1.3149628898e+03 1.6405539035e+03 0.0000000000e+00 0.0000e+00 1.0000e+00
       13  1    1    2    0    0 -8.2771645147e+02 -5.2647429622e+02 +2.1091607614e+03 2.3261231321e+03 0.0000000000e+00 0.0000e+00 -1.0000e+00
<mgrwt>
<rscale>  0 0.38863577E+04</rscale>
<asrwt>0</asrwt>
<pdfrwt beam="1">  1        2 0.36622115E+00 0.38863577E+04</pdfrwt>
<pdfrwt beam="2">  1       -2 0.24403686E+00 0.38863577E+04</pdfrwt>
<totfact> 0.23336867E-01</totfact>
</mgrwt>
<rwgt>
<wgt id='morphing_basis_vector_1'> +1.4062259e-05 </wgt>
<wgt id='morphing_basis_vector_2'> +9.5309675e-06 </wgt>
<wgt id='morphing_basis_vector_3'> +1.5429265e-05 </wgt>
<wgt id='morphing_basis_vector_4'> +1.1096701e-05 </wgt>
<wgt id='morphing_basis_vector_5'> +1.7700046e-05 </wgt>
</rwgt>
</event>
<event>
 4      1 +4.5322000e-10 4.14998600e+03 7.81860800e-03 7.51452000e-02
        2 -1    0    0  501    0 +0.0000000000e+00 +0.0000000000e+00 +3.2215155484e+03 3.2215155484e+03 0.0000000000e+00 0.0000e+00 1.0000e+00
       -2 -1    0    0    0  501 -0.0000000000e+00 -0.0000000000e+00 -1.3365123713e+03 1.3365123713e+03 0.0000000000e+00 0.0000e+00 -1.0000e+00
      -13  1    1    2    0    0 -1.1421564814e+02 -1.7126998745e+03 -3.3798061916e+02 1.7494619097e+03 0.0000000000e+00 0.0000e+00 -1.0000e+00
       13  1    1    2    0    0 +1.1421564814e+02 +1.7126998745e+03 +2.2229837962e+03 2.8085660100e+03 0.0000000000e+00 0.0000e+00 1.0000e+00
<mgrwt>
<rscale>  0 0.41499857E+04</rscale>
<asrwt>0</asrwt>
<pdfrwt beam="1">  1        2 0.49561778E+00 0.41499857E+04</pdfrwt>
<pdfrwt beam="2">  1       -2 0.20561729E+00 0.41499857E+04</pdfrwt>
<totfact> 0.12596434E-01</totfact>
</mgrwt>
<rwgt>
<wgt id='morphing_basis_vector_1'> +1.8313703e-05 </wgt>
<wgt id='morphing_basis_vector_2'> +1.2544882e-05 </wgt>
<wgt id='morphing_basis_vector_3'> +2.0146614e-05 </wgt>
<wgt id='morphing_basis_vector_4'> +1.4331635e-05 </wgt>
<wgt id='morphing_basis_vector_5'> +2.3034099e-05 </wgt>
</rwgt>
</event>
<event>
 4      1 +4.5322000e-10 4.44718500e+03 7.81860800e-03 7.46576400e-02
        2 -1    0    0  501    0 +0.0000000000e+00 +0.0000000000e+00 +1.5640178584e+03 1.5640178584e+03 0.0000000000e+00 0.0000e+00 -1.0000e+00
       -2 -1    0    0    0  501 -0.0000000000e+00 -0.0000000000e+00 -3.1613222739e+03 3.1613222739e+03 0.0000000000e+00 0.0000e+00 1.0000e+00
      -13  1    1    2    0    0 -2.0583779608e+03 -4.0664632774e+02 -1.6338563963e+01 2.0982249675e+03 0.0000000000e+00 0.0000e+00 1.0000e+00
       13  1    1    2    0    0 +2.0583779608e+03 +4.0664632774e+02 -1.5809658516e+03 2.6271151648e+03 0.0000000000e+00 0.0000e+00 -1.0000e+00
<mgrwt>
<rscale>  0 0.44471854E+04</rscale>
<asrwt>0</asrwt>
<pdfrwt beam="1">  1        2 0.24061814E+00 0.44471854E+04</pdfrwt>
<pdfrwt beam="2">  1       -2 0.48635727E+00 0.44471854E+04</pdfrwt>
<totfact> 0.14950524E-02</totfact>
</mgrwt>
<rwgt>
<wgt id='morphing_basis_vector_1'> +2.6752876e-05 </wgt>
<wgt id='morphing_basis_vector_2'> +2.4267182e-05 </wgt>
<wgt id='morphing_basis_vector_3'> +3.0814263e-05 </wgt>
<wgt id='morphing_basis_vector_4'> +1.3333008e-05 </wgt>
<wgt id='morphing_basis_vector_5'> +2.9944698e-05 </wgt>
</rwgt>
</event>
<event>
 4      1 +4.5322000e-10 4.26712900e+03 7.81860800e-03 7.49482300e-02
        2 -1    0    0  501    0 +0.0000000000e+00 +0.0000000000e+00 +3.4368752781e+03 3.4368752781e+03 0.0000000000e+00 0.0000e+00 -1.0000e+00
       -2 -1    0    0    0  501 -0.0000000000e+00 -0.0000000000e+00 -1.3244871852e+03 1.3244871852e+03 0.0000000000e+00 0.0000e+00 1.0000e+00
      -13  1    1    2    0    0 +1.8076042164e+03 +3.8747712093e+02 -1.3231545664e+02 1.8533965853e+03 0.0000000000e+00 0.0000e+00 1.0000e+00
       13  1    1    2    0    0 -1.8076042164e+03 -3.8747712093e+02 +2.2447035496e+03 2.9079658780e+03 0.0000000000e+00 0.0000e+00 -1.0000e+00
<mgrwt>
<rscale>  0 0.42671289E+04</rscale>
<asrwt>0</asrwt>
<pdfrwt beam="1">  1        2 0.52875004E+00 0.42671289E+04</pdfrwt>
<pdfrwt beam="2">  1       -2 0.20376726E+00 0.42671289E+04</pdfrwt>
<totfact> 0.90866042E-02</totfact>
</mgrwt>
<rwgt>
<wgt id='morphing_basis_vector_1'> +2.0486968e-05 </wgt>
<wgt id='morphing_basis_vector_2'> +1.4098306e-05 </wgt>
<wgt id='morphing_basis_vector_3'> +2.2562022e-05 </wgt>
<wgt id='morphing_basis_vector_4'> +1.5970558e-05 </wgt>
<wgt id='morphing_basis_vector_5'> +2.5755172e-05 </wgt>
</rwgt>
</event>
<event>
 4      1 +4.5322000e-10 4.08653000e+03 7.81860800e-03 7.52546700e-02
        2 -1    0    0  501    0 +0.0000000000e+00 +0.0000000000e+00 +3.4343474139e+03 3.4343474139e+03 0.0000000000e+00 0.0000e+00 1.0000e+00
       -2 -1    0    0    0  501 -0.0000000000e+00 -0.0000000000e+00 -1.2156406708e+03 1.2156406708e+03 0.0000000000e+00 0.0000e+00 -1.0000e+00
      -13  1    1    2    0    0 +1.5442774118e+03 +6.2646979106e+01 -4.1141821564e+02 1.5993693497e+03 0.0000000000e+00 0.0000e+00 -1.0000e+00
       13  1    1    2    0    0 -1.5442774118e+03 -6.2646979106e+01 +2.6301249587e+03 3.0506187351e+03 0.0000000000e+00 0.0000e+00 1.0000e+00
<mgrwt>
<rscale>  0 0.40865303E+04</rscale>
<asrwt>0</asrwt>
<pdfrwt beam="1">  1        2 0.52836114E+00 0.40865303E+04</pdfrwt>
<pdfrwt beam="2">  1       -2 0.18702164E+00 0.40865303E+04</pdfrwt>
<totfact> 0.12300464E-01</totfact>
</mgrwt>
<rwgt>
<wgt id='morphing_basis_vector_1'> +1.7199973e-05 </wgt>
<wgt id='morphing_basis_vector_2'> +1.1725365e-05 </wgt>
<wgt id='morphing_basis_vector_3'> +1.8903848e-05 </wgt>
<wgt id='morphing_basis_vector_4'> +1.3522397e-05 </wgt>
<wgt id='morphing_basis_vector_5'> +2.1655294e-05 </wgt>
</rwgt>
</event>
<event>
 4      1 +4.5322000e-10 4.20209100e+03 7.81860800e-03 7.50567800e-02
        2 -1    0    0  501    0 +0.0000000000e+00 +0.0000000000e+00 +3.9797666985e+03 3.9797666985e+03 0.0000000000e+00 0.0000e+00 -1.0000e+00
       -2 -1    0    0    0  501 -0.0000000000e+00 -0.0000000000e+00 -1.1092086000e+03 1.1092086000e+03 0.0000000000e+00 0.0000e+00 1.0000e+00
      -13  1    1    2    0    0 -9.7989726936e+02 -3.2857236129e+02 -7.8007434397e+02 1.2948646405e+03 0.0000000000e+00 0.0000e+00 1.0000e+00
       13  1    1    2    0    0 +9.7989726936e+02 +3.2857236129e+02 +3.6506324425e+03 3.7941106580e+03 0.0000000000e+00 0.0000e+00 -1.0000e+00
<mgrwt>
<rscale>  0 0.42020906E+04</rscale>
<asrwt>0</asrwt>
<pdfrwt beam="1">  1        2 0.61227179E+00 0.42020906E+04</pdfrwt>
<pdfrwt beam="2">  1       -2 0.17064748E+00 0.42020906E+04</pdfrwt>
<totfact> 0.61082784E-02</totfact>
</mgrwt>
<rwgt>
<wgt id='morphing_basis_vector_1'> +1.9189015e-05 </wgt>
<wgt id='morphing_basis_vector_2'> +1.3016989e-05 </wgt>
<wgt id='morphing_basis_vector_3'> +2.1084997e-05 </wgt>
<wgt id='morphing_basis_vector_4'> +1.5190011e-05 </wgt>
<wgt id='morphing_basis_vector_5'> +2.4228528e-05 </wgt>
</rwgt>
</event>
<event>
 4      1 +4.5322000e-10 4.60946900e+03 7.81860800e-03 7.44074100e-02
        2 -1    0    0  501    0 +0.0000000000e+00 +0.0000000000e+00 +2.6876480290e+03 2.6876480290e+03 0.0000000000e+00 0.0000e+00 1.0000e+00
       -2 -1    0    0    0  501 -0.0000000000e+00 -0.0000000000e+00 -1.9763753086e+03 1.9763753086e+03 0.0000000000e+00 0.0000e+00 -1.0000e+00
      -13  1    1    2    0    0 +2.2161081797e+03 -1.4156999542e+02 +9.7988515393e+02 2.4272108360e+03 0.0000000000e+00 0.0000e+00 1.0000e+00
       13  1    1    2    0    0 -2.2161081797e+03 +1.4156999542e+02 -2.6861243354e+02 2.2368125015e+03 0.0000000000e+00 0.0000e+00 -1.0000e+00
<mgrwt>
<rscale>  0 0.46094690E+04</rscale>
<asrwt>0</asrwt>
<pdfrwt beam="1">  1        2 0.41348431E+00 0.46094690E+04</pdfrwt>
<pdfrwt beam="2">  1       -2 0.30405774E+00 0.46094690E+04</pdfrwt>
<totfact> 0.56070884E-02</totfact>
</mgrwt>
<rwgt>
<wgt id='morphing_basis_vector_1'> +3.0287782e-05 </wgt>
<wgt id='morphing_basis_vector_2'> +2.6318795e-05 </wgt>
<wgt id='morphing_basis_vector_3'> +3.4645247e-05 </wgt>
<wgt id='morphing_basis_vector_4'> +1.6611123e-05 </wgt>
<wgt id='morphing_basis_vector_5'> +3.4680979e-05 </wgt>
</rwgt>
</event>
<event>
 4      1 +4.5322000e-10 4.10612300e+03 7.81860800e-03 7.52206600e-02
        2 -1    0    0  501    0 +0.0000000000e+00 +0.0000000000e+00 +2.7997508295e+03 2.7997508295e+03 0.0000000000e+00 0.0000e+00 -1.0000e+00
       -2 -1    0    0    0  501 -0.0000000000e+00 -0.0000000000e+00 -1.5055128417e+03 1.5055128417e+03 0.0000000000e+00 0.0000e+00 1.0000e+00
      -13  1    1    2    0    0 -1.8729785249e+03 +8.1579232928e+02 +4.3353608590e+02 2.0884250566e+03 0.0000000000e+00 0.0000e+00 1.0000e+00
       13  1    1    2    0    0 +1.8729785249e+03 -8.1579232928e+02 +8.6070190186e+02 2.2168386146e+03 0.0000000000e+00 0.0000e+00 -1.0000e+00
<mgrwt>
<rscale>  0 0.41061227E+04</rscale>
<asrwt>0</asrwt>
<pdfrwt beam="1">  1        2 0.43073090E+00 0.41061227E+04</pdfrwt>
<pdfrwt beam="2">  1       -2 0.23161736E+00 0.41061227E+04</pdfrwt>
<totfact> 0.15586813E-01</totfact>
</mgrwt>
<rwgt>
<wgt id='morphing_basis_vector_1'> +1.7946307e-05 </wgt>
<wgt id='morphing_basis_vector_2'> +1.3173261e-05 </wgt>
<wgt id='morphing_basis_vector_3'> +1.9937002e-05 </wgt>
<wgt id='morphing_basis_vector_4'> +1.2904525e-05 </wgt>
<wgt id='morphing_basis_vector_5'> +2.2002179e-05 </wgt>
</rwgt>
</event>
<event>
 4      1 +4.5322000e-10 4.28507800e+03 7.81860800e-03 7.49186200e-02
        2 -1    0    0  501    0 +0.0000000000e+00 +0.0000000000e+00 +2.7528009847e+03 2.7528009847e+03 0.0000000000e+00 0.0000e+00 -1.0000e+00
       -2 -1    0    0    0  501 -0.0000000000e+00 -0.0000000000e+00 -1.6675643220e+03 1.6675643220e+03 0.0000000000e+00 0.0000e+00 1.0000e+00
      -13  1    1    2    0    0 +1.1423706161e+03 -3.3805968193e+01 -1.3268673509e+03 1.7512082786e+03 0.0000000000e+00 0.0000e+00 1.0000e+00
       13  1    1    2    0    0 -1.1423706161e+03 +3.3805968193e+01 +2.4121040136e+03 2.6691570281e+03 0.0000000000e+00 0.0000e+00 -1.0000e+00
<mgrwt>
<rscale>  0 0.42850777E+04</rscale>
<asrwt>0</asrwt>
<pdfrwt beam="1">  1        2 0.42350784E+00 0.42850777E+04</pdfrwt>
<pdfrwt beam="2">  1       -2 0.25654836E+00 0.42850777E+04</pdfrwt>
<totfact> 0.11035529E-01</totfact>
</mgrwt>
<rwgt>
<wgt id='morphing_basis_vector_1'> +2.0744827e-05 </wgt>
<wgt id='morphing_basis_vector_2'> +1.4079608e-05 </wgt>
<wgt id='morphing_basis_vector_3'> +2.2803059e-05 </wgt>
<wgt id='morphing_basis_vector_4'> +1.6427576e-05 </wgt>
<wgt id='morphing_basis_vector_5'> +2.6208641e-05 </wgt>
</rwgt>
</event>
<event>
 4      1 +4.5322000e-10 4.10051800e+03 7.81860800e-03 7.52303700e-02
        2 -1    0    0  501    0 +0.0000000000e+00 +0.0000000000e+00 +3.5935774819e+03 3.5935774819e+03 0.0000000000e+00 0.0000e+00 -1.0000e+00
       -2 -1    0    0    0  501 -0.0000000000e+00 -0.0000000000e+00 -1.1697429852e+03 1.1697429852e+03 0.0000000000e+00 0.0000e+00 1.0000e+00
      -13  1    1    2    0    0 -1.4279438711e+03 -1.2363277302e+03 +2.8549155782e+02 1.9102448495e+03 0.0000000000e+00 0.0000e+00 1.0000e+00
       13  1    1    2    0    0 +1.4279438711e+03 +1.2363277302e+03 +2.1383429389e+03 2.8530756176e+03 0.0000000000e+00 0.0000e+00 -1.0000e+00
<mgrwt>
<rscale>  0 0.41005180E+04</rscale>
<asrwt>0</asrwt>
<pdfrwt beam="1">  1        2 0.55285807E+00 0.41005180E+04</pdfrwt>
<pdfrwt beam="2">  1       -2 0.17996046E+00 0.41005180E+04</pdfrwt>
<totfact> 0.10602697E-01</totfact>
</mgrwt>
<rwgt>
<wgt id='morphing_basis_vector_1'> +1.7539247e-05 </wgt>
<wgt id='morphing_basis_vector_2'> +1.2191286e-05 </wgt>
<wgt id='morphing_basis_vector_3'> +1.9330616e-05 </wgt>
<wgt id='morphing_basis_vector_4'> +1.3489725e-05 </wgt>
<wgt id='morphing_basis_vector_5'> +2.1936423e-05 </wgt>
</rwgt>
</event>
<event>
 4      1 +4.5322000e-10 4.10441100e+03 7.81860800e-03 7.52236200e-02
        2 -1    0    0  501    0 +0.0000000000e+00 +0.0000000000e+00 +2.7695294753e+03 2.7695294753e+03 0.0000000000e+00 0.0000e+00 -1.0000e+00
       -2 -1    0    0    0  501 -0.0000000000e+00 -0.0000000000e+00 -1.5206728080e+03 1.5206728080e+03 0.0000000000e+00 0.0000e+00 1.0000e+00
      -13  1    1    2    0    0 -1.9498267842e+03 +2.9886392460e+02 +3.2763341725e+01 1.9728703886e+03 0.0000000000e+00 0.0000e+00 1.0000e+00
       13  1    1    2    0    0 +1.9498267842e+03 -2.9886392460e+02 +1.2160933255e+03 2.3173318947e+03 0.0000000000e+00 0.0000e+00 -1.0000e+00
<mgrwt>
<rscale>  0 0.41044114E+04</rscale>
<asrwt>0</asrwt>
<pdfrwt beam="1">  1        2 0.42608146E+00 0.41044114E+04</pdfrwt>
<pdfrwt beam="2">  1       -2 0.23394966E+00 0.41044114E+04</pdfrwt>
<totfact> 0.15682518E-01</totfact>
</mgrwt>
<rwgt>
<wgt id='morphing_basis_vector_1'> +1.7692433e-05 </wgt>
<wgt id='morphing_basis_vector_2'> +1.2492677e-05 </wgt>
<wgt id='morphing_basis_vector_3'> +1.9543618e-05 </wgt>
<wgt id='morphing_basis_vector_4'> +1.3357470e-05 </wgt>
<wgt id='morphing_basis_vector_5'> +2.2004922e-05 </wgt>
</rwgt>
</event>
<event>
 4      1 +4.5322000e-10 4.42433000e+03 7.81860800e-03 7.46937500e-02
        2 -1    0    0  501    0 +0.0000000000e+00 +0.0000000000e+00 +2.8094357576e+03 2.8094357576e+03 0.0000000000e+00 0.0000e+00 -1.0000e+00
       -2 -1    0    0    0  501 -0.0000000000e+00 -0.0000000000e+00 -1.7418707855e+03 1.7418707855e+03 0.0000000000e+00 0.0000e+00 1.0000e+00
      -13  1    1    2    0    0 +2.1032764040e+03 -5.0485671312e+02 +5.6769547904e+01 2.1637640153e+03 0.0000000000e+00 0.0000e+00 1.0000e+00
       13  1    1    2    0    0 -2.1032764040e+03 +5.0485671312e+02 +1.0107954242e+03 2.3875425278e+03 0.0000000000e+00 0.0000e+00 -1.0000e+00
<mgrwt>
<rscale>  0 0.44243300E+04</rscale>
<asrwt>0</asrwt>
<pdfrwt beam="1">  1        2 0.43222089E+00 0.44243300E+04</pdfrwt>
<pdfrwt beam="2">  1       -2 0.26798012E+00 0.44243300E+04</pdfrwt>
<totfact> 0.83964405E-02</totfact>
</mgrwt>
<rwgt>
<wgt id='morphing_basis_vector_1'> +2.3948326e-05 </wgt>
<wgt id='morphing_basis_vector_2'> +1.7130505e-05 </wgt>
<wgt id='morphing_basis_vector_3'> +2.6536224e-05 </wgt>
<wgt id='morphing_basis_vector_4'> +1.7860334e-05 </wgt>
<wgt id='morphing_basis_vector_5'> +2.9732675e-05 </wgt>
</rwgt>
</event>
<event>
 4      1 +4.5322000e-10 3.94172800e+03 7.81860800e-03 7.55122400e-02
        2 -1    0    0  501    0 +0.0000000000e+00 +0.0000000000e+00 +2.1845701436e+03 2.1845701436e+03 0.0000000000e+00 0.0000e+00 -1.0000e+00
       -2 -1    0    0    0  501 -0.0000000000e+00 -0.0000000000e+00 -1.7780635620e+03 1.7780635620e+03 0.0000000000e+00 0.0000e+00 1.0000e+00
      -13  1    1    2    0    0 +1.9011977563e+03 -1.3361972902e+02 -3.0130246463e+02 1.9295570257e+03 0.0000000000e+00 0.0000e+00 1.0000e+00
       13  1    1    2    0    0 -1.9011977563e+03 +1.3361972902e+02 +7.0780904618e+02 2.0330766799e+03 0.0000000000e+00 0.0000e+00 -1.0000e+00
<mgrwt>
<rscale>  0 0.39417278E+04</rscale>
<asrwt>0</asrwt>
<pdfrwt beam="1">  1        2 0.33608771E+00 0.39417278E+04</pdfrwt>
<pdfrwt beam="2">  1       -2 0.27354824E+00 0.39417278E+04</pdfrwt>
<totfact> 0.18899837E-01</totfact>
</mgrwt>
<rwgt>
<wgt id='morphing_basis_vector_1'> +1.5079457e-05 </wgt>
<wgt id='morphing_basis_vector_2'> +1.0681429e-05 </wgt>
<wgt id='morphing_basis_vector_3'> +1.6652629e-05 </wgt>
<wgt id='morphing_basis_vector_4'> +1.1316933e-05 </wgt>
<wgt id='morphing_basis_vector_5'> +1.8700281e-05 </wgt>
</rwgt>
</event>
<event>
 4      1 +4.5322000e-10 4.43986300e+03 7.81860800e-03 7.46691800e-02
        2 -1    0    0  501    0 +0.0000000000e+00 +0.0000000000e+00 +3.2282259900e+03 3.2282259900e+03 0.0000000000e+00 0.0000e+00 -1.0000e+00
       -2 -1    0    0    0  501 -0.0000000000e+00 -0.0000000000e+00 -1.5265650480e+03 1.5265650480e+03 0.0000000000e+00 0.0000e+00 1.0000e+00
      -13  1    1    2    0    0 -1.3770319118e+03 +2.7520950541e+02 -9.9046846568e+02 1.7184251335e+03 0.0000000000e+00 0.0000e+00 1.0000e+00
       13  1    1    2    0    0 +1.3770319118e+03 -2.7520950541e+02 +2.6921294078e+03 3.0363659045e+03 0.0000000000e+00 0.0000e+00 -1.0000e+00
<mgrwt>
<rscale>  0 0.44398635E+04</rscale>
<asrwt>0</asrwt>
<pdfrwt beam="1">  1        2 0.49665015E+00 0.44398635E+04</pdfrwt>
<pdfrwt beam="2">  1       -2 0.23485616E+00 0.44398635E+04</pdfrwt>
<totfact> 0.75505558E-02</totfact>
</mgrwt>
<rwgt>
<wgt id='morphing_basis_vector_1'> +2.3902853e-05 </wgt>
<wgt id='morphing_basis_vector_2'> +1.6249154e-05 </wgt>
<wgt id='morphing_basis_vector_3'> +2.6294021e-05 </wgt>
<wgt id='morphing_basis_vector_4'> +1.8924896e-05 </wgt>
<wgt id='morphing_basis_vector_5'> +3.0221958e-05 </wgt>
</rwgt>
</event>
<event>
 4      1 +4.5322000e-10 3.87151100e+03 7.81860800e-03 7.56412300e-02
        2 -1    0    0  501    0 +0.0000000000e+00 +0.0000000000e+00 +3.1472363602e+03 3.1472363602e+03 0.0000000000e+00 0.0000e+00 -1.0000e+00
       -2 -1    0    0    0  501 -0.0000000000e+00 -0.0000000000e+00 -1.1906160712e+03 1.1906160712e+03 0.0000000000e+00 0.0000e+00 1.0000e+00
      -13  1    1    2    0    0 +1.0601141489e+03 +1.4677491111e+03 +2.1096588898e+02 1.8228099375e+03 0.0000000000e+00 0.0000e+00 1.0000e+00
       13  1    1    2    0    0 -1.0601141489e+03 -1.4677491111e+03 +1.7456544000e+03 2.5150424939e+03 0.0000000000e+00 0.0000e+00 -1.0000e+00
<mgrwt>
<rscale>  0 0.38715114E+04</rscale>
<asrwt>0</asrwt>
<pdfrwt beam="1">  1        2 0.48419021E+00 0.38715114E+04</pdfrwt>
<pdfrwt beam="2">  1       -2 0.18317170E+00 0.38715114E+04</pdfrwt>
<totfact> 0.21187973E-01</totfact>
</mgrwt>
<rwgt>
<wgt id='morphing_basis_vector_1'> +1.3972370e-05 </wgt>
<wgt id='morphing_basis_vector_2'> +9.7469186e-06 </wgt>
<wgt id='morphing_basis_vector_3'> +1.5391230e-05 </wgt>
<wgt id='morphing_basis_vector_4'> +1.0668264e-05 </wgt>
<wgt id='morphing_basis_vector_5'> +1.7408168e-05 </wgt>
</rwgt>
</event>
<event>
 4      1 +4.5322000e-10 3.93043200e+03 7.81860800e-03 7.55328100e-02
        2 -1    0    0  501    0 +0.0000000000e+00 +0.0000000000e+00 +2.5926947676e+03 2.5926947676e+03 0.0000000000e+00 0.0000e+00 1.0000e+00
       -2 -1    0    0    0  501 -0.0000000000e+00 -0.0000000000e+00 -1.4895985834e+03 1.4895985834e+03 0.0000000000e+00 0.0000e+00 -1.0000e+00
      -13  1    1    2    0    0 +1.8823546946e+03 +4.3099142826e+02 +1.7267798745e+02 1.9387703564e+03 0.0000000000e+00 0.0000e+00 -1.0000e+00
       13  1    1    2    0    0 -1.8823546946e+03 -4.3099142826e+02 +9.3041819673e+02 2.1435229946e+03 0.0000000000e+00 0.0000e+00 1.0000e+00
<mgrwt>
<rscale>  0 0.39304323E+04</rscale>
<asrwt>0</asrwt>
<pdfrwt beam="1">  1        2 0.39887612E+00 0.39304323E+04</pdfrwt>
<pdfrwt beam="2">  1       -2 0.22916901E+00 0.39304323E+04</pdfrwt>
<totfact> 0.22067919E-01</totfact>
</mgrwt>
<rwgt>
<wgt id='morphing_basis_vector_1'> +1.4973574e-05 </wgt>
<wgt id='morphing_basis_vector_2'> +1.0751817e-05 </wgt>
<wgt id='morphing_basis_vector_3'> +1.6567276e-05 </wgt>
<wgt id='morphing_basis_vector_4'> +1.1049064e-05 </wgt>
<wgt id='morphing_basis_vector_5'> +1.8474268e-05 </wgt>
</rwgt>
</event>
<event>
 4      1 +4.5322000e-10 4.21568200e+03 7.81860800e-03 7.50339300e-02
        2 -1    0    0  501    0 +0.0000000000e+00 +0.0000000000e+00 +1.8829184172e+03 1.8829184172e+03 0.0000000000e+00 0.0000e+00 -1.0000e+00
       -2 -1    0    0    0  501 -0.0000000000e+00 -0.0000000000e+00 -2.3596320285e+03 2.3596320285e+03 0.0000000000e+00 0.0000e+00 1.0000e+00
      -13  1    1    2    0    0 +2.5605018051e+02 +9.3524699427e+02 -2.1218473634e+03 2.3329133865e+03 0.0000000000e+00 0.0000e+00 1.0000e+00
       13  1    1    2    0    0 -2.5605018051e+02 -9.3524699427e+02 +1.6451337522e+03 1.9096370592e+03 0.0000000000e+00 0.0000e+00 -1.0000e+00
<mgrwt>
<rscale>  0 0.42156824E+04</rscale>
<asrwt>0</asrwt>
<pdfrwt beam="1">  1        2 0.28967976E+00 0.42156824E+04</pdfrwt>
<pdfrwt beam="2">  1       -2 0.36302031E+00 0.42156824E+04</pdfrwt>
<totfact> 0.69606498E-02</totfact>
</mgrwt>
<rwgt>
<wgt id='morphing_basis_vector_1'> +1.9436333e-05 </wgt>
<wgt id='morphing_basis_vector_2'> +1.3182984e-05 </wgt>
<wgt id='morphing_basis_vector_3'> +2.1357434e-05 </wgt>
<wgt id='morphing_basis_vector_4'> +1.5390477e-05 </wgt>
<wgt id='morphing_basis_vector_5'> +2.4545121e-05 </wgt>
</rwgt>
</event>
<event>
 4      1 +4.5322000e-10 3.92385300e+03 7.81860800e-03 7.55448200e-02
        2 -1    0    0  501    0 +0.0000000000e+00 +0.0000000000e+00 +2.3890574689e+03 2.3890574689e+03 0.0000000000e+00 0.0000e+00 -1.0000e+00
       -2 -1    0    0    0  501 -0.0000000000e+00 -0.0000000000e+00 -1.6111607189e+03 1.6111607189e+03 0.0000000000e+00 0.0000e+00 1.0000e+00
      -13  1    1    2    0    0 +4.7235489127e+02 -9.3216415872e+02 -1.3038206975e+03 1.6709271598e+03 0.0000000000e+00 0.0000e+00 1.0000e+00
       13  1    1    2    0    0 -4.7235489127e+02 +9.3216415872e+02 +2.0817174475e+03 2.3292910280e+03 0.0000000000e+00 0.0000e+00 -1.0000e+00
<mgrwt>
<rscale>  0 0.39238530E+04</rscale>
<asrwt>0</asrwt>
<pdfrwt beam="1">  1        2 0.36754730E+00 0.39238530E+04</pdfrwt>
<pdfrwt beam="2">  1       -2 0.24787088E+00 0.39238530E+04</pdfrwt>
<totfact> 0.21631636E-01</totfact>
</mgrwt>
<rwgt>
<wgt id='morphing_basis_vector_1'> +1.4610747e-05 </wgt>
<wgt id='morphing_basis_vector_2'> +9.9060205e-06 </wgt>
<wgt id='morphing_basis_vector_3'> +1.6034619e-05 </wgt>
<wgt id='morphing_basis_vector_4'> +1.1531495e-05 </wgt>
<wgt id='morphing_basis_vector_5'> +1.8396589e-05 </wgt>
</rwgt>
</event>
<event>
 4      1 +4.5322000e-10 3.97646100e+03 7.81860800e-03 7.54494500e-02
        2 -1    0    0  501    0 +0.0000000000e+00 +0.0000000000e+00 +2.1180241777e+03 2.1180241777e+03 0.0000000000e+00 0.0000e+00 1.0000e+00
       -2 -1    0    0    0  501 -0.0000000000e+00 -0.0000000000e+00 -1.8663901921e+03 1.8663901921e+03 0.0000000000e+00 0.0000e+00 -1.0000e+00
      -13  1    1    2    0    0 +9.2959416341e+02 +1.1988143419e+03 -1.1619612634e+03 1.9108780998e+03 0.0000000000e+00 0.0000e+00 -1.0000e+00
       13  1    1    2    0    0 -9.2959416341e+02 -1.1988143419e+03 +1.4135952490e+03 2.0735362700e+03 0.0000000000e+00 0.0000e+00 1.0000e+00
<mgrwt>
<rscale>  0 0.39764605E+04</rscale>
<asrwt>0</asrwt>
<pdfrwt beam="1">  1        2 0.32584988E+00 0.39764605E+04</pdfrwt>
<pdfrwt beam="2">  1       -2 0.28713695E+00 0.39764605E+04</pdfrwt>
<totfact> 0.16623374E-01</totfact>
</mgrwt>
<rwgt>
<wgt id='morphing_basis_vector_1'> +1.5430390e-05 </wgt>
<wgt id='morphing_basis_vector_2'> +1.0518918e-05 </wgt>
<wgt id='morphing_basis_vector_3'> +1.6950961e-05 </wgt>
<wgt id='morphing_basis_vector_4'> +1.2113856e-05 </wgt>
<wgt id='morphing_basis_vector_5'> +1.9404135e-05 </wgt>
</rwgt>
</event>
<event>
 4      1 +4.5322000e-10 4.13238100e+03 7.81860800e-03 7.51753700e-02
        2 -1    0    0  501    0 +0.0000000000e+00 +0.0000000000e+00 +1.9686959738e+03 1.9686959738e+03 0.0000000000e+00 0.0000e+00 -1.0000e+00
       -2 -1    0    0    0  501 -0.0000000000e+00 -0.0000000000e+00 -2.1685136023e+03 2.1685136023e+03 0.0000000000e+00 0.0000e+00 1.0000e+00
      -13  1    1    2    0    0 -9.4090451614e+02 -1.5474701535e+02 -1.9350523756e+03 2.1572379664e+03 0.0000000000e+00 0.0000e+00 1.0000e+00
       13  1    1    2    0    0 +9.4090451614e+02 +1.5474701535e+02 +1.7352347471e+03 1.9799716096e+03 0.0000000000e+00 0.0000e+00 -1.0000e+00
<mgrwt>
<rscale>  0 0.41323814E+04</rscale>
<asrwt>0</asrwt>
<pdfrwt beam="1">  1        2 0.30287630E+00 0.41323814E+04</pdfrwt>
<pdfrwt beam="2">  1       -2 0.33361748E+00 0.41323814E+04</pdfrwt>
<totfact> 0.97418666E-02</totfact>
</mgrwt>
<rwgt>
<wgt id='morphing_basis_vector_1'> +1.7951824e-05 </wgt>
<wgt id='morphing_basis_vector_2'> +1.2173411e-05 </wgt>
<wgt id='morphing_basis_vector_3'> +1.9719303e-05 </wgt>
<wgt id='morphing_basis_vector_4'> +1.4204482e-05 </wgt>
<wgt id='morphing_basis_vector_5'> +2.2653591e-05 </wgt>
</rwgt>
</event>
<event>
 4      1 +4.5322000e-10 3.88918900e+03 7.81860800e-03 7.56085000e-02
        2 -1    0    0  501    0 +0.0000000000e+00 +0.0000000000e+00 +3.5017696006e+03 3.5017696006e+03 0.0000000000e+00 0.0000e+00 1.0000e+00
       -2 -1    0    0    0  501 -0.0000000000e+00 -0.0000000000e+00 -1.0798677128e+03 1.0798677128e+03 0.0000000000e+00 0.0000e+00 -1.0000e+00
      -13  1    1    2    0    0 -8.6250958151e+02 +1.6057884276e+03 +2.0090433395e+03 2.7126987287e+03 0.0000000000e+00 0.0000e+00 -1.0000e+00
       13  1    1    2    0    0 +8.6250958151e+02 -1.6057884276e+03 +4.1285854822e+02 1.8689385847e+03 0.0000000000e+00 0.0000e+00 1.0000e+00
<mgrwt>
<rscale>  0 0.38891891E+04</rscale>
<asrwt>0</asrwt>
<pdfrwt beam="1">  1        2 0.53873378E+00 0.38891891E+04</pdfrwt>
<pdfrwt beam="2">  1       -2 0.16613350E+00 0.38891891E+04</pdfrwt>
<totfact> 0.16147540E-01</totfact>
</mgrwt>
<rwgt>
<wgt id='morphing_basis_vector_1'> +1.5775217e-05 </wgt>
<wgt id='morphing_basis_vector_2'> +1.4474530e-05 </wgt>
<wgt id='morphing_basis_vector_3'> +1.8152282e-05 </wgt>
<wgt id='morphing_basis_vector_4'> +7.5964244e-06 </wgt>
<wgt id='morphing_basis_vector_5'> +1.7457921e-05 </wgt>
</rwgt>
</event>
<event>
 4      1 +4.5322000e-10 4.19253600e+03 7.81860800e-03 7.50729000e-02
        2 -1    0    0  501    0 +0.0000000000e+00 +0.0000000000e+00 +3.6216679815e+03 3.6216679815e+03 0.0000000000e+00 0.0000e+00 -1.0000e+00
       -2 -1    0    0    0  501 -0.0000000000e+00 -0.0000000000e+00 -1.2133466607e+03 1.2133466607e+03 0.0000000000e+00 0.0000e+00 1.0000e+00
      -13  1    1    2    0    0 -1.9011842867e+03 +1.6248422690e+02 +2.0313733641e+02 1.9188974942e+03 0.0000000000e+00 0.0000e+00 1.0000e+00
       13  1    1    2    0    0 +1.9011842867e+03 -1.6248422690e+02 +2.2051839844e+03 2.9161171480e+03 0.0000000000e+00 0.0000e+00 -1.0000e+00
<mgrwt>
<rscale>  0 0.41925356E+04</rscale>
<asrwt>0</asrwt>
<pdfrwt beam="1">  1        2 0.55717968E+00 0.41925356E+04</pdfrwt>
<pdfrwt beam="2">  1       -2 0.18666872E+00 0.41925356E+04</pdfrwt>
<totfact> 0.89214867E-02</totfact>
</mgrwt>
<rwgt>
<wgt id='morphing_basis_vector_1'> +1.9143004e-05 </wgt>
<wgt id='morphing_basis_vector_2'> +1.3272785e-05 </wgt>
<wgt id='morphing_basis_vector_3'> +2.1098475e-05 </wgt>
<wgt id='morphing_basis_vector_4'> +1.4782340e-05 </wgt>
<wgt id='morphing_basis_vector_5'> +2.3985445e-05 </wgt>
</rwgt>
</event>
<event>
 4      1 +4.5322000e-10 3.97894400e+03 7.81860800e-03 7.54449800e-02
        2 -1    0    0  501    0 +0.0000000000e+00 +0.0000000000e+00 +1.5196312296e+03 1.5196312296e+03 0.0000000000e+00 0.0000e+00 -1.0000e+00
       -2 -1    0    0    0  501 -0.0000000000e+00 -0.0000000000e+00 -2.6045788186e+03 2.6045788186e+03 0.0000000000e+00 0.0000e+00 1.0000e+00
      -13  1    1    2    0    0 +4.8019275747e+02 -1.2376429485e+03 -2.0783453265e+03 2.4661436390e+03 0.0000000000e+00 0.0000e+00 1.0000e+00
       13  1    1    2    0    0 -4.8019275747e+02 +1.2376429485e+03 +9.9339773751e+02 1.6580664092e+03 0.0000000000e+00 0.0000e+00 -1.0000e+00
<mgrwt>
<rscale>  0 0.39789442E+04</rscale>
<asrwt>0</asrwt>
<pdfrwt beam="1">  1        2 0.23378942E+00 0.39789442E+04</pdfrwt>
<pdfrwt beam="2">  1       -2 0.40070443E+00 0.39789442E+04</pdfrwt>
<totfact> 0.64535212E-02</totfact>
</mgrwt>
<rwgt>
<wgt id='morphing_basis_vector_1'> +1.5453301e-05 </wgt>
<wgt id='morphing_basis_vector_2'> +1.0499676e-05 </wgt>
<wgt id='morphing_basis_vector_3'> +1.6968514e-05 </wgt>
<wgt id='morphing_basis_vector_4'> +1.2177028e-05 </wgt>
<wgt id='morphing_basis_vector_5'> +1.9455630e-05 </wgt>
</rwgt>
</event>
<event>
 4      1 +4.5322000e-10 4.51351600e+03 7.81860800e-03 7.45540800e-02
        2 -1    0    0  501    0 +0.0000000000e+00 +0.0000000000e+00 +1.9946657261e+03 1.9946657261e+03 0.0000000000e+00 0.0000e+00 -1.0000e+00
       -2 -1    0    0    0  501 -0.0000000000e+00 -0.0000000000e+00 -2.5532888556e+03 2.5532888556e+03 0.0000000000e+00 0.0000e+00 1.0000e+00
      -13  1    1    2    0    0 -1.2567418609e+03 -1.2146191413e+03 -1.7178804548e+03 2.4506760333e+03 0.0000000000e+00 0.0000e+00 1.0000e+00
       13  1    1    2    0    0 +1.2567418609e+03 +1.2146191413e+03 +1.1592573252e+03 2.0972785484e+03 0.0000000000e+00 0.0000e+00 -1.0000e+00
<mgrwt>
<rscale>  0 0.45135165E+04</rscale>
<asrwt>0</asrwt>
<pdfrwt beam="1">  1        2 0.30687165E+00 0.45135165E+04</pdfrwt>
<pdfrwt beam="2">  1       -2 0.39281367E+00 0.45135165E+04</pdfrwt>
<totfact> 0.37821889E-02</totfact>
</mgrwt>
<rwgt>
<wgt id='morphing_basis_vector_1'> +2.5557645e-05 </wgt>
<wgt id='morphing_basis_vector_2'> +1.7457444e-05 </wgt>
<wgt id='morphing_basis_vector_3'> +2.8139809e-05 </wgt>
<wgt id='morphing_basis_vector_4'> +2.0141642e-05 </wgt>
<wgt id='morphing_basis_vector_5'> +3.2279899e-05 </wgt>
</rwgt>
</event>
<event>
 4      1 +4.5322000e-10 4.38338800e+03 7.81860800e-03 7.47589800e-02
        2 -1    0    0  501    0 +0.0000000000e+00 +0.0000000000e+00 +1.3790978295e+03 1.3790978295e+03 0.0000000000e+00 0.0000e+00 -1.0000e+00
       -2 -1    0    0    0  501 -0.0000000000e+00 -0.0000000000e+00 -3.4830904100e+03 3.4830904100e+03 0.0000000000e+00 0.0000e+00 1.0000e+00
      -13  1    1    2    0    0 +1.6184696819e+03 +4.5517148274e+02 -2.6115987396e+03 3.1059737872e+03 0.0000000000e+00 0.0000e+00 1.0000e+00
       13  1    1    2    0    0 -1.6184696819e+03 -4.5517148274e+02 +5.0760615908e+02 1.7562144524e+03 0.0000000000e+00 0.0000e+00 -1.0000e+00
<mgrwt>
<rscale>  0 0.43833879E+04</rscale>
<asrwt>0</asrwt>
<pdfrwt beam="1">  1        2 0.21216890E+00 0.43833879E+04</pdfrwt>
<pdfrwt beam="2">  1       -2 0.53586005E+00 0.43833879E+04</pdfrwt>
<totfact> 0.81567352E-03</totfact>
</mgrwt>
<rwgt>
<wgt id='morphing_basis_vector_1'> +2.2743619e-05 </wgt>
<wgt id='morphing_basis_vector_2'> +1.5524676e-05 </wgt>
<wgt id='morphing_basis_vector_3'> +2.5028676e-05 </wgt>
<wgt id='morphing_basis_vector_4'> +1.7914905e-05 </wgt>
<wgt id='morphing_basis_vector_5'> +2.8702198e-05 </wgt>
</rwgt>
</event>
<event>
 4      1 +4.5322000e-10 4.49598200e+03 7.81860800e-03 7.45812800e-02
        2 -1    0    0  501    0 +0.0000000000e+00 +0.0000000000e+00 +3.2348259835e+03 3.2348259835e+03 0.0000000000e+00 0.0000e+00 1.0000e+00
       -2 -1    0    0    0  501 -0.0000000000e+00 -0.0000000000e+00 -1.5622060185e+03 1.5622060185e+03 0.0000000000e+00 0.0000e+00 -1.0000e+00
      -13  1    1    2    0    0 +2.0808047382e+02 +5.0380627382e+02 -1.4906276449e+03 1.5871638292e+03 0.0000000000e+00 0.0000e+00 -1.0000e+00
       13  1    1    2    0    0 -2.0808047382e+02 -5.0380627382e+02 +3.1632476099e+03 3.2098681728e+03 0.0000000000e+00 0.0000e+00 1.0000e+00
<mgrwt>
<rscale>  0 0.44959825E+04</rscale>
<asrwt>0</asrwt>
<pdfrwt beam="1">  1        2 0.49766553E+00 0.44959825E+04</pdfrwt>
<pdfrwt beam="2">  1       -2 0.24033939E+00 0.44959825E+04</pdfrwt>
<totfact> 0.68122327E-02</totfact>
</mgrwt>
<rwgt>
<wgt id='morphing_basis_vector_1'> +2.5112975e-05 </wgt>
<wgt id='morphing_basis_vector_2'> +1.7037119e-05 </wgt>
<wgt id='morphing_basis_vector_3'> +2.7622142e-05 </wgt>
<wgt id='morphing_basis_vector_4'> +1.9938524e-05 </wgt>
<wgt id='morphing_basis_vector_5'> +3.1788413e-05 </wgt>
</rwgt>
</event>
<event>
 4      1 +4.5322000e-10 3.96767500e+03 7.81860800e-03 7.54652700e-02
        2 -1    0    0  501    0 +0.0000000000e+00 +0.0000000000e+00 +3.9314728976e+03 3.9314728976e+03 0.0000000000e+00 0.0000e+00 1.0000e+00
       -2 -1    0    0    0  501 -0.0000000000e+00 -0.0000000000e+00 -1.0010527836e+03 1.0010527836e+03 0.0000000000e+00 0.0000e+00 -1.0000e+00
      -13  1    1    2    0    0 +1.1309296422e+03 +1.0981790654e+03 -3.2090465434e+01 1.5767145947e+03 0.0000000000e+00 0.0000e+00 -1.0000e+00
       13  1    1    2    0    0 -1.1309296422e+03 -1.0981790654e+03 +2.9625105794e+03 3.3558110865e+03 0.0000000000e+00 0.0000e+00 1.0000e+00
<mgrwt>
<rscale>  0 0.39676753E+04</rscale>
<asrwt>0</asrwt>
<pdfrwt beam="1">  1        2 0.60484198E+00 0.39676753E+04</pdfrwt>
<pdfrwt beam="2">  1       -2 0.15400812E+00 0.39676753E+04</pdfrwt>
<totfact> 0.92718653E-02</totfact>
</mgrwt>
<rwgt>
<wgt id='morphing_basis_vector_1'> +1.5303587e-05 </wgt>
<wgt id='morphing_basis_vector_2'> +1.0451164e-05 </wgt>
<wgt id='morphing_basis_vector_3'> +1.6815183e-05 </wgt>
<wgt id='morphing_basis_vector_4'> +1.1988866e-05 </wgt>
<wgt id='morphing_basis_vector_5'> +1.9230888e-05 </wgt>
</rwgt>
</event>
<event>
 4      1 +4.5322000e-10 3.91973200e+03 7.81860800e-03 7.55523500e-02
        2 -1    0    0  501    0 +0.0000000000e+00 +0.0000000000e+00 +2.3219302408e+03 2.3219302408e+03 0.0000000000e+00 0.0000e+00 -1.0000e+00
       -2 -1    0    0    0  501 -0.0000000000e+00 -0.0000000000e+00 -1.6542594711e+03 1.6542594711e+03 0.0000000000e+00 0.0000e+00 1.0000e+00
      -13  1    1    2    0    0 -6.9151901096e+02 +1.8998018871e+02 -1.5163830762e+03 1.6774112937e+03 0.0000000000e+00 0.0000e+00 1.0000e+00
       13  1    1    2    0    0 +6.9151901096e+02 -1.8998018871e+02 +2.1840538459e+03 2.2987784183e+03 0.0000000000e+00 0.0000e+00 -1.0000e+00
<mgrwt>
<rscale>  0 0.39197322E+04</rscale>
<asrwt>0</asrwt>
<pdfrwt beam="1">  1        2 0.35722004E+00 0.39197322E+04</pdfrwt>
<pdfrwt beam="2">  1       -2 0.25450146E+00 0.39197322E+04</pdfrwt>
<totfact> 0.21313613E-01</totfact>
</mgrwt>
<rwgt>
<wgt id='morphing_basis_vector_1'> +1.4546450e-05 </wgt>
<wgt id='morphing_basis_vector_2'> +9.8547304e-06 </wgt>
<wgt id='morphing_basis_vector_3'> +1.5962033e-05 </wgt>
<wgt id='morphing_basis_vector_4'> +1.1489954e-05 </wgt>
<wgt id='morphing_basis_vector_5'> +1.8319622e-05 </wgt>
</rwgt>
</event>
<event>
 4      1 +4.5322000e-10 3.86068000e+03 7.81860800e-03 7.56613800e-02
        2 -1    0    0  501    0 +0.0000000000e+00 +0.0000000000e+00 +3.8725513035e+03 3.8725513035e+03 0.0000000000e+00 0.0000e+00 -1.0000e+00
       -2 -1    0    0    0  501 -0.0000000000e+00 -0.0000000000e+00 -9.6221134206e+02 9.6221134206e+02 0.0000000000e+00 0.0000e+00 1.0000e+00
      -13  1    1    2    0    0 +1.1813588224e+03 +1.3782978583e+03 +6.3311825238e+02 1.9225380035e+03 0.0000000000e+00 0.0000e+00 1.0000e+00
       13  1    1    2    0    0 -1.1813588224e+03 -1.3782978583e+03 +2.2772217091e+03 2.9122246420e+03 0.0000000000e+00 0.0000e+00 -1.0000e+00
<mgrwt>
<rscale>  0 0.38606801E+04</rscale>
<asrwt>0</asrwt>
<pdfrwt beam="1">  1        2 0.59577712E+00 0.38606801E+04</pdfrwt>
<pdfrwt beam="2">  1       -2 0.14803252E+00 0.38606801E+04</pdfrwt>
<totfact> 0.11717741E-01</totfact>
</mgrwt>
<rwgt>
<wgt id='morphing_basis_vector_1'> +1.3825310e-05 </wgt>
<wgt id='morphing_basis_vector_2'> +9.6614747e-06 </wgt>
<wgt id='morphing_basis_vector_3'> +1.5232231e-05 </wgt>
<wgt id='morphing_basis_vector_4'> +1.0532299e-05 </wgt>
<wgt id='morphing_basis_vector_5'> +1.7211780e-05 </wgt>
</rwgt>
</event>
<event>
 4      1 +4.5322000e-10 4.15772300e+03 7.81860800e-03 7.51319900e-02
        2 -1    0    0  501    0 +0.0000000000e+00 +0.0000000000e+00 +2.2561583049e+03 2.2561583049e+03 0.0000000000e+00 0.0000e+00 -1.0000e+00
       -2 -1    0    0    0  501 -0.0000000000e+00 -0.0000000000e+00 -1.9154973900e+03 1.9154973900e+03 0.0000000000e+00 0.0000e+00 1.0000e+00
      -13  1    1    2    0    0 +5.4569374430e+02 -3.9055566334e+02 -1.8038375536e+03 1.9246156262e+03 0.0000000000e+00 0.0000e+00 1.0000e+00
       13  1    1    2    0    0 -5.4569374430e+02 +3.9055566334e+02 +2.1444984686e+03 2.2470400687e+03 0.0000000000e+00 0.0000e+00 -1.0000e+00
<mgrwt>
<rscale>  0 0.41577231E+04</rscale>
<asrwt>0</asrwt>
<pdfrwt beam="1">  1        2 0.34710128E+00 0.41577231E+04</pdfrwt>
<pdfrwt beam="2">  1       -2 0.29469190E+00 0.41577231E+04</pdfrwt>
<totfact> 0.12137445E-01</totfact>
</mgrwt>
<rwgt>
<wgt id='morphing_basis_vector_1'> +1.8391982e-05 </wgt>
<wgt id='morphing_basis_vector_2'> +1.2467984e-05 </wgt>
<wgt id='morphing_basis_vector_3'> +2.0203917e-05 </wgt>
<wgt id='morphing_basis_vector_4'> +1.4562226e-05 </wgt>
<wgt id='morphing_basis_vector_5'> +2.3217412e-05 </wgt>
</rwgt>
</event>
<event>
 4      1 +4.5322000e-10 4.42285600e+03 7.81860800e-03 7.46960800e-02
        2 -1    0    0  501    0 +0.0000000000e+00 +0.0000000000e+00 +2.9487844584e+03 2.9487844584e+03 0.0000000000e+00 0.0000e+00 1.0000e+00
       -2 -1    0    0    0  501 -0.0000000000e+00 -0.0000000000e+00 -1.6584508555e+03 1.6584508555e+03 0.0000000000e+00 0.0000e+00 -1.0000e+00
      -13  1    1    2    0    0 +2.0466217604e+03 +7.7026181639e+02 +9.8821313563e+02 2.3996935424e+03 0.0000000000e+00 0.0000e+00 -1.0000e+00
       13  1    1    2    0    0 -2.0466217604e+03 -7.7026181639e+02 +3.0212046732e+02 2.2075417715e+03 0.0000000000e+00 0.0000e+00 1.0000e+00
<mgrwt>
<rscale>  0 0.44228561E+04</rscale>
<asrwt>0</asrwt>
<pdfrwt beam="1">  1        2 0.45365915E+00 0.44228561E+04</pdfrwt>
<pdfrwt beam="2">  1       -2 0.25514629E+00 0.44228561E+04</pdfrwt>
<totfact> 0.83848195E-02</totfact>
</mgrwt>
<rwgt>
<wgt id='morphing_basis_vector_1'> +2.4983161e-05 </wgt>
<wgt id='morphing_basis_vector_2'> +2.0241408e-05 </wgt>
<wgt id='morphing_basis_vector_3'> +2.8222097e-05 </wgt>
<wgt id='morphing_basis_vector_4'> +1.5572037e-05 </wgt>
<wgt id='morphing_basis_vector_5'> +2.9503666e-05 </wgt>
</rwgt>
</event>
<event>
 4      1 +4.5322000e-10 4.01616800e+03 7.81860800e-03 7.53784500e-02
        2 -1    0    0  501    0 +0.0000000000e+00 +0.0000000000e+00 +2.6744114688e+03 2.6744114688e+03 0.0000000000e+00 0.0000e+00 1.0000e+00
       -2 -1    0    0    0  501 -0.0000000000e+00 -0.0000000000e+00 -1.5077712469e+03 1.5077712469e+03 0.0000000000e+00 0.0000e+00 -1.0000e+00
      -13  1    1    2    0    0 +1.4525875388e+03 +1.8806506866e+02 -8.4715271237e+02 1.6920540021e+03 0.0000000000e+00 0.0000e+00 -1.0000e+00
       13  1    1    2    0    0 -1.4525875388e+03 -1.8806506866e+02 +2.0137929342e+03 2.4901287135e+03 0.0000000000e+00 0.0000e+00 1.0000e+00
<mgrwt>
<rscale>  0 0.40161677E+04</rscale>
<asrwt>0</asrwt>
<pdfrwt beam="1">  1        2 0.41144792E+00 0.40161677E+04</pdfrwt>
<pdfrwt beam="2">  1       -2 0.23196481E+00 0.40161677E+04</pdfrwt>
<totfact> 0.18675618E-01</totfact>
</mgrwt>
<rwgt>
<wgt id='morphing_basis_vector_1'> +1.6045642e-05 </wgt>
<wgt id='morphing_basis_vector_2'> +1.0923668e-05 </wgt>
<wgt id='morphing_basis_vector_3'> +1.7626626e-05 </wgt>
<wgt id='morphing_basis_vector_4'> +1.2622434e-05 </wgt>
<wgt id='morphing_basis_vector_5'> +2.0196105e-05 </wgt>
</rwgt>
</event>
<event>
 4      1 +4.5322000e-10 4.08437700e+03 7.81860800e-03 7.52584200e-02
        2 -1    0    0  501    0 +0.0000000000e+00 +0.0000000000e+00 +2.3703303319e+03 2.3703303319e+03 0.0000000000e+00 0.0000e+00 -1.0000e+00
       -2 -1    0    0    0  501 -0.0000000000e+00 -0.0000000000e+00 -1.7594733100e+03 1.7594733100e+03 0.0000000000e+00 0.0000e+00 1.0000e+00
      -13  1    1    2    0    0 +1.1255415620e+03 -1.5886157212e+03 +9.2871724457e+02 2.1570951387e+03 0.0000000000e+00 0.0000e+00 1.0000e+00
       13  1    1    2    0    0 -1.1255415620e+03 +1.5886157212e+03 -3.1786022274e+02 1.9727085032e+03 0.0000000000e+00 0.0000e+00 -1.0000e+00
<mgrwt>
<rscale>  0 0.40843766E+04</rscale>
<asrwt>0</asrwt>
<pdfrwt beam="1">  1        2 0.36466620E+00 0.40843766E+04</pdfrwt>
<pdfrwt beam="2">  1       -2 0.27068820E+00 0.40843766E+04</pdfrwt>
<totfact> 0.15258367E-01</totfact>
</mgrwt>
<rwgt>
<wgt id='morphing_basis_vector_1'> +1.8892726e-05 </wgt>
<wgt id='morphing_basis_vector_2'> +1.6781797e-05 </wgt>
<wgt id='morphing_basis_vector_3'> +2.1641458e-05 </wgt>
<wgt id='morphing_basis_vector_4'> +9.8339652e-06 </wgt>
<wgt id='morphing_basis_vector_5'> +2.1304336e-05 </wgt>
</rwgt>
</event>
<event>
 4      1 +4.5322000e-10 3.92211800e+03 7.81860800e-03 7.55479900e-02
        2 -1    0    0  501    0 +0.0000000000e+00 +0.0000000000e+00 +2.6855950423e+03 2.6855950423e+03 0.0000000000e+00 0.0000e+00 -1.0000e+00
       -2 -1    0    0    0  501 -0.0000000000e+00 -0.0000000000e+00 -1.4319924459e+03 1.4319924459e+03 0.0000000000e+00 0.0000e+00 1.0000e+00
      -13  1    1    2    0    0 -3.6817762572e+02 -7.2304383639e+02 -1.2475060800e+03 1.4881594582e+03 0.0000000000e+00 0.0000e+00 1.0000e+00
       13  1    1    2    0    0 +3.6817762572e+02 +7.2304383639e+02 +2.5011086764e+03 2.6294280300e+03 0.0000000000e+00 0.0000e+00 -1.0000e+00
<mgrwt>
<rscale>  0 0.39221177E+04</rscale>
<asrwt>0</asrwt>
<pdfrwt beam="1">  1        2 0.41316847E+00 0.39221177E+04</pdfrwt>
<pdfrwt beam="2">  1       -2 0.22030653E+00 0.39221177E+04</pdfrwt>
<totfact> 0.22382197E-01</totfact>
</mgrwt>
<rwgt>
<wgt id='morphing_basis_vector_1'> +1.4582245e-05 </wgt>
<wgt id='morphing_basis_vector_2'> +9.8802832e-06 </wgt>
<wgt id='morphing_basis_vector_3'> +1.6001779e-05 </wgt>
<wgt id='morphing_basis_vector_4'> +1.1516948e-05 </wgt>
<wgt id='morphing_basis_vector_5'> +1.8364395e-05 </wgt>
</rwgt>
</event>
<event>
 4      1 +4.5322000e-10 4.18161900e+03 7.81860800e-03 7.50913700e-02
        2 -1    0    0  501    0 +0.0000000000e+00 +0.0000000000e+00 +1.9348140216e+03 1.9348140216e+03 0.0000000000e+00 0.0000e+00 -1.0000e+00
       -2 -1    0    0    0  501 -0.0000000000e+00 -0.0000000000e+00 -2.2593825960e+03 2.2593825960e+03 0.0000000000e+00 0.0000e+00 1.0000e+00
      -13  1    1    2    0    0 +7.3490491873e+02 -1.8556217232e+03 -7.8710893351e+02 2.1454504637e+03 0.0000000000e+00 0.0000e+00 1.0000e+00
       13  1    1    2    0    0 -7.3490491873e+02 +1.8556217232e+03 +4.6254035909e+02 2.0487461538e+03 0.0000000000e+00 0.0000e+00 -1.0000e+00
<mgrwt>
<rscale>  0 0.41816194E+04</rscale>
<asrwt>0</asrwt>
<pdfrwt beam="1">  1        2 0.29766370E+00 0.41816194E+04</pdfrwt>
<pdfrwt beam="2">  1       -2 0.34759732E+00 0.41816194E+04</pdfrwt>
<totfact> 0.82107479E-02</totfact>
</mgrwt>
<rwgt>
<wgt id='morphing_basis_vector_1'> +1.9033646e-05 </wgt>
<wgt id='morphing_basis_vector_2'> +1.3394888e-05 </wgt>
<wgt id='morphing_basis_vector_3'> +2.1021719e-05 </wgt>
<wgt id='morphing_basis_vector_4'> +1.4441185e-05 </wgt>
<wgt id='morphing_basis_vector_5'> +2.3719880e-05 </wgt>
</rwgt>
</event>
<event>
 4      1 +4.5322000e-10 4.58659300e+03 7.81860800e-03 7.44420400e-02
        2 -1    0    0  501    0 +0.0000000000e+00 +0.0000000000e+00 +3.6740007660e+03 3.6740007660e+03 0.0000000000e+00 0.0000e+00 -1.0000e+00
       -2 -1    0    0    0  501 -0.0000000000e+00 -0.0000000000e+00 -1.4314667574e+03 1.4314667574e+03 0.0000000000e+00 0.0000e+00 1.0000e+00
      -13  1    1    2    0    0 +1.4261168801e+03 -1.6166515511e+03 +2.5057687298e+02 2.1702903867e+03 0.0000000000e+00 0.0000e+00 1.0000e+00
       13  1    1    2    0    0 -1.4261168801e+03 +1.6166515511e+03 +1.9919571356e+03 2.9351771367e+03 0.0000000000e+00 0.0000e+00 -1.0000e+00
<mgrwt>
<rscale>  0 0.45865935E+04</rscale>
<asrwt>0</asrwt>
<pdfrwt beam="1">  1        2 0.56523089E+00 0.45865935E+04</pdfrwt>
<pdfrwt beam="2">  1       -2 0.22022566E+00 0.45865935E+04</pdfrwt>
<totfact> 0.44947702E-02</totfact>
</mgrwt>
<rwgt>
<wgt id='morphing_basis_vector_1'> +2.7451796e-05 </wgt>
<wgt id='morphing_basis_vector_2'> +1.9216903e-05 </wgt>
<wgt id='morphing_basis_vector_3'> +3.0338356e-05 </wgt>
<wgt id='morphing_basis_vector_4'> +2.1046947e-05 </wgt>
<wgt id='morphing_basis_vector_5'> +3.4393729e-05 </wgt>
</rwgt>
</event>
<event>
 4      1 +4.5322000e-10 4.19082200e+03 7.81860800e-03 7.50757900e-02
        2 -1    0    0  501    0 +0.0000000000e+00 +0.0000000000e+00 +2.3306383055e+03 2.3306383055e+03 0.0000000000e+00 0.0000e+00 -1.0000e+00
       -2 -1    0    0    0  501 -0.0000000000e+00 -0.0000000000e+00 -1.8839251581e+03 1.8839251581e+03 0.0000000000e+00 0.0000e+00 1.0000e+00
      -13  1    1    2    0    0 +1.0032741971e+03 -7.2610110493e+00 -1.6266670010e+03 1.9111926561e+03 0.0000000000e+00 0.0000e+00 1.0000e+00
       13  1    1    2    0    0 -1.0032741971e+03 +7.2610110493e+00 +2.0733801484e+03 2.3033708074e+03 0.0000000000e+00 0.0000e+00 -1.0000e+00
<mgrwt>
<rscale>  0 0.41908224E+04</rscale>
<asrwt>0</asrwt>
<pdfrwt beam="1">  1        2 0.35855974E+00 0.41908224E+04</pdfrwt>
<pdfrwt beam="2">  1       -2 0.28983464E+00 0.41908224E+04</pdfrwt>
<totfact> 0.11821536E-01</totfact>
</mgrwt>
<rwgt>
<wgt id='morphing_basis_vector_1'> +1.8984534e-05 </wgt>
<wgt id='morphing_basis_vector_2'> +1.2876916e-05 </wgt>
<wgt id='morphing_basis_vector_3'> +2.0859120e-05 </wgt>
<wgt id='morphing_basis_vector_4'> +1.5027933e-05 </wgt>
<wgt id='morphing_basis_vector_5'> +2.3968604e-05 </wgt>
</rwgt>
</event>
<event>
 4      1 +4.5322000e-10 3.86714700e+03 7.81860800e-03 7.56493400e-02
        2 -1    0    0  501    0 +0.0000000000e+00 +0.0000000000e+00 +2.8369965165e+03 2.8369965165e+03 0.0000000000e+00 0.0000e+00 -1.0000e+00
       -2 -1    0    0    0  501 -0.0000000000e+00 -0.0000000000e+00 -1.3178399733e+03 1.3178399733e+03 0.0000000000e+00 0.0000e+00 1.0000e+00
      -13  1    1    2    0    0 -1.0739504807e+03 -1.1196952881e+03 -4.8022676338e+02 1.6241012645e+03 0.0000000000e+00 0.0000e+00 1.0000e+00
       13  1    1    2    0    0 +1.0739504807e+03 +1.1196952881e+03 +1.9993833066e+03 2.5307352252e+03 0.0000000000e+00 0.0000e+00 -1.0000e+00
<mgrwt>
<rscale>  0 0.38671475E+04</rscale>
<asrwt>0</asrwt>
<pdfrwt beam="1">  1        2 0.43646100E+00 0.38671475E+04</pdfrwt>
<pdfrwt beam="2">  1       -2 0.20274461E+00 0.38671475E+04</pdfrwt>
<totfact> 0.24181192E-01</totfact>
</mgrwt>
<rwgt>
<wgt id='morphing_basis_vector_1'> +1.3820366e-05 </wgt>
<wgt id='morphing_basis_vector_2'> +9.4401555e-06 </wgt>
<wgt id='morphing_basis_vector_3'> +1.5178754e-05 </wgt>
<wgt id='morphing_basis_vector_4'> +1.0808948e-05 </wgt>
<wgt id='morphing_basis_vector_5'> +1.7345120e-05 </wgt>
</rwgt>
</event>
<event>
 4      1 +4.5322000e-10 4.43621100e+03 7.81860800e-03 7.46749500e-02
        2 -1    0    0  501    0 +0.0000000000e+00 +0.0000000000e+00 +2.5154406018e+03 2.5154406018e+03 0.0000000000e+00 0.0000e+00 1.0000e+00
       -2 -1    0    0    0  501 -0.0000000000e+00 -0.0000000000e+00 -1.9559167683e+03 1.9559167683e+03 0.0000000000e+00 0.0000e+00 -1.0000e+00
      -13  1    1    2    0    0 +1.2613562408e+03 +3.0123770723e+02 -1.5340027144e+03 2.0087130333e+03 0.0000000000e+00 0.0000e+00 -1.0000e+00
       13  1    1    2    0    0 -1.2613562408e+03 -3.0123770723e+02 +2.0935265479e+03 2.4626443367e+03 0.0000000000e+00 0.0000e+00 1.0000e+00
<mgrwt>
<rscale>  0 0.44362112E+04</rscale>
<asrwt>0</asrwt>
<pdfrwt beam="1">  1        2 0.38699086E+00 0.44362112E+04</pdfrwt>
<pdfrwt beam="2">  1       -2 0.30091027E+00 0.44362112E+04</pdfrwt>
<totfact> 0.75913274E-02</totfact>
</mgrwt>
<rwgt>
<wgt id='morphing_basis_vector_1'> +2.3819493e-05 </wgt>
<wgt id='morphing_basis_vector_2'> +1.6180763e-05 </wgt>
<wgt id='morphing_basis_vector_3'> +2.6199349e-05 </wgt>
<wgt id='morphing_basis_vector_4'> +1.8873353e-05 </wgt>
<wgt id='morphing_basis_vector_5'> +3.0123147e-05 </wgt>
</rwgt>
</event>
<event>
 4      1 +4.5322000e-10 4.23399700e+03 7.81860800e-03 7.50032800e-02
        2 -1    0    0  501    0 +0.0000000000e+00 +0.0000000000e+00 +2.7330211635e+03 2.7330211635e+03 0.0000000000e+00 0.0000e+00 1.0000e+00
       -2 -1    0    0    0  501 -0.0000000000e+00 -0.0000000000e+00 -1.6398271006e+03 1.6398271006e+03 0.0000000000e+00 0.0000e+00 -1.0000e+00
      -13  1    1    2    0    0 -5.1107881788e+02 -1.4100968744e+03 +2.0896165875e+03 2.5721726684e+03 0.0000000000e+00 0.0000e+00 1.0000e+00
       13  1    1    2    0    0 +5.1107881788e+02 +1.4100968744e+03 -9.9642252458e+02 1.8006755957e+03 0.0000000000e+00 0.0000e+00 -1.0000e+00
<mgrwt>
<rscale>  0 0.42339968E+04</rscale>
<asrwt>0</asrwt>
<pdfrwt beam="1">  1        2 0.42046479E+00 0.42339968E+04</pdfrwt>
<pdfrwt beam="2">  1       -2 0.25228109E+00 0.42339968E+04</pdfrwt>
<totfact> 0.12197794E-01</totfact>
</mgrwt>
<rwgt>
<wgt id='morphing_basis_vector_1'> +2.5545031e-05 </wgt>
<wgt id='morphing_basis_vector_2'> +3.0369620e-05 </wgt>
<wgt id='morphing_basis_vector_3'> +3.1020744e-05 </wgt>
<wgt id='morphing_basis_vector_4'> +3.4288224e-06 </wgt>
<wgt id='morphing_basis_vector_5'> +2.3955382e-05 </wgt>
</rwgt>
</event>
<event>
 4      1 +4.5322000e-10 3.85957600e+03 7.81860800e-03 7.56634400e-02
        2 -1    0    0  501    0 +0.0000000000e+00 +0.0000000000e+00 +1.2260978848e+03 1.2260978848e+03 0.0000000000e+00 0.0000e+00 1.0000e+00
       -2 -1    0    0    0  501 -0.0000000000e+00 -0.0000000000e+00 -3.0373445608e+03 3.0373445608e+03 0.0000000000e+00 0.0000e+00 -1.0000e+00
      -13  1    1    2    0    0 +1.0206448234e+03 +3.2093865700e+02 -2.6797194568e+03 2.8854139815e+03 0.0000000000e+00 0.0000e+00 -1.0000e+00
       13  1    1    2    0    0 -1.0206448234e+03 -3.2093865700e+02 +8.6847278084e+02 1.3780284642e+03 0.0000000000e+00 0.0000e+00 1.0000e+00
<mgrwt>
<rscale>  0 0.38595760E+04</rscale>
<asrwt>0</asrwt>
<pdfrwt beam="1">  1        2 0.18863045E+00 0.38595760E+04</pdfrwt>
<pdfrwt beam="2">  1       -2 0.46728377E+00 0.38595760E+04</pdfrwt>
<totfact> 0.33629919E-02</totfact>
</mgrwt>
<rwgt>
<wgt id='morphing_basis_vector_1'> +1.3682361e-05 </wgt>
<wgt id='morphing_basis_vector_2'> +9.2764163e-06 </wgt>
<wgt id='morphing_basis_vector_3'> +1.5011164e-05 </wgt>
<wgt id='morphing_basis_vector_4'> +1.0788899e-05 </wgt>
<wgt id='morphing_basis_vector_5'> +1.7214352e-05 </wgt>
</rwgt>
</event>
<event>
 4      1 +4.5322000e-10 4.34668000e+03 7.81860800e-03 7.48180900e-02
        2 -1    0    0  501    0 +0.0000000000e+00 +0.0000000000e+00 +2.9906705193e+03 2.9906705193e+03 0.0000000000e+00 0.0000e+00 1.0000e+00
       -2 -1    0    0    0  501 -0.0000000000e+00 -0.0000000000e+00 -1.5793805275e+03 1.5793805275e+03 0.0000000000e+00 0.0000e+00 -1.0000e+00
      -13  1    1    2    0    0 -1.1456092387e+03 -8.5014695010e+02 -1.0181956283e+03 1.7526815746e+03 0.0000000000e+00 0.0000e+00 -1.0000e+00
       13  1    1    2    0    0 +1.1456092387e+03 +8.5014695010e+02 +2.4294856200e+03 2.8173694721e+03 0.0000000000e+00 0.0000e+00 1.0000e+00
<mgrwt>
<rscale>  0 0.43466800E+04</rscale>
<asrwt>0</asrwt>
<pdfrwt beam="1">  1        2 0.46010316E+00 0.43466800E+04</pdfrwt>
<pdfrwt beam="2">  1       -2 0.24298162E+00 0.43466800E+04</pdfrwt>
<totfact> 0.96191534E-02</totfact>
</mgrwt>
<rwgt>
<wgt id='morphing_basis_vector_1'> +2.1969468e-05 </wgt>
<wgt id='morphing_basis_vector_2'> +1.4938541e-05 </wgt>
<wgt id='morphing_basis_vector_3'> +2.4160659e-05 </wgt>
<wgt id='morphing_basis_vector_4'> +1.7372986e-05 </wgt>
<wgt id='morphing_basis_vector_5'> +2.7753308e-05 </wgt>
</rwgt>
</event>
<event>
 4      1 +4.5322000e-10 3.97981600e+03 7.81860800e-03 7.54434100e-02
        2 -1    0    0  501    0 +0.0000000000e+00 +0.0000000000e+00 +1.7794564489e+03 1.7794564489e+03 0.0000000000e+00 0.0000e+00 1.0000e+00
       -2 -1    0    0    0  501 -0.0000000000e+00 -0.0000000000e+00 -2.2252494171e+03 2.2252494171e+03 0.0000000000e+00 0.0000e+00 -1.0000e+00
      -13  1    1    2    0    0 +1.5194526857e+03 -8.1286838958e+02 -1.2242293632e+03 2.1138185865e+03 0.0000000000e+00 0.0000e+00 -1.0000e+00
       13  1    1    2    0    0 -1.5194526857e+03 +8.1286838958e+02 +7.7843639504e+02 1.8908872795e+03 0.0000000000e+00 0.0000e+00 1.0000e+00
<mgrwt>
<rscale>  0 0.39798163E+04</rscale>
<asrwt>0</asrwt>
<pdfrwt beam="1">  1        2 0.27376253E+00 0.39798163E+04</pdfrwt>
<pdfrwt beam="2">  1       -2 0.34234606E+00 0.39798163E+04</pdfrwt>
<totfact> 0.11022552E-01</totfact>
</mgrwt>
<rwgt>
<wgt id='morphing_basis_vector_1'> +1.5522548e-05 </wgt>
<wgt id='morphing_basis_vector_2'> +1.0672785e-05 </wgt>
<wgt id='morphing_basis_vector_3'> +1.7072835e-05 </wgt>
<wgt id='morphing_basis_vector_4'> +1.2069827e-05 </wgt>
<wgt id='morphing_basis_vector_5'> +1.9462954e-05 </wgt>
</rwgt>
</event>
<event>
 4      1 +4.5322000e-10 3.86895100e+03 7.81860800e-03 7.56459900e-02
        2 -1    0    0  501    0 +0.0000000000e+00 +0.0000000000e+00 +3.6272179611e+03 3.6272179611e+03 0.0000000000e+00 0.0000e+00 -1.0000e+00
       -2 -1    0    0    0  501 -0.0000000000e+00 -0.0000000000e+00 -1.0316986204e+03 1.0316986204e+03 0.0000000000e+00 0.0000e+00 1.0000e+00
      -13  1    1    2    0    0 +1.4741408663e+03 +1.0107700590e+03 +4.0678928897e+02 1.8330916320e+03 0.0000000000e+00 0.0000e+00 1.0000e+00
       13  1    1    2    0    0 -1.4741408663e+03 -1.0107700590e+03 +2.1887300517e+03 2.8258249494e+03 0.0000000000e+00 0.0000e+00 -1.0000e+00
<mgrwt>
<rscale>  0 0.38689512E+04</rscale>
<asrwt>0</asrwt>
<pdfrwt beam="1">  1        2 0.55803353E+00 0.38689512E+04</pdfrwt>
<pdfrwt beam="2">  1       -2 0.15872287E+00 0.38689512E+04</pdfrwt>
<totfact> 0.14928041E-01</totfact>
</mgrwt>
<rwgt>
<wgt id='morphing_basis_vector_1'> +1.3920402e-05 </wgt>
<wgt id='morphing_basis_vector_2'> +9.6763984e-06 </wgt>
<wgt id='morphing_basis_vector_3'> +1.5326157e-05 </wgt>
<wgt id='morphing_basis_vector_4'> +1.0672131e-05 </wgt>
<wgt id='morphing_basis_vector_5'> +1.7364601e-05 </wgt>
</rwgt>
</event>
<event>
 4      1 +4.5322000e-10 3.87102200e+03 7.81860800e-03 7.56421400e-02
        2 -1    0    0  501    0 +0.0000000000e+00 +0.0000000000e+00 +3.4194907602e+03 3.4194907602e+03 0.0000000000e+00 0.0000e+00 -1.0000e+00
       -2 -1    0    0    0  501 -0.0000000000e+00 -0.0000000000e+00 -1.0955439455e+03 1.0955439455e+03 0.0000000000e+00 0.0000e+00 1.0000e+00
      -13  1    1    2    0    0 -1.4722536194e+03 -7.4794429194e+02 -1.5567639810e+01 1.6514217314e+03 0.0000000000e+00 0.0000e+00 1.0000e+00
       13  1    1    2    0    0 +1.4722536194e+03 +7.4794429194e+02 +2.3395144545e+03 2.8636129743e+03 0.0000000000e+00 0.0000e+00 -1.0000e+00
<mgrwt>
<rscale>  0 0.38710218E+04</rscale>
<asrwt>0</asrwt>
<pdfrwt beam="1">  1        2 0.52607550E+00 0.38710218E+04</pdfrwt>
<pdfrwt beam="2">  1       -2 0.16854522E+00 0.38710218E+04</pdfrwt>
<totfact> 0.17759366E-01</totfact>
</mgrwt>
<rwgt>
<wgt id='morphing_basis_vector_1'> +1.3895003e-05 </wgt>
<wgt id='morphing_basis_vector_2'> +9.5352129e-06 </wgt>
<wgt id='morphing_basis_vector_3'> +1.5270833e-05 </wgt>
<wgt id='morphing_basis_vector_4'> +1.0811417e-05 </wgt>
<wgt id='morphing_basis_vector_5'> +1.7411680e-05 </wgt>
</rwgt>
</event>
<event>
 4      1 +4.5322000e-10 4.30865100e+03 7.81860800e-03 7.48799500e-02
        2 -1    0    0  501    0 +0.0000000000e+00 +0.0000000000e+00 +2.4336598164e+03 2.4336598164e+03 0.0000000000e+00 0.0000e+00 -1.0000e+00
       -2 -1    0    0    0  501 -0.0000000000e+00 -0.0000000000e+00 -1.9070528295e+03 1.9070528295e+03 0.0000000000e+00 0.0000e+00 1.0000e+00
      -13  1    1    2    0    0 -1.0768724558e+03 -1.5503610572e+03 -7.8261472238e+02 2.0434675180e+03 0.0000000000e+00 0.0000e+00 1.0000e+00
       13  1    1    2    0    0 +1.0768724558e+03 +1.5503610572e+03 +1.3092217092e+03 2.2972451279e+03 0.0000000000e+00 0.0000e+00 -1.0000e+00
<mgrwt>
<rscale>  0 0.43086508E+04</rscale>
<asrwt>0</asrwt>
<pdfrwt beam="1">  1        2 0.37440920E+00 0.43086508E+04</pdfrwt>
<pdfrwt beam="2">  1       -2 0.29339274E+00 0.43086508E+04</pdfrwt>
<totfact> 0.96392585E-02</totfact>
</mgrwt>
<rwgt>
<wgt id='morphing_basis_vector_1'> +2.1301403e-05 </wgt>
<wgt id='morphing_basis_vector_2'> +1.4680507e-05 </wgt>
<wgt id='morphing_basis_vector_3'> +2.3467375e-05 </wgt>
<wgt id='morphing_basis_vector_4'> +1.6584929e-05 </wgt>
<wgt id='morphing_basis_vector_5'> +2.6775234e-05 </wgt>
</rwgt>
</event>
<event>
 4      1 +4.5322000e-10 4.00731900e+03 7.81860800e-03 7.53942000e-02
        2 -1    0    0  501    0 +0.0000000000e+00 +0.0000000000e+00 +3.3002730418e+03 3.3002730418e+03 0.0000000000e+00 0.0000e+00 -1.0000e+00
       -2 -1    0    0    0  501 -0.0000000000e+00 -0.0000000000e+00 -1.2164602126e+03 1.2164602126e+03 0.0000000000e+00 0.0000e+00 1.0000e+00
      -13  1    1    2    0    0 +1.0322099336e+03 -7.7343801605e+02 -6.8630028081e+02 1.4610516032e+03 0.0000000000e+00 0.0000e+00 1.0000e+00
       13  1    1    2    0    0 -1.0322099336e+03 +7.7343801605e+02 +2.7701131100e+03 3.0556816512e+03 0.0000000000e+00 0.0000e+00 -1.0000e+00
<mgrwt>
<rscale>  0 0.40073187E+04</rscale>
<asrwt>0</asrwt>
<pdfrwt beam="1">  1        2 0.50773431E+00 0.40073187E+04</pdfrwt>
<pdfrwt beam="2">  1       -2 0.18714773E+00 0.40073187E+04</pdfrwt>
<totfact> 0.15371071E-01</totfact>
</mgrwt>
<rwgt>
<wgt id='morphing_basis_vector_1'> +1.5894122e-05 </wgt>
<wgt id='morphing_basis_vector_2'> +1.0794731e-05 </wgt>
<wgt id='morphing_basis_vector_3'> +1.7453728e-05 </wgt>
<wgt id='morphing_basis_vector_4'> +1.2534900e-05 </wgt>
<wgt id='morphing_basis_vector_5'> +2.0019815e-05 </wgt>
</rwgt>
</event>
<event>
 4      1 +4.5322000e-10 4.28527600e+03 7.81860800e-03 7.49182900e-02
        2 -1    0    0  501    0 +0.0000000000e+00 +0.0000000000e+00 +2.7215784079e+03 2.7215784079e+03 0.0000000000e+00 0.0000e+00 1.0000e+00
       -2 -1    0    0    0  501 -0.0000000000e+00 -0.0000000000e+00 -1.6868510864e+03 1.6868510864e+03 0.0000000000e+00 0.0000e+00 -1.0000e+00
      -13  1    1    2    0    0 -1.2394880655e+03 +1.4784847692e+03 -4.4143500715e+02 1.9791697104e+03 0.0000000000e+00 0.0000e+00 -1.0000e+00
       13  1    1    2    0    0 +1.2394880655e+03 -1.4784847692e+03 +1.4761623287e+03 2.4292597839e+03 0.0000000000e+00 0.0000e+00 1.0000e+00
<mgrwt>
<rscale>  0 0.42852760E+04</rscale>
<asrwt>0</asrwt>
<pdfrwt beam="1">  1        2 0.41870437E+00 0.42852760E+04</pdfrwt>
<pdfrwt beam="2">  1       -2 0.25951555E+00 0.42852760E+04</pdfrwt>
<totfact> 0.11009215E-01</totfact>
</mgrwt>
<rwgt>
<wgt id='morphing_basis_vector_1'> +2.0871882e-05 </wgt>
<wgt id='morphing_basis_vector_2'> +1.4444317e-05 </wgt>
<wgt id='morphing_basis_vector_3'> +2.3005808e-05 </wgt>
<wgt id='morphing_basis_vector_4'> +1.6169286e-05 </wgt>
<wgt id='morphing_basis_vector_5'> +2.6191691e-05 </wgt>
</rwgt>
</event>
<event>
 4      1 +4.5322000e-10 3.93439300e+03 7.81860800e-03 7.55255900e-02
        2 -1    0    0  501    0 +0.0000000000e+00 +0.0000000000e+00 +3.0332772911e+03 3.0332772911e+03 0.0000000000e+00 0.0000e+00 1.0000e+00
       -2 -1    0    0    0  501 -0.0000000000e+00 -0.0000000000e+00 -1.2758025204e+03 1.2758025204e+03 0.0000000000e+00 0.0000e+00 -1.0000e+00
      -13  1    1    2    0    0 +4.2517966770e+02 +4.4455430950e+02 -1.1677547369e+03 1.3198702244e+03 0.0000000000e+00 0.0000e+00 -1.0000e+00
       13  1    1    2    0    0 -4.2517966770e+02 -4.4455430950e+02 +2.9252295075e+03 2.9892095871e+03 0.0000000000e+00 0.0000e+00 1.0000e+00
<mgrwt>
<rscale>  0 0.39343934E+04</rscale>
<asrwt>0</asrwt>
<pdfrwt beam="1">  1        2 0.46665804E+00 0.39343934E+04</pdfrwt>
<pdfrwt beam="2">  1       -2 0.19627731E+00 0.39343934E+04</pdfrwt>
<totfact> 0.20042071E-01</totfact>
</mgrwt>
<rwgt>
<wgt id='morphing_basis_vector_1'> +1.4763758e-05 </wgt>
<wgt id='morphing_basis_vector_2'> +1.0001572e-05 </wgt>
<wgt id='morphing_basis_vector_3'> +1.6201495e-05 </wgt>
<wgt id='morphing_basis_vector_4'> +1.1664504e-05 </wgt>
<wgt id='morphing_basis_vector_5'> +1.8596748e-05 </wgt>
</rwgt>
</event>
<event>
 4      1 +4.5322000e-10 3.90861300e+03 7.81860800e-03 7.55727300e-02
        2 -1    0    0  501    0 +0.0000000000e+00 +0.0000000000e+00 +1.7393257629e+03 1.7393257629e+03 0.0000000000e+00 0.0000e+00 1.0000e+00
       -2 -1    0    0    0  501 -0.0000000000e+00 -0.0000000000e+00 -2.1958586041e+03 2.1958586041e+03 0.0000000000e+00 0.0000e+00 -1.0000e+00
      -13  1    1    2    0    0 +3.0617715239e+02 +1.8854192587e+03 +1.8777789781e+02 1.9193256025e+03 0.0000000000e+00 0.0000e+00 -1.0000e+00
       13  1    1    2    0    0 -3.0617715239e+02 -1.8854192587e+03 -6.4431073903e+02 2.0158587644e+03 0.0000000000e+00 0.0000e+00 1.0000e+00
<mgrwt>
<rscale>  0 0.39086128E+04</rscale>
<asrwt>0</asrwt>
<pdfrwt beam="1">  1        2 0.26758858E+00 0.39086128E+04</pdfrwt>
<pdfrwt beam="2">  1       -2 0.33782440E+00 0.39086128E+04</pdfrwt>
<totfact> 0.12495025E-01</totfact>
</mgrwt>
<rwgt>
<wgt id='morphing_basis_vector_1'> +1.5482260e-05 </wgt>
<wgt id='morphing_basis_vector_2'> +1.2975246e-05 </wgt>
<wgt id='morphing_basis_vector_3'> +1.7542893e-05 </wgt>
<wgt id='morphing_basis_vector_4'> +9.0364698e-06 </wgt>
<wgt id='morphing_basis_vector_5'> +1.7918185e-05 </wgt>
</rwgt>
</event>
<event>
 4      1 +4.5322000e-10 4.15888600e+03 7.81860800e-03 7.51300000e-02
        2 -1    0    0  501    0 +0.0000000000e+00 +0.0000000000e+00 +3.7959348049e+03 3.7959348049e+03 0.0000000000e+00 0.0000e+00 -1.0000e+00
       -2 -1    0    0    0  501 -0.0000000000e+00 -0.0000000000e+00 -1.1391353077e+03 1.1391353077e+03 0.0000000000e+00 0.0000e+00 1.0000e+00
      -13  1    1    2    0    0 +6.2912330900e+02 +1.8796748373e+03 +5.8250909555e+02 2.0659841428e+03 0.0000000000e+00 0.0000e+00 1.0000e+00
       13  1    1    2    0    0 -6.2912330900e+02 -1.8796748373e+03 +2.0742904016e+03 2.8690859698e+03 0.0000000000e+00 0.0000e+00 -1.0000e+00
<mgrwt>
<rscale>  0 0.41588861E+04</rscale>
<asrwt>0</asrwt>
<pdfrwt beam="1">  1        2 0.58398996E+00 0.41588861E+04</pdfrwt>
<pdfrwt beam="2">  1       -2 0.17525159E+00 0.41588861E+04</pdfrwt>
<totfact> 0.79926670E-02</totfact>
</mgrwt>
<rwgt>
<wgt id='morphing_basis_vector_1'> +1.8621118e-05 </wgt>
<wgt id='morphing_basis_vector_2'> +1.3095087e-05 </wgt>
<wgt id='morphing_basis_vector_3'> +2.0562088e-05 </wgt>
<wgt id='morphing_basis_vector_4'> +1.4136597e-05 </wgt>
<wgt id='morphing_basis_vector_5'> +2.3206647e-05 </wgt>
</rwgt>
</event>
<event>
 4      1 +4.5322000e-10 3.85861500e+03 7.81860800e-03 7.56652300e-02
        2 -1    0    0  501    0 +0.0000000000e+00 +0.0000000000e+00 +2.7493848264e+03 2.7493848264e+03 0.0000000000e+00 0.0000e+00 -1.0000e+00
       -2 -1    0    0    0  501 -0.0000000000e+00 -0.0000000000e+00 -1.3538402262e+03 1.3538402262e+03 0.0000000000e+00 0.0000e+00 1.0000e+00
      -13  1    1    2    0    0 +1.8811506774e+03 -3.7546326460e+02 +4.7847793428e+02 1.9770284944e+03 0.0000000000e+00 0.0000e+00 1.0000e+00
       13  1    1    2    0    0 -1.8811506774e+03 +3.7546326460e+02 +9.1706666600e+02 2.1261965582e+03 0.0000000000e+00 0.0000e+00 -1.0000e+00
<mgrwt>
<rscale>  0 0.38586152E+04</rscale>
<asrwt>0</asrwt>
<pdfrwt beam="1">  1        2 0.42298228E+00 0.38586152E+04</pdfrwt>
<pdfrwt beam="2">  1       -2 0.20828311E+00 0.38586152E+04</pdfrwt>
<totfact> 0.25040193E-01</totfact>
</mgrwt>
<rwgt>
<wgt id='morphing_basis_vector_1'> +1.4003026e-05 </wgt>
<wgt id='morphing_basis_vector_2'> +1.0249756e-05 </wgt>
<wgt id='morphing_basis_vector_3'> +1.5531191e-05 </wgt>
<wgt id='morphing_basis_vector_4'> +1.0072250e-05 </wgt>
<wgt id='morphing_basis_vector_5'> +1.7138394e-05 </wgt>
</rwgt>
</event>
<event>
 4      1 +4.5322000e-10 3.87218500e+03 7.81860800e-03 7.56399800e-02
        2 -1    0    0  501    0 +0.0000000000e+00 +0.0000000000e+00 +2.2821041465e+03 2.2821041465e+03 0.0000000000e+00 0.0000e+00 -1.0000e+00
       -2 -1    0    0    0  501 -0.0000000000e+00 -0.0000000000e+00 -1.6425431756e+03 1.6425431756e+03 0.0000000000e+00 0.0000e+00 1.0000e+00
      -13  1    1    2    0    0 -1.3817739451e+03 +6.5195506426e+02 -8.8549438686e+02 1.7659119317e+03 0.0000000000e+00 0.0000e+00 1.0000e+00
       13  1    1    2    0    0 +1.3817739451e+03 -6.5195506426e+02 +1.5250553578e+03 2.1587353904e+03 0.0000000000e+00 0.0000e+00 -1.0000e+00
<mgrwt>
<rscale>  0 0.38721852E+04</rscale>
<asrwt>0</asrwt>
<pdfrwt beam="1">  1        2 0.35109295E+00 0.38721852E+04</pdfrwt>
<pdfrwt beam="2">  1       -2 0.25269895E+00 0.38721852E+04</pdfrwt>
<totfact> 0.23221595E-01</totfact>
</mgrwt>
<rwgt>
<wgt id='morphing_basis_vector_1'> +1.3888420e-05 </wgt>
<wgt id='morphing_basis_vector_2'> +9.4784385e-06 </wgt>
<wgt id='morphing_basis_vector_3'> +1.5252043e-05 </wgt>
<wgt id='morphing_basis_vector_4'> +1.0873502e-05 </wgt>
<wgt id='morphing_basis_vector_5'> +1.7436811e-05 </wgt>
</rwgt>
</event>
<event>
 4      1 +4.5322000e-10 4.05664200e+03 7.81860800e-03 7.53069400e-02
        2 -1    0    0  501    0 +0.0000000000e+00 +0.0000000000e+00 +1.3508367113e+03 1.3508367113e+03 0.0000000000e+00 0.0000e+00 -1.0000e+00
       -2 -1    0    0    0  501 -0.0000000000e+00 -0.0000000000e+00 -3.0455838194e+03 3.0455838194e+03 0.0000000000e+00 0.0000e+00 1.0000e+00
      -13  1    1    2    0    0 -9.0087462697e+02 +1.1899440144e+03 -2.3359325856e+03 2.7720250531e+03 0.0000000000e+00 0.0000e+00 1.0000e+00
       13  1    1    2    0    0 +9.0087462697e+02 -1.1899440144e+03 +6.4118547748e+02 1.6243954775e+03 0.0000000000e+00 0.0000e+00 -1.0000e+00
<mgrwt>
<rscale>  0 0.40566422E+04</rscale>
<asrwt>0</asrwt>
<pdfrwt beam="1">  1        2 0.20782104E+00 0.40566422E+04</pdfrwt>
<pdfrwt beam="2">  1       -2 0.46855135E+00 0.40566422E+04</pdfrwt>
<totfact> 0.27484507E-02</totfact>
</mgrwt>
<rwgt>
<wgt id='morphing_basis_vector_1'> +1.6700196e-05 </wgt>
<wgt id='morphing_basis_vector_2'> +1.1373495e-05 </wgt>
<wgt id='morphing_basis_vector_3'> +1.8349777e-05 </wgt>
<wgt id='morphing_basis_vector_4'> +1.3138855e-05 </wgt>
<wgt id='morphing_basis_vector_5'> +2.1026519e-05 </wgt>
</rwgt>
</event>
<event>
 4      1 +4.5322000e-10 3.90336300e+03 7.81860800e-03 7.55823800e-02
        2 -1    0    0  501    0 +0.0000000000e+00 +0.0000000000e+00 +2.1897953429e+03 2.1897953429e+03 0.0000000000e+00 0.0000e+00 -1.0000e+00
       -2 -1    0    0    0  501 -0.0000000000e+00 -0.0000000000e+00 -1.7394594513e+03 1.7394594513e+03 0.0000000000e+00 0.0000e+00 1.0000e+00
      -13  1    1    2    0    0 +1.3482878078e+03 +2.0083312852e+02 -1.1808238897e+03 1.8034852416e+03 0.0000000000e+00 0.0000e+00 1.0000e+00
       13  1    1    2    0    0 -1.3482878078e+03 -2.0083312852e+02 +1.6311597814e+03 2.1257695526e+03 0.0000000000e+00 0.0000e+00 -1.0000e+00
<mgrwt>
<rscale>  0 0.39033628E+04</rscale>
<asrwt>0</asrwt>
<pdfrwt beam="1">  1        2 0.33689159E+00 0.39033628E+04</pdfrwt>
<pdfrwt beam="2">  1       -2 0.26760914E+00 0.39033628E+04</pdfrwt>
<totfact> 0.20675915E-01</totfact>
</mgrwt>
<rwgt>
<wgt id='morphing_basis_vector_1'> +1.4321499e-05 </wgt>
<wgt id='morphing_basis_vector_2'> +9.7362889e-06 </wgt>
<wgt id='morphing_basis_vector_3'> +1.5721571e-05 </wgt>
<wgt id='morphing_basis_vector_4'> +1.1266054e-05 </wgt>
<wgt id='morphing_basis_vector_5'> +1.8011264e-05 </wgt>
</rwgt>
</event>
<event>
 4      1 +4.5322000e-10 3.91706400e+03 7.81860800e-03 7.55572400e-02
        2 -1    0    0  501    0 +0.0000000000e+00 +0.0000000000e+00 +3.5818395319e+03 3.5818395319e+03 0.0000000000e+00 0.0000e+00 -1.0000e+00
       -2 -1    0    0    0  501 -0.0000000000e+00 -0.0000000000e+00 -1.0709155350e+03 1.0709155350e+03 0.0000000000e+00 0.0000e+00 1.0000e+00
      -13  1    1    2    0    0 -2.7165896342e+02 +7.0369264318e+02 -8.9145454071e+02 1.1677641571e+03 0.0000000000e+00 0.0000e+00 1.0000e+00
       13  1    1    2    0    0 +2.7165896342e+02 -7.0369264318e+02 +3.4023785375e+03 3.4849909098e+03 0.0000000000e+00 0.0000e+00 -1.0000e+00
<mgrwt>
<rscale>  0 0.39170640E+04</rscale>
<asrwt>0</asrwt>
<pdfrwt beam="1">  1        2 0.55105223E+00 0.39170640E+04</pdfrwt>
<pdfrwt beam="2">  1       -2 0.16475624E+00 0.39170640E+04</pdfrwt>
<totfact> 0.14402662E-01</totfact>
</mgrwt>
<rwgt>
<wgt id='morphing_basis_vector_1'> +1.4507283e-05 </wgt>
<wgt id='morphing_basis_vector_2'> +9.8285373e-06 </wgt>
<wgt id='morphing_basis_vector_3'> +1.5918934e-05 </wgt>
<wgt id='morphing_basis_vector_4'> +1.1458144e-05 </wgt>
<wgt id='morphing_basis_vector_5'> +1.8269501e-05 </wgt>
</rwgt>
</event>
<event>
 4      1 +4.5322000e-10 4.54388000e+03 7.81860800e-03 7.45072700e-02
        2 -1    0    0  501    0 +0.0000000000e+00 +0.0000000000e+00 +1.9227843988e+03 1.9227843988e+03 0.0000000000e+00 0.0000e+00 -1.0000e+00
       -2 -1    0    0    0  501 -0.0000000000e+00 -0.0000000000e+00 -2.6844982975e+03 2.6844982975e+03 0.0000000000e+00 0.0000e+00 1.0000e+00
      -13  1    1    2    0    0 -2.1903236529e+03 -3.3818714919e+02 -8.8765435279e+02 2.3874292664e+03 0.0000000000e+00 0.0000e+00 1.0000e+00
       13  1    1    2    0    0 +2.1903236529e+03 +3.3818714919e+02 +1.2594045412e+02 2.2198534299e+03 0.0000000000e+00 0.0000e+00 -1.0000e+00
<mgrwt>
<rscale>  0 0.45438800E+04</rscale>
<asrwt>0</asrwt>
<pdfrwt beam="1">  1        2 0.29581299E+00 0.45438800E+04</pdfrwt>
<pdfrwt beam="2">  1       -2 0.41299974E+00 0.45438800E+04</pdfrwt>
<totfact> 0.30538451E-02</totfact>
</mgrwt>
<rwgt>
<wgt id='morphing_basis_vector_1'> +2.6614220e-05 </wgt>
<wgt id='morphing_basis_vector_2'> +1.9002544e-05 </wgt>
<wgt id='morphing_basis_vector_3'> +2.9493825e-05 </wgt>
<wgt id='morphing_basis_vector_4'> +1.9916300e-05 </wgt>
<wgt id='morphing_basis_vector_5'> +3.3095949e-05 </wgt>
</rwgt>
</event>
<event>
 4      1 +4.5322000e-10 4.24065100e+03 7.81860800e-03 7.49921900e-02
        2 -1    0    0  501    0 +0.0000000000e+00 +0.0000000000e+00 +1.9299943647e+03 1.9299943647e+03 0.0000000000e+00 0.0000e+00 1.0000e+00
       -2 -1    0    0    0  501 -0.0000000000e+00 -0.0000000000e+00 -2.3294270026e+03 2.3294270026e+03 0.0000000000e+00 0.0000e+00 -1.0000e+00
      -13  1    1    2    0    0 +2.6971818647e+02 -4.4733810984e+02 -2.2637869334e+03 2.3232715219e+03 0.0000000000e+00 0.0000e+00 -1.0000e+00
       13  1    1    2    0    0 -2.6971818647e+02 +4.4733810984e+02 +1.8643542955e+03 1.9361498454e+03 0.0000000000e+00 0.0000e+00 1.0000e+00
<mgrwt>
<rscale>  0 0.42406514E+04</rscale>
<asrwt>0</asrwt>
<pdfrwt beam="1">  1        2 0.29692221E+00 0.42406514E+04</pdfrwt>
<pdfrwt beam="2">  1       -2 0.35837339E+00 0.42406514E+04</pdfrwt>
<totfact> 0.70041757E-02</totfact>
</mgrwt>
<rwgt>
<wgt id='morphing_basis_vector_1'> +1.9896093e-05 </wgt>
<wgt id='morphing_basis_vector_2'> +1.3489686e-05 </wgt>
<wgt id='morphing_basis_vector_3'> +2.1863485e-05 </wgt>
<wgt id='morphing_basis_vector_4'> +1.5765615e-05 </wgt>
<wgt id='morphing_basis_vector_5'> +2.5134925e-05 </wgt>
</rwgt>
</event>
<event>
 4      1 +4.5322000e-10 4.59138500e+03 7.81860800e-03 7.44347700e-02
        2 -1    0    0  501    0 +0.0000000000e+00 +0.0000000000e+00 +2.3216503269e+03 2.3216503269e+03 0.0000000000e+00 0.0000e+00 -1.0000e+00
       -2 -1    0    0    0  501 -0.0000000000e+00 -0.0000000000e+00 -2.2700245032e+03 2.2700245032e+03 0.0000000000e+00 0.0000e+00 1.0000e+00
      -13  1    1    2    0    0 +5.9909068816e+01 +1.3979149535e+03 -1.7943152720e+03 2.2753730703e+03 0.0000000000e+00 0.0000e+00 1.0000e+00
       13  1    1    2    0    0 -5.9909068816e+01 -1.3979149535e+03 +1.8459410956e+03 2.3163017598e+03 0.0000000000e+00 0.0000e+00 -1.0000e+00
<mgrwt>
<rscale>  0 0.45913846E+04</rscale>
<asrwt>0</asrwt>
<pdfrwt beam="1">  1        2 0.35717698E+00 0.45913846E+04</pdfrwt>
<pdfrwt beam="2">  1       -2 0.34923454E+00 0.45913846E+04</pdfrwt>
<totfact> 0.46723726E-02</totfact>
</mgrwt>
<rwgt>
<wgt id='morphing_basis_vector_1'> +2.7318813e-05 </wgt>
<wgt id='morphing_basis_vector_2'> +1.8570385e-05 </wgt>
<wgt id='morphing_basis_vector_3'> +3.0065289e-05 </wgt>
<wgt id='morphing_basis_vector_4'> +2.1661252e-05 </wgt>
<wgt id='morphing_basis_vector_5'> +3.4582202e-05 </wgt>
</rwgt>
</event>
<event>
 4      1 +4.5322000e-10 4.06782000e+03 7.81860800e-03 7.52873400e-02
        2 -1    0    0  501    0 +0.0000000000e+00 +0.0000000000e+00 +1.4837900079e+03 1.4837900079e+03 0.0000000000e+00 0.0000e+00 -1.0000e+00
       -2 -1    0    0    0  501 -0.0000000000e+00 -0.0000000000e+00 -2.7879890032e+03 2.7879890032e+03 0.0000000000e+00 0.0000e+00 1.0000e+00
      -13  1    1    2    0    0 +8.4986265164e+02 +1.0862594829e+03 -2.2218962810e+03 2.6151576003e+03 0.0000000000e+00 0.0000e+00 1.0000e+00
       13  1    1    2    0    0 -8.4986265164e+02 -1.0862594829e+03 +9.1769728566e+02 1.6566214108e+03 0.0000000000e+00 0.0000e+00 -1.0000e+00
<mgrwt>
<rscale>  0 0.40678202E+04</rscale>
<asrwt>0</asrwt>
<pdfrwt beam="1">  1        2 0.22827539E+00 0.40678202E+04</pdfrwt>
<pdfrwt beam="2">  1       -2 0.42892138E+00 0.40678202E+04</pdfrwt>
<totfact> 0.43644431E-02</totfact>
</mgrwt>
<rwgt>
<wgt id='morphing_basis_vector_1'> +1.6874724e-05 </wgt>
<wgt id='morphing_basis_vector_2'> +1.1471555e-05 </wgt>
<wgt id='morphing_basis_vector_3'> +1.8537736e-05 </wgt>
<wgt id='morphing_basis_vector_4'> +1.3304807e-05 </wgt>
<wgt id='morphing_basis_vector_5'> +2.1262012e-05 </wgt>
</rwgt>
</event>
<event>
 4      1 +4.5322000e-10 4.04838900e+03 7.81860800e-03 7.53214500e-02
        2 -1    0    0  501    0 +0.0000000000e+00 +0.0000000000e+00 +3.5973690666e+03 3.5973690666e+03 0.0000000000e+00 0.0000e+00 -1.0000e+00
       -2 -1    0    0    0  501 -0.0000000000e+00 -0.0000000000e+00 -1.1389890211e+03 1.1389890211e+03 0.0000000000e+00 0.0000e+00 1.0000e+00
      -13  1    1    2    0    0 -1.3387566178e+02 -2.0191973602e+03 +1.2850929084e+03 2.3971951225e+03 0.0000000000e+00 0.0000e+00 1.0000e+00
       13  1    1    2    0    0 +1.3387566178e+02 +2.0191973602e+03 +1.1732871371e+03 2.3391629653e+03 0.0000000000e+00 0.0000e+00 -1.0000e+00
<mgrwt>
<rscale>  0 0.40483892E+04</rscale>
<asrwt>0</asrwt>
<pdfrwt beam="1">  1        2 0.55344139E+00 0.40483892E+04</pdfrwt>
<pdfrwt beam="2">  1       -2 0.17522908E+00 0.40483892E+04</pdfrwt>
<totfact> 0.11496674E-01</totfact>
</mgrwt>
<rwgt>
<wgt id='morphing_basis_vector_1'> +1.7202630e-05 </wgt>
<wgt id='morphing_basis_vector_2'> +1.3154402e-05 </wgt>
<wgt id='morphing_basis_vector_3'> +1.9224170e-05 </wgt>
<wgt id='morphing_basis_vector_4'> +1.1683201e-05 </wgt>
<wgt id='morphing_basis_vector_5'> +2.0742713e-05 </wgt>
</rwgt>
</event>
<event>
 4      1 +4.5322000e-10 3.97519300e+03 7.81860800e-03 7.54517300e-02
        2 -1    0    0  501    0 +0.0000000000e+00 +0.0000000000e+00 +2.2656641699e+03 2.2656641699e+03 0.0000000000e+00 0.0000e+00 -1.0000e+00
       -2 -1    0    0    0  501 -0.0000000000e+00 -0.0000000000e+00 -1.7436566040e+03 1.7436566040e+03 0.0000000000e+00 0.0000e+00 1.0000e+00
      -13  1    1    2    0    0 +1.6453615216e+02 +1.7523441149e+03 -6.7037325250e+02 1.8833964904e+03 0.0000000000e+00 0.0000e+00 1.0000e+00
       13  1    1    2    0    0 -1.6453615216e+02 -1.7523441149e+03 +1.1923808184e+03 2.1259242834e+03 0.0000000000e+00 0.0000e+00 -1.0000e+00
<mgrwt>
<rscale>  0 0.39751932E+04</rscale>
<asrwt>0</asrwt>
<pdfrwt beam="1">  1        2 0.34856372E+00 0.39751932E+04</pdfrwt>
<pdfrwt beam="2">  1       -2 0.26825486E+00 0.39751932E+04</pdfrwt>
<totfact> 0.18403072E-01</totfact>
</mgrwt>
<rwgt>
<wgt id='morphing_basis_vector_1'> +1.5464718e-05 </wgt>
<wgt id='morphing_basis_vector_2'> +1.0663944e-05 </wgt>
<wgt id='morphing_basis_vector_3'> +1.7015796e-05 </wgt>
<wgt id='morphing_basis_vector_4'> +1.1984391e-05 </wgt>
<wgt id='morphing_basis_vector_5'> +1.9369794e-05 </wgt>
</rwgt>
</event>
<event>
 4      1 +4.5322000e-10 3.86256300e+03 7.81860800e-03 7.56578700e-02
        2 -1    0    0  501    0 +0.0000000000e+00 +0.0000000000e+00 +1.9047284106e+03 1.9047284106e+03 0.0000000000e+00 0.0000e+00 1.0000e+00
       -2 -1    0    0    0  501 -0.0000000000e+00 -0.0000000000e+00 -1.9582049026e+03 1.9582049026e+03 0.0000000000e+00 0.0000e+00 -1.0000e+00
      -13  1    1    2    0    0 +5.5985515590e+02 +1.8444572038e+03 +9.3224654768e+01 1.9298059510e+03 0.0000000000e+00 0.0000e+00 -1.0000e+00
       13  1    1    2    0    0 -5.5985515590e+02 -1.8444572038e+03 -1.4670114677e+02 1.9331273622e+03 0.0000000000e+00 0.0000e+00 1.0000e+00
<mgrwt>
<rscale>  0 0.38625631E+04</rscale>
<asrwt>0</asrwt>
<pdfrwt beam="1">  1        2 0.29303514E+00 0.38625631E+04</pdfrwt>
<pdfrwt beam="2">  1       -2 0.30126230E+00 0.38625631E+04</pdfrwt>
<totfact> 0.17757561E-01</totfact>
</mgrwt>
<rwgt>
<wgt id='morphing_basis_vector_1'> +1.4349288e-05 </wgt>
<wgt id='morphing_basis_vector_2'> +1.1141827e-05 </wgt>
<wgt id='morphing_basis_vector_3'> +1.6057774e-05 </wgt>
<wgt id='morphing_basis_vector_4'> +9.5029696e-06 </wgt>
<wgt id='morphing_basis_vector_5'> +1.7158194e-05 </wgt>
</rwgt>
</event>
<event>
 4      1 +4.5322000e-10 3.99611600e+03 7.81860800e-03 7.54142000e-02
        2 -1    0    0  501    0 +0.0000000000e+00 +0.0000000000e+00 +2.3194100078e+03 2.3194100078e+03 0.0000000000e+00 0.0000e+00 1.0000e+00
       -2 -1    0    0    0  501 -0.0000000000e+00 -0.0000000000e+00 -1.7212287778e+03 1.7212287778e+03 0.0000000000e+00 0.0000e+00 -1.0000e+00
      -13  1    1    2    0    0 +1.4837331539e+03 -5.8030929774e+02 -9.2016849749e+02 1.8398187457e+03 0.0000000000e+00 0.0000e+00 -1.0000e+00
       13  1    1    2    0    0 -1.4837331539e+03 +5.8030929774e+02 +1.5183497275e+03 2.2008200399e+03 0.0000000000e+00 0.0000e+00 1.0000e+00
<mgrwt>
<rscale>  0 0.39961157E+04</rscale>
<asrwt>0</asrwt>
<pdfrwt beam="1">  1        2 0.35683231E+00 0.39961157E+04</pdfrwt>
<pdfrwt beam="2">  1       -2 0.26480443E+00 0.39961157E+04</pdfrwt>
<totfact> 0.18056965E-01</totfact>
</mgrwt>
<rwgt>
<wgt id='morphing_basis_vector_1'> +1.5745661e-05 </wgt>
<wgt id='morphing_basis_vector_2'> +1.0755985e-05 </wgt>
<wgt id='morphing_basis_vector_3'> +1.7303764e-05 </wgt>
<wgt id='morphing_basis_vector_4'> +1.2336201e-05 </wgt>
<wgt id='morphing_basis_vector_5'> +1.9790912e-05 </wgt>
</rwgt>
</event>
<event>
 4      1 +4.5322000e-10 3.91833400e+03 7.81860800e-03 7.55549100e-02
        2 -1    0    0  501    0 +0.0000000000e+00 +0.0000000000e+00 +2.0616464958e+03 2.0616464958e+03 0.0000000000e+00 0.0000e+00 -1.0000e+00
       -2 -1    0    0    0  501 -0.0000000000e+00 -0.0000000000e+00 -1.8617810854e+03 1.8617810854e+03 0.0000000000e+00 0.0000e+00 1.0000e+00
      -13  1    1    2    0    0 +3.2083155601e+02 +2.6825809236e+02 -1.8165668809e+03 1.8640843662e+03 0.0000000000e+00 0.0000e+00 1.0000e+00
       13  1    1    2    0    0 -3.2083155601e+02 -2.6825809236e+02 +2.0164322914e+03 2.0593432150e+03 0.0000000000e+00 0.0000e+00 -1.0000e+00
<mgrwt>
<rscale>  0 0.39183335E+04</rscale>
<asrwt>0</asrwt>
<pdfrwt beam="1">  1        2 0.31717638E+00 0.39183335E+04</pdfrwt>
<pdfrwt beam="2">  1       -2 0.28642786E+00 0.39183335E+04</pdfrwt>
<totfact> 0.18177390E-01</totfact>
</mgrwt>
<rwgt>
<wgt id='morphing_basis_vector_1'> +1.4525125e-05 </wgt>
<wgt id='morphing_basis_vector_2'> +9.8386902e-06 </wgt>
<wgt id='morphing_basis_vector_3'> +1.5938175e-05 </wgt>
<wgt id='morphing_basis_vector_4'> +1.1474928e-05 </wgt>
<wgt id='morphing_basis_vector_5'> +1.8293474e-05 </wgt>
</rwgt>
</event>
<event>
 4      1 +4.5322000e-10 4.01305100e+03 7.81860800e-03 7.53839900e-02
        2 -1    0    0  501    0 +0.0000000000e+00 +0.0000000000e+00 +3.7475826546e+03 3.7475826546e+03 0.0000000000e+00 0.0000e+00 1.0000e+00
       -2 -1    0    0    0  501 -0.0000000000e+00 -0.0000000000e+00 -1.0743313191e+03 1.0743313191e+03 0.0000000000e+00 0.0000e+00 -1.0000e+00
      -13  1    1    2    0    0 -1.1284973415e+03 -1.1595145077e+03 -8.9216810537e+01 1.6204751719e+03 0.0000000000e+00 0.0000e+00 -1.0000e+00
       13  1    1    2    0    0 +1.1284973415e+03 +1.1595145077e+03 +2.7624681461e+03 3.2014388018e+03 0.0000000000e+00 0.0000e+00 1.0000e+00
<mgrwt>
<rscale>  0 0.40130514E+04</rscale>
<asrwt>0</asrwt>
<pdfrwt beam="1">  1        2 0.57655117E+00 0.40130514E+04</pdfrwt>
<pdfrwt beam="2">  1       -2 0.16528174E+00 0.40130514E+04</pdfrwt>
<totfact> 0.10562222E-01</totfact>
</mgrwt>
<rwgt>
<wgt id='morphing_basis_vector_1'> +1.6015974e-05 </wgt>
<wgt id='morphing_basis_vector_2'> +1.0948137e-05 </wgt>
<wgt id='morphing_basis_vector_3'> +1.7603810e-05 </wgt>
<wgt id='morphing_basis_vector_4'> +1.2541181e-05 </wgt>
<wgt id='morphing_basis_vector_5'> +2.0129693e-05 </wgt>
</rwgt>
</event>
<event>
 4      1 +4.5322000e-10 4.17065200e+03 7.81860800e-03 7.51099800e-02
        2 -1    0    0  501    0 +0.0000000000e+00 +0.0000000000e+00 +2.7664889254e+03 2.7664889254e+03 0.0000000000e+00 0.0000e+00 -1.0000e+00
       -2 -1    0    0    0  501 -0.0000000000e+00 -0.0000000000e+00 -1.5718786336e+03 1.5718786336e+03 0.0000000000e+00 0.0000e+00 1.0000e+00
      -13  1    1    2    0    0 +7.8889986889e+02 +1.5729049826e+03 -5.6670775322e+02 1.8486618850e+03 0.0000000000e+00 0.0000e+00 1.0000e+00
       13  1    1    2    0    0 -7.8889986889e+02 -1.5729049826e+03 +1.7613180450e+03 2.4897056740e+03 0.0000000000e+00 0.0000e+00 -1.0000e+00
<mgrwt>
<rscale>  0 0.41706521E+04</rscale>
<asrwt>0</asrwt>
<pdfrwt beam="1">  1        2 0.42561368E+00 0.41706521E+04</pdfrwt>
<pdfrwt beam="2">  1       -2 0.24182748E+00 0.41706521E+04</pdfrwt>
<totfact> 0.13806540E-01</totfact>
</mgrwt>
<rwgt>
<wgt id='morphing_basis_vector_1'> +1.8688619e-05 </wgt>
<wgt id='morphing_basis_vector_2'> +1.2823016e-05 </wgt>
<wgt id='morphing_basis_vector_3'> +2.0565524e-05 </wgt>
<wgt id='morphing_basis_vector_4'> +1.4601187e-05 </wgt>
<wgt id='morphing_basis_vector_5'> +2.3496890e-05 </wgt>
</rwgt>
</event>
<event>
 4      1 +4.5322000e-10 4.40997900e+03 7.81860800e-03 7.47165300e-02
        2 -1    0    0  501    0 +0.0000000000e+00 +0.0000000000e+00 +3.1314107895e+03 3.1314107895e+03 0.0000000000e+00 0.0000e+00 -1.0000e+00
       -2 -1    0    0    0  501 -0.0000000000e+00 -0.0000000000e+00 -1.5526477869e+03 1.5526477869e+03 0.0000000000e+00 0.0000e+00 1.0000e+00
      -13  1    1    2    0    0 -2.1138072017e+03 +4.2845486576e+02 +1.2763787792e+03 2.5061718309e+03 0.0000000000e+00 0.0000e+00 1.0000e+00
       13  1    1    2    0    0 +2.1138072017e+03 -4.2845486576e+02 +3.0238422346e+02 2.1778867455e+03 0.0000000000e+00 0.0000e+00 -1.0000e+00
<mgrwt>
<rscale>  0 0.44099787E+04</rscale>
<asrwt>0</asrwt>
<pdfrwt beam="1">  1        2 0.48175550E+00 0.44099787E+04</pdfrwt>
<pdfrwt beam="2">  1       -2 0.23886889E+00 0.44099787E+04</pdfrwt>
<totfact> 0.82533000E-02</totfact>
</mgrwt>
<rwgt>
<wgt id='morphing_basis_vector_1'> +2.5011721e-05 </wgt>
<wgt id='morphing_basis_vector_2'> +2.0938740e-05 </wgt>
<wgt id='morphing_basis_vector_3'> +2.8406237e-05 </wgt>
<wgt id='morphing_basis_vector_4'> +1.4717745e-05 </wgt>
<wgt id='morphing_basis_vector_5'> +2.9103951e-05 </wgt>
</rwgt>
</event>
<event>
 4      1 +4.5322000e-10 3.94146700e+03 7.81860800e-03 7.55127200e-02
        2 -1    0    0  501    0 +0.0000000000e+00 +0.0000000000e+00 +1.5243882069e+03 1.5243882069e+03 0.0000000000e+00 0.0000e+00 -1.0000e+00
       -2 -1    0    0    0  501 -0.0000000000e+00 -0.0000000000e+00 -2.5477700939e+03 2.5477700939e+03 0.0000000000e+00 0.0000e+00 1.0000e+00
      -13  1    1    2    0    0 +1.3061858534e+03 +9.4196811857e+02 +6.6191710941e+02 1.7411374672e+03 0.0000000000e+00 0.0000e+00 1.0000e+00
       13  1    1    2    0    0 -1.3061858534e+03 -9.4196811857e+02 -1.6852989964e+03 2.3310208337e+03 0.0000000000e+00 0.0000e+00 -1.0000e+00
<mgrwt>
<rscale>  0 0.39414671E+04</rscale>
<asrwt>0</asrwt>
<pdfrwt beam="1">  1        2 0.23452126E+00 0.39414671E+04</pdfrwt>
<pdfrwt beam="2">  1       -2 0.39196463E+00 0.39414671E+04</pdfrwt>
<totfact> 0.73336226E-02</totfact>
</mgrwt>
<rwgt>
<wgt id='morphing_basis_vector_1'> +1.8199577e-05 </wgt>
<wgt id='morphing_basis_vector_2'> +1.9862177e-05 </wgt>
<wgt id='morphing_basis_vector_3'> +2.1655992e-05 </wgt>
<wgt id='morphing_basis_vector_4'> +4.7098370e-06 </wgt>
<wgt id='morphing_basis_vector_5'> +1.8145389e-05 </wgt>
</rwgt>
</event>
<event>
 4      1 +4.5322000e-10 4.11789100e+03 7.81860800e-03 7.52003200e-02
        2 -1    0    0  501    0 +0.0000000000e+00 +0.0000000000e+00 +3.9922206751e+03 3.9922206751e+03 0.0000000000e+00 0.0000e+00 1.0000e+00
       -2 -1    0    0    0  501 -0.0000000000e+00 -0.0000000000e+00 -1.0618791113e+03 1.0618791113e+03 0.0000000000e+00 0.0000e+00 -1.0000e+00
      -13  1    1    2    0    0 +1.0026599541e+03 +4.3412506808e+02 -6.7671227888e+02 1.2851968980e+03 0.0000000000e+00 0.0000e+00 -1.0000e+00
       13  1    1    2    0    0 -1.0026599541e+03 -4.3412506808e+02 +3.6070538427e+03 3.7689028884e+03 0.0000000000e+00 0.0000e+00 1.0000e+00
<mgrwt>
<rscale>  0 0.41178906E+04</rscale>
<asrwt>0</asrwt>
<pdfrwt beam="1">  1        2 0.61418779E+00 0.41178906E+04</pdfrwt>
<pdfrwt beam="2">  1       -2 0.16336602E+00 0.41178906E+04</pdfrwt>
<totfact> 0.68459369E-02</totfact>
</mgrwt>
<rwgt>
<wgt id='morphing_basis_vector_1'> +1.7704873e-05 </wgt>
<wgt id='morphing_basis_vector_2'> +1.2010729e-05 </wgt>
<wgt id='morphing_basis_vector_3'> +1.9447996e-05 </wgt>
<wgt id='morphing_basis_vector_4'> +1.4000454e-05 </wgt>
<wgt id='morphing_basis_vector_5'> +2.2335630e-05 </wgt>
</rwgt>
</event>
<event>
 4      1 +4.5322000e-10 4.25673800e+03 7.81860800e-03 7.49654400e-02
        2 -1    0    0  501    0 +0.0000000000e+00 +0.0000000000e+00 +3.3086057535e+03 3.3086057535e+03 0.0000000000e+00 0.0000e+00 1.0000e+00
       -2 -1    0    0    0  501 -0.0000000000e+00 -0.0000000000e+00 -1.3691432804e+03 1.3691432804e+03 0.0000000000e+00 0.0000e+00 -1.0000e+00
      -13  1    1    2    0    0 -5.3140340595e+02 +8.9186252800e+02 -1.0720283416e+03 1.4923314356e+03 0.0000000000e+00 0.0000e+00 -1.0000e+00
       13  1    1    2    0    0 +5.3140340595e+02 -8.9186252800e+02 +3.0114908147e+03 3.1854175983e+03 0.0000000000e+00 0.0000e+00 1.0000e+00
<mgrwt>
<rscale>  0 0.42567383E+04</rscale>
<asrwt>0</asrwt>
<pdfrwt beam="1">  1        2 0.50901627E+00 0.42567383E+04</pdfrwt>
<pdfrwt beam="2">  1       -2 0.21063743E+00 0.42567383E+04</pdfrwt>
<totfact> 0.10002694E-01</totfact>
</mgrwt>
<rwgt>
<wgt id='morphing_basis_vector_1'> +2.0201920e-05 </wgt>
<wgt id='morphing_basis_vector_2'> +1.3705726e-05 </wgt>
<wgt id='morphing_basis_vector_3'> +2.2202814e-05 </wgt>
<wgt id='morphing_basis_vector_4'> +1.5999636e-05 </wgt>
<wgt id='morphing_basis_vector_5'> +2.5519564e-05 </wgt>
</rwgt>
</event>
<event>
 4      1 +4.5322000e-10 4.04670200e+03 7.81860800e-03 7.53244200e-02
        2 -1    0    0  501    0 +0.0000000000e+00 +0.0000000000e+00 +2.3299863973e+03 2.3299863973e+03 0.0000000000e+00 0.0000e+00 -1.0000e+00
       -2 -1    0    0    0  501 -0.0000000000e+00 -0.0000000000e+00 -1.7570697295e+03 1.7570697295e+03 0.0000000000e+00 0.0000e+00 1.0000e+00
      -13  1    1    2    0    0 -5.2600124382e+02 -1.1061218220e+03 -1.3401192866e+03 1.8155171428e+03 0.0000000000e+00 0.0000e+00 1.0000e+00
       13  1    1    2    0    0 +5.2600124382e+02 +1.1061218220e+03 +1.9130359543e+03 2.2715389840e+03 0.0000000000e+00 0.0000e+00 -1.0000e+00
<mgrwt>
<rscale>  0 0.40467017E+04</rscale>
<asrwt>0</asrwt>
<pdfrwt beam="1">  1        2 0.35845945E+00 0.40467017E+04</pdfrwt>
<pdfrwt beam="2">  1       -2 0.27031842E+00 0.40467017E+04</pdfrwt>
<totfact> 0.16252850E-01</totfact>
</mgrwt>
<rwgt>
<wgt id='morphing_basis_vector_1'> +1.6521726e-05 </wgt>
<wgt id='morphing_basis_vector_2'> +1.1215057e-05 </wgt>
<wgt id='morphing_basis_vector_3'> +1.8144638e-05 </wgt>
<wgt id='morphing_basis_vector_4'> +1.3044204e-05 </wgt>
<wgt id='morphing_basis_vector_5'> +2.0823047e-05 </wgt>
</rwgt>
</event>
<event>
 4      1 +4.5322000e-10 3.95660300e+03 7.81860800e-03 7.54852700e-02
        2 -1    0    0  501    0 +0.0000000000e+00 +0.0000000000e+00 +3.3905462302e+03 3.3905462302e+03 0.0000000000e+00 0.0000e+00 -1.0000e+00
       -2 -1    0    0    0  501 -0.0000000000e+00 -0.0000000000e+00 -1.1542911775e+03 1.1542911775e+03 0.0000000000e+00 0.0000e+00 1.0000e+00
      -13  1    1    2    0    0 +8.8092810041e+02 +1.3824628134e+03 +2.3902208078e+03 2.8983431920e+03 0.0000000000e+00 0.0000e+00 -1.0000e+00
       13  1    1    2    0    0 -8.8092810041e+02 -1.3824628134e+03 -1.5396575505e+02 1.6464942157e+03 0.0000000000e+00 0.0000e+00 1.0000e+00
<mgrwt>
<rscale>  0 0.39566034E+04</rscale>
<asrwt>0</asrwt>
<pdfrwt beam="1">  1        2 0.52162249E+00 0.39566034E+04</pdfrwt>
<pdfrwt beam="2">  1       -2 0.17758326E+00 0.39566034E+04</pdfrwt>
<totfact> 0.15745905E-01</totfact>
</mgrwt>
<rwgt>
<wgt id='morphing_basis_vector_1'> +1.8346656e-05 </wgt>
<wgt id='morphing_basis_vector_2'> +1.9777902e-05 </wgt>
<wgt id='morphing_basis_vector_3'> +2.1778772e-05 </wgt>
<wgt id='morphing_basis_vector_4'> +5.0633233e-06 </wgt>
<wgt id='morphing_basis_vector_5'> +1.8450439e-05 </wgt>
</rwgt>
</event>
<event>
 4      1 +4.5322000e-10 4.05271400e+03 7.81860800e-03 7.53138400e-02
        2 -1    0    0  501    0 +0.0000000000e+00 +0.0000000000e+00 +3.1918063956e+03 3.1918063956e+03 0.0000000000e+00 0.0000e+00 -1.0000e+00
       -2 -1    0    0    0  501 -0.0000000000e+00 -0.0000000000e+00 -1.2864572983e+03 1.2864572983e+03 0.0000000000e+00 0.0000e+00 1.0000e+00
      -13  1    1    2    0    0 -3.1719726227e+02 -1.9434213869e+03 +4.2432350603e+02 2.0143364238e+03 0.0000000000e+00 0.0000e+00 1.0000e+00
       13  1    1    2    0    0 +3.1719726227e+02 +1.9434213869e+03 +1.4810255913e+03 2.4639272701e+03 0.0000000000e+00 0.0000e+00 -1.0000e+00
<mgrwt>
<rscale>  0 0.40527140E+04</rscale>
<asrwt>0</asrwt>
<pdfrwt beam="1">  1        2 0.49104713E+00 0.40527140E+04</pdfrwt>
<pdfrwt beam="2">  1       -2 0.19791651E+00 0.40527140E+04</pdfrwt>
<totfact> 0.15133287E-01</totfact>
</mgrwt>
<rwgt>
<wgt id='morphing_basis_vector_1'> +1.6859626e-05 </wgt>
<wgt id='morphing_basis_vector_2'> +1.1987091e-05 </wgt>
<wgt id='morphing_basis_vector_3'> +1.8638044e-05 </wgt>
<wgt id='morphing_basis_vector_4'> +1.2614376e-05 </wgt>
<wgt id='morphing_basis_vector_5'> +2.0905342e-05 </wgt>
</rwgt>
</event>
<event>
 4      1 +4.5322000e-10 4.01680100e+03 7.81860800e-03 7.53773300e-02
        2 -1    0    0  501    0 +0.0000000000e+00 +0.0000000000e+00 +4.4331464326e+03 4.4331464326e+03 0.0000000000e+00 0.0000e+00 -1.0000e+00
       -2 -1    0    0    0  501 -0.0000000000e+00 -0.0000000000e+00 -9.0988909767e+02 9.0988909767e+02 0.0000000000e+00 0.0000e+00 1.0000e+00
      -13  1    1    2    0    0 -1.5606126527e+03 -8.8254711225e+02 +5.5764272452e+02 1.8775959803e+03 0.0000000000e+00 0.0000e+00 1.0000e+00
       13  1    1    2    0    0 +1.5606126527e+03 +8.8254711225e+02 +2.9656146104e+03 3.4654395499e+03 0.0000000000e+00 0.0000e+00 -1.0000e+00
<mgrwt>
<rscale>  0 0.40168005E+04</rscale>
<asrwt>0</asrwt>
<pdfrwt beam="1">  1        2 0.68202252E+00 0.40168005E+04</pdfrwt>
<pdfrwt beam="2">  1       -2 0.13998294E+00 0.40168005E+04</pdfrwt>
<totfact> 0.42187886E-02</totfact>
</mgrwt>
<rwgt>
<wgt id='morphing_basis_vector_1'> +1.6125169e-05 </wgt>
<wgt id='morphing_basis_vector_2'> +1.1134712e-05 </wgt>
<wgt id='morphing_basis_vector_3'> +1.7749214e-05 </wgt>
<wgt id='morphing_basis_vector_4'> +1.2483478e-05 </wgt>
<wgt id='morphing_basis_vector_5'> +2.0196655e-05 </wgt>
</rwgt>
</event>
<event>
 4      1 +4.5322000e-10 3.91613500e+03 7.81860800e-03 7.55589400e-02
        2 -1    0    0  501    0 +0.0000000000e+00 +0.0000000000e+00 +2.9924912480e+03 2.9924912480e+03 0.0000000000e+00 0.0000e+00 1.0000e+00
       -2 -1    0    0    0  501 -0.0000000000e+00 -0.0000000000e+00 -1.2812161587e+03 1.2812161587e+03 0.0000000000e+00 0.0000e+00 -1.0000e+00
      -13  1    1    2    0    0 -1.9062453542e+03 -2.1590666961e+02 +4.2787687813e+02 1.9655700606e+03 0.0000000000e+00 0.0000e+00 -1.0000e+00
       13  1    1    2    0    0 +1.9062453542e+03 +2.1590666961e+02 +1.2833982111e+03 2.3081373461e+03 0.0000000000e+00 0.0000e+00 1.0000e+00
<mgrwt>
<rscale>  0 0.39161349E+04</rscale>
<asrwt>0</asrwt>
<pdfrwt beam="1">  1        2 0.46038327E+00 0.39161349E+04</pdfrwt>
<pdfrwt beam="2">  1       -2 0.19711018E+00 0.39161349E+04</pdfrwt>
<totfact> 0.21044199E-01</totfact>
</mgrwt>
<rwgt>
<wgt id='morphing_basis_vector_1'> +1.4743173e-05 </wgt>
<wgt id='morphing_basis_vector_2'> +1.0552913e-05 </wgt>
<wgt id='morphing_basis_vector_3'> +1.6303731e-05 </wgt>
<wgt id='morphing_basis_vector_4'> +1.0919781e-05 </wgt>
<wgt id='morphing_basis_vector_5'> +1.8208174e-05 </wgt>
</rwgt>
</event>
<event>
 4      1 +4.5322000e-10 4.47759400e+03 7.81860800e-03 7.46099400e-02
        2 -1    0    0  501    0 +0.0000000000e+00 +0.0000000000e+00 +2.5396073432e+03 2.5396073432e+03 0.0000000000e+00 0.0000e+00 -1.0000e+00
       -2 -1    0    0    0  501 -0.0000000000e+00 -0.0000000000e+00 -1.9736165286e+03 1.9736165286e+03 0.0000000000e+00 0.0000e+00 1.0000e+00
      -13  1    1    2    0    0 +4.2074399429e+02 +4.5798934052e+02 -1.8848001592e+03 1.9847547417e+03 0.0000000000e+00 0.0000e+00 1.0000e+00
       13  1    1    2    0    0 -4.2074399429e+02 -4.5798934052e+02 +2.4507909738e+03 2.5284691301e+03 0.0000000000e+00 0.0000e+00 -1.0000e+00
<mgrwt>
<rscale>  0 0.44775936E+04</rscale>
<asrwt>0</asrwt>
<pdfrwt beam="1">  1        2 0.39070882E+00 0.44775936E+04</pdfrwt>
<pdfrwt beam="2">  1       -2 0.30363331E+00 0.44775936E+04</pdfrwt>
<totfact> 0.70161682E-02</totfact>
</mgrwt>
<rwgt>
<wgt id='morphing_basis_vector_1'> +2.4706460e-05 </wgt>
<wgt id='morphing_basis_vector_2'> +1.6761048e-05 </wgt>
<wgt id='morphing_basis_vector_3'> +2.7173406e-05 </wgt>
<wgt id='morphing_basis_vector_4'> +1.9612710e-05 </wgt>
<wgt id='morphing_basis_vector_5'> +3.1269475e-05 </wgt>
</rwgt>
</event>
<event>
 4      1 +4.5322000e-10 4.04936900e+03 7.81860800e-03 7.53197300e-02
        2 -1    0    0  501    0 +0.0000000000e+00 +0.0000000000e+00 +2.1559473699e+03 2.1559473699e+03 0.0000000000e+00 0.0000e+00 -1.0000e+00
       -2 -1    0    0    0  501 -0.0000000000e+00 -0.0000000000e+00 -1.9014130177e+03 1.9014130177e+03 0.0000000000e+00 0.0000e+00 1.0000e+00
      -13  1    1    2    0    0 -8.8302991697e+02 +9.7626933454e+02 -1.4141130624e+03 1.9319832818e+03 0.0000000000e+00 0.0000e+00 1.0000e+00
       13  1    1    2    0    0 +8.8302991697e+02 -9.7626933454e+02 +1.6686474146e+03 2.1253771058e+03 0.0000000000e+00 0.0000e+00 -1.0000e+00
<mgrwt>
<rscale>  0 0.40493685E+04</rscale>
<asrwt>0</asrwt>
<pdfrwt beam="1">  1        2 0.33168421E+00 0.40493685E+04</pdfrwt>
<pdfrwt beam="2">  1       -2 0.29252508E+00 0.40493685E+04</pdfrwt>
<totfact> 0.14455213E-01</totfact>
</mgrwt>
<rwgt>
<wgt id='morphing_basis_vector_1'> +1.6568960e-05 </wgt>
<wgt id='morphing_basis_vector_2'> +1.1255927e-05 </wgt>
<wgt id='morphing_basis_vector_3'> +1.8198693e-05 </wgt>
<wgt id='morphing_basis_vector_4'> +1.3070625e-05 </wgt>
<wgt id='morphing_basis_vector_5'> +2.0877579e-05 </wgt>
</rwgt>
</event>
<event>
 4      1 +4.5322000e-10 3.98570000e+03 7.81860800e-03 7.54328500e-02
        2 -1    0    0  501    0 +0.0000000000e+00 +0.0000000000e+00 +2.7048887414e+03 2.7048887414e+03 0.0000000000e+00 0.0000e+00 1.0000e+00
       -2 -1    0    0    0  501 -0.0000000000e+00 -0.0000000000e+00 -1.4682493456e+03 1.4682493456e+03 0.0000000000e+00 0.0000e+00 -1.0000e+00
      -13  1    1    2    0    0 +4.8129759671e+02 -8.5233464214e+02 -1.1992097396e+03 1.5479747150e+03 0.0000000000e+00 0.0000e+00 -1.0000e+00
       13  1    1    2    0    0 -4.8129759671e+02 +8.5233464214e+02 +2.4358491354e+03 2.6251633719e+03 0.0000000000e+00 0.0000e+00 1.0000e+00
<mgrwt>
<rscale>  0 0.39857000E+04</rscale>
<asrwt>0</asrwt>
<pdfrwt beam="1">  1        2 0.41613673E+00 0.39857000E+04</pdfrwt>
<pdfrwt beam="2">  1       -2 0.22588451E+00 0.39857000E+04</pdfrwt>
<totfact> 0.19785422E-01</totfact>
</mgrwt>
<rwgt>
<wgt id='morphing_basis_vector_1'> +1.5547442e-05 </wgt>
<wgt id='morphing_basis_vector_2'> +1.0540059e-05 </wgt>
<wgt id='morphing_basis_vector_3'> +1.7067115e-05 </wgt>
<wgt id='morphing_basis_vector_4'> +1.2282621e-05 </wgt>
<wgt id='morphing_basis_vector_5'> +1.9590621e-05 </wgt>
</rwgt>
</event>
<event>
 4      1 +4.5322000e-10 4.22262300e+03 7.81860800e-03 7.50223000e-02
        2 -1    0    0  501    0 +0.0000000000e+00 +0.0000000000e+00 +3.2048479800e+03 3.2048479800e+03 0.0000000000e+00 0.0000e+00 1.0000e+00
       -2 -1    0    0    0  501 -0.0000000000e+00 -0.0000000000e+00 -1.3909040340e+03 1.3909040340e+03 0.0000000000e+00 0.0000e+00 -1.0000e+00
      -13  1    1    2    0    0 -1.3900464382e+03 -1.5731407252e+03 +6.6206547620e+02 2.2012113793e+03 0.0000000000e+00 0.0000e+00 -1.0000e+00
       13  1    1    2    0    0 +1.3900464382e+03 +1.5731407252e+03 +1.1518784699e+03 2.3945406347e+03 0.0000000000e+00 0.0000e+00 1.0000e+00
<mgrwt>
<rscale>  0 0.42226229E+04</rscale>
<asrwt>0</asrwt>
<pdfrwt beam="1">  1        2 0.49305353E+00 0.42226229E+04</pdfrwt>
<pdfrwt beam="2">  1       -2 0.21398524E+00 0.42226229E+04</pdfrwt>
<totfact> 0.11190689E-01</totfact>
</mgrwt>
<rwgt>
<wgt id='morphing_basis_vector_1'> +2.0047110e-05 </wgt>
<wgt id='morphing_basis_vector_2'> +1.4689373e-05 </wgt>
<wgt id='morphing_basis_vector_3'> +2.2275961e-05 </wgt>
<wgt id='morphing_basis_vector_4'> +1.4468626e-05 </wgt>
<wgt id='morphing_basis_vector_5'> +2.4622428e-05 </wgt>
</rwgt>
</event>
<event>
 4      1 +4.5322000e-10 3.90893700e+03 7.81860800e-03 7.55721400e-02
        2 -1    0    0  501    0 +0.0000000000e+00 +0.0000000000e+00 +4.5442239326e+03 4.5442239326e+03 0.0000000000e+00 0.0000e+00 1.0000e+00
       -2 -1    0    0    0  501 -0.0000000000e+00 -0.0000000000e+00 -8.4061594704e+02 8.4061594704e+02 0.0000000000e+00 0.0000e+00 -1.0000e+00
      -13  1    1    2    0    0 -1.0387600558e+03 -1.1524074528e+03 +2.1435784515e+02 1.5662102913e+03 0.0000000000e+00 0.0000e+00 -1.0000e+00
       13  1    1    2    0    0 +1.0387600558e+03 +1.1524074528e+03 +3.4892501404e+03 3.8186295884e+03 0.0000000000e+00 0.0000e+00 1.0000e+00
<mgrwt>
<rscale>  0 0.39089370E+04</rscale>
<asrwt>0</asrwt>
<pdfrwt beam="1">  1        2 0.69911136E+00 0.39089370E+04</pdfrwt>
<pdfrwt beam="2">  1       -2 0.12932553E+00 0.39089370E+04</pdfrwt>
<totfact> 0.40618294E-02</totfact>
</mgrwt>
<rwgt>
<wgt id='morphing_basis_vector_1'> +1.4421598e-05 </wgt>
<wgt id='morphing_basis_vector_2'> +9.8464587e-06 </wgt>
<wgt id='morphing_basis_vector_3'> +1.5841268e-05 </wgt>
<wgt id='morphing_basis_vector_4'> +1.1291659e-05 </wgt>
<wgt id='morphing_basis_vector_5'> +1.8111643e-05 </wgt>
</rwgt>
</event>
<event>
 4      1 +4.5322000e-10 4.46453200e+03 7.81860800e-03 7.46303800e-02
        2 -1    0    0  501    0 +0.0000000000e+00 +0.0000000000e+00 +2.1155220417e+03 2.1155220417e+03 0.0000000000e+00 0.0000e+00 1.0000e+00
       -2 -1    0    0    0  501 -0.0000000000e+00 -0.0000000000e+00 -2.3554527278e+03 2.3554527278e+03 0.0000000000e+00 0.0000e+00 -1.0000e+00
      -13  1    1    2    0    0 -8.2109631277e+02 -1.9098505179e+03 -9.3433251778e+02 2.2791896387e+03 0.0000000000e+00 0.0000e+00 -1.0000e+00
       13  1    1    2    0    0 +8.2109631277e+02 +1.9098505179e+03 +6.9440183164e+02 2.1917851307e+03 0.0000000000e+00 0.0000e+00 1.0000e+00
<mgrwt>
<rscale>  0 0.44645323E+04</rscale>
<asrwt>0</asrwt>
<pdfrwt beam="1">  1        2 0.32546493E+00 0.44645323E+04</pdfrwt>
<pdfrwt beam="2">  1       -2 0.36237734E+00 0.44645323E+04</pdfrwt>
<totfact> 0.50982281E-02</totfact>
</mgrwt>
<rwgt>
<wgt id='morphing_basis_vector_1'> +2.4631735e-05 </wgt>
<wgt id='morphing_basis_vector_2'> +1.7186901e-05 </wgt>
<wgt id='morphing_basis_vector_3'> +2.7198676e-05 </wgt>
<wgt id='morphing_basis_vector_4'> +1.8935632e-05 </wgt>
<wgt id='morphing_basis_vector_5'> +3.0867297e-05 </wgt>
</rwgt>
</event>
<event>
 4      1 +4.5322000e-10 3.97775100e+03 7.81860800e-03 7.54471200e-02
        2 -1    0    0  501    0 +0.0000000000e+00 +0.0000000000e+00 +2.5258697166e+03 2.5258697166e+03 0.0000000000e+00 0.0000e+00 1.0000e+00
       -2 -1    0    0    0  501 -0.0000000000e+00 -0.0000000000e+00 -1.5660454374e+03 1.5660454374e+03 0.0000000000e+00 0.0000e+00 -1.0000e+00
      -13  1    1    2    0    0 +1.3510253037e+03 +1.2686536667e+02 -1.0158703020e+03 1.6950978329e+03 0.0000000000e+00 0.0000e+00 -1.0000e+00
       13  1    1    2    0    0 -1.3510253037e+03 -1.2686536667e+02 +1.9756945812e+03 2.3968173211e+03 0.0000000000e+00 0.0000e+00 1.0000e+00
<mgrwt>
<rscale>  0 0.39777515E+04</rscale>
<asrwt>0</asrwt>
<pdfrwt beam="1">  1        2 0.38859534E+00 0.39777515E+04</pdfrwt>
<pdfrwt beam="2">  1       -2 0.24093007E+00 0.39777515E+04</pdfrwt>
<totfact> 0.19960839E-01</totfact>
</mgrwt>
<rwgt>
<wgt id='morphing_basis_vector_1'> +1.5436592e-05 </wgt>
<wgt id='morphing_basis_vector_2'> +1.0492163e-05 </wgt>
<wgt id='morphing_basis_vector_3'> +1.6950936e-05 </wgt>
<wgt id='morphing_basis_vector_4'> +1.2158733e-05 </wgt>
<wgt id='morphing_basis_vector_5'> +1.9431893e-05 </wgt>
</rwgt>
</event>
<event>
 4      1 +4.5322000e-10 3.87506800e+03 7.81860800e-03 7.56346300e-02
        2 -1    0    0  501    0 +0.0000000000e+00 +0.0000000000e+00 +3.2198369619e+03 3.2198369619e+03 0.0000000000e+00 0.0000e+00 -1.0000e+00
       -2 -1    0    0    0  501 -0.0000000000e+00 -0.0000000000e+00 -1.1659093329e+03 1.1659093329e+03 0.0000000000e+00 0.0000e+00 1.0000e+00
      -13  1    1    2    0    0 -9.7921673604e+02 +1.5258805499e+03 +2.5364598773e+02 1.8307138378e+03 0.0000000000e+00 0.0000e+00 1.0000e+00
       13  1    1    2    0    0 +9.7921673604e+02 -1.5258805499e+03 +1.8002816412e+03 2.5550324570e+03 0.0000000000e+00 0.0000e+00 -1.0000e+00
<mgrwt>
<rscale>  0 0.38750680E+04</rscale>
<asrwt>0</asrwt>
<pdfrwt beam="1">  1        2 0.49535953E+00 0.38750680E+04</pdfrwt>
<pdfrwt beam="2">  1       -2 0.17937067E+00 0.38750680E+04</pdfrwt>
<totfact> 0.20207173E-01</totfact>
</mgrwt>
<rwgt>
<wgt id='morphing_basis_vector_1'> +1.4024145e-05 </wgt>
<wgt id='morphing_basis_vector_2'> +9.7845892e-06 </wgt>
<wgt id='morphing_basis_vector_3'> +1.5448881e-05 </wgt>
<wgt id='morphing_basis_vector_4'> +1.0706365e-05 </wgt>
<wgt id='morphing_basis_vector_5'> +1.7472450e-05 </wgt>
</rwgt>
</event>
<event>
 4      1 +4.5322000e-10 3.90098700e+03 7.81860800e-03 7.55867500e-02
        2 -1    0    0  501    0 +0.0000000000e+00 +0.0000000000e+00 +3.4597628855e+03 3.4597628855e+03 0.0000000000e+00 0.0000e+00 -1.0000e+00
       -2 -1    0    0    0  501 -0.0000000000e+00 -0.0000000000e+00 -1.0996201588e+03 1.0996201588e+03 0.0000000000e+00 0.0000e+00 1.0000e+00
      -13  1    1    2    0    0 +1.5180780765e+02 +1.9434838743e+03 +1.1038779338e+03 2.2402503595e+03 0.0000000000e+00 0.0000e+00 1.0000e+00
       13  1    1    2    0    0 -1.5180780765e+02 -1.9434838743e+03 +1.2562647928e+03 2.3191326848e+03 0.0000000000e+00 0.0000e+00 -1.0000e+00
<mgrwt>
<rscale>  0 0.39009871E+04</rscale>
<asrwt>0</asrwt>
<pdfrwt beam="1">  1        2 0.53227121E+00 0.39009871E+04</pdfrwt>
<pdfrwt beam="2">  1       -2 0.16917233E+00 0.39009871E+04</pdfrwt>
<totfact> 0.16384244E-01</totfact>
</mgrwt>
<rwgt>
<wgt id='morphing_basis_vector_1'> +1.4735819e-05 </wgt>
<wgt id='morphing_basis_vector_2'> +1.1032514e-05 </wgt>
<wgt id='morphing_basis_vector_3'> +1.6402529e-05 </wgt>
<wgt id='morphing_basis_vector_4'> +1.0289842e-05 </wgt>
<wgt id='morphing_basis_vector_5'> +1.7888261e-05 </wgt>
</rwgt>
</event>
<event>
 4      1 +4.5322000e-10 4.16369500e+03 7.81860800e-03 7.51218100e-02
        2 -1    0    0  501    0 +0.0000000000e+00 +0.0000000000e+00 +4.6465207116e+03 4.6465207116e+03 0.0000000000e+00 0.0000e+00 -1.0000e+00
       -2 -1    0    0    0  501 -0.0000000000e+00 -0.0000000000e+00 -9.3276012030e+02 9.3276012030e+02 0.0000000000e+00 0.0000e+00 1.0000e+00
      -13  1    1    2    0    0 -2.0049092920e+03 +5.1253730934e+01 +1.1086452300e+03 2.2915895052e+03 0.0000000000e+00 0.0000e+00 1.0000e+00
       13  1    1    2    0    0 +2.0049092920e+03 -5.1253730934e+01 +2.6051153613e+03 3.2876913267e+03 0.0000000000e+00 0.0000e+00 -1.0000e+00
<mgrwt>
<rscale>  0 0.41636951E+04</rscale>
<asrwt>0</asrwt>
<pdfrwt beam="1">  1        2 0.71484933E+00 0.41636951E+04</pdfrwt>
<pdfrwt beam="2">  1       -2 0.14350156E+00 0.41636951E+04</pdfrwt>
<totfact> 0.23190936E-02</totfact>
</mgrwt>
<rwgt>
<wgt id='morphing_basis_vector_1'> +1.8739408e-05 </wgt>
<wgt id='morphing_basis_vector_2'> +1.3250917e-05 </wgt>
<wgt id='morphing_basis_vector_3'> +2.0709491e-05 </wgt>
<wgt id='morphing_basis_vector_4'> +1.4133704e-05 </wgt>
<wgt id='morphing_basis_vector_5'> +2.3308934e-05 </wgt>
</rwgt>
</event>
<event>
 4      1 +4.5322000e-10 4.35653000e+03 7.81860800e-03 7.48021700e-02
        2 -1    0    0  501    0 +0.0000000000e+00 +0.0000000000e+00 +2.7949142645e+03 2.7949142645e+03 0.0000000000e+00 0.0000e+00 1.0000e+00
       -2 -1    0    0    0  501 -0.0000000000e+00 -0.0000000000e+00 -1.6976684764e+03 1.6976684764e+03 0.0000000000e+00 0.0000e+00 -1.0000e+00
      -13  1    1    2    0    0 +8.0122426848e+02 +8.0604646286e+02 -1.3676800551e+03 1.7782631869e+03 0.0000000000e+00 0.0000e+00 -1.0000e+00
       13  1    1    2    0    0 -8.0122426848e+02 -8.0604646286e+02 +2.4649258432e+03 2.7143195540e+03 0.0000000000e+00 0.0000e+00 1.0000e+00
<mgrwt>
<rscale>  0 0.43565297E+04</rscale>
<asrwt>0</asrwt>
<pdfrwt beam="1">  1        2 0.42998681E+00 0.43565297E+04</pdfrwt>
<pdfrwt beam="2">  1       -2 0.26117977E+00 0.43565297E+04</pdfrwt>
<totfact> 0.95980310E-02</totfact>
</mgrwt>
<rwgt>
<wgt id='morphing_basis_vector_1'> +2.2156401e-05 </wgt>
<wgt id='morphing_basis_vector_2'> +1.5038887e-05 </wgt>
<wgt id='morphing_basis_vector_3'> +2.4360973e-05 </wgt>
<wgt id='morphing_basis_vector_4'> +1.7557125e-05 </wgt>
<wgt id='morphing_basis_vector_5'> +2.8008915e-05 </wgt>
</rwgt>
</event>
<event>
 4      1 +4.5322000e-10 4.37131600e+03 7.81860800e-03 7.47783600e-02
        2 -1    0    0  501    0 +0.0000000000e+00 +0.0000000000e+00 +2.5616431791e+03 2.5616431791e+03 0.0000000000e+00 0.0000e+00 1.0000e+00
       -2 -1    0    0    0  501 -0.0000000000e+00 -0.0000000000e+00 -1.8648579624e+03 1.8648579624e+03 0.0000000000e+00 0.0000e+00 -1.0000e+00
      -13  1    1    2    0    0 -2.3450423967e+01 -6.1575628026e+02 -1.7750773680e+03 1.8789905220e+03 0.0000000000e+00 0.0000e+00 -1.0000e+00
       13  1    1    2    0    0 +2.3450423967e+01 +6.1575628026e+02 +2.4718625848e+03 2.5475106196e+03 0.0000000000e+00 0.0000e+00 1.0000e+00
<mgrwt>
<rscale>  0 0.43713159E+04</rscale>
<asrwt>0</asrwt>
<pdfrwt beam="1">  1        2 0.39409895E+00 0.43713159E+04</pdfrwt>
<pdfrwt beam="2">  1       -2 0.28690123E+00 0.43713159E+04</pdfrwt>
<totfact> 0.89019755E-02</totfact>
</mgrwt>
<rwgt>
<wgt id='morphing_basis_vector_1'> +2.2452056e-05 </wgt>
<wgt id='morphing_basis_vector_2'> +1.5227979e-05 </wgt>
<wgt id='morphing_basis_vector_3'> +2.4684636e-05 </wgt>
<wgt id='morphing_basis_vector_4'> +1.7809068e-05 </wgt>
<wgt id='morphing_basis_vector_5'> +2.8393662e-05 </wgt>
</rwgt>
</event>
<event>
 4      1 +4.5322000e-10 4.04515600e+03 7.81860800e-03 7.53271500e-02
        2 -1    0    0  501    0 +0.0000000000e+00 +0.0000000000e+00 +1.8455344640e+03 1.8455344640e+03 0.0000000000e+00 0.0000e+00 -1.0000e+00
       -2 -1    0    0    0  501 -0.0000000000e+00 -0.0000000000e+00 -2.2166052554e+03 2.2166052554e+03 0.0000000000e+00 0.0000e+00 1.0000e+00
      -13  1    1    2    0    0 +6.5705473377e+02 +7.0908921449e+02 -1.9695904626e+03 2.1940407990e+03 0.0000000000e+00 0.0000e+00 1.0000e+00
       13  1    1    2    0    0 -6.5705473377e+02 -7.0908921449e+02 +1.5985196712e+03 1.8680989204e+03 0.0000000000e+00 0.0000e+00 -1.0000e+00
<mgrwt>
<rscale>  0 0.40451558E+04</rscale>
<asrwt>0</asrwt>
<pdfrwt beam="1">  1        2 0.28392838E+00 0.40451558E+04</pdfrwt>
<pdfrwt beam="2">  1       -2 0.34101619E+00 0.40451558E+04</pdfrwt>
<totfact> 0.10278110E-01</totfact>
</mgrwt>
<rwgt>
<wgt id='morphing_basis_vector_1'> +1.6490765e-05 </wgt>
<wgt id='morphing_basis_vector_2'> +1.1180752e-05 </wgt>
<wgt id='morphing_basis_vector_3'> +1.8107535e-05 </wgt>
<wgt id='morphing_basis_vector_4'> +1.3036582e-05 </wgt>
<wgt id='morphing_basis_vector_5'> +2.0792126e-05 </wgt>
</rwgt>
</event>
<event>
 4      1 +4.5322000e-10 4.22127600e+03 7.81860800e-03 7.50245600e-02
        2 -1    0    0  501    0 +0.0000000000e+00 +0.0000000000e+00 +2.0786266079e+03 2.0786266079e+03 0.0000000000e+00 0.0000e+00 -1.0000e+00
       -2 -1    0    0    0  501 -0.0000000000e+00 -0.0000000000e+00 -2.1431426388e+03 2.1431426388e+03 0.0000000000e+00 0.0000e+00 1.0000e+00
      -13  1    1    2    0    0 +6.2551979719e+02 +7.8922374382e+02 -1.8873719923e+03 2.1392340152e+03 0.0000000000e+00 0.0000e+00 1.0000e+00
       13  1    1    2    0    0 -6.2551979719e+02 -7.8922374382e+02 +1.8228559614e+03 2.0825352315e+03 0.0000000000e+00 0.0000e+00 -1.0000e+00
<mgrwt>
<rscale>  0 0.42212763E+04</rscale>
<asrwt>0</asrwt>
<pdfrwt beam="1">  1        2 0.31978871E+00 0.42212763E+04</pdfrwt>
<pdfrwt beam="2">  1       -2 0.32971425E+00 0.42212763E+04</pdfrwt>
<totfact> 0.88995683E-02</totfact>
</mgrwt>
<rwgt>
<wgt id='morphing_basis_vector_1'> +1.9539727e-05 </wgt>
<wgt id='morphing_basis_vector_2'> +1.3254450e-05 </wgt>
<wgt id='morphing_basis_vector_3'> +2.1471794e-05 </wgt>
<wgt id='morphing_basis_vector_4'> +1.5471614e-05 </wgt>
<wgt id='morphing_basis_vector_5'> +2.4676151e-05 </wgt>
</rwgt>
</event>
<event>
 4      1 +4.5322000e-10 4.53924700e+03 7.81860800e-03 7.45143900e-02
        2 -1    0    0  501    0 +0.0000000000e+00 +0.0000000000e+00 +4.3162751336e+03 4.3162751336e+03 0.0000000000e+00 0.0000e+00 -1.0000e+00
       -2 -1    0    0    0  501 -0.0000000000e+00 -0.0000000000e+00 -1.1934344881e+03 1.1934344881e+03 0.0000000000e+00 0.0000e+00 1.0000e+00
      -13  1    1    2    0    0 -1.5265978819e+03 -1.5369612287e+03 +7.3958189706e+02 2.2890461538e+03 0.0000000000e+00 0.0000e+00 1.0000e+00
       13  1    1    2    0    0 +1.5265978819e+03 +1.5369612287e+03 +2.3832587484e+03 3.2206634679e+03 0.0000000000e+00 0.0000e+00 -1.0000e+00
<mgrwt>
<rscale>  0 0.45392473E+04</rscale>
<asrwt>0</asrwt>
<pdfrwt beam="1">  1        2 0.66404232E+00 0.45392473E+04</pdfrwt>
<pdfrwt beam="2">  1       -2 0.18360531E+00 0.45392473E+04</pdfrwt>
<totfact> 0.23563651E-02</totfact>
</mgrwt>
<rwgt>
<wgt id='morphing_basis_vector_1'> +2.6390990e-05 </wgt>
<wgt id='morphing_basis_vector_2'> +1.8586622e-05 </wgt>
<wgt id='morphing_basis_vector_3'> +2.9187447e-05 </wgt>
<wgt id='morphing_basis_vector_4'> +2.0079864e-05 </wgt>
<wgt id='morphing_basis_vector_5'> +3.2981157e-05 </wgt>
</rwgt>
</event>
<event>
 4      1 +4.5322000e-10 4.60084800e+03 7.81860800e-03 7.44204400e-02
        2 -1    0    0  501    0 +0.0000000000e+00 +0.0000000000e+00 +4.8945705430e+03 4.8945705430e+03 0.0000000000e+00 0.0000e+00 -1.0000e+00
       -2 -1    0    0    0  501 -0.0000000000e+00 -0.0000000000e+00 -1.0811878899e+03 1.0811878899e+03 0.0000000000e+00 0.0000e+00 1.0000e+00
      -13  1    1    2    0    0 +1.0634510899e+03 +1.9752382393e+03 +1.2451041528e+03 2.5656926304e+03 0.0000000000e+00 0.0000e+00 1.0000e+00
       13  1    1    2    0    0 -1.0634510899e+03 -1.9752382393e+03 +2.5682785002e+03 3.4100658025e+03 0.0000000000e+00 0.0000e+00 -1.0000e+00
<mgrwt>
<rscale>  0 0.46008479E+04</rscale>
<asrwt>0</asrwt>
<pdfrwt beam="1">  1        2 0.75301084E+00 0.46008479E+04</pdfrwt>
<pdfrwt beam="2">  1       -2 0.16633660E+00 0.46008479E+04</pdfrwt>
<totfact> 0.74398527E-03</totfact>
</mgrwt>
<rwgt>
<wgt id='morphing_basis_vector_1'> +2.7966235e-05 </wgt>
<wgt id='morphing_basis_vector_2'> +1.9964480e-05 </wgt>
<wgt id='morphing_basis_vector_3'> +3.0996810e-05 </wgt>
<wgt id='morphing_basis_vector_4'> +2.0943200e-05 </wgt>
<wgt id='morphing_basis_vector_5'> +3.4794155e-05 </wgt>
</rwgt>
</event>
<event>
 4      1 +4.5322000e-10 4.27198700e+03 7.81860800e-03 7.49402000e-02
        2 -1    0    0  501    0 +0.0000000000e+00 +0.0000000000e+00 +4.0480461804e+03 4.0480461804e+03 0.0000000000e+00 0.0000e+00 -1.0000e+00
       -2 -1    0    0    0  501 -0.0000000000e+00 -0.0000000000e+00 -1.1270790785e+03 1.1270790785e+03 0.0000000000e+00 0.0000e+00 1.0000e+00
      -13  1    1    2    0    0 -7.1421768666e+02 -1.5347363521e+03 -1.1758151218e+02 1.6968641626e+03 0.0000000000e+00 0.0000e+00 1.0000e+00
       13  1    1    2    0    0 +7.1421768666e+02 +1.5347363521e+03 +3.0385486140e+03 3.4782610963e+03 0.0000000000e+00 0.0000e+00 -1.0000e+00
<mgrwt>
<rscale>  0 0.42719870E+04</rscale>
<asrwt>0</asrwt>
<pdfrwt beam="1">  1        2 0.62277633E+00 0.42719870E+04</pdfrwt>
<pdfrwt beam="2">  1       -2 0.17339678E+00 0.42719870E+04</pdfrwt>
<totfact> 0.50545490E-02</totfact>
</mgrwt>
<rwgt>
<wgt id='morphing_basis_vector_1'> +2.0536607e-05 </wgt>
<wgt id='morphing_basis_vector_2'> +1.4034984e-05 </wgt>
<wgt id='morphing_basis_vector_3'> +2.2595020e-05 </wgt>
<wgt id='morphing_basis_vector_4'> +1.6135742e-05 </wgt>
<wgt id='morphing_basis_vector_5'> +2.5880855e-05 </wgt>
</rwgt>
</event>
<event>
 4      1 +4.5322000e-10 4.32251600e+03 7.81860800e-03 7.48573200e-02
        2 -1    0    0  501    0 +0.0000000000e+00 +0.0000000000e+00 +4.0170759200e+03 4.0170759200e+03 0.0000000000e+00 0.0000e+00 -1.0000e+00
       -2 -1    0    0    0  501 -0.0000000000e+00 -0.0000000000e+00 -1.1627948522e+03 1.1627948522e+03 0.0000000000e+00 0.0000e+00 1.0000e+00
      -13  1    1    2    0    0 +9.3571480786e+02 +1.1356285575e+03 -4.6981592431e+02 1.5446492886e+03 0.0000000000e+00 0.0000e+00 1.0000e+00
       13  1    1    2    0    0 -9.3571480786e+02 -1.1356285575e+03 +3.3240969921e+03 3.6352214836e+03 0.0000000000e+00 0.0000e+00 -1.0000e+00
<mgrwt>
<rscale>  0 0.43225156E+04</rscale>
<asrwt>0</asrwt>
<pdfrwt beam="1">  1        2 0.61801167E+00 0.43225156E+04</pdfrwt>
<pdfrwt beam="2">  1       -2 0.17889152E+00 0.43225156E+04</pdfrwt>
<totfact> 0.48571378E-02</totfact>
</mgrwt>
<rwgt>
<wgt id='morphing_basis_vector_1'> +2.1490797e-05 </wgt>
<wgt id='morphing_basis_vector_2'> +1.4620592e-05 </wgt>
<wgt id='morphing_basis_vector_3'> +2.3633997e-05 </wgt>
<wgt id='morphing_basis_vector_4'> +1.6980426e-05 </wgt>
<wgt id='morphing_basis_vector_5'> +2.7138066e-05 </wgt>
</rwgt>
</event>
<event>
 4      1 +4.5322000e-10 4.14531900e+03 7.81860800e-03 7.51531800e-02
        2 -1    0    0  501    0 +0.0000000000e+00 +0.0000000000e+00 +1.8021364615e+03 1.8021364615e+03 0.0000000000e+00 0.0000e+00 -1.0000e+00
       -2 -1    0    0    0  501 -0.0000000000e+00 -0.0000000000e+00 -2.3837911729e+03 2.3837911729e+03 0.0000000000e+00 0.0000e+00 1.0000e+00
      -13  1    1    2    0    0 +1.2918979420e+03 +4.7079833788e+02 -1.8569122550e+03 2.3105788215e+03 0.0000000000e+00 0.0000e+00 1.0000e+00
       13  1    1    2    0    0 -1.2918979420e+03 -4.7079833788e+02 +1.2752575436e+03 1.8753488129e+03 0.0000000000e+00 0.0000e+00 -1.0000e+00
<mgrwt>
<rscale>  0 0.41453188E+04</rscale>
<asrwt>0</asrwt>
<pdfrwt beam="1">  1        2 0.27725176E+00 0.41453188E+04</pdfrwt>
<pdfrwt beam="2">  1       -2 0.36673710E+00 0.41453188E+04</pdfrwt>
<totfact> 0.73489879E-02</totfact>
</mgrwt>
<rwgt>
<wgt id='morphing_basis_vector_1'> +1.8189303e-05 </wgt>
<wgt id='morphing_basis_vector_2'> +1.2363607e-05 </wgt>
<wgt id='morphing_basis_vector_3'> +1.9987748e-05 </wgt>
<wgt id='morphing_basis_vector_4'> +1.4357115e-05 </wgt>
<wgt id='morphing_basis_vector_5'> +2.2937702e-05 </wgt>
</rwgt>
</event>
<event>
 4      1 +4.5322000e-10 4.05567000e+03 7.81860800e-03 7.53086500e-02
        2 -1    0    0  501    0 +0.0000000000e+00 +0.0000000000e+00 +3.1097060431e+03 3.1097060431e+03 0.0000000000e+00 0.0000e+00 -1.0000e+00
       -2 -1    0    0    0  501 -0.0000000000e+00 -0.0000000000e+00 -1.3223483210e+03 1.3223483210e+03 0.0000000000e+00 0.0000e+00 1.0000e+00
      -13  1    1    2    0    0 -8.9331244542e+02 +3.1658397925e+02 -1.0654249325e+03 1.4259603178e+03 0.0000000000e+00 0.0000e+00 1.0000e+00
       13  1    1    2    0    0 +8.9331244542e+02 -3.1658397925e+02 +2.8527826546e+03 3.0060940463e+03 0.0000000000e+00 0.0000e+00 -1.0000e+00
<mgrwt>
<rscale>  0 0.40556699E+04</rscale>
<asrwt>0</asrwt>
<pdfrwt beam="1">  1        2 0.47841631E+00 0.40556699E+04</pdfrwt>
<pdfrwt beam="2">  1       -2 0.20343820E+00 0.40556699E+04</pdfrwt>
<totfact> 0.15661935E-01</totfact>
</mgrwt>
<rwgt>
<wgt id='morphing_basis_vector_1'> +1.6661744e-05 </wgt>
<wgt id='morphing_basis_vector_2'> +1.1296407e-05 </wgt>
<wgt id='morphing_basis_vector_3'> +1.8296022e-05 </wgt>
<wgt id='morphing_basis_vector_4'> +1.3173878e-05 </wgt>
<wgt id='morphing_basis_vector_5'> +2.1010245e-05 </wgt>
</rwgt>
</event>
<event>
 4      1 +4.5322000e-10 4.01612900e+03 7.81860800e-03 7.53785200e-02
        2 -1    0    0  501    0 +0.0000000000e+00 +0.0000000000e+00 +2.5157529206e+03 2.5157529206e+03 0.0000000000e+00 0.0000e+00 -1.0000e+00
       -2 -1    0    0    0  501 -0.0000000000e+00 -0.0000000000e+00 -1.6028297760e+03 1.6028297760e+03 0.0000000000e+00 0.0000e+00 1.0000e+00
      -13  1    1    2    0    0 +2.0509985499e+02 -1.9343437151e+03 -5.4827274969e+01 1.9459592978e+03 0.0000000000e+00 0.0000e+00 1.0000e+00
       13  1    1    2    0    0 -2.0509985499e+02 +1.9343437151e+03 +9.6775041950e+02 2.1726233988e+03 0.0000000000e+00 0.0000e+00 -1.0000e+00
<mgrwt>
<rscale>  0 0.40161293E+04</rscale>
<asrwt>0</asrwt>
<pdfrwt beam="1">  1        2 0.38703891E+00 0.40161293E+04</pdfrwt>
<pdfrwt beam="2">  1       -2 0.24658920E+00 0.40161293E+04</pdfrwt>
<totfact> 0.18433656E-01</totfact>
</mgrwt>
<rwgt>
<wgt id='morphing_basis_vector_1'> +1.6250236e-05 </wgt>
<wgt id='morphing_basis_vector_2'> +1.1526410e-05 </wgt>
<wgt id='morphing_basis_vector_3'> +1.7955280e-05 </wgt>
<wgt id='morphing_basis_vector_4'> +1.2187831e-05 </wgt>
<wgt id='morphing_basis_vector_5'> +2.0159157e-05 </wgt>
</rwgt>
</event>
<event>
 4      1 +4.5322000e-10 3.87929900e+03 7.81860800e-03 7.56267900e-02
        2 -1    0    0  501    0 +0.0000000000e+00 +0.0000000000e+00 +3.7327014786e+03 3.7327014786e+03 0.0000000000e+00 0.0000e+00 -1.0000e+00
       -2 -1    0    0    0  501 -0.0000000000e+00 -0.0000000000e+00 -1.0079134513e+03 1.0079134513e+03 0.0000000000e+00 0.0000e+00 1.0000e+00
      -13  1    1    2    0    0 -9.4228055887e+02 -1.0306562555e+03 -2.8262879023e+02 1.4247891078e+03 0.0000000000e+00 0.0000e+00 1.0000e+00
       13  1    1    2    0    0 +9.4228055887e+02 +1.0306562555e+03 +3.0074168175e+03 3.3158258222e+03 0.0000000000e+00 0.0000e+00 -1.0000e+00
<mgrwt>
<rscale>  0 0.38792989E+04</rscale>
<asrwt>0</asrwt>
<pdfrwt beam="1">  1        2 0.57426176E+00 0.38792989E+04</pdfrwt>
<pdfrwt beam="2">  1       -2 0.15506361E+00 0.38792989E+04</pdfrwt>
<totfact> 0.13243967E-01</totfact>
</mgrwt>
<rwgt>
<wgt id='morphing_basis_vector_1'> +1.3976380e-05 </wgt>
<wgt id='morphing_basis_vector_2'> +9.5074996e-06 </wgt>
<wgt id='morphing_basis_vector_3'> +1.5342264e-05 </wgt>
<wgt id='morphing_basis_vector_4'> +1.0983236e-05 </wgt>
<wgt id='morphing_basis_vector_5'> +1.7568411e-05 </wgt>
</rwgt>
</event>
<event>
 4      1 +4.5322000e-10 4.38831600e+03 7.81860800e-03 7.47510900e-02
        2 -1    0    0  501    0 +0.0000000000e+00 +0.0000000000e+00 +1.4087745608e+03 1.4087745608e+03 0.0000000000e+00 0.0000e+00 1.0000e+00
       -2 -1    0    0    0  501 -0.0000000000e+00 -0.0000000000e+00 -3.4173885757e+03 3.4173885757e+03 0.0000000000e+00 0.0000e+00 -1.0000e+00
      -13  1    1    2    0    0 -5.3720860470e+02 -7.6377605542e+02 +1.1793452802e+03 1.5042613595e+03 0.0000000000e+00 0.0000e+00 1.0000e+00
       13  1    1    2    0    0 +5.3720860470e+02 +7.6377605542e+02 -3.1879592952e+03 3.3219017769e+03 0.0000000000e+00 0.0000e+00 -1.0000e+00
<mgrwt>
<rscale>  0 0.43883163E+04</rscale>
<asrwt>0</asrwt>
<pdfrwt beam="1">  1        2 0.21673455E+00 0.43883163E+04</pdfrwt>
<pdfrwt beam="2">  1       -2 0.52575209E+00 0.43883163E+04</pdfrwt>
<totfact> 0.93086181E-03</totfact>
</mgrwt>
<rwgt>
<wgt id='morphing_basis_vector_1'> +3.1072239e-05 </wgt>
<wgt id='morphing_basis_vector_2'> +3.9765123e-05 </wgt>
<wgt id='morphing_basis_vector_3'> +3.8411582e-05 </wgt>
<wgt id='morphing_basis_vector_4'> +5.3522728e-07 </wgt>
<wgt id='morphing_basis_vector_5'> +2.7373075e-05 </wgt>
</rwgt>
</event>
<event>
 4      1 +4.5322000e-10 3.86927400e+03 7.81860800e-03 7.56453900e-02
        2 -1    0    0  501    0 +0.0000000000e+00 +0.0000000000e+00 +7.8277498392e+02 7.8277498392e+02 0.0000000000e+00 0.0000e+00 -1.0000e+00
       -2 -1    0    0    0  501 -0.0000000000e+00 -0.0000000000e+00 -4.7814764676e+03 4.7814764676e+03 0.0000000000e+00 0.0000e+00 1.0000e+00
      -13  1    1    2    0    0 +2.1922219184e+02 +1.8232769043e+03 -2.8745890500e+03 3.4111082137e+03 0.0000000000e+00 0.0000e+00 1.0000e+00
       13  1    1    2    0    0 -2.1922219184e+02 -1.8232769043e+03 -1.1241124337e+03 2.1531432378e+03 0.0000000000e+00 0.0000e+00 -1.0000e+00
<mgrwt>
<rscale>  0 0.38692739E+04</rscale>
<asrwt>0</asrwt>
<pdfrwt beam="1">  1        2 0.12042692E+00 0.38692739E+04</pdfrwt>
<pdfrwt beam="2">  1       -2 0.73561175E+00 0.38692739E+04</pdfrwt>
<totfact> 0.22450116E-03</totfact>
</mgrwt>
<rwgt>
<wgt id='morphing_basis_vector_1'> +1.3963775e-05 </wgt>
<wgt id='morphing_basis_vector_2'> +9.7935482e-06 </wgt>
<wgt id='morphing_basis_vector_3'> +1.5393313e-05 </wgt>
<wgt id='morphing_basis_vector_4'> +1.0593855e-05 </wgt>
<wgt id='morphing_basis_vector_5'> +1.7363616e-05 </wgt>
</rwgt>
</event>
<event>
 4      1 +4.5322000e-10 3.99810200e+03 7.81860800e-03 7.54106500e-02
        2 -1    0    0  501    0 +0.0000000000e+00 +0.0000000000e+00 +2.8964608627e+03 2.8964608627e+03 0.0000000000e+00 0.0000e+00 1.0000e+00
       -2 -1    0    0    0  501 -0.0000000000e+00 -0.0000000000e+00 -1.3796853919e+03 1.3796853919e+03 0.0000000000e+00 0.0000e+00 -1.0000e+00
      -13  1    1    2    0    0 +1.3477712964e+02 -1.7877716854e+03 -1.8736521093e+02 1.8026087196e+03 0.0000000000e+00 0.0000e+00 -1.0000e+00
       13  1    1    2    0    0 -1.3477712964e+02 +1.7877716854e+03 +1.7041406818e+03 2.4735375350e+03 0.0000000000e+00 0.0000e+00 1.0000e+00
<mgrwt>
<rscale>  0 0.39981019E+04</rscale>
<asrwt>0</asrwt>
<pdfrwt beam="1">  1        2 0.44560936E+00 0.39981019E+04</pdfrwt>
<pdfrwt beam="2">  1       -2 0.21225929E+00 0.39981019E+04</pdfrwt>
<totfact> 0.18723113E-01</totfact>
</mgrwt>
<rwgt>
<wgt id='morphing_basis_vector_1'> +1.5832304e-05 </wgt>
<wgt id='morphing_basis_vector_2'> +1.0940407e-05 </wgt>
<wgt id='morphing_basis_vector_3'> +1.7427188e-05 </wgt>
<wgt id='morphing_basis_vector_4'> +1.2243522e-05 </wgt>
<wgt id='morphing_basis_vector_5'> +1.9820708e-05 </wgt>
</rwgt>
</event>
<event>
 4      1 +4.5322000e-10 3.94298800e+03 7.81860800e-03 7.55099500e-02
        2 -1    0    0  501    0 +0.0000000000e+00 +0.0000000000e+00 +1.9474806133e+03 1.9474806133e+03 0.0000000000e+00 0.0000e+00 -1.0000e+00
       -2 -1    0    0    0  501 -0.0000000000e+00 -0.0000000000e+00 -1.9958036672e+03 1.9958036672e+03 0.0000000000e+00 0.0000e+00 1.0000e+00
      -13  1    1    2    0    0 +4.5500038085e+02 +1.8352904012e+03 +5.3397781790e+02 1.9648024108e+03 0.0000000000e+00 0.0000e+00 1.0000e+00
       13  1    1    2    0    0 -4.5500038085e+02 -1.8352904012e+03 -5.8230087182e+02 1.9784818697e+03 0.0000000000e+00 0.0000e+00 -1.0000e+00
<mgrwt>
<rscale>  0 0.39429882E+04</rscale>
<asrwt>0</asrwt>
<pdfrwt beam="1">  1        2 0.29961240E+00 0.39429882E+04</pdfrwt>
<pdfrwt beam="2">  1       -2 0.30704672E+00 0.39429882E+04</pdfrwt>
<totfact> 0.15267560E-01</totfact>
</mgrwt>
<rwgt>
<wgt id='morphing_basis_vector_1'> +1.6331945e-05 </wgt>
<wgt id='morphing_basis_vector_2'> +1.4320448e-05 </wgt>
<wgt id='morphing_basis_vector_3'> +1.8650898e-05 </wgt>
<wgt id='morphing_basis_vector_4'> +8.7243532e-06 </wgt>
<wgt id='morphing_basis_vector_5'> +1.8507234e-05 </wgt>
</rwgt>
</event>
<event>
 4      1 +4.5322000e-10 4.04663000e+03 7.81860800e-03 7.53245500e-02
        2 -1    0    0  501    0 +0.0000000000e+00 +0.0000000000e+00 +3.1091996392e+03 3.1091996392e+03 0.0000000000e+00 0.0000e+00 -1.0000e+00
       -2 -1    0    0    0  501 -0.0000000000e+00 -0.0000000000e+00 -1.3166742757e+03 1.3166742757e+03 0.0000000000e+00 0.0000e+00 1.0000e+00
      -13  1    1    2    0    0 -1.2804454165e+03 +9.5191352108e+02 -4.6458132528e+02 1.6617808592e+03 0.0000000000e+00 0.0000e+00 1.0000e+00
       13  1    1    2    0    0 +1.2804454165e+03 -9.5191352108e+02 +2.2571066888e+03 2.7640930557e+03 0.0000000000e+00 0.0000e+00 -1.0000e+00
<mgrwt>
<rscale>  0 0.40466298E+04</rscale>
<asrwt>0</asrwt>
<pdfrwt beam="1">  1        2 0.47833840E+00 0.40466298E+04</pdfrwt>
<pdfrwt beam="2">  1       -2 0.20256527E+00 0.40466298E+04</pdfrwt>
<totfact> 0.15916171E-01</totfact>
</mgrwt>
<rwgt>
<wgt id='morphing_basis_vector_1'> +1.6549959e-05 </wgt>
<wgt id='morphing_basis_vector_2'> +1.1300677e-05 </wgt>
<wgt id='morphing_basis_vector_3'> +1.8190556e-05 </wgt>
<wgt id='morphing_basis_vector_4'> +1.2981056e-05 </wgt>
<wgt id='morphing_basis_vector_5'> +2.0816375e-05 </wgt>
</rwgt>
</event>
<event>
 4      1 +4.5322000e-10 4.05680200e+03 7.81860800e-03 7.53066600e-02
        2 -1    0    0  501    0 +0.0000000000e+00 +0.0000000000e+00 +2.4042393021e+03 2.4042393021e+03 0.0000000000e+00 0.0000e+00 -1.0000e+00
       -2 -1    0    0    0  501 -0.0000000000e+00 -0.0000000000e+00 -1.7113146934e+03 1.7113146934e+03 0.0000000000e+00 0.0000e+00 1.0000e+00
      -13  1    1    2    0    0 +1.3390653568e+03 +1.4456470327e+03 -1.4156454997e+02 1.9756092465e+03 0.0000000000e+00 0.0000e+00 1.0000e+00
       13  1    1    2    0    0 -1.3390653568e+03 -1.4456470327e+03 +8.3448915871e+02 2.1399447490e+03 0.0000000000e+00 0.0000e+00 -1.0000e+00
<mgrwt>
<rscale>  0 0.40568017E+04</rscale>
<asrwt>0</asrwt>
<pdfrwt beam="1">  1        2 0.36988297E+00 0.40568017E+04</pdfrwt>
<pdfrwt beam="2">  1       -2 0.26327918E+00 0.40568017E+04</pdfrwt>
<totfact> 0.16418847E-01</totfact>
</mgrwt>
<rwgt>
<wgt id='morphing_basis_vector_1'> +1.6926196e-05 </wgt>
<wgt id='morphing_basis_vector_2'> +1.2031850e-05 </wgt>
<wgt id='morphing_basis_vector_3'> +1.8711396e-05 </wgt>
<wgt id='morphing_basis_vector_4'> +1.2668157e-05 </wgt>
<wgt id='morphing_basis_vector_5'> +2.0990436e-05 </wgt>
</rwgt>
</event>
<event>
 4      1 +4.5322000e-10 3.98348100e+03 7.81860800e-03 7.54368300e-02
        2 -1    0    0  501    0 +0.0000000000e+00 +0.0000000000e+00 +1.8275052883e+03 1.8275052883e+03 0.0000000000e+00 0.0000e+00 1.0000e+00
       -2 -1    0    0    0  501 -0.0000000000e+00 -0.0000000000e+00 -2.1707357972e+03 2.1707357972e+03 0.0000000000e+00 0.0000e+00 -1.0000e+00
      -13  1    1    2    0    0 +2.4081209567e+01 +5.9684717061e+02 -2.0787144951e+03 2.1628361940e+03 0.0000000000e+00 0.0000e+00 -1.0000e+00
       13  1    1    2    0    0 -2.4081209567e+01 -5.9684717061e+02 +1.7354839862e+03 1.8354048916e+03 0.0000000000e+00 0.0000e+00 1.0000e+00
<mgrwt>
<rscale>  0 0.39834815E+04</rscale>
<asrwt>0</asrwt>
<pdfrwt beam="1">  1        2 0.28115466E+00 0.39834815E+04</pdfrwt>
<pdfrwt beam="2">  1       -2 0.33395935E+00 0.39834815E+04</pdfrwt>
<totfact> 0.11762605E-01</totfact>
</mgrwt>
<rwgt>
<wgt id='morphing_basis_vector_1'> +1.5510378e-05 </wgt>
<wgt id='morphing_basis_vector_2'> +1.0508857e-05 </wgt>
<wgt id='morphing_basis_vector_3'> +1.7024902e-05 </wgt>
<wgt id='morphing_basis_vector_4'> +1.2260777e-05 </wgt>
<wgt id='morphing_basis_vector_5'> +1.9547289e-05 </wgt>
</rwgt>
</event>
<event>
 4      1 +4.5322000e-10 4.10815100e+03 7.81860800e-03 7.52171500e-02
        2 -1    0    0  501    0 +0.0000000000e+00 +0.0000000000e+00 +2.8309169309e+03 2.8309169309e+03 0.0000000000e+00 0.0000e+00 1.0000e+00
       -2 -1    0    0    0  501 -0.0000000000e+00 -0.0000000000e+00 -1.4904096065e+03 1.4904096065e+03 0.0000000000e+00 0.0000e+00 -1.0000e+00
      -13  1    1    2    0    0 -1.1893902583e+03 -1.9233355416e+02 -1.0796782171e+03 1.6178215090e+03 0.0000000000e+00 0.0000e+00 -1.0000e+00
       13  1    1    2    0    0 +1.1893902583e+03 +1.9233355416e+02 +2.4201855415e+03 2.7035050283e+03 0.0000000000e+00 0.0000e+00 1.0000e+00
<mgrwt>
<rscale>  0 0.41081508E+04</rscale>
<asrwt>0</asrwt>
<pdfrwt beam="1">  1        2 0.43552568E+00 0.41081508E+04</pdfrwt>
<pdfrwt beam="2">  1       -2 0.22929379E+00 0.41081508E+04</pdfrwt>
<totfact> 0.15466053E-01</totfact>
</mgrwt>
<rwgt>
<wgt id='morphing_basis_vector_1'> +1.7541787e-05 </wgt>
<wgt id='morphing_basis_vector_2'> +1.1906591e-05 </wgt>
<wgt id='morphing_basis_vector_3'> +1.9269565e-05 </wgt>
<wgt id='morphing_basis_vector_4'> +1.3861470e-05 </wgt>
<wgt id='morphing_basis_vector_5'> +2.2123546e-05 </wgt>
</rwgt>
</event>
<event>
 4      1 +4.5322000e-10 3.92429600e+03 7.81860800e-03 7.55440100e-02
        2 -1    0    0  501    0 +0.0000000000e+00 +0.0000000000e+00 +1.6507878653e+03 1.6507878653e+03 0.0000000000e+00 0.0000e+00 -1.0000e+00
       -2 -1    0    0    0  501 -0.0000000000e+00 -0.0000000000e+00 -2.3322349269e+03 2.3322349269e+03 0.0000000000e+00 0.0000e+00 1.0000e+00
      -13  1    1    2    0    0 -1.4527359124e+02 +1.7755931277e+03 -1.1753368375e+03 2.1343036459e+03 0.0000000000e+00 0.0000e+00 1.0000e+00
       13  1    1    2    0    0 +1.4527359124e+02 -1.7755931277e+03 +4.9388977593e+02 1.8487191463e+03 0.0000000000e+00 0.0000e+00 -1.0000e+00
<mgrwt>
<rscale>  0 0.39242962E+04</rscale>
<asrwt>0</asrwt>
<pdfrwt beam="1">  1        2 0.25396736E+00 0.39242962E+04</pdfrwt>
<pdfrwt beam="2">  1       -2 0.35880537E+00 0.39242962E+04</pdfrwt>
<totfact> 0.10208642E-01</totfact>
</mgrwt>
<rwgt>
<wgt id='morphing_basis_vector_1'> +1.4711353e-05 </wgt>
<wgt id='morphing_basis_vector_2'> +1.0186929e-05 </wgt>
<wgt id='morphing_basis_vector_3'> +1.6192558e-05 </wgt>
<wgt id='morphing_basis_vector_4'> +1.1337978e-05 </wgt>
<wgt id='morphing_basis_vector_5'> +1.8388397e-05 </wgt>
</rwgt>
</event>
<event>
 4      1 +4.5322000e-10 4.29593800e+03 7.81860800e-03 7.49007700e-02
        2 -1    0    0  501    0 +0.0000000000e+00 +0.0000000000e+00 +1.6933596795e+03 1.6933596795e+03 0.0000000000e+00 0.0000e+00 -1.0000e+00
       -2 -1    0    0    0  501 -0.0000000000e+00 -0.0000000000e+00 -2.7246258117e+03 2.7246258117e+03 0.0000000000e+00 0.0000e+00 1.0000e+00
      -13  1    1    2    0    0 +1.7059737880e+03 +6.0761376903e+02 -1.7035379567e+03 2.4862788717e+03 0.0000000000e+00 0.0000e+00 1.0000e+00
       13  1    1    2    0    0 -1.7059737880e+03 -6.0761376903e+02 +6.7227182452e+02 1.9317066195e+03 0.0000000000e+00 0.0000e+00 -1.0000e+00
<mgrwt>
<rscale>  0 0.42959383E+04</rscale>
<asrwt>0</asrwt>
<pdfrwt beam="1">  1        2 0.26051688E+00 0.42959383E+04</pdfrwt>
<pdfrwt beam="2">  1       -2 0.41917320E+00 0.42959383E+04</pdfrwt>
<totfact> 0.38047662E-02</totfact>
</mgrwt>
<rwgt>
<wgt id='morphing_basis_vector_1'> +2.1025581e-05 </wgt>
<wgt id='morphing_basis_vector_2'> +1.4430046e-05 </wgt>
<wgt id='morphing_basis_vector_3'> +2.3148779e-05 </wgt>
<wgt id='morphing_basis_vector_4'> +1.6445755e-05 </wgt>
<wgt id='morphing_basis_vector_5'> +2.6464013e-05 </wgt>
</rwgt>
</event>
<event>
 4      1 +4.5322000e-10 4.19557400e+03 7.81860800e-03 7.50677700e-02
        2 -1    0    0  501    0 +0.0000000000e+00 +0.0000000000e+00 +2.8859460555e+03 2.8859460555e+03 0.0000000000e+00 0.0000e+00 1.0000e+00
       -2 -1    0    0    0  501 -0.0000000000e+00 -0.0000000000e+00 -1.5248758560e+03 1.5248758560e+03 0.0000000000e+00 0.0000e+00 -1.0000e+00
      -13  1    1    2    0    0 -6.1115799168e+01 +1.2748836581e+03 -1.0697026950e+03 1.6653309996e+03 0.0000000000e+00 0.0000e+00 -1.0000e+00
       13  1    1    2    0    0 +6.1115799168e+01 -1.2748836581e+03 +2.4307728945e+03 2.7454909119e+03 0.0000000000e+00 0.0000e+00 1.0000e+00
<mgrwt>
<rscale>  0 0.41955736E+04</rscale>
<asrwt>0</asrwt>
<pdfrwt beam="1">  1        2 0.44399170E+00 0.41955736E+04</pdfrwt>
<pdfrwt beam="2">  1       -2 0.23459629E+00 0.41955736E+04</pdfrwt>
<totfact> 0.13009277E-01</totfact>
</mgrwt>
<rwgt>
<wgt id='morphing_basis_vector_1'> +1.9077376e-05 </wgt>
<wgt id='morphing_basis_vector_2'> +1.2955891e-05 </wgt>
<wgt id='morphing_basis_vector_3'> +2.0965117e-05 </wgt>
<wgt id='morphing_basis_vector_4'> +1.5081653e-05 </wgt>
<wgt id='morphing_basis_vector_5'> +2.4076737e-05 </wgt>
</rwgt>
</event>
<event>
 4      1 +4.5322000e-10 3.88186100e+03 7.81860800e-03 7.56220400e-02
        2 -1    0    0  501    0 +0.0000000000e+00 +0.0000000000e+00 +2.9774513354e+03 2.9774513354e+03 0.0000000000e+00 0.0000e+00 -1.0000e+00
       -2 -1    0    0    0  501 -0.0000000000e+00 -0.0000000000e+00 -1.2652471490e+03 1.2652471490e+03 0.0000000000e+00 0.0000e+00 1.0000e+00
      -13  1    1    2    0    0 +6.4110405159e+02 -6.2575287310e+02 -1.0257585431e+03 1.3618963441e+03 0.0000000000e+00 0.0000e+00 1.0000e+00
       13  1    1    2    0    0 -6.4110405159e+02 +6.2575287310e+02 +2.7379627296e+03 2.8808021404e+03 0.0000000000e+00 0.0000e+00 -1.0000e+00
<mgrwt>
<rscale>  0 0.38818613E+04</rscale>
<asrwt>0</asrwt>
<pdfrwt beam="1">  1        2 0.45806943E+00 0.38818613E+04</pdfrwt>
<pdfrwt beam="2">  1       -2 0.19465341E+00 0.38818613E+04</pdfrwt>
<totfact> 0.22501040E-01</totfact>
</mgrwt>
<rwgt>
<wgt id='morphing_basis_vector_1'> +1.3996612e-05 </wgt>
<wgt id='morphing_basis_vector_2'> +9.4839933e-06 </wgt>
<wgt id='morphing_basis_vector_3'> +1.5356356e-05 </wgt>
<wgt id='morphing_basis_vector_4'> +1.1047355e-05 </wgt>
<wgt id='morphing_basis_vector_5'> +1.7618026e-05 </wgt>
</rwgt>
</event>
<event>
 4      1 +4.5322000e-10 4.01067500e+03 7.81860800e-03 7.53882200e-02
        2 -1    0    0  501    0 +0.0000000000e+00 +0.0000000000e+00 +2.8628688412e+03 2.8628688412e+03 0.0000000000e+00 0.0000e+00 -1.0000e+00
       -2 -1    0    0    0  501 -0.0000000000e+00 -0.0000000000e+00 -1.4046673907e+03 1.4046673907e+03 0.0000000000e+00 0.0000e+00 1.0000e+00
      -13  1    1    2    0    0 +1.9022223380e+03 -6.0116929467e+02 +9.4592613661e+02 2.2078565623e+03 0.0000000000e+00 0.0000e+00 1.0000e+00
       13  1    1    2    0    0 -1.9022223380e+03 +6.0116929467e+02 +5.1227531386e+02 2.0596796695e+03 0.0000000000e+00 0.0000e+00 -1.0000e+00
<mgrwt>
<rscale>  0 0.40106750E+04</rscale>
<asrwt>0</asrwt>
<pdfrwt beam="1">  1        2 0.44044136E+00 0.40106750E+04</pdfrwt>
<pdfrwt beam="2">  1       -2 0.21610268E+00 0.40106750E+04</pdfrwt>
<totfact> 0.18443690E-01</totfact>
</mgrwt>
<rwgt>
<wgt id='morphing_basis_vector_1'> +1.6775093e-05 </wgt>
<wgt id='morphing_basis_vector_2'> +1.3264430e-05 </wgt>
<wgt id='morphing_basis_vector_3'> +1.8840869e-05 </wgt>
<wgt id='morphing_basis_vector_4'> +1.0825718e-05 </wgt>
<wgt id='morphing_basis_vector_5'> +1.9941371e-05 </wgt>
</rwgt>
</event>
<event>
 4      1 +4.5322000e-10 4.10598100e+03 7.81860800e-03 7.52209000e-02
        2 -1    0    0  501    0 +0.0000000000e+00 +0.0000000000e+00 +1.3649543154e+03 1.3649543154e+03 0.0000000000e+00 0.0000e+00 -1.0000e+00
       -2 -1    0    0    0  501 -0.0000000000e+00 -0.0000000000e+00 -3.0878468565e+03 3.0878468565e+03 0.0000000000e+00 0.0000e+00 1.0000e+00
      -13  1    1    2    0    0 -1.5655062530e+02 -1.4229084810e+03 -2.4573431205e+03 2.8438902678e+03 0.0000000000e+00 0.0000e+00 1.0000e+00
       13  1    1    2    0    0 +1.5655062530e+02 +1.4229084810e+03 +7.3445057945e+02 1.6089109041e+03 0.0000000000e+00 0.0000e+00 -1.0000e+00
<mgrwt>
<rscale>  0 0.41059810E+04</rscale>
<asrwt>0</asrwt>
<pdfrwt beam="1">  1        2 0.20999297E+00 0.41059810E+04</pdfrwt>
<pdfrwt beam="2">  1       -2 0.47505336E+00 0.41059810E+04</pdfrwt>
<totfact> 0.24089080E-02</totfact>
</mgrwt>
<rwgt>
<wgt id='morphing_basis_vector_1'> +1.7516446e-05 </wgt>
<wgt id='morphing_basis_vector_2'> +1.1915334e-05 </wgt>
<wgt id='morphing_basis_vector_3'> +1.9247398e-05 </wgt>
<wgt id='morphing_basis_vector_4'> +1.3807699e-05 </wgt>
<wgt id='morphing_basis_vector_5'> +2.2074590e-05 </wgt>
</rwgt>
</event>
<event>
 4      1 +4.5322000e-10 3.87666800e+03 7.81860800e-03 7.56316600e-02
        2 -1    0    0  501    0 +0.0000000000e+00 +0.0000000000e+00 +3.0006411488e+03 3.0006411488e+03 0.0000000000e+00 0.0000e+00 -1.0000e+00
       -2 -1    0    0    0  501 -0.0000000000e+00 -0.0000000000e+00 -1.2521120875e+03 1.2521120875e+03 0.0000000000e+00 0.0000e+00 1.0000e+00
      -13  1    1    2    0    0 +5.5336702449e+02 +1.2192052251e+03 +2.4118293629e+03 2.7585498583e+03 0.0000000000e+00 0.0000e+00 -1.0000e+00
       13  1    1    2    0    0 -5.5336702449e+02 -1.2192052251e+03 -6.6330030164e+02 1.4942033780e+03 0.0000000000e+00 0.0000e+00 1.0000e+00
<mgrwt>
<rscale>  0 0.38766682E+04</rscale>
<asrwt>0</asrwt>
<pdfrwt beam="1">  1        2 0.46163710E+00 0.38766682E+04</pdfrwt>
<pdfrwt beam="2">  1       -2 0.19263263E+00 0.38766682E+04</pdfrwt>
<totfact> 0.22503784E-01</totfact>
</mgrwt>
<rwgt>
<wgt id='morphing_basis_vector_1'> +1.8101748e-05 </wgt>
<wgt id='morphing_basis_vector_2'> +2.1720529e-05 </wgt>
<wgt id='morphing_basis_vector_3'> +2.1966517e-05 </wgt>
<wgt id='morphing_basis_vector_4'> +2.1591691e-06 </wgt>
<wgt id='morphing_basis_vector_5'> +1.6788708e-05 </wgt>
</rwgt>
</event>
<event>
 4      1 +4.5322000e-10 3.85806400e+03 7.81860800e-03 7.56662500e-02
        2 -1    0    0  501    0 +0.0000000000e+00 +0.0000000000e+00 +3.3967587458e+03 3.3967587458e+03 0.0000000000e+00 0.0000e+00 1.0000e+00
       -2 -1    0    0    0  501 -0.0000000000e+00 -0.0000000000e+00 -1.0955042466e+03 1.0955042466e+03 0.0000000000e+00 0.0000e+00 -1.0000e+00
      -13  1    1    2    0    0 -4.7377718591e+02 +1.2046047061e+03 -5.1473587643e+02 1.3930148392e+03 0.0000000000e+00 0.0000e+00 -1.0000e+00
       13  1    1    2    0    0 +4.7377718591e+02 -1.2046047061e+03 +2.8159903756e+03 3.0992481532e+03 0.0000000000e+00 0.0000e+00 1.0000e+00
<mgrwt>
<rscale>  0 0.38580636E+04</rscale>
<asrwt>0</asrwt>
<pdfrwt beam="1">  1        2 0.52257826E+00 0.38580636E+04</pdfrwt>
<pdfrwt beam="2">  1       -2 0.16853912E+00 0.38580636E+04</pdfrwt>
<totfact> 0.18458557E-01</totfact>
</mgrwt>
<rwgt>
<wgt id='morphing_basis_vector_1'> +1.3668636e-05 </wgt>
<wgt id='morphing_basis_vector_2'> +9.2842341e-06 </wgt>
<wgt id='morphing_basis_vector_3'> +1.4999808e-05 </wgt>
<wgt id='morphing_basis_vector_4'> +1.0755877e-05 </wgt>
<wgt id='morphing_basis_vector_5'> +1.7185907e-05 </wgt>
</rwgt>
</event>
<event>
 4      1 +4.5322000e-10 4.33606800e+03 7.81860800e-03 7.48352900e-02
        2 -1    0    0  501    0 +0.0000000000e+00 +0.0000000000e+00 +2.3086133586e+03 2.3086133586e+03 0.0000000000e+00 0.0000e+00 1.0000e+00
       -2 -1    0    0    0  501 -0.0000000000e+00 -0.0000000000e+00 -2.0360152483e+03 2.0360152483e+03 0.0000000000e+00 0.0000e+00 -1.0000e+00
      -13  1    1    2    0    0 +2.0279622534e+03 -5.4643309319e+02 -4.0249106964e+02 2.1385086130e+03 0.0000000000e+00 0.0000e+00 -1.0000e+00
       13  1    1    2    0    0 -2.0279622534e+03 +5.4643309319e+02 +6.7508917991e+02 2.2061199939e+03 0.0000000000e+00 0.0000e+00 1.0000e+00
<mgrwt>
<rscale>  0 0.43360683E+04</rscale>
<asrwt>0</asrwt>
<pdfrwt beam="1">  1        2 0.35517129E+00 0.43360683E+04</pdfrwt>
<pdfrwt beam="2">  1       -2 0.31323311E+00 0.43360683E+04</pdfrwt>
<totfact> 0.83760454E-02</totfact>
</mgrwt>
<rwgt>
<wgt id='morphing_basis_vector_1'> +2.2049237e-05 </wgt>
<wgt id='morphing_basis_vector_2'> +1.5653171e-05 </wgt>
<wgt id='morphing_basis_vector_3'> +2.4397334e-05 </wgt>
<wgt id='morphing_basis_vector_4'> +1.6582484e-05 </wgt>
<wgt id='morphing_basis_vector_5'> +2.7430293e-05 </wgt>
</rwgt>
</event>
<event>
 4      1 +4.5322000e-10 3.97594000e+03 7.81860800e-03 7.54503800e-02
        2 -1    0    0  501    0 +0.0000000000e+00 +0.0000000000e+00 +2.2086705716e+03 2.2086705716e+03 0.0000000000e+00 0.0000e+00 1.0000e+00
       -2 -1    0    0    0  501 -0.0000000000e+00 -0.0000000000e+00 -1.7893226537e+03 1.7893226537e+03 0.0000000000e+00 0.0000e+00 -1.0000e+00
      -13  1    1    2    0    0 -1.6706926778e+03 -7.5675501950e+02 -5.6147752638e+02 1.9181108403e+03 0.0000000000e+00 0.0000e+00 -1.0000e+00
       13  1    1    2    0    0 +1.6706926778e+03 +7.5675501950e+02 +9.8082544426e+02 2.0798823849e+03 0.0000000000e+00 0.0000e+00 1.0000e+00
<mgrwt>
<rscale>  0 0.39759398E+04</rscale>
<asrwt>0</asrwt>
<pdfrwt beam="1">  1        2 0.33979547E+00 0.39759398E+04</pdfrwt>
<pdfrwt beam="2">  1       -2 0.27528041E+00 0.39759398E+04</pdfrwt>
<totfact> 0.17767634E-01</totfact>
</mgrwt>
<rwgt>
<wgt id='morphing_basis_vector_1'> +1.5514374e-05 </wgt>
<wgt id='morphing_basis_vector_2'> +1.0783919e-05 </wgt>
<wgt id='morphing_basis_vector_3'> +1.7089678e-05 </wgt>
<wgt id='morphing_basis_vector_4'> +1.1912882e-05 </wgt>
<wgt id='morphing_basis_vector_5'> +1.9377712e-05 </wgt>
</rwgt>
</event>
<event>
 4      1 +4.5322000e-10 3.89894700e+03 7.81860800e-03 7.55905000e-02
        2 -1    0    0  501    0 +0.0000000000e+00 +0.0000000000e+00 +2.8782760158e+03 2.8782760158e+03 0.0000000000e+00 0.0000e+00 -1.0000e+00
       -2 -1    0    0    0  501 -0.0000000000e+00 -0.0000000000e+00 -1.3203898921e+03 1.3203898921e+03 0.0000000000e+00 0.0000e+00 1.0000e+00
      -13  1    1    2    0    0 +1.6977940291e+03 -3.3996664326e+02 -1.8566282497e+02 1.7414225703e+03 0.0000000000e+00 0.0000e+00 1.0000e+00
       13  1    1    2    0    0 -1.6977940291e+03 +3.3996664326e+02 +1.7435489487e+03 2.4572433376e+03 0.0000000000e+00 0.0000e+00 -1.0000e+00
<mgrwt>
<rscale>  0 0.38989468E+04</rscale>
<asrwt>0</asrwt>
<pdfrwt beam="1">  1        2 0.44281169E+00 0.38989468E+04</pdfrwt>
<pdfrwt beam="2">  1       -2 0.20313691E+00 0.38989468E+04</pdfrwt>
<totfact> 0.22558523E-01</totfact>
</mgrwt>
<rwgt>
<wgt id='morphing_basis_vector_1'> +1.4319786e-05 </wgt>
<wgt id='morphing_basis_vector_2'> +9.8765392e-06 </wgt>
<wgt id='morphing_basis_vector_3'> +1.5750906e-05 </wgt>
<wgt id='morphing_basis_vector_4'> +1.1082549e-05 </wgt>
<wgt id='morphing_basis_vector_5'> +1.7918456e-05 </wgt>
</rwgt>
</event>
<event>
 4      1 +4.5322000e-10 3.90758400e+03 7.81860800e-03 7.55746200e-02
        2 -1    0    0  501    0 +0.0000000000e+00 +0.0000000000e+00 +2.2148014272e+03 2.2148014272e+03 0.0000000000e+00 0.0000e+00 -1.0000e+00
       -2 -1    0    0    0  501 -0.0000000000e+00 -0.0000000000e+00 -1.7235415234e+03 1.7235415234e+03 0.0000000000e+00 0.0000e+00 1.0000e+00
      -13  1    1    2    0    0 -1.1857147213e+03 -5.8740827037e+02 -1.2031604526e+03 1.7884526696e+03 0.0000000000e+00 0.0000e+00 1.0000e+00
       13  1    1    2    0    0 +1.1857147213e+03 +5.8740827037e+02 +1.6944203564e+03 2.1498902811e+03 0.0000000000e+00 0.0000e+00 -1.0000e+00
<mgrwt>
<rscale>  0 0.39075835E+04</rscale>
<asrwt>0</asrwt>
<pdfrwt beam="1">  1        2 0.34073868E+00 0.39075835E+04</pdfrwt>
<pdfrwt beam="2">  1       -2 0.26516023E+00 0.39075835E+04</pdfrwt>
<totfact> 0.20785966E-01</totfact>
</mgrwt>
<rwgt>
<wgt id='morphing_basis_vector_1'> +1.4380708e-05 </wgt>
<wgt id='morphing_basis_vector_2'> +9.7710238e-06 </wgt>
<wgt id='morphing_basis_vector_3'> +1.5785649e-05 </wgt>
<wgt id='morphing_basis_vector_4'> +1.1320396e-05 </wgt>
<wgt id='morphing_basis_vector_5'> +1.8090141e-05 </wgt>
</rwgt>
</event>
<event>
 4      1 +4.5322000e-10 3.91345500e+03 7.81860800e-03 7.55638500e-02
        2 -1    0    0  501    0 +0.0000000000e+00 +0.0000000000e+00 +2.7477475263e+03 2.7477475263e+03 0.0000000000e+00 0.0000e+00 -1.0000e+00
       -2 -1    0    0    0  501 -0.0000000000e+00 -0.0000000000e+00 -1.3934255577e+03 1.3934255577e+03 0.0000000000e+00 0.0000e+00 1.0000e+00
      -13  1    1    2    0    0 -1.0947788525e+03 +1.1028486072e+03 -5.8113423729e+02 1.6590758837e+03 0.0000000000e+00 0.0000e+00 1.0000e+00
       13  1    1    2    0    0 +1.0947788525e+03 -1.1028486072e+03 +1.9354562059e+03 2.4820972002e+03 0.0000000000e+00 0.0000e+00 -1.0000e+00
<mgrwt>
<rscale>  0 0.39134546E+04</rscale>
<asrwt>0</asrwt>
<pdfrwt beam="1">  1        2 0.42273039E+00 0.39134546E+04</pdfrwt>
<pdfrwt beam="2">  1       -2 0.21437316E+00 0.39134546E+04</pdfrwt>
<totfact> 0.22592282E-01</totfact>
</mgrwt>
<rwgt>
<wgt id='morphing_basis_vector_1'> +1.4488126e-05 </wgt>
<wgt id='morphing_basis_vector_2'> +9.8922601e-06 </wgt>
<wgt id='morphing_basis_vector_3'> +1.5914767e-05 </wgt>
<wgt id='morphing_basis_vector_4'> +1.1343996e-05 </wgt>
<wgt id='morphing_basis_vector_5'> +1.8195933e-05 </wgt>
</rwgt>
</event>
<event>
 4      1 +4.5322000e-10 4.52983400e+03 7.81860800e-03 7.45288800e-02
        2 -1    0    0  501    0 +0.0000000000e+00 +0.0000000000e+00 +2.6451464018e+03 2.6451464018e+03 0.0000000000e+00 0.0000e+00 -1.0000e+00
       -2 -1    0    0    0  501 -0.0000000000e+00 -0.0000000000e+00 -1.9393438810e+03 1.9393438810e+03 0.0000000000e+00 0.0000e+00 1.0000e+00
      -13  1    1    2    0    0 +3.8555955511e+02 +5.9767401847e+02 +2.5291908036e+03 2.6272945255e+03 0.0000000000e+00 0.0000e+00 -1.0000e+00
       13  1    1    2    0    0 -3.8555955511e+02 -5.9767401847e+02 -1.8233882827e+03 1.9571957573e+03 0.0000000000e+00 0.0000e+00 1.0000e+00
<mgrwt>
<rscale>  0 0.45298338E+04</rscale>
<asrwt>0</asrwt>
<pdfrwt beam="1">  1        2 0.40694560E+00 0.45298338E+04</pdfrwt>
<pdfrwt beam="2">  1       -2 0.29836060E+00 0.45298338E+04</pdfrwt>
<totfact> 0.65438491E-02</totfact>
</mgrwt>
<rwgt>
<wgt id='morphing_basis_vector_1'> +3.5414391e-05 </wgt>
<wgt id='morphing_basis_vector_2'> +4.5580015e-05 </wgt>
<wgt id='morphing_basis_vector_3'> +4.3876320e-05 </wgt>
<wgt id='morphing_basis_vector_4'> +2.7961178e-07 </wgt>
<wgt id='morphing_basis_vector_5'> +3.1065410e-05 </wgt>
</rwgt>
</event>
<event>
 4      1 +4.5322000e-10 4.25861300e+03 7.81860800e-03 7.49623300e-02
        2 -1    0    0  501    0 +0.0000000000e+00 +0.0000000000e+00 +3.6800498473e+03 3.6800498473e+03 0.0000000000e+00 0.0000e+00 -1.0000e+00
       -2 -1    0    0    0  501 -0.0000000000e+00 -0.0000000000e+00 -1.2320337454e+03 1.2320337454e+03 0.0000000000e+00 0.0000e+00 1.0000e+00
      -13  1    1    2    0    0 -5.8081837083e+02 -9.7275761666e+02 -8.5550609650e+02 1.4196823736e+03 0.0000000000e+00 0.0000e+00 1.0000e+00
       13  1    1    2    0    0 +5.8081837083e+02 +9.7275761666e+02 +3.3035221983e+03 3.4924012192e+03 0.0000000000e+00 0.0000e+00 -1.0000e+00
<mgrwt>
<rscale>  0 0.42586127E+04</rscale>
<asrwt>0</asrwt>
<pdfrwt beam="1">  1        2 0.56616151E+00 0.42586127E+04</pdfrwt>
<pdfrwt beam="2">  1       -2 0.18954365E+00 0.42586127E+04</pdfrwt>
<totfact> 0.76212295E-02</totfact>
</mgrwt>
<rwgt>
<wgt id='morphing_basis_vector_1'> +2.0239256e-05 </wgt>
<wgt id='morphing_basis_vector_2'> +1.3735396e-05 </wgt>
<wgt id='morphing_basis_vector_3'> +2.2244980e-05 </wgt>
<wgt id='morphing_basis_vector_4'> +1.6023946e-05 </wgt>
<wgt id='morphing_basis_vector_5'> +2.5564405e-05 </wgt>
</rwgt>
</event>
<event>
 4      1 +4.5322000e-10 4.06611500e+03 7.81860800e-03 7.52903200e-02
        2 -1    0    0  501    0 +0.0000000000e+00 +0.0000000000e+00 +2.6082367575e+03 2.6082367575e+03 0.0000000000e+00 0.0000e+00 -1.0000e+00
       -2 -1    0    0    0  501 -0.0000000000e+00 -0.0000000000e+00 -1.5847190351e+03 1.5847190351e+03 0.0000000000e+00 0.0000e+00 1.0000e+00
      -13  1    1    2    0    0 -1.8437590706e+03 -2.3808395928e+01 -3.7128826701e+02 1.8809224671e+03 0.0000000000e+00 0.0000e+00 1.0000e+00
       13  1    1    2    0    0 +1.8437590706e+03 +2.3808395928e+01 +1.3948059895e+03 2.3120333255e+03 0.0000000000e+00 0.0000e+00 -1.0000e+00
<mgrwt>
<rscale>  0 0.40661148E+04</rscale>
<asrwt>0</asrwt>
<pdfrwt beam="1">  1        2 0.40126720E+00 0.40661148E+04</pdfrwt>
<pdfrwt beam="2">  1       -2 0.24380293E+00 0.40661148E+04</pdfrwt>
<totfact> 0.16881533E-01</totfact>
</mgrwt>
<rwgt>
<wgt id='morphing_basis_vector_1'> +1.6942530e-05 </wgt>
<wgt id='morphing_basis_vector_2'> +1.1734365e-05 </wgt>
<wgt id='morphing_basis_vector_3'> +1.8660779e-05 </wgt>
<wgt id='morphing_basis_vector_4'> +1.3079328e-05 </wgt>
<wgt id='morphing_basis_vector_5'> +2.1209280e-05 </wgt>
</rwgt>
</event>
<event>
 4      1 +4.5322000e-10 4.42463900e+03 7.81860800e-03 7.46932600e-02
        2 -1    0    0  501    0 +0.0000000000e+00 +0.0000000000e+00 +3.7879327036e+03 3.7879327036e+03 0.0000000000e+00 0.0000e+00 -1.0000e+00
       -2 -1    0    0    0  501 -0.0000000000e+00 -0.0000000000e+00 -1.2920922256e+03 1.2920922256e+03 0.0000000000e+00 0.0000e+00 1.0000e+00
      -13  1    1    2    0    0 +1.3320044353e+03 -1.1740891077e+03 -2.6726882979e+02 1.7955928481e+03 0.0000000000e+00 0.0000e+00 1.0000e+00
       13  1    1    2    0    0 -1.3320044353e+03 +1.1740891077e+03 +2.7631093078e+03 3.2844320811e+03 0.0000000000e+00 0.0000e+00 -1.0000e+00
<mgrwt>
<rscale>  0 0.44246394E+04</rscale>
<asrwt>0</asrwt>
<pdfrwt beam="1">  1        2 0.58275887E+00 0.44246394E+04</pdfrwt>
<pdfrwt beam="2">  1       -2 0.19878342E+00 0.44246394E+04</pdfrwt>
<totfact> 0.52901466E-02</totfact>
</mgrwt>
<rwgt>
<wgt id='morphing_basis_vector_1'> +2.3623565e-05 </wgt>
<wgt id='morphing_basis_vector_2'> +1.6161542e-05 </wgt>
<wgt id='morphing_basis_vector_3'> +2.6008791e-05 </wgt>
<wgt id='morphing_basis_vector_4'> +1.8568994e-05 </wgt>
<wgt id='morphing_basis_vector_5'> +2.9799833e-05 </wgt>
</rwgt>
</event>
<event>
 4      1 +4.5322000e-10 4.09553900e+03 7.81860800e-03 7.52390100e-02
        2 -1    0    0  501    0 +0.0000000000e+00 +0.0000000000e+00 +2.4734687245e+03 2.4734687245e+03 0.0000000000e+00 0.0000e+00 1.0000e+00
       -2 -1    0    0    0  501 -0.0000000000e+00 -0.0000000000e+00 -1.6953355104e+03 1.6953355104e+03 0.0000000000e+00 0.0000e+00 -1.0000e+00
      -13  1    1    2    0    0 -2.5931536555e+02 +1.5308320720e+03 -9.6998424630e+02 1.8307268309e+03 0.0000000000e+00 0.0000e+00 -1.0000e+00
       13  1    1    2    0    0 +2.5931536555e+02 -1.5308320720e+03 +1.7481174604e+03 2.3380774039e+03 0.0000000000e+00 0.0000e+00 1.0000e+00
<mgrwt>
<rscale>  0 0.40955387E+04</rscale>
<asrwt>0</asrwt>
<pdfrwt beam="1">  1        2 0.38053365E+00 0.40955387E+04</pdfrwt>
<pdfrwt beam="2">  1       -2 0.26082085E+00 0.40955387E+04</pdfrwt>
<totfact> 0.15484490E-01</totfact>
</mgrwt>
<rwgt>
<wgt id='morphing_basis_vector_1'> +1.7351840e-05 </wgt>
<wgt id='morphing_basis_vector_2'> +1.1830214e-05 </wgt>
<wgt id='morphing_basis_vector_3'> +1.9071758e-05 </wgt>
<wgt id='morphing_basis_vector_4'> +1.3641633e-05 </wgt>
<wgt id='morphing_basis_vector_5'> +2.1847710e-05 </wgt>
</rwgt>
</event>
<event>
 4      1 +4.5322000e-10 4.56739600e+03 7.81860800e-03 7.44712700e-02
        2 -1    0    0  501    0 +0.0000000000e+00 +0.0000000000e+00 +3.4144348421e+03 3.4144348421e+03 0.0000000000e+00 0.0000e+00 -1.0000e+00
       -2 -1    0    0    0  501 -0.0000000000e+00 -0.0000000000e+00 -1.5274201946e+03 1.5274201946e+03 0.0000000000e+00 0.0000e+00 1.0000e+00
      -13  1    1    2    0    0 +9.3879096752e+02 -2.4719831844e+02 -1.2930483101e+03 1.6169135480e+03 0.0000000000e+00 0.0000e+00 1.0000e+00
       13  1    1    2    0    0 -9.3879096752e+02 +2.4719831844e+02 +3.1800629576e+03 3.3249414887e+03 0.0000000000e+00 0.0000e+00 -1.0000e+00
<mgrwt>
<rscale>  0 0.45673961E+04</rscale>
<asrwt>0</asrwt>
<pdfrwt beam="1">  1        2 0.52529766E+00 0.45673961E+04</pdfrwt>
<pdfrwt beam="2">  1       -2 0.23498772E+00 0.45673961E+04</pdfrwt>
<totfact> 0.55235669E-02</totfact>
</mgrwt>
<rwgt>
<wgt id='morphing_basis_vector_1'> +2.6742675e-05 </wgt>
<wgt id='morphing_basis_vector_2'> +1.8151059e-05 </wgt>
<wgt id='morphing_basis_vector_3'> +2.9422854e-05 </wgt>
<wgt id='morphing_basis_vector_4'> +2.1235665e-05 </wgt>
<wgt id='morphing_basis_vector_5'> +3.3864548e-05 </wgt>
</rwgt>
</event>
<event>
 4      1 +4.5322000e-10 4.00385700e+03 7.81860800e-03 7.54003700e-02
        2 -1    0    0  501    0 +0.0000000000e+00 +0.0000000000e+00 +2.1139286418e+03 2.1139286418e+03 0.0000000000e+00 0.0000e+00 1.0000e+00
       -2 -1    0    0    0  501 -0.0000000000e+00 -0.0000000000e+00 -1.8958624307e+03 1.8958624307e+03 0.0000000000e+00 0.0000e+00 -1.0000e+00
      -13  1    1    2    0    0 +1.5601714776e+03 -1.7031109835e+02 -1.1356189382e+03 1.9372070830e+03 0.0000000000e+00 0.0000e+00 -1.0000e+00
       13  1    1    2    0    0 -1.5601714776e+03 +1.7031109835e+02 +1.3536851493e+03 2.0725839895e+03 0.0000000000e+00 0.0000e+00 1.0000e+00
<mgrwt>
<rscale>  0 0.40038571E+04</rscale>
<asrwt>0</asrwt>
<pdfrwt beam="1">  1        2 0.32521979E+00 0.40038571E+04</pdfrwt>
<pdfrwt beam="2">  1       -2 0.29167114E+00 0.40038571E+04</pdfrwt>
<totfact> 0.15535475E-01</totfact>
</mgrwt>
<rwgt>
<wgt id='morphing_basis_vector_1'> +1.5863308e-05 </wgt>
<wgt id='morphing_basis_vector_2'> +1.0827379e-05 </wgt>
<wgt id='morphing_basis_vector_3'> +1.7431634e-05 </wgt>
<wgt id='morphing_basis_vector_4'> +1.2441188e-05 </wgt>
<wgt id='morphing_basis_vector_5'> +1.9946202e-05 </wgt>
</rwgt>
</event>
<event>
 4      1 +4.5322000e-10 3.86989200e+03 7.81860800e-03 7.56442400e-02
        2 -1    0    0  501    0 +0.0000000000e+00 +0.0000000000e+00 +1.3172308237e+03 1.3172308237e+03 0.0000000000e+00 0.0000e+00 -1.0000e+00
       -2 -1    0    0    0  501 -0.0000000000e+00 -0.0000000000e+00 -2.8423392800e+03 2.8423392800e+03 0.0000000000e+00 0.0000e+00 1.0000e+00
      -13  1    1    2    0    0 +1.7805967651e+02 -1.6834277394e+03 -1.7699298586e+03 2.4491398300e+03 0.0000000000e+00 0.0000e+00 1.0000e+00
       13  1    1    2    0    0 -1.7805967651e+02 +1.6834277394e+03 +2.4482140229e+02 1.7104302737e+03 0.0000000000e+00 0.0000e+00 -1.0000e+00
<mgrwt>
<rscale>  0 0.38698925E+04</rscale>
<asrwt>0</asrwt>
<pdfrwt beam="1">  1        2 0.20265090E+00 0.38698925E+04</pdfrwt>
<pdfrwt beam="2">  1       -2 0.43728296E+00 0.38698925E+04</pdfrwt>
<totfact> 0.48335987E-02</totfact>
</mgrwt>
<rwgt>
<wgt id='morphing_basis_vector_1'> +1.3890909e-05 </wgt>
<wgt id='morphing_basis_vector_2'> +9.5594663e-06 </wgt>
<wgt id='morphing_basis_vector_3'> +1.5272277e-05 </wgt>
<wgt id='morphing_basis_vector_4'> +1.0773341e-05 </wgt>
<wgt id='morphing_basis_vector_5'> +1.7389149e-05 </wgt>
</rwgt>
</event>
<event>
 4      1 +4.5322000e-10 4.13714700e+03 7.81860800e-03 7.51671900e-02
        2 -1    0    0  501    0 +0.0000000000e+00 +0.0000000000e+00 +5.0899068372e+03 5.0899068372e+03 0.0000000000e+00 0.0000e+00 -1.0000e+00
       -2 -1    0    0    0  501 -0.0000000000e+00 -0.0000000000e+00 -8.4068273405e+02 8.4068273405e+02 0.0000000000e+00 0.0000e+00 1.0000e+00
      -13  1    1    2    0    0 -1.8901127885e+03 +4.2869949756e+02 +1.0882349260e+03 2.2227381462e+03 0.0000000000e+00 0.0000e+00 1.0000e+00
       13  1    1    2    0    0 +1.8901127885e+03 -4.2869949756e+02 +3.1609891771e+03 3.7078514251e+03 0.0000000000e+00 0.0000e+00 -1.0000e+00
<mgrwt>
<rscale>  0 0.41371472E+04</rscale>
<asrwt>0</asrwt>
<pdfrwt beam="1">  1        2 0.78306257E+00 0.41371472E+04</pdfrwt>
<pdfrwt beam="2">  1       -2 0.12933581E+00 0.41371472E+04</pdfrwt>
<totfact> 0.86919681E-03</totfact>
</mgrwt>
<rwgt>
<wgt id='morphing_basis_vector_1'> +1.8198575e-05 </wgt>
<wgt id='morphing_basis_vector_2'> +1.2712102e-05 </wgt>
<wgt id='morphing_basis_vector_3'> +2.0074385e-05 </wgt>
<wgt id='morphing_basis_vector_4'> +1.3922661e-05 </wgt>
<wgt id='morphing_basis_vector_5'> +2.2729759e-05 </wgt>
</rwgt>
</event>
<event>
 4      1 +4.5322000e-10 4.28442900e+03 7.81860800e-03 7.49196800e-02
        2 -1    0    0  501    0 +0.0000000000e+00 +0.0000000000e+00 +2.8325438056e+03 2.8325438056e+03 0.0000000000e+00 0.0000e+00 -1.0000e+00
       -2 -1    0    0    0  501 -0.0000000000e+00 -0.0000000000e+00 -1.6201278411e+03 1.6201278411e+03 0.0000000000e+00 0.0000e+00 1.0000e+00
      -13  1    1    2    0    0 -9.7417073421e+02 -4.5091349078e+02 -1.3204373688e+03 1.7017304253e+03 0.0000000000e+00 0.0000e+00 1.0000e+00
       13  1    1    2    0    0 +9.7417073421e+02 +4.5091349078e+02 +2.5328533332e+03 2.7509412213e+03 0.0000000000e+00 0.0000e+00 -1.0000e+00
<mgrwt>
<rscale>  0 0.42844291E+04</rscale>
<asrwt>0</asrwt>
<pdfrwt beam="1">  1        2 0.43577597E+00 0.42844291E+04</pdfrwt>
<pdfrwt beam="2">  1       -2 0.24925044E+00 0.42844291E+04</pdfrwt>
<totfact> 0.11045957E-01</totfact>
</mgrwt>
<rwgt>
<wgt id='morphing_basis_vector_1'> +2.0730832e-05 </wgt>
<wgt id='morphing_basis_vector_2'> +1.4066712e-05 </wgt>
<wgt id='morphing_basis_vector_3'> +2.2786853e-05 </wgt>
<wgt id='morphing_basis_vector_4'> +1.6420757e-05 </wgt>
<wgt id='morphing_basis_vector_5'> +2.6192972e-05 </wgt>
</rwgt>
</event>
<event>
 4      1 +4.5322000e-10 3.96633800e+03 7.81860800e-03 7.54676800e-02
        2 -1    0    0  501    0 +0.0000000000e+00 +0.0000000000e+00 +2.7667524511e+03 2.7667524511e+03 0.0000000000e+00 0.0000e+00 1.0000e+00
       -2 -1    0    0    0  501 -0.0000000000e+00 -0.0000000000e+00 -1.4215073672e+03 1.4215073672e+03 0.0000000000e+00 0.0000e+00 -1.0000e+00
      -13  1    1    2    0    0 -1.7481345098e+03 -9.0052729722e+02 +4.0127116063e+02 2.0069733984e+03 0.0000000000e+00 0.0000e+00 -1.0000e+00
       13  1    1    2    0    0 +1.7481345098e+03 +9.0052729722e+02 +9.4397392331e+02 2.1812864199e+03 0.0000000000e+00 0.0000e+00 1.0000e+00
<mgrwt>
<rscale>  0 0.39663379E+04</rscale>
<asrwt>0</asrwt>
<pdfrwt beam="1">  1        2 0.42565422E+00 0.39663379E+04</pdfrwt>
<pdfrwt beam="2">  1       -2 0.21869344E+00 0.39663379E+04</pdfrwt>
<totfact> 0.20393910E-01</totfact>
</mgrwt>
<rwgt>
<wgt id='morphing_basis_vector_1'> +1.5593057e-05 </wgt>
<wgt id='morphing_basis_vector_2'> +1.1348316e-05 </wgt>
<wgt id='morphing_basis_vector_3'> +1.7289625e-05 </wgt>
<wgt id='morphing_basis_vector_4'> +1.1317170e-05 </wgt>
<wgt id='morphing_basis_vector_5'> +1.9150248e-05 </wgt>
</rwgt>
</event>
<event>
 4      1 +4.5322000e-10 4.14800300e+03 7.81860800e-03 7.51485900e-02
        2 -1    0    0  501    0 +0.0000000000e+00 +0.0000000000e+00 +2.8085803526e+03 2.8085803526e+03 0.0000000000e+00 0.0000e+00 -1.0000e+00
       -2 -1    0    0    0  501 -0.0000000000e+00 -0.0000000000e+00 -1.5315503358e+03 1.5315503358e+03 0.0000000000e+00 0.0000e+00 1.0000e+00
      -13  1    1    2    0    0 +5.4815673425e+01 -9.3301731844e+02 -1.2987158281e+03 1.6000590229e+03 0.0000000000e+00 0.0000e+00 1.0000e+00
       13  1    1    2    0    0 -5.4815673425e+01 +9.3301731844e+02 +2.5757458449e+03 2.7400716655e+03 0.0000000000e+00 0.0000e+00 -1.0000e+00
<mgrwt>
<rscale>  0 0.41480030E+04</rscale>
<asrwt>0</asrwt>
<pdfrwt beam="1">  1        2 0.43208928E+00 0.41480030E+04</pdfrwt>
<pdfrwt beam="2">  1       -2 0.23562313E+00 0.41480030E+04</pdfrwt>
<totfact> 0.14379217E-01</totfact>
</mgrwt>
<rwgt>
<wgt id='morphing_basis_vector_1'> +1.8223233e-05 </wgt>
<wgt id='morphing_basis_vector_2'> +1.2357387e-05 </wgt>
<wgt id='morphing_basis_vector_3'> +2.0018643e-05 </wgt>
<wgt id='morphing_basis_vector_4'> +1.4422047e-05 </wgt>
<wgt id='morphing_basis_vector_5'> +2.2999743e-05 </wgt>
</rwgt>
</event>
<event>
 4      1 +4.5322000e-10 3.94551400e+03 7.81860800e-03 7.55053700e-02
        2 -1    0    0  501    0 +0.0000000000e+00 +0.0000000000e+00 +2.6248840596e+03 2.6248840596e+03 0.0000000000e+00 0.0000e+00 -1.0000e+00
       -2 -1    0    0    0  501 -0.0000000000e+00 -0.0000000000e+00 -1.4826443013e+03 1.4826443013e+03 0.0000000000e+00 0.0000e+00 1.0000e+00
      -13  1    1    2    0    0 -3.5476647045e+02 +1.8266813184e+03 -1.1087216732e+02 1.8641127984e+03 0.0000000000e+00 0.0000e+00 1.0000e+00
       13  1    1    2    0    0 +3.5476647045e+02 -1.8266813184e+03 +1.2531119257e+03 2.2434155625e+03 0.0000000000e+00 0.0000e+00 -1.0000e+00
<mgrwt>
<rscale>  0 0.39455136E+04</rscale>
<asrwt>0</asrwt>
<pdfrwt beam="1">  1        2 0.40382832E+00 0.39455136E+04</pdfrwt>
<pdfrwt beam="2">  1       -2 0.22809912E+00 0.39455136E+04</pdfrwt>
<totfact> 0.21438725E-01</totfact>
</mgrwt>
<rwgt>
<wgt id='morphing_basis_vector_1'> +1.5079222e-05 </wgt>
<wgt id='morphing_basis_vector_2'> +1.0552096e-05 </wgt>
<wgt id='morphing_basis_vector_3'> +1.6623800e-05 </wgt>
<wgt id='morphing_basis_vector_4'> +1.1483184e-05 </wgt>
<wgt id='morphing_basis_vector_5'> +1.8782794e-05 </wgt>
</rwgt>
</event>
<event>
 4      1 +4.5322000e-10 4.08088900e+03 7.81860800e-03 7.52645000e-02
        2 -1    0    0  501    0 +0.0000000000e+00 +0.0000000000e+00 +2.7730808440e+03 2.7730808440e+03 0.0000000000e+00 0.0000e+00 -1.0000e+00
       -2 -1    0    0    0  501 -0.0000000000e+00 -0.0000000000e+00 -1.5013674709e+03 1.5013674709e+03 0.0000000000e+00 0.0000e+00 1.0000e+00
      -13  1    1    2    0    0 +1.0629267619e+02 -1.3215412541e+03 -9.8872286730e+02 1.6538870359e+03 0.0000000000e+00 0.0000e+00 1.0000e+00
       13  1    1    2    0    0 -1.0629267619e+02 +1.3215412541e+03 +2.2604362404e+03 2.6205612789e+03 0.0000000000e+00 0.0000e+00 -1.0000e+00
<mgrwt>
<rscale>  0 0.40808888E+04</rscale>
<asrwt>0</asrwt>
<pdfrwt beam="1">  1        2 0.42662782E+00 0.40808888E+04</pdfrwt>
<pdfrwt beam="2">  1       -2 0.23097961E+00 0.40808888E+04</pdfrwt>
<totfact> 0.16398901E-01</totfact>
</mgrwt>
<rwgt>
<wgt id='morphing_basis_vector_1'> +1.7088233e-05 </wgt>
<wgt id='morphing_basis_vector_2'> +1.1609671e-05 </wgt>
<wgt id='morphing_basis_vector_3'> +1.8771719e-05 </wgt>
<wgt id='morphing_basis_vector_4'> +1.3484418e-05 </wgt>
<wgt id='morphing_basis_vector_5'> +2.1538470e-05 </wgt>
</rwgt>
</event>
<event>
 4      1 +4.5322000e-10 4.06663700e+03 7.81860800e-03 7.52894100e-02
        2 -1    0    0  501    0 +0.0000000000e+00 +0.0000000000e+00 +1.9509500504e+03 1.9509500504e+03 0.0000000000e+00 0.0000e+00 -1.0000e+00
       -2 -1    0    0    0  501 -0.0000000000e+00 -0.0000000000e+00 -2.1191643390e+03 2.1191643390e+03 0.0000000000e+00 0.0000e+00 1.0000e+00
      -13  1    1    2    0    0 -1.5405672412e+03 -6.8790795727e+02 -1.2198987076e+03 2.0819984724e+03 0.0000000000e+00 0.0000e+00 1.0000e+00
       13  1    1    2    0    0 +1.5405672412e+03 +6.8790795727e+02 +1.0516844189e+03 1.9881159170e+03 0.0000000000e+00 0.0000e+00 -1.0000e+00
<mgrwt>
<rscale>  0 0.40666368E+04</rscale>
<asrwt>0</asrwt>
<pdfrwt beam="1">  1        2 0.30014616E+00 0.40666368E+04</pdfrwt>
<pdfrwt beam="2">  1       -2 0.32602528E+00 0.40666368E+04</pdfrwt>
<totfact> 0.11246477E-01</totfact>
</mgrwt>
<rwgt>
<wgt id='morphing_basis_vector_1'> +1.6894008e-05 </wgt>
<wgt id='morphing_basis_vector_2'> +1.1572320e-05 </wgt>
<wgt id='morphing_basis_vector_3'> +1.8578523e-05 </wgt>
<wgt id='morphing_basis_vector_4'> +1.3207105e-05 </wgt>
<wgt id='morphing_basis_vector_5'> +2.1230315e-05 </wgt>
</rwgt>
</event>
<event>
 4      1 +4.5322000e-10 4.10087000e+03 7.81860800e-03 7.52297600e-02
        2 -1    0    0  501    0 +0.0000000000e+00 +0.0000000000e+00 +2.5500740735e+03 2.5500740735e+03 0.0000000000e+00 0.0000e+00 -1.0000e+00
       -2 -1    0    0    0  501 -0.0000000000e+00 -0.0000000000e+00 -1.6486907915e+03 1.6486907915e+03 0.0000000000e+00 0.0000e+00 1.0000e+00
      -13  1    1    2    0    0 +1.8718608867e+03 -4.2705311539e+02 -2.8624433572e+02 1.9411783437e+03 0.0000000000e+00 0.0000e+00 1.0000e+00
       13  1    1    2    0    0 -1.8718608867e+03 +4.2705311539e+02 +1.1876276177e+03 2.2575865212e+03 0.0000000000e+00 0.0000e+00 -1.0000e+00
<mgrwt>
<rscale>  0 0.41008700E+04</rscale>
<asrwt>0</asrwt>
<pdfrwt beam="1">  1        2 0.39231909E+00 0.41008700E+04</pdfrwt>
<pdfrwt beam="2">  1       -2 0.25364474E+00 0.41008700E+04</pdfrwt>
<totfact> 0.15604645E-01</totfact>
</mgrwt>
<rwgt>
<wgt id='morphing_basis_vector_1'> +1.7570514e-05 </wgt>
<wgt id='morphing_basis_vector_2'> +1.2269745e-05 </wgt>
<wgt id='morphing_basis_vector_3'> +1.9377866e-05 </wgt>
<wgt id='morphing_basis_vector_4'> +1.3440865e-05 </wgt>
<wgt id='morphing_basis_vector_5'> +2.1939528e-05 </wgt>
</rwgt>
</event>
<event>
 4      1 +4.5322000e-10 3.99079600e+03 7.81860800e-03 7.54237200e-02
        2 -1    0    0  501    0 +0.0000000000e+00 +0.0000000000e+00 +1.5846856332e+03 1.5846856332e+03 0.0000000000e+00 0.0000e+00 1.0000e+00
       -2 -1    0    0    0  501 -0.0000000000e+00 -0.0000000000e+00 -2.5125573603e+03 2.5125573603e+03 0.0000000000e+00 0.0000e+00 -1.0000e+00
      -13  1    1    2    0    0 -4.4080829299e+02 +1.7575690429e+03 -1.3218394276e+03 2.2429044482e+03 0.0000000000e+00 0.0000e+00 -1.0000e+00
       13  1    1    2    0    0 +4.4080829299e+02 -1.7575690429e+03 +3.9396770052e+02 1.8543385453e+03 0.0000000000e+00 0.0000e+00 1.0000e+00
<mgrwt>
<rscale>  0 0.39907962E+04</rscale>
<asrwt>0</asrwt>
<pdfrwt beam="1">  1        2 0.24379779E+00 0.39907962E+04</pdfrwt>
<pdfrwt beam="2">  1       -2 0.38654729E+00 0.39907962E+04</pdfrwt>
<totfact> 0.73278489E-02</totfact>
</mgrwt>
<rwgt>
<wgt id='morphing_basis_vector_1'> +1.5728792e-05 </wgt>
<wgt id='morphing_basis_vector_2'> +1.0894051e-05 </wgt>
<wgt id='morphing_basis_vector_3'> +1.7318322e-05 </wgt>
<wgt id='morphing_basis_vector_4'> +1.2129941e-05 </wgt>
<wgt id='morphing_basis_vector_5'> +1.9673524e-05 </wgt>
</rwgt>
</event>
<event>
 4      1 +4.5322000e-10 4.09594200e+03 7.81860800e-03 7.52383100e-02
        2 -1    0    0  501    0 +0.0000000000e+00 +0.0000000000e+00 +2.5437947824e+03 2.5437947824e+03 0.0000000000e+00 0.0000e+00 -1.0000e+00
       -2 -1    0    0    0  501 -0.0000000000e+00 -0.0000000000e+00 -1.6487910536e+03 1.6487910536e+03 0.0000000000e+00 0.0000e+00 1.0000e+00
      -13  1    1    2    0    0 -2.0205732671e+03 +3.3328809693e+02 +4.2731870792e+02 2.0919843598e+03 0.0000000000e+00 0.0000e+00 1.0000e+00
       13  1    1    2    0    0 +2.0205732671e+03 -3.3328809693e+02 +4.6768502091e+02 2.1006014763e+03 0.0000000000e+00 0.0000e+00 -1.0000e+00
<mgrwt>
<rscale>  0 0.40959424E+04</rscale>
<asrwt>0</asrwt>
<pdfrwt beam="1">  1        2 0.39135304E+00 0.40959424E+04</pdfrwt>
<pdfrwt beam="2">  1       -2 0.25366016E+00 0.40959424E+04</pdfrwt>
<totfact> 0.15743304E-01</totfact>
</mgrwt>
<rwgt>
<wgt id='morphing_basis_vector_1'> +1.7943020e-05 </wgt>
<wgt id='morphing_basis_vector_2'> +1.3552353e-05 </wgt>
<wgt id='morphing_basis_vector_3'> +2.0018260e-05 </wgt>
<wgt id='morphing_basis_vector_4'> +1.2409812e-05 </wgt>
<wgt id='morphing_basis_vector_5'> +2.1753207e-05 </wgt>
</rwgt>
</event>
<event>
 4      1 +4.5322000e-10 3.94532000e+03 7.81860800e-03 7.55057200e-02
        2 -1    0    0  501    0 +0.0000000000e+00 +0.0000000000e+00 +1.8846974735e+03 1.8846974735e+03 0.0000000000e+00 0.0000e+00 -1.0000e+00
       -2 -1    0    0    0  501 -0.0000000000e+00 -0.0000000000e+00 -2.0647277316e+03 2.0647277316e+03 0.0000000000e+00 0.0000e+00 1.0000e+00
      -13  1    1    2    0    0 +1.6349180204e+03 +5.0755666326e+02 -1.0712475532e+03 2.0194410168e+03 0.0000000000e+00 0.0000e+00 1.0000e+00
       13  1    1    2    0    0 -1.6349180204e+03 -5.0755666326e+02 +8.9121729513e+02 1.9299841883e+03 0.0000000000e+00 0.0000e+00 -1.0000e+00
<mgrwt>
<rscale>  0 0.39453198E+04</rscale>
<asrwt>0</asrwt>
<pdfrwt beam="1">  1        2 0.28995346E+00 0.39453198E+04</pdfrwt>
<pdfrwt beam="2">  1       -2 0.31765042E+00 0.39453198E+04</pdfrwt>
<totfact> 0.14058779E-01</totfact>
</mgrwt>
<rwgt>
<wgt id='morphing_basis_vector_1'> +1.4995169e-05 </wgt>
<wgt id='morphing_basis_vector_2'> +1.0311607e-05 </wgt>
<wgt id='morphing_basis_vector_3'> +1.6490516e-05 </wgt>
<wgt id='morphing_basis_vector_4'> +1.1652378e-05 </wgt>
<wgt id='morphing_basis_vector_5'> +1.8793363e-05 </wgt>
</rwgt>
</event>
<event>
 4      1 +4.5322000e-10 4.57242200e+03 7.81860800e-03 7.44636000e-02
        2 -1    0    0  501    0 +0.0000000000e+00 +0.0000000000e+00 +2.1275073835e+03 2.1275073835e+03 0.0000000000e+00 0.0000e+00 1.0000e+00
       -2 -1    0    0    0  501 -0.0000000000e+00 -0.0000000000e+00 -2.4567536300e+03 2.4567536300e+03 0.0000000000e+00 0.0000e+00 -1.0000e+00
      -13  1    1    2    0    0 +1.4935745843e+03 -5.4087589633e+02 +1.4838510523e+03 2.1737354300e+03 0.0000000000e+00 0.0000e+00 1.0000e+00
       13  1    1    2    0    0 -1.4935745843e+03 +5.4087589633e+02 -1.8130972988e+03 2.4105255835e+03 0.0000000000e+00 0.0000e+00 -1.0000e+00
<mgrwt>
<rscale>  0 0.45724223E+04</rscale>
<asrwt>0</asrwt>
<pdfrwt beam="1">  1        2 0.32730883E+00 0.45724223E+04</pdfrwt>
<pdfrwt beam="2">  1       -2 0.37796210E+00 0.45724223E+04</pdfrwt>
<totfact> 0.39511051E-02</totfact>
</mgrwt>
<rwgt>
<wgt id='morphing_basis_vector_1'> +3.4877336e-05 </wgt>
<wgt id='morphing_basis_vector_2'> +4.1782442e-05 </wgt>
<wgt id='morphing_basis_vector_3'> +4.2511779e-05 </wgt>
<wgt id='morphing_basis_vector_4'> +4.2907344e-06 </wgt>
<wgt id='morphing_basis_vector_5'> +3.2589104e-05 </wgt>
</rwgt>
</event>
<event>
 4      1 +4.5322000e-10 3.95133500e+03 7.81860800e-03 7.54948100e-02
        2 -1    0    0  501    0 +0.0000000000e+00 +0.0000000000e+00 +3.1572930495e+03 3.1572930495e+03 0.0000000000e+00 0.0000e+00 1.0000e+00
       -2 -1    0    0    0  501 -0.0000000000e+00 -0.0000000000e+00 -1.2362686371e+03 1.2362686371e+03 0.0000000000e+00 0.0000e+00 -1.0000e+00
      -13  1    1    2    0    0 -1.2083322879e+03 +1.1362849879e+03 +2.1539749856e+03 2.7186060271e+03 0.0000000000e+00 0.0000e+00 1.0000e+00
       13  1    1    2    0    0 +1.2083322879e+03 -1.1362849879e+03 -2.3295057321e+02 1.6749556595e+03 0.0000000000e+00 0.0000e+00 -1.0000e+00
<mgrwt>
<rscale>  0 0.39513352E+04</rscale>
<asrwt>0</asrwt>
<pdfrwt beam="1">  1        2 0.48573739E+00 0.39513352E+04</pdfrwt>
<pdfrwt beam="2">  1       -2 0.19019518E+00 0.39513352E+04</pdfrwt>
<totfact> 0.18362412E-01</totfact>
</mgrwt>
<rwgt>
<wgt id='morphing_basis_vector_1'> +1.8119904e-05 </wgt>
<wgt id='morphing_basis_vector_2'> +1.9291833e-05 </wgt>
<wgt id='morphing_basis_vector_3'> +2.1454733e-05 </wgt>
<wgt id='morphing_basis_vector_4'> +5.3105769e-06 </wgt>
<wgt id='morphing_basis_vector_5'> +1.8374740e-05 </wgt>
</rwgt>
</event>
<event>
 4      1 +4.5322000e-10 4.36477200e+03 7.81860800e-03 7.47888800e-02
        2 -1    0    0  501    0 +0.0000000000e+00 +0.0000000000e+00 +3.3606877353e+03 3.3606877353e+03 0.0000000000e+00 0.0000e+00 -1.0000e+00
       -2 -1    0    0    0  501 -0.0000000000e+00 -0.0000000000e+00 -1.4172128181e+03 1.4172128181e+03 0.0000000000e+00 0.0000e+00 1.0000e+00
      -13  1    1    2    0    0 +2.0175063838e+03 -5.9694328847e+02 +3.3708891058e+02 2.1307984963e+03 0.0000000000e+00 0.0000e+00 1.0000e+00
       13  1    1    2    0    0 -2.0175063838e+03 +5.9694328847e+02 +1.6063860066e+03 2.6471020570e+03 0.0000000000e+00 0.0000e+00 -1.0000e+00
<mgrwt>
<rscale>  0 0.43647725E+04</rscale>
<asrwt>0</asrwt>
<pdfrwt beam="1">  1        2 0.51702888E+00 0.43647725E+04</pdfrwt>
<pdfrwt beam="2">  1       -2 0.21803274E+00 0.43647725E+04</pdfrwt>
<totfact> 0.80707888E-02</totfact>
</mgrwt>
<rwgt>
<wgt id='morphing_basis_vector_1'> +2.2614009e-05 </wgt>
<wgt id='morphing_basis_vector_2'> +1.6005418e-05 </wgt>
<wgt id='morphing_basis_vector_3'> +2.5013755e-05 </wgt>
<wgt id='morphing_basis_vector_4'> +1.7075147e-05 </wgt>
<wgt id='morphing_basis_vector_5'> +2.8170940e-05 </wgt>
</rwgt>
</event>
<event>
 4      1 +4.5322000e-10 3.96046300e+03 7.81860800e-03 7.54782900e-02
        2 -1    0    0  501    0 +0.0000000000e+00 +0.0000000000e+00 +3.0733412881e+03 3.0733412881e+03 0.0000000000e+00 0.0000e+00 -1.0000e+00
       -2 -1    0    0    0  501 -0.0000000000e+00 -0.0000000000e+00 -1.2759131623e+03 1.2759131623e+03 0.0000000000e+00 0.0000e+00 1.0000e+00
      -13  1    1    2    0    0 +1.5499885234e+03 +3.4648052057e+02 -4.0010068335e+02 1.6378625494e+03 0.0000000000e+00 0.0000e+00 1.0000e+00
       13  1    1    2    0    0 -1.5499885234e+03 -3.4648052057e+02 +2.1975288092e+03 2.7113919011e+03 0.0000000000e+00 0.0000e+00 -1.0000e+00
<mgrwt>
<rscale>  0 0.39604629E+04</rscale>
<asrwt>0</asrwt>
<pdfrwt beam="1">  1        2 0.47282174E+00 0.39604629E+04</pdfrwt>
<pdfrwt beam="2">  1       -2 0.19629433E+00 0.39604629E+04</pdfrwt>
<totfact> 0.18814279E-01</totfact>
</mgrwt>
<rwgt>
<wgt id='morphing_basis_vector_1'> +1.5195520e-05 </wgt>
<wgt id='morphing_basis_vector_2'> +1.0382380e-05 </wgt>
<wgt id='morphing_basis_vector_3'> +1.6697021e-05 </wgt>
<wgt id='morphing_basis_vector_4'> +1.1896582e-05 </wgt>
<wgt id='morphing_basis_vector_5'> +1.9090326e-05 </wgt>
</rwgt>
</event>
<event>
 4      1 +4.5322000e-10 3.85852900e+03 7.81860800e-03 7.56653900e-02
        2 -1    0    0  501    0 +0.0000000000e+00 +0.0000000000e+00 +2.4133123432e+03 2.4133123432e+03 0.0000000000e+00 0.0000e+00 -1.0000e+00
       -2 -1    0    0    0  501 -0.0000000000e+00 -0.0000000000e+00 -1.5423041146e+03 1.5423041146e+03 0.0000000000e+00 0.0000e+00 1.0000e+00
      -13  1    1    2    0    0 -1.1470968312e+03 +2.7591557650e+02 -1.1293713381e+03 1.6332299792e+03 0.0000000000e+00 0.0000e+00 1.0000e+00
       13  1    1    2    0    0 +1.1470968312e+03 -2.7591557650e+02 +2.0003795667e+03 2.3223864787e+03 0.0000000000e+00 0.0000e+00 -1.0000e+00
<mgrwt>
<rscale>  0 0.38585290E+04</rscale>
<asrwt>0</asrwt>
<pdfrwt beam="1">  1        2 0.37127882E+00 0.38585290E+04</pdfrwt>
<pdfrwt beam="2">  1       -2 0.23727756E+00 0.38585290E+04</pdfrwt>
<totfact> 0.24930715E-01</totfact>
</mgrwt>
<rwgt>
<wgt id='morphing_basis_vector_1'> +1.3670497e-05 </wgt>
<wgt id='morphing_basis_vector_2'> +9.2748874e-06 </wgt>
<wgt id='morphing_basis_vector_3'> +1.4999522e-05 </wgt>
<wgt id='morphing_basis_vector_4'> +1.0771022e-05 </wgt>
<wgt id='morphing_basis_vector_5'> +1.7195072e-05 </wgt>
</rwgt>
</event>
<event>
 4      1 +4.5322000e-10 4.58334400e+03 7.81860800e-03 7.44469800e-02
        2 -1    0    0  501    0 +0.0000000000e+00 +0.0000000000e+00 +4.6393609841e+03 4.6393609841e+03 0.0000000000e+00 0.0000e+00 1.0000e+00
       -2 -1    0    0    0  501 -0.0000000000e+00 -0.0000000000e+00 -1.1320010220e+03 1.1320010220e+03 0.0000000000e+00 0.0000e+00 -1.0000e+00
      -13  1    1    2    0    0 +7.0446052551e+01 -9.5105129880e+02 -8.7027118468e+02 1.2910589275e+03 0.0000000000e+00 0.0000e+00 -1.0000e+00
       13  1    1    2    0    0 -7.0446052551e+01 +9.5105129880e+02 +4.3776311468e+03 4.4803030786e+03 0.0000000000e+00 0.0000e+00 1.0000e+00
<mgrwt>
<rscale>  0 0.45833444E+04</rscale>
<asrwt>0</asrwt>
<pdfrwt beam="1">  1        2 0.71374783E+00 0.45833444E+04</pdfrwt>
<pdfrwt beam="2">  1       -2 0.17415401E+00 0.45833444E+04</pdfrwt>
<totfact> 0.12917373E-02</totfact>
</mgrwt>
<rwgt>
<wgt id='morphing_basis_vector_1'> +2.7116423e-05 </wgt>
<wgt id='morphing_basis_vector_2'> +1.8404787e-05 </wgt>
<wgt id='morphing_basis_vector_3'> +2.9835455e-05 </wgt>
<wgt id='morphing_basis_vector_4'> +2.1535456e-05 </wgt>
<wgt id='morphing_basis_vector_5'> +3.4341877e-05 </wgt>
</rwgt>
</event>
<event>
 4      1 +4.5322000e-10 4.08602800e+03 7.81860800e-03 7.52555500e-02
        2 -1    0    0  501    0 +0.0000000000e+00 +0.0000000000e+00 +1.9543935491e+03 1.9543935491e+03 0.0000000000e+00 0.0000e+00 -1.0000e+00
       -2 -1    0    0    0  501 -0.0000000000e+00 -0.0000000000e+00 -2.1356524369e+03 2.1356524369e+03 0.0000000000e+00 0.0000e+00 1.0000e+00
      -13  1    1    2    0    0 +1.9275487449e+03 +4.4797469498e+02 -5.9884901368e+02 2.0675457994e+03 0.0000000000e+00 0.0000e+00 1.0000e+00
       13  1    1    2    0    0 -1.9275487449e+03 -4.4797469498e+02 +4.1759012585e+02 2.0225001866e+03 0.0000000000e+00 0.0000e+00 -1.0000e+00
<mgrwt>
<rscale>  0 0.40860276E+04</rscale>
<asrwt>0</asrwt>
<pdfrwt beam="1">  1        2 0.30067593E+00 0.40860276E+04</pdfrwt>
<pdfrwt beam="2">  1       -2 0.32856192E+00 0.40860276E+04</pdfrwt>
<totfact> 0.10755808E-01</totfact>
</mgrwt>
<rwgt>
<wgt id='morphing_basis_vector_1'> +1.7405195e-05 </wgt>
<wgt id='morphing_basis_vector_2'> +1.2347515e-05 </wgt>
<wgt id='morphing_basis_vector_3'> +1.9237786e-05 </wgt>
<wgt id='morphing_basis_vector_4'> +1.3063436e-05 </wgt>
<wgt id='morphing_basis_vector_5'> +2.1606882e-05 </wgt>
</rwgt>
</event>
<event>
 4      1 +4.5322000e-10 4.15699700e+03 7.81860800e-03 7.51332300e-02
        2 -1    0    0  501    0 +0.0000000000e+00 +0.0000000000e+00 +1.6050380306e+03 1.6050380306e+03 0.0000000000e+00 0.0000e+00 1.0000e+00
       -2 -1    0    0    0  501 -0.0000000000e+00 -0.0000000000e+00 -2.6916215658e+03 2.6916215658e+03 0.0000000000e+00 0.0000e+00 -1.0000e+00
      -13  1    1    2    0    0 +7.0953554522e+02 +1.2951568365e+03 +9.6847716006e+02 1.7660181003e+03 0.0000000000e+00 0.0000e+00 1.0000e+00
       13  1    1    2    0    0 -7.0953554522e+02 -1.2951568365e+03 -2.0550606953e+03 2.5306414962e+03 0.0000000000e+00 0.0000e+00 -1.0000e+00
<mgrwt>
<rscale>  0 0.41569965E+04</rscale>
<asrwt>0</asrwt>
<pdfrwt beam="1">  1        2 0.24692893E+00 0.41569965E+04</pdfrwt>
<pdfrwt beam="2">  1       -2 0.41409563E+00 0.41569965E+04</pdfrwt>
<totfact> 0.46547777E-02</totfact>
</mgrwt>
<rwgt>
<wgt id='morphing_basis_vector_1'> +2.3726245e-05 </wgt>
<wgt id='morphing_basis_vector_2'> +2.8173323e-05 </wgt>
<wgt id='morphing_basis_vector_3'> +2.8789163e-05 </wgt>
<wgt id='morphing_basis_vector_4'> +3.2248723e-06 </wgt>
<wgt id='morphing_basis_vector_5'> +2.2256205e-05 </wgt>
</rwgt>
</event>
<event>
 4      1 +4.5322000e-10 3.89465200e+03 7.81860800e-03 7.55984200e-02
        2 -1    0    0  501    0 +0.0000000000e+00 +0.0000000000e+00 +1.8372723634e+03 1.8372723634e+03 0.0000000000e+00 0.0000e+00 -1.0000e+00
       -2 -1    0    0    0  501 -0.0000000000e+00 -0.0000000000e+00 -2.0639715425e+03 2.0639715425e+03 0.0000000000e+00 0.0000e+00 1.0000e+00
      -13  1    1    2    0    0 -1.7722240746e+03 +4.0704455253e+02 +5.8469035933e+02 1.9100592280e+03 0.0000000000e+00 0.0000e+00 1.0000e+00
       13  1    1    2    0    0 +1.7722240746e+03 -4.0704455253e+02 -8.1138953849e+02 1.9911846779e+03 0.0000000000e+00 0.0000e+00 -1.0000e+00
<mgrwt>
<rscale>  0 0.38946517E+04</rscale>
<asrwt>0</asrwt>
<pdfrwt beam="1">  1        2 0.28265729E+00 0.38946517E+04</pdfrwt>
<pdfrwt beam="2">  1       -2 0.31753408E+00 0.38946517E+04</pdfrwt>
<totfact> 0.15030262E-01</totfact>
</mgrwt>
<rwgt>
<wgt id='morphing_basis_vector_1'> +1.5913476e-05 </wgt>
<wgt id='morphing_basis_vector_2'> +1.4702490e-05 </wgt>
<wgt id='morphing_basis_vector_3'> +1.8334585e-05 </wgt>
<wgt id='morphing_basis_vector_4'> +7.5339226e-06 </wgt>
<wgt id='morphing_basis_vector_5'> +1.7547932e-05 </wgt>
</rwgt>
</event>
<event>
 4      1 +4.5322000e-10 4.25049000e+03 7.81860800e-03 7.49758100e-02
        2 -1    0    0  501    0 +0.0000000000e+00 +0.0000000000e+00 +2.5367290496e+03 2.5367290496e+03 0.0000000000e+00 0.0000e+00 -1.0000e+00
       -2 -1    0    0    0  501 -0.0000000000e+00 -0.0000000000e+00 -1.7805078381e+03 1.7805078381e+03 0.0000000000e+00 0.0000e+00 1.0000e+00
      -13  1    1    2    0    0 -1.4568429950e+03 +1.5054682487e+03 +7.4127221478e+02 2.2222310088e+03 0.0000000000e+00 0.0000e+00 1.0000e+00
       13  1    1    2    0    0 +1.4568429950e+03 -1.5054682487e+03 +1.4948996720e+01 2.0950058789e+03 0.0000000000e+00 0.0000e+00 -1.0000e+00
<mgrwt>
<rscale>  0 0.42504898E+04</rscale>
<asrwt>0</asrwt>
<pdfrwt beam="1">  1        2 0.39026601E+00 0.42504898E+04</pdfrwt>
<pdfrwt beam="2">  1       -2 0.27392428E+00 0.42504898E+04</pdfrwt>
<totfact> 0.11400609E-01</totfact>
</mgrwt>
<rwgt>
<wgt id='morphing_basis_vector_1'> +2.1409445e-05 </wgt>
<wgt id='morphing_basis_vector_2'> +1.7520129e-05 </wgt>
<wgt id='morphing_basis_vector_3'> +2.4206971e-05 </wgt>
<wgt id='morphing_basis_vector_4'> +1.3095607e-05 </wgt>
<wgt id='morphing_basis_vector_5'> +2.5134834e-05 </wgt>
</rwgt>
</event>
<event>
 4      1 +4.5322000e-10 3.86962900e+03 7.81860800e-03 7.56447300e-02
        2 -1    0    0  501    0 +0.0000000000e+00 +0.0000000000e+00 +1.8461262167e+03 1.8461262167e+03 0.0000000000e+00 0.0000e+00 -1.0000e+00
       -2 -1    0    0    0  501 -0.0000000000e+00 -0.0000000000e+00 -2.0277630928e+03 2.0277630928e+03 0.0000000000e+00 0.0000e+00 1.0000e+00
      -13  1    1    2    0    0 -1.2623326852e+03 +3.0122196182e+02 -1.5274204408e+03 2.0043032908e+03 0.0000000000e+00 0.0000e+00 1.0000e+00
       13  1    1    2    0    0 +1.2623326852e+03 -3.0122196182e+02 +1.3457835647e+03 1.8695860187e+03 0.0000000000e+00 0.0000e+00 -1.0000e+00
<mgrwt>
<rscale>  0 0.38696287E+04</rscale>
<asrwt>0</asrwt>
<pdfrwt beam="1">  1        2 0.28401942E+00 0.38696287E+04</pdfrwt>
<pdfrwt beam="2">  1       -2 0.31196355E+00 0.38696287E+04</pdfrwt>
<totfact> 0.16221560E-01</totfact>
</mgrwt>
<rwgt>
<wgt id='morphing_basis_vector_1'> +1.3832334e-05 </wgt>
<wgt id='morphing_basis_vector_2'> +9.3957326e-06 </wgt>
<wgt id='morphing_basis_vector_3'> +1.5180366e-05 </wgt>
<wgt id='morphing_basis_vector_4'> +1.0886162e-05 </wgt>
<wgt id='morphing_basis_vector_5'> +1.7394018e-05 </wgt>
</rwgt>
</event>
<event>
 4      1 +4.5322000e-10 4.41564300e+03 7.81860800e-03 7.47075300e-02
        2 -1    0    0  501    0 +0.0000000000e+00 +0.0000000000e+00 +1.8683066161e+03 1.8683066161e+03 0.0000000000e+00 0.0000e+00 -1.0000e+00
       -2 -1    0    0    0  501 -0.0000000000e+00 -0.0000000000e+00 -2.6090339243e+03 2.6090339243e+03 0.0000000000e+00 0.0000e+00 1.0000e+00
      -13  1    1    2    0    0 +1.5822815001e+03 -1.1649174674e+03 +6.5059536550e+02 2.0697637017e+03 0.0000000000e+00 0.0000e+00 1.0000e+00
       13  1    1    2    0    0 -1.5822815001e+03 +1.1649174674e+03 -1.3913226737e+03 2.4075768386e+03 0.0000000000e+00 0.0000e+00 -1.0000e+00
<mgrwt>
<rscale>  0 0.44156428E+04</rscale>
<asrwt>0</asrwt>
<pdfrwt beam="1">  1        2 0.28743179E+00 0.44156428E+04</pdfrwt>
<pdfrwt beam="2">  1       -2 0.40138983E+00 0.44156428E+04</pdfrwt>
<totfact> 0.39446677E-02</totfact>
</mgrwt>
<rwgt>
<wgt id='morphing_basis_vector_1'> +2.7195956e-05 </wgt>
<wgt id='morphing_basis_vector_2'> +2.7086933e-05 </wgt>
<wgt id='morphing_basis_vector_3'> +3.1870173e-05 </wgt>
<wgt id='morphing_basis_vector_4'> +1.0429028e-05 </wgt>
<wgt id='morphing_basis_vector_5'> +2.8889591e-05 </wgt>
</rwgt>
</event>
<event>
 4      1 +4.5322000e-10 4.42404500e+03 7.81860800e-03 7.46942000e-02
        2 -1    0    0  501    0 +0.0000000000e+00 +0.0000000000e+00 +1.4676891922e+03 1.4676891922e+03 0.0000000000e+00 0.0000e+00 1.0000e+00
       -2 -1    0    0    0  501 -0.0000000000e+00 -0.0000000000e+00 -3.3338413564e+03 3.3338413564e+03 0.0000000000e+00 0.0000e+00 -1.0000e+00
      -13  1    1    2    0    0 -2.9481686097e+02 +1.9402016910e+03 -2.0408230115e+03 2.8312997276e+03 0.0000000000e+00 0.0000e+00 -1.0000e+00
       13  1    1    2    0    0 +2.9481686097e+02 -1.9402016910e+03 +1.7467084736e+02 1.9702308210e+03 0.0000000000e+00 0.0000e+00 1.0000e+00
<mgrwt>
<rscale>  0 0.44240447E+04</rscale>
<asrwt>0</asrwt>
<pdfrwt beam="1">  1        2 0.22579834E+00 0.44240447E+04</pdfrwt>
<pdfrwt beam="2">  1       -2 0.51289867E+00 0.44240447E+04</pdfrwt>
<totfact> 0.10717714E-02</totfact>
</mgrwt>
<rwgt>
<wgt id='morphing_basis_vector_1'> +2.3678640e-05 </wgt>
<wgt id='morphing_basis_vector_2'> +1.6351827e-05 </wgt>
<wgt id='morphing_basis_vector_3'> +2.6104097e-05 </wgt>
<wgt id='morphing_basis_vector_4'> +1.8415206e-05 </wgt>
<wgt id='morphing_basis_vector_5'> +2.9771736e-05 </wgt>
</rwgt>
</event>
<event>
 4      1 +4.5322000e-10 3.87695900e+03 7.81860800e-03 7.56311200e-02
        2 -1    0    0  501    0 +0.0000000000e+00 +0.0000000000e+00 +6.9509117674e+02 6.9509117674e+02 0.0000000000e+00 0.0000e+00 1.0000e+00
       -2 -1    0    0    0  501 -0.0000000000e+00 -0.0000000000e+00 -5.4060585406e+03 5.4060585406e+03 0.0000000000e+00 0.0000e+00 -1.0000e+00
      -13  1    1    2    0    0 +1.5336774664e+03 +1.1550187132e+03 -2.7761896309e+03 3.3754205168e+03 0.0000000000e+00 0.0000e+00 -1.0000e+00
       13  1    1    2    0    0 -1.5336774664e+03 -1.1550187132e+03 -1.9347777330e+03 2.7257292005e+03 0.0000000000e+00 0.0000e+00 1.0000e+00
<mgrwt>
<rscale>  0 0.38769594E+04</rscale>
<asrwt>0</asrwt>
<pdfrwt beam="1">  1        2 0.10693711E+00 0.38769594E+04</pdfrwt>
<pdfrwt beam="2">  1       -2 0.83170129E+00 0.38769594E+04</pdfrwt>
<totfact> 0.29658062E-03</totfact>
</mgrwt>
<rwgt>
<wgt id='morphing_basis_vector_1'> +1.4231292e-05 </wgt>
<wgt id='morphing_basis_vector_2'> +1.0332529e-05 </wgt>
<wgt id='morphing_basis_vector_3'> +1.5767107e-05 </wgt>
<wgt id='morphing_basis_vector_4'> +1.0347373e-05 </wgt>
<wgt id='morphing_basis_vector_5'> +1.7475144e-05 </wgt>
</rwgt>
</event>
<event>
 4      1 +4.5322000e-10 4.02015100e+03 7.81860800e-03 7.53713800e-02
        2 -1    0    0  501    0 +0.0000000000e+00 +0.0000000000e+00 +3.5963334612e+03 3.5963334612e+03 0.0000000000e+00 0.0000e+00 1.0000e+00
       -2 -1    0    0    0  501 -0.0000000000e+00 -0.0000000000e+00 -1.1234784201e+03 1.1234784201e+03 0.0000000000e+00 0.0000e+00 -1.0000e+00
      -13  1    1    2    0    0 -3.6384087778e+02 +5.4354537927e+02 -9.9504304319e+02 1.1907696761e+03 0.0000000000e+00 0.0000e+00 -1.0000e+00
       13  1    1    2    0    0 +3.6384087778e+02 -5.4354537927e+02 +3.4678980842e+03 3.5290422052e+03 0.0000000000e+00 0.0000e+00 1.0000e+00
<mgrwt>
<rscale>  0 0.40201508E+04</rscale>
<asrwt>0</asrwt>
<pdfrwt beam="1">  1        2 0.55328206E+00 0.40201508E+04</pdfrwt>
<pdfrwt beam="2">  1       -2 0.17284284E+00 0.40201508E+04</pdfrwt>
<totfact> 0.12044427E-01</totfact>
</mgrwt>
<rwgt>
<wgt id='morphing_basis_vector_1'> +1.6086555e-05 </wgt>
<wgt id='morphing_basis_vector_2'> +1.0900812e-05 </wgt>
<wgt id='morphing_basis_vector_3'> +1.7660503e-05 </wgt>
<wgt id='morphing_basis_vector_4'> +1.2720449e-05 </wgt>
<wgt id='morphing_basis_vector_5'> +2.0280707e-05 </wgt>
</rwgt>
</event>
<event>
 4      1 +4.5322000e-10 4.10466100e+03 7.81860800e-03 7.52231900e-02
        2 -1    0    0  501    0 +0.0000000000e+00 +0.0000000000e+00 +1.3749748240e+03 1.3749748240e+03 0.0000000000e+00 0.0000e+00 1.0000e+00
       -2 -1    0    0    0  501 -0.0000000000e+00 -0.0000000000e+00 -3.0633734270e+03 3.0633734270e+03 0.0000000000e+00 0.0000e+00 -1.0000e+00
      -13  1    1    2    0    0 +3.6945120160e+02 +9.9660099431e+02 -2.7425885528e+03 2.9413431800e+03 0.0000000000e+00 0.0000e+00 -1.0000e+00
       13  1    1    2    0    0 -3.6945120160e+02 -9.9660099431e+02 +1.0541899499e+03 1.4970050710e+03 0.0000000000e+00 0.0000e+00 1.0000e+00
<mgrwt>
<rscale>  0 0.41046614E+04</rscale>
<asrwt>0</asrwt>
<pdfrwt beam="1">  1        2 0.21153459E+00 0.41046614E+04</pdfrwt>
<pdfrwt beam="2">  1       -2 0.47128822E+00 0.41046614E+04</pdfrwt>
<totfact> 0.25339231E-02</totfact>
</mgrwt>
<rwgt>
<wgt id='morphing_basis_vector_1'> +1.7479019e-05 </wgt>
<wgt id='morphing_basis_vector_2'> +1.1855880e-05 </wgt>
<wgt id='morphing_basis_vector_3'> +1.9198521e-05 </wgt>
<wgt id='morphing_basis_vector_4'> +1.3821702e-05 </wgt>
<wgt id='morphing_basis_vector_5'> +2.2048747e-05 </wgt>
</rwgt>
</event>
<event>
 4      1 +4.5322000e-10 3.99258900e+03 7.81860800e-03 7.54205100e-02
        2 -1    0    0  501    0 +0.0000000000e+00 +0.0000000000e+00 +2.6685633858e+03 2.6685633858e+03 0.0000000000e+00 0.0000e+00 -1.0000e+00
       -2 -1    0    0    0  501 -0.0000000000e+00 -0.0000000000e+00 -1.4933850598e+03 1.4933850598e+03 0.0000000000e+00 0.0000e+00 1.0000e+00
      -13  1    1    2    0    0 -1.5778608687e+03 +6.9463023127e+02 -4.6160196313e+02 1.7847219536e+03 0.0000000000e+00 0.0000e+00 1.0000e+00
       13  1    1    2    0    0 +1.5778608687e+03 -6.9463023127e+02 +1.6367802892e+03 2.3772264920e+03 0.0000000000e+00 0.0000e+00 -1.0000e+00
<mgrwt>
<rscale>  0 0.39925895E+04</rscale>
<asrwt>0</asrwt>
<pdfrwt beam="1">  1        2 0.41054821E+00 0.39925895E+04</pdfrwt>
<pdfrwt beam="2">  1       -2 0.22975155E+00 0.39925895E+04</pdfrwt>
<totfact> 0.19553306E-01</totfact>
</mgrwt>
<rwgt>
<wgt id='morphing_basis_vector_1'> +1.5720244e-05 </wgt>
<wgt id='morphing_basis_vector_2'> +1.0805748e-05 </wgt>
<wgt id='morphing_basis_vector_3'> +1.7290598e-05 </wgt>
<wgt id='morphing_basis_vector_4'> +1.2229472e-05 </wgt>
<wgt id='morphing_basis_vector_5'> +1.9715551e-05 </wgt>
</rwgt>
</event>
<event>
 4      1 +4.5322000e-10 4.02917600e+03 7.81860800e-03 7.53553700e-02
        2 -1    0    0  501    0 +0.0000000000e+00 +0.0000000000e+00 +3.7484985707e+03 3.7484985707e+03 0.0000000000e+00 0.0000e+00 -1.0000e+00
       -2 -1    0    0    0  501 -0.0000000000e+00 -0.0000000000e+00 -1.0827176843e+03 1.0827176843e+03 0.0000000000e+00 0.0000e+00 1.0000e+00
      -13  1    1    2    0    0 +2.9399846290e+02 +6.3080871670e+02 -9.3399870393e+02 1.1647782245e+03 0.0000000000e+00 0.0000e+00 1.0000e+00
       13  1    1    2    0    0 -2.9399846290e+02 -6.3080871670e+02 +3.5997795903e+03 3.6664380305e+03 0.0000000000e+00 0.0000e+00 -1.0000e+00
<mgrwt>
<rscale>  0 0.40291764E+04</rscale>
<asrwt>0</asrwt>
<pdfrwt beam="1">  1        2 0.57669208E+00 0.40291764E+04</pdfrwt>
<pdfrwt beam="2">  1       -2 0.16657195E+00 0.40291764E+04</pdfrwt>
<totfact> 0.10287770E-01</totfact>
</mgrwt>
<rwgt>
<wgt id='morphing_basis_vector_1'> +1.6230919e-05 </wgt>
<wgt id='morphing_basis_vector_2'> +1.0999279e-05 </wgt>
<wgt id='morphing_basis_vector_3'> +1.7819822e-05 </wgt>
<wgt id='morphing_basis_vector_4'> +1.2835303e-05 </wgt>
<wgt id='morphing_basis_vector_5'> +2.0464324e-05 </wgt>
</rwgt>
</event>
<event>
 4      1 +4.5322000e-10 4.40172700e+03 7.81860800e-03 7.47296700e-02
        2 -1    0    0  501    0 +0.0000000000e+00 +0.0000000000e+00 +2.8739458426e+03 2.8739458426e+03 0.0000000000e+00 0.0000e+00 -1.0000e+00
       -2 -1    0    0    0  501 -0.0000000000e+00 -0.0000000000e+00 -1.6854177402e+03 1.6854177402e+03 0.0000000000e+00 0.0000e+00 1.0000e+00
      -13  1    1    2    0    0 +1.9149354499e+03 -1.0818204665e+03 +6.7768400018e+02 2.3014275794e+03 0.0000000000e+00 0.0000e+00 1.0000e+00
       13  1    1    2    0    0 -1.9149354499e+03 +1.0818204665e+03 +5.1084410218e+02 2.2579360035e+03 0.0000000000e+00 0.0000e+00 -1.0000e+00
<mgrwt>
<rscale>  0 0.44017266E+04</rscale>
<asrwt>0</asrwt>
<pdfrwt beam="1">  1        2 0.44214551E+00 0.44017266E+04</pdfrwt>
<pdfrwt beam="2">  1       -2 0.25929504E+00 0.44017266E+04</pdfrwt>
<totfact> 0.87827428E-02</totfact>
</mgrwt>
<rwgt>
<wgt id='morphing_basis_vector_1'> +2.4048257e-05 </wgt>
<wgt id='morphing_basis_vector_2'> +1.8498316e-05 </wgt>
<wgt id='morphing_basis_vector_3'> +2.6939609e-05 </wgt>
<wgt id='morphing_basis_vector_4'> +1.6257985e-05 </wgt>
<wgt id='morphing_basis_vector_5'> +2.9023777e-05 </wgt>
</rwgt>
</event>
<event>
 4      1 +4.5322000e-10 3.89611500e+03 7.81860800e-03 7.55957200e-02
        2 -1    0    0  501    0 +0.0000000000e+00 +0.0000000000e+00 +1.7431846174e+03 1.7431846174e+03 0.0000000000e+00 0.0000e+00 -1.0000e+00
       -2 -1    0    0    0  501 -0.0000000000e+00 -0.0000000000e+00 -2.1770086241e+03 2.1770086241e+03 0.0000000000e+00 0.0000e+00 1.0000e+00
      -13  1    1    2    0    0 -1.5234509778e+03 -9.7087317128e+01 -1.4345973972e+03 2.0948504770e+03 0.0000000000e+00 0.0000e+00 1.0000e+00
       13  1    1    2    0    0 +1.5234509778e+03 +9.7087317128e+01 +1.0007733905e+03 1.8253427645e+03 0.0000000000e+00 0.0000e+00 -1.0000e+00
<mgrwt>
<rscale>  0 0.38961150E+04</rscale>
<asrwt>0</asrwt>
<pdfrwt beam="1">  1        2 0.26818225E+00 0.38961150E+04</pdfrwt>
<pdfrwt beam="2">  1       -2 0.33492440E+00 0.38961150E+04</pdfrwt>
<totfact> 0.13005389E-01</totfact>
</mgrwt>
<rwgt>
<wgt id='morphing_basis_vector_1'> +1.4231572e-05 </wgt>
<wgt id='morphing_basis_vector_2'> +9.7101242e-06 </wgt>
<wgt id='morphing_basis_vector_3'> +1.5630119e-05 </wgt>
<wgt id='morphing_basis_vector_4'> +1.1149275e-05 </wgt>
<wgt id='morphing_basis_vector_5'> +1.7874429e-05 </wgt>
</rwgt>
</event>
<event>
 4      1 +4.5322000e-10 3.93106900e+03 7.81860800e-03 7.55316500e-02
        2 -1    0    0  501    0 +0.0000000000e+00 +0.0000000000e+00 +2.3435530796e+03 2.3435530796e+03 0.0000000000e+00 0.0000e+00 -1.0000e+00
       -2 -1    0    0    0  501 -0.0000000000e+00 -0.0000000000e+00 -1.6484908875e+03 1.6484908875e+03 0.0000000000e+00 0.0000e+00 1.0000e+00
      -13  1    1    2    0    0 +5.0251941142e+02 +8.1386564883e+02 -1.3962000753e+03 1.6924177095e+03 0.0000000000e+00 0.0000e+00 1.0000e+00
       13  1    1    2    0    0 -5.0251941142e+02 -8.1386564883e+02 +2.0912622675e+03 2.2996262576e+03 0.0000000000e+00 0.0000e+00 -1.0000e+00
<mgrwt>
<rscale>  0 0.39310690E+04</rscale>
<asrwt>0</asrwt>
<pdfrwt beam="1">  1        2 0.36054663E+00 0.39310690E+04</pdfrwt>
<pdfrwt beam="2">  1       -2 0.25361398E+00 0.39310690E+04</pdfrwt>
<totfact> 0.20978661E-01</totfact>
</mgrwt>
<rwgt>
<wgt id='morphing_basis_vector_1'> +1.4716522e-05 </wgt>
<wgt id='morphing_basis_vector_2'> +9.9747470e-06 </wgt>
<wgt id='morphing_basis_vector_3'> +1.6150569e-05 </wgt>
<wgt id='morphing_basis_vector_4'> +1.1619997e-05 </wgt>
<wgt id='morphing_basis_vector_5'> +1.8533242e-05 </wgt>
</rwgt>
</event>
<event>
 4      1 +4.5322000e-10 3.92138700e+03 7.81860800e-03 7.55493300e-02
        2 -1    0    0  501    0 +0.0000000000e+00 +0.0000000000e+00 +2.8987453770e+03 2.8987453770e+03 0.0000000000e+00 0.0000e+00 -1.0000e+00
       -2 -1    0    0    0  501 -0.0000000000e+00 -0.0000000000e+00 -1.3262011191e+03 1.3262011191e+03 0.0000000000e+00 0.0000e+00 1.0000e+00
      -13  1    1    2    0    0 -1.5445391966e+03 +1.0130960160e+03 +7.7834733215e+01 1.8487896346e+03 0.0000000000e+00 0.0000e+00 1.0000e+00
       13  1    1    2    0    0 +1.5445391966e+03 -1.0130960160e+03 +1.4947095247e+03 2.3761568615e+03 0.0000000000e+00 0.0000e+00 -1.0000e+00
<mgrwt>
<rscale>  0 0.39213872E+04</rscale>
<asrwt>0</asrwt>
<pdfrwt beam="1">  1        2 0.44596083E+00 0.39213872E+04</pdfrwt>
<pdfrwt beam="2">  1       -2 0.20403094E+00 0.39213872E+04</pdfrwt>
<totfact> 0.21526329E-01</totfact>
</mgrwt>
<rwgt>
<wgt id='morphing_basis_vector_1'> +1.4713587e-05 </wgt>
<wgt id='morphing_basis_vector_2'> +1.0290799e-05 </wgt>
<wgt id='morphing_basis_vector_3'> +1.6217640e-05 </wgt>
<wgt id='morphing_basis_vector_4'> +1.1207908e-05 </wgt>
<wgt id='morphing_basis_vector_5'> +1.8325635e-05 </wgt>
</rwgt>
</event>
<event>
 4      1 +4.5322000e-10 4.39592900e+03 7.81860800e-03 7.47389200e-02
        2 -1    0    0  501    0 +0.0000000000e+00 +0.0000000000e+00 +3.4867142677e+03 3.4867142677e+03 0.0000000000e+00 0.0000e+00 -1.0000e+00
       -2 -1    0    0    0  501 -0.0000000000e+00 -0.0000000000e+00 -1.3855587804e+03 1.3855587804e+03 0.0000000000e+00 0.0000e+00 1.0000e+00
      -13  1    1    2    0    0 +2.3963860679e+01 +2.1942153426e+03 +1.1903029582e+03 2.4963926711e+03 0.0000000000e+00 0.0000e+00 1.0000e+00
       13  1    1    2    0    0 -2.3963860679e+01 -2.1942153426e+03 +9.1085252909e+02 2.3758803770e+03 0.0000000000e+00 0.0000e+00 -1.0000e+00
<mgrwt>
<rscale>  0 0.43959288E+04</rscale>
<asrwt>0</asrwt>
<pdfrwt beam="1">  1        2 0.53641758E+00 0.43959288E+04</pdfrwt>
<pdfrwt beam="2">  1       -2 0.21316289E+00 0.43959288E+04</pdfrwt>
<totfact> 0.70806233E-02</totfact>
</mgrwt>
<rwgt>
<wgt id='morphing_basis_vector_1'> +2.3995747e-05 </wgt>
<wgt id='morphing_basis_vector_2'> +1.8616937e-05 </wgt>
<wgt id='morphing_basis_vector_3'> +2.6916341e-05 </wgt>
<wgt id='morphing_basis_vector_4'> +1.6016345e-05 </wgt>
<wgt id='morphing_basis_vector_5'> +2.8857525e-05 </wgt>
</rwgt>
</event>
<event>
 4      1 +4.5322000e-10 4.10824800e+03 7.81860800e-03 7.52169800e-02
        2 -1    0    0  501    0 +0.0000000000e+00 +0.0000000000e+00 +3.3840065657e+03 3.3840065657e+03 0.0000000000e+00 0.0000e+00 1.0000e+00
       -2 -1    0    0    0  501 -0.0000000000e+00 -0.0000000000e+00 -1.2468729229e+03 1.2468729229e+03 0.0000000000e+00 0.0000e+00 -1.0000e+00
      -13  1    1    2    0    0 +8.1500286835e+02 +1.4384082311e+03 -3.0560879392e+02 1.6812628140e+03 0.0000000000e+00 0.0000e+00 -1.0000e+00
       13  1    1    2    0    0 -8.1500286835e+02 -1.4384082311e+03 +2.4427424367e+03 2.9496166746e+03 0.0000000000e+00 0.0000e+00 1.0000e+00
<mgrwt>
<rscale>  0 0.41082484E+04</rscale>
<asrwt>0</asrwt>
<pdfrwt beam="1">  1        2 0.52061639E+00 0.41082484E+04</pdfrwt>
<pdfrwt beam="2">  1       -2 0.19182660E+00 0.41082484E+04</pdfrwt>
<totfact> 0.12285032E-01</totfact>
</mgrwt>
<rwgt>
<wgt id='morphing_basis_vector_1'> +1.7581827e-05 </wgt>
<wgt id='morphing_basis_vector_2'> +1.2020524e-05 </wgt>
<wgt id='morphing_basis_vector_3'> +1.9333079e-05 </wgt>
<wgt id='morphing_basis_vector_4'> +1.3781520e-05 </wgt>
<wgt id='morphing_basis_vector_5'> +2.2118880e-05 </wgt>
</rwgt>
</event>
<event>
 4      1 +4.5322000e-10 3.96094000e+03 7.81860800e-03 7.54774300e-02
        2 -1    0    0  501    0 +0.0000000000e+00 +0.0000000000e+00 +2.8370936976e+03 2.8370936976e+03 0.0000000000e+00 0.0000e+00 1.0000e+00
       -2 -1    0    0    0  501 -0.0000000000e+00 -0.0000000000e+00 -1.3824929847e+03 1.3824929847e+03 0.0000000000e+00 0.0000e+00 -1.0000e+00
      -13  1    1    2    0    0 -1.2387632217e+02 +1.0515006337e+03 +2.5102889642e+03 2.7244356498e+03 0.0000000000e+00 0.0000e+00 1.0000e+00
       13  1    1    2    0    0 +1.2387632217e+02 -1.0515006337e+03 -1.0556882514e+03 1.4951510325e+03 0.0000000000e+00 0.0000e+00 -1.0000e+00
<mgrwt>
<rscale>  0 0.39609404E+04</rscale>
<asrwt>0</asrwt>
<pdfrwt beam="1">  1        2 0.43647595E+00 0.39609404E+04</pdfrwt>
<pdfrwt beam="2">  1       -2 0.21269123E+00 0.39609404E+04</pdfrwt>
<totfact> 0.20338699E-01</totfact>
</mgrwt>
<rwgt>
<wgt id='morphing_basis_vector_1'> +2.0449237e-05 </wgt>
<wgt id='morphing_basis_vector_2'> +2.5809372e-05 </wgt>
<wgt id='morphing_basis_vector_3'> +2.5117541e-05 </wgt>
<wgt id='morphing_basis_vector_4'> +8.0952698e-07 </wgt>
<wgt id='morphing_basis_vector_5'> +1.8175723e-05 </wgt>
</rwgt>
</event>
<event>
 4      1 +4.5322000e-10 4.13138000e+03 7.81860800e-03 7.51770900e-02
        2 -1    0    0  501    0 +0.0000000000e+00 +0.0000000000e+00 +1.5261129831e+03 1.5261129831e+03 0.0000000000e+00 0.0000e+00 1.0000e+00
       -2 -1    0    0    0  501 -0.0000000000e+00 -0.0000000000e+00 -2.7960420731e+03 2.7960420731e+03 0.0000000000e+00 0.0000e+00 -1.0000e+00
      -13  1    1    2    0    0 +1.8011378742e+03 -2.6617679890e+02 -1.6557933302e+03 2.4610159045e+03 0.0000000000e+00 0.0000e+00 -1.0000e+00
       13  1    1    2    0    0 -1.8011378742e+03 +2.6617679890e+02 +3.8586424023e+02 1.8611391517e+03 0.0000000000e+00 0.0000e+00 1.0000e+00
<mgrwt>
<rscale>  0 0.41313805E+04</rscale>
<asrwt>0</asrwt>
<pdfrwt beam="1">  1        2 0.23478662E+00 0.41313805E+04</pdfrwt>
<pdfrwt beam="2">  1       -2 0.43016031E+00 0.41313805E+04</pdfrwt>
<totfact> 0.40338809E-02</totfact>
</mgrwt>
<rwgt>
<wgt id='morphing_basis_vector_1'> +1.8024628e-05 </wgt>
<wgt id='morphing_basis_vector_2'> +1.2426462e-05 </wgt>
<wgt id='morphing_basis_vector_3'> +1.9845072e-05 </wgt>
<wgt id='morphing_basis_vector_4'> +1.3999824e-05 </wgt>
<wgt id='morphing_basis_vector_5'> +2.2615632e-05 </wgt>
</rwgt>
</event>
<event>
 4      1 +4.5322000e-10 4.56875700e+03 7.81860800e-03 7.44691900e-02
        2 -1    0    0  501    0 +0.0000000000e+00 +0.0000000000e+00 +3.3729438457e+03 3.3729438457e+03 0.0000000000e+00 0.0000e+00 -1.0000e+00
       -2 -1    0    0    0  501 -0.0000000000e+00 -0.0000000000e+00 -1.5471310526e+03 1.5471310526e+03 0.0000000000e+00 0.0000e+00 1.0000e+00
      -13  1    1    2    0    0 +1.0579791725e+03 -1.4265959760e+02 -1.2619734225e+03 1.6529514842e+03 0.0000000000e+00 0.0000e+00 1.0000e+00
       13  1    1    2    0    0 -1.0579791725e+03 +1.4265959760e+02 +3.0877862156e+03 3.2671234141e+03 0.0000000000e+00 0.0000e+00 -1.0000e+00
<mgrwt>
<rscale>  0 0.45687575E+04</rscale>
<asrwt>0</asrwt>
<pdfrwt beam="1">  1        2 0.51891444E+00 0.45687575E+04</pdfrwt>
<pdfrwt beam="2">  1       -2 0.23802016E+00 0.45687575E+04</pdfrwt>
<totfact> 0.56312306E-02</totfact>
</mgrwt>
<rwgt>
<wgt id='morphing_basis_vector_1'> +2.6775875e-05 </wgt>
<wgt id='morphing_basis_vector_2'> +1.8176870e-05 </wgt>
<wgt id='morphing_basis_vector_3'> +2.9460247e-05 </wgt>
<wgt id='morphing_basis_vector_4'> +2.1258054e-05 </wgt>
<wgt id='morphing_basis_vector_5'> +3.3904841e-05 </wgt>
</rwgt>
</event>
<event>
 4      1 +4.5322000e-10 4.33028200e+03 7.81860800e-03 7.48446800e-02
        2 -1    0    0  501    0 +0.0000000000e+00 +0.0000000000e+00 +3.5055317368e+03 3.5055317368e+03 0.0000000000e+00 0.0000e+00 1.0000e+00
       -2 -1    0    0    0  501 -0.0000000000e+00 -0.0000000000e+00 -1.3372678223e+03 1.3372678223e+03 0.0000000000e+00 0.0000e+00 -1.0000e+00
      -13  1    1    2    0    0 +2.2909845515e+02 -1.5656647479e+03 -5.6863225657e+02 1.6814085905e+03 0.0000000000e+00 0.0000e+00 -1.0000e+00
       13  1    1    2    0    0 -2.2909845515e+02 +1.5656647479e+03 +2.7368961711e+03 3.1613909686e+03 0.0000000000e+00 0.0000e+00 1.0000e+00
<mgrwt>
<rscale>  0 0.43302816E+04</rscale>
<asrwt>0</asrwt>
<pdfrwt beam="1">  1        2 0.53931257E+00 0.43302816E+04</pdfrwt>
<pdfrwt beam="2">  1       -2 0.20573351E+00 0.43302816E+04</pdfrwt>
<totfact> 0.78007477E-02</totfact>
</mgrwt>
<rwgt>
<wgt id='morphing_basis_vector_1'> +2.1655280e-05 </wgt>
<wgt id='morphing_basis_vector_2'> +1.4756031e-05 </wgt>
<wgt id='morphing_basis_vector_3'> +2.3820860e-05 </wgt>
<wgt id='morphing_basis_vector_4'> +1.7081442e-05 </wgt>
<wgt id='morphing_basis_vector_5'> +2.7332630e-05 </wgt>
</rwgt>
</event>
<event>
 4      1 +4.5322000e-10 4.05598200e+03 7.81860800e-03 7.53081000e-02
        2 -1    0    0  501    0 +0.0000000000e+00 +0.0000000000e+00 +1.8270907161e+03 1.8270907161e+03 0.0000000000e+00 0.0000e+00 -1.0000e+00
       -2 -1    0    0    0  501 -0.0000000000e+00 -0.0000000000e+00 -2.2509812976e+03 2.2509812976e+03 0.0000000000e+00 0.0000e+00 1.0000e+00
      -13  1    1    2    0    0 +6.7244997826e+02 +9.7647169535e+02 -1.8662211195e+03 2.2109878362e+03 0.0000000000e+00 0.0000e+00 1.0000e+00
       13  1    1    2    0    0 -6.7244997826e+02 -9.7647169535e+02 +1.4423305380e+03 1.8670841775e+03 0.0000000000e+00 0.0000e+00 -1.0000e+00
<mgrwt>
<rscale>  0 0.40559818E+04</rscale>
<asrwt>0</asrwt>
<pdfrwt beam="1">  1        2 0.28109088E+00 0.40559818E+04</pdfrwt>
<pdfrwt beam="2">  1       -2 0.34630481E+00 0.40559818E+04</pdfrwt>
<totfact> 0.97112755E-02</totfact>
</mgrwt>
<rwgt>
<wgt id='morphing_basis_vector_1'> +1.6671645e-05 </wgt>
<wgt id='morphing_basis_vector_2'> +1.1313985e-05 </wgt>
<wgt id='morphing_basis_vector_3'> +1.8309358e-05 </wgt>
<wgt id='morphing_basis_vector_4'> +1.3167790e-05 </wgt>
<wgt id='morphing_basis_vector_5'> +2.1015892e-05 </wgt>
</rwgt>
</event>
<event>
 4      1 +4.5322000e-10 3.94691000e+03 7.81860800e-03 7.55028300e-02
        2 -1    0    0  501    0 +0.0000000000e+00 +0.0000000000e+00 +1.7044933209e+03 1.7044933209e+03 0.0000000000e+00 0.0000e+00 -1.0000e+00
       -2 -1    0    0    0  501 -0.0000000000e+00 -0.0000000000e+00 -2.2848571213e+03 2.2848571213e+03 0.0000000000e+00 0.0000e+00 1.0000e+00
      -13  1    1    2    0    0 +3.9567268513e+02 +1.3448628311e+03 -1.6941140328e+03 2.1989168388e+03 0.0000000000e+00 0.0000e+00 1.0000e+00
       13  1    1    2    0    0 -3.9567268513e+02 -1.3448628311e+03 +1.1137502323e+03 1.7904336034e+03 0.0000000000e+00 0.0000e+00 -1.0000e+00
<mgrwt>
<rscale>  0 0.39469095E+04</rscale>
<asrwt>0</asrwt>
<pdfrwt beam="1">  1        2 0.26222974E+00 0.39469095E+04</pdfrwt>
<pdfrwt beam="2">  1       -2 0.35151648E+00 0.39469095E+04</pdfrwt>
<totfact> 0.10603465E-01</totfact>
</mgrwt>
<rwgt>
<wgt id='morphing_basis_vector_1'> +1.4969498e-05 </wgt>
<wgt id='morphing_basis_vector_2'> +1.0182028e-05 </wgt>
<wgt id='morphing_basis_vector_3'> +1.6437387e-05 </wgt>
<wgt id='morphing_basis_vector_4'> +1.1776386e-05 </wgt>
<wgt id='morphing_basis_vector_5'> +1.8832580e-05 </wgt>
</rwgt>
</event>
<event>
 4      1 +4.5322000e-10 3.98532100e+03 7.81860800e-03 7.54335300e-02
        2 -1    0    0  501    0 +0.0000000000e+00 +0.0000000000e+00 +3.2042514741e+03 3.2042514741e+03 0.0000000000e+00 0.0000e+00 1.0000e+00
       -2 -1    0    0    0  501 -0.0000000000e+00 -0.0000000000e+00 -1.2391958086e+03 1.2391958086e+03 0.0000000000e+00 0.0000e+00 -1.0000e+00
      -13  1    1    2    0    0 -1.7274513739e+03 +5.6565638713e+02 +7.2190557894e+01 1.8191390475e+03 0.0000000000e+00 0.0000e+00 -1.0000e+00
       13  1    1    2    0    0 +1.7274513739e+03 -5.6565638713e+02 +1.8928651077e+03 2.6243082352e+03 0.0000000000e+00 0.0000e+00 1.0000e+00
<mgrwt>
<rscale>  0 0.39853206E+04</rscale>
<asrwt>0</asrwt>
<pdfrwt beam="1">  1        2 0.49296176E+00 0.39853206E+04</pdfrwt>
<pdfrwt beam="2">  1       -2 0.19064551E+00 0.39853206E+04</pdfrwt>
<totfact> 0.16887073E-01</totfact>
</mgrwt>
<rwgt>
<wgt id='morphing_basis_vector_1'> +1.5647658e-05 </wgt>
<wgt id='morphing_basis_vector_2'> +1.0847945e-05 </wgt>
<wgt id='morphing_basis_vector_3'> +1.7230823e-05 </wgt>
<wgt id='morphing_basis_vector_4'> +1.2053520e-05 </wgt>
<wgt id='morphing_basis_vector_5'> +1.9564432e-05 </wgt>
</rwgt>
</event>
<event>
 4      1 +4.5322000e-10 3.98717800e+03 7.81860800e-03 7.54302000e-02
        2 -1    0    0  501    0 +0.0000000000e+00 +0.0000000000e+00 +3.2343487038e+03 3.2343487038e+03 0.0000000000e+00 0.0000e+00 1.0000e+00
       -2 -1    0    0    0  501 -0.0000000000e+00 -0.0000000000e+00 -1.2288092952e+03 1.2288092952e+03 0.0000000000e+00 0.0000e+00 -1.0000e+00
      -13  1    1    2    0    0 -9.3876531490e+02 +9.4749445769e+01 -9.6304981020e+02 1.3482294726e+03 0.0000000000e+00 0.0000e+00 -1.0000e+00
       13  1    1    2    0    0 +9.3876531490e+02 -9.4749445769e+01 +2.9685892189e+03 3.1149285263e+03 0.0000000000e+00 0.0000e+00 1.0000e+00
<mgrwt>
<rscale>  0 0.39871783E+04</rscale>
<asrwt>0</asrwt>
<pdfrwt beam="1">  1        2 0.49759210E+00 0.39871783E+04</pdfrwt>
<pdfrwt beam="2">  1       -2 0.18904759E+00 0.39871783E+04</pdfrwt>
<totfact> 0.16550726E-01</totfact>
</mgrwt>
<rwgt>
<wgt id='morphing_basis_vector_1'> +1.5569932e-05 </wgt>
<wgt id='morphing_basis_vector_2'> +1.0554292e-05 </wgt>
<wgt id='morphing_basis_vector_3'> +1.7091687e-05 </wgt>
<wgt id='morphing_basis_vector_4'> +1.2301937e-05 </wgt>
<wgt id='morphing_basis_vector_5'> +1.9619931e-05 </wgt>
</rwgt>
</event>
<event>
 4      1 +4.5322000e-10 3.94021200e+03 7.81860800e-03 7.55150000e-02
        2 -1    0    0  501    0 +0.0000000000e+00 +0.0000000000e+00 +2.5170582898e+03 2.5170582898e+03 0.0000000000e+00 0.0000e+00 -1.0000e+00
       -2 -1    0    0    0  501 -0.0000000000e+00 -0.0000000000e+00 -1.5420050857e+03 1.5420050857e+03 0.0000000000e+00 0.0000e+00 1.0000e+00
      -13  1    1    2    0    0 -1.2871082778e+03 -7.1775101240e+02 -8.5939140987e+02 1.7059800204e+03 0.0000000000e+00 0.0000e+00 1.0000e+00
       13  1    1    2    0    0 +1.2871082778e+03 +7.1775101240e+02 +1.8344446139e+03 2.3530833551e+03 0.0000000000e+00 0.0000e+00 -1.0000e+00
<mgrwt>
<rscale>  0 0.39402115E+04</rscale>
<asrwt>0</asrwt>
<pdfrwt beam="1">  1        2 0.38723974E+00 0.39402115E+04</pdfrwt>
<pdfrwt beam="2">  1       -2 0.23723155E+00 0.39402115E+04</pdfrwt>
<totfact> 0.21505385E-01</totfact>
</mgrwt>
<rwgt>
<wgt id='morphing_basis_vector_1'> +1.4875087e-05 </wgt>
<wgt id='morphing_basis_vector_2'> +1.0132082e-05 </wgt>
<wgt id='morphing_basis_vector_3'> +1.6336409e-05 </wgt>
<wgt id='morphing_basis_vector_4'> +1.1682698e-05 </wgt>
<wgt id='morphing_basis_vector_5'> +1.8703290e-05 </wgt>
</rwgt>
</event>
<event>
 4      1 +4.5322000e-10 4.56634200e+03 7.81860800e-03 7.44728800e-02
        2 -1    0    0  501    0 +0.0000000000e+00 +0.0000000000e+00 +2.9474205030e+03 2.9474205030e+03 0.0000000000e+00 0.0000e+00 -1.0000e+00
       -2 -1    0    0    0  501 -0.0000000000e+00 -0.0000000000e+00 -1.7686206511e+03 1.7686206511e+03 0.0000000000e+00 0.0000e+00 1.0000e+00
      -13  1    1    2    0    0 -7.1865504868e+02 -2.0519623955e+03 -1.3048336564e+02 2.1780818764e+03 0.0000000000e+00 0.0000e+00 1.0000e+00
       13  1    1    2    0    0 +7.1865504868e+02 +2.0519623955e+03 +1.3092832176e+03 2.5379592777e+03 0.0000000000e+00 0.0000e+00 -1.0000e+00
<mgrwt>
<rscale>  0 0.45663415E+04</rscale>
<asrwt>0</asrwt>
<pdfrwt beam="1">  1        2 0.45344931E+00 0.45663415E+04</pdfrwt>
<pdfrwt beam="2">  1       -2 0.27209548E+00 0.45663415E+04</pdfrwt>
<totfact> 0.63557454E-02</totfact>
</mgrwt>
<rwgt>
<wgt id='morphing_basis_vector_1'> +2.7015165e-05 </wgt>
<wgt id='morphing_basis_vector_2'> +1.9007044e-05 </wgt>
<wgt id='morphing_basis_vector_3'> +2.9875877e-05 </wgt>
<wgt id='morphing_basis_vector_4'> +2.0584627e-05 </wgt>
<wgt id='morphing_basis_vector_5'> +3.3780352e-05 </wgt>
</rwgt>
</event>
<event>
 4      1 +4.5322000e-10 3.99426400e+03 7.81860800e-03 7.54175100e-02
        2 -1    0    0  501    0 +0.0000000000e+00 +0.0000000000e+00 +1.5626663417e+03 1.5626663417e+03 0.0000000000e+00 0.0000e+00 -1.0000e+00
       -2 -1    0    0    0  501 -0.0000000000e+00 -0.0000000000e+00 -2.5523920640e+03 2.5523920640e+03 0.0000000000e+00 0.0000e+00 1.0000e+00
      -13  1    1    2    0    0 -8.5516597161e+02 -1.3602057372e+02 -2.3489337679e+03 2.5034576652e+03 0.0000000000e+00 0.0000e+00 1.0000e+00
       13  1    1    2    0    0 +8.5516597161e+02 +1.3602057372e+02 +1.3592080456e+03 1.6116007405e+03 0.0000000000e+00 0.0000e+00 -1.0000e+00
<mgrwt>
<rscale>  0 0.39942645E+04</rscale>
<asrwt>0</asrwt>
<pdfrwt beam="1">  1        2 0.24041021E+00 0.39942645E+04</pdfrwt>
<pdfrwt beam="2">  1       -2 0.39267570E+00 0.39942645E+04</pdfrwt>
<totfact> 0.68784581E-02</totfact>
</mgrwt>
<rwgt>
<wgt id='morphing_basis_vector_1'> +1.5679506e-05 </wgt>
<wgt id='morphing_basis_vector_2'> +1.0626917e-05 </wgt>
<wgt id='morphing_basis_vector_3'> +1.7212135e-05 </wgt>
<wgt id='morphing_basis_vector_4'> +1.2391816e-05 </wgt>
<wgt id='morphing_basis_vector_5'> +1.9760627e-05 </wgt>
</rwgt>
</event>
<event>
 4      1 +4.5322000e-10 4.39818600e+03 7.81860800e-03 7.47353200e-02
        2 -1    0    0  501    0 +0.0000000000e+00 +0.0000000000e+00 +2.4754392089e+03 2.4754392089e+03 0.0000000000e+00 0.0000e+00 1.0000e+00
       -2 -1    0    0    0  501 -0.0000000000e+00 -0.0000000000e+00 -1.9535963628e+03 1.9535963628e+03 0.0000000000e+00 0.0000e+00 -1.0000e+00
      -13  1    1    2    0    0 -1.3803629290e+03 +1.5118566156e+03 -5.4776607566e+02 2.1192356914e+03 0.0000000000e+00 0.0000e+00 -1.0000e+00
       13  1    1    2    0    0 +1.3803629290e+03 -1.5118566156e+03 +1.0696089217e+03 2.3097998803e+03 0.0000000000e+00 0.0000e+00 1.0000e+00
<mgrwt>
<rscale>  0 0.43981856E+04</rscale>
<asrwt>0</asrwt>
<pdfrwt beam="1">  1        2 0.38083680E+00 0.43981856E+04</pdfrwt>
<pdfrwt beam="2">  1       -2 0.30055329E+00 0.43981856E+04</pdfrwt>
<totfact> 0.80890622E-02</totfact>
</mgrwt>
<rwgt>
<wgt id='morphing_basis_vector_1'> +2.3204865e-05 </wgt>
<wgt id='morphing_basis_vector_2'> +1.6187167e-05 </wgt>
<wgt id='morphing_basis_vector_3'> +2.5616546e-05 </wgt>
<wgt id='morphing_basis_vector_4'> +1.7832368e-05 </wgt>
<wgt id='morphing_basis_vector_5'> +2.9066059e-05 </wgt>
</rwgt>
</event>
<event>
 4      1 +4.5322000e-10 4.11070800e+03 7.81860800e-03 7.52127300e-02
        2 -1    0    0  501    0 +0.0000000000e+00 +0.0000000000e+00 +2.2741237512e+03 2.2741237512e+03 0.0000000000e+00 0.0000e+00 -1.0000e+00
       -2 -1    0    0    0  501 -0.0000000000e+00 -0.0000000000e+00 -1.8576295917e+03 1.8576295917e+03 0.0000000000e+00 0.0000e+00 1.0000e+00
      -13  1    1    2    0    0 +1.4594296061e+03 +6.0617976683e+02 -1.1126694681e+03 1.9327239922e+03 0.0000000000e+00 0.0000e+00 1.0000e+00
       13  1    1    2    0    0 -1.4594296061e+03 -6.0617976683e+02 +1.5291636276e+03 2.1990293506e+03 0.0000000000e+00 0.0000e+00 -1.0000e+00
<mgrwt>
<rscale>  0 0.41107078E+04</rscale>
<asrwt>0</asrwt>
<pdfrwt beam="1">  1        2 0.34986519E+00 0.41107078E+04</pdfrwt>
<pdfrwt beam="2">  1       -2 0.28578917E+00 0.41107078E+04</pdfrwt>
<totfact> 0.13668832E-01</totfact>
</mgrwt>
<rwgt>
<wgt id='morphing_basis_vector_1'> +1.7611923e-05 </wgt>
<wgt id='morphing_basis_vector_2'> +1.2014485e-05 </wgt>
<wgt id='morphing_basis_vector_3'> +1.9360376e-05 </wgt>
<wgt id='morphing_basis_vector_4'> +1.3839770e-05 </wgt>
<wgt id='morphing_basis_vector_5'> +2.2174233e-05 </wgt>
</rwgt>
</event>
<event>
 4      1 +4.5322000e-10 3.90373100e+03 7.81860800e-03 7.55817000e-02
        2 -1    0    0  501    0 +0.0000000000e+00 +0.0000000000e+00 +2.4424463754e+03 2.4424463754e+03 0.0000000000e+00 0.0000e+00 1.0000e+00
       -2 -1    0    0    0  501 -0.0000000000e+00 -0.0000000000e+00 -1.5598208182e+03 1.5598208182e+03 0.0000000000e+00 0.0000e+00 -1.0000e+00
      -13  1    1    2    0    0 +8.7233064787e+02 -6.6377259045e+02 -1.2144520109e+03 1.6359854822e+03 0.0000000000e+00 0.0000e+00 -1.0000e+00
       13  1    1    2    0    0 -8.7233064787e+02 +6.6377259045e+02 +2.0970775682e+03 2.3662817114e+03 0.0000000000e+00 0.0000e+00 1.0000e+00
<mgrwt>
<rscale>  0 0.39037309E+04</rscale>
<asrwt>0</asrwt>
<pdfrwt beam="1">  1        2 0.37576098E+00 0.39037309E+04</pdfrwt>
<pdfrwt beam="2">  1       -2 0.23997243E+00 0.39037309E+04</pdfrwt>
<totfact> 0.22863808E-01</totfact>
</mgrwt>
<rwgt>
<wgt id='morphing_basis_vector_1'> +1.4316079e-05 </wgt>
<wgt id='morphing_basis_vector_2'> +9.7082217e-06 </wgt>
<wgt id='morphing_basis_vector_3'> +1.5710209e-05 </wgt>
<wgt id='morphing_basis_vector_4'> +1.1293135e-05 </wgt>
<wgt id='morphing_basis_vector_5'> +1.8019994e-05 </wgt>
</rwgt>
</event>
<event>
 4      1 +4.5322000e-10 3.97858300e+03 7.81860800e-03 7.54456300e-02
        2 -1    0    0  501    0 +0.0000000000e+00 +0.0000000000e+00 +2.7286181397e+03 2.7286181397e+03 0.0000000000e+00 0.0000e+00 -1.0000e+00
       -2 -1    0    0    0  501 -0.0000000000e+00 -0.0000000000e+00 -1.4502870977e+03 1.4502870977e+03 0.0000000000e+00 0.0000e+00 1.0000e+00
      -13  1    1    2    0    0 -9.9606046221e+02 +1.2704956146e+03 -5.8167596450e+02 1.7159960602e+03 0.0000000000e+00 0.0000e+00 1.0000e+00
       13  1    1    2    0    0 +9.9606046221e+02 -1.2704956146e+03 +1.8600070064e+03 2.4629091772e+03 0.0000000000e+00 0.0000e+00 -1.0000e+00
<mgrwt>
<rscale>  0 0.39785825E+04</rscale>
<asrwt>0</asrwt>
<pdfrwt beam="1">  1        2 0.41978741E+00 0.39785825E+04</pdfrwt>
<pdfrwt beam="2">  1       -2 0.22312109E+00 0.39785825E+04</pdfrwt>
<totfact> 0.20019166E-01</totfact>
</mgrwt>
<rwgt>
<wgt id='morphing_basis_vector_1'> +1.5477326e-05 </wgt>
<wgt id='morphing_basis_vector_2'> +1.0582916e-05 </wgt>
<wgt id='morphing_basis_vector_3'> +1.7009845e-05 </wgt>
<wgt id='morphing_basis_vector_4'> +1.2109952e-05 </wgt>
<wgt id='morphing_basis_vector_5'> +1.9443304e-05 </wgt>
</rwgt>
</event>
<event>
 4      1 +4.5322000e-10 4.60484800e+03 7.81860800e-03 7.44143900e-02
        2 -1    0    0  501    0 +0.0000000000e+00 +0.0000000000e+00 +2.4502968959e+03 2.4502968959e+03 0.0000000000e+00 0.0000e+00 1.0000e+00
       -2 -1    0    0    0  501 -0.0000000000e+00 -0.0000000000e+00 -2.1634751574e+03 2.1634751574e+03 0.0000000000e+00 0.0000e+00 -1.0000e+00
      -13  1    1    2    0    0 +1.4058740611e+03 -1.5518853766e+03 -8.1569360799e+02 2.2472619251e+03 0.0000000000e+00 0.0000e+00 1.0000e+00
       13  1    1    2    0    0 -1.4058740611e+03 +1.5518853766e+03 +1.1025153465e+03 2.3665101283e+03 0.0000000000e+00 0.0000e+00 -1.0000e+00
<mgrwt>
<rscale>  0 0.46048481E+04</rscale>
<asrwt>0</asrwt>
<pdfrwt beam="1">  1        2 0.37696875E+00 0.46048481E+04</pdfrwt>
<pdfrwt beam="2">  1       -2 0.33284233E+00 0.46048481E+04</pdfrwt>
<totfact> 0.50204477E-02</totfact>
</mgrwt>
<rwgt>
<wgt id='morphing_basis_vector_1'> +2.7812991e-05 </wgt>
<wgt id='morphing_basis_vector_2'> +1.9298757e-05 </wgt>
<wgt id='morphing_basis_vector_3'> +3.0700092e-05 </wgt>
<wgt id='morphing_basis_vector_4'> +2.1548371e-05 </wgt>
<wgt id='morphing_basis_vector_5'> +3.4960280e-05 </wgt>
</rwgt>
</event>
<event>
 4      1 +4.5322000e-10 4.39960800e+03 7.81860800e-03 7.47330500e-02
        2 -1    0    0  501    0 +0.0000000000e+00 +0.0000000000e+00 +3.6520857411e+03 3.6520857411e+03 0.0000000000e+00 0.0000e+00 1.0000e+00
       -2 -1    0    0    0  501 -0.0000000000e+00 -0.0000000000e+00 -1.3250338980e+03 1.3250338980e+03 0.0000000000e+00 0.0000e+00 -1.0000e+00
      -13  1    1    2    0    0 +8.4123377918e+02 +1.3971240522e+03 -5.0657722142e+02 1.7077032440e+03 0.0000000000e+00 0.0000e+00 -1.0000e+00
       13  1    1    2    0    0 -8.4123377918e+02 -1.3971240522e+03 +2.8336290645e+03 3.2694163950e+03 0.0000000000e+00 0.0000e+00 1.0000e+00
<mgrwt>
<rscale>  0 0.43996079E+04</rscale>
<asrwt>0</asrwt>
<pdfrwt beam="1">  1        2 0.56185934E+00 0.43996079E+04</pdfrwt>
<pdfrwt beam="2">  1       -2 0.20385137E+00 0.43996079E+04</pdfrwt>
<totfact> 0.62144872E-02</totfact>
</mgrwt>
<rwgt>
<wgt id='morphing_basis_vector_1'> +2.3072329e-05 </wgt>
<wgt id='morphing_basis_vector_2'> +1.5730816e-05 </wgt>
<wgt id='morphing_basis_vector_3'> +2.5387629e-05 </wgt>
<wgt id='morphing_basis_vector_4'> +1.8200344e-05 </wgt>
<wgt id='morphing_basis_vector_5'> +2.9132643e-05 </wgt>
</rwgt>
</event>
<event>
 4      1 +4.5322000e-10 4.19880400e+03 7.81860800e-03 7.50623200e-02
        2 -1    0    0  501    0 +0.0000000000e+00 +0.0000000000e+00 +2.1863179793e+03 2.1863179793e+03 0.0000000000e+00 0.0000e+00 -1.0000e+00
       -2 -1    0    0    0  501 -0.0000000000e+00 -0.0000000000e+00 -2.0159414269e+03 2.0159414269e+03 0.0000000000e+00 0.0000e+00 1.0000e+00
      -13  1    1    2    0    0 +1.5522706914e+02 +9.1373828357e+02 -1.8001017675e+03 2.0246924376e+03 0.0000000000e+00 0.0000e+00 1.0000e+00
       13  1    1    2    0    0 -1.5522706914e+02 -9.1373828357e+02 +1.9704783198e+03 2.1775669686e+03 0.0000000000e+00 0.0000e+00 -1.0000e+00
<mgrwt>
<rscale>  0 0.41988041E+04</rscale>
<asrwt>0</asrwt>
<pdfrwt beam="1">  1        2 0.33635661E+00 0.41988041E+04</pdfrwt>
<pdfrwt beam="2">  1       -2 0.31014483E+00 0.41988041E+04</pdfrwt>
<totfact> 0.10445818E-01</totfact>
</mgrwt>
<rwgt>
<wgt id='morphing_basis_vector_1'> +1.9127888e-05 </wgt>
<wgt id='morphing_basis_vector_2'> +1.2972145e-05 </wgt>
<wgt id='morphing_basis_vector_3'> +2.1016808e-05 </wgt>
<wgt id='morphing_basis_vector_4'> +1.5145396e-05 </wgt>
<wgt id='morphing_basis_vector_5'> +2.4152734e-05 </wgt>
</rwgt>
</event>
<event>
 4      1 +4.5322000e-10 3.94794800e+03 7.81860800e-03 7.55009500e-02
        2 -1    0    0  501    0 +0.0000000000e+00 +0.0000000000e+00 +2.7956723367e+03 2.7956723367e+03 0.0000000000e+00 0.0000e+00 -1.0000e+00
       -2 -1    0    0    0  501 -0.0000000000e+00 -0.0000000000e+00 -1.3937877055e+03 1.3937877055e+03 0.0000000000e+00 0.0000e+00 1.0000e+00
      -13  1    1    2    0    0 +2.4240465334e+02 -1.6217133484e+03 -4.6531618718e+02 1.7044745097e+03 0.0000000000e+00 0.0000e+00 1.0000e+00
       13  1    1    2    0    0 -2.4240465334e+02 +1.6217133484e+03 +1.8672008185e+03 2.4849855325e+03 0.0000000000e+00 0.0000e+00 -1.0000e+00
<mgrwt>
<rscale>  0 0.39479482E+04</rscale>
<asrwt>0</asrwt>
<pdfrwt beam="1">  1        2 0.43010344E+00 0.39479482E+04</pdfrwt>
<pdfrwt beam="2">  1       -2 0.21442888E+00 0.39479482E+04</pdfrwt>
<totfact> 0.21009355E-01</totfact>
</mgrwt>
<rwgt>
<wgt id='morphing_basis_vector_1'> +1.5015877e-05 </wgt>
<wgt id='morphing_basis_vector_2'> +1.0282966e-05 </wgt>
<wgt id='morphing_basis_vector_3'> +1.6503903e-05 </wgt>
<wgt id='morphing_basis_vector_4'> +1.1723951e-05 </wgt>
<wgt id='morphing_basis_vector_5'> +1.8847109e-05 </wgt>
</rwgt>
</event>
<event>
 4      1 +4.5322000e-10 4.55977900e+03 7.81860800e-03 7.44829100e-02
        2 -1    0    0  501    0 +0.0000000000e+00 +0.0000000000e+00 +2.7129190083e+03 2.7129190083e+03 0.0000000000e+00 0.0000e+00 -1.0000e+00
       -2 -1    0    0    0  501 -0.0000000000e+00 -0.0000000000e+00 -1.9159793233e+03 1.9159793233e+03 0.0000000000e+00 0.0000e+00 1.0000e+00
      -13  1    1    2    0    0 -1.7140900931e+03 +1.3558602964e+03 +1.0574904377e+03 2.4279102159e+03 0.0000000000e+00 0.0000e+00 1.0000e+00
       13  1    1    2    0    0 +1.7140900931e+03 -1.3558602964e+03 -2.6055075272e+02 2.2009881157e+03 0.0000000000e+00 0.0000e+00 -1.0000e+00
<mgrwt>
<rscale>  0 0.45597793E+04</rscale>
<asrwt>0</asrwt>
<pdfrwt beam="1">  1        2 0.41737215E+00 0.45597793E+04</pdfrwt>
<pdfrwt beam="2">  1       -2 0.29476605E+00 0.45597793E+04</pdfrwt>
<totfact> 0.62718996E-02</totfact>
</mgrwt>
<rwgt>
<wgt id='morphing_basis_vector_1'> +2.9145866e-05 </wgt>
<wgt id='morphing_basis_vector_2'> +2.5610877e-05 </wgt>
<wgt id='morphing_basis_vector_3'> +3.3397652e-05 </wgt>
<wgt id='morphing_basis_vector_4'> +1.5610135e-05 </wgt>
<wgt id='morphing_basis_vector_5'> +3.3179675e-05 </wgt>
</rwgt>
</event>
<event>
 4      1 +4.5322000e-10 3.92999000e+03 7.81860800e-03 7.55336100e-02
        2 -1    0    0  501    0 +0.0000000000e+00 +0.0000000000e+00 +1.3014309501e+03 1.3014309501e+03 0.0000000000e+00 0.0000e+00 -1.0000e+00
       -2 -1    0    0    0  501 -0.0000000000e+00 -0.0000000000e+00 -2.9668923498e+03 2.9668923498e+03 0.0000000000e+00 0.0000e+00 1.0000e+00
      -13  1    1    2    0    0 +1.5361102074e+03 -1.1849392607e+03 -4.9361672807e+02 2.0018424251e+03 0.0000000000e+00 0.0000e+00 1.0000e+00
       13  1    1    2    0    0 -1.5361102074e+03 +1.1849392607e+03 -1.1718446716e+03 2.2664808747e+03 0.0000000000e+00 0.0000e+00 -1.0000e+00
<mgrwt>
<rscale>  0 0.39299901E+04</rscale>
<asrwt>0</asrwt>
<pdfrwt beam="1">  1        2 0.20022015E+00 0.39299901E+04</pdfrwt>
<pdfrwt beam="2">  1       -2 0.45644498E+00 0.39299901E+04</pdfrwt>
<totfact> 0.36184530E-02</totfact>
</mgrwt>
<rwgt>
<wgt id='morphing_basis_vector_1'> +1.5640004e-05 </wgt>
<wgt id='morphing_basis_vector_2'> +1.2725755e-05 </wgt>
<wgt id='morphing_basis_vector_3'> +1.7638613e-05 </wgt>
<wgt id='morphing_basis_vector_4'> +9.6212943e-06 </wgt>
<wgt id='morphing_basis_vector_5'> +1.8347452e-05 </wgt>
</rwgt>
</event>
<event>
 4      1 +4.5322000e-10 3.93092800e+03 7.81860800e-03 7.55319000e-02
        2 -1    0    0  501    0 +0.0000000000e+00 +0.0000000000e+00 +1.3571684962e+03 1.3571684962e+03 0.0000000000e+00 0.0000e+00 -1.0000e+00
       -2 -1    0    0    0  501 -0.0000000000e+00 -0.0000000000e+00 -2.8464038461e+03 2.8464038461e+03 0.0000000000e+00 0.0000e+00 1.0000e+00
      -13  1    1    2    0    0 -7.0192194770e+02 -1.8029051043e+03 -1.1148820712e+03 2.2329628901e+03 0.0000000000e+00 0.0000e+00 1.0000e+00
       13  1    1    2    0    0 +7.0192194770e+02 +1.8029051043e+03 -3.7435327874e+02 1.9706094522e+03 0.0000000000e+00 0.0000e+00 -1.0000e+00
<mgrwt>
<rscale>  0 0.39309285E+04</rscale>
<asrwt>0</asrwt>
<pdfrwt beam="1">  1        2 0.20879515E+00 0.39309285E+04</pdfrwt>
<pdfrwt beam="2">  1       -2 0.43790828E+00 0.39309285E+04</pdfrwt>
<totfact> 0.45202299E-02</totfact>
</mgrwt>
<rwgt>
<wgt id='morphing_basis_vector_1'> +1.4991283e-05 </wgt>
<wgt id='morphing_basis_vector_2'> +1.0787177e-05 </wgt>
<wgt id='morphing_basis_vector_3'> +1.6591968e-05 </wgt>
<wgt id='morphing_basis_vector_4'> +1.1033142e-05 </wgt>
<wgt id='morphing_basis_vector_5'> +1.8481854e-05 </wgt>
</rwgt>
</event>
<event>
 4      1 +4.5322000e-10 4.26020300e+03 7.81860800e-03 7.49597000e-02
        2 -1    0    0  501    0 +0.0000000000e+00 +0.0000000000e+00 +1.8001182738e+03 1.8001182738e+03 0.0000000000e+00 0.0000e+00 1.0000e+00
       -2 -1    0    0    0  501 -0.0000000000e+00 -0.0000000000e+00 -2.5205748693e+03 2.5205748693e+03 0.0000000000e+00 0.0000e+00 -1.0000e+00
      -13  1    1    2    0    0 -1.7079380557e+03 -7.9876766549e+01 -1.6486601183e+03 2.3751869159e+03 0.0000000000e+00 0.0000e+00 -1.0000e+00
       13  1    1    2    0    0 +1.7079380557e+03 +7.9876766549e+01 +9.2820352276e+02 1.9455062271e+03 0.0000000000e+00 0.0000e+00 1.0000e+00
<mgrwt>
<rscale>  0 0.42602032E+04</rscale>
<asrwt>0</asrwt>
<pdfrwt beam="1">  1        2 0.27694127E+00 0.42602032E+04</pdfrwt>
<pdfrwt beam="2">  1       -2 0.38778075E+00 0.42602032E+04</pdfrwt>
<totfact> 0.53437060E-02</totfact>
</mgrwt>
<rwgt>
<wgt id='morphing_basis_vector_1'> +2.0316200e-05 </wgt>
<wgt id='morphing_basis_vector_2'> +1.3893495e-05 </wgt>
<wgt id='morphing_basis_vector_3'> +2.2353637e-05 </wgt>
<wgt id='morphing_basis_vector_4'> +1.5948711e-05 </wgt>
<wgt id='morphing_basis_vector_5'> +2.5594495e-05 </wgt>
</rwgt>
</event>
<event>
 4      1 +4.5322000e-10 3.99700100e+03 7.81860800e-03 7.54126200e-02
        2 -1    0    0  501    0 +0.0000000000e+00 +0.0000000000e+00 +3.0383171422e+03 3.0383171422e+03 0.0000000000e+00 0.0000e+00 -1.0000e+00
       -2 -1    0    0    0  501 -0.0000000000e+00 -0.0000000000e+00 -1.3145446223e+03 1.3145446223e+03 0.0000000000e+00 0.0000e+00 1.0000e+00
      -13  1    1    2    0    0 +4.1640777095e+02 +2.9212073226e+02 -1.2428702671e+03 1.3429283134e+03 0.0000000000e+00 0.0000e+00 1.0000e+00
       13  1    1    2    0    0 -4.1640777095e+02 -2.9212073226e+02 +2.9666427871e+03 3.0099334511e+03 0.0000000000e+00 0.0000e+00 -1.0000e+00
<mgrwt>
<rscale>  0 0.39970006E+04</rscale>
<asrwt>0</asrwt>
<pdfrwt beam="1">  1        2 0.46743341E+00 0.39970006E+04</pdfrwt>
<pdfrwt beam="2">  1       -2 0.20223763E+00 0.39970006E+04</pdfrwt>
<totfact> 0.17901431E-01</totfact>
</mgrwt>
<rwgt>
<wgt id='morphing_basis_vector_1'> +1.5720735e-05 </wgt>
<wgt id='morphing_basis_vector_2'> +1.0651432e-05 </wgt>
<wgt id='morphing_basis_vector_3'> +1.7256832e-05 </wgt>
<wgt id='morphing_basis_vector_4'> +1.2429262e-05 </wgt>
<wgt id='morphing_basis_vector_5'> +1.9815372e-05 </wgt>
</rwgt>
</event>
<event>
 4      1 +4.5322000e-10 4.26970000e+03 7.81860800e-03 7.49439800e-02
        2 -1    0    0  501    0 +0.0000000000e+00 +0.0000000000e+00 +2.7196385583e+03 2.7196385583e+03 0.0000000000e+00 0.0000e+00 -1.0000e+00
       -2 -1    0    0    0  501 -0.0000000000e+00 -0.0000000000e+00 -1.6758055930e+03 1.6758055930e+03 0.0000000000e+00 0.0000e+00 1.0000e+00
      -13  1    1    2    0    0 -7.3932422080e+02 -1.9257325470e+02 -1.5302560276e+03 1.7103707995e+03 0.0000000000e+00 0.0000e+00 1.0000e+00
       13  1    1    2    0    0 +7.3932422080e+02 +1.9257325470e+02 +2.5740889928e+03 2.6850733519e+03 0.0000000000e+00 0.0000e+00 -1.0000e+00
<mgrwt>
<rscale>  0 0.42697005E+04</rscale>
<asrwt>0</asrwt>
<pdfrwt beam="1">  1        2 0.41840593E+00 0.42697005E+04</pdfrwt>
<pdfrwt beam="2">  1       -2 0.25781624E+00 0.42697005E+04</pdfrwt>
<totfact> 0.11354649E-01</totfact>
</mgrwt>
<rwgt>
<wgt id='morphing_basis_vector_1'> +2.0445130e-05 </wgt>
<wgt id='morphing_basis_vector_2'> +1.3864725e-05 </wgt>
<wgt id='morphing_basis_vector_3'> +2.2469799e-05 </wgt>
<wgt id='morphing_basis_vector_4'> +1.6202313e-05 </wgt>
<wgt id='morphing_basis_vector_5'> +2.5833702e-05 </wgt>
</rwgt>
</event>
<event>
 4      1 +4.5322000e-10 4.30473800e+03 7.81860800e-03 7.48863500e-02
        2 -1    0    0  501    0 +0.0000000000e+00 +0.0000000000e+00 +3.7995962293e+03 3.7995962293e+03 0.0000000000e+00 0.0000e+00 1.0000e+00
       -2 -1    0    0    0  501 -0.0000000000e+00 -0.0000000000e+00 -1.2192591022e+03 1.2192591022e+03 0.0000000000e+00 0.0000e+00 -1.0000e+00
      -13  1    1    2    0    0 +5.4948383865e+02 -3.4170153158e+02 -1.1031759206e+03 1.2789407873e+03 0.0000000000e+00 0.0000e+00 -1.0000e+00
       13  1    1    2    0    0 -5.4948383865e+02 +3.4170153158e+02 +3.6835130477e+03 3.7399145443e+03 0.0000000000e+00 0.0000e+00 1.0000e+00
<mgrwt>
<rscale>  0 0.43047380E+04</rscale>
<asrwt>0</asrwt>
<pdfrwt beam="1">  1        2 0.58455326E+00 0.43047380E+04</pdfrwt>
<pdfrwt beam="2">  1       -2 0.18757832E+00 0.43047380E+04</pdfrwt>
<totfact> 0.63284948E-02</totfact>
</mgrwt>
<rwgt>
<wgt id='morphing_basis_vector_1'> +2.1120922e-05 </wgt>
<wgt id='morphing_basis_vector_2'> +1.4323081e-05 </wgt>
<wgt id='morphing_basis_vector_3'> +2.3215402e-05 </wgt>
<wgt id='morphing_basis_vector_4'> +1.6744154e-05 </wgt>
<wgt id='morphing_basis_vector_5'> +2.6696033e-05 </wgt>
</rwgt>
</event>
<event>
 4      1 +4.5322000e-10 4.03923800e+03 7.81860800e-03 7.53375900e-02
        2 -1    0    0  501    0 +0.0000000000e+00 +0.0000000000e+00 +1.6858450917e+03 1.6858450917e+03 0.0000000000e+00 0.0000e+00 1.0000e+00
       -2 -1    0    0    0  501 -0.0000000000e+00 -0.0000000000e+00 -2.4194751381e+03 2.4194751381e+03 0.0000000000e+00 0.0000e+00 -1.0000e+00
      -13  1    1    2    0    0 +1.7103063357e+03 +4.3795373515e+02 +6.3000013671e+02 1.8745269825e+03 0.0000000000e+00 0.0000e+00 1.0000e+00
       13  1    1    2    0    0 -1.7103063357e+03 -4.3795373515e+02 -1.3636301831e+03 2.2307932473e+03 0.0000000000e+00 0.0000e+00 -1.0000e+00
<mgrwt>
<rscale>  0 0.40392377E+04</rscale>
<asrwt>0</asrwt>
<pdfrwt beam="1">  1        2 0.25936078E+00 0.40392377E+04</pdfrwt>
<pdfrwt beam="2">  1       -2 0.37222695E+00 0.40392377E+04</pdfrwt>
<totfact> 0.79297765E-02</totfact>
</mgrwt>
<rwgt>
<wgt id='morphing_basis_vector_1'> +1.9302623e-05 </wgt>
<wgt id='morphing_basis_vector_2'> +1.9661905e-05 </wgt>
<wgt id='morphing_basis_vector_3'> +2.2669974e-05 </wgt>
<wgt id='morphing_basis_vector_4'> +6.8073652e-06 </wgt>
<wgt id='morphing_basis_vector_5'> +2.0157355e-05 </wgt>
</rwgt>
</event>
<event>
 4      1 +4.5322000e-10 4.17876000e+03 7.81860800e-03 7.50962100e-02
        2 -1    0    0  501    0 +0.0000000000e+00 +0.0000000000e+00 +2.8136578354e+03 2.8136578354e+03 0.0000000000e+00 0.0000e+00 -1.0000e+00
       -2 -1    0    0    0  501 -0.0000000000e+00 -0.0000000000e+00 -1.5515424727e+03 1.5515424727e+03 0.0000000000e+00 0.0000e+00 1.0000e+00
      -13  1    1    2    0    0 +1.8532707917e+03 -2.5618828120e+02 -3.4064000133e+02 1.9016520905e+03 0.0000000000e+00 0.0000e+00 1.0000e+00
       13  1    1    2    0    0 -1.8532707917e+03 +2.5618828120e+02 +1.6027553641e+03 2.4635482175e+03 0.0000000000e+00 0.0000e+00 -1.0000e+00
<mgrwt>
<rscale>  0 0.41787604E+04</rscale>
<asrwt>0</asrwt>
<pdfrwt beam="1">  1        2 0.43287043E+00 0.41787604E+04</pdfrwt>
<pdfrwt beam="2">  1       -2 0.23869884E+00 0.41787604E+04</pdfrwt>
<totfact> 0.13552457E-01</totfact>
</mgrwt>
<rwgt>
<wgt id='morphing_basis_vector_1'> +1.8875818e-05 </wgt>
<wgt id='morphing_basis_vector_2'> +1.3046647e-05 </wgt>
<wgt id='morphing_basis_vector_3'> +2.0793654e-05 </wgt>
<wgt id='morphing_basis_vector_4'> +1.4626304e-05 </wgt>
<wgt id='morphing_basis_vector_5'> +2.3673536e-05 </wgt>
</rwgt>
</event>
<event>
 4      1 +4.5322000e-10 3.93772100e+03 7.81860800e-03 7.55195300e-02
        2 -1    0    0  501    0 +0.0000000000e+00 +0.0000000000e+00 +2.0961683982e+03 2.0961683982e+03 0.0000000000e+00 0.0000e+00 -1.0000e+00
       -2 -1    0    0    0  501 -0.0000000000e+00 -0.0000000000e+00 -1.8492847596e+03 1.8492847596e+03 0.0000000000e+00 0.0000e+00 1.0000e+00
      -13  1    1    2    0    0 -1.9258643184e+03 +1.0857736612e+02 +5.1876672540e+02 1.9974637250e+03 0.0000000000e+00 0.0000e+00 1.0000e+00
       13  1    1    2    0    0 +1.9258643184e+03 -1.0857736612e+02 -2.7188308688e+02 1.9479894328e+03 0.0000000000e+00 0.0000e+00 -1.0000e+00
<mgrwt>
<rscale>  0 0.39377213E+04</rscale>
<asrwt>0</asrwt>
<pdfrwt beam="1">  1        2 0.32248745E+00 0.39377213E+04</pdfrwt>
<pdfrwt beam="2">  1       -2 0.28450535E+00 0.39377213E+04</pdfrwt>
<totfact> 0.17880040E-01</totfact>
</mgrwt>
<rwgt>
<wgt id='morphing_basis_vector_1'> +1.5905188e-05 </wgt>
<wgt id='morphing_basis_vector_2'> +1.3244502e-05 </wgt>
<wgt id='morphing_basis_vector_3'> +1.8006165e-05 </wgt>
<wgt id='morphing_basis_vector_4'> +9.3965801e-06 </wgt>
<wgt id='morphing_basis_vector_5'> +1.8467923e-05 </wgt>
</rwgt>
</event>
<event>
 4      1 +4.5322000e-10 4.22764000e+03 7.81860800e-03 7.50139100e-02
        2 -1    0    0  501    0 +0.0000000000e+00 +0.0000000000e+00 +2.8906106268e+03 2.8906106268e+03 0.0000000000e+00 0.0000e+00 -1.0000e+00
       -2 -1    0    0    0  501 -0.0000000000e+00 -0.0000000000e+00 -1.5457752152e+03 1.5457752152e+03 0.0000000000e+00 0.0000e+00 1.0000e+00
      -13  1    1    2    0    0 -4.0063032645e+02 +1.3227580429e+03 -1.0059421309e+03 1.7094189274e+03 0.0000000000e+00 0.0000e+00 1.0000e+00
       13  1    1    2    0    0 +4.0063032645e+02 -1.3227580429e+03 +2.3507775425e+03 2.7269669145e+03 0.0000000000e+00 0.0000e+00 -1.0000e+00
<mgrwt>
<rscale>  0 0.42276397E+04</rscale>
<asrwt>0</asrwt>
<pdfrwt beam="1">  1        2 0.44470933E+00 0.42276397E+04</pdfrwt>
<pdfrwt beam="2">  1       -2 0.23781157E+00 0.42276397E+04</pdfrwt>
<totfact> 0.12238388E-01</totfact>
</mgrwt>
<rwgt>
<wgt id='morphing_basis_vector_1'> +1.9669307e-05 </wgt>
<wgt id='morphing_basis_vector_2'> +1.3369778e-05 </wgt>
<wgt id='morphing_basis_vector_3'> +2.1620895e-05 </wgt>
<wgt id='morphing_basis_vector_4'> +1.5540009e-05 </wgt>
<wgt id='morphing_basis_vector_5'> +2.4823817e-05 </wgt>
</rwgt>
</event>
<event>
 4      1 +4.5322000e-10 3.98296400e+03 7.81860800e-03 7.54377600e-02
        2 -1    0    0  501    0 +0.0000000000e+00 +0.0000000000e+00 +4.3078506424e+03 4.3078506424e+03 0.0000000000e+00 0.0000e+00 -1.0000e+00
       -2 -1    0    0    0  501 -0.0000000000e+00 -0.0000000000e+00 -9.2064479006e+02 9.2064479006e+02 0.0000000000e+00 0.0000e+00 1.0000e+00
      -13  1    1    2    0    0 -1.5180285363e+03 +1.1457338178e+02 +8.1760627234e+00 1.5223680714e+03 0.0000000000e+00 0.0000e+00 1.0000e+00
       13  1    1    2    0    0 +1.5180285363e+03 -1.1457338178e+02 +3.3790297896e+03 3.7061273610e+03 0.0000000000e+00 0.0000e+00 -1.0000e+00
<mgrwt>
<rscale>  0 0.39829638E+04</rscale>
<asrwt>0</asrwt>
<pdfrwt beam="1">  1        2 0.66274624E+00 0.39829638E+04</pdfrwt>
<pdfrwt beam="2">  1       -2 0.14163766E+00 0.39829638E+04</pdfrwt>
<totfact> 0.54313248E-02</totfact>
</mgrwt>
<rwgt>
<wgt id='morphing_basis_vector_1'> +1.5531394e-05 </wgt>
<wgt id='morphing_basis_vector_2'> +1.0588753e-05 </wgt>
<wgt id='morphing_basis_vector_3'> +1.7062631e-05 </wgt>
<wgt id='morphing_basis_vector_4'> +1.2192971e-05 </wgt>
<wgt id='morphing_basis_vector_5'> +1.9531965e-05 </wgt>
</rwgt>
</event>
<event>
 4      1 +4.5322000e-10 4.02566100e+03 7.81860800e-03 7.53616000e-02
        2 -1    0    0  501    0 +0.0000000000e+00 +0.0000000000e+00 +1.8749333468e+03 1.8749333468e+03 0.0000000000e+00 0.0000e+00 -1.0000e+00
       -2 -1    0    0    0  501 -0.0000000000e+00 -0.0000000000e+00 -2.1608694600e+03 2.1608694600e+03 0.0000000000e+00 0.0000e+00 1.0000e+00
      -13  1    1    2    0    0 +1.3897287193e+02 -1.9671329911e+03 -5.4717180161e+02 2.0465391871e+03 0.0000000000e+00 0.0000e+00 1.0000e+00
       13  1    1    2    0    0 -1.3897287193e+02 +1.9671329911e+03 +2.6123568845e+02 1.9892636197e+03 0.0000000000e+00 0.0000e+00 -1.0000e+00
<mgrwt>
<rscale>  0 0.40256608E+04</rscale>
<asrwt>0</asrwt>
<pdfrwt beam="1">  1        2 0.28845129E+00 0.40256608E+04</pdfrwt>
<pdfrwt beam="2">  1       -2 0.33244145E+00 0.40256608E+04</pdfrwt>
<totfact> 0.11287570E-01</totfact>
</mgrwt>
<rwgt>
<wgt id='morphing_basis_vector_1'> +1.6453447e-05 </wgt>
<wgt id='morphing_basis_vector_2'> +1.1780539e-05 </wgt>
<wgt id='morphing_basis_vector_3'> +1.8205265e-05 </wgt>
<wgt id='morphing_basis_vector_4'> +1.2200443e-05 </wgt>
<wgt id='morphing_basis_vector_5'> +2.0343487e-05 </wgt>
</rwgt>
</event>
<event>
 4      1 +4.5322000e-10 4.22022300e+03 7.81860800e-03 7.50263200e-02
        2 -1    0    0  501    0 +0.0000000000e+00 +0.0000000000e+00 +2.6846681232e+03 2.6846681232e+03 0.0000000000e+00 0.0000e+00 -1.0000e+00
       -2 -1    0    0    0  501 -0.0000000000e+00 -0.0000000000e+00 -1.6585180482e+03 1.6585180482e+03 0.0000000000e+00 0.0000e+00 1.0000e+00
      -13  1    1    2    0    0 +7.7844402139e+02 +1.3406746407e+03 -9.6013217635e+02 1.8235233430e+03 0.0000000000e+00 0.0000e+00 1.0000e+00
       13  1    1    2    0    0 -7.7844402139e+02 -1.3406746407e+03 +1.9862822513e+03 2.5196628283e+03 0.0000000000e+00 0.0000e+00 -1.0000e+00
<mgrwt>
<rscale>  0 0.42202230E+04</rscale>
<asrwt>0</asrwt>
<pdfrwt beam="1">  1        2 0.41302587E+00 0.42202230E+04</pdfrwt>
<pdfrwt beam="2">  1       -2 0.25515662E+00 0.42202230E+04</pdfrwt>
<totfact> 0.12496221E-01</totfact>
</mgrwt>
<rwgt>
<wgt id='morphing_basis_vector_1'> +1.9546155e-05 </wgt>
<wgt id='morphing_basis_vector_2'> +1.3317164e-05 </wgt>
<wgt id='morphing_basis_vector_3'> +2.1491961e-05 </wgt>
<wgt id='morphing_basis_vector_4'> +1.5401356e-05 </wgt>
<wgt id='morphing_basis_vector_5'> +2.4646853e-05 </wgt>
</rwgt>
</event>
<event>
 4      1 +4.5322000e-10 4.02734600e+03 7.81860800e-03 7.53586200e-02
        2 -1    0    0  501    0 +0.0000000000e+00 +0.0000000000e+00 +3.7568249960e+03 3.7568249960e+03 0.0000000000e+00 0.0000e+00 -1.0000e+00
       -2 -1    0    0    0  501 -0.0000000000e+00 -0.0000000000e+00 -1.0793368284e+03 1.0793368284e+03 0.0000000000e+00 0.0000e+00 1.0000e+00
      -13  1    1    2    0    0 +5.9521968393e+02 +6.7419546498e+02 -8.2476981936e+02 1.2202750723e+03 0.0000000000e+00 0.0000e+00 1.0000e+00
       13  1    1    2    0    0 -5.9521968393e+02 -6.7419546498e+02 +3.5022579869e+03 3.6158867521e+03 0.0000000000e+00 0.0000e+00 -1.0000e+00
<mgrwt>
<rscale>  0 0.40273463E+04</rscale>
<asrwt>0</asrwt>
<pdfrwt beam="1">  1        2 0.57797307E+00 0.40273463E+04</pdfrwt>
<pdfrwt beam="2">  1       -2 0.16605182E+00 0.40273463E+04</pdfrwt>
<totfact> 0.10230879E-01</totfact>
</mgrwt>
<rwgt>
<wgt id='morphing_basis_vector_1'> +1.6202973e-05 </wgt>
<wgt id='morphing_basis_vector_2'> +1.0983388e-05 </wgt>
<wgt id='morphing_basis_vector_3'> +1.7789685e-05 </wgt>
<wgt id='morphing_basis_vector_4'> +1.2808980e-05 </wgt>
<wgt id='morphing_basis_vector_5'> +2.0426744e-05 </wgt>
</rwgt>
</event>
<event>
 4      1 +4.5322000e-10 4.01383600e+03 7.81860800e-03 7.53826000e-02
        2 -1    0    0  501    0 +0.0000000000e+00 +0.0000000000e+00 +2.3548012810e+03 2.3548012810e+03 0.0000000000e+00 0.0000e+00 -1.0000e+00
       -2 -1    0    0    0  501 -0.0000000000e+00 -0.0000000000e+00 -1.7104289251e+03 1.7104289251e+03 0.0000000000e+00 0.0000e+00 1.0000e+00
      -13  1    1    2    0    0 -1.4682141368e+02 +1.3350861892e+03 -1.1881180379e+03 1.7932194880e+03 0.0000000000e+00 0.0000e+00 1.0000e+00
       13  1    1    2    0    0 +1.4682141368e+02 -1.3350861892e+03 +1.8324903937e+03 2.2720107181e+03 0.0000000000e+00 0.0000e+00 -1.0000e+00
<mgrwt>
<rscale>  0 0.40138362E+04</rscale>
<asrwt>0</asrwt>
<pdfrwt beam="1">  1        2 0.36227712E+00 0.40138362E+04</pdfrwt>
<pdfrwt beam="2">  1       -2 0.26314291E+00 0.40138362E+04</pdfrwt>
<totfact> 0.17651285E-01</totfact>
</mgrwt>
<rwgt>
<wgt id='morphing_basis_vector_1'> +1.5999875e-05 </wgt>
<wgt id='morphing_basis_vector_2'> +1.0872719e-05 </wgt>
<wgt id='morphing_basis_vector_3'> +1.7571735e-05 </wgt>
<wgt id='morphing_basis_vector_4'> +1.2611474e-05 </wgt>
<wgt id='morphing_basis_vector_5'> +2.0150556e-05 </wgt>
</rwgt>
</event>
<event>
 4      1 +4.5322000e-10 4.06865600e+03 7.81860800e-03 7.52858800e-02
        2 -1    0    0  501    0 +0.0000000000e+00 +0.0000000000e+00 +3.8762764333e+03 3.8762764333e+03 0.0000000000e+00 0.0000e+00 1.0000e+00
       -2 -1    0    0    0  501 -0.0000000000e+00 -0.0000000000e+00 -1.0676458155e+03 1.0676458155e+03 0.0000000000e+00 0.0000e+00 -1.0000e+00
      -13  1    1    2    0    0 -6.4570861889e+02 +1.1387866556e+03 -4.8781513049e+02 1.3970462658e+03 0.0000000000e+00 0.0000e+00 -1.0000e+00
       13  1    1    2    0    0 +6.4570861889e+02 -1.1387866556e+03 +3.2964457483e+03 3.5468759830e+03 0.0000000000e+00 0.0000e+00 1.0000e+00
<mgrwt>
<rscale>  0 0.40686560E+04</rscale>
<asrwt>0</asrwt>
<pdfrwt beam="1">  1        2 0.59635021E+00 0.40686560E+04</pdfrwt>
<pdfrwt beam="2">  1       -2 0.16425320E+00 0.40686560E+04</pdfrwt>
<totfact> 0.84480237E-02</totfact>
</mgrwt>
<rwgt>
<wgt id='morphing_basis_vector_1'> +1.6884629e-05 </wgt>
<wgt id='morphing_basis_vector_2'> +1.1469510e-05 </wgt>
<wgt id='morphing_basis_vector_3'> +1.8546710e-05 </wgt>
<wgt id='morphing_basis_vector_4'> +1.3324047e-05 </wgt>
<wgt id='morphing_basis_vector_5'> +2.1280263e-05 </wgt>
</rwgt>
</event>
<event>
 4      1 +4.5322000e-10 4.04451100e+03 7.81860800e-03 7.53282800e-02
        2 -1    0    0  501    0 +0.0000000000e+00 +0.0000000000e+00 +2.6223533118e+03 2.6223533118e+03 0.0000000000e+00 0.0000e+00 1.0000e+00
       -2 -1    0    0    0  501 -0.0000000000e+00 -0.0000000000e+00 -1.5594840543e+03 1.5594840543e+03 0.0000000000e+00 0.0000e+00 -1.0000e+00
      -13  1    1    2    0    0 +4.1455334919e+02 -7.5161333991e+02 -1.3617853547e+03 1.6097317927e+03 0.0000000000e+00 0.0000e+00 -1.0000e+00
       13  1    1    2    0    0 -4.1455334919e+02 +7.5161333991e+02 +2.4246546122e+03 2.5721055734e+03 0.0000000000e+00 0.0000e+00 1.0000e+00
<mgrwt>
<rscale>  0 0.40445114E+04</rscale>
<asrwt>0</asrwt>
<pdfrwt beam="1">  1        2 0.40343897E+00 0.40445114E+04</pdfrwt>
<pdfrwt beam="2">  1       -2 0.23992062E+00 0.40445114E+04</pdfrwt>
<totfact> 0.17642848E-01</totfact>
</mgrwt>
<rwgt>
<wgt id='morphing_basis_vector_1'> +1.6479149e-05 </wgt>
<wgt id='morphing_basis_vector_2'> +1.1170226e-05 </wgt>
<wgt id='morphing_basis_vector_3'> +1.8094137e-05 </wgt>
<wgt id='morphing_basis_vector_4'> +1.3030699e-05 </wgt>
<wgt id='morphing_basis_vector_5'> +2.0779021e-05 </wgt>
</rwgt>
</event>
<event>
 4      1 +4.5322000e-10 4.57003000e+03 7.81860800e-03 7.44672500e-02
        2 -1    0    0  501    0 +0.0000000000e+00 +0.0000000000e+00 +2.9744236159e+03 2.9744236159e+03 0.0000000000e+00 0.0000e+00 1.0000e+00
       -2 -1    0    0    0  501 -0.0000000000e+00 -0.0000000000e+00 -1.7553970642e+03 1.7553970642e+03 0.0000000000e+00 0.0000e+00 -1.0000e+00
      -13  1    1    2    0    0 -1.6319001725e+03 +4.9331024670e+01 -1.0450594263e+03 1.9384738656e+03 0.0000000000e+00 0.0000e+00 -1.0000e+00
       13  1    1    2    0    0 +1.6319001725e+03 -4.9331024670e+01 +2.2640859780e+03 2.7913468145e+03 0.0000000000e+00 0.0000e+00 1.0000e+00
<mgrwt>
<rscale>  0 0.45700304E+04</rscale>
<asrwt>0</asrwt>
<pdfrwt beam="1">  1        2 0.45760363E+00 0.45700304E+04</pdfrwt>
<pdfrwt beam="2">  1       -2 0.27006109E+00 0.45700304E+04</pdfrwt>
<totfact> 0.63020889E-02</totfact>
</mgrwt>
<rwgt>
<wgt id='morphing_basis_vector_1'> +2.6835546e-05 </wgt>
<wgt id='morphing_basis_vector_2'> +1.8285040e-05 </wgt>
<wgt id='morphing_basis_vector_3'> +2.9541471e-05 </wgt>
<wgt id='morphing_basis_vector_4'> +2.1218226e-05 </wgt>
<wgt id='morphing_basis_vector_5'> +3.3937465e-05 </wgt>
</rwgt>
</event>
<event>
 4      1 +4.5322000e-10 4.14571400e+03 7.81860800e-03 7.51525100e-02
        2 -1    0    0  501    0 +0.0000000000e+00 +0.0000000000e+00 +2.3919784472e+03 2.3919784472e+03 0.0000000000e+00 0.0000e+00 -1.0000e+00
       -2 -1    0    0    0  501 -0.0000000000e+00 -0.0000000000e+00 -1.7963109684e+03 1.7963109684e+03 0.0000000000e+00 0.0000e+00 1.0000e+00
      -13  1    1    2    0    0 +1.4680674088e+03 -9.1733103688e+02 -8.5405926811e+02 1.9303200205e+03 0.0000000000e+00 0.0000e+00 1.0000e+00
       13  1    1    2    0    0 -1.4680674088e+03 +9.1733103688e+02 +1.4497267469e+03 2.2579693950e+03 0.0000000000e+00 0.0000e+00 -1.0000e+00
<mgrwt>
<rscale>  0 0.41457145E+04</rscale>
<asrwt>0</asrwt>
<pdfrwt beam="1">  1        2 0.36799669E+00 0.41457145E+04</pdfrwt>
<pdfrwt beam="2">  1       -2 0.27635553E+00 0.41457145E+04</pdfrwt>
<totfact> 0.13488641E-01</totfact>
</mgrwt>
<rwgt>
<wgt id='morphing_basis_vector_1'> +1.8242841e-05 </wgt>
<wgt id='morphing_basis_vector_2'> +1.2505345e-05 </wgt>
<wgt id='morphing_basis_vector_3'> +2.0070351e-05 </wgt>
<wgt id='morphing_basis_vector_4'> +1.4263861e-05 </wgt>
<wgt id='morphing_basis_vector_5'> +2.2938264e-05 </wgt>
</rwgt>
</event>
<event>
 4      1 +4.5322000e-10 4.04405300e+03 7.81860800e-03 7.53290900e-02
        2 -1    0    0  501    0 +0.0000000000e+00 +0.0000000000e+00 +3.3428793740e+03 3.3428793740e+03 0.0000000000e+00 0.0000e+00 1.0000e+00
       -2 -1    0    0    0  501 -0.0000000000e+00 -0.0000000000e+00 -1.2230746795e+03 1.2230746795e+03 0.0000000000e+00 0.0000e+00 -1.0000e+00
      -13  1    1    2    0    0 +1.7221875822e+03 -9.1578108394e+02 +4.5820443881e+02 2.0036307968e+03 0.0000000000e+00 0.0000e+00 -1.0000e+00
       13  1    1    2    0    0 -1.7221875822e+03 +9.1578108394e+02 +1.6616002557e+03 2.5623232567e+03 0.0000000000e+00 0.0000e+00 1.0000e+00
<mgrwt>
<rscale>  0 0.40440530E+04</rscale>
<asrwt>0</asrwt>
<pdfrwt beam="1">  1        2 0.51428913E+00 0.40440530E+04</pdfrwt>
<pdfrwt beam="2">  1       -2 0.18816534E+00 0.40440530E+04</pdfrwt>
<totfact> 0.14060034E-01</totfact>
</mgrwt>
<rwgt>
<wgt id='morphing_basis_vector_1'> +1.6690275e-05 </wgt>
<wgt id='morphing_basis_vector_2'> +1.1807562e-05 </wgt>
<wgt id='morphing_basis_vector_3'> +1.8436849e-05 </wgt>
<wgt id='morphing_basis_vector_4'> +1.2562264e-05 </wgt>
<wgt id='morphing_basis_vector_5'> +2.0731009e-05 </wgt>
</rwgt>
</event>
<event>
 4      1 +4.5322000e-10 4.25287900e+03 7.81860800e-03 7.49718500e-02
        2 -1    0    0  501    0 +0.0000000000e+00 +0.0000000000e+00 +2.3387726285e+03 2.3387726285e+03 0.0000000000e+00 0.0000e+00 1.0000e+00
       -2 -1    0    0    0  501 -0.0000000000e+00 -0.0000000000e+00 -1.9333840951e+03 1.9333840951e+03 0.0000000000e+00 0.0000e+00 -1.0000e+00
      -13  1    1    2    0    0 +1.0912496578e+03 +4.8975244736e+02 +1.9688053003e+03 2.3036661186e+03 0.0000000000e+00 0.0000e+00 1.0000e+00
       13  1    1    2    0    0 -1.0912496578e+03 -4.8975244736e+02 -1.5634167669e+03 1.9684906051e+03 0.0000000000e+00 0.0000e+00 -1.0000e+00
<mgrwt>
<rscale>  0 0.42528794E+04</rscale>
<asrwt>0</asrwt>
<pdfrwt beam="1">  1        2 0.35981117E+00 0.42528794E+04</pdfrwt>
<pdfrwt beam="2">  1       -2 0.29744371E+00 0.42528794E+04</pdfrwt>
<totfact> 0.10335400E-01</totfact>
</mgrwt>
<rwgt>
<wgt id='morphing_basis_vector_1'> +2.7026771e-05 </wgt>
<wgt id='morphing_basis_vector_2'> +3.3925081e-05 </wgt>
<wgt id='morphing_basis_vector_3'> +3.3230065e-05 </wgt>
<wgt id='morphing_basis_vector_4'> +1.3172754e-06 </wgt>
<wgt id='morphing_basis_vector_5'> +2.4205931e-05 </wgt>
</rwgt>
</event>
<event>
 4      1 +4.5322000e-10 4.34571200e+03 7.81860800e-03 7.48196600e-02
        2 -1    0    0  501    0 +0.0000000000e+00 +0.0000000000e+00 +2.1515508556e+03 2.1515508556e+03 0.0000000000e+00 0.0000e+00 1.0000e+00
       -2 -1    0    0    0  501 -0.0000000000e+00 -0.0000000000e+00 -2.1943720514e+03 2.1943720514e+03 0.0000000000e+00 0.0000e+00 -1.0000e+00
      -13  1    1    2    0    0 -8.2774224292e+02 -1.9862772048e+03 -3.2283642743e+02 2.1759314589e+03 0.0000000000e+00 0.0000e+00 -1.0000e+00
       13  1    1    2    0    0 +8.2774224292e+02 +1.9862772048e+03 +2.8001523169e+02 2.1699914481e+03 0.0000000000e+00 0.0000e+00 1.0000e+00
<mgrwt>
<rscale>  0 0.43457119E+04</rscale>
<asrwt>0</asrwt>
<pdfrwt beam="1">  1        2 0.33100782E+00 0.43457119E+04</pdfrwt>
<pdfrwt beam="2">  1       -2 0.33759570E+00 0.43457119E+04</pdfrwt>
<totfact> 0.71077532E-02</totfact>
</mgrwt>
<rwgt>
<wgt id='morphing_basis_vector_1'> +2.2414581e-05 </wgt>
<wgt id='morphing_basis_vector_2'> +1.6290342e-05 </wgt>
<wgt id='morphing_basis_vector_3'> +2.4888188e-05 </wgt>
<wgt id='morphing_basis_vector_4'> +1.6371692e-05 </wgt>
<wgt id='morphing_basis_vector_5'> +2.7646144e-05 </wgt>
</rwgt>
</event>
<event>
 4      1 +4.5322000e-10 4.06941800e+03 7.81860800e-03 7.52845400e-02
        2 -1    0    0  501    0 +0.0000000000e+00 +0.0000000000e+00 +3.6345271906e+03 3.6345271906e+03 0.0000000000e+00 0.0000e+00 1.0000e+00
       -2 -1    0    0    0  501 -0.0000000000e+00 -0.0000000000e+00 -1.1390863815e+03 1.1390863815e+03 0.0000000000e+00 0.0000e+00 -1.0000e+00
      -13  1    1    2    0    0 -1.1774267933e+03 +6.8121742080e+02 +3.0227249361e+03 3.3147031642e+03 0.0000000000e+00 0.0000e+00 1.0000e+00
       13  1    1    2    0    0 +1.1774267933e+03 -6.8121742080e+02 -5.2728412696e+02 1.4589104080e+03 0.0000000000e+00 0.0000e+00 -1.0000e+00
<mgrwt>
<rscale>  0 0.40694179E+04</rscale>
<asrwt>0</asrwt>
<pdfrwt beam="1">  1        2 0.55915802E+00 0.40694179E+04</pdfrwt>
<pdfrwt beam="2">  1       -2 0.17524406E+00 0.40694179E+04</pdfrwt>
<totfact> 0.10754674E-01</totfact>
</mgrwt>
<rwgt>
<wgt id='morphing_basis_vector_1'> +2.2120096e-05 </wgt>
<wgt id='morphing_basis_vector_2'> +2.6828766e-05 </wgt>
<wgt id='morphing_basis_vector_3'> +2.6949554e-05 </wgt>
<wgt id='morphing_basis_vector_4'> +2.2790303e-06 </wgt>
<wgt id='morphing_basis_vector_5'> +2.0374717e-05 </wgt>
</rwgt>
</event>
<event>
 4      1 +4.5322000e-10 4.42070100e+03 7.81860800e-03 7.46995000e-02
        2 -1    0    0  501    0 +0.0000000000e+00 +0.0000000000e+00 +3.0679995507e+03 3.0679995507e+03 0.0000000000e+00 0.0000e+00 1.0000e+00
       -2 -1    0    0    0  501 -0.0000000000e+00 -0.0000000000e+00 -1.5924541257e+03 1.5924541257e+03 0.0000000000e+00 0.0000e+00 -1.0000e+00
      -13  1    1    2    0    0 -1.1208312614e+03 +2.3207415009e+02 -1.2556855401e+03 1.6990783688e+03 0.0000000000e+00 0.0000e+00 -1.0000e+00
       13  1    1    2    0    0 +1.1208312614e+03 -2.3207415009e+02 +2.7312309651e+03 2.9613753076e+03 0.0000000000e+00 0.0000e+00 1.0000e+00
<mgrwt>
<rscale>  0 0.44207006E+04</rscale>
<asrwt>0</asrwt>
<pdfrwt beam="1">  1        2 0.47199993E+00 0.44207006E+04</pdfrwt>
<pdfrwt beam="2">  1       -2 0.24499294E+00 0.44207006E+04</pdfrwt>
<totfact> 0.82393424E-02</totfact>
</mgrwt>
<rwgt>
<wgt id='morphing_basis_vector_1'> +2.3484904e-05 </wgt>
<wgt id='morphing_basis_vector_2'> +1.5942554e-05 </wgt>
<wgt id='morphing_basis_vector_3'> +2.5827561e-05 </wgt>
<wgt id='morphing_basis_vector_4'> +1.8619485e-05 </wgt>
<wgt id='morphing_basis_vector_5'> +2.9703197e-05 </wgt>
</rwgt>
</event>
<event>
 4      1 +4.5322000e-10 4.14877600e+03 7.81860800e-03 7.51472700e-02
        2 -1    0    0  501    0 +0.0000000000e+00 +0.0000000000e+00 +2.2917973007e+03 2.2917973007e+03 0.0000000000e+00 0.0000e+00 -1.0000e+00
       -2 -1    0    0    0  501 -0.0000000000e+00 -0.0000000000e+00 -1.8776034450e+03 1.8776034450e+03 0.0000000000e+00 0.0000e+00 1.0000e+00
      -13  1    1    2    0    0 +7.3536026168e+02 -1.3651726207e+03 -1.1776627370e+03 1.9471364926e+03 0.0000000000e+00 0.0000e+00 1.0000e+00
       13  1    1    2    0    0 -7.3536026168e+02 +1.3651726207e+03 +1.5918565928e+03 2.2222642531e+03 0.0000000000e+00 0.0000e+00 -1.0000e+00
<mgrwt>
<rscale>  0 0.41487764E+04</rscale>
<asrwt>0</asrwt>
<pdfrwt beam="1">  1        2 0.35258420E+00 0.41487764E+04</pdfrwt>
<pdfrwt beam="2">  1       -2 0.28886207E+00 0.41487764E+04</pdfrwt>
<totfact> 0.12685393E-01</totfact>
</mgrwt>
<rwgt>
<wgt id='morphing_basis_vector_1'> +1.8264544e-05 </wgt>
<wgt id='morphing_basis_vector_2'> +1.2448230e-05 </wgt>
<wgt id='morphing_basis_vector_3'> +2.0078245e-05 </wgt>
<wgt id='morphing_basis_vector_4'> +1.4374012e-05 </wgt>
<wgt id='morphing_basis_vector_5'> +2.3012073e-05 </wgt>
</rwgt>
</event>
<event>
 4      1 +4.5322000e-10 4.26269200e+03 7.81860800e-03 7.49555700e-02
        2 -1    0    0  501    0 +0.0000000000e+00 +0.0000000000e+00 +3.1757334640e+03 3.1757334640e+03 0.0000000000e+00 0.0000e+00 1.0000e+00
       -2 -1    0    0    0  501 -0.0000000000e+00 -0.0000000000e+00 -1.4304207118e+03 1.4304207118e+03 0.0000000000e+00 0.0000e+00 -1.0000e+00
      -13  1    1    2    0    0 -3.2066384767e+01 -1.5093928966e+03 +2.4983153015e+03 2.9190537020e+03 0.0000000000e+00 0.0000e+00 1.0000e+00
       13  1    1    2    0    0 +3.2066384767e+01 +1.5093928966e+03 -7.5300254934e+02 1.6871004738e+03 0.0000000000e+00 0.0000e+00 -1.0000e+00
<mgrwt>
<rscale>  0 0.42626916E+04</rscale>
<asrwt>0</asrwt>
<pdfrwt beam="1">  1        2 0.48857437E+00 0.42626916E+04</pdfrwt>
<pdfrwt beam="2">  1       -2 0.22006473E+00 0.42626916E+04</pdfrwt>
<totfact> 0.10568000E-01</totfact>
</mgrwt>
<rwgt>
<wgt id='morphing_basis_vector_1'> +2.6242828e-05 </wgt>
<wgt id='morphing_basis_vector_2'> +3.1202235e-05 </wgt>
<wgt id='morphing_basis_vector_3'> +3.1874862e-05 </wgt>
<wgt id='morphing_basis_vector_4'> +3.5200109e-06 </wgt>
<wgt id='morphing_basis_vector_5'> +2.4613870e-05 </wgt>
</rwgt>
</event>
<event>
 4      1 +4.5322000e-10 4.28599600e+03 7.81860800e-03 7.49171100e-02
        2 -1    0    0  501    0 +0.0000000000e+00 +0.0000000000e+00 +4.2800523312e+03 4.2800523312e+03 0.0000000000e+00 0.0000e+00 -1.0000e+00
       -2 -1    0    0    0  501 -0.0000000000e+00 -0.0000000000e+00 -1.0729868840e+03 1.0729868840e+03 0.0000000000e+00 0.0000e+00 1.0000e+00
      -13  1    1    2    0    0 +4.7374325498e+02 +1.5584753848e+03 -1.3569203342e+02 1.6345306741e+03 0.0000000000e+00 0.0000e+00 1.0000e+00
       13  1    1    2    0    0 -4.7374325498e+02 -1.5584753848e+03 +3.3427574806e+03 3.7185085412e+03 0.0000000000e+00 0.0000e+00 -1.0000e+00
<mgrwt>
<rscale>  0 0.42859958E+04</rscale>
<asrwt>0</asrwt>
<pdfrwt beam="1">  1        2 0.65846958E+00 0.42859958E+04</pdfrwt>
<pdfrwt beam="2">  1       -2 0.16507491E+00 0.42859958E+04</pdfrwt>
<totfact> 0.36179014E-02</totfact>
</mgrwt>
<rwgt>
<wgt id='morphing_basis_vector_1'> +2.0794631e-05 </wgt>
<wgt id='morphing_basis_vector_2'> +1.4185977e-05 </wgt>
<wgt id='morphing_basis_vector_3'> +2.2874314e-05 </wgt>
<wgt id='morphing_basis_vector_4'> +1.6373646e-05 </wgt>
<wgt id='morphing_basis_vector_5'> +2.6225523e-05 </wgt>
</rwgt>
</event>
<event>
 4      1 +4.5322000e-10 4.58794000e+03 7.81860800e-03 7.44400000e-02
        2 -1    0    0  501    0 +0.0000000000e+00 +0.0000000000e+00 +1.5373798029e+03 1.5373798029e+03 0.0000000000e+00 0.0000e+00 -1.0000e+00
       -2 -1    0    0    0  501 -0.0000000000e+00 -0.0000000000e+00 -3.4229004927e+03 3.4229004927e+03 0.0000000000e+00 0.0000e+00 1.0000e+00
      -13  1    1    2    0    0 +5.8828232558e+02 +8.3457515989e+02 -3.1636634525e+03 3.3243583189e+03 0.0000000000e+00 0.0000e+00 1.0000e+00
       13  1    1    2    0    0 -5.8828232558e+02 -8.3457515989e+02 +1.2781427626e+03 1.6359219767e+03 0.0000000000e+00 0.0000e+00 -1.0000e+00
<mgrwt>
<rscale>  0 0.45879399E+04</rscale>
<asrwt>0</asrwt>
<pdfrwt beam="1">  1        2 0.23651997E+00 0.45879399E+04</pdfrwt>
<pdfrwt beam="2">  1       -2 0.52660007E+00 0.45879399E+04</pdfrwt>
<totfact> 0.76512035E-03</totfact>
</mgrwt>
<rwgt>
<wgt id='morphing_basis_vector_1'> +2.7225786e-05 </wgt>
<wgt id='morphing_basis_vector_2'> +1.8481160e-05 </wgt>
<wgt id='morphing_basis_vector_3'> +2.9956671e-05 </wgt>
<wgt id='morphing_basis_vector_4'> +2.1620423e-05 </wgt>
<wgt id='morphing_basis_vector_5'> +3.4480184e-05 </wgt>
</rwgt>
</event>
<event>
 4      1 +4.5322000e-10 4.25228500e+03 7.81860800e-03 7.49728300e-02
        2 -1    0    0  501    0 +0.0000000000e+00 +0.0000000000e+00 +1.6194946932e+03 1.6194946932e+03 0.0000000000e+00 0.0000e+00 1.0000e+00
       -2 -1    0    0    0  501 -0.0000000000e+00 -0.0000000000e+00 -2.7912919408e+03 2.7912919408e+03 0.0000000000e+00 0.0000e+00 -1.0000e+00
      -13  1    1    2    0    0 -1.5509211739e+03 -3.2959882540e+02 -2.0552045315e+03 2.5957383419e+03 0.0000000000e+00 0.0000e+00 -1.0000e+00
       13  1    1    2    0    0 +1.5509211739e+03 +3.2959882540e+02 +8.8340728392e+02 1.8150482921e+03 0.0000000000e+00 0.0000e+00 1.0000e+00
<mgrwt>
<rscale>  0 0.42522853E+04</rscale>
<asrwt>0</asrwt>
<pdfrwt beam="1">  1        2 0.24915303E+00 0.42522853E+04</pdfrwt>
<pdfrwt beam="2">  1       -2 0.42942953E+00 0.42522853E+04</pdfrwt>
<totfact> 0.35843303E-02</totfact>
</mgrwt>
<rwgt>
<wgt id='morphing_basis_vector_1'> +2.0146940e-05 </wgt>
<wgt id='morphing_basis_vector_2'> +1.3733900e-05 </wgt>
<wgt id='morphing_basis_vector_3'> +2.2156844e-05 </wgt>
<wgt id='morphing_basis_vector_4'> +1.5870936e-05 </wgt>
<wgt id='morphing_basis_vector_5'> +2.5407339e-05 </wgt>
</rwgt>
</event>
<event>
 4      1 +4.5322000e-10 3.94124700e+03 7.81860800e-03 7.55131200e-02
        2 -1    0    0  501    0 +0.0000000000e+00 +0.0000000000e+00 +2.7360846629e+03 2.7360846629e+03 0.0000000000e+00 0.0000e+00 1.0000e+00
       -2 -1    0    0    0  501 -0.0000000000e+00 -0.0000000000e+00 -1.4193114753e+03 1.4193114753e+03 0.0000000000e+00 0.0000e+00 -1.0000e+00
      -13  1    1    2    0    0 -1.1630963739e+03 -3.7632434860e+02 -9.7121605706e+02 1.5613051655e+03 0.0000000000e+00 0.0000e+00 -1.0000e+00
       13  1    1    2    0    0 +1.1630963739e+03 +3.7632434860e+02 +2.2879892447e+03 2.5940909726e+03 0.0000000000e+00 0.0000e+00 1.0000e+00
<mgrwt>
<rscale>  0 0.39412467E+04</rscale>
<asrwt>0</asrwt>
<pdfrwt beam="1">  1        2 0.42093610E+00 0.39412467E+04</pdfrwt>
<pdfrwt beam="2">  1       -2 0.21835561E+00 0.39412467E+04</pdfrwt>
<totfact> 0.21471350E-01</totfact>
</mgrwt>
<rwgt>
<wgt id='morphing_basis_vector_1'> +1.4874799e-05 </wgt>
<wgt id='morphing_basis_vector_2'> +1.0096138e-05 </wgt>
<wgt id='morphing_basis_vector_3'> +1.6328181e-05 </wgt>
<wgt id='morphing_basis_vector_4'> +1.1728533e-05 </wgt>
<wgt id='morphing_basis_vector_5'> +1.8725842e-05 </wgt>
</rwgt>
</event>
<event>
 4      1 +4.5322000e-10 4.37846300e+03 7.81860800e-03 7.47668800e-02
        2 -1    0    0  501    0 +0.0000000000e+00 +0.0000000000e+00 +3.8154346716e+03 3.8154346716e+03 0.0000000000e+00 0.0000e+00 1.0000e+00
       -2 -1    0    0    0  501 -0.0000000000e+00 -0.0000000000e+00 -1.2561440699e+03 1.2561440699e+03 0.0000000000e+00 0.0000e+00 -1.0000e+00
      -13  1    1    2    0    0 -5.6584209034e+02 +7.0627837128e+02 -1.0293368477e+03 1.3705986849e+03 0.0000000000e+00 0.0000e+00 -1.0000e+00
       13  1    1    2    0    0 +5.6584209034e+02 -7.0627837128e+02 +3.5886274494e+03 3.7009800566e+03 0.0000000000e+00 0.0000e+00 1.0000e+00
<mgrwt>
<rscale>  0 0.43784635E+04</rscale>
<asrwt>0</asrwt>
<pdfrwt beam="1">  1        2 0.58698995E+00 0.43784635E+04</pdfrwt>
<pdfrwt beam="2">  1       -2 0.19325293E+00 0.43784635E+04</pdfrwt>
<totfact> 0.55437978E-02</totfact>
</mgrwt>
<rwgt>
<wgt id='morphing_basis_vector_1'> +2.2600256e-05 </wgt>
<wgt id='morphing_basis_vector_2'> +1.5332432e-05 </wgt>
<wgt id='morphing_basis_vector_3'> +2.4849058e-05 </wgt>
<wgt id='morphing_basis_vector_4'> +1.7922855e-05 </wgt>
<wgt id='morphing_basis_vector_5'> +2.8580311e-05 </wgt>
</rwgt>
</event>
<event>
 4      1 +4.5322000e-10 4.47604300e+03 7.81860800e-03 7.46123600e-02
        2 -1    0    0  501    0 +0.0000000000e+00 +0.0000000000e+00 +3.4497377141e+03 3.4497377141e+03 0.0000000000e+00 0.0000e+00 -1.0000e+00
       -2 -1    0    0    0  501 -0.0000000000e+00 -0.0000000000e+00 -1.4519194474e+03 1.4519194474e+03 0.0000000000e+00 0.0000e+00 1.0000e+00
      -13  1    1    2    0    0 +8.4554006368e+02 +1.9908843237e+03 +3.6965523248e+02 2.1943571679e+03 0.0000000000e+00 0.0000e+00 1.0000e+00
       13  1    1    2    0    0 -8.4554006368e+02 -1.9908843237e+03 +1.6281630341e+03 2.7072999936e+03 0.0000000000e+00 0.0000e+00 -1.0000e+00
<mgrwt>
<rscale>  0 0.44760435E+04</rscale>
<asrwt>0</asrwt>
<pdfrwt beam="1">  1        2 0.53072888E+00 0.44760435E+04</pdfrwt>
<pdfrwt beam="2">  1       -2 0.22337222E+00 0.44760435E+04</pdfrwt>
<totfact> 0.63327073E-02</totfact>
</mgrwt>
<rwgt>
<wgt id='morphing_basis_vector_1'> +2.5011415e-05 </wgt>
<wgt id='morphing_basis_vector_2'> +1.7733855e-05 </wgt>
<wgt id='morphing_basis_vector_3'> +2.7683216e-05 </wgt>
<wgt id='morphing_basis_vector_4'> +1.8865450e-05 </wgt>
<wgt id='morphing_basis_vector_5'> +3.1165830e-05 </wgt>
</rwgt>
</event>
<event>
 4      1 +4.5322000e-10 3.85422000e+03 7.81860800e-03 7.56734200e-02
        2 -1    0    0  501    0 +0.0000000000e+00 +0.0000000000e+00 +1.3528195498e+03 1.3528195498e+03 0.0000000000e+00 0.0000e+00 1.0000e+00
       -2 -1    0    0    0  501 -0.0000000000e+00 -0.0000000000e+00 -2.7451950122e+03 2.7451950122e+03 0.0000000000e+00 0.0000e+00 -1.0000e+00
      -13  1    1    2    0    0 -1.9026739259e+03 +3.0211690914e+02 -7.4729901241e+02 2.0663732744e+03 0.0000000000e+00 0.0000e+00 -1.0000e+00
       13  1    1    2    0    0 +1.9026739259e+03 -3.0211690914e+02 -6.4507645002e+02 2.0316412876e+03 0.0000000000e+00 0.0000e+00 1.0000e+00
<mgrwt>
<rscale>  0 0.38542203E+04</rscale>
<asrwt>0</asrwt>
<pdfrwt beam="1">  1        2 0.20812609E+00 0.38542203E+04</pdfrwt>
<pdfrwt beam="2">  1       -2 0.42233769E+00 0.38542203E+04</pdfrwt>
<totfact> 0.58239417E-02</totfact>
</mgrwt>
<rwgt>
<wgt id='morphing_basis_vector_1'> +1.4059372e-05 </wgt>
<wgt id='morphing_basis_vector_2'> +1.0555126e-05 </wgt>
<wgt id='morphing_basis_vector_3'> +1.5652111e-05 </wgt>
<wgt id='morphing_basis_vector_4'> +9.7734416e-06 </wgt>
<wgt id='morphing_basis_vector_5'> +1.7039003e-05 </wgt>
</rwgt>
</event>
<event>
 4      1 +4.5322000e-10 4.13859300e+03 7.81860800e-03 7.51647100e-02
        2 -1    0    0  501    0 +0.0000000000e+00 +0.0000000000e+00 +2.0193956029e+03 2.0193956029e+03 0.0000000000e+00 0.0000e+00 -1.0000e+00
       -2 -1    0    0    0  501 -0.0000000000e+00 -0.0000000000e+00 -2.1204308242e+03 2.1204308242e+03 0.0000000000e+00 0.0000e+00 1.0000e+00
      -13  1    1    2    0    0 -1.4928017721e+03 -6.6044585098e+02 -1.3226444724e+03 2.1009603169e+03 0.0000000000e+00 0.0000e+00 1.0000e+00
       13  1    1    2    0    0 +1.4928017721e+03 +6.6044585098e+02 +1.2216092511e+03 2.0388661102e+03 0.0000000000e+00 0.0000e+00 -1.0000e+00
<mgrwt>
<rscale>  0 0.41385933E+04</rscale>
<asrwt>0</asrwt>
<pdfrwt beam="1">  1        2 0.31067625E+00 0.41385933E+04</pdfrwt>
<pdfrwt beam="2">  1       -2 0.32622013E+00 0.41385933E+04</pdfrwt>
<totfact> 0.10203714E-01</totfact>
</mgrwt>
<rwgt>
<wgt id='morphing_basis_vector_1'> +1.8098611e-05 </wgt>
<wgt id='morphing_basis_vector_2'> +1.2361605e-05 </wgt>
<wgt id='morphing_basis_vector_3'> +1.9901001e-05 </wgt>
<wgt id='morphing_basis_vector_4'> +1.4207616e-05 </wgt>
<wgt id='morphing_basis_vector_5'> +2.2783838e-05 </wgt>
</rwgt>
</event>
<event>
 4      1 +4.5322000e-10 3.98297900e+03 7.81860800e-03 7.54377300e-02
        2 -1    0    0  501    0 +0.0000000000e+00 +0.0000000000e+00 +2.1758092269e+03 2.1758092269e+03 0.0000000000e+00 0.0000e+00 1.0000e+00
       -2 -1    0    0    0  501 -0.0000000000e+00 -0.0000000000e+00 -1.8227843003e+03 1.8227843003e+03 0.0000000000e+00 0.0000e+00 -1.0000e+00
      -13  1    1    2    0    0 +1.6530989059e+03 -1.0536670795e+03 -1.7569131026e+02 1.9682016522e+03 0.0000000000e+00 0.0000e+00 -1.0000e+00
       13  1    1    2    0    0 -1.6530989059e+03 +1.0536670795e+03 +5.2871623689e+02 2.0303918750e+03 0.0000000000e+00 0.0000e+00 1.0000e+00
<mgrwt>
<rscale>  0 0.39829792E+04</rscale>
<asrwt>0</asrwt>
<pdfrwt beam="1">  1        2 0.33473988E+00 0.39829792E+04</pdfrwt>
<pdfrwt beam="2">  1       -2 0.28042835E+00 0.39829792E+04</pdfrwt>
<totfact> 0.17106155E-01</totfact>
</mgrwt>
<rwgt>
<wgt id='morphing_basis_vector_1'> +1.5796877e-05 </wgt>
<wgt id='morphing_basis_vector_2'> +1.1368584e-05 </wgt>
<wgt id='morphing_basis_vector_3'> +1.7488356e-05 </wgt>
<wgt id='morphing_basis_vector_4'> +1.1632212e-05 </wgt>
<wgt id='morphing_basis_vector_5'> +1.9485542e-05 </wgt>
</rwgt>
</event>
<event>
 4      1 +4.5322000e-10 4.07874100e+03 7.81860800e-03 7.52682500e-02
        2 -1    0    0  501    0 +0.0000000000e+00 +0.0000000000e+00 +1.7503683877e+03 1.7503683877e+03 0.0000000000e+00 0.0000e+00 1.0000e+00
       -2 -1    0    0    0  501 -0.0000000000e+00 -0.0000000000e+00 -2.3760898573e+03 2.3760898573e+03 0.0000000000e+00 0.0000e+00 -1.0000e+00
      -13  1    1    2    0    0 -1.8281139644e+03 +4.3206627804e+02 +4.9037384407e+02 1.9414294843e+03 0.0000000000e+00 0.0000e+00 -1.0000e+00
       13  1    1    2    0    0 +1.8281139644e+03 -4.3206627804e+02 -1.1160953137e+03 2.1850287606e+03 0.0000000000e+00 0.0000e+00 1.0000e+00
<mgrwt>
<rscale>  0 0.40787413E+04</rscale>
<asrwt>0</asrwt>
<pdfrwt beam="1">  1        2 0.26928745E+00 0.40787413E+04</pdfrwt>
<pdfrwt beam="2">  1       -2 0.36555228E+00 0.40787413E+04</pdfrwt>
<totfact> 0.80339438E-02</totfact>
</mgrwt>
<rwgt>
<wgt id='morphing_basis_vector_1'> +1.9333568e-05 </wgt>
<wgt id='morphing_basis_vector_2'> +1.8289657e-05 </wgt>
<wgt id='morphing_basis_vector_3'> +2.2396648e-05 </wgt>
<wgt id='morphing_basis_vector_4'> +8.6271840e-06 </wgt>
<wgt id='morphing_basis_vector_5'> +2.1090389e-05 </wgt>
</rwgt>
</event>
<event>
 4      1 +4.5322000e-10 4.15041900e+03 7.81860800e-03 7.51444600e-02
        2 -1    0    0  501    0 +0.0000000000e+00 +0.0000000000e+00 +3.0795357811e+03 3.0795357811e+03 0.0000000000e+00 0.0000e+00 -1.0000e+00
       -2 -1    0    0    0  501 -0.0000000000e+00 -0.0000000000e+00 -1.3984229960e+03 1.3984229960e+03 0.0000000000e+00 0.0000e+00 1.0000e+00
      -13  1    1    2    0    0 -9.6233008401e+02 -1.7898471716e+03 +3.8681863389e+02 2.0686374124e+03 0.0000000000e+00 0.0000e+00 1.0000e+00
       13  1    1    2    0    0 +9.6233008401e+02 +1.7898471716e+03 +1.2942941512e+03 2.4093213647e+03 0.0000000000e+00 0.0000e+00 -1.0000e+00
<mgrwt>
<rscale>  0 0.41504186E+04</rscale>
<asrwt>0</asrwt>
<pdfrwt beam="1">  1        2 0.47377473E+00 0.41504186E+04</pdfrwt>
<pdfrwt beam="2">  1       -2 0.21514200E+00 0.41504186E+04</pdfrwt>
<totfact> 0.13405840E-01</totfact>
</mgrwt>
<rwgt>
<wgt id='morphing_basis_vector_1'> +1.8575813e-05 </wgt>
<wgt id='morphing_basis_vector_2'> +1.3298055e-05 </wgt>
<wgt id='morphing_basis_vector_3'> +2.0564286e-05 </wgt>
<wgt id='morphing_basis_vector_4'> +1.3798535e-05 </wgt>
<wgt id='morphing_basis_vector_5'> +2.2998785e-05 </wgt>
</rwgt>
</event>
<event>
 4      1 +4.5322000e-10 3.94366500e+03 7.81860800e-03 7.55087200e-02
        2 -1    0    0  501    0 +0.0000000000e+00 +0.0000000000e+00 +2.3070327653e+03 2.3070327653e+03 0.0000000000e+00 0.0000e+00 -1.0000e+00
       -2 -1    0    0    0  501 -0.0000000000e+00 -0.0000000000e+00 -1.6853354630e+03 1.6853354630e+03 0.0000000000e+00 0.0000e+00 1.0000e+00
      -13  1    1    2    0    0 +6.9725323901e+02 -1.2345631076e+03 -1.0764087495e+03 1.7801584036e+03 0.0000000000e+00 0.0000e+00 1.0000e+00
       13  1    1    2    0    0 -6.9725323901e+02 +1.2345631076e+03 +1.6981060518e+03 2.2122098248e+03 0.0000000000e+00 0.0000e+00 -1.0000e+00
<mgrwt>
<rscale>  0 0.39436654E+04</rscale>
<asrwt>0</asrwt>
<pdfrwt beam="1">  1        2 0.35492812E+00 0.39436654E+04</pdfrwt>
<pdfrwt beam="2">  1       -2 0.25928238E+00 0.39436654E+04</pdfrwt>
<totfact> 0.20117243E-01</totfact>
</mgrwt>
<rwgt>
<wgt id='morphing_basis_vector_1'> +1.4921916e-05 </wgt>
<wgt id='morphing_basis_vector_2'> +1.0152530e-05 </wgt>
<wgt id='morphing_basis_vector_3'> +1.6385538e-05 </wgt>
<wgt id='morphing_basis_vector_4'> +1.1734742e-05 </wgt>
<wgt id='morphing_basis_vector_5'> +1.8770192e-05 </wgt>
</rwgt>
</event>
<event>
 4      1 +4.5322000e-10 3.91923300e+03 7.81860800e-03 7.55532700e-02
        2 -1    0    0  501    0 +0.0000000000e+00 +0.0000000000e+00 +3.2253416046e+03 3.2253416046e+03 0.0000000000e+00 0.0000e+00 -1.0000e+00
       -2 -1    0    0    0  501 -0.0000000000e+00 -0.0000000000e+00 -1.1906013106e+03 1.1906013106e+03 0.0000000000e+00 0.0000e+00 1.0000e+00
      -13  1    1    2    0    0 +4.2747627423e+02 +4.8604302907e+02 -1.0666730085e+03 1.2477039305e+03 0.0000000000e+00 0.0000e+00 1.0000e+00
       13  1    1    2    0    0 -4.2747627423e+02 -4.8604302907e+02 +3.1014133025e+03 3.1682389847e+03 0.0000000000e+00 0.0000e+00 -1.0000e+00
<mgrwt>
<rscale>  0 0.39192325E+04</rscale>
<asrwt>0</asrwt>
<pdfrwt beam="1">  1        2 0.49620640E+00 0.39192325E+04</pdfrwt>
<pdfrwt beam="2">  1       -2 0.18316943E+00 0.39192325E+04</pdfrwt>
<totfact> 0.18681993E-01</totfact>
</mgrwt>
<rwgt>
<wgt id='morphing_basis_vector_1'> +1.4538803e-05 </wgt>
<wgt id='morphing_basis_vector_2'> +9.8489209e-06 </wgt>
<wgt id='morphing_basis_vector_3'> +1.5953465e-05 </wgt>
<wgt id='morphing_basis_vector_4'> +1.1484640e-05 </wgt>
<wgt id='morphing_basis_vector_5'> +1.8310282e-05 </wgt>
</rwgt>
</event>
<event>
 4      1 +4.5322000e-10 3.88781100e+03 7.81860800e-03 7.56110400e-02
        2 -1    0    0  501    0 +0.0000000000e+00 +0.0000000000e+00 +4.9152363006e+03 4.9152363006e+03 0.0000000000e+00 0.0000e+00 1.0000e+00
       -2 -1    0    0    0  501 -0.0000000000e+00 -0.0000000000e+00 -7.6878682519e+02 7.6878682519e+02 0.0000000000e+00 0.0000e+00 -1.0000e+00
      -13  1    1    2    0    0 +1.2982033567e+03 +1.0874344336e+03 +6.7784767080e+02 1.8240951366e+03 0.0000000000e+00 0.0000e+00 -1.0000e+00
       13  1    1    2    0    0 -1.2982033567e+03 -1.0874344336e+03 +3.4686018047e+03 3.8599279892e+03 0.0000000000e+00 0.0000e+00 1.0000e+00
<mgrwt>
<rscale>  0 0.38878112E+04</rscale>
<asrwt>0</asrwt>
<pdfrwt beam="1">  1        2 0.75619018E+00 0.38878112E+04</pdfrwt>
<pdfrwt beam="2">  1       -2 0.11827490E+00 0.38878112E+04</pdfrwt>
<totfact> 0.19212177E-02</totfact>
</mgrwt>
<rwgt>
<wgt id='morphing_basis_vector_1'> +1.4146246e-05 </wgt>
<wgt id='morphing_basis_vector_2'> +9.7305684e-06 </wgt>
<wgt id='morphing_basis_vector_3'> +1.5553331e-05 </wgt>
<wgt id='morphing_basis_vector_4'> +1.0980182e-05 </wgt>
<wgt id='morphing_basis_vector_5'> +1.7715592e-05 </wgt>
</rwgt>
</event>
<event>
 4      1 +4.5322000e-10 4.05423700e+03 7.81860800e-03 7.53111700e-02
        2 -1    0    0  501    0 +0.0000000000e+00 +0.0000000000e+00 +2.5300342043e+03 2.5300342043e+03 0.0000000000e+00 0.0000e+00 1.0000e+00
       -2 -1    0    0    0  501 -0.0000000000e+00 -0.0000000000e+00 -1.6241713195e+03 1.6241713195e+03 0.0000000000e+00 0.0000e+00 -1.0000e+00
      -13  1    1    2    0    0 +1.3523645358e+03 +4.0433916525e+02 -1.0378766996e+03 1.7520182766e+03 0.0000000000e+00 0.0000e+00 -1.0000e+00
       13  1    1    2    0    0 -1.3523645358e+03 -4.0433916525e+02 +1.9437395844e+03 2.4021872471e+03 0.0000000000e+00 0.0000e+00 1.0000e+00
<mgrwt>
<rscale>  0 0.40542368E+04</rscale>
<asrwt>0</asrwt>
<pdfrwt beam="1">  1        2 0.38923603E+00 0.40542368E+04</pdfrwt>
<pdfrwt beam="2">  1       -2 0.24987251E+00 0.40542368E+04</pdfrwt>
<totfact> 0.17099680E-01</totfact>
</mgrwt>
<rwgt>
<wgt id='morphing_basis_vector_1'> +1.6654041e-05 </wgt>
<wgt id='morphing_basis_vector_2'> +1.1326675e-05 </wgt>
<wgt id='morphing_basis_vector_3'> +1.8295423e-05 </wgt>
<wgt id='morphing_basis_vector_4'> +1.3121918e-05 </wgt>
<wgt id='morphing_basis_vector_5'> +2.0977648e-05 </wgt>
</rwgt>
</event>
<event>
 4      1 +4.5322000e-10 4.13286300e+03 7.81860800e-03 7.51745400e-02
        2 -1    0    0  501    0 +0.0000000000e+00 +0.0000000000e+00 +5.2416346117e+03 5.2416346117e+03 0.0000000000e+00 0.0000e+00 1.0000e+00
       -2 -1    0    0    0  501 -0.0000000000e+00 -0.0000000000e+00 -8.1465789446e+02 8.1465789446e+02 0.0000000000e+00 0.0000e+00 -1.0000e+00
      -13  1    1    2    0    0 -1.1335992041e+03 +6.3524512122e+02 -1.4100013683e+02 1.3070824604e+03 0.0000000000e+00 0.0000e+00 -1.0000e+00
       13  1    1    2    0    0 +1.1335992041e+03 -6.3524512122e+02 +4.5679768541e+03 4.7492100458e+03 0.0000000000e+00 0.0000e+00 1.0000e+00
<mgrwt>
<rscale>  0 0.41328629E+04</rscale>
<asrwt>0</asrwt>
<pdfrwt beam="1">  1        2 0.80640531E+00 0.41328629E+04</pdfrwt>
<pdfrwt beam="2">  1       -2 0.12533199E+00 0.41328629E+04</pdfrwt>
<totfact> 0.56499632E-03</totfact>
</mgrwt>
<rwgt>
<wgt id='morphing_basis_vector_1'> +1.7968998e-05 </wgt>
<wgt id='morphing_basis_vector_2'> +1.2205070e-05 </wgt>
<wgt id='morphing_basis_vector_3'> +1.9742712e-05 </wgt>
<wgt id='morphing_basis_vector_4'> +1.4192401e-05 </wgt>
<wgt id='morphing_basis_vector_5'> +2.2662639e-05 </wgt>
</rwgt>
</event>
<event>
 4      1 +4.5322000e-10 4.17105200e+03 7.81860800e-03 7.51092900e-02
        2 -1    0    0  501    0 +0.0000000000e+00 +0.0000000000e+00 +3.3049754231e+03 3.3049754231e+03 0.0000000000e+00 0.0000e+00 -1.0000e+00
       -2 -1    0    0    0  501 -0.0000000000e+00 -0.0000000000e+00 -1.3160217496e+03 1.3160217496e+03 0.0000000000e+00 0.0000e+00 1.0000e+00
      -13  1    1    2    0    0 +1.5186566656e+03 -6.9120445769e+02 -3.9162169166e+02 1.7138988359e+03 0.0000000000e+00 0.0000e+00 1.0000e+00
       13  1    1    2    0    0 -1.5186566656e+03 +6.9120445769e+02 +2.3805753652e+03 2.9070983368e+03 0.0000000000e+00 0.0000e+00 -1.0000e+00
<mgrwt>
<rscale>  0 0.41710524E+04</rscale>
<asrwt>0</asrwt>
<pdfrwt beam="1">  1        2 0.50845775E+00 0.41710524E+04</pdfrwt>
<pdfrwt beam="2">  1       -2 0.20246489E+00 0.41710524E+04</pdfrwt>
<totfact> 0.11606609E-01</totfact>
</mgrwt>
<rwgt>
<wgt id='morphing_basis_vector_1'> +1.8674512e-05 </wgt>
<wgt id='morphing_basis_vector_2'> +1.2765486e-05 </wgt>
<wgt id='morphing_basis_vector_3'> +2.0539238e-05 </wgt>
<wgt id='morphing_basis_vector_4'> +1.4651836e-05 </wgt>
<wgt id='morphing_basis_vector_5'> +2.3509708e-05 </wgt>
</rwgt>
</event>
<event>
 4      1 +4.5322000e-10 4.01894600e+03 7.81860800e-03 7.53735100e-02
        2 -1    0    0  501    0 +0.0000000000e+00 +0.0000000000e+00 +2.7226389763e+03 2.7226389763e+03 0.0000000000e+00 0.0000e+00 -1.0000e+00
       -2 -1    0    0    0  501 -0.0000000000e+00 -0.0000000000e+00 -1.4831135104e+03 1.4831135104e+03 0.0000000000e+00 0.0000e+00 1.0000e+00
      -13  1    1    2    0    0 -7.6164229969e+02 +1.1762290564e+03 -8.8744975215e+02 1.6586683961e+03 0.0000000000e+00 0.0000e+00 1.0000e+00
       13  1    1    2    0    0 +7.6164229969e+02 -1.1762290564e+03 +2.1269752181e+03 2.5470840905e+03 0.0000000000e+00 0.0000e+00 -1.0000e+00
<mgrwt>
<rscale>  0 0.40189465E+04</rscale>
<asrwt>0</asrwt>
<pdfrwt beam="1">  1        2 0.41886753E+00 0.40189465E+04</pdfrwt>
<pdfrwt beam="2">  1       -2 0.22817131E+00 0.40189465E+04</pdfrwt>
<totfact> 0.18538868E-01</totfact>
</mgrwt>
<rwgt>
<wgt id='morphing_basis_vector_1'> +1.6084680e-05 </wgt>
<wgt id='morphing_basis_vector_2'> +1.0938614e-05 </wgt>
<wgt id='morphing_basis_vector_3'> +1.7667114e-05 </wgt>
<wgt id='morphing_basis_vector_4'> +1.2668553e-05 </wgt>
<wgt id='morphing_basis_vector_5'> +2.0253248e-05 </wgt>
</rwgt>
</event>
<event>
 4      1 +4.5322000e-10 4.39375200e+03 7.81860800e-03 7.47424000e-02
        2 -1    0    0  501    0 +0.0000000000e+00 +0.0000000000e+00 +1.9862655064e+03 1.9862655064e+03 0.0000000000e+00 0.0000e+00 -1.0000e+00
       -2 -1    0    0    0  501 -0.0000000000e+00 -0.0000000000e+00 -2.4298182548e+03 2.4298182548e+03 0.0000000000e+00 0.0000e+00 1.0000e+00
      -13  1    1    2    0    0 +6.6937037168e+02 -1.9757471252e+03 -9.1421249482e+02 2.2775903677e+03 0.0000000000e+00 0.0000e+00 1.0000e+00
       13  1    1    2    0    0 -6.6937037168e+02 +1.9757471252e+03 +4.7065974645e+02 2.1384933935e+03 0.0000000000e+00 0.0000e+00 -1.0000e+00
<mgrwt>
<rscale>  0 0.43937520E+04</rscale>
<asrwt>0</asrwt>
<pdfrwt beam="1">  1        2 0.30557931E+00 0.43937520E+04</pdfrwt>
<pdfrwt beam="2">  1       -2 0.37381819E+00 0.43937520E+04</pdfrwt>
<totfact> 0.51200047E-02</totfact>
</mgrwt>
<rwgt>
<wgt id='morphing_basis_vector_1'> +2.3162252e-05 </wgt>
<wgt id='morphing_basis_vector_2'> +1.6270238e-05 </wgt>
<wgt id='morphing_basis_vector_3'> +2.5594760e-05 </wgt>
<wgt id='morphing_basis_vector_4'> +1.7653277e-05 </wgt>
<wgt id='morphing_basis_vector_5'> +2.8939617e-05 </wgt>
</rwgt>
</event>
<event>
 4      1 +4.5322000e-10 4.37324400e+03 7.81860800e-03 7.47752600e-02
        2 -1    0    0  501    0 +0.0000000000e+00 +0.0000000000e+00 +3.0752450133e+03 3.0752450133e+03 0.0000000000e+00 0.0000e+00 -1.0000e+00
       -2 -1    0    0    0  501 -0.0000000000e+00 -0.0000000000e+00 -1.5547752025e+03 1.5547752025e+03 0.0000000000e+00 0.0000e+00 1.0000e+00
      -13  1    1    2    0    0 +2.4422686364e+02 -2.1024301949e+03 +1.7894789302e+02 2.1241190724e+03 0.0000000000e+00 0.0000e+00 1.0000e+00
       13  1    1    2    0    0 -2.4422686364e+02 +2.1024301949e+03 +1.3415219178e+03 2.5059011435e+03 0.0000000000e+00 0.0000e+00 -1.0000e+00
<mgrwt>
<rscale>  0 0.43732435E+04</rscale>
<asrwt>0</asrwt>
<pdfrwt beam="1">  1        2 0.47311462E+00 0.43732435E+04</pdfrwt>
<pdfrwt beam="2">  1       -2 0.23919619E+00 0.43732435E+04</pdfrwt>
<totfact> 0.89747410E-02</totfact>
</mgrwt>
<rwgt>
<wgt id='morphing_basis_vector_1'> +2.2807797e-05 </wgt>
<wgt id='morphing_basis_vector_2'> +1.6184098e-05 </wgt>
<wgt id='morphing_basis_vector_3'> +2.5238291e-05 </wgt>
<wgt id='morphing_basis_vector_4'> +1.7169406e-05 </wgt>
<wgt id='morphing_basis_vector_5'> +2.8387906e-05 </wgt>
</rwgt>
</event>
<event>
 4      1 +4.5322000e-10 3.95367900e+03 7.81860800e-03 7.54905600e-02
        2 -1    0    0  501    0 +0.0000000000e+00 +0.0000000000e+00 +2.3506061227e+03 2.3506061227e+03 0.0000000000e+00 0.0000e+00 -1.0000e+00
       -2 -1    0    0    0  501 -0.0000000000e+00 -0.0000000000e+00 -1.6625045936e+03 1.6625045936e+03 0.0000000000e+00 0.0000e+00 1.0000e+00
      -13  1    1    2    0    0 -7.9496734341e+01 +1.4960189064e+03 -9.6510506419e+02 1.7820830743e+03 0.0000000000e+00 0.0000e+00 1.0000e+00
       13  1    1    2    0    0 +7.9496734341e+01 -1.4960189064e+03 +1.6532065933e+03 2.2310276420e+03 0.0000000000e+00 0.0000e+00 -1.0000e+00
<mgrwt>
<rscale>  0 0.39536785E+04</rscale>
<asrwt>0</asrwt>
<pdfrwt beam="1">  1        2 0.36163171E+00 0.39536785E+04</pdfrwt>
<pdfrwt beam="2">  1       -2 0.25576994E+00 0.39536785E+04</pdfrwt>
<totfact> 0.20044453E-01</totfact>
</mgrwt>
<rwgt>
<wgt id='morphing_basis_vector_1'> +1.5080462e-05 </wgt>
<wgt id='morphing_basis_vector_2'> +1.0277045e-05 </wgt>
<wgt id='morphing_basis_vector_3'> +1.6564109e-05 </wgt>
<wgt id='morphing_basis_vector_4'> +1.1839706e-05 </wgt>
<wgt id='morphing_basis_vector_5'> +1.8961261e-05 </wgt>
</rwgt>
</event>
<event>
 4      1 +4.5322000e-10 3.86576000e+03 7.81860800e-03 7.56519200e-02
        2 -1    0    0  501    0 +0.0000000000e+00 +0.0000000000e+00 +1.6013822284e+03 1.6013822284e+03 0.0000000000e+00 0.0000e+00 -1.0000e+00
       -2 -1    0    0    0  501 -0.0000000000e+00 -0.0000000000e+00 -2.3330000268e+03 2.3330000268e+03 0.0000000000e+00 0.0000e+00 1.0000e+00
      -13  1    1    2    0    0 +1.2491688471e+03 +1.1633340206e+03 -1.2886888048e+03 2.1388052009e+03 0.0000000000e+00 0.0000e+00 1.0000e+00
       13  1    1    2    0    0 -1.2491688471e+03 -1.1633340206e+03 +5.5707100635e+02 1.7955770543e+03 0.0000000000e+00 0.0000e+00 -1.0000e+00
<mgrwt>
<rscale>  0 0.38657598E+04</rscale>
<asrwt>0</asrwt>
<pdfrwt beam="1">  1        2 0.24636650E+00 0.38657598E+04</pdfrwt>
<pdfrwt beam="2">  1       -2 0.35892308E+00 0.38657598E+04</pdfrwt>
<totfact> 0.10907239E-01</totfact>
</mgrwt>
<rwgt>
<wgt id='morphing_basis_vector_1'> +1.3837404e-05 </wgt>
<wgt id='morphing_basis_vector_2'> +9.5347001e-06 </wgt>
<wgt id='morphing_basis_vector_3'> +1.5215828e-05 </wgt>
<wgt id='morphing_basis_vector_4'> +1.0715728e-05 </wgt>
<wgt id='morphing_basis_vector_5'> +1.7313645e-05 </wgt>
</rwgt>
</event>
<event>
 4      1 +4.5322000e-10 4.03836500e+03 7.81860800e-03 7.53391300e-02
        2 -1    0    0  501    0 +0.0000000000e+00 +0.0000000000e+00 +2.9164802504e+03 2.9164802504e+03 0.0000000000e+00 0.0000e+00 -1.0000e+00
       -2 -1    0    0    0  501 -0.0000000000e+00 -0.0000000000e+00 -1.3979513016e+03 1.3979513016e+03 0.0000000000e+00 0.0000e+00 1.0000e+00
      -13  1    1    2    0    0 +1.3176965327e+03 -1.2716839301e+02 -8.6962754211e+02 1.5839027794e+03 0.0000000000e+00 0.0000e+00 1.0000e+00
       13  1    1    2    0    0 -1.3176965327e+03 +1.2716839301e+02 +2.3881564909e+03 2.7305287726e+03 0.0000000000e+00 0.0000e+00 -1.0000e+00
<mgrwt>
<rscale>  0 0.40383647E+04</rscale>
<asrwt>0</asrwt>
<pdfrwt beam="1">  1        2 0.44868927E+00 0.40383647E+04</pdfrwt>
<pdfrwt beam="2">  1       -2 0.21506943E+00 0.40383647E+04</pdfrwt>
<totfact> 0.17299271E-01</totfact>
</mgrwt>
<rwgt>
<wgt id='morphing_basis_vector_1'> +1.6391048e-05 </wgt>
<wgt id='morphing_basis_vector_2'> +1.1135964e-05 </wgt>
<wgt id='morphing_basis_vector_3'> +1.8002648e-05 </wgt>
<wgt id='morphing_basis_vector_4'> +1.2927278e-05 </wgt>
<wgt id='morphing_basis_vector_5'> +2.0650380e-05 </wgt>
</rwgt>
</event>
<event>
 4      1 +4.5322000e-10 4.30141800e+03 7.81860800e-03 7.48917900e-02
        2 -1    0    0  501    0 +0.0000000000e+00 +0.0000000000e+00 +3.3251148854e+03 3.3251148854e+03 0.0000000000e+00 0.0000e+00 -1.0000e+00
       -2 -1    0    0    0  501 -0.0000000000e+00 -0.0000000000e+00 -1.3910943982e+03 1.3910943982e+03 0.0000000000e+00 0.0000e+00 1.0000e+00
      -13  1    1    2    0    0 -1.3868728873e+03 +1.4280342718e+03 +7.4343804689e+01 1.9920404836e+03 0.0000000000e+00 0.0000e+00 1.0000e+00
       13  1    1    2    0    0 +1.3868728873e+03 -1.4280342718e+03 +1.8596766825e+03 2.7241687999e+03 0.0000000000e+00 0.0000e+00 -1.0000e+00
<mgrwt>
<rscale>  0 0.43014178E+04</rscale>
<asrwt>0</asrwt>
<pdfrwt beam="1">  1        2 0.51155613E+00 0.43014178E+04</pdfrwt>
<pdfrwt beam="2">  1       -2 0.21401452E+00 0.43014178E+04</pdfrwt>
<totfact> 0.91786697E-02</totfact>
</mgrwt>
<rwgt>
<wgt id='morphing_basis_vector_1'> +2.1226577e-05 </wgt>
<wgt id='morphing_basis_vector_2'> +1.4779874e-05 </wgt>
<wgt id='morphing_basis_vector_3'> +2.3418544e-05 </wgt>
<wgt id='morphing_basis_vector_4'> +1.6330805e-05 </wgt>
<wgt id='morphing_basis_vector_5'> +2.6583223e-05 </wgt>
</rwgt>
</event>
<event>
 4      1 +4.5322000e-10 3.98458800e+03 7.81860800e-03 7.54348500e-02
        2 -1    0    0  501    0 +0.0000000000e+00 +0.0000000000e+00 +3.2385299564e+03 3.2385299564e+03 0.0000000000e+00 0.0000e+00 1.0000e+00
       -2 -1    0    0    0  501 -0.0000000000e+00 -0.0000000000e+00 -1.2256286841e+03 1.2256286841e+03 0.0000000000e+00 0.0000e+00 -1.0000e+00
      -13  1    1    2    0    0 +4.4593598351e+02 -1.7677521714e+03 +1.0637232171e+02 1.8262315603e+03 0.0000000000e+00 0.0000e+00 -1.0000e+00
       13  1    1    2    0    0 -4.4593598351e+02 +1.7677521714e+03 +1.9065289506e+03 2.6379270802e+03 0.0000000000e+00 0.0000e+00 1.0000e+00
<mgrwt>
<rscale>  0 0.39845879E+04</rscale>
<asrwt>0</asrwt>
<pdfrwt beam="1">  1        2 0.49823537E+00 0.39845879E+04</pdfrwt>
<pdfrwt beam="2">  1       -2 0.18855826E+00 0.39845879E+04</pdfrwt>
<totfact> 0.16583937E-01</totfact>
</mgrwt>
<rwgt>
<wgt id='morphing_basis_vector_1'> +1.5639595e-05 </wgt>
<wgt id='morphing_basis_vector_2'> +1.0849925e-05 </wgt>
<wgt id='morphing_basis_vector_3'> +1.7223582e-05 </wgt>
<wgt id='morphing_basis_vector_4'> +1.2037466e-05 </wgt>
<wgt id='morphing_basis_vector_5'> +1.9549382e-05 </wgt>
</rwgt>
</event>
<event>
 4      1 +4.5322000e-10 4.10925400e+03 7.81860800e-03 7.52152400e-02
        2 -1    0    0  501    0 +0.0000000000e+00 +0.0000000000e+00 +2.1087481097e+03 2.1087481097e+03 0.0000000000e+00 0.0000e+00 -1.0000e+00
       -2 -1    0    0    0  501 -0.0000000000e+00 -0.0000000000e+00 -2.0018944768e+03 2.0018944768e+03 0.0000000000e+00 0.0000e+00 1.0000e+00
      -13  1    1    2    0    0 -2.0384730921e+03 +1.8944186742e+02 -1.2050094526e+02 2.0508001478e+03 0.0000000000e+00 0.0000e+00 1.0000e+00
       13  1    1    2    0    0 +2.0384730921e+03 -1.8944186742e+02 +2.2735457811e+02 2.0598424388e+03 0.0000000000e+00 0.0000e+00 -1.0000e+00
<mgrwt>
<rscale>  0 0.41092536E+04</rscale>
<asrwt>0</asrwt>
<pdfrwt beam="1">  1        2 0.32442279E+00 0.41092536E+04</pdfrwt>
<pdfrwt beam="2">  1       -2 0.30798376E+00 0.41092536E+04</pdfrwt>
<totfact> 0.12043183E-01</totfact>
</mgrwt>
<rwgt>
<wgt id='morphing_basis_vector_1'> +1.8026047e-05 </wgt>
<wgt id='morphing_basis_vector_2'> +1.3287479e-05 </wgt>
<wgt id='morphing_basis_vector_3'> +2.0038396e-05 </wgt>
<wgt id='morphing_basis_vector_4'> +1.2890731e-05 </wgt>
<wgt id='morphing_basis_vector_5'> +2.2065226e-05 </wgt>
</rwgt>
</event>
<event>
 4      1 +4.5322000e-10 4.38571300e+03 7.81860800e-03 7.47552600e-02
        2 -1    0    0  501    0 +0.0000000000e+00 +0.0000000000e+00 +2.2072884259e+03 2.2072884259e+03 0.0000000000e+00 0.0000e+00 -1.0000e+00
       -2 -1    0    0    0  501 -0.0000000000e+00 -0.0000000000e+00 -2.1785188456e+03 2.1785188456e+03 0.0000000000e+00 0.0000e+00 1.0000e+00
      -13  1    1    2    0    0 +7.5347884013e+02 +4.0637315717e+02 -2.0045073104e+03 2.1796603091e+03 0.0000000000e+00 0.0000e+00 1.0000e+00
       13  1    1    2    0    0 -7.5347884013e+02 -4.0637315717e+02 +2.0332768908e+03 2.2061469624e+03 0.0000000000e+00 0.0000e+00 -1.0000e+00
<mgrwt>
<rscale>  0 0.43857129E+04</rscale>
<asrwt>0</asrwt>
<pdfrwt beam="1">  1        2 0.33958284E+00 0.43857129E+04</pdfrwt>
<pdfrwt beam="2">  1       -2 0.33515674E+00 0.43857129E+04</pdfrwt>
<totfact> 0.68318452E-02</totfact>
</mgrwt>
<rwgt>
<wgt id='morphing_basis_vector_1'> +2.2749212e-05 </wgt>
<wgt id='morphing_basis_vector_2'> +1.5432733e-05 </wgt>
<wgt id='morphing_basis_vector_3'> +2.5013263e-05 </wgt>
<wgt id='morphing_basis_vector_4'> +1.8043287e-05 </wgt>
<wgt id='morphing_basis_vector_5'> +2.8770930e-05 </wgt>
</rwgt>
</event>
<event>
 4      1 +4.5322000e-10 4.24582200e+03 7.81860800e-03 7.49835800e-02
        2 -1    0    0  501    0 +0.0000000000e+00 +0.0000000000e+00 +1.9934963035e+03 1.9934963035e+03 0.0000000000e+00 0.0000e+00 1.0000e+00
       -2 -1    0    0    0  501 -0.0000000000e+00 -0.0000000000e+00 -2.2607273759e+03 2.2607273759e+03 0.0000000000e+00 0.0000e+00 -1.0000e+00
      -13  1    1    2    0    0 -1.3451371169e+01 +4.3743092846e+02 -2.2150379597e+03 2.2578573736e+03 0.0000000000e+00 0.0000e+00 -1.0000e+00
       13  1    1    2    0    0 +1.3451371169e+01 -4.3743092846e+02 +1.9478068873e+03 1.9963663058e+03 0.0000000000e+00 0.0000e+00 1.0000e+00
<mgrwt>
<rscale>  0 0.42458223E+04</rscale>
<asrwt>0</asrwt>
<pdfrwt beam="1">  1        2 0.30669174E+00 0.42458223E+04</pdfrwt>
<pdfrwt beam="2">  1       -2 0.34780421E+00 0.42458223E+04</pdfrwt>
<totfact> 0.75493011E-02</totfact>
</mgrwt>
<rwgt>
<wgt id='morphing_basis_vector_1'> +1.9992766e-05 </wgt>
<wgt id='morphing_basis_vector_2'> +1.3555178e-05 </wgt>
<wgt id='morphing_basis_vector_3'> +2.1970118e-05 </wgt>
<wgt id='morphing_basis_vector_4'> +1.5843204e-05 </wgt>
<wgt id='morphing_basis_vector_5'> +2.5258305e-05 </wgt>
</rwgt>
</event>
<event>
 4      1 +4.5322000e-10 3.89242000e+03 7.81860800e-03 7.56025300e-02
        2 -1    0    0  501    0 +0.0000000000e+00 +0.0000000000e+00 +1.5941067251e+03 1.5941067251e+03 0.0000000000e+00 0.0000e+00 1.0000e+00
       -2 -1    0    0    0  501 -0.0000000000e+00 -0.0000000000e+00 -2.3760846031e+03 2.3760846031e+03 0.0000000000e+00 0.0000e+00 -1.0000e+00
      -13  1    1    2    0    0 -9.8942058630e+02 +2.5204494685e+02 -2.0809743552e+03 2.3179590201e+03 0.0000000000e+00 0.0000e+00 -1.0000e+00
       13  1    1    2    0    0 +9.8942058630e+02 -2.5204494685e+02 +1.2989964772e+03 1.6522323080e+03 0.0000000000e+00 0.0000e+00 1.0000e+00
<mgrwt>
<rscale>  0 0.38924195E+04</rscale>
<asrwt>0</asrwt>
<pdfrwt beam="1">  1        2 0.24524719E+00 0.38924195E+04</pdfrwt>
<pdfrwt beam="2">  1       -2 0.36555148E+00 0.38924195E+04</pdfrwt>
<totfact> 0.99598505E-02</totfact>
</mgrwt>
<rwgt>
<wgt id='morphing_basis_vector_1'> +1.4150332e-05 </wgt>
<wgt id='morphing_basis_vector_2'> +9.5922384e-06 </wgt>
<wgt id='morphing_basis_vector_3'> +1.5526697e-05 </wgt>
<wgt id='morphing_basis_vector_4'> +1.1165162e-05 </wgt>
<wgt id='morphing_basis_vector_5'> +1.7811212e-05 </wgt>
</rwgt>
</event>
<event>
 4      1 +4.5322000e-10 4.09489300e+03 7.81860800e-03 7.52401300e-02
        2 -1    0    0  501    0 +0.0000000000e+00 +0.0000000000e+00 +3.6956680512e+03 3.6956680512e+03 0.0000000000e+00 0.0000e+00 -1.0000e+00
       -2 -1    0    0    0  501 -0.0000000000e+00 -0.0000000000e+00 -1.1343111942e+03 1.1343111942e+03 0.0000000000e+00 0.0000e+00 1.0000e+00
      -13  1    1    2    0    0 +1.1768433116e+03 -5.0164893581e+02 -6.0485536403e+02 1.4150836888e+03 0.0000000000e+00 0.0000e+00 1.0000e+00
       13  1    1    2    0    0 -1.1768433116e+03 +5.0164893581e+02 +3.1662122209e+03 3.4148955566e+03 0.0000000000e+00 0.0000e+00 -1.0000e+00
<mgrwt>
<rscale>  0 0.40948932E+04</rscale>
<asrwt>0</asrwt>
<pdfrwt beam="1">  1        2 0.56856431E+00 0.40948932E+04</pdfrwt>
<pdfrwt beam="2">  1       -2 0.17450942E+00 0.40948932E+04</pdfrwt>
<totfact> 0.97599348E-02</totfact>
</mgrwt>
<rwgt>
<wgt id='morphing_basis_vector_1'> +1.7320441e-05 </wgt>
<wgt id='morphing_basis_vector_2'> +1.1762476e-05 </wgt>
<wgt id='morphing_basis_vector_3'> +1.9026777e-05 </wgt>
<wgt id='morphing_basis_vector_4'> +1.3676430e-05 </wgt>
<wgt id='morphing_basis_vector_5'> +2.1837496e-05 </wgt>
</rwgt>
</event>
<event>
 4      1 +4.5322000e-10 3.89008000e+03 7.81860800e-03 7.56068500e-02
        2 -1    0    0  501    0 +0.0000000000e+00 +0.0000000000e+00 +1.7104022372e+03 1.7104022372e+03 0.0000000000e+00 0.0000e+00 -1.0000e+00
       -2 -1    0    0    0  501 -0.0000000000e+00 -0.0000000000e+00 -2.2118658616e+03 2.2118658616e+03 0.0000000000e+00 0.0000e+00 1.0000e+00
      -13  1    1    2    0    0 +2.3900366475e+02 -1.8719681532e+03 -7.2557748069e+02 2.0218432676e+03 0.0000000000e+00 0.0000e+00 1.0000e+00
       13  1    1    2    0    0 -2.3900366475e+02 +1.8719681532e+03 +2.2411385634e+02 1.9004248312e+03 0.0000000000e+00 0.0000e+00 -1.0000e+00
<mgrwt>
<rscale>  0 0.38900799E+04</rscale>
<asrwt>0</asrwt>
<pdfrwt beam="1">  1        2 0.26313881E+00 0.38900799E+04</pdfrwt>
<pdfrwt beam="2">  1       -2 0.34028706E+00 0.38900799E+04</pdfrwt>
<totfact> 0.12510797E-01</totfact>
</mgrwt>
<rwgt>
<wgt id='morphing_basis_vector_1'> +1.4318860e-05 </wgt>
<wgt id='morphing_basis_vector_2'> +1.0164071e-05 </wgt>
<wgt id='morphing_basis_vector_3'> +1.5813465e-05 </wgt>
<wgt id='morphing_basis_vector_4'> +1.0710720e-05 </wgt>
<wgt id='morphing_basis_vector_5'> +1.7732623e-05 </wgt>
</rwgt>
</event>
<event>
 4      1 +4.5322000e-10 4.47391200e+03 7.81860800e-03 7.46156900e-02
        2 -1    0    0  501    0 +0.0000000000e+00 +0.0000000000e+00 +2.3653931267e+03 2.3653931267e+03 0.0000000000e+00 0.0000e+00 1.0000e+00
       -2 -1    0    0    0  501 -0.0000000000e+00 -0.0000000000e+00 -2.1154928080e+03 2.1154928080e+03 0.0000000000e+00 0.0000e+00 -1.0000e+00
      -13  1    1    2    0    0 -1.1761894871e+03 +1.7823970574e+03 -5.4212948197e+02 2.2032397407e+03 0.0000000000e+00 0.0000e+00 -1.0000e+00
       13  1    1    2    0    0 +1.1761894871e+03 -1.7823970574e+03 +7.9202980074e+02 2.2776461940e+03 0.0000000000e+00 0.0000e+00 1.0000e+00
<mgrwt>
<rscale>  0 0.44739120E+04</rscale>
<asrwt>0</asrwt>
<pdfrwt beam="1">  1        2 0.36390663E+00 0.44739120E+04</pdfrwt>
<pdfrwt beam="2">  1       -2 0.32546043E+00 0.44739120E+04</pdfrwt>
<totfact> 0.63664358E-02</totfact>
</mgrwt>
<rwgt>
<wgt id='morphing_basis_vector_1'> +2.4910582e-05 </wgt>
<wgt id='morphing_basis_vector_2'> +1.7543216e-05 </wgt>
<wgt id='morphing_basis_vector_3'> +2.7544270e-05 </wgt>
<wgt id='morphing_basis_vector_4'> +1.8942860e-05 </wgt>
<wgt id='morphing_basis_vector_5'> +3.1115760e-05 </wgt>
</rwgt>
</event>
<event>
 4      1 +4.5322000e-10 3.85513200e+03 7.81860800e-03 7.56717200e-02
        2 -1    0    0  501    0 +0.0000000000e+00 +0.0000000000e+00 +2.3883785439e+03 2.3883785439e+03 0.0000000000e+00 0.0000e+00 -1.0000e+00
       -2 -1    0    0    0  501 -0.0000000000e+00 -0.0000000000e+00 -1.5556623472e+03 1.5556623472e+03 0.0000000000e+00 0.0000e+00 1.0000e+00
      -13  1    1    2    0    0 -3.8783914896e+02 -8.6978824517e+02 -1.2981675976e+03 1.6100279216e+03 0.0000000000e+00 0.0000e+00 1.0000e+00
       13  1    1    2    0    0 +3.8783914896e+02 +8.6978824517e+02 +2.1308837943e+03 2.3340129694e+03 0.0000000000e+00 0.0000e+00 -1.0000e+00
<mgrwt>
<rscale>  0 0.38551319E+04</rscale>
<asrwt>0</asrwt>
<pdfrwt beam="1">  1        2 0.36744285E+00 0.38551319E+04</pdfrwt>
<pdfrwt beam="2">  1       -2 0.23933267E+00 0.38551319E+04</pdfrwt>
<totfact> 0.24957045E-01</totfact>
</mgrwt>
<rwgt>
<wgt id='morphing_basis_vector_1'> +1.3617853e-05 </wgt>
<wgt id='morphing_basis_vector_2'> +9.2281391e-06 </wgt>
<wgt id='morphing_basis_vector_3'> +1.4939057e-05 </wgt>
<wgt id='morphing_basis_vector_4'> +1.0743144e-05 </wgt>
<wgt id='morphing_basis_vector_5'> +1.7135123e-05 </wgt>
</rwgt>
</event>
<event>
 4      1 +4.5322000e-10 4.38517300e+03 7.81860800e-03 7.47561200e-02
        2 -1    0    0  501    0 +0.0000000000e+00 +0.0000000000e+00 +1.5288275064e+03 1.5288275064e+03 0.0000000000e+00 0.0000e+00 -1.0000e+00
       -2 -1    0    0    0  501 -0.0000000000e+00 -0.0000000000e+00 -3.1445248288e+03 3.1445248288e+03 0.0000000000e+00 0.0000e+00 1.0000e+00
      -13  1    1    2    0    0 -8.7047455968e+02 +1.9008832919e+03 -1.5118292054e+03 2.5800602308e+03 0.0000000000e+00 0.0000e+00 1.0000e+00
       13  1    1    2    0    0 +8.7047455968e+02 -1.9008832919e+03 -1.0386811692e+02 2.0932921044e+03 0.0000000000e+00 0.0000e+00 -1.0000e+00
<mgrwt>
<rscale>  0 0.43851732E+04</rscale>
<asrwt>0</asrwt>
<pdfrwt beam="1">  1        2 0.23520423E+00 0.43851732E+04</pdfrwt>
<pdfrwt beam="2">  1       -2 0.48377305E+00 0.43851732E+04</pdfrwt>
<totfact> 0.16430192E-02</totfact>
</mgrwt>
<rwgt>
<wgt id='morphing_basis_vector_1'> +2.2995997e-05 </wgt>
<wgt id='morphing_basis_vector_2'> +1.6182988e-05 </wgt>
<wgt id='morphing_basis_vector_3'> +2.5417008e-05 </wgt>
<wgt id='morphing_basis_vector_4'> +1.7486930e-05 </wgt>
<wgt id='morphing_basis_vector_5'> +2.8710971e-05 </wgt>
</rwgt>
</event>
<event>
 4      1 +4.5322000e-10 4.09892700e+03 7.81860800e-03 7.52331300e-02
        2 -1    0    0  501    0 +0.0000000000e+00 +0.0000000000e+00 +2.5058015995e+03 2.5058015995e+03 0.0000000000e+00 0.0000e+00 1.0000e+00
       -2 -1    0    0    0  501 -0.0000000000e+00 -0.0000000000e+00 -1.6762301311e+03 1.6762301311e+03 0.0000000000e+00 0.0000e+00 -1.0000e+00
      -13  1    1    2    0    0 +6.2606588643e+02 -1.6779509934e+03 -6.0182077537e+02 1.8893560480e+03 0.0000000000e+00 0.0000e+00 -1.0000e+00
       13  1    1    2    0    0 -6.2606588643e+02 +1.6779509934e+03 +1.4313922437e+03 2.2926756826e+03 0.0000000000e+00 0.0000e+00 1.0000e+00
<mgrwt>
<rscale>  0 0.40989268E+04</rscale>
<asrwt>0</asrwt>
<pdfrwt beam="1">  1        2 0.38550794E+00 0.40989268E+04</pdfrwt>
<pdfrwt beam="2">  1       -2 0.25788156E+00 0.40989268E+04</pdfrwt>
<totfact> 0.15512795E-01</totfact>
</mgrwt>
<rwgt>
<wgt id='morphing_basis_vector_1'> +1.7461433e-05 </wgt>
<wgt id='morphing_basis_vector_2'> +1.2023296e-05 </wgt>
<wgt id='morphing_basis_vector_3'> +1.9219105e-05 </wgt>
<wgt id='morphing_basis_vector_4'> +1.3576124e-05 </wgt>
<wgt id='morphing_basis_vector_5'> +2.1911188e-05 </wgt>
</rwgt>
</event>
<event>
 4      1 +4.5322000e-10 4.50428400e+03 7.81860800e-03 7.45683800e-02
        2 -1    0    0  501    0 +0.0000000000e+00 +0.0000000000e+00 +2.3030171509e+03 2.3030171509e+03 0.0000000000e+00 0.0000e+00 1.0000e+00
       -2 -1    0    0    0  501 -0.0000000000e+00 -0.0000000000e+00 -2.2023905869e+03 2.2023905869e+03 0.0000000000e+00 0.0000e+00 -1.0000e+00
      -13  1    1    2    0    0 +1.1712372148e+03 +1.1911904637e+03 -1.4604979494e+03 2.2189604761e+03 0.0000000000e+00 0.0000e+00 -1.0000e+00
       13  1    1    2    0    0 -1.1712372148e+03 -1.1911904637e+03 +1.5611245134e+03 2.2864472617e+03 0.0000000000e+00 0.0000e+00 1.0000e+00
<mgrwt>
<rscale>  0 0.45042839E+04</rscale>
<asrwt>0</asrwt>
<pdfrwt beam="1">  1        2 0.35431033E+00 0.45042839E+04</pdfrwt>
<pdfrwt beam="2">  1       -2 0.33882932E+00 0.45042839E+04</pdfrwt>
<totfact> 0.56381594E-02</totfact>
</mgrwt>
<rwgt>
<wgt id='morphing_basis_vector_1'> +2.5337956e-05 </wgt>
<wgt id='morphing_basis_vector_2'> +1.7279869e-05 </wgt>
<wgt id='morphing_basis_vector_3'> +2.7890861e-05 </wgt>
<wgt id='morphing_basis_vector_4'> +2.0002320e-05 </wgt>
<wgt id='morphing_basis_vector_5'> +3.2017706e-05 </wgt>
</rwgt>
</event>
<event>
 4      1 +4.5322000e-10 4.37312300e+03 7.81860800e-03 7.47754500e-02
        2 -1    0    0  501    0 +0.0000000000e+00 +0.0000000000e+00 +3.4146838218e+03 3.4146838218e+03 0.0000000000e+00 0.0000e+00 -1.0000e+00
       -2 -1    0    0    0  501 -0.0000000000e+00 -0.0000000000e+00 -1.4001443638e+03 1.4001443638e+03 0.0000000000e+00 0.0000e+00 1.0000e+00
      -13  1    1    2    0    0 +1.7822623577e+03 +6.5240540425e+02 -1.8819943802e+02 1.9072259833e+03 0.0000000000e+00 0.0000e+00 1.0000e+00
       13  1    1    2    0    0 -1.7822623577e+03 -6.5240540425e+02 +2.2027388960e+03 2.9076022023e+03 0.0000000000e+00 0.0000e+00 -1.0000e+00
<mgrwt>
<rscale>  0 0.43731226E+04</rscale>
<asrwt>0</asrwt>
<pdfrwt beam="1">  1        2 0.52533597E+00 0.43731226E+04</pdfrwt>
<pdfrwt beam="2">  1       -2 0.21540683E+00 0.43731226E+04</pdfrwt>
<totfact> 0.77068099E-02</totfact>
</mgrwt>
<rwgt>
<wgt id='morphing_basis_vector_1'> +2.2591301e-05 </wgt>
<wgt id='morphing_basis_vector_2'> +1.5553593e-05 </wgt>
<wgt id='morphing_basis_vector_3'> +2.4890388e-05 </wgt>
<wgt id='morphing_basis_vector_4'> +1.7621623e-05 </wgt>
<wgt id='morphing_basis_vector_5'> +2.8422695e-05 </wgt>
</rwgt>
</event>
<event>
 4      1 +4.5322000e-10 4.36123800e+03 7.81860800e-03 7.47945800e-02
        2 -1    0    0  501    0 +0.0000000000e+00 +0.0000000000e+00 +3.3513608946e+03 3.3513608946e+03 0.0000000000e+00 0.0000e+00 1.0000e+00
       -2 -1    0    0    0  501 -0.0000000000e+00 -0.0000000000e+00 -1.4188560865e+03 1.4188560865e+03 0.0000000000e+00 0.0000e+00 -1.0000e+00
      -13  1    1    2    0    0 -1.1424757358e+03 +6.0356654303e+02 -9.5504697192e+02 1.6067539006e+03 0.0000000000e+00 0.0000e+00 -1.0000e+00
       13  1    1    2    0    0 +1.1424757358e+03 -6.0356654303e+02 +2.8875517800e+03 3.1634630804e+03 0.0000000000e+00 0.0000e+00 1.0000e+00
<mgrwt>
<rscale>  0 0.43612378E+04</rscale>
<asrwt>0</asrwt>
<pdfrwt beam="1">  1        2 0.51559398E+00 0.43612378E+04</pdfrwt>
<pdfrwt beam="2">  1       -2 0.21828555E+00 0.43612378E+04</pdfrwt>
<totfact> 0.81626033E-02</totfact>
</mgrwt>
<rwgt>
<wgt id='morphing_basis_vector_1'> +2.2256739e-05 </wgt>
<wgt id='morphing_basis_vector_2'> +1.5118053e-05 </wgt>
<wgt id='morphing_basis_vector_3'> +2.4474193e-05 </wgt>
<wgt id='morphing_basis_vector_4'> +1.7623226e-05 </wgt>
<wgt id='morphing_basis_vector_5'> +2.8129841e-05 </wgt>
</rwgt>
</event>
<event>
 4      1 +4.5322000e-10 4.57068400e+03 7.81860800e-03 7.44662600e-02
        2 -1    0    0  501    0 +0.0000000000e+00 +0.0000000000e+00 +3.2860598296e+03 3.2860598296e+03 0.0000000000e+00 0.0000e+00 1.0000e+00
       -2 -1    0    0    0  501 -0.0000000000e+00 -0.0000000000e+00 -1.5893767278e+03 1.5893767278e+03 0.0000000000e+00 0.0000e+00 -1.0000e+00
      -13  1    1    2    0    0 -2.0484100846e+03 -9.5601822948e+02 +4.9003969626e+02 2.3130269418e+03 0.0000000000e+00 0.0000e+00 -1.0000e+00
       13  1    1    2    0    0 +2.0484100846e+03 +9.5601822948e+02 +1.2066434055e+03 2.5624096155e+03 0.0000000000e+00 0.0000e+00 1.0000e+00
<mgrwt>
<rscale>  0 0.45706835E+04</rscale>
<asrwt>0</asrwt>
<pdfrwt beam="1">  1        2 0.50554766E+00 0.45706835E+04</pdfrwt>
<pdfrwt beam="2">  1       -2 0.24451950E+00 0.45706835E+04</pdfrwt>
<totfact> 0.58384859E-02</totfact>
</mgrwt>
<rwgt>
<wgt id='morphing_basis_vector_1'> +2.7387860e-05 </wgt>
<wgt id='morphing_basis_vector_2'> +1.9873068e-05 </wgt>
<wgt id='morphing_basis_vector_3'> +3.0426411e-05 </wgt>
<wgt id='morphing_basis_vector_4'> +2.0089072e-05 </wgt>
<wgt id='morphing_basis_vector_5'> +3.3861471e-05 </wgt>
</rwgt>
</event>
<event>
 4      1 +4.5322000e-10 4.57251800e+03 7.81860800e-03 7.44634600e-02
        2 -1    0    0  501    0 +0.0000000000e+00 +0.0000000000e+00 +2.4877591358e+03 2.4877591358e+03 0.0000000000e+00 0.0000e+00 1.0000e+00
       -2 -1    0    0    0  501 -0.0000000000e+00 -0.0000000000e+00 -2.1010800858e+03 2.1010800858e+03 0.0000000000e+00 0.0000e+00 -1.0000e+00
      -13  1    1    2    0    0 -7.6876714942e+02 -2.0441618824e+03 -4.8537348682e+02 2.2372277830e+03 0.0000000000e+00 0.0000e+00 -1.0000e+00
       13  1    1    2    0    0 +7.6876714942e+02 +2.0441618824e+03 +8.7205253679e+02 2.3516114386e+03 0.0000000000e+00 0.0000e+00 1.0000e+00
<mgrwt>
<rscale>  0 0.45725184E+04</rscale>
<asrwt>0</asrwt>
<pdfrwt beam="1">  1        2 0.38273218E+00 0.45725184E+04</pdfrwt>
<pdfrwt beam="2">  1       -2 0.32324309E+00 0.45725184E+04</pdfrwt>
<totfact> 0.55329079E-02</totfact>
</mgrwt>
<rwgt>
<wgt id='morphing_basis_vector_1'> +2.7173486e-05 </wgt>
<wgt id='morphing_basis_vector_2'> +1.9146430e-05 </wgt>
<wgt id='morphing_basis_vector_3'> +3.0057927e-05 </wgt>
<wgt id='morphing_basis_vector_4'> +2.0670233e-05 </wgt>
<wgt id='morphing_basis_vector_5'> +3.3961988e-05 </wgt>
</rwgt>
</event>
<event>
 4      1 +4.5322000e-10 4.12714600e+03 7.81860800e-03 7.51843700e-02
        2 -1    0    0  501    0 +0.0000000000e+00 +0.0000000000e+00 +2.3144772595e+03 2.3144772595e+03 0.0000000000e+00 0.0000e+00 -1.0000e+00
       -2 -1    0    0    0  501 -0.0000000000e+00 -0.0000000000e+00 -1.8398679412e+03 1.8398679412e+03 0.0000000000e+00 0.0000e+00 1.0000e+00
      -13  1    1    2    0    0 -2.4805710635e+02 +1.0536820760e+03 -1.5311330157e+03 1.8751390767e+03 0.0000000000e+00 0.0000e+00 1.0000e+00
       13  1    1    2    0    0 +2.4805710635e+02 -1.0536820760e+03 +2.0057423340e+03 2.2792061240e+03 0.0000000000e+00 0.0000e+00 -1.0000e+00
<mgrwt>
<rscale>  0 0.41271455E+04</rscale>
<asrwt>0</asrwt>
<pdfrwt beam="1">  1        2 0.35607342E+00 0.41271455E+04</pdfrwt>
<pdfrwt beam="2">  1       -2 0.28305661E+00 0.41271455E+04</pdfrwt>
<totfact> 0.13499750E-01</totfact>
</mgrwt>
<rwgt>
<wgt id='morphing_basis_vector_1'> +1.7863540e-05 </wgt>
<wgt id='morphing_basis_vector_2'> +1.2118091e-05 </wgt>
<wgt id='morphing_basis_vector_3'> +1.9622944e-05 </wgt>
<wgt id='morphing_basis_vector_4'> +1.4127877e-05 </wgt>
<wgt id='morphing_basis_vector_5'> +2.2538096e-05 </wgt>
</rwgt>
</event>
<event>
 4      1 +4.5322000e-10 3.85985800e+03 7.81860800e-03 7.56629100e-02
        2 -1    0    0  501    0 +0.0000000000e+00 +0.0000000000e+00 +2.9124157606e+03 2.9124157606e+03 0.0000000000e+00 0.0000e+00 1.0000e+00
       -2 -1    0    0    0  501 -0.0000000000e+00 -0.0000000000e+00 -1.2788788254e+03 1.2788788254e+03 0.0000000000e+00 0.0000e+00 -1.0000e+00
      -13  1    1    2    0    0 -9.0828741210e+02 -7.3758544693e+02 -8.4981997373e+02 1.4461024522e+03 0.0000000000e+00 0.0000e+00 -1.0000e+00
       13  1    1    2    0    0 +9.0828741210e+02 +7.3758544693e+02 +2.4833569089e+03 2.7451921338e+03 0.0000000000e+00 0.0000e+00 1.0000e+00
<mgrwt>
<rscale>  0 0.38598585E+04</rscale>
<asrwt>0</asrwt>
<pdfrwt beam="1">  1        2 0.44806396E+00 0.38598585E+04</pdfrwt>
<pdfrwt beam="2">  1       -2 0.19675059E+00 0.38598585E+04</pdfrwt>
<totfact> 0.23959339E-01</totfact>
</mgrwt>
<rwgt>
<wgt id='morphing_basis_vector_1'> +1.3688921e-05 </wgt>
<wgt id='morphing_basis_vector_2'> +9.2866986e-06 </wgt>
<wgt id='morphing_basis_vector_3'> +1.5019680e-05 </wgt>
<wgt id='morphing_basis_vector_4'> +1.0786634e-05 </wgt>
<wgt id='morphing_basis_vector_5'> +1.7218966e-05 </wgt>
</rwgt>
</event>
<event>
 4      1 +4.5322000e-10 4.00311300e+03 7.81860800e-03 7.54017000e-02
        2 -1    0    0  501    0 +0.0000000000e+00 +0.0000000000e+00 +2.9936885521e+03 2.9936885521e+03 0.0000000000e+00 0.0000e+00 1.0000e+00
       -2 -1    0    0    0  501 -0.0000000000e+00 -0.0000000000e+00 -1.3382251682e+03 1.3382251682e+03 0.0000000000e+00 0.0000e+00 -1.0000e+00
      -13  1    1    2    0    0 -8.6805353824e+02 -7.2302583189e+02 -9.6023297013e+02 1.4826768548e+03 0.0000000000e+00 0.0000e+00 -1.0000e+00
       13  1    1    2    0    0 +8.6805353824e+02 +7.2302583189e+02 +2.6156963541e+03 2.8492368655e+03 0.0000000000e+00 0.0000e+00 1.0000e+00
<mgrwt>
<rscale>  0 0.40031135E+04</rscale>
<asrwt>0</asrwt>
<pdfrwt beam="1">  1        2 0.46056747E+00 0.40031135E+04</pdfrwt>
<pdfrwt beam="2">  1       -2 0.20588080E+00 0.40031135E+04</pdfrwt>
<totfact> 0.18007545E-01</totfact>
</mgrwt>
<rwgt>
<wgt id='morphing_basis_vector_1'> +1.5822347e-05 </wgt>
<wgt id='morphing_basis_vector_2'> +1.0733408e-05 </wgt>
<wgt id='morphing_basis_vector_3'> +1.7371775e-05 </wgt>
<wgt id='morphing_basis_vector_4'> +1.2493753e-05 </wgt>
<wgt id='morphing_basis_vector_5'> +1.9936468e-05 </wgt>
</rwgt>
</event>
<event>
 4      1 +4.5322000e-10 4.42830400e+03 7.81860800e-03 7.46874500e-02
        2 -1    0    0  501    0 +0.0000000000e+00 +0.0000000000e+00 +2.9721566193e+03 2.9721566193e+03 0.0000000000e+00 0.0000e+00 1.0000e+00
       -2 -1    0    0    0  501 -0.0000000000e+00 -0.0000000000e+00 -1.6494652448e+03 1.6494652448e+03 0.0000000000e+00 0.0000e+00 -1.0000e+00
      -13  1    1    2    0    0 -1.4724131529e+03 -9.7539534846e+02 -7.3226503902e+02 1.9119646089e+03 0.0000000000e+00 0.0000e+00 -1.0000e+00
       13  1    1    2    0    0 +1.4724131529e+03 +9.7539534846e+02 +2.0549564136e+03 2.7096572551e+03 0.0000000000e+00 0.0000e+00 1.0000e+00
<mgrwt>
<rscale>  0 0.44283040E+04</rscale>
<asrwt>0</asrwt>
<pdfrwt beam="1">  1        2 0.45725486E+00 0.44283040E+04</pdfrwt>
<pdfrwt beam="2">  1       -2 0.25376388E+00 0.44283040E+04</pdfrwt>
<totfact> 0.82740661E-02</totfact>
</mgrwt>
<rwgt>
<wgt id='morphing_basis_vector_1'> +2.3699156e-05 </wgt>
<wgt id='morphing_basis_vector_2'> +1.6207889e-05 </wgt>
<wgt id='morphing_basis_vector_3'> +2.6091102e-05 </wgt>
<wgt id='morphing_basis_vector_4'> +1.8636014e-05 </wgt>
<wgt id='morphing_basis_vector_5'> +2.9899514e-05 </wgt>
</rwgt>
</event>
<event>
 4      1 +4.5322000e-10 3.95963300e+03 7.81860800e-03 7.54797900e-02
        2 -1    0    0  501    0 +0.0000000000e+00 +0.0000000000e+00 +2.3971863246e+03 2.3971863246e+03 0.0000000000e+00 0.0000e+00 -1.0000e+00
       -2 -1    0    0    0  501 -0.0000000000e+00 -0.0000000000e+00 -1.6351145143e+03 1.6351145143e+03 0.0000000000e+00 0.0000e+00 1.0000e+00
      -13  1    1    2    0    0 +1.4088493757e+03 +1.2341644415e+03 +1.0344146851e+03 2.1396336539e+03 0.0000000000e+00 0.0000e+00 1.0000e+00
       13  1    1    2    0    0 -1.4088493757e+03 -1.2341644415e+03 -2.7234287477e+02 1.8926671851e+03 0.0000000000e+00 0.0000e+00 -1.0000e+00
<mgrwt>
<rscale>  0 0.39596334E+04</rscale>
<asrwt>0</asrwt>
<pdfrwt beam="1">  1        2 0.36879789E+00 0.39596334E+04</pdfrwt>
<pdfrwt beam="2">  1       -2 0.25155608E+00 0.39596334E+04</pdfrwt>
<totfact> 0.20117145E-01</totfact>
</mgrwt>
<rwgt>
<wgt id='morphing_basis_vector_1'> +1.6811824e-05 </wgt>
<wgt id='morphing_basis_vector_2'> +1.5162092e-05 </wgt>
<wgt id='morphing_basis_vector_3'> +1.9294976e-05 </wgt>
<wgt id='morphing_basis_vector_4'> +8.4424023e-06 </wgt>
<wgt id='morphing_basis_vector_5'> +1.8787415e-05 </wgt>
</rwgt>
</event>
<event>
 4      1 +4.5322000e-10 4.29824400e+03 7.81860800e-03 7.48969900e-02
        2 -1    0    0  501    0 +0.0000000000e+00 +0.0000000000e+00 +2.8623510655e+03 2.8623510655e+03 0.0000000000e+00 0.0000e+00 -1.0000e+00
       -2 -1    0    0    0  501 -0.0000000000e+00 -0.0000000000e+00 -1.6136124586e+03 1.6136124586e+03 0.0000000000e+00 0.0000e+00 1.0000e+00
      -13  1    1    2    0    0 -1.3297746375e+03 +6.9376521441e+01 -1.1322728080e+03 1.7479002832e+03 0.0000000000e+00 0.0000e+00 1.0000e+00
       13  1    1    2    0    0 +1.3297746375e+03 -6.9376521441e+01 +2.3810114150e+03 2.7280632409e+03 0.0000000000e+00 0.0000e+00 -1.0000e+00
<mgrwt>
<rscale>  0 0.42982440E+04</rscale>
<asrwt>0</asrwt>
<pdfrwt beam="1">  1        2 0.44036170E+00 0.42982440E+04</pdfrwt>
<pdfrwt beam="2">  1       -2 0.24824807E+00 0.42982440E+04</pdfrwt>
<totfact> 0.10734534E-01</totfact>
</mgrwt>
<rwgt>
<wgt id='morphing_basis_vector_1'> +2.1006272e-05 </wgt>
<wgt id='morphing_basis_vector_2'> +1.4272108e-05 </wgt>
<wgt id='morphing_basis_vector_3'> +2.3094926e-05 </wgt>
<wgt id='morphing_basis_vector_4'> +1.6617579e-05 </wgt>
<wgt id='morphing_basis_vector_5'> +2.6532502e-05 </wgt>
</rwgt>
</event>
<event>
 4      1 +4.5322000e-10 4.59974800e+03 7.81860800e-03 7.44221000e-02
        2 -1    0    0  501    0 +0.0000000000e+00 +0.0000000000e+00 +3.1131373772e+03 3.1131373772e+03 0.0000000000e+00 0.0000e+00 -1.0000e+00
       -2 -1    0    0    0  501 -0.0000000000e+00 -0.0000000000e+00 -1.6990643483e+03 1.6990643483e+03 0.0000000000e+00 0.0000e+00 1.0000e+00
      -13  1    1    2    0    0 +3.0475748929e+02 +5.4808837696e+02 -1.6078878579e+03 1.7258567031e+03 0.0000000000e+00 0.0000e+00 1.0000e+00
       13  1    1    2    0    0 -3.0475748929e+02 -5.4808837696e+02 +3.0219608867e+03 3.0863450224e+03 0.0000000000e+00 0.0000e+00 -1.0000e+00
<mgrwt>
<rscale>  0 0.45997481E+04</rscale>
<asrwt>0</asrwt>
<pdfrwt beam="1">  1        2 0.47894421E+00 0.45997481E+04</pdfrwt>
<pdfrwt beam="2">  1       -2 0.26139452E+00 0.45997481E+04</pdfrwt>
<totfact> 0.58423964E-02</totfact>
</mgrwt>
<rwgt>
<wgt id='morphing_basis_vector_1'> +2.7503064e-05 </wgt>
<wgt id='morphing_basis_vector_2'> +1.8663063e-05 </wgt>
<wgt id='morphing_basis_vector_3'> +3.0261343e-05 </wgt>
<wgt id='morphing_basis_vector_4'> +2.1851061e-05 </wgt>
<wgt id='morphing_basis_vector_5'> +3.4838411e-05 </wgt>
</rwgt>
</event>
<event>
 4      1 +4.5322000e-10 4.19449000e+03 7.81860800e-03 7.50696000e-02
        2 -1    0    0  501    0 +0.0000000000e+00 +0.0000000000e+00 +2.5994814167e+03 2.5994814167e+03 0.0000000000e+00 0.0000e+00 -1.0000e+00
       -2 -1    0    0    0  501 -0.0000000000e+00 -0.0000000000e+00 -1.6920435743e+03 1.6920435743e+03 0.0000000000e+00 0.0000e+00 1.0000e+00
      -13  1    1    2    0    0 -7.6985921399e+02 +6.8415166613e+02 -1.4154797407e+03 1.7505226671e+03 0.0000000000e+00 0.0000e+00 1.0000e+00
       13  1    1    2    0    0 +7.6985921399e+02 -6.8415166613e+02 +2.3229175831e+03 2.5410023238e+03 0.0000000000e+00 0.0000e+00 -1.0000e+00
<mgrwt>
<rscale>  0 0.41944896E+04</rscale>
<asrwt>0</asrwt>
<pdfrwt beam="1">  1        2 0.39992022E+00 0.41944896E+04</pdfrwt>
<pdfrwt beam="2">  1       -2 0.26031440E+00 0.41944896E+04</pdfrwt>
<totfact> 0.13008828E-01</totfact>
</mgrwt>
<rwgt>
<wgt id='morphing_basis_vector_1'> +1.9051164e-05 </wgt>
<wgt id='morphing_basis_vector_2'> +1.2923149e-05 </wgt>
<wgt id='morphing_basis_vector_3'> +2.0932853e-05 </wgt>
<wgt id='morphing_basis_vector_4'> +1.5079982e-05 </wgt>
<wgt id='morphing_basis_vector_5'> +2.4052919e-05 </wgt>
</rwgt>
</event>
<event>
 4      1 +4.5322000e-10 3.94289700e+03 7.81860800e-03 7.55101200e-02
        2 -1    0    0  501    0 +0.0000000000e+00 +0.0000000000e+00 +1.9794634900e+03 1.9794634900e+03 0.0000000000e+00 0.0000e+00 1.0000e+00
       -2 -1    0    0    0  501 -0.0000000000e+00 -0.0000000000e+00 -1.9634658493e+03 1.9634658493e+03 0.0000000000e+00 0.0000e+00 -1.0000e+00
      -13  1    1    2    0    0 -6.5875335984e+02 -9.9755699447e+02 -1.5596661541e+03 1.9651041852e+03 0.0000000000e+00 0.0000e+00 -1.0000e+00
       13  1    1    2    0    0 +6.5875335984e+02 +9.9755699447e+02 +1.5756637948e+03 1.9778251542e+03 0.0000000000e+00 0.0000e+00 1.0000e+00
<mgrwt>
<rscale>  0 0.39428969E+04</rscale>
<asrwt>0</asrwt>
<pdfrwt beam="1">  1        2 0.30453284E+00 0.39428969E+04</pdfrwt>
<pdfrwt beam="2">  1       -2 0.30207167E+00 0.39428969E+04</pdfrwt>
<totfact> 0.15820362E-01</totfact>
</mgrwt>
<rwgt>
<wgt id='morphing_basis_vector_1'> +1.4898631e-05 </wgt>
<wgt id='morphing_basis_vector_2'> +1.0110186e-05 </wgt>
<wgt id='morphing_basis_vector_3'> +1.6353989e-05 </wgt>
<wgt id='morphing_basis_vector_4'> +1.1750326e-05 </wgt>
<wgt id='morphing_basis_vector_5'> +1.8757554e-05 </wgt>
</rwgt>
</event>
<event>
 4      1 +4.5322000e-10 3.93111700e+03 7.81860800e-03 7.55315600e-02
        2 -1    0    0  501    0 +0.0000000000e+00 +0.0000000000e+00 +3.5508989664e+03 3.5508989664e+03 0.0000000000e+00 0.0000e+00 -1.0000e+00
       -2 -1    0    0    0  501 -0.0000000000e+00 -0.0000000000e+00 -1.0880117587e+03 1.0880117587e+03 0.0000000000e+00 0.0000e+00 1.0000e+00
      -13  1    1    2    0    0 -1.4116391525e+03 -1.1686712735e+02 +2.8395334978e+03 3.1732213140e+03 0.0000000000e+00 0.0000e+00 1.0000e+00
       13  1    1    2    0    0 +1.4116391525e+03 +1.1686712735e+02 -3.7664629008e+02 1.4656894112e+03 0.0000000000e+00 0.0000e+00 -1.0000e+00
<mgrwt>
<rscale>  0 0.39311168E+04</rscale>
<asrwt>0</asrwt>
<pdfrwt beam="1">  1        2 0.54629214E+00 0.39311168E+04</pdfrwt>
<pdfrwt beam="2">  1       -2 0.16738643E+00 0.39311168E+04</pdfrwt>
<totfact> 0.14472465E-01</totfact>
</mgrwt>
<rwgt>
<wgt id='morphing_basis_vector_1'> +1.8918840e-05 </wgt>
<wgt id='morphing_basis_vector_2'> +2.2326441e-05 </wgt>
<wgt id='morphing_basis_vector_3'> +2.2885175e-05 </wgt>
<wgt id='morphing_basis_vector_4'> +2.7396634e-06 </wgt>
<wgt id='morphing_basis_vector_5'> +1.7794708e-05 </wgt>
</rwgt>
</event>
<event>
 4      1 +4.5322000e-10 4.02078100e+03 7.81860800e-03 7.53702600e-02
        2 -1    0    0  501    0 +0.0000000000e+00 +0.0000000000e+00 +1.1062858737e+03 1.1062858737e+03 0.0000000000e+00 0.0000e+00 1.0000e+00
       -2 -1    0    0    0  501 -0.0000000000e+00 -0.0000000000e+00 -3.6533690076e+03 3.6533690076e+03 0.0000000000e+00 0.0000e+00 -1.0000e+00
      -13  1    1    2    0    0 -1.2545151640e+03 +1.4956679895e+03 -7.0479332139e+02 2.0754673347e+03 0.0000000000e+00 0.0000e+00 -1.0000e+00
       13  1    1    2    0    0 +1.2545151640e+03 -1.4956679895e+03 -1.8422898125e+03 2.6841875465e+03 0.0000000000e+00 0.0000e+00 1.0000e+00
<mgrwt>
<rscale>  0 0.40207813E+04</rscale>
<asrwt>0</asrwt>
<pdfrwt beam="1">  1        2 0.17019782E+00 0.40207813E+04</pdfrwt>
<pdfrwt beam="2">  1       -2 0.56205678E+00 0.40207813E+04</pdfrwt>
<totfact> 0.78354494E-03</totfact>
</mgrwt>
<rwgt>
<wgt id='morphing_basis_vector_1'> +1.7444640e-05 </wgt>
<wgt id='morphing_basis_vector_2'> +1.4869937e-05 </wgt>
<wgt id='morphing_basis_vector_3'> +1.9835185e-05 </wgt>
<wgt id='morphing_basis_vector_4'> +9.8764851e-06 </wgt>
<wgt id='morphing_basis_vector_5'> +2.0055846e-05 </wgt>
</rwgt>
</event>
<event>
 4      1 +4.5322000e-10 4.23283600e+03 7.81860800e-03 7.50052200e-02
        2 -1    0    0  501    0 +0.0000000000e+00 +0.0000000000e+00 +3.0054966734e+03 3.0054966734e+03 0.0000000000e+00 0.0000e+00 -1.0000e+00
       -2 -1    0    0    0  501 -0.0000000000e+00 -0.0000000000e+00 -1.4903445546e+03 1.4903445546e+03 0.0000000000e+00 0.0000e+00 1.0000e+00
      -13  1    1    2    0    0 +9.8639256048e+01 -5.2275446454e+02 +2.9333251771e+03 2.9811740183e+03 0.0000000000e+00 0.0000e+00 -1.0000e+00
       13  1    1    2    0    0 -9.8639256048e+01 +5.2275446454e+02 -1.4181730582e+03 1.5146672097e+03 0.0000000000e+00 0.0000e+00 1.0000e+00
<mgrwt>
<rscale>  0 0.42328362E+04</rscale>
<asrwt>0</asrwt>
<pdfrwt beam="1">  1        2 0.46238410E+00 0.42328362E+04</pdfrwt>
<pdfrwt beam="2">  1       -2 0.22928378E+00 0.42328362E+04</pdfrwt>
<totfact> 0.11831947E-01</totfact>
</mgrwt>
<rwgt>
<wgt id='morphing_basis_vector_1'> +2.7058362e-05 </wgt>
<wgt id='morphing_basis_vector_2'> +3.4865400e-05 </wgt>
<wgt id='morphing_basis_vector_3'> +3.3467859e-05 </wgt>
<wgt id='morphing_basis_vector_4'> +1.5801602e-07 </wgt>
<wgt id='morphing_basis_vector_5'> +2.3656330e-05 </wgt>
</rwgt>
</event>
<event>
 4      1 +4.5322000e-10 4.07226700e+03 7.81860800e-03 7.52795600e-02
        2 -1    0    0  501    0 +0.0000000000e+00 +0.0000000000e+00 +3.6980946750e+03 3.6980946750e+03 0.0000000000e+00 0.0000e+00 1.0000e+00
       -2 -1    0    0    0  501 -0.0000000000e+00 -0.0000000000e+00 -1.1210744930e+03 1.1210744930e+03 0.0000000000e+00 0.0000e+00 -1.0000e+00
      -13  1    1    2    0    0 -9.2303676729e+02 +1.3228715779e+03 -1.8190169395e+02 1.6232911975e+03 0.0000000000e+00 0.0000e+00 -1.0000e+00
       13  1    1    2    0    0 +9.2303676729e+02 -1.3228715779e+03 +2.7589218759e+03 3.1958779706e+03 0.0000000000e+00 0.0000e+00 1.0000e+00
<mgrwt>
<rscale>  0 0.40722670E+04</rscale>
<asrwt>0</asrwt>
<pdfrwt beam="1">  1        2 0.56893764E+00 0.40722670E+04</pdfrwt>
<pdfrwt beam="2">  1       -2 0.17247300E+00 0.40722670E+04</pdfrwt>
<totfact> 0.10095448E-01</totfact>
</mgrwt>
<rwgt>
<wgt id='morphing_basis_vector_1'> +1.6972423e-05 </wgt>
<wgt id='morphing_basis_vector_2'> +1.1592699e-05 </wgt>
<wgt id='morphing_basis_vector_3'> +1.8657704e-05 </wgt>
<wgt id='morphing_basis_vector_4'> +1.3312221e-05 </wgt>
<wgt id='morphing_basis_vector_5'> +2.1351321e-05 </wgt>
</rwgt>
</event>
<event>
 4      1 +4.5322000e-10 4.31486300e+03 7.81860800e-03 7.48698000e-02
        2 -1    0    0  501    0 +0.0000000000e+00 +0.0000000000e+00 +2.4412351985e+03 2.4412351985e+03 0.0000000000e+00 0.0000e+00 -1.0000e+00
       -2 -1    0    0    0  501 -0.0000000000e+00 -0.0000000000e+00 -1.9066214436e+03 1.9066214436e+03 0.0000000000e+00 0.0000e+00 1.0000e+00
      -13  1    1    2    0    0 -8.7767973759e+02 +1.7435720728e+03 -6.5849269770e+02 2.0600917280e+03 0.0000000000e+00 0.0000e+00 1.0000e+00
       13  1    1    2    0    0 +8.7767973759e+02 -1.7435720728e+03 +1.1931064527e+03 2.2877649141e+03 0.0000000000e+00 0.0000e+00 -1.0000e+00
<mgrwt>
<rscale>  0 0.43148633E+04</rscale>
<asrwt>0</asrwt>
<pdfrwt beam="1">  1        2 0.37557465E+00 0.43148633E+04</pdfrwt>
<pdfrwt beam="2">  1       -2 0.29332637E+00 0.43148633E+04</pdfrwt>
<totfact> 0.95454642E-02</totfact>
</mgrwt>
<rwgt>
<wgt id='morphing_basis_vector_1'> +2.1457666e-05 </wgt>
<wgt id='morphing_basis_vector_2'> +1.4864185e-05 </wgt>
<wgt id='morphing_basis_vector_3'> +2.3657274e-05 </wgt>
<wgt id='morphing_basis_vector_4'> +1.6609735e-05 </wgt>
<wgt id='morphing_basis_vector_5'> +2.6924689e-05 </wgt>
</rwgt>
</event>
<event>
 4      1 +4.5322000e-10 3.95817600e+03 7.81860800e-03 7.54824200e-02
        2 -1    0    0  501    0 +0.0000000000e+00 +0.0000000000e+00 +1.8999049472e+03 1.8999049472e+03 0.0000000000e+00 0.0000e+00 1.0000e+00
       -2 -1    0    0    0  501 -0.0000000000e+00 -0.0000000000e+00 -2.0615711417e+03 2.0615711417e+03 0.0000000000e+00 0.0000e+00 -1.0000e+00
      -13  1    1    2    0    0 +1.2702465248e+03 -1.2929631517e+03 -8.7617123263e+02 2.0131954635e+03 0.0000000000e+00 0.0000e+00 -1.0000e+00
       13  1    1    2    0    0 -1.2702465248e+03 +1.2929631517e+03 +7.1450503814e+02 1.9482806253e+03 0.0000000000e+00 0.0000e+00 1.0000e+00
<mgrwt>
<rscale>  0 0.39581759E+04</rscale>
<asrwt>0</asrwt>
<pdfrwt beam="1">  1        2 0.29229307E+00 0.39581759E+04</pdfrwt>
<pdfrwt beam="2">  1       -2 0.31716479E+00 0.39581759E+04</pdfrwt>
<totfact> 0.13875001E-01</totfact>
</mgrwt>
<rwgt>
<wgt id='morphing_basis_vector_1'> +1.5232013e-05 </wgt>
<wgt id='morphing_basis_vector_2'> +1.0568290e-05 </wgt>
<wgt id='morphing_basis_vector_3'> +1.6772947e-05 </wgt>
<wgt id='morphing_basis_vector_4'> +1.1718077e-05 </wgt>
<wgt id='morphing_basis_vector_5'> +1.9033478e-05 </wgt>
</rwgt>
</event>
<event>
 4      1 +4.5322000e-10 3.96288800e+03 7.81860800e-03 7.54739100e-02
        2 -1    0    0  501    0 +0.0000000000e+00 +0.0000000000e+00 +2.3222150113e+03 2.3222150113e+03 0.0000000000e+00 0.0000e+00 1.0000e+00
       -2 -1    0    0    0  501 -0.0000000000e+00 -0.0000000000e+00 -1.6906787098e+03 1.6906787098e+03 0.0000000000e+00 0.0000e+00 -1.0000e+00
      -13  1    1    2    0    0 -1.2893038451e+03 -1.3891983734e+03 -2.6940184290e+02 1.9143546899e+03 0.0000000000e+00 0.0000e+00 -1.0000e+00
       13  1    1    2    0    0 +1.2893038451e+03 +1.3891983734e+03 +9.0093814441e+02 2.0985390313e+03 0.0000000000e+00 0.0000e+00 1.0000e+00
<mgrwt>
<rscale>  0 0.39628876E+04</rscale>
<asrwt>0</asrwt>
<pdfrwt beam="1">  1        2 0.35726385E+00 0.39628876E+04</pdfrwt>
<pdfrwt beam="2">  1       -2 0.26010442E+00 0.39628876E+04</pdfrwt>
<totfact> 0.19427738E-01</totfact>
</mgrwt>
<rwgt>
<wgt id='morphing_basis_vector_1'> +1.5373997e-05 </wgt>
<wgt id='morphing_basis_vector_2'> +1.0823500e-05 </wgt>
<wgt id='morphing_basis_vector_3'> +1.6964714e-05 </wgt>
<wgt id='morphing_basis_vector_4'> +1.1626854e-05 </wgt>
<wgt id='morphing_basis_vector_5'> +1.9112450e-05 </wgt>
</rwgt>
</event>
<event>
 4      1 +4.5322000e-10 3.94161200e+03 7.81860800e-03 7.55124500e-02
        2 -1    0    0  501    0 +0.0000000000e+00 +0.0000000000e+00 +3.9556647353e+03 3.9556647353e+03 0.0000000000e+00 0.0000e+00 -1.0000e+00
       -2 -1    0    0    0  501 -0.0000000000e+00 -0.0000000000e+00 -9.8190211794e+02 9.8190211794e+02 0.0000000000e+00 0.0000e+00 1.0000e+00
      -13  1    1    2    0    0 +2.1297561952e+02 +1.7410903945e+03 +3.6133767207e+02 1.7908990171e+03 0.0000000000e+00 0.0000e+00 1.0000e+00
       13  1    1    2    0    0 -2.1297561952e+02 -1.7410903945e+03 +2.6124249453e+03 3.1466678361e+03 0.0000000000e+00 0.0000e+00 -1.0000e+00
<mgrwt>
<rscale>  0 0.39416116E+04</rscale>
<asrwt>0</asrwt>
<pdfrwt beam="1">  1        2 0.60856380E+00 0.39416116E+04</pdfrwt>
<pdfrwt beam="2">  1       -2 0.15106187E+00 0.39416116E+04</pdfrwt>
<totfact> 0.93775576E-02</totfact>
</mgrwt>
<rwgt>
<wgt id='morphing_basis_vector_1'> +1.4954938e-05 </wgt>
<wgt id='morphing_basis_vector_2'> +1.0319335e-05 </wgt>
<wgt id='morphing_basis_vector_3'> +1.6453902e-05 </wgt>
<wgt id='morphing_basis_vector_4'> +1.1575078e-05 </wgt>
<wgt id='morphing_basis_vector_5'> +1.8719673e-05 </wgt>
</rwgt>
</event>
<event>
 4      1 +4.5322000e-10 4.29643200e+03 7.81860800e-03 7.48999600e-02
        2 -1    0    0  501    0 +0.0000000000e+00 +0.0000000000e+00 +2.0360610090e+03 2.0360610090e+03 0.0000000000e+00 0.0000e+00 1.0000e+00
       -2 -1    0    0    0  501 -0.0000000000e+00 -0.0000000000e+00 -2.2665493202e+03 2.2665493202e+03 0.0000000000e+00 0.0000e+00 -1.0000e+00
      -13  1    1    2    0    0 -3.4814987264e+02 +2.0808657046e+02 +1.9973684713e+03 2.0381337455e+03 0.0000000000e+00 0.0000e+00 1.0000e+00
       13  1    1    2    0    0 +3.4814987264e+02 -2.0808657046e+02 -2.2278567825e+03 2.2644765836e+03 0.0000000000e+00 0.0000e+00 -1.0000e+00
<mgrwt>
<rscale>  0 0.42964323E+04</rscale>
<asrwt>0</asrwt>
<pdfrwt beam="1">  1        2 0.31324016E+00 0.42964323E+04</pdfrwt>
<pdfrwt beam="2">  1       -2 0.34869989E+00 0.42964323E+04</pdfrwt>
<totfact> 0.70210717E-02</totfact>
</mgrwt>
<rwgt>
<wgt id='morphing_basis_vector_1'> +2.8726907e-05 </wgt>
<wgt id='morphing_basis_vector_2'> +3.7037775e-05 </wgt>
<wgt id='morphing_basis_vector_3'> +3.5552690e-05 </wgt>
<wgt id='morphing_basis_vector_4'> +1.3983461e-07 </wgt>
<wgt id='morphing_basis_vector_5'> +2.5113980e-05 </wgt>
</rwgt>
</event>
<event>
 4      1 +4.5322000e-10 4.35834400e+03 7.81860800e-03 7.47992400e-02
        2 -1    0    0  501    0 +0.0000000000e+00 +0.0000000000e+00 +3.8227610403e+03 3.8227610403e+03 0.0000000000e+00 0.0000e+00 -1.0000e+00
       -2 -1    0    0    0  501 -0.0000000000e+00 -0.0000000000e+00 -1.2422409706e+03 1.2422409706e+03 0.0000000000e+00 0.0000e+00 1.0000e+00
      -13  1    1    2    0    0 -9.5211345853e+02 -5.2352826314e+02 -9.0498003535e+02 1.4140688613e+03 0.0000000000e+00 0.0000e+00 1.0000e+00
       13  1    1    2    0    0 +9.5211345853e+02 +5.2352826314e+02 +3.4855001050e+03 3.6509331495e+03 0.0000000000e+00 0.0000e+00 -1.0000e+00
<mgrwt>
<rscale>  0 0.43583439E+04</rscale>
<asrwt>0</asrwt>
<pdfrwt beam="1">  1        2 0.58811707E+00 0.43583439E+04</pdfrwt>
<pdfrwt beam="2">  1       -2 0.19111400E+00 0.43583439E+04</pdfrwt>
<totfact> 0.56821255E-02</totfact>
</mgrwt>
<rwgt>
<wgt id='morphing_basis_vector_1'> +2.2192088e-05 </wgt>
<wgt id='morphing_basis_vector_2'> +1.5060730e-05 </wgt>
<wgt id='morphing_basis_vector_3'> +2.4399819e-05 </wgt>
<wgt id='morphing_basis_vector_4'> +1.7588804e-05 </wgt>
<wgt id='morphing_basis_vector_5'> +2.8055986e-05 </wgt>
</rwgt>
</event>
<event>
 4      1 +4.5322000e-10 3.95639000e+03 7.81860800e-03 7.54856500e-02
        2 -1    0    0  501    0 +0.0000000000e+00 +0.0000000000e+00 +3.5375701386e+03 3.5375701386e+03 0.0000000000e+00 0.0000e+00 -1.0000e+00
       -2 -1    0    0    0  501 -0.0000000000e+00 -0.0000000000e+00 -1.1061984524e+03 1.1061984524e+03 0.0000000000e+00 0.0000e+00 1.0000e+00
      -13  1    1    2    0    0 -1.5181840309e+03 +8.1319876280e+02 +7.3426366603e+01 1.7238231959e+03 0.0000000000e+00 0.0000e+00 1.0000e+00
       13  1    1    2    0    0 +1.5181840309e+03 -8.1319876280e+02 +2.3579453197e+03 2.9199453950e+03 0.0000000000e+00 0.0000e+00 -1.0000e+00
<mgrwt>
<rscale>  0 0.39563896E+04</rscale>
<asrwt>0</asrwt>
<pdfrwt beam="1">  1        2 0.54424156E+00 0.39563896E+04</pdfrwt>
<pdfrwt beam="2">  1       -2 0.17018438E+00 0.39563896E+04</pdfrwt>
<totfact> 0.14051885E-01</totfact>
</mgrwt>
<rwgt>
<wgt id='morphing_basis_vector_1'> +1.5165080e-05 </wgt>
<wgt id='morphing_basis_vector_2'> +1.0432868e-05 </wgt>
<wgt id='morphing_basis_vector_3'> +1.6679207e-05 </wgt>
<wgt id='morphing_basis_vector_4'> +1.1780552e-05 </wgt>
<wgt id='morphing_basis_vector_5'> +1.9005939e-05 </wgt>
</rwgt>
</event>
<event>
 4      1 +4.5322000e-10 4.55574000e+03 7.81860800e-03 7.44890900e-02
        2 -1    0    0  501    0 +0.0000000000e+00 +0.0000000000e+00 +3.5299837608e+03 3.5299837608e+03 0.0000000000e+00 0.0000e+00 1.0000e+00
       -2 -1    0    0    0  501 -0.0000000000e+00 -0.0000000000e+00 -1.4698913246e+03 1.4698913246e+03 0.0000000000e+00 0.0000e+00 -1.0000e+00
      -13  1    1    2    0    0 +1.0650827839e+03 +6.4750749774e+02 +3.1224905133e+03 3.3620848148e+03 0.0000000000e+00 0.0000e+00 1.0000e+00
       13  1    1    2    0    0 -1.0650827839e+03 -6.4750749774e+02 -1.0623980772e+03 1.6377902706e+03 0.0000000000e+00 0.0000e+00 -1.0000e+00
<mgrwt>
<rscale>  0 0.45557403E+04</rscale>
<asrwt>0</asrwt>
<pdfrwt beam="1">  1        2 0.54307442E+00 0.45557403E+04</pdfrwt>
<pdfrwt beam="2">  1       -2 0.22613713E+00 0.45557403E+04</pdfrwt>
<totfact> 0.52577324E-02</totfact>
</mgrwt>
<rwgt>
<wgt id='morphing_basis_vector_1'> +3.5632803e-05 </wgt>
<wgt id='morphing_basis_vector_2'> +4.4878638e-05 </wgt>
<wgt id='morphing_basis_vector_3'> +4.3929191e-05 </wgt>
<wgt id='morphing_basis_vector_4'> +1.5513500e-06 </wgt>
<wgt id='morphing_basis_vector_5'> +3.1890552e-05 </wgt>
</rwgt>
</event>
<event>
 4      1 +4.5322000e-10 4.03341200e+03 7.81860800e-03 7.53478800e-02
        2 -1    0    0  501    0 +0.0000000000e+00 +0.0000000000e+00 +3.1067462974e+03 3.1067462974e+03 0.0000000000e+00 0.0000e+00 1.0000e+00
       -2 -1    0    0    0  501 -0.0000000000e+00 -0.0000000000e+00 -1.3091200264e+03 1.3091200264e+03 0.0000000000e+00 0.0000e+00 -1.0000e+00
      -13  1    1    2    0    0 -9.9224882670e+01 -6.7565997493e+02 -1.1786785078e+03 1.3622206149e+03 0.0000000000e+00 0.0000e+00 -1.0000e+00
       13  1    1    2    0    0 +9.9224882670e+01 +6.7565997493e+02 +2.9763047788e+03 3.0536457089e+03 0.0000000000e+00 0.0000e+00 1.0000e+00
<mgrwt>
<rscale>  0 0.40334123E+04</rscale>
<asrwt>0</asrwt>
<pdfrwt beam="1">  1        2 0.47796097E+00 0.40334123E+04</pdfrwt>
<pdfrwt beam="2">  1       -2 0.20140308E+00 0.40334123E+04</pdfrwt>
<totfact> 0.16307598E-01</totfact>
</mgrwt>
<rwgt>
<wgt id='morphing_basis_vector_1'> +1.6298881e-05 </wgt>
<wgt id='morphing_basis_vector_2'> +1.1045353e-05 </wgt>
<wgt id='morphing_basis_vector_3'> +1.7894762e-05 </wgt>
<wgt id='morphing_basis_vector_4'> +1.2889738e-05 </wgt>
<wgt id='morphing_basis_vector_5'> +2.0550949e-05 </wgt>
</rwgt>
</event>
<event>
 4      1 +4.5322000e-10 4.27993900e+03 7.81860800e-03 7.49270800e-02
        2 -1    0    0  501    0 +0.0000000000e+00 +0.0000000000e+00 +4.6730530071e+03 4.6730530071e+03 0.0000000000e+00 0.0000e+00 1.0000e+00
       -2 -1    0    0    0  501 -0.0000000000e+00 -0.0000000000e+00 -9.7997356688e+02 9.7997356688e+02 0.0000000000e+00 0.0000e+00 -1.0000e+00
      -13  1    1    2    0    0 +1.3471105673e+03 +1.5760070798e+03 +1.1464265646e+03 2.3691346657e+03 0.0000000000e+00 0.0000e+00 -1.0000e+00
       13  1    1    2    0    0 -1.3471105673e+03 -1.5760070798e+03 +2.5466528756e+03 3.2838919082e+03 0.0000000000e+00 0.0000e+00 1.0000e+00
<mgrwt>
<rscale>  0 0.42799385E+04</rscale>
<asrwt>0</asrwt>
<pdfrwt beam="1">  1        2 0.71893122E+00 0.42799385E+04</pdfrwt>
<pdfrwt beam="2">  1       -2 0.15076517E+00 0.42799385E+04</pdfrwt>
<totfact> 0.18662500E-02</totfact>
</mgrwt>
<rwgt>
<wgt id='morphing_basis_vector_1'> +2.0934729e-05 </wgt>
<wgt id='morphing_basis_vector_2'> +1.4860918e-05 </wgt>
<wgt id='morphing_basis_vector_3'> +2.3159124e-05 </wgt>
<wgt id='morphing_basis_vector_4'> +1.5736142e-05 </wgt>
<wgt id='morphing_basis_vector_5'> +2.6031459e-05 </wgt>
</rwgt>
</event>
<event>
 4      1 +4.5322000e-10 3.87259300e+03 7.81860800e-03 7.56392200e-02
        2 -1    0    0  501    0 +0.0000000000e+00 +0.0000000000e+00 +2.0361109501e+03 2.0361109501e+03 0.0000000000e+00 0.0000e+00 1.0000e+00
       -2 -1    0    0    0  501 -0.0000000000e+00 -0.0000000000e+00 -1.8413748406e+03 1.8413748406e+03 0.0000000000e+00 0.0000e+00 -1.0000e+00
      -13  1    1    2    0    0 -3.6454669014e+02 +1.2898110133e+03 -1.3018011744e+03 1.8684734509e+03 0.0000000000e+00 0.0000e+00 -1.0000e+00
       13  1    1    2    0    0 +3.6454669014e+02 -1.2898110133e+03 +1.4965372839e+03 2.0090123398e+03 0.0000000000e+00 0.0000e+00 1.0000e+00
<mgrwt>
<rscale>  0 0.38725927E+04</rscale>
<asrwt>0</asrwt>
<pdfrwt beam="1">  1        2 0.31324784E+00 0.38725927E+04</pdfrwt>
<pdfrwt beam="2">  1       -2 0.28328844E+00 0.38725927E+04</pdfrwt>
<totfact> 0.19810742E-01</totfact>
</mgrwt>
<rwgt>
<wgt id='morphing_basis_vector_1'> +1.3876856e-05 </wgt>
<wgt id='morphing_basis_vector_2'> +9.4313307e-06 </wgt>
<wgt id='morphing_basis_vector_3'> +1.5230637e-05 </wgt>
<wgt id='morphing_basis_vector_4'> +1.0914811e-05 </wgt>
<wgt id='morphing_basis_vector_5'> +1.7447245e-05 </wgt>
</rwgt>
</event>
<event>
 4      1 +4.5322000e-10 4.44613000e+03 7.81860800e-03 7.46593000e-02
        2 -1    0    0  501    0 +0.0000000000e+00 +0.0000000000e+00 +4.5911396448e+03 4.5911396448e+03 0.0000000000e+00 0.0000e+00 -1.0000e+00
       -2 -1    0    0    0  501 -0.0000000000e+00 -0.0000000000e+00 -1.0764252139e+03 1.0764252139e+03 0.0000000000e+00 0.0000e+00 1.0000e+00
      -13  1    1    2    0    0 -2.5000613253e+02 +2.0318323601e+03 +6.5255583117e+02 2.1486449029e+03 0.0000000000e+00 0.0000e+00 1.0000e+00
       13  1    1    2    0    0 +2.5000613253e+02 -2.0318323601e+03 +2.8621585997e+03 3.5189199559e+03 0.0000000000e+00 0.0000e+00 -1.0000e+00
<mgrwt>
<rscale>  0 0.44461302E+04</rscale>
<asrwt>0</asrwt>
<pdfrwt beam="1">  1        2 0.70632917E+00 0.44461302E+04</pdfrwt>
<pdfrwt beam="2">  1       -2 0.16560388E+00 0.44461302E+04</pdfrwt>
<totfact> 0.17186179E-02</totfact>
</mgrwt>
<rwgt>
<wgt id='morphing_basis_vector_1'> +2.4206870e-05 </wgt>
<wgt id='morphing_basis_vector_2'> +1.6838457e-05 </wgt>
<wgt id='morphing_basis_vector_3'> +2.6716097e-05 </wgt>
<wgt id='morphing_basis_vector_4'> +1.8672809e-05 </wgt>
<wgt id='morphing_basis_vector_5'> +3.0363581e-05 </wgt>
</rwgt>
</event>
<event>
 4      1 +4.5322000e-10 4.37285400e+03 7.81860800e-03 7.47758800e-02
        2 -1    0    0  501    0 +0.0000000000e+00 +0.0000000000e+00 +2.8734545326e+03 2.8734545326e+03 0.0000000000e+00 0.0000e+00 -1.0000e+00
       -2 -1    0    0    0  501 -0.0000000000e+00 -0.0000000000e+00 -1.6636644014e+03 1.6636644014e+03 0.0000000000e+00 0.0000e+00 1.0000e+00
      -13  1    1    2    0    0 +1.7850183123e+03 -1.2555798253e+03 +4.6688359996e+02 2.2317597023e+03 0.0000000000e+00 0.0000e+00 1.0000e+00
       13  1    1    2    0    0 -1.7850183123e+03 +1.2555798253e+03 +7.4290653125e+02 2.3053592317e+03 0.0000000000e+00 0.0000e+00 -1.0000e+00
<mgrwt>
<rscale>  0 0.43728545E+04</rscale>
<asrwt>0</asrwt>
<pdfrwt beam="1">  1        2 0.44206993E+00 0.43728545E+04</pdfrwt>
<pdfrwt beam="2">  1       -2 0.25594837E+00 0.43728545E+04</pdfrwt>
<totfact> 0.92887353E-02</totfact>
</mgrwt>
<rwgt>
<wgt id='morphing_basis_vector_1'> +2.3145718e-05 </wgt>
<wgt id='morphing_basis_vector_2'> +1.7194957e-05 </wgt>
<wgt id='morphing_basis_vector_3'> +2.5787337e-05 </wgt>
<wgt id='morphing_basis_vector_4'> +1.6428982e-05 </wgt>
<wgt id='morphing_basis_vector_5'> +2.8316415e-05 </wgt>
</rwgt>
</event>
<event>
 4      1 +4.5322000e-10 4.46109300e+03 7.81860800e-03 7.46357800e-02
        2 -1    0    0  501    0 +0.0000000000e+00 +0.0000000000e+00 +2.0246737896e+03 2.0246737896e+03 0.0000000000e+00 0.0000e+00 -1.0000e+00
       -2 -1    0    0    0  501 -0.0000000000e+00 -0.0000000000e+00 -2.4573524828e+03 2.4573524828e+03 0.0000000000e+00 0.0000e+00 1.0000e+00
      -13  1    1    2    0    0 +1.1833028981e+03 +1.8036054255e+03 -7.8657546120e+02 2.2960616794e+03 0.0000000000e+00 0.0000e+00 1.0000e+00
       13  1    1    2    0    0 -1.1833028981e+03 -1.8036054255e+03 +3.5389676798e+02 2.1859645930e+03 0.0000000000e+00 0.0000e+00 -1.0000e+00
<mgrwt>
<rscale>  0 0.44610928E+04</rscale>
<asrwt>0</asrwt>
<pdfrwt beam="1">  1        2 0.31148828E+00 0.44610928E+04</pdfrwt>
<pdfrwt beam="2">  1       -2 0.37805423E+00 0.44610928E+04</pdfrwt>
<totfact> 0.45509704E-02</totfact>
</mgrwt>
<rwgt>
<wgt id='morphing_basis_vector_1'> +2.4683456e-05 </wgt>
<wgt id='morphing_basis_vector_2'> +1.7507874e-05 </wgt>
<wgt id='morphing_basis_vector_3'> +2.7320374e-05 </wgt>
<wgt id='morphing_basis_vector_4'> +1.8606935e-05 </wgt>
<wgt id='morphing_basis_vector_5'> +3.0749322e-05 </wgt>
</rwgt>
</event>
<event>
 4      1 +4.5322000e-10 4.29503400e+03 7.81860800e-03 7.49022500e-02
        2 -1    0    0  501    0 +0.0000000000e+00 +0.0000000000e+00 +2.5028016531e+03 2.5028016531e+03 0.0000000000e+00 0.0000e+00 -1.0000e+00
       -2 -1    0    0    0  501 -0.0000000000e+00 -0.0000000000e+00 -1.8426667053e+03 1.8426667053e+03 0.0000000000e+00 0.0000e+00 1.0000e+00
      -13  1    1    2    0    0 +5.3962103310e+02 +6.6532821687e+02 -1.6623144254e+03 1.8700646365e+03 0.0000000000e+00 0.0000e+00 1.0000e+00
       13  1    1    2    0    0 -5.3962103310e+02 -6.6532821687e+02 +2.3224493732e+03 2.4754037219e+03 0.0000000000e+00 0.0000e+00 -1.0000e+00
<mgrwt>
<rscale>  0 0.42950340E+04</rscale>
<asrwt>0</asrwt>
<pdfrwt beam="1">  1        2 0.38504641E+00 0.42950340E+04</pdfrwt>
<pdfrwt beam="2">  1       -2 0.28348718E+00 0.42950340E+04</pdfrwt>
<totfact> 0.10247762E-01</totfact>
</mgrwt>
<rwgt>
<wgt id='morphing_basis_vector_1'> +2.0933079e-05 </wgt>
<wgt id='morphing_basis_vector_2'> +1.4197891e-05 </wgt>
<wgt id='morphing_basis_vector_3'> +2.3008648e-05 </wgt>
<wgt id='morphing_basis_vector_4'> +1.6590671e-05 </wgt>
<wgt id='morphing_basis_vector_5'> +2.6454903e-05 </wgt>
</rwgt>
</event>
<event>
 4      1 +4.5322000e-10 3.88748900e+03 7.81860800e-03 7.56116400e-02
        2 -1    0    0  501    0 +0.0000000000e+00 +0.0000000000e+00 +1.2504837071e+03 1.2504837071e+03 0.0000000000e+00 0.0000e+00 -1.0000e+00
       -2 -1    0    0    0  501 -0.0000000000e+00 -0.0000000000e+00 -3.0213446657e+03 3.0213446657e+03 0.0000000000e+00 0.0000e+00 1.0000e+00
      -13  1    1    2    0    0 -1.2739924395e+03 -8.6066115281e+02 -2.1922715486e+03 2.6776573527e+03 0.0000000000e+00 0.0000e+00 1.0000e+00
       13  1    1    2    0    0 +1.2739924395e+03 +8.6066115281e+02 +4.2141059001e+02 1.5941710201e+03 0.0000000000e+00 0.0000e+00 -1.0000e+00
<mgrwt>
<rscale>  0 0.38874888E+04</rscale>
<asrwt>0</asrwt>
<pdfrwt beam="1">  1        2 0.19238211E+00 0.38874888E+04</pdfrwt>
<pdfrwt beam="2">  1       -2 0.46482225E+00 0.38874888E+04</pdfrwt>
<totfact> 0.33841056E-02</totfact>
</mgrwt>
<rwgt>
<wgt id='morphing_basis_vector_1'> +1.4108566e-05 </wgt>
<wgt id='morphing_basis_vector_2'> +9.6302937e-06 </wgt>
<wgt id='morphing_basis_vector_3'> +1.5495303e-05 </wgt>
<wgt id='morphing_basis_vector_4'> +1.1046270e-05 </wgt>
<wgt id='morphing_basis_vector_5'> +1.7715491e-05 </wgt>
</rwgt>
</event>
<event>
 4      1 +4.5322000e-10 4.28525400e+03 7.81860800e-03 7.49183300e-02
        2 -1    0    0  501    0 +0.0000000000e+00 +0.0000000000e+00 +2.7798499994e+03 2.7798499994e+03 0.0000000000e+00 0.0000e+00 1.0000e+00
       -2 -1    0    0    0  501 -0.0000000000e+00 -0.0000000000e+00 -1.6514738817e+03 1.6514738817e+03 0.0000000000e+00 0.0000e+00 -1.0000e+00
      -13  1    1    2    0    0 +1.9548753319e+03 +4.8252749912e+02 -1.9322616032e+02 2.0227967519e+03 0.0000000000e+00 0.0000e+00 -1.0000e+00
       13  1    1    2    0    0 -1.9548753319e+03 -4.8252749912e+02 +1.3216022781e+03 2.4085271292e+03 0.0000000000e+00 0.0000e+00 1.0000e+00
<mgrwt>
<rscale>  0 0.42852536E+04</rscale>
<asrwt>0</asrwt>
<pdfrwt beam="1">  1        2 0.42766923E+00 0.42852536E+04</pdfrwt>
<pdfrwt beam="2">  1       -2 0.25407291E+00 0.42852536E+04</pdfrwt>
<totfact> 0.11040070E-01</totfact>
</mgrwt>
<rwgt>
<wgt id='morphing_basis_vector_1'> +2.0940861e-05 </wgt>
<wgt id='morphing_basis_vector_2'> +1.4647977e-05 </wgt>
<wgt id='morphing_basis_vector_3'> +2.3117153e-05 </wgt>
<wgt id='morphing_basis_vector_4'> +1.6021744e-05 </wgt>
<wgt id='morphing_basis_vector_5'> +2.6178852e-05 </wgt>
</rwgt>
</event>
<event>
 4      1 +4.5322000e-10 4.01628200e+03 7.81860800e-03 7.53782500e-02
        2 -1    0    0  501    0 +0.0000000000e+00 +0.0000000000e+00 +3.3848395107e+03 3.3848395107e+03 0.0000000000e+00 0.0000e+00 -1.0000e+00
       -2 -1    0    0    0  501 -0.0000000000e+00 -0.0000000000e+00 -1.1913801656e+03 1.1913801656e+03 0.0000000000e+00 0.0000e+00 1.0000e+00
      -13  1    1    2    0    0 -1.5485932921e+03 -9.3342949875e+02 +1.0132082507e+02 1.8109935734e+03 0.0000000000e+00 0.0000e+00 1.0000e+00
       13  1    1    2    0    0 +1.5485932921e+03 +9.3342949875e+02 +2.0921385201e+03 2.7652261030e+03 0.0000000000e+00 0.0000e+00 -1.0000e+00
<mgrwt>
<rscale>  0 0.40162822E+04</rscale>
<asrwt>0</asrwt>
<pdfrwt beam="1">  1        2 0.52074454E+00 0.40162822E+04</pdfrwt>
<pdfrwt beam="2">  1       -2 0.18328926E+00 0.40162822E+04</pdfrwt>
<totfact> 0.14316700E-01</totfact>
</mgrwt>
<rwgt>
<wgt id='morphing_basis_vector_1'> +1.6124239e-05 </wgt>
<wgt id='morphing_basis_vector_2'> +1.1150581e-05 </wgt>
<wgt id='morphing_basis_vector_3'> +1.7751852e-05 </wgt>
<wgt id='morphing_basis_vector_4'> +1.2461457e-05 </wgt>
<wgt id='morphing_basis_vector_5'> +2.0184886e-05 </wgt>
</rwgt>
</event>
<event>
 4      1 +4.5322000e-10 3.85036200e+03 7.81860800e-03 7.56806300e-02
        2 -1    0    0  501    0 +0.0000000000e+00 +0.0000000000e+00 +4.4407407877e+03 4.4407407877e+03 0.0000000000e+00 0.0000e+00 -1.0000e+00
       -2 -1    0    0    0  501 -0.0000000000e+00 -0.0000000000e+00 -8.3461772807e+02 8.3461772807e+02 0.0000000000e+00 0.0000e+00 1.0000e+00
      -13  1    1    2    0    0 +1.7082709233e+03 +7.1401655652e+02 +1.0802646364e+03 2.1435906501e+03 0.0000000000e+00 0.0000e+00 1.0000e+00
       13  1    1    2    0    0 -1.7082709233e+03 -7.1401655652e+02 +2.5258584233e+03 3.1317678657e+03 0.0000000000e+00 0.0000e+00 -1.0000e+00
<mgrwt>
<rscale>  0 0.38503615E+04</rscale>
<asrwt>0</asrwt>
<pdfrwt beam="1">  1        2 0.68319087E+00 0.38503615E+04</pdfrwt>
<pdfrwt beam="2">  1       -2 0.12840273E+00 0.38503615E+04</pdfrwt>
<totfact> 0.53171450E-02</totfact>
</mgrwt>
<rwgt>
<wgt id='morphing_basis_vector_1'> +1.3721641e-05 </wgt>
<wgt id='morphing_basis_vector_2'> +9.6844887e-06 </wgt>
<wgt id='morphing_basis_vector_3'> +1.5138470e-05 </wgt>
<wgt id='morphing_basis_vector_4'> +1.0329313e-05 </wgt>
<wgt id='morphing_basis_vector_5'> +1.7020024e-05 </wgt>
</rwgt>
</event>
<event>
 4      1 +4.5322000e-10 3.95162100e+03 7.81860800e-03 7.54942900e-02
        2 -1    0    0  501    0 +0.0000000000e+00 +0.0000000000e+00 +2.9462683012e+03 2.9462683012e+03 0.0000000000e+00 0.0000e+00 -1.0000e+00
       -2 -1    0    0    0  501 -0.0000000000e+00 -0.0000000000e+00 -1.3250074002e+03 1.3250074002e+03 0.0000000000e+00 0.0000e+00 1.0000e+00
      -13  1    1    2    0    0 -7.2094178967e+02 +1.7081369156e+03 +1.5487606153e+03 2.4158121264e+03 0.0000000000e+00 0.0000e+00 1.0000e+00
       13  1    1    2    0    0 +7.2094178967e+02 -1.7081369156e+03 +7.2500285729e+01 1.8554635750e+03 0.0000000000e+00 0.0000e+00 -1.0000e+00
<mgrwt>
<rscale>  0 0.39516211E+04</rscale>
<asrwt>0</asrwt>
<pdfrwt beam="1">  1        2 0.45327204E+00 0.39516211E+04</pdfrwt>
<pdfrwt beam="2">  1       -2 0.20384729E+00 0.39516211E+04</pdfrwt>
<totfact> 0.20078436E-01</totfact>
</mgrwt>
<rwgt>
<wgt id='morphing_basis_vector_1'> +1.6791991e-05 </wgt>
<wgt id='morphing_basis_vector_2'> +1.5378575e-05 </wgt>
<wgt id='morphing_basis_vector_3'> +1.9323653e-05 </wgt>
<wgt id='morphing_basis_vector_4'> +8.1305626e-06 </wgt>
<wgt id='morphing_basis_vector_5'> +1.8614797e-05 </wgt>
</rwgt>
</event>
<event>
 4      1 +4.5322000e-10 4.30759200e+03 7.81860800e-03 7.48816800e-02
        2 -1    0    0  501    0 +0.0000000000e+00 +0.0000000000e+00 +5.2464821537e+03 5.2464821537e+03 0.0000000000e+00 0.0000e+00 -1.0000e+00
       -2 -1    0    0    0  501 -0.0000000000e+00 -0.0000000000e+00 -8.8418058792e+02 8.8418058792e+02 0.0000000000e+00 0.0000e+00 1.0000e+00
      -13  1    1    2    0    0 -2.1129206212e+03 -2.4355788141e+02 +1.6983369372e+03 2.7217829351e+03 0.0000000000e+00 0.0000e+00 -1.0000e+00
       13  1    1    2    0    0 +2.1129206212e+03 +2.4355788141e+02 +2.6639646286e+03 3.4088798065e+03 0.0000000000e+00 0.0000e+00 1.0000e+00
<mgrwt>
<rscale>  0 0.43075922E+04</rscale>
<asrwt>0</asrwt>
<pdfrwt beam="1">  1        2 0.80715108E+00 0.43075922E+04</pdfrwt>
<pdfrwt beam="2">  1       -2 0.13602779E+00 0.43075922E+04</pdfrwt>
<totfact> 0.43889999E-03</totfact>
</mgrwt>
<rwgt>
<wgt id='morphing_basis_vector_1'> +2.1609199e-05 </wgt>
<wgt id='morphing_basis_vector_2'> +1.5631735e-05 </wgt>
<wgt id='morphing_basis_vector_3'> +2.3973906e-05 </wgt>
<wgt id='morphing_basis_vector_4'> +1.5871509e-05 </wgt>
<wgt id='morphing_basis_vector_5'> +2.6690606e-05 </wgt>
</rwgt>
</event>
<event>
 4      1 +4.5322000e-10 4.03625100e+03 7.81860800e-03 7.53428600e-02
        2 -1    0    0  501    0 +0.0000000000e+00 +0.0000000000e+00 +2.1029106883e+03 2.1029106883e+03 0.0000000000e+00 0.0000e+00 -1.0000e+00
       -2 -1    0    0    0  501 -0.0000000000e+00 -0.0000000000e+00 -1.9367591205e+03 1.9367591205e+03 0.0000000000e+00 0.0000e+00 1.0000e+00
      -13  1    1    2    0    0 -6.1001249243e+02 +1.7097362421e+03 -7.9944092089e+02 1.9835370036e+03 0.0000000000e+00 0.0000e+00 1.0000e+00
       13  1    1    2    0    0 +6.1001249243e+02 -1.7097362421e+03 +9.6559248873e+02 2.0561328053e+03 0.0000000000e+00 0.0000e+00 -1.0000e+00
<mgrwt>
<rscale>  0 0.40362515E+04</rscale>
<asrwt>0</asrwt>
<pdfrwt beam="1">  1        2 0.32352472E+00 0.40362515E+04</pdfrwt>
<pdfrwt beam="2">  1       -2 0.29796294E+00 0.40362515E+04</pdfrwt>
<totfact> 0.14253922E-01</totfact>
</mgrwt>
<rwgt>
<wgt id='morphing_basis_vector_1'> +1.6444745e-05 </wgt>
<wgt id='morphing_basis_vector_2'> +1.1370804e-05 </wgt>
<wgt id='morphing_basis_vector_3'> +1.8105970e-05 </wgt>
<wgt id='morphing_basis_vector_4'> +1.2714316e-05 </wgt>
<wgt id='morphing_basis_vector_5'> +2.0591495e-05 </wgt>
</rwgt>
</event>
<event>
 4      1 +4.5322000e-10 3.96822000e+03 7.81860800e-03 7.54642900e-02
        2 -1    0    0  501    0 +0.0000000000e+00 +0.0000000000e+00 +3.0218862297e+03 3.0218862297e+03 0.0000000000e+00 0.0000e+00 -1.0000e+00
       -2 -1    0    0    0  501 -0.0000000000e+00 -0.0000000000e+00 -1.3027269471e+03 1.3027269471e+03 0.0000000000e+00 0.0000e+00 1.0000e+00
      -13  1    1    2    0    0 +1.3263344870e+03 +3.8001406027e+02 -6.9435551677e+02 1.5445722518e+03 0.0000000000e+00 0.0000e+00 1.0000e+00
       13  1    1    2    0    0 -1.3263344870e+03 -3.8001406027e+02 +2.4135147994e+03 2.7800409249e+03 0.0000000000e+00 0.0000e+00 -1.0000e+00
<mgrwt>
<rscale>  0 0.39682201E+04</rscale>
<asrwt>0</asrwt>
<pdfrwt beam="1">  1        2 0.46490557E+00 0.39682201E+04</pdfrwt>
<pdfrwt beam="2">  1       -2 0.20041953E+00 0.39682201E+04</pdfrwt>
<totfact> 0.18963224E-01</totfact>
</mgrwt>
<rwgt>
<wgt id='morphing_basis_vector_1'> +1.5291585e-05 </wgt>
<wgt id='morphing_basis_vector_2'> +1.0397031e-05 </wgt>
<wgt id='morphing_basis_vector_3'> +1.6791759e-05 </wgt>
<wgt id='morphing_basis_vector_4'> +1.2038545e-05 </wgt>
<wgt id='morphing_basis_vector_5'> +1.9245091e-05 </wgt>
</rwgt>
</event>
<event>
 4      1 +4.5322000e-10 3.96402600e+03 7.81860800e-03 7.54718500e-02
        2 -1    0    0  501    0 +0.0000000000e+00 +0.0000000000e+00 +3.5935823091e+03 3.5935823091e+03 0.0000000000e+00 0.0000e+00 1.0000e+00
       -2 -1    0    0    0  501 -0.0000000000e+00 -0.0000000000e+00 -1.0931644075e+03 1.0931644075e+03 0.0000000000e+00 0.0000e+00 -1.0000e+00
      -13  1    1    2    0    0 -3.6335565889e+02 +1.2195126761e+03 -5.4642611267e+02 1.3848537824e+03 0.0000000000e+00 0.0000e+00 -1.0000e+00
       13  1    1    2    0    0 +3.6335565889e+02 -1.2195126761e+03 +3.0468440143e+03 3.3018929342e+03 0.0000000000e+00 0.0000e+00 1.0000e+00
<mgrwt>
<rscale>  0 0.39640264E+04</rscale>
<asrwt>0</asrwt>
<pdfrwt beam="1">  1        2 0.55285881E+00 0.39640264E+04</pdfrwt>
<pdfrwt beam="2">  1       -2 0.16817914E+00 0.39640264E+04</pdfrwt>
<totfact> 0.13216545E-01</totfact>
</mgrwt>
<rwgt>
<wgt id='morphing_basis_vector_1'> +1.5221597e-05 </wgt>
<wgt id='morphing_basis_vector_2'> +1.0336238e-05 </wgt>
<wgt id='morphing_basis_vector_3'> +1.6711636e-05 </wgt>
<wgt id='morphing_basis_vector_4'> +1.1999717e-05 </wgt>
<wgt id='morphing_basis_vector_5'> +1.9164475e-05 </wgt>
</rwgt>
</event>
<event>
 4      1 +4.5322000e-10 4.03032400e+03 7.81860800e-03 7.53533400e-02
        2 -1    0    0  501    0 +0.0000000000e+00 +0.0000000000e+00 +2.6507910057e+03 2.6507910057e+03 0.0000000000e+00 0.0000e+00 1.0000e+00
       -2 -1    0    0    0  501 -0.0000000000e+00 -0.0000000000e+00 -1.5319496818e+03 1.5319496818e+03 0.0000000000e+00 0.0000e+00 -1.0000e+00
      -13  1    1    2    0    0 +1.2457014142e+03 -8.6199081296e+01 -1.0820627345e+03 1.6522899432e+03 0.0000000000e+00 0.0000e+00 -1.0000e+00
       13  1    1    2    0    0 -1.2457014142e+03 +8.6199081296e+01 +2.2009040584e+03 2.5304507443e+03 0.0000000000e+00 0.0000e+00 1.0000e+00
<mgrwt>
<rscale>  0 0.40303243E+04</rscale>
<asrwt>0</asrwt>
<pdfrwt beam="1">  1        2 0.40781400E+00 0.40303243E+04</pdfrwt>
<pdfrwt beam="2">  1       -2 0.23568457E+00 0.40303243E+04</pdfrwt>
<totfact> 0.18165519E-01</totfact>
</mgrwt>
<rwgt>
<wgt id='morphing_basis_vector_1'> +1.6258282e-05 </wgt>
<wgt id='morphing_basis_vector_2'> +1.1038107e-05 </wgt>
<wgt id='morphing_basis_vector_3'> +1.7854500e-05 </wgt>
<wgt id='morphing_basis_vector_4'> +1.2831063e-05 </wgt>
<wgt id='morphing_basis_vector_5'> +2.0486189e-05 </wgt>
</rwgt>
</event>
<event>
 4      1 +4.5322000e-10 4.02602100e+03 7.81860800e-03 7.53609600e-02
        2 -1    0    0  501    0 +0.0000000000e+00 +0.0000000000e+00 +3.8926321104e+03 3.8926321104e+03 0.0000000000e+00 0.0000e+00 1.0000e+00
       -2 -1    0    0    0  501 -0.0000000000e+00 -0.0000000000e+00 -1.0409951889e+03 1.0409951889e+03 0.0000000000e+00 0.0000e+00 -1.0000e+00
      -13  1    1    2    0    0 -4.7432409461e+02 -1.9249997261e+03 +1.8531493077e+03 2.7138109089e+03 0.0000000000e+00 0.0000e+00 -1.0000e+00
       13  1    1    2    0    0 +4.7432409461e+02 +1.9249997261e+03 +9.9848761380e+02 2.2198163904e+03 0.0000000000e+00 0.0000e+00 1.0000e+00
<mgrwt>
<rscale>  0 0.40260210E+04</rscale>
<asrwt>0</asrwt>
<pdfrwt beam="1">  1        2 0.59886647E+00 0.40260210E+04</pdfrwt>
<pdfrwt beam="2">  1       -2 0.16015311E+00 0.40260210E+04</pdfrwt>
<totfact> 0.88600135E-02</totfact>
</mgrwt>
<rwgt>
<wgt id='morphing_basis_vector_1'> +1.7268679e-05 </wgt>
<wgt id='morphing_basis_vector_2'> +1.4163715e-05 </wgt>
<wgt id='morphing_basis_vector_3'> +1.9510927e-05 </wgt>
<wgt id='morphing_basis_vector_4'> +1.0492395e-05 </wgt>
<wgt id='morphing_basis_vector_5'> +2.0208105e-05 </wgt>
</rwgt>
</event>
<event>
 4      1 +4.5322000e-10 4.46353300e+03 7.81860800e-03 7.46319500e-02
        2 -1    0    0  501    0 +0.0000000000e+00 +0.0000000000e+00 +2.1401392230e+03 2.1401392230e+03 0.0000000000e+00 0.0000e+00 1.0000e+00
       -2 -1    0    0    0  501 -0.0000000000e+00 -0.0000000000e+00 -2.3273166488e+03 2.3273166488e+03 0.0000000000e+00 0.0000e+00 -1.0000e+00
      -13  1    1    2    0    0 +9.3902087466e+02 -1.9023578530e+02 -2.1110069625e+03 2.3182537076e+03 0.0000000000e+00 0.0000e+00 -1.0000e+00
       13  1    1    2    0    0 -9.3902087466e+02 +1.9023578530e+02 +1.9238295366e+03 2.1492021643e+03 0.0000000000e+00 0.0000e+00 1.0000e+00
<mgrwt>
<rscale>  0 0.44635330E+04</rscale>
<asrwt>0</asrwt>
<pdfrwt beam="1">  1        2 0.32925219E+00 0.44635330E+04</pdfrwt>
<pdfrwt beam="2">  1       -2 0.35804871E+00 0.44635330E+04</pdfrwt>
<totfact> 0.52638599E-02</totfact>
</mgrwt>
<rwgt>
<wgt id='morphing_basis_vector_1'> +2.4401023e-05 </wgt>
<wgt id='morphing_basis_vector_2'> +1.6558241e-05 </wgt>
<wgt id='morphing_basis_vector_3'> +2.6837300e-05 </wgt>
<wgt id='morphing_basis_vector_4'> +1.9361945e-05 </wgt>
<wgt id='morphing_basis_vector_5'> +3.0876621e-05 </wgt>
</rwgt>
</event>
<event>
 4      1 +4.5322000e-10 3.95895900e+03 7.81860800e-03 7.54810100e-02
        2 -1    0    0  501    0 +0.0000000000e+00 +0.0000000000e+00 +1.9380021998e+03 1.9380021998e+03 0.0000000000e+00 0.0000e+00 1.0000e+00
       -2 -1    0    0    0  501 -0.0000000000e+00 -0.0000000000e+00 -2.0218444949e+03 2.0218444949e+03 0.0000000000e+00 0.0000e+00 -1.0000e+00
      -13  1    1    2    0    0 +1.1579254222e+03 -1.1368370261e+02 -1.6437245218e+03 2.0138385167e+03 0.0000000000e+00 0.0000e+00 -1.0000e+00
       13  1    1    2    0    0 -1.1579254222e+03 +1.1368370261e+02 +1.5598822267e+03 1.9460081780e+03 0.0000000000e+00 0.0000e+00 1.0000e+00
<mgrwt>
<rscale>  0 0.39589590E+04</rscale>
<asrwt>0</asrwt>
<pdfrwt beam="1">  1        2 0.29815418E+00 0.39589590E+04</pdfrwt>
<pdfrwt beam="2">  1       -2 0.31105300E+00 0.39589590E+04</pdfrwt>
<totfact> 0.14510765E-01</totfact>
</mgrwt>
<rwgt>
<wgt id='morphing_basis_vector_1'> +1.5140439e-05 </wgt>
<wgt id='morphing_basis_vector_2'> +1.0272197e-05 </wgt>
<wgt id='morphing_basis_vector_3'> +1.6620159e-05 </wgt>
<wgt id='morphing_basis_vector_4'> +1.1946372e-05 </wgt>
<wgt id='morphing_basis_vector_5'> +1.9066857e-05 </wgt>
</rwgt>
</event>
<event>
 4      1 +4.5322000e-10 3.88590800e+03 7.81860800e-03 7.56145600e-02
        2 -1    0    0  501    0 +0.0000000000e+00 +0.0000000000e+00 +2.9515989290e+03 2.9515989290e+03 0.0000000000e+00 0.0000e+00 -1.0000e+00
       -2 -1    0    0    0  501 -0.0000000000e+00 -0.0000000000e+00 -1.2789915379e+03 1.2789915379e+03 0.0000000000e+00 0.0000e+00 1.0000e+00
      -13  1    1    2    0    0 +1.0386911121e+03 +1.0922091992e+03 -4.9852939074e+02 1.5875552634e+03 0.0000000000e+00 0.0000e+00 1.0000e+00
       13  1    1    2    0    0 -1.0386911121e+03 -1.0922091992e+03 +2.1711367819e+03 2.6430352035e+03 0.0000000000e+00 0.0000e+00 -1.0000e+00
<mgrwt>
<rscale>  0 0.38859079E+04</rscale>
<asrwt>0</asrwt>
<pdfrwt beam="1">  1        2 0.45409214E+00 0.38859079E+04</pdfrwt>
<pdfrwt beam="2">  1       -2 0.19676793E+00 0.38859079E+04</pdfrwt>
<totfact> 0.22554312E-01</totfact>
</mgrwt>
<rwgt>
<wgt id='morphing_basis_vector_1'> +1.4081889e-05 </wgt>
<wgt id='morphing_basis_vector_2'> +9.6033057e-06 </wgt>
<wgt id='morphing_basis_vector_3'> +1.5463929e-05 </wgt>
<wgt id='morphing_basis_vector_4'> +1.1036389e-05 </wgt>
<wgt id='morphing_basis_vector_5'> +1.7687220e-05 </wgt>
</rwgt>
</event>
<event>
 4      1 +4.5322000e-10 4.07263300e+03 7.81860800e-03 7.52789200e-02
        2 -1    0    0  501    0 +0.0000000000e+00 +0.0000000000e+00 +3.2596225930e+03 3.2596225930e+03 0.0000000000e+00 0.0000e+00 -1.0000e+00
       -2 -1    0    0    0  501 -0.0000000000e+00 -0.0000000000e+00 -1.2721059946e+03 1.2721059946e+03 0.0000000000e+00 0.0000e+00 1.0000e+00
      -13  1    1    2    0    0 +1.0133953183e+03 -3.2976276101e+02 -9.3703029696e+02 1.4190628341e+03 0.0000000000e+00 0.0000e+00 1.0000e+00
       13  1    1    2    0    0 -1.0133953183e+03 +3.2976276101e+02 +2.9245468954e+03 3.1126657535e+03 0.0000000000e+00 0.0000e+00 -1.0000e+00
<mgrwt>
<rscale>  0 0.40726333E+04</rscale>
<asrwt>0</asrwt>
<pdfrwt beam="1">  1        2 0.50148040E+00 0.40726333E+04</pdfrwt>
<pdfrwt beam="2">  1       -2 0.19570862E+00 0.40726333E+04</pdfrwt>
<totfact> 0.14093049E-01</totfact>
</mgrwt>
<rwgt>
<wgt id='morphing_basis_vector_1'> +1.6942641e-05 </wgt>
<wgt id='morphing_basis_vector_2'> +1.1491470e-05 </wgt>
<wgt id='morphing_basis_vector_3'> +1.8606817e-05 </wgt>
<wgt id='morphing_basis_vector_4'> +1.3392936e-05 </wgt>
<wgt id='morphing_basis_vector_5'> +2.1365368e-05 </wgt>
</rwgt>
</event>
<event>
 4      1 +4.5322000e-10 4.44178600e+03 7.81860800e-03 7.46661500e-02
        2 -1    0    0  501    0 +0.0000000000e+00 +0.0000000000e+00 +2.4798842683e+03 2.4798842683e+03 0.0000000000e+00 0.0000e+00 -1.0000e+00
       -2 -1    0    0    0  501 -0.0000000000e+00 -0.0000000000e+00 -1.9889495181e+03 1.9889495181e+03 0.0000000000e+00 0.0000e+00 1.0000e+00
      -13  1    1    2    0    0 +1.6838624282e+03 +9.7415120710e+02 -8.3250547343e+02 2.1159935289e+03 0.0000000000e+00 0.0000e+00 1.0000e+00
       13  1    1    2    0    0 -1.6838624282e+03 -9.7415120710e+02 +1.3234402236e+03 2.3528402574e+03 0.0000000000e+00 0.0000e+00 -1.0000e+00
<mgrwt>
<rscale>  0 0.44417855E+04</rscale>
<asrwt>0</asrwt>
<pdfrwt beam="1">  1        2 0.38152065E+00 0.44417855E+04</pdfrwt>
<pdfrwt beam="2">  1       -2 0.30599224E+00 0.44417855E+04</pdfrwt>
<totfact> 0.73658237E-02</totfact>
</mgrwt>
<rwgt>
<wgt id='morphing_basis_vector_1'> +2.4045899e-05 </wgt>
<wgt id='morphing_basis_vector_2'> +1.6576352e-05 </wgt>
<wgt id='morphing_basis_vector_3'> +2.6503887e-05 </wgt>
<wgt id='morphing_basis_vector_4'> +1.8741658e-05 </wgt>
<wgt id='morphing_basis_vector_5'> +3.0256467e-05 </wgt>
</rwgt>
</event>
<event>
 4      1 +4.5322000e-10 3.85761000e+03 7.81860800e-03 7.56671000e-02
        2 -1    0    0  501    0 +0.0000000000e+00 +0.0000000000e+00 +2.8339307991e+03 2.8339307991e+03 0.0000000000e+00 0.0000e+00 -1.0000e+00
       -2 -1    0    0    0  501 -0.0000000000e+00 -0.0000000000e+00 -1.3127660747e+03 1.3127660747e+03 0.0000000000e+00 0.0000e+00 1.0000e+00
      -13  1    1    2    0    0 +1.4409552395e+03 +1.1311016122e+03 +1.1155981706e+02 1.8352625022e+03 0.0000000000e+00 0.0000e+00 1.0000e+00
       13  1    1    2    0    0 -1.4409552395e+03 -1.1311016122e+03 +1.4096049074e+03 2.3114343716e+03 0.0000000000e+00 0.0000e+00 -1.0000e+00
<mgrwt>
<rscale>  0 0.38576097E+04</rscale>
<asrwt>0</asrwt>
<pdfrwt beam="1">  1        2 0.43598935E+00 0.38576097E+04</pdfrwt>
<pdfrwt beam="2">  1       -2 0.20196401E+00 0.38576097E+04</pdfrwt>
<totfact> 0.24627787E-01</totfact>
</mgrwt>
<rwgt>
<wgt id='morphing_basis_vector_1'> +1.3798062e-05 </wgt>
<wgt id='morphing_basis_vector_2'> +9.6791809e-06 </wgt>
<wgt id='morphing_basis_vector_3'> +1.5210156e-05 </wgt>
<wgt id='morphing_basis_vector_4'> +1.0463939e-05 </wgt>
<wgt id='morphing_basis_vector_5'> +1.7153911e-05 </wgt>
</rwgt>
</event>
<event>
 4      1 +4.5322000e-10 4.32639500e+03 7.81860800e-03 7.48510000e-02
        2 -1    0    0  501    0 +0.0000000000e+00 +0.0000000000e+00 +2.1529236768e+03 2.1529236768e+03 0.0000000000e+00 0.0000e+00 -1.0000e+00
       -2 -1    0    0    0  501 -0.0000000000e+00 -0.0000000000e+00 -2.1735201163e+03 2.1735201163e+03 0.0000000000e+00 0.0000e+00 1.0000e+00
      -13  1    1    2    0    0 +7.4868494030e+02 +6.3087207875e+02 -1.9392820275e+03 2.1724050040e+03 0.0000000000e+00 0.0000e+00 1.0000e+00
       13  1    1    2    0    0 -7.4868494030e+02 -6.3087207875e+02 +1.9186855879e+03 2.1540387891e+03 0.0000000000e+00 0.0000e+00 -1.0000e+00
<mgrwt>
<rscale>  0 0.43263948E+04</rscale>
<asrwt>0</asrwt>
<pdfrwt beam="1">  1        2 0.33121903E+00 0.43263948E+04</pdfrwt>
<pdfrwt beam="2">  1       -2 0.33438771E+00 0.43263948E+04</pdfrwt>
<totfact> 0.74595816E-02</totfact>
</mgrwt>
<rwgt>
<wgt id='morphing_basis_vector_1'> +2.1549654e-05 </wgt>
<wgt id='morphing_basis_vector_2'> +1.4620006e-05 </wgt>
<wgt id='morphing_basis_vector_3'> +2.3689826e-05 </wgt>
<wgt id='morphing_basis_vector_4'> +1.7080018e-05 </wgt>
<wgt id='morphing_basis_vector_5'> +2.7239230e-05 </wgt>
</rwgt>
</event>
<event>
 4      1 +4.5322000e-10 4.04481700e+03 7.81860800e-03 7.53277400e-02
        2 -1    0    0  501    0 +0.0000000000e+00 +0.0000000000e+00 +2.3299214524e+03 2.3299214524e+03 0.0000000000e+00 0.0000e+00 1.0000e+00
       -2 -1    0    0    0  501 -0.0000000000e+00 -0.0000000000e+00 -1.7554821597e+03 1.7554821597e+03 0.0000000000e+00 0.0000e+00 -1.0000e+00
      -13  1    1    2    0    0 -1.4721903711e+03 +9.8416678374e+02 -6.9941730252e+02 1.9039730329e+03 0.0000000000e+00 0.0000e+00 -1.0000e+00
       13  1    1    2    0    0 +1.4721903711e+03 -9.8416678374e+02 +1.2738565952e+03 2.1814305792e+03 0.0000000000e+00 0.0000e+00 1.0000e+00
<mgrwt>
<rscale>  0 0.40448167E+04</rscale>
<asrwt>0</asrwt>
<pdfrwt beam="1">  1        2 0.35844945E+00 0.40448167E+04</pdfrwt>
<pdfrwt beam="2">  1       -2 0.27007418E+00 0.40448167E+04</pdfrwt>
<totfact> 0.16319445E-01</totfact>
</mgrwt>
<rwgt>
<wgt id='morphing_basis_vector_1'> +1.6563157e-05 </wgt>
<wgt id='morphing_basis_vector_2'> +1.1405955e-05 </wgt>
<wgt id='morphing_basis_vector_3'> +1.8226531e-05 </wgt>
<wgt id='morphing_basis_vector_4'> +1.2867357e-05 </wgt>
<wgt id='morphing_basis_vector_5'> +2.0771383e-05 </wgt>
</rwgt>
</event>
<event>
 4      1 +4.5322000e-10 4.16733600e+03 7.81860800e-03 7.51156100e-02
        2 -1    0    0  501    0 +0.0000000000e+00 +0.0000000000e+00 +2.5265477238e+03 2.5265477238e+03 0.0000000000e+00 0.0000e+00 1.0000e+00
       -2 -1    0    0    0  501 -0.0000000000e+00 -0.0000000000e+00 -1.7184205011e+03 1.7184205011e+03 0.0000000000e+00 0.0000e+00 -1.0000e+00
      -13  1    1    2    0    0 +1.8632755395e+03 -7.7967733217e+02 -1.1731012731e+02 2.0232286436e+03 0.0000000000e+00 0.0000e+00 -1.0000e+00
       13  1    1    2    0    0 -1.8632755395e+03 +7.7967733217e+02 +9.2543735000e+02 2.2217395813e+03 0.0000000000e+00 0.0000e+00 1.0000e+00
<mgrwt>
<rscale>  0 0.41673356E+04</rscale>
<asrwt>0</asrwt>
<pdfrwt beam="1">  1        2 0.38869965E+00 0.41673356E+04</pdfrwt>
<pdfrwt beam="2">  1       -2 0.26437239E+00 0.41673356E+04</pdfrwt>
<totfact> 0.13530954E-01</totfact>
</mgrwt>
<rwgt>
<wgt id='morphing_basis_vector_1'> +1.8828477e-05 </wgt>
<wgt id='morphing_basis_vector_2'> +1.3367040e-05 </wgt>
<wgt id='morphing_basis_vector_3'> +2.0820216e-05 </wgt>
<wgt id='morphing_basis_vector_4'> +1.4133089e-05 </wgt>
<wgt id='morphing_basis_vector_5'> +2.3386734e-05 </wgt>
</rwgt>
</event>
<event>
 4      1 +4.5322000e-10 4.08649500e+03 7.81860800e-03 7.52547400e-02
        2 -1    0    0  501    0 +0.0000000000e+00 +0.0000000000e+00 +2.2894877768e+03 2.2894877768e+03 0.0000000000e+00 0.0000e+00 1.0000e+00
       -2 -1    0    0    0  501 -0.0000000000e+00 -0.0000000000e+00 -1.8234910510e+03 1.8234910510e+03 0.0000000000e+00 0.0000e+00 -1.0000e+00
      -13  1    1    2    0    0 +1.6725814478e+03 +8.9138895962e+02 -5.3533453611e+02 1.9694380017e+03 0.0000000000e+00 0.0000e+00 -1.0000e+00
       13  1    1    2    0    0 -1.6725814478e+03 -8.9138895962e+02 +1.0013312619e+03 2.1435408261e+03 0.0000000000e+00 0.0000e+00 1.0000e+00
<mgrwt>
<rscale>  0 0.40864951E+04</rscale>
<asrwt>0</asrwt>
<pdfrwt beam="1">  1        2 0.35222889E+00 0.40864951E+04</pdfrwt>
<pdfrwt beam="2">  1       -2 0.28053709E+00 0.40864951E+04</pdfrwt>
<totfact> 0.14567294E-01</totfact>
</mgrwt>
<rwgt>
<wgt id='morphing_basis_vector_1'> +1.7311397e-05 </wgt>
<wgt id='morphing_basis_vector_2'> +1.2054178e-05 </wgt>
<wgt id='morphing_basis_vector_3'> +1.9083158e-05 </wgt>
<wgt id='morphing_basis_vector_4'> +1.3284795e-05 </wgt>
<wgt id='morphing_basis_vector_5'> +2.1634774e-05 </wgt>
</rwgt>
</event>
<event>
 4      1 +4.5322000e-10 4.33431000e+03 7.81860800e-03 7.48381400e-02
        2 -1    0    0  501    0 +0.0000000000e+00 +0.0000000000e+00 +1.7953254411e+03 1.7953254411e+03 0.0000000000e+00 0.0000e+00 -1.0000e+00
       -2 -1    0    0    0  501 -0.0000000000e+00 -0.0000000000e+00 -2.6159942036e+03 2.6159942036e+03 0.0000000000e+00 0.0000e+00 1.0000e+00
      -13  1    1    2    0    0 +1.4161509458e+03 +9.2670010313e+02 -1.7880112261e+03 2.4619587176e+03 0.0000000000e+00 0.0000e+00 1.0000e+00
       13  1    1    2    0    0 -1.4161509458e+03 -9.2670010313e+02 +9.6734246351e+02 1.9493609271e+03 0.0000000000e+00 0.0000e+00 -1.0000e+00
<mgrwt>
<rscale>  0 0.43343101E+04</rscale>
<asrwt>0</asrwt>
<pdfrwt beam="1">  1        2 0.27620391E+00 0.43343101E+04</pdfrwt>
<pdfrwt beam="2">  1       -2 0.40246065E+00 0.43343101E+04</pdfrwt>
<totfact> 0.42903407E-02</totfact>
</mgrwt>
<rwgt>
<wgt id='morphing_basis_vector_1'> +2.1751246e-05 </wgt>
<wgt id='morphing_basis_vector_2'> +1.4856829e-05 </wgt>
<wgt id='morphing_basis_vector_3'> +2.3934787e-05 </wgt>
<wgt id='morphing_basis_vector_4'> +1.7112209e-05 </wgt>
<wgt id='morphing_basis_vector_5'> +2.7432144e-05 </wgt>
</rwgt>
</event>
<event>
 4      1 +4.5322000e-10 3.91268600e+03 7.81860800e-03 7.55652600e-02
        2 -1    0    0  501    0 +0.0000000000e+00 +0.0000000000e+00 +3.0262330819e+03 3.0262330819e+03 0.0000000000e+00 0.0000e+00 -1.0000e+00
       -2 -1    0    0    0  501 -0.0000000000e+00 -0.0000000000e+00 -1.2647005084e+03 1.2647005084e+03 0.0000000000e+00 0.0000e+00 1.0000e+00
      -13  1    1    2    0    0 -1.6769824976e+03 -9.4022847093e+02 +4.8387002712e+02 1.9825312300e+03 0.0000000000e+00 0.0000e+00 1.0000e+00
       13  1    1    2    0    0 +1.6769824976e+03 +9.4022847093e+02 +1.2776625465e+03 2.3084023604e+03 0.0000000000e+00 0.0000e+00 -1.0000e+00
<mgrwt>
<rscale>  0 0.39126863E+04</rscale>
<asrwt>0</asrwt>
<pdfrwt beam="1">  1        2 0.46557432E+00 0.39126863E+04</pdfrwt>
<pdfrwt beam="2">  1       -2 0.19456931E+00 0.39126863E+04</pdfrwt>
<totfact> 0.20888875E-01</totfact>
</mgrwt>
<rwgt>
<wgt id='morphing_basis_vector_1'> +1.4707041e-05 </wgt>
<wgt id='morphing_basis_vector_2'> +1.0561313e-05 </wgt>
<wgt id='morphing_basis_vector_3'> +1.6271144e-05 </wgt>
<wgt id='morphing_basis_vector_4'> +1.0848513e-05 </wgt>
<wgt id='morphing_basis_vector_5'> +1.8141072e-05 </wgt>
</rwgt>
</event>
<event>
 4      1 +4.5322000e-10 3.96927000e+03 7.81860800e-03 7.54623900e-02
        2 -1    0    0  501    0 +0.0000000000e+00 +0.0000000000e+00 +2.7026746490e+03 2.7026746490e+03 0.0000000000e+00 0.0000e+00 1.0000e+00
       -2 -1    0    0    0  501 -0.0000000000e+00 -0.0000000000e+00 -1.4573622132e+03 1.4573622132e+03 0.0000000000e+00 0.0000e+00 -1.0000e+00
      -13  1    1    2    0    0 +1.7435981278e+02 -4.9608762749e+02 -1.3830246101e+03 1.4796152712e+03 0.0000000000e+00 0.0000e+00 -1.0000e+00
       13  1    1    2    0    0 -1.7435981278e+02 +4.9608762749e+02 +2.6283370459e+03 2.6804215910e+03 0.0000000000e+00 0.0000e+00 1.0000e+00
<mgrwt>
<rscale>  0 0.39692699E+04</rscale>
<asrwt>0</asrwt>
<pdfrwt beam="1">  1        2 0.41579610E+00 0.39692699E+04</pdfrwt>
<pdfrwt beam="2">  1       -2 0.22420957E+00 0.39692699E+04</pdfrwt>
<totfact> 0.20422979E-01</totfact>
</mgrwt>
<rwgt>
<wgt id='morphing_basis_vector_1'> +1.5291213e-05 </wgt>
<wgt id='morphing_basis_vector_2'> +1.0359585e-05 </wgt>
<wgt id='morphing_basis_vector_3'> +1.6783107e-05 </wgt>
<wgt id='morphing_basis_vector_4'> +1.2086192e-05 </wgt>
<wgt id='morphing_basis_vector_5'> +1.9268470e-05 </wgt>
</rwgt>
</event>
<event>
 4      1 +4.5322000e-10 3.94166800e+03 7.81860800e-03 7.55123500e-02
        2 -1    0    0  501    0 +0.0000000000e+00 +0.0000000000e+00 +3.0874149555e+03 3.0874149555e+03 0.0000000000e+00 0.0000e+00 1.0000e+00
       -2 -1    0    0    0  501 -0.0000000000e+00 -0.0000000000e+00 -1.2580706108e+03 1.2580706108e+03 0.0000000000e+00 0.0000e+00 -1.0000e+00
      -13  1    1    2    0    0 +7.2192835063e+02 -1.0505183364e+03 -7.4245742053e+02 1.4751312958e+03 0.0000000000e+00 0.0000e+00 -1.0000e+00
       13  1    1    2    0    0 -7.2192835063e+02 +1.0505183364e+03 +2.5718017653e+03 2.8703542705e+03 0.0000000000e+00 0.0000e+00 1.0000e+00
<mgrwt>
<rscale>  0 0.39416677E+04</rscale>
<asrwt>0</asrwt>
<pdfrwt beam="1">  1        2 0.47498691E+00 0.39416677E+04</pdfrwt>
<pdfrwt beam="2">  1       -2 0.19354933E+00 0.39416677E+04</pdfrwt>
<totfact> 0.19323053E-01</totfact>
</mgrwt>
<rwgt>
<wgt id='morphing_basis_vector_1'> +1.4883249e-05 </wgt>
<wgt id='morphing_basis_vector_2'> +1.0106696e-05 </wgt>
<wgt id='morphing_basis_vector_3'> +1.6338566e-05 </wgt>
<wgt id='morphing_basis_vector_4'> +1.1729074e-05 </wgt>
<wgt id='morphing_basis_vector_5'> +1.8733511e-05 </wgt>
</rwgt>
</event>
<event>
 4      1 +4.5322000e-10 4.23041400e+03 7.81860800e-03 7.50092700e-02
        2 -1    0    0  501    0 +0.0000000000e+00 +0.0000000000e+00 +1.8910182123e+03 1.8910182123e+03 0.0000000000e+00 0.0000e+00 1.0000e+00
       -2 -1    0    0    0  501 -0.0000000000e+00 -0.0000000000e+00 -2.3659741606e+03 2.3659741606e+03 0.0000000000e+00 0.0000e+00 -1.0000e+00
      -13  1    1    2    0    0 -1.4384693014e+03 -7.8232287149e+01 -1.7960101592e+03 2.3023828339e+03 0.0000000000e+00 0.0000e+00 -1.0000e+00
       13  1    1    2    0    0 +1.4384693014e+03 +7.8232287149e+01 +1.3210542109e+03 1.9546095390e+03 0.0000000000e+00 0.0000e+00 1.0000e+00
<mgrwt>
<rscale>  0 0.42304138E+04</rscale>
<asrwt>0</asrwt>
<pdfrwt beam="1">  1        2 0.29092588E+00 0.42304138E+04</pdfrwt>
<pdfrwt beam="2">  1       -2 0.36399602E+00 0.42304138E+04</pdfrwt>
<totfact> 0.67819741E-02</totfact>
</mgrwt>
<rwgt>
<wgt id='morphing_basis_vector_1'> +1.9724515e-05 </wgt>
<wgt id='morphing_basis_vector_2'> +1.3415911e-05 </wgt>
<wgt id='morphing_basis_vector_3'> +2.1683748e-05 </wgt>
<wgt id='morphing_basis_vector_4'> +1.5573030e-05 </wgt>
<wgt id='morphing_basis_vector_5'> +2.4888661e-05 </wgt>
</rwgt>
</event>
<event>
 4      1 +4.5322000e-10 3.90457300e+03 7.81860800e-03 7.55801500e-02
        2 -1    0    0  501    0 +0.0000000000e+00 +0.0000000000e+00 +2.9515431875e+03 2.9515431875e+03 0.0000000000e+00 0.0000e+00 -1.0000e+00
       -2 -1    0    0    0  501 -0.0000000000e+00 -0.0000000000e+00 -1.2913319895e+03 1.2913319895e+03 0.0000000000e+00 0.0000e+00 1.0000e+00
      -13  1    1    2    0    0 -1.8591815814e+03 -5.3282837525e+02 +5.4064247105e+02 2.0081724307e+03 0.0000000000e+00 0.0000e+00 1.0000e+00
       13  1    1    2    0    0 +1.8591815814e+03 +5.3282837525e+02 +1.1195687270e+03 2.2347027463e+03 0.0000000000e+00 0.0000e+00 -1.0000e+00
<mgrwt>
<rscale>  0 0.39045728E+04</rscale>
<asrwt>0</asrwt>
<pdfrwt beam="1">  1        2 0.45408356E+00 0.39045728E+04</pdfrwt>
<pdfrwt beam="2">  1       -2 0.19866646E+00 0.39045728E+04</pdfrwt>
<totfact> 0.21812183E-01</totfact>
</mgrwt>
<rwgt>
<wgt id='morphing_basis_vector_1'> +1.4640624e-05 </wgt>
<wgt id='morphing_basis_vector_2'> +1.0634540e-05 </wgt>
<wgt id='morphing_basis_vector_3'> +1.6223985e-05 </wgt>
<wgt id='morphing_basis_vector_4'> +1.0643102e-05 </wgt>
<wgt id='morphing_basis_vector_5'> +1.7980700e-05 </wgt>
</rwgt>
</event>
<event>
 4      1 +4.5322000e-10 4.15813600e+03 7.81860800e-03 7.51312800e-02
        2 -1    0    0  501    0 +0.0000000000e+00 +0.0000000000e+00 +4.2149940161e+03 4.2149940161e+03 0.0000000000e+00 0.0000e+00 -1.0000e+00
       -2 -1    0    0    0  501 -0.0000000000e+00 -0.0000000000e+00 -1.0255113950e+03 1.0255113950e+03 0.0000000000e+00 0.0000e+00 1.0000e+00
      -13  1    1    2    0    0 +4.8081182747e+02 -7.7507224251e+02 -7.5990105721e+02 1.1871674740e+03 0.0000000000e+00 0.0000e+00 1.0000e+00
       13  1    1    2    0    0 -4.8081182747e+02 +7.7507224251e+02 +3.9493836783e+03 4.0533379372e+03 0.0000000000e+00 0.0000e+00 -1.0000e+00
<mgrwt>
<rscale>  0 0.41581363E+04</rscale>
<asrwt>0</asrwt>
<pdfrwt beam="1">  1        2 0.64846061E+00 0.41581363E+04</pdfrwt>
<pdfrwt beam="2">  1       -2 0.15777099E+00 0.41581363E+04</pdfrwt>
<totfact> 0.48075577E-02</totfact>
</mgrwt>
<rwgt>
<wgt id='morphing_basis_vector_1'> +1.8400833e-05 </wgt>
<wgt id='morphing_basis_vector_2'> +1.2477554e-05 </wgt>
<wgt id='morphing_basis_vector_3'> +2.0214477e-05 </wgt>
<wgt id='morphing_basis_vector_4'> +1.4564710e-05 </wgt>
<wgt id='morphing_basis_vector_5'> +2.3226407e-05 </wgt>
</rwgt>
</event>
<event>
 4      1 +4.5322000e-10 3.87973900e+03 7.81860800e-03 7.56259700e-02
        2 -1    0    0  501    0 +0.0000000000e+00 +0.0000000000e+00 +1.5696950996e+03 1.5696950996e+03 0.0000000000e+00 0.0000e+00 -1.0000e+00
       -2 -1    0    0    0  501 -0.0000000000e+00 -0.0000000000e+00 -2.3973409293e+03 2.3973409293e+03 0.0000000000e+00 0.0000e+00 1.0000e+00
      -13  1    1    2    0    0 -6.3864840556e+02 -1.7159556146e+03 -1.0691164998e+03 2.1202324277e+03 0.0000000000e+00 0.0000e+00 1.0000e+00
       13  1    1    2    0    0 +6.3864840556e+02 +1.7159556146e+03 +2.4147067006e+02 1.8468036013e+03 0.0000000000e+00 0.0000e+00 -1.0000e+00
<mgrwt>
<rscale>  0 0.38797393E+04</rscale>
<asrwt>0</asrwt>
<pdfrwt beam="1">  1        2 0.24149156E+00 0.38797393E+04</pdfrwt>
<pdfrwt beam="2">  1       -2 0.36882168E+00 0.38797393E+04</pdfrwt>
<totfact> 0.98011419E-02</totfact>
</mgrwt>
<rwgt>
<wgt id='morphing_basis_vector_1'> +1.4104676e-05 </wgt>
<wgt id='morphing_basis_vector_2'> +9.8704187e-06 </wgt>
<wgt id='morphing_basis_vector_3'> +1.5544558e-05 </wgt>
<wgt id='morphing_basis_vector_4'> +1.0730561e-05 </wgt>
<wgt id='morphing_basis_vector_5'> +1.7554987e-05 </wgt>
</rwgt>
</event>
<event>
 4      1 +4.5322000e-10 3.89106800e+03 7.81860800e-03 7.56050300e-02
        2 -1    0    0  501    0 +0.0000000000e+00 +0.0000000000e+00 +1.1870613438e+03 1.1870613438e+03 0.0000000000e+00 0.0000e+00 -1.0000e+00
       -2 -1    0    0    0  501 -0.0000000000e+00 -0.0000000000e+00 -3.1886328757e+03 3.1886328757e+03 0.0000000000e+00 0.0000e+00 1.0000e+00
      -13  1    1    2    0    0 -1.4864935543e+03 -1.2447215510e+01 -2.4122103270e+03 2.8334743129e+03 0.0000000000e+00 0.0000e+00 1.0000e+00
       13  1    1    2    0    0 +1.4864935543e+03 +1.2447215510e+01 +4.1063879514e+02 1.5422199066e+03 0.0000000000e+00 0.0000e+00 -1.0000e+00
<mgrwt>
<rscale>  0 0.38910681E+04</rscale>
<asrwt>0</asrwt>
<pdfrwt beam="1">  1        2 0.18262482E+00 0.38910681E+04</pdfrwt>
<pdfrwt beam="2">  1       -2 0.49055890E+00 0.38910681E+04</pdfrwt>
<totfact> 0.23797759E-02</totfact>
</mgrwt>
<rwgt>
<wgt id='morphing_basis_vector_1'> +1.4153783e-05 </wgt>
<wgt id='morphing_basis_vector_2'> +9.6465252e-06 </wgt>
<wgt id='morphing_basis_vector_3'> +1.5541966e-05 </wgt>
<wgt id='morphing_basis_vector_4'> +1.1101022e-05 </wgt>
<wgt id='morphing_basis_vector_5'> +1.7782319e-05 </wgt>
</rwgt>
</event>
<event>
 4      1 +4.5322000e-10 4.45306200e+03 7.81860800e-03 7.46483900e-02
        2 -1    0    0  501    0 +0.0000000000e+00 +0.0000000000e+00 +2.6389041548e+03 2.6389041548e+03 0.0000000000e+00 0.0000e+00 1.0000e+00
       -2 -1    0    0    0  501 -0.0000000000e+00 -0.0000000000e+00 -1.8785985056e+03 1.8785985056e+03 0.0000000000e+00 0.0000e+00 -1.0000e+00
      -13  1    1    2    0    0 +8.5795563087e+02 +4.0805395544e+02 -1.6626515656e+03 1.9149428513e+03 0.0000000000e+00 0.0000e+00 -1.0000e+00
       13  1    1    2    0    0 -8.5795563087e+02 -4.0805395544e+02 +2.4229572149e+03 2.6025598091e+03 0.0000000000e+00 0.0000e+00 1.0000e+00
<mgrwt>
<rscale>  0 0.44530625E+04</rscale>
<asrwt>0</asrwt>
<pdfrwt beam="1">  1        2 0.40598525E+00 0.44530625E+04</pdfrwt>
<pdfrwt beam="2">  1       -2 0.28901515E+00 0.44530625E+04</pdfrwt>
<totfact> 0.76815811E-02</totfact>
</mgrwt>
<rwgt>
<wgt id='morphing_basis_vector_1'> +2.4173740e-05 </wgt>
<wgt id='morphing_basis_vector_2'> +1.6403470e-05 </wgt>
<wgt id='morphing_basis_vector_3'> +2.6586327e-05 </wgt>
<wgt id='morphing_basis_vector_4'> +1.9180349e-05 </wgt>
<wgt id='morphing_basis_vector_5'> +3.0586784e-05 </wgt>
</rwgt>
</event>
<event>
 4      1 +4.5322000e-10 4.29611900e+03 7.81860800e-03 7.49004700e-02
        2 -1    0    0  501    0 +0.0000000000e+00 +0.0000000000e+00 +2.9205133981e+03 2.9205133981e+03 0.0000000000e+00 0.0000e+00 -1.0000e+00
       -2 -1    0    0    0  501 -0.0000000000e+00 -0.0000000000e+00 -1.5799135572e+03 1.5799135572e+03 0.0000000000e+00 0.0000e+00 1.0000e+00
      -13  1    1    2    0    0 -1.9785595320e+03 -5.4695935572e+02 +7.5216309117e+00 2.0527832164e+03 0.0000000000e+00 0.0000e+00 1.0000e+00
       13  1    1    2    0    0 +1.9785595320e+03 +5.4695935572e+02 +1.3330782100e+03 2.4476437389e+03 0.0000000000e+00 0.0000e+00 -1.0000e+00
<mgrwt>
<rscale>  0 0.42961186E+04</rscale>
<asrwt>0</asrwt>
<pdfrwt beam="1">  1        2 0.44930975E+00 0.42961186E+04</pdfrwt>
<pdfrwt beam="2">  1       -2 0.24306362E+00 0.42961186E+04</pdfrwt>
<totfact> 0.10706831E-01</totfact>
</mgrwt>
<rwgt>
<wgt id='morphing_basis_vector_1'> +2.1198619e-05 </wgt>
<wgt id='morphing_basis_vector_2'> +1.4930591e-05 </wgt>
<wgt id='morphing_basis_vector_3'> +2.3425810e-05 </wgt>
<wgt id='morphing_basis_vector_4'> +1.6088979e-05 </wgt>
<wgt id='morphing_basis_vector_5'> +2.6438450e-05 </wgt>
</rwgt>
</event>
<event>
 4      1 +4.5322000e-10 3.88052000e+03 7.81860800e-03 7.56245300e-02
        2 -1    0    0  501    0 +0.0000000000e+00 +0.0000000000e+00 +2.3288927808e+03 2.3288927808e+03 0.0000000000e+00 0.0000e+00 1.0000e+00
       -2 -1    0    0    0  501 -0.0000000000e+00 -0.0000000000e+00 -1.6164802878e+03 1.6164802878e+03 0.0000000000e+00 0.0000e+00 -1.0000e+00
      -13  1    1    2    0    0 -1.8126702143e+03 -6.8808402045e+02 +2.8165725295e+02 1.9592252891e+03 0.0000000000e+00 0.0000e+00 -1.0000e+00
       13  1    1    2    0    0 +1.8126702143e+03 +6.8808402045e+02 +4.3075524012e+02 1.9861477795e+03 0.0000000000e+00 0.0000e+00 1.0000e+00
<mgrwt>
<rscale>  0 0.38805202E+04</rscale>
<asrwt>0</asrwt>
<pdfrwt beam="1">  1        2 0.35829120E+00 0.38805202E+04</pdfrwt>
<pdfrwt beam="2">  1       -2 0.24868927E+00 0.38805202E+04</pdfrwt>
<totfact> 0.23235113E-01</totfact>
</mgrwt>
<rwgt>
<wgt id='morphing_basis_vector_1'> +1.4423416e-05 </wgt>
<wgt id='morphing_basis_vector_2'> +1.0782182e-05 </wgt>
<wgt id='morphing_basis_vector_3'> +1.6049381e-05 </wgt>
<wgt id='morphing_basis_vector_4'> +1.0089766e-05 </wgt>
<wgt id='morphing_basis_vector_5'> +1.7515148e-05 </wgt>
</rwgt>
</event>
<event>
 4      1 +4.5322000e-10 4.24019300e+03 7.81860800e-03 7.49929500e-02
        2 -1    0    0  501    0 +0.0000000000e+00 +0.0000000000e+00 +3.9954295701e+03 3.9954295701e+03 0.0000000000e+00 0.0000e+00 -1.0000e+00
       -2 -1    0    0    0  501 -0.0000000000e+00 -0.0000000000e+00 -1.1249876423e+03 1.1249876423e+03 0.0000000000e+00 0.0000e+00 1.0000e+00
      -13  1    1    2    0    0 -2.4747606108e+01 +1.9773988209e+03 +5.1231010998e+02 2.0428363100e+03 0.0000000000e+00 0.0000e+00 1.0000e+00
       13  1    1    2    0    0 +2.4747606108e+01 -1.9773988209e+03 +2.3581318178e+03 3.0775809024e+03 0.0000000000e+00 0.0000e+00 -1.0000e+00
<mgrwt>
<rscale>  0 0.42401929E+04</rscale>
<asrwt>0</asrwt>
<pdfrwt beam="1">  1        2 0.61468146E+00 0.42401929E+04</pdfrwt>
<pdfrwt beam="2">  1       -2 0.17307502E+00 0.42401929E+04</pdfrwt>
<totfact> 0.56551410E-02</totfact>
</mgrwt>
<rwgt>
<wgt id='morphing_basis_vector_1'> +2.0062535e-05 </wgt>
<wgt id='morphing_basis_vector_2'> +1.3998126e-05 </wgt>
<wgt id='morphing_basis_vector_3'> +2.2135806e-05 </wgt>
<wgt id='morphing_basis_vector_4'> +1.5387769e-05 </wgt>
<wgt id='morphing_basis_vector_5'> +2.5093041e-05 </wgt>
</rwgt>
</event>
<event>
 4      1 +4.5322000e-10 3.87658000e+03 7.81860800e-03 7.56318300e-02
        2 -1    0    0  501    0 +0.0000000000e+00 +0.0000000000e+00 +3.1965138090e+03 3.1965138090e+03 0.0000000000e+00 0.0000e+00 1.0000e+00
       -2 -1    0    0    0  501 -0.0000000000e+00 -0.0000000000e+00 -1.1753331278e+03 1.1753331278e+03 0.0000000000e+00 0.0000e+00 -1.0000e+00
      -13  1    1    2    0    0 +1.3529145404e+03 -1.1604604556e+03 +1.5177242582e+02 1.7888770477e+03 0.0000000000e+00 0.0000e+00 -1.0000e+00
       13  1    1    2    0    0 -1.3529145404e+03 +1.1604604556e+03 +1.8694082554e+03 2.5829698891e+03 0.0000000000e+00 0.0000e+00 1.0000e+00
<mgrwt>
<rscale>  0 0.38765802E+04</rscale>
<asrwt>0</asrwt>
<pdfrwt beam="1">  1        2 0.49177135E+00 0.38765802E+04</pdfrwt>
<pdfrwt beam="2">  1       -2 0.18082048E+00 0.38765802E+04</pdfrwt>
<totfact> 0.20434107E-01</totfact>
</mgrwt>
<rwgt>
<wgt id='morphing_basis_vector_1'> +1.4024726e-05 </wgt>
<wgt id='morphing_basis_vector_2'> +9.7374985e-06 </wgt>
<wgt id='morphing_basis_vector_3'> +1.5439053e-05 </wgt>
<wgt id='morphing_basis_vector_4'> +1.0767966e-05 </wgt>
<wgt id='morphing_basis_vector_5'> +1.7503612e-05 </wgt>
</rwgt>
</event>
<event>
 4      1 +4.5322000e-10 4.09554300e+03 7.81860800e-03 7.52390000e-02
        2 -1    0    0  501    0 +0.0000000000e+00 +0.0000000000e+00 +3.2561946693e+03 3.2561946693e+03 0.0000000000e+00 0.0000e+00 1.0000e+00
       -2 -1    0    0    0  501 -0.0000000000e+00 -0.0000000000e+00 -1.2878122813e+03 1.2878122813e+03 0.0000000000e+00 0.0000e+00 -1.0000e+00
      -13  1    1    2    0    0 -1.2209429971e+03 +2.9662443538e+02 -8.0986801197e+02 1.4948491746e+03 0.0000000000e+00 0.0000e+00 -1.0000e+00
       13  1    1    2    0    0 +1.2209429971e+03 -2.9662443538e+02 +2.7782504000e+03 3.0491577760e+03 0.0000000000e+00 0.0000e+00 1.0000e+00
<mgrwt>
<rscale>  0 0.40955427E+04</rscale>
<asrwt>0</asrwt>
<pdfrwt beam="1">  1        2 0.50095302E+00 0.40955427E+04</pdfrwt>
<pdfrwt beam="2">  1       -2 0.19812497E+00 0.40955427E+04</pdfrwt>
<totfact> 0.13577834E-01</totfact>
</mgrwt>
<rwgt>
<wgt id='morphing_basis_vector_1'> +1.7330433e-05 </wgt>
<wgt id='morphing_basis_vector_2'> +1.1767149e-05 </wgt>
<wgt id='morphing_basis_vector_3'> +1.9037328e-05 </wgt>
<wgt id='morphing_basis_vector_4'> +1.3687150e-05 </wgt>
<wgt id='morphing_basis_vector_5'> +2.1851586e-05 </wgt>
</rwgt>
</event>
<event>
 4      1 +4.5322000e-10 4.29559800e+03 7.81860800e-03 7.49013300e-02
        2 -1    0    0  501    0 +0.0000000000e+00 +0.0000000000e+00 +2.1507133121e+03 2.1507133121e+03 0.0000000000e+00 0.0000e+00 -1.0000e+00
       -2 -1    0    0    0  501 -0.0000000000e+00 -0.0000000000e+00 -2.1448891331e+03 2.1448891331e+03 0.0000000000e+00 0.0000e+00 1.0000e+00
      -13  1    1    2    0    0 +1.2451836483e+02 +1.5768333758e+03 -1.4500631938e+03 2.1458312106e+03 0.0000000000e+00 0.0000e+00 1.0000e+00
       13  1    1    2    0    0 -1.2451836483e+02 -1.5768333758e+03 +1.4558873728e+03 2.1497712345e+03 0.0000000000e+00 0.0000e+00 -1.0000e+00
<mgrwt>
<rscale>  0 0.42955985E+04</rscale>
<asrwt>0</asrwt>
<pdfrwt beam="1">  1        2 0.33087897E+00 0.42955985E+04</pdfrwt>
<pdfrwt beam="2">  1       -2 0.32998295E+00 0.42955985E+04</pdfrwt>
<totfact> 0.80182671E-02</totfact>
</mgrwt>
<rwgt>
<wgt id='morphing_basis_vector_1'> +2.0974153e-05 </wgt>
<wgt id='morphing_basis_vector_2'> +1.4293834e-05 </wgt>
<wgt id='morphing_basis_vector_3'> +2.3069266e-05 </wgt>
<wgt id='morphing_basis_vector_4'> +1.6535559e-05 </wgt>
<wgt id='morphing_basis_vector_5'> +2.6463540e-05 </wgt>
</rwgt>
</event>
<event>
 4      1 +4.5322000e-10 4.06354600e+03 7.81860800e-03 7.52948300e-02
        2 -1    0    0  501    0 +0.0000000000e+00 +0.0000000000e+00 +2.6994489927e+03 2.6994489927e+03 0.0000000000e+00 0.0000e+00 1.0000e+00
       -2 -1    0    0    0  501 -0.0000000000e+00 -0.0000000000e+00 -1.5292385323e+03 1.5292385323e+03 0.0000000000e+00 0.0000e+00 -1.0000e+00
      -13  1    1    2    0    0 +1.5050732477e+03 +9.4658724860e+02 -4.3812920048e+02 1.8311827043e+03 0.0000000000e+00 0.0000e+00 -1.0000e+00
       13  1    1    2    0    0 -1.5050732477e+03 -9.4658724860e+02 +1.6083396609e+03 2.3975048206e+03 0.0000000000e+00 0.0000e+00 1.0000e+00
<mgrwt>
<rscale>  0 0.40635459E+04</rscale>
<asrwt>0</asrwt>
<pdfrwt beam="1">  1        2 0.41529984E+00 0.40635459E+04</pdfrwt>
<pdfrwt beam="2">  1       -2 0.23526747E+00 0.40635459E+04</pdfrwt>
<totfact> 0.17025829E-01</totfact>
</mgrwt>
<rwgt>
<wgt id='morphing_basis_vector_1'> +1.6870120e-05 </wgt>
<wgt id='morphing_basis_vector_2'> +1.1617076e-05 </wgt>
<wgt id='morphing_basis_vector_3'> +1.8565741e-05 </wgt>
<wgt id='morphing_basis_vector_4'> +1.3109325e-05 </wgt>
<wgt id='morphing_basis_vector_5'> +2.1160742e-05 </wgt>
</rwgt>
</event>
<event>
 4      1 +4.5322000e-10 4.05247200e+03 7.81860800e-03 7.53142700e-02
        2 -1    0    0  501    0 +0.0000000000e+00 +0.0000000000e+00 +2.0731484622e+03 2.0731484622e+03 0.0000000000e+00 0.0000e+00 -1.0000e+00
       -2 -1    0    0    0  501 -0.0000000000e+00 -0.0000000000e+00 -1.9803851555e+03 1.9803851555e+03 0.0000000000e+00 0.0000e+00 1.0000e+00
      -13  1    1    2    0    0 +5.5755953397e+02 -1.9429227070e+03 -9.4407342149e+01 2.0235449156e+03 0.0000000000e+00 0.0000e+00 1.0000e+00
       13  1    1    2    0    0 -5.5755953397e+02 +1.9429227070e+03 +1.8717064888e+02 2.0299887022e+03 0.0000000000e+00 0.0000e+00 -1.0000e+00
<mgrwt>
<rscale>  0 0.40524721E+04</rscale>
<asrwt>0</asrwt>
<pdfrwt beam="1">  1        2 0.31894592E+00 0.40524721E+04</pdfrwt>
<pdfrwt beam="2">  1       -2 0.30467464E+00 0.40524721E+04</pdfrwt>
<totfact> 0.13337837E-01</totfact>
</mgrwt>
<rwgt>
<wgt id='morphing_basis_vector_1'> +1.7080830e-05 </wgt>
<wgt id='morphing_basis_vector_2'> +1.2646164e-05 </wgt>
<wgt id='morphing_basis_vector_3'> +1.8995230e-05 </wgt>
<wgt id='morphing_basis_vector_4'> +1.2134739e-05 </wgt>
<wgt id='morphing_basis_vector_5'> +2.0860602e-05 </wgt>
</rwgt>
</event>
<event>
 4      1 +4.5322000e-10 3.89987500e+03 7.81860800e-03 7.55887900e-02
        2 -1    0    0  501    0 +0.0000000000e+00 +0.0000000000e+00 +1.2262436237e+03 1.2262436237e+03 0.0000000000e+00 0.0000e+00 1.0000e+00
       -2 -1    0    0    0  501 -0.0000000000e+00 -0.0000000000e+00 -3.1007352159e+03 3.1007352159e+03 0.0000000000e+00 0.0000e+00 -1.0000e+00
      -13  1    1    2    0    0 -1.0535247247e+03 -9.9779851308e+02 +5.0800020290e+02 1.5373940368e+03 0.0000000000e+00 0.0000e+00 -1.0000e+00
       13  1    1    2    0    0 +1.0535247247e+03 +9.9779851308e+02 -2.3824917952e+03 2.7895848028e+03 0.0000000000e+00 0.0000e+00 1.0000e+00
<mgrwt>
<rscale>  0 0.38998753E+04</rscale>
<asrwt>0</asrwt>
<pdfrwt beam="1">  1        2 0.18865286E+00 0.38998753E+04</pdfrwt>
<pdfrwt beam="2">  1       -2 0.47703619E+00 0.38998753E+04</pdfrwt>
<totfact> 0.28436231E-02</totfact>
</mgrwt>
<rwgt>
<wgt id='morphing_basis_vector_1'> +1.8142401e-05 </wgt>
<wgt id='morphing_basis_vector_2'> +2.1083623e-05 </wgt>
<wgt id='morphing_basis_vector_3'> +2.1867359e-05 </wgt>
<wgt id='morphing_basis_vector_4'> +3.0447342e-06 </wgt>
<wgt id='morphing_basis_vector_5'> +1.7265687e-05 </wgt>
</rwgt>
</event>
<event>
 4      1 +4.5322000e-10 4.55817300e+03 7.81860800e-03 7.44853600e-02
        2 -1    0    0  501    0 +0.0000000000e+00 +0.0000000000e+00 +2.2350869688e+03 2.2350869688e+03 0.0000000000e+00 0.0000e+00 -1.0000e+00
       -2 -1    0    0    0  501 -0.0000000000e+00 -0.0000000000e+00 -2.3239524758e+03 2.3239524758e+03 0.0000000000e+00 0.0000e+00 1.0000e+00
      -13  1    1    2    0    0 -1.7059065799e+03 +1.4160592160e+03 -5.7263814640e+02 2.2898155841e+03 0.0000000000e+00 0.0000e+00 1.0000e+00
       13  1    1    2    0    0 +1.7059065799e+03 -1.4160592160e+03 +4.8377263947e+02 2.2692238605e+03 0.0000000000e+00 0.0000e+00 -1.0000e+00
<mgrwt>
<rscale>  0 0.45581733E+04</rscale>
<asrwt>0</asrwt>
<pdfrwt beam="1">  1        2 0.34385953E+00 0.45581733E+04</pdfrwt>
<pdfrwt beam="2">  1       -2 0.35753115E+00 0.45581733E+04</pdfrwt>
<totfact> 0.46464118E-02</totfact>
</mgrwt>
<rwgt>
<wgt id='morphing_basis_vector_1'> +2.6929746e-05 </wgt>
<wgt id='morphing_basis_vector_2'> +1.9184807e-05 </wgt>
<wgt id='morphing_basis_vector_3'> +2.9835002e-05 </wgt>
<wgt id='morphing_basis_vector_4'> +2.0210647e-05 </wgt>
<wgt id='morphing_basis_vector_5'> +3.3519433e-05 </wgt>
</rwgt>
</event>
<event>
 4      1 +4.5322000e-10 3.95768300e+03 7.81860800e-03 7.54833100e-02
        2 -1    0    0  501    0 +0.0000000000e+00 +0.0000000000e+00 +3.1591669892e+03 3.1591669892e+03 0.0000000000e+00 0.0000e+00 -1.0000e+00
       -2 -1    0    0    0  501 -0.0000000000e+00 -0.0000000000e+00 -1.2395084987e+03 1.2395084987e+03 0.0000000000e+00 0.0000e+00 1.0000e+00
      -13  1    1    2    0    0 +9.9626263811e+02 -5.6394275592e+02 -8.3409894752e+02 1.4164362782e+03 0.0000000000e+00 0.0000e+00 1.0000e+00
       13  1    1    2    0    0 -9.9626263811e+02 +5.6394275592e+02 +2.7537574380e+03 2.9822392096e+03 0.0000000000e+00 0.0000e+00 -1.0000e+00
<mgrwt>
<rscale>  0 0.39576833E+04</rscale>
<asrwt>0</asrwt>
<pdfrwt beam="1">  1        2 0.48602569E+00 0.39576833E+04</pdfrwt>
<pdfrwt beam="2">  1       -2 0.19069362E+00 0.39576833E+04</pdfrwt>
<totfact> 0.18143946E-01</totfact>
</mgrwt>
<rwgt>
<wgt id='morphing_basis_vector_1'> +1.5120521e-05 </wgt>
<wgt id='morphing_basis_vector_2'> +1.0257474e-05 </wgt>
<wgt id='morphing_basis_vector_3'> +1.6597928e-05 </wgt>
<wgt id='morphing_basis_vector_4'> +1.1931997e-05 </wgt>
<wgt id='morphing_basis_vector_5'> +1.9042260e-05 </wgt>
</rwgt>
</event>
<event>
 4      1 +4.5322000e-10 4.05237900e+03 7.81860800e-03 7.53144300e-02
        2 -1    0    0  501    0 +0.0000000000e+00 +0.0000000000e+00 +1.8342310226e+03 1.8342310226e+03 0.0000000000e+00 0.0000e+00 -1.0000e+00
       -2 -1    0    0    0  501 -0.0000000000e+00 -0.0000000000e+00 -2.2382372669e+03 2.2382372669e+03 0.0000000000e+00 0.0000e+00 1.0000e+00
      -13  1    1    2    0    0 +1.0841140355e+03 +1.3984507217e+03 -1.1940526106e+03 2.1346496902e+03 0.0000000000e+00 0.0000e+00 1.0000e+00
       13  1    1    2    0    0 -1.0841140355e+03 -1.3984507217e+03 +7.9004636627e+02 1.9378185993e+03 0.0000000000e+00 0.0000e+00 -1.0000e+00
<mgrwt>
<rscale>  0 0.40523792E+04</rscale>
<asrwt>0</asrwt>
<pdfrwt beam="1">  1        2 0.28218939E+00 0.40523792E+04</pdfrwt>
<pdfrwt beam="2">  1       -2 0.34434419E+00 0.40523792E+04</pdfrwt>
<totfact> 0.99128253E-02</totfact>
</mgrwt>
<rwgt>
<wgt id='morphing_basis_vector_1'> +1.6685011e-05 </wgt>
<wgt id='morphing_basis_vector_2'> +1.1486203e-05 </wgt>
<wgt id='morphing_basis_vector_3'> +1.8360393e-05 </wgt>
<wgt id='morphing_basis_vector_4'> +1.2967999e-05 </wgt>
<wgt id='morphing_basis_vector_5'> +2.0928225e-05 </wgt>
</rwgt>
</event>
<event>
 4      1 +4.5322000e-10 3.96743900e+03 7.81860800e-03 7.54656900e-02
        2 -1    0    0  501    0 +0.0000000000e+00 +0.0000000000e+00 +1.4133521887e+03 1.4133521887e+03 0.0000000000e+00 0.0000e+00 -1.0000e+00
       -2 -1    0    0    0  501 -0.0000000000e+00 -0.0000000000e+00 -2.7842621900e+03 2.7842621900e+03 0.0000000000e+00 0.0000e+00 1.0000e+00
      -13  1    1    2    0    0 -1.4346873828e+03 -7.3215515590e+01 -2.1328328957e+03 2.5715101709e+03 0.0000000000e+00 0.0000e+00 1.0000e+00
       13  1    1    2    0    0 +1.4346873828e+03 +7.3215515590e+01 +7.6192289435e+02 1.6261042079e+03 0.0000000000e+00 0.0000e+00 -1.0000e+00
<mgrwt>
<rscale>  0 0.39674390E+04</rscale>
<asrwt>0</asrwt>
<pdfrwt beam="1">  1        2 0.21743880E+00 0.39674390E+04</pdfrwt>
<pdfrwt beam="2">  1       -2 0.42834802E+00 0.39674390E+04</pdfrwt>
<totfact> 0.48622205E-02</totfact>
</mgrwt>
<rwgt>
<wgt id='morphing_basis_vector_1'> +1.5283911e-05 </wgt>
<wgt id='morphing_basis_vector_2'> +1.0401503e-05 </wgt>
<wgt id='morphing_basis_vector_3'> +1.6785441e-05 </wgt>
<wgt id='morphing_basis_vector_4'> +1.2019932e-05 </wgt>
<wgt id='morphing_basis_vector_5'> +1.9229110e-05 </wgt>
</rwgt>
</event>
<event>
 4      1 +4.5322000e-10 4.33010600e+03 7.81860800e-03 7.48449700e-02
        2 -1    0    0  501    0 +0.0000000000e+00 +0.0000000000e+00 +2.0940786389e+03 2.0940786389e+03 0.0000000000e+00 0.0000e+00 1.0000e+00
       -2 -1    0    0    0  501 -0.0000000000e+00 -0.0000000000e+00 -2.2384327551e+03 2.2384327551e+03 0.0000000000e+00 0.0000e+00 -1.0000e+00
      -13  1    1    2    0    0 +7.5497550975e+01 +2.0552485986e+03 -7.4909375935e+02 2.1888097548e+03 0.0000000000e+00 0.0000e+00 1.0000e+00
       13  1    1    2    0    0 -7.5497550975e+01 -2.0552485986e+03 +6.0473964311e+02 2.1437016393e+03 0.0000000000e+00 0.0000e+00 -1.0000e+00
<mgrwt>
<rscale>  0 0.43301059E+04</rscale>
<asrwt>0</asrwt>
<pdfrwt beam="1">  1        2 0.32216594E+00 0.43301059E+04</pdfrwt>
<pdfrwt beam="2">  1       -2 0.34437427E+00 0.43301059E+04</pdfrwt>
<totfact> 0.69273326E-02</totfact>
</mgrwt>
<rwgt>
<wgt id='morphing_basis_vector_1'> +2.1855673e-05 </wgt>
<wgt id='morphing_basis_vector_2'> +1.5352736e-05 </wgt>
<wgt id='morphing_basis_vector_3'> +2.4145658e-05 </wgt>
<wgt id='morphing_basis_vector_4'> +1.6646095e-05 </wgt>
<wgt id='morphing_basis_vector_5'> +2.7292044e-05 </wgt>
</rwgt>
</event>
<event>
 4      1 +4.5322000e-10 4.20435100e+03 7.81860800e-03 7.50529800e-02
        2 -1    0    0  501    0 +0.0000000000e+00 +0.0000000000e+00 +3.0531127569e+03 3.0531127569e+03 0.0000000000e+00 0.0000e+00 -1.0000e+00
       -2 -1    0    0    0  501 -0.0000000000e+00 -0.0000000000e+00 -1.4474214457e+03 1.4474214457e+03 0.0000000000e+00 0.0000e+00 1.0000e+00
      -13  1    1    2    0    0 +1.8994887863e+03 +8.9996326283e+02 +7.6655519033e+02 2.2373194639e+03 0.0000000000e+00 0.0000e+00 1.0000e+00
       13  1    1    2    0    0 -1.8994887863e+03 -8.9996326283e+02 +8.3913612091e+02 2.2632147387e+03 0.0000000000e+00 0.0000e+00 -1.0000e+00
<mgrwt>
<rscale>  0 0.42043505E+04</rscale>
<asrwt>0</asrwt>
<pdfrwt beam="1">  1        2 0.46970965E+00 0.42043505E+04</pdfrwt>
<pdfrwt beam="2">  1       -2 0.22268022E+00 0.42043505E+04</pdfrwt>
<totfact> 0.12285822E-01</totfact>
</mgrwt>
<rwgt>
<wgt id='morphing_basis_vector_1'> +1.9893638e-05 </wgt>
<wgt id='morphing_basis_vector_2'> +1.4994771e-05 </wgt>
<wgt id='morphing_basis_vector_3'> +2.2198149e-05 </wgt>
<wgt id='morphing_basis_vector_4'> +1.3816714e-05 </wgt>
<wgt id='morphing_basis_vector_5'> +2.4163583e-05 </wgt>
</rwgt>
</event>
<event>
 4      1 +4.5322000e-10 4.28288000e+03 7.81860800e-03 7.49222400e-02
        2 -1    0    0  501    0 +0.0000000000e+00 +0.0000000000e+00 +2.7603238738e+03 2.7603238738e+03 0.0000000000e+00 0.0000e+00 1.0000e+00
       -2 -1    0    0    0  501 -0.0000000000e+00 -0.0000000000e+00 -1.6613138762e+03 1.6613138762e+03 0.0000000000e+00 0.0000e+00 -1.0000e+00
      -13  1    1    2    0    0 -1.2979935787e+03 -1.1620305045e+03 -7.3609507039e+02 1.8912795077e+03 0.0000000000e+00 0.0000e+00 -1.0000e+00
       13  1    1    2    0    0 +1.2979935787e+03 +1.1620305045e+03 +1.8351050680e+03 2.5303582422e+03 0.0000000000e+00 0.0000e+00 1.0000e+00
<mgrwt>
<rscale>  0 0.42828796E+04</rscale>
<asrwt>0</asrwt>
<pdfrwt beam="1">  1        2 0.42466521E+00 0.42828796E+04</pdfrwt>
<pdfrwt beam="2">  1       -2 0.25558675E+00 0.42828796E+04</pdfrwt>
<totfact> 0.11086830E-01</totfact>
</mgrwt>
<rwgt>
<wgt id='morphing_basis_vector_1'> +2.0755330e-05 </wgt>
<wgt id='morphing_basis_vector_2'> +1.4206076e-05 </wgt>
<wgt id='morphing_basis_vector_3'> +2.2841453e-05 </wgt>
<wgt id='morphing_basis_vector_4'> +1.6281682e-05 </wgt>
<wgt id='morphing_basis_vector_5'> +2.6145315e-05 </wgt>
</rwgt>
</event>
<event>
 4      1 +4.5322000e-10 3.94806700e+03 7.81860800e-03 7.55007300e-02
        2 -1    0    0  501    0 +0.0000000000e+00 +0.0000000000e+00 +3.3783941571e+03 3.3783941571e+03 0.0000000000e+00 0.0000e+00 -1.0000e+00
       -2 -1    0    0    0  501 -0.0000000000e+00 -0.0000000000e+00 -1.1534498850e+03 1.1534498850e+03 0.0000000000e+00 0.0000e+00 1.0000e+00
      -13  1    1    2    0    0 -4.0978637459e+02 -9.1118905455e+02 -8.4180399501e+02 1.3064548718e+03 0.0000000000e+00 0.0000e+00 1.0000e+00
       13  1    1    2    0    0 +4.0978637459e+02 +9.1118905455e+02 +3.0667482671e+03 3.2253891703e+03 0.0000000000e+00 0.0000e+00 -1.0000e+00
<mgrwt>
<rscale>  0 0.39480670E+04</rscale>
<asrwt>0</asrwt>
<pdfrwt beam="1">  1        2 0.51975294E+00 0.39480670E+04</pdfrwt>
<pdfrwt beam="2">  1       -2 0.17745383E+00 0.39480670E+04</pdfrwt>
<totfact> 0.16110121E-01</totfact>
</mgrwt>
<rwgt>
<wgt id='morphing_basis_vector_1'> +1.4971901e-05 </wgt>
<wgt id='morphing_basis_vector_2'> +1.0149645e-05 </wgt>
<wgt id='morphing_basis_vector_3'> +1.6432508e-05 </wgt>
<wgt id='morphing_basis_vector_4'> +1.1822140e-05 </wgt>
<wgt id='morphing_basis_vector_5'> +1.8857448e-05 </wgt>
</rwgt>
</event>
<event>
 4      1 +4.5322000e-10 4.19931000e+03 7.81860800e-03 7.50614700e-02
        2 -1    0    0  501    0 +0.0000000000e+00 +0.0000000000e+00 +3.8688806093e+03 3.8688806093e+03 0.0000000000e+00 0.0000e+00 -1.0000e+00
       -2 -1    0    0    0  501 -0.0000000000e+00 -0.0000000000e+00 -1.1394902389e+03 1.1394902389e+03 0.0000000000e+00 0.0000e+00 1.0000e+00
      -13  1    1    2    0    0 -3.1263927385e+02 -9.8422623347e+02 -8.1566727457e+02 1.3159626503e+03 0.0000000000e+00 0.0000e+00 1.0000e+00
       13  1    1    2    0    0 +3.1263927385e+02 +9.8422623347e+02 +3.5450576450e+03 3.6924081980e+03 0.0000000000e+00 0.0000e+00 -1.0000e+00
<mgrwt>
<rscale>  0 0.41993103E+04</rscale>
<asrwt>0</asrwt>
<pdfrwt beam="1">  1        2 0.59521240E+00 0.41993103E+04</pdfrwt>
<pdfrwt beam="2">  1       -2 0.17530619E+00 0.41993103E+04</pdfrwt>
<totfact> 0.69506184E-02</totfact>
</mgrwt>
<rwgt>
<wgt id='morphing_basis_vector_1'> +1.9138512e-05 </wgt>
<wgt id='morphing_basis_vector_2'> +1.2982628e-05 </wgt>
<wgt id='morphing_basis_vector_3'> +2.1029261e-05 </wgt>
<wgt id='morphing_basis_vector_4'> +1.5149677e-05 </wgt>
<wgt id='morphing_basis_vector_5'> +2.4164179e-05 </wgt>
</rwgt>
</event>
<event>
 4      1 +4.5322000e-10 3.93971600e+03 7.81860800e-03 7.55159000e-02
        2 -1    0    0  501    0 +0.0000000000e+00 +0.0000000000e+00 +2.1098041175e+03 2.1098041175e+03 0.0000000000e+00 0.0000e+00 -1.0000e+00
       -2 -1    0    0    0  501 -0.0000000000e+00 -0.0000000000e+00 -1.8391948453e+03 1.8391948453e+03 0.0000000000e+00 0.0000e+00 1.0000e+00
      -13  1    1    2    0    0 -3.3173221174e+02 -1.0295824818e+03 -1.5148594220e+03 1.8614202684e+03 0.0000000000e+00 0.0000e+00 1.0000e+00
       13  1    1    2    0    0 +3.3173221174e+02 +1.0295824818e+03 +1.7854686942e+03 2.0875786944e+03 0.0000000000e+00 0.0000e+00 -1.0000e+00
<mgrwt>
<rscale>  0 0.39397162E+04</rscale>
<asrwt>0</asrwt>
<pdfrwt beam="1">  1        2 0.32458525E+00 0.39397162E+04</pdfrwt>
<pdfrwt beam="2">  1       -2 0.28295305E+00 0.39397162E+04</pdfrwt>
<totfact> 0.17993371E-01</totfact>
</mgrwt>
<rwgt>
<wgt id='morphing_basis_vector_1'> +1.4847837e-05 </wgt>
<wgt id='morphing_basis_vector_2'> +1.0068764e-05 </wgt>
<wgt id='morphing_basis_vector_3'> +1.6296444e-05 </wgt>
<wgt id='morphing_basis_vector_4'> +1.1718672e-05 </wgt>
<wgt id='morphing_basis_vector_5'> +1.8697325e-05 </wgt>
</rwgt>
</event>
<event>
 4      1 +4.5322000e-10 3.93599500e+03 7.81860800e-03 7.55226700e-02
        2 -1    0    0  501    0 +0.0000000000e+00 +0.0000000000e+00 +3.1600419599e+03 3.1600419599e+03 0.0000000000e+00 0.0000e+00 1.0000e+00
       -2 -1    0    0    0  501 -0.0000000000e+00 -0.0000000000e+00 -1.2256210806e+03 1.2256210806e+03 0.0000000000e+00 0.0000e+00 -1.0000e+00
      -13  1    1    2    0    0 +5.8104375913e+02 -9.2784899833e+02 -8.5501415035e+02 1.3890877622e+03 0.0000000000e+00 0.0000e+00 -1.0000e+00
       13  1    1    2    0    0 -5.8104375913e+02 +9.2784899833e+02 +2.7894350297e+03 2.9965752783e+03 0.0000000000e+00 0.0000e+00 1.0000e+00
<mgrwt>
<rscale>  0 0.39359949E+04</rscale>
<asrwt>0</asrwt>
<pdfrwt beam="1">  1        2 0.48616030E+00 0.39359949E+04</pdfrwt>
<pdfrwt beam="2">  1       -2 0.18855709E+00 0.39359949E+04</pdfrwt>
<totfact> 0.18828983E-01</totfact>
</mgrwt>
<rwgt>
<wgt id='morphing_basis_vector_1'> +1.4792424e-05 </wgt>
<wgt id='morphing_basis_vector_2'> +1.0031766e-05 </wgt>
<wgt id='morphing_basis_vector_3'> +1.6235479e-05 </wgt>
<wgt id='morphing_basis_vector_4'> +1.1673585e-05 </wgt>
<wgt id='morphing_basis_vector_5'> +1.8626369e-05 </wgt>
</rwgt>
</event>
<event>
 4      1 +4.5322000e-10 3.98675300e+03 7.81860800e-03 7.54309600e-02
        2 -1    0    0  501    0 +0.0000000000e+00 +0.0000000000e+00 +2.9020843631e+03 2.9020843631e+03 0.0000000000e+00 0.0000e+00 -1.0000e+00
       -2 -1    0    0    0  501 -0.0000000000e+00 -0.0000000000e+00 -1.3692053491e+03 1.3692053491e+03 0.0000000000e+00 0.0000e+00 1.0000e+00
      -13  1    1    2    0    0 +9.0173300793e+02 +8.0652447318e+02 -9.3091223888e+02 1.5264998329e+03 0.0000000000e+00 0.0000e+00 1.0000e+00
       13  1    1    2    0    0 -9.0173300793e+02 -8.0652447318e+02 +2.4637912529e+03 2.7447898792e+03 0.0000000000e+00 0.0000e+00 -1.0000e+00
<mgrwt>
<rscale>  0 0.39867528E+04</rscale>
<asrwt>0</asrwt>
<pdfrwt beam="1">  1        2 0.44647452E+00 0.39867528E+04</pdfrwt>
<pdfrwt beam="2">  1       -2 0.21064698E+00 0.39867528E+04</pdfrwt>
<totfact> 0.19088324E-01</totfact>
</mgrwt>
<rwgt>
<wgt id='morphing_basis_vector_1'> +1.5569070e-05 </wgt>
<wgt id='morphing_basis_vector_2'> +1.0566697e-05 </wgt>
<wgt id='morphing_basis_vector_3'> +1.7093618e-05 </wgt>
<wgt id='morphing_basis_vector_4'> +1.2284500e-05 </wgt>
<wgt id='morphing_basis_vector_5'> +1.9610502e-05 </wgt>
</rwgt>
</event>
<event>
 4      1 +4.5322000e-10 4.04278100e+03 7.81860800e-03 7.53313300e-02
        2 -1    0    0  501    0 +0.0000000000e+00 +0.0000000000e+00 +2.4508705113e+03 2.4508705113e+03 0.0000000000e+00 0.0000e+00 -1.0000e+00
       -2 -1    0    0    0  501 -0.0000000000e+00 -0.0000000000e+00 -1.6671710909e+03 1.6671710909e+03 0.0000000000e+00 0.0000e+00 1.0000e+00
      -13  1    1    2    0    0 -1.5744547199e+03 +9.2529489813e+02 -4.9085146817e+02 1.8910350281e+03 0.0000000000e+00 0.0000e+00 1.0000e+00
       13  1    1    2    0    0 +1.5744547199e+03 -9.2529489813e+02 +1.2745508885e+03 2.2270065741e+03 0.0000000000e+00 0.0000e+00 -1.0000e+00
<mgrwt>
<rscale>  0 0.40427815E+04</rscale>
<asrwt>0</asrwt>
<pdfrwt beam="1">  1        2 0.37705700E+00 0.40427815E+04</pdfrwt>
<pdfrwt beam="2">  1       -2 0.25648786E+00 0.40427815E+04</pdfrwt>
<totfact> 0.17176501E-01</totfact>
</mgrwt>
<rwgt>
<wgt id='morphing_basis_vector_1'> +1.6555004e-05 </wgt>
<wgt id='morphing_basis_vector_2'> +1.1456518e-05 </wgt>
<wgt id='morphing_basis_vector_3'> +1.8230009e-05 </wgt>
<wgt id='morphing_basis_vector_4'> +1.2788471e-05 </wgt>
<wgt id='morphing_basis_vector_5'> +2.0724998e-05 </wgt>
</rwgt>
</event>
<event>
 4      1 +4.5322000e-10 4.35165200e+03 7.81860800e-03 7.48100500e-02
        2 -1    0    0  501    0 +0.0000000000e+00 +0.0000000000e+00 +4.3223005217e+03 4.3223005217e+03 0.0000000000e+00 0.0000e+00 -1.0000e+00
       -2 -1    0    0    0  501 -0.0000000000e+00 -0.0000000000e+00 -1.0953006510e+03 1.0953006510e+03 0.0000000000e+00 0.0000e+00 1.0000e+00
      -13  1    1    2    0    0 -1.6637999446e+02 -1.2166054430e+03 -6.2270957112e+02 1.3768000278e+03 0.0000000000e+00 0.0000e+00 1.0000e+00
       13  1    1    2    0    0 +1.6637999446e+02 +1.2166054430e+03 +3.8497094418e+03 4.0408011449e+03 0.0000000000e+00 0.0000e+00 -1.0000e+00
<mgrwt>
<rscale>  0 0.43516519E+04</rscale>
<asrwt>0</asrwt>
<pdfrwt beam="1">  1        2 0.66496930E+00 0.43516519E+04</pdfrwt>
<pdfrwt beam="2">  1       -2 0.16850779E+00 0.43516519E+04</pdfrwt>
<totfact> 0.30830439E-02</totfact>
</mgrwt>
<rwgt>
<wgt id='morphing_basis_vector_1'> +2.2060327e-05 </wgt>
<wgt id='morphing_basis_vector_2'> +1.4979288e-05 </wgt>
<wgt id='morphing_basis_vector_3'> +2.4256214e-05 </wgt>
<wgt id='morphing_basis_vector_4'> +1.7472869e-05 </wgt>
<wgt id='morphing_basis_vector_5'> +2.7882706e-05 </wgt>
</rwgt>
</event>
<event>
 4      1 +4.5322000e-10 4.17294100e+03 7.81860800e-03 7.51060900e-02
        2 -1    0    0  501    0 +0.0000000000e+00 +0.0000000000e+00 +4.0323413951e+03 4.0323413951e+03 0.0000000000e+00 0.0000e+00 -1.0000e+00
       -2 -1    0    0    0  501 -0.0000000000e+00 -0.0000000000e+00 -1.0796109912e+03 1.0796109912e+03 0.0000000000e+00 0.0000e+00 1.0000e+00
      -13  1    1    2    0    0 +5.2719083167e+02 +1.4719432645e+03 -2.1612512122e+02 1.5783716973e+03 0.0000000000e+00 0.0000e+00 1.0000e+00
       13  1    1    2    0    0 -5.2719083167e+02 -1.4719432645e+03 +3.1688555251e+03 3.5335806890e+03 0.0000000000e+00 0.0000e+00 -1.0000e+00
<mgrwt>
<rscale>  0 0.41729415E+04</rscale>
<asrwt>0</asrwt>
<pdfrwt beam="1">  1        2 0.62036021E+00 0.41729415E+04</pdfrwt>
<pdfrwt beam="2">  1       -2 0.16609400E+00 0.41729415E+04</pdfrwt>
<totfact> 0.59930908E-02</totfact>
</mgrwt>
<rwgt>
<wgt id='morphing_basis_vector_1'> +1.8692214e-05 </wgt>
<wgt id='morphing_basis_vector_2'> +1.2741588e-05 </wgt>
<wgt id='morphing_basis_vector_3'> +2.0550737e-05 </wgt>
<wgt id='morphing_basis_vector_4'> +1.4712396e-05 </wgt>
<wgt id='morphing_basis_vector_5'> +2.3555348e-05 </wgt>
</rwgt>
</event>
<event>
 4      1 +4.5322000e-10 3.95706000e+03 7.81860800e-03 7.54844400e-02
        2 -1    0    0  501    0 +0.0000000000e+00 +0.0000000000e+00 +2.0626146980e+03 2.0626146980e+03 0.0000000000e+00 0.0000e+00 1.0000e+00
       -2 -1    0    0    0  501 -0.0000000000e+00 -0.0000000000e+00 -1.8978731183e+03 1.8978731183e+03 0.0000000000e+00 0.0000e+00 -1.0000e+00
      -13  1    1    2    0    0 -8.8993858561e+02 -1.7670849333e+03 +8.3439851135e+01 1.9802883771e+03 0.0000000000e+00 0.0000e+00 -1.0000e+00
       13  1    1    2    0    0 +8.8993858561e+02 +1.7670849333e+03 +8.1301728555e+01 1.9801994391e+03 0.0000000000e+00 0.0000e+00 1.0000e+00
<mgrwt>
<rscale>  0 0.39570600E+04</rscale>
<asrwt>0</asrwt>
<pdfrwt beam="1">  1        2 0.31732534E+00 0.39570600E+04</pdfrwt>
<pdfrwt beam="2">  1       -2 0.29198048E+00 0.39570600E+04</pdfrwt>
<totfact> 0.16593867E-01</totfact>
</mgrwt>
<rwgt>
<wgt id='morphing_basis_vector_1'> +1.5661332e-05 </wgt>
<wgt id='morphing_basis_vector_2'> +1.1868610e-05 </wgt>
<wgt id='morphing_basis_vector_3'> +1.7469785e-05 </wgt>
<wgt id='morphing_basis_vector_4'> +1.0760993e-05 </wgt>
<wgt id='morphing_basis_vector_5'> +1.8933312e-05 </wgt>
</rwgt>
</event>
<event>
 4      1 +4.5322000e-10 4.00786700e+03 7.81860800e-03 7.53932200e-02
        2 -1    0    0  501    0 +0.0000000000e+00 +0.0000000000e+00 +2.3697995054e+03 2.3697995054e+03 0.0000000000e+00 0.0000e+00 1.0000e+00
       -2 -1    0    0    0  501 -0.0000000000e+00 -0.0000000000e+00 -1.6945524365e+03 1.6945524365e+03 0.0000000000e+00 0.0000e+00 -1.0000e+00
      -13  1    1    2    0    0 +5.8424662282e+02 -6.5731282637e+02 +2.1636523753e+03 2.3355504425e+03 0.0000000000e+00 0.0000e+00 1.0000e+00
       13  1    1    2    0    0 -5.8424662282e+02 +6.5731282637e+02 -1.4884053064e+03 1.7288014994e+03 0.0000000000e+00 0.0000e+00 -1.0000e+00
<mgrwt>
<rscale>  0 0.40078670E+04</rscale>
<asrwt>0</asrwt>
<pdfrwt beam="1">  1        2 0.36458454E+00 0.40078670E+04</pdfrwt>
<pdfrwt beam="2">  1       -2 0.26070038E+00 0.40078670E+04</pdfrwt>
<totfact> 0.17987252E-01</totfact>
</mgrwt>
<rwgt>
<wgt id='morphing_basis_vector_1'> +2.1636212e-05 </wgt>
<wgt id='morphing_basis_vector_2'> +2.7653178e-05 </wgt>
<wgt id='morphing_basis_vector_3'> +2.6663568e-05 </wgt>
<wgt id='morphing_basis_vector_4'> +4.1342785e-07 </wgt>
<wgt id='morphing_basis_vector_5'> +1.9020312e-05 </wgt>
</rwgt>
</event>
<event>
 4      1 +4.5322000e-10 3.94114600e+03 7.81860800e-03 7.55133000e-02
        2 -1    0    0  501    0 +0.0000000000e+00 +0.0000000000e+00 +2.9044554464e+03 2.9044554464e+03 0.0000000000e+00 0.0000e+00 -1.0000e+00
       -2 -1    0    0    0  501 -0.0000000000e+00 -0.0000000000e+00 -1.3369661712e+03 1.3369661712e+03 0.0000000000e+00 0.0000e+00 1.0000e+00
      -13  1    1    2    0    0 +2.0187635048e+02 -1.9601817989e+03 +7.7342600985e+02 2.1168973849e+03 0.0000000000e+00 0.0000e+00 1.0000e+00
       13  1    1    2    0    0 -2.0187635048e+02 +1.9601817989e+03 +7.9406326538e+02 2.1245242326e+03 0.0000000000e+00 0.0000e+00 -1.0000e+00
<mgrwt>
<rscale>  0 0.39411464E+04</rscale>
<asrwt>0</asrwt>
<pdfrwt beam="1">  1        2 0.44683930E+00 0.39411464E+04</pdfrwt>
<pdfrwt beam="2">  1       -2 0.20568710E+00 0.39411464E+04</pdfrwt>
<totfact> 0.20731435E-01</totfact>
</mgrwt>
<rwgt>
<wgt id='morphing_basis_vector_1'> +1.5401636e-05 </wgt>
<wgt id='morphing_basis_vector_2'> +1.1648232e-05 </wgt>
<wgt id='morphing_basis_vector_3'> +1.7173426e-05 </wgt>
<wgt id='morphing_basis_vector_4'> +1.0610458e-05 </wgt>
<wgt id='morphing_basis_vector_5'> +1.8630924e-05 </wgt>
</rwgt>
</event>
<event>
 4      1 +4.5322000e-10 3.91461500e+03 7.81860800e-03 7.55617200e-02
        2 -1    0    0  501    0 +0.0000000000e+00 +0.0000000000e+00 +1.9203047981e+03 1.9203047981e+03 0.0000000000e+00 0.0000e+00 -1.0000e+00
       -2 -1    0    0    0  501 -0.0000000000e+00 -0.0000000000e+00 -1.9950228662e+03 1.9950228662e+03 0.0000000000e+00 0.0000e+00 1.0000e+00
      -13  1    1    2    0    0 -1.2037320470e+03 -1.0522059437e+03 -1.1666987838e+03 1.9792155621e+03 0.0000000000e+00 0.0000e+00 1.0000e+00
       13  1    1    2    0    0 +1.2037320470e+03 +1.0522059437e+03 +1.0919807157e+03 1.9361121022e+03 0.0000000000e+00 0.0000e+00 -1.0000e+00
<mgrwt>
<rscale>  0 0.39146147E+04</rscale>
<asrwt>0</asrwt>
<pdfrwt beam="1">  1        2 0.29543151E+00 0.39146147E+04</pdfrwt>
<pdfrwt beam="2">  1       -2 0.30692659E+00 0.39146147E+04</pdfrwt>
<totfact> 0.15878231E-01</totfact>
</mgrwt>
<rwgt>
<wgt id='morphing_basis_vector_1'> +1.4512475e-05 </wgt>
<wgt id='morphing_basis_vector_2'> +9.9252935e-06 </wgt>
<wgt id='morphing_basis_vector_3'> +1.5945263e-05 </wgt>
<wgt id='morphing_basis_vector_4'> +1.1342192e-05 </wgt>
<wgt id='morphing_basis_vector_5'> +1.8216354e-05 </wgt>
</rwgt>
</event>
<event>
 4      1 +4.5322000e-10 3.97244400e+03 7.81860800e-03 7.54566700e-02
        2 -1    0    0  501    0 +0.0000000000e+00 +0.0000000000e+00 +2.7200620447e+03 2.7200620447e+03 0.0000000000e+00 0.0000e+00 1.0000e+00
       -2 -1    0    0    0  501 -0.0000000000e+00 -0.0000000000e+00 -1.4503631520e+03 1.4503631520e+03 0.0000000000e+00 0.0000e+00 -1.0000e+00
      -13  1    1    2    0    0 +9.5613159779e+02 +8.2866673384e+02 -9.7253600324e+02 1.5958391102e+03 0.0000000000e+00 0.0000e+00 -1.0000e+00
       13  1    1    2    0    0 -9.5613159779e+02 -8.2866673384e+02 +2.2422348960e+03 2.5745860865e+03 0.0000000000e+00 0.0000e+00 1.0000e+00
<mgrwt>
<rscale>  0 0.39724440E+04</rscale>
<asrwt>0</asrwt>
<pdfrwt beam="1">  1        2 0.41847108E+00 0.39724440E+04</pdfrwt>
<pdfrwt beam="2">  1       -2 0.22313279E+00 0.39724440E+04</pdfrwt>
<totfact> 0.20271016E-01</totfact>
</mgrwt>
<rwgt>
<wgt id='morphing_basis_vector_1'> +1.5350189e-05 </wgt>
<wgt id='morphing_basis_vector_2'> +1.0422854e-05 </wgt>
<wgt id='morphing_basis_vector_3'> +1.6853291e-05 </wgt>
<wgt id='morphing_basis_vector_4'> +1.2103390e-05 </wgt>
<wgt id='morphing_basis_vector_5'> +1.9328680e-05 </wgt>
</rwgt>
</event>
<event>
 4      1 +4.5322000e-10 4.21167200e+03 7.81860800e-03 7.50406700e-02
        2 -1    0    0  501    0 +0.0000000000e+00 +0.0000000000e+00 +1.8481557467e+03 1.8481557467e+03 0.0000000000e+00 0.0000e+00 1.0000e+00
       -2 -1    0    0    0  501 -0.0000000000e+00 -0.0000000000e+00 -2.3994431444e+03 2.3994431444e+03 0.0000000000e+00 0.0000e+00 -1.0000e+00
      -13  1    1    2    0    0 +8.1212694041e+02 +5.2876843858e+02 -2.1611905576e+03 2.3685208159e+03 0.0000000000e+00 0.0000e+00 -1.0000e+00
       13  1    1    2    0    0 -8.1212694041e+02 -5.2876843858e+02 +1.6099031599e+03 1.8790780753e+03 0.0000000000e+00 0.0000e+00 1.0000e+00
<mgrwt>
<rscale>  0 0.42116717E+04</rscale>
<asrwt>0</asrwt>
<pdfrwt beam="1">  1        2 0.28433165E+00 0.42116717E+04</pdfrwt>
<pdfrwt beam="2">  1       -2 0.36914510E+00 0.42116717E+04</pdfrwt>
<totfact> 0.66500017E-02</totfact>
</mgrwt>
<rwgt>
<wgt id='morphing_basis_vector_1'> +1.9362818e-05 </wgt>
<wgt id='morphing_basis_vector_2'> +1.3132992e-05 </wgt>
<wgt id='morphing_basis_vector_3'> +2.1276306e-05 </wgt>
<wgt id='morphing_basis_vector_4'> +1.5331727e-05 </wgt>
<wgt id='morphing_basis_vector_5'> +2.4451430e-05 </wgt>
</rwgt>
</event>
<event>
 4      1 +4.5322000e-10 3.94034600e+03 7.81860800e-03 7.55147500e-02
        2 -1    0    0  501    0 +0.0000000000e+00 +0.0000000000e+00 +3.0087455508e+03 3.0087455508e+03 0.0000000000e+00 0.0000e+00 1.0000e+00
       -2 -1    0    0    0  501 -0.0000000000e+00 -0.0000000000e+00 -1.2900997173e+03 1.2900997173e+03 0.0000000000e+00 0.0000e+00 -1.0000e+00
      -13  1    1    2    0    0 -7.8159402081e+02 -6.6142425903e+02 -9.7703304873e+02 1.4152614042e+03 0.0000000000e+00 0.0000e+00 -1.0000e+00
       13  1    1    2    0    0 +7.8159402081e+02 +6.6142425903e+02 +2.6956788823e+03 2.8835838639e+03 0.0000000000e+00 0.0000e+00 1.0000e+00
<mgrwt>
<rscale>  0 0.39403461E+04</rscale>
<asrwt>0</asrwt>
<pdfrwt beam="1">  1        2 0.46288393E+00 0.39403461E+04</pdfrwt>
<pdfrwt beam="2">  1       -2 0.19847688E+00 0.39403461E+04</pdfrwt>
<totfact> 0.20029418E-01</totfact>
</mgrwt>
<rwgt>
<wgt id='morphing_basis_vector_1'> +1.4856173e-05 </wgt>
<wgt id='morphing_basis_vector_2'> +1.0071922e-05 </wgt>
<wgt id='morphing_basis_vector_3'> +1.6305082e-05 </wgt>
<wgt id='morphing_basis_vector_4'> +1.1728557e-05 </wgt>
<wgt id='morphing_basis_vector_5'> +1.8709543e-05 </wgt>
</rwgt>
</event>
<event>
 4      1 +4.5322000e-10 3.98372400e+03 7.81860800e-03 7.54364000e-02
        2 -1    0    0  501    0 +0.0000000000e+00 +0.0000000000e+00 +4.3034598034e+03 4.3034598034e+03 0.0000000000e+00 0.0000e+00 1.0000e+00
       -2 -1    0    0    0  501 -0.0000000000e+00 -0.0000000000e+00 -9.2193582873e+02 9.2193582873e+02 0.0000000000e+00 0.0000e+00 -1.0000e+00
      -13  1    1    2    0    0 -8.5826059309e+02 -9.8799048892e+02 -2.7885503967e+02 1.3380943857e+03 0.0000000000e+00 0.0000e+00 -1.0000e+00
       13  1    1    2    0    0 +8.5826059309e+02 +9.8799048892e+02 +3.6603790143e+03 3.8873012464e+03 0.0000000000e+00 0.0000e+00 1.0000e+00
<mgrwt>
<rscale>  0 0.39837238E+04</rscale>
<asrwt>0</asrwt>
<pdfrwt beam="1">  1        2 0.66207073E+00 0.39837238E+04</pdfrwt>
<pdfrwt beam="2">  1       -2 0.14183628E+00 0.39837238E+04</pdfrwt>
<totfact> 0.54622446E-02</totfact>
</mgrwt>
<rwgt>
<wgt id='morphing_basis_vector_1'> +1.5526230e-05 </wgt>
<wgt id='morphing_basis_vector_2'> +1.0546968e-05 </wgt>
<wgt id='morphing_basis_vector_3'> +1.7048448e-05 </wgt>
<wgt id='morphing_basis_vector_4'> +1.2238191e-05 </wgt>
<wgt id='morphing_basis_vector_5'> +1.9549938e-05 </wgt>
</rwgt>
</event>
<event>
 4      1 +4.5322000e-10 4.02076600e+03 7.81860800e-03 7.53702800e-02
        2 -1    0    0  501    0 +0.0000000000e+00 +0.0000000000e+00 +2.0653225650e+03 2.0653225650e+03 0.0000000000e+00 0.0000e+00 -1.0000e+00
       -2 -1    0    0    0  501 -0.0000000000e+00 -0.0000000000e+00 -1.9569046165e+03 1.9569046165e+03 0.0000000000e+00 0.0000e+00 1.0000e+00
      -13  1    1    2    0    0 -1.1235517973e+03 +8.3874301614e+02 -1.3870717207e+03 1.9722642943e+03 0.0000000000e+00 0.0000e+00 1.0000e+00
       13  1    1    2    0    0 +1.1235517973e+03 -8.3874301614e+02 +1.4954896691e+03 2.0499628872e+03 0.0000000000e+00 0.0000e+00 -1.0000e+00
<mgrwt>
<rscale>  0 0.40207657E+04</rscale>
<asrwt>0</asrwt>
<pdfrwt beam="1">  1        2 0.31774193E+00 0.40207657E+04</pdfrwt>
<pdfrwt beam="2">  1       -2 0.30106225E+00 0.40207657E+04</pdfrwt>
<totfact> 0.14285444E-01</totfact>
</mgrwt>
<rwgt>
<wgt id='morphing_basis_vector_1'> +1.6113688e-05 </wgt>
<wgt id='morphing_basis_vector_2'> +1.0958429e-05 </wgt>
<wgt id='morphing_basis_vector_3'> +1.7699133e-05 </wgt>
<wgt id='morphing_basis_vector_4'> +1.2691592e-05 </wgt>
<wgt id='morphing_basis_vector_5'> +2.0290124e-05 </wgt>
</rwgt>
</event>
<event>
 4      1 +4.5322000e-10 4.42396800e+03 7.81860800e-03 7.46943200e-02
        2 -1    0    0  501    0 +0.0000000000e+00 +0.0000000000e+00 +3.2282251459e+03 3.2282251459e+03 0.0000000000e+00 0.0000e+00 -1.0000e+00
       -2 -1    0    0    0  501 -0.0000000000e+00 -0.0000000000e+00 -1.5156545682e+03 1.5156545682e+03 0.0000000000e+00 0.0000e+00 1.0000e+00
      -13  1    1    2    0    0 -7.1928693727e+02 -4.1777032434e+02 -1.3415561540e+03 1.5785051968e+03 0.0000000000e+00 0.0000e+00 1.0000e+00
       13  1    1    2    0    0 +7.1928693727e+02 +4.1777032434e+02 +3.0541267316e+03 3.1653745173e+03 0.0000000000e+00 0.0000e+00 -1.0000e+00
<mgrwt>
<rscale>  0 0.44239684E+04</rscale>
<asrwt>0</asrwt>
<pdfrwt beam="1">  1        2 0.49665002E+00 0.44239684E+04</pdfrwt>
<pdfrwt beam="2">  1       -2 0.23317763E+00 0.44239684E+04</pdfrwt>
<totfact> 0.77671193E-02</totfact>
</mgrwt>
<rwgt>
<wgt id='morphing_basis_vector_1'> +2.3549694e-05 </wgt>
<wgt id='morphing_basis_vector_2'> +1.5976635e-05 </wgt>
<wgt id='morphing_basis_vector_3'> +2.5896833e-05 </wgt>
<wgt id='morphing_basis_vector_4'> +1.8684236e-05 </wgt>
<wgt id='morphing_basis_vector_5'> +2.9792265e-05 </wgt>
</rwgt>
</event>
<event>
 4      1 +4.5322000e-10 4.54728900e+03 7.81860800e-03 7.45020400e-02
        2 -1    0    0  501    0 +0.0000000000e+00 +0.0000000000e+00 +2.4483242640e+03 2.4483242640e+03 0.0000000000e+00 0.0000e+00 -1.0000e+00
       -2 -1    0    0    0  501 -0.0000000000e+00 -0.0000000000e+00 -2.1114272805e+03 2.1114272805e+03 0.0000000000e+00 0.0000e+00 1.0000e+00
      -13  1    1    2    0    0 -3.9352542866e+02 -1.9092278066e+03 +1.3418888944e+03 2.3665753496e+03 0.0000000000e+00 0.0000e+00 -1.0000e+00
       13  1    1    2    0    0 +3.9352542866e+02 +1.9092278066e+03 -1.0049919110e+03 2.1931761949e+03 0.0000000000e+00 0.0000e+00 1.0000e+00
<mgrwt>
<rscale>  0 0.45472887E+04</rscale>
<asrwt>0</asrwt>
<pdfrwt beam="1">  1        2 0.37666527E+00 0.45472887E+04</pdfrwt>
<pdfrwt beam="2">  1       -2 0.32483497E+00 0.45472887E+04</pdfrwt>
<totfact> 0.57108734E-02</totfact>
</mgrwt>
<rwgt>
<wgt id='morphing_basis_vector_1'> +3.1318277e-05 </wgt>
<wgt id='morphing_basis_vector_2'> +3.2644598e-05 </wgt>
<wgt id='morphing_basis_vector_3'> +3.7055458e-05 </wgt>
<wgt id='morphing_basis_vector_4'> +1.0149794e-05 </wgt>
<wgt id='morphing_basis_vector_5'> +3.2373869e-05 </wgt>
</rwgt>
</event>
<event>
 4      1 +4.5322000e-10 3.94338200e+03 7.81860800e-03 7.55092400e-02
        2 -1    0    0  501    0 +0.0000000000e+00 +0.0000000000e+00 +1.7123180276e+03 1.7123180276e+03 0.0000000000e+00 0.0000e+00 -1.0000e+00
       -2 -1    0    0    0  501 -0.0000000000e+00 -0.0000000000e+00 -2.2703524000e+03 2.2703524000e+03 0.0000000000e+00 0.0000e+00 1.0000e+00
      -13  1    1    2    0    0 +3.1095716698e+02 -1.9439938423e+03 -1.6949822068e+02 1.9759898951e+03 0.0000000000e+00 0.0000e+00 1.0000e+00
       13  1    1    2    0    0 -3.1095716698e+02 +1.9439938423e+03 -3.8853615176e+02 2.0066805326e+03 0.0000000000e+00 0.0000e+00 -1.0000e+00
<mgrwt>
<rscale>  0 0.39433820E+04</rscale>
<asrwt>0</asrwt>
<pdfrwt beam="1">  1        2 0.26343354E+00 0.39433820E+04</pdfrwt>
<pdfrwt beam="2">  1       -2 0.34928498E+00 0.39433820E+04</pdfrwt>
<totfact> 0.10856102E-01</totfact>
</mgrwt>
<rwgt>
<wgt id='morphing_basis_vector_1'> +1.5564657e-05 </wgt>
<wgt id='morphing_basis_vector_2'> +1.2051555e-05 </wgt>
<wgt id='morphing_basis_vector_3'> +1.7417985e-05 </wgt>
<wgt id='morphing_basis_vector_4'> +1.0363601e-05 </wgt>
<wgt id='morphing_basis_vector_5'> +1.8650876e-05 </wgt>
</rwgt>
</event>
<event>
 4      1 +4.5322000e-10 4.08529400e+03 7.81860800e-03 7.52568300e-02
        2 -1    0    0  501    0 +0.0000000000e+00 +0.0000000000e+00 +1.9172777543e+03 1.9172777543e+03 0.0000000000e+00 0.0000e+00 -1.0000e+00
       -2 -1    0    0    0  501 -0.0000000000e+00 -0.0000000000e+00 -2.1762137664e+03 2.1762137664e+03 0.0000000000e+00 0.0000e+00 1.0000e+00
      -13  1    1    2    0    0 -1.3444889761e+03 +1.0367974865e+03 -1.2674434876e+03 2.1187290127e+03 0.0000000000e+00 0.0000e+00 1.0000e+00
       13  1    1    2    0    0 +1.3444889761e+03 -1.0367974865e+03 +1.0085074756e+03 1.9747625080e+03 0.0000000000e+00 0.0000e+00 -1.0000e+00
<mgrwt>
<rscale>  0 0.40852937E+04</rscale>
<asrwt>0</asrwt>
<pdfrwt beam="1">  1        2 0.29496581E+00 0.40852937E+04</pdfrwt>
<pdfrwt beam="2">  1       -2 0.33480212E+00 0.40852937E+04</pdfrwt>
<totfact> 0.10263326E-01</totfact>
</mgrwt>
<rwgt>
<wgt id='morphing_basis_vector_1'> +1.7205304e-05 </wgt>
<wgt id='morphing_basis_vector_2'> +1.1787733e-05 </wgt>
<wgt id='morphing_basis_vector_3'> +1.8922815e-05 </wgt>
<wgt id='morphing_basis_vector_4'> +1.3450842e-05 </wgt>
<wgt id='morphing_basis_vector_5'> +2.1624376e-05 </wgt>
</rwgt>
</event>
<event>
 4      1 +4.5322000e-10 4.08003000e+03 7.81860800e-03 7.52660000e-02
        2 -1    0    0  501    0 +0.0000000000e+00 +0.0000000000e+00 +3.1502216093e+03 3.1502216093e+03 0.0000000000e+00 0.0000e+00 1.0000e+00
       -2 -1    0    0    0  501 -0.0000000000e+00 -0.0000000000e+00 -1.3210690911e+03 1.3210690911e+03 0.0000000000e+00 0.0000e+00 -1.0000e+00
      -13  1    1    2    0    0 -1.3251593026e+03 +7.1065727873e+02 +2.4253958466e+03 2.8537039016e+03 0.0000000000e+00 0.0000e+00 1.0000e+00
       13  1    1    2    0    0 +1.3251593026e+03 -7.1065727873e+02 -5.9624332844e+02 1.6175867989e+03 0.0000000000e+00 0.0000e+00 -1.0000e+00
<mgrwt>
<rscale>  0 0.40800296E+04</rscale>
<asrwt>0</asrwt>
<pdfrwt beam="1">  1        2 0.48464948E+00 0.40800296E+04</pdfrwt>
<pdfrwt beam="2">  1       -2 0.20324140E+00 0.40800296E+04</pdfrwt>
<totfact> 0.14732916E-01</totfact>
</mgrwt>
<rwgt>
<wgt id='morphing_basis_vector_1'> +2.1783368e-05 </wgt>
<wgt id='morphing_basis_vector_2'> +2.5441393e-05 </wgt>
<wgt id='morphing_basis_vector_3'> +2.6321411e-05 </wgt>
<wgt id='morphing_basis_vector_4'> +3.5037012e-06 </wgt>
<wgt id='morphing_basis_vector_5'> +2.0689120e-05 </wgt>
</rwgt>
</event>
<event>
 4      1 +4.5322000e-10 4.27458600e+03 7.81860800e-03 7.49359100e-02
        2 -1    0    0  501    0 +0.0000000000e+00 +0.0000000000e+00 +2.4966096704e+03 2.4966096704e+03 0.0000000000e+00 0.0000e+00 -1.0000e+00
       -2 -1    0    0    0  501 -0.0000000000e+00 -0.0000000000e+00 -1.8296900652e+03 1.8296900652e+03 0.0000000000e+00 0.0000e+00 1.0000e+00
      -13  1    1    2    0    0 +8.5436101428e+02 -8.5749520333e+02 -1.4493244603e+03 1.8883252256e+03 0.0000000000e+00 0.0000e+00 1.0000e+00
       13  1    1    2    0    0 -8.5436101428e+02 +8.5749520333e+02 +2.1162440655e+03 2.4379745099e+03 0.0000000000e+00 0.0000e+00 -1.0000e+00
<mgrwt>
<rscale>  0 0.42745863E+04</rscale>
<asrwt>0</asrwt>
<pdfrwt beam="1">  1        2 0.38409380E+00 0.42745863E+04</pdfrwt>
<pdfrwt beam="2">  1       -2 0.28149078E+00 0.42745863E+04</pdfrwt>
<totfact> 0.10680849E-01</totfact>
</mgrwt>
<rwgt>
<wgt id='morphing_basis_vector_1'> +2.0545251e-05 </wgt>
<wgt id='morphing_basis_vector_2'> +1.3948170e-05 </wgt>
<wgt id='morphing_basis_vector_3'> +2.2583749e-05 </wgt>
<wgt id='morphing_basis_vector_4'> +1.6262493e-05 </wgt>
<wgt id='morphing_basis_vector_5'> +2.5951462e-05 </wgt>
</rwgt>
</event>
<event>
 4      1 +4.5322000e-10 3.99190600e+03 7.81860800e-03 7.54217300e-02
        2 -1    0    0  501    0 +0.0000000000e+00 +0.0000000000e+00 +3.1927730905e+03 3.1927730905e+03 0.0000000000e+00 0.0000e+00 1.0000e+00
       -2 -1    0    0    0  501 -0.0000000000e+00 -0.0000000000e+00 -1.2477644618e+03 1.2477644618e+03 0.0000000000e+00 0.0000e+00 -1.0000e+00
      -13  1    1    2    0    0 -2.0272996306e+02 +1.7822920559e+03 -1.1755719009e+00 1.7937853250e+03 0.0000000000e+00 0.0000e+00 -1.0000e+00
       13  1    1    2    0    0 +2.0272996306e+02 -1.7822920559e+03 +1.9461842005e+03 2.6467522273e+03 0.0000000000e+00 0.0000e+00 1.0000e+00
<mgrwt>
<rscale>  0 0.39919062E+04</rscale>
<asrwt>0</asrwt>
<pdfrwt beam="1">  1        2 0.49119585E+00 0.39919062E+04</pdfrwt>
<pdfrwt beam="2">  1       -2 0.19196377E+00 0.39919062E+04</pdfrwt>
<totfact> 0.16800841E-01</totfact>
</mgrwt>
<rwgt>
<wgt id='morphing_basis_vector_1'> +1.5736651e-05 </wgt>
<wgt id='morphing_basis_vector_2'> +1.0878057e-05 </wgt>
<wgt id='morphing_basis_vector_3'> +1.7322260e-05 </wgt>
<wgt id='morphing_basis_vector_4'> +1.2163723e-05 </wgt>
<wgt id='morphing_basis_vector_5'> +1.9697215e-05 </wgt>
</rwgt>
</event>
<event>
 4      1 +4.5322000e-10 4.47338900e+03 7.81860800e-03 7.46165100e-02
        2 -1    0    0  501    0 +0.0000000000e+00 +0.0000000000e+00 +2.8323541848e+03 2.8323541848e+03 0.0000000000e+00 0.0000e+00 -1.0000e+00
       -2 -1    0    0    0  501 -0.0000000000e+00 -0.0000000000e+00 -1.7663050310e+03 1.7663050310e+03 0.0000000000e+00 0.0000e+00 1.0000e+00
      -13  1    1    2    0    0 +1.2216746293e+03 +1.2001070960e+03 -9.4603474673e+02 1.9564579432e+03 0.0000000000e+00 0.0000e+00 1.0000e+00
       13  1    1    2    0    0 -1.2216746293e+03 -1.2001070960e+03 +2.0120839005e+03 2.6422012725e+03 0.0000000000e+00 0.0000e+00 -1.0000e+00
<mgrwt>
<rscale>  0 0.44733886E+04</rscale>
<asrwt>0</asrwt>
<pdfrwt beam="1">  1        2 0.43574680E+00 0.44733886E+04</pdfrwt>
<pdfrwt beam="2">  1       -2 0.27173924E+00 0.44733886E+04</pdfrwt>
<totfact> 0.76249005E-02</totfact>
</mgrwt>
<rwgt>
<wgt id='morphing_basis_vector_1'> +2.4660898e-05 </wgt>
<wgt id='morphing_basis_vector_2'> +1.6835581e-05 </wgt>
<wgt id='morphing_basis_vector_3'> +2.7146967e-05 </wgt>
<wgt id='morphing_basis_vector_4'> +1.9439596e-05 </wgt>
<wgt id='morphing_basis_vector_5'> +3.1143416e-05 </wgt>
</rwgt>
</event>
<event>
 4      1 +4.5322000e-10 4.14657200e+03 7.81860800e-03 7.51510400e-02
        2 -1    0    0  501    0 +0.0000000000e+00 +0.0000000000e+00 +2.8868879686e+03 2.8868879686e+03 0.0000000000e+00 0.0000e+00 1.0000e+00
       -2 -1    0    0    0  501 -0.0000000000e+00 -0.0000000000e+00 -1.4889786775e+03 1.4889786775e+03 0.0000000000e+00 0.0000e+00 -1.0000e+00
      -13  1    1    2    0    0 -4.4124827414e+02 +1.0760401606e+03 +2.5102435361e+03 2.7665655744e+03 0.0000000000e+00 0.0000e+00 1.0000e+00
       13  1    1    2    0    0 +4.4124827414e+02 -1.0760401606e+03 -1.1123342450e+03 1.6093010717e+03 0.0000000000e+00 0.0000e+00 -1.0000e+00
<mgrwt>
<rscale>  0 0.41465719E+04</rscale>
<asrwt>0</asrwt>
<pdfrwt beam="1">  1        2 0.44413661E+00 0.41465719E+04</pdfrwt>
<pdfrwt beam="2">  1       -2 0.22907364E+00 0.41465719E+04</pdfrwt>
<totfact> 0.14258040E-01</totfact>
</mgrwt>
<rwgt>
<wgt id='morphing_basis_vector_1'> +2.4441605e-05 </wgt>
<wgt id='morphing_basis_vector_2'> +3.0688790e-05 </wgt>
<wgt id='morphing_basis_vector_3'> +3.0030441e-05 </wgt>
<wgt id='morphing_basis_vector_4'> +1.1774047e-06 </wgt>
<wgt id='morphing_basis_vector_5'> +2.1864764e-05 </wgt>
</rwgt>
</event>
<event>
 4      1 +4.5322000e-10 4.03851700e+03 7.81860800e-03 7.53388600e-02
        2 -1    0    0  501    0 +0.0000000000e+00 +0.0000000000e+00 +2.1233279479e+03 2.1233279479e+03 0.0000000000e+00 0.0000e+00 1.0000e+00
       -2 -1    0    0    0  501 -0.0000000000e+00 -0.0000000000e+00 -1.9202895358e+03 1.9202895358e+03 0.0000000000e+00 0.0000e+00 -1.0000e+00
      -13  1    1    2    0    0 -1.4703014798e+03 +2.0902267281e+01 -1.2841293615e+03 1.9522324563e+03 0.0000000000e+00 0.0000e+00 -1.0000e+00
       13  1    1    2    0    0 +1.4703014798e+03 -2.0902267281e+01 +1.4871677737e+03 2.0913850275e+03 0.0000000000e+00 0.0000e+00 1.0000e+00
<mgrwt>
<rscale>  0 0.40385168E+04</rscale>
<asrwt>0</asrwt>
<pdfrwt beam="1">  1        2 0.32666584E+00 0.40385168E+04</pdfrwt>
<pdfrwt beam="2">  1       -2 0.29542916E+00 0.40385168E+04</pdfrwt>
<totfact> 0.14432775E-01</totfact>
</mgrwt>
<rwgt>
<wgt id='morphing_basis_vector_1'> +1.6403733e-05 </wgt>
<wgt id='morphing_basis_vector_2'> +1.1167701e-05 </wgt>
<wgt id='morphing_basis_vector_3'> +1.8021779e-05 </wgt>
<wgt id='morphing_basis_vector_4'> +1.2907592e-05 </wgt>
<wgt id='morphing_basis_vector_5'> +2.0651702e-05 </wgt>
</rwgt>
</event>
<event>
 4      1 +4.5322000e-10 3.87168200e+03 7.81860800e-03 7.56409200e-02
        2 -1    0    0  501    0 +0.0000000000e+00 +0.0000000000e+00 +3.8010160454e+03 3.8010160454e+03 0.0000000000e+00 0.0000e+00 -1.0000e+00
       -2 -1    0    0    0  501 -0.0000000000e+00 -0.0000000000e+00 -9.8591534423e+02 9.8591534423e+02 0.0000000000e+00 0.0000e+00 1.0000e+00
      -13  1    1    2    0    0 -8.9838055555e+02 +1.4650347597e+03 +3.0579358376e+02 1.7455440944e+03 0.0000000000e+00 0.0000e+00 1.0000e+00
       13  1    1    2    0    0 +8.9838055555e+02 -1.4650347597e+03 +2.5093071174e+03 3.0413872951e+03 0.0000000000e+00 0.0000e+00 -1.0000e+00
<mgrwt>
<rscale>  0 0.38716818E+04</rscale>
<asrwt>0</asrwt>
<pdfrwt beam="1">  1        2 0.58477169E+00 0.38716818E+04</pdfrwt>
<pdfrwt beam="2">  1       -2 0.15167929E+00 0.38716818E+04</pdfrwt>
<totfact> 0.12474159E-01</totfact>
</mgrwt>
<rwgt>
<wgt id='morphing_basis_vector_1'> +1.3925222e-05 </wgt>
<wgt id='morphing_basis_vector_2'> +9.6028263e-06 </wgt>
<wgt id='morphing_basis_vector_3'> +1.5314535e-05 </wgt>
<wgt id='morphing_basis_vector_4'> +1.0774913e-05 </wgt>
<wgt id='morphing_basis_vector_5'> +1.7419967e-05 </wgt>
</rwgt>
</event>
<event>
 4      1 +4.5322000e-10 3.88930200e+03 7.81860800e-03 7.56082900e-02
        2 -1    0    0  501    0 +0.0000000000e+00 +0.0000000000e+00 +1.8070662594e+03 1.8070662594e+03 0.0000000000e+00 0.0000e+00 -1.0000e+00
       -2 -1    0    0    0  501 -0.0000000000e+00 -0.0000000000e+00 -2.0927111871e+03 2.0927111871e+03 0.0000000000e+00 0.0000e+00 1.0000e+00
      -13  1    1    2    0    0 -9.0813390349e+02 +1.4351045643e+03 -1.0927046842e+03 2.0194642418e+03 0.0000000000e+00 0.0000e+00 1.0000e+00
       13  1    1    2    0    0 +9.0813390349e+02 -1.4351045643e+03 +8.0705975650e+02 1.8803132047e+03 0.0000000000e+00 0.0000e+00 -1.0000e+00
<mgrwt>
<rscale>  0 0.38893021E+04</rscale>
<asrwt>0</asrwt>
<pdfrwt beam="1">  1        2 0.27801019E+00 0.38893021E+04</pdfrwt>
<pdfrwt beam="2">  1       -2 0.32195557E+00 0.38893021E+04</pdfrwt>
<totfact> 0.14607852E-01</totfact>
</mgrwt>
<rwgt>
<wgt id='morphing_basis_vector_1'> +1.4169173e-05 </wgt>
<wgt id='morphing_basis_vector_2'> +9.7493863e-06 </wgt>
<wgt id='morphing_basis_vector_3'> +1.5579329e-05 </wgt>
<wgt id='morphing_basis_vector_4'> +1.0994307e-05 </wgt>
<wgt id='morphing_basis_vector_5'> +1.7742692e-05 </wgt>
</rwgt>
</event>
<event>
 4      1 +4.5322000e-10 4.59256800e+03 7.81860800e-03 7.44329800e-02
        2 -1    0    0  501    0 +0.0000000000e+00 +0.0000000000e+00 +2.8239336095e+03 2.8239336095e+03 0.0000000000e+00 0.0000e+00 1.0000e+00
       -2 -1    0    0    0  501 -0.0000000000e+00 -0.0000000000e+00 -1.8672251272e+03 1.8672251272e+03 0.0000000000e+00 0.0000e+00 -1.0000e+00
      -13  1    1    2    0    0 -1.4743709366e+03 +6.1849522248e+02 -1.2052441462e+03 2.0022286211e+03 0.0000000000e+00 0.0000e+00 -1.0000e+00
       13  1    1    2    0    0 +1.4743709366e+03 -6.1849522248e+02 +2.1619526285e+03 2.6889301157e+03 0.0000000000e+00 0.0000e+00 1.0000e+00
<mgrwt>
<rscale>  0 0.45925678E+04</rscale>
<asrwt>0</asrwt>
<pdfrwt beam="1">  1        2 0.43445133E+00 0.45925678E+04</pdfrwt>
<pdfrwt beam="2">  1       -2 0.28726540E+00 0.45925678E+04</pdfrwt>
<totfact> 0.59951051E-02</totfact>
</mgrwt>
<rwgt>
<wgt id='morphing_basis_vector_1'> +2.7362032e-05 </wgt>
<wgt id='morphing_basis_vector_2'> +1.8634031e-05 </wgt>
<wgt id='morphing_basis_vector_3'> +3.0120790e-05 </wgt>
<wgt id='morphing_basis_vector_4'> +2.1651453e-05 </wgt>
<wgt id='morphing_basis_vector_5'> +3.4615303e-05 </wgt>
</rwgt>
</event>
<event>
 4      1 +4.5322000e-10 3.88351900e+03 7.81860800e-03 7.56189800e-02
        2 -1    0    0  501    0 +0.0000000000e+00 +0.0000000000e+00 +2.2089036911e+03 2.2089036911e+03 0.0000000000e+00 0.0000e+00 1.0000e+00
       -2 -1    0    0    0  501 -0.0000000000e+00 -0.0000000000e+00 -1.7069237040e+03 1.7069237040e+03 0.0000000000e+00 0.0000e+00 -1.0000e+00
      -13  1    1    2    0    0 -8.7070620748e+02 -1.2403321321e+03 -9.7314331813e+02 1.8009888993e+03 0.0000000000e+00 0.0000e+00 -1.0000e+00
       13  1    1    2    0    0 +8.7070620748e+02 +1.2403321321e+03 +1.4751233052e+03 2.1148384958e+03 0.0000000000e+00 0.0000e+00 1.0000e+00
<mgrwt>
<rscale>  0 0.38835191E+04</rscale>
<asrwt>0</asrwt>
<pdfrwt beam="1">  1        2 0.33983134E+00 0.38835191E+04</pdfrwt>
<pdfrwt beam="2">  1       -2 0.26260365E+00 0.38835191E+04</pdfrwt>
<totfact> 0.21854271E-01</totfact>
</mgrwt>
<rwgt>
<wgt id='morphing_basis_vector_1'> +1.4048615e-05 </wgt>
<wgt id='morphing_basis_vector_2'> +9.5830985e-06 </wgt>
<wgt id='morphing_basis_vector_3'> +1.5427767e-05 </wgt>
<wgt id='morphing_basis_vector_4'> +1.1006741e-05 </wgt>
<wgt id='morphing_basis_vector_5'> +1.7643340e-05 </wgt>
</rwgt>
</event>
<event>
 4      1 +4.5322000e-10 4.07059700e+03 7.81860800e-03 7.52824800e-02
        2 -1    0    0  501    0 +0.0000000000e+00 +0.0000000000e+00 +2.1250681872e+03 2.1250681872e+03 0.0000000000e+00 0.0000e+00 1.0000e+00
       -2 -1    0    0    0  501 -0.0000000000e+00 -0.0000000000e+00 -1.9493207363e+03 1.9493207363e+03 0.0000000000e+00 0.0000e+00 -1.0000e+00
      -13  1    1    2    0    0 +1.0109617239e+03 -1.7394279214e+03 -2.2028706164e+02 2.0239020457e+03 0.0000000000e+00 0.0000e+00 -1.0000e+00
       13  1    1    2    0    0 -1.0109617239e+03 +1.7394279214e+03 +3.9603451250e+02 2.0504868778e+03 0.0000000000e+00 0.0000e+00 1.0000e+00
<mgrwt>
<rscale>  0 0.40705968E+04</rscale>
<asrwt>0</asrwt>
<pdfrwt beam="1">  1        2 0.32693357E+00 0.40705968E+04</pdfrwt>
<pdfrwt beam="2">  1       -2 0.29989549E+00 0.40705968E+04</pdfrwt>
<totfact> 0.13400708E-01</totfact>
</mgrwt>
<rwgt>
<wgt id='morphing_basis_vector_1'> +1.7258525e-05 </wgt>
<wgt id='morphing_basis_vector_2'> +1.2496004e-05 </wgt>
<wgt id='morphing_basis_vector_3'> +1.9131143e-05 </wgt>
<wgt id='morphing_basis_vector_4'> +1.2626092e-05 </wgt>
<wgt id='morphing_basis_vector_5'> +2.1260777e-05 </wgt>
</rwgt>
</event>
<event>
 4      1 +4.5322000e-10 4.60521600e+03 7.81860800e-03 7.44138300e-02
        2 -1    0    0  501    0 +0.0000000000e+00 +0.0000000000e+00 +2.3280324472e+03 2.3280324472e+03 0.0000000000e+00 0.0000e+00 -1.0000e+00
       -2 -1    0    0    0  501 -0.0000000000e+00 -0.0000000000e+00 -2.2774614980e+03 2.2774614980e+03 0.0000000000e+00 0.0000e+00 1.0000e+00
      -13  1    1    2    0    0 +1.0649067331e+03 +6.6614799257e+02 +1.9552268885e+03 2.3239388296e+03 0.0000000000e+00 0.0000e+00 -1.0000e+00
       13  1    1    2    0    0 -1.0649067331e+03 -6.6614799257e+02 -1.9046559393e+03 2.2815551155e+03 0.0000000000e+00 0.0000e+00 1.0000e+00
<mgrwt>
<rscale>  0 0.46052163E+04</rscale>
<asrwt>0</asrwt>
<pdfrwt beam="1">  1        2 0.35815884E+00 0.46052163E+04</pdfrwt>
<pdfrwt beam="2">  1       -2 0.35037869E+00 0.46052163E+04</pdfrwt>
<totfact> 0.45493948E-02</totfact>
</mgrwt>
<rwgt>
<wgt id='morphing_basis_vector_1'> +3.7209357e-05 </wgt>
<wgt id='morphing_basis_vector_2'> +4.6881012e-05 </wgt>
<wgt id='morphing_basis_vector_3'> +4.5889315e-05 </wgt>
<wgt id='morphing_basis_vector_4'> +1.5997269e-06 </wgt>
<wgt id='morphing_basis_vector_5'> +3.3301886e-05 </wgt>
</rwgt>
</event>
<event>
 4      1 +4.5322000e-10 3.98802600e+03 7.81860800e-03 7.54286800e-02
        2 -1    0    0  501    0 +0.0000000000e+00 +0.0000000000e+00 +2.2455682912e+03 2.2455682912e+03 0.0000000000e+00 0.0000e+00 -1.0000e+00
       -2 -1    0    0    0  501 -0.0000000000e+00 -0.0000000000e+00 -1.7706373323e+03 1.7706373323e+03 0.0000000000e+00 0.0000e+00 1.0000e+00
      -13  1    1    2    0    0 -2.9705685688e+02 +1.9288924312e+03 +6.4927829180e+02 2.0568011784e+03 0.0000000000e+00 0.0000e+00 1.0000e+00
       13  1    1    2    0    0 +2.9705685688e+02 -1.9288924312e+03 -1.7434733295e+02 1.9594044452e+03 0.0000000000e+00 0.0000e+00 -1.0000e+00
<mgrwt>
<rscale>  0 0.39880256E+04</rscale>
<asrwt>0</asrwt>
<pdfrwt beam="1">  1        2 0.34547205E+00 0.39880256E+04</pdfrwt>
<pdfrwt beam="2">  1       -2 0.27240574E+00 0.39880256E+04</pdfrwt>
<totfact> 0.17685746E-01</totfact>
</mgrwt>
<rwgt>
<wgt id='morphing_basis_vector_1'> +1.6747342e-05 </wgt>
<wgt id='morphing_basis_vector_2'> +1.3985438e-05 </wgt>
<wgt id='morphing_basis_vector_3'> +1.8973851e-05 </wgt>
<wgt id='morphing_basis_vector_4'> +9.8501400e-06 </wgt>
<wgt id='morphing_basis_vector_5'> +1.9431576e-05 </wgt>
</rwgt>
</event>
<event>
 4      1 +4.5322000e-10 3.96446900e+03 7.81860800e-03 7.54710500e-02
        2 -1    0    0  501    0 +0.0000000000e+00 +0.0000000000e+00 +1.4412018342e+03 1.4412018342e+03 0.0000000000e+00 0.0000e+00 1.0000e+00
       -2 -1    0    0    0  501 -0.0000000000e+00 -0.0000000000e+00 -2.7263722912e+03 2.7263722912e+03 0.0000000000e+00 0.0000e+00 -1.0000e+00
      -13  1    1    2    0    0 -5.3392797140e+02 +1.2107638387e+03 +9.0890728180e+02 1.6053475009e+03 0.0000000000e+00 0.0000e+00 1.0000e+00
       13  1    1    2    0    0 +5.3392797140e+02 -1.2107638387e+03 -2.1940777388e+03 2.5622266246e+03 0.0000000000e+00 0.0000e+00 -1.0000e+00
<mgrwt>
<rscale>  0 0.39644686E+04</rscale>
<asrwt>0</asrwt>
<pdfrwt beam="1">  1        2 0.22172336E+00 0.39644686E+04</pdfrwt>
<pdfrwt beam="2">  1       -2 0.41944189E+00 0.39644686E+04</pdfrwt>
<totfact> 0.53794891E-02</totfact>
</mgrwt>
<rwgt>
<wgt id='morphing_basis_vector_1'> +1.9941408e-05 </wgt>
<wgt id='morphing_basis_vector_2'> +2.4194910e-05 </wgt>
<wgt id='morphing_basis_vector_3'> +2.4276751e-05 </wgt>
<wgt id='morphing_basis_vector_4'> +2.0396513e-06 </wgt>
<wgt id='morphing_basis_vector_5'> +1.8343081e-05 </wgt>
</rwgt>
</event>
<event>
 4      1 +4.5322000e-10 4.44124500e+03 7.81860800e-03 7.46670000e-02
        2 -1    0    0  501    0 +0.0000000000e+00 +0.0000000000e+00 +2.7922888589e+03 2.7922888589e+03 0.0000000000e+00 0.0000e+00 1.0000e+00
       -2 -1    0    0    0  501 -0.0000000000e+00 -0.0000000000e+00 -1.7659932866e+03 1.7659932866e+03 0.0000000000e+00 0.0000e+00 -1.0000e+00
      -13  1    1    2    0    0 +6.4087337562e+02 +9.3652730684e+02 -1.4459117397e+03 1.8380595308e+03 0.0000000000e+00 0.0000e+00 -1.0000e+00
       13  1    1    2    0    0 -6.4087337562e+02 -9.3652730684e+02 +2.4722073120e+03 2.7202226147e+03 0.0000000000e+00 0.0000e+00 1.0000e+00
<mgrwt>
<rscale>  0 0.44412446E+04</rscale>
<asrwt>0</asrwt>
<pdfrwt beam="1">  1        2 0.42958290E+00 0.44412446E+04</pdfrwt>
<pdfrwt beam="2">  1       -2 0.27169128E+00 0.44412446E+04</pdfrwt>
<totfact> 0.81072515E-02</totfact>
</mgrwt>
<rwgt>
<wgt id='morphing_basis_vector_1'> +2.3922305e-05 </wgt>
<wgt id='morphing_basis_vector_2'> +1.6239442e-05 </wgt>
<wgt id='morphing_basis_vector_3'> +2.6310314e-05 </wgt>
<wgt id='morphing_basis_vector_4'> +1.8970161e-05 </wgt>
<wgt id='morphing_basis_vector_5'> +3.0261537e-05 </wgt>
</rwgt>
</event>
<event>
 4      1 +4.5322000e-10 4.06644100e+03 7.81860800e-03 7.52897500e-02
        2 -1    0    0  501    0 +0.0000000000e+00 +0.0000000000e+00 +2.5789167087e+03 2.5789167087e+03 0.0000000000e+00 0.0000e+00 -1.0000e+00
       -2 -1    0    0    0  501 -0.0000000000e+00 -0.0000000000e+00 -1.6029930817e+03 1.6029930817e+03 0.0000000000e+00 0.0000e+00 1.0000e+00
      -13  1    1    2    0    0 +1.1297480434e+03 +1.1945275564e+03 -7.4214666918e+02 1.8038870261e+03 0.0000000000e+00 0.0000e+00 1.0000e+00
       13  1    1    2    0    0 -1.1297480434e+03 -1.1945275564e+03 +1.7180702962e+03 2.3780227642e+03 0.0000000000e+00 0.0000e+00 -1.0000e+00
<mgrwt>
<rscale>  0 0.40664410E+04</rscale>
<asrwt>0</asrwt>
<pdfrwt beam="1">  1        2 0.39675642E+00 0.40664410E+04</pdfrwt>
<pdfrwt beam="2">  1       -2 0.24661432E+00 0.40664410E+04</pdfrwt>
<totfact> 0.16814322E-01</totfact>
</mgrwt>
<rwgt>
<wgt id='morphing_basis_vector_1'> +1.6881813e-05 </wgt>
<wgt id='morphing_basis_vector_2'> +1.1543768e-05 </wgt>
<wgt id='morphing_basis_vector_3'> +1.8560558e-05 </wgt>
<wgt id='morphing_basis_vector_4'> +1.3223509e-05 </wgt>
<wgt id='morphing_basis_vector_5'> +2.1227787e-05 </wgt>
</rwgt>
</event>
<event>
 4      1 +4.5322000e-10 4.43267400e+03 7.81860800e-03 7.46805400e-02
        2 -1    0    0  501    0 +0.0000000000e+00 +0.0000000000e+00 +2.9866552447e+03 2.9866552447e+03 0.0000000000e+00 0.0000e+00 -1.0000e+00
       -2 -1    0    0    0  501 -0.0000000000e+00 -0.0000000000e+00 -1.6446996023e+03 1.6446996023e+03 0.0000000000e+00 0.0000e+00 1.0000e+00
      -13  1    1    2    0    0 -1.3855422960e+03 +1.3498454227e+03 -4.5933421348e+02 1.9881644899e+03 0.0000000000e+00 0.0000e+00 1.0000e+00
       13  1    1    2    0    0 +1.3855422960e+03 -1.3498454227e+03 +1.8012898558e+03 2.6431903571e+03 0.0000000000e+00 0.0000e+00 -1.0000e+00
<mgrwt>
<rscale>  0 0.44326744E+04</rscale>
<asrwt>0</asrwt>
<pdfrwt beam="1">  1        2 0.45948542E+00 0.44326744E+04</pdfrwt>
<pdfrwt beam="2">  1       -2 0.25303071E+00 0.44326744E+04</pdfrwt>
<totfact> 0.81886337E-02</totfact>
</mgrwt>
<rwgt>
<wgt id='morphing_basis_vector_1'> +2.3846662e-05 </wgt>
<wgt id='morphing_basis_vector_2'> +1.6431104e-05 </wgt>
<wgt id='morphing_basis_vector_3'> +2.6281708e-05 </wgt>
<wgt id='morphing_basis_vector_4'> +1.8594905e-05 </wgt>
<wgt id='morphing_basis_vector_5'> +3.0008585e-05 </wgt>
</rwgt>
</event>
<event>
 4      1 +4.5322000e-10 4.17574500e+03 7.81860800e-03 7.51013300e-02
        2 -1    0    0  501    0 +0.0000000000e+00 +0.0000000000e+00 +2.2788613195e+03 2.2788613195e+03 0.0000000000e+00 0.0000e+00 1.0000e+00
       -2 -1    0    0    0  501 -0.0000000000e+00 -0.0000000000e+00 -1.9128899877e+03 1.9128899877e+03 0.0000000000e+00 0.0000e+00 -1.0000e+00
      -13  1    1    2    0    0 -1.1591722727e+02 -1.5563214049e+03 -1.2092835731e+03 1.9743201055e+03 0.0000000000e+00 0.0000e+00 -1.0000e+00
       13  1    1    2    0    0 +1.1591722727e+02 +1.5563214049e+03 +1.5752549049e+03 2.2174312017e+03 0.0000000000e+00 0.0000e+00 1.0000e+00
<mgrwt>
<rscale>  0 0.41757447E+04</rscale>
<asrwt>0</asrwt>
<pdfrwt beam="1">  1        2 0.35059405E+00 0.41757447E+04</pdfrwt>
<pdfrwt beam="2">  1       -2 0.29429077E+00 0.41757447E+04</pdfrwt>
<totfact> 0.11832834E-01</totfact>
</mgrwt>
<rwgt>
<wgt id='morphing_basis_vector_1'> +1.8741785e-05 </wgt>
<wgt id='morphing_basis_vector_2'> +1.2774414e-05 </wgt>
<wgt id='morphing_basis_vector_3'> +2.0605242e-05 </wgt>
<wgt id='morphing_basis_vector_4'> +1.4753142e-05 </wgt>
<wgt id='morphing_basis_vector_5'> +2.3619079e-05 </wgt>
</rwgt>
</event>
<event>
 4      1 +4.5322000e-10 4.06011400e+03 7.81860800e-03 7.53008400e-02
        2 -1    0    0  501    0 +0.0000000000e+00 +0.0000000000e+00 +1.7733577096e+03 1.7733577096e+03 0.0000000000e+00 0.0000e+00 -1.0000e+00
       -2 -1    0    0    0  501 -0.0000000000e+00 -0.0000000000e+00 -2.3239148692e+03 2.3239148692e+03 0.0000000000e+00 0.0000e+00 1.0000e+00
      -13  1    1    2    0    0 -1.4404086713e+03 -8.7161906372e+02 -1.4199592035e+03 2.2024488808e+03 0.0000000000e+00 0.0000e+00 1.0000e+00
       13  1    1    2    0    0 +1.4404086713e+03 +8.7161906372e+02 +8.6940204394e+02 1.8948236981e+03 0.0000000000e+00 0.0000e+00 -1.0000e+00
<mgrwt>
<rscale>  0 0.40601145E+04</rscale>
<asrwt>0</asrwt>
<pdfrwt beam="1">  1        2 0.27282426E+00 0.40601145E+04</pdfrwt>
<pdfrwt beam="2">  1       -2 0.35752536E+00 0.40601145E+04</pdfrwt>
<totfact> 0.87983759E-02</totfact>
</mgrwt>
<rwgt>
<wgt id='morphing_basis_vector_1'> +1.6786220e-05 </wgt>
<wgt id='morphing_basis_vector_2'> +1.1497816e-05 </wgt>
<wgt id='morphing_basis_vector_3'> +1.8459331e-05 </wgt>
<wgt id='morphing_basis_vector_4'> +1.3122608e-05 </wgt>
<wgt id='morphing_basis_vector_5'> +2.1093824e-05 </wgt>
</rwgt>
</event>
<event>
 4      1 +4.5322000e-10 4.26417700e+03 7.81860800e-03 7.49531100e-02
        2 -1    0    0  501    0 +0.0000000000e+00 +0.0000000000e+00 +3.3382814709e+03 3.3382814709e+03 0.0000000000e+00 0.0000e+00 -1.0000e+00
       -2 -1    0    0    0  501 -0.0000000000e+00 -0.0000000000e+00 -1.3617189504e+03 1.3617189504e+03 0.0000000000e+00 0.0000e+00 1.0000e+00
      -13  1    1    2    0    0 +1.5750221395e+01 +1.0311013037e+03 -1.0685608841e+03 1.4850051620e+03 0.0000000000e+00 0.0000e+00 1.0000e+00
       13  1    1    2    0    0 -1.5750221395e+01 -1.0311013037e+03 +3.0451234047e+03 3.2149952593e+03 0.0000000000e+00 0.0000e+00 -1.0000e+00
<mgrwt>
<rscale>  0 0.42641769E+04</rscale>
<asrwt>0</asrwt>
<pdfrwt beam="1">  1        2 0.51358176E+00 0.42641769E+04</pdfrwt>
<pdfrwt beam="2">  1       -2 0.20949522E+00 0.42641769E+04</pdfrwt>
<totfact> 0.97117113E-02</totfact>
</mgrwt>
<rwgt>
<wgt id='morphing_basis_vector_1'> +2.0342713e-05 </wgt>
<wgt id='morphing_basis_vector_2'> +1.3801180e-05 </wgt>
<wgt id='morphing_basis_vector_3'> +2.2358135e-05 </wgt>
<wgt id='morphing_basis_vector_4'> +1.6112554e-05 </wgt>
<wgt id='morphing_basis_vector_5'> +2.5699222e-05 </wgt>
</rwgt>
</event>
<event>
 4      1 +4.5322000e-10 4.43921200e+03 7.81860800e-03 7.46702100e-02
        2 -1    0    0  501    0 +0.0000000000e+00 +0.0000000000e+00 +3.4404027035e+03 3.4404027035e+03 0.0000000000e+00 0.0000e+00 -1.0000e+00
       -2 -1    0    0    0  501 -0.0000000000e+00 -0.0000000000e+00 -1.4319983671e+03 1.4319983671e+03 0.0000000000e+00 0.0000e+00 1.0000e+00
      -13  1    1    2    0    0 +2.0648535549e+02 +6.8653846186e+02 -1.3014210645e+03 1.4858223477e+03 0.0000000000e+00 0.0000e+00 1.0000e+00
       13  1    1    2    0    0 -2.0648535549e+02 -6.8653846186e+02 +3.3098254010e+03 3.3865787229e+03 0.0000000000e+00 0.0000e+00 -1.0000e+00
<mgrwt>
<rscale>  0 0.44392121E+04</rscale>
<asrwt>0</asrwt>
<pdfrwt beam="1">  1        2 0.52929272E+00 0.44392121E+04</pdfrwt>
<pdfrwt beam="2">  1       -2 0.22030744E+00 0.44392121E+04</pdfrwt>
<totfact> 0.67807813E-02</totfact>
</mgrwt>
<rwgt>
<wgt id='morphing_basis_vector_1'> +2.3873907e-05 </wgt>
<wgt id='morphing_basis_vector_2'> +1.6195626e-05 </wgt>
<wgt id='morphing_basis_vector_3'> +2.6254420e-05 </wgt>
<wgt id='morphing_basis_vector_4'> +1.8945555e-05 </wgt>
<wgt id='morphing_basis_vector_5'> +3.0206813e-05 </wgt>
</rwgt>
</event>
<event>
 4      1 +4.5322000e-10 4.07373800e+03 7.81860800e-03 7.52769900e-02
        2 -1    0    0  501    0 +0.0000000000e+00 +0.0000000000e+00 +3.0116047210e+03 3.0116047210e+03 0.0000000000e+00 0.0000e+00 -1.0000e+00
       -2 -1    0    0    0  501 -0.0000000000e+00 -0.0000000000e+00 -1.3776164278e+03 1.3776164278e+03 0.0000000000e+00 0.0000e+00 1.0000e+00
      -13  1    1    2    0    0 +1.1989435605e+03 -7.3237684089e+02 -7.7200411390e+02 1.6030695088e+03 0.0000000000e+00 0.0000e+00 1.0000e+00
       13  1    1    2    0    0 -1.1989435605e+03 +7.3237684089e+02 +2.4059924071e+03 2.7861516400e+03 0.0000000000e+00 0.0000e+00 -1.0000e+00
<mgrwt>
<rscale>  0 0.40737384E+04</rscale>
<asrwt>0</asrwt>
<pdfrwt beam="1">  1        2 0.46332380E+00 0.40737384E+04</pdfrwt>
<pdfrwt beam="2">  1       -2 0.21194099E+00 0.40737384E+04</pdfrwt>
<totfact> 0.15762067E-01</totfact>
</mgrwt>
<rwgt>
<wgt id='morphing_basis_vector_1'> +1.6974226e-05 </wgt>
<wgt id='morphing_basis_vector_2'> +1.1542950e-05 </wgt>
<wgt id='morphing_basis_vector_3'> +1.8648344e-05 </wgt>
<wgt id='morphing_basis_vector_4'> +1.3379440e-05 </wgt>
<wgt id='morphing_basis_vector_5'> +2.1386336e-05 </wgt>
</rwgt>
</event>
<event>
 4      1 +4.5322000e-10 4.44191300e+03 7.81860800e-03 7.46659500e-02
        2 -1    0    0  501    0 +0.0000000000e+00 +0.0000000000e+00 +3.0206138789e+03 3.0206138789e+03 0.0000000000e+00 0.0000e+00 1.0000e+00
       -2 -1    0    0    0  501 -0.0000000000e+00 -0.0000000000e+00 -1.6329951736e+03 1.6329951736e+03 0.0000000000e+00 0.0000e+00 -1.0000e+00
      -13  1    1    2    0    0 +1.6342450787e+03 -3.8782253410e+02 -8.2853815570e+02 1.8728691280e+03 0.0000000000e+00 0.0000e+00 -1.0000e+00
       13  1    1    2    0    0 -1.6342450787e+03 +3.8782253410e+02 +2.2161568610e+03 2.7807399245e+03 0.0000000000e+00 0.0000e+00 1.0000e+00
<mgrwt>
<rscale>  0 0.44419130E+04</rscale>
<asrwt>0</asrwt>
<pdfrwt beam="1">  1        2 0.46470983E+00 0.44419130E+04</pdfrwt>
<pdfrwt beam="2">  1       -2 0.25123003E+00 0.44419130E+04</pdfrwt>
<totfact> 0.80014613E-02</totfact>
</mgrwt>
<rwgt>
<wgt id='morphing_basis_vector_1'> +2.3973572e-05 </wgt>
<wgt id='morphing_basis_vector_2'> +1.6357677e-05 </wgt>
<wgt id='morphing_basis_vector_3'> +2.6385747e-05 </wgt>
<wgt id='morphing_basis_vector_4'> +1.8903234e-05 </wgt>
<wgt id='morphing_basis_vector_5'> +3.0273281e-05 </wgt>
</rwgt>
</event>
<event>
 4      1 +4.5322000e-10 3.86273000e+03 7.81860800e-03 7.56575600e-02
        2 -1    0    0  501    0 +0.0000000000e+00 +0.0000000000e+00 +2.4379455816e+03 2.4379455816e+03 0.0000000000e+00 0.0000e+00 -1.0000e+00
       -2 -1    0    0    0  501 -0.0000000000e+00 -0.0000000000e+00 -1.5300464574e+03 1.5300464574e+03 0.0000000000e+00 0.0000e+00 1.0000e+00
      -13  1    1    2    0    0 +5.8205027594e+02 +1.1581660664e+03 -1.0168636708e+03 1.6474655948e+03 0.0000000000e+00 0.0000e+00 1.0000e+00
       13  1    1    2    0    0 -5.8205027594e+02 -1.1581660664e+03 +1.9247627949e+03 2.3205264441e+03 0.0000000000e+00 0.0000e+00 -1.0000e+00
<mgrwt>
<rscale>  0 0.38627296E+04</rscale>
<asrwt>0</asrwt>
<pdfrwt beam="1">  1        2 0.37506855E+00 0.38627296E+04</pdfrwt>
<pdfrwt beam="2">  1       -2 0.23539176E+00 0.38627296E+04</pdfrwt>
<totfact> 0.24842753E-01</totfact>
</mgrwt>
<rwgt>
<wgt id='morphing_basis_vector_1'> +1.3734526e-05 </wgt>
<wgt id='morphing_basis_vector_2'> +9.3291621e-06 </wgt>
<wgt id='morphing_basis_vector_3'> +1.5072495e-05 </wgt>
<wgt id='morphing_basis_vector_4'> +1.0808255e-05 </wgt>
<wgt id='morphing_basis_vector_5'> +1.7269641e-05 </wgt>
</rwgt>
</event>
<event>
 4      1 +4.5322000e-10 3.97579800e+03 7.81860800e-03 7.54506400e-02
        2 -1    0    0  501    0 +0.0000000000e+00 +0.0000000000e+00 +2.0070368147e+03 2.0070368147e+03 0.0000000000e+00 0.0000e+00 -1.0000e+00
       -2 -1    0    0    0  501 -0.0000000000e+00 -0.0000000000e+00 -1.9689432050e+03 1.9689432050e+03 0.0000000000e+00 0.0000e+00 1.0000e+00
      -13  1    1    2    0    0 -1.7939963065e+02 +1.0447442224e+03 -1.6627160813e+03 1.9718771474e+03 0.0000000000e+00 0.0000e+00 1.0000e+00
       13  1    1    2    0    0 +1.7939963065e+02 -1.0447442224e+03 +1.7008096909e+03 2.0041028722e+03 0.0000000000e+00 0.0000e+00 -1.0000e+00
<mgrwt>
<rscale>  0 0.39757975E+04</rscale>
<asrwt>0</asrwt>
<pdfrwt beam="1">  1        2 0.30877489E+00 0.39757975E+04</pdfrwt>
<pdfrwt beam="2">  1       -2 0.30291434E+00 0.39757975E+04</pdfrwt>
<totfact> 0.15027708E-01</totfact>
</mgrwt>
<rwgt>
<wgt id='morphing_basis_vector_1'> +1.5395689e-05 </wgt>
<wgt id='morphing_basis_vector_2'> +1.0440000e-05 </wgt>
<wgt id='morphing_basis_vector_3'> +1.6900421e-05 </wgt>
<wgt id='morphing_basis_vector_4'> +1.2157479e-05 </wgt>
<wgt id='morphing_basis_vector_5'> +1.9395442e-05 </wgt>
</rwgt>
</event>
<event>
 4      1 +4.5322000e-10 4.06541500e+03 7.81860800e-03 7.52915500e-02
        2 -1    0    0  501    0 +0.0000000000e+00 +0.0000000000e+00 +4.4751045561e+03 4.4751045561e+03 0.0000000000e+00 0.0000e+00 -1.0000e+00
       -2 -1    0    0    0  501 -0.0000000000e+00 -0.0000000000e+00 -9.2330785904e+02 9.2330785904e+02 0.0000000000e+00 0.0000e+00 1.0000e+00
      -13  1    1    2    0    0 -3.6941349025e+02 +1.9910433639e+03 +1.5414248796e+03 2.5449382435e+03 0.0000000000e+00 0.0000e+00 1.0000e+00
       13  1    1    2    0    0 +3.6941349025e+02 -1.9910433639e+03 +2.0103718174e+03 2.8534741716e+03 0.0000000000e+00 0.0000e+00 -1.0000e+00
<mgrwt>
<rscale>  0 0.40654147E+04</rscale>
<asrwt>0</asrwt>
<pdfrwt beam="1">  1        2 0.68847761E+00 0.40654147E+04</pdfrwt>
<pdfrwt beam="2">  1       -2 0.14204736E+00 0.40654147E+04</pdfrwt>
<totfact> 0.36579338E-02</totfact>
</mgrwt>
<rwgt>
<wgt id='morphing_basis_vector_1'> +1.7268869e-05 </wgt>
<wgt id='morphing_basis_vector_2'> +1.2719576e-05 </wgt>
<wgt id='morphing_basis_vector_3'> +1.9190709e-05 </wgt>
<wgt id='morphing_basis_vector_4'> +1.2354989e-05 </wgt>
<wgt id='morphing_basis_vector_5'> +2.1134981e-05 </wgt>
</rwgt>
</event>
<event>
 4      1 +4.5322000e-10 4.42130300e+03 7.81860800e-03 7.46985500e-02
        2 -1    0    0  501    0 +0.0000000000e+00 +0.0000000000e+00 +2.1215749232e+03 2.1215749232e+03 0.0000000000e+00 0.0000e+00 -1.0000e+00
       -2 -1    0    0    0  501 -0.0000000000e+00 -0.0000000000e+00 -2.3034685515e+03 2.3034685515e+03 0.0000000000e+00 0.0000e+00 1.0000e+00
      -13  1    1    2    0    0 +1.0034039207e+03 -1.4687163213e+03 -1.4047011015e+03 2.2665242653e+03 0.0000000000e+00 0.0000e+00 1.0000e+00
       13  1    1    2    0    0 -1.0034039207e+03 +1.4687163213e+03 +1.2228074732e+03 2.1585192093e+03 0.0000000000e+00 0.0000e+00 -1.0000e+00
<mgrwt>
<rscale>  0 0.44213035E+04</rscale>
<asrwt>0</asrwt>
<pdfrwt beam="1">  1        2 0.32639615E+00 0.44213035E+04</pdfrwt>
<pdfrwt beam="2">  1       -2 0.35437977E+00 0.44213035E+04</pdfrwt>
<totfact> 0.57148920E-02</totfact>
</mgrwt>
<rwgt>
<wgt id='morphing_basis_vector_1'> +2.3553738e-05 </wgt>
<wgt id='morphing_basis_vector_2'> +1.6115987e-05 </wgt>
<wgt id='morphing_basis_vector_3'> +2.5932136e-05 </wgt>
<wgt id='morphing_basis_vector_4'> +1.8510636e-05 </wgt>
<wgt id='morphing_basis_vector_5'> +2.9709519e-05 </wgt>
</rwgt>
</event>
<event>
 4      1 +4.5322000e-10 4.48649600e+03 7.81860800e-03 7.45960500e-02
        2 -1    0    0  501    0 +0.0000000000e+00 +0.0000000000e+00 +2.8664122875e+03 2.8664122875e+03 0.0000000000e+00 0.0000e+00 1.0000e+00
       -2 -1    0    0    0  501 -0.0000000000e+00 -0.0000000000e+00 -1.7555612060e+03 1.7555612060e+03 0.0000000000e+00 0.0000e+00 -1.0000e+00
      -13  1    1    2    0    0 -4.9640123303e+02 -5.4540028012e+00 -1.6982619992e+03 1.7693325714e+03 0.0000000000e+00 0.0000e+00 -1.0000e+00
       13  1    1    2    0    0 +4.9640123303e+02 +5.4540028012e+00 +2.8091130807e+03 2.8526409221e+03 0.0000000000e+00 0.0000e+00 1.0000e+00
<mgrwt>
<rscale>  0 0.44864963E+04</rscale>
<asrwt>0</asrwt>
<pdfrwt beam="1">  1        2 0.44098651E+00 0.44864963E+04</pdfrwt>
<pdfrwt beam="2">  1       -2 0.27008634E+00 0.44864963E+04</pdfrwt>
<totfact> 0.74390058E-02</totfact>
</mgrwt>
<rwgt>
<wgt id='morphing_basis_vector_1'> +2.4902482e-05 </wgt>
<wgt id='morphing_basis_vector_2'> +1.6893799e-05 </wgt>
<wgt id='morphing_basis_vector_3'> +2.7389701e-05 </wgt>
<wgt id='morphing_basis_vector_4'> +1.9770294e-05 </wgt>
<wgt id='morphing_basis_vector_5'> +3.1519941e-05 </wgt>
</rwgt>
</event>
<event>
 4      1 +4.5322000e-10 3.87132900e+03 7.81860800e-03 7.56415700e-02
        2 -1    0    0  501    0 +0.0000000000e+00 +0.0000000000e+00 +2.1185362671e+03 2.1185362671e+03 0.0000000000e+00 0.0000e+00 1.0000e+00
       -2 -1    0    0    0  501 -0.0000000000e+00 -0.0000000000e+00 -1.7685778320e+03 1.7685778320e+03 0.0000000000e+00 0.0000e+00 -1.0000e+00
      -13  1    1    2    0    0 +5.4924476677e+02 +1.0037372820e+03 -1.3926806945e+03 1.8024200015e+03 0.0000000000e+00 0.0000e+00 -1.0000e+00
       13  1    1    2    0    0 -5.4924476677e+02 -1.0037372820e+03 +1.7426391295e+03 2.0846940977e+03 0.0000000000e+00 0.0000e+00 1.0000e+00
<mgrwt>
<rscale>  0 0.38713286E+04</rscale>
<asrwt>0</asrwt>
<pdfrwt beam="1">  1        2 0.32592865E+00 0.38713286E+04</pdfrwt>
<pdfrwt beam="2">  1       -2 0.27208890E+00 0.38713286E+04</pdfrwt>
<totfact> 0.21211330E-01</totfact>
</mgrwt>
<rwgt>
<wgt id='morphing_basis_vector_1'> +1.3850589e-05 </wgt>
<wgt id='morphing_basis_vector_2'> +9.3947750e-06 </wgt>
<wgt id='morphing_basis_vector_3'> +1.5197549e-05 </wgt>
<wgt id='morphing_basis_vector_4'> +1.0917935e-05 </wgt>
<wgt id='morphing_basis_vector_5'> +1.7425807e-05 </wgt>
</rwgt>
</event>
<event>
 4      1 +4.5322000e-10 3.86797500e+03 7.81860800e-03 7.56478000e-02
        2 -1    0    0  501    0 +0.0000000000e+00 +0.0000000000e+00 +2.4900660946e+03 2.4900660946e+03 0.0000000000e+00 0.0000e+00 -1.0000e+00
       -2 -1    0    0    0  501 -0.0000000000e+00 -0.0000000000e+00 -1.5020917339e+03 1.5020917339e+03 0.0000000000e+00 0.0000e+00 1.0000e+00
      -13  1    1    2    0    0 -4.4646023397e+02 +9.0016994446e+02 -1.2115415938e+03 1.5739967290e+03 0.0000000000e+00 0.0000e+00 1.0000e+00
       13  1    1    2    0    0 +4.4646023397e+02 -9.0016994446e+02 +2.1995159544e+03 2.4181610995e+03 0.0000000000e+00 0.0000e+00 -1.0000e+00
<mgrwt>
<rscale>  0 0.38679750E+04</rscale>
<asrwt>0</asrwt>
<pdfrwt beam="1">  1        2 0.38308709E+00 0.38679750E+04</pdfrwt>
<pdfrwt beam="2">  1       -2 0.23109104E+00 0.38679750E+04</pdfrwt>
<totfact> 0.24783018E-01</totfact>
</mgrwt>
<rwgt>
<wgt id='morphing_basis_vector_1'> +1.3799941e-05 </wgt>
<wgt id='morphing_basis_vector_2'> +9.3535759e-06 </wgt>
<wgt id='morphing_basis_vector_3'> +1.5140207e-05 </wgt>
<wgt id='morphing_basis_vector_4'> +1.0886251e-05 </wgt>
<wgt id='morphing_basis_vector_5'> +1.7365709e-05 </wgt>
</rwgt>
</event>
<event>
 4      1 +4.5322000e-10 4.09844500e+03 7.81860800e-03 7.52339700e-02
        2 -1    0    0  501    0 +0.0000000000e+00 +0.0000000000e+00 +4.7916385626e+03 4.7916385626e+03 0.0000000000e+00 0.0000e+00 -1.0000e+00
       -2 -1    0    0    0  501 -0.0000000000e+00 -0.0000000000e+00 -8.7638334756e+02 8.7638334756e+02 0.0000000000e+00 0.0000e+00 1.0000e+00
      -13  1    1    2    0    0 +1.8317994981e+03 -9.1326099040e+02 +1.8208799719e+03 2.7395508591e+03 0.0000000000e+00 0.0000e+00 1.0000e+00
       13  1    1    2    0    0 -1.8317994981e+03 +9.1326099040e+02 +2.0943752432e+03 2.9284710511e+03 0.0000000000e+00 0.0000e+00 -1.0000e+00
<mgrwt>
<rscale>  0 0.40984447E+04</rscale>
<asrwt>0</asrwt>
<pdfrwt beam="1">  1        2 0.73717515E+00 0.40984447E+04</pdfrwt>
<pdfrwt beam="2">  1       -2 0.13482821E+00 0.40984447E+04</pdfrwt>
<totfact> 0.18904566E-02</totfact>
</mgrwt>
<rwgt>
<wgt id='morphing_basis_vector_1'> +1.7905630e-05 </wgt>
<wgt id='morphing_basis_vector_2'> +1.3347174e-05 </wgt>
<wgt id='morphing_basis_vector_3'> +1.9936974e-05 </wgt>
<wgt id='morphing_basis_vector_4'> +1.2611934e-05 </wgt>
<wgt id='morphing_basis_vector_5'> +2.1820973e-05 </wgt>
</rwgt>
</event>
<event>
 4      1 +4.5322000e-10 4.02974900e+03 7.81860800e-03 7.53543600e-02
        2 -1    0    0  501    0 +0.0000000000e+00 +0.0000000000e+00 +2.4076999797e+03 2.4076999797e+03 0.0000000000e+00 0.0000e+00 -1.0000e+00
       -2 -1    0    0    0  501 -0.0000000000e+00 -0.0000000000e+00 -1.6861397370e+03 1.6861397370e+03 0.0000000000e+00 0.0000e+00 1.0000e+00
      -13  1    1    2    0    0 +4.4377705011e+02 -9.8973812701e+02 -1.3642241744e+03 1.7428790056e+03 0.0000000000e+00 0.0000e+00 1.0000e+00
       13  1    1    2    0    0 -4.4377705011e+02 +9.8973812701e+02 +2.0857844171e+03 2.3509607111e+03 0.0000000000e+00 0.0000e+00 -1.0000e+00
<mgrwt>
<rscale>  0 0.40297487E+04</rscale>
<asrwt>0</asrwt>
<pdfrwt beam="1">  1        2 0.37041538E+00 0.40297487E+04</pdfrwt>
<pdfrwt beam="2">  1       -2 0.25940611E+00 0.40297487E+04</pdfrwt>
<totfact> 0.17411270E-01</totfact>
</mgrwt>
<rwgt>
<wgt id='morphing_basis_vector_1'> +1.6244253e-05 </wgt>
<wgt id='morphing_basis_vector_2'> +1.1017736e-05 </wgt>
<wgt id='morphing_basis_vector_3'> +1.7836617e-05 </wgt>
<wgt id='morphing_basis_vector_4'> +1.2833835e-05 </wgt>
<wgt id='morphing_basis_vector_5'> +2.0475276e-05 </wgt>
</rwgt>
</event>
<event>
 4      1 +4.5322000e-10 4.23191500e+03 7.81860800e-03 7.50067600e-02
        2 -1    0    0  501    0 +0.0000000000e+00 +0.0000000000e+00 +2.4531955828e+03 2.4531955828e+03 0.0000000000e+00 0.0000e+00 1.0000e+00
       -2 -1    0    0    0  501 -0.0000000000e+00 -0.0000000000e+00 -1.8250793555e+03 1.8250793555e+03 0.0000000000e+00 0.0000e+00 -1.0000e+00
      -13  1    1    2    0    0 +3.0298082530e+00 -6.9708613639e+02 -1.7056611336e+03 1.8426117778e+03 0.0000000000e+00 0.0000e+00 -1.0000e+00
       13  1    1    2    0    0 -3.0298082530e+00 +6.9708613639e+02 +2.3337773609e+03 2.4356631605e+03 0.0000000000e+00 0.0000e+00 1.0000e+00
<mgrwt>
<rscale>  0 0.42319152E+04</rscale>
<asrwt>0</asrwt>
<pdfrwt beam="1">  1        2 0.37741471E+00 0.42319152E+04</pdfrwt>
<pdfrwt beam="2">  1       -2 0.28078144E+00 0.42319152E+04</pdfrwt>
<totfact> 0.11500818E-01</totfact>
</mgrwt>
<rwgt>
<wgt id='morphing_basis_vector_1'> +1.9733860e-05 </wgt>
<wgt id='morphing_basis_vector_2'> +1.3380440e-05 </wgt>
<wgt id='morphing_basis_vector_3'> +2.1684685e-05 </wgt>
<wgt id='morphing_basis_vector_4'> +1.5634554e-05 </wgt>
<wgt id='morphing_basis_vector_5'> +2.4927451e-05 </wgt>
</rwgt>
</event>
<event>
 4      1 +4.5322000e-10 4.23721500e+03 7.81860800e-03 7.49979100e-02
        2 -1    0    0  501    0 +0.0000000000e+00 +0.0000000000e+00 +3.0554435767e+03 3.0554435767e+03 0.0000000000e+00 0.0000e+00 -1.0000e+00
       -2 -1    0    0    0  501 -0.0000000000e+00 -0.0000000000e+00 -1.4690167049e+03 1.4690167049e+03 0.0000000000e+00 0.0000e+00 1.0000e+00
      -13  1    1    2    0    0 -1.2246002258e+02 +1.8576997311e+03 +1.8729254655e+03 2.6408132360e+03 0.0000000000e+00 0.0000e+00 -1.0000e+00
       13  1    1    2    0    0 +1.2246002258e+02 -1.8576997311e+03 -2.8649859371e+02 1.8836470456e+03 0.0000000000e+00 0.0000e+00 1.0000e+00
<mgrwt>
<rscale>  0 0.42372150E+04</rscale>
<asrwt>0</asrwt>
<pdfrwt beam="1">  1        2 0.47006824E+00 0.42372150E+04</pdfrwt>
<pdfrwt beam="2">  1       -2 0.22600257E+00 0.42372150E+04</pdfrwt>
<totfact> 0.11567801E-01</totfact>
</mgrwt>
<rwgt>
<wgt id='morphing_basis_vector_1'> +2.3273770e-05 </wgt>
<wgt id='morphing_basis_vector_2'> +2.3560015e-05 </wgt>
<wgt id='morphing_basis_vector_3'> +2.7334050e-05 </wgt>
<wgt id='morphing_basis_vector_4'> +8.4181683e-06 </wgt>
<wgt id='morphing_basis_vector_5'> +2.4444182e-05 </wgt>
</rwgt>
</event>
<event>
 4      1 +4.5322000e-10 3.87971300e+03 7.81860800e-03 7.56260200e-02
        2 -1    0    0  501    0 +0.0000000000e+00 +0.0000000000e+00 +2.1402768527e+03 2.1402768527e+03 0.0000000000e+00 0.0000e+00 1.0000e+00
       -2 -1    0    0    0  501 -0.0000000000e+00 -0.0000000000e+00 -1.7582037713e+03 1.7582037713e+03 0.0000000000e+00 0.0000e+00 -1.0000e+00
      -13  1    1    2    0    0 -4.6228253208e+02 -1.5867858567e+03 -8.2947881513e+02 1.8492240533e+03 0.0000000000e+00 0.0000e+00 -1.0000e+00
       13  1    1    2    0    0 +4.6228253208e+02 +1.5867858567e+03 +1.2115518966e+03 2.0492565707e+03 0.0000000000e+00 0.0000e+00 1.0000e+00
<mgrwt>
<rscale>  0 0.38797128E+04</rscale>
<asrwt>0</asrwt>
<pdfrwt beam="1">  1        2 0.32927336E+00 0.38797128E+04</pdfrwt>
<pdfrwt beam="2">  1       -2 0.27049289E+00 0.38797128E+04</pdfrwt>
<totfact> 0.21126060E-01</totfact>
</mgrwt>
<rwgt>
<wgt id='morphing_basis_vector_1'> +1.4018939e-05 </wgt>
<wgt id='morphing_basis_vector_2'> +9.6192232e-06 </wgt>
<wgt id='morphing_basis_vector_3'> +1.5407458e-05 </wgt>
<wgt id='morphing_basis_vector_4'> +1.0910576e-05 </wgt>
<wgt id='morphing_basis_vector_5'> +1.7569510e-05 </wgt>
</rwgt>
</event>
<event>
 4      1 +4.5322000e-10 3.86315300e+03 7.81860800e-03 7.56567700e-02
        2 -1    0    0  501    0 +0.0000000000e+00 +0.0000000000e+00 +3.0650319455e+03 3.0650319455e+03 0.0000000000e+00 0.0000e+00 1.0000e+00
       -2 -1    0    0    0  501 -0.0000000000e+00 -0.0000000000e+00 -1.2172750918e+03 1.2172750918e+03 0.0000000000e+00 0.0000e+00 -1.0000e+00
      -13  1    1    2    0    0 +1.4915510758e+03 +7.8711779851e+02 -1.1994310328e+02 1.6907588203e+03 0.0000000000e+00 0.0000e+00 -1.0000e+00
       13  1    1    2    0    0 -1.4915510758e+03 -7.8711779851e+02 +1.9676999570e+03 2.5915482170e+03 0.0000000000e+00 0.0000e+00 1.0000e+00
<mgrwt>
<rscale>  0 0.38631526E+04</rscale>
<asrwt>0</asrwt>
<pdfrwt beam="1">  1        2 0.47154338E+00 0.38631526E+04</pdfrwt>
<pdfrwt beam="2">  1       -2 0.18727309E+00 0.38631526E+04</pdfrwt>
<totfact> 0.22407026E-01</totfact>
</mgrwt>
<rwgt>
<wgt id='morphing_basis_vector_1'> +1.3793844e-05 </wgt>
<wgt id='morphing_basis_vector_2'> +9.4900358e-06 </wgt>
<wgt id='morphing_basis_vector_3'> +1.5164472e-05 </wgt>
<wgt id='morphing_basis_vector_4'> +1.0700368e-05 </wgt>
<wgt id='morphing_basis_vector_5'> +1.7267874e-05 </wgt>
</rwgt>
</event>
<event>
 4      1 +4.5322000e-10 4.46518200e+03 7.81860800e-03 7.46293600e-02
        2 -1    0    0  501    0 +0.0000000000e+00 +0.0000000000e+00 +2.5186216788e+03 2.5186216788e+03 0.0000000000e+00 0.0000e+00 -1.0000e+00
       -2 -1    0    0    0  501 -0.0000000000e+00 -0.0000000000e+00 -1.9790434479e+03 1.9790434479e+03 0.0000000000e+00 0.0000e+00 1.0000e+00
      -13  1    1    2    0    0 +3.6682772807e+02 +1.6438051898e+03 -1.2064111396e+03 2.0717350028e+03 0.0000000000e+00 0.0000e+00 1.0000e+00
       13  1    1    2    0    0 -3.6682772807e+02 -1.6438051898e+03 +1.7459893705e+03 2.4259301239e+03 0.0000000000e+00 0.0000e+00 -1.0000e+00
<mgrwt>
<rscale>  0 0.44651816E+04</rscale>
<asrwt>0</asrwt>
<pdfrwt beam="1">  1        2 0.38748026E+00 0.44651816E+04</pdfrwt>
<pdfrwt beam="2">  1       -2 0.30446823E+00 0.44651816E+04</pdfrwt>
<totfact> 0.71369167E-02</totfact>
</mgrwt>
<rwgt>
<wgt id='morphing_basis_vector_1'> +2.4477099e-05 </wgt>
<wgt id='morphing_basis_vector_2'> +1.6700645e-05 </wgt>
<wgt id='morphing_basis_vector_3'> +2.6941790e-05 </wgt>
<wgt id='morphing_basis_vector_4'> +1.9305405e-05 </wgt>
<wgt id='morphing_basis_vector_5'> +3.0915318e-05 </wgt>
</rwgt>
</event>
<event>
 4      1 +4.5322000e-10 3.88607900e+03 7.81860800e-03 7.56142400e-02
        2 -1    0    0  501    0 +0.0000000000e+00 +0.0000000000e+00 +2.2775295471e+03 2.2775295471e+03 0.0000000000e+00 0.0000e+00 -1.0000e+00
       -2 -1    0    0    0  501 -0.0000000000e+00 -0.0000000000e+00 -1.6576748515e+03 1.6576748515e+03 0.0000000000e+00 0.0000e+00 1.0000e+00
      -13  1    1    2    0    0 -1.2414656011e+03 +2.9761926411e+02 -1.1733723945e+03 1.7339598730e+03 0.0000000000e+00 0.0000e+00 1.0000e+00
       13  1    1    2    0    0 +1.2414656011e+03 -2.9761926411e+02 +1.7932270901e+03 2.2012445256e+03 0.0000000000e+00 0.0000e+00 -1.0000e+00
<mgrwt>
<rscale>  0 0.38860795E+04</rscale>
<asrwt>0</asrwt>
<pdfrwt beam="1">  1        2 0.35038916E+00 0.38860795E+04</pdfrwt>
<pdfrwt beam="2">  1       -2 0.25502690E+00 0.38860795E+04</pdfrwt>
<totfact> 0.22489857E-01</totfact>
</mgrwt>
<rwgt>
<wgt id='morphing_basis_vector_1'> +1.4066441e-05 </wgt>
<wgt id='morphing_basis_vector_2'> +9.5523118e-06 </wgt>
<wgt id='morphing_basis_vector_3'> +1.5437959e-05 </wgt>
<wgt id='morphing_basis_vector_4'> +1.1076211e-05 </wgt>
<wgt id='morphing_basis_vector_5'> +1.7693512e-05 </wgt>
</rwgt>
</event>
<event>
 4      1 +4.5322000e-10 4.03645600e+03 7.81860800e-03 7.53425000e-02
        2 -1    0    0  501    0 +0.0000000000e+00 +0.0000000000e+00 +2.7585959326e+03 2.7585959326e+03 0.0000000000e+00 0.0000e+00 -1.0000e+00
       -2 -1    0    0    0  501 -0.0000000000e+00 -0.0000000000e+00 -1.4765640068e+03 1.4765640068e+03 0.0000000000e+00 0.0000e+00 1.0000e+00
      -13  1    1    2    0    0 +4.4044376793e+02 -1.8877029738e+03 +5.1362998353e+01 1.9390851935e+03 0.0000000000e+00 0.0000e+00 1.0000e+00
       13  1    1    2    0    0 -4.4044376793e+02 +1.8877029738e+03 +1.2306689274e+03 2.2960747459e+03 0.0000000000e+00 0.0000e+00 -1.0000e+00
<mgrwt>
<rscale>  0 0.40364556E+04</rscale>
<asrwt>0</asrwt>
<pdfrwt beam="1">  1        2 0.42439937E+00 0.40364556E+04</pdfrwt>
<pdfrwt beam="2">  1       -2 0.22716369E+00 0.40364556E+04</pdfrwt>
<totfact> 0.17874998E-01</totfact>
</mgrwt>
<rwgt>
<wgt id='morphing_basis_vector_1'> +1.6552678e-05 </wgt>
<wgt id='morphing_basis_vector_2'> +1.1680612e-05 </wgt>
<wgt id='morphing_basis_vector_3'> +1.8277593e-05 </wgt>
<wgt id='morphing_basis_vector_4'> +1.2495520e-05 </wgt>
<wgt id='morphing_basis_vector_5'> +2.0577232e-05 </wgt>
</rwgt>
</event>
<event>
 4      1 +4.5322000e-10 4.14199600e+03 7.81860800e-03 7.51588700e-02
        2 -1    0    0  501    0 +0.0000000000e+00 +0.0000000000e+00 +2.3744280143e+03 2.3744280143e+03 0.0000000000e+00 0.0000e+00 1.0000e+00
       -2 -1    0    0    0  501 -0.0000000000e+00 -0.0000000000e+00 -1.8063432545e+03 1.8063432545e+03 0.0000000000e+00 0.0000e+00 -1.0000e+00
      -13  1    1    2    0    0 -1.7156376431e+02 -1.8142546361e+03 -7.0907812026e+02 1.9554400503e+03 0.0000000000e+00 0.0000e+00 1.0000e+00
       13  1    1    2    0    0 +1.7156376431e+02 +1.8142546361e+03 +1.2771628800e+03 2.2253312185e+03 0.0000000000e+00 0.0000e+00 -1.0000e+00
<mgrwt>
<rscale>  0 0.41419957E+04</rscale>
<asrwt>0</asrwt>
<pdfrwt beam="1">  1        2 0.36529662E+00 0.41419957E+04</pdfrwt>
<pdfrwt beam="2">  1       -2 0.27789896E+00 0.41419957E+04</pdfrwt>
<totfact> 0.13486049E-01</totfact>
</mgrwt>
<rwgt>
<wgt id='morphing_basis_vector_1'> +1.8208412e-05 </wgt>
<wgt id='morphing_basis_vector_2'> +1.2550635e-05 </wgt>
<wgt id='morphing_basis_vector_3'> +2.0047701e-05 </wgt>
<wgt id='morphing_basis_vector_4'> +1.4147645e-05 </wgt>
<wgt id='morphing_basis_vector_5'> +2.2850279e-05 </wgt>
</rwgt>
</event>
<event>
 4      1 +4.5322000e-10 4.22326800e+03 7.81860800e-03 7.50212200e-02
        2 -1    0    0  501    0 +0.0000000000e+00 +0.0000000000e+00 +2.1030853078e+03 2.1030853078e+03 0.0000000000e+00 0.0000e+00 -1.0000e+00
       -2 -1    0    0    0  501 -0.0000000000e+00 -0.0000000000e+00 -2.1202170008e+03 2.1202170008e+03 0.0000000000e+00 0.0000e+00 1.0000e+00
      -13  1    1    2    0    0 +1.7070337101e+03 -8.5844973242e+02 -9.0751550621e+02 2.1152977153e+03 0.0000000000e+00 0.0000e+00 1.0000e+00
       13  1    1    2    0    0 -1.7070337101e+03 +8.5844973242e+02 +8.9038381319e+02 2.1080045933e+03 0.0000000000e+00 0.0000e+00 -1.0000e+00
<mgrwt>
<rscale>  0 0.42232676E+04</rscale>
<asrwt>0</asrwt>
<pdfrwt beam="1">  1        2 0.32355159E+00 0.42232676E+04</pdfrwt>
<pdfrwt beam="2">  1       -2 0.32618723E+00 0.42232676E+04</pdfrwt>
<totfact> 0.90936071E-02</totfact>
</mgrwt>
<rwgt>
<wgt id='morphing_basis_vector_1'> +1.9700555e-05 </wgt>
<wgt id='morphing_basis_vector_2'> +1.3644119e-05 </wgt>
<wgt id='morphing_basis_vector_3'> +2.1712094e-05 </wgt>
<wgt id='morphing_basis_vector_4'> +1.5237906e-05 </wgt>
<wgt id='morphing_basis_vector_5'> +2.4700999e-05 </wgt>
</rwgt>
</event>
<event>
 4      1 +4.5322000e-10 3.97311900e+03 7.81860800e-03 7.54554600e-02
        2 -1    0    0  501    0 +0.0000000000e+00 +0.0000000000e+00 +2.7217470987e+03 2.7217470987e+03 0.0000000000e+00 0.0000e+00 -1.0000e+00
       -2 -1    0    0    0  501 -0.0000000000e+00 -0.0000000000e+00 -1.4499577310e+03 1.4499577310e+03 0.0000000000e+00 0.0000e+00 1.0000e+00
      -13  1    1    2    0    0 +1.2533062511e+03 -2.7796840263e+02 -9.5591993904e+02 1.6005704988e+03 0.0000000000e+00 0.0000e+00 1.0000e+00
       13  1    1    2    0    0 -1.2533062511e+03 +2.7796840263e+02 +2.2277093067e+03 2.5711343308e+03 0.0000000000e+00 0.0000e+00 -1.0000e+00
<mgrwt>
<rscale>  0 0.39731188E+04</rscale>
<asrwt>0</asrwt>
<pdfrwt beam="1">  1        2 0.41873032E+00 0.39731188E+04</pdfrwt>
<pdfrwt beam="2">  1       -2 0.22307042E+00 0.39731188E+04</pdfrwt>
<totfact> 0.20241848E-01</totfact>
</mgrwt>
<rwgt>
<wgt id='morphing_basis_vector_1'> +1.5361380e-05 </wgt>
<wgt id='morphing_basis_vector_2'> +1.0432312e-05 </wgt>
<wgt id='morphing_basis_vector_3'> +1.6866045e-05 </wgt>
<wgt id='morphing_basis_vector_4'> +1.2109940e-05 </wgt>
<wgt id='morphing_basis_vector_5'> +1.9341741e-05 </wgt>
</rwgt>
</event>
<event>
 4      1 +4.5322000e-10 4.47505600e+03 7.81860800e-03 7.46139100e-02
        2 -1    0    0  501    0 +0.0000000000e+00 +0.0000000000e+00 +3.5290817794e+03 3.5290817794e+03 0.0000000000e+00 0.0000e+00 -1.0000e+00
       -2 -1    0    0    0  501 -0.0000000000e+00 -0.0000000000e+00 -1.4186498739e+03 1.4186498739e+03 0.0000000000e+00 0.0000e+00 1.0000e+00
      -13  1    1    2    0    0 +8.8298093806e+02 +1.4888396965e+02 -1.2119101330e+03 1.5068337479e+03 0.0000000000e+00 0.0000e+00 1.0000e+00
       13  1    1    2    0    0 -8.8298093806e+02 -1.4888396965e+02 +3.3223420386e+03 3.4408979053e+03 0.0000000000e+00 0.0000e+00 -1.0000e+00
<mgrwt>
<rscale>  0 0.44750559E+04</rscale>
<asrwt>0</asrwt>
<pdfrwt beam="1">  1        2 0.54293566E+00 0.44750559E+04</pdfrwt>
<pdfrwt beam="2">  1       -2 0.21825383E+00 0.44750559E+04</pdfrwt>
<totfact> 0.60255828E-02</totfact>
</mgrwt>
<rwgt>
<wgt id='morphing_basis_vector_1'> +2.4652237e-05 </wgt>
<wgt id='morphing_basis_vector_2'> +1.6727577e-05 </wgt>
<wgt id='morphing_basis_vector_3'> +2.7114310e-05 </wgt>
<wgt id='morphing_basis_vector_4'> +1.9564911e-05 </wgt>
<wgt id='morphing_basis_vector_5'> +3.1198100e-05 </wgt>
</rwgt>
</event>
<event>
 4      1 +4.5322000e-10 4.44834600e+03 7.81860800e-03 7.46558100e-02
        2 -1    0    0  501    0 +0.0000000000e+00 +0.0000000000e+00 +3.0904511897e+03 3.0904511897e+03 0.0000000000e+00 0.0000e+00 -1.0000e+00
       -2 -1    0    0    0  501 -0.0000000000e+00 -0.0000000000e+00 -1.6007197742e+03 1.6007197742e+03 0.0000000000e+00 0.0000e+00 1.0000e+00
      -13  1    1    2    0    0 -1.4664105831e+03 +1.5437043205e+02 -1.0111908547e+03 1.7879309755e+03 0.0000000000e+00 0.0000e+00 1.0000e+00
       13  1    1    2    0    0 +1.4664105831e+03 -1.5437043205e+02 +2.5009222702e+03 2.9032399884e+03 0.0000000000e+00 0.0000e+00 -1.0000e+00
<mgrwt>
<rscale>  0 0.44483464E+04</rscale>
<asrwt>0</asrwt>
<pdfrwt beam="1">  1        2 0.47545403E+00 0.44483464E+04</pdfrwt>
<pdfrwt beam="2">  1       -2 0.24626458E+00 0.44483464E+04</pdfrwt>
<totfact> 0.77847233E-02</totfact>
</mgrwt>
<rwgt>
<wgt id='morphing_basis_vector_1'> +2.4089705e-05 </wgt>
<wgt id='morphing_basis_vector_2'> +1.6386462e-05 </wgt>
<wgt id='morphing_basis_vector_3'> +2.6502622e-05 </wgt>
<wgt id='morphing_basis_vector_4'> +1.9061137e-05 </wgt>
<wgt id='morphing_basis_vector_5'> +3.0453741e-05 </wgt>
</rwgt>
</event>
<event>
 4      1 +4.5322000e-10 4.35243600e+03 7.81860800e-03 7.48087800e-02
        2 -1    0    0  501    0 +0.0000000000e+00 +0.0000000000e+00 +2.6053174459e+03 2.6053174459e+03 0.0000000000e+00 0.0000e+00 -1.0000e+00
       -2 -1    0    0    0  501 -0.0000000000e+00 -0.0000000000e+00 -1.8177917042e+03 1.8177917042e+03 0.0000000000e+00 0.0000e+00 1.0000e+00
      -13  1    1    2    0    0 -1.9937157149e+03 -8.6355631126e+02 +2.6809167915e+02 2.1891790706e+03 0.0000000000e+00 0.0000e+00 1.0000e+00
       13  1    1    2    0    0 +1.9937157149e+03 +8.6355631126e+02 +5.1943406255e+02 2.2339300795e+03 0.0000000000e+00 0.0000e+00 -1.0000e+00
<mgrwt>
<rscale>  0 0.43524358E+04</rscale>
<asrwt>0</asrwt>
<pdfrwt beam="1">  1        2 0.40081807E+00 0.43524358E+04</pdfrwt>
<pdfrwt beam="2">  1       -2 0.27966026E+00 0.43524358E+04</pdfrwt>
<totfact> 0.93954792E-02</totfact>
</mgrwt>
<rwgt>
<wgt id='morphing_basis_vector_1'> +2.2727960e-05 </wgt>
<wgt id='morphing_basis_vector_2'> +1.6905195e-05 </wgt>
<wgt id='morphing_basis_vector_3'> +2.5324645e-05 </wgt>
<wgt id='morphing_basis_vector_4'> +1.6102472e-05 </wgt>
<wgt id='morphing_basis_vector_5'> +2.7787353e-05 </wgt>
</rwgt>
</event>
<event>
 4      1 +4.5322000e-10 3.90768700e+03 7.81860800e-03 7.55744300e-02
        2 -1    0    0  501    0 +0.0000000000e+00 +0.0000000000e+00 +3.0111133935e+03 3.0111133935e+03 0.0000000000e+00 0.0000e+00 -1.0000e+00
       -2 -1    0    0    0  501 -0.0000000000e+00 -0.0000000000e+00 -1.2678051200e+03 1.2678051200e+03 0.0000000000e+00 0.0000e+00 1.0000e+00
      -13  1    1    2    0    0 +8.7547666595e+02 +2.4173811856e+02 -1.0226039501e+03 1.3677044817e+03 0.0000000000e+00 0.0000e+00 1.0000e+00
       13  1    1    2    0    0 -8.7547666595e+02 -2.4173811856e+02 +2.7659122235e+03 2.9112140318e+03 0.0000000000e+00 0.0000e+00 -1.0000e+00
<mgrwt>
<rscale>  0 0.39076873E+04</rscale>
<asrwt>0</asrwt>
<pdfrwt beam="1">  1        2 0.46324821E+00 0.39076873E+04</pdfrwt>
<pdfrwt beam="2">  1       -2 0.19504694E+00 0.39076873E+04</pdfrwt>
<totfact> 0.21206048E-01</totfact>
</mgrwt>
<rwgt>
<wgt id='morphing_basis_vector_1'> +1.4370831e-05 </wgt>
<wgt id='morphing_basis_vector_2'> +9.7385570e-06 </wgt>
<wgt id='morphing_basis_vector_3'> +1.5769068e-05 </wgt>
<wgt id='morphing_basis_vector_4'> +1.1345688e-05 </wgt>
<wgt id='morphing_basis_vector_5'> +1.8094078e-05 </wgt>
</rwgt>
</event>
<event>
 4      1 +4.5322000e-10 4.10297000e+03 7.81860800e-03 7.52261200e-02
        2 -1    0    0  501    0 +0.0000000000e+00 +0.0000000000e+00 +2.4827764838e+03 2.4827764838e+03 0.0000000000e+00 0.0000e+00 -1.0000e+00
       -2 -1    0    0    0  501 -0.0000000000e+00 -0.0000000000e+00 -1.6951143658e+03 1.6951143658e+03 0.0000000000e+00 0.0000e+00 1.0000e+00
      -13  1    1    2    0    0 +1.9473939120e+03 -1.3010560713e+02 -2.4962526834e+02 1.9676339325e+03 0.0000000000e+00 0.0000e+00 1.0000e+00
       13  1    1    2    0    0 -1.9473939120e+03 +1.3010560713e+02 +1.0372873863e+03 2.2102569171e+03 0.0000000000e+00 0.0000e+00 -1.0000e+00
<mgrwt>
<rscale>  0 0.41029697E+04</rscale>
<asrwt>0</asrwt>
<pdfrwt beam="1">  1        2 0.38196561E+00 0.41029697E+04</pdfrwt>
<pdfrwt beam="2">  1       -2 0.26078683E+00 0.41029697E+04</pdfrwt>
<totfact> 0.15287373E-01</totfact>
</mgrwt>
<rwgt>
<wgt id='morphing_basis_vector_1'> +1.7639457e-05 </wgt>
<wgt id='morphing_basis_vector_2'> +1.2392136e-05 </wgt>
<wgt id='morphing_basis_vector_3'> +1.9470775e-05 </wgt>
<wgt id='morphing_basis_vector_4'> +1.3398448e-05 </wgt>
<wgt id='morphing_basis_vector_5'> +2.1978864e-05 </wgt>
</rwgt>
</event>
<event>
 4      1 +4.5322000e-10 3.93050600e+03 7.81860800e-03 7.55326700e-02
        2 -1    0    0  501    0 +0.0000000000e+00 +0.0000000000e+00 +2.0397955135e+03 2.0397955135e+03 0.0000000000e+00 0.0000e+00 1.0000e+00
       -2 -1    0    0    0  501 -0.0000000000e+00 -0.0000000000e+00 -1.8934344361e+03 1.8934344361e+03 0.0000000000e+00 0.0000e+00 -1.0000e+00
      -13  1    1    2    0    0 -1.9152198878e+03 +1.7166909443e+02 -3.3291048583e+02 1.9515037505e+03 0.0000000000e+00 0.0000e+00 -1.0000e+00
       13  1    1    2    0    0 +1.9152198878e+03 -1.7166909443e+02 +4.7927156318e+02 1.9817261991e+03 0.0000000000e+00 0.0000e+00 1.0000e+00
<mgrwt>
<rscale>  0 0.39305059E+04</rscale>
<asrwt>0</asrwt>
<pdfrwt beam="1">  1        2 0.31381470E+00 0.39305059E+04</pdfrwt>
<pdfrwt beam="2">  1       -2 0.29129760E+00 0.39305059E+04</pdfrwt>
<totfact> 0.17313986E-01</totfact>
</mgrwt>
<rwgt>
<wgt id='morphing_basis_vector_1'> +1.4953308e-05 </wgt>
<wgt id='morphing_basis_vector_2'> +1.0689766e-05 </wgt>
<wgt id='morphing_basis_vector_3'> +1.6534249e-05 </wgt>
<wgt id='morphing_basis_vector_4'> +1.1095089e-05 </wgt>
<wgt id='morphing_basis_vector_5'> +1.8479422e-05 </wgt>
</rwgt>
</event>
<event>
 4      1 +4.5322000e-10 3.97261700e+03 7.81860800e-03 7.54563600e-02
        2 -1    0    0  501    0 +0.0000000000e+00 +0.0000000000e+00 +2.2897304001e+03 2.2897304001e+03 0.0000000000e+00 0.0000e+00 -1.0000e+00
       -2 -1    0    0    0  501 -0.0000000000e+00 -0.0000000000e+00 -1.7230939645e+03 1.7230939645e+03 0.0000000000e+00 0.0000e+00 1.0000e+00
      -13  1    1    2    0    0 -3.4398070172e+01 +1.6064610937e+03 -8.9619899262e+02 1.8398568171e+03 0.0000000000e+00 0.0000e+00 1.0000e+00
       13  1    1    2    0    0 +3.4398070172e+01 -1.6064610937e+03 +1.4628354282e+03 2.1729675476e+03 0.0000000000e+00 0.0000e+00 -1.0000e+00
<mgrwt>
<rscale>  0 0.39726166E+04</rscale>
<asrwt>0</asrwt>
<pdfrwt beam="1">  1        2 0.35226622E+00 0.39726166E+04</pdfrwt>
<pdfrwt beam="2">  1       -2 0.26509138E+00 0.39726166E+04</pdfrwt>
<totfact> 0.18738517E-01</totfact>
</mgrwt>
<rwgt>
<wgt id='morphing_basis_vector_1'> +1.5384261e-05 </wgt>
<wgt id='morphing_basis_vector_2'> +1.0517015e-05 </wgt>
<wgt id='morphing_basis_vector_3'> +1.6906607e-05 </wgt>
<wgt id='morphing_basis_vector_4'> +1.2039068e-05 </wgt>
<wgt id='morphing_basis_vector_5'> +1.9326524e-05 </wgt>
</rwgt>
</event>
<event>
 4      1 +4.5322000e-10 4.45855700e+03 7.81860800e-03 7.46397600e-02
        2 -1    0    0  501    0 +0.0000000000e+00 +0.0000000000e+00 +2.1243202355e+03 2.1243202355e+03 0.0000000000e+00 0.0000e+00 -1.0000e+00
       -2 -1    0    0    0  501 -0.0000000000e+00 -0.0000000000e+00 -2.3394224416e+03 2.3394224416e+03 0.0000000000e+00 0.0000e+00 1.0000e+00
      -13  1    1    2    0    0 +2.0999094714e+03 +1.8547734704e+02 -8.3341907006e+02 2.2668500128e+03 0.0000000000e+00 0.0000e+00 1.0000e+00
       13  1    1    2    0    0 -2.0999094714e+03 -1.8547734704e+02 +6.1831686392e+02 2.1968926643e+03 0.0000000000e+00 0.0000e+00 -1.0000e+00
<mgrwt>
<rscale>  0 0.44585569E+04</rscale>
<asrwt>0</asrwt>
<pdfrwt beam="1">  1        2 0.32681850E+00 0.44585569E+04</pdfrwt>
<pdfrwt beam="2">  1       -2 0.35991114E+00 0.44585569E+04</pdfrwt>
<totfact> 0.52297141E-02</totfact>
</mgrwt>
<rwgt>
<wgt id='morphing_basis_vector_1'> +2.4540368e-05 </wgt>
<wgt id='morphing_basis_vector_2'> +1.7211860e-05 </wgt>
<wgt id='morphing_basis_vector_3'> +2.7117467e-05 </wgt>
<wgt id='morphing_basis_vector_4'> +1.8749767e-05 </wgt>
<wgt id='morphing_basis_vector_5'> +3.0694675e-05 </wgt>
</rwgt>
</event>
<event>
 4      1 +4.5322000e-10 4.46562100e+03 7.81860800e-03 7.46286700e-02
        2 -1    0    0  501    0 +0.0000000000e+00 +0.0000000000e+00 +2.5903041605e+03 2.5903041605e+03 0.0000000000e+00 0.0000e+00 -1.0000e+00
       -2 -1    0    0    0  501 -0.0000000000e+00 -0.0000000000e+00 -1.9246556294e+03 1.9246556294e+03 0.0000000000e+00 0.0000e+00 1.0000e+00
      -13  1    1    2    0    0 -8.7445252798e+02 +2.0155981671e+03 +7.3488647728e+02 2.3167566401e+03 0.0000000000e+00 0.0000e+00 1.0000e+00
       13  1    1    2    0    0 +8.7445252798e+02 -2.0155981671e+03 -6.9237946208e+01 2.1982031498e+03 0.0000000000e+00 0.0000e+00 -1.0000e+00
<mgrwt>
<rscale>  0 0.44656213E+04</rscale>
<asrwt>0</asrwt>
<pdfrwt beam="1">  1        2 0.39850833E+00 0.44656213E+04</pdfrwt>
<pdfrwt beam="2">  1       -2 0.29610087E+00 0.44656213E+04</pdfrwt>
<totfact> 0.73558500E-02</totfact>
</mgrwt>
<rwgt>
<wgt id='morphing_basis_vector_1'> +2.6116932e-05 </wgt>
<wgt id='morphing_basis_vector_2'> +2.1496652e-05 </wgt>
<wgt id='morphing_basis_vector_3'> +2.9584465e-05 </wgt>
<wgt id='morphing_basis_vector_4'> +1.5850928e-05 </wgt>
<wgt id='morphing_basis_vector_5'> +3.0638121e-05 </wgt>
</rwgt>
</event>
<event>
 4      1 +4.5322000e-10 4.44602700e+03 7.81860800e-03 7.46594700e-02
        2 -1    0    0  501    0 +0.0000000000e+00 +0.0000000000e+00 +5.1579380085e+03 5.1579380085e+03 0.0000000000e+00 0.0000e+00 -1.0000e+00
       -2 -1    0    0    0  501 -0.0000000000e+00 -0.0000000000e+00 -9.5809393731e+02 9.5809393731e+02 0.0000000000e+00 0.0000e+00 1.0000e+00
      -13  1    1    2    0    0 +1.9714025907e+03 +3.2451050247e+02 +7.5909806455e+02 2.1372798395e+03 0.0000000000e+00 0.0000e+00 1.0000e+00
       13  1    1    2    0    0 -1.9714025907e+03 -3.2451050247e+02 +3.4407460067e+03 3.9787521063e+03 0.0000000000e+00 0.0000e+00 -1.0000e+00
<mgrwt>
<rscale>  0 0.44460271E+04</rscale>
<asrwt>0</asrwt>
<pdfrwt beam="1">  1        2 0.79352891E+00 0.44460271E+04</pdfrwt>
<pdfrwt beam="2">  1       -2 0.14739907E+00 0.44460271E+04</pdfrwt>
<totfact> 0.47190822E-03</totfact>
</mgrwt>
<rwgt>
<wgt id='morphing_basis_vector_1'> +2.4166538e-05 </wgt>
<wgt id='morphing_basis_vector_2'> +1.6724978e-05 </wgt>
<wgt id='morphing_basis_vector_3'> +2.6652127e-05 </wgt>
<wgt id='morphing_basis_vector_4'> +1.8751959e-05 </wgt>
<wgt id='morphing_basis_vector_5'> +3.0367513e-05 </wgt>
</rwgt>
</event>
<event>
 4      1 +4.5322000e-10 4.37181600e+03 7.81860800e-03 7.47775500e-02
        2 -1    0    0  501    0 +0.0000000000e+00 +0.0000000000e+00 +2.3446374876e+03 2.3446374876e+03 0.0000000000e+00 0.0000e+00 1.0000e+00
       -2 -1    0    0    0  501 -0.0000000000e+00 -0.0000000000e+00 -2.0379246573e+03 2.0379246573e+03 0.0000000000e+00 0.0000e+00 -1.0000e+00
      -13  1    1    2    0    0 -9.0039735963e+02 -7.1461795928e+02 -1.7104608039e+03 2.0608421567e+03 0.0000000000e+00 0.0000e+00 -1.0000e+00
       13  1    1    2    0    0 +9.0039735963e+02 +7.1461795928e+02 +2.0171736343e+03 2.3217199882e+03 0.0000000000e+00 0.0000e+00 1.0000e+00
<mgrwt>
<rscale>  0 0.43718163E+04</rscale>
<asrwt>0</asrwt>
<pdfrwt beam="1">  1        2 0.36071346E+00 0.43718163E+04</pdfrwt>
<pdfrwt beam="2">  1       -2 0.31352687E+00 0.43718163E+04</pdfrwt>
<totfact> 0.79226303E-02</totfact>
</mgrwt>
<rwgt>
<wgt id='morphing_basis_vector_1'> +2.2467880e-05 </wgt>
<wgt id='morphing_basis_vector_2'> +1.5251353e-05 </wgt>
<wgt id='morphing_basis_vector_3'> +2.4704947e-05 </wgt>
<wgt id='morphing_basis_vector_4'> +1.7805405e-05 </wgt>
<wgt id='morphing_basis_vector_5'> +2.8405730e-05 </wgt>
</rwgt>
</event>
<event>
 4      1 +4.5322000e-10 4.40158900e+03 7.81860800e-03 7.47298900e-02
        2 -1    0    0  501    0 +0.0000000000e+00 +0.0000000000e+00 +3.5602601031e+03 3.5602601031e+03 0.0000000000e+00 0.0000e+00 -1.0000e+00
       -2 -1    0    0    0  501 -0.0000000000e+00 -0.0000000000e+00 -1.3604330037e+03 1.3604330037e+03 0.0000000000e+00 0.0000e+00 1.0000e+00
      -13  1    1    2    0    0 +1.8779034934e+03 -1.0069627612e+03 +4.8454113987e+02 2.1852404100e+03 0.0000000000e+00 0.0000e+00 1.0000e+00
       13  1    1    2    0    0 -1.8779034934e+03 +1.0069627612e+03 +1.7152859596e+03 2.7354526968e+03 0.0000000000e+00 0.0000e+00 -1.0000e+00
<mgrwt>
<rscale>  0 0.44015885E+04</rscale>
<asrwt>0</asrwt>
<pdfrwt beam="1">  1        2 0.54773232E+00 0.44015885E+04</pdfrwt>
<pdfrwt beam="2">  1       -2 0.20929739E+00 0.44015885E+04</pdfrwt>
<totfact> 0.66588070E-02</totfact>
</mgrwt>
<rwgt>
<wgt id='morphing_basis_vector_1'> +2.3403618e-05 </wgt>
<wgt id='morphing_basis_vector_2'> +1.6610834e-05 </wgt>
<wgt id='morphing_basis_vector_3'> +2.5901055e-05 </wgt>
<wgt id='morphing_basis_vector_4'> +1.7617923e-05 </wgt>
<wgt id='morphing_basis_vector_5'> +2.9133933e-05 </wgt>
</rwgt>
</event>
<event>
 4      1 +4.5322000e-10 4.04301600e+03 7.81860800e-03 7.53309200e-02
        2 -1    0    0  501    0 +0.0000000000e+00 +0.0000000000e+00 +1.6662400268e+03 1.6662400268e+03 0.0000000000e+00 0.0000e+00 -1.0000e+00
       -2 -1    0    0    0  501 -0.0000000000e+00 -0.0000000000e+00 -2.4525244172e+03 2.4525244172e+03 0.0000000000e+00 0.0000e+00 1.0000e+00
      -13  1    1    2    0    0 -1.3160822654e+03 -7.9300545163e+02 -1.7313608069e+03 2.3148521377e+03 0.0000000000e+00 0.0000e+00 1.0000e+00
       13  1    1    2    0    0 +1.3160822654e+03 +7.9300545163e+02 +9.4507641659e+02 1.8039123063e+03 0.0000000000e+00 0.0000e+00 -1.0000e+00
<mgrwt>
<rscale>  0 0.40430159E+04</rscale>
<asrwt>0</asrwt>
<pdfrwt beam="1">  1        2 0.25634462E+00 0.40430159E+04</pdfrwt>
<pdfrwt beam="2">  1       -2 0.37731145E+00 0.40430159E+04</pdfrwt>
<totfact> 0.75397730E-02</totfact>
</mgrwt>
<rwgt>
<wgt id='morphing_basis_vector_1'> +1.6483376e-05 </wgt>
<wgt id='morphing_basis_vector_2'> +1.1237410e-05 </wgt>
<wgt id='morphing_basis_vector_3'> +1.8113100e-05 </wgt>
<wgt id='morphing_basis_vector_4'> +1.2951110e-05 </wgt>
<wgt id='morphing_basis_vector_5'> +2.0743135e-05 </wgt>
</rwgt>
</event>
<event>
 4      1 +4.5322000e-10 3.96024600e+03 7.81860800e-03 7.54786800e-02
        2 -1    0    0  501    0 +0.0000000000e+00 +0.0000000000e+00 +2.4112993354e+03 2.4112993354e+03 0.0000000000e+00 0.0000e+00 -1.0000e+00
       -2 -1    0    0    0  501 -0.0000000000e+00 -0.0000000000e+00 -1.6260471050e+03 1.6260471050e+03 0.0000000000e+00 0.0000e+00 1.0000e+00
      -13  1    1    2    0    0 +1.2025884263e+03 -1.5721554831e+03 +3.3683856200e+02 2.0078227021e+03 0.0000000000e+00 0.0000e+00 1.0000e+00
       13  1    1    2    0    0 -1.2025884263e+03 +1.5721554831e+03 +4.4841366845e+02 2.0295237383e+03 0.0000000000e+00 0.0000e+00 -1.0000e+00
<mgrwt>
<rscale>  0 0.39602456E+04</rscale>
<asrwt>0</asrwt>
<pdfrwt beam="1">  1        2 0.37096913E+00 0.39602456E+04</pdfrwt>
<pdfrwt beam="2">  1       -2 0.25016110E+00 0.39602456E+04</pdfrwt>
<totfact> 0.20178207E-01</totfact>
</mgrwt>
<rwgt>
<wgt id='morphing_basis_vector_1'> +1.5657371e-05 </wgt>
<wgt id='morphing_basis_vector_2'> +1.1747481e-05 </wgt>
<wgt id='morphing_basis_vector_3'> +1.7439231e-05 </wgt>
<wgt id='morphing_basis_vector_4'> +1.0910433e-05 </wgt>
<wgt id='morphing_basis_vector_5'> +1.9004203e-05 </wgt>
</rwgt>
</event>
<event>
 4      1 +4.5322000e-10 3.93802200e+03 7.81860800e-03 7.55189800e-02
        2 -1    0    0  501    0 +0.0000000000e+00 +0.0000000000e+00 +1.9723991999e+03 1.9723991999e+03 0.0000000000e+00 0.0000e+00 -1.0000e+00
       -2 -1    0    0    0  501 -0.0000000000e+00 -0.0000000000e+00 -1.9656281685e+03 1.9656281685e+03 0.0000000000e+00 0.0000e+00 1.0000e+00
      -13  1    1    2    0    0 +1.6116433707e+03 +1.1261266035e+03 -1.0360971387e+02 1.9688297169e+03 0.0000000000e+00 0.0000e+00 1.0000e+00
       13  1    1    2    0    0 -1.6116433707e+03 -1.1261266035e+03 +1.1038074522e+02 1.9691976514e+03 0.0000000000e+00 0.0000e+00 -1.0000e+00
<mgrwt>
<rscale>  0 0.39380215E+04</rscale>
<asrwt>0</asrwt>
<pdfrwt beam="1">  1        2 0.30344603E+00 0.39380215E+04</pdfrwt>
<pdfrwt beam="2">  1       -2 0.30240433E+00 0.39380215E+04</pdfrwt>
<totfact> 0.15889827E-01</totfact>
</mgrwt>
<rwgt>
<wgt id='morphing_basis_vector_1'> +1.5264693e-05 </wgt>
<wgt id='morphing_basis_vector_2'> +1.1351536e-05 </wgt>
<wgt id='morphing_basis_vector_3'> +1.6977301e-05 </wgt>
<wgt id='morphing_basis_vector_4'> +1.0763570e-05 </wgt>
<wgt id='morphing_basis_vector_5'> +1.8587170e-05 </wgt>
</rwgt>
</event>
<event>
 4      1 +4.5322000e-10 4.10082100e+03 7.81860800e-03 7.52298400e-02
        2 -1    0    0  501    0 +0.0000000000e+00 +0.0000000000e+00 +2.7990804046e+03 2.7990804046e+03 0.0000000000e+00 0.0000e+00 1.0000e+00
       -2 -1    0    0    0  501 -0.0000000000e+00 -0.0000000000e+00 -1.5019876241e+03 1.5019876241e+03 0.0000000000e+00 0.0000e+00 -1.0000e+00
      -13  1    1    2    0    0 +1.4775537494e+03 -4.3916774333e+02 +2.0666613975e+03 2.5782014508e+03 0.0000000000e+00 0.0000e+00 1.0000e+00
       13  1    1    2    0    0 -1.4775537494e+03 +4.3916774333e+02 -7.6956861697e+02 1.7228665780e+03 0.0000000000e+00 0.0000e+00 -1.0000e+00
<mgrwt>
<rscale>  0 0.41008214E+04</rscale>
<asrwt>0</asrwt>
<pdfrwt beam="1">  1        2 0.43062775E+00 0.41008214E+04</pdfrwt>
<pdfrwt beam="2">  1       -2 0.23107502E+00 0.41008214E+04</pdfrwt>
<totfact> 0.15745831E-01</totfact>
</mgrwt>
<rwgt>
<wgt id='morphing_basis_vector_1'> +2.2080109e-05 </wgt>
<wgt id='morphing_basis_vector_2'> +2.5525352e-05 </wgt>
<wgt id='morphing_basis_vector_3'> +2.6624942e-05 </wgt>
<wgt id='morphing_basis_vector_4'> +3.8903508e-06 </wgt>
<wgt id='morphing_basis_vector_5'> +2.1142189e-05 </wgt>
</rwgt>
</event>
<event>
 4      1 +4.5322000e-10 4.09921900e+03 7.81860800e-03 7.52326200e-02
        2 -1    0    0  501    0 +0.0000000000e+00 +0.0000000000e+00 +2.8737594689e+03 2.8737594689e+03 0.0000000000e+00 0.0000e+00 1.0000e+00
       -2 -1    0    0    0  501 -0.0000000000e+00 -0.0000000000e+00 -1.4618129001e+03 1.4618129001e+03 0.0000000000e+00 0.0000e+00 -1.0000e+00
      -13  1    1    2    0    0 -2.0358526545e+03 +3.5767490961e+01 +9.5384314881e+02 2.2485088607e+03 0.0000000000e+00 0.0000e+00 1.0000e+00
       13  1    1    2    0    0 +2.0358526545e+03 -3.5767490961e+01 +4.5810341995e+02 2.0870635083e+03 0.0000000000e+00 0.0000e+00 -1.0000e+00
<mgrwt>
<rscale>  0 0.40992188E+04</rscale>
<asrwt>0</asrwt>
<pdfrwt beam="1">  1        2 0.44211684E+00 0.40992188E+04</pdfrwt>
<pdfrwt beam="2">  1       -2 0.22489429E+00 0.40992188E+04</pdfrwt>
<totfact> 0.15615153E-01</totfact>
</mgrwt>
<rwgt>
<wgt id='morphing_basis_vector_1'> +1.8339566e-05 </wgt>
<wgt id='morphing_basis_vector_2'> +1.4593009e-05 </wgt>
<wgt id='morphing_basis_vector_3'> +2.0627700e-05 </wgt>
<wgt id='morphing_basis_vector_4'> +1.1731262e-05 </wgt>
<wgt id='morphing_basis_vector_5'> +2.1763311e-05 </wgt>
</rwgt>
</event>
<event>
 4      1 +4.5322000e-10 4.18861000e+03 7.81860800e-03 7.50795300e-02
        2 -1    0    0  501    0 +0.0000000000e+00 +0.0000000000e+00 +3.6944938624e+03 3.6944938624e+03 0.0000000000e+00 0.0000e+00 -1.0000e+00
       -2 -1    0    0    0  501 -0.0000000000e+00 -0.0000000000e+00 -1.1872027050e+03 1.1872027050e+03 0.0000000000e+00 0.0000e+00 1.0000e+00
      -13  1    1    2    0    0 -6.0876585440e+02 +2.4396960248e+02 -1.0644364407e+03 1.2502567611e+03 0.0000000000e+00 0.0000e+00 1.0000e+00
       13  1    1    2    0    0 +6.0876585440e+02 -2.4396960248e+02 +3.5717275981e+03 3.6314398063e+03 0.0000000000e+00 0.0000e+00 -1.0000e+00
<mgrwt>
<rscale>  0 0.41886098E+04</rscale>
<asrwt>0</asrwt>
<pdfrwt beam="1">  1        2 0.56838367E+00 0.41886098E+04</pdfrwt>
<pdfrwt beam="2">  1       -2 0.18264657E+00 0.41886098E+04</pdfrwt>
<totfact> 0.84142057E-02</totfact>
</mgrwt>
<rwgt>
<wgt id='morphing_basis_vector_1'> +1.8941908e-05 </wgt>
<wgt id='morphing_basis_vector_2'> +1.2841705e-05 </wgt>
<wgt id='morphing_basis_vector_3'> +2.0810689e-05 </wgt>
<wgt id='morphing_basis_vector_4'> +1.5001915e-05 </wgt>
<wgt id='morphing_basis_vector_5'> +2.3918285e-05 </wgt>
</rwgt>
</event>
<event>
 4      1 +4.5322000e-10 4.19043100e+03 7.81860800e-03 7.50764600e-02
        2 -1    0    0  501    0 +0.0000000000e+00 +0.0000000000e+00 +3.3894007671e+03 3.3894007671e+03 0.0000000000e+00 0.0000e+00 1.0000e+00
       -2 -1    0    0    0  501 -0.0000000000e+00 -0.0000000000e+00 -1.2951932332e+03 1.2951932332e+03 0.0000000000e+00 0.0000e+00 -1.0000e+00
      -13  1    1    2    0    0 +1.6152951563e+03 -1.3312268585e+03 +9.4351868576e+02 2.2959901788e+03 0.0000000000e+00 0.0000e+00 -1.0000e+00
       13  1    1    2    0    0 -1.6152951563e+03 +1.3312268585e+03 +1.1506888481e+03 2.3886038215e+03 0.0000000000e+00 0.0000e+00 1.0000e+00
<mgrwt>
<rscale>  0 0.41904315E+04</rscale>
<asrwt>0</asrwt>
<pdfrwt beam="1">  1        2 0.52144627E+00 0.41904315E+04</pdfrwt>
<pdfrwt beam="2">  1       -2 0.19926050E+00 0.41904315E+04</pdfrwt>
<totfact> 0.10663375E-01</totfact>
</mgrwt>
<rwgt>
<wgt id='morphing_basis_vector_1'> +1.9568559e-05 </wgt>
<wgt id='morphing_basis_vector_2'> +1.4609119e-05 </wgt>
<wgt id='morphing_basis_vector_3'> +2.1802374e-05 </wgt>
<wgt id='morphing_basis_vector_4'> +1.3769802e-05 </wgt>
<wgt id='morphing_basis_vector_5'> +2.3855111e-05 </wgt>
</rwgt>
</event>
<event>
 4      1 +4.5322000e-10 3.91784500e+03 7.81860800e-03 7.55558100e-02
        2 -1    0    0  501    0 +0.0000000000e+00 +0.0000000000e+00 +1.8491135131e+03 1.8491135131e+03 0.0000000000e+00 0.0000e+00 -1.0000e+00
       -2 -1    0    0    0  501 -0.0000000000e+00 -0.0000000000e+00 -2.0752528389e+03 2.0752528389e+03 0.0000000000e+00 0.0000e+00 1.0000e+00
      -13  1    1    2    0    0 -8.5064785740e+02 +1.0481440593e+03 -1.5349993855e+03 2.0441210483e+03 0.0000000000e+00 0.0000e+00 1.0000e+00
       13  1    1    2    0    0 +8.5064785740e+02 -1.0481440593e+03 +1.3088600597e+03 1.8802453037e+03 0.0000000000e+00 0.0000e+00 -1.0000e+00
<mgrwt>
<rscale>  0 0.39178454E+04</rscale>
<asrwt>0</asrwt>
<pdfrwt beam="1">  1        2 0.28447900E+00 0.39178454E+04</pdfrwt>
<pdfrwt beam="2">  1       -2 0.31926967E+00 0.39178454E+04</pdfrwt>
<totfact> 0.14387889E-01</totfact>
</mgrwt>
<rwgt>
<wgt id='morphing_basis_vector_1'> +1.4532910e-05 </wgt>
<wgt id='morphing_basis_vector_2'> +9.8778451e-06 </wgt>
<wgt id='morphing_basis_vector_3'> +1.5954244e-05 </wgt>
<wgt id='morphing_basis_vector_4'> +1.1437515e-05 </wgt>
<wgt id='morphing_basis_vector_5'> +1.8281675e-05 </wgt>
</rwgt>
</event>
<event>
 4      1 +4.5322000e-10 4.18127600e+03 7.81860800e-03 7.50919500e-02
        2 -1    0    0  501    0 +0.0000000000e+00 +0.0000000000e+00 +2.4945066229e+03 2.4945066229e+03 0.0000000000e+00 0.0000e+00 1.0000e+00
       -2 -1    0    0    0  501 -0.0000000000e+00 -0.0000000000e+00 -1.7521568966e+03 1.7521568966e+03 0.0000000000e+00 0.0000e+00 -1.0000e+00
      -13  1    1    2    0    0 +5.5683029654e+01 +1.6583205194e+03 -9.2057936611e+02 1.8975230998e+03 0.0000000000e+00 0.0000e+00 -1.0000e+00
       13  1    1    2    0    0 -5.5683029654e+01 -1.6583205194e+03 +1.6629290924e+03 2.3491404197e+03 0.0000000000e+00 0.0000e+00 1.0000e+00
<mgrwt>
<rscale>  0 0.41812759E+04</rscale>
<asrwt>0</asrwt>
<pdfrwt beam="1">  1        2 0.38377025E+00 0.41812759E+04</pdfrwt>
<pdfrwt beam="2">  1       -2 0.26956260E+00 0.41812759E+04</pdfrwt>
<totfact> 0.13014973E-01</totfact>
</mgrwt>
<rwgt>
<wgt id='morphing_basis_vector_1'> +1.8854950e-05 </wgt>
<wgt id='morphing_basis_vector_2'> +1.2883644e-05 </wgt>
<wgt id='morphing_basis_vector_3'> +2.0737341e-05 </wgt>
<wgt id='morphing_basis_vector_4'> +1.4801863e-05 </wgt>
<wgt id='morphing_basis_vector_5'> +2.3742543e-05 </wgt>
</rwgt>
</event>
<event>
 4      1 +4.5322000e-10 4.13138300e+03 7.81860800e-03 7.51770900e-02
        2 -1    0    0  501    0 +0.0000000000e+00 +0.0000000000e+00 +5.1564086867e+03 5.1564086867e+03 0.0000000000e+00 0.0000e+00 -1.0000e+00
       -2 -1    0    0    0  501 -0.0000000000e+00 -0.0000000000e+00 -8.2752951279e+02 8.2752951279e+02 0.0000000000e+00 0.0000e+00 1.0000e+00
      -13  1    1    2    0    0 +6.6599960597e+02 -8.7028577306e+02 -3.7177970942e+02 1.1572264058e+03 0.0000000000e+00 0.0000e+00 1.0000e+00
       13  1    1    2    0    0 -6.6599960597e+02 +8.7028577306e+02 +4.7006588834e+03 4.8267117937e+03 0.0000000000e+00 0.0000e+00 -1.0000e+00
<mgrwt>
<rscale>  0 0.41313825E+04</rscale>
<asrwt>0</asrwt>
<pdfrwt beam="1">  1        2 0.79329363E+00 0.41313825E+04</pdfrwt>
<pdfrwt beam="2">  1       -2 0.12731224E+00 0.41313825E+04</pdfrwt>
<totfact> 0.72865501E-03</totfact>
</mgrwt>
<rwgt>
<wgt id='morphing_basis_vector_1'> +1.7936912e-05 </wgt>
<wgt id='morphing_basis_vector_2'> +1.2168590e-05 </wgt>
<wgt id='morphing_basis_vector_3'> +1.9704036e-05 </wgt>
<wgt id='morphing_basis_vector_4'> +1.4185703e-05 </wgt>
<wgt id='morphing_basis_vector_5'> +2.2631178e-05 </wgt>
</rwgt>
</event>
<event>
 4      1 +4.5322000e-10 4.03901000e+03 7.81860800e-03 7.53379900e-02
        2 -1    0    0  501    0 +0.0000000000e+00 +0.0000000000e+00 +2.3898173957e+03 2.3898173957e+03 0.0000000000e+00 0.0000e+00 1.0000e+00
       -2 -1    0    0    0  501 -0.0000000000e+00 -0.0000000000e+00 -1.7065740701e+03 1.7065740701e+03 0.0000000000e+00 0.0000e+00 -1.0000e+00
      -13  1    1    2    0    0 +9.6595234786e+02 +3.2183723088e+02 -1.4272193657e+03 1.7531680636e+03 0.0000000000e+00 0.0000e+00 -1.0000e+00
       13  1    1    2    0    0 -9.6595234786e+02 -3.2183723088e+02 +2.1104626913e+03 2.3432234023e+03 0.0000000000e+00 0.0000e+00 1.0000e+00
<mgrwt>
<rscale>  0 0.40390100E+04</rscale>
<asrwt>0</asrwt>
<pdfrwt beam="1">  1        2 0.36766421E+00 0.40390100E+04</pdfrwt>
<pdfrwt beam="2">  1       -2 0.26254986E+00 0.40390100E+04</pdfrwt>
<totfact> 0.16960721E-01</totfact>
</mgrwt>
<rwgt>
<wgt id='morphing_basis_vector_1'> +1.6392054e-05 </wgt>
<wgt id='morphing_basis_vector_2'> +1.1115381e-05 </wgt>
<wgt id='morphing_basis_vector_3'> +1.7999029e-05 </wgt>
<wgt id='morphing_basis_vector_4'> +1.2955515e-05 </wgt>
<wgt id='morphing_basis_vector_5'> +2.0665307e-05 </wgt>
</rwgt>
</event>
<event>
 4      1 +4.5322000e-10 4.10796400e+03 7.81860800e-03 7.52174700e-02
        2 -1    0    0  501    0 +0.0000000000e+00 +0.0000000000e+00 +1.1440755817e+03 1.1440755817e+03 0.0000000000e+00 0.0000e+00 -1.0000e+00
       -2 -1    0    0    0  501 -0.0000000000e+00 -0.0000000000e+00 -3.6875546048e+03 3.6875546048e+03 0.0000000000e+00 0.0000e+00 1.0000e+00
      -13  1    1    2    0    0 +1.4494622507e+03 +1.2186231151e+03 -2.2074042485e+03 2.9083700983e+03 0.0000000000e+00 0.0000e+00 1.0000e+00
       13  1    1    2    0    0 -1.4494622507e+03 -1.2186231151e+03 -3.3607477453e+02 1.9232600882e+03 0.0000000000e+00 0.0000e+00 -1.0000e+00
<mgrwt>
<rscale>  0 0.41079636E+04</rscale>
<asrwt>0</asrwt>
<pdfrwt beam="1">  1        2 0.17601163E+00 0.41079636E+04</pdfrwt>
<pdfrwt beam="2">  1       -2 0.56731609E+00 0.41079636E+04</pdfrwt>
<totfact> 0.67702843E-03</totfact>
</mgrwt>
<rwgt>
<wgt id='morphing_basis_vector_1'> +1.7667411e-05 </wgt>
<wgt id='morphing_basis_vector_2'> +1.2282983e-05 </wgt>
<wgt id='morphing_basis_vector_3'> +1.9473059e-05 </wgt>
<wgt id='morphing_basis_vector_4'> +1.3586193e-05 </wgt>
<wgt id='morphing_basis_vector_5'> +2.2096751e-05 </wgt>
</rwgt>
</event>
<event>
 4      1 +4.5322000e-10 3.92231800e+03 7.81860800e-03 7.55476200e-02
        2 -1    0    0  501    0 +0.0000000000e+00 +0.0000000000e+00 +1.6998521200e+03 1.6998521200e+03 0.0000000000e+00 0.0000e+00 -1.0000e+00
       -2 -1    0    0    0  501 -0.0000000000e+00 -0.0000000000e+00 -2.2626346401e+03 2.2626346401e+03 0.0000000000e+00 0.0000e+00 1.0000e+00
      -13  1    1    2    0    0 +4.6507696424e+01 -4.2735246779e+02 -2.2144530478e+03 2.2557915237e+03 0.0000000000e+00 0.0000e+00 1.0000e+00
       13  1    1    2    0    0 -4.6507696424e+01 +4.2735246779e+02 +1.6516705277e+03 1.7066952363e+03 0.0000000000e+00 0.0000e+00 -1.0000e+00
<mgrwt>
<rscale>  0 0.39223178E+04</rscale>
<asrwt>0</asrwt>
<pdfrwt beam="1">  1        2 0.26151571E+00 0.39223178E+04</pdfrwt>
<pdfrwt beam="2">  1       -2 0.34809764E+00 0.39223178E+04</pdfrwt>
<totfact> 0.11246998E-01</totfact>
</mgrwt>
<rwgt>
<wgt id='morphing_basis_vector_1'> +1.4583987e-05 </wgt>
<wgt id='morphing_basis_vector_2'> +9.8787107e-06 </wgt>
<wgt id='morphing_basis_vector_3'> +1.6003090e-05 </wgt>
<wgt id='morphing_basis_vector_4'> +1.1521888e-05 </wgt>
<wgt id='morphing_basis_vector_5'> +1.8368377e-05 </wgt>
</rwgt>
</event>
<event>
 4      1 +4.5322000e-10 4.01577100e+03 7.81860800e-03 7.53791600e-02
        2 -1    0    0  501    0 +0.0000000000e+00 +0.0000000000e+00 +1.4372543838e+03 1.4372543838e+03 0.0000000000e+00 0.0000e+00 1.0000e+00
       -2 -1    0    0    0  501 -0.0000000000e+00 -0.0000000000e+00 -2.8050728326e+03 2.8050728326e+03 0.0000000000e+00 0.0000e+00 -1.0000e+00
      -13  1    1    2    0    0 +2.3791148916e+02 +4.8246147528e+02 -2.7275315828e+03 2.7800718493e+03 0.0000000000e+00 0.0000e+00 -1.0000e+00
       13  1    1    2    0    0 -2.3791148916e+02 -4.8246147528e+02 +1.3597131341e+03 1.4622553671e+03 0.0000000000e+00 0.0000e+00 1.0000e+00
<mgrwt>
<rscale>  0 0.40157705E+04</rscale>
<asrwt>0</asrwt>
<pdfrwt beam="1">  1        2 0.22111606E+00 0.40157705E+04</pdfrwt>
<pdfrwt beam="2">  1       -2 0.43154966E+00 0.40157705E+04</pdfrwt>
<totfact> 0.44683239E-02</totfact>
</mgrwt>
<rwgt>
<wgt id='morphing_basis_vector_1'> +1.6016630e-05 </wgt>
<wgt id='morphing_basis_vector_2'> +1.0852639e-05 </wgt>
<wgt id='morphing_basis_vector_3'> +1.7583228e-05 </wgt>
<wgt id='morphing_basis_vector_4'> +1.2665438e-05 </wgt>
<wgt id='morphing_basis_vector_5'> +2.0192079e-05 </wgt>
</rwgt>
</event>
<event>
 4      1 +4.5322000e-10 4.32202000e+03 7.81860800e-03 7.48581300e-02
        2 -1    0    0  501    0 +0.0000000000e+00 +0.0000000000e+00 +2.2422278523e+03 2.2422278523e+03 0.0000000000e+00 0.0000e+00 -1.0000e+00
       -2 -1    0    0    0  501 -0.0000000000e+00 -0.0000000000e+00 -2.0827341622e+03 2.0827341622e+03 0.0000000000e+00 0.0000e+00 1.0000e+00
      -13  1    1    2    0    0 +5.0876827064e+02 +2.0964228304e+03 +2.0684002765e+02 2.1671678833e+03 0.0000000000e+00 0.0000e+00 1.0000e+00
       13  1    1    2    0    0 -5.0876827064e+02 -2.0964228304e+03 -4.7346337517e+01 2.1577941312e+03 0.0000000000e+00 0.0000e+00 -1.0000e+00
<mgrwt>
<rscale>  0 0.43220202E+04</rscale>
<asrwt>0</asrwt>
<pdfrwt beam="1">  1        2 0.34495813E+00 0.43220202E+04</pdfrwt>
<pdfrwt beam="2">  1       -2 0.32042064E+00 0.43220202E+04</pdfrwt>
<totfact> 0.82042136E-02</totfact>
</mgrwt>
<rwgt>
<wgt id='morphing_basis_vector_1'> +2.2433596e-05 </wgt>
<wgt id='morphing_basis_vector_2'> +1.7412946e-05 </wgt>
<wgt id='morphing_basis_vector_3'> +2.5158554e-05 </wgt>
<wgt id='morphing_basis_vector_4'> +1.4951783e-05 </wgt>
<wgt id='morphing_basis_vector_5'> +2.6956795e-05 </wgt>
</rwgt>
</event>
<event>
 4      1 +4.5322000e-10 4.06583800e+03 7.81860800e-03 7.52908100e-02
        2 -1    0    0  501    0 +0.0000000000e+00 +0.0000000000e+00 +2.7459193507e+03 2.7459193507e+03 0.0000000000e+00 0.0000e+00 1.0000e+00
       -2 -1    0    0    0  501 -0.0000000000e+00 -0.0000000000e+00 -1.5050546747e+03 1.5050546747e+03 0.0000000000e+00 0.0000e+00 -1.0000e+00
      -13  1    1    2    0    0 -1.0924917063e+03 +1.2423985089e+03 +1.8556095387e+03 2.4860367944e+03 0.0000000000e+00 0.0000e+00 -1.0000e+00
       13  1    1    2    0    0 +1.0924917063e+03 -1.2423985089e+03 -6.1474486267e+02 1.7649372310e+03 0.0000000000e+00 0.0000e+00 1.0000e+00
<mgrwt>
<rscale>  0 0.40658376E+04</rscale>
<asrwt>0</asrwt>
<pdfrwt beam="1">  1        2 0.42244913E+00 0.40658376E+04</pdfrwt>
<pdfrwt beam="2">  1       -2 0.23154687E+00 0.40658376E+04</pdfrwt>
<totfact> 0.16915686E-01</totfact>
</mgrwt>
<rwgt>
<wgt id='morphing_basis_vector_1'> +2.0637176e-05 </wgt>
<wgt id='morphing_basis_vector_2'> +2.2603751e-05 </wgt>
<wgt id='morphing_basis_vector_3'> +2.4597072e-05 </wgt>
<wgt id='morphing_basis_vector_4'> +5.2459792e-06 </wgt>
<wgt id='morphing_basis_vector_5'> +2.0550785e-05 </wgt>
</rwgt>
</event>
<event>
 4      1 +4.5322000e-10 3.93047100e+03 7.81860800e-03 7.55327400e-02
        2 -1    0    0  501    0 +0.0000000000e+00 +0.0000000000e+00 +2.2401061794e+03 2.2401061794e+03 0.0000000000e+00 0.0000e+00 -1.0000e+00
       -2 -1    0    0    0  501 -0.0000000000e+00 -0.0000000000e+00 -1.7240923630e+03 1.7240923630e+03 0.0000000000e+00 0.0000e+00 1.0000e+00
      -13  1    1    2    0    0 +2.3196583072e+02 -5.9409673499e+02 -1.6168124409e+03 1.7380568306e+03 0.0000000000e+00 0.0000e+00 1.0000e+00
       13  1    1    2    0    0 -2.3196583072e+02 +5.9409673499e+02 +2.1328262573e+03 2.2261417118e+03 0.0000000000e+00 0.0000e+00 -1.0000e+00
<mgrwt>
<rscale>  0 0.39304707E+04</rscale>
<asrwt>0</asrwt>
<pdfrwt beam="1">  1        2 0.34463172E+00 0.39304707E+04</pdfrwt>
<pdfrwt beam="2">  1       -2 0.26524498E+00 0.39304707E+04</pdfrwt>
<totfact> 0.20037223E-01</totfact>
</mgrwt>
<rwgt>
<wgt id='morphing_basis_vector_1'> +1.4705345e-05 </wgt>
<wgt id='morphing_basis_vector_2'> +9.9620255e-06 </wgt>
<wgt id='morphing_basis_vector_3'> +1.6137110e-05 </wgt>
<wgt id='morphing_basis_vector_4'> +1.1617679e-05 </wgt>
<wgt id='morphing_basis_vector_5'> +1.8522302e-05 </wgt>
</rwgt>
</event>
<event>
 4      1 +4.5322000e-10 3.97545100e+03 7.81860800e-03 7.54512600e-02
        2 -1    0    0  501    0 +0.0000000000e+00 +0.0000000000e+00 +4.1550974113e+03 4.1550974113e+03 0.0000000000e+00 0.0000e+00 -1.0000e+00
       -2 -1    0    0    0  501 -0.0000000000e+00 -0.0000000000e+00 -9.5089284261e+02 9.5089284261e+02 0.0000000000e+00 0.0000e+00 1.0000e+00
      -13  1    1    2    0    0 +1.6901575639e+03 +1.0318205641e+03 +1.8236946109e+03 2.6920528043e+03 0.0000000000e+00 0.0000e+00 1.0000e+00
       13  1    1    2    0    0 -1.6901575639e+03 -1.0318205641e+03 +1.3805099577e+03 2.4139374496e+03 0.0000000000e+00 0.0000e+00 -1.0000e+00
<mgrwt>
<rscale>  0 0.39754509E+04</rscale>
<asrwt>0</asrwt>
<pdfrwt beam="1">  1        2 0.63924574E+00 0.39754509E+04</pdfrwt>
<pdfrwt beam="2">  1       -2 0.14629121E+00 0.39754509E+04</pdfrwt>
<totfact> 0.68763569E-02</totfact>
</mgrwt>
<rwgt>
<wgt id='morphing_basis_vector_1'> +1.6155705e-05 </wgt>
<wgt id='morphing_basis_vector_2'> +1.2686111e-05 </wgt>
<wgt id='morphing_basis_vector_3'> +1.8122044e-05 </wgt>
<wgt id='morphing_basis_vector_4'> +1.0534736e-05 </wgt>
<wgt id='morphing_basis_vector_5'> +1.9253833e-05 </wgt>
</rwgt>
</event>
<event>
 4      1 +4.5322000e-10 4.48554400e+03 7.81860800e-03 7.45975300e-02
        2 -1    0    0  501    0 +0.0000000000e+00 +0.0000000000e+00 +1.7310100314e+03 1.7310100314e+03 0.0000000000e+00 0.0000e+00 -1.0000e+00
       -2 -1    0    0    0  501 -0.0000000000e+00 -0.0000000000e+00 -2.9058331628e+03 2.9058331628e+03 0.0000000000e+00 0.0000e+00 1.0000e+00
      -13  1    1    2    0    0 +3.1298712705e+02 +1.4636027780e+03 -2.3140607889e+03 2.7558975613e+03 0.0000000000e+00 0.0000e+00 1.0000e+00
       13  1    1    2    0    0 -3.1298712705e+02 -1.4636027780e+03 +1.1392376576e+03 1.8809456329e+03 0.0000000000e+00 0.0000e+00 -1.0000e+00
<mgrwt>
<rscale>  0 0.44855440E+04</rscale>
<asrwt>0</asrwt>
<pdfrwt beam="1">  1        2 0.26630924E+00 0.44855440E+04</pdfrwt>
<pdfrwt beam="2">  1       -2 0.44705126E+00 0.44855440E+04</pdfrwt>
<totfact> 0.23135741E-02</totfact>
</mgrwt>
<rwgt>
<wgt id='morphing_basis_vector_1'> +2.4902974e-05 </wgt>
<wgt id='morphing_basis_vector_2'> +1.6942769e-05 </wgt>
<wgt id='morphing_basis_vector_3'> +2.7401248e-05 </wgt>
<wgt id='morphing_basis_vector_4'> +1.9707697e-05 </wgt>
<wgt id='morphing_basis_vector_5'> +3.1489259e-05 </wgt>
</rwgt>
</event>
<event>
 4      1 +4.5322000e-10 3.98372300e+03 7.81860800e-03 7.54364000e-02
        2 -1    0    0  501    0 +0.0000000000e+00 +0.0000000000e+00 +2.9880828588e+03 2.9880828588e+03 0.0000000000e+00 0.0000e+00 -1.0000e+00
       -2 -1    0    0    0  501 -0.0000000000e+00 -0.0000000000e+00 -1.3277782404e+03 1.3277782404e+03 0.0000000000e+00 0.0000e+00 1.0000e+00
      -13  1    1    2    0    0 -1.7771293288e+03 +9.0829537549e+01 -1.3949623431e+02 1.7849083605e+03 0.0000000000e+00 0.0000e+00 1.0000e+00
       13  1    1    2    0    0 +1.7771293288e+03 -9.0829537549e+01 +1.7998008527e+03 2.5309527387e+03 0.0000000000e+00 0.0000e+00 -1.0000e+00
<mgrwt>
<rscale>  0 0.39837226E+04</rscale>
<asrwt>0</asrwt>
<pdfrwt beam="1">  1        2 0.45970505E+00 0.39837226E+04</pdfrwt>
<pdfrwt beam="2">  1       -2 0.20427358E+00 0.39837226E+04</pdfrwt>
<totfact> 0.18681842E-01</totfact>
</mgrwt>
<rwgt>
<wgt id='morphing_basis_vector_1'> +1.5603770e-05 </wgt>
<wgt id='morphing_basis_vector_2'> +1.0774932e-05 </wgt>
<wgt id='morphing_basis_vector_3'> +1.7172835e-05 </wgt>
<wgt id='morphing_basis_vector_4'> +1.2074152e-05 </wgt>
<wgt id='morphing_basis_vector_5'> +1.9536251e-05 </wgt>
</rwgt>
</event>
<event>
 4      1 +4.5322000e-10 4.28125500e+03 7.81860800e-03 7.49249100e-02
        2 -1    0    0  501    0 +0.0000000000e+00 +0.0000000000e+00 +2.8117515280e+03 2.8117515280e+03 0.0000000000e+00 0.0000e+00 -1.0000e+00
       -2 -1    0    0    0  501 -0.0000000000e+00 -0.0000000000e+00 -1.6296912130e+03 1.6296912130e+03 0.0000000000e+00 0.0000e+00 1.0000e+00
      -13  1    1    2    0    0 +2.0152914373e+02 -1.8347800398e+03 -5.3362398668e+02 1.9214021832e+03 0.0000000000e+00 0.0000e+00 1.0000e+00
       13  1    1    2    0    0 -2.0152914373e+02 +1.8347800398e+03 +1.7156843016e+03 2.5200405578e+03 0.0000000000e+00 0.0000e+00 -1.0000e+00
<mgrwt>
<rscale>  0 0.42812553E+04</rscale>
<asrwt>0</asrwt>
<pdfrwt beam="1">  1        2 0.43257716E+00 0.42812553E+04</pdfrwt>
<pdfrwt beam="2">  1       -2 0.25072173E+00 0.42812553E+04</pdfrwt>
<totfact> 0.11123490E-01</totfact>
</mgrwt>
<rwgt>
<wgt id='morphing_basis_vector_1'> +2.0754897e-05 </wgt>
<wgt id='morphing_basis_vector_2'> +1.4275358e-05 </wgt>
<wgt id='morphing_basis_vector_3'> +2.2856601e-05 </wgt>
<wgt id='morphing_basis_vector_4'> +1.6191377e-05 </wgt>
<wgt id='morphing_basis_vector_5'> +2.6100034e-05 </wgt>
</rwgt>
</event>
<event>
 4      1 +4.5322000e-10 3.99788500e+03 7.81860800e-03 7.54110400e-02
        2 -1    0    0  501    0 +0.0000000000e+00 +0.0000000000e+00 +2.2556566383e+03 2.2556566383e+03 0.0000000000e+00 0.0000e+00 -1.0000e+00
       -2 -1    0    0    0  501 -0.0000000000e+00 -0.0000000000e+00 -1.7714445824e+03 1.7714445824e+03 0.0000000000e+00 0.0000e+00 1.0000e+00
      -13  1    1    2    0    0 +1.3441914176e+03 -1.4664056345e+03 +4.3994572244e+02 2.0373385312e+03 0.0000000000e+00 0.0000e+00 1.0000e+00
       13  1    1    2    0    0 -1.3441914176e+03 +1.4664056345e+03 +4.4266333504e+01 1.9897626894e+03 0.0000000000e+00 0.0000e+00 -1.0000e+00
<mgrwt>
<rscale>  0 0.39978848E+04</rscale>
<asrwt>0</asrwt>
<pdfrwt beam="1">  1        2 0.34702410E+00 0.39978848E+04</pdfrwt>
<pdfrwt beam="2">  1       -2 0.27252994E+00 0.39978848E+04</pdfrwt>
<totfact> 0.17402472E-01</totfact>
</mgrwt>
<rwgt>
<wgt id='morphing_basis_vector_1'> +1.6553589e-05 </wgt>
<wgt id='morphing_basis_vector_2'> +1.3068225e-05 </wgt>
<wgt id='morphing_basis_vector_3'> +1.8586137e-05 </wgt>
<wgt id='morphing_basis_vector_4'> +1.0707979e-05 </wgt>
<wgt id='morphing_basis_vector_5'> +1.9688676e-05 </wgt>
</rwgt>
</event>
<event>
 4      1 +4.5322000e-10 3.86992600e+03 7.81860800e-03 7.56441800e-02
        2 -1    0    0  501    0 +0.0000000000e+00 +0.0000000000e+00 +4.0360374016e+03 4.0360374016e+03 0.0000000000e+00 0.0000e+00 -1.0000e+00
       -2 -1    0    0    0  501 -0.0000000000e+00 -0.0000000000e+00 -9.2766303116e+02 9.2766303116e+02 0.0000000000e+00 0.0000e+00 1.0000e+00
      -13  1    1    2    0    0 -1.4982891231e+03 -1.0534919641e+03 +7.5383255078e+02 1.9806511882e+03 0.0000000000e+00 0.0000e+00 1.0000e+00
       13  1    1    2    0    0 +1.4982891231e+03 +1.0534919641e+03 +2.3545418197e+03 2.9830492445e+03 0.0000000000e+00 0.0000e+00 -1.0000e+00
<mgrwt>
<rscale>  0 0.38699265E+04</rscale>
<asrwt>0</asrwt>
<pdfrwt beam="1">  1        2 0.62092882E+00 0.38699265E+04</pdfrwt>
<pdfrwt beam="2">  1       -2 0.14271739E+00 0.38699265E+04</pdfrwt>
<totfact> 0.94638690E-02</totfact>
</mgrwt>
<rwgt>
<wgt id='morphing_basis_vector_1'> +1.3968149e-05 </wgt>
<wgt id='morphing_basis_vector_2'> +9.7854510e-06 </wgt>
<wgt id='morphing_basis_vector_3'> +1.5395698e-05 </wgt>
<wgt id='morphing_basis_vector_4'> +1.0611595e-05 </wgt>
<wgt id='morphing_basis_vector_5'> +1.7376272e-05 </wgt>
</rwgt>
</event>
<event>
 4      1 +4.5322000e-10 3.97464700e+03 7.81860800e-03 7.54527100e-02
        2 -1    0    0  501    0 +0.0000000000e+00 +0.0000000000e+00 +1.5447720642e+03 1.5447720642e+03 0.0000000000e+00 0.0000e+00 -1.0000e+00
       -2 -1    0    0    0  501 -0.0000000000e+00 -0.0000000000e+00 -2.5566586447e+03 2.5566586447e+03 0.0000000000e+00 0.0000e+00 1.0000e+00
      -13  1    1    2    0    0 +7.0103961479e+02 -1.8280914406e+03 -1.5437030433e+02 1.9639768449e+03 0.0000000000e+00 0.0000e+00 1.0000e+00
       13  1    1    2    0    0 -7.0103961479e+02 +1.8280914406e+03 -8.5751627614e+02 2.1374538639e+03 0.0000000000e+00 0.0000e+00 -1.0000e+00
<mgrwt>
<rscale>  0 0.39746471E+04</rscale>
<asrwt>0</asrwt>
<pdfrwt beam="1">  1        2 0.23765724E+00 0.39746471E+04</pdfrwt>
<pdfrwt beam="2">  1       -2 0.39333210E+00 0.39746471E+04</pdfrwt>
<totfact> 0.69806956E-02</totfact>
</mgrwt>
<rwgt>
<wgt id='morphing_basis_vector_1'> +1.6402007e-05 </wgt>
<wgt id='morphing_basis_vector_2'> +1.3438078e-05 </wgt>
<wgt id='morphing_basis_vector_3'> +1.8523252e-05 </wgt>
<wgt id='morphing_basis_vector_4'> +9.9778533e-06 </wgt>
<wgt id='morphing_basis_vector_5'> +1.9192516e-05 </wgt>
</rwgt>
</event>
<event>
 4      1 +4.5322000e-10 4.13994300e+03 7.81860800e-03 7.51623900e-02
        2 -1    0    0  501    0 +0.0000000000e+00 +0.0000000000e+00 +2.2028395592e+03 2.2028395592e+03 0.0000000000e+00 0.0000e+00 -1.0000e+00
       -2 -1    0    0    0  501 -0.0000000000e+00 -0.0000000000e+00 -1.9451173552e+03 1.9451173552e+03 0.0000000000e+00 0.0000e+00 1.0000e+00
      -13  1    1    2    0    0 -1.3748619613e+03 +7.5701336488e+02 -1.2233687962e+03 1.9899612707e+03 0.0000000000e+00 0.0000e+00 1.0000e+00
       13  1    1    2    0    0 +1.3748619613e+03 -7.5701336488e+02 +1.4810910002e+03 2.1579956437e+03 0.0000000000e+00 0.0000e+00 -1.0000e+00
<mgrwt>
<rscale>  0 0.41399427E+04</rscale>
<asrwt>0</asrwt>
<pdfrwt beam="1">  1        2 0.33889839E+00 0.41399427E+04</pdfrwt>
<pdfrwt beam="2">  1       -2 0.29924882E+00 0.41399427E+04</pdfrwt>
<totfact> 0.12152574E-01</totfact>
</mgrwt>
<rwgt>
<wgt id='morphing_basis_vector_1'> +1.8112908e-05 </wgt>
<wgt id='morphing_basis_vector_2'> +1.2350649e-05 </wgt>
<wgt id='morphing_basis_vector_3'> +1.9912159e-05 </wgt>
<wgt id='morphing_basis_vector_4'> +1.4245738e-05 </wgt>
<wgt id='morphing_basis_vector_5'> +2.2815332e-05 </wgt>
</rwgt>
</event>
<event>
 4      1 +4.5322000e-10 3.92183300e+03 7.81860800e-03 7.55485100e-02
        2 -1    0    0  501    0 +0.0000000000e+00 +0.0000000000e+00 +1.6730281336e+03 1.6730281336e+03 0.0000000000e+00 0.0000e+00 1.0000e+00
       -2 -1    0    0    0  501 -0.0000000000e+00 -0.0000000000e+00 -2.2983438025e+03 2.2983438025e+03 0.0000000000e+00 0.0000e+00 -1.0000e+00
      -13  1    1    2    0    0 -5.0827684159e+02 +9.2540994914e+00 +1.6051398044e+03 1.6837175469e+03 0.0000000000e+00 0.0000e+00 1.0000e+00
       13  1    1    2    0    0 +5.0827684159e+02 -9.2540994914e+00 -2.2304554733e+03 2.2876543892e+03 0.0000000000e+00 0.0000e+00 -1.0000e+00
<mgrwt>
<rscale>  0 0.39218332E+04</rscale>
<asrwt>0</asrwt>
<pdfrwt beam="1">  1        2 0.25738894E+00 0.39218332E+04</pdfrwt>
<pdfrwt beam="2">  1       -2 0.35359135E+00 0.39218332E+04</pdfrwt>
<totfact> 0.10724737E-01</totfact>
</mgrwt>
<rwgt>
<wgt id='morphing_basis_vector_1'> +1.9968013e-05 </wgt>
<wgt id='morphing_basis_vector_2'> +2.5722210e-05 </wgt>
<wgt id='morphing_basis_vector_3'> +2.4634189e-05 </wgt>
<wgt id='morphing_basis_vector_4'> +1.2197328e-07 </wgt>
<wgt id='morphing_basis_vector_5'> +1.7410634e-05 </wgt>
</rwgt>
</event>
<event>
 4      1 +4.5322000e-10 4.06977900e+03 7.81860800e-03 7.52839100e-02
        2 -1    0    0  501    0 +0.0000000000e+00 +0.0000000000e+00 +1.7809562985e+03 1.7809562985e+03 0.0000000000e+00 0.0000e+00 -1.0000e+00
       -2 -1    0    0    0  501 -0.0000000000e+00 -0.0000000000e+00 -2.3250296482e+03 2.3250296482e+03 0.0000000000e+00 0.0000e+00 1.0000e+00
      -13  1    1    2    0    0 -1.3759812236e+03 -1.4572091649e+03 -6.2729619531e+02 2.1000674738e+03 0.0000000000e+00 0.0000e+00 1.0000e+00
       13  1    1    2    0    0 +1.3759812236e+03 +1.4572091649e+03 +8.3222845570e+01 2.0059184729e+03 0.0000000000e+00 0.0000e+00 -1.0000e+00
<mgrwt>
<rscale>  0 0.40697795E+04</rscale>
<asrwt>0</asrwt>
<pdfrwt beam="1">  1        2 0.27399328E+00 0.40697795E+04</pdfrwt>
<pdfrwt beam="2">  1       -2 0.35769687E+00 0.40697795E+04</pdfrwt>
<totfact> 0.86843278E-02</totfact>
</mgrwt>
<rwgt>
<wgt id='morphing_basis_vector_1'> +1.7216038e-05 </wgt>
<wgt id='morphing_basis_vector_2'> +1.2401643e-05 </wgt>
<wgt id='morphing_basis_vector_3'> +1.9069686e-05 </wgt>
<wgt id='morphing_basis_vector_4'> +1.2676655e-05 </wgt>
<wgt id='morphing_basis_vector_5'> +2.1248690e-05 </wgt>
</rwgt>
</event>
<event>
 4      1 +4.5322000e-10 4.03085500e+03 7.81860800e-03 7.53524000e-02
        2 -1    0    0  501    0 +0.0000000000e+00 +0.0000000000e+00 +2.2276570091e+03 2.2276570091e+03 0.0000000000e+00 0.0000e+00 -1.0000e+00
       -2 -1    0    0    0  501 -0.0000000000e+00 -0.0000000000e+00 -1.8234175866e+03 1.8234175866e+03 0.0000000000e+00 0.0000e+00 1.0000e+00
      -13  1    1    2    0    0 -1.3830359345e+03 +8.0220813390e+02 -1.0310733926e+03 1.9024822278e+03 0.0000000000e+00 0.0000e+00 1.0000e+00
       13  1    1    2    0    0 +1.3830359345e+03 -8.0220813390e+02 +1.4353128151e+03 2.1485923679e+03 0.0000000000e+00 0.0000e+00 -1.0000e+00
<mgrwt>
<rscale>  0 0.40308555E+04</rscale>
<asrwt>0</asrwt>
<pdfrwt beam="1">  1        2 0.34271646E+00 0.40308555E+04</pdfrwt>
<pdfrwt beam="2">  1       -2 0.28052578E+00 0.40308555E+04</pdfrwt>
<totfact> 0.15888915E-01</totfact>
</mgrwt>
<rwgt>
<wgt id='morphing_basis_vector_1'> +1.6296176e-05 </wgt>
<wgt id='morphing_basis_vector_2'> +1.1130225e-05 </wgt>
<wgt id='morphing_basis_vector_3'> +1.7911049e-05 </wgt>
<wgt id='morphing_basis_vector_4'> +1.2775731e-05 </wgt>
<wgt id='morphing_basis_vector_5'> +2.0491867e-05 </wgt>
</rwgt>
</event>
<event>
 4      1 +4.5322000e-10 4.02836600e+03 7.81860800e-03 7.53568100e-02
        2 -1    0    0  501    0 +0.0000000000e+00 +0.0000000000e+00 +1.5885443216e+03 1.5885443216e+03 0.0000000000e+00 0.0000e+00 -1.0000e+00
       -2 -1    0    0    0  501 -0.0000000000e+00 -0.0000000000e+00 -2.5538680717e+03 2.5538680717e+03 0.0000000000e+00 0.0000e+00 1.0000e+00
      -13  1    1    2    0    0 -4.6882792450e+02 -2.3912181393e+02 -2.4819145359e+03 2.5371004372e+03 0.0000000000e+00 0.0000e+00 1.0000e+00
       13  1    1    2    0    0 +4.6882792450e+02 +2.3912181393e+02 +1.5165907858e+03 1.6053119561e+03 0.0000000000e+00 0.0000e+00 -1.0000e+00
<mgrwt>
<rscale>  0 0.40283657E+04</rscale>
<asrwt>0</asrwt>
<pdfrwt beam="1">  1        2 0.24439144E+00 0.40283657E+04</pdfrwt>
<pdfrwt beam="2">  1       -2 0.39290277E+00 0.40283657E+04</pdfrwt>
<totfact> 0.66130792E-02</totfact>
</mgrwt>
<rwgt>
<wgt id='morphing_basis_vector_1'> +1.6217465e-05 </wgt>
<wgt id='morphing_basis_vector_2'> +1.0989092e-05 </wgt>
<wgt id='morphing_basis_vector_3'> +1.7804749e-05 </wgt>
<wgt id='morphing_basis_vector_4'> +1.2825902e-05 </wgt>
<wgt id='morphing_basis_vector_5'> +2.0447860e-05 </wgt>
</rwgt>
</event>
<event>
 4      1 +4.5322000e-10 3.97557500e+03 7.81860800e-03 7.54510400e-02
        2 -1    0    0  501    0 +0.0000000000e+00 +0.0000000000e+00 +3.2547943943e+03 3.2547943943e+03 0.0000000000e+00 0.0000e+00 1.0000e+00
       -2 -1    0    0    0  501 -0.0000000000e+00 -0.0000000000e+00 -1.2139931708e+03 1.2139931708e+03 0.0000000000e+00 0.0000e+00 -1.0000e+00
      -13  1    1    2    0    0 +3.1740815873e+02 +1.7425876619e+03 +6.2893629635e+00 1.7712705199e+03 0.0000000000e+00 0.0000e+00 -1.0000e+00
       13  1    1    2    0    0 -3.1740815873e+02 -1.7425876619e+03 +2.0345118605e+03 2.6975170452e+03 0.0000000000e+00 0.0000e+00 1.0000e+00
<mgrwt>
<rscale>  0 0.39755745E+04</rscale>
<asrwt>0</asrwt>
<pdfrwt beam="1">  1        2 0.50073760E+00 0.39755745E+04</pdfrwt>
<pdfrwt beam="2">  1       -2 0.18676818E+00 0.39755745E+04</pdfrwt>
<totfact> 0.16679548E-01</totfact>
</mgrwt>
<rwgt>
<wgt id='morphing_basis_vector_1'> +1.5475181e-05 </wgt>
<wgt id='morphing_basis_vector_2'> +1.0681430e-05 </wgt>
<wgt id='morphing_basis_vector_3'> +1.7029636e-05 </wgt>
<wgt id='morphing_basis_vector_4'> +1.1979370e-05 </wgt>
<wgt id='morphing_basis_vector_5'> +1.9376461e-05 </wgt>
</rwgt>
</event>
<event>
 4      1 +4.5322000e-10 4.39465100e+03 7.81860800e-03 7.47409700e-02
        2 -1    0    0  501    0 +0.0000000000e+00 +0.0000000000e+00 +1.9068409158e+03 1.9068409158e+03 0.0000000000e+00 0.0000e+00 1.0000e+00
       -2 -1    0    0    0  501 -0.0000000000e+00 -0.0000000000e+00 -2.5320615499e+03 2.5320615499e+03 0.0000000000e+00 0.0000e+00 -1.0000e+00
      -13  1    1    2    0    0 -1.5051113290e+03 -1.5822927762e+03 -6.6791648429e+01 2.1848276057e+03 0.0000000000e+00 0.0000e+00 -1.0000e+00
       13  1    1    2    0    0 +1.5051113290e+03 +1.5822927762e+03 -5.5842898568e+02 2.2540748600e+03 0.0000000000e+00 0.0000e+00 1.0000e+00
<mgrwt>
<rscale>  0 0.43946506E+04</rscale>
<asrwt>0</asrwt>
<pdfrwt beam="1">  1        2 0.29336014E+00 0.43946506E+04</pdfrwt>
<pdfrwt beam="2">  1       -2 0.38954793E+00 0.43946506E+04</pdfrwt>
<totfact> 0.44900056E-02</totfact>
</mgrwt>
<rwgt>
<wgt id='morphing_basis_vector_1'> +2.4180049e-05 </wgt>
<wgt id='morphing_basis_vector_2'> +1.9218455e-05 </wgt>
<wgt id='morphing_basis_vector_3'> +2.7227170e-05 </wgt>
<wgt id='morphing_basis_vector_4'> +1.5547494e-05 </wgt>
<wgt id='morphing_basis_vector_5'> +2.8786225e-05 </wgt>
</rwgt>
</event>
<event>
 4      1 +4.5322000e-10 4.04055900e+03 7.81860800e-03 7.53352500e-02
        2 -1    0    0  501    0 +0.0000000000e+00 +0.0000000000e+00 +4.1650191556e+03 4.1650191556e+03 0.0000000000e+00 0.0000e+00 -1.0000e+00
       -2 -1    0    0    0  501 -0.0000000000e+00 -0.0000000000e+00 -9.7995454366e+02 9.7995454366e+02 0.0000000000e+00 0.0000e+00 1.0000e+00
      -13  1    1    2    0    0 -1.1097040462e+03 +3.5867656347e+02 -5.0805568667e+02 1.2720898271e+03 0.0000000000e+00 0.0000e+00 1.0000e+00
       13  1    1    2    0    0 +1.1097040462e+03 -3.5867656347e+02 +3.6931202986e+03 3.8728838722e+03 0.0000000000e+00 0.0000e+00 -1.0000e+00
<mgrwt>
<rscale>  0 0.40405591E+04</rscale>
<asrwt>0</asrwt>
<pdfrwt beam="1">  1        2 0.64077217E+00 0.40405591E+04</pdfrwt>
<pdfrwt beam="2">  1       -2 0.15076224E+00 0.40405591E+04</pdfrwt>
<totfact> 0.61508085E-02</totfact>
</mgrwt>
<rwgt>
<wgt id='morphing_basis_vector_1'> +1.6420329e-05 </wgt>
<wgt id='morphing_basis_vector_2'> +1.1141930e-05 </wgt>
<wgt id='morphing_basis_vector_3'> +1.8031849e-05 </wgt>
<wgt id='morphing_basis_vector_4'> +1.2968643e-05 </wgt>
<wgt id='morphing_basis_vector_5'> +2.0696612e-05 </wgt>
</rwgt>
</event>
<event>
 4      1 +4.5322000e-10 3.95561900e+03 7.81860800e-03 7.54870500e-02
        2 -1    0    0  501    0 +0.0000000000e+00 +0.0000000000e+00 +4.1569416569e+03 4.1569416569e+03 0.0000000000e+00 0.0000e+00 1.0000e+00
       -2 -1    0    0    0  501 -0.0000000000e+00 -0.0000000000e+00 -9.4101185279e+02 9.4101185279e+02 0.0000000000e+00 0.0000e+00 -1.0000e+00
      -13  1    1    2    0    0 +1.1117804764e+03 +1.2257927127e+03 +3.0038520827e+03 3.4295409222e+03 0.0000000000e+00 0.0000e+00 -1.0000e+00
       13  1    1    2    0    0 -1.1117804764e+03 -1.2257927127e+03 +2.1207772139e+02 1.6684125875e+03 0.0000000000e+00 0.0000e+00 1.0000e+00
<mgrwt>
<rscale>  0 0.39556195E+04</rscale>
<asrwt>0</asrwt>
<pdfrwt beam="1">  1        2 0.63952948E+00 0.39556195E+04</pdfrwt>
<pdfrwt beam="2">  1       -2 0.14477106E+00 0.39556195E+04</pdfrwt>
<totfact> 0.70659789E-02</totfact>
</mgrwt>
<rwgt>
<wgt id='morphing_basis_vector_1'> +1.8232344e-05 </wgt>
<wgt id='morphing_basis_vector_2'> +1.9475638e-05 </wgt>
<wgt id='morphing_basis_vector_3'> +2.1602882e-05 </wgt>
<wgt id='morphing_basis_vector_4'> +5.2615811e-06 </wgt>
<wgt id='morphing_basis_vector_5'> +1.8448937e-05 </wgt>
</rwgt>
</event>
<event>
 4      1 +4.5322000e-10 4.00543900e+03 7.81860800e-03 7.53975500e-02
        2 -1    0    0  501    0 +0.0000000000e+00 +0.0000000000e+00 +2.7482702693e+03 2.7482702693e+03 0.0000000000e+00 0.0000e+00 1.0000e+00
       -2 -1    0    0    0  501 -0.0000000000e+00 -0.0000000000e+00 -1.4594220407e+03 1.4594220407e+03 0.0000000000e+00 0.0000e+00 -1.0000e+00
      -13  1    1    2    0    0 -8.0915164568e+02 +1.7554475736e+03 +9.3977358076e+01 1.9352401177e+03 0.0000000000e+00 0.0000e+00 -1.0000e+00
       13  1    1    2    0    0 +8.0915164568e+02 -1.7554475736e+03 +1.1948708706e+03 2.2724521924e+03 0.0000000000e+00 0.0000e+00 1.0000e+00
<mgrwt>
<rscale>  0 0.40054394E+04</rscale>
<asrwt>0</asrwt>
<pdfrwt beam="1">  1        2 0.42281081E+00 0.40054394E+04</pdfrwt>
<pdfrwt beam="2">  1       -2 0.22452647E+00 0.40054394E+04</pdfrwt>
<totfact> 0.18983445E-01</totfact>
</mgrwt>
<rwgt>
<wgt id='morphing_basis_vector_1'> +1.6066702e-05 </wgt>
<wgt id='morphing_basis_vector_2'> +1.1368941e-05 </wgt>
<wgt id='morphing_basis_vector_3'> +1.7745510e-05 </wgt>
<wgt id='morphing_basis_vector_4'> +1.2083522e-05 </wgt>
<wgt id='morphing_basis_vector_5'> +1.9946461e-05 </wgt>
</rwgt>
</event>
<event>
 4      1 +4.5322000e-10 4.54668300e+03 7.81860800e-03 7.45029700e-02
        2 -1    0    0  501    0 +0.0000000000e+00 +0.0000000000e+00 +3.9216998050e+03 3.9216998050e+03 0.0000000000e+00 0.0000e+00 1.0000e+00
       -2 -1    0    0    0  501 -0.0000000000e+00 -0.0000000000e+00 -1.3178164928e+03 1.3178164928e+03 0.0000000000e+00 0.0000e+00 -1.0000e+00
      -13  1    1    2    0    0 -1.4573491797e+03 -1.7391100715e+03 +1.1401551898e+03 2.5393551010e+03 0.0000000000e+00 0.0000e+00 -1.0000e+00
       13  1    1    2    0    0 +1.4573491797e+03 +1.7391100715e+03 +1.4637281224e+03 2.7001611968e+03 0.0000000000e+00 0.0000e+00 1.0000e+00
<mgrwt>
<rscale>  0 0.45466826E+04</rscale>
<asrwt>0</asrwt>
<pdfrwt beam="1">  1        2 0.60333843E+00 0.45466826E+04</pdfrwt>
<pdfrwt beam="2">  1       -2 0.20274100E+00 0.45466826E+04</pdfrwt>
<totfact> 0.38168193E-02</totfact>
</mgrwt>
<rwgt>
<wgt id='morphing_basis_vector_1'> +2.7031415e-05 </wgt>
<wgt id='morphing_basis_vector_2'> +2.0082671e-05 </wgt>
<wgt id='morphing_basis_vector_3'> +3.0135050e-05 </wgt>
<wgt id='morphing_basis_vector_4'> +1.9218257e-05 </wgt>
<wgt id='morphing_basis_vector_5'> +3.3115477e-05 </wgt>
</rwgt>
</event>
<event>
 4      1 +4.5322000e-10 3.97506900e+03 7.81860800e-03 7.54519500e-02
        2 -1    0    0  501    0 +0.0000000000e+00 +0.0000000000e+00 +2.8984570457e+03 2.8984570457e+03 0.0000000000e+00 0.0000e+00 -1.0000e+00
       -2 -1    0    0    0  501 -0.0000000000e+00 -0.0000000000e+00 -1.3628951019e+03 1.3628951019e+03 0.0000000000e+00 0.0000e+00 1.0000e+00
      -13  1    1    2    0    0 -2.3080388137e+01 +7.4710383157e+02 -1.2064812766e+03 1.4192582254e+03 0.0000000000e+00 0.0000e+00 1.0000e+00
       13  1    1    2    0    0 +2.3080388137e+01 -7.4710383157e+02 +2.7420432205e+03 2.8420939222e+03 0.0000000000e+00 0.0000e+00 -1.0000e+00
<mgrwt>
<rscale>  0 0.39750688E+04</rscale>
<asrwt>0</asrwt>
<pdfrwt beam="1">  1        2 0.44591647E+00 0.39750688E+04</pdfrwt>
<pdfrwt beam="2">  1       -2 0.20967617E+00 0.39750688E+04</pdfrwt>
<totfact> 0.19520267E-01</totfact>
</mgrwt>
<rwgt>
<wgt id='morphing_basis_vector_1'> +1.5381004e-05 </wgt>
<wgt id='morphing_basis_vector_2'> +1.0422200e-05 </wgt>
<wgt id='morphing_basis_vector_3'> +1.6882492e-05 </wgt>
<wgt id='morphing_basis_vector_4'> +1.2155836e-05 </wgt>
<wgt id='morphing_basis_vector_5'> +1.9381763e-05 </wgt>
</rwgt>
</event>
<event>
 4      1 +4.5322000e-10 4.23642100e+03 7.81860800e-03 7.49992400e-02
        2 -1    0    0  501    0 +0.0000000000e+00 +0.0000000000e+00 +3.5253846589e+03 3.5253846589e+03 0.0000000000e+00 0.0000e+00 1.0000e+00
       -2 -1    0    0    0  501 -0.0000000000e+00 -0.0000000000e+00 -1.2727167000e+03 1.2727167000e+03 0.0000000000e+00 0.0000e+00 -1.0000e+00
      -13  1    1    2    0    0 -1.1021389259e+03 +6.3504990606e+02 +3.0446570246e+03 3.2996871053e+03 0.0000000000e+00 0.0000e+00 1.0000e+00
       13  1    1    2    0    0 +1.1021389259e+03 -6.3504990606e+02 -7.9198906574e+02 1.4984142536e+03 0.0000000000e+00 0.0000e+00 -1.0000e+00
<mgrwt>
<rscale>  0 0.42364211E+04</rscale>
<asrwt>0</asrwt>
<pdfrwt beam="1">  1        2 0.54236686E+00 0.42364211E+04</pdfrwt>
<pdfrwt beam="2">  1       -2 0.19580257E+00 0.42364211E+04</pdfrwt>
<totfact> 0.89787956E-02</totfact>
</mgrwt>
<rwgt>
<wgt id='morphing_basis_vector_1'> +2.6423544e-05 </wgt>
<wgt id='morphing_basis_vector_2'> +3.2849238e-05 </wgt>
<wgt id='morphing_basis_vector_3'> +3.2412595e-05 </wgt>
<wgt id='morphing_basis_vector_4'> +1.6979493e-06 </wgt>
<wgt id='morphing_basis_vector_5'> +2.3865387e-05 </wgt>
</rwgt>
</event>
<event>
 4      1 +4.5322000e-10 4.00391300e+03 7.81860800e-03 7.54002700e-02
        2 -1    0    0  501    0 +0.0000000000e+00 +0.0000000000e+00 +1.5943218269e+03 1.5943218269e+03 0.0000000000e+00 0.0000e+00 -1.0000e+00
       -2 -1    0    0    0  501 -0.0000000000e+00 -0.0000000000e+00 -2.5138145848e+03 2.5138145848e+03 0.0000000000e+00 0.0000e+00 1.0000e+00
      -13  1    1    2    0    0 +4.4206787522e+02 +1.8775127715e+03 -1.0097515686e+03 2.1771716615e+03 0.0000000000e+00 0.0000e+00 1.0000e+00
       13  1    1    2    0    0 -4.4206787522e+02 -1.8775127715e+03 +9.0258810719e+01 1.9309647502e+03 0.0000000000e+00 0.0000e+00 -1.0000e+00
<mgrwt>
<rscale>  0 0.40039128E+04</rscale>
<asrwt>0</asrwt>
<pdfrwt beam="1">  1        2 0.24528028E+00 0.40039128E+04</pdfrwt>
<pdfrwt beam="2">  1       -2 0.38674070E+00 0.40039128E+04</pdfrwt>
<totfact> 0.72094819E-02</totfact>
</mgrwt>
<rwgt>
<wgt id='morphing_basis_vector_1'> +1.6036996e-05 </wgt>
<wgt id='morphing_basis_vector_2'> +1.1335929e-05 </wgt>
<wgt id='morphing_basis_vector_3'> +1.7709889e-05 </wgt>
<wgt id='morphing_basis_vector_4'> +1.2076342e-05 </wgt>
<wgt id='morphing_basis_vector_5'> +1.9916863e-05 </wgt>
</rwgt>
</event>
<event>
 4      1 +4.5322000e-10 4.21069900e+03 7.81860800e-03 7.50423000e-02
        2 -1    0    0  501    0 +0.0000000000e+00 +0.0000000000e+00 +4.0498033733e+03 4.0498033733e+03 0.0000000000e+00 0.0000e+00 -1.0000e+00
       -2 -1    0    0    0  501 -0.0000000000e+00 -0.0000000000e+00 -1.0944969158e+03 1.0944969158e+03 0.0000000000e+00 0.0000e+00 1.0000e+00
      -13  1    1    2    0    0 -8.8605442502e+02 +1.6130247784e+03 +2.2841372451e+02 1.8544848906e+03 0.0000000000e+00 0.0000e+00 1.0000e+00
       13  1    1    2    0    0 +8.8605442502e+02 -1.6130247784e+03 +2.7268927330e+03 3.2898153986e+03 0.0000000000e+00 0.0000e+00 -1.0000e+00
<mgrwt>
<rscale>  0 0.42106994E+04</rscale>
<asrwt>0</asrwt>
<pdfrwt beam="1">  1        2 0.62304666E+00 0.42106994E+04</pdfrwt>
<pdfrwt beam="2">  1       -2 0.16838414E+00 0.42106994E+04</pdfrwt>
<totfact> 0.55373733E-02</totfact>
</mgrwt>
<rwgt>
<wgt id='morphing_basis_vector_1'> +1.9435673e-05 </wgt>
<wgt id='morphing_basis_vector_2'> +1.3387270e-05 </wgt>
<wgt id='morphing_basis_vector_3'> +2.1402562e-05 </wgt>
<wgt id='morphing_basis_vector_4'> +1.5125395e-05 </wgt>
<wgt id='morphing_basis_vector_5'> +2.4412724e-05 </wgt>
</rwgt>
</event>
<event>
 4      1 +4.5322000e-10 4.26251700e+03 7.81860800e-03 7.49558600e-02
        2 -1    0    0  501    0 +0.0000000000e+00 +0.0000000000e+00 +3.9718569061e+03 3.9718569061e+03 0.0000000000e+00 0.0000e+00 1.0000e+00
       -2 -1    0    0    0  501 -0.0000000000e+00 -0.0000000000e+00 -1.1436117672e+03 1.1436117672e+03 0.0000000000e+00 0.0000e+00 -1.0000e+00
      -13  1    1    2    0    0 -1.0057367916e+03 +1.0679094323e+03 +3.2695664717e+03 3.5835739091e+03 0.0000000000e+00 0.0000e+00 1.0000e+00
       13  1    1    2    0    0 +1.0057367916e+03 -1.0679094323e+03 -4.4132133274e+02 1.5318947641e+03 0.0000000000e+00 0.0000e+00 -1.0000e+00
<mgrwt>
<rscale>  0 0.42625168E+04</rscale>
<asrwt>0</asrwt>
<pdfrwt beam="1">  1        2 0.61105490E+00 0.42625168E+04</pdfrwt>
<pdfrwt beam="2">  1       -2 0.17594027E+00 0.42625168E+04</pdfrwt>
<totfact> 0.56170543E-02</totfact>
</mgrwt>
<rwgt>
<wgt id='morphing_basis_vector_1'> +2.6431540e-05 </wgt>
<wgt id='morphing_basis_vector_2'> +3.1764256e-05 </wgt>
<wgt id='morphing_basis_vector_3'> +3.2180451e-05 </wgt>
<wgt id='morphing_basis_vector_4'> +3.1102127e-06 </wgt>
<wgt id='morphing_basis_vector_5'> +2.4575652e-05 </wgt>
</rwgt>
</event>
<event>
 4      1 +4.5322000e-10 3.88931200e+03 7.81860800e-03 7.56082700e-02
        2 -1    0    0  501    0 +0.0000000000e+00 +0.0000000000e+00 +2.1749143834e+03 2.1749143834e+03 0.0000000000e+00 0.0000e+00 -1.0000e+00
       -2 -1    0    0    0  501 -0.0000000000e+00 -0.0000000000e+00 -1.7387752489e+03 1.7387752489e+03 0.0000000000e+00 0.0000e+00 1.0000e+00
      -13  1    1    2    0    0 -9.9558931528e+02 +6.6537559178e+02 -1.3237758977e+03 1.7850225181e+03 0.0000000000e+00 0.0000e+00 1.0000e+00
       13  1    1    2    0    0 +9.9558931528e+02 -6.6537559178e+02 +1.7599150322e+03 2.1286671142e+03 0.0000000000e+00 0.0000e+00 -1.0000e+00
<mgrwt>
<rscale>  0 0.38893122E+04</rscale>
<asrwt>0</asrwt>
<pdfrwt beam="1">  1        2 0.33460221E+00 0.38893122E+04</pdfrwt>
<pdfrwt beam="2">  1       -2 0.26750388E+00 0.38893122E+04</pdfrwt>
<totfact> 0.21144256E-01</totfact>
</mgrwt>
<rwgt>
<wgt id='morphing_basis_vector_1'> +1.4109823e-05 </wgt>
<wgt id='morphing_basis_vector_2'> +9.5745808e-06 </wgt>
<wgt id='morphing_basis_vector_3'> +1.5484205e-05 </wgt>
<wgt id='morphing_basis_vector_4'> +1.1120120e-05 </wgt>
<wgt id='morphing_basis_vector_5'> +1.7753337e-05 </wgt>
</rwgt>
</event>
<event>
 4      1 +4.5322000e-10 4.25266000e+03 7.81860800e-03 7.49722100e-02
        2 -1    0    0  501    0 +0.0000000000e+00 +0.0000000000e+00 +3.6638292290e+03 3.6638292290e+03 0.0000000000e+00 0.0000e+00 1.0000e+00
       -2 -1    0    0    0  501 -0.0000000000e+00 -0.0000000000e+00 -1.2340311130e+03 1.2340311130e+03 0.0000000000e+00 0.0000e+00 -1.0000e+00
      -13  1    1    2    0    0 -1.1227510223e+03 -1.6306357790e+03 +3.2149306260e+02 2.0057170018e+03 0.0000000000e+00 0.0000e+00 -1.0000e+00
       13  1    1    2    0    0 +1.1227510223e+03 +1.6306357790e+03 +2.1083050534e+03 2.8921433402e+03 0.0000000000e+00 0.0000e+00 1.0000e+00
<mgrwt>
<rscale>  0 0.42526600E+04</rscale>
<asrwt>0</asrwt>
<pdfrwt beam="1">  1        2 0.56366603E+00 0.42526600E+04</pdfrwt>
<pdfrwt beam="2">  1       -2 0.18985094E+00 0.42526600E+04</pdfrwt>
<totfact> 0.78057456E-02</totfact>
</mgrwt>
<rwgt>
<wgt id='morphing_basis_vector_1'> +2.0295028e-05 </wgt>
<wgt id='morphing_basis_vector_2'> +1.4153116e-05 </wgt>
<wgt id='morphing_basis_vector_3'> +2.2391739e-05 </wgt>
<wgt id='morphing_basis_vector_4'> +1.5577576e-05 </wgt>
<wgt id='morphing_basis_vector_5'> +2.5391377e-05 </wgt>
</rwgt>
</event>
<event>
 4      1 +4.5322000e-10 3.96013100e+03 7.81860800e-03 7.54788900e-02
        2 -1    0    0  501    0 +0.0000000000e+00 +0.0000000000e+00 +2.4472607893e+03 2.4472607893e+03 0.0000000000e+00 0.0000e+00 -1.0000e+00
       -2 -1    0    0    0  501 -0.0000000000e+00 -0.0000000000e+00 -1.6020600416e+03 1.6020600416e+03 0.0000000000e+00 0.0000e+00 1.0000e+00
      -13  1    1    2    0    0 -9.5181262257e+02 -1.7096388462e+03 +1.1271298387e+02 1.9599786911e+03 0.0000000000e+00 0.0000e+00 1.0000e+00
       13  1    1    2    0    0 +9.5181262257e+02 +1.7096388462e+03 +7.3248776376e+02 2.0893421398e+03 0.0000000000e+00 0.0000e+00 -1.0000e+00
<mgrwt>
<rscale>  0 0.39601307E+04</rscale>
<asrwt>0</asrwt>
<pdfrwt beam="1">  1        2 0.37650166E+00 0.39601307E+04</pdfrwt>
<pdfrwt beam="2">  1       -2 0.24647077E+00 0.39601307E+04</pdfrwt>
<totfact> 0.20379039E-01</totfact>
</mgrwt>
<rwgt>
<wgt id='morphing_basis_vector_1'> +1.5466437e-05 </wgt>
<wgt id='morphing_basis_vector_2'> +1.1190182e-05 </wgt>
<wgt id='morphing_basis_vector_3'> +1.7133954e-05 </wgt>
<wgt id='morphing_basis_vector_4'> +1.1309036e-05 </wgt>
<wgt id='morphing_basis_vector_5'> +1.9035289e-05 </wgt>
</rwgt>
</event>
<event>
 4      1 +4.5322000e-10 4.16219600e+03 7.81860800e-03 7.51243600e-02
        2 -1    0    0  501    0 +0.0000000000e+00 +0.0000000000e+00 +4.5025449728e+03 4.5025449728e+03 0.0000000000e+00 0.0000e+00 1.0000e+00
       -2 -1    0    0    0  501 -0.0000000000e+00 -0.0000000000e+00 -9.6189342046e+02 9.6189342046e+02 0.0000000000e+00 0.0000e+00 -1.0000e+00
      -13  1    1    2    0    0 -7.7322035923e+02 +1.5493454062e+03 +2.5475084608e+02 1.7502111031e+03 0.0000000000e+00 0.0000e+00 -1.0000e+00
       13  1    1    2    0    0 +7.7322035923e+02 -1.5493454062e+03 +3.2859007062e+03 3.7142272902e+03 0.0000000000e+00 0.0000e+00 1.0000e+00
<mgrwt>
<rscale>  0 0.41621958E+04</rscale>
<asrwt>0</asrwt>
<pdfrwt beam="1">  1        2 0.69269922E+00 0.41621958E+04</pdfrwt>
<pdfrwt beam="2">  1       -2 0.14798361E+00 0.41621958E+04</pdfrwt>
<totfact> 0.30306704E-02</totfact>
</mgrwt>
<rwgt>
<wgt id='morphing_basis_vector_1'> +1.8531627e-05 </wgt>
<wgt id='morphing_basis_vector_2'> +1.2700161e-05 </wgt>
<wgt id='morphing_basis_vector_3'> +2.0388679e-05 </wgt>
<wgt id='morphing_basis_vector_4'> +1.4496565e-05 </wgt>
<wgt id='morphing_basis_vector_5'> +2.3307201e-05 </wgt>
</rwgt>
</event>
<event>
 4      1 +4.5322000e-10 4.14486000e+03 7.81860800e-03 7.51539700e-02
        2 -1    0    0  501    0 +0.0000000000e+00 +0.0000000000e+00 +2.7649907346e+03 2.7649907346e+03 0.0000000000e+00 0.0000e+00 -1.0000e+00
       -2 -1    0    0    0  501 -0.0000000000e+00 -0.0000000000e+00 -1.5533385953e+03 1.5533385953e+03 0.0000000000e+00 0.0000e+00 1.0000e+00
      -13  1    1    2    0    0 +1.4977471997e+03 +9.1370950391e+02 -5.4345244944e+02 1.8366960272e+03 0.0000000000e+00 0.0000e+00 1.0000e+00
       13  1    1    2    0    0 -1.4977471997e+03 -9.1370950391e+02 +1.7551045887e+03 2.4816333027e+03 0.0000000000e+00 0.0000e+00 -1.0000e+00
<mgrwt>
<rscale>  0 0.41448603E+04</rscale>
<asrwt>0</asrwt>
<pdfrwt beam="1">  1        2 0.42538319E+00 0.41448603E+04</pdfrwt>
<pdfrwt beam="2">  1       -2 0.23897517E+00 0.41448603E+04</pdfrwt>
<totfact> 0.14513409E-01</totfact>
</mgrwt>
<rwgt>
<wgt id='morphing_basis_vector_1'> +1.8234369e-05 </wgt>
<wgt id='morphing_basis_vector_2'> +1.2514121e-05 </wgt>
<wgt id='morphing_basis_vector_3'> +2.0064249e-05 </wgt>
<wgt id='morphing_basis_vector_4'> +1.4238321e-05 </wgt>
<wgt id='morphing_basis_vector_5'> +2.2918133e-05 </wgt>
</rwgt>
</event>
<event>
 4      1 +4.5322000e-10 4.22568200e+03 7.81860800e-03 7.50171800e-02
        2 -1    0    0  501    0 +0.0000000000e+00 +0.0000000000e+00 +2.0901497427e+03 2.0901497427e+03 0.0000000000e+00 0.0000e+00 -1.0000e+00
       -2 -1    0    0    0  501 -0.0000000000e+00 -0.0000000000e+00 -2.1357789474e+03 2.1357789474e+03 0.0000000000e+00 0.0000e+00 1.0000e+00
      -13  1    1    2    0    0 +5.8742906406e+02 -7.2223832083e+02 -1.9196056214e+03 2.1334448292e+03 0.0000000000e+00 0.0000e+00 1.0000e+00
       13  1    1    2    0    0 -5.8742906406e+02 +7.2223832083e+02 +1.8739764167e+03 2.0924838608e+03 0.0000000000e+00 0.0000e+00 -1.0000e+00
<mgrwt>
<rscale>  0 0.42256823E+04</rscale>
<asrwt>0</asrwt>
<pdfrwt beam="1">  1        2 0.32156150E+00 0.42256823E+04</pdfrwt>
<pdfrwt beam="2">  1       -2 0.32858138E+00 0.42256823E+04</pdfrwt>
<totfact> 0.89159783E-02</totfact>
</mgrwt>
<rwgt>
<wgt id='morphing_basis_vector_1'> +1.9620056e-05 </wgt>
<wgt id='morphing_basis_vector_2'> +1.3306828e-05 </wgt>
<wgt id='morphing_basis_vector_3'> +2.1559940e-05 </wgt>
<wgt id='morphing_basis_vector_4'> +1.5538718e-05 </wgt>
<wgt id='morphing_basis_vector_5'> +2.4779976e-05 </wgt>
</rwgt>
</event>
<event>
 4      1 +4.5322000e-10 4.40631400e+03 7.81860800e-03 7.47223700e-02
        2 -1    0    0  501    0 +0.0000000000e+00 +0.0000000000e+00 +2.5756290719e+03 2.5756290719e+03 0.0000000000e+00 0.0000e+00 -1.0000e+00
       -2 -1    0    0    0  501 -0.0000000000e+00 -0.0000000000e+00 -1.8845497916e+03 1.8845497916e+03 0.0000000000e+00 0.0000e+00 1.0000e+00
      -13  1    1    2    0    0 +3.4381337070e+02 +1.1385282569e+03 -1.5317060819e+03 1.9392209123e+03 0.0000000000e+00 0.0000e+00 1.0000e+00
       13  1    1    2    0    0 -3.4381337070e+02 -1.1385282569e+03 +2.2227853621e+03 2.5209579512e+03 0.0000000000e+00 0.0000e+00 -1.0000e+00
<mgrwt>
<rscale>  0 0.44063142E+04</rscale>
<asrwt>0</asrwt>
<pdfrwt beam="1">  1        2 0.39625063E+00 0.44063142E+04</pdfrwt>
<pdfrwt beam="2">  1       -2 0.28993074E+00 0.44063142E+04</pdfrwt>
<totfact> 0.83039507E-02</totfact>
</mgrwt>
<rwgt>
<wgt id='morphing_basis_vector_1'> +2.3183197e-05 </wgt>
<wgt id='morphing_basis_vector_2'> +1.5740024e-05 </wgt>
<wgt id='morphing_basis_vector_3'> +2.5495089e-05 </wgt>
<wgt id='morphing_basis_vector_4'> +1.8374701e-05 </wgt>
<wgt id='morphing_basis_vector_5'> +2.9316646e-05 </wgt>
</rwgt>
</event>
<event>
 4      1 +4.5322000e-10 3.91936800e+03 7.81860800e-03 7.55530200e-02
        2 -1    0    0  501    0 +0.0000000000e+00 +0.0000000000e+00 +2.2380092179e+03 2.2380092179e+03 0.0000000000e+00 0.0000e+00 -1.0000e+00
       -2 -1    0    0    0  501 -0.0000000000e+00 -0.0000000000e+00 -1.7159723407e+03 1.7159723407e+03 0.0000000000e+00 0.0000e+00 1.0000e+00
      -13  1    1    2    0    0 +1.7415347216e+03 +1.7583916472e+02 +1.1499925339e+03 2.0943603860e+03 0.0000000000e+00 0.0000e+00 1.0000e+00
       13  1    1    2    0    0 -1.7415347216e+03 -1.7583916472e+02 -6.2795565674e+02 1.8596211725e+03 0.0000000000e+00 0.0000e+00 -1.0000e+00
<mgrwt>
<rscale>  0 0.39193683E+04</rscale>
<asrwt>0</asrwt>
<pdfrwt beam="1">  1        2 0.34430911E+00 0.39193683E+04</pdfrwt>
<pdfrwt beam="2">  1       -2 0.26399574E+00 0.39193683E+04</pdfrwt>
<totfact> 0.20511723E-01</totfact>
</mgrwt>
<rwgt>
<wgt id='morphing_basis_vector_1'> +1.6875590e-05 </wgt>
<wgt id='morphing_basis_vector_2'> +1.6713814e-05 </wgt>
<wgt id='morphing_basis_vector_3'> +1.9696843e-05 </wgt>
<wgt id='morphing_basis_vector_4'> +6.5518475e-06 </wgt>
<wgt id='morphing_basis_vector_5'> +1.7902030e-05 </wgt>
</rwgt>
</event>
<event>
 4      1 +4.5322000e-10 3.88692000e+03 7.81860800e-03 7.56126900e-02
        2 -1    0    0  501    0 +0.0000000000e+00 +0.0000000000e+00 +3.5853217761e+03 3.5853217761e+03 0.0000000000e+00 0.0000e+00 -1.0000e+00
       -2 -1    0    0    0  501 -0.0000000000e+00 -0.0000000000e+00 -1.0534721297e+03 1.0534721297e+03 0.0000000000e+00 0.0000e+00 1.0000e+00
      -13  1    1    2    0    0 +6.9233505369e+02 -1.2823117601e+02 -8.9589838098e+02 1.1394757435e+03 0.0000000000e+00 0.0000e+00 1.0000e+00
       13  1    1    2    0    0 -6.9233505369e+02 +1.2823117601e+02 +3.4277480274e+03 3.4993181622e+03 0.0000000000e+00 0.0000e+00 -1.0000e+00
<mgrwt>
<rscale>  0 0.38869199E+04</rscale>
<asrwt>0</asrwt>
<pdfrwt beam="1">  1        2 0.55158796E+00 0.38869199E+04</pdfrwt>
<pdfrwt beam="2">  1       -2 0.16207264E+00 0.38869199E+04</pdfrwt>
<totfact> 0.15070984E-01</totfact>
</mgrwt>
<rwgt>
<wgt id='morphing_basis_vector_1'> +1.4067970e-05 </wgt>
<wgt id='morphing_basis_vector_2'> +9.5294656e-06 </wgt>
<wgt id='morphing_basis_vector_3'> +1.5434374e-05 </wgt>
<wgt id='morphing_basis_vector_4'> +1.1108190e-05 </wgt>
<wgt id='morphing_basis_vector_5'> +1.7710763e-05 </wgt>
</rwgt>
</event>
<event>
 4      1 +4.5322000e-10 4.20388400e+03 7.81860800e-03 7.50537600e-02
        2 -1    0    0  501    0 +0.0000000000e+00 +0.0000000000e+00 +3.5430118996e+03 3.5430118996e+03 0.0000000000e+00 0.0000e+00 -1.0000e+00
       -2 -1    0    0    0  501 -0.0000000000e+00 -0.0000000000e+00 -1.2470071029e+03 1.2470071029e+03 0.0000000000e+00 0.0000e+00 1.0000e+00
      -13  1    1    2    0    0 -5.0508000517e+01 -9.9459827470e+02 -9.6113320117e+02 1.3840353379e+03 0.0000000000e+00 0.0000e+00 1.0000e+00
       13  1    1    2    0    0 +5.0508000517e+01 +9.9459827470e+02 +3.2571379979e+03 3.4059836646e+03 0.0000000000e+00 0.0000e+00 -1.0000e+00
<mgrwt>
<rscale>  0 0.42038844E+04</rscale>
<asrwt>0</asrwt>
<pdfrwt beam="1">  1        2 0.54507875E+00 0.42038844E+04</pdfrwt>
<pdfrwt beam="2">  1       -2 0.19184725E+00 0.42038844E+04</pdfrwt>
<totfact> 0.93447681E-02</totfact>
</mgrwt>
<rwgt>
<wgt id='morphing_basis_vector_1'> +1.9221058e-05 </wgt>
<wgt id='morphing_basis_vector_2'> +1.3037453e-05 </wgt>
<wgt id='morphing_basis_vector_3'> +2.1120061e-05 </wgt>
<wgt id='morphing_basis_vector_4'> +1.5217329e-05 </wgt>
<wgt id='morphing_basis_vector_5'> +2.4270215e-05 </wgt>
</rwgt>
</event>
<event>
 4      1 +4.5322000e-10 4.45471400e+03 7.81860800e-03 7.46457900e-02
        2 -1    0    0  501    0 +0.0000000000e+00 +0.0000000000e+00 +3.3826613614e+03 3.3826613614e+03 0.0000000000e+00 0.0000e+00 -1.0000e+00
       -2 -1    0    0    0  501 -0.0000000000e+00 -0.0000000000e+00 -1.4666321873e+03 1.4666321873e+03 0.0000000000e+00 0.0000e+00 1.0000e+00
      -13  1    1    2    0    0 +3.2424696435e+02 -1.1406894995e+03 +3.0104376869e+03 3.2355901617e+03 0.0000000000e+00 0.0000e+00 -1.0000e+00
       13  1    1    2    0    0 -3.2424696435e+02 +1.1406894995e+03 -1.0944085128e+03 1.6137033870e+03 0.0000000000e+00 0.0000e+00 1.0000e+00
<mgrwt>
<rscale>  0 0.44547144E+04</rscale>
<asrwt>0</asrwt>
<pdfrwt beam="1">  1        2 0.52040944E+00 0.44547144E+04</pdfrwt>
<pdfrwt beam="2">  1       -2 0.22563572E+00 0.44547144E+04</pdfrwt>
<totfact> 0.68304038E-02</totfact>
</mgrwt>
<rwgt>
<wgt id='morphing_basis_vector_1'> +3.2656068e-05 </wgt>
<wgt id='morphing_basis_vector_2'> +4.1243202e-05 </wgt>
<wgt id='morphing_basis_vector_3'> +4.0261415e-05 </wgt>
<wgt id='morphing_basis_vector_4'> +1.2723760e-06 </wgt>
<wgt id='morphing_basis_vector_5'> +2.9133020e-05 </wgt>
</rwgt>
</event>
<event>
 4      1 +4.5322000e-10 4.01857500e+03 7.81860800e-03 7.53741700e-02
        2 -1    0    0  501    0 +0.0000000000e+00 +0.0000000000e+00 +2.7203575711e+03 2.7203575711e+03 0.0000000000e+00 0.0000e+00 1.0000e+00
       -2 -1    0    0    0  501 -0.0000000000e+00 -0.0000000000e+00 -1.4840828531e+03 1.4840828531e+03 0.0000000000e+00 0.0000e+00 -1.0000e+00
      -13  1    1    2    0    0 -2.8179829702e+02 +1.3977901168e+03 -8.6296788904e+02 1.6667156531e+03 0.0000000000e+00 0.0000e+00 -1.0000e+00
       13  1    1    2    0    0 +2.8179829702e+02 -1.3977901168e+03 +2.0992426070e+03 2.5377247711e+03 0.0000000000e+00 0.0000e+00 1.0000e+00
<mgrwt>
<rscale>  0 0.40185749E+04</rscale>
<asrwt>0</asrwt>
<pdfrwt beam="1">  1        2 0.41851655E+00 0.40185749E+04</pdfrwt>
<pdfrwt beam="2">  1       -2 0.22832044E+00 0.40185749E+04</pdfrwt>
<totfact> 0.18554868E-01</totfact>
</mgrwt>
<rwgt>
<wgt id='morphing_basis_vector_1'> +1.6080600e-05 </wgt>
<wgt id='morphing_basis_vector_2'> +1.0939980e-05 </wgt>
<wgt id='morphing_basis_vector_3'> +1.7663532e-05 </wgt>
<wgt id='morphing_basis_vector_4'> +1.2659958e-05 </wgt>
<wgt id='morphing_basis_vector_5'> +2.0245398e-05 </wgt>
</rwgt>
</event>
<event>
 4      1 +4.5322000e-10 3.89782500e+03 7.81860800e-03 7.55925700e-02
        2 -1    0    0  501    0 +0.0000000000e+00 +0.0000000000e+00 +2.0362734200e+03 2.0362734200e+03 0.0000000000e+00 0.0000e+00 1.0000e+00
       -2 -1    0    0    0  501 -0.0000000000e+00 -0.0000000000e+00 -1.8652991084e+03 1.8652991084e+03 0.0000000000e+00 0.0000e+00 -1.0000e+00
      -13  1    1    2    0    0 +4.2445130529e+01 +7.7944311071e+02 -1.7019863425e+03 1.8724557837e+03 0.0000000000e+00 0.0000e+00 -1.0000e+00
       13  1    1    2    0    0 -4.2445130529e+01 -7.7944311071e+02 +1.8729606541e+03 2.0291167447e+03 0.0000000000e+00 0.0000e+00 1.0000e+00
<mgrwt>
<rscale>  0 0.38978245E+04</rscale>
<asrwt>0</asrwt>
<pdfrwt beam="1">  1        2 0.31327283E+00 0.38978245E+04</pdfrwt>
<pdfrwt beam="2">  1       -2 0.28696909E+00 0.38978245E+04</pdfrwt>
<totfact> 0.18659776E-01</totfact>
</mgrwt>
<rwgt>
<wgt id='morphing_basis_vector_1'> +1.4226032e-05 </wgt>
<wgt id='morphing_basis_vector_2'> +9.6377702e-06 </wgt>
<wgt id='morphing_basis_vector_3'> +1.5608866e-05 </wgt>
<wgt id='morphing_basis_vector_4'> +1.1233190e-05 </wgt>
<wgt id='morphing_basis_vector_5'> +1.7911332e-05 </wgt>
</rwgt>
</event>
<event>
 4      1 +4.5322000e-10 4.15197900e+03 7.81860800e-03 7.51417900e-02
        2 -1    0    0  501    0 +0.0000000000e+00 +0.0000000000e+00 +2.1672674232e+03 2.1672674232e+03 0.0000000000e+00 0.0000e+00 1.0000e+00
       -2 -1    0    0    0  501 -0.0000000000e+00 -0.0000000000e+00 -1.9885560824e+03 1.9885560824e+03 0.0000000000e+00 0.0000e+00 -1.0000e+00
      -13  1    1    2    0    0 +2.6357112663e+02 -1.2633807632e+03 -1.5382286691e+03 2.0079213456e+03 0.0000000000e+00 0.0000e+00 -1.0000e+00
       13  1    1    2    0    0 -2.6357112663e+02 +1.2633807632e+03 +1.7169400098e+03 2.1479021600e+03 0.0000000000e+00 0.0000e+00 1.0000e+00
<mgrwt>
<rscale>  0 0.41519792E+04</rscale>
<asrwt>0</asrwt>
<pdfrwt beam="1">  1        2 0.33342576E+00 0.41519792E+04</pdfrwt>
<pdfrwt beam="2">  1       -2 0.30593170E+00 0.41519792E+04</pdfrwt>
<totfact> 0.11473229E-01</totfact>
</mgrwt>
<rwgt>
<wgt id='morphing_basis_vector_1'> +1.8301488e-05 </wgt>
<wgt id='morphing_basis_vector_2'> +1.2430065e-05 </wgt>
<wgt id='morphing_basis_vector_3'> +2.0109340e-05 </wgt>
<wgt id='morphing_basis_vector_4'> +1.4459428e-05 </wgt>
<wgt id='morphing_basis_vector_5'> +2.3086944e-05 </wgt>
</rwgt>
</event>
<event>
 4      1 +4.5322000e-10 3.90225800e+03 7.81860800e-03 7.55844100e-02
        2 -1    0    0  501    0 +0.0000000000e+00 +0.0000000000e+00 +3.3921292316e+03 3.3921292316e+03 0.0000000000e+00 0.0000e+00 -1.0000e+00
       -2 -1    0    0    0  501 -0.0000000000e+00 -0.0000000000e+00 -1.1222760080e+03 1.1222760080e+03 0.0000000000e+00 0.0000e+00 1.0000e+00
      -13  1    1    2    0    0 +5.8151956541e+02 +1.7174889088e+03 +3.0152081815e+02 1.8381642910e+03 0.0000000000e+00 0.0000e+00 1.0000e+00
       13  1    1    2    0    0 -5.8151956541e+02 -1.7174889088e+03 +1.9683324055e+03 2.6762409487e+03 0.0000000000e+00 0.0000e+00 -1.0000e+00
<mgrwt>
<rscale>  0 0.39022585E+04</rscale>
<asrwt>0</asrwt>
<pdfrwt beam="1">  1        2 0.52186603E+00 0.39022585E+04</pdfrwt>
<pdfrwt beam="2">  1       -2 0.17265785E+00 0.39022585E+04</pdfrwt>
<totfact> 0.17214449E-01</totfact>
</mgrwt>
<rwgt>
<wgt id='morphing_basis_vector_1'> +1.4410396e-05 </wgt>
<wgt id='morphing_basis_vector_2'> +1.0034002e-05 </wgt>
<wgt id='morphing_basis_vector_3'> +1.5872009e-05 </wgt>
<wgt id='morphing_basis_vector_4'> +1.1031356e-05 </wgt>
<wgt id='morphing_basis_vector_5'> +1.7972314e-05 </wgt>
</rwgt>
</event>
<event>
 4      1 +4.5322000e-10 4.05918500e+03 7.81860800e-03 7.53024800e-02
        2 -1    0    0  501    0 +0.0000000000e+00 +0.0000000000e+00 +2.3360066821e+03 2.3360066821e+03 0.0000000000e+00 0.0000e+00 1.0000e+00
       -2 -1    0    0    0  501 -0.0000000000e+00 -0.0000000000e+00 -1.7633703813e+03 1.7633703813e+03 0.0000000000e+00 0.0000e+00 -1.0000e+00
      -13  1    1    2    0    0 -1.1074942948e+02 -1.7370074773e+03 -7.6794588000e+02 1.9024198503e+03 0.0000000000e+00 0.0000e+00 -1.0000e+00
       13  1    1    2    0    0 +1.1074942948e+02 +1.7370074773e+03 +1.3405821809e+03 2.1969572131e+03 0.0000000000e+00 0.0000e+00 1.0000e+00
<mgrwt>
<rscale>  0 0.40591846E+04</rscale>
<asrwt>0</asrwt>
<pdfrwt beam="1">  1        2 0.35938564E+00 0.40591846E+04</pdfrwt>
<pdfrwt beam="2">  1       -2 0.27128775E+00 0.40591846E+04</pdfrwt>
<totfact> 0.15861701E-01</totfact>
</mgrwt>
<rwgt>
<wgt id='morphing_basis_vector_1'> +1.6786121e-05 </wgt>
<wgt id='morphing_basis_vector_2'> +1.1531972e-05 </wgt>
<wgt id='morphing_basis_vector_3'> +1.8466836e-05 </wgt>
<wgt id='morphing_basis_vector_4'> +1.3078373e-05 </wgt>
<wgt id='morphing_basis_vector_5'> +2.1071734e-05 </wgt>
</rwgt>
</event>
<event>
 4      1 +4.5322000e-10 3.95493600e+03 7.81860800e-03 7.54882900e-02
        2 -1    0    0  501    0 +0.0000000000e+00 +0.0000000000e+00 +2.7790631307e+03 2.7790631307e+03 0.0000000000e+00 0.0000e+00 1.0000e+00
       -2 -1    0    0    0  501 -0.0000000000e+00 -0.0000000000e+00 -1.4070853957e+03 1.4070853957e+03 0.0000000000e+00 0.0000e+00 -1.0000e+00
      -13  1    1    2    0    0 +8.0817099249e+02 -7.3225966668e+02 -1.0600030681e+03 1.5208389385e+03 0.0000000000e+00 0.0000e+00 -1.0000e+00
       13  1    1    2    0    0 -8.0817099249e+02 +7.3225966668e+02 +2.4319808031e+03 2.6653095878e+03 0.0000000000e+00 0.0000e+00 1.0000e+00
<mgrwt>
<rscale>  0 0.39549357E+04</rscale>
<asrwt>0</asrwt>
<pdfrwt beam="1">  1        2 0.42754817E+00 0.39549357E+04</pdfrwt>
<pdfrwt beam="2">  1       -2 0.21647468E+00 0.39549357E+04</pdfrwt>
<totfact> 0.20795675E-01</totfact>
</mgrwt>
<rwgt>
<wgt id='morphing_basis_vector_1'> +1.5077484e-05 </wgt>
<wgt id='morphing_basis_vector_2'> +1.0225227e-05 </wgt>
<wgt id='morphing_basis_vector_3'> +1.6549800e-05 </wgt>
<wgt id='morphing_basis_vector_4'> +1.1901503e-05 </wgt>
<wgt id='morphing_basis_vector_5'> +1.8989398e-05 </wgt>
</rwgt>
</event>
<event>
 4      1 +4.5322000e-10 3.95164700e+03 7.81860800e-03 7.54942400e-02
        2 -1    0    0  501    0 +0.0000000000e+00 +0.0000000000e+00 +1.8776647099e+03 1.8776647099e+03 0.0000000000e+00 0.0000e+00 1.0000e+00
       -2 -1    0    0    0  501 -0.0000000000e+00 -0.0000000000e+00 -2.0791134710e+03 2.0791134710e+03 0.0000000000e+00 0.0000e+00 -1.0000e+00
      -13  1    1    2    0    0 -8.9450850866e+02 +9.1881065444e+02 -1.6058461506e+03 2.0550183333e+03 0.0000000000e+00 0.0000e+00 -1.0000e+00
       13  1    1    2    0    0 +8.9450850866e+02 -9.1881065444e+02 +1.4043973895e+03 1.9017598477e+03 0.0000000000e+00 0.0000e+00 1.0000e+00
<mgrwt>
<rscale>  0 0.39516467E+04</rscale>
<asrwt>0</asrwt>
<pdfrwt beam="1">  1        2 0.28887149E+00 0.39516467E+04</pdfrwt>
<pdfrwt beam="2">  1       -2 0.31986361E+00 0.39516467E+04</pdfrwt>
<totfact> 0.13706513E-01</totfact>
</mgrwt>
<rwgt>
<wgt id='morphing_basis_vector_1'> +1.5033944e-05 </wgt>
<wgt id='morphing_basis_vector_2'> +1.0209814e-05 </wgt>
<wgt id='morphing_basis_vector_3'> +1.6504919e-05 </wgt>
<wgt id='morphing_basis_vector_4'> +1.1848469e-05 </wgt>
<wgt id='morphing_basis_vector_5'> +1.8924882e-05 </wgt>
</rwgt>
</event>
<event>
 4      1 +4.5322000e-10 4.60469500e+03 7.81860800e-03 7.44146200e-02
        2 -1    0    0  501    0 +0.0000000000e+00 +0.0000000000e+00 +3.2636283670e+03 3.2636283670e+03 0.0000000000e+00 0.0000e+00 1.0000e+00
       -2 -1    0    0    0  501 -0.0000000000e+00 -0.0000000000e+00 -1.6242054938e+03 1.6242054938e+03 0.0000000000e+00 0.0000e+00 -1.0000e+00
      -13  1    1    2    0    0 -8.5021407817e+01 -2.3001940210e+03 +7.6473951656e+02 2.4254788604e+03 0.0000000000e+00 0.0000e+00 1.0000e+00
       13  1    1    2    0    0 +8.5021407817e+01 +2.3001940210e+03 +8.7468335668e+02 2.4623550005e+03 0.0000000000e+00 0.0000e+00 -1.0000e+00
<mgrwt>
<rscale>  0 0.46046946E+04</rscale>
<asrwt>0</asrwt>
<pdfrwt beam="1">  1        2 0.50209667E+00 0.46046946E+04</pdfrwt>
<pdfrwt beam="2">  1       -2 0.24987777E+00 0.46046946E+04</pdfrwt>
<totfact> 0.55407653E-02</totfact>
</mgrwt>
<rwgt>
<wgt id='morphing_basis_vector_1'> +2.8557629e-05 </wgt>
<wgt id='morphing_basis_vector_2'> +2.1494436e-05 </wgt>
<wgt id='morphing_basis_vector_3'> +3.1906030e-05 </wgt>
<wgt id='morphing_basis_vector_4'> +1.9954723e-05 </wgt>
<wgt id='morphing_basis_vector_5'> +3.4822508e-05 </wgt>
</rwgt>
</event>
<event>
 4      1 +4.5322000e-10 3.87879800e+03 7.81860800e-03 7.56277200e-02
        2 -1    0    0  501    0 +0.0000000000e+00 +0.0000000000e+00 +1.8249775858e+03 1.8249775858e+03 0.0000000000e+00 0.0000e+00 -1.0000e+00
       -2 -1    0    0    0  501 -0.0000000000e+00 -0.0000000000e+00 -2.0609944746e+03 2.0609944746e+03 0.0000000000e+00 0.0000e+00 1.0000e+00
      -13  1    1    2    0    0 -1.7552903248e+03 +8.0282051888e+02 -3.0731244028e+02 1.9544835241e+03 0.0000000000e+00 0.0000e+00 1.0000e+00
       13  1    1    2    0    0 +1.7552903248e+03 -8.0282051888e+02 +7.1295551449e+01 1.9314885363e+03 0.0000000000e+00 0.0000e+00 -1.0000e+00
<mgrwt>
<rscale>  0 0.38787981E+04</rscale>
<asrwt>0</asrwt>
<pdfrwt beam="1">  1        2 0.28076578E+00 0.38787981E+04</pdfrwt>
<pdfrwt beam="2">  1       -2 0.31707607E+00 0.38787981E+04</pdfrwt>
<totfact> 0.15396714E-01</totfact>
</mgrwt>
<rwgt>
<wgt id='morphing_basis_vector_1'> +1.4309235e-05 </wgt>
<wgt id='morphing_basis_vector_2'> +1.0502244e-05 </wgt>
<wgt id='morphing_basis_vector_3'> +1.5878822e-05 </wgt>
<wgt id='morphing_basis_vector_4'> +1.0259224e-05 </wgt>
<wgt id='morphing_basis_vector_5'> +1.7499514e-05 </wgt>
</rwgt>
</event>
<event>
 4      1 +4.5322000e-10 4.15023800e+03 7.81860800e-03 7.51447700e-02
        2 -1    0    0  501    0 +0.0000000000e+00 +0.0000000000e+00 +3.1275228153e+03 3.1275228153e+03 0.0000000000e+00 0.0000e+00 1.0000e+00
       -2 -1    0    0    0  501 -0.0000000000e+00 -0.0000000000e+00 -1.3768467633e+03 1.3768467633e+03 0.0000000000e+00 0.0000e+00 -1.0000e+00
      -13  1    1    2    0    0 +2.0458433315e+02 +1.9781260933e+03 +2.3207443863e+02 2.0021728536e+03 0.0000000000e+00 0.0000e+00 -1.0000e+00
       13  1    1    2    0    0 -2.0458433315e+02 -1.9781260933e+03 +1.5186016135e+03 2.5021967251e+03 0.0000000000e+00 0.0000e+00 1.0000e+00
<mgrwt>
<rscale>  0 0.41502384E+04</rscale>
<asrwt>0</asrwt>
<pdfrwt beam="1">  1        2 0.48115735E+00 0.41502384E+04</pdfrwt>
<pdfrwt beam="2">  1       -2 0.21182258E+00 0.41502384E+04</pdfrwt>
<totfact> 0.13155868E-01</totfact>
</mgrwt>
<rwgt>
<wgt id='morphing_basis_vector_1'> +1.8482640e-05 </wgt>
<wgt id='morphing_basis_vector_2'> +1.3031366e-05 </wgt>
<wgt id='morphing_basis_vector_3'> +2.0416048e-05 </wgt>
<wgt id='morphing_basis_vector_4'> +1.3986691e-05 </wgt>
<wgt id='morphing_basis_vector_5'> +2.3010669e-05 </wgt>
</rwgt>
</event>
<event>
 4      1 +4.5322000e-10 4.00769600e+03 7.81860800e-03 7.53935300e-02
        2 -1    0    0  501    0 +0.0000000000e+00 +0.0000000000e+00 +1.9033551523e+03 1.9033551523e+03 0.0000000000e+00 0.0000e+00 -1.0000e+00
       -2 -1    0    0    0  501 -0.0000000000e+00 -0.0000000000e+00 -2.1096461594e+03 2.1096461594e+03 0.0000000000e+00 0.0000e+00 1.0000e+00
      -13  1    1    2    0    0 -5.3193086744e+02 +9.0686706311e+02 -1.8112900725e+03 2.0943089659e+03 0.0000000000e+00 0.0000e+00 1.0000e+00
       13  1    1    2    0    0 +5.3193086744e+02 -9.0686706311e+02 +1.6049990654e+03 1.9186923458e+03 0.0000000000e+00 0.0000e+00 -1.0000e+00
<mgrwt>
<rscale>  0 0.40076955E+04</rscale>
<asrwt>0</asrwt>
<pdfrwt beam="1">  1        2 0.29282387E+00 0.40076955E+04</pdfrwt>
<pdfrwt beam="2">  1       -2 0.32456095E+00 0.40076955E+04</pdfrwt>
<totfact> 0.12286520E-01</totfact>
</mgrwt>
<rwgt>
<wgt id='morphing_basis_vector_1'> +1.5892801e-05 </wgt>
<wgt id='morphing_basis_vector_2'> +1.0777418e-05 </wgt>
<wgt id='morphing_basis_vector_3'> +1.7448627e-05 </wgt>
<wgt id='morphing_basis_vector_4'> +1.2555014e-05 </wgt>
<wgt id='morphing_basis_vector_5'> +2.0028665e-05 </wgt>
</rwgt>
</event>
<event>
 4      1 +4.5322000e-10 4.20591200e+03 7.81860800e-03 7.50503500e-02
        2 -1    0    0  501    0 +0.0000000000e+00 +0.0000000000e+00 +2.4632781510e+03 2.4632781510e+03 0.0000000000e+00 0.0000e+00 1.0000e+00
       -2 -1    0    0    0  501 -0.0000000000e+00 -0.0000000000e+00 -1.7953405414e+03 1.7953405414e+03 0.0000000000e+00 0.0000e+00 -1.0000e+00
      -13  1    1    2    0    0 +1.1262590278e+02 -9.7665786734e+02 -1.5483267293e+03 1.8340831073e+03 0.0000000000e+00 0.0000e+00 -1.0000e+00
       13  1    1    2    0    0 -1.1262590278e+02 +9.7665786734e+02 +2.2162643389e+03 2.4245355851e+03 0.0000000000e+00 0.0000e+00 1.0000e+00
<mgrwt>
<rscale>  0 0.42059116E+04</rscale>
<asrwt>0</asrwt>
<pdfrwt beam="1">  1        2 0.37896587E+00 0.42059116E+04</pdfrwt>
<pdfrwt beam="2">  1       -2 0.27620624E+00 0.42059116E+04</pdfrwt>
<totfact> 0.12211861E-01</totfact>
</mgrwt>
<rwgt>
<wgt id='morphing_basis_vector_1'> +1.9257802e-05 </wgt>
<wgt id='morphing_basis_vector_2'> +1.3062026e-05 </wgt>
<wgt id='morphing_basis_vector_3'> +2.1160516e-05 </wgt>
<wgt id='morphing_basis_vector_4'> +1.5247227e-05 </wgt>
<wgt id='morphing_basis_vector_5'> +2.4317307e-05 </wgt>
</rwgt>
</event>
<event>
 4      1 +4.5322000e-10 4.38735400e+03 7.81860800e-03 7.47526300e-02
        2 -1    0    0  501    0 +0.0000000000e+00 +0.0000000000e+00 +2.7099207721e+03 2.7099207721e+03 0.0000000000e+00 0.0000e+00 -1.0000e+00
       -2 -1    0    0    0  501 -0.0000000000e+00 -0.0000000000e+00 -1.7757781888e+03 1.7757781888e+03 0.0000000000e+00 0.0000e+00 1.0000e+00
      -13  1    1    2    0    0 +1.3278773818e+02 -1.7728062326e+03 -8.4693909989e+02 1.9692080542e+03 0.0000000000e+00 0.0000e+00 1.0000e+00
       13  1    1    2    0    0 -1.3278773818e+02 +1.7728062326e+03 +1.7810816831e+03 2.5164909067e+03 0.0000000000e+00 0.0000e+00 -1.0000e+00
<mgrwt>
<rscale>  0 0.43873537E+04</rscale>
<asrwt>0</asrwt>
<pdfrwt beam="1">  1        2 0.41691089E+00 0.43873537E+04</pdfrwt>
<pdfrwt beam="2">  1       -2 0.27319664E+00 0.43873537E+04</pdfrwt>
<totfact> 0.89471663E-02</totfact>
</mgrwt>
<rwgt>
<wgt id='morphing_basis_vector_1'> +2.2844525e-05 </wgt>
<wgt id='morphing_basis_vector_2'> +1.5636188e-05 </wgt>
<wgt id='morphing_basis_vector_3'> +2.5149740e-05 </wgt>
<wgt id='morphing_basis_vector_4'> +1.7940105e-05 </wgt>
<wgt id='morphing_basis_vector_5'> +2.8803300e-05 </wgt>
</rwgt>
</event>
<event>
 4      1 +4.5322000e-10 3.85821300e+03 7.81860800e-03 7.56659800e-02
        2 -1    0    0  501    0 +0.0000000000e+00 +0.0000000000e+00 +1.9780995626e+03 1.9780995626e+03 0.0000000000e+00 0.0000e+00 1.0000e+00
       -2 -1    0    0    0  501 -0.0000000000e+00 -0.0000000000e+00 -1.8813270121e+03 1.8813270121e+03 0.0000000000e+00 0.0000e+00 -1.0000e+00
      -13  1    1    2    0    0 +1.4604879707e+03 -1.1563891058e+03 -4.5296120099e+02 1.9171423333e+03 0.0000000000e+00 0.0000e+00 1.0000e+00
       13  1    1    2    0    0 -1.4604879707e+03 +1.1563891058e+03 +5.4973375157e+02 1.9422842414e+03 0.0000000000e+00 0.0000e+00 -1.0000e+00
<mgrwt>
<rscale>  0 0.38582131E+04</rscale>
<asrwt>0</asrwt>
<pdfrwt beam="1">  1        2 0.30432301E+00 0.38582131E+04</pdfrwt>
<pdfrwt beam="2">  1       -2 0.28943492E+00 0.38582131E+04</pdfrwt>
<totfact> 0.19422622E-01</totfact>
</mgrwt>
<rwgt>
<wgt id='morphing_basis_vector_1'> +1.3843926e-05 </wgt>
<wgt id='morphing_basis_vector_2'> +9.7948133e-06 </wgt>
<wgt id='morphing_basis_vector_3'> +1.5279340e-05 </wgt>
<wgt id='morphing_basis_vector_4'> +1.0391794e-05 </wgt>
<wgt id='morphing_basis_vector_5'> +1.7158153e-05 </wgt>
</rwgt>
</event>
<event>
 4      1 +4.5322000e-10 4.01287400e+03 7.81860800e-03 7.53843100e-02
        2 -1    0    0  501    0 +0.0000000000e+00 +0.0000000000e+00 +1.9951142438e+03 1.9951142438e+03 0.0000000000e+00 0.0000e+00 1.0000e+00
       -2 -1    0    0    0  501 -0.0000000000e+00 -0.0000000000e+00 -2.0178243207e+03 2.0178243207e+03 0.0000000000e+00 0.0000e+00 -1.0000e+00
      -13  1    1    2    0    0 +1.6684640261e+03 -8.6002653941e+02 +6.9743849892e+02 2.0024580682e+03 0.0000000000e+00 0.0000e+00 -1.0000e+00
       13  1    1    2    0    0 -1.6684640261e+03 +8.6002653941e+02 -7.2014857584e+02 2.0104804964e+03 0.0000000000e+00 0.0000e+00 1.0000e+00
<mgrwt>
<rscale>  0 0.40128743E+04</rscale>
<asrwt>0</asrwt>
<pdfrwt beam="1">  1        2 0.30694065E+00 0.40128743E+04</pdfrwt>
<pdfrwt beam="2">  1       -2 0.31043451E+00 0.40128743E+04</pdfrwt>
<totfact> 0.13548166E-01</totfact>
</mgrwt>
<rwgt>
<wgt id='morphing_basis_vector_1'> +1.7896930e-05 </wgt>
<wgt id='morphing_basis_vector_2'> +1.6483223e-05 </wgt>
<wgt id='morphing_basis_vector_3'> +2.0623775e-05 </wgt>
<wgt id='morphing_basis_vector_4'> +8.5538772e-06 </wgt>
<wgt id='morphing_basis_vector_5'> +1.9794077e-05 </wgt>
</rwgt>
</event>
<event>
 4      1 +4.5322000e-10 4.07311100e+03 7.81860800e-03 7.52780800e-02
        2 -1    0    0  501    0 +0.0000000000e+00 +0.0000000000e+00 +2.2485919593e+03 2.2485919593e+03 0.0000000000e+00 0.0000e+00 1.0000e+00
       -2 -1    0    0    0  501 -0.0000000000e+00 -0.0000000000e+00 -1.8445138188e+03 1.8445138188e+03 0.0000000000e+00 0.0000e+00 -1.0000e+00
      -13  1    1    2    0    0 -2.2645075253e+02 +1.4664386014e+03 -1.1997410564e+03 1.9081668473e+03 0.0000000000e+00 0.0000e+00 -1.0000e+00
       13  1    1    2    0    0 +2.2645075253e+02 -1.4664386014e+03 +1.6038191969e+03 2.1849389308e+03 0.0000000000e+00 0.0000e+00 1.0000e+00
<mgrwt>
<rscale>  0 0.40731113E+04</rscale>
<asrwt>0</asrwt>
<pdfrwt beam="1">  1        2 0.34593722E+00 0.40731113E+04</pdfrwt>
<pdfrwt beam="2">  1       -2 0.28377136E+00 0.40731113E+04</pdfrwt>
<totfact> 0.14638662E-01</totfact>
</mgrwt>
<rwgt>
<wgt id='morphing_basis_vector_1'> +1.6970250e-05 </wgt>
<wgt id='morphing_basis_vector_2'> +1.1554732e-05 </wgt>
<wgt id='morphing_basis_vector_3'> +1.8647183e-05 </wgt>
<wgt id='morphing_basis_vector_4'> +1.3357572e-05 </wgt>
<wgt id='morphing_basis_vector_5'> +2.1371975e-05 </wgt>
</rwgt>
</event>
<event>
 4      1 +4.5322000e-10 4.11864500e+03 7.81860800e-03 7.51990200e-02
        2 -1    0    0  501    0 +0.0000000000e+00 +0.0000000000e+00 +2.7633255244e+03 2.7633255244e+03 0.0000000000e+00 0.0000e+00 -1.0000e+00
       -2 -1    0    0    0  501 -0.0000000000e+00 -0.0000000000e+00 -1.5346757508e+03 1.5346757508e+03 0.0000000000e+00 0.0000e+00 1.0000e+00
      -13  1    1    2    0    0 +4.9869265632e+01 +1.4421896898e+03 -9.1880602459e+02 1.7107315850e+03 0.0000000000e+00 0.0000e+00 1.0000e+00
       13  1    1    2    0    0 -4.9869265632e+01 -1.4421896898e+03 +2.1474557982e+03 2.5872696903e+03 0.0000000000e+00 0.0000e+00 -1.0000e+00
<mgrwt>
<rscale>  0 0.41186448E+04</rscale>
<asrwt>0</asrwt>
<pdfrwt beam="1">  1        2 0.42512700E+00 0.41186448E+04</pdfrwt>
<pdfrwt beam="2">  1       -2 0.23610396E+00 0.41186448E+04</pdfrwt>
<totfact> 0.15266671E-01</totfact>
</mgrwt>
<rwgt>
<wgt id='morphing_basis_vector_1'> +1.7733038e-05 </wgt>
<wgt id='morphing_basis_vector_2'> +1.2064345e-05 </wgt>
<wgt id='morphing_basis_vector_3'> +1.9486762e-05 </wgt>
<wgt id='morphing_basis_vector_4'> +1.3978457e-05 </wgt>
<wgt id='morphing_basis_vector_5'> +2.2349380e-05 </wgt>
</rwgt>
</event>
<event>
 4      1 +4.5322000e-10 4.30296700e+03 7.81860800e-03 7.48892500e-02
        2 -1    0    0  501    0 +0.0000000000e+00 +0.0000000000e+00 +2.5399254170e+03 2.5399254170e+03 0.0000000000e+00 0.0000e+00 -1.0000e+00
       -2 -1    0    0    0  501 -0.0000000000e+00 -0.0000000000e+00 -1.8224475355e+03 1.8224475355e+03 0.0000000000e+00 0.0000e+00 1.0000e+00
      -13  1    1    2    0    0 -6.0664946974e+02 -2.8494059829e+02 -1.7139092467e+03 1.8402987881e+03 0.0000000000e+00 0.0000e+00 1.0000e+00
       13  1    1    2    0    0 +6.0664946974e+02 +2.8494059829e+02 +2.4313871282e+03 2.5220741644e+03 0.0000000000e+00 0.0000e+00 -1.0000e+00
<mgrwt>
<rscale>  0 0.43029668E+04</rscale>
<asrwt>0</asrwt>
<pdfrwt beam="1">  1        2 0.39075776E+00 0.43029668E+04</pdfrwt>
<pdfrwt beam="2">  1       -2 0.28037654E+00 0.43029668E+04</pdfrwt>
<totfact> 0.10215306E-01</totfact>
</mgrwt>
<rwgt>
<wgt id='morphing_basis_vector_1'> +2.1086414e-05 </wgt>
<wgt id='morphing_basis_vector_2'> +1.4299792e-05 </wgt>
<wgt id='morphing_basis_vector_3'> +2.3177354e-05 </wgt>
<wgt id='morphing_basis_vector_4'> +1.6716333e-05 </wgt>
<wgt id='morphing_basis_vector_5'> +2.6651922e-05 </wgt>
</rwgt>
</event>
<event>
 4      1 +4.5322000e-10 4.50305000e+03 7.81860800e-03 7.45703000e-02
        2 -1    0    0  501    0 +0.0000000000e+00 +0.0000000000e+00 +3.4601102232e+03 3.4601102232e+03 0.0000000000e+00 0.0000e+00 -1.0000e+00
       -2 -1    0    0    0  501 -0.0000000000e+00 -0.0000000000e+00 -1.4650874252e+03 1.4650874252e+03 0.0000000000e+00 0.0000e+00 1.0000e+00
      -13  1    1    2    0    0 -3.6613671779e+02 -6.2742669701e+02 -1.3333876078e+03 1.5184343479e+03 0.0000000000e+00 0.0000e+00 1.0000e+00
       13  1    1    2    0    0 +3.6613671779e+02 +6.2742669701e+02 +3.3284104058e+03 3.4067633005e+03 0.0000000000e+00 0.0000e+00 -1.0000e+00
<mgrwt>
<rscale>  0 0.45030496E+04</rscale>
<asrwt>0</asrwt>
<pdfrwt beam="1">  1        2 0.53232465E+00 0.45030496E+04</pdfrwt>
<pdfrwt beam="2">  1       -2 0.22539807E+00 0.45030496E+04</pdfrwt>
<totfact> 0.60094352E-02</totfact>
</mgrwt>
<rwgt>
<wgt id='morphing_basis_vector_1'> +2.5271144e-05 </wgt>
<wgt id='morphing_basis_vector_2'> +1.7145914e-05 </wgt>
<wgt id='morphing_basis_vector_3'> +2.7797054e-05 </wgt>
<wgt id='morphing_basis_vector_4'> +2.0063515e-05 </wgt>
<wgt id='morphing_basis_vector_5'> +3.1989446e-05 </wgt>
</rwgt>
</event>
<event>
 4      1 +4.5322000e-10 4.24528600e+03 7.81860800e-03 7.49844700e-02
        2 -1    0    0  501    0 +0.0000000000e+00 +0.0000000000e+00 +1.5398223891e+03 1.5398223891e+03 0.0000000000e+00 0.0000e+00 -1.0000e+00
       -2 -1    0    0    0  501 -0.0000000000e+00 -0.0000000000e+00 -2.9260597528e+03 2.9260597528e+03 0.0000000000e+00 0.0000e+00 1.0000e+00
      -13  1    1    2    0    0 +7.6203785974e+01 -1.2610130122e+03 -2.4875251993e+03 2.7899359224e+03 0.0000000000e+00 0.0000e+00 1.0000e+00
       13  1    1    2    0    0 -7.6203785974e+01 +1.2610130122e+03 +1.1012878355e+03 1.6759462195e+03 0.0000000000e+00 0.0000e+00 -1.0000e+00
<mgrwt>
<rscale>  0 0.42452855E+04</rscale>
<asrwt>0</asrwt>
<pdfrwt beam="1">  1        2 0.23689576E+00 0.42452855E+04</pdfrwt>
<pdfrwt beam="2">  1       -2 0.45016303E+00 0.42452855E+04</pdfrwt>
<totfact> 0.28661730E-02</totfact>
</mgrwt>
<rwgt>
<wgt id='morphing_basis_vector_1'> +1.9992272e-05 </wgt>
<wgt id='morphing_basis_vector_2'> +1.3576452e-05 </wgt>
<wgt id='morphing_basis_vector_3'> +2.1974420e-05 </wgt>
<wgt id='morphing_basis_vector_4'> +1.5814877e-05 </wgt>
<wgt id='morphing_basis_vector_5'> +2.5243786e-05 </wgt>
</rwgt>
</event>
<event>
 4      1 +4.5322000e-10 3.94054300e+03 7.81860800e-03 7.55144000e-02
        2 -1    0    0  501    0 +0.0000000000e+00 +0.0000000000e+00 +2.8089529244e+03 2.8089529244e+03 0.0000000000e+00 0.0000e+00 -1.0000e+00
       -2 -1    0    0    0  501 -0.0000000000e+00 -0.0000000000e+00 -1.3819990409e+03 1.3819990409e+03 0.0000000000e+00 0.0000e+00 1.0000e+00
      -13  1    1    2    0    0 -6.0904672353e+02 -1.4474756121e+03 -5.5203049297e+02 1.6645904074e+03 0.0000000000e+00 0.0000e+00 1.0000e+00
       13  1    1    2    0    0 +6.0904672353e+02 +1.4474756121e+03 +1.9789843765e+03 2.5263615579e+03 0.0000000000e+00 0.0000e+00 -1.0000e+00
<mgrwt>
<rscale>  0 0.39405432E+04</rscale>
<asrwt>0</asrwt>
<pdfrwt beam="1">  1        2 0.43214660E+00 0.39405432E+04</pdfrwt>
<pdfrwt beam="2">  1       -2 0.21261524E+00 0.39405432E+04</pdfrwt>
<totfact> 0.21248251E-01</totfact>
</mgrwt>
<rwgt>
<wgt id='morphing_basis_vector_1'> +1.4892131e-05 </wgt>
<wgt id='morphing_basis_vector_2'> +1.0170940e-05 </wgt>
<wgt id='morphing_basis_vector_3'> +1.6361241e-05 </wgt>
<wgt id='morphing_basis_vector_4'> +1.1661158e-05 </wgt>
<wgt id='morphing_basis_vector_5'> +1.8707498e-05 </wgt>
</rwgt>
</event>
<event>
 4      1 +4.5322000e-10 3.92390700e+03 7.81860800e-03 7.55447200e-02
        2 -1    0    0  501    0 +0.0000000000e+00 +0.0000000000e+00 +1.1926458552e+03 1.1926458552e+03 0.0000000000e+00 0.0000e+00 1.0000e+00
       -2 -1    0    0    0  501 -0.0000000000e+00 -0.0000000000e+00 -3.2274981551e+03 3.2274981551e+03 0.0000000000e+00 0.0000e+00 -1.0000e+00
      -13  1    1    2    0    0 -5.6303394982e+02 -1.0826225243e+03 -2.7480016815e+03 3.0067577222e+03 0.0000000000e+00 0.0000e+00 -1.0000e+00
       13  1    1    2    0    0 +5.6303394982e+02 +1.0826225243e+03 +7.1314938161e+02 1.4133862881e+03 0.0000000000e+00 0.0000e+00 1.0000e+00
<mgrwt>
<rscale>  0 0.39239074E+04</rscale>
<asrwt>0</asrwt>
<pdfrwt beam="1">  1        2 0.18348398E+00 0.39239074E+04</pdfrwt>
<pdfrwt beam="2">  1       -2 0.49653817E+00 0.39239074E+04</pdfrwt>
<totfact> 0.21241963E-02</totfact>
</mgrwt>
<rwgt>
<wgt id='morphing_basis_vector_1'> +1.4616241e-05 </wgt>
<wgt id='morphing_basis_vector_2'> +9.9203500e-06 </wgt>
<wgt id='morphing_basis_vector_3'> +1.6043020e-05 </wgt>
<wgt id='morphing_basis_vector_4'> +1.1522229e-05 </wgt>
<wgt id='morphing_basis_vector_5'> +1.8396790e-05 </wgt>
</rwgt>
</event>
<event>
 4      1 +4.5322000e-10 4.51289600e+03 7.81860800e-03 7.45550400e-02
        2 -1    0    0  501    0 +0.0000000000e+00 +0.0000000000e+00 +3.7064755062e+03 3.7064755062e+03 0.0000000000e+00 0.0000e+00 -1.0000e+00
       -2 -1    0    0    0  501 -0.0000000000e+00 -0.0000000000e+00 -1.3736926370e+03 1.3736926370e+03 0.0000000000e+00 0.0000e+00 1.0000e+00
      -13  1    1    2    0    0 -1.4262132871e+03 +1.0074722479e+03 -4.4240445393e+02 1.8013346084e+03 0.0000000000e+00 0.0000e+00 1.0000e+00
       13  1    1    2    0    0 +1.4262132871e+03 -1.0074722479e+03 +2.7751873232e+03 3.2788335349e+03 0.0000000000e+00 0.0000e+00 -1.0000e+00
<mgrwt>
<rscale>  0 0.45128962E+04</rscale>
<asrwt>0</asrwt>
<pdfrwt beam="1">  1        2 0.57022699E+00 0.45128962E+04</pdfrwt>
<pdfrwt beam="2">  1       -2 0.21133733E+00 0.45128962E+04</pdfrwt>
<totfact> 0.49377306E-02</totfact>
</mgrwt>
<rwgt>
<wgt id='morphing_basis_vector_1'> +2.5543399e-05 </wgt>
<wgt id='morphing_basis_vector_2'> +1.7447109e-05 </wgt>
<wgt id='morphing_basis_vector_3'> +2.8123932e-05 </wgt>
<wgt id='morphing_basis_vector_4'> +2.0131078e-05 </wgt>
<wgt id='morphing_basis_vector_5'> +3.2262136e-05 </wgt>
</rwgt>
</event>
<event>
 4      1 +4.5322000e-10 4.15977700e+03 7.81860800e-03 7.51284900e-02
        2 -1    0    0  501    0 +0.0000000000e+00 +0.0000000000e+00 +2.5409004671e+03 2.5409004671e+03 0.0000000000e+00 0.0000e+00 1.0000e+00
       -2 -1    0    0    0  501 -0.0000000000e+00 -0.0000000000e+00 -1.7025208876e+03 1.7025208876e+03 0.0000000000e+00 0.0000e+00 -1.0000e+00
      -13  1    1    2    0    0 -1.7986313701e+03 +9.1332072459e+02 -9.7660305171e+01 2.0195957731e+03 0.0000000000e+00 0.0000e+00 -1.0000e+00
       13  1    1    2    0    0 +1.7986313701e+03 -9.1332072459e+02 +9.3603988472e+02 2.2238255816e+03 0.0000000000e+00 0.0000e+00 1.0000e+00
<mgrwt>
<rscale>  0 0.41597770E+04</rscale>
<asrwt>0</asrwt>
<pdfrwt beam="1">  1        2 0.39090776E+00 0.41597770E+04</pdfrwt>
<pdfrwt beam="2">  1       -2 0.26192629E+00 0.41597770E+04</pdfrwt>
<totfact> 0.13795926E-01</totfact>
</mgrwt>
<rwgt>
<wgt id='morphing_basis_vector_1'> +1.8695112e-05 </wgt>
<wgt id='morphing_basis_vector_2'> +1.3277060e-05 </wgt>
<wgt id='morphing_basis_vector_3'> +2.0673167e-05 </wgt>
<wgt id='morphing_basis_vector_4'> +1.4025667e-05 </wgt>
<wgt id='morphing_basis_vector_5'> +2.3216360e-05 </wgt>
</rwgt>
</event>
<event>
 4      1 +4.5322000e-10 3.86120500e+03 7.81860800e-03 7.56604000e-02
        2 -1    0    0  501    0 +0.0000000000e+00 +0.0000000000e+00 +3.8320195885e+03 3.8320195885e+03 0.0000000000e+00 0.0000e+00 1.0000e+00
       -2 -1    0    0    0  501 -0.0000000000e+00 -0.0000000000e+00 -9.7265334855e+02 9.7265334855e+02 0.0000000000e+00 0.0000e+00 -1.0000e+00
      -13  1    1    2    0    0 -5.0285119908e+02 -1.0484311599e+03 -4.8804623738e+02 1.2610536687e+03 0.0000000000e+00 0.0000e+00 -1.0000e+00
       13  1    1    2    0    0 +5.0285119908e+02 +1.0484311599e+03 +3.3474124774e+03 3.5436192684e+03 0.0000000000e+00 0.0000e+00 1.0000e+00
<mgrwt>
<rscale>  0 0.38612053E+04</rscale>
<asrwt>0</asrwt>
<pdfrwt beam="1">  1        2 0.58954147E+00 0.38612053E+04</pdfrwt>
<pdfrwt beam="2">  1       -2 0.14963898E+00 0.38612053E+04</pdfrwt>
<totfact> 0.12256745E-01</totfact>
</mgrwt>
<rwgt>
<wgt id='morphing_basis_vector_1'> +1.3707696e-05 </wgt>
<wgt id='morphing_basis_vector_2'> +9.2989464e-06 </wgt>
<wgt id='morphing_basis_vector_3'> +1.5040270e-05 </wgt>
<wgt id='morphing_basis_vector_4'> +1.0802274e-05 </wgt>
<wgt id='morphing_basis_vector_5'> +1.7243182e-05 </wgt>
</rwgt>
</event>
<event>
 4      1 +4.5322000e-10 4.36979300e+03 7.81860800e-03 7.47808100e-02
        2 -1    0    0  501    0 +0.0000000000e+00 +0.0000000000e+00 +2.1668558409e+03 2.1668558409e+03 0.0000000000e+00 0.0000e+00 -1.0000e+00
       -2 -1    0    0    0  501 -0.0000000000e+00 -0.0000000000e+00 -2.2030868753e+03 2.2030868753e+03 0.0000000000e+00 0.0000e+00 1.0000e+00
      -13  1    1    2    0    0 -1.2265647108e+03 -1.7126139600e+03 -5.9801828002e+02 2.1897793106e+03 0.0000000000e+00 0.0000e+00 1.0000e+00
       13  1    1    2    0    0 +1.2265647108e+03 +1.7126139600e+03 +5.6178724556e+02 2.1801634056e+03 0.0000000000e+00 0.0000e+00 -1.0000e+00
<mgrwt>
<rscale>  0 0.43697925E+04</rscale>
<asrwt>0</asrwt>
<pdfrwt beam="1">  1        2 0.33336244E+00 0.43697925E+04</pdfrwt>
<pdfrwt beam="2">  1       -2 0.33893644E+00 0.43697925E+04</pdfrwt>
<totfact> 0.68136140E-02</totfact>
</mgrwt>
<rwgt>
<wgt id='morphing_basis_vector_1'> +2.2718090e-05 </wgt>
<wgt id='morphing_basis_vector_2'> +1.6079965e-05 </wgt>
<wgt id='morphing_basis_vector_3'> +2.5129525e-05 </wgt>
<wgt id='morphing_basis_vector_4'> +1.7153487e-05 </wgt>
<wgt id='morphing_basis_vector_5'> +2.8301248e-05 </wgt>
</rwgt>
</event>
<event>
 4      1 +4.5322000e-10 3.92459300e+03 7.81860800e-03 7.55434700e-02
        2 -1    0    0  501    0 +0.0000000000e+00 +0.0000000000e+00 +4.1088392065e+03 4.1088392065e+03 0.0000000000e+00 0.0000e+00 1.0000e+00
       -2 -1    0    0    0  501 -0.0000000000e+00 -0.0000000000e+00 -9.3715201333e+02 9.3715201333e+02 0.0000000000e+00 0.0000e+00 -1.0000e+00
      -13  1    1    2    0    0 -6.6981582876e+02 -1.4527208325e+03 +3.0470396813e+03 3.4414389259e+03 0.0000000000e+00 0.0000e+00 1.0000e+00
       13  1    1    2    0    0 +6.6981582876e+02 +1.4527208325e+03 +1.2464751183e+02 1.6045522939e+03 0.0000000000e+00 0.0000e+00 -1.0000e+00
<mgrwt>
<rscale>  0 0.39245927E+04</rscale>
<asrwt>0</asrwt>
<pdfrwt beam="1">  1        2 0.63212910E+00 0.39245927E+04</pdfrwt>
<pdfrwt beam="2">  1       -2 0.14417724E+00 0.39245927E+04</pdfrwt>
<totfact> 0.79106796E-02</totfact>
</mgrwt>
<rwgt>
<wgt id='morphing_basis_vector_1'> +1.7912834e-05 </wgt>
<wgt id='morphing_basis_vector_2'> +1.9588283e-05 </wgt>
<wgt id='morphing_basis_vector_3'> +2.1320745e-05 </wgt>
<wgt id='morphing_basis_vector_4'> +4.5842987e-06 </wgt>
<wgt id='morphing_basis_vector_5'> +1.7831408e-05 </wgt>
</rwgt>
</event>
<event>
 4      1 +4.5322000e-10 3.90702800e+03 7.81860800e-03 7.55756400e-02
        2 -1    0    0  501    0 +0.0000000000e+00 +0.0000000000e+00 +2.4306598261e+03 2.4306598261e+03 0.0000000000e+00 0.0000e+00 -1.0000e+00
       -2 -1    0    0    0  501 -0.0000000000e+00 -0.0000000000e+00 -1.5700333081e+03 1.5700333081e+03 0.0000000000e+00 0.0000e+00 1.0000e+00
      -13  1    1    2    0    0 +1.8620118795e+03 +4.6463486172e+02 +5.6537549686e+01 1.9199401784e+03 0.0000000000e+00 0.0000e+00 1.0000e+00
       13  1    1    2    0    0 -1.8620118795e+03 -4.6463486172e+02 +8.0408896827e+02 2.0807529558e+03 0.0000000000e+00 0.0000e+00 -1.0000e+00
<mgrwt>
<rscale>  0 0.39070280E+04</rscale>
<asrwt>0</asrwt>
<pdfrwt beam="1">  1        2 0.37394766E+00 0.39070280E+04</pdfrwt>
<pdfrwt beam="2">  1       -2 0.24154359E+00 0.39070280E+04</pdfrwt>
<totfact> 0.22650183E-01</totfact>
</mgrwt>
<rwgt>
<wgt id='morphing_basis_vector_1'> +1.4620677e-05 </wgt>
<wgt id='morphing_basis_vector_2'> +1.0494833e-05 </wgt>
<wgt id='morphing_basis_vector_3'> +1.6174143e-05 </wgt>
<wgt id='morphing_basis_vector_4'> +1.0789653e-05 </wgt>
<wgt id='morphing_basis_vector_5'> +1.8036160e-05 </wgt>
</rwgt>
</event>
<event>
 4      1 +4.5322000e-10 3.98903500e+03 7.81860800e-03 7.54268700e-02
        2 -1    0    0  501    0 +0.0000000000e+00 +0.0000000000e+00 +1.3017030081e+03 1.3017030081e+03 0.0000000000e+00 0.0000e+00 -1.0000e+00
       -2 -1    0    0    0  501 -0.0000000000e+00 -0.0000000000e+00 -3.0560731563e+03 3.0560731563e+03 0.0000000000e+00 0.0000e+00 1.0000e+00
      -13  1    1    2    0    0 +1.1733635797e+03 -1.2334978052e+03 -2.0123759646e+03 2.6358975603e+03 0.0000000000e+00 0.0000e+00 1.0000e+00
       13  1    1    2    0    0 -1.1733635797e+03 +1.2334978052e+03 +2.5800581640e+02 1.7218786040e+03 0.0000000000e+00 0.0000e+00 -1.0000e+00
<mgrwt>
<rscale>  0 0.39890348E+04</rscale>
<asrwt>0</asrwt>
<pdfrwt beam="1">  1        2 0.20026200E+00 0.39890348E+04</pdfrwt>
<pdfrwt beam="2">  1       -2 0.47016510E+00 0.39890348E+04</pdfrwt>
<totfact> 0.28687692E-02</totfact>
</mgrwt>
<rwgt>
<wgt id='morphing_basis_vector_1'> +1.5658724e-05 </wgt>
<wgt id='morphing_basis_vector_2'> +1.0750064e-05 </wgt>
<wgt id='morphing_basis_vector_3'> +1.7219660e-05 </wgt>
<wgt id='morphing_basis_vector_4'> +1.2198238e-05 </wgt>
<wgt id='morphing_basis_vector_5'> +1.9646122e-05 </wgt>
</rwgt>
</event>
<event>
 4      1 +4.5322000e-10 3.99311300e+03 7.81860800e-03 7.54195700e-02
        2 -1    0    0  501    0 +0.0000000000e+00 +0.0000000000e+00 +1.4280752488e+03 1.4280752488e+03 0.0000000000e+00 0.0000e+00 -1.0000e+00
       -2 -1    0    0    0  501 -0.0000000000e+00 -0.0000000000e+00 -2.7913361328e+03 2.7913361328e+03 0.0000000000e+00 0.0000e+00 1.0000e+00
      -13  1    1    2    0    0 +4.4611804612e+02 +1.5555471560e+03 -1.9172998753e+03 2.5089414257e+03 0.0000000000e+00 0.0000e+00 1.0000e+00
       13  1    1    2    0    0 -4.4611804612e+02 -1.5555471560e+03 +5.5403899134e+02 1.7104699558e+03 0.0000000000e+00 0.0000e+00 -1.0000e+00
<mgrwt>
<rscale>  0 0.39931131E+04</rscale>
<asrwt>0</asrwt>
<pdfrwt beam="1">  1        2 0.21970389E+00 0.39931131E+04</pdfrwt>
<pdfrwt beam="2">  1       -2 0.42943632E+00 0.39931131E+04</pdfrwt>
<totfact> 0.46809379E-02</totfact>
</mgrwt>
<rwgt>
<wgt id='morphing_basis_vector_1'> +1.5703118e-05 </wgt>
<wgt id='morphing_basis_vector_2'> +1.0736947e-05 </wgt>
<wgt id='morphing_basis_vector_3'> +1.7259028e-05 </wgt>
<wgt id='morphing_basis_vector_4'> +1.2289497e-05 </wgt>
<wgt id='morphing_basis_vector_5'> +1.9730410e-05 </wgt>
</rwgt>
</event>
<event>
 4      1 +4.5322000e-10 3.89173400e+03 7.81860800e-03 7.56038000e-02
        2 -1    0    0  501    0 +0.0000000000e+00 +0.0000000000e+00 +3.0328933247e+03 3.0328933247e+03 0.0000000000e+00 0.0000e+00 -1.0000e+00
       -2 -1    0    0    0  501 -0.0000000000e+00 -0.0000000000e+00 -1.2484441330e+03 1.2484441330e+03 0.0000000000e+00 0.0000e+00 1.0000e+00
      -13  1    1    2    0    0 -5.8132261729e+02 +2.9723931147e+01 -1.1504228493e+03 1.2892991234e+03 0.0000000000e+00 0.0000e+00 1.0000e+00
       13  1    1    2    0    0 +5.8132261729e+02 -2.9723931147e+01 +2.9348720409e+03 2.9920383343e+03 0.0000000000e+00 0.0000e+00 -1.0000e+00
<mgrwt>
<rscale>  0 0.38917337E+04</rscale>
<asrwt>0</asrwt>
<pdfrwt beam="1">  1        2 0.46659897E+00 0.38917337E+04</pdfrwt>
<pdfrwt beam="2">  1       -2 0.19206833E+00 0.38917337E+04</pdfrwt>
<totfact> 0.21617899E-01</totfact>
</mgrwt>
<rwgt>
<wgt id='morphing_basis_vector_1'> +1.4137015e-05 </wgt>
<wgt id='morphing_basis_vector_2'> +9.5754934e-06 </wgt>
<wgt id='morphing_basis_vector_3'> +1.5510313e-05 </wgt>
<wgt id='morphing_basis_vector_4'> +1.1164443e-05 </wgt>
<wgt id='morphing_basis_vector_5'> +1.7799196e-05 </wgt>
</rwgt>
</event>
<event>
 4      1 +4.5322000e-10 4.46483100e+03 7.81860800e-03 7.46299100e-02
        2 -1    0    0  501    0 +0.0000000000e+00 +0.0000000000e+00 +3.1432899893e+03 3.1432899893e+03 0.0000000000e+00 0.0000e+00 1.0000e+00
       -2 -1    0    0    0  501 -0.0000000000e+00 -0.0000000000e+00 -1.5854975660e+03 1.5854975660e+03 0.0000000000e+00 0.0000e+00 -1.0000e+00
      -13  1    1    2    0    0 +6.9975637498e+02 -1.7521264305e+03 -4.8499839501e+02 1.9480322010e+03 0.0000000000e+00 0.0000e+00 -1.0000e+00
       13  1    1    2    0    0 -6.9975637498e+02 +1.7521264305e+03 +2.0427908183e+03 2.7807553543e+03 0.0000000000e+00 0.0000e+00 1.0000e+00
<mgrwt>
<rscale>  0 0.44648308E+04</rscale>
<asrwt>0</asrwt>
<pdfrwt beam="1">  1        2 0.48358307E+00 0.44648308E+04</pdfrwt>
<pdfrwt beam="2">  1       -2 0.24392270E+00 0.44648308E+04</pdfrwt>
<totfact> 0.74408958E-02</totfact>
</mgrwt>
<rwgt>
<wgt id='morphing_basis_vector_1'> +2.4517589e-05 </wgt>
<wgt id='morphing_basis_vector_2'> +1.6836863e-05 </wgt>
<wgt id='morphing_basis_vector_3'> +2.7011065e-05 </wgt>
<wgt id='morphing_basis_vector_4'> +1.9197063e-05 </wgt>
<wgt id='morphing_basis_vector_5'> +3.0897017e-05 </wgt>
</rwgt>
</event>
<event>
 4      1 +4.5322000e-10 3.88985300e+03 7.81860800e-03 7.56072700e-02
        2 -1    0    0  501    0 +0.0000000000e+00 +0.0000000000e+00 +2.8925757499e+03 2.8925757499e+03 0.0000000000e+00 0.0000e+00 -1.0000e+00
       -2 -1    0    0    0  501 -0.0000000000e+00 -0.0000000000e+00 -1.3077404231e+03 1.3077404231e+03 0.0000000000e+00 0.0000e+00 1.0000e+00
      -13  1    1    2    0    0 -1.3002508203e+03 -6.7795031053e+02 -5.8724009992e+02 1.5795948069e+03 0.0000000000e+00 0.0000e+00 1.0000e+00
       13  1    1    2    0    0 +1.3002508203e+03 +6.7795031053e+02 +2.1720754267e+03 2.6207213660e+03 0.0000000000e+00 0.0000e+00 -1.0000e+00
<mgrwt>
<rscale>  0 0.38898526E+04</rscale>
<asrwt>0</asrwt>
<pdfrwt beam="1">  1        2 0.44501165E+00 0.38898526E+04</pdfrwt>
<pdfrwt beam="2">  1       -2 0.20119084E+00 0.38898526E+04</pdfrwt>
<totfact> 0.22838046E-01</totfact>
</mgrwt>
<rwgt>
<wgt id='morphing_basis_vector_1'> +1.4134111e-05 </wgt>
<wgt id='morphing_basis_vector_2'> +9.6283595e-06 </wgt>
<wgt id='morphing_basis_vector_3'> +1.5519214e-05 </wgt>
<wgt id='morphing_basis_vector_4'> +1.1091501e-05 </wgt>
<wgt id='morphing_basis_vector_5'> +1.7760359e-05 </wgt>
</rwgt>
</event>
<event>
 4      1 +4.5322000e-10 4.44880100e+03 7.81860800e-03 7.46551000e-02
        2 -1    0    0  501    0 +0.0000000000e+00 +0.0000000000e+00 +3.7942831745e+03 3.7942831745e+03 0.0000000000e+00 0.0000e+00 1.0000e+00
       -2 -1    0    0    0  501 -0.0000000000e+00 -0.0000000000e+00 -1.3040561720e+03 1.3040561720e+03 0.0000000000e+00 0.0000e+00 -1.0000e+00
      -13  1    1    2    0    0 -1.7638857841e+03 -1.2383086773e+03 +1.8762032226e+03 2.8574184104e+03 0.0000000000e+00 0.0000e+00 1.0000e+00
       13  1    1    2    0    0 +1.7638857841e+03 +1.2383086773e+03 +6.1402377998e+02 2.2409209361e+03 0.0000000000e+00 0.0000e+00 -1.0000e+00
<mgrwt>
<rscale>  0 0.44488014E+04</rscale>
<asrwt>0</asrwt>
<pdfrwt beam="1">  1        2 0.58373587E+00 0.44488014E+04</pdfrwt>
<pdfrwt beam="2">  1       -2 0.20062403E+00 0.44488014E+04</pdfrwt>
<totfact> 0.50598691E-02</totfact>
</mgrwt>
<rwgt>
<wgt id='morphing_basis_vector_1'> +2.6154858e-05 </wgt>
<wgt id='morphing_basis_vector_2'> +2.2431606e-05 </wgt>
<wgt id='morphing_basis_vector_3'> +2.9831241e-05 </wgt>
<wgt id='morphing_basis_vector_4'> +1.4704596e-05 </wgt>
<wgt id='morphing_basis_vector_5'> +3.0101439e-05 </wgt>
</rwgt>
</event>
<event>
 4      1 +4.5322000e-10 3.96955700e+03 7.81860800e-03 7.54618800e-02
        2 -1    0    0  501    0 +0.0000000000e+00 +0.0000000000e+00 +2.1297675364e+03 2.1297675364e+03 0.0000000000e+00 0.0000e+00 -1.0000e+00
       -2 -1    0    0    0  501 -0.0000000000e+00 -0.0000000000e+00 -1.8496599688e+03 1.8496599688e+03 0.0000000000e+00 0.0000e+00 1.0000e+00
      -13  1    1    2    0    0 -1.4352048048e+03 -1.2756602135e+03 -3.6341402424e+02 1.9542752020e+03 0.0000000000e+00 0.0000e+00 1.0000e+00
       13  1    1    2    0    0 +1.4352048048e+03 +1.2756602135e+03 +6.4352159184e+02 2.0251523032e+03 0.0000000000e+00 0.0000e+00 -1.0000e+00
<mgrwt>
<rscale>  0 0.39695570E+04</rscale>
<asrwt>0</asrwt>
<pdfrwt beam="1">  1        2 0.32765654E+00 0.39695570E+04</pdfrwt>
<pdfrwt beam="2">  1       -2 0.28456307E+00 0.39695570E+04</pdfrwt>
<totfact> 0.17051756E-01</totfact>
</mgrwt>
<rwgt>
<wgt id='morphing_basis_vector_1'> +1.5508981e-05 </wgt>
<wgt id='morphing_basis_vector_2'> +1.0989761e-05 </wgt>
<wgt id='morphing_basis_vector_3'> +1.7130134e-05 </wgt>
<wgt id='morphing_basis_vector_4'> +1.1638536e-05 </wgt>
<wgt id='morphing_basis_vector_5'> +1.9236495e-05 </wgt>
</rwgt>
</event>
<event>
 4      1 +4.5322000e-10 4.10344700e+03 7.81860800e-03 7.52252900e-02
        2 -1    0    0  501    0 +0.0000000000e+00 +0.0000000000e+00 +2.1256178277e+03 2.1256178277e+03 0.0000000000e+00 0.0000e+00 -1.0000e+00
       -2 -1    0    0    0  501 -0.0000000000e+00 -0.0000000000e+00 -1.9803980719e+03 1.9803980719e+03 0.0000000000e+00 0.0000e+00 1.0000e+00
      -13  1    1    2    0    0 +1.4425338673e+03 +1.2822673953e+03 +7.6907420842e+02 2.0776401925e+03 0.0000000000e+00 0.0000e+00 1.0000e+00
       13  1    1    2    0    0 -1.4425338673e+03 -1.2822673953e+03 -6.2385445261e+02 2.0283757071e+03 0.0000000000e+00 0.0000e+00 -1.0000e+00
<mgrwt>
<rscale>  0 0.41034471E+04</rscale>
<asrwt>0</asrwt>
<pdfrwt beam="1">  1        2 0.32701813E+00 0.41034471E+04</pdfrwt>
<pdfrwt beam="2">  1       -2 0.30467663E+00 0.41034471E+04</pdfrwt>
<totfact> 0.12403118E-01</totfact>
</mgrwt>
<rwgt>
<wgt id='morphing_basis_vector_1'> +1.9470226e-05 </wgt>
<wgt id='morphing_basis_vector_2'> +1.7754515e-05 </wgt>
<wgt id='morphing_basis_vector_3'> +2.2408762e-05 </wgt>
<wgt id='morphing_basis_vector_4'> +9.5456462e-06 </wgt>
<wgt id='morphing_basis_vector_5'> +2.1667356e-05 </wgt>
</rwgt>
</event>
<event>
 4      1 +4.5322000e-10 4.35842700e+03 7.81860800e-03 7.47991100e-02
        2 -1    0    0  501    0 +0.0000000000e+00 +0.0000000000e+00 +3.5376343139e+03 3.5376343139e+03 0.0000000000e+00 0.0000e+00 -1.0000e+00
       -2 -1    0    0    0  501 -0.0000000000e+00 -0.0000000000e+00 -1.3424141952e+03 1.3424141952e+03 0.0000000000e+00 0.0000e+00 1.0000e+00
      -13  1    1    2    0    0 -1.4035498866e+03 -3.8967107618e+02 -7.1723219464e+02 1.6236433884e+03 0.0000000000e+00 0.0000e+00 1.0000e+00
       13  1    1    2    0    0 +1.4035498866e+03 +3.8967107618e+02 +2.9124523134e+03 3.2564051206e+03 0.0000000000e+00 0.0000e+00 -1.0000e+00
<mgrwt>
<rscale>  0 0.43584266E+04</rscale>
<asrwt>0</asrwt>
<pdfrwt beam="1">  1        2 0.54425143E+00 0.43584266E+04</pdfrwt>
<pdfrwt beam="2">  1       -2 0.20652526E+00 0.43584266E+04</pdfrwt>
<totfact> 0.72744276E-02</totfact>
</mgrwt>
<rwgt>
<wgt id='morphing_basis_vector_1'> +2.2208675e-05 </wgt>
<wgt id='morphing_basis_vector_2'> +1.5105681e-05 </wgt>
<wgt id='morphing_basis_vector_3'> +2.4425713e-05 </wgt>
<wgt id='morphing_basis_vector_4'> +1.7558504e-05 </wgt>
<wgt id='morphing_basis_vector_5'> +2.8055480e-05 </wgt>
</rwgt>
</event>
<event>
 4      1 +4.5322000e-10 4.10726900e+03 7.81860800e-03 7.52186700e-02
        2 -1    0    0  501    0 +0.0000000000e+00 +0.0000000000e+00 +3.5324668493e+03 3.5324668493e+03 0.0000000000e+00 0.0000e+00 1.0000e+00
       -2 -1    0    0    0  501 -0.0000000000e+00 -0.0000000000e+00 -1.1939006589e+03 1.1939006589e+03 0.0000000000e+00 0.0000e+00 -1.0000e+00
      -13  1    1    2    0    0 -1.6473928883e+03 -4.7360504647e+02 -1.3221990982e+02 1.7192112067e+03 0.0000000000e+00 0.0000e+00 -1.0000e+00
       13  1    1    2    0    0 +1.6473928883e+03 +4.7360504647e+02 +2.4707861002e+03 3.0071563015e+03 0.0000000000e+00 0.0000e+00 1.0000e+00
<mgrwt>
<rscale>  0 0.41072689E+04</rscale>
<asrwt>0</asrwt>
<pdfrwt beam="1">  1        2 0.54345643E+00 0.41072689E+04</pdfrwt>
<pdfrwt beam="2">  1       -2 0.18367703E+00 0.41072689E+04</pdfrwt>
<totfact> 0.11036761E-01</totfact>
</mgrwt>
<rwgt>
<wgt id='morphing_basis_vector_1'> +1.7578413e-05 </wgt>
<wgt id='morphing_basis_vector_2'> +1.2048072e-05 </wgt>
<wgt id='morphing_basis_vector_3'> +1.9335972e-05 </wgt>
<wgt id='morphing_basis_vector_4'> +1.3740235e-05 </wgt>
<wgt id='morphing_basis_vector_5'> +2.2095353e-05 </wgt>
</rwgt>
</event>
<event>
 4      1 +4.5322000e-10 3.90073300e+03 7.81860800e-03 7.55872200e-02
        2 -1    0    0  501    0 +0.0000000000e+00 +0.0000000000e+00 +3.0675621608e+03 3.0675621608e+03 0.0000000000e+00 0.0000e+00 1.0000e+00
       -2 -1    0    0    0  501 -0.0000000000e+00 -0.0000000000e+00 -1.2400495490e+03 1.2400495490e+03 0.0000000000e+00 0.0000e+00 -1.0000e+00
      -13  1    1    2    0    0 -2.5627004597e+02 +1.3714330989e+03 -5.9127698752e+02 1.5152925649e+03 0.0000000000e+00 0.0000e+00 -1.0000e+00
       13  1    1    2    0    0 +2.5627004597e+02 -1.3714330989e+03 +2.4187895993e+03 2.7923191449e+03 0.0000000000e+00 0.0000e+00 1.0000e+00
<mgrwt>
<rscale>  0 0.39007328E+04</rscale>
<asrwt>0</asrwt>
<pdfrwt beam="1">  1        2 0.47193264E+00 0.39007328E+04</pdfrwt>
<pdfrwt beam="2">  1       -2 0.19077685E+00 0.39007328E+04</pdfrwt>
<totfact> 0.20953564E-01</totfact>
</mgrwt>
<rwgt>
<wgt id='morphing_basis_vector_1'> +1.4285447e-05 </wgt>
<wgt id='morphing_basis_vector_2'> +9.7168900e-06 </wgt>
<wgt id='morphing_basis_vector_3'> +1.5682941e-05 </wgt>
<wgt id='morphing_basis_vector_4'> +1.1230710e-05 </wgt>
<wgt id='morphing_basis_vector_5'> +1.7962114e-05 </wgt>
</rwgt>
</event>
<event>
 4      1 +4.5322000e-10 4.11669300e+03 7.81860800e-03 7.52023900e-02
        2 -1    0    0  501    0 +0.0000000000e+00 +0.0000000000e+00 +2.7813411057e+03 2.7813411057e+03 0.0000000000e+00 0.0000e+00 -1.0000e+00
       -2 -1    0    0    0  501 -0.0000000000e+00 -0.0000000000e+00 -1.5232903199e+03 1.5232903199e+03 0.0000000000e+00 0.0000e+00 1.0000e+00
      -13  1    1    2    0    0 +7.4043750088e+02 +1.1618135265e+03 -9.7008225973e+02 1.6849682352e+03 0.0000000000e+00 0.0000e+00 1.0000e+00
       13  1    1    2    0    0 -7.4043750088e+02 -1.1618135265e+03 +2.2281330455e+03 2.6196631905e+03 0.0000000000e+00 0.0000e+00 -1.0000e+00
<mgrwt>
<rscale>  0 0.41166928E+04</rscale>
<asrwt>0</asrwt>
<pdfrwt beam="1">  1        2 0.42789863E+00 0.41166928E+04</pdfrwt>
<pdfrwt beam="2">  1       -2 0.23435236E+00 0.41166928E+04</pdfrwt>
<totfact> 0.15303451E-01</totfact>
</mgrwt>
<rwgt>
<wgt id='morphing_basis_vector_1'> +1.7695135e-05 </wgt>
<wgt id='morphing_basis_vector_2'> +1.2028390e-05 </wgt>
<wgt id='morphing_basis_vector_3'> +1.9442670e-05 </wgt>
<wgt id='morphing_basis_vector_4'> +1.3961328e-05 </wgt>
<wgt id='morphing_basis_vector_5'> +2.2307634e-05 </wgt>
</rwgt>
</event>
<event>
 4      1 +4.5322000e-10 3.93250300e+03 7.81860800e-03 7.55290300e-02
        2 -1    0    0  501    0 +0.0000000000e+00 +0.0000000000e+00 +2.6798971875e+03 2.6798971875e+03 0.0000000000e+00 0.0000e+00 1.0000e+00
       -2 -1    0    0    0  501 -0.0000000000e+00 -0.0000000000e+00 -1.4426467361e+03 1.4426467361e+03 0.0000000000e+00 0.0000e+00 -1.0000e+00
      -13  1    1    2    0    0 -1.0526399647e+03 -9.5374963099e+02 -8.0665661304e+02 1.6335189455e+03 0.0000000000e+00 0.0000e+00 -1.0000e+00
       13  1    1    2    0    0 +1.0526399647e+03 +9.5374963099e+02 +2.0439070645e+03 2.4890249782e+03 0.0000000000e+00 0.0000e+00 1.0000e+00
<mgrwt>
<rscale>  0 0.39325030E+04</rscale>
<asrwt>0</asrwt>
<pdfrwt beam="1">  1        2 0.41229187E+00 0.39325030E+04</pdfrwt>
<pdfrwt beam="2">  1       -2 0.22194565E+00 0.39325030E+04</pdfrwt>
<totfact> 0.21950637E-01</totfact>
</mgrwt>
<rwgt>
<wgt id='morphing_basis_vector_1'> +1.4755101e-05 </wgt>
<wgt id='morphing_basis_vector_2'> +1.0039865e-05 </wgt>
<wgt id='morphing_basis_vector_3'> +1.6201719e-05 </wgt>
<wgt id='morphing_basis_vector_4'> +1.1600673e-05 </wgt>
<wgt id='morphing_basis_vector_5'> +1.8557409e-05 </wgt>
</rwgt>
</event>
<event>
 4      1 +4.5322000e-10 3.94781500e+03 7.81860800e-03 7.55011900e-02
        2 -1    0    0  501    0 +0.0000000000e+00 +0.0000000000e+00 +2.3219775405e+03 2.3219775405e+03 0.0000000000e+00 0.0000e+00 1.0000e+00
       -2 -1    0    0    0  501 -0.0000000000e+00 -0.0000000000e+00 -1.6780139455e+03 1.6780139455e+03 0.0000000000e+00 0.0000e+00 -1.0000e+00
      -13  1    1    2    0    0 +1.2303236709e+03 +3.4849879441e+01 -1.2415922076e+03 1.7482740229e+03 0.0000000000e+00 0.0000e+00 -1.0000e+00
       13  1    1    2    0    0 -1.2303236709e+03 -3.4849879441e+01 +1.8855558026e+03 2.2517174632e+03 0.0000000000e+00 0.0000e+00 1.0000e+00
<mgrwt>
<rscale>  0 0.39478149E+04</rscale>
<asrwt>0</asrwt>
<pdfrwt beam="1">  1        2 0.35722732E+00 0.39478149E+04</pdfrwt>
<pdfrwt beam="2">  1       -2 0.25815599E+00 0.39478149E+04</pdfrwt>
<totfact> 0.20066681E-01</totfact>
</mgrwt>
<rwgt>
<wgt id='morphing_basis_vector_1'> +1.4973916e-05 </wgt>
<wgt id='morphing_basis_vector_2'> +1.0164163e-05 </wgt>
<wgt id='morphing_basis_vector_3'> +1.6437641e-05 </wgt>
<wgt id='morphing_basis_vector_4'> +1.1806804e-05 </wgt>
<wgt id='morphing_basis_vector_5'> +1.8851583e-05 </wgt>
</rwgt>
</event>
<event>
 4      1 +4.5322000e-10 4.08428600e+03 7.81860800e-03 7.52585800e-02
        2 -1    0    0  501    0 +0.0000000000e+00 +0.0000000000e+00 +2.4029930191e+03 2.4029930191e+03 0.0000000000e+00 0.0000e+00 -1.0000e+00
       -2 -1    0    0    0  501 -0.0000000000e+00 -0.0000000000e+00 -1.7354807837e+03 1.7354807837e+03 0.0000000000e+00 0.0000e+00 1.0000e+00
      -13  1    1    2    0    0 -1.7515594364e+03 +6.3004388905e+02 -5.1728740607e+02 1.9319684319e+03 0.0000000000e+00 0.0000e+00 1.0000e+00
       13  1    1    2    0    0 +1.7515594364e+03 -6.3004388905e+02 +1.1847996414e+03 2.2065053709e+03 0.0000000000e+00 0.0000e+00 -1.0000e+00
<mgrwt>
<rscale>  0 0.40842861E+04</rscale>
<asrwt>0</asrwt>
<pdfrwt beam="1">  1        2 0.36969124E+00 0.40842861E+04</pdfrwt>
<pdfrwt beam="2">  1       -2 0.26699704E+00 0.40842861E+04</pdfrwt>
<totfact> 0.15474713E-01</totfact>
</mgrwt>
<rwgt>
<wgt id='morphing_basis_vector_1'> +1.7251408e-05 </wgt>
<wgt id='morphing_basis_vector_2'> +1.1961260e-05 </wgt>
<wgt id='morphing_basis_vector_3'> +1.9005354e-05 </wgt>
<wgt id='morphing_basis_vector_4'> +1.3304168e-05 </wgt>
<wgt id='morphing_basis_vector_5'> +2.1591830e-05 </wgt>
</rwgt>
</event>
<event>
 4      1 +4.5322000e-10 3.87767100e+03 7.81860800e-03 7.56298100e-02
        2 -1    0    0  501    0 +0.0000000000e+00 +0.0000000000e+00 +2.2085533885e+03 2.2085533885e+03 0.0000000000e+00 0.0000e+00 -1.0000e+00
       -2 -1    0    0    0  501 -0.0000000000e+00 -0.0000000000e+00 -1.7020563083e+03 1.7020563083e+03 0.0000000000e+00 0.0000e+00 1.0000e+00
      -13  1    1    2    0    0 +3.1035303308e+02 +5.8925601038e+02 -1.5830814963e+03 1.7174657711e+03 0.0000000000e+00 0.0000e+00 1.0000e+00
       13  1    1    2    0    0 -3.1035303308e+02 -5.8925601038e+02 +2.0895785766e+03 2.1931439257e+03 0.0000000000e+00 0.0000e+00 -1.0000e+00
<mgrwt>
<rscale>  0 0.38776706E+04</rscale>
<asrwt>0</asrwt>
<pdfrwt beam="1">  1        2 0.33977744E+00 0.38776706E+04</pdfrwt>
<pdfrwt beam="2">  1       -2 0.26185482E+00 0.38776706E+04</pdfrwt>
<totfact> 0.22135045E-01</totfact>
</mgrwt>
<rwgt>
<wgt id='morphing_basis_vector_1'> +1.3935121e-05 </wgt>
<wgt id='morphing_basis_vector_2'> +9.4388563e-06 </wgt>
<wgt id='morphing_basis_vector_3'> +1.5287812e-05 </wgt>
<wgt id='morphing_basis_vector_4'> +1.1002598e-05 </wgt>
<wgt id='morphing_basis_vector_5'> +1.7541929e-05 </wgt>
</rwgt>
</event>
<event>
 4      1 +4.5322000e-10 4.11370000e+03 7.81860800e-03 7.52075600e-02
        2 -1    0    0  501    0 +0.0000000000e+00 +0.0000000000e+00 +1.6109799678e+03 1.6109799678e+03 0.0000000000e+00 0.0000e+00 -1.0000e+00
       -2 -1    0    0    0  501 -0.0000000000e+00 -0.0000000000e+00 -2.6261231056e+03 2.6261231056e+03 0.0000000000e+00 0.0000e+00 1.0000e+00
      -13  1    1    2    0    0 +8.4770090320e+02 -1.4661564512e+01 -2.4377725972e+03 2.5809972914e+03 0.0000000000e+00 0.0000e+00 1.0000e+00
       13  1    1    2    0    0 -8.4770090320e+02 +1.4661564512e+01 +1.4226294593e+03 1.6561057821e+03 0.0000000000e+00 0.0000e+00 -1.0000e+00
<mgrwt>
<rscale>  0 0.41136999E+04</rscale>
<asrwt>0</asrwt>
<pdfrwt beam="1">  1        2 0.24784308E+00 0.41136999E+04</pdfrwt>
<pdfrwt beam="2">  1       -2 0.40401893E+00 0.41136999E+04</pdfrwt>
<totfact> 0.54007934E-02</totfact>
</mgrwt>
<rwgt>
<wgt id='morphing_basis_vector_1'> +1.7629921e-05 </wgt>
<wgt id='morphing_basis_vector_2'> +1.1952195e-05 </wgt>
<wgt id='morphing_basis_vector_3'> +1.9363611e-05 </wgt>
<wgt id='morphing_basis_vector_4'> +1.3950357e-05 </wgt>
<wgt id='morphing_basis_vector_5'> +2.2245012e-05 </wgt>
</rwgt>
</event>
<event>
 4      1 +4.5322000e-10 3.87008400e+03 7.81860800e-03 7.56438800e-02
        2 -1    0    0  501    0 +0.0000000000e+00 +0.0000000000e+00 +2.4047993668e+03 2.4047993668e+03 0.0000000000e+00 0.0000e+00 -1.0000e+00
       -2 -1    0    0    0  501 -0.0000000000e+00 -0.0000000000e+00 -1.5570477127e+03 1.5570477127e+03 0.0000000000e+00 0.0000e+00 1.0000e+00
      -13  1    1    2    0    0 +1.1502865378e+03 -1.4527702715e+03 -1.4673329439e+02 1.8588252313e+03 0.0000000000e+00 0.0000e+00 1.0000e+00
       13  1    1    2    0    0 -1.1502865378e+03 +1.4527702715e+03 +9.9448494845e+02 2.1030218481e+03 0.0000000000e+00 0.0000e+00 -1.0000e+00
<mgrwt>
<rscale>  0 0.38700839E+04</rscale>
<asrwt>0</asrwt>
<pdfrwt beam="1">  1        2 0.36996913E+00 0.38700839E+04</pdfrwt>
<pdfrwt beam="2">  1       -2 0.23954580E+00 0.38700839E+04</pdfrwt>
<totfact> 0.24295699E-01</totfact>
</mgrwt>
<rwgt>
<wgt id='morphing_basis_vector_1'> +1.3993262e-05 </wgt>
<wgt id='morphing_basis_vector_2'> +9.8542221e-06 </wgt>
<wgt id='morphing_basis_vector_3'> +1.5434789e-05 </wgt>
<wgt id='morphing_basis_vector_4'> +1.0565061e-05 </wgt>
<wgt id='morphing_basis_vector_5'> +1.7375098e-05 </wgt>
</rwgt>
</event>
<event>
 4      1 +4.5322000e-10 4.25161300e+03 7.81860800e-03 7.49739500e-02
        2 -1    0    0  501    0 +0.0000000000e+00 +0.0000000000e+00 +1.7644216662e+03 1.7644216662e+03 0.0000000000e+00 0.0000e+00 1.0000e+00
       -2 -1    0    0    0  501 -0.0000000000e+00 -0.0000000000e+00 -2.5612091876e+03 2.5612091876e+03 0.0000000000e+00 0.0000e+00 -1.0000e+00
      -13  1    1    2    0    0 -1.9185882738e+02 +1.5662593349e+03 -1.8476486626e+03 2.4297702966e+03 0.0000000000e+00 0.0000e+00 -1.0000e+00
       13  1    1    2    0    0 +1.9185882738e+02 -1.5662593349e+03 +1.0508611412e+03 1.8958605571e+03 0.0000000000e+00 0.0000e+00 1.0000e+00
<mgrwt>
<rscale>  0 0.42516129E+04</rscale>
<asrwt>0</asrwt>
<pdfrwt beam="1">  1        2 0.27144949E+00 0.42516129E+04</pdfrwt>
<pdfrwt beam="2">  1       -2 0.39403218E+00 0.42516129E+04</pdfrwt>
<totfact> 0.50990918E-02</totfact>
</mgrwt>
<rwgt>
<wgt id='morphing_basis_vector_1'> +2.0133363e-05 </wgt>
<wgt id='morphing_basis_vector_2'> +1.3722602e-05 </wgt>
<wgt id='morphing_basis_vector_3'> +2.2141396e-05 </wgt>
<wgt id='morphing_basis_vector_4'> +1.5862754e-05 </wgt>
<wgt id='morphing_basis_vector_5'> +2.5391360e-05 </wgt>
</rwgt>
</event>
<event>
 4      1 +4.5322000e-10 4.22354900e+03 7.81860800e-03 7.50207500e-02
        2 -1    0    0  501    0 +0.0000000000e+00 +0.0000000000e+00 +2.3728689328e+03 2.3728689328e+03 0.0000000000e+00 0.0000e+00 -1.0000e+00
       -2 -1    0    0    0  501 -0.0000000000e+00 -0.0000000000e+00 -1.8794090750e+03 1.8794090750e+03 0.0000000000e+00 0.0000e+00 1.0000e+00
      -13  1    1    2    0    0 +8.2331900360e+02 +1.7318386095e+03 -6.4386166869e+02 2.0227894105e+03 0.0000000000e+00 0.0000e+00 1.0000e+00
       13  1    1    2    0    0 -8.2331900360e+02 -1.7318386095e+03 +1.1373215265e+03 2.2294885973e+03 0.0000000000e+00 0.0000e+00 -1.0000e+00
<mgrwt>
<rscale>  0 0.42235489E+04</rscale>
<asrwt>0</asrwt>
<pdfrwt beam="1">  1        2 0.36505676E+00 0.42235489E+04</pdfrwt>
<pdfrwt beam="2">  1       -2 0.28913986E+00 0.42235489E+04</pdfrwt>
<totfact> 0.11260868E-01</totfact>
</mgrwt>
<rwgt>
<wgt id='morphing_basis_vector_1'> +1.9710014e-05 </wgt>
<wgt id='morphing_basis_vector_2'> +1.3660185e-05 </wgt>
<wgt id='morphing_basis_vector_3'> +2.1724693e-05 </wgt>
<wgt id='morphing_basis_vector_4'> +1.5233014e-05 </wgt>
<wgt id='morphing_basis_vector_5'> +2.4706863e-05 </wgt>
</rwgt>
</event>
<event>
 4      1 +4.5322000e-10 4.38359600e+03 7.81860800e-03 7.47586500e-02
        2 -1    0    0  501    0 +0.0000000000e+00 +0.0000000000e+00 +4.6141285419e+03 4.6141285419e+03 0.0000000000e+00 0.0000e+00 1.0000e+00
       -2 -1    0    0    0  501 -0.0000000000e+00 -0.0000000000e+00 -1.0411454160e+03 1.0411454160e+03 0.0000000000e+00 0.0000e+00 -1.0000e+00
      -13  1    1    2    0    0 -9.0435701505e+01 -1.3205990728e+03 -4.6724134183e+02 1.4037360859e+03 0.0000000000e+00 0.0000e+00 -1.0000e+00
       13  1    1    2    0    0 +9.0435701505e+01 +1.3205990728e+03 +4.0402244677e+03 4.2515378720e+03 0.0000000000e+00 0.0000e+00 1.0000e+00
<mgrwt>
<rscale>  0 0.43835961E+04</rscale>
<asrwt>0</asrwt>
<pdfrwt beam="1">  1        2 0.70986592E+00 0.43835961E+04</pdfrwt>
<pdfrwt beam="2">  1       -2 0.16017622E+00 0.43835961E+04</pdfrwt>
<totfact> 0.18011841E-02</totfact>
</mgrwt>
<rwgt>
<wgt id='morphing_basis_vector_1'> +2.2715741e-05 </wgt>
<wgt id='morphing_basis_vector_2'> +1.5433068e-05 </wgt>
<wgt id='morphing_basis_vector_3'> +2.4981522e-05 </wgt>
<wgt id='morphing_basis_vector_4'> +1.7986625e-05 </wgt>
<wgt id='morphing_basis_vector_5'> +2.8713382e-05 </wgt>
</rwgt>
</event>
<event>
 4      1 +4.5322000e-10 4.34599500e+03 7.81860800e-03 7.48192000e-02
        2 -1    0    0  501    0 +0.0000000000e+00 +0.0000000000e+00 +1.9329027265e+03 1.9329027265e+03 0.0000000000e+00 0.0000e+00 -1.0000e+00
       -2 -1    0    0    0  501 -0.0000000000e+00 -0.0000000000e+00 -2.4429154520e+03 2.4429154520e+03 0.0000000000e+00 0.0000e+00 1.0000e+00
      -13  1    1    2    0    0 +7.1464917539e+02 +1.6495505168e+02 -2.3145219313e+03 2.4279508610e+03 0.0000000000e+00 0.0000e+00 1.0000e+00
       13  1    1    2    0    0 -7.1464917539e+02 -1.6495505168e+02 +1.8045092058e+03 1.9478673175e+03 0.0000000000e+00 0.0000e+00 -1.0000e+00
<mgrwt>
<rscale>  0 0.43459949E+04</rscale>
<asrwt>0</asrwt>
<pdfrwt beam="1">  1        2 0.29736965E+00 0.43459949E+04</pdfrwt>
<pdfrwt beam="2">  1       -2 0.37583314E+00 0.43459949E+04</pdfrwt>
<totfact> 0.53441555E-02</totfact>
</mgrwt>
<rwgt>
<wgt id='morphing_basis_vector_1'> +2.1938978e-05 </wgt>
<wgt id='morphing_basis_vector_2'> +1.4880065e-05 </wgt>
<wgt id='morphing_basis_vector_3'> +2.4118506e-05 </wgt>
<wgt id='morphing_basis_vector_4'> +1.7397429e-05 </wgt>
<wgt id='morphing_basis_vector_5'> +2.7738701e-05 </wgt>
</rwgt>
</event>
<event>
 4      1 +4.5322000e-10 4.51794100e+03 7.81860800e-03 7.45472300e-02
        2 -1    0    0  501    0 +0.0000000000e+00 +0.0000000000e+00 +3.1761160611e+03 3.1761160611e+03 0.0000000000e+00 0.0000e+00 1.0000e+00
       -2 -1    0    0    0  501 -0.0000000000e+00 -0.0000000000e+00 -1.6066627493e+03 1.6066627493e+03 0.0000000000e+00 0.0000e+00 -1.0000e+00
      -13  1    1    2    0    0 +1.6009636901e+02 +1.0190155740e+03 -1.3427881202e+03 1.6932523507e+03 0.0000000000e+00 0.0000e+00 -1.0000e+00
       13  1    1    2    0    0 -1.6009636901e+02 -1.0190155740e+03 +2.9122414319e+03 3.0895264597e+03 0.0000000000e+00 0.0000e+00 1.0000e+00
<mgrwt>
<rscale>  0 0.45179408E+04</rscale>
<asrwt>0</asrwt>
<pdfrwt beam="1">  1        2 0.48863324E+00 0.45179408E+04</pdfrwt>
<pdfrwt beam="2">  1       -2 0.24717888E+00 0.45179408E+04</pdfrwt>
<totfact> 0.66847461E-02</totfact>
</mgrwt>
<rwgt>
<wgt id='morphing_basis_vector_1'> +2.5608496e-05 </wgt>
<wgt id='morphing_basis_vector_2'> +1.7381631e-05 </wgt>
<wgt id='morphing_basis_vector_3'> +2.8170955e-05 </wgt>
<wgt id='morphing_basis_vector_4'> +2.0325354e-05 </wgt>
<wgt id='morphing_basis_vector_5'> +3.2415872e-05 </wgt>
</rwgt>
</event>
<event>
 4      1 +4.5322000e-10 3.95234700e+03 7.81860800e-03 7.54929700e-02
        2 -1    0    0  501    0 +0.0000000000e+00 +0.0000000000e+00 +3.0366243829e+03 3.0366243829e+03 0.0000000000e+00 0.0000e+00 -1.0000e+00
       -2 -1    0    0    0  501 -0.0000000000e+00 -0.0000000000e+00 -1.2860539045e+03 1.2860539045e+03 0.0000000000e+00 0.0000e+00 1.0000e+00
      -13  1    1    2    0    0 -1.2208009505e+03 -9.0210600428e+02 -5.0862751344e+02 1.6008910491e+03 0.0000000000e+00 0.0000e+00 1.0000e+00
       13  1    1    2    0    0 +1.2208009505e+03 +9.0210600428e+02 +2.2591979919e+03 2.7217872383e+03 0.0000000000e+00 0.0000e+00 -1.0000e+00
<mgrwt>
<rscale>  0 0.39523475E+04</rscale>
<asrwt>0</asrwt>
<pdfrwt beam="1">  1        2 0.46717298E+00 0.39523475E+04</pdfrwt>
<pdfrwt beam="2">  1       -2 0.19785445E+00 0.39523475E+04</pdfrwt>
<totfact> 0.19388352E-01</totfact>
</mgrwt>
<rwgt>
<wgt id='morphing_basis_vector_1'> +1.5062608e-05 </wgt>
<wgt id='morphing_basis_vector_2'> +1.0270112e-05 </wgt>
<wgt id='morphing_basis_vector_3'> +1.6545569e-05 </wgt>
<wgt id='morphing_basis_vector_4'> +1.1818750e-05 </wgt>
<wgt id='morphing_basis_vector_5'> +1.8935199e-05 </wgt>
</rwgt>
</event>
<event>
 4      1 +4.5322000e-10 4.15446600e+03 7.81860800e-03 7.51375500e-02
        2 -1    0    0  501    0 +0.0000000000e+00 +0.0000000000e+00 +3.7313207957e+03 3.7313207957e+03 0.0000000000e+00 0.0000e+00 -1.0000e+00
       -2 -1    0    0    0  501 -0.0000000000e+00 -0.0000000000e+00 -1.1563996040e+03 1.1563996040e+03 0.0000000000e+00 0.0000e+00 1.0000e+00
      -13  1    1    2    0    0 -1.2020499451e+03 -6.7277549407e+02 -5.4173687036e+02 1.4802127457e+03 0.0000000000e+00 0.0000e+00 1.0000e+00
       13  1    1    2    0    0 +1.2020499451e+03 +6.7277549407e+02 +3.1166580621e+03 3.4075076540e+03 0.0000000000e+00 0.0000e+00 -1.0000e+00
<mgrwt>
<rscale>  0 0.41544665E+04</rscale>
<asrwt>0</asrwt>
<pdfrwt beam="1">  1        2 0.57404935E+00 0.41544665E+04</pdfrwt>
<pdfrwt beam="2">  1       -2 0.17790763E+00 0.41544665E+04</pdfrwt>
<totfact> 0.85807576E-02</totfact>
</mgrwt>
<rwgt>
<wgt id='morphing_basis_vector_1'> +1.8349590e-05 </wgt>
<wgt id='morphing_basis_vector_2'> +1.2472800e-05 </wgt>
<wgt id='morphing_basis_vector_3'> +2.0164658e-05 </wgt>
<wgt id='morphing_basis_vector_4'> +1.4484907e-05 </wgt>
<wgt id='morphing_basis_vector_5'> +2.3141790e-05 </wgt>
</rwgt>
</event>
<event>
 4      1 +4.5322000e-10 4.24763200e+03 7.81860800e-03 7.49805700e-02
        2 -1    0    0  501    0 +0.0000000000e+00 +0.0000000000e+00 +3.3790742796e+03 3.3790742796e+03 0.0000000000e+00 0.0000e+00 -1.0000e+00
       -2 -1    0    0    0  501 -0.0000000000e+00 -0.0000000000e+00 -1.3348608184e+03 1.3348608184e+03 0.0000000000e+00 0.0000e+00 1.0000e+00
      -13  1    1    2    0    0 +9.2022067949e+02 +1.0626683479e+03 -7.4468323035e+02 1.5907932707e+03 0.0000000000e+00 0.0000e+00 1.0000e+00
       13  1    1    2    0    0 -9.2022067949e+02 -1.0626683479e+03 +2.7888966916e+03 3.1231418272e+03 0.0000000000e+00 0.0000e+00 -1.0000e+00
<mgrwt>
<rscale>  0 0.42476317E+04</rscale>
<asrwt>0</asrwt>
<pdfrwt beam="1">  1        2 0.51985758E+00 0.42476317E+04</pdfrwt>
<pdfrwt beam="2">  1       -2 0.20536320E+00 0.42476317E+04</pdfrwt>
<totfact> 0.97472827E-02</totfact>
</mgrwt>
<rwgt>
<wgt id='morphing_basis_vector_1'> +2.0043332e-05 </wgt>
<wgt id='morphing_basis_vector_2'> +1.3627092e-05 </wgt>
<wgt id='morphing_basis_vector_3'> +2.2034342e-05 </wgt>
<wgt id='morphing_basis_vector_4'> +1.5835114e-05 </wgt>
<wgt id='morphing_basis_vector_5'> +2.5298640e-05 </wgt>
</rwgt>
</event>
<event>
 4      1 +4.5322000e-10 4.15995300e+03 7.81860800e-03 7.51281900e-02
        2 -1    0    0  501    0 +0.0000000000e+00 +0.0000000000e+00 +1.7792243148e+03 1.7792243148e+03 0.0000000000e+00 0.0000e+00 -1.0000e+00
       -2 -1    0    0    0  501 -0.0000000000e+00 -0.0000000000e+00 -2.4315666071e+03 2.4315666071e+03 0.0000000000e+00 0.0000e+00 1.0000e+00
      -13  1    1    2    0    0 -1.3298368930e+03 +1.0414735242e+03 -1.5547458098e+03 2.2957281626e+03 0.0000000000e+00 0.0000e+00 1.0000e+00
       13  1    1    2    0    0 +1.3298368930e+03 -1.0414735242e+03 +9.0240351757e+02 1.9150627593e+03 0.0000000000e+00 0.0000e+00 -1.0000e+00
<mgrwt>
<rscale>  0 0.41599531E+04</rscale>
<asrwt>0</asrwt>
<pdfrwt beam="1">  1        2 0.27372682E+00 0.41599531E+04</pdfrwt>
<pdfrwt beam="2">  1       -2 0.37408717E+00 0.41599531E+04</pdfrwt>
<totfact> 0.67801415E-02</totfact>
</mgrwt>
<rwgt>
<wgt id='morphing_basis_vector_1'> +1.8482381e-05 </wgt>
<wgt id='morphing_basis_vector_2'> +1.2644867e-05 </wgt>
<wgt id='morphing_basis_vector_3'> +2.0329462e-05 </wgt>
<wgt id='morphing_basis_vector_4'> +1.4485388e-05 </wgt>
<wgt id='morphing_basis_vector_5'> +2.3258461e-05 </wgt>
</rwgt>
</event>
<event>
 4      1 +4.5322000e-10 3.89845300e+03 7.81860800e-03 7.55914100e-02
        2 -1    0    0  501    0 +0.0000000000e+00 +0.0000000000e+00 +1.8904182837e+03 1.8904182837e+03 0.0000000000e+00 0.0000e+00 -1.0000e+00
       -2 -1    0    0    0  501 -0.0000000000e+00 -0.0000000000e+00 -2.0098644854e+03 2.0098644854e+03 0.0000000000e+00 0.0000e+00 1.0000e+00
      -13  1    1    2    0    0 -1.8282417179e+03 +6.5085270018e+02 -2.4258621008e+02 1.9557415692e+03 0.0000000000e+00 0.0000e+00 1.0000e+00
       13  1    1    2    0    0 +1.8282417179e+03 -6.5085270018e+02 +1.2314000837e+02 1.9445411999e+03 0.0000000000e+00 0.0000e+00 -1.0000e+00
<mgrwt>
<rscale>  0 0.38984533E+04</rscale>
<asrwt>0</asrwt>
<pdfrwt beam="1">  1        2 0.29083358E+00 0.38984533E+04</pdfrwt>
<pdfrwt beam="2">  1       -2 0.30920992E+00 0.38984533E+04</pdfrwt>
<totfact> 0.15951088E-01</totfact>
</mgrwt>
<rwgt>
<wgt id='morphing_basis_vector_1'> +1.4604957e-05 </wgt>
<wgt id='morphing_basis_vector_2'> +1.0731083e-05 </wgt>
<wgt id='morphing_basis_vector_3'> +1.6211268e-05 </wgt>
<wgt id='morphing_basis_vector_4'> +1.0459126e-05 </wgt>
<wgt id='morphing_basis_vector_5'> +1.7857917e-05 </wgt>
</rwgt>
</event>
<event>
 4      1 +4.5322000e-10 3.88825800e+03 7.81860800e-03 7.56102200e-02
        2 -1    0    0  501    0 +0.0000000000e+00 +0.0000000000e+00 +1.6629213673e+03 1.6629213673e+03 0.0000000000e+00 0.0000e+00 -1.0000e+00
       -2 -1    0    0    0  501 -0.0000000000e+00 -0.0000000000e+00 -2.2728907099e+03 2.2728907099e+03 0.0000000000e+00 0.0000e+00 1.0000e+00
      -13  1    1    2    0    0 +1.6657912278e+03 +9.9353885034e+02 -4.3949578236e+02 1.9887524744e+03 0.0000000000e+00 0.0000e+00 -1.0000e+00
       13  1    1    2    0    0 -1.6657912278e+03 -9.9353885034e+02 -1.7047356027e+02 1.9470596027e+03 0.0000000000e+00 0.0000e+00 1.0000e+00
<mgrwt>
<rscale>  0 0.38882585E+04</rscale>
<asrwt>0</asrwt>
<pdfrwt beam="1">  1        2 0.25583406E+00 0.38882585E+04</pdfrwt>
<pdfrwt beam="2">  1       -2 0.34967549E+00 0.38882585E+04</pdfrwt>
<totfact> 0.11548302E-01</totfact>
</mgrwt>
<rwgt>
<wgt id='morphing_basis_vector_1'> +1.4490097e-05 </wgt>
<wgt id='morphing_basis_vector_2'> +1.0726853e-05 </wgt>
<wgt id='morphing_basis_vector_3'> +1.6100796e-05 </wgt>
<wgt id='morphing_basis_vector_4'> +1.0272489e-05 </wgt>
<wgt id='morphing_basis_vector_5'> +1.7664466e-05 </wgt>
</rwgt>
</event>
<event>
 4      1 +4.5322000e-10 4.23006800e+03 7.81860800e-03 7.50098500e-02
        2 -1    0    0  501    0 +0.0000000000e+00 +0.0000000000e+00 +3.3143106394e+03 3.3143106394e+03 0.0000000000e+00 0.0000e+00 -1.0000e+00
       -2 -1    0    0    0  501 -0.0000000000e+00 -0.0000000000e+00 -1.3497132748e+03 1.3497132748e+03 0.0000000000e+00 0.0000e+00 1.0000e+00
      -13  1    1    2    0    0 -1.0672207570e+03 -3.5824440356e+02 -9.9194110039e+02 1.5004153903e+03 0.0000000000e+00 0.0000e+00 1.0000e+00
       13  1    1    2    0    0 +1.0672207570e+03 +3.5824440356e+02 +2.9565384650e+03 3.1636085238e+03 0.0000000000e+00 0.0000e+00 -1.0000e+00
<mgrwt>
<rscale>  0 0.42300681E+04</rscale>
<asrwt>0</asrwt>
<pdfrwt beam="1">  1        2 0.50989394E+00 0.42300681E+04</pdfrwt>
<pdfrwt beam="2">  1       -2 0.20764820E+00 0.42300681E+04</pdfrwt>
<totfact> 0.10437559E-01</totfact>
</mgrwt>
<rwgt>
<wgt id='morphing_basis_vector_1'> +1.9704472e-05 </wgt>
<wgt id='morphing_basis_vector_2'> +1.3371494e-05 </wgt>
<wgt id='morphing_basis_vector_3'> +2.1654728e-05 </wgt>
<wgt id='morphing_basis_vector_4'> +1.5596801e-05 </wgt>
<wgt id='morphing_basis_vector_5'> +2.4882902e-05 </wgt>
</rwgt>
</event>
<event>
 4      1 +4.5322000e-10 3.94411000e+03 7.81860800e-03 7.55079100e-02
        2 -1    0    0  501    0 +0.0000000000e+00 +0.0000000000e+00 +2.4404424631e+03 2.4404424631e+03 0.0000000000e+00 0.0000e+00 -1.0000e+00
       -2 -1    0    0    0  501 -0.0000000000e+00 -0.0000000000e+00 -1.5935640545e+03 1.5935640545e+03 0.0000000000e+00 0.0000e+00 1.0000e+00
      -13  1    1    2    0    0 -1.5888346197e+03 -3.2349386068e+02 +1.5715016910e+03 2.2580215436e+03 0.0000000000e+00 0.0000e+00 1.0000e+00
       13  1    1    2    0    0 +1.5888346197e+03 +3.2349386068e+02 -7.2462328234e+02 1.7759849740e+03 0.0000000000e+00 0.0000e+00 -1.0000e+00
<mgrwt>
<rscale>  0 0.39441102E+04</rscale>
<asrwt>0</asrwt>
<pdfrwt beam="1">  1        2 0.37545269E+00 0.39441102E+04</pdfrwt>
<pdfrwt beam="2">  1       -2 0.24516370E+00 0.39441102E+04</pdfrwt>
<totfact> 0.21030221E-01</totfact>
</mgrwt>
<rwgt>
<wgt id='morphing_basis_vector_1'> +1.8191145e-05 </wgt>
<wgt id='morphing_basis_vector_2'> +1.9747599e-05 </wgt>
<wgt id='morphing_basis_vector_3'> +2.1622843e-05 </wgt>
<wgt id='morphing_basis_vector_4'> +4.8431291e-06 </wgt>
<wgt id='morphing_basis_vector_5'> +1.8204388e-05 </wgt>
</rwgt>
</event>
<event>
 4      1 +4.5322000e-10 4.11786000e+03 7.81860800e-03 7.52003700e-02
        2 -1    0    0  501    0 +0.0000000000e+00 +0.0000000000e+00 +3.2824492338e+03 3.2824492338e+03 0.0000000000e+00 0.0000e+00 -1.0000e+00
       -2 -1    0    0    0  501 -0.0000000000e+00 -0.0000000000e+00 -1.2914721354e+03 1.2914721354e+03 0.0000000000e+00 0.0000e+00 1.0000e+00
      -13  1    1    2    0    0 +6.2200254771e+02 +1.7874071069e+03 +9.4833329446e+01 1.8949154851e+03 0.0000000000e+00 0.0000e+00 1.0000e+00
       13  1    1    2    0    0 -6.2200254771e+02 -1.7874071069e+03 +1.8961437690e+03 2.6790058842e+03 0.0000000000e+00 0.0000e+00 -1.0000e+00
<mgrwt>
<rscale>  0 0.41178595E+04</rscale>
<asrwt>0</asrwt>
<pdfrwt beam="1">  1        2 0.50499219E+00 0.41178595E+04</pdfrwt>
<pdfrwt beam="2">  1       -2 0.19868802E+00 0.41178595E+04</pdfrwt>
<totfact> 0.12875510E-01</totfact>
</mgrwt>
<rwgt>
<wgt id='morphing_basis_vector_1'> +1.7833343e-05 </wgt>
<wgt id='morphing_basis_vector_2'> +1.2389497e-05 </wgt>
<wgt id='morphing_basis_vector_3'> +1.9654759e-05 </wgt>
<wgt id='morphing_basis_vector_4'> +1.3726852e-05 </wgt>
<wgt id='morphing_basis_vector_5'> +2.2312171e-05 </wgt>
</rwgt>
</event>
<event>
 4      1 +4.5322000e-10 4.15466800e+03 7.81860800e-03 7.51372000e-02
        2 -1    0    0  501    0 +0.0000000000e+00 +0.0000000000e+00 +3.7211184005e+03 3.7211184005e+03 0.0000000000e+00 0.0000e+00 -1.0000e+00
       -2 -1    0    0    0  501 -0.0000000000e+00 -0.0000000000e+00 -1.1596825952e+03 1.1596825952e+03 0.0000000000e+00 0.0000e+00 1.0000e+00
      -13  1    1    2    0    0 -1.4456070195e+03 -1.4592542327e+03 +9.1651166566e+02 2.2492657032e+03 0.0000000000e+00 0.0000e+00 1.0000e+00
       13  1    1    2    0    0 +1.4456070195e+03 +1.4592542327e+03 +1.6449241397e+03 2.6315352925e+03 0.0000000000e+00 0.0000e+00 -1.0000e+00
<mgrwt>
<rscale>  0 0.41546679E+04</rscale>
<asrwt>0</asrwt>
<pdfrwt beam="1">  1        2 0.57247975E+00 0.41546679E+04</pdfrwt>
<pdfrwt beam="2">  1       -2 0.17841271E+00 0.41546679E+04</pdfrwt>
<totfact> 0.86623136E-02</totfact>
</mgrwt>
<rwgt>
<wgt id='morphing_basis_vector_1'> +1.8724704e-05 </wgt>
<wgt id='morphing_basis_vector_2'> +1.3567205e-05 </wgt>
<wgt id='morphing_basis_vector_3'> +2.0766127e-05 </wgt>
<wgt id='morphing_basis_vector_4'> +1.3700609e-05 </wgt>
<wgt id='morphing_basis_vector_5'> +2.3080638e-05 </wgt>
</rwgt>
</event>
<event>
 4      1 +4.5322000e-10 4.09151900e+03 7.81860800e-03 7.52459900e-02
        2 -1    0    0  501    0 +0.0000000000e+00 +0.0000000000e+00 +3.3525362681e+03 3.3525362681e+03 0.0000000000e+00 0.0000e+00 -1.0000e+00
       -2 -1    0    0    0  501 -0.0000000000e+00 -0.0000000000e+00 -1.2483478748e+03 1.2483478748e+03 0.0000000000e+00 0.0000e+00 1.0000e+00
      -13  1    1    2    0    0 -8.1447113397e+02 +1.7003549267e+03 +1.5915796727e+02 1.8920627271e+03 0.0000000000e+00 0.0000e+00 1.0000e+00
       13  1    1    2    0    0 +8.1447113397e+02 -1.7003549267e+03 +1.9450304260e+03 2.7088214158e+03 0.0000000000e+00 0.0000e+00 -1.0000e+00
<mgrwt>
<rscale>  0 0.40915188E+04</rscale>
<asrwt>0</asrwt>
<pdfrwt beam="1">  1        2 0.51577481E+00 0.40915188E+04</pdfrwt>
<pdfrwt beam="2">  1       -2 0.19205352E+00 0.40915188E+04</pdfrwt>
<totfact> 0.12899167E-01</totfact>
</mgrwt>
<rwgt>
<wgt id='morphing_basis_vector_1'> +1.7387037e-05 </wgt>
<wgt id='morphing_basis_vector_2'> +1.2086327e-05 </wgt>
<wgt id='morphing_basis_vector_3'> +1.9162330e-05 </wgt>
<wgt id='morphing_basis_vector_4'> +1.3370076e-05 </wgt>
<wgt id='morphing_basis_vector_5'> +2.1743492e-05 </wgt>
</rwgt>
</event>
<event>
 4      1 +4.5322000e-10 4.37396500e+03 7.81860800e-03 7.47741000e-02
        2 -1    0    0  501    0 +0.0000000000e+00 +0.0000000000e+00 +2.0227360546e+03 2.0227360546e+03 0.0000000000e+00 0.0000e+00 1.0000e+00
       -2 -1    0    0    0  501 -0.0000000000e+00 -0.0000000000e+00 -2.3645653365e+03 2.3645653365e+03 0.0000000000e+00 0.0000e+00 -1.0000e+00
      -13  1    1    2    0    0 -1.8944974625e+03 +3.9348473926e+02 +8.5147769097e+02 2.1139926995e+03 0.0000000000e+00 0.0000e+00 1.0000e+00
       13  1    1    2    0    0 +1.8944974625e+03 -3.9348473926e+02 -1.1933069729e+03 2.2733086915e+03 0.0000000000e+00 0.0000e+00 -1.0000e+00
<mgrwt>
<rscale>  0 0.43739646E+04</rscale>
<asrwt>0</asrwt>
<pdfrwt beam="1">  1        2 0.31119016E+00 0.43739646E+04</pdfrwt>
<pdfrwt beam="2">  1       -2 0.36377928E+00 0.43739646E+04</pdfrwt>
<totfact> 0.56749636E-02</totfact>
</mgrwt>
<rwgt>
<wgt id='morphing_basis_vector_1'> +2.6292725e-05 </wgt>
<wgt id='morphing_basis_vector_2'> +2.6389972e-05 </wgt>
<wgt id='morphing_basis_vector_3'> +3.0851283e-05 </wgt>
<wgt id='morphing_basis_vector_4'> +9.8167361e-06 </wgt>
<wgt id='morphing_basis_vector_5'> +2.7791454e-05 </wgt>
</rwgt>
</event>
<event>
 4      1 +4.5322000e-10 3.87164700e+03 7.81860800e-03 7.56409800e-02
        2 -1    0    0  501    0 +0.0000000000e+00 +0.0000000000e+00 +2.8043109164e+03 2.8043109164e+03 0.0000000000e+00 0.0000e+00 1.0000e+00
       -2 -1    0    0    0  501 -0.0000000000e+00 -0.0000000000e+00 -1.3363042325e+03 1.3363042325e+03 0.0000000000e+00 0.0000e+00 -1.0000e+00
      -13  1    1    2    0    0 +1.3698933476e+03 +1.1173801012e+03 -1.0963696063e+02 1.7712047701e+03 0.0000000000e+00 0.0000e+00 -1.0000e+00
       13  1    1    2    0    0 -1.3698933476e+03 -1.1173801012e+03 +1.5776436444e+03 2.3694103788e+03 0.0000000000e+00 0.0000e+00 1.0000e+00
<mgrwt>
<rscale>  0 0.38716470E+04</rscale>
<asrwt>0</asrwt>
<pdfrwt beam="1">  1        2 0.43143245E+00 0.38716470E+04</pdfrwt>
<pdfrwt beam="2">  1       -2 0.20558527E+00 0.38716470E+04</pdfrwt>
<totfact> 0.24172517E-01</totfact>
</mgrwt>
<rwgt>
<wgt id='morphing_basis_vector_1'> +1.3946922e-05 </wgt>
<wgt id='morphing_basis_vector_2'> +9.6677452e-06 </wgt>
<wgt id='morphing_basis_vector_3'> +1.5349526e-05 </wgt>
<wgt id='morphing_basis_vector_4'> +1.0727631e-05 </wgt>
<wgt id='morphing_basis_vector_5'> +1.7415434e-05 </wgt>
</rwgt>
</event>
<event>
 4      1 +4.5322000e-10 4.08881900e+03 7.81860800e-03 7.52506900e-02
        2 -1    0    0  501    0 +0.0000000000e+00 +0.0000000000e+00 +1.5028415096e+03 1.5028415096e+03 0.0000000000e+00 0.0000e+00 -1.0000e+00
       -2 -1    0    0    0  501 -0.0000000000e+00 -0.0000000000e+00 -2.7811383673e+03 2.7811383673e+03 0.0000000000e+00 0.0000e+00 1.0000e+00
      -13  1    1    2    0    0 -1.3914304382e+03 +9.2328474339e+02 -1.8748826994e+03 2.5107207169e+03 0.0000000000e+00 0.0000e+00 1.0000e+00
       13  1    1    2    0    0 +1.3914304382e+03 -9.2328474339e+02 +5.9658584172e+02 1.7732591599e+03 0.0000000000e+00 0.0000e+00 -1.0000e+00
<mgrwt>
<rscale>  0 0.40888190E+04</rscale>
<asrwt>0</asrwt>
<pdfrwt beam="1">  1        2 0.23120639E+00 0.40888190E+04</pdfrwt>
<pdfrwt beam="2">  1       -2 0.42786744E+00 0.40888190E+04</pdfrwt>
<totfact> 0.43212953E-02</totfact>
</mgrwt>
<rwgt>
<wgt id='morphing_basis_vector_1'> +1.7257953e-05 </wgt>
<wgt id='morphing_basis_vector_2'> +1.1809222e-05 </wgt>
<wgt id='morphing_basis_vector_3'> +1.8977717e-05 </wgt>
<wgt id='morphing_basis_vector_4'> +1.3511353e-05 </wgt>
<wgt id='morphing_basis_vector_5'> +2.1700619e-05 </wgt>
</rwgt>
</event>
<event>
 4      1 +4.5322000e-10 3.98416200e+03 7.81860800e-03 7.54356100e-02
        2 -1    0    0  501    0 +0.0000000000e+00 +0.0000000000e+00 +2.4293574836e+03 2.4293574836e+03 0.0000000000e+00 0.0000e+00 -1.0000e+00
       -2 -1    0    0    0  501 -0.0000000000e+00 -0.0000000000e+00 -1.6335132616e+03 1.6335132616e+03 0.0000000000e+00 0.0000e+00 1.0000e+00
      -13  1    1    2    0    0 -1.5969031642e+03 -5.7785783323e+02 -6.6397971210e+02 1.8234276649e+03 0.0000000000e+00 0.0000e+00 1.0000e+00
       13  1    1    2    0    0 +1.5969031642e+03 +5.7785783323e+02 +1.4598239341e+03 2.2394430803e+03 0.0000000000e+00 0.0000e+00 -1.0000e+00
<mgrwt>
<rscale>  0 0.39841625E+04</rscale>
<asrwt>0</asrwt>
<pdfrwt beam="1">  1        2 0.37374730E+00 0.39841625E+04</pdfrwt>
<pdfrwt beam="2">  1       -2 0.25130973E+00 0.39841625E+04</pdfrwt>
<totfact> 0.19295121E-01</totfact>
</mgrwt>
<rwgt>
<wgt id='morphing_basis_vector_1'> +1.5582168e-05 </wgt>
<wgt id='morphing_basis_vector_2'> +1.0696028e-05 </wgt>
<wgt id='morphing_basis_vector_3'> +1.7134769e-05 </wgt>
<wgt id='morphing_basis_vector_4'> +1.2139700e-05 </wgt>
<wgt id='morphing_basis_vector_5'> +1.9549939e-05 </wgt>
</rwgt>
</event>
<event>
 4      1 +4.5322000e-10 4.49697700e+03 7.81860800e-03 7.45797300e-02
        2 -1    0    0  501    0 +0.0000000000e+00 +0.0000000000e+00 +2.6405247025e+03 2.6405247025e+03 0.0000000000e+00 0.0000e+00 -1.0000e+00
       -2 -1    0    0    0  501 -0.0000000000e+00 -0.0000000000e+00 -1.9146576460e+03 1.9146576460e+03 0.0000000000e+00 0.0000e+00 1.0000e+00
      -13  1    1    2    0    0 -1.7598043305e+02 +1.6291567598e+03 -1.1966634755e+03 2.0290698199e+03 0.0000000000e+00 0.0000e+00 1.0000e+00
       13  1    1    2    0    0 +1.7598043305e+02 -1.6291567598e+03 +1.9225305320e+03 2.5261125286e+03 0.0000000000e+00 0.0000e+00 -1.0000e+00
<mgrwt>
<rscale>  0 0.44969771E+04</rscale>
<asrwt>0</asrwt>
<pdfrwt beam="1">  1        2 0.40623457E+00 0.44969771E+04</pdfrwt>
<pdfrwt beam="2">  1       -2 0.29456271E+00 0.44969771E+04</pdfrwt>
<totfact> 0.70047845E-02</totfact>
</mgrwt>
<rwgt>
<wgt id='morphing_basis_vector_1'> +2.5170689e-05 </wgt>
<wgt id='morphing_basis_vector_2'> +1.7156686e-05 </wgt>
<wgt id='morphing_basis_vector_3'> +2.7704042e-05 </wgt>
<wgt id='morphing_basis_vector_4'> +1.9880676e-05 </wgt>
<wgt id='morphing_basis_vector_5'> +3.1810344e-05 </wgt>
</rwgt>
</event>
<event>
 4      1 +4.5322000e-10 4.25425300e+03 7.81860800e-03 7.49695700e-02
        2 -1    0    0  501    0 +0.0000000000e+00 +0.0000000000e+00 +2.6464934286e+03 2.6464934286e+03 0.0000000000e+00 0.0000e+00 -1.0000e+00
       -2 -1    0    0    0  501 -0.0000000000e+00 -0.0000000000e+00 -1.7096834953e+03 1.7096834953e+03 0.0000000000e+00 0.0000e+00 1.0000e+00
      -13  1    1    2    0    0 -5.0219064515e+02 +1.1082773016e+03 -1.3181577771e+03 1.7938823670e+03 0.0000000000e+00 0.0000e+00 1.0000e+00
       13  1    1    2    0    0 +5.0219064515e+02 -1.1082773016e+03 +2.2549677104e+03 2.5622945569e+03 0.0000000000e+00 0.0000e+00 -1.0000e+00
<mgrwt>
<rscale>  0 0.42542525E+04</rscale>
<asrwt>0</asrwt>
<pdfrwt beam="1">  1        2 0.40715284E+00 0.42542525E+04</pdfrwt>
<pdfrwt beam="2">  1       -2 0.26302823E+00 0.42542525E+04</pdfrwt>
<totfact> 0.11612175E-01</totfact>
</mgrwt>
<rwgt>
<wgt id='morphing_basis_vector_1'> +2.0159219e-05 </wgt>
<wgt id='morphing_basis_vector_2'> +1.3686236e-05 </wgt>
<wgt id='morphing_basis_vector_3'> +2.2157829e-05 </wgt>
<wgt id='morphing_basis_vector_4'> +1.5953160e-05 </wgt>
<wgt id='morphing_basis_vector_5'> +2.5458995e-05 </wgt>
</rwgt>
</event>
<event>
 4      1 +4.5322000e-10 4.23856000e+03 7.81860800e-03 7.49956700e-02
        2 -1    0    0  501    0 +0.0000000000e+00 +0.0000000000e+00 +1.7367639563e+03 1.7367639563e+03 0.0000000000e+00 0.0000e+00 -1.0000e+00
       -2 -1    0    0    0  501 -0.0000000000e+00 -0.0000000000e+00 -2.5860437361e+03 2.5860437361e+03 0.0000000000e+00 0.0000e+00 1.0000e+00
      -13  1    1    2    0    0 +1.3622828602e+03 -1.6184315652e+03 -5.5449795873e+02 2.1869163927e+03 0.0000000000e+00 0.0000e+00 1.0000e+00
       13  1    1    2    0    0 -1.3622828602e+03 +1.6184315652e+03 -2.9478182112e+02 2.1358912997e+03 0.0000000000e+00 0.0000e+00 -1.0000e+00
<mgrwt>
<rscale>  0 0.42385599E+04</rscale>
<asrwt>0</asrwt>
<pdfrwt beam="1">  1        2 0.26719446E+00 0.42385599E+04</pdfrwt>
<pdfrwt beam="2">  1       -2 0.39785288E+00 0.42385599E+04</pdfrwt>
<totfact> 0.49941407E-02</totfact>
</mgrwt>
<rwgt>
<wgt id='morphing_basis_vector_1'> +2.0443598e-05 </wgt>
<wgt id='morphing_basis_vector_2'> +1.5186742e-05 </wgt>
<wgt id='morphing_basis_vector_3'> +2.2764762e-05 </wgt>
<wgt id='morphing_basis_vector_4'> +1.4490981e-05 </wgt>
<wgt id='morphing_basis_vector_5'> +2.4981369e-05 </wgt>
</rwgt>
</event>
<event>
 4      1 +4.5322000e-10 3.89961500e+03 7.81860800e-03 7.55892700e-02
        2 -1    0    0  501    0 +0.0000000000e+00 +0.0000000000e+00 +1.4165354738e+03 1.4165354738e+03 0.0000000000e+00 0.0000e+00 1.0000e+00
       -2 -1    0    0    0  501 -0.0000000000e+00 -0.0000000000e+00 -2.6838367987e+03 2.6838367987e+03 0.0000000000e+00 0.0000e+00 -1.0000e+00
      -13  1    1    2    0    0 -1.9278348841e+03 -1.6076819103e+02 -8.8982454398e+02 2.1293617520e+03 0.0000000000e+00 0.0000e+00 -1.0000e+00
       13  1    1    2    0    0 +1.9278348841e+03 +1.6076819103e+02 -3.7747678096e+02 1.9710105205e+03 0.0000000000e+00 0.0000e+00 1.0000e+00
<mgrwt>
<rscale>  0 0.38996154E+04</rscale>
<asrwt>0</asrwt>
<pdfrwt beam="1">  1        2 0.21792854E+00 0.38996154E+04</pdfrwt>
<pdfrwt beam="2">  1       -2 0.41289796E+00 0.38996154E+04</pdfrwt>
<totfact> 0.61695861E-02</totfact>
</mgrwt>
<rwgt>
<wgt id='morphing_basis_vector_1'> +1.4580992e-05 </wgt>
<wgt id='morphing_basis_vector_2'> +1.0622460e-05 </wgt>
<wgt id='morphing_basis_vector_3'> +1.6164464e-05 </wgt>
<wgt id='morphing_basis_vector_4'> +1.0558916e-05 </wgt>
<wgt id='morphing_basis_vector_5'> +1.7886592e-05 </wgt>
</rwgt>
</event>
<event>
 4      1 +4.5322000e-10 4.21302300e+03 7.81860800e-03 7.50384000e-02
        2 -1    0    0  501    0 +0.0000000000e+00 +0.0000000000e+00 +1.9014462525e+03 1.9014462525e+03 0.0000000000e+00 0.0000e+00 1.0000e+00
       -2 -1    0    0    0  501 -0.0000000000e+00 -0.0000000000e+00 -2.3336929322e+03 2.3336929322e+03 0.0000000000e+00 0.0000e+00 -1.0000e+00
      -13  1    1    2    0    0 -1.6812110598e+03 +1.1841228042e+03 -6.7544006816e+02 2.1644483659e+03 0.0000000000e+00 0.0000e+00 -1.0000e+00
       13  1    1    2    0    0 +1.6812110598e+03 -1.1841228042e+03 +2.4319338847e+02 2.0706908189e+03 0.0000000000e+00 0.0000e+00 1.0000e+00
<mgrwt>
<rscale>  0 0.42130235E+04</rscale>
<asrwt>0</asrwt>
<pdfrwt beam="1">  1        2 0.29253019E+00 0.42130235E+04</pdfrwt>
<pdfrwt beam="2">  1       -2 0.35902968E+00 0.42130235E+04</pdfrwt>
<totfact> 0.72119052E-02</totfact>
</mgrwt>
<rwgt>
<wgt id='morphing_basis_vector_1'> +1.9698315e-05 </wgt>
<wgt id='morphing_basis_vector_2'> +1.4062987e-05 </wgt>
<wgt id='morphing_basis_vector_3'> +2.1803761e-05 </wgt>
<wgt id='morphing_basis_vector_4'> +1.4692908e-05 </wgt>
<wgt id='morphing_basis_vector_5'> +2.4428013e-05 </wgt>
</rwgt>
</event>
<event>
 4      1 +4.5322000e-10 4.15433200e+03 7.81860800e-03 7.51377800e-02
        2 -1    0    0  501    0 +0.0000000000e+00 +0.0000000000e+00 +1.7853405268e+03 1.7853405268e+03 0.0000000000e+00 0.0000e+00 -1.0000e+00
       -2 -1    0    0    0  501 -0.0000000000e+00 -0.0000000000e+00 -2.4166921079e+03 2.4166921079e+03 0.0000000000e+00 0.0000e+00 1.0000e+00
      -13  1    1    2    0    0 -1.2010331605e+03 -8.1521150258e+02 -1.8185245193e+03 2.3268179718e+03 0.0000000000e+00 0.0000e+00 1.0000e+00
       13  1    1    2    0    0 +1.2010331605e+03 +8.1521150258e+02 +1.1871729382e+03 1.8752146629e+03 0.0000000000e+00 0.0000e+00 -1.0000e+00
<mgrwt>
<rscale>  0 0.41543319E+04</rscale>
<asrwt>0</asrwt>
<pdfrwt beam="1">  1        2 0.27466777E+00 0.41543319E+04</pdfrwt>
<pdfrwt beam="2">  1       -2 0.37179879E+00 0.41543319E+04</pdfrwt>
<totfact> 0.69619485E-02</totfact>
</mgrwt>
<rwgt>
<wgt id='morphing_basis_vector_1'> +1.8352330e-05 </wgt>
<wgt id='morphing_basis_vector_2'> +1.2486195e-05 </wgt>
<wgt id='morphing_basis_vector_3'> +2.0170258e-05 </wgt>
<wgt id='morphing_basis_vector_4'> +1.4472204e-05 </wgt>
<wgt id='morphing_basis_vector_5'> +2.3137876e-05 </wgt>
</rwgt>
</event>
<event>
 4      1 +4.5322000e-10 4.53941200e+03 7.81860800e-03 7.45141300e-02
        2 -1    0    0  501    0 +0.0000000000e+00 +0.0000000000e+00 +2.4544061214e+03 2.4544061214e+03 0.0000000000e+00 0.0000e+00 1.0000e+00
       -2 -1    0    0    0  501 -0.0000000000e+00 -0.0000000000e+00 -2.0989048595e+03 2.0989048595e+03 0.0000000000e+00 0.0000e+00 -1.0000e+00
      -13  1    1    2    0    0 -1.5320392881e+03 -1.6007631422e+03 -3.1566805818e+02 2.2381316629e+03 0.0000000000e+00 0.0000e+00 -1.0000e+00
       13  1    1    2    0    0 +1.5320392881e+03 +1.6007631422e+03 +6.7116932008e+02 2.3151793179e+03 0.0000000000e+00 0.0000e+00 1.0000e+00
<mgrwt>
<rscale>  0 0.45394118E+04</rscale>
<asrwt>0</asrwt>
<pdfrwt beam="1">  1        2 0.37760094E+00 0.45394118E+04</pdfrwt>
<pdfrwt beam="2">  1       -2 0.32290844E+00 0.45394118E+04</pdfrwt>
<totfact> 0.58361023E-02</totfact>
</mgrwt>
<rwgt>
<wgt id='morphing_basis_vector_1'> +2.6515616e-05 </wgt>
<wgt id='morphing_basis_vector_2'> +1.8944233e-05 </wgt>
<wgt id='morphing_basis_vector_3'> +2.9386899e-05 </wgt>
<wgt id='morphing_basis_vector_4'> +1.9826074e-05 </wgt>
<wgt id='morphing_basis_vector_5'> +3.2964486e-05 </wgt>
</rwgt>
</event>
<event>
 4      1 +4.5322000e-10 3.85575600e+03 7.81860800e-03 7.56705600e-02
        2 -1    0    0  501    0 +0.0000000000e+00 +0.0000000000e+00 +1.8842867718e+03 1.8842867718e+03 0.0000000000e+00 0.0000e+00 1.0000e+00
       -2 -1    0    0    0  501 -0.0000000000e+00 -0.0000000000e+00 -1.9724779926e+03 1.9724779926e+03 0.0000000000e+00 0.0000e+00 -1.0000e+00
      -13  1    1    2    0    0 -5.0871519713e+02 -2.1173419911e+02 +1.8038430377e+03 1.8861262491e+03 0.0000000000e+00 0.0000e+00 1.0000e+00
       13  1    1    2    0    0 +5.0871519713e+02 +2.1173419911e+02 -1.8920342585e+03 1.9706385154e+03 0.0000000000e+00 0.0000e+00 -1.0000e+00
<mgrwt>
<rscale>  0 0.38557563E+04</rscale>
<asrwt>0</asrwt>
<pdfrwt beam="1">  1        2 0.28989027E+00 0.38557563E+04</pdfrwt>
<pdfrwt beam="2">  1       -2 0.30345815E+00 0.38557563E+04</pdfrwt>
<totfact> 0.17631405E-01</totfact>
</mgrwt>
<rwgt>
<wgt id='morphing_basis_vector_1'> +1.8655750e-05 </wgt>
<wgt id='morphing_basis_vector_2'> +2.4019448e-05 </wgt>
<wgt id='morphing_basis_vector_3'> +2.2998360e-05 </wgt>
<wgt id='morphing_basis_vector_4'> +1.2893244e-07 </wgt>
<wgt id='morphing_basis_vector_5'> +1.6262573e-05 </wgt>
</rwgt>
</event>
<event>
 4      1 +4.5322000e-10 4.14078900e+03 7.81860800e-03 7.51609400e-02
        2 -1    0    0  501    0 +0.0000000000e+00 +0.0000000000e+00 +2.2873277945e+03 2.2873277945e+03 0.0000000000e+00 0.0000e+00 1.0000e+00
       -2 -1    0    0    0  501 -0.0000000000e+00 -0.0000000000e+00 -1.8740354397e+03 1.8740354397e+03 0.0000000000e+00 0.0000e+00 -1.0000e+00
      -13  1    1    2    0    0 -7.1268446640e+02 +1.3795360412e+03 -1.1696453158e+03 1.9439930561e+03 0.0000000000e+00 0.0000e+00 -1.0000e+00
       13  1    1    2    0    0 +7.1268446640e+02 -1.3795360412e+03 +1.5829376705e+03 2.2173701780e+03 0.0000000000e+00 0.0000e+00 1.0000e+00
<mgrwt>
<rscale>  0 0.41407890E+04</rscale>
<asrwt>0</asrwt>
<pdfrwt beam="1">  1        2 0.35189658E+00 0.41407890E+04</pdfrwt>
<pdfrwt beam="2">  1       -2 0.28831315E+00 0.41407890E+04</pdfrwt>
<totfact> 0.12879470E-01</totfact>
</mgrwt>
<rwgt>
<wgt id='morphing_basis_vector_1'> +1.8125559e-05 </wgt>
<wgt id='morphing_basis_vector_2'> +1.2354583e-05 </wgt>
<wgt id='morphing_basis_vector_3'> +1.9925077e-05 </wgt>
<wgt id='morphing_basis_vector_4'> +1.4261873e-05 </wgt>
<wgt id='morphing_basis_vector_5'> +2.2834448e-05 </wgt>
</rwgt>
</event>
<event>
 4      1 +4.5322000e-10 3.95591900e+03 7.81860800e-03 7.54865100e-02
        2 -1    0    0  501    0 +0.0000000000e+00 +0.0000000000e+00 +1.6315991056e+03 1.6315991056e+03 0.0000000000e+00 0.0000e+00 1.0000e+00
       -2 -1    0    0    0  501 -0.0000000000e+00 -0.0000000000e+00 -2.3978457469e+03 2.3978457469e+03 0.0000000000e+00 0.0000e+00 -1.0000e+00
      -13  1    1    2    0    0 -1.6791664449e+03 +4.0189639738e+02 -1.3660472167e+03 2.2016370414e+03 0.0000000000e+00 0.0000e+00 -1.0000e+00
       13  1    1    2    0    0 +1.6791664449e+03 -4.0189639738e+02 +5.9980057546e+02 1.8278078111e+03 0.0000000000e+00 0.0000e+00 1.0000e+00
<mgrwt>
<rscale>  0 0.39559186E+04</rscale>
<asrwt>0</asrwt>
<pdfrwt beam="1">  1        2 0.25101525E+00 0.39559186E+04</pdfrwt>
<pdfrwt beam="2">  1       -2 0.36889935E+00 0.39559186E+04</pdfrwt>
<totfact> 0.89883119E-02</totfact>
</mgrwt>
<rwgt>
<wgt id='morphing_basis_vector_1'> +1.5159411e-05 </wgt>
<wgt id='morphing_basis_vector_2'> +1.0432357e-05 </wgt>
<wgt id='morphing_basis_vector_3'> +1.6673693e-05 </wgt>
<wgt id='morphing_basis_vector_4'> +1.1771718e-05 </wgt>
<wgt id='morphing_basis_vector_5'> +1.8996579e-05 </wgt>
</rwgt>
</event>
<event>
 4      1 +4.5322000e-10 4.01150800e+03 7.81860800e-03 7.53867400e-02
        2 -1    0    0  501    0 +0.0000000000e+00 +0.0000000000e+00 +2.3693739764e+03 2.3693739764e+03 0.0000000000e+00 0.0000e+00 -1.0000e+00
       -2 -1    0    0    0  501 -0.0000000000e+00 -0.0000000000e+00 -1.6979376738e+03 1.6979376738e+03 0.0000000000e+00 0.0000e+00 1.0000e+00
      -13  1    1    2    0    0 -1.8283977670e+03 +5.9045580103e+02 -2.4793960804e+02 1.9373049571e+03 0.0000000000e+00 0.0000e+00 1.0000e+00
       13  1    1    2    0    0 +1.8283977670e+03 -5.9045580103e+02 +9.1937591072e+02 2.1300066931e+03 0.0000000000e+00 0.0000e+00 -1.0000e+00
<mgrwt>
<rscale>  0 0.40115081E+04</rscale>
<asrwt>0</asrwt>
<pdfrwt beam="1">  1        2 0.36451907E+00 0.40115081E+04</pdfrwt>
<pdfrwt beam="2">  1       -2 0.26122118E+00 0.40115081E+04</pdfrwt>
<totfact> 0.17844824E-01</totfact>
</mgrwt>
<rwgt>
<wgt id='morphing_basis_vector_1'> +1.6142193e-05 </wgt>
<wgt id='morphing_basis_vector_2'> +1.1374347e-05 </wgt>
<wgt id='morphing_basis_vector_3'> +1.7818620e-05 </wgt>
<wgt id='morphing_basis_vector_4'> +1.2202973e-05 </wgt>
<wgt id='morphing_basis_vector_5'> +2.0072027e-05 </wgt>
</rwgt>
</event>
<event>
 4      1 +4.5322000e-10 3.99355400e+03 7.81860800e-03 7.54187800e-02
        2 -1    0    0  501    0 +0.0000000000e+00 +0.0000000000e+00 +2.3164817144e+03 2.3164817144e+03 0.0000000000e+00 0.0000e+00 -1.0000e+00
       -2 -1    0    0    0  501 -0.0000000000e+00 -0.0000000000e+00 -1.7211957597e+03 1.7211957597e+03 0.0000000000e+00 0.0000e+00 1.0000e+00
      -13  1    1    2    0    0 -1.2845240828e+03 -9.9164374271e+02 +1.4740097458e+03 2.1922737425e+03 0.0000000000e+00 0.0000e+00 1.0000e+00
       13  1    1    2    0    0 +1.2845240828e+03 +9.9164374271e+02 -8.7872379098e+02 1.8454037316e+03 0.0000000000e+00 0.0000e+00 -1.0000e+00
<mgrwt>
<rscale>  0 0.39935541E+04</rscale>
<asrwt>0</asrwt>
<pdfrwt beam="1">  1        2 0.35638180E+00 0.39935541E+04</pdfrwt>
<pdfrwt beam="2">  1       -2 0.26479935E+00 0.39935541E+04</pdfrwt>
<totfact> 0.18133114E-01</totfact>
</mgrwt>
<rwgt>
<wgt id='morphing_basis_vector_1'> +1.9228165e-05 </wgt>
<wgt id='morphing_basis_vector_2'> +2.1082914e-05 </wgt>
<wgt id='morphing_basis_vector_3'> +2.2910844e-05 </wgt>
<wgt id='morphing_basis_vector_4'> +4.8538353e-06 </wgt>
<wgt id='morphing_basis_vector_5'> +1.9119265e-05 </wgt>
</rwgt>
</event>
<event>
 4      1 +4.5322000e-10 4.59905900e+03 7.81860800e-03 7.44231400e-02
        2 -1    0    0  501    0 +0.0000000000e+00 +0.0000000000e+00 +2.0974293159e+03 2.0974293159e+03 0.0000000000e+00 0.0000e+00 1.0000e+00
       -2 -1    0    0    0  501 -0.0000000000e+00 -0.0000000000e+00 -2.5211034111e+03 2.5211034111e+03 0.0000000000e+00 0.0000e+00 -1.0000e+00
      -13  1    1    2    0    0 +4.6391912100e+02 -1.4569008124e+02 -2.4688833466e+03 2.5163130827e+03 0.0000000000e+00 0.0000e+00 -1.0000e+00
       13  1    1    2    0    0 -4.6391912100e+02 +1.4569008124e+02 +2.0452092514e+03 2.1022196443e+03 0.0000000000e+00 0.0000e+00 1.0000e+00
<mgrwt>
<rscale>  0 0.45990591E+04</rscale>
<asrwt>0</asrwt>
<pdfrwt beam="1">  1        2 0.32268143E+00 0.45990591E+04</pdfrwt>
<pdfrwt beam="2">  1       -2 0.38786206E+00 0.45990591E+04</pdfrwt>
<totfact> 0.35392990E-02</totfact>
</mgrwt>
<rwgt>
<wgt id='morphing_basis_vector_1'> +2.7486381e-05 </wgt>
<wgt id='morphing_basis_vector_2'> +1.8651102e-05 </wgt>
<wgt id='morphing_basis_vector_3'> +3.0242780e-05 </wgt>
<wgt id='morphing_basis_vector_4'> +2.1838502e-05 </wgt>
<wgt id='morphing_basis_vector_5'> +3.4817511e-05 </wgt>
</rwgt>
</event>
<event>
 4      1 +4.5322000e-10 3.89189400e+03 7.81860800e-03 7.56035000e-02
        2 -1    0    0  501    0 +0.0000000000e+00 +0.0000000000e+00 +3.4312777148e+03 3.4312777148e+03 0.0000000000e+00 0.0000e+00 -1.0000e+00
       -2 -1    0    0    0  501 -0.0000000000e+00 -0.0000000000e+00 -1.1035857217e+03 1.1035857217e+03 0.0000000000e+00 0.0000e+00 1.0000e+00
      -13  1    1    2    0    0 +8.0969891252e+02 +5.6277944839e+02 +3.1186098963e+03 3.2707890060e+03 0.0000000000e+00 0.0000e+00 -1.0000e+00
       13  1    1    2    0    0 -8.0969891252e+02 -5.6277944839e+02 -7.9091790314e+02 1.2640744305e+03 0.0000000000e+00 0.0000e+00 1.0000e+00
<mgrwt>
<rscale>  0 0.38918937E+04</rscale>
<asrwt>0</asrwt>
<pdfrwt beam="1">  1        2 0.52788887E+00 0.38918937E+04</pdfrwt>
<pdfrwt beam="2">  1       -2 0.16978242E+00 0.38918937E+04</pdfrwt>
<totfact> 0.17004710E-01</totfact>
</mgrwt>
<rwgt>
<wgt id='morphing_basis_vector_1'> +1.9133876e-05 </wgt>
<wgt id='morphing_basis_vector_2'> +2.4260025e-05 </wgt>
<wgt id='morphing_basis_vector_3'> +2.3512195e-05 </wgt>
<wgt id='morphing_basis_vector_4'> +6.1383635e-07 </wgt>
<wgt id='morphing_basis_vector_5'> +1.6923841e-05 </wgt>
</rwgt>
</event>
<event>
 4      1 +4.5322000e-10 4.59819000e+03 7.81860800e-03 7.44244600e-02
        2 -1    0    0  501    0 +0.0000000000e+00 +0.0000000000e+00 +1.5179879659e+03 1.5179879659e+03 0.0000000000e+00 0.0000e+00 -1.0000e+00
       -2 -1    0    0    0  501 -0.0000000000e+00 -0.0000000000e+00 -3.4821348040e+03 3.4821348040e+03 0.0000000000e+00 0.0000e+00 1.0000e+00
      -13  1    1    2    0    0 +9.5074380390e+02 +8.9861554190e+02 -3.0379460654e+03 3.3076487070e+03 0.0000000000e+00 0.0000e+00 1.0000e+00
       13  1    1    2    0    0 -9.5074380390e+02 -8.9861554190e+02 +1.0737992273e+03 1.6924740629e+03 0.0000000000e+00 0.0000e+00 -1.0000e+00
<mgrwt>
<rscale>  0 0.45981904E+04</rscale>
<asrwt>0</asrwt>
<pdfrwt beam="1">  1        2 0.23353661E+00 0.45981904E+04</pdfrwt>
<pdfrwt beam="2">  1       -2 0.53571304E+00 0.45981904E+04</pdfrwt>
<totfact> 0.67181295E-03</totfact>
</mgrwt>
<rwgt>
<wgt id='morphing_basis_vector_1'> +2.7476207e-05 </wgt>
<wgt id='morphing_basis_vector_2'> +1.8667901e-05 </wgt>
<wgt id='morphing_basis_vector_3'> +3.0236931e-05 </wgt>
<wgt id='morphing_basis_vector_4'> +2.1799610e-05 </wgt>
<wgt id='morphing_basis_vector_5'> +3.4789244e-05 </wgt>
</rwgt>
</event>
<event>
 4      1 +4.5322000e-10 4.55508100e+03 7.81860800e-03 7.44901000e-02
        2 -1    0    0  501    0 +0.0000000000e+00 +0.0000000000e+00 +3.4135289321e+03 3.4135289321e+03 0.0000000000e+00 0.0000e+00 1.0000e+00
       -2 -1    0    0    0  501 -0.0000000000e+00 -0.0000000000e+00 -1.5195975101e+03 1.5195975101e+03 0.0000000000e+00 0.0000e+00 -1.0000e+00
      -13  1    1    2    0    0 -2.1146721303e+03 +3.0398311668e+02 +1.8017399216e+03 2.7947290922e+03 0.0000000000e+00 0.0000e+00 -1.0000e+00
       13  1    1    2    0    0 +2.1146721303e+03 -3.0398311668e+02 +9.2191500386e+01 2.1383973500e+03 0.0000000000e+00 0.0000e+00 1.0000e+00
<mgrwt>
<rscale>  0 0.45550807E+04</rscale>
<asrwt>0</asrwt>
<pdfrwt beam="1">  1        2 0.52515829E+00 0.45550807E+04</pdfrwt>
<pdfrwt beam="2">  1       -2 0.23378423E+00 0.45550807E+04</pdfrwt>
<totfact> 0.56454819E-02</totfact>
</mgrwt>
<rwgt>
<wgt id='morphing_basis_vector_1'> +2.9580545e-05 </wgt>
<wgt id='morphing_basis_vector_2'> +2.7133656e-05 </wgt>
<wgt id='morphing_basis_vector_3'> +3.4155679e-05 </wgt>
<wgt id='morphing_basis_vector_4'> +1.4368063e-05 </wgt>
<wgt id='morphing_basis_vector_5'> +3.2944123e-05 </wgt>
</rwgt>
</event>
<event>
 4      1 +4.5322000e-10 4.37267700e+03 7.81860800e-03 7.47761700e-02
        2 -1    0    0  501    0 +0.0000000000e+00 +0.0000000000e+00 +2.5482464321e+03 2.5482464321e+03 0.0000000000e+00 0.0000e+00 -1.0000e+00
       -2 -1    0    0    0  501 -0.0000000000e+00 -0.0000000000e+00 -1.8758296656e+03 1.8758296656e+03 0.0000000000e+00 0.0000e+00 1.0000e+00
      -13  1    1    2    0    0 -1.5614799906e+03 -1.5267210213e+03 +4.4222276094e+02 2.2281512086e+03 0.0000000000e+00 0.0000e+00 1.0000e+00
       13  1    1    2    0    0 +1.5614799906e+03 +1.5267210213e+03 +2.3019400553e+02 2.1959248890e+03 0.0000000000e+00 0.0000e+00 -1.0000e+00
<mgrwt>
<rscale>  0 0.43726771E+04</rscale>
<asrwt>0</asrwt>
<pdfrwt beam="1">  1        2 0.39203791E+00 0.43726771E+04</pdfrwt>
<pdfrwt beam="2">  1       -2 0.28858918E+00 0.43726771E+04</pdfrwt>
<totfact> 0.88317533E-02</totfact>
</mgrwt>
<rwgt>
<wgt id='morphing_basis_vector_1'> +2.3460954e-05 </wgt>
<wgt id='morphing_basis_vector_2'> +1.8129369e-05 </wgt>
<wgt id='morphing_basis_vector_3'> +2.6297589e-05 </wgt>
<wgt id='morphing_basis_vector_4'> +1.5749374e-05 </wgt>
<wgt id='morphing_basis_vector_5'> +2.8255246e-05 </wgt>
</rwgt>
</event>
<event>
 4      1 +4.5322000e-10 4.50635200e+03 7.81860800e-03 7.45651800e-02
        2 -1    0    0  501    0 +0.0000000000e+00 +0.0000000000e+00 +3.3898710479e+03 3.3898710479e+03 0.0000000000e+00 0.0000e+00 -1.0000e+00
       -2 -1    0    0    0  501 -0.0000000000e+00 -0.0000000000e+00 -1.4976386499e+03 1.4976386499e+03 0.0000000000e+00 0.0000e+00 1.0000e+00
      -13  1    1    2    0    0 -6.7966148793e+02 +2.1350958630e+03 +6.8893563785e+02 2.3441856572e+03 0.0000000000e+00 0.0000e+00 1.0000e+00
       13  1    1    2    0    0 +6.7966148793e+02 -2.1350958630e+03 +1.2032967601e+03 2.5433240406e+03 0.0000000000e+00 0.0000e+00 -1.0000e+00
<mgrwt>
<rscale>  0 0.45063519E+04</rscale>
<asrwt>0</asrwt>
<pdfrwt beam="1">  1        2 0.52151862E+00 0.45063519E+04</pdfrwt>
<pdfrwt beam="2">  1       -2 0.23040595E+00 0.45063519E+04</pdfrwt>
<totfact> 0.62222064E-02</totfact>
</mgrwt>
<rwgt>
<wgt id='morphing_basis_vector_1'> +2.5977119e-05 </wgt>
<wgt id='morphing_basis_vector_2'> +1.9053052e-05 </wgt>
<wgt id='morphing_basis_vector_3'> +2.8899616e-05 </wgt>
<wgt id='morphing_basis_vector_4'> +1.8779954e-05 </wgt>
<wgt id='morphing_basis_vector_5'> +3.1971479e-05 </wgt>
</rwgt>
</event>
<event>
 4      1 +4.5322000e-10 4.32224000e+03 7.81860800e-03 7.48577700e-02
        2 -1    0    0  501    0 +0.0000000000e+00 +0.0000000000e+00 +2.1339103906e+03 2.1339103906e+03 0.0000000000e+00 0.0000e+00 1.0000e+00
       -2 -1    0    0    0  501 -0.0000000000e+00 -0.0000000000e+00 -2.1886763643e+03 2.1886763643e+03 0.0000000000e+00 0.0000e+00 -1.0000e+00
      -13  1    1    2    0    0 +9.2438000843e+02 -1.7394160114e+03 -9.1649471807e+02 2.1725581762e+03 0.0000000000e+00 0.0000e+00 -1.0000e+00
       13  1    1    2    0    0 -9.2438000843e+02 +1.7394160114e+03 +8.6172874437e+02 2.1500285788e+03 0.0000000000e+00 0.0000e+00 1.0000e+00
<mgrwt>
<rscale>  0 0.43222398E+04</rscale>
<asrwt>0</asrwt>
<pdfrwt beam="1">  1        2 0.32829391E+00 0.43222398E+04</pdfrwt>
<pdfrwt beam="2">  1       -2 0.33671944E+00 0.43222398E+04</pdfrwt>
<totfact> 0.73848982E-02</totfact>
</mgrwt>
<rwgt>
<wgt id='morphing_basis_vector_1'> +2.1614099e-05 </wgt>
<wgt id='morphing_basis_vector_2'> +1.4995207e-05 </wgt>
<wgt id='morphing_basis_vector_3'> +2.3835503e-05 </wgt>
<wgt id='morphing_basis_vector_4'> +1.6702925e-05 </wgt>
<wgt id='morphing_basis_vector_5'> +2.7108299e-05 </wgt>
</rwgt>
</event>
<event>
 4      1 +4.5322000e-10 3.92201200e+03 7.81860800e-03 7.55481800e-02
        2 -1    0    0  501    0 +0.0000000000e+00 +0.0000000000e+00 +2.3434730033e+03 2.3434730033e+03 0.0000000000e+00 0.0000e+00 -1.0000e+00
       -2 -1    0    0    0  501 -0.0000000000e+00 -0.0000000000e+00 -1.6409594683e+03 1.6409594683e+03 0.0000000000e+00 0.0000e+00 1.0000e+00
      -13  1    1    2    0    0 -1.2353807625e+03 +8.5502783887e+02 -9.2908129364e+02 1.7664739692e+03 0.0000000000e+00 0.0000e+00 1.0000e+00
       13  1    1    2    0    0 +1.2353807625e+03 -8.5502783887e+02 +1.6315948286e+03 2.2179585024e+03 0.0000000000e+00 0.0000e+00 -1.0000e+00
<mgrwt>
<rscale>  0 0.39220118E+04</rscale>
<asrwt>0</asrwt>
<pdfrwt beam="1">  1        2 0.36053431E+00 0.39220118E+04</pdfrwt>
<pdfrwt beam="2">  1       -2 0.25245530E+00 0.39220118E+04</pdfrwt>
<totfact> 0.21386652E-01</totfact>
</mgrwt>
<rwgt>
<wgt id='morphing_basis_vector_1'> +1.4607391e-05 </wgt>
<wgt id='morphing_basis_vector_2'> +9.9577406e-06 </wgt>
<wgt id='morphing_basis_vector_3'> +1.6042855e-05 </wgt>
<wgt id='morphing_basis_vector_4'> +1.1459245e-05 </wgt>
<wgt id='morphing_basis_vector_5'> +1.8357702e-05 </wgt>
</rwgt>
</event>
<event>
 4      1 +4.5322000e-10 4.05723100e+03 7.81860800e-03 7.53059100e-02
        2 -1    0    0  501    0 +0.0000000000e+00 +0.0000000000e+00 +1.7752268214e+03 1.7752268214e+03 0.0000000000e+00 0.0000e+00 1.0000e+00
       -2 -1    0    0    0  501 -0.0000000000e+00 -0.0000000000e+00 -2.3181716489e+03 2.3181716489e+03 0.0000000000e+00 0.0000e+00 -1.0000e+00
      -13  1    1    2    0    0 +1.6287206715e+03 +1.2042586752e+03 -3.8341420349e+02 2.0615470972e+03 0.0000000000e+00 0.0000e+00 1.0000e+00
       13  1    1    2    0    0 -1.6287206715e+03 -1.2042586752e+03 -1.5953062403e+02 2.0318513732e+03 0.0000000000e+00 0.0000e+00 -1.0000e+00
<mgrwt>
<rscale>  0 0.40572308E+04</rscale>
<asrwt>0</asrwt>
<pdfrwt beam="1">  1        2 0.27311182E+00 0.40572308E+04</pdfrwt>
<pdfrwt beam="2">  1       -2 0.35664179E+00 0.40572308E+04</pdfrwt>
<totfact> 0.88954791E-02</totfact>
</mgrwt>
<rwgt>
<wgt id='morphing_basis_vector_1'> +1.7187532e-05 </wgt>
<wgt id='morphing_basis_vector_2'> +1.2784093e-05 </wgt>
<wgt id='morphing_basis_vector_3'> +1.9127547e-05 </wgt>
<wgt id='morphing_basis_vector_4'> +1.2135532e-05 </wgt>
<wgt id='morphing_basis_vector_5'> +2.0954516e-05 </wgt>
</rwgt>
</event>
<event>
 4      1 +4.5322000e-10 4.14714900e+03 7.81860800e-03 7.51500500e-02
        2 -1    0    0  501    0 +0.0000000000e+00 +0.0000000000e+00 +2.0800580661e+03 2.0800580661e+03 0.0000000000e+00 0.0000e+00 -1.0000e+00
       -2 -1    0    0    0  501 -0.0000000000e+00 -0.0000000000e+00 -2.0671109503e+03 2.0671109503e+03 0.0000000000e+00 0.0000e+00 1.0000e+00
      -13  1    1    2    0    0 +1.3274968470e+03 +1.5278042723e+03 -4.4439118203e+02 2.0721769461e+03 0.0000000000e+00 0.0000e+00 1.0000e+00
       13  1    1    2    0    0 -1.3274968470e+03 -1.5278042723e+03 +4.5733829785e+02 2.0749920703e+03 0.0000000000e+00 0.0000e+00 -1.0000e+00
<mgrwt>
<rscale>  0 0.41471488E+04</rscale>
<asrwt>0</asrwt>
<pdfrwt beam="1">  1        2 0.32000893E+00 0.41471488E+04</pdfrwt>
<pdfrwt beam="2">  1       -2 0.31801707E+00 0.41471488E+04</pdfrwt>
<totfact> 0.10681701E-01</totfact>
</mgrwt>
<rwgt>
<wgt id='morphing_basis_vector_1'> +1.8499742e-05 </wgt>
<wgt id='morphing_basis_vector_2'> +1.3203739e-05 </wgt>
<wgt id='morphing_basis_vector_3'> +2.0470810e-05 </wgt>
<wgt id='morphing_basis_vector_4'> +1.3792784e-05 </wgt>
<wgt id='morphing_basis_vector_5'> +2.2929222e-05 </wgt>
</rwgt>
</event>
<event>
 4      1 +4.5322000e-10 3.86849500e+03 7.81860800e-03 7.56468400e-02
        2 -1    0    0  501    0 +0.0000000000e+00 +0.0000000000e+00 +2.5879005075e+03 2.5879005075e+03 0.0000000000e+00 0.0000e+00 1.0000e+00
       -2 -1    0    0    0  501 -0.0000000000e+00 -0.0000000000e+00 -1.4456943266e+03 1.4456943266e+03 0.0000000000e+00 0.0000e+00 -1.0000e+00
      -13  1    1    2    0    0 +1.5923295105e+03 -2.4419230722e+02 +1.6873872325e+03 2.3328992317e+03 0.0000000000e+00 0.0000e+00 1.0000e+00
       13  1    1    2    0    0 -1.5923295105e+03 +2.4419230722e+02 -5.4518105158e+02 1.7006956024e+03 0.0000000000e+00 0.0000e+00 -1.0000e+00
<mgrwt>
<rscale>  0 0.38684948E+04</rscale>
<asrwt>0</asrwt>
<pdfrwt beam="1">  1        2 0.39813854E+00 0.38684948E+04</pdfrwt>
<pdfrwt beam="2">  1       -2 0.22241451E+00 0.38684948E+04</pdfrwt>
<totfact> 0.24918153E-01</totfact>
</mgrwt>
<rwgt>
<wgt id='morphing_basis_vector_1'> +1.6728430e-05 </wgt>
<wgt id='morphing_basis_vector_2'> +1.7946344e-05 </wgt>
<wgt id='morphing_basis_vector_3'> +1.9824930e-05 </wgt>
<wgt id='morphing_basis_vector_4'> +4.7220357e-06 </wgt>
<wgt id='morphing_basis_vector_5'> +1.6861663e-05 </wgt>
</rwgt>
</event>
<event>
 4      1 +4.5322000e-10 4.15517900e+03 7.81860800e-03 7.51363300e-02
        2 -1    0    0  501    0 +0.0000000000e+00 +0.0000000000e+00 +3.8014673563e+03 3.8014673563e+03 0.0000000000e+00 0.0000e+00 -1.0000e+00
       -2 -1    0    0    0  501 -0.0000000000e+00 -0.0000000000e+00 -1.1354506279e+03 1.1354506279e+03 0.0000000000e+00 0.0000e+00 1.0000e+00
      -13  1    1    2    0    0 +1.6695725619e+03 -1.2328533464e+03 +1.4455906520e+03 2.5292552751e+03 0.0000000000e+00 0.0000e+00 1.0000e+00
       13  1    1    2    0    0 -1.6695725619e+03 +1.2328533464e+03 +1.2204260764e+03 2.4076627092e+03 0.0000000000e+00 0.0000e+00 -1.0000e+00
<mgrwt>
<rscale>  0 0.41551792E+04</rscale>
<asrwt>0</asrwt>
<pdfrwt beam="1">  1        2 0.58484113E+00 0.41551792E+04</pdfrwt>
<pdfrwt beam="2">  1       -2 0.17468471E+00 0.41551792E+04</pdfrwt>
<totfact> 0.79942600E-02</totfact>
</mgrwt>
<rwgt>
<wgt id='morphing_basis_vector_1'> +1.9140973e-05 </wgt>
<wgt id='morphing_basis_vector_2'> +1.4770244e-05 </wgt>
<wgt id='morphing_basis_vector_3'> +2.1431038e-05 </wgt>
<wgt id='morphing_basis_vector_4'> +1.2845020e-05 </wgt>
<wgt id='morphing_basis_vector_5'> +2.3020117e-05 </wgt>
</rwgt>
</event>
<event>
 4      1 +4.5322000e-10 4.08054300e+03 7.81860800e-03 7.52651100e-02
        2 -1    0    0  501    0 +0.0000000000e+00 +0.0000000000e+00 +3.7834994739e+03 3.7834994739e+03 0.0000000000e+00 0.0000e+00 -1.0000e+00
       -2 -1    0    0    0  501 -0.0000000000e+00 -0.0000000000e+00 -1.1002269260e+03 1.1002269260e+03 0.0000000000e+00 0.0000e+00 1.0000e+00
      -13  1    1    2    0    0 -1.6260499501e+03 +5.2817649843e+02 +9.0617487431e+00 1.7097049363e+03 0.0000000000e+00 0.0000e+00 1.0000e+00
       13  1    1    2    0    0 +1.6260499501e+03 -5.2817649843e+02 +2.6742107991e+03 3.1740214637e+03 0.0000000000e+00 0.0000e+00 -1.0000e+00
<mgrwt>
<rscale>  0 0.40805431E+04</rscale>
<asrwt>0</asrwt>
<pdfrwt beam="1">  1        2 0.58207684E+00 0.40805431E+04</pdfrwt>
<pdfrwt beam="2">  1       -2 0.16926568E+00 0.40805431E+04</pdfrwt>
<totfact> 0.91573820E-02</totfact>
</mgrwt>
<rwgt>
<wgt id='morphing_basis_vector_1'> +1.7129192e-05 </wgt>
<wgt id='morphing_basis_vector_2'> +1.1743058e-05 </wgt>
<wgt id='morphing_basis_vector_3'> +1.8840414e-05 </wgt>
<wgt id='morphing_basis_vector_4'> +1.3380928e-05 </wgt>
<wgt id='morphing_basis_vector_5'> +2.1522892e-05 </wgt>
</rwgt>
</event>
<event>
 4      1 +4.5322000e-10 4.02242900e+03 7.81860800e-03 7.53673300e-02
        2 -1    0    0  501    0 +0.0000000000e+00 +0.0000000000e+00 +2.7048337429e+03 2.7048337429e+03 0.0000000000e+00 0.0000e+00 -1.0000e+00
       -2 -1    0    0    0  501 -0.0000000000e+00 -0.0000000000e+00 -1.4954647108e+03 1.4954647108e+03 0.0000000000e+00 0.0000e+00 1.0000e+00
      -13  1    1    2    0    0 +1.5602623862e+03 -6.2896170633e+02 -5.4631434435e+02 1.7687484006e+03 0.0000000000e+00 0.0000e+00 1.0000e+00
       13  1    1    2    0    0 -1.5602623862e+03 +6.2896170633e+02 +1.7556833764e+03 2.4315500530e+03 0.0000000000e+00 0.0000e+00 -1.0000e+00
<mgrwt>
<rscale>  0 0.40224288E+04</rscale>
<asrwt>0</asrwt>
<pdfrwt beam="1">  1        2 0.41612827E+00 0.40224288E+04</pdfrwt>
<pdfrwt beam="2">  1       -2 0.23007149E+00 0.40224288E+04</pdfrwt>
<totfact> 0.18433246E-01</totfact>
</mgrwt>
<rwgt>
<wgt id='morphing_basis_vector_1'> +1.6177935e-05 </wgt>
<wgt id='morphing_basis_vector_2'> +1.1087363e-05 </wgt>
<wgt id='morphing_basis_vector_3'> +1.7788945e-05 </wgt>
<wgt id='morphing_basis_vector_4'> +1.2632931e-05 </wgt>
<wgt id='morphing_basis_vector_5'> +2.0317232e-05 </wgt>
</rwgt>
</event>
<event>
 4      1 +4.5322000e-10 4.22573500e+03 7.81860800e-03 7.50170900e-02
        2 -1    0    0  501    0 +0.0000000000e+00 +0.0000000000e+00 +1.7291098256e+03 1.7291098256e+03 0.0000000000e+00 0.0000e+00 -1.0000e+00
       -2 -1    0    0    0  501 -0.0000000000e+00 -0.0000000000e+00 -2.5817965595e+03 2.5817965595e+03 0.0000000000e+00 0.0000e+00 1.0000e+00
      -13  1    1    2    0    0 -1.6465923049e+03 -6.1863064329e+02 -1.6205090107e+03 2.3916562347e+03 0.0000000000e+00 0.0000e+00 1.0000e+00
       13  1    1    2    0    0 +1.6465923049e+03 +6.1863064329e+02 +7.6782227677e+02 1.9192501505e+03 0.0000000000e+00 0.0000e+00 -1.0000e+00
<mgrwt>
<rscale>  0 0.42257353E+04</rscale>
<asrwt>0</asrwt>
<pdfrwt beam="1">  1        2 0.26601690E+00 0.42257353E+04</pdfrwt>
<pdfrwt beam="2">  1       -2 0.39719947E+00 0.42257353E+04</pdfrwt>
<totfact> 0.50981902E-02</totfact>
</mgrwt>
<rwgt>
<wgt id='morphing_basis_vector_1'> +1.9684104e-05 </wgt>
<wgt id='morphing_basis_vector_2'> +1.3492825e-05 </wgt>
<wgt id='morphing_basis_vector_3'> +2.1662545e-05 </wgt>
<wgt id='morphing_basis_vector_4'> +1.5405818e-05 </wgt>
<wgt id='morphing_basis_vector_5'> +2.4770067e-05 </wgt>
</rwgt>
</event>
<event>
 4      1 +4.5322000e-10 3.97927300e+03 7.81860800e-03 7.54443900e-02
        2 -1    0    0  501    0 +0.0000000000e+00 +0.0000000000e+00 +2.0391424338e+03 2.0391424338e+03 0.0000000000e+00 0.0000e+00 -1.0000e+00
       -2 -1    0    0    0  501 -0.0000000000e+00 -0.0000000000e+00 -1.9413322300e+03 1.9413322300e+03 0.0000000000e+00 0.0000e+00 1.0000e+00
      -13  1    1    2    0    0 +1.4640833805e+03 -6.7217178080e+02 -1.1190510391e+03 1.9615377325e+03 0.0000000000e+00 0.0000e+00 1.0000e+00
       13  1    1    2    0    0 -1.4640833805e+03 +6.7217178080e+02 +1.2168612429e+03 2.0189369313e+03 0.0000000000e+00 0.0000e+00 -1.0000e+00
<mgrwt>
<rscale>  0 0.39792728E+04</rscale>
<asrwt>0</asrwt>
<pdfrwt beam="1">  1        2 0.31371422E+00 0.39792728E+04</pdfrwt>
<pdfrwt beam="2">  1       -2 0.29866650E+00 0.39792728E+04</pdfrwt>
<totfact> 0.15390938E-01</totfact>
</mgrwt>
<rwgt>
<wgt id='morphing_basis_vector_1'> +1.5487354e-05 </wgt>
<wgt id='morphing_basis_vector_2'> +1.0588306e-05 </wgt>
<wgt id='morphing_basis_vector_3'> +1.7020590e-05 </wgt>
<wgt id='morphing_basis_vector_4'> +1.2119796e-05 </wgt>
<wgt id='morphing_basis_vector_5'> +1.9456985e-05 </wgt>
</rwgt>
</event>
<event>
 4      1 +4.5322000e-10 4.33554100e+03 7.81860800e-03 7.48361400e-02
        2 -1    0    0  501    0 +0.0000000000e+00 +0.0000000000e+00 +1.9310485110e+03 1.9310485110e+03 0.0000000000e+00 0.0000e+00 1.0000e+00
       -2 -1    0    0    0  501 -0.0000000000e+00 -0.0000000000e+00 -2.4335115767e+03 2.4335115767e+03 0.0000000000e+00 0.0000e+00 -1.0000e+00
      -13  1    1    2    0    0 +1.5261144124e+03 -1.2063441677e+03 -1.2141574691e+03 2.2931353668e+03 0.0000000000e+00 0.0000e+00 -1.0000e+00
       13  1    1    2    0    0 -1.5261144124e+03 +1.2063441677e+03 +7.1169440345e+02 2.0714247209e+03 0.0000000000e+00 0.0000e+00 1.0000e+00
<mgrwt>
<rscale>  0 0.43355410E+04</rscale>
<asrwt>0</asrwt>
<pdfrwt beam="1">  1        2 0.29708439E+00 0.43355410E+04</pdfrwt>
<pdfrwt beam="2">  1       -2 0.37438640E+00 0.43355410E+04</pdfrwt>
<totfact> 0.54774628E-02</totfact>
</mgrwt>
<rwgt>
<wgt id='morphing_basis_vector_1'> +2.1859968e-05 </wgt>
<wgt id='morphing_basis_vector_2'> +1.5120823e-05 </wgt>
<wgt id='morphing_basis_vector_3'> +2.4097572e-05 </wgt>
<wgt id='morphing_basis_vector_4'> +1.6953287e-05 </wgt>
<wgt id='morphing_basis_vector_5'> +2.7448546e-05 </wgt>
</rwgt>
</event>
<event>
 4      1 +4.5322000e-10 4.07460500e+03 7.81860800e-03 7.52754700e-02
        2 -1    0    0  501    0 +0.0000000000e+00 +0.0000000000e+00 +1.6344220622e+03 1.6344220622e+03 0.0000000000e+00 0.0000e+00 -1.0000e+00
       -2 -1    0    0    0  501 -0.0000000000e+00 -0.0000000000e+00 -2.5394914313e+03 2.5394914313e+03 0.0000000000e+00 0.0000e+00 1.0000e+00
      -13  1    1    2    0    0 -7.9975184430e+00 -6.4587438101e+02 -2.4318238418e+03 2.5161448436e+03 0.0000000000e+00 0.0000e+00 1.0000e+00
       13  1    1    2    0    0 +7.9975184430e+00 +6.4587438101e+02 +1.5267544728e+03 1.6577686499e+03 0.0000000000e+00 0.0000e+00 -1.0000e+00
<mgrwt>
<rscale>  0 0.40746047E+04</rscale>
<asrwt>0</asrwt>
<pdfrwt beam="1">  1        2 0.25144955E+00 0.40746047E+04</pdfrwt>
<pdfrwt beam="2">  1       -2 0.39069099E+00 0.40746047E+04</pdfrwt>
<totfact> 0.64208919E-02</totfact>
</mgrwt>
<rwgt>
<wgt id='morphing_basis_vector_1'> +1.6971379e-05 </wgt>
<wgt id='morphing_basis_vector_2'> +1.1502145e-05 </wgt>
<wgt id='morphing_basis_vector_3'> +1.8636547e-05 </wgt>
<wgt id='morphing_basis_vector_4'> +1.3427325e-05 </wgt>
<wgt id='morphing_basis_vector_5'> +2.1407658e-05 </wgt>
</rwgt>
</event>
<event>
 4      1 +4.5322000e-10 4.31844400e+03 7.81860800e-03 7.48639600e-02
        2 -1    0    0  501    0 +0.0000000000e+00 +0.0000000000e+00 +1.6119314683e+03 1.6119314683e+03 0.0000000000e+00 0.0000e+00 1.0000e+00
       -2 -1    0    0    0  501 -0.0000000000e+00 -0.0000000000e+00 -2.8923305971e+03 2.8923305971e+03 0.0000000000e+00 0.0000e+00 -1.0000e+00
      -13  1    1    2    0    0 +2.2257594366e+02 +1.9088269459e+03 +3.8657676178e+02 1.9602555835e+03 0.0000000000e+00 0.0000e+00 1.0000e+00
       13  1    1    2    0    0 -2.2257594366e+02 -1.9088269459e+03 -1.6669758906e+03 2.5440064819e+03 0.0000000000e+00 0.0000e+00 -1.0000e+00
<mgrwt>
<rscale>  0 0.43184436E+04</rscale>
<asrwt>0</asrwt>
<pdfrwt beam="1">  1        2 0.24798946E+00 0.43184436E+04</pdfrwt>
<pdfrwt beam="2">  1       -2 0.44497393E+00 0.43184436E+04</pdfrwt>
<totfact> 0.28220260E-02</totfact>
</mgrwt>
<rwgt>
<wgt id='morphing_basis_vector_1'> +2.4887195e-05 </wgt>
<wgt id='morphing_basis_vector_2'> +2.4781915e-05 </wgt>
<wgt id='morphing_basis_vector_3'> +2.9148832e-05 </wgt>
<wgt id='morphing_basis_vector_4'> +9.5406802e-06 </wgt>
<wgt id='morphing_basis_vector_5'> +2.6419524e-05 </wgt>
</rwgt>
</event>
<event>
 4      1 +4.5322000e-10 4.16063300e+03 7.81860800e-03 7.51270300e-02
        2 -1    0    0  501    0 +0.0000000000e+00 +0.0000000000e+00 +2.6224917217e+03 2.6224917217e+03 0.0000000000e+00 0.0000e+00 -1.0000e+00
       -2 -1    0    0    0  501 -0.0000000000e+00 -0.0000000000e+00 -1.6502311228e+03 1.6502311228e+03 0.0000000000e+00 0.0000e+00 1.0000e+00
      -13  1    1    2    0    0 -1.1113656806e+03 -1.4806584659e+01 -1.3197569021e+03 1.7254307264e+03 0.0000000000e+00 0.0000e+00 1.0000e+00
       13  1    1    2    0    0 +1.1113656806e+03 +1.4806584659e+01 +2.2920175009e+03 2.5472921182e+03 0.0000000000e+00 0.0000e+00 -1.0000e+00
<mgrwt>
<rscale>  0 0.41606333E+04</rscale>
<asrwt>0</asrwt>
<pdfrwt beam="1">  1        2 0.40346026E+00 0.41606333E+04</pdfrwt>
<pdfrwt beam="2">  1       -2 0.25388171E+00 0.41606333E+04</pdfrwt>
<totfact> 0.13986085E-01</totfact>
</mgrwt>
<rwgt>
<wgt id='morphing_basis_vector_1'> +1.8448005e-05 </wgt>
<wgt id='morphing_basis_vector_2'> +1.2516731e-05 </wgt>
<wgt id='morphing_basis_vector_3'> +2.0268115e-05 </wgt>
<wgt id='morphing_basis_vector_4'> +1.4593227e-05 </wgt>
<wgt id='morphing_basis_vector_5'> +2.3281950e-05 </wgt>
</rwgt>
</event>
<event>
 4      1 +4.5322000e-10 3.85979300e+03 7.81860800e-03 7.56630300e-02
        2 -1    0    0  501    0 +0.0000000000e+00 +0.0000000000e+00 +2.0085652453e+03 2.0085652453e+03 0.0000000000e+00 0.0000e+00 -1.0000e+00
       -2 -1    0    0    0  501 -0.0000000000e+00 -0.0000000000e+00 -1.8543089555e+03 1.8543089555e+03 0.0000000000e+00 0.0000e+00 1.0000e+00
      -13  1    1    2    0    0 -3.6792255922e+02 -5.1140134488e+02 -1.7484996934e+03 1.8585342405e+03 0.0000000000e+00 0.0000e+00 1.0000e+00
       13  1    1    2    0    0 +3.6792255922e+02 +5.1140134488e+02 +1.9027559832e+03 2.0043399604e+03 0.0000000000e+00 0.0000e+00 -1.0000e+00
<mgrwt>
<rscale>  0 0.38597930E+04</rscale>
<asrwt>0</asrwt>
<pdfrwt beam="1">  1        2 0.30901004E+00 0.38597930E+04</pdfrwt>
<pdfrwt beam="2">  1       -2 0.28527830E+00 0.38597930E+04</pdfrwt>
<totfact> 0.19922640E-01</totfact>
</mgrwt>
<rwgt>
<wgt id='morphing_basis_vector_1'> +1.3681186e-05 </wgt>
<wgt id='morphing_basis_vector_2'> +9.2660473e-06 </wgt>
<wgt id='morphing_basis_vector_3'> +1.5007759e-05 </wgt>
<wgt id='morphing_basis_vector_4'> +1.0800283e-05 </wgt>
<wgt id='morphing_basis_vector_5'> +1.7218988e-05 </wgt>
</rwgt>
</event>
<event>
 4      1 +4.5322000e-10 4.42297200e+03 7.81860800e-03 7.46959000e-02
        2 -1    0    0  501    0 +0.0000000000e+00 +0.0000000000e+00 +3.4401545423e+03 3.4401545423e+03 0.0000000000e+00 0.0000e+00 -1.0000e+00
       -2 -1    0    0    0  501 -0.0000000000e+00 -0.0000000000e+00 -1.4216425428e+03 1.4216425428e+03 0.0000000000e+00 0.0000e+00 1.0000e+00
      -13  1    1    2    0    0 +1.4168988002e+03 +1.6976104856e+03 +1.0471188205e+03 2.4466183591e+03 0.0000000000e+00 0.0000e+00 1.0000e+00
       13  1    1    2    0    0 -1.4168988002e+03 -1.6976104856e+03 +9.7139317893e+02 2.4151787261e+03 0.0000000000e+00 0.0000e+00 -1.0000e+00
<mgrwt>
<rscale>  0 0.44229719E+04</rscale>
<asrwt>0</asrwt>
<pdfrwt beam="1">  1        2 0.52925454E+00 0.44229719E+04</pdfrwt>
<pdfrwt beam="2">  1       -2 0.21871424E+00 0.44229719E+04</pdfrwt>
<totfact> 0.69711603E-02</totfact>
</mgrwt>
<rwgt>
<wgt id='morphing_basis_vector_1'> +2.4442669e-05 </wgt>
<wgt id='morphing_basis_vector_2'> +1.8647900e-05 </wgt>
<wgt id='morphing_basis_vector_3'> +2.7348634e-05 </wgt>
<wgt id='morphing_basis_vector_4'> +1.6726682e-05 </wgt>
<wgt id='morphing_basis_vector_5'> +2.9603130e-05 </wgt>
</rwgt>
</event>
<event>
 4      1 +4.5322000e-10 3.92044700e+03 7.81860800e-03 7.55510500e-02
        2 -1    0    0  501    0 +0.0000000000e+00 +0.0000000000e+00 +2.6152796607e+03 2.6152796607e+03 0.0000000000e+00 0.0000e+00 -1.0000e+00
       -2 -1    0    0    0  501 -0.0000000000e+00 -0.0000000000e+00 -1.4692408759e+03 1.4692408759e+03 0.0000000000e+00 0.0000e+00 1.0000e+00
      -13  1    1    2    0    0 -3.3713858086e+00 +7.0834180803e+02 -1.3312365380e+03 1.5079622686e+03 0.0000000000e+00 0.0000e+00 1.0000e+00
       13  1    1    2    0    0 +3.3713858086e+00 -7.0834180803e+02 +2.4772753229e+03 2.5765582680e+03 0.0000000000e+00 0.0000e+00 -1.0000e+00
<mgrwt>
<rscale>  0 0.39204468E+04</rscale>
<asrwt>0</asrwt>
<pdfrwt beam="1">  1        2 0.40235072E+00 0.39204468E+04</pdfrwt>
<pdfrwt beam="2">  1       -2 0.22603706E+00 0.39204468E+04</pdfrwt>
<totfact> 0.22514764E-01</totfact>
</mgrwt>
<rwgt>
<wgt id='morphing_basis_vector_1'> +1.4556964e-05 </wgt>
<wgt id='morphing_basis_vector_2'> +9.8617859e-06 </wgt>
<wgt id='morphing_basis_vector_3'> +1.5973608e-05 </wgt>
<wgt id='morphing_basis_vector_4'> +1.1498463e-05 </wgt>
<wgt id='morphing_basis_vector_5'> +1.8333061e-05 </wgt>
</rwgt>
</event>
<event>
 4      1 +4.5322000e-10 4.53728500e+03 7.81860800e-03 7.45174100e-02
        2 -1    0    0  501    0 +0.0000000000e+00 +0.0000000000e+00 +3.7141106833e+03 3.7141106833e+03 0.0000000000e+00 0.0000e+00 1.0000e+00
       -2 -1    0    0    0  501 -0.0000000000e+00 -0.0000000000e+00 -1.3857257626e+03 1.3857257626e+03 0.0000000000e+00 0.0000e+00 -1.0000e+00
      -13  1    1    2    0    0 -2.0533236729e+03 -9.9239163494e+01 +2.2427209016e+03 3.0423319279e+03 0.0000000000e+00 0.0000e+00 1.0000e+00
       13  1    1    2    0    0 +2.0533236729e+03 +9.9239163494e+01 +8.5664019100e+01 2.0575045180e+03 0.0000000000e+00 0.0000e+00 -1.0000e+00
<mgrwt>
<rscale>  0 0.45372850E+04</rscale>
<asrwt>0</asrwt>
<pdfrwt beam="1">  1        2 0.57140164E+00 0.45372850E+04</pdfrwt>
<pdfrwt beam="2">  1       -2 0.21318858E+00 0.45372850E+04</pdfrwt>
<totfact> 0.47147607E-02</totfact>
</mgrwt>
<rwgt>
<wgt id='morphing_basis_vector_1'> +2.9919427e-05 </wgt>
<wgt id='morphing_basis_vector_2'> +2.9053501e-05 </wgt>
<wgt id='morphing_basis_vector_3'> +3.4911727e-05 </wgt>
<wgt id='morphing_basis_vector_4'> +1.2451372e-05 </wgt>
<wgt id='morphing_basis_vector_5'> +3.2288855e-05 </wgt>
</rwgt>
</event>
<event>
 4      1 +4.5322000e-10 4.39463900e+03 7.81860800e-03 7.47409900e-02
        2 -1    0    0  501    0 +0.0000000000e+00 +0.0000000000e+00 +2.7268599500e+03 2.7268599500e+03 0.0000000000e+00 0.0000e+00 -1.0000e+00
       -2 -1    0    0    0  501 -0.0000000000e+00 -0.0000000000e+00 -1.7706126295e+03 1.7706126295e+03 0.0000000000e+00 0.0000e+00 1.0000e+00
      -13  1    1    2    0    0 -2.0367986852e+03 -9.9787275328e+01 -3.5938155344e+02 2.0706669180e+03 0.0000000000e+00 0.0000e+00 1.0000e+00
       13  1    1    2    0    0 +2.0367986852e+03 +9.9787275328e+01 +1.3156288740e+03 2.4268056615e+03 0.0000000000e+00 0.0000e+00 -1.0000e+00
<mgrwt>
<rscale>  0 0.43946389E+04</rscale>
<asrwt>0</asrwt>
<pdfrwt beam="1">  1        2 0.41951692E+00 0.43946389E+04</pdfrwt>
<pdfrwt beam="2">  1       -2 0.27240194E+00 0.43946389E+04</pdfrwt>
<totfact> 0.88386994E-02</totfact>
</mgrwt>
<rwgt>
<wgt id='morphing_basis_vector_1'> +2.3124032e-05 </wgt>
<wgt id='morphing_basis_vector_2'> +1.6116333e-05 </wgt>
<wgt id='morphing_basis_vector_3'> +2.5523722e-05 </wgt>
<wgt id='morphing_basis_vector_4'> +1.7788253e-05 </wgt>
<wgt id='morphing_basis_vector_5'> +2.8973167e-05 </wgt>
</rwgt>
</event>
<event>
 4      1 +4.5322000e-10 3.89071600e+03 7.81860800e-03 7.56056800e-02
        2 -1    0    0  501    0 +0.0000000000e+00 +0.0000000000e+00 +2.7022151776e+03 2.7022151776e+03 0.0000000000e+00 0.0000e+00 1.0000e+00
       -2 -1    0    0    0  501 -0.0000000000e+00 -0.0000000000e+00 -1.4004870106e+03 1.4004870106e+03 0.0000000000e+00 0.0000e+00 -1.0000e+00
      -13  1    1    2    0    0 +1.9919155228e+02 -5.3571268622e+02 -1.3099544564e+03 1.4292116829e+03 0.0000000000e+00 0.0000e+00 -1.0000e+00
       13  1    1    2    0    0 -1.9919155228e+02 +5.3571268622e+02 +2.6116826234e+03 2.6734905053e+03 0.0000000000e+00 0.0000e+00 1.0000e+00
<mgrwt>
<rscale>  0 0.38907157E+04</rscale>
<asrwt>0</asrwt>
<pdfrwt beam="1">  1        2 0.41572541E+00 0.38907157E+04</pdfrwt>
<pdfrwt beam="2">  1       -2 0.21545954E+00 0.38907157E+04</pdfrwt>
<totfact> 0.23724326E-01</totfact>
</mgrwt>
<rwgt>
<wgt id='morphing_basis_vector_1'> +1.4122286e-05 </wgt>
<wgt id='morphing_basis_vector_2'> +9.5654322e-06 </wgt>
<wgt id='morphing_basis_vector_3'> +1.5494059e-05 </wgt>
<wgt id='morphing_basis_vector_4'> +1.1152755e-05 </wgt>
<wgt id='morphing_basis_vector_5'> +1.7780486e-05 </wgt>
</rwgt>
</event>
<event>
 4      1 +4.5322000e-10 4.61991800e+03 7.81860800e-03 7.43916500e-02
        2 -1    0    0  501    0 +0.0000000000e+00 +0.0000000000e+00 +2.8417144998e+03 2.8417144998e+03 0.0000000000e+00 0.0000e+00 1.0000e+00
       -2 -1    0    0    0  501 -0.0000000000e+00 -0.0000000000e+00 -1.8777081023e+03 1.8777081023e+03 0.0000000000e+00 0.0000e+00 -1.0000e+00
      -13  1    1    2    0    0 +5.4466689193e+02 +2.0601452209e+02 -1.8014960308e+03 1.8932754568e+03 0.0000000000e+00 0.0000e+00 -1.0000e+00
       13  1    1    2    0    0 -5.4466689193e+02 -2.0601452209e+02 +2.7655024282e+03 2.8261471453e+03 0.0000000000e+00 0.0000e+00 1.0000e+00
<mgrwt>
<rscale>  0 0.46199179E+04</rscale>
<asrwt>0</asrwt>
<pdfrwt beam="1">  1        2 0.43718685E+00 0.46199179E+04</pdfrwt>
<pdfrwt beam="2">  1       -2 0.28887817E+00 0.46199179E+04</pdfrwt>
<totfact> 0.56845103E-02</totfact>
</mgrwt>
<rwgt>
<wgt id='morphing_basis_vector_1'> +2.7986635e-05 </wgt>
<wgt id='morphing_basis_vector_2'> +1.8991717e-05 </wgt>
<wgt id='morphing_basis_vector_3'> +3.0795292e-05 </wgt>
<wgt id='morphing_basis_vector_4'> +2.2238526e-05 </wgt>
<wgt id='morphing_basis_vector_5'> +3.5455841e-05 </wgt>
</rwgt>
</event>
<event>
 4      1 +4.5322000e-10 4.13549200e+03 7.81860800e-03 7.51700300e-02
        2 -1    0    0  501    0 +0.0000000000e+00 +0.0000000000e+00 +2.3670540384e+03 2.3670540384e+03 0.0000000000e+00 0.0000e+00 1.0000e+00
       -2 -1    0    0    0  501 -0.0000000000e+00 -0.0000000000e+00 -1.8062851425e+03 1.8062851425e+03 0.0000000000e+00 0.0000e+00 -1.0000e+00
      -13  1    1    2    0    0 -3.7677674109e+02 -1.3439181042e+03 -1.2591914375e+03 1.8797977710e+03 0.0000000000e+00 0.0000e+00 -1.0000e+00
       13  1    1    2    0    0 +3.7677674109e+02 +1.3439181042e+03 +1.8199603335e+03 2.2935414099e+03 0.0000000000e+00 0.0000e+00 1.0000e+00
<mgrwt>
<rscale>  0 0.41354925E+04</rscale>
<asrwt>0</asrwt>
<pdfrwt beam="1">  1        2 0.36416216E+00 0.41354925E+04</pdfrwt>
<pdfrwt beam="2">  1       -2 0.27789002E+00 0.41354925E+04</pdfrwt>
<totfact> 0.13629886E-01</totfact>
</mgrwt>
<rwgt>
<wgt id='morphing_basis_vector_1'> +1.8019750e-05 </wgt>
<wgt id='morphing_basis_vector_2'> +1.2251375e-05 </wgt>
<wgt id='morphing_basis_vector_3'> +1.9801345e-05 </wgt>
<wgt id='morphing_basis_vector_4'> +1.4217714e-05 </wgt>
<wgt id='morphing_basis_vector_5'> +2.2719722e-05 </wgt>
</rwgt>
</event>
<event>
 4      1 +4.5322000e-10 4.61840100e+03 7.81860800e-03 7.43939400e-02
        2 -1    0    0  501    0 +0.0000000000e+00 +0.0000000000e+00 +4.0790660968e+03 4.0790660968e+03 0.0000000000e+00 0.0000e+00 -1.0000e+00
       -2 -1    0    0    0  501 -0.0000000000e+00 -0.0000000000e+00 -1.3072616501e+03 1.3072616501e+03 0.0000000000e+00 0.0000e+00 1.0000e+00
      -13  1    1    2    0    0 +1.7765579084e+03 +1.2592206429e+03 +4.8960448812e+02 2.2319290276e+03 0.0000000000e+00 0.0000e+00 1.0000e+00
       13  1    1    2    0    0 -1.7765579084e+03 -1.2592206429e+03 +2.2821999585e+03 3.1543987193e+03 0.0000000000e+00 0.0000e+00 -1.0000e+00
<mgrwt>
<rscale>  0 0.46184009E+04</rscale>
<asrwt>0</asrwt>
<pdfrwt beam="1">  1        2 0.62754863E+00 0.46184009E+04</pdfrwt>
<pdfrwt beam="2">  1       -2 0.20111718E+00 0.46184009E+04</pdfrwt>
<totfact> 0.28636241E-02</totfact>
</mgrwt>
<rwgt>
<wgt id='morphing_basis_vector_1'> +2.8228176e-05 </wgt>
<wgt id='morphing_basis_vector_2'> +1.9783859e-05 </wgt>
<wgt id='morphing_basis_vector_3'> +3.1204683e-05 </wgt>
<wgt id='morphing_basis_vector_4'> +2.1617915e-05 </wgt>
<wgt id='morphing_basis_vector_5'> +3.5359644e-05 </wgt>
</rwgt>
</event>
<event>
 4      1 +4.5322000e-10 4.02449400e+03 7.81860800e-03 7.53636700e-02
        2 -1    0    0  501    0 +0.0000000000e+00 +0.0000000000e+00 +3.1325196762e+03 3.1325196762e+03 0.0000000000e+00 0.0000e+00 -1.0000e+00
       -2 -1    0    0    0  501 -0.0000000000e+00 -0.0000000000e+00 -1.2926135046e+03 1.2926135046e+03 0.0000000000e+00 0.0000e+00 1.0000e+00
      -13  1    1    2    0    0 +1.2690098052e+03 -1.3361960625e+03 +1.8087077214e+03 2.5820978728e+03 0.0000000000e+00 0.0000e+00 1.0000e+00
       13  1    1    2    0    0 -1.2690098052e+03 +1.3361960625e+03 +3.1198450163e+01 1.8430353080e+03 0.0000000000e+00 0.0000e+00 -1.0000e+00
<mgrwt>
<rscale>  0 0.40244936E+04</rscale>
<asrwt>0</asrwt>
<pdfrwt beam="1">  1        2 0.48192610E+00 0.40244936E+04</pdfrwt>
<pdfrwt beam="2">  1       -2 0.19886362E+00 0.40244936E+04</pdfrwt>
<totfact> 0.16368264E-01</totfact>
</mgrwt>
<rwgt>
<wgt id='morphing_basis_vector_1'> +1.8412103e-05 </wgt>
<wgt id='morphing_basis_vector_2'> +1.7579738e-05 </wgt>
<wgt id='morphing_basis_vector_3'> +2.1358441e-05 </wgt>
<wgt id='morphing_basis_vector_4'> +8.0021013e-06 </wgt>
<wgt id='morphing_basis_vector_5'> +1.9971124e-05 </wgt>
</rwgt>
</event>
<event>
 4      1 +4.5322000e-10 4.48998700e+03 7.81860800e-03 7.45906100e-02
        2 -1    0    0  501    0 +0.0000000000e+00 +0.0000000000e+00 +3.5924270582e+03 3.5924270582e+03 0.0000000000e+00 0.0000e+00 -1.0000e+00
       -2 -1    0    0    0  501 -0.0000000000e+00 -0.0000000000e+00 -1.4029498131e+03 1.4029498131e+03 0.0000000000e+00 0.0000e+00 1.0000e+00
      -13  1    1    2    0    0 -6.5841781752e+02 -1.1458382838e+03 -9.2434538385e+02 1.6127224757e+03 0.0000000000e+00 0.0000e+00 1.0000e+00
       13  1    1    2    0    0 +6.5841781752e+02 +1.1458382838e+03 +3.1138226290e+03 3.3826543956e+03 0.0000000000e+00 0.0000e+00 -1.0000e+00
<mgrwt>
<rscale>  0 0.44899866E+04</rscale>
<asrwt>0</asrwt>
<pdfrwt beam="1">  1        2 0.55268108E+00 0.44899866E+04</pdfrwt>
<pdfrwt beam="2">  1       -2 0.21583843E+00 0.44899866E+04</pdfrwt>
<totfact> 0.56135381E-02</totfact>
</mgrwt>
<rwgt>
<wgt id='morphing_basis_vector_1'> +2.4991030e-05 </wgt>
<wgt id='morphing_basis_vector_2'> +1.6979490e-05 </wgt>
<wgt id='morphing_basis_vector_3'> +2.7493229e-05 </wgt>
<wgt id='morphing_basis_vector_4'> +1.9808162e-05 </wgt>
<wgt id='morphing_basis_vector_5'> +3.1616524e-05 </wgt>
</rwgt>
</event>
<event>
 4      1 +4.5322000e-10 4.25128800e+03 7.81860800e-03 7.49744900e-02
        2 -1    0    0  501    0 +0.0000000000e+00 +0.0000000000e+00 +2.1710782164e+03 2.1710782164e+03 0.0000000000e+00 0.0000e+00 -1.0000e+00
       -2 -1    0    0    0  501 -0.0000000000e+00 -0.0000000000e+00 -2.0811608249e+03 2.0811608249e+03 0.0000000000e+00 0.0000e+00 1.0000e+00
      -13  1    1    2    0    0 -7.1665819642e+02 -1.4546386596e+03 -1.3296813587e+03 2.0970515292e+03 0.0000000000e+00 0.0000e+00 1.0000e+00
       13  1    1    2    0    0 +7.1665819642e+02 +1.4546386596e+03 +1.4195987502e+03 2.1551875120e+03 0.0000000000e+00 0.0000e+00 -1.0000e+00
<mgrwt>
<rscale>  0 0.42512882E+04</rscale>
<asrwt>0</asrwt>
<pdfrwt beam="1">  1        2 0.33401203E+00 0.42512882E+04</pdfrwt>
<pdfrwt beam="2">  1       -2 0.32017859E+00 0.42512882E+04</pdfrwt>
<totfact> 0.90967623E-02</totfact>
</mgrwt>
<rwgt>
<wgt id='morphing_basis_vector_1'> +2.0132978e-05 </wgt>
<wgt id='morphing_basis_vector_2'> +1.3735273e-05 </wgt>
<wgt id='morphing_basis_vector_3'> +2.2143872e-05 </wgt>
<wgt id='morphing_basis_vector_4'> +1.5845729e-05 </wgt>
<wgt id='morphing_basis_vector_5'> +2.5382557e-05 </wgt>
</rwgt>
</event>
<event>
 4      1 +4.5322000e-10 4.48112500e+03 7.81860800e-03 7.46044200e-02
        2 -1    0    0  501    0 +0.0000000000e+00 +0.0000000000e+00 +2.3858193252e+03 2.3858193252e+03 0.0000000000e+00 0.0000e+00 -1.0000e+00
       -2 -1    0    0    0  501 -0.0000000000e+00 -0.0000000000e+00 -2.1041497531e+03 2.1041497531e+03 0.0000000000e+00 0.0000e+00 1.0000e+00
      -13  1    1    2    0    0 -5.5857098776e+02 +5.3346036022e+02 -1.9665372719e+03 2.1127826074e+03 0.0000000000e+00 0.0000e+00 1.0000e+00
       13  1    1    2    0    0 +5.5857098776e+02 -5.3346036022e+02 +2.2482068440e+03 2.3771864709e+03 0.0000000000e+00 0.0000e+00 -1.0000e+00
<mgrwt>
<rscale>  0 0.44811254E+04</rscale>
<asrwt>0</asrwt>
<pdfrwt beam="1">  1        2 0.36704913E+00 0.44811254E+04</pdfrwt>
<pdfrwt beam="2">  1       -2 0.32371535E+00 0.44811254E+04</pdfrwt>
<totfact> 0.63566053E-02</totfact>
</mgrwt>
<rwgt>
<wgt id='morphing_basis_vector_1'> +2.4784787e-05 </wgt>
<wgt id='morphing_basis_vector_2'> +1.6815682e-05 </wgt>
<wgt id='morphing_basis_vector_3'> +2.7260193e-05 </wgt>
<wgt id='morphing_basis_vector_4'> +1.9673620e-05 </wgt>
<wgt id='morphing_basis_vector_5'> +3.1368534e-05 </wgt>
</rwgt>
</event>
<event>
 4      1 +4.5322000e-10 4.27925800e+03 7.81860800e-03 7.49282000e-02
        2 -1    0    0  501    0 +0.0000000000e+00 +0.0000000000e+00 +2.9050354538e+03 2.9050354538e+03 0.0000000000e+00 0.0000e+00 -1.0000e+00
       -2 -1    0    0    0  501 -0.0000000000e+00 -0.0000000000e+00 -1.5758887190e+03 1.5758887190e+03 0.0000000000e+00 0.0000e+00 1.0000e+00
      -13  1    1    2    0    0 +7.9014119395e+02 +1.2183022923e+03 -9.8092471635e+02 1.7523689340e+03 0.0000000000e+00 0.0000e+00 1.0000e+00
       13  1    1    2    0    0 -7.9014119395e+02 -1.2183022923e+03 +2.3100714512e+03 2.7285552388e+03 0.0000000000e+00 0.0000e+00 -1.0000e+00
<mgrwt>
<rscale>  0 0.42792582E+04</rscale>
<asrwt>0</asrwt>
<pdfrwt beam="1">  1        2 0.44692853E+00 0.42792582E+04</pdfrwt>
<pdfrwt beam="2">  1       -2 0.24244442E+00 0.42792582E+04</pdfrwt>
<totfact> 0.11078049E-01</totfact>
</mgrwt>
<rwgt>
<wgt id='morphing_basis_vector_1'> +2.0646691e-05 </wgt>
<wgt id='morphing_basis_vector_2'> +1.4044041e-05 </wgt>
<wgt id='morphing_basis_vector_3'> +2.2701746e-05 </wgt>
<wgt id='morphing_basis_vector_4'> +1.6308821e-05 </wgt>
<wgt id='morphing_basis_vector_5'> +2.6063494e-05 </wgt>
</rwgt>
</event>
<event>
 4      1 +4.5322000e-10 4.24201800e+03 7.81860800e-03 7.49899100e-02
        2 -1    0    0  501    0 +0.0000000000e+00 +0.0000000000e+00 +1.6887372940e+03 1.6887372940e+03 0.0000000000e+00 0.0000e+00 1.0000e+00
       -2 -1    0    0    0  501 -0.0000000000e+00 -0.0000000000e+00 -2.6639307252e+03 2.6639307252e+03 0.0000000000e+00 0.0000e+00 -1.0000e+00
      -13  1    1    2    0    0 -9.8090003409e+02 -1.8792585718e+03 -5.5943366581e+02 2.1924287179e+03 0.0000000000e+00 0.0000e+00 1.0000e+00
       13  1    1    2    0    0 +9.8090003409e+02 +1.8792585718e+03 -4.1575976534e+02 2.1602393013e+03 0.0000000000e+00 0.0000e+00 -1.0000e+00
<mgrwt>
<rscale>  0 0.42420180E+04</rscale>
<asrwt>0</asrwt>
<pdfrwt beam="1">  1        2 0.25980574E+00 0.42420180E+04</pdfrwt>
<pdfrwt beam="2">  1       -2 0.40983550E+00 0.42420180E+04</pdfrwt>
<totfact> 0.44309882E-02</totfact>
</mgrwt>
<rwgt>
<wgt id='morphing_basis_vector_1'> +2.0571637e-05 </wgt>
<wgt id='morphing_basis_vector_2'> +1.5417109e-05 </wgt>
<wgt id='morphing_basis_vector_3'> +2.2938248e-05 </wgt>
<wgt id='morphing_basis_vector_4'> +1.4408057e-05 </wgt>
<wgt id='morphing_basis_vector_5'> +2.5052461e-05 </wgt>
</rwgt>
</event>
<event>
 4      1 +4.5322000e-10 4.26571600e+03 7.81860800e-03 7.49505700e-02
        2 -1    0    0  501    0 +0.0000000000e+00 +0.0000000000e+00 +2.0953362914e+03 2.0953362914e+03 0.0000000000e+00 0.0000e+00 1.0000e+00
       -2 -1    0    0    0  501 -0.0000000000e+00 -0.0000000000e+00 -2.1710512900e+03 2.1710512900e+03 0.0000000000e+00 0.0000e+00 -1.0000e+00
      -13  1    1    2    0    0 -1.6643929394e+03 -1.6953292532e+02 +1.2852784236e+03 2.1097122779e+03 0.0000000000e+00 0.0000e+00 1.0000e+00
       13  1    1    2    0    0 +1.6643929394e+03 +1.6953292532e+02 -1.3609934221e+03 2.1566753035e+03 0.0000000000e+00 0.0000e+00 -1.0000e+00
<mgrwt>
<rscale>  0 0.42657157E+04</rscale>
<asrwt>0</asrwt>
<pdfrwt beam="1">  1        2 0.32235943E+00 0.42657157E+04</pdfrwt>
<pdfrwt beam="2">  1       -2 0.33400789E+00 0.42657157E+04</pdfrwt>
<totfact> 0.81292332E-02</totfact>
</mgrwt>
<rwgt>
<wgt id='morphing_basis_vector_1'> +2.5408778e-05 </wgt>
<wgt id='morphing_basis_vector_2'> +2.8621622e-05 </wgt>
<wgt id='morphing_basis_vector_3'> +3.0502787e-05 </wgt>
<wgt id='morphing_basis_vector_4'> +5.4559152e-06 </wgt>
<wgt id='morphing_basis_vector_5'> +2.4844859e-05 </wgt>
</rwgt>
</event>
<event>
 4      1 +4.5322000e-10 3.93216000e+03 7.81860800e-03 7.55296600e-02
        2 -1    0    0  501    0 +0.0000000000e+00 +0.0000000000e+00 +3.6706135131e+03 3.6706135131e+03 0.0000000000e+00 0.0000e+00 1.0000e+00
       -2 -1    0    0    0  501 -0.0000000000e+00 -0.0000000000e+00 -1.0530854859e+03 1.0530854859e+03 0.0000000000e+00 0.0000e+00 -1.0000e+00
      -13  1    1    2    0    0 -1.9598356712e+03 +1.5494283238e+02 +1.2817234320e+03 2.3468655896e+03 0.0000000000e+00 0.0000e+00 -1.0000e+00
       13  1    1    2    0    0 +1.9598356712e+03 -1.5494283238e+02 +1.3358045951e+03 2.3768334093e+03 0.0000000000e+00 0.0000e+00 1.0000e+00
<mgrwt>
<rscale>  0 0.39321596E+04</rscale>
<asrwt>0</asrwt>
<pdfrwt beam="1">  1        2 0.56470977E+00 0.39321596E+04</pdfrwt>
<pdfrwt beam="2">  1       -2 0.16201315E+00 0.39321596E+04</pdfrwt>
<totfact> 0.12950330E-01</totfact>
</mgrwt>
<rwgt>
<wgt id='morphing_basis_vector_1'> +1.5249852e-05 </wgt>
<wgt id='morphing_basis_vector_2'> +1.1505820e-05 </wgt>
<wgt id='morphing_basis_vector_3'> +1.6997218e-05 </wgt>
<wgt id='morphing_basis_vector_4'> +1.0540005e-05 </wgt>
<wgt id='morphing_basis_vector_5'> +1.8462921e-05 </wgt>
</rwgt>
</event>
<event>
 4      1 +4.5322000e-10 4.03511300e+03 7.81860800e-03 7.53448700e-02
        2 -1    0    0  501    0 +0.0000000000e+00 +0.0000000000e+00 +2.0538728600e+03 2.0538728600e+03 0.0000000000e+00 0.0000e+00 1.0000e+00
       -2 -1    0    0    0  501 -0.0000000000e+00 -0.0000000000e+00 -1.9818824908e+03 1.9818824908e+03 0.0000000000e+00 0.0000e+00 -1.0000e+00
      -13  1    1    2    0    0 +1.1723101829e+03 +1.5246750679e+03 -5.7368318058e+02 2.0070021473e+03 0.0000000000e+00 0.0000e+00 -1.0000e+00
       13  1    1    2    0    0 -1.1723101829e+03 -1.5246750679e+03 +6.4567354975e+02 2.0287532035e+03 0.0000000000e+00 0.0000e+00 1.0000e+00
<mgrwt>
<rscale>  0 0.40351132E+04</rscale>
<asrwt>0</asrwt>
<pdfrwt beam="1">  1        2 0.31598044E+00 0.40351132E+04</pdfrwt>
<pdfrwt beam="2">  1       -2 0.30490500E+00 0.40351132E+04</pdfrwt>
<totfact> 0.13647236E-01</totfact>
</mgrwt>
<rwgt>
<wgt id='morphing_basis_vector_1'> +1.6511236e-05 </wgt>
<wgt id='morphing_basis_vector_2'> +1.1607670e-05 </wgt>
<wgt id='morphing_basis_vector_3'> +1.8221919e-05 </wgt>
<wgt id='morphing_basis_vector_4'> +1.2520183e-05 </wgt>
<wgt id='morphing_basis_vector_5'> +2.0553186e-05 </wgt>
</rwgt>
</event>
<event>
 4      1 +4.5322000e-10 4.24154300e+03 7.81860800e-03 7.49907000e-02
        2 -1    0    0  501    0 +0.0000000000e+00 +0.0000000000e+00 +3.0554400224e+03 3.0554400224e+03 0.0000000000e+00 0.0000e+00 -1.0000e+00
       -2 -1    0    0    0  501 -0.0000000000e+00 -0.0000000000e+00 -1.4720209339e+03 1.4720209339e+03 0.0000000000e+00 0.0000e+00 1.0000e+00
      -13  1    1    2    0    0 +1.7041270021e+03 +1.1192350607e+03 +1.4149664403e+03 2.4817062654e+03 0.0000000000e+00 0.0000e+00 1.0000e+00
       13  1    1    2    0    0 -1.7041270021e+03 -1.1192350607e+03 +1.6845264820e+02 2.0457546908e+03 0.0000000000e+00 0.0000e+00 -1.0000e+00
<mgrwt>
<rscale>  0 0.42415430E+04</rscale>
<asrwt>0</asrwt>
<pdfrwt beam="1">  1        2 0.47006769E+00 0.42415430E+04</pdfrwt>
<pdfrwt beam="2">  1       -2 0.22646476E+00 0.42415430E+04</pdfrwt>
<totfact> 0.11477346E-01</totfact>
</mgrwt>
<rwgt>
<wgt id='morphing_basis_vector_1'> +2.1790737e-05 </wgt>
<wgt id='morphing_basis_vector_2'> +1.9019551e-05 </wgt>
<wgt id='morphing_basis_vector_3'> +2.4905615e-05 </wgt>
<wgt id='morphing_basis_vector_4'> +1.1797696e-05 </wgt>
<wgt id='morphing_basis_vector_5'> +2.4823840e-05 </wgt>
</rwgt>
</event>
<event>
 4      1 +4.5322000e-10 3.96658300e+03 7.81860800e-03 7.54672400e-02
        2 -1    0    0  501    0 +0.0000000000e+00 +0.0000000000e+00 +2.4509203863e+03 2.4509203863e+03 0.0000000000e+00 0.0000e+00 -1.0000e+00
       -2 -1    0    0    0  501 -0.0000000000e+00 -0.0000000000e+00 -1.6048852718e+03 1.6048852718e+03 0.0000000000e+00 0.0000e+00 1.0000e+00
      -13  1    1    2    0    0 +1.8832127344e+03 -5.7977792183e+02 +1.9252886603e+02 1.9798232260e+03 0.0000000000e+00 0.0000e+00 1.0000e+00
       13  1    1    2    0    0 -1.8832127344e+03 +5.7977792183e+02 +6.5350624843e+02 2.0759824321e+03 0.0000000000e+00 0.0000e+00 -1.0000e+00
<mgrwt>
<rscale>  0 0.39665834E+04</rscale>
<asrwt>0</asrwt>
<pdfrwt beam="1">  1        2 0.37706468E+00 0.39665834E+04</pdfrwt>
<pdfrwt beam="2">  1       -2 0.24690543E+00 0.39665834E+04</pdfrwt>
<totfact> 0.20126929E-01</totfact>
</mgrwt>
<rwgt>
<wgt id='morphing_basis_vector_1'> +1.5618558e-05 </wgt>
<wgt id='morphing_basis_vector_2'> +1.1414788e-05 </wgt>
<wgt id='morphing_basis_vector_3'> +1.7328641e-05 </wgt>
<wgt id='morphing_basis_vector_4'> +1.1274188e-05 </wgt>
<wgt id='morphing_basis_vector_5'> +1.9151200e-05 </wgt>
</rwgt>
</event>
<event>
 4      1 +4.5322000e-10 3.87908100e+03 7.81860800e-03 7.56271900e-02
        2 -1    0    0  501    0 +0.0000000000e+00 +0.0000000000e+00 +3.7770270348e+03 3.7770270348e+03 0.0000000000e+00 0.0000e+00 -1.0000e+00
       -2 -1    0    0    0  501 -0.0000000000e+00 -0.0000000000e+00 -9.9597333449e+02 9.9597333449e+02 0.0000000000e+00 0.0000e+00 1.0000e+00
      -13  1    1    2    0    0 +1.3369177345e+02 +9.7371479718e+02 -6.6686730162e+02 1.1877314488e+03 0.0000000000e+00 0.0000e+00 1.0000e+00
       13  1    1    2    0    0 -1.3369177345e+02 -9.7371479718e+02 +3.4479210020e+03 3.5852689205e+03 0.0000000000e+00 0.0000e+00 -1.0000e+00
<mgrwt>
<rscale>  0 0.38790814E+04</rscale>
<asrwt>0</asrwt>
<pdfrwt beam="1">  1        2 0.58108107E+00 0.38790814E+04</pdfrwt>
<pdfrwt beam="2">  1       -2 0.15322667E+00 0.38790814E+04</pdfrwt>
<totfact> 0.12650705E-01</totfact>
</mgrwt>
<rwgt>
<wgt id='morphing_basis_vector_1'> +1.3957865e-05 </wgt>
<wgt id='morphing_basis_vector_2'> +9.4601029e-06 </wgt>
<wgt id='morphing_basis_vector_3'> +1.5314168e-05 </wgt>
<wgt id='morphing_basis_vector_4'> +1.1013290e-05 </wgt>
<wgt id='morphing_basis_vector_5'> +1.7567158e-05 </wgt>
</rwgt>
</event>
<event>
 4      1 +4.5322000e-10 4.13531800e+03 7.81860800e-03 7.51703300e-02
        2 -1    0    0  501    0 +0.0000000000e+00 +0.0000000000e+00 +1.2419221557e+03 1.2419221557e+03 0.0000000000e+00 0.0000e+00 -1.0000e+00
       -2 -1    0    0    0  501 -0.0000000000e+00 -0.0000000000e+00 -3.4424173368e+03 3.4424173368e+03 0.0000000000e+00 0.0000e+00 1.0000e+00
      -13  1    1    2    0    0 -1.7846996846e+03 +3.4730547199e+02 -2.2155687849e+03 2.8660982355e+03 0.0000000000e+00 0.0000e+00 1.0000e+00
       13  1    1    2    0    0 +1.7846996846e+03 -3.4730547199e+02 +1.5073603765e+01 1.8182412570e+03 0.0000000000e+00 0.0000e+00 -1.0000e+00
<mgrwt>
<rscale>  0 0.41353183E+04</rscale>
<asrwt>0</asrwt>
<pdfrwt beam="1">  1        2 0.19106495E+00 0.41353183E+04</pdfrwt>
<pdfrwt beam="2">  1       -2 0.52960267E+00 0.41353183E+04</pdfrwt>
<totfact> 0.11073369E-02</totfact>
</mgrwt>
<rwgt>
<wgt id='morphing_basis_vector_1'> +1.8091324e-05 </wgt>
<wgt id='morphing_basis_vector_2'> +1.2468545e-05 </wgt>
<wgt id='morphing_basis_vector_3'> +1.9917941e-05 </wgt>
<wgt id='morphing_basis_vector_4'> +1.4057315e-05 </wgt>
<wgt id='morphing_basis_vector_5'> +2.2702699e-05 </wgt>
</rwgt>
</event>
<event>
 4      1 +4.5322000e-10 3.96423600e+03 7.81860800e-03 7.54714700e-02
        2 -1    0    0  501    0 +0.0000000000e+00 +0.0000000000e+00 +2.0847952686e+03 2.0847952686e+03 0.0000000000e+00 0.0000e+00 -1.0000e+00
       -2 -1    0    0    0  501 -0.0000000000e+00 -0.0000000000e+00 -1.8844973173e+03 1.8844973173e+03 0.0000000000e+00 0.0000e+00 1.0000e+00
      -13  1    1    2    0    0 -6.4741759059e+02 -1.5587747856e+03 -9.4034105573e+02 1.9321412138e+03 0.0000000000e+00 0.0000e+00 1.0000e+00
       13  1    1    2    0    0 +6.4741759059e+02 +1.5587747856e+03 +1.1406390070e+03 2.0371513722e+03 0.0000000000e+00 0.0000e+00 -1.0000e+00
<mgrwt>
<rscale>  0 0.39642357E+04</rscale>
<asrwt>0</asrwt>
<pdfrwt beam="1">  1        2 0.32073773E+00 0.39642357E+04</pdfrwt>
<pdfrwt beam="2">  1       -2 0.28992266E+00 0.39642357E+04</pdfrwt>
<totfact> 0.16637699E-01</totfact>
</mgrwt>
<rwgt>
<wgt id='morphing_basis_vector_1'> +1.5273848e-05 </wgt>
<wgt id='morphing_basis_vector_2'> +1.0482609e-05 </wgt>
<wgt id='morphing_basis_vector_3'> +1.6793824e-05 </wgt>
<wgt id='morphing_basis_vector_4'> +1.1898543e-05 </wgt>
<wgt id='morphing_basis_vector_5'> +1.9159905e-05 </wgt>
</rwgt>
</event>
<event>
 4      1 +4.5322000e-10 4.13557900e+03 7.81860800e-03 7.51698800e-02
        2 -1    0    0  501    0 +0.0000000000e+00 +0.0000000000e+00 +3.4170199056e+03 3.4170199056e+03 0.0000000000e+00 0.0000e+00 -1.0000e+00
       -2 -1    0    0    0  501 -0.0000000000e+00 -0.0000000000e+00 -1.2513108071e+03 1.2513108071e+03 0.0000000000e+00 0.0000e+00 1.0000e+00
      -13  1    1    2    0    0 +9.8060105024e+02 +1.8163780406e+03 +1.2208588269e+03 2.3981876243e+03 0.0000000000e+00 0.0000e+00 1.0000e+00
       13  1    1    2    0    0 -9.8060105024e+02 -1.8163780406e+03 +9.4485027160e+02 2.2701430884e+03 0.0000000000e+00 0.0000e+00 -1.0000e+00
<mgrwt>
<rscale>  0 0.41355793E+04</rscale>
<asrwt>0</asrwt>
<pdfrwt beam="1">  1        2 0.52569537E+00 0.41355793E+04</pdfrwt>
<pdfrwt beam="2">  1       -2 0.19250936E+00 0.41355793E+04</pdfrwt>
<totfact> 0.11475490E-01</totfact>
</mgrwt>
<rwgt>
<wgt id='morphing_basis_vector_1'> +1.8822159e-05 </wgt>
<wgt id='morphing_basis_vector_2'> +1.4606172e-05 </wgt>
<wgt id='morphing_basis_vector_3'> +2.1090662e-05 </wgt>
<wgt id='morphing_basis_vector_4'> +1.2522618e-05 </wgt>
<wgt id='morphing_basis_vector_5'> +2.2580156e-05 </wgt>
</rwgt>
</event>
<event>
 4      1 +4.5322000e-10 4.36540900e+03 7.81860800e-03 7.47878600e-02
        2 -1    0    0  501    0 +0.0000000000e+00 +0.0000000000e+00 +2.5254581449e+03 2.5254581449e+03 0.0000000000e+00 0.0000e+00 -1.0000e+00
       -2 -1    0    0    0  501 -0.0000000000e+00 -0.0000000000e+00 -1.8864693325e+03 1.8864693325e+03 0.0000000000e+00 0.0000e+00 1.0000e+00
      -13  1    1    2    0    0 -3.9614553519e+02 +9.4623793993e+02 -1.6276656283e+03 1.9239524218e+03 0.0000000000e+00 0.0000e+00 1.0000e+00
       13  1    1    2    0    0 +3.9614553519e+02 -9.4623793993e+02 +2.2666544407e+03 2.4879750556e+03 0.0000000000e+00 0.0000e+00 -1.0000e+00
<mgrwt>
<rscale>  0 0.43654092E+04</rscale>
<asrwt>0</asrwt>
<pdfrwt beam="1">  1        2 0.38853202E+00 0.43654092E+04</pdfrwt>
<pdfrwt beam="2">  1       -2 0.29022605E+00 0.43654092E+04</pdfrwt>
<totfact> 0.88895977E-02</totfact>
</mgrwt>
<rwgt>
<wgt id='morphing_basis_vector_1'> +2.2334618e-05 </wgt>
<wgt id='morphing_basis_vector_2'> +1.5155232e-05 </wgt>
<wgt id='morphing_basis_vector_3'> +2.4556604e-05 </wgt>
<wgt id='morphing_basis_vector_4'> +1.7705933e-05 </wgt>
<wgt id='morphing_basis_vector_5'> +2.8239312e-05 </wgt>
</rwgt>
</event>
<event>
 4      1 +4.5322000e-10 3.98092800e+03 7.81860800e-03 7.54414200e-02
        2 -1    0    0  501    0 +0.0000000000e+00 +0.0000000000e+00 +1.5720406866e+03 1.5720406866e+03 0.0000000000e+00 0.0000e+00 1.0000e+00
       -2 -1    0    0    0  501 -0.0000000000e+00 -0.0000000000e+00 -2.5202570914e+03 2.5202570914e+03 0.0000000000e+00 0.0000e+00 -1.0000e+00
      -13  1    1    2    0    0 -9.3652205600e+02 -5.4622508400e+02 -2.1900925478e+03 2.4437554648e+03 0.0000000000e+00 0.0000e+00 -1.0000e+00
       13  1    1    2    0    0 +9.3652205600e+02 +5.4622508400e+02 +1.2418761430e+03 1.6485423132e+03 0.0000000000e+00 0.0000e+00 1.0000e+00
<mgrwt>
<rscale>  0 0.39809279E+04</rscale>
<asrwt>0</asrwt>
<pdfrwt beam="1">  1        2 0.24185241E+00 0.39809279E+04</pdfrwt>
<pdfrwt beam="2">  1       -2 0.38773186E+00 0.39809279E+04</pdfrwt>
<totfact> 0.73235198E-02</totfact>
</mgrwt>
<rwgt>
<wgt id='morphing_basis_vector_1'> +1.5475361e-05 </wgt>
<wgt id='morphing_basis_vector_2'> +1.0495249e-05 </wgt>
<wgt id='morphing_basis_vector_3'> +1.6988539e-05 </wgt>
<wgt id='morphing_basis_vector_4'> +1.2219677e-05 </wgt>
<wgt id='morphing_basis_vector_5'> +1.9496170e-05 </wgt>
</rwgt>
</event>
<event>
 4      1 +4.5322000e-10 4.13177400e+03 7.81860800e-03 7.51764200e-02
        2 -1    0    0  501    0 +0.0000000000e+00 +0.0000000000e+00 +2.1042349614e+03 2.1042349614e+03 0.0000000000e+00 0.0000e+00 -1.0000e+00
       -2 -1    0    0    0  501 -0.0000000000e+00 -0.0000000000e+00 -2.0282375544e+03 2.0282375544e+03 0.0000000000e+00 0.0000e+00 1.0000e+00
      -13  1    1    2    0    0 -1.9866869365e+03 -4.1159436188e+02 -3.5136583351e+02 2.0590757274e+03 0.0000000000e+00 0.0000e+00 1.0000e+00
       13  1    1    2    0    0 +1.9866869365e+03 +4.1159436188e+02 +4.2736324051e+02 2.0733967883e+03 0.0000000000e+00 0.0000e+00 -1.0000e+00
<mgrwt>
<rscale>  0 0.41317736E+04</rscale>
<asrwt>0</asrwt>
<pdfrwt beam="1">  1        2 0.32372846E+00 0.41317736E+04</pdfrwt>
<pdfrwt beam="2">  1       -2 0.31203655E+00 0.41317736E+04</pdfrwt>
<totfact> 0.11360085E-01</totfact>
</mgrwt>
<rwgt>
<wgt id='morphing_basis_vector_1'> +1.8263619e-05 </wgt>
<wgt id='morphing_basis_vector_2'> +1.3113481e-05 </wgt>
<wgt id='morphing_basis_vector_3'> +2.0225862e-05 </wgt>
<wgt id='morphing_basis_vector_4'> +1.3513486e-05 </wgt>
<wgt id='morphing_basis_vector_5'> +2.2583274e-05 </wgt>
</rwgt>
</event>
<event>
 4      1 +4.5322000e-10 4.27814600e+03 7.81860800e-03 7.49300400e-02
        2 -1    0    0  501    0 +0.0000000000e+00 +0.0000000000e+00 +2.2436806385e+03 2.2436806385e+03 0.0000000000e+00 0.0000e+00 -1.0000e+00
       -2 -1    0    0    0  501 -0.0000000000e+00 -0.0000000000e+00 -2.0393428220e+03 2.0393428220e+03 0.0000000000e+00 0.0000e+00 1.0000e+00
      -13  1    1    2    0    0 +7.6216333884e+00 +1.2483130627e+03 -1.6368462782e+03 2.0585454404e+03 0.0000000000e+00 0.0000e+00 1.0000e+00
       13  1    1    2    0    0 -7.6216333884e+00 -1.2483130627e+03 +1.8411840947e+03 2.2244780202e+03 0.0000000000e+00 0.0000e+00 -1.0000e+00
<mgrwt>
<rscale>  0 0.42781463E+04</rscale>
<asrwt>0</asrwt>
<pdfrwt beam="1">  1        2 0.34518164E+00 0.42781463E+04</pdfrwt>
<pdfrwt beam="2">  1       -2 0.31374505E+00 0.42781463E+04</pdfrwt>
<totfact> 0.91030287E-02</totfact>
</mgrwt>
<rwgt>
<wgt id='morphing_basis_vector_1'> +2.0614704e-05 </wgt>
<wgt id='morphing_basis_vector_2'> +1.3998231e-05 </wgt>
<wgt id='morphing_basis_vector_3'> +2.2661039e-05 </wgt>
<wgt id='morphing_basis_vector_4'> +1.6314357e-05 </wgt>
<wgt id='morphing_basis_vector_5'> +2.6038183e-05 </wgt>
</rwgt>
</event>
<event>
 4      1 +4.5322000e-10 4.13249400e+03 7.81860800e-03 7.51751800e-02
        2 -1    0    0  501    0 +0.0000000000e+00 +0.0000000000e+00 +3.0552983879e+03 3.0552983879e+03 0.0000000000e+00 0.0000e+00 1.0000e+00
       -2 -1    0    0    0  501 -0.0000000000e+00 -0.0000000000e+00 -1.3973682109e+03 1.3973682109e+03 0.0000000000e+00 0.0000e+00 -1.0000e+00
      -13  1    1    2    0    0 +9.7323135908e+02 -3.2608208109e+02 -1.1032570196e+03 1.5068791767e+03 0.0000000000e+00 0.0000e+00 -1.0000e+00
       13  1    1    2    0    0 -9.7323135908e+02 +3.2608208109e+02 +2.7611871966e+03 2.9457874221e+03 0.0000000000e+00 0.0000e+00 1.0000e+00
<mgrwt>
<rscale>  0 0.41324941E+04</rscale>
<asrwt>0</asrwt>
<pdfrwt beam="1">  1        2 0.47004591E+00 0.41324941E+04</pdfrwt>
<pdfrwt beam="2">  1       -2 0.21497972E+00 0.41324941E+04</pdfrwt>
<totfact> 0.13967075E-01</totfact>
</mgrwt>
<rwgt>
<wgt id='morphing_basis_vector_1'> +1.7954817e-05 </wgt>
<wgt id='morphing_basis_vector_2'> +1.2177805e-05 </wgt>
<wgt id='morphing_basis_vector_3'> +1.9723131e-05 </wgt>
<wgt id='morphing_basis_vector_4'> +1.4203828e-05 </wgt>
<wgt id='morphing_basis_vector_5'> +2.2655890e-05 </wgt>
</rwgt>
</event>
<event>
 4      1 +4.5322000e-10 4.45092300e+03 7.81860800e-03 7.46517600e-02
        2 -1    0    0  501    0 +0.0000000000e+00 +0.0000000000e+00 +2.7944423004e+03 2.7944423004e+03 0.0000000000e+00 0.0000e+00 -1.0000e+00
       -2 -1    0    0    0  501 -0.0000000000e+00 -0.0000000000e+00 -1.7723318899e+03 1.7723318899e+03 0.0000000000e+00 0.0000e+00 1.0000e+00
      -13  1    1    2    0    0 -3.1365035974e+02 -1.5517933106e+03 -1.0937007286e+03 1.9242194030e+03 0.0000000000e+00 0.0000e+00 1.0000e+00
       13  1    1    2    0    0 +3.1365035974e+02 +1.5517933106e+03 +2.1158111392e+03 2.6425547873e+03 0.0000000000e+00 0.0000e+00 -1.0000e+00
<mgrwt>
<rscale>  0 0.44509231E+04</rscale>
<asrwt>0</asrwt>
<pdfrwt beam="1">  1        2 0.42991420E+00 0.44509231E+04</pdfrwt>
<pdfrwt beam="2">  1       -2 0.27266644E+00 0.44509231E+04</pdfrwt>
<totfact> 0.79528557E-02</totfact>
</mgrwt>
<rwgt>
<wgt id='morphing_basis_vector_1'> +2.4154948e-05 </wgt>
<wgt id='morphing_basis_vector_2'> +1.6452630e-05 </wgt>
<wgt id='morphing_basis_vector_3'> +2.6579578e-05 </wgt>
<wgt id='morphing_basis_vector_4'> +1.9085111e-05 </wgt>
<wgt id='morphing_basis_vector_5'> +3.0522943e-05 </wgt>
</rwgt>
</event>
<event>
 4      1 +4.5322000e-10 4.07314700e+03 7.81860800e-03 7.52780200e-02
        2 -1    0    0  501    0 +0.0000000000e+00 +0.0000000000e+00 +2.0808090142e+03 2.0808090142e+03 0.0000000000e+00 0.0000e+00 1.0000e+00
       -2 -1    0    0    0  501 -0.0000000000e+00 -0.0000000000e+00 -1.9932779012e+03 1.9932779012e+03 0.0000000000e+00 0.0000e+00 -1.0000e+00
      -13  1    1    2    0    0 +2.0222756214e+03 +7.1172149110e+01 +2.7396312727e+02 2.0419892161e+03 0.0000000000e+00 0.0000e+00 1.0000e+00
       13  1    1    2    0    0 -2.0222756214e+03 -7.1172149110e+01 -1.8643201431e+02 2.0320976993e+03 0.0000000000e+00 0.0000e+00 -1.0000e+00
<mgrwt>
<rscale>  0 0.40731465E+04</rscale>
<asrwt>0</asrwt>
<pdfrwt beam="1">  1        2 0.32012446E+00 0.40731465E+04</pdfrwt>
<pdfrwt beam="2">  1       -2 0.30665814E+00 0.40731465E+04</pdfrwt>
<totfact> 0.12785670E-01</totfact>
</mgrwt>
<rwgt>
<wgt id='morphing_basis_vector_1'> +1.7875343e-05 </wgt>
<wgt id='morphing_basis_vector_2'> +1.4213583e-05 </wgt>
<wgt id='morphing_basis_vector_3'> +2.0100726e-05 </wgt>
<wgt id='morphing_basis_vector_4'> +1.1443430e-05 </wgt>
<wgt id='morphing_basis_vector_5'> +2.1213107e-05 </wgt>
</rwgt>
</event>
<event>
 4      1 +4.5322000e-10 4.38817000e+03 7.81860800e-03 7.47513300e-02
        2 -1    0    0  501    0 +0.0000000000e+00 +0.0000000000e+00 +2.7500956530e+03 2.7500956530e+03 0.0000000000e+00 0.0000e+00 1.0000e+00
       -2 -1    0    0    0  501 -0.0000000000e+00 -0.0000000000e+00 -1.7504880402e+03 1.7504880402e+03 0.0000000000e+00 0.0000e+00 -1.0000e+00
      -13  1    1    2    0    0 -2.0794486702e+03 -6.5262603381e+02 +7.5923034891e+02 2.3079120942e+03 0.0000000000e+00 0.0000e+00 -1.0000e+00
       13  1    1    2    0    0 +2.0794486702e+03 +6.5262603381e+02 +2.4037726380e+02 2.1926715990e+03 0.0000000000e+00 0.0000e+00 1.0000e+00
<mgrwt>
<rscale>  0 0.43881703E+04</rscale>
<asrwt>0</asrwt>
<pdfrwt beam="1">  1        2 0.42309164E+00 0.43881703E+04</pdfrwt>
<pdfrwt beam="2">  1       -2 0.26930585E+00 0.43881703E+04</pdfrwt>
<totfact> 0.89821056E-02</totfact>
</mgrwt>
<rwgt>
<wgt id='morphing_basis_vector_1'> +2.4057883e-05 </wgt>
<wgt id='morphing_basis_vector_2'> +1.9163020e-05 </wgt>
<wgt id='morphing_basis_vector_3'> +2.7098382e-05 </wgt>
<wgt id='morphing_basis_vector_4'> +1.5414157e-05 </wgt>
<wgt id='morphing_basis_vector_5'> +2.8612656e-05 </wgt>
</rwgt>
</event>
<event>
 4      1 +4.5322000e-10 3.95103500e+03 7.81860800e-03 7.54953500e-02
        2 -1    0    0  501    0 +0.0000000000e+00 +0.0000000000e+00 +2.1068370342e+03 2.1068370342e+03 0.0000000000e+00 0.0000e+00 1.0000e+00
       -2 -1    0    0    0  501 -0.0000000000e+00 -0.0000000000e+00 -1.8523827680e+03 1.8523827680e+03 0.0000000000e+00 0.0000e+00 -1.0000e+00
      -13  1    1    2    0    0 +1.5071455493e+03 +8.6713629528e+02 +1.0668559768e+03 2.0399987100e+03 0.0000000000e+00 0.0000e+00 1.0000e+00
       13  1    1    2    0    0 -1.5071455493e+03 -8.6713629528e+02 -8.1240171064e+02 1.9192210922e+03 0.0000000000e+00 0.0000e+00 -1.0000e+00
<mgrwt>
<rscale>  0 0.39510346E+04</rscale>
<asrwt>0</asrwt>
<pdfrwt beam="1">  1        2 0.32412878E+00 0.39510346E+04</pdfrwt>
<pdfrwt beam="2">  1       -2 0.28498196E+00 0.39510346E+04</pdfrwt>
<totfact> 0.17482685E-01</totfact>
</mgrwt>
<rwgt>
<wgt id='morphing_basis_vector_1'> +1.7599778e-05 </wgt>
<wgt id='morphing_basis_vector_2'> +1.7773164e-05 </wgt>
<wgt id='morphing_basis_vector_3'> +2.0623113e-05 </wgt>
<wgt id='morphing_basis_vector_4'> +6.3969801e-06 </wgt>
<wgt id='morphing_basis_vector_5'> +1.8459730e-05 </wgt>
</rwgt>
</event>
<event>
 4      1 +4.5322000e-10 4.60600900e+03 7.81860800e-03 7.44126300e-02
        2 -1    0    0  501    0 +0.0000000000e+00 +0.0000000000e+00 +2.2216922697e+03 2.2216922697e+03 0.0000000000e+00 0.0000e+00 -1.0000e+00
       -2 -1    0    0    0  501 -0.0000000000e+00 -0.0000000000e+00 -2.3872927526e+03 2.3872927526e+03 0.0000000000e+00 0.0000e+00 1.0000e+00
      -13  1    1    2    0    0 -2.3022201394e+03 -1.4915936543e+01 -2.4540648500e+01 2.3023992484e+03 0.0000000000e+00 0.0000e+00 1.0000e+00
       13  1    1    2    0    0 +2.3022201394e+03 +1.4915936543e+01 -1.4105983447e+02 2.3065857739e+03 0.0000000000e+00 0.0000e+00 -1.0000e+00
<mgrwt>
<rscale>  0 0.46060091E+04</rscale>
<asrwt>0</asrwt>
<pdfrwt beam="1">  1        2 0.34179881E+00 0.46060091E+04</pdfrwt>
<pdfrwt beam="2">  1       -2 0.36727581E+00 0.46060091E+04</pdfrwt>
<totfact> 0.40787427E-02</totfact>
</mgrwt>
<rwgt>
<wgt id='morphing_basis_vector_1'> +2.8766234e-05 </wgt>
<wgt id='morphing_basis_vector_2'> +2.2036268e-05 </wgt>
<wgt id='morphing_basis_vector_3'> +3.2227249e-05 </wgt>
<wgt id='morphing_basis_vector_4'> +1.9603233e-05 </wgt>
<wgt id='morphing_basis_vector_5'> +3.4831112e-05 </wgt>
</rwgt>
</event>
<event>
 4      1 +4.5322000e-10 3.88204300e+03 7.81860800e-03 7.56217100e-02
        2 -1    0    0  501    0 +0.0000000000e+00 +0.0000000000e+00 +2.4408470668e+03 2.4408470668e+03 0.0000000000e+00 0.0000e+00 -1.0000e+00
       -2 -1    0    0    0  501 -0.0000000000e+00 -0.0000000000e+00 -1.5435477518e+03 1.5435477518e+03 0.0000000000e+00 0.0000e+00 1.0000e+00
      -13  1    1    2    0    0 -8.8129361455e+02 -1.2722342699e+03 -7.5369079291e+02 1.7214262354e+03 0.0000000000e+00 0.0000e+00 1.0000e+00
       13  1    1    2    0    0 +8.8129361455e+02 +1.2722342699e+03 +1.6509901079e+03 2.2629685833e+03 0.0000000000e+00 0.0000e+00 -1.0000e+00
<mgrwt>
<rscale>  0 0.38820428E+04</rscale>
<asrwt>0</asrwt>
<pdfrwt beam="1">  1        2 0.37551493E+00 0.38820428E+04</pdfrwt>
<pdfrwt beam="2">  1       -2 0.23746889E+00 0.38820428E+04</pdfrwt>
<totfact> 0.23895033E-01</totfact>
</mgrwt>
<rwgt>
<wgt id='morphing_basis_vector_1'> +1.4031872e-05 </wgt>
<wgt id='morphing_basis_vector_2'> +9.5817681e-06 </wgt>
<wgt id='morphing_basis_vector_3'> +1.5411520e-05 </wgt>
<wgt id='morphing_basis_vector_4'> +1.0980442e-05 </wgt>
<wgt id='morphing_basis_vector_5'> +1.7615597e-05 </wgt>
</rwgt>
</event>
<event>
 4      1 +4.5322000e-10 4.55542300e+03 7.81860800e-03 7.44895700e-02
        2 -1    0    0  501    0 +0.0000000000e+00 +0.0000000000e+00 +2.0951968599e+03 2.0951968599e+03 0.0000000000e+00 0.0000e+00 1.0000e+00
       -2 -1    0    0    0  501 -0.0000000000e+00 -0.0000000000e+00 -2.4761247632e+03 2.4761247632e+03 0.0000000000e+00 0.0000e+00 -1.0000e+00
      -13  1    1    2    0    0 -1.6233934652e+03 +1.5435636257e+03 -6.0418166847e+02 2.3201358792e+03 0.0000000000e+00 0.0000e+00 -1.0000e+00
       13  1    1    2    0    0 +1.6233934652e+03 -1.5435636257e+03 +2.2325376515e+02 2.2511857438e+03 0.0000000000e+00 0.0000e+00 1.0000e+00
<mgrwt>
<rscale>  0 0.45554226E+04</rscale>
<asrwt>0</asrwt>
<pdfrwt beam="1">  1        2 0.32233798E+00 0.45554226E+04</pdfrwt>
<pdfrwt beam="2">  1       -2 0.38094227E+00 0.45554226E+04</pdfrwt>
<totfact> 0.39482194E-02</totfact>
</mgrwt>
<rwgt>
<wgt id='morphing_basis_vector_1'> +2.6955469e-05 </wgt>
<wgt id='morphing_basis_vector_2'> +1.9404217e-05 </wgt>
<wgt id='morphing_basis_vector_3'> +2.9909173e-05 </wgt>
<wgt id='morphing_basis_vector_4'> +1.9969598e-05 </wgt>
<wgt id='morphing_basis_vector_5'> +3.3422219e-05 </wgt>
</rwgt>
</event>
<event>
 4      1 +4.5322000e-10 3.93622400e+03 7.81860800e-03 7.55222500e-02
        2 -1    0    0  501    0 +0.0000000000e+00 +0.0000000000e+00 +2.6974953479e+03 2.6974953479e+03 0.0000000000e+00 0.0000e+00 -1.0000e+00
       -2 -1    0    0    0  501 -0.0000000000e+00 -0.0000000000e+00 -1.4359484170e+03 1.4359484170e+03 0.0000000000e+00 0.0000e+00 1.0000e+00
      -13  1    1    2    0    0 +1.4628228801e+03 -1.2390270106e+03 +1.0985419600e+03 2.2094870783e+03 0.0000000000e+00 0.0000e+00 1.0000e+00
       13  1    1    2    0    0 -1.4628228801e+03 +1.2390270106e+03 +1.6300497085e+02 1.9239566866e+03 0.0000000000e+00 0.0000e+00 -1.0000e+00
<mgrwt>
<rscale>  0 0.39362237E+04</rscale>
<asrwt>0</asrwt>
<pdfrwt beam="1">  1        2 0.41499928E+00 0.39362237E+04</pdfrwt>
<pdfrwt beam="2">  1       -2 0.22091514E+00 0.39362237E+04</pdfrwt>
<totfact> 0.21765516E-01</totfact>
</mgrwt>
<rwgt>
<wgt id='morphing_basis_vector_1'> +1.5979223e-05 </wgt>
<wgt id='morphing_basis_vector_2'> +1.3512775e-05 </wgt>
<wgt id='morphing_basis_vector_3'> +1.8135987e-05 </wgt>
<wgt id='morphing_basis_vector_4'> +9.1748789e-06 </wgt>
<wgt id='morphing_basis_vector_5'> +1.8422437e-05 </wgt>
</rwgt>
</event>
<event>
 4      1 +4.5322000e-10 4.06020600e+03 7.81860800e-03 7.53006800e-02
        2 -1    0    0  501    0 +0.0000000000e+00 +0.0000000000e+00 +3.3219985361e+03 3.3219985361e+03 0.0000000000e+00 0.0000e+00 -1.0000e+00
       -2 -1    0    0    0  501 -0.0000000000e+00 -0.0000000000e+00 -1.2406141896e+03 1.2406141896e+03 0.0000000000e+00 0.0000e+00 1.0000e+00
      -13  1    1    2    0    0 +1.3714490758e+03 +5.1088852823e+01 -6.4035398330e+02 1.5144424262e+03 0.0000000000e+00 0.0000e+00 1.0000e+00
       13  1    1    2    0    0 -1.3714490758e+03 -5.1088852823e+01 +2.7217383298e+03 3.0481702995e+03 0.0000000000e+00 0.0000e+00 -1.0000e+00
<mgrwt>
<rscale>  0 0.40602062E+04</rscale>
<asrwt>0</asrwt>
<pdfrwt beam="1">  1        2 0.51107669E+00 0.40602062E+04</pdfrwt>
<pdfrwt beam="2">  1       -2 0.19086372E+00 0.40602062E+04</pdfrwt>
<totfact> 0.13866246E-01</totfact>
</mgrwt>
<rwgt>
<wgt id='morphing_basis_vector_1'> +1.6749096e-05 </wgt>
<wgt id='morphing_basis_vector_2'> +1.1385303e-05 </wgt>
<wgt id='morphing_basis_vector_3'> +1.8398954e-05 </wgt>
<wgt id='morphing_basis_vector_4'> +1.3205565e-05 </wgt>
<wgt id='morphing_basis_vector_5'> +2.1102554e-05 </wgt>
</rwgt>
</event>
<event>
 4      1 +4.5322000e-10 4.17012200e+03 7.81860800e-03 7.51108800e-02
        2 -1    0    0  501    0 +0.0000000000e+00 +0.0000000000e+00 +3.1128757824e+03 3.1128757824e+03 0.0000000000e+00 0.0000e+00 -1.0000e+00
       -2 -1    0    0    0  501 -0.0000000000e+00 -0.0000000000e+00 -1.3966121310e+03 1.3966121310e+03 0.0000000000e+00 0.0000e+00 1.0000e+00
      -13  1    1    2    0    0 +1.6789652327e+03 -1.0267342427e+03 +1.1333427590e+02 1.9712818459e+03 0.0000000000e+00 0.0000e+00 1.0000e+00
       13  1    1    2    0    0 -1.6789652327e+03 +1.0267342427e+03 +1.6029293756e+03 2.5382060675e+03 0.0000000000e+00 0.0000e+00 -1.0000e+00
<mgrwt>
<rscale>  0 0.41701223E+04</rscale>
<asrwt>0</asrwt>
<pdfrwt beam="1">  1        2 0.47890396E+00 0.41701223E+04</pdfrwt>
<pdfrwt beam="2">  1       -2 0.21486341E+00 0.41701223E+04</pdfrwt>
<totfact> 0.12776855E-01</totfact>
</mgrwt>
<rwgt>
<wgt id='morphing_basis_vector_1'> +1.8798102e-05 </wgt>
<wgt id='morphing_basis_vector_2'> +1.3166032e-05 </wgt>
<wgt id='morphing_basis_vector_3'> +2.0746387e-05 </wgt>
<wgt id='morphing_basis_vector_4'> +1.4341760e-05 </wgt>
<wgt id='morphing_basis_vector_5'> +2.3463876e-05 </wgt>
</rwgt>
</event>
<event>
 4      1 +4.5322000e-10 4.10761400e+03 7.81860800e-03 7.52180800e-02
        2 -1    0    0  501    0 +0.0000000000e+00 +0.0000000000e+00 +1.2993943706e+03 1.2993943706e+03 0.0000000000e+00 0.0000e+00 -1.0000e+00
       -2 -1    0    0    0  501 -0.0000000000e+00 -0.0000000000e+00 -3.2462227861e+03 3.2462227861e+03 0.0000000000e+00 0.0000e+00 1.0000e+00
      -13  1    1    2    0    0 -9.1775775895e+01 -1.4441181212e+03 +6.3947052400e+02 1.5820311287e+03 0.0000000000e+00 0.0000e+00 1.0000e+00
       13  1    1    2    0    0 +9.1775775895e+01 +1.4441181212e+03 -2.5862989394e+03 2.9635860280e+03 0.0000000000e+00 0.0000e+00 -1.0000e+00
<mgrwt>
<rscale>  0 0.41076142E+04</rscale>
<asrwt>0</asrwt>
<pdfrwt beam="1">  1        2 0.19990683E+00 0.41076142E+04</pdfrwt>
<pdfrwt beam="2">  1       -2 0.49941888E+00 0.41076142E+04</pdfrwt>
<totfact> 0.17273773E-02</totfact>
</mgrwt>
<rwgt>
<wgt id='morphing_basis_vector_1'> +2.2675371e-05 </wgt>
<wgt id='morphing_basis_vector_2'> +2.7014726e-05 </wgt>
<wgt id='morphing_basis_vector_3'> +2.7524355e-05 </wgt>
<wgt id='morphing_basis_vector_4'> +2.9649064e-06 </wgt>
<wgt id='morphing_basis_vector_5'> +2.1203905e-05 </wgt>
</rwgt>
</event>
<event>
 4      1 +4.5322000e-10 3.95125600e+03 7.81860800e-03 7.54949500e-02
        2 -1    0    0  501    0 +0.0000000000e+00 +0.0000000000e+00 +3.4624853609e+03 3.4624853609e+03 0.0000000000e+00 0.0000e+00 -1.0000e+00
       -2 -1    0    0    0  501 -0.0000000000e+00 -0.0000000000e+00 -1.1272557312e+03 1.1272557312e+03 0.0000000000e+00 0.0000e+00 1.0000e+00
      -13  1    1    2    0    0 +7.7009014173e+02 -7.2773122574e+02 -7.6930874952e+02 1.3093767660e+03 0.0000000000e+00 0.0000e+00 1.0000e+00
       13  1    1    2    0    0 -7.7009014173e+02 +7.2773122574e+02 +3.1045383792e+03 3.2803643260e+03 0.0000000000e+00 0.0000e+00 -1.0000e+00
<mgrwt>
<rscale>  0 0.39512562E+04</rscale>
<asrwt>0</asrwt>
<pdfrwt beam="1">  1        2 0.53269005E+00 0.39512562E+04</pdfrwt>
<pdfrwt beam="2">  1       -2 0.17342396E+00 0.39512562E+04</pdfrwt>
<totfact> 0.15053681E-01</totfact>
</mgrwt>
<rwgt>
<wgt id='morphing_basis_vector_1'> +1.5021123e-05 </wgt>
<wgt id='morphing_basis_vector_2'> +1.0185473e-05 </wgt>
<wgt id='morphing_basis_vector_3'> +1.6487319e-05 </wgt>
<wgt id='morphing_basis_vector_4'> +1.1858374e-05 </wgt>
<wgt id='morphing_basis_vector_5'> +1.8918581e-05 </wgt>
</rwgt>
</event>
<event>
 4      1 +4.5322000e-10 4.26667100e+03 7.81860800e-03 7.49489900e-02
        2 -1    0    0  501    0 +0.0000000000e+00 +0.0000000000e+00 +1.8656148916e+03 1.8656148916e+03 0.0000000000e+00 0.0000e+00 -1.0000e+00
       -2 -1    0    0    0  501 -0.0000000000e+00 -0.0000000000e+00 -2.4394748544e+03 2.4394748544e+03 0.0000000000e+00 0.0000e+00 1.0000e+00
      -13  1    1    2    0    0 -1.7391598249e+03 +6.8580627560e+02 -1.3238573379e+03 2.2907652423e+03 0.0000000000e+00 0.0000e+00 1.0000e+00
       13  1    1    2    0    0 +1.7391598249e+03 -6.8580627560e+02 +7.4999737505e+02 2.0143245038e+03 0.0000000000e+00 0.0000e+00 -1.0000e+00
<mgrwt>
<rscale>  0 0.42666711E+04</rscale>
<asrwt>0</asrwt>
<pdfrwt beam="1">  1        2 0.28701768E+00 0.42666711E+04</pdfrwt>
<pdfrwt beam="2">  1       -2 0.37530382E+00 0.42666711E+04</pdfrwt>
<totfact> 0.59103783E-02</totfact>
</mgrwt>
<rwgt>
<wgt id='morphing_basis_vector_1'> +2.0486966e-05 </wgt>
<wgt id='morphing_basis_vector_2'> +1.4117974e-05 </wgt>
<wgt id='morphing_basis_vector_3'> +2.2566435e-05 </wgt>
<wgt id='morphing_basis_vector_4'> +1.5945127e-05 </wgt>
<wgt id='morphing_basis_vector_5'> +2.5742525e-05 </wgt>
</rwgt>
</event>
<event>
 4      1 +4.5322000e-10 4.10728900e+03 7.81860800e-03 7.52186400e-02
        2 -1    0    0  501    0 +0.0000000000e+00 +0.0000000000e+00 +4.0831049081e+03 4.0831049081e+03 0.0000000000e+00 0.0000e+00 -1.0000e+00
       -2 -1    0    0    0  501 -0.0000000000e+00 -0.0000000000e+00 -1.0329039471e+03 1.0329039471e+03 0.0000000000e+00 0.0000e+00 1.0000e+00
      -13  1    1    2    0    0 -8.2227276220e+02 -3.7773568190e+01 -8.1843371905e+02 1.1607726265e+03 0.0000000000e+00 0.0000e+00 1.0000e+00
       13  1    1    2    0    0 +8.2227276220e+02 +3.7773568190e+01 +3.8686346800e+03 3.9552362288e+03 0.0000000000e+00 0.0000e+00 -1.0000e+00
<mgrwt>
<rscale>  0 0.41072887E+04</rscale>
<asrwt>0</asrwt>
<pdfrwt beam="1">  1        2 0.62816998E+00 0.41072887E+04</pdfrwt>
<pdfrwt beam="2">  1       -2 0.15890830E+00 0.41072887E+04</pdfrwt>
<totfact> 0.62085684E-02</totfact>
</mgrwt>
<rwgt>
<wgt id='morphing_basis_vector_1'> +1.7520626e-05 </wgt>
<wgt id='morphing_basis_vector_2'> +1.1877477e-05 </wgt>
<wgt id='morphing_basis_vector_3'> +1.9242934e-05 </wgt>
<wgt id='morphing_basis_vector_4'> +1.3863575e-05 </wgt>
<wgt id='morphing_basis_vector_5'> +2.2106044e-05 </wgt>
</rwgt>
</event>
<event>
 4      1 +4.5322000e-10 4.10407100e+03 7.81860800e-03 7.52242100e-02
        2 -1    0    0  501    0 +0.0000000000e+00 +0.0000000000e+00 +1.4178324799e+03 1.4178324799e+03 0.0000000000e+00 0.0000e+00 -1.0000e+00
       -2 -1    0    0    0  501 -0.0000000000e+00 -0.0000000000e+00 -2.9699209110e+03 2.9699209110e+03 0.0000000000e+00 0.0000e+00 1.0000e+00
      -13  1    1    2    0    0 -6.3445992551e+02 +1.9336404000e+03 -1.0575823288e+03 2.2934657128e+03 0.0000000000e+00 0.0000e+00 1.0000e+00
       13  1    1    2    0    0 +6.3445992551e+02 -1.9336404000e+03 -4.9450610228e+02 2.0942876781e+03 0.0000000000e+00 0.0000e+00 -1.0000e+00
<mgrwt>
<rscale>  0 0.41040713E+04</rscale>
<asrwt>0</asrwt>
<pdfrwt beam="1">  1        2 0.21812807E+00 0.41040713E+04</pdfrwt>
<pdfrwt beam="2">  1       -2 0.45691091E+00 0.41040713E+04</pdfrwt>
<totfact> 0.30417984E-02</totfact>
</mgrwt>
<rwgt>
<wgt id='morphing_basis_vector_1'> +1.7864078e-05 </wgt>
<wgt id='morphing_basis_vector_2'> +1.3010157e-05 </wgt>
<wgt id='morphing_basis_vector_3'> +1.9822355e-05 </wgt>
<wgt id='morphing_basis_vector_4'> +1.2977237e-05 </wgt>
<wgt id='morphing_basis_vector_5'> +2.1966261e-05 </wgt>
</rwgt>
</event>
<event>
 4      1 +4.5322000e-10 3.97467400e+03 7.81860800e-03 7.54526600e-02
        2 -1    0    0  501    0 +0.0000000000e+00 +0.0000000000e+00 +4.1231413935e+03 4.1231413935e+03 0.0000000000e+00 0.0000e+00 1.0000e+00
       -2 -1    0    0    0  501 -0.0000000000e+00 -0.0000000000e+00 -9.5788807052e+02 9.5788807052e+02 0.0000000000e+00 0.0000e+00 -1.0000e+00
      -13  1    1    2    0    0 +4.2457169151e+02 +7.6223808792e+02 -6.9995182447e+02 1.1185707758e+03 0.0000000000e+00 0.0000e+00 -1.0000e+00
       13  1    1    2    0    0 -4.2457169151e+02 -7.6223808792e+02 +3.8652051474e+03 3.9624586882e+03 0.0000000000e+00 0.0000e+00 1.0000e+00
<mgrwt>
<rscale>  0 0.39746738E+04</rscale>
<asrwt>0</asrwt>
<pdfrwt beam="1">  1        2 0.63432944E+00 0.39746738E+04</pdfrwt>
<pdfrwt beam="2">  1       -2 0.14736740E+00 0.39746738E+04</pdfrwt>
<totfact> 0.71940251E-02</totfact>
</mgrwt>
<rwgt>
<wgt id='morphing_basis_vector_1'> +1.5375807e-05 </wgt>
<wgt id='morphing_basis_vector_2'> +1.0420664e-05 </wgt>
<wgt id='morphing_basis_vector_3'> +1.6877203e-05 </wgt>
<wgt id='morphing_basis_vector_4'> +1.2149114e-05 </wgt>
<wgt id='morphing_basis_vector_5'> +1.9373866e-05 </wgt>
</rwgt>
</event>
<event>
 4      1 +4.5322000e-10 4.07781300e+03 7.81860800e-03 7.52698700e-02
        2 -1    0    0  501    0 +0.0000000000e+00 +0.0000000000e+00 +2.1534763918e+03 2.1534763918e+03 0.0000000000e+00 0.0000e+00 -1.0000e+00
       -2 -1    0    0    0  501 -0.0000000000e+00 -0.0000000000e+00 -1.9304322729e+03 1.9304322729e+03 0.0000000000e+00 0.0000e+00 1.0000e+00
      -13  1    1    2    0    0 +2.0205120028e+02 -1.6420948277e+03 +1.3048736578e+03 2.1071296527e+03 0.0000000000e+00 0.0000e+00 -1.0000e+00
       13  1    1    2    0    0 -2.0205120028e+02 +1.6420948277e+03 -1.0818295389e+03 1.9767790119e+03 0.0000000000e+00 0.0000e+00 1.0000e+00
<mgrwt>
<rscale>  0 0.40778133E+04</rscale>
<asrwt>0</asrwt>
<pdfrwt beam="1">  1        2 0.33130406E+00 0.40778133E+04</pdfrwt>
<pdfrwt beam="2">  1       -2 0.29698958E+00 0.40778133E+04</pdfrwt>
<totfact> 0.13498190E-01</totfact>
</mgrwt>
<rwgt>
<wgt id='morphing_basis_vector_1'> +2.0910056e-05 </wgt>
<wgt id='morphing_basis_vector_2'> +2.2957960e-05 </wgt>
<wgt id='morphing_basis_vector_3'> +2.4936822e-05 </wgt>
<wgt id='morphing_basis_vector_4'> +5.2450968e-06 </wgt>
<wgt id='morphing_basis_vector_5'> +2.0789815e-05 </wgt>
</rwgt>
</event>
<event>
 4      1 +4.5322000e-10 4.50522400e+03 7.81860800e-03 7.45669300e-02
        2 -1    0    0  501    0 +0.0000000000e+00 +0.0000000000e+00 +2.4095188086e+03 2.4095188086e+03 0.0000000000e+00 0.0000e+00 -1.0000e+00
       -2 -1    0    0    0  501 -0.0000000000e+00 -0.0000000000e+00 -2.1059226116e+03 2.1059226116e+03 0.0000000000e+00 0.0000e+00 1.0000e+00
      -13  1    1    2    0    0 +1.1715747322e+03 -1.9223319856e+03 +7.2166497307e+01 2.2523666707e+03 0.0000000000e+00 0.0000e+00 1.0000e+00
       13  1    1    2    0    0 -1.1715747322e+03 +1.9223319856e+03 +2.3142969967e+02 2.2630747495e+03 0.0000000000e+00 0.0000e+00 -1.0000e+00
<mgrwt>
<rscale>  0 0.45052237E+04</rscale>
<asrwt>0</asrwt>
<pdfrwt beam="1">  1        2 0.37069520E+00 0.45052237E+04</pdfrwt>
<pdfrwt beam="2">  1       -2 0.32398809E+00 0.45052237E+04</pdfrwt>
<totfact> 0.61187868E-02</totfact>
</mgrwt>
<rwgt>
<wgt id='morphing_basis_vector_1'> +2.6138732e-05 </wgt>
<wgt id='morphing_basis_vector_2'> +1.9584888e-05 </wgt>
<wgt id='morphing_basis_vector_3'> +2.9173566e-05 </wgt>
<wgt id='morphing_basis_vector_4'> +1.8362749e-05 </wgt>
<wgt id='morphing_basis_vector_5'> +3.1906041e-05 </wgt>
</rwgt>
</event>
<event>
 4      1 +4.5322000e-10 4.59386700e+03 7.81860800e-03 7.44310100e-02
        2 -1    0    0  501    0 +0.0000000000e+00 +0.0000000000e+00 +2.1206251459e+03 2.1206251459e+03 0.0000000000e+00 0.0000e+00 -1.0000e+00
       -2 -1    0    0    0  501 -0.0000000000e+00 -0.0000000000e+00 -2.4879002120e+03 2.4879002120e+03 0.0000000000e+00 0.0000e+00 1.0000e+00
      -13  1    1    2    0    0 +1.7995210126e+03 -4.3141937668e+02 -1.5486795564e+03 2.4130492995e+03 0.0000000000e+00 0.0000e+00 1.0000e+00
       13  1    1    2    0    0 -1.7995210126e+03 +4.3141937668e+02 +1.1814044904e+03 2.1954760584e+03 0.0000000000e+00 0.0000e+00 -1.0000e+00
<mgrwt>
<rscale>  0 0.45938671E+04</rscale>
<asrwt>0</asrwt>
<pdfrwt beam="1">  1        2 0.32625002E+00 0.45938671E+04</pdfrwt>
<pdfrwt beam="2">  1       -2 0.38275388E+00 0.45938671E+04</pdfrwt>
<totfact> 0.37064062E-02</totfact>
</mgrwt>
<rwgt>
<wgt id='morphing_basis_vector_1'> +2.7435518e-05 </wgt>
<wgt id='morphing_basis_vector_2'> +1.8780320e-05 </wgt>
<wgt id='morphing_basis_vector_3'> +3.0223805e-05 </wgt>
<wgt id='morphing_basis_vector_4'> +2.1585443e-05 </wgt>
<wgt id='morphing_basis_vector_5'> +3.4647058e-05 </wgt>
</rwgt>
</event>
<event>
 4      1 +4.5322000e-10 4.08443000e+03 7.81860800e-03 7.52583300e-02
        2 -1    0    0  501    0 +0.0000000000e+00 +0.0000000000e+00 +3.6494023792e+03 3.6494023792e+03 0.0000000000e+00 0.0000e+00 -1.0000e+00
       -2 -1    0    0    0  501 -0.0000000000e+00 -0.0000000000e+00 -1.1428286215e+03 1.1428286215e+03 0.0000000000e+00 0.0000e+00 1.0000e+00
      -13  1    1    2    0    0 +7.4813028846e+02 +3.7835661170e+02 -9.3161853597e+02 1.2533019392e+03 0.0000000000e+00 0.0000e+00 1.0000e+00
       13  1    1    2    0    0 -7.4813028846e+02 -3.7835661170e+02 +3.4381922937e+03 3.5389290616e+03 0.0000000000e+00 0.0000e+00 -1.0000e+00
<mgrwt>
<rscale>  0 0.40844297E+04</rscale>
<asrwt>0</asrwt>
<pdfrwt beam="1">  1        2 0.56144651E+00 0.40844297E+04</pdfrwt>
<pdfrwt beam="2">  1       -2 0.17581979E+00 0.40844297E+04</pdfrwt>
<totfact> 0.10358442E-01</totfact>
</mgrwt>
<rwgt>
<wgt id='morphing_basis_vector_1'> +1.7135846e-05 </wgt>
<wgt id='morphing_basis_vector_2'> +1.1616197e-05 </wgt>
<wgt id='morphing_basis_vector_3'> +1.8818490e-05 </wgt>
<wgt id='morphing_basis_vector_4'> +1.3555801e-05 </wgt>
<wgt id='morphing_basis_vector_5'> +2.1615704e-05 </wgt>
</rwgt>
</event>
<event>
 4      1 +4.5322000e-10 4.02686400e+03 7.81860800e-03 7.53594700e-02
        2 -1    0    0  501    0 +0.0000000000e+00 +0.0000000000e+00 +1.9002147715e+03 1.9002147715e+03 0.0000000000e+00 0.0000e+00 -1.0000e+00
       -2 -1    0    0    0  501 -0.0000000000e+00 -0.0000000000e+00 -2.1333951251e+03 2.1333951251e+03 0.0000000000e+00 0.0000e+00 1.0000e+00
      -13  1    1    2    0    0 -8.2163239251e+02 +6.9977025571e+02 -1.8191877272e+03 2.1152310006e+03 0.0000000000e+00 0.0000e+00 1.0000e+00
       13  1    1    2    0    0 +8.2163239251e+02 -6.9977025571e+02 +1.5860073736e+03 1.9183788960e+03 0.0000000000e+00 0.0000e+00 -1.0000e+00
<mgrwt>
<rscale>  0 0.40268643E+04</rscale>
<asrwt>0</asrwt>
<pdfrwt beam="1">  1        2 0.29234074E+00 0.40268643E+04</pdfrwt>
<pdfrwt beam="2">  1       -2 0.32821463E+00 0.40268643E+04</pdfrwt>
<totfact> 0.11650533E-01</totfact>
</mgrwt>
<rwgt>
<wgt id='morphing_basis_vector_1'> +1.6197930e-05 </wgt>
<wgt id='morphing_basis_vector_2'> +1.0986002e-05 </wgt>
<wgt id='morphing_basis_vector_3'> +1.7785464e-05 </wgt>
<wgt id='morphing_basis_vector_4'> +1.2797160e-05 </wgt>
<wgt id='morphing_basis_vector_5'> +2.0416447e-05 </wgt>
</rwgt>
</event>
<event>
 4      1 +4.5322000e-10 4.00602200e+03 7.81860800e-03 7.53965100e-02
        2 -1    0    0  501    0 +0.0000000000e+00 +0.0000000000e+00 +3.0502121864e+03 3.0502121864e+03 0.0000000000e+00 0.0000e+00 1.0000e+00
       -2 -1    0    0    0  501 -0.0000000000e+00 -0.0000000000e+00 -1.3153358332e+03 1.3153358332e+03 0.0000000000e+00 0.0000e+00 -1.0000e+00
      -13  1    1    2    0    0 -8.5160523926e+02 +1.0846884034e+03 -7.1561221870e+02 1.5536670375e+03 0.0000000000e+00 0.0000e+00 -1.0000e+00
       13  1    1    2    0    0 +8.5160523926e+02 -1.0846884034e+03 +2.4504885719e+03 2.8118809820e+03 0.0000000000e+00 0.0000e+00 1.0000e+00
<mgrwt>
<rscale>  0 0.40060222E+04</rscale>
<asrwt>0</asrwt>
<pdfrwt beam="1">  1        2 0.46926341E+00 0.40060222E+04</pdfrwt>
<pdfrwt beam="2">  1       -2 0.20235936E+00 0.40060222E+04</pdfrwt>
<totfact> 0.17533110E-01</totfact>
</mgrwt>
<rwgt>
<wgt id='morphing_basis_vector_1'> +1.5878615e-05 </wgt>
<wgt id='morphing_basis_vector_2'> +1.0795341e-05 </wgt>
<wgt id='morphing_basis_vector_3'> +1.7439098e-05 </wgt>
<wgt id='morphing_basis_vector_4'> +1.2508139e-05 </wgt>
<wgt id='morphing_basis_vector_5'> +1.9992918e-05 </wgt>
</rwgt>
</event>
<event>
 4      1 +4.5322000e-10 4.03508900e+03 7.81860800e-03 7.53449100e-02
        2 -1    0    0  501    0 +0.0000000000e+00 +0.0000000000e+00 +2.6903344345e+03 2.6903344345e+03 0.0000000000e+00 0.0000e+00 -1.0000e+00
       -2 -1    0    0    0  501 -0.0000000000e+00 -0.0000000000e+00 -1.5130034580e+03 1.5130034580e+03 0.0000000000e+00 0.0000e+00 1.0000e+00
      -13  1    1    2    0    0 -8.0551388516e+02 +1.7838196015e+03 +7.8744336528e+01 1.9588429392e+03 0.0000000000e+00 0.0000e+00 1.0000e+00
       13  1    1    2    0    0 +8.0551388516e+02 -1.7838196015e+03 +1.0985866400e+03 2.2444949533e+03 0.0000000000e+00 0.0000e+00 -1.0000e+00
<mgrwt>
<rscale>  0 0.40350887E+04</rscale>
<asrwt>0</asrwt>
<pdfrwt beam="1">  1        2 0.41389761E+00 0.40350887E+04</pdfrwt>
<pdfrwt beam="2">  1       -2 0.23276976E+00 0.40350887E+04</pdfrwt>
<totfact> 0.17996244E-01</totfact>
</mgrwt>
<rwgt>
<wgt id='morphing_basis_vector_1'> +1.6563142e-05 </wgt>
<wgt id='morphing_basis_vector_2'> +1.1761125e-05 </wgt>
<wgt id='morphing_basis_vector_3'> +1.8305444e-05 </wgt>
<wgt id='morphing_basis_vector_4'> +1.2409204e-05 </wgt>
<wgt id='morphing_basis_vector_5'> +2.0543461e-05 </wgt>
</rwgt>
</event>
<event>
 4      1 +4.5322000e-10 4.02666600e+03 7.81860800e-03 7.53598200e-02
        2 -1    0    0  501    0 +0.0000000000e+00 +0.0000000000e+00 +2.2818860108e+03 2.2818860108e+03 0.0000000000e+00 0.0000e+00 -1.0000e+00
       -2 -1    0    0    0  501 -0.0000000000e+00 -0.0000000000e+00 -1.7763853635e+03 1.7763853635e+03 0.0000000000e+00 0.0000e+00 1.0000e+00
      -13  1    1    2    0    0 -1.6502723336e+03 -1.1110742705e+03 -5.8908341679e+01 1.9903153022e+03 0.0000000000e+00 0.0000e+00 1.0000e+00
       13  1    1    2    0    0 +1.6502723336e+03 +1.1110742705e+03 +5.6440898898e+02 2.0679560722e+03 0.0000000000e+00 0.0000e+00 -1.0000e+00
<mgrwt>
<rscale>  0 0.40266656E+04</rscale>
<asrwt>0</asrwt>
<pdfrwt beam="1">  1        2 0.35105939E+00 0.40266656E+04</pdfrwt>
<pdfrwt beam="2">  1       -2 0.27329006E+00 0.40266656E+04</pdfrwt>
<totfact> 0.16566953E-01</totfact>
</mgrwt>
<rwgt>
<wgt id='morphing_basis_vector_1'> +1.6526005e-05 </wgt>
<wgt id='morphing_basis_vector_2'> +1.1957489e-05 </wgt>
<wgt id='morphing_basis_vector_3'> +1.8313668e-05 </wgt>
<wgt id='morphing_basis_vector_4'> +1.2093762e-05 </wgt>
<wgt id='morphing_basis_vector_5'> +2.0353994e-05 </wgt>
</rwgt>
</event>
<event>
 4      1 +4.5322000e-10 4.18104500e+03 7.81860800e-03 7.50923400e-02
        2 -1    0    0  501    0 +0.0000000000e+00 +0.0000000000e+00 +1.4610364882e+03 1.4610364882e+03 0.0000000000e+00 0.0000e+00 -1.0000e+00
       -2 -1    0    0    0  501 -0.0000000000e+00 -0.0000000000e+00 -2.9912212728e+03 2.9912212728e+03 0.0000000000e+00 0.0000e+00 1.0000e+00
      -13  1    1    2    0    0 +1.1550960939e+03 -1.5365820590e+03 -1.6399390785e+03 2.5268026420e+03 0.0000000000e+00 0.0000e+00 1.0000e+00
       13  1    1    2    0    0 -1.1550960939e+03 +1.5365820590e+03 +1.0975429387e+02 1.9254551190e+03 0.0000000000e+00 0.0000e+00 -1.0000e+00
<mgrwt>
<rscale>  0 0.41810446E+04</rscale>
<asrwt>0</asrwt>
<pdfrwt beam="1">  1        2 0.22477485E+00 0.41810446E+04</pdfrwt>
<pdfrwt beam="2">  1       -2 0.46018789E+00 0.41810446E+04</pdfrwt>
<totfact> 0.27094262E-02</totfact>
</mgrwt>
<rwgt>
<wgt id='morphing_basis_vector_1'> +1.8948401e-05 </wgt>
<wgt id='morphing_basis_vector_2'> +1.3167630e-05 </wgt>
<wgt id='morphing_basis_vector_3'> +2.0889777e-05 </wgt>
<wgt id='morphing_basis_vector_4'> +1.4591767e-05 </wgt>
<wgt id='morphing_basis_vector_5'> +2.3720011e-05 </wgt>
</rwgt>
</event>
<event>
 4      1 +4.5322000e-10 4.16829400e+03 7.81860800e-03 7.51139800e-02
        2 -1    0    0  501    0 +0.0000000000e+00 +0.0000000000e+00 +3.6899197150e+03 3.6899197150e+03 0.0000000000e+00 0.0000e+00 -1.0000e+00
       -2 -1    0    0    0  501 -0.0000000000e+00 -0.0000000000e+00 -1.1771716889e+03 1.1771716889e+03 0.0000000000e+00 0.0000e+00 1.0000e+00
      -13  1    1    2    0    0 +5.4096816214e+02 -1.9760440643e+03 +1.7029467725e+03 2.6640991736e+03 0.0000000000e+00 0.0000e+00 1.0000e+00
       13  1    1    2    0    0 -5.4096816214e+02 +1.9760440643e+03 +8.0980125364e+02 2.2029922303e+03 0.0000000000e+00 0.0000e+00 -1.0000e+00
<mgrwt>
<rscale>  0 0.41682941E+04</rscale>
<asrwt>0</asrwt>
<pdfrwt beam="1">  1        2 0.56767995E+00 0.41682941E+04</pdfrwt>
<pdfrwt beam="2">  1       -2 0.18110334E+00 0.41682941E+04</pdfrwt>
<totfact> 0.87283517E-02</totfact>
</mgrwt>
<rwgt>
<wgt id='morphing_basis_vector_1'> +1.9872858e-05 </wgt>
<wgt id='morphing_basis_vector_2'> +1.6397837e-05 </wgt>
<wgt id='morphing_basis_vector_3'> +2.2491517e-05 </wgt>
<wgt id='morphing_basis_vector_4'> +1.1970071e-05 </wgt>
<wgt id='morphing_basis_vector_5'> +2.3226813e-05 </wgt>
</rwgt>
</event>
<event>
 4      1 +4.5322000e-10 3.87442200e+03 7.81860800e-03 7.56358300e-02
        2 -1    0    0  501    0 +0.0000000000e+00 +0.0000000000e+00 +2.3583177996e+03 2.3583177996e+03 0.0000000000e+00 0.0000e+00 -1.0000e+00
       -2 -1    0    0    0  501 -0.0000000000e+00 -0.0000000000e+00 -1.5912980863e+03 1.5912980863e+03 0.0000000000e+00 0.0000e+00 1.0000e+00
      -13  1    1    2    0    0 -3.7914722258e+02 +4.8775116344e+02 -1.4881885060e+03 1.6113220793e+03 0.0000000000e+00 0.0000e+00 1.0000e+00
       13  1    1    2    0    0 +3.7914722258e+02 -4.8775116344e+02 +2.2552082193e+03 2.3382938067e+03 0.0000000000e+00 0.0000e+00 -1.0000e+00
<mgrwt>
<rscale>  0 0.38744221E+04</rscale>
<asrwt>0</asrwt>
<pdfrwt beam="1">  1        2 0.36281812E+00 0.38744221E+04</pdfrwt>
<pdfrwt beam="2">  1       -2 0.24481509E+00 0.38744221E+04</pdfrwt>
<totfact> 0.23769557E-01</totfact>
</mgrwt>
<rwgt>
<wgt id='morphing_basis_vector_1'> +1.3888587e-05 </wgt>
<wgt id='morphing_basis_vector_2'> +9.4068917e-06 </wgt>
<wgt id='morphing_basis_vector_3'> +1.5236426e-05 </wgt>
<wgt id='morphing_basis_vector_4'> +1.0965903e-05 </wgt>
<wgt id='morphing_basis_vector_5'> +1.7482937e-05 </wgt>
</rwgt>
</event>
<event>
 4      1 +4.5322000e-10 4.07454000e+03 7.81860800e-03 7.52755900e-02
        2 -1    0    0  501    0 +0.0000000000e+00 +0.0000000000e+00 +2.5893296429e+03 2.5893296429e+03 0.0000000000e+00 0.0000e+00 -1.0000e+00
       -2 -1    0    0    0  501 -0.0000000000e+00 -0.0000000000e+00 -1.6029124979e+03 1.6029124979e+03 0.0000000000e+00 0.0000e+00 1.0000e+00
      -13  1    1    2    0    0 -1.8568979625e+03 +7.5627503740e+02 +1.2160094724e+02 2.0086833413e+03 0.0000000000e+00 0.0000e+00 1.0000e+00
       13  1    1    2    0    0 +1.8568979625e+03 -7.5627503740e+02 +8.6481619775e+02 2.1835587995e+03 0.0000000000e+00 0.0000e+00 -1.0000e+00
<mgrwt>
<rscale>  0 0.40745399E+04</rscale>
<asrwt>0</asrwt>
<pdfrwt beam="1">  1        2 0.39835841E+00 0.40745399E+04</pdfrwt>
<pdfrwt beam="2">  1       -2 0.24660192E+00 0.40745399E+04</pdfrwt>
<totfact> 0.16564566E-01</totfact>
</mgrwt>
<rwgt>
<wgt id='morphing_basis_vector_1'> +1.7290959e-05 </wgt>
<wgt id='morphing_basis_vector_2'> +1.2443850e-05 </wgt>
<wgt id='morphing_basis_vector_3'> +1.9150435e-05 </wgt>
<wgt id='morphing_basis_vector_4'> +1.2747719e-05 </wgt>
<wgt id='morphing_basis_vector_5'> +2.1349707e-05 </wgt>
</rwgt>
</event>
<event>
 4      1 +4.5322000e-10 4.21500700e+03 7.81860800e-03 7.50350700e-02
        2 -1    0    0  501    0 +0.0000000000e+00 +0.0000000000e+00 +3.2950646525e+03 3.2950646525e+03 0.0000000000e+00 0.0000e+00 -1.0000e+00
       -2 -1    0    0    0  501 -0.0000000000e+00 -0.0000000000e+00 -1.3479462609e+03 1.3479462609e+03 0.0000000000e+00 0.0000e+00 1.0000e+00
      -13  1    1    2    0    0 +9.0001785714e+02 -1.8611882076e+03 +5.2271124206e+02 2.1324353987e+03 0.0000000000e+00 0.0000e+00 1.0000e+00
       13  1    1    2    0    0 -9.0001785714e+02 +1.8611882076e+03 +1.4244071496e+03 2.5105755147e+03 0.0000000000e+00 0.0000e+00 -1.0000e+00
<mgrwt>
<rscale>  0 0.42150066E+04</rscale>
<asrwt>0</asrwt>
<pdfrwt beam="1">  1        2 0.50693302E+00 0.42150066E+04</pdfrwt>
<pdfrwt beam="2">  1       -2 0.20737635E+00 0.42150066E+04</pdfrwt>
<totfact> 0.10827079E-01</totfact>
</mgrwt>
<rwgt>
<wgt id='morphing_basis_vector_1'> +1.9765011e-05 </wgt>
<wgt id='morphing_basis_vector_2'> +1.4176861e-05 </wgt>
<wgt id='morphing_basis_vector_3'> +2.1892726e-05 </wgt>
<wgt id='morphing_basis_vector_4'> +1.4657653e-05 </wgt>
<wgt id='morphing_basis_vector_5'> +2.4468982e-05 </wgt>
</rwgt>
</event>
<event>
 4      1 +4.5322000e-10 3.90082700e+03 7.81860800e-03 7.55870400e-02
        2 -1    0    0  501    0 +0.0000000000e+00 +0.0000000000e+00 +1.8880014704e+03 1.8880014704e+03 0.0000000000e+00 0.0000e+00 1.0000e+00
       -2 -1    0    0    0  501 -0.0000000000e+00 -0.0000000000e+00 -2.0148883847e+03 2.0148883847e+03 0.0000000000e+00 0.0000e+00 -1.0000e+00
      -13  1    1    2    0    0 -6.1077829725e+02 +7.0706635409e+02 -1.7764001547e+03 2.0071348901e+03 0.0000000000e+00 0.0000e+00 -1.0000e+00
       13  1    1    2    0    0 +6.1077829725e+02 -7.0706635409e+02 +1.6495132404e+03 1.8957549651e+03 0.0000000000e+00 0.0000e+00 1.0000e+00
<mgrwt>
<rscale>  0 0.39008267E+04</rscale>
<asrwt>0</asrwt>
<pdfrwt beam="1">  1        2 0.29046177E+00 0.39008267E+04</pdfrwt>
<pdfrwt beam="2">  1       -2 0.30998283E+00 0.39008267E+04</pdfrwt>
<totfact> 0.15808162E-01</totfact>
</mgrwt>
<rwgt>
<wgt id='morphing_basis_vector_1'> +1.4271029e-05 </wgt>
<wgt id='morphing_basis_vector_2'> +9.6714163e-06 </wgt>
<wgt id='morphing_basis_vector_3'> +1.5659163e-05 </wgt>
<wgt id='morphing_basis_vector_4'> +1.1265153e-05 </wgt>
<wgt id='morphing_basis_vector_5'> +1.7966630e-05 </wgt>
</rwgt>
</event>
<event>
 4      1 +4.5322000e-10 4.11839900e+03 7.81860800e-03 7.51994400e-02
        2 -1    0    0  501    0 +0.0000000000e+00 +0.0000000000e+00 +2.7757340815e+03 2.7757340815e+03 0.0000000000e+00 0.0000e+00 -1.0000e+00
       -2 -1    0    0    0  501 -0.0000000000e+00 -0.0000000000e+00 -1.5276331409e+03 1.5276331409e+03 0.0000000000e+00 0.0000e+00 1.0000e+00
      -13  1    1    2    0    0 -1.0300726080e+03 -5.6618747029e+01 -1.2381373580e+03 1.6115952896e+03 0.0000000000e+00 0.0000e+00 1.0000e+00
       13  1    1    2    0    0 +1.0300726080e+03 +5.6618747029e+01 +2.4862382987e+03 2.6917719328e+03 0.0000000000e+00 0.0000e+00 -1.0000e+00
<mgrwt>
<rscale>  0 0.41183994E+04</rscale>
<asrwt>0</asrwt>
<pdfrwt beam="1">  1        2 0.42703601E+00 0.41183994E+04</pdfrwt>
<pdfrwt beam="2">  1       -2 0.23502048E+00 0.41183994E+04</pdfrwt>
<totfact> 0.15260516E-01</totfact>
</mgrwt>
<rwgt>
<wgt id='morphing_basis_vector_1'> +1.7712424e-05 </wgt>
<wgt id='morphing_basis_vector_2'> +1.2013251e-05 </wgt>
<wgt id='morphing_basis_vector_3'> +1.9455745e-05 </wgt>
<wgt id='morphing_basis_vector_4'> +1.4009859e-05 </wgt>
<wgt id='morphing_basis_vector_5'> +2.2346927e-05 </wgt>
</rwgt>
</event>
<event>
 4      1 +4.5322000e-10 3.87598100e+03 7.81860800e-03 7.56329400e-02
        2 -1    0    0  501    0 +0.0000000000e+00 +0.0000000000e+00 +1.2804154816e+03 1.2804154816e+03 0.0000000000e+00 0.0000e+00 -1.0000e+00
       -2 -1    0    0    0  501 -0.0000000000e+00 -0.0000000000e+00 -2.9332727029e+03 2.9332727029e+03 0.0000000000e+00 0.0000e+00 1.0000e+00
      -13  1    1    2    0    0 -2.3598048390e+02 -9.0570064282e+02 -2.6712908640e+03 2.8305079620e+03 0.0000000000e+00 0.0000e+00 1.0000e+00
       13  1    1    2    0    0 +2.3598048390e+02 +9.0570064282e+02 +1.0184336427e+03 1.3831802225e+03 0.0000000000e+00 0.0000e+00 -1.0000e+00
<mgrwt>
<rscale>  0 0.38759813E+04</rscale>
<asrwt>0</asrwt>
<pdfrwt beam="1">  1        2 0.19698700E+00 0.38759813E+04</pdfrwt>
<pdfrwt beam="2">  1       -2 0.45127272E+00 0.38759813E+04</pdfrwt>
<totfact> 0.40629135E-02</totfact>
</mgrwt>
<rwgt>
<wgt id='morphing_basis_vector_1'> +1.3912923e-05 </wgt>
<wgt id='morphing_basis_vector_2'> +9.4281458e-06 </wgt>
<wgt id='morphing_basis_vector_3'> +1.5264300e-05 </wgt>
<wgt id='morphing_basis_vector_4'> +1.0979250e-05 </wgt>
<wgt id='morphing_basis_vector_5'> +1.7510880e-05 </wgt>
</rwgt>
</event>
<event>
 4      1 +4.5322000e-10 4.03932500e+03 7.81860800e-03 7.53374300e-02
        2 -1    0    0  501    0 +0.0000000000e+00 +0.0000000000e+00 +3.1915578308e+03 3.1915578308e+03 0.0000000000e+00 0.0000e+00 1.0000e+00
       -2 -1    0    0    0  501 -0.0000000000e+00 -0.0000000000e+00 -1.2780704108e+03 1.2780704108e+03 0.0000000000e+00 0.0000e+00 -1.0000e+00
      -13  1    1    2    0    0 +1.1715906354e+03 -1.5059844040e+03 +2.2407301711e+02 1.9211513109e+03 0.0000000000e+00 0.0000e+00 -1.0000e+00
       13  1    1    2    0    0 -1.1715906354e+03 +1.5059844040e+03 +1.6894144028e+03 2.5484769308e+03 0.0000000000e+00 0.0000e+00 1.0000e+00
<mgrwt>
<rscale>  0 0.40393245E+04</rscale>
<asrwt>0</asrwt>
<pdfrwt beam="1">  1        2 0.49100889E+00 0.40393245E+04</pdfrwt>
<pdfrwt beam="2">  1       -2 0.19662622E+00 0.40393245E+04</pdfrwt>
<totfact> 0.15489389E-01</totfact>
</mgrwt>
<rwgt>
<wgt id='morphing_basis_vector_1'> +1.6560370e-05 </wgt>
<wgt id='morphing_basis_vector_2'> +1.1598623e-05 </wgt>
<wgt id='morphing_basis_vector_3'> +1.8266702e-05 </wgt>
<wgt id='morphing_basis_vector_4'> +1.2614159e-05 </wgt>
<wgt id='morphing_basis_vector_5'> +2.0642989e-05 </wgt>
</rwgt>
</event>
<event>
 4      1 +4.5322000e-10 4.02350300e+03 7.81860800e-03 7.53654300e-02
        2 -1    0    0  501    0 +0.0000000000e+00 +0.0000000000e+00 +2.1248787624e+03 2.1248787624e+03 0.0000000000e+00 0.0000e+00 -1.0000e+00
       -2 -1    0    0    0  501 -0.0000000000e+00 -0.0000000000e+00 -1.9046469302e+03 1.9046469302e+03 0.0000000000e+00 0.0000e+00 1.0000e+00
      -13  1    1    2    0    0 +1.3750634280e+03 +1.1938166539e+03 -7.4623491214e+02 1.9679593944e+03 0.0000000000e+00 0.0000e+00 1.0000e+00
       13  1    1    2    0    0 -1.3750634280e+03 -1.1938166539e+03 +9.6646674433e+02 2.0615662982e+03 0.0000000000e+00 0.0000e+00 -1.0000e+00
<mgrwt>
<rscale>  0 0.40235029E+04</rscale>
<asrwt>0</asrwt>
<pdfrwt beam="1">  1        2 0.32690442E+00 0.40235029E+04</pdfrwt>
<pdfrwt beam="2">  1       -2 0.29302261E+00 0.40235029E+04</pdfrwt>
<totfact> 0.14971329E-01</totfact>
</mgrwt>
<rwgt>
<wgt id='morphing_basis_vector_1'> +1.6244878e-05 </wgt>
<wgt id='morphing_basis_vector_2'> +1.1245399e-05 </wgt>
<wgt id='morphing_basis_vector_3'> +1.7887790e-05 </wgt>
<wgt id='morphing_basis_vector_4'> +1.2541248e-05 </wgt>
<wgt id='morphing_basis_vector_5'> +2.0330277e-05 </wgt>
</rwgt>
</event>
<event>
 4      1 +4.5322000e-10 4.26094500e+03 7.81860800e-03 7.49584700e-02
        2 -1    0    0  501    0 +0.0000000000e+00 +0.0000000000e+00 +2.0381446395e+03 2.0381446395e+03 0.0000000000e+00 0.0000e+00 -1.0000e+00
       -2 -1    0    0    0  501 -0.0000000000e+00 -0.0000000000e+00 -2.2269825225e+03 2.2269825225e+03 0.0000000000e+00 0.0000e+00 1.0000e+00
      -13  1    1    2    0    0 -2.3413756083e+02 +1.4098377868e+03 -1.6759855120e+03 2.2025872102e+03 0.0000000000e+00 0.0000e+00 1.0000e+00
       13  1    1    2    0    0 +2.3413756083e+02 -1.4098377868e+03 +1.4871476290e+03 2.0625399518e+03 0.0000000000e+00 0.0000e+00 -1.0000e+00
<mgrwt>
<rscale>  0 0.42609447E+04</rscale>
<asrwt>0</asrwt>
<pdfrwt beam="1">  1        2 0.31356071E+00 0.42609447E+04</pdfrwt>
<pdfrwt beam="2">  1       -2 0.34261269E+00 0.42609447E+04</pdfrwt>
<totfact> 0.76924310E-02</totfact>
</mgrwt>
<rwgt>
<wgt id='morphing_basis_vector_1'> +2.0295903e-05 </wgt>
<wgt id='morphing_basis_vector_2'> +1.3802123e-05 </wgt>
<wgt id='morphing_basis_vector_3'> +2.2313828e-05 </wgt>
<wgt id='morphing_basis_vector_4'> +1.6032764e-05 </wgt>
<wgt id='morphing_basis_vector_5'> +2.5618483e-05 </wgt>
</rwgt>
</event>
<event>
 4      1 +4.5322000e-10 3.96815300e+03 7.81860800e-03 7.54644100e-02
        2 -1    0    0  501    0 +0.0000000000e+00 +0.0000000000e+00 +2.5830658719e+03 2.5830658719e+03 0.0000000000e+00 0.0000e+00 -1.0000e+00
       -2 -1    0    0    0  501 -0.0000000000e+00 -0.0000000000e+00 -1.5239875241e+03 1.5239875241e+03 0.0000000000e+00 0.0000e+00 1.0000e+00
      -13  1    1    2    0    0 +1.2525126867e+03 -5.2249202332e+02 +2.0275347022e+03 2.4398120652e+03 0.0000000000e+00 0.0000e+00 -1.0000e+00
       13  1    1    2    0    0 -1.2525126867e+03 +5.2249202332e+02 -9.6845635442e+02 1.6672413308e+03 0.0000000000e+00 0.0000e+00 1.0000e+00
<mgrwt>
<rscale>  0 0.39681533E+04</rscale>
<asrwt>0</asrwt>
<pdfrwt beam="1">  1        2 0.39739475E+00 0.39681533E+04</pdfrwt>
<pdfrwt beam="2">  1       -2 0.23445962E+00 0.39681533E+04</pdfrwt>
<totfact> 0.20473348E-01</totfact>
</mgrwt>
<rwgt>
<wgt id='morphing_basis_vector_1'> +1.9908600e-05 </wgt>
<wgt id='morphing_basis_vector_2'> +2.3971040e-05 </wgt>
<wgt id='morphing_basis_vector_3'> +2.4196369e-05 </wgt>
<wgt id='morphing_basis_vector_4'> +2.2728132e-06 </wgt>
<wgt id='morphing_basis_vector_5'> +1.8430474e-05 </wgt>
</rwgt>
</event>
<event>
 4      1 +4.5322000e-10 3.93363400e+03 7.81860800e-03 7.55269700e-02
        2 -1    0    0  501    0 +0.0000000000e+00 +0.0000000000e+00 +1.9836605188e+03 1.9836605188e+03 0.0000000000e+00 0.0000e+00 -1.0000e+00
       -2 -1    0    0    0  501 -0.0000000000e+00 -0.0000000000e+00 -1.9501166578e+03 1.9501166578e+03 0.0000000000e+00 0.0000e+00 1.0000e+00
      -13  1    1    2    0    0 -1.0011450457e+03 +1.0241517274e+03 -1.3313094467e+03 1.9553933124e+03 0.0000000000e+00 0.0000e+00 1.0000e+00
       13  1    1    2    0    0 +1.0011450457e+03 -1.0241517274e+03 +1.3648533077e+03 1.9783838643e+03 0.0000000000e+00 0.0000e+00 -1.0000e+00
<mgrwt>
<rscale>  0 0.39336342E+04</rscale>
<asrwt>0</asrwt>
<pdfrwt beam="1">  1        2 0.30517854E+00 0.39336342E+04</pdfrwt>
<pdfrwt beam="2">  1       -2 0.30001795E+00 0.39336342E+04</pdfrwt>
<totfact> 0.16255546E-01</totfact>
</mgrwt>
<rwgt>
<wgt id='morphing_basis_vector_1'> +1.4772935e-05 </wgt>
<wgt id='morphing_basis_vector_2'> +1.0054159e-05 </wgt>
<wgt id='morphing_basis_vector_3'> +1.6221868e-05 </wgt>
<wgt id='morphing_basis_vector_4'> +1.1612107e-05 </wgt>
<wgt id='morphing_basis_vector_5'> +1.8578715e-05 </wgt>
</rwgt>
</event>
<event>
 4      1 +4.5322000e-10 4.39718700e+03 7.81860800e-03 7.47369200e-02
        2 -1    0    0  501    0 +0.0000000000e+00 +0.0000000000e+00 +3.8327128768e+03 3.8327128768e+03 0.0000000000e+00 0.0000e+00 -1.0000e+00
       -2 -1    0    0    0  501 -0.0000000000e+00 -0.0000000000e+00 -1.2611989483e+03 1.2611989483e+03 0.0000000000e+00 0.0000e+00 1.0000e+00
      -13  1    1    2    0    0 -1.7133792947e+03 -7.0012106295e+02 -8.8835658156e+01 1.8530326183e+03 0.0000000000e+00 0.0000e+00 1.0000e+00
       13  1    1    2    0    0 +1.7133792947e+03 +7.0012106295e+02 +2.6603495866e+03 3.2408792068e+03 0.0000000000e+00 0.0000e+00 -1.0000e+00
<mgrwt>
<rscale>  0 0.43971870E+04</rscale>
<asrwt>0</asrwt>
<pdfrwt beam="1">  1        2 0.58964813E+00 0.43971870E+04</pdfrwt>
<pdfrwt beam="2">  1       -2 0.19403061E+00 0.43971870E+04</pdfrwt>
<totfact> 0.52905333E-02</totfact>
</mgrwt>
<rwgt>
<wgt id='morphing_basis_vector_1'> +2.3068685e-05 </wgt>
<wgt id='morphing_basis_vector_2'> +1.5834020e-05 </wgt>
<wgt id='morphing_basis_vector_3'> +2.5407443e-05 </wgt>
<wgt id='morphing_basis_vector_4'> +1.8060648e-05 </wgt>
<wgt id='morphing_basis_vector_5'> +2.9059998e-05 </wgt>
</rwgt>
</event>
<event>
 4      1 +4.5322000e-10 3.87889300e+03 7.81860800e-03 7.56275400e-02
        2 -1    0    0  501    0 +0.0000000000e+00 +0.0000000000e+00 +1.9515142364e+03 1.9515142364e+03 0.0000000000e+00 0.0000e+00 -1.0000e+00
       -2 -1    0    0    0  501 -0.0000000000e+00 -0.0000000000e+00 -1.9274535731e+03 1.9274535731e+03 0.0000000000e+00 0.0000e+00 1.0000e+00
      -13  1    1    2    0    0 -9.4557229293e+02 +8.8155955665e+02 -1.4337494923e+03 1.9305159465e+03 0.0000000000e+00 0.0000e+00 1.0000e+00
       13  1    1    2    0    0 +9.4557229293e+02 -8.8155955665e+02 +1.4578101556e+03 1.9484518631e+03 0.0000000000e+00 0.0000e+00 -1.0000e+00
<mgrwt>
<rscale>  0 0.38788932E+04</rscale>
<asrwt>0</asrwt>
<pdfrwt beam="1">  1        2 0.30023296E+00 0.38788932E+04</pdfrwt>
<pdfrwt beam="2">  1       -2 0.29653132E+00 0.38788932E+04</pdfrwt>
<totfact> 0.17966878E-01</totfact>
</mgrwt>
<rwgt>
<wgt id='morphing_basis_vector_1'> +1.3964135e-05 </wgt>
<wgt id='morphing_basis_vector_2'> +9.4846247e-06 </wgt>
<wgt id='morphing_basis_vector_3'> +1.5325551e-05 </wgt>
<wgt id='morphing_basis_vector_4'> +1.0992204e-05 </wgt>
<wgt id='morphing_basis_vector_5'> +1.7562154e-05 </wgt>
</rwgt>
</event>
<event>
 4      1 +4.5322000e-10 4.06397700e+03 7.81860800e-03 7.52940700e-02
        2 -1    0    0  501    0 +0.0000000000e+00 +0.0000000000e+00 +2.5743953941e+03 2.5743953941e+03 0.0000000000e+00 0.0000e+00 -1.0000e+00
       -2 -1    0    0    0  501 -0.0000000000e+00 -0.0000000000e+00 -1.6038629635e+03 1.6038629635e+03 0.0000000000e+00 0.0000e+00 1.0000e+00
      -13  1    1    2    0    0 -1.6304943230e+03 -1.1781719832e+03 +1.9018224347e+02 2.0205866091e+03 0.0000000000e+00 0.0000e+00 1.0000e+00
       13  1    1    2    0    0 +1.6304943230e+03 +1.1781719832e+03 +7.8035018715e+02 2.1576717484e+03 0.0000000000e+00 0.0000e+00 -1.0000e+00
<mgrwt>
<rscale>  0 0.40639771E+04</rscale>
<asrwt>0</asrwt>
<pdfrwt beam="1">  1        2 0.39606083E+00 0.40639771E+04</pdfrwt>
<pdfrwt beam="2">  1       -2 0.24674815E+00 0.40639771E+04</pdfrwt>
<totfact> 0.16887725E-01</totfact>
</mgrwt>
<rwgt>
<wgt id='morphing_basis_vector_1'> +1.7160926e-05 </wgt>
<wgt id='morphing_basis_vector_2'> +1.2455776e-05 </wgt>
<wgt id='morphing_basis_vector_3'> +1.9029228e-05 </wgt>
<wgt id='morphing_basis_vector_4'> +1.2514491e-05 </wgt>
<wgt id='morphing_basis_vector_5'> +2.1119717e-05 </wgt>
</rwgt>
</event>
<event>
 4      1 +4.5322000e-10 4.48954400e+03 7.81860800e-03 7.45913000e-02
        2 -1    0    0  501    0 +0.0000000000e+00 +0.0000000000e+00 +1.7482650706e+03 1.7482650706e+03 0.0000000000e+00 0.0000e+00 -1.0000e+00
       -2 -1    0    0    0  501 -0.0000000000e+00 -0.0000000000e+00 -2.8822865185e+03 2.8822865185e+03 0.0000000000e+00 0.0000e+00 1.0000e+00
      -13  1    1    2    0    0 -3.4875427006e+01 -1.5150097486e+03 -2.2750828681e+03 2.7335824280e+03 0.0000000000e+00 0.0000e+00 1.0000e+00
       13  1    1    2    0    0 +3.4875427006e+01 +1.5150097486e+03 +1.1410614202e+03 1.8969691611e+03 0.0000000000e+00 0.0000e+00 -1.0000e+00
<mgrwt>
<rscale>  0 0.44895438E+04</rscale>
<asrwt>0</asrwt>
<pdfrwt beam="1">  1        2 0.26896386E+00 0.44895438E+04</pdfrwt>
<pdfrwt beam="2">  1       -2 0.44342869E+00 0.44895438E+04</pdfrwt>
<totfact> 0.23962000E-02</totfact>
</mgrwt>
<rwgt>
<wgt id='morphing_basis_vector_1'> +2.4992949e-05 </wgt>
<wgt id='morphing_basis_vector_2'> +1.7007282e-05 </wgt>
<wgt id='morphing_basis_vector_3'> +2.7501341e-05 </wgt>
<wgt id='morphing_basis_vector_4'> +1.9775392e-05 </wgt>
<wgt id='morphing_basis_vector_5'> +3.1601920e-05 </wgt>
</rwgt>
</event>
<event>
 4      1 +4.5322000e-10 3.98048200e+03 7.81860800e-03 7.54422200e-02
        2 -1    0    0  501    0 +0.0000000000e+00 +0.0000000000e+00 +2.7729693773e+03 2.7729693773e+03 0.0000000000e+00 0.0000e+00 -1.0000e+00
       -2 -1    0    0    0  501 -0.0000000000e+00 -0.0000000000e+00 -1.4284538881e+03 1.4284538881e+03 0.0000000000e+00 0.0000e+00 1.0000e+00
      -13  1    1    2    0    0 -4.7469325111e+02 +1.8744307323e+03 +1.7467345062e+02 1.9414775475e+03 0.0000000000e+00 0.0000e+00 1.0000e+00
       13  1    1    2    0    0 +4.7469325111e+02 -1.8744307323e+03 +1.1698420386e+03 2.2599457180e+03 0.0000000000e+00 0.0000e+00 -1.0000e+00
<mgrwt>
<rscale>  0 0.39804818E+04</rscale>
<asrwt>0</asrwt>
<pdfrwt beam="1">  1        2 0.42661067E+00 0.39804818E+04</pdfrwt>
<pdfrwt beam="2">  1       -2 0.21976214E+00 0.39804818E+04</pdfrwt>
<totfact> 0.19840320E-01</totfact>
</mgrwt>
<rwgt>
<wgt id='morphing_basis_vector_1'> +1.5694289e-05 </wgt>
<wgt id='morphing_basis_vector_2'> +1.1154363e-05 </wgt>
<wgt id='morphing_basis_vector_3'> +1.7343150e-05 </wgt>
<wgt id='morphing_basis_vector_4'> +1.1736598e-05 </wgt>
<wgt id='morphing_basis_vector_5'> +1.9447608e-05 </wgt>
</rwgt>
</event>
<event>
 4      1 +4.5322000e-10 4.37511000e+03 7.81860800e-03 7.47722600e-02
        2 -1    0    0  501    0 +0.0000000000e+00 +0.0000000000e+00 +2.3883263448e+03 2.3883263448e+03 0.0000000000e+00 0.0000e+00 1.0000e+00
       -2 -1    0    0    0  501 -0.0000000000e+00 -0.0000000000e+00 -2.0036615014e+03 2.0036615014e+03 0.0000000000e+00 0.0000e+00 -1.0000e+00
      -13  1    1    2    0    0 +4.3806231696e+02 -1.8416548722e+03 -9.0816583394e+02 2.0996086407e+03 0.0000000000e+00 0.0000e+00 -1.0000e+00
       13  1    1    2    0    0 -4.3806231696e+02 +1.8416548722e+03 +1.2928306773e+03 2.2923792056e+03 0.0000000000e+00 0.0000e+00 1.0000e+00
<mgrwt>
<rscale>  0 0.43751103E+04</rscale>
<asrwt>0</asrwt>
<pdfrwt beam="1">  1        2 0.36743482E+00 0.43751103E+04</pdfrwt>
<pdfrwt beam="2">  1       -2 0.30825561E+00 0.43751103E+04</pdfrwt>
<totfact> 0.80995193E-02</totfact>
</mgrwt>
<rwgt>
<wgt id='morphing_basis_vector_1'> +2.2629788e-05 </wgt>
<wgt id='morphing_basis_vector_2'> +1.5574677e-05 </wgt>
<wgt id='morphing_basis_vector_3'> +2.4931730e-05 </wgt>
<wgt id='morphing_basis_vector_4'> +1.7658987e-05 </wgt>
<wgt id='morphing_basis_vector_5'> +2.8475053e-05 </wgt>
</rwgt>
</event>
<event>
 4      1 +4.5322000e-10 4.31647700e+03 7.81860800e-03 7.48671600e-02
        2 -1    0    0  501    0 +0.0000000000e+00 +0.0000000000e+00 +2.8114250992e+03 2.8114250992e+03 0.0000000000e+00 0.0000e+00 -1.0000e+00
       -2 -1    0    0    0  501 -0.0000000000e+00 -0.0000000000e+00 -1.6568085576e+03 1.6568085576e+03 0.0000000000e+00 0.0000e+00 1.0000e+00
      -13  1    1    2    0    0 -5.1889991789e+02 -1.6486507533e+03 -7.6068512046e+02 1.8883718605e+03 0.0000000000e+00 0.0000e+00 1.0000e+00
       13  1    1    2    0    0 +5.1889991789e+02 +1.6486507533e+03 +1.9153016621e+03 2.5798617963e+03 0.0000000000e+00 0.0000e+00 -1.0000e+00
<mgrwt>
<rscale>  0 0.43164769E+04</rscale>
<asrwt>0</asrwt>
<pdfrwt beam="1">  1        2 0.43252694E+00 0.43164769E+04</pdfrwt>
<pdfrwt beam="2">  1       -2 0.25489363E+00 0.43164769E+04</pdfrwt>
<totfact> 0.10385353E-01</totfact>
</mgrwt>
<rwgt>
<wgt id='morphing_basis_vector_1'> +2.1405237e-05 </wgt>
<wgt id='morphing_basis_vector_2'> +1.4638390e-05 </wgt>
<wgt id='morphing_basis_vector_3'> +2.3556645e-05 </wgt>
<wgt id='morphing_basis_vector_4'> +1.6813737e-05 </wgt>
<wgt id='morphing_basis_vector_5'> +2.6980111e-05 </wgt>
</rwgt>
</event>
<event>
 4      1 +4.5322000e-10 4.17256100e+03 7.81860800e-03 7.51067300e-02
        2 -1    0    0  501    0 +0.0000000000e+00 +0.0000000000e+00 +3.1917747507e+03 3.1917747507e+03 0.0000000000e+00 0.0000e+00 1.0000e+00
       -2 -1    0    0    0  501 -0.0000000000e+00 -0.0000000000e+00 -1.3636819097e+03 1.3636819097e+03 0.0000000000e+00 0.0000e+00 -1.0000e+00
      -13  1    1    2    0    0 -1.6474532818e+03 +9.8464763221e+02 +2.1110443595e+01 1.9193954585e+03 0.0000000000e+00 0.0000e+00 -1.0000e+00
       13  1    1    2    0    0 +1.6474532818e+03 -9.8464763221e+02 +1.8069823974e+03 2.6360612018e+03 0.0000000000e+00 0.0000e+00 1.0000e+00
<mgrwt>
<rscale>  0 0.41725606E+04</rscale>
<asrwt>0</asrwt>
<pdfrwt beam="1">  1        2 0.49104227E+00 0.41725606E+04</pdfrwt>
<pdfrwt beam="2">  1       -2 0.20979722E+00 0.41725606E+04</pdfrwt>
<totfact> 0.12290618E-01</totfact>
</mgrwt>
<rwgt>
<wgt id='morphing_basis_vector_1'> +1.8796421e-05 </wgt>
<wgt id='morphing_basis_vector_2'> +1.3063143e-05 </wgt>
<wgt id='morphing_basis_vector_3'> +2.0721789e-05 </wgt>
<wgt id='morphing_basis_vector_4'> +1.4471833e-05 </wgt>
<wgt id='morphing_basis_vector_5'> +2.3527091e-05 </wgt>
</rwgt>
</event>
<event>
 4      1 +4.5322000e-10 4.22238200e+03 7.81860800e-03 7.50227000e-02
        2 -1    0    0  501    0 +0.0000000000e+00 +0.0000000000e+00 +2.5453718896e+03 2.5453718896e+03 0.0000000000e+00 0.0000e+00 -1.0000e+00
       -2 -1    0    0    0  501 -0.0000000000e+00 -0.0000000000e+00 -1.7510711494e+03 1.7510711494e+03 0.0000000000e+00 0.0000e+00 1.0000e+00
      -13  1    1    2    0    0 +7.6936201387e+02 +7.4406618249e+02 -1.4545419911e+03 1.8058916900e+03 0.0000000000e+00 0.0000e+00 1.0000e+00
       13  1    1    2    0    0 -7.6936201387e+02 -7.4406618249e+02 +2.2488427313e+03 2.4905513491e+03 0.0000000000e+00 0.0000e+00 -1.0000e+00
<mgrwt>
<rscale>  0 0.42223819E+04</rscale>
<asrwt>0</asrwt>
<pdfrwt beam="1">  1        2 0.39159568E+00 0.42223819E+04</pdfrwt>
<pdfrwt beam="2">  1       -2 0.26939556E+00 0.42223819E+04</pdfrwt>
<totfact> 0.12124986E-01</totfact>
</mgrwt>
<rwgt>
<wgt id='morphing_basis_vector_1'> +1.9561179e-05 </wgt>
<wgt id='morphing_basis_vector_2'> +1.3271451e-05 </wgt>
<wgt id='morphing_basis_vector_3'> +2.1496009e-05 </wgt>
<wgt id='morphing_basis_vector_4'> +1.5485640e-05 </wgt>
<wgt id='morphing_basis_vector_5'> +2.4701941e-05 </wgt>
</rwgt>
</event>
<event>
 4      1 +4.5322000e-10 4.55010600e+03 7.81860800e-03 7.44977200e-02
        2 -1    0    0  501    0 +0.0000000000e+00 +0.0000000000e+00 +2.1287632707e+03 2.1287632707e+03 0.0000000000e+00 0.0000e+00 1.0000e+00
       -2 -1    0    0    0  501 -0.0000000000e+00 -0.0000000000e+00 -2.4313954998e+03 2.4313954998e+03 0.0000000000e+00 0.0000e+00 -1.0000e+00
      -13  1    1    2    0    0 -9.5703990645e+02 +5.4719479972e+02 -2.1458180869e+03 2.4124433244e+03 0.0000000000e+00 0.0000e+00 -1.0000e+00
       13  1    1    2    0    0 +9.5703990645e+02 -5.4719479972e+02 +1.8431858578e+03 2.1477154462e+03 0.0000000000e+00 0.0000e+00 1.0000e+00
<mgrwt>
<rscale>  0 0.45501057E+04</rscale>
<asrwt>0</asrwt>
<pdfrwt beam="1">  1        2 0.32750204E+00 0.45501057E+04</pdfrwt>
<pdfrwt beam="2">  1       -2 0.37406084E+00 0.45501057E+04</pdfrwt>
<totfact> 0.41867361E-02</totfact>
</mgrwt>
<rwgt>
<wgt id='morphing_basis_vector_1'> +2.6343731e-05 </wgt>
<wgt id='morphing_basis_vector_2'> +1.7884455e-05 </wgt>
<wgt id='morphing_basis_vector_3'> +2.8983408e-05 </wgt>
<wgt id='morphing_basis_vector_4'> +2.0910209e-05 </wgt>
<wgt id='morphing_basis_vector_5'> +3.3352349e-05 </wgt>
</rwgt>
</event>
<event>
 4      1 +4.5322000e-10 4.25170000e+03 7.81860800e-03 7.49738000e-02
        2 -1    0    0  501    0 +0.0000000000e+00 +0.0000000000e+00 +3.1486723089e+03 3.1486723089e+03 0.0000000000e+00 0.0000e+00 -1.0000e+00
       -2 -1    0    0    0  501 -0.0000000000e+00 -0.0000000000e+00 -1.4352839758e+03 1.4352839758e+03 0.0000000000e+00 0.0000e+00 1.0000e+00
      -13  1    1    2    0    0 -9.9401151371e+02 +4.7786502493e+02 -1.1026945614e+03 1.5595990405e+03 0.0000000000e+00 0.0000e+00 1.0000e+00
       13  1    1    2    0    0 +9.9401151371e+02 -4.7786502493e+02 +2.8160828945e+03 3.0243572441e+03 0.0000000000e+00 0.0000e+00 -1.0000e+00
<mgrwt>
<rscale>  0 0.42517003E+04</rscale>
<asrwt>0</asrwt>
<pdfrwt beam="1">  1        2 0.48441112E+00 0.42517003E+04</pdfrwt>
<pdfrwt beam="2">  1       -2 0.22081292E+00 0.42517003E+04</pdfrwt>
<totfact> 0.10897919E-01</totfact>
</mgrwt>
<rwgt>
<wgt id='morphing_basis_vector_1'> +2.0108129e-05 </wgt>
<wgt id='morphing_basis_vector_2'> +1.3644734e-05 </wgt>
<wgt id='morphing_basis_vector_3'> +2.2099928e-05 </wgt>
<wgt id='morphing_basis_vector_4'> +1.5921060e-05 </wgt>
<wgt id='morphing_basis_vector_5'> +2.5398216e-05 </wgt>
</rwgt>
</event>
<event>
 4      1 +4.5322000e-10 4.10805100e+03 7.81860800e-03 7.52173200e-02
        2 -1    0    0  501    0 +0.0000000000e+00 +0.0000000000e+00 +1.7949313146e+03 1.7949313146e+03 0.0000000000e+00 0.0000e+00 1.0000e+00
       -2 -1    0    0    0  501 -0.0000000000e+00 -0.0000000000e+00 -2.3505190475e+03 2.3505190475e+03 0.0000000000e+00 0.0000e+00 -1.0000e+00
      -13  1    1    2    0    0 -1.1493219538e+03 +1.5122527072e+03 -1.0666854135e+03 2.1784551809e+03 0.0000000000e+00 0.0000e+00 -1.0000e+00
       13  1    1    2    0    0 +1.1493219538e+03 -1.5122527072e+03 +5.1109768057e+02 1.9669951812e+03 0.0000000000e+00 0.0000e+00 1.0000e+00
<mgrwt>
<rscale>  0 0.41080508E+04</rscale>
<asrwt>0</asrwt>
<pdfrwt beam="1">  1        2 0.27614328E+00 0.41080508E+04</pdfrwt>
<pdfrwt beam="2">  1       -2 0.36161831E+00 0.41080508E+04</pdfrwt>
<totfact> 0.80241232E-02</totfact>
</mgrwt>
<rwgt>
<wgt id='morphing_basis_vector_1'> +1.7673175e-05 </wgt>
<wgt id='morphing_basis_vector_2'> +1.2296580e-05 </wgt>
<wgt id='morphing_basis_vector_3'> +1.9481577e-05 </wgt>
<wgt id='morphing_basis_vector_4'> +1.3578306e-05 </wgt>
<wgt id='morphing_basis_vector_5'> +2.2097881e-05 </wgt>
</rwgt>
</event>
<event>
 4      1 +4.5322000e-10 4.30102900e+03 7.81860800e-03 7.48924200e-02
        2 -1    0    0  501    0 +0.0000000000e+00 +0.0000000000e+00 +3.4005088936e+03 3.4005088936e+03 0.0000000000e+00 0.0000e+00 1.0000e+00
       -2 -1    0    0    0  501 -0.0000000000e+00 -0.0000000000e+00 -1.3600060769e+03 1.3600060769e+03 0.0000000000e+00 0.0000e+00 -1.0000e+00
      -13  1    1    2    0    0 -1.0333431366e+03 +6.3151132055e+02 -9.4670646400e+02 1.5371589751e+03 0.0000000000e+00 0.0000e+00 -1.0000e+00
       13  1    1    2    0    0 +1.0333431366e+03 -6.3151132055e+02 +2.9872092807e+03 3.2233559953e+03 0.0000000000e+00 0.0000e+00 1.0000e+00
<mgrwt>
<rscale>  0 0.43010291E+04</rscale>
<asrwt>0</asrwt>
<pdfrwt beam="1">  1        2 0.52315521E+00 0.43010291E+04</pdfrwt>
<pdfrwt beam="2">  1       -2 0.20923171E+00 0.43010291E+04</pdfrwt>
<totfact> 0.87867717E-02</totfact>
</mgrwt>
<rwgt>
<wgt id='morphing_basis_vector_1'> +2.1055828e-05 </wgt>
<wgt id='morphing_basis_vector_2'> +1.4295261e-05 </wgt>
<wgt id='morphing_basis_vector_3'> +2.3147252e-05 </wgt>
<wgt id='morphing_basis_vector_4'> +1.6670839e-05 </wgt>
<wgt id='morphing_basis_vector_5'> +2.6602465e-05 </wgt>
</rwgt>
</event>
<event>
 4      1 +4.5322000e-10 4.54342500e+03 7.81860800e-03 7.45079700e-02
        2 -1    0    0  501    0 +0.0000000000e+00 +0.0000000000e+00 +2.6998817422e+03 2.6998817422e+03 0.0000000000e+00 0.0000e+00 -1.0000e+00
       -2 -1    0    0    0  501 -0.0000000000e+00 -0.0000000000e+00 -1.9114462160e+03 1.9114462160e+03 0.0000000000e+00 0.0000e+00 1.0000e+00
      -13  1    1    2    0    0 +1.7154097766e+03 -1.6076111285e+02 +1.8969550959e+03 2.5625989684e+03 0.0000000000e+00 0.0000e+00 -1.0000e+00
       13  1    1    2    0    0 -1.7154097766e+03 +1.6076111285e+02 -1.1085195697e+03 2.0487289897e+03 0.0000000000e+00 0.0000e+00 1.0000e+00
<mgrwt>
<rscale>  0 0.45434255E+04</rscale>
<asrwt>0</asrwt>
<pdfrwt beam="1">  1        2 0.41536642E+00 0.45434255E+04</pdfrwt>
<pdfrwt beam="2">  1       -2 0.29406865E+00 0.45434255E+04</pdfrwt>
<totfact> 0.64672227E-02</totfact>
</mgrwt>
<rwgt>
<wgt id='morphing_basis_vector_1'> +3.3105436e-05 </wgt>
<wgt id='morphing_basis_vector_2'> +3.8095278e-05 </wgt>
<wgt id='morphing_basis_vector_3'> +3.9988488e-05 </wgt>
<wgt id='morphing_basis_vector_4'> +6.0927814e-06 </wgt>
<wgt id='morphing_basis_vector_5'> +3.1927167e-05 </wgt>
</rwgt>
</event>
<event>
 4      1 +4.5322000e-10 3.85060700e+03 7.81860800e-03 7.56801700e-02
        2 -1    0    0  501    0 +0.0000000000e+00 +0.0000000000e+00 +2.7187142207e+03 2.7187142207e+03 0.0000000000e+00 0.0000e+00 1.0000e+00
       -2 -1    0    0    0  501 -0.0000000000e+00 -0.0000000000e+00 -1.3634361253e+03 1.3634361253e+03 0.0000000000e+00 0.0000e+00 -1.0000e+00
      -13  1    1    2    0    0 +1.5244125179e+03 +6.0509071319e+02 -3.9137375368e+02 1.6861618282e+03 0.0000000000e+00 0.0000e+00 -1.0000e+00
       13  1    1    2    0    0 -1.5244125179e+03 -6.0509071319e+02 +1.7466518491e+03 2.3959885179e+03 0.0000000000e+00 0.0000e+00 1.0000e+00
<mgrwt>
<rscale>  0 0.38506068E+04</rscale>
<asrwt>0</asrwt>
<pdfrwt beam="1">  1        2 0.41826373E+00 0.38506068E+04</pdfrwt>
<pdfrwt beam="2">  1       -2 0.20975940E+00 0.38506068E+04</pdfrwt>
<totfact> 0.25544674E-01</totfact>
</mgrwt>
<rwgt>
<wgt id='morphing_basis_vector_1'> +1.3605151e-05 </wgt>
<wgt id='morphing_basis_vector_2'> +9.3342510e-06 </wgt>
<wgt id='morphing_basis_vector_3'> +1.4950325e-05 </wgt>
<wgt id='morphing_basis_vector_4'> +1.0585308e-05 </wgt>
<wgt id='morphing_basis_vector_5'> +1.7045463e-05 </wgt>
</rwgt>
</event>
<event>
 4      1 +4.5322000e-10 3.86998800e+03 7.81860800e-03 7.56440600e-02
        2 -1    0    0  501    0 +0.0000000000e+00 +0.0000000000e+00 +3.1803819690e+03 3.1803819690e+03 0.0000000000e+00 0.0000e+00 1.0000e+00
       -2 -1    0    0    0  501 -0.0000000000e+00 -0.0000000000e+00 -1.1772803313e+03 1.1772803313e+03 0.0000000000e+00 0.0000e+00 -1.0000e+00
      -13  1    1    2    0    0 -4.2267121515e+02 +1.8554419855e+03 +6.0682656109e+02 1.9973868912e+03 0.0000000000e+00 0.0000e+00 -1.0000e+00
       13  1    1    2    0    0 +4.2267121515e+02 -1.8554419855e+03 +1.3962750766e+03 2.3602754092e+03 0.0000000000e+00 0.0000e+00 1.0000e+00
<mgrwt>
<rscale>  0 0.38699877E+04</rscale>
<asrwt>0</asrwt>
<pdfrwt beam="1">  1        2 0.48928953E+00 0.38699877E+04</pdfrwt>
<pdfrwt beam="2">  1       -2 0.18112005E+00 0.38699877E+04</pdfrwt>
<totfact> 0.20857977E-01</totfact>
</mgrwt>
<rwgt>
<wgt id='morphing_basis_vector_1'> +1.4082674e-05 </wgt>
<wgt id='morphing_basis_vector_2'> +1.0120176e-05 </wgt>
<wgt id='morphing_basis_vector_3'> +1.5578620e-05 </wgt>
<wgt id='morphing_basis_vector_4'> +1.0372217e-05 </wgt>
<wgt id='morphing_basis_vector_5'> +1.7357402e-05 </wgt>
</rwgt>
</event>
<event>
 4      1 +4.5322000e-10 4.01609300e+03 7.81860800e-03 7.53785800e-02
        2 -1    0    0  501    0 +0.0000000000e+00 +0.0000000000e+00 +1.5110219743e+03 1.5110219743e+03 0.0000000000e+00 0.0000e+00 -1.0000e+00
       -2 -1    0    0    0  501 -0.0000000000e+00 -0.0000000000e+00 -2.6685587170e+03 2.6685587170e+03 0.0000000000e+00 0.0000e+00 1.0000e+00
      -13  1    1    2    0    0 -1.1818763211e+03 +8.6772032723e+02 -2.0066565824e+03 2.4852446246e+03 0.0000000000e+00 0.0000e+00 1.0000e+00
       13  1    1    2    0    0 +1.1818763211e+03 -8.6772032723e+02 +8.4911983966e+02 1.6943360666e+03 0.0000000000e+00 0.0000e+00 -1.0000e+00
<mgrwt>
<rscale>  0 0.40160931E+04</rscale>
<asrwt>0</asrwt>
<pdfrwt beam="1">  1        2 0.23246492E+00 0.40160931E+04</pdfrwt>
<pdfrwt beam="2">  1       -2 0.41054749E+00 0.40160931E+04</pdfrwt>
<totfact> 0.56062815E-02</totfact>
</mgrwt>
<rwgt>
<wgt id='morphing_basis_vector_1'> +1.6044595e-05 </wgt>
<wgt id='morphing_basis_vector_2'> +1.0923268e-05 </wgt>
<wgt id='morphing_basis_vector_3'> +1.7625540e-05 </wgt>
<wgt id='morphing_basis_vector_4'> +1.2621196e-05 </wgt>
<wgt id='morphing_basis_vector_5'> +2.0194572e-05 </wgt>
</rwgt>
</event>
<event>
 4      1 +4.5322000e-10 3.98431500e+03 7.81860800e-03 7.54353400e-02
        2 -1    0    0  501    0 +0.0000000000e+00 +0.0000000000e+00 +3.0575397871e+03 3.0575397871e+03 0.0000000000e+00 0.0000e+00 -1.0000e+00
       -2 -1    0    0    0  501 -0.0000000000e+00 -0.0000000000e+00 -1.2980019143e+03 1.2980019143e+03 0.0000000000e+00 0.0000e+00 1.0000e+00
      -13  1    1    2    0    0 +1.5144667433e+03 -1.2321770492e+03 +4.4686362130e+02 2.0028871394e+03 0.0000000000e+00 0.0000e+00 1.0000e+00
       13  1    1    2    0    0 -1.5144667433e+03 +1.2321770492e+03 +1.3126742516e+03 2.3526545620e+03 0.0000000000e+00 0.0000e+00 -1.0000e+00
<mgrwt>
<rscale>  0 0.39843155E+04</rscale>
<asrwt>0</asrwt>
<pdfrwt beam="1">  1        2 0.47039074E+00 0.39843155E+04</pdfrwt>
<pdfrwt beam="2">  1       -2 0.19969260E+00 0.39843155E+04</pdfrwt>
<totfact> 0.18163952E-01</totfact>
</mgrwt>
<rwgt>
<wgt id='morphing_basis_vector_1'> +1.5792806e-05 </wgt>
<wgt id='morphing_basis_vector_2'> +1.1309822e-05 </wgt>
<wgt id='morphing_basis_vector_3'> +1.7471458e-05 </wgt>
<wgt id='morphing_basis_vector_4'> +1.1701140e-05 </wgt>
<wgt id='morphing_basis_vector_5'> +1.9516269e-05 </wgt>
</rwgt>
</event>
<event>
 4      1 +4.5322000e-10 4.20937900e+03 7.81860800e-03 7.50445200e-02
        2 -1    0    0  501    0 +0.0000000000e+00 +0.0000000000e+00 +2.0210041096e+03 2.0210041096e+03 0.0000000000e+00 0.0000e+00 1.0000e+00
       -2 -1    0    0    0  501 -0.0000000000e+00 -0.0000000000e+00 -2.1918396873e+03 2.1918396873e+03 0.0000000000e+00 0.0000e+00 -1.0000e+00
      -13  1    1    2    0    0 +8.0113905326e+02 +1.3607254161e+03 +1.3072447302e+03 2.0499478592e+03 0.0000000000e+00 0.0000e+00 1.0000e+00
       13  1    1    2    0    0 -8.0113905326e+02 -1.3607254161e+03 -1.4780803080e+03 2.1628959377e+03 0.0000000000e+00 0.0000e+00 -1.0000e+00
<mgrwt>
<rscale>  0 0.42093786E+04</rscale>
<asrwt>0</asrwt>
<pdfrwt beam="1">  1        2 0.31092371E+00 0.42093786E+04</pdfrwt>
<pdfrwt beam="2">  1       -2 0.33720610E+00 0.42093786E+04</pdfrwt>
<totfact> 0.85691822E-02</totfact>
</mgrwt>
<rwgt>
<wgt id='morphing_basis_vector_1'> +2.4518249e-05 </wgt>
<wgt id='morphing_basis_vector_2'> +2.8377714e-05 </wgt>
<wgt id='morphing_basis_vector_3'> +2.9594711e-05 </wgt>
<wgt id='morphing_basis_vector_4'> +4.2830661e-06 </wgt>
<wgt id='morphing_basis_vector_5'> +2.3478738e-05 </wgt>
</rwgt>
</event>
<event>
 4      1 +4.5322000e-10 4.30781000e+03 7.81860800e-03 7.48813200e-02
        2 -1    0    0  501    0 +0.0000000000e+00 +0.0000000000e+00 +2.1226266263e+03 2.1226266263e+03 0.0000000000e+00 0.0000e+00 -1.0000e+00
       -2 -1    0    0    0  501 -0.0000000000e+00 -0.0000000000e+00 -2.1856445500e+03 2.1856445500e+03 0.0000000000e+00 0.0000e+00 1.0000e+00
      -13  1    1    2    0    0 +1.5026341616e+03 +1.4531448976e+03 +4.8793837026e+02 2.1465375306e+03 0.0000000000e+00 0.0000e+00 1.0000e+00
       13  1    1    2    0    0 -1.5026341616e+03 -1.4531448976e+03 -5.5095629396e+02 2.1617336457e+03 0.0000000000e+00 0.0000e+00 -1.0000e+00
<mgrwt>
<rscale>  0 0.43078103E+04</rscale>
<asrwt>0</asrwt>
<pdfrwt beam="1">  1        2 0.32655794E+00 0.43078103E+04</pdfrwt>
<pdfrwt beam="2">  1       -2 0.33625301E+00 0.43078103E+04</pdfrwt>
<totfact> 0.75566014E-02</totfact>
</mgrwt>
<rwgt>
<wgt id='morphing_basis_vector_1'> +2.2968061e-05 </wgt>
<wgt id='morphing_basis_vector_2'> +1.9614896e-05 </wgt>
<wgt id='morphing_basis_vector_3'> +2.6161526e-05 </wgt>
<wgt id='morphing_basis_vector_4'> +1.3001663e-05 </wgt>
<wgt id='morphing_basis_vector_5'> +2.6456099e-05 </wgt>
</rwgt>
</event>
<event>
 4      1 +4.5322000e-10 4.06782600e+03 7.81860800e-03 7.52873300e-02
        2 -1    0    0  501    0 +0.0000000000e+00 +0.0000000000e+00 +2.3128194438e+03 2.3128194438e+03 0.0000000000e+00 0.0000e+00 1.0000e+00
       -2 -1    0    0    0  501 -0.0000000000e+00 -0.0000000000e+00 -1.7886406085e+03 1.7886406085e+03 0.0000000000e+00 0.0000e+00 -1.0000e+00
      -13  1    1    2    0    0 -8.8064260359e+02 +4.1943716244e+02 -1.5374204901e+03 1.8207472894e+03 0.0000000000e+00 0.0000e+00 -1.0000e+00
       13  1    1    2    0    0 +8.8064260359e+02 -4.1943716244e+02 +2.0615993254e+03 2.2807127629e+03 0.0000000000e+00 0.0000e+00 1.0000e+00
<mgrwt>
<rscale>  0 0.40678263E+04</rscale>
<asrwt>0</asrwt>
<pdfrwt beam="1">  1        2 0.35581838E+00 0.40678263E+04</pdfrwt>
<pdfrwt beam="2">  1       -2 0.27517548E+00 0.40678263E+04</pdfrwt>
<totfact> 0.15381113E-01</totfact>
</mgrwt>
<rwgt>
<wgt id='morphing_basis_vector_1'> +1.6861731e-05 </wgt>
<wgt id='morphing_basis_vector_2'> +1.1433138e-05 </wgt>
<wgt id='morphing_basis_vector_3'> +1.8516817e-05 </wgt>
<wgt id='morphing_basis_vector_4'> +1.3332604e-05 </wgt>
<wgt id='morphing_basis_vector_5'> +2.1264452e-05 </wgt>
</rwgt>
</event>
<event>
 4      1 +4.5322000e-10 4.15542800e+03 7.81860800e-03 7.51359000e-02
        2 -1    0    0  501    0 +0.0000000000e+00 +0.0000000000e+00 +2.6043602385e+03 2.6043602385e+03 0.0000000000e+00 0.0000e+00 1.0000e+00
       -2 -1    0    0    0  501 -0.0000000000e+00 -0.0000000000e+00 -1.6575647467e+03 1.6575647467e+03 0.0000000000e+00 0.0000e+00 -1.0000e+00
      -13  1    1    2    0    0 +1.3797974053e+03 +6.8454567654e+01 -1.1182667322e+03 1.7773709213e+03 0.0000000000e+00 0.0000e+00 -1.0000e+00
       13  1    1    2    0    0 -1.3797974053e+03 -6.8454567654e+01 +2.0650622240e+03 2.4845540639e+03 0.0000000000e+00 0.0000e+00 1.0000e+00
<mgrwt>
<rscale>  0 0.41554281E+04</rscale>
<asrwt>0</asrwt>
<pdfrwt beam="1">  1        2 0.40067081E+00 0.41554281E+04</pdfrwt>
<pdfrwt beam="2">  1       -2 0.25500996E+00 0.41554281E+04</pdfrwt>
<totfact> 0.14096831E-01</totfact>
</mgrwt>
<rwgt>
<wgt id='morphing_basis_vector_1'> +1.8366725e-05 </wgt>
<wgt id='morphing_basis_vector_2'> +1.2484979e-05 </wgt>
<wgt id='morphing_basis_vector_3'> +2.0183684e-05 </wgt>
<wgt id='morphing_basis_vector_4'> +1.4497916e-05 </wgt>
<wgt id='morphing_basis_vector_5'> +2.3163284e-05 </wgt>
</rwgt>
</event>
<event>
 4      1 +4.5322000e-10 4.05581700e+03 7.81860800e-03 7.53083900e-02
        2 -1    0    0  501    0 +0.0000000000e+00 +0.0000000000e+00 +1.4842004096e+03 1.4842004096e+03 0.0000000000e+00 0.0000e+00 1.0000e+00
       -2 -1    0    0    0  501 -0.0000000000e+00 -0.0000000000e+00 -2.7707938819e+03 2.7707938819e+03 0.0000000000e+00 0.0000e+00 -1.0000e+00
      -13  1    1    2    0    0 +1.3675125165e+03 -9.5550902920e+02 -1.8528813628e+03 2.4932423332e+03 0.0000000000e+00 0.0000e+00 -1.0000e+00
       13  1    1    2    0    0 -1.3675125165e+03 +9.5550902920e+02 +5.6628789055e+02 1.7617519583e+03 0.0000000000e+00 0.0000e+00 1.0000e+00
<mgrwt>
<rscale>  0 0.40558173E+04</rscale>
<asrwt>0</asrwt>
<pdfrwt beam="1">  1        2 0.22833853E+00 0.40558173E+04</pdfrwt>
<pdfrwt beam="2">  1       -2 0.42627598E+00 0.40558173E+04</pdfrwt>
<totfact> 0.45483248E-02</totfact>
</mgrwt>
<rwgt>
<wgt id='morphing_basis_vector_1'> +1.6712629e-05 </wgt>
<wgt id='morphing_basis_vector_2'> +1.1440522e-05 </wgt>
<wgt id='morphing_basis_vector_3'> +1.8376525e-05 </wgt>
<wgt id='morphing_basis_vector_4'> +1.3073211e-05 </wgt>
<wgt id='morphing_basis_vector_5'> +2.1004762e-05 </wgt>
</rwgt>
</event>
<event>
 4      1 +4.5322000e-10 3.95544500e+03 7.81860800e-03 7.54873600e-02
        2 -1    0    0  501    0 +0.0000000000e+00 +0.0000000000e+00 +2.1804320460e+03 2.1804320460e+03 0.0000000000e+00 0.0000e+00 1.0000e+00
       -2 -1    0    0    0  501 -0.0000000000e+00 -0.0000000000e+00 -1.7938583217e+03 1.7938583217e+03 0.0000000000e+00 0.0000e+00 -1.0000e+00
      -13  1    1    2    0    0 +1.2770569253e+03 +3.8261247439e+02 -1.2745358892e+03 1.8443720961e+03 0.0000000000e+00 0.0000e+00 -1.0000e+00
       13  1    1    2    0    0 -1.2770569253e+03 -3.8261247439e+02 +1.6611096134e+03 2.1299182716e+03 0.0000000000e+00 0.0000e+00 1.0000e+00
<mgrwt>
<rscale>  0 0.39554449E+04</rscale>
<asrwt>0</asrwt>
<pdfrwt beam="1">  1        2 0.33545108E+00 0.39554449E+04</pdfrwt>
<pdfrwt beam="2">  1       -2 0.27597821E+00 0.39554449E+04</pdfrwt>
<totfact> 0.18271141E-01</totfact>
</mgrwt>
<rwgt>
<wgt id='morphing_basis_vector_1'> +1.5094059e-05 </wgt>
<wgt id='morphing_basis_vector_2'> +1.0256494e-05 </wgt>
<wgt id='morphing_basis_vector_3'> +1.6572509e-05 </wgt>
<wgt id='morphing_basis_vector_4'> +1.1888956e-05 </wgt>
<wgt id='morphing_basis_vector_5'> +1.8997672e-05 </wgt>
</rwgt>
</event>
<event>
 4      1 +4.5322000e-10 3.93098200e+03 7.81860800e-03 7.55318100e-02
        2 -1    0    0  501    0 +0.0000000000e+00 +0.0000000000e+00 +3.2974922908e+03 3.2974922908e+03 0.0000000000e+00 0.0000e+00 -1.0000e+00
       -2 -1    0    0    0  501 -0.0000000000e+00 -0.0000000000e+00 -1.1715432185e+03 1.1715432185e+03 0.0000000000e+00 0.0000e+00 1.0000e+00
      -13  1    1    2    0    0 +2.0250938936e+02 +1.9239419570e+03 +1.4577699069e+03 2.4223244638e+03 0.0000000000e+00 0.0000e+00 1.0000e+00
       13  1    1    2    0    0 -2.0250938936e+02 -1.9239419570e+03 +6.6817916546e+02 2.0467110455e+03 0.0000000000e+00 0.0000e+00 -1.0000e+00
<mgrwt>
<rscale>  0 0.39309819E+04</rscale>
<asrwt>0</asrwt>
<pdfrwt beam="1">  1        2 0.50730650E+00 0.39309819E+04</pdfrwt>
<pdfrwt beam="2">  1       -2 0.18023742E+00 0.39309819E+04</pdfrwt>
<totfact> 0.17513145E-01</totfact>
</mgrwt>
<rwgt>
<wgt id='morphing_basis_vector_1'> +1.5714192e-05 </wgt>
<wgt id='morphing_basis_vector_2'> +1.2910471e-05 </wgt>
<wgt id='morphing_basis_vector_3'> +1.7750158e-05 </wgt>
<wgt id='morphing_basis_vector_4'> +9.5074555e-06 </wgt>
<wgt id='morphing_basis_vector_5'> +1.8355784e-05 </wgt>
</rwgt>
</event>
<event>
 4      1 +4.5322000e-10 4.56051200e+03 7.81860800e-03 7.44817900e-02
        2 -1    0    0  501    0 +0.0000000000e+00 +0.0000000000e+00 +2.2685480007e+03 2.2685480007e+03 0.0000000000e+00 0.0000e+00 -1.0000e+00
       -2 -1    0    0    0  501 -0.0000000000e+00 -0.0000000000e+00 -2.2920247951e+03 2.2920247951e+03 0.0000000000e+00 0.0000e+00 1.0000e+00
      -13  1    1    2    0    0 +1.2472374275e+03 +7.7064031510e+02 -1.7582095245e+03 2.2892768351e+03 0.0000000000e+00 0.0000e+00 1.0000e+00
       13  1    1    2    0    0 -1.2472374275e+03 -7.7064031510e+02 +1.7347327301e+03 2.2712959607e+03 0.0000000000e+00 0.0000e+00 -1.0000e+00
<mgrwt>
<rscale>  0 0.45605124E+04</rscale>
<asrwt>0</asrwt>
<pdfrwt beam="1">  1        2 0.34900739E+00 0.45605124E+04</pdfrwt>
<pdfrwt beam="2">  1       -2 0.35261920E+00 0.45605124E+04</pdfrwt>
<totfact> 0.47806715E-02</totfact>
</mgrwt>
<rwgt>
<wgt id='morphing_basis_vector_1'> +2.6598806e-05 </wgt>
<wgt id='morphing_basis_vector_2'> +1.8090093e-05 </wgt>
<wgt id='morphing_basis_vector_3'> +2.9272356e-05 </wgt>
<wgt id='morphing_basis_vector_4'> +2.1072705e-05 </wgt>
<wgt id='morphing_basis_vector_5'> +3.3657174e-05 </wgt>
</rwgt>
</event>
<event>
 4      1 +4.5322000e-10 3.99212100e+03 7.81860800e-03 7.54213500e-02
        2 -1    0    0  501    0 +0.0000000000e+00 +0.0000000000e+00 +2.1919299134e+03 2.1919299134e+03 0.0000000000e+00 0.0000e+00 -1.0000e+00
       -2 -1    0    0    0  501 -0.0000000000e+00 -0.0000000000e+00 -1.8176939685e+03 1.8176939685e+03 0.0000000000e+00 0.0000e+00 1.0000e+00
      -13  1    1    2    0    0 -3.2678537998e+02 +1.6903055652e+03 -8.2742762809e+02 1.9101199093e+03 0.0000000000e+00 0.0000e+00 1.0000e+00
       13  1    1    2    0    0 +3.2678537998e+02 -1.6903055652e+03 +1.2016635730e+03 2.0995039726e+03 0.0000000000e+00 0.0000e+00 -1.0000e+00
<mgrwt>
<rscale>  0 0.39921211E+04</rscale>
<asrwt>0</asrwt>
<pdfrwt beam="1">  1        2 0.33721998E+00 0.39921211E+04</pdfrwt>
<pdfrwt beam="2">  1       -2 0.27964523E+00 0.39921211E+04</pdfrwt>
<totfact> 0.16940895E-01</totfact>
</mgrwt>
<rwgt>
<wgt id='morphing_basis_vector_1'> +1.5712229e-05 </wgt>
<wgt id='morphing_basis_vector_2'> +1.0798696e-05 </wgt>
<wgt id='morphing_basis_vector_3'> +1.7281400e-05 </wgt>
<wgt id='morphing_basis_vector_4'> +1.2225141e-05 </wgt>
<wgt id='morphing_basis_vector_5'> +1.9706375e-05 </wgt>
</rwgt>
</event>
<event>
 4      1 +4.5322000e-10 3.88488100e+03 7.81860800e-03 7.56164600e-02
        2 -1    0    0  501    0 +0.0000000000e+00 +0.0000000000e+00 +2.6904310172e+03 2.6904310172e+03 0.0000000000e+00 0.0000e+00 1.0000e+00
       -2 -1    0    0    0  501 -0.0000000000e+00 -0.0000000000e+00 -1.4024054961e+03 1.4024054961e+03 0.0000000000e+00 0.0000e+00 -1.0000e+00
      -13  1    1    2    0    0 +1.2799159781e+03 -8.5128528413e+02 -6.0707447540e+02 1.6526980864e+03 0.0000000000e+00 0.0000e+00 -1.0000e+00
       13  1    1    2    0    0 -1.2799159781e+03 +8.5128528413e+02 +1.8950999965e+03 2.4401384269e+03 0.0000000000e+00 0.0000e+00 1.0000e+00
<mgrwt>
<rscale>  0 0.38848811E+04</rscale>
<asrwt>0</asrwt>
<pdfrwt beam="1">  1        2 0.41391246E+00 0.38848811E+04</pdfrwt>
<pdfrwt beam="2">  1       -2 0.21575469E+00 0.38848811E+04</pdfrwt>
<totfact> 0.24019214E-01</totfact>
</mgrwt>
<rwgt>
<wgt id='morphing_basis_vector_1'> +1.4071056e-05 </wgt>
<wgt id='morphing_basis_vector_2'> +9.6048369e-06 </wgt>
<wgt id='morphing_basis_vector_3'> +1.5453945e-05 </wgt>
<wgt id='morphing_basis_vector_4'> +1.1016293e-05 </wgt>
<wgt id='morphing_basis_vector_5'> +1.7667737e-05 </wgt>
</rwgt>
</event>
<event>
 4      1 +4.5322000e-10 4.53573100e+03 7.81860800e-03 7.45198000e-02
        2 -1    0    0  501    0 +0.0000000000e+00 +0.0000000000e+00 +4.0500120897e+03 4.0500120897e+03 0.0000000000e+00 0.0000e+00 1.0000e+00
       -2 -1    0    0    0  501 -0.0000000000e+00 -0.0000000000e+00 -1.2699254528e+03 1.2699254528e+03 0.0000000000e+00 0.0000e+00 -1.0000e+00
      -13  1    1    2    0    0 +6.1535436171e+02 -1.2805029543e+03 -6.8331741071e+02 1.5764743862e+03 0.0000000000e+00 0.0000e+00 -1.0000e+00
       13  1    1    2    0    0 -6.1535436171e+02 +1.2805029543e+03 +3.4634040476e+03 3.7434631564e+03 0.0000000000e+00 0.0000e+00 1.0000e+00
<mgrwt>
<rscale>  0 0.45357308E+04</rscale>
<asrwt>0</asrwt>
<pdfrwt beam="1">  1        2 0.62307878E+00 0.45357308E+04</pdfrwt>
<pdfrwt beam="2">  1       -2 0.19537315E+00 0.45357308E+04</pdfrwt>
<totfact> 0.33661701E-02</totfact>
</mgrwt>
<rwgt>
<wgt id='morphing_basis_vector_1'> +2.6025261e-05 </wgt>
<wgt id='morphing_basis_vector_2'> +1.7693802e-05 </wgt>
<wgt id='morphing_basis_vector_3'> +2.8637638e-05 </wgt>
<wgt id='morphing_basis_vector_4'> +2.0621692e-05 </wgt>
<wgt id='morphing_basis_vector_5'> +3.2929214e-05 </wgt>
</rwgt>
</event>
<event>
 4      1 +4.5322000e-10 3.90120800e+03 7.81860800e-03 7.55863400e-02
        2 -1    0    0  501    0 +0.0000000000e+00 +0.0000000000e+00 +2.1089081564e+03 2.1089081564e+03 0.0000000000e+00 0.0000e+00 -1.0000e+00
       -2 -1    0    0    0  501 -0.0000000000e+00 -0.0000000000e+00 -1.8041832087e+03 1.8041832087e+03 0.0000000000e+00 0.0000e+00 1.0000e+00
      -13  1    1    2    0    0 -7.5003873595e+02 -9.2552849427e+02 -1.3969119608e+03 1.8358987242e+03 0.0000000000e+00 0.0000e+00 1.0000e+00
       13  1    1    2    0    0 +7.5003873595e+02 +9.2552849427e+02 +1.7016369085e+03 2.0771926410e+03 0.0000000000e+00 0.0000e+00 -1.0000e+00
<mgrwt>
<rscale>  0 0.39012084E+04</rscale>
<asrwt>0</asrwt>
<pdfrwt beam="1">  1        2 0.32444741E+00 0.39012084E+04</pdfrwt>
<pdfrwt beam="2">  1       -2 0.27756665E+00 0.39012084E+04</pdfrwt>
<totfact> 0.19661388E-01</totfact>
</mgrwt>
<rwgt>
<wgt id='morphing_basis_vector_1'> +1.4281971e-05 </wgt>
<wgt id='morphing_basis_vector_2'> +9.6910267e-06 </wgt>
<wgt id='morphing_basis_vector_3'> +1.5673918e-05 </wgt>
<wgt id='morphing_basis_vector_4'> +1.1258205e-05 </wgt>
<wgt id='morphing_basis_vector_5'> +1.7972752e-05 </wgt>
</rwgt>
</event>
<event>
 4      1 +4.5322000e-10 3.90613100e+03 7.81860800e-03 7.55772900e-02
        2 -1    0    0  501    0 +0.0000000000e+00 +0.0000000000e+00 +2.8248439027e+03 2.8248439027e+03 0.0000000000e+00 0.0000e+00 1.0000e+00
       -2 -1    0    0    0  501 -0.0000000000e+00 -0.0000000000e+00 -1.3503279343e+03 1.3503279343e+03 0.0000000000e+00 0.0000e+00 -1.0000e+00
      -13  1    1    2    0    0 +1.9365225739e+03 +2.5092938393e+02 +6.9754527501e+02 2.0735608613e+03 0.0000000000e+00 0.0000e+00 -1.0000e+00
       13  1    1    2    0    0 -1.9365225739e+03 -2.5092938393e+02 +7.7697069338e+02 2.1016109757e+03 0.0000000000e+00 0.0000e+00 1.0000e+00
<mgrwt>
<rscale>  0 0.39061314E+04</rscale>
<asrwt>0</asrwt>
<pdfrwt beam="1">  1        2 0.43459137E+00 0.39061314E+04</pdfrwt>
<pdfrwt beam="2">  1       -2 0.20774276E+00 0.39061314E+04</pdfrwt>
<totfact> 0.22573337E-01</totfact>
</mgrwt>
<rwgt>
<wgt id='morphing_basis_vector_1'> +1.4838449e-05 </wgt>
<wgt id='morphing_basis_vector_2'> +1.1164647e-05 </wgt>
<wgt id='morphing_basis_vector_3'> +1.6529551e-05 </wgt>
<wgt id='morphing_basis_vector_4'> +1.0291327e-05 </wgt>
<wgt id='morphing_basis_vector_5'> +1.7978871e-05 </wgt>
</rwgt>
</event>
<event>
 4      1 +4.5322000e-10 4.05741800e+03 7.81860800e-03 7.53055800e-02
        2 -1    0    0  501    0 +0.0000000000e+00 +0.0000000000e+00 +2.2865295195e+03 2.2865295195e+03 0.0000000000e+00 0.0000e+00 1.0000e+00
       -2 -1    0    0    0  501 -0.0000000000e+00 -0.0000000000e+00 -1.7999592080e+03 1.7999592080e+03 0.0000000000e+00 0.0000e+00 -1.0000e+00
      -13  1    1    2    0    0 -6.5221149822e+02 -4.6124029613e+02 +2.1214619807e+03 2.2668752468e+03 0.0000000000e+00 0.0000e+00 1.0000e+00
       13  1    1    2    0    0 +6.5221149822e+02 +4.6124029613e+02 -1.6348916692e+03 1.8196134807e+03 0.0000000000e+00 0.0000e+00 -1.0000e+00
<mgrwt>
<rscale>  0 0.40574178E+04</rscale>
<asrwt>0</asrwt>
<pdfrwt beam="1">  1        2 0.35177377E+00 0.40574178E+04</pdfrwt>
<pdfrwt beam="2">  1       -2 0.27691680E+00 0.40574178E+04</pdfrwt>
<totfact> 0.15514664E-01</totfact>
</mgrwt>
<rwgt>
<wgt id='morphing_basis_vector_1'> +2.2779103e-05 </wgt>
<wgt id='morphing_basis_vector_2'> +2.9211728e-05 </wgt>
<wgt id='morphing_basis_vector_3'> +2.8105527e-05 </wgt>
<wgt id='morphing_basis_vector_4'> +3.1038352e-07 </wgt>
<wgt id='morphing_basis_vector_5'> +1.9972545e-05 </wgt>
</rwgt>
</event>
<event>
 4      1 +4.5322000e-10 4.03960600e+03 7.81860800e-03 7.53369300e-02
        2 -1    0    0  501    0 +0.0000000000e+00 +0.0000000000e+00 +2.3496122495e+03 2.3496122495e+03 0.0000000000e+00 0.0000e+00 -1.0000e+00
       -2 -1    0    0    0  501 -0.0000000000e+00 -0.0000000000e+00 -1.7362886329e+03 1.7362886329e+03 0.0000000000e+00 0.0000e+00 1.0000e+00
      -13  1    1    2    0    0 +6.5292685787e+02 -1.3078310252e+03 -1.1031806794e+03 1.8313227688e+03 0.0000000000e+00 0.0000e+00 1.0000e+00
       13  1    1    2    0    0 -6.5292685787e+02 +1.3078310252e+03 +1.7165042960e+03 2.2545781136e+03 0.0000000000e+00 0.0000e+00 -1.0000e+00
<mgrwt>
<rscale>  0 0.40396064E+04</rscale>
<asrwt>0</asrwt>
<pdfrwt beam="1">  1        2 0.36147881E+00 0.40396064E+04</pdfrwt>
<pdfrwt beam="2">  1       -2 0.26712133E+00 0.40396064E+04</pdfrwt>
<totfact> 0.16658171E-01</totfact>
</mgrwt>
<rwgt>
<wgt id='morphing_basis_vector_1'> +1.6420535e-05 </wgt>
<wgt id='morphing_basis_vector_2'> +1.1177324e-05 </wgt>
<wgt id='morphing_basis_vector_3'> +1.8039914e-05 </wgt>
<wgt id='morphing_basis_vector_4'> +1.2923330e-05 </wgt>
<wgt id='morphing_basis_vector_5'> +2.0674253e-05 </wgt>
</rwgt>
</event>
<event>
 4      1 +4.5322000e-10 3.96862000e+03 7.81860800e-03 7.54635600e-02
        2 -1    0    0  501    0 +0.0000000000e+00 +0.0000000000e+00 +1.4699852029e+03 1.4699852029e+03 0.0000000000e+00 0.0000e+00 1.0000e+00
       -2 -1    0    0    0  501 -0.0000000000e+00 -0.0000000000e+00 -2.6785896367e+03 2.6785896367e+03 0.0000000000e+00 0.0000e+00 -1.0000e+00
      -13  1    1    2    0    0 -1.0855001027e+03 +1.5854106606e+03 -1.1224068479e+03 2.2252268577e+03 0.0000000000e+00 0.0000e+00 -1.0000e+00
       13  1    1    2    0    0 +1.0855001027e+03 -1.5854106606e+03 -8.6197585942e+01 1.9233479819e+03 0.0000000000e+00 0.0000e+00 1.0000e+00
<mgrwt>
<rscale>  0 0.39686205E+04</rscale>
<asrwt>0</asrwt>
<pdfrwt beam="1">  1        2 0.22615157E+00 0.39686205E+04</pdfrwt>
<pdfrwt beam="2">  1       -2 0.41209071E+00 0.39686205E+04</pdfrwt>
<totfact> 0.57959481E-02</totfact>
</mgrwt>
<rwgt>
<wgt id='morphing_basis_vector_1'> +1.5497303e-05 </wgt>
<wgt id='morphing_basis_vector_2'> +1.0987875e-05 </wgt>
<wgt id='morphing_basis_vector_3'> +1.7118590e-05 </wgt>
<wgt id='morphing_basis_vector_4'> +1.1621418e-05 </wgt>
<wgt id='morphing_basis_vector_5'> +1.9217750e-05 </wgt>
</rwgt>
</event>
<event>
 4      1 +4.5322000e-10 3.86654700e+03 7.81860800e-03 7.56504600e-02
        2 -1    0    0  501    0 +0.0000000000e+00 +0.0000000000e+00 +2.7588636148e+03 2.7588636148e+03 0.0000000000e+00 0.0000e+00 1.0000e+00
       -2 -1    0    0    0  501 -0.0000000000e+00 -0.0000000000e+00 -1.3547409409e+03 1.3547409409e+03 0.0000000000e+00 0.0000e+00 -1.0000e+00
      -13  1    1    2    0    0 +5.7697025002e+01 -1.2020752427e+03 -9.0763580223e+02 1.5073541671e+03 0.0000000000e+00 0.0000e+00 -1.0000e+00
       13  1    1    2    0    0 -5.7697025002e+01 +1.2020752427e+03 +2.3117584762e+03 2.6062503885e+03 0.0000000000e+00 0.0000e+00 1.0000e+00
<mgrwt>
<rscale>  0 0.38665465E+04</rscale>
<asrwt>0</asrwt>
<pdfrwt beam="1">  1        2 0.42444056E+00 0.38665465E+04</pdfrwt>
<pdfrwt beam="2">  1       -2 0.20842168E+00 0.38665465E+04</pdfrwt>
<totfact> 0.24629621E-01</totfact>
</mgrwt>
<rwgt>
<wgt id='morphing_basis_vector_1'> +1.3784565e-05 </wgt>
<wgt id='morphing_basis_vector_2'> +9.3541624e-06 </wgt>
<wgt id='morphing_basis_vector_3'> +1.5125685e-05 </wgt>
<wgt id='morphing_basis_vector_4'> +1.0859772e-05 </wgt>
<wgt id='morphing_basis_vector_5'> +1.7339074e-05 </wgt>
</rwgt>
</event>
<event>
 4      1 +4.5322000e-10 4.27030100e+03 7.81860800e-03 7.49429900e-02
        2 -1    0    0  501    0 +0.0000000000e+00 +0.0000000000e+00 +1.8458198421e+03 1.8458198421e+03 0.0000000000e+00 0.0000e+00 1.0000e+00
       -2 -1    0    0    0  501 -0.0000000000e+00 -0.0000000000e+00 -2.4698331898e+03 2.4698331898e+03 0.0000000000e+00 0.0000e+00 -1.0000e+00
      -13  1    1    2    0    0 +1.4718322712e+03 -1.5175943910e+03 -9.6907040819e+00 2.1141137339e+03 0.0000000000e+00 0.0000e+00 -1.0000e+00
       13  1    1    2    0    0 -1.4718322712e+03 +1.5175943910e+03 -6.1432264357e+02 2.2015392980e+03 0.0000000000e+00 0.0000e+00 1.0000e+00
<mgrwt>
<rscale>  0 0.42703007E+04</rscale>
<asrwt>0</asrwt>
<pdfrwt beam="1">  1        2 0.28397228E+00 0.42703007E+04</pdfrwt>
<pdfrwt beam="2">  1       -2 0.37997434E+00 0.42703007E+04</pdfrwt>
<totfact> 0.56552057E-02</totfact>
</mgrwt>
<rwgt>
<wgt id='morphing_basis_vector_1'> +2.1686046e-05 </wgt>
<wgt id='morphing_basis_vector_2'> +1.7485248e-05 </wgt>
<wgt id='morphing_basis_vector_3'> +2.4462751e-05 </wgt>
<wgt id='morphing_basis_vector_4'> +1.3604417e-05 </wgt>
<wgt id='morphing_basis_vector_5'> +2.5630635e-05 </wgt>
</rwgt>
</event>
<event>
 4      1 +4.5322000e-10 4.12888200e+03 7.81860800e-03 7.51813900e-02
        2 -1    0    0  501    0 +0.0000000000e+00 +0.0000000000e+00 +1.3060732898e+03 1.3060732898e+03 0.0000000000e+00 0.0000e+00 1.0000e+00
       -2 -1    0    0    0  501 -0.0000000000e+00 -0.0000000000e+00 -3.2631520895e+03 3.2631520895e+03 0.0000000000e+00 0.0000e+00 -1.0000e+00
      -13  1    1    2    0    0 +1.3636548102e+03 +1.3202092862e+03 -1.8771830643e+03 2.6695174204e+03 0.0000000000e+00 0.0000e+00 -1.0000e+00
       13  1    1    2    0    0 -1.3636548102e+03 -1.3202092862e+03 -7.9895735313e+01 1.8997079589e+03 0.0000000000e+00 0.0000e+00 1.0000e+00
<mgrwt>
<rscale>  0 0.41288816E+04</rscale>
<asrwt>0</asrwt>
<pdfrwt beam="1">  1        2 0.20093436E+00 0.41288816E+04</pdfrwt>
<pdfrwt beam="2">  1       -2 0.50202339E+00 0.41288816E+04</pdfrwt>
<totfact> 0.16339632E-02</totfact>
</mgrwt>
<rwgt>
<wgt id='morphing_basis_vector_1'> +1.8024416e-05 </wgt>
<wgt id='morphing_basis_vector_2'> +1.2523290e-05 </wgt>
<wgt id='morphing_basis_vector_3'> +1.9866478e-05 </wgt>
<wgt id='morphing_basis_vector_4'> +1.3874451e-05 </wgt>
<wgt id='morphing_basis_vector_5'> +2.2553091e-05 </wgt>
</rwgt>
</event>
<event>
 4      1 +4.5322000e-10 3.87692100e+03 7.81860800e-03 7.56312000e-02
        2 -1    0    0  501    0 +0.0000000000e+00 +0.0000000000e+00 +1.7455653931e+03 1.7455653931e+03 0.0000000000e+00 0.0000e+00 1.0000e+00
       -2 -1    0    0    0  501 -0.0000000000e+00 -0.0000000000e+00 -2.1526713721e+03 2.1526713721e+03 0.0000000000e+00 0.0000e+00 -1.0000e+00
      -13  1    1    2    0    0 +6.8944379929e+00 -1.8687665703e+03 -7.2145056076e+02 2.0032041682e+03 0.0000000000e+00 0.0000e+00 -1.0000e+00
       13  1    1    2    0    0 -6.8944379929e+00 +1.8687665703e+03 +3.1434458177e+02 1.8950325970e+03 0.0000000000e+00 0.0000e+00 1.0000e+00
<mgrwt>
<rscale>  0 0.38769208E+04</rscale>
<asrwt>0</asrwt>
<pdfrwt beam="1">  1        2 0.26854852E+00 0.38769208E+04</pdfrwt>
<pdfrwt beam="2">  1       -2 0.33118021E+00 0.38769208E+04</pdfrwt>
<totfact> 0.13746359E-01</totfact>
</mgrwt>
<rwgt>
<wgt id='morphing_basis_vector_1'> +1.4108330e-05 </wgt>
<wgt id='morphing_basis_vector_2'> +9.9722875e-06 </wgt>
<wgt id='morphing_basis_vector_3'> +1.5570496e-05 </wgt>
<wgt id='morphing_basis_vector_4'> +1.0605515e-05 </wgt>
<wgt id='morphing_basis_vector_5'> +1.7495960e-05 </wgt>
</rwgt>
</event>
<event>
 4      1 +4.5322000e-10 4.43421800e+03 7.81860800e-03 7.46781000e-02
        2 -1    0    0  501    0 +0.0000000000e+00 +0.0000000000e+00 +1.3364484276e+03 1.3364484276e+03 0.0000000000e+00 0.0000e+00 1.0000e+00
       -2 -1    0    0    0  501 -0.0000000000e+00 -0.0000000000e+00 -3.6780868736e+03 3.6780868736e+03 0.0000000000e+00 0.0000e+00 -1.0000e+00
      -13  1    1    2    0    0 -7.3332001891e+02 +5.5888217156e+02 -3.4509972928e+03 3.5720428115e+03 0.0000000000e+00 0.0000e+00 -1.0000e+00
       13  1    1    2    0    0 +7.3332001891e+02 -5.5888217156e+02 +1.1093588468e+03 1.4424924897e+03 0.0000000000e+00 0.0000e+00 1.0000e+00
<mgrwt>
<rscale>  0 0.44342185E+04</rscale>
<asrwt>0</asrwt>
<pdfrwt beam="1">  1        2 0.20560745E+00 0.44342185E+04</pdfrwt>
<pdfrwt beam="2">  1       -2 0.56585951E+00 0.44342185E+04</pdfrwt>
<totfact> 0.52300313E-03</totfact>
</mgrwt>
<rwgt>
<wgt id='morphing_basis_vector_1'> +2.3768560e-05 </wgt>
<wgt id='morphing_basis_vector_2'> +1.6127248e-05 </wgt>
<wgt id='morphing_basis_vector_3'> +2.6138856e-05 </wgt>
<wgt id='morphing_basis_vector_4'> +1.8857044e-05 </wgt>
<wgt id='morphing_basis_vector_5'> +3.0070322e-05 </wgt>
</rwgt>
</event>
<event>
 4      1 +4.5322000e-10 4.00045000e+03 7.81860800e-03 7.54064500e-02
        2 -1    0    0  501    0 +0.0000000000e+00 +0.0000000000e+00 +2.8887430398e+03 2.8887430398e+03 0.0000000000e+00 0.0000e+00 -1.0000e+00
       -2 -1    0    0    0  501 -0.0000000000e+00 -0.0000000000e+00 -1.3849969616e+03 1.3849969616e+03 0.0000000000e+00 0.0000e+00 1.0000e+00
      -13  1    1    2    0    0 -5.0512014057e+02 +1.9348373979e+03 +8.0150336657e+02 2.1543327875e+03 0.0000000000e+00 0.0000e+00 -1.0000e+00
       13  1    1    2    0    0 +5.0512014057e+02 -1.9348373979e+03 +7.0224271161e+02 2.1194072139e+03 0.0000000000e+00 0.0000e+00 1.0000e+00
<mgrwt>
<rscale>  0 0.40004501E+04</rscale>
<asrwt>0</asrwt>
<pdfrwt beam="1">  1        2 0.44442200E+00 0.40004501E+04</pdfrwt>
<pdfrwt beam="2">  1       -2 0.21307646E+00 0.40004501E+04</pdfrwt>
<totfact> 0.18679394E-01</totfact>
</mgrwt>
<rwgt>
<wgt id='morphing_basis_vector_1'> +1.6405241e-05 </wgt>
<wgt id='morphing_basis_vector_2'> +1.2541286e-05 </wgt>
<wgt id='morphing_basis_vector_3'> +1.8327999e-05 </wgt>
<wgt id='morphing_basis_vector_4'> +1.1138907e-05 </wgt>
<wgt id='morphing_basis_vector_5'> +1.9773107e-05 </wgt>
</rwgt>
</event>
<event>
 4      1 +4.5322000e-10 3.94824700e+03 7.81860800e-03 7.55004100e-02
        2 -1    0    0  501    0 +0.0000000000e+00 +0.0000000000e+00 +1.6096654619e+03 1.6096654619e+03 0.0000000000e+00 0.0000e+00 -1.0000e+00
       -2 -1    0    0    0  501 -0.0000000000e+00 -0.0000000000e+00 -2.4211015981e+03 2.4211015981e+03 0.0000000000e+00 0.0000e+00 1.0000e+00
      -13  1    1    2    0    0 +5.9356969049e+02 -1.4544254695e+03 +8.1488151288e+02 1.7696638957e+03 0.0000000000e+00 0.0000e+00 1.0000e+00
       13  1    1    2    0    0 -5.9356969049e+02 +1.4544254695e+03 -1.6263176491e+03 2.2611031643e+03 0.0000000000e+00 0.0000e+00 -1.0000e+00
<mgrwt>
<rscale>  0 0.39482470E+04</rscale>
<asrwt>0</asrwt>
<pdfrwt beam="1">  1        2 0.24764084E+00 0.39482470E+04</pdfrwt>
<pdfrwt beam="2">  1       -2 0.37247717E+00 0.39482470E+04</pdfrwt>
<totfact> 0.87733096E-02</totfact>
</mgrwt>
<rwgt>
<wgt id='morphing_basis_vector_1'> +1.8558261e-05 </wgt>
<wgt id='morphing_basis_vector_2'> +2.0685875e-05 </wgt>
<wgt id='morphing_basis_vector_3'> +2.2180562e-05 </wgt>
<wgt id='morphing_basis_vector_4'> +4.2482106e-06 </wgt>
<wgt id='morphing_basis_vector_5'> +1.8230007e-05 </wgt>
</rwgt>
</event>
<event>
 4      1 +4.5322000e-10 4.16050300e+03 7.81860800e-03 7.51272500e-02
        2 -1    0    0  501    0 +0.0000000000e+00 +0.0000000000e+00 +1.3835778392e+03 1.3835778392e+03 0.0000000000e+00 0.0000e+00 -1.0000e+00
       -2 -1    0    0    0  501 -0.0000000000e+00 -0.0000000000e+00 -3.1277213289e+03 3.1277213289e+03 0.0000000000e+00 0.0000e+00 1.0000e+00
      -13  1    1    2    0    0 +1.6360166310e+03 -5.5314361561e+02 -2.1295638525e+03 2.7418170031e+03 0.0000000000e+00 0.0000e+00 1.0000e+00
       13  1    1    2    0    0 -1.6360166310e+03 +5.5314361561e+02 +3.8542036285e+02 1.7694821651e+03 0.0000000000e+00 0.0000e+00 -1.0000e+00
<mgrwt>
<rscale>  0 0.41605028E+04</rscale>
<asrwt>0</asrwt>
<pdfrwt beam="1">  1        2 0.21285813E+00 0.41605028E+04</pdfrwt>
<pdfrwt beam="2">  1       -2 0.48118790E+00 0.41605028E+04</pdfrwt>
<totfact> 0.21091604E-02</totfact>
</mgrwt>
<rwgt>
<wgt id='morphing_basis_vector_1'> +1.8500668e-05 </wgt>
<wgt id='morphing_basis_vector_2'> +1.2676701e-05 </wgt>
<wgt id='morphing_basis_vector_3'> +2.0353977e-05 </wgt>
<wgt id='morphing_basis_vector_4'> +1.4474942e-05 </wgt>
<wgt id='morphing_basis_vector_5'> +2.3269301e-05 </wgt>
</rwgt>
</event>
<event>
 4      1 +4.5322000e-10 4.24510600e+03 7.81860800e-03 7.49847700e-02
        2 -1    0    0  501    0 +0.0000000000e+00 +0.0000000000e+00 +3.1475876008e+03 3.1475876008e+03 0.0000000000e+00 0.0000e+00 -1.0000e+00
       -2 -1    0    0    0  501 -0.0000000000e+00 -0.0000000000e+00 -1.4313281080e+03 1.4313281080e+03 0.0000000000e+00 0.0000e+00 1.0000e+00
      -13  1    1    2    0    0 -2.1962957397e+02 +1.7193383443e+03 -4.6330447774e+02 1.7941606759e+03 0.0000000000e+00 0.0000e+00 1.0000e+00
       13  1    1    2    0    0 +2.1962957397e+02 -1.7193383443e+03 +2.1795639705e+03 2.7847550329e+03 0.0000000000e+00 0.0000e+00 -1.0000e+00
<mgrwt>
<rscale>  0 0.42451057E+04</rscale>
<asrwt>0</asrwt>
<pdfrwt beam="1">  1        2 0.48424425E+00 0.42451057E+04</pdfrwt>
<pdfrwt beam="2">  1       -2 0.22020432E+00 0.42451057E+04</pdfrwt>
<totfact> 0.11030845E-01</totfact>
</mgrwt>
<rwgt>
<wgt id='morphing_basis_vector_1'> +2.0037420e-05 </wgt>
<wgt id='morphing_basis_vector_2'> +1.3716734e-05 </wgt>
<wgt id='morphing_basis_vector_3'> +2.2048824e-05 </wgt>
<wgt id='morphing_basis_vector_4'> +1.5709322e-05 </wgt>
<wgt id='morphing_basis_vector_5'> +2.5230904e-05 </wgt>
</rwgt>
</event>
<event>
 4      1 +4.5322000e-10 4.04065800e+03 7.81860800e-03 7.53350800e-02
        2 -1    0    0  501    0 +0.0000000000e+00 +0.0000000000e+00 +2.0420189805e+03 2.0420189805e+03 0.0000000000e+00 0.0000e+00 -1.0000e+00
       -2 -1    0    0    0  501 -0.0000000000e+00 -0.0000000000e+00 -1.9988690097e+03 1.9988690097e+03 0.0000000000e+00 0.0000e+00 1.0000e+00
      -13  1    1    2    0    0 -1.1056033816e+03 -4.5515440025e+02 -1.6070767727e+03 2.0030526999e+03 0.0000000000e+00 0.0000e+00 1.0000e+00
       13  1    1    2    0    0 +1.1056033816e+03 +4.5515440025e+02 +1.6502267435e+03 2.0378352903e+03 0.0000000000e+00 0.0000e+00 -1.0000e+00
<mgrwt>
<rscale>  0 0.40406576E+04</rscale>
<asrwt>0</asrwt>
<pdfrwt beam="1">  1        2 0.31415677E+00 0.40406576E+04</pdfrwt>
<pdfrwt beam="2">  1       -2 0.30751831E+00 0.40406576E+04</pdfrwt>
<totfact> 0.13305177E-01</totfact>
</mgrwt>
<rwgt>
<wgt id='morphing_basis_vector_1'> +1.6422811e-05 </wgt>
<wgt id='morphing_basis_vector_2'> +1.1145628e-05 </wgt>
<wgt id='morphing_basis_vector_3'> +1.8035035e-05 </wgt>
<wgt id='morphing_basis_vector_4'> +1.2968032e-05 </wgt>
<wgt id='morphing_basis_vector_5'> +2.0698484e-05 </wgt>
</rwgt>
</event>
<event>
 4      1 +4.5322000e-10 4.13139200e+03 7.81860800e-03 7.51770700e-02
        2 -1    0    0  501    0 +0.0000000000e+00 +0.0000000000e+00 +4.3162603770e+03 4.3162603770e+03 0.0000000000e+00 0.0000e+00 1.0000e+00
       -2 -1    0    0    0  501 -0.0000000000e+00 -0.0000000000e+00 -9.8861052895e+02 9.8861052895e+02 0.0000000000e+00 0.0000e+00 -1.0000e+00
      -13  1    1    2    0    0 +1.6214434446e+03 -6.9441466033e+02 +2.8337202295e+02 1.7865022441e+03 0.0000000000e+00 0.0000e+00 -1.0000e+00
       13  1    1    2    0    0 -1.6214434446e+03 +6.9441466033e+02 +3.0442778251e+03 3.5183686619e+03 0.0000000000e+00 0.0000e+00 1.0000e+00
<mgrwt>
<rscale>  0 0.41313922E+04</rscale>
<asrwt>0</asrwt>
<pdfrwt beam="1">  1        2 0.66404005E+00 0.41313922E+04</pdfrwt>
<pdfrwt beam="2">  1       -2 0.15209393E+00 0.41313922E+04</pdfrwt>
<totfact> 0.43060533E-02</totfact>
</mgrwt>
<rwgt>
<wgt id='morphing_basis_vector_1'> +1.8004164e-05 </wgt>
<wgt id='morphing_basis_vector_2'> +1.2365857e-05 </wgt>
<wgt id='morphing_basis_vector_3'> +1.9812069e-05 </wgt>
<wgt id='morphing_basis_vector_4'> +1.4043760e-05 </wgt>
<wgt id='morphing_basis_vector_5'> +2.2619543e-05 </wgt>
</rwgt>
</event>
<event>
 4      1 +4.5322000e-10 4.34116800e+03 7.81860800e-03 7.48270100e-02
        2 -1    0    0  501    0 +0.0000000000e+00 +0.0000000000e+00 +3.7034581968e+03 3.7034581968e+03 0.0000000000e+00 0.0000e+00 -1.0000e+00
       -2 -1    0    0    0  501 -0.0000000000e+00 -0.0000000000e+00 -1.2721720232e+03 1.2721720232e+03 0.0000000000e+00 0.0000e+00 1.0000e+00
      -13  1    1    2    0    0 -4.1889202150e+02 -1.6721179777e+03 +2.7275130559e+03 3.2265734963e+03 0.0000000000e+00 0.0000e+00 1.0000e+00
       13  1    1    2    0    0 +4.1889202150e+02 +1.6721179777e+03 -2.9622688230e+02 1.7490567237e+03 0.0000000000e+00 0.0000e+00 -1.0000e+00
<mgrwt>
<rscale>  0 0.43411685E+04</rscale>
<asrwt>0</asrwt>
<pdfrwt beam="1">  1        2 0.56976280E+00 0.43411685E+04</pdfrwt>
<pdfrwt beam="2">  1       -2 0.19571877E+00 0.43411685E+04</pdfrwt>
<totfact> 0.65349639E-02</totfact>
</mgrwt>
<rwgt>
<wgt id='morphing_basis_vector_1'> +2.7099647e-05 </wgt>
<wgt id='morphing_basis_vector_2'> +3.0262126e-05 </wgt>
<wgt id='morphing_basis_vector_3'> +3.2487563e-05 </wgt>
<wgt id='morphing_basis_vector_4'> +6.1650853e-06 </wgt>
<wgt id='morphing_basis_vector_5'> +2.6683396e-05 </wgt>
</rwgt>
</event>
<event>
 4      1 +4.5322000e-10 4.48711500e+03 7.81860800e-03 7.45950800e-02
        2 -1    0    0  501    0 +0.0000000000e+00 +0.0000000000e+00 +4.2230465450e+03 4.2230465450e+03 0.0000000000e+00 0.0000e+00 -1.0000e+00
       -2 -1    0    0    0  501 -0.0000000000e+00 -0.0000000000e+00 -1.1919238566e+03 1.1919238566e+03 0.0000000000e+00 0.0000e+00 1.0000e+00
      -13  1    1    2    0    0 +1.1612445383e+03 -1.5797872802e+03 +2.8316364420e+03 3.4441808413e+03 0.0000000000e+00 0.0000e+00 1.0000e+00
       13  1    1    2    0    0 -1.1612445383e+03 +1.5797872802e+03 +1.9948624642e+02 1.9707895603e+03 0.0000000000e+00 0.0000e+00 -1.0000e+00
<mgrwt>
<rscale>  0 0.44871149E+04</rscale>
<asrwt>0</asrwt>
<pdfrwt beam="1">  1        2 0.64969946E+00 0.44871149E+04</pdfrwt>
<pdfrwt beam="2">  1       -2 0.18337290E+00 0.44871149E+04</pdfrwt>
<totfact> 0.29076907E-02</totfact>
</mgrwt>
<rwgt>
<wgt id='morphing_basis_vector_1'> +2.9346767e-05 </wgt>
<wgt id='morphing_basis_vector_2'> +2.9919488e-05 </wgt>
<wgt id='morphing_basis_vector_3'> +3.4559909e-05 </wgt>
<wgt id='morphing_basis_vector_4'> +1.0370521e-05 </wgt>
<wgt id='morphing_basis_vector_5'> +3.0750576e-05 </wgt>
</rwgt>
</event>
<event>
 4      1 +4.5322000e-10 3.98117600e+03 7.81860800e-03 7.54409700e-02
        2 -1    0    0  501    0 +0.0000000000e+00 +0.0000000000e+00 +3.1838178261e+03 3.1838178261e+03 0.0000000000e+00 0.0000e+00 -1.0000e+00
       -2 -1    0    0    0  501 -0.0000000000e+00 -0.0000000000e+00 -1.2445564435e+03 1.2445564435e+03 0.0000000000e+00 0.0000e+00 1.0000e+00
      -13  1    1    2    0    0 -8.2481504795e+02 +1.0024545529e+03 -7.0891852108e+02 1.4791215175e+03 0.0000000000e+00 0.0000e+00 1.0000e+00
       13  1    1    2    0    0 +8.2481504795e+02 -1.0024545529e+03 +2.6481799036e+03 2.9492527521e+03 0.0000000000e+00 0.0000e+00 -1.0000e+00
<mgrwt>
<rscale>  0 0.39811762E+04</rscale>
<asrwt>0</asrwt>
<pdfrwt beam="1">  1        2 0.48981812E+00 0.39811762E+04</pdfrwt>
<pdfrwt beam="2">  1       -2 0.19147022E+00 0.39811762E+04</pdfrwt>
<totfact> 0.17197151E-01</totfact>
</mgrwt>
<rwgt>
<wgt id='morphing_basis_vector_1'> +1.5486278e-05 </wgt>
<wgt id='morphing_basis_vector_2'> +1.0518662e-05 </wgt>
<wgt id='morphing_basis_vector_3'> +1.7004127e-05 </wgt>
<wgt id='morphing_basis_vector_4'> +1.2207777e-05 </wgt>
<wgt id='morphing_basis_vector_5'> +1.9499813e-05 </wgt>
</rwgt>
</event>
<event>
 4      1 +4.5322000e-10 3.94925500e+03 7.81860800e-03 7.54985800e-02
        2 -1    0    0  501    0 +0.0000000000e+00 +0.0000000000e+00 +3.5180286632e+03 3.5180286632e+03 0.0000000000e+00 0.0000e+00 1.0000e+00
       -2 -1    0    0    0  501 -0.0000000000e+00 -0.0000000000e+00 -1.1083350175e+03 1.1083350175e+03 0.0000000000e+00 0.0000e+00 -1.0000e+00
      -13  1    1    2    0    0 -5.9791377704e+02 -1.2720229747e+03 +2.8295842653e+03 3.1594446422e+03 0.0000000000e+00 0.0000e+00 1.0000e+00
       13  1    1    2    0    0 +5.9791377704e+02 +1.2720229747e+03 -4.1989061954e+02 1.4669190385e+03 0.0000000000e+00 0.0000e+00 -1.0000e+00
<mgrwt>
<rscale>  0 0.39492553E+04</rscale>
<asrwt>0</asrwt>
<pdfrwt beam="1">  1        2 0.54123517E+00 0.39492553E+04</pdfrwt>
<pdfrwt beam="2">  1       -2 0.17051308E+00 0.39492553E+04</pdfrwt>
<totfact> 0.14449442E-01</totfact>
</mgrwt>
<rwgt>
<wgt id='morphing_basis_vector_1'> +1.9336855e-05 </wgt>
<wgt id='morphing_basis_vector_2'> +2.2940198e-05 </wgt>
<wgt id='morphing_basis_vector_3'> +2.3421254e-05 </wgt>
<wgt id='morphing_basis_vector_4'> +2.6464295e-06 </wgt>
<wgt id='morphing_basis_vector_5'> +1.8114973e-05 </wgt>
</rwgt>
</event>
<event>
 4      1 +4.5322000e-10 3.89399800e+03 7.81860800e-03 7.55996200e-02
        2 -1    0    0  501    0 +0.0000000000e+00 +0.0000000000e+00 +3.6424041179e+03 3.6424041179e+03 0.0000000000e+00 0.0000e+00 -1.0000e+00
       -2 -1    0    0    0  501 -0.0000000000e+00 -0.0000000000e+00 -1.0407428523e+03 1.0407428523e+03 0.0000000000e+00 0.0000e+00 1.0000e+00
      -13  1    1    2    0    0 -4.3385630526e+02 +1.7281472563e+03 +3.5685408455e+02 1.8171596162e+03 0.0000000000e+00 0.0000e+00 1.0000e+00
       13  1    1    2    0    0 +4.3385630526e+02 -1.7281472563e+03 +2.2448071810e+03 2.8659873539e+03 0.0000000000e+00 0.0000e+00 -1.0000e+00
<mgrwt>
<rscale>  0 0.38939985E+04</rscale>
<asrwt>0</asrwt>
<pdfrwt beam="1">  1        2 0.56036985E+00 0.38939985E+04</pdfrwt>
<pdfrwt beam="2">  1       -2 0.16011429E+00 0.38939985E+04</pdfrwt>
<totfact> 0.14137623E-01</totfact>
</mgrwt>
<rwgt>
<wgt id='morphing_basis_vector_1'> +1.4272085e-05 </wgt>
<wgt id='morphing_basis_vector_2'> +9.8985316e-06 </wgt>
<wgt id='morphing_basis_vector_3'> +1.5710306e-05 </wgt>
<wgt id='morphing_basis_vector_4'> +1.0974416e-05 </wgt>
<wgt id='morphing_basis_vector_5'> +1.7822889e-05 </wgt>
</rwgt>
</event>
<event>
 4      1 +4.5322000e-10 4.54849100e+03 7.81860800e-03 7.45001900e-02
        2 -1    0    0  501    0 +0.0000000000e+00 +0.0000000000e+00 +1.7106010808e+03 1.7106010808e+03 0.0000000000e+00 0.0000e+00 -1.0000e+00
       -2 -1    0    0    0  501 -0.0000000000e+00 -0.0000000000e+00 -3.0236107691e+03 3.0236107691e+03 0.0000000000e+00 0.0000e+00 1.0000e+00
      -13  1    1    2    0    0 -1.2053923952e+03 -1.3230023539e+03 -2.1169681254e+03 2.7721580220e+03 0.0000000000e+00 0.0000e+00 1.0000e+00
       13  1    1    2    0    0 +1.2053923952e+03 +1.3230023539e+03 +8.0395843706e+02 1.9620538279e+03 0.0000000000e+00 0.0000e+00 -1.0000e+00
<mgrwt>
<rscale>  0 0.45484907E+04</rscale>
<asrwt>0</asrwt>
<pdfrwt beam="1">  1        2 0.26316940E+00 0.45484907E+04</pdfrwt>
<pdfrwt beam="2">  1       -2 0.46517089E+00 0.45484907E+04</pdfrwt>
<totfact> 0.17593827E-02</totfact>
</mgrwt>
<rwgt>
<wgt id='morphing_basis_vector_1'> +2.6361619e-05 </wgt>
<wgt id='morphing_basis_vector_2'> +1.8021044e-05 </wgt>
<wgt id='morphing_basis_vector_3'> +2.9031368e-05 </wgt>
<wgt id='morphing_basis_vector_4'> +2.0763297e-05 </wgt>
<wgt id='morphing_basis_vector_5'> +3.3295044e-05 </wgt>
</rwgt>
</event>
<event>
 4      1 +4.5322000e-10 4.58898400e+03 7.81860800e-03 7.44384200e-02
        2 -1    0    0  501    0 +0.0000000000e+00 +0.0000000000e+00 +2.8509156862e+03 2.8509156862e+03 0.0000000000e+00 0.0000e+00 -1.0000e+00
       -2 -1    0    0    0  501 -0.0000000000e+00 -0.0000000000e+00 -1.8466672180e+03 1.8466672180e+03 0.0000000000e+00 0.0000e+00 1.0000e+00
      -13  1    1    2    0    0 +6.1895646006e+02 +2.0864048679e+03 -2.4206008631e+02 2.1896998556e+03 0.0000000000e+00 0.0000e+00 1.0000e+00
       13  1    1    2    0    0 -6.1895646006e+02 -2.0864048679e+03 +1.2463085545e+03 2.5078830486e+03 0.0000000000e+00 0.0000e+00 -1.0000e+00
<mgrwt>
<rscale>  0 0.45889836E+04</rscale>
<asrwt>0</asrwt>
<pdfrwt beam="1">  1        2 0.43860241E+00 0.45889836E+04</pdfrwt>
<pdfrwt beam="2">  1       -2 0.28410265E+00 0.45889836E+04</pdfrwt>
<totfact> 0.60582152E-02</totfact>
</mgrwt>
<rwgt>
<wgt id='morphing_basis_vector_1'> +2.7538044e-05 </wgt>
<wgt id='morphing_basis_vector_2'> +1.9342720e-05 </wgt>
<wgt id='morphing_basis_vector_3'> +3.0448852e-05 </wgt>
<wgt id='morphing_basis_vector_4'> +2.1028933e-05 </wgt>
<wgt id='morphing_basis_vector_5'> +3.4460552e-05 </wgt>
</rwgt>
</event>
<event>
 4      1 +4.5322000e-10 3.88080000e+03 7.81860800e-03 7.56240100e-02
        2 -1    0    0  501    0 +0.0000000000e+00 +0.0000000000e+00 +2.8540665316e+03 2.8540665316e+03 0.0000000000e+00 0.0000e+00 1.0000e+00
       -2 -1    0    0    0  501 -0.0000000000e+00 -0.0000000000e+00 -1.3192238342e+03 1.3192238342e+03 0.0000000000e+00 0.0000e+00 -1.0000e+00
      -13  1    1    2    0    0 +7.2399387535e+02 -1.2251959997e+03 -6.5103832031e+02 1.5649674960e+03 0.0000000000e+00 0.0000e+00 -1.0000e+00
       13  1    1    2    0    0 -7.2399387535e+02 +1.2251959997e+03 +2.1858810177e+03 2.6083228697e+03 0.0000000000e+00 0.0000e+00 1.0000e+00
<mgrwt>
<rscale>  0 0.38808002E+04</rscale>
<asrwt>0</asrwt>
<pdfrwt beam="1">  1        2 0.43908716E+00 0.38808002E+04</pdfrwt>
<pdfrwt beam="2">  1       -2 0.20295751E+00 0.38808002E+04</pdfrwt>
<totfact> 0.23476989E-01</totfact>
</mgrwt>
<rwgt>
<wgt id='morphing_basis_vector_1'> +1.4000014e-05 </wgt>
<wgt id='morphing_basis_vector_2'> +9.5283778e-06 </wgt>
<wgt id='morphing_basis_vector_3'> +1.5369388e-05 </wgt>
<wgt id='morphing_basis_vector_4'> +1.0995892e-05 </wgt>
<wgt id='morphing_basis_vector_5'> +1.7595397e-05 </wgt>
</rwgt>
</event>
<event>
 4      1 +4.5322000e-10 3.98787800e+03 7.81860800e-03 7.54289500e-02
        2 -1    0    0  501    0 +0.0000000000e+00 +0.0000000000e+00 +3.1773295071e+03 3.1773295071e+03 0.0000000000e+00 0.0000e+00 -1.0000e+00
       -2 -1    0    0    0  501 -0.0000000000e+00 -0.0000000000e+00 -1.2513000936e+03 1.2513000936e+03 0.0000000000e+00 0.0000e+00 1.0000e+00
      -13  1    1    2    0    0 +9.9171391960e+02 -1.3869272487e+03 +2.1110660132e+03 2.7136070835e+03 0.0000000000e+00 0.0000e+00 1.0000e+00
       13  1    1    2    0    0 -9.9171391960e+02 +1.3869272487e+03 -1.8503659962e+02 1.7150225173e+03 0.0000000000e+00 0.0000e+00 -1.0000e+00
<mgrwt>
<rscale>  0 0.39878780E+04</rscale>
<asrwt>0</asrwt>
<pdfrwt beam="1">  1        2 0.48881992E+00 0.39878780E+04</pdfrwt>
<pdfrwt beam="2">  1       -2 0.19250771E+00 0.39878780E+04</pdfrwt>
<totfact> 0.17057347E-01</totfact>
</mgrwt>
<rwgt>
<wgt id='morphing_basis_vector_1'> +1.8597759e-05 </wgt>
<wgt id='morphing_basis_vector_2'> +1.9429779e-05 </wgt>
<wgt id='morphing_basis_vector_3'> +2.1943370e-05 </wgt>
<wgt id='morphing_basis_vector_4'> +5.9299254e-06 </wgt>
<wgt id='morphing_basis_vector_5'> +1.9102238e-05 </wgt>
</rwgt>
</event>
<event>
 4      1 +4.5322000e-10 3.91391100e+03 7.81860800e-03 7.55630100e-02
        2 -1    0    0  501    0 +0.0000000000e+00 +0.0000000000e+00 +1.6152983037e+03 1.6152983037e+03 0.0000000000e+00 0.0000e+00 -1.0000e+00
       -2 -1    0    0    0  501 -0.0000000000e+00 -0.0000000000e+00 -2.3708778167e+03 2.3708778167e+03 0.0000000000e+00 0.0000e+00 1.0000e+00
      -13  1    1    2    0    0 +7.8406369129e+02 -1.7796985872e+03 -5.9997357660e+02 2.0352029938e+03 0.0000000000e+00 0.0000e+00 1.0000e+00
       13  1    1    2    0    0 -7.8406369129e+02 +1.7796985872e+03 -1.5560593639e+02 1.9509731266e+03 0.0000000000e+00 0.0000e+00 -1.0000e+00
<mgrwt>
<rscale>  0 0.39139110E+04</rscale>
<asrwt>0</asrwt>
<pdfrwt beam="1">  1        2 0.24850743E+00 0.39139110E+04</pdfrwt>
<pdfrwt beam="2">  1       -2 0.36475043E+00 0.39139110E+04</pdfrwt>
<totfact> 0.97916825E-02</totfact>
</mgrwt>
<rwgt>
<wgt id='morphing_basis_vector_1'> +1.4812402e-05 </wgt>
<wgt id='morphing_basis_vector_2'> +1.0830373e-05 </wgt>
<wgt id='morphing_basis_vector_3'> +1.6430976e-05 </wgt>
<wgt id='morphing_basis_vector_4'> +1.0678236e-05 </wgt>
<wgt id='morphing_basis_vector_5'> +1.8148602e-05 </wgt>
</rwgt>
</event>
<event>
 4      1 +4.5322000e-10 4.20393100e+03 7.81860800e-03 7.50536900e-02
        2 -1    0    0  501    0 +0.0000000000e+00 +0.0000000000e+00 +1.4433779190e+03 1.4433779190e+03 0.0000000000e+00 0.0000e+00 -1.0000e+00
       -2 -1    0    0    0  501 -0.0000000000e+00 -0.0000000000e+00 -3.0610552651e+03 3.0610552651e+03 0.0000000000e+00 0.0000e+00 1.0000e+00
      -13  1    1    2    0    0 +6.4168458957e+02 -9.6443020639e+02 -2.6881735148e+03 2.9271422209e+03 0.0000000000e+00 0.0000e+00 1.0000e+00
       13  1    1    2    0    0 -6.4168458957e+02 +9.6443020639e+02 +1.0704961687e+03 1.5772909632e+03 0.0000000000e+00 0.0000e+00 -1.0000e+00
<mgrwt>
<rscale>  0 0.42039313E+04</rscale>
<asrwt>0</asrwt>
<pdfrwt beam="1">  1        2 0.22205814E+00 0.42039313E+04</pdfrwt>
<pdfrwt beam="2">  1       -2 0.47093158E+00 0.42039313E+04</pdfrwt>
<totfact> 0.23141302E-02</totfact>
</mgrwt>
<rwgt>
<wgt id='morphing_basis_vector_1'> +1.9225139e-05 </wgt>
<wgt id='morphing_basis_vector_2'> +1.3047517e-05 </wgt>
<wgt id='morphing_basis_vector_3'> +2.1126196e-05 </wgt>
<wgt id='morphing_basis_vector_4'> +1.5211172e-05 </wgt>
<wgt id='morphing_basis_vector_5'> +2.4270732e-05 </wgt>
</rwgt>
</event>
<event>
 4      1 +4.5322000e-10 3.97320200e+03 7.81860800e-03 7.54553100e-02
        2 -1    0    0  501    0 +0.0000000000e+00 +0.0000000000e+00 +4.2272300081e+03 4.2272300081e+03 0.0000000000e+00 0.0000e+00 -1.0000e+00
       -2 -1    0    0    0  501 -0.0000000000e+00 -0.0000000000e+00 -9.3360991376e+02 9.3360991376e+02 0.0000000000e+00 0.0000e+00 1.0000e+00
      -13  1    1    2    0    0 +9.7390578652e+02 +1.9812459393e+02 -5.8748395823e+02 1.1545056245e+03 0.0000000000e+00 0.0000e+00 1.0000e+00
       13  1    1    2    0    0 -9.7390578652e+02 -1.9812459393e+02 +3.8811040526e+03 4.0063342974e+03 0.0000000000e+00 0.0000e+00 -1.0000e+00
<mgrwt>
<rscale>  0 0.39732022E+04</rscale>
<asrwt>0</asrwt>
<pdfrwt beam="1">  1        2 0.65034307E+00 0.39732022E+04</pdfrwt>
<pdfrwt beam="2">  1       -2 0.14363230E+00 0.39732022E+04</pdfrwt>
<totfact> 0.62236475E-02</totfact>
</mgrwt>
<rwgt>
<wgt id='morphing_basis_vector_1'> +1.5354612e-05 </wgt>
<wgt id='morphing_basis_vector_2'> +1.0409519e-05 </wgt>
<wgt id='morphing_basis_vector_3'> +1.6854548e-05 </wgt>
<wgt id='morphing_basis_vector_4'> +1.2127986e-05 </wgt>
<wgt id='morphing_basis_vector_5'> +1.9344791e-05 </wgt>
</rwgt>
</event>
<event>
 4      1 +4.5322000e-10 3.86389100e+03 7.81860800e-03 7.56554000e-02
        2 -1    0    0  501    0 +0.0000000000e+00 +0.0000000000e+00 +2.5935749218e+03 2.5935749218e+03 0.0000000000e+00 0.0000e+00 -1.0000e+00
       -2 -1    0    0    0  501 -0.0000000000e+00 -0.0000000000e+00 -1.4390999092e+03 1.4390999092e+03 0.0000000000e+00 0.0000e+00 1.0000e+00
      -13  1    1    2    0    0 -1.0411060749e+03 -3.1418297188e+02 -1.0893243958e+03 1.5392337179e+03 0.0000000000e+00 0.0000e+00 1.0000e+00
       13  1    1    2    0    0 +1.0411060749e+03 +3.1418297188e+02 +2.2437994084e+03 2.4934411131e+03 0.0000000000e+00 0.0000e+00 -1.0000e+00
<mgrwt>
<rscale>  0 0.38638910E+04</rscale>
<asrwt>0</asrwt>
<pdfrwt beam="1">  1        2 0.39901153E+00 0.38638910E+04</pdfrwt>
<pdfrwt beam="2">  1       -2 0.22139999E+00 0.38638910E+04</pdfrwt>
<totfact> 0.25142818E-01</totfact>
</mgrwt>
<rwgt>
<wgt id='morphing_basis_vector_1'> +1.3743670e-05 </wgt>
<wgt id='morphing_basis_vector_2'> +9.3189261e-06 </wgt>
<wgt id='morphing_basis_vector_3'> +1.5078951e-05 </wgt>
<wgt id='morphing_basis_vector_4'> +1.0836728e-05 </wgt>
<wgt id='morphing_basis_vector_5'> +1.7291812e-05 </wgt>
</rwgt>
</event>
<event>
 4      1 +4.5322000e-10 4.22951100e+03 7.81860800e-03 7.50107800e-02
        2 -1    0    0  501    0 +0.0000000000e+00 +0.0000000000e+00 +4.2091107822e+03 4.2091107822e+03 0.0000000000e+00 0.0000e+00 -1.0000e+00
       -2 -1    0    0    0  501 -0.0000000000e+00 -0.0000000000e+00 -1.0625025613e+03 1.0625025613e+03 0.0000000000e+00 0.0000e+00 1.0000e+00
      -13  1    1    2    0    0 -3.6674494451e+02 +7.6042002378e+02 -8.4335597164e+02 1.1933104214e+03 0.0000000000e+00 0.0000e+00 1.0000e+00
       13  1    1    2    0    0 +3.6674494451e+02 -7.6042002378e+02 +3.9899641925e+03 4.0783029221e+03 0.0000000000e+00 0.0000e+00 -1.0000e+00
<mgrwt>
<rscale>  0 0.42295111E+04</rscale>
<asrwt>0</asrwt>
<pdfrwt beam="1">  1        2 0.64755550E+00 0.42295111E+04</pdfrwt>
<pdfrwt beam="2">  1       -2 0.16346193E+00 0.42295111E+04</pdfrwt>
<totfact> 0.43580767E-02</totfact>
</mgrwt>
<rwgt>
<wgt id='morphing_basis_vector_1'> +1.9690109e-05 </wgt>
<wgt id='morphing_basis_vector_2'> +1.3352612e-05 </wgt>
<wgt id='morphing_basis_vector_3'> +2.1636834e-05 </wgt>
<wgt id='morphing_basis_vector_4'> +1.5597102e-05 </wgt>
<wgt id='morphing_basis_vector_5'> +2.4870453e-05 </wgt>
</rwgt>
</event>
<event>
 4      1 +4.5322000e-10 4.00024500e+03 7.81860800e-03 7.54068200e-02
        2 -1    0    0  501    0 +0.0000000000e+00 +0.0000000000e+00 +2.9824608869e+03 2.9824608869e+03 0.0000000000e+00 0.0000e+00 1.0000e+00
       -2 -1    0    0    0  501 -0.0000000000e+00 -0.0000000000e+00 -1.3413386181e+03 1.3413386181e+03 0.0000000000e+00 0.0000e+00 -1.0000e+00
      -13  1    1    2    0    0 +5.3307693232e+01 +1.0982650159e+03 -9.8534359574e+02 1.4764585185e+03 0.0000000000e+00 0.0000e+00 -1.0000e+00
       13  1    1    2    0    0 -5.3307693232e+01 -1.0982650159e+03 +2.6264658645e+03 2.8473409864e+03 0.0000000000e+00 0.0000e+00 1.0000e+00
<mgrwt>
<rscale>  0 0.40002450E+04</rscale>
<asrwt>0</asrwt>
<pdfrwt beam="1">  1        2 0.45884014E+00 0.40002450E+04</pdfrwt>
<pdfrwt beam="2">  1       -2 0.20635979E+00 0.40002450E+04</pdfrwt>
<totfact> 0.18171787E-01</totfact>
</mgrwt>
<rwgt>
<wgt id='morphing_basis_vector_1'> +1.5776576e-05 </wgt>
<wgt id='morphing_basis_vector_2'> +1.0700680e-05 </wgt>
<wgt id='morphing_basis_vector_3'> +1.7320930e-05 </wgt>
<wgt id='morphing_basis_vector_4'> +1.2459289e-05 </wgt>
<wgt id='morphing_basis_vector_5'> +1.9879227e-05 </wgt>
</rwgt>
</event>
<event>
 4      1 +4.5322000e-10 3.90282800e+03 7.81860800e-03 7.55833600e-02
        2 -1    0    0  501    0 +0.0000000000e+00 +0.0000000000e+00 +3.7851912067e+03 3.7851912067e+03 0.0000000000e+00 0.0000e+00 -1.0000e+00
       -2 -1    0    0    0  501 -0.0000000000e+00 -0.0000000000e+00 -1.0060304144e+03 1.0060304144e+03 0.0000000000e+00 0.0000e+00 1.0000e+00
      -13  1    1    2    0    0 +1.7005173976e+03 -8.6531005926e+02 +8.8715712831e+02 2.1041788633e+03 0.0000000000e+00 0.0000e+00 1.0000e+00
       13  1    1    2    0    0 -1.7005173976e+03 +8.6531005926e+02 +1.8920036640e+03 2.6870427579e+03 0.0000000000e+00 0.0000e+00 -1.0000e+00
<mgrwt>
<rscale>  0 0.39028285E+04</rscale>
<asrwt>0</asrwt>
<pdfrwt beam="1">  1        2 0.58233710E+00 0.39028285E+04</pdfrwt>
<pdfrwt beam="2">  1       -2 0.15477391E+00 0.39028285E+04</pdfrwt>
<totfact> 0.12082086E-01</totfact>
</mgrwt>
<rwgt>
<wgt id='morphing_basis_vector_1'> +1.4535647e-05 </wgt>
<wgt id='morphing_basis_vector_2'> +1.0383438e-05 </wgt>
<wgt id='morphing_basis_vector_3'> +1.6068507e-05 </wgt>
<wgt id='morphing_basis_vector_4'> +1.0790872e-05 </wgt>
<wgt id='morphing_basis_vector_5'> +1.7962315e-05 </wgt>
</rwgt>
</event>
<event>
 4      1 +4.5322000e-10 3.92108400e+03 7.81860800e-03 7.55498800e-02
        2 -1    0    0  501    0 +0.0000000000e+00 +0.0000000000e+00 +3.6152859683e+03 3.6152859683e+03 0.0000000000e+00 0.0000e+00 1.0000e+00
       -2 -1    0    0    0  501 -0.0000000000e+00 -0.0000000000e+00 -1.0631870669e+03 1.0631870669e+03 0.0000000000e+00 0.0000e+00 -1.0000e+00
      -13  1    1    2    0    0 -1.1066559242e+03 +5.2380774658e+02 -5.5094915685e+02 1.3426119556e+03 0.0000000000e+00 0.0000e+00 -1.0000e+00
       13  1    1    2    0    0 +1.1066559242e+03 -5.2380774658e+02 +3.1030480583e+03 3.3358610795e+03 0.0000000000e+00 0.0000e+00 1.0000e+00
<mgrwt>
<rscale>  0 0.39210842E+04</rscale>
<asrwt>0</asrwt>
<pdfrwt beam="1">  1        2 0.55619784E+00 0.39210842E+04</pdfrwt>
<pdfrwt beam="2">  1       -2 0.16356724E+00 0.39210842E+04</pdfrwt>
<totfact> 0.13885112E-01</totfact>
</mgrwt>
<rwgt>
<wgt id='morphing_basis_vector_1'> +1.4574630e-05 </wgt>
<wgt id='morphing_basis_vector_2'> +9.8924323e-06 </wgt>
<wgt id='morphing_basis_vector_3'> +1.5997210e-05 </wgt>
<wgt id='morphing_basis_vector_4'> +1.1488549e-05 </wgt>
<wgt id='morphing_basis_vector_5'> +1.8343597e-05 </wgt>
</rwgt>
</event>
<event>
 4      1 +4.5322000e-10 3.87565300e+03 7.81860800e-03 7.56335500e-02
        2 -1    0    0  501    0 +0.0000000000e+00 +0.0000000000e+00 +1.5838379327e+03 1.5838379327e+03 0.0000000000e+00 0.0000e+00 -1.0000e+00
       -2 -1    0    0    0  501 -0.0000000000e+00 -0.0000000000e+00 -2.3709313545e+03 2.3709313545e+03 0.0000000000e+00 0.0000e+00 1.0000e+00
      -13  1    1    2    0    0 +1.1020592777e+03 +1.1137406813e+03 -1.5570949515e+03 2.2089584977e+03 0.0000000000e+00 0.0000e+00 1.0000e+00
       13  1    1    2    0    0 -1.1020592777e+03 -1.1137406813e+03 +7.7000152972e+02 1.7458107894e+03 0.0000000000e+00 0.0000e+00 -1.0000e+00
<mgrwt>
<rscale>  0 0.38756527E+04</rscale>
<asrwt>0</asrwt>
<pdfrwt beam="1">  1        2 0.24366738E+00 0.38756527E+04</pdfrwt>
<pdfrwt beam="2">  1       -2 0.36475867E+00 0.38756527E+04</pdfrwt>
<totfact> 0.10224499E-01</totfact>
</mgrwt>
<rwgt>
<wgt id='morphing_basis_vector_1'> +1.3943571e-05 </wgt>
<wgt id='morphing_basis_vector_2'> +9.5288514e-06 </wgt>
<wgt id='morphing_basis_vector_3'> +1.5315711e-05 </wgt>
<wgt id='morphing_basis_vector_4'> +1.0900855e-05 </wgt>
<wgt id='morphing_basis_vector_5'> +1.7498699e-05 </wgt>
</rwgt>
</event>
<event>
 4      1 +4.5322000e-10 4.10113900e+03 7.81860800e-03 7.52292900e-02
        2 -1    0    0  501    0 +0.0000000000e+00 +0.0000000000e+00 +2.4696495831e+03 2.4696495831e+03 0.0000000000e+00 0.0000e+00 -1.0000e+00
       -2 -1    0    0    0  501 -0.0000000000e+00 -0.0000000000e+00 -1.7026043606e+03 1.7026043606e+03 0.0000000000e+00 0.0000e+00 1.0000e+00
      -13  1    1    2    0    0 +8.1774839600e+02 -3.5774184279e+01 -1.5291970436e+03 1.7344843123e+03 0.0000000000e+00 0.0000e+00 1.0000e+00
       13  1    1    2    0    0 -8.1774839600e+02 +3.5774184279e+01 +2.2962422660e+03 2.4377696314e+03 0.0000000000e+00 0.0000e+00 -1.0000e+00
<mgrwt>
<rscale>  0 0.41011394E+04</rscale>
<asrwt>0</asrwt>
<pdfrwt beam="1">  1        2 0.37994609E+00 0.41011394E+04</pdfrwt>
<pdfrwt beam="2">  1       -2 0.26193913E+00 0.41011394E+04</pdfrwt>
<totfact> 0.15286144E-01</totfact>
</mgrwt>
<rwgt>
<wgt id='morphing_basis_vector_1'> +1.7416420e-05 </wgt>
<wgt id='morphing_basis_vector_2'> +1.1806572e-05 </wgt>
<wgt id='morphing_basis_vector_3'> +1.9127952e-05 </wgt>
<wgt id='morphing_basis_vector_4'> +1.3780408e-05 </wgt>
<wgt id='morphing_basis_vector_5'> +2.1973339e-05 </wgt>
</rwgt>
</event>
<event>
 4      1 +4.5322000e-10 3.91824200e+03 7.81860800e-03 7.55550800e-02
        2 -1    0    0  501    0 +0.0000000000e+00 +0.0000000000e+00 +2.5666883541e+03 2.5666883541e+03 0.0000000000e+00 0.0000e+00 1.0000e+00
       -2 -1    0    0    0  501 -0.0000000000e+00 -0.0000000000e+00 -1.4953723577e+03 1.4953723577e+03 0.0000000000e+00 0.0000e+00 -1.0000e+00
      -13  1    1    2    0    0 +8.3036513136e+02 +1.4495269370e+03 -5.2539329328e+02 1.7511917956e+03 0.0000000000e+00 0.0000e+00 -1.0000e+00
       13  1    1    2    0    0 -8.3036513136e+02 -1.4495269370e+03 +1.5967092897e+03 2.3108689163e+03 0.0000000000e+00 0.0000e+00 1.0000e+00
<mgrwt>
<rscale>  0 0.39182419E+04</rscale>
<asrwt>0</asrwt>
<pdfrwt beam="1">  1        2 0.39487513E+00 0.39182419E+04</pdfrwt>
<pdfrwt beam="2">  1       -2 0.23005729E+00 0.39182419E+04</pdfrwt>
<totfact> 0.22577405E-01</totfact>
</mgrwt>
<rwgt>
<wgt id='morphing_basis_vector_1'> +1.4581418e-05 </wgt>
<wgt id='morphing_basis_vector_2'> +1.0007231e-05 </wgt>
<wgt id='morphing_basis_vector_3'> +1.6029051e-05 </wgt>
<wgt id='morphing_basis_vector_4'> +1.1352020e-05 </wgt>
<wgt id='morphing_basis_vector_5'> +1.8281610e-05 </wgt>
</rwgt>
</event>
<event>
 4      1 +4.5322000e-10 4.22915500e+03 7.81860800e-03 7.50113700e-02
        2 -1    0    0  501    0 +0.0000000000e+00 +0.0000000000e+00 +3.0482491019e+03 3.0482491019e+03 0.0000000000e+00 0.0000e+00 -1.0000e+00
       -2 -1    0    0    0  501 -0.0000000000e+00 -0.0000000000e+00 -1.4668872595e+03 1.4668872595e+03 0.0000000000e+00 0.0000e+00 1.0000e+00
      -13  1    1    2    0    0 +9.2834687569e+02 -4.1333913718e+02 -1.1891050900e+03 1.5641764859e+03 0.0000000000e+00 0.0000e+00 1.0000e+00
       13  1    1    2    0    0 -9.2834687569e+02 +4.1333913718e+02 +2.7704669323e+03 2.9509598755e+03 0.0000000000e+00 0.0000e+00 -1.0000e+00
<mgrwt>
<rscale>  0 0.42291549E+04</rscale>
<asrwt>0</asrwt>
<pdfrwt beam="1">  1        2 0.46896140E+00 0.42291549E+04</pdfrwt>
<pdfrwt beam="2">  1       -2 0.22567496E+00 0.42291549E+04</pdfrwt>
<totfact> 0.11764822E-01</totfact>
</mgrwt>
<rwgt>
<wgt id='morphing_basis_vector_1'> +1.9685449e-05 </wgt>
<wgt id='morphing_basis_vector_2'> +1.3353826e-05 </wgt>
<wgt id='morphing_basis_vector_3'> +2.1632673e-05 </wgt>
<wgt id='morphing_basis_vector_4'> +1.5587712e-05 </wgt>
<wgt id='morphing_basis_vector_5'> +2.4861696e-05 </wgt>
</rwgt>
</event>
<event>
 4      1 +4.5322000e-10 4.08702400e+03 7.81860800e-03 7.52538100e-02
        2 -1    0    0  501    0 +0.0000000000e+00 +0.0000000000e+00 +2.9885581273e+03 2.9885581273e+03 0.0000000000e+00 0.0000e+00 1.0000e+00
       -2 -1    0    0    0  501 -0.0000000000e+00 -0.0000000000e+00 -1.3973096279e+03 1.3973096279e+03 0.0000000000e+00 0.0000e+00 -1.0000e+00
      -13  1    1    2    0    0 -1.9422988402e+03 -4.8616959957e+02 +3.5701418663e+02 2.0338005787e+03 0.0000000000e+00 0.0000e+00 -1.0000e+00
       13  1    1    2    0    0 +1.9422988402e+03 +4.8616959957e+02 +1.2342343128e+03 2.3520671766e+03 0.0000000000e+00 0.0000e+00 1.0000e+00
<mgrwt>
<rscale>  0 0.40870239E+04</rscale>
<asrwt>0</asrwt>
<pdfrwt beam="1">  1        2 0.45977817E+00 0.40870239E+04</pdfrwt>
<pdfrwt beam="2">  1       -2 0.21497071E+00 0.40870239E+04</pdfrwt>
<totfact> 0.15505097E-01</totfact>
</mgrwt>
<rwgt>
<wgt id='morphing_basis_vector_1'> +1.7474914e-05 </wgt>
<wgt id='morphing_basis_vector_2'> +1.2514780e-05 </wgt>
<wgt id='morphing_basis_vector_3'> +1.9341416e-05 </wgt>
<wgt id='morphing_basis_vector_4'> +1.2964418e-05 </wgt>
<wgt id='morphing_basis_vector_5'> +2.1618741e-05 </wgt>
</rwgt>
</event>
<event>
 4      1 +4.5322000e-10 3.96344000e+03 7.81860800e-03 7.54729100e-02
        2 -1    0    0  501    0 +0.0000000000e+00 +0.0000000000e+00 +1.6578142824e+03 1.6578142824e+03 0.0000000000e+00 0.0000e+00 1.0000e+00
       -2 -1    0    0    0  501 -0.0000000000e+00 -0.0000000000e+00 -2.3689110732e+03 2.3689110732e+03 0.0000000000e+00 0.0000e+00 -1.0000e+00
      -13  1    1    2    0    0 -3.1591077374e+02 -1.4721983457e+03 -1.6645491341e+03 2.2445247617e+03 0.0000000000e+00 0.0000e+00 -1.0000e+00
       13  1    1    2    0    0 +3.1591077374e+02 +1.4721983457e+03 +9.5345234329e+02 1.7822005939e+03 0.0000000000e+00 0.0000e+00 1.0000e+00
<mgrwt>
<rscale>  0 0.39634402E+04</rscale>
<asrwt>0</asrwt>
<pdfrwt beam="1">  1        2 0.25504835E+00 0.39634402E+04</pdfrwt>
<pdfrwt beam="2">  1       -2 0.36444786E+00 0.39634402E+04</pdfrwt>
<totfact> 0.92778063E-02</totfact>
</mgrwt>
<rwgt>
<wgt id='morphing_basis_vector_1'> +1.5229599e-05 </wgt>
<wgt id='morphing_basis_vector_2'> +1.0379981e-05 </wgt>
<wgt id='morphing_basis_vector_3'> +1.6728947e-05 </wgt>
<wgt id='morphing_basis_vector_4'> +1.1956734e-05 </wgt>
<wgt id='morphing_basis_vector_5'> +1.9150099e-05 </wgt>
</rwgt>
</event>
<event>
 4      1 +4.5322000e-10 3.85063800e+03 7.81860800e-03 7.56801200e-02
        2 -1    0    0  501    0 +0.0000000000e+00 +0.0000000000e+00 +2.5419048370e+03 2.5419048370e+03 0.0000000000e+00 0.0000e+00 -1.0000e+00
       -2 -1    0    0    0  501 -0.0000000000e+00 -0.0000000000e+00 -1.4582971440e+03 1.4582971440e+03 0.0000000000e+00 0.0000e+00 1.0000e+00
      -13  1    1    2    0    0 +7.4992195605e+02 -1.1559017132e+03 +1.9387890849e+03 2.3785278696e+03 0.0000000000e+00 0.0000e+00 -1.0000e+00
       13  1    1    2    0    0 -7.4992195605e+02 +1.1559017132e+03 -8.5518139185e+02 1.6216741115e+03 0.0000000000e+00 0.0000e+00 1.0000e+00
<mgrwt>
<rscale>  0 0.38506376E+04</rscale>
<asrwt>0</asrwt>
<pdfrwt beam="1">  1        2 0.39106228E+00 0.38506376E+04</pdfrwt>
<pdfrwt beam="2">  1       -2 0.22435341E+00 0.38506376E+04</pdfrwt>
<totfact> 0.25774066E-01</totfact>
</mgrwt>
<rwgt>
<wgt id='morphing_basis_vector_1'> +1.7459277e-05 </wgt>
<wgt id='morphing_basis_vector_2'> +2.0664276e-05 </wgt>
<wgt id='morphing_basis_vector_3'> +2.1118474e-05 </wgt>
<wgt id='morphing_basis_vector_4'> +2.4473495e-06 </wgt>
<wgt id='morphing_basis_vector_5'> +1.6368917e-05 </wgt>
</rwgt>
</event>
<event>
 4      1 +4.5322000e-10 4.03340500e+03 7.81860800e-03 7.53478900e-02
        2 -1    0    0  501    0 +0.0000000000e+00 +0.0000000000e+00 +3.9524385783e+03 3.9524385783e+03 0.0000000000e+00 0.0000e+00 -1.0000e+00
       -2 -1    0    0    0  501 -0.0000000000e+00 -0.0000000000e+00 -1.0290077457e+03 1.0290077457e+03 0.0000000000e+00 0.0000e+00 1.0000e+00
      -13  1    1    2    0    0 +7.8704252406e+02 +1.5736290388e+03 +2.4449152801e+02 1.7763784489e+03 0.0000000000e+00 0.0000e+00 1.0000e+00
       13  1    1    2    0    0 -7.8704252406e+02 -1.5736290388e+03 +2.6789393045e+03 3.2050678751e+03 0.0000000000e+00 0.0000e+00 -1.0000e+00
<mgrwt>
<rscale>  0 0.40334055E+04</rscale>
<asrwt>0</asrwt>
<pdfrwt beam="1">  1        2 0.60806747E+00 0.40334055E+04</pdfrwt>
<pdfrwt beam="2">  1       -2 0.15830889E+00 0.40334055E+04</pdfrwt>
<totfact> 0.81731350E-02</totfact>
</mgrwt>
<rwgt>
<wgt id='morphing_basis_vector_1'> +1.6375649e-05 </wgt>
<wgt id='morphing_basis_vector_2'> +1.1271241e-05 </wgt>
<wgt id='morphing_basis_vector_3'> +1.8018053e-05 </wgt>
<wgt id='morphing_basis_vector_4'> +1.2726983e-05 </wgt>
<wgt id='morphing_basis_vector_5'> +2.0537252e-05 </wgt>
</rwgt>
</event>
<event>
 4      1 +4.5322000e-10 4.11209900e+03 7.81860800e-03 7.52103200e-02
        2 -1    0    0  501    0 +0.0000000000e+00 +0.0000000000e+00 +1.9656183931e+03 1.9656183931e+03 0.0000000000e+00 0.0000e+00 -1.0000e+00
       -2 -1    0    0    0  501 -0.0000000000e+00 -0.0000000000e+00 -2.1506411304e+03 2.1506411304e+03 0.0000000000e+00 0.0000e+00 1.0000e+00
      -13  1    1    2    0    0 -4.2421030360e+02 +1.3235057665e+03 +1.4241842516e+03 1.9899554463e+03 0.0000000000e+00 0.0000e+00 1.0000e+00
       13  1    1    2    0    0 +4.2421030360e+02 -1.3235057665e+03 -1.6092069889e+03 2.1263040772e+03 0.0000000000e+00 0.0000e+00 -1.0000e+00
<mgrwt>
<rscale>  0 0.41120991E+04</rscale>
<asrwt>0</asrwt>
<pdfrwt beam="1">  1        2 0.30240283E+00 0.41120991E+04</pdfrwt>
<pdfrwt beam="2">  1       -2 0.33086786E+00 0.41120991E+04</pdfrwt>
<totfact> 0.10214475E-01</totfact>
</mgrwt>
<rwgt>
<wgt id='morphing_basis_vector_1'> +2.3003676e-05 </wgt>
<wgt id='morphing_basis_vector_2'> +2.7807171e-05 </wgt>
<wgt id='morphing_basis_vector_3'> +2.8014106e-05 </wgt>
<wgt id='morphing_basis_vector_4'> +2.4917611e-06 </wgt>
<wgt id='morphing_basis_vector_5'> +2.1256525e-05 </wgt>
</rwgt>
</event>
<event>
 4      1 +4.5322000e-10 3.94788900e+03 7.81860800e-03 7.55010600e-02
        2 -1    0    0  501    0 +0.0000000000e+00 +0.0000000000e+00 +4.0764885059e+03 4.0764885059e+03 0.0000000000e+00 0.0000e+00 1.0000e+00
       -2 -1    0    0    0  501 -0.0000000000e+00 -0.0000000000e+00 -9.5583672865e+02 9.5583672865e+02 0.0000000000e+00 0.0000e+00 -1.0000e+00
      -13  1    1    2    0    0 -1.9528819756e+03 -2.8040041937e+02 +1.4788551826e+03 2.4656409019e+03 0.0000000000e+00 0.0000e+00 -1.0000e+00
       13  1    1    2    0    0 +1.9528819756e+03 +2.8040041937e+02 +1.6417965946e+03 2.5666843327e+03 0.0000000000e+00 0.0000e+00 1.0000e+00
<mgrwt>
<rscale>  0 0.39478893E+04</rscale>
<asrwt>0</asrwt>
<pdfrwt beam="1">  1        2 0.62715207E+00 0.39478893E+04</pdfrwt>
<pdfrwt beam="2">  1       -2 0.14705181E+00 0.39478893E+04</pdfrwt>
<totfact> 0.79746666E-02</totfact>
</mgrwt>
<rwgt>
<wgt id='morphing_basis_vector_1'> +1.5455340e-05 </wgt>
<wgt id='morphing_basis_vector_2'> +1.1576809e-05 </wgt>
<wgt id='morphing_basis_vector_3'> +1.7208861e-05 </wgt>
<wgt id='morphing_basis_vector_4'> +1.0792308e-05 </wgt>
<wgt id='morphing_basis_vector_5'> +1.8768454e-05 </wgt>
</rwgt>
</event>
<event>
 4      1 +4.5322000e-10 4.23759700e+03 7.81860800e-03 7.49972800e-02
        2 -1    0    0  501    0 +0.0000000000e+00 +0.0000000000e+00 +2.7218161610e+03 2.7218161610e+03 0.0000000000e+00 0.0000e+00 1.0000e+00
       -2 -1    0    0    0  501 -0.0000000000e+00 -0.0000000000e+00 -1.6493794435e+03 1.6493794435e+03 0.0000000000e+00 0.0000e+00 -1.0000e+00
      -13  1    1    2    0    0 -1.8213827838e+03 +1.4286228614e+02 +1.6431110205e+03 2.4571647693e+03 0.0000000000e+00 0.0000e+00 1.0000e+00
       13  1    1    2    0    0 +1.8213827838e+03 -1.4286228614e+02 -5.7067430298e+02 1.9140308351e+03 0.0000000000e+00 0.0000e+00 -1.0000e+00
<mgrwt>
<rscale>  0 0.42375973E+04</rscale>
<asrwt>0</asrwt>
<pdfrwt beam="1">  1        2 0.41874095E+00 0.42375973E+04</pdfrwt>
<pdfrwt beam="2">  1       -2 0.25375068E+00 0.42375973E+04</pdfrwt>
<totfact> 0.12104572E-01</totfact>
</mgrwt>
<rwgt>
<wgt id='morphing_basis_vector_1'> +2.3565027e-05 </wgt>
<wgt id='morphing_basis_vector_2'> +2.4399793e-05 </wgt>
<wgt id='morphing_basis_vector_3'> +2.7799399e-05 </wgt>
<wgt id='morphing_basis_vector_4'> +7.8215149e-06 </wgt>
<wgt id='morphing_basis_vector_5'> +2.4402985e-05 </wgt>
</rwgt>
</event>
<event>
 4      1 +4.5322000e-10 4.42955300e+03 7.81860800e-03 7.46854800e-02
        2 -1    0    0  501    0 +0.0000000000e+00 +0.0000000000e+00 +2.7332164824e+03 2.7332164824e+03 0.0000000000e+00 0.0000e+00 -1.0000e+00
       -2 -1    0    0    0  501 -0.0000000000e+00 -0.0000000000e+00 -1.7946746039e+03 1.7946746039e+03 0.0000000000e+00 0.0000e+00 1.0000e+00
      -13  1    1    2    0    0 -7.1151973899e+02 -1.8187921407e+03 -5.9841201873e+02 2.0426360748e+03 0.0000000000e+00 0.0000e+00 1.0000e+00
       13  1    1    2    0    0 +7.1151973899e+02 +1.8187921407e+03 +1.5369538972e+03 2.4852550115e+03 0.0000000000e+00 0.0000e+00 -1.0000e+00
<mgrwt>
<rscale>  0 0.44295527E+04</rscale>
<asrwt>0</asrwt>
<pdfrwt beam="1">  1        2 0.42049485E+00 0.44295527E+04</pdfrwt>
<pdfrwt beam="2">  1       -2 0.27610378E+00 0.44295527E+04</pdfrwt>
<totfact> 0.82411319E-02</totfact>
</mgrwt>
<rwgt>
<wgt id='morphing_basis_vector_1'> +2.3789810e-05 </wgt>
<wgt id='morphing_basis_vector_2'> +1.6414249e-05 </wgt>
<wgt id='morphing_basis_vector_3'> +2.6223862e-05 </wgt>
<wgt id='morphing_basis_vector_4'> +1.8521194e-05 </wgt>
<wgt id='morphing_basis_vector_5'> +2.9922028e-05 </wgt>
</rwgt>
</event>
<event>
 4      1 +4.5322000e-10 4.37144900e+03 7.81860800e-03 7.47781400e-02
        2 -1    0    0  501    0 +0.0000000000e+00 +0.0000000000e+00 +2.4213270848e+03 2.4213270848e+03 0.0000000000e+00 0.0000e+00 1.0000e+00
       -2 -1    0    0    0  501 -0.0000000000e+00 -0.0000000000e+00 -1.9730471757e+03 1.9730471757e+03 0.0000000000e+00 0.0000e+00 -1.0000e+00
      -13  1    1    2    0    0 -1.1596980130e+03 -1.6932132510e+03 -5.3181570534e+02 2.1200704091e+03 0.0000000000e+00 0.0000e+00 -1.0000e+00
       13  1    1    2    0    0 +1.1596980130e+03 +1.6932132510e+03 +9.8009561448e+02 2.2743038514e+03 0.0000000000e+00 0.0000e+00 1.0000e+00
<mgrwt>
<rscale>  0 0.43714494E+04</rscale>
<asrwt>0</asrwt>
<pdfrwt beam="1">  1        2 0.37251186E+00 0.43714494E+04</pdfrwt>
<pdfrwt beam="2">  1       -2 0.30354572E+00 0.43714494E+04</pdfrwt>
<totfact> 0.83321252E-02</totfact>
</mgrwt>
<rwgt>
<wgt id='morphing_basis_vector_1'> +2.2667255e-05 </wgt>
<wgt id='morphing_basis_vector_2'> +1.5854098e-05 </wgt>
<wgt id='morphing_basis_vector_3'> +2.5030309e-05 </wgt>
<wgt id='morphing_basis_vector_4'> +1.7360357e-05 </wgt>
<wgt id='morphing_basis_vector_5'> +2.8359475e-05 </wgt>
</rwgt>
</event>
<event>
 4      1 +4.5322000e-10 3.88853900e+03 7.81860800e-03 7.56097000e-02
        2 -1    0    0  501    0 +0.0000000000e+00 +0.0000000000e+00 +6.7458110741e+02 6.7458110741e+02 0.0000000000e+00 0.0000e+00 -1.0000e+00
       -2 -1    0    0    0  501 -0.0000000000e+00 -0.0000000000e+00 -5.6037490880e+03 5.6037490880e+03 0.0000000000e+00 0.0000e+00 1.0000e+00
      -13  1    1    2    0    0 +1.3766614675e+03 +1.0612675991e+03 -3.8709296300e+03 4.2432984709e+03 0.0000000000e+00 0.0000e+00 1.0000e+00
       13  1    1    2    0    0 -1.3766614675e+03 -1.0612675991e+03 -1.0582383506e+03 2.0350317245e+03 0.0000000000e+00 0.0000e+00 -1.0000e+00
<mgrwt>
<rscale>  0 0.38885387E+04</rscale>
<asrwt>0</asrwt>
<pdfrwt beam="1">  1        2 0.10378171E+00 0.38885387E+04</pdfrwt>
<pdfrwt beam="2">  1       -2 0.86211521E+00 0.38885387E+04</pdfrwt>
<totfact> 0.19379398E-03</totfact>
</mgrwt>
<rwgt>
<wgt id='morphing_basis_vector_1'> +1.4172865e-05 </wgt>
<wgt id='morphing_basis_vector_2'> +9.7851245e-06 </wgt>
<wgt id='morphing_basis_vector_3'> +1.5590733e-05 </wgt>
<wgt id='morphing_basis_vector_4'> +1.0954462e-05 </wgt>
<wgt id='morphing_basis_vector_5'> +1.7726097e-05 </wgt>
</rwgt>
</event>
<event>
 4      1 +4.5322000e-10 4.00316500e+03 7.81860800e-03 7.54016100e-02
        2 -1    0    0  501    0 +0.0000000000e+00 +0.0000000000e+00 +2.0899112581e+03 2.0899112581e+03 0.0000000000e+00 0.0000e+00 1.0000e+00
       -2 -1    0    0    0  501 -0.0000000000e+00 -0.0000000000e+00 -1.9169868270e+03 1.9169868270e+03 0.0000000000e+00 0.0000e+00 -1.0000e+00
      -13  1    1    2    0    0 +1.4074279180e+03 +4.5329089539e+02 +1.4367964176e+03 2.0617249879e+03 0.0000000000e+00 0.0000e+00 -1.0000e+00
       13  1    1    2    0    0 -1.4074279180e+03 -4.5329089539e+02 -1.2638719865e+03 1.9451730973e+03 0.0000000000e+00 0.0000e+00 1.0000e+00
<mgrwt>
<rscale>  0 0.40031649E+04</rscale>
<asrwt>0</asrwt>
<pdfrwt beam="1">  1        2 0.32152481E+00 0.40031649E+04</pdfrwt>
<pdfrwt beam="2">  1       -2 0.29492105E+00 0.40031649E+04</pdfrwt>
<totfact> 0.15240132E-01</totfact>
</mgrwt>
<rwgt>
<wgt id='morphing_basis_vector_1'> +2.0180587e-05 </wgt>
<wgt id='morphing_basis_vector_2'> +2.3542032e-05 </wgt>
<wgt id='morphing_basis_vector_3'> +2.4364401e-05 </wgt>
<wgt id='morphing_basis_vector_4'> +3.2772343e-06 </wgt>
<wgt id='morphing_basis_vector_5'> +1.9169569e-05 </wgt>
</rwgt>
</event>
<event>
 4      1 +4.5322000e-10 4.11366500e+03 7.81860800e-03 7.52076100e-02
        2 -1    0    0  501    0 +0.0000000000e+00 +0.0000000000e+00 +2.3419745513e+03 2.3419745513e+03 0.0000000000e+00 0.0000e+00 -1.0000e+00
       -2 -1    0    0    0  501 -0.0000000000e+00 -0.0000000000e+00 -1.8064075634e+03 1.8064075634e+03 0.0000000000e+00 0.0000e+00 1.0000e+00
      -13  1    1    2    0    0 -1.7062885344e+02 +1.6994726026e+03 -8.8785425823e+02 1.9249951991e+03 0.0000000000e+00 0.0000e+00 1.0000e+00
       13  1    1    2    0    0 +1.7062885344e+02 -1.6994726026e+03 +1.4234212461e+03 2.2233869156e+03 0.0000000000e+00 0.0000e+00 -1.0000e+00
<mgrwt>
<rscale>  0 0.41136653E+04</rscale>
<asrwt>0</asrwt>
<pdfrwt beam="1">  1        2 0.36030378E+00 0.41136653E+04</pdfrwt>
<pdfrwt beam="2">  1       -2 0.27790886E+00 0.41136653E+04</pdfrwt>
<totfact> 0.14118475E-01</totfact>
</mgrwt>
<rwgt>
<wgt id='morphing_basis_vector_1'> +1.7685482e-05 </wgt>
<wgt id='morphing_basis_vector_2'> +1.2116818e-05 </wgt>
<wgt id='morphing_basis_vector_3'> +1.9453207e-05 </wgt>
<wgt id='morphing_basis_vector_4'> +1.3830984e-05 </wgt>
<wgt id='morphing_basis_vector_5'> +2.2234344e-05 </wgt>
</rwgt>
</event>
<event>
 4      1 +4.5322000e-10 3.99661700e+03 7.81860800e-03 7.54133000e-02
        2 -1    0    0  501    0 +0.0000000000e+00 +0.0000000000e+00 +2.0624945175e+03 2.0624945175e+03 0.0000000000e+00 0.0000e+00 -1.0000e+00
       -2 -1    0    0    0  501 -0.0000000000e+00 -0.0000000000e+00 -1.9361199912e+03 1.9361199912e+03 0.0000000000e+00 0.0000e+00 1.0000e+00
      -13  1    1    2    0    0 -4.9427708835e+02 +1.1476975975e+03 +1.6233630864e+03 2.0486159537e+03 0.0000000000e+00 0.0000e+00 1.0000e+00
       13  1    1    2    0    0 +4.9427708835e+02 -1.1476975975e+03 -1.4969885601e+03 1.9499985550e+03 0.0000000000e+00 0.0000e+00 -1.0000e+00
<mgrwt>
<rscale>  0 0.39966170E+04</rscale>
<asrwt>0</asrwt>
<pdfrwt beam="1">  1        2 0.31730685E+00 0.39966170E+04</pdfrwt>
<pdfrwt beam="2">  1       -2 0.29786461E+00 0.39966170E+04</pdfrwt>
<totfact> 0.15096361E-01</totfact>
</mgrwt>
<rwgt>
<wgt id='morphing_basis_vector_1'> +2.0834933e-05 </wgt>
<wgt id='morphing_basis_vector_2'> +2.5697611e-05 </wgt>
<wgt id='morphing_basis_vector_3'> +2.5464998e-05 </wgt>
<wgt id='morphing_basis_vector_4'> +1.5945533e-06 </wgt>
<wgt id='morphing_basis_vector_5'> +1.8905485e-05 </wgt>
</rwgt>
</event>
<event>
 4      1 +4.5322000e-10 3.92970600e+03 7.81860800e-03 7.55341300e-02
        2 -1    0    0  501    0 +0.0000000000e+00 +0.0000000000e+00 +3.2539366766e+03 3.2539366766e+03 0.0000000000e+00 0.0000e+00 -1.0000e+00
       -2 -1    0    0    0  501 -0.0000000000e+00 -0.0000000000e+00 -1.1864542054e+03 1.1864542054e+03 0.0000000000e+00 0.0000e+00 1.0000e+00
      -13  1    1    2    0    0 -1.6747594626e+03 -4.4565284050e+02 -1.2441634692e+01 1.7330841025e+03 0.0000000000e+00 0.0000e+00 1.0000e+00
       13  1    1    2    0    0 +1.6747594626e+03 +4.4565284050e+02 +2.0799241060e+03 2.7073067795e+03 0.0000000000e+00 0.0000e+00 -1.0000e+00
<mgrwt>
<rscale>  0 0.39297058E+04</rscale>
<asrwt>0</asrwt>
<pdfrwt beam="1">  1        2 0.50060564E+00 0.39297058E+04</pdfrwt>
<pdfrwt beam="2">  1       -2 0.18253142E+00 0.39297058E+04</pdfrwt>
<totfact> 0.18039588E-01</totfact>
</mgrwt>
<rwgt>
<wgt id='morphing_basis_vector_1'> +1.4769910e-05 </wgt>
<wgt id='morphing_basis_vector_2'> +1.0177549e-05 </wgt>
<wgt id='morphing_basis_vector_3'> +1.6246273e-05 </wgt>
<wgt id='morphing_basis_vector_4'> +1.1448065e-05 </wgt>
<wgt id='morphing_basis_vector_5'> +1.8494448e-05 </wgt>
</rwgt>
</event>
<event>
 4      1 +4.5322000e-10 4.00216500e+03 7.81860800e-03 7.54033900e-02
        2 -1    0    0  501    0 +0.0000000000e+00 +0.0000000000e+00 +1.4064142060e+03 1.4064142060e+03 0.0000000000e+00 0.0000e+00 -1.0000e+00
       -2 -1    0    0    0  501 -0.0000000000e+00 -0.0000000000e+00 -2.8471916287e+03 2.8471916287e+03 0.0000000000e+00 0.0000e+00 1.0000e+00
      -13  1    1    2    0    0 +8.5533454081e+02 -6.8577951758e+02 -2.4996119406e+03 2.7294597591e+03 0.0000000000e+00 0.0000e+00 1.0000e+00
       13  1    1    2    0    0 -8.5533454081e+02 +6.8577951758e+02 +1.0588345179e+03 1.5241460756e+03 0.0000000000e+00 0.0000e+00 -1.0000e+00
<mgrwt>
<rscale>  0 0.40021648E+04</rscale>
<asrwt>0</asrwt>
<pdfrwt beam="1">  1        2 0.21637142E+00 0.40021648E+04</pdfrwt>
<pdfrwt beam="2">  1       -2 0.43802947E+00 0.40021648E+04</pdfrwt>
<totfact> 0.42074045E-02</totfact>
</mgrwt>
<rwgt>
<wgt id='morphing_basis_vector_1'> +1.5806644e-05 </wgt>
<wgt id='morphing_basis_vector_2'> +1.0720946e-05 </wgt>
<wgt id='morphing_basis_vector_3'> +1.7354058e-05 </wgt>
<wgt id='morphing_basis_vector_4'> +1.2483520e-05 </wgt>
<wgt id='morphing_basis_vector_5'> +1.9917621e-05 </wgt>
</rwgt>
</event>
<event>
 4      1 +4.5322000e-10 4.15952600e+03 7.81860800e-03 7.51289100e-02
        2 -1    0    0  501    0 +0.0000000000e+00 +0.0000000000e+00 +2.6234300612e+03 2.6234300612e+03 0.0000000000e+00 0.0000e+00 1.0000e+00
       -2 -1    0    0    0  501 -0.0000000000e+00 -0.0000000000e+00 -1.6487629560e+03 1.6487629560e+03 0.0000000000e+00 0.0000e+00 -1.0000e+00
      -13  1    1    2    0    0 -1.0872989295e+02 +1.4753923993e+03 -1.0140439539e+03 1.7935690848e+03 0.0000000000e+00 0.0000e+00 -1.0000e+00
       13  1    1    2    0    0 +1.0872989295e+02 -1.4753923993e+03 +1.9887110591e+03 2.4786239323e+03 0.0000000000e+00 0.0000e+00 1.0000e+00
<mgrwt>
<rscale>  0 0.41595261E+04</rscale>
<asrwt>0</asrwt>
<pdfrwt beam="1">  1        2 0.40360462E+00 0.41595261E+04</pdfrwt>
<pdfrwt beam="2">  1       -2 0.25365584E+00 0.41595261E+04</pdfrwt>
<totfact> 0.14019159E-01</totfact>
</mgrwt>
<rwgt>
<wgt id='morphing_basis_vector_1'> +1.8446016e-05 </wgt>
<wgt id='morphing_basis_vector_2'> +1.2555009e-05 </wgt>
<wgt id='morphing_basis_vector_3'> +2.0274778e-05 </wgt>
<wgt id='morphing_basis_vector_4'> +1.4540454e-05 </wgt>
<wgt id='morphing_basis_vector_5'> +2.3253961e-05 </wgt>
</rwgt>
</event>
<event>
 4      1 +4.5322000e-10 3.92026900e+03 7.81860800e-03 7.55513700e-02
        2 -1    0    0  501    0 +0.0000000000e+00 +0.0000000000e+00 +2.2711282609e+03 2.2711282609e+03 0.0000000000e+00 0.0000e+00 -1.0000e+00
       -2 -1    0    0    0  501 -0.0000000000e+00 -0.0000000000e+00 -1.6917259582e+03 1.6917259582e+03 0.0000000000e+00 0.0000e+00 1.0000e+00
      -13  1    1    2    0    0 +4.8696195190e+02 +1.1454051819e+01 -1.6295715018e+03 1.7008134576e+03 0.0000000000e+00 0.0000e+00 1.0000e+00
       13  1    1    2    0    0 -4.8696195190e+02 -1.1454051819e+01 +2.2089738045e+03 2.2620407616e+03 0.0000000000e+00 0.0000e+00 -1.0000e+00
<mgrwt>
<rscale>  0 0.39202687E+04</rscale>
<asrwt>0</asrwt>
<pdfrwt beam="1">  1        2 0.34940435E+00 0.39202687E+04</pdfrwt>
<pdfrwt beam="2">  1       -2 0.26026553E+00 0.39202687E+04</pdfrwt>
<totfact> 0.20818638E-01</totfact>
</mgrwt>
<rwgt>
<wgt id='morphing_basis_vector_1'> +1.4553757e-05 </wgt>
<wgt id='morphing_basis_vector_2'> +9.8583054e-06 </wgt>
<wgt id='morphing_basis_vector_3'> +1.5969784e-05 </wgt>
<wgt id='morphing_basis_vector_4'> +1.1497579e-05 </wgt>
<wgt id='morphing_basis_vector_5'> +1.8329814e-05 </wgt>
</rwgt>
</event>
<event>
 4      1 +4.5322000e-10 3.99668900e+03 7.81860800e-03 7.54131700e-02
        2 -1    0    0  501    0 +0.0000000000e+00 +0.0000000000e+00 +3.8969851682e+03 3.8969851682e+03 0.0000000000e+00 0.0000e+00 1.0000e+00
       -2 -1    0    0    0  501 -0.0000000000e+00 -0.0000000000e+00 -1.0247359322e+03 1.0247359322e+03 0.0000000000e+00 0.0000e+00 -1.0000e+00
      -13  1    1    2    0    0 +1.2226049378e+03 +1.5598343276e+03 +1.1208764877e+03 2.2768860455e+03 0.0000000000e+00 0.0000e+00 -1.0000e+00
       13  1    1    2    0    0 -1.2226049378e+03 -1.5598343276e+03 +1.7513727483e+03 2.6448350548e+03 0.0000000000e+00 0.0000e+00 1.0000e+00
<mgrwt>
<rscale>  0 0.39966890E+04</rscale>
<asrwt>0</asrwt>
<pdfrwt beam="1">  1        2 0.59953617E+00 0.39966890E+04</pdfrwt>
<pdfrwt beam="2">  1       -2 0.15765168E+00 0.39966890E+04</pdfrwt>
<totfact> 0.92264081E-02</totfact>
</mgrwt>
<rwgt>
<wgt id='morphing_basis_vector_1'> +1.6075338e-05 </wgt>
<wgt id='morphing_basis_vector_2'> +1.1704766e-05 </wgt>
<wgt id='morphing_basis_vector_3'> +1.7828197e-05 </wgt>
<wgt id='morphing_basis_vector_4'> +1.1665021e-05 </wgt>
<wgt id='morphing_basis_vector_5'> +1.9745818e-05 </wgt>
</rwgt>
</event>
<event>
 4      1 +4.5322000e-10 4.36650300e+03 7.81860800e-03 7.47861000e-02
        2 -1    0    0  501    0 +0.0000000000e+00 +0.0000000000e+00 +2.9734329118e+03 2.9734329118e+03 0.0000000000e+00 0.0000e+00 1.0000e+00
       -2 -1    0    0    0  501 -0.0000000000e+00 -0.0000000000e+00 -1.6030585933e+03 1.6030585933e+03 0.0000000000e+00 0.0000e+00 -1.0000e+00
      -13  1    1    2    0    0 +1.9171044812e+03 -9.2954891956e+02 +1.8556943148e+02 2.1386413444e+03 0.0000000000e+00 0.0000e+00 -1.0000e+00
       13  1    1    2    0    0 -1.9171044812e+03 +9.2954891956e+02 +1.1848048871e+03 2.4378501608e+03 0.0000000000e+00 0.0000e+00 1.0000e+00
<mgrwt>
<rscale>  0 0.43665030E+04</rscale>
<asrwt>0</asrwt>
<pdfrwt beam="1">  1        2 0.45745122E+00 0.43665030E+04</pdfrwt>
<pdfrwt beam="2">  1       -2 0.24662440E+00 0.43665030E+04</pdfrwt>
<totfact> 0.92979888E-02</totfact>
</mgrwt>
<rwgt>
<wgt id='morphing_basis_vector_1'> +2.2712892e-05 </wgt>
<wgt id='morphing_basis_vector_2'> +1.6216323e-05 </wgt>
<wgt id='morphing_basis_vector_3'> +2.5155289e-05 </wgt>
<wgt id='morphing_basis_vector_4'> +1.6968335e-05 </wgt>
<wgt id='morphing_basis_vector_5'> +2.8204633e-05 </wgt>
</rwgt>
</event>
<event>
 4      1 +4.5322000e-10 3.89997700e+03 7.81860800e-03 7.55886100e-02
        2 -1    0    0  501    0 +0.0000000000e+00 +0.0000000000e+00 +2.6653390657e+03 2.6653390657e+03 0.0000000000e+00 0.0000e+00 -1.0000e+00
       -2 -1    0    0    0  501 -0.0000000000e+00 -0.0000000000e+00 -1.4266312398e+03 1.4266312398e+03 0.0000000000e+00 0.0000e+00 1.0000e+00
      -13  1    1    2    0    0 +2.1796500652e+02 -5.6375286886e+02 +2.5645722533e+03 2.6348352669e+03 0.0000000000e+00 0.0000e+00 -1.0000e+00
       13  1    1    2    0    0 -2.1796500652e+02 +5.6375286886e+02 -1.3258644274e+03 1.4571350387e+03 0.0000000000e+00 0.0000e+00 1.0000e+00
<mgrwt>
<rscale>  0 0.38999774E+04</rscale>
<asrwt>0</asrwt>
<pdfrwt beam="1">  1        2 0.41005216E+00 0.38999774E+04</pdfrwt>
<pdfrwt beam="2">  1       -2 0.21948173E+00 0.38999774E+04</pdfrwt>
<totfact> 0.23386596E-01</totfact>
</mgrwt>
<rwgt>
<wgt id='morphing_basis_vector_1'> +1.9512944e-05 </wgt>
<wgt id='morphing_basis_vector_2'> +2.5109336e-05 </wgt>
<wgt id='morphing_basis_vector_3'> +2.4062012e-05 </wgt>
<wgt id='morphing_basis_vector_4'> +1.5311900e-07 </wgt>
<wgt id='morphing_basis_vector_5'> +1.7026786e-05 </wgt>
</rwgt>
</event>
<event>
 4      1 +4.5322000e-10 4.16581600e+03 7.81860800e-03 7.51182000e-02
        2 -1    0    0  501    0 +0.0000000000e+00 +0.0000000000e+00 +2.2634354582e+03 2.2634354582e+03 0.0000000000e+00 0.0000e+00 -1.0000e+00
       -2 -1    0    0    0  501 -0.0000000000e+00 -0.0000000000e+00 -1.9167789758e+03 1.9167789758e+03 0.0000000000e+00 0.0000e+00 1.0000e+00
      -13  1    1    2    0    0 -8.9749576850e+02 +1.8787716337e+03 +2.3030471445e+02 2.0948321573e+03 0.0000000000e+00 0.0000e+00 1.0000e+00
       13  1    1    2    0    0 +8.9749576850e+02 -1.8787716337e+03 +1.1635176798e+02 2.0853822767e+03 0.0000000000e+00 0.0000e+00 -1.0000e+00
<mgrwt>
<rscale>  0 0.41658159E+04</rscale>
<asrwt>0</asrwt>
<pdfrwt beam="1">  1        2 0.34822084E+00 0.41658159E+04</pdfrwt>
<pdfrwt beam="2">  1       -2 0.29488907E+00 0.41658159E+04</pdfrwt>
<totfact> 0.11976012E-01</totfact>
</mgrwt>
<rwgt>
<wgt id='morphing_basis_vector_1'> +1.9286149e-05 </wgt>
<wgt id='morphing_basis_vector_2'> +1.4772881e-05 </wgt>
<wgt id='morphing_basis_vector_3'> +2.1569947e-05 </wgt>
<wgt id='morphing_basis_vector_4'> +1.3084914e-05 </wgt>
<wgt id='morphing_basis_vector_5'> +2.3266766e-05 </wgt>
</rwgt>
</event>
<event>
 4      1 +4.5322000e-10 4.30524700e+03 7.81860800e-03 7.48855200e-02
        2 -1    0    0  501    0 +0.0000000000e+00 +0.0000000000e+00 +3.6496777355e+03 3.6496777355e+03 0.0000000000e+00 0.0000e+00 1.0000e+00
       -2 -1    0    0    0  501 -0.0000000000e+00 -0.0000000000e+00 -1.2696427694e+03 1.2696427694e+03 0.0000000000e+00 0.0000e+00 -1.0000e+00
      -13  1    1    2    0    0 -9.6983922623e+02 +1.4412586570e+02 -9.9967764374e+02 1.4002556128e+03 0.0000000000e+00 0.0000e+00 -1.0000e+00
       13  1    1    2    0    0 +9.6983922623e+02 -1.4412586570e+02 +3.3797126098e+03 3.5190648921e+03 0.0000000000e+00 0.0000e+00 1.0000e+00
<mgrwt>
<rscale>  0 0.43052465E+04</rscale>
<asrwt>0</asrwt>
<pdfrwt beam="1">  1        2 0.56148888E+00 0.43052465E+04</pdfrwt>
<pdfrwt beam="2">  1       -2 0.19532966E+00 0.43052465E+04</pdfrwt>
<totfact> 0.72572440E-02</totfact>
</mgrwt>
<rwgt>
<wgt id='morphing_basis_vector_1'> +2.1133285e-05 </wgt>
<wgt id='morphing_basis_vector_2'> +1.4336964e-05 </wgt>
<wgt id='morphing_basis_vector_3'> +2.3230279e-05 </wgt>
<wgt id='morphing_basis_vector_4'> +1.6746958e-05 </wgt>
<wgt id='morphing_basis_vector_5'> +2.6708275e-05 </wgt>
</rwgt>
</event>
<event>
 4      1 +4.5322000e-10 4.09266300e+03 7.81860800e-03 7.52440100e-02
        2 -1    0    0  501    0 +0.0000000000e+00 +0.0000000000e+00 +2.0002959341e+03 2.0002959341e+03 0.0000000000e+00 0.0000e+00 -1.0000e+00
       -2 -1    0    0    0  501 -0.0000000000e+00 -0.0000000000e+00 -2.0934262395e+03 2.0934262395e+03 0.0000000000e+00 0.0000e+00 1.0000e+00
      -13  1    1    2    0    0 +1.0536863606e+03 +1.1684452899e+03 -1.3553199498e+03 2.0766346593e+03 0.0000000000e+00 0.0000e+00 1.0000e+00
       13  1    1    2    0    0 -1.0536863606e+03 -1.1684452899e+03 +1.2621896444e+03 2.0170875143e+03 0.0000000000e+00 0.0000e+00 -1.0000e+00
<mgrwt>
<rscale>  0 0.40926627E+04</rscale>
<asrwt>0</asrwt>
<pdfrwt beam="1">  1        2 0.30773783E+00 0.40926627E+04</pdfrwt>
<pdfrwt beam="2">  1       -2 0.32206558E+00 0.40926627E+04</pdfrwt>
<totfact> 0.11184917E-01</totfact>
</mgrwt>
<rwgt>
<wgt id='morphing_basis_vector_1'> +1.7306189e-05 </wgt>
<wgt id='morphing_basis_vector_2'> +1.1805315e-05 </wgt>
<wgt id='morphing_basis_vector_3'> +1.9022759e-05 </wgt>
<wgt id='morphing_basis_vector_4'> +1.3597250e-05 </wgt>
<wgt id='morphing_basis_vector_5'> +2.1785622e-05 </wgt>
</rwgt>
</event>
<event>
 4      1 +4.5322000e-10 4.42391800e+03 7.81860800e-03 7.46944000e-02
        2 -1    0    0  501    0 +0.0000000000e+00 +0.0000000000e+00 +3.3396320198e+03 3.3396320198e+03 0.0000000000e+00 0.0000e+00 -1.0000e+00
       -2 -1    0    0    0  501 -0.0000000000e+00 -0.0000000000e+00 -1.4650604962e+03 1.4650604962e+03 0.0000000000e+00 0.0000e+00 1.0000e+00
      -13  1    1    2    0    0 +3.6244423241e+02 +6.3404543185e+02 -1.3303382927e+03 1.5176229454e+03 0.0000000000e+00 0.0000e+00 1.0000e+00
       13  1    1    2    0    0 -3.6244423241e+02 -6.3404543185e+02 +3.2049098163e+03 3.2870695706e+03 0.0000000000e+00 0.0000e+00 -1.0000e+00
<mgrwt>
<rscale>  0 0.44239181E+04</rscale>
<asrwt>0</asrwt>
<pdfrwt beam="1">  1        2 0.51378954E+00 0.44239181E+04</pdfrwt>
<pdfrwt beam="2">  1       -2 0.22539392E+00 0.44239181E+04</pdfrwt>
<totfact> 0.73728561E-02</totfact>
</mgrwt>
<rwgt>
<wgt id='morphing_basis_vector_1'> +2.3548032e-05 </wgt>
<wgt id='morphing_basis_vector_2'> +1.5974161e-05 </wgt>
<wgt id='morphing_basis_vector_3'> +2.5894695e-05 </wgt>
<wgt id='morphing_basis_vector_4'> +1.8684647e-05 </wgt>
<wgt id='morphing_basis_vector_5'> +2.9791011e-05 </wgt>
</rwgt>
</event>
<event>
 4      1 +4.5322000e-10 4.05011300e+03 7.81860800e-03 7.53184200e-02
        2 -1    0    0  501    0 +0.0000000000e+00 +0.0000000000e+00 +2.5723830386e+03 2.5723830386e+03 0.0000000000e+00 0.0000e+00 -1.0000e+00
       -2 -1    0    0    0  501 -0.0000000000e+00 -0.0000000000e+00 -1.5941847420e+03 1.5941847420e+03 0.0000000000e+00 0.0000e+00 1.0000e+00
      -13  1    1    2    0    0 +1.4238484126e+03 -1.3522089784e+03 +9.9834808433e+02 2.2028418737e+03 0.0000000000e+00 0.0000e+00 1.0000e+00
       13  1    1    2    0    0 -1.4238484126e+03 +1.3522089784e+03 -2.0149787784e+01 1.9637259068e+03 0.0000000000e+00 0.0000e+00 -1.0000e+00
<mgrwt>
<rscale>  0 0.40501130E+04</rscale>
<asrwt>0</asrwt>
<pdfrwt beam="1">  1        2 0.39575124E+00 0.40501130E+04</pdfrwt>
<pdfrwt beam="2">  1       -2 0.24525919E+00 0.40501130E+04</pdfrwt>
<totfact> 0.17361640E-01</totfact>
</mgrwt>
<rwgt>
<wgt id='morphing_basis_vector_1'> +1.7981755e-05 </wgt>
<wgt id='morphing_basis_vector_2'> +1.5381023e-05 </wgt>
<wgt id='morphing_basis_vector_3'> +2.0461161e-05 </wgt>
<wgt id='morphing_basis_vector_4'> +1.0116104e-05 </wgt>
<wgt id='morphing_basis_vector_5'> +2.0645951e-05 </wgt>
</rwgt>
</event>
<event>
 4      1 +4.5322000e-10 3.92655800e+03 7.81860800e-03 7.55398800e-02
        2 -1    0    0  501    0 +0.0000000000e+00 +0.0000000000e+00 +2.6180850480e+03 2.6180850480e+03 0.0000000000e+00 0.0000e+00 -1.0000e+00
       -2 -1    0    0    0  501 -0.0000000000e+00 -0.0000000000e+00 -1.4722458632e+03 1.4722458632e+03 0.0000000000e+00 0.0000e+00 1.0000e+00
      -13  1    1    2    0    0 -6.3022883412e+02 +2.0264917354e+02 -1.3524702210e+03 1.5057990468e+03 0.0000000000e+00 0.0000e+00 1.0000e+00
       13  1    1    2    0    0 +6.3022883412e+02 -2.0264917354e+02 +2.4983094058e+03 2.5845318643e+03 0.0000000000e+00 0.0000e+00 -1.0000e+00
<mgrwt>
<rscale>  0 0.39265582E+04</rscale>
<asrwt>0</asrwt>
<pdfrwt beam="1">  1        2 0.40278231E+00 0.39265582E+04</pdfrwt>
<pdfrwt beam="2">  1       -2 0.22649936E+00 0.39265582E+04</pdfrwt>
<totfact> 0.22247591E-01</totfact>
</mgrwt>
<rwgt>
<wgt id='morphing_basis_vector_1'> +1.4647272e-05 </wgt>
<wgt id='morphing_basis_vector_2'> +9.9227421e-06 </wgt>
<wgt id='morphing_basis_vector_3'> +1.6073107e-05 </wgt>
<wgt id='morphing_basis_vector_4'> +1.1571087e-05 </wgt>
<wgt id='morphing_basis_vector_5'> +1.8448270e-05 </wgt>
</rwgt>
</event>
<event>
 4      1 +4.5322000e-10 4.23578600e+03 7.81860800e-03 7.50003000e-02
        2 -1    0    0  501    0 +0.0000000000e+00 +0.0000000000e+00 +1.6627405335e+03 1.6627405335e+03 0.0000000000e+00 0.0000e+00 -1.0000e+00
       -2 -1    0    0    0  501 -0.0000000000e+00 -0.0000000000e+00 -2.6976366333e+03 2.6976366333e+03 0.0000000000e+00 0.0000e+00 1.0000e+00
      -13  1    1    2    0    0 +1.6825028676e+03 -1.2852429179e+03 -5.7196344526e+02 2.1931273197e+03 0.0000000000e+00 0.0000e+00 1.0000e+00
       13  1    1    2    0    0 -1.6825028676e+03 +1.2852429179e+03 -4.6293265456e+02 2.1672498472e+03 0.0000000000e+00 0.0000e+00 -1.0000e+00
<mgrwt>
<rscale>  0 0.42357855E+04</rscale>
<asrwt>0</asrwt>
<pdfrwt beam="1">  1        2 0.25580624E+00 0.42357855E+04</pdfrwt>
<pdfrwt beam="2">  1       -2 0.41502102E+00 0.42357855E+04</pdfrwt>
<totfact> 0.42359843E-02</totfact>
</mgrwt>
<rwgt>
<wgt id='morphing_basis_vector_1'> +2.0470692e-05 </wgt>
<wgt id='morphing_basis_vector_2'> +1.5383143e-05 </wgt>
<wgt id='morphing_basis_vector_3'> +2.2834530e-05 </wgt>
<wgt id='morphing_basis_vector_4'> +1.4282640e-05 </wgt>
<wgt id='morphing_basis_vector_5'> +2.4901527e-05 </wgt>
</rwgt>
</event>
<event>
 4      1 +4.5322000e-10 3.91840500e+03 7.81860800e-03 7.55547800e-02
        2 -1    0    0  501    0 +0.0000000000e+00 +0.0000000000e+00 +2.6432107593e+03 2.6432107593e+03 0.0000000000e+00 0.0000e+00 1.0000e+00
       -2 -1    0    0    0  501 -0.0000000000e+00 -0.0000000000e+00 -1.4522013326e+03 1.4522013326e+03 0.0000000000e+00 0.0000e+00 -1.0000e+00
      -13  1    1    2    0    0 +3.4811248000e+02 +1.5180922491e+03 -6.4675213444e+02 1.6864384658e+03 0.0000000000e+00 0.0000e+00 -1.0000e+00
       13  1    1    2    0    0 -3.4811248000e+02 -1.5180922491e+03 +1.8377615611e+03 2.4089736261e+03 0.0000000000e+00 0.0000e+00 1.0000e+00
<mgrwt>
<rscale>  0 0.39184049E+04</rscale>
<asrwt>0</asrwt>
<pdfrwt beam="1">  1        2 0.40664781E+00 0.39184049E+04</pdfrwt>
<pdfrwt beam="2">  1       -2 0.22341559E+00 0.39184049E+04</pdfrwt>
<totfact> 0.22596037E-01</totfact>
</mgrwt>
<rwgt>
<wgt id='morphing_basis_vector_1'> +1.4561410e-05 </wgt>
<wgt id='morphing_basis_vector_2'> +9.9429784e-06 </wgt>
<wgt id='morphing_basis_vector_3'> +1.5995789e-05 </wgt>
<wgt id='morphing_basis_vector_4'> +1.1401306e-05 </wgt>
<wgt id='morphing_basis_vector_5'> +1.8288614e-05 </wgt>
</rwgt>
</event>
<event>
 4      1 +4.5322000e-10 4.22357700e+03 7.81860800e-03 7.50207000e-02
        2 -1    0    0  501    0 +0.0000000000e+00 +0.0000000000e+00 +2.4513779731e+03 2.4513779731e+03 0.0000000000e+00 0.0000e+00 1.0000e+00
       -2 -1    0    0    0  501 -0.0000000000e+00 -0.0000000000e+00 -1.8192421938e+03 1.8192421938e+03 0.0000000000e+00 0.0000e+00 -1.0000e+00
      -13  1    1    2    0    0 +1.8426538201e+03 -5.8070625743e+02 -5.4610605831e+02 2.0076913819e+03 0.0000000000e+00 0.0000e+00 -1.0000e+00
       13  1    1    2    0    0 -1.8426538201e+03 +5.8070625743e+02 +1.1782418377e+03 2.2629287850e+03 0.0000000000e+00 0.0000e+00 1.0000e+00
<mgrwt>
<rscale>  0 0.42235768E+04</rscale>
<asrwt>0</asrwt>
<pdfrwt beam="1">  1        2 0.37713507E+00 0.42235768E+04</pdfrwt>
<pdfrwt beam="2">  1       -2 0.27988341E+00 0.42235768E+04</pdfrwt>
<totfact> 0.11700428E-01</totfact>
</mgrwt>
<rwgt>
<wgt id='morphing_basis_vector_1'> +1.9720274e-05 </wgt>
<wgt id='morphing_basis_vector_2'> +1.3689175e-05 </wgt>
<wgt id='morphing_basis_vector_3'> +2.1740949e-05 </wgt>
<wgt id='morphing_basis_vector_4'> +1.5212766e-05 </wgt>
<wgt id='morphing_basis_vector_5'> +2.4705795e-05 </wgt>
</rwgt>
</event>
<event>
 4      1 +4.5322000e-10 4.26665100e+03 7.81860800e-03 7.49490200e-02
        2 -1    0    0  501    0 +0.0000000000e+00 +0.0000000000e+00 +4.1756622804e+03 4.1756622804e+03 0.0000000000e+00 0.0000e+00 -1.0000e+00
       -2 -1    0    0    0  501 -0.0000000000e+00 -0.0000000000e+00 -1.0899058516e+03 1.0899058516e+03 0.0000000000e+00 0.0000e+00 1.0000e+00
      -13  1    1    2    0    0 +1.6860944823e+03 +1.2065793947e+03 +2.1628083949e+03 2.9960788695e+03 0.0000000000e+00 0.0000e+00 1.0000e+00
       13  1    1    2    0    0 -1.6860944823e+03 -1.2065793947e+03 +9.2294803397e+02 2.2694892625e+03 0.0000000000e+00 0.0000e+00 -1.0000e+00
<mgrwt>
<rscale>  0 0.42666515E+04</rscale>
<asrwt>0</asrwt>
<pdfrwt beam="1">  1        2 0.64240957E+00 0.42666515E+04</pdfrwt>
<pdfrwt beam="2">  1       -2 0.16767783E+00 0.42666515E+04</pdfrwt>
<totfact> 0.43183420E-02</totfact>
</mgrwt>
<rwgt>
<wgt id='morphing_basis_vector_1'> +2.2074742e-05 </wgt>
<wgt id='morphing_basis_vector_2'> +1.8784448e-05 </wgt>
<wgt id='morphing_basis_vector_3'> +2.5123950e-05 </wgt>
<wgt id='morphing_basis_vector_4'> +1.2577309e-05 </wgt>
<wgt id='morphing_basis_vector_5'> +2.5460903e-05 </wgt>
</rwgt>
</event>
<event>
 4      1 +4.5322000e-10 4.48198800e+03 7.81860800e-03 7.46030800e-02
        2 -1    0    0  501    0 +0.0000000000e+00 +0.0000000000e+00 +4.3856136359e+03 4.3856136359e+03 0.0000000000e+00 0.0000e+00 -1.0000e+00
       -2 -1    0    0    0  501 -0.0000000000e+00 -0.0000000000e+00 -1.1451199935e+03 1.1451199935e+03 0.0000000000e+00 0.0000e+00 1.0000e+00
      -13  1    1    2    0    0 +9.4183089088e+02 +1.1966121297e+02 +4.1251850229e+03 4.2330267783e+03 0.0000000000e+00 0.0000e+00 -1.0000e+00
       13  1    1    2    0    0 -9.4183089088e+02 -1.1966121297e+02 -8.8469138040e+02 1.2977068511e+03 0.0000000000e+00 0.0000e+00 1.0000e+00
<mgrwt>
<rscale>  0 0.44819879E+04</rscale>
<asrwt>0</asrwt>
<pdfrwt beam="1">  1        2 0.67470978E+00 0.44819879E+04</pdfrwt>
<pdfrwt beam="2">  1       -2 0.17617231E+00 0.44819879E+04</pdfrwt>
<totfact> 0.23084764E-02</totfact>
</mgrwt>
<rwgt>
<wgt id='morphing_basis_vector_1'> +3.3803721e-05 </wgt>
<wgt id='morphing_basis_vector_2'> +4.3269027e-05 </wgt>
<wgt id='morphing_basis_vector_3'> +4.1814570e-05 </wgt>
<wgt id='morphing_basis_vector_4'> +5.7345658e-07 </wgt>
<wgt id='morphing_basis_vector_5'> +2.9794622e-05 </wgt>
</rwgt>
</event>
<event>
 4      1 +4.5322000e-10 3.99164300e+03 7.81860800e-03 7.54222000e-02
        2 -1    0    0  501    0 +0.0000000000e+00 +0.0000000000e+00 +2.9881408109e+03 2.9881408109e+03 0.0000000000e+00 0.0000e+00 -1.0000e+00
       -2 -1    0    0    0  501 -0.0000000000e+00 -0.0000000000e+00 -1.3330372025e+03 1.3330372025e+03 0.0000000000e+00 0.0000e+00 1.0000e+00
      -13  1    1    2    0    0 -1.5646295996e+03 -2.2842134538e+02 -4.9079591275e+02 1.6556336319e+03 0.0000000000e+00 0.0000e+00 1.0000e+00
       13  1    1    2    0    0 +1.5646295996e+03 +2.2842134538e+02 +2.1458995212e+03 2.6655443816e+03 0.0000000000e+00 0.0000e+00 -1.0000e+00
<mgrwt>
<rscale>  0 0.39916427E+04</rscale>
<asrwt>0</asrwt>
<pdfrwt beam="1">  1        2 0.45971397E+00 0.39916427E+04</pdfrwt>
<pdfrwt beam="2">  1       -2 0.20508265E+00 0.39916427E+04</pdfrwt>
<totfact> 0.18418048E-01</totfact>
</mgrwt>
<rwgt>
<wgt id='morphing_basis_vector_1'> +1.5674045e-05 </wgt>
<wgt id='morphing_basis_vector_2'> +1.0703315e-05 </wgt>
<wgt id='morphing_basis_vector_3'> +1.7223882e-05 </wgt>
<wgt id='morphing_basis_vector_4'> +1.2284168e-05 </wgt>
<wgt id='morphing_basis_vector_5'> +1.9702291e-05 </wgt>
</rwgt>
</event>
<event>
 4      1 +4.5322000e-10 3.85480800e+03 7.81860800e-03 7.56723300e-02
        2 -1    0    0  501    0 +0.0000000000e+00 +0.0000000000e+00 +2.3771795188e+03 2.3771795188e+03 0.0000000000e+00 0.0000e+00 1.0000e+00
       -2 -1    0    0    0  501 -0.0000000000e+00 -0.0000000000e+00 -1.5627287661e+03 1.5627287661e+03 0.0000000000e+00 0.0000e+00 -1.0000e+00
      -13  1    1    2    0    0 -1.6016248299e+03 -4.2641183255e+01 -6.8781215527e+02 1.7435899539e+03 0.0000000000e+00 0.0000e+00 -1.0000e+00
       13  1    1    2    0    0 +1.6016248299e+03 +4.2641183255e+01 +1.5022629080e+03 2.1963183310e+03 0.0000000000e+00 0.0000e+00 1.0000e+00
<mgrwt>
<rscale>  0 0.38548083E+04</rscale>
<asrwt>0</asrwt>
<pdfrwt beam="1">  1        2 0.36571992E+00 0.38548083E+04</pdfrwt>
<pdfrwt beam="2">  1       -2 0.24041981E+00 0.38548083E+04</pdfrwt>
<totfact> 0.24900306E-01</totfact>
</mgrwt>
<rwgt>
<wgt id='morphing_basis_vector_1'> +1.3655471e-05 </wgt>
<wgt id='morphing_basis_vector_2'> +9.3490095e-06 </wgt>
<wgt id='morphing_basis_vector_3'> +1.5001531e-05 </wgt>
<wgt id='morphing_basis_vector_4'> +1.0650471e-05 </wgt>
<wgt id='morphing_basis_vector_5'> +1.7121931e-05 </wgt>
</rwgt>
</event>
<event>
 4      1 +4.5322000e-10 3.90825100e+03 7.81860800e-03 7.55734000e-02
        2 -1    0    0  501    0 +0.0000000000e+00 +0.0000000000e+00 +3.1759353003e+03 3.1759353003e+03 0.0000000000e+00 0.0000e+00 1.0000e+00
       -2 -1    0    0    0  501 -0.0000000000e+00 -0.0000000000e+00 -1.2023567609e+03 1.2023567609e+03 0.0000000000e+00 0.0000e+00 -1.0000e+00
      -13  1    1    2    0    0 -6.7411734184e+02 -1.4883174340e+03 -2.1408677413e+02 1.6478337665e+03 0.0000000000e+00 0.0000e+00 -1.0000e+00
       13  1    1    2    0    0 +6.7411734184e+02 +1.4883174340e+03 +2.1876653136e+03 2.7304582948e+03 0.0000000000e+00 0.0000e+00 1.0000e+00
<mgrwt>
<rscale>  0 0.39082514E+04</rscale>
<asrwt>0</asrwt>
<pdfrwt beam="1">  1        2 0.48860543E+00 0.39082514E+04</pdfrwt>
<pdfrwt beam="2">  1       -2 0.18497796E+00 0.39082514E+04</pdfrwt>
<totfact> 0.19581297E-01</totfact>
</mgrwt>
<rwgt>
<wgt id='morphing_basis_vector_1'> +1.4426340e-05 </wgt>
<wgt id='morphing_basis_vector_2'> +9.8830818e-06 </wgt>
<wgt id='morphing_basis_vector_3'> +1.5853875e-05 </wgt>
<wgt id='morphing_basis_vector_4'> +1.1252420e-05 </wgt>
<wgt id='morphing_basis_vector_5'> +1.8096270e-05 </wgt>
</rwgt>
</event>
<event>
 4      1 +4.5322000e-10 4.04397000e+03 7.81860800e-03 7.53292400e-02
        2 -1    0    0  501    0 +0.0000000000e+00 +0.0000000000e+00 +2.2462842188e+03 2.2462842188e+03 0.0000000000e+00 0.0000e+00 -1.0000e+00
       -2 -1    0    0    0  501 -0.0000000000e+00 -0.0000000000e+00 -1.8200829470e+03 1.8200829470e+03 0.0000000000e+00 0.0000e+00 1.0000e+00
      -13  1    1    2    0    0 -1.2111786207e+03 -2.1702190738e+00 -1.4149604755e+03 1.8625443641e+03 0.0000000000e+00 0.0000e+00 1.0000e+00
       13  1    1    2    0    0 +1.2111786207e+03 +2.1702190738e+00 +1.8411617474e+03 2.2038228017e+03 0.0000000000e+00 0.0000e+00 -1.0000e+00
<mgrwt>
<rscale>  0 0.40439701E+04</rscale>
<asrwt>0</asrwt>
<pdfrwt beam="1">  1        2 0.34558219E+00 0.40439701E+04</pdfrwt>
<pdfrwt beam="2">  1       -2 0.28001276E+00 0.40439701E+04</pdfrwt>
<totfact> 0.15610069E-01</totfact>
</mgrwt>
<rwgt>
<wgt id='morphing_basis_vector_1'> +1.6476941e-05 </wgt>
<wgt id='morphing_basis_vector_2'> +1.1183561e-05 </wgt>
<wgt id='morphing_basis_vector_3'> +1.8094999e-05 </wgt>
<wgt id='morphing_basis_vector_4'> +1.3009795e-05 </wgt>
<wgt id='morphing_basis_vector_5'> +2.0766688e-05 </wgt>
</rwgt>
</event>
<event>
 4      1 +4.5322000e-10 4.31333300e+03 7.81860800e-03 7.48723000e-02
        2 -1    0    0  501    0 +0.0000000000e+00 +0.0000000000e+00 +4.4494668313e+03 4.4494668313e+03 0.0000000000e+00 0.0000e+00 1.0000e+00
       -2 -1    0    0    0  501 -0.0000000000e+00 -0.0000000000e+00 -1.0453412406e+03 1.0453412406e+03 0.0000000000e+00 0.0000e+00 -1.0000e+00
      -13  1    1    2    0    0 +1.7530907088e+02 -1.9833031127e+03 +6.4618499708e+02 2.0932700632e+03 0.0000000000e+00 0.0000e+00 -1.0000e+00
       13  1    1    2    0    0 -1.7530907088e+02 +1.9833031127e+03 +2.7579405936e+03 3.4015380087e+03 0.0000000000e+00 0.0000e+00 1.0000e+00
<mgrwt>
<rscale>  0 0.43133334E+04</rscale>
<asrwt>0</asrwt>
<pdfrwt beam="1">  1        2 0.68453335E+00 0.43133334E+04</pdfrwt>
<pdfrwt beam="2">  1       -2 0.16082173E+00 0.43133334E+04</pdfrwt>
<totfact> 0.26646834E-02</totfact>
</mgrwt>
<rwgt>
<wgt id='morphing_basis_vector_1'> +2.1457207e-05 </wgt>
<wgt id='morphing_basis_vector_2'> +1.4930786e-05 </wgt>
<wgt id='morphing_basis_vector_3'> +2.3671810e-05 </wgt>
<wgt id='morphing_basis_vector_4'> +1.6522828e-05 </wgt>
<wgt id='morphing_basis_vector_5'> +2.6881076e-05 </wgt>
</rwgt>
</event>
<event>
 4      1 +4.5322000e-10 4.03177700e+03 7.81860800e-03 7.53507700e-02
        2 -1    0    0  501    0 +0.0000000000e+00 +0.0000000000e+00 +2.5363346551e+03 2.5363346551e+03 0.0000000000e+00 0.0000e+00 -1.0000e+00
       -2 -1    0    0    0  501 -0.0000000000e+00 -0.0000000000e+00 -1.6022359431e+03 1.6022359431e+03 0.0000000000e+00 0.0000e+00 1.0000e+00
      -13  1    1    2    0    0 -3.6161517901e+02 -1.6549857719e+03 -6.5462682915e+02 1.8161166615e+03 0.0000000000e+00 0.0000e+00 1.0000e+00
       13  1    1    2    0    0 +3.6161517901e+02 +1.6549857719e+03 +1.5887255411e+03 2.3224539367e+03 0.0000000000e+00 0.0000e+00 -1.0000e+00
<mgrwt>
<rscale>  0 0.40317771E+04</rscale>
<asrwt>0</asrwt>
<pdfrwt beam="1">  1        2 0.39020533E+00 0.40317771E+04</pdfrwt>
<pdfrwt beam="2">  1       -2 0.24649784E+00 0.40317771E+04</pdfrwt>
<totfact> 0.17920573E-01</totfact>
</mgrwt>
<rwgt>
<wgt id='morphing_basis_vector_1'> +1.6330014e-05 </wgt>
<wgt id='morphing_basis_vector_2'> +1.1196248e-05 </wgt>
<wgt id='morphing_basis_vector_3'> +1.7957938e-05 </wgt>
<wgt id='morphing_basis_vector_4'> +1.2747262e-05 </wgt>
<wgt id='morphing_basis_vector_5'> +2.0507354e-05 </wgt>
</rwgt>
</event>
<event>
 4      1 +4.5322000e-10 4.23872100e+03 7.81860800e-03 7.49954000e-02
        2 -1    0    0  501    0 +0.0000000000e+00 +0.0000000000e+00 +5.3783634609e+03 5.3783634609e+03 0.0000000000e+00 0.0000e+00 1.0000e+00
       -2 -1    0    0    0  501 -0.0000000000e+00 -0.0000000000e+00 -8.3514061345e+02 8.3514061345e+02 0.0000000000e+00 0.0000e+00 -1.0000e+00
      -13  1    1    2    0    0 -1.2085154879e+03 +2.1301796547e+02 -2.6137184717e+02 1.2546719016e+03 0.0000000000e+00 0.0000e+00 -1.0000e+00
       13  1    1    2    0    0 +1.2085154879e+03 -2.1301796547e+02 +4.8045946947e+03 4.9588321728e+03 0.0000000000e+00 0.0000e+00 1.0000e+00
<mgrwt>
<rscale>  0 0.42387214E+04</rscale>
<asrwt>0</asrwt>
<pdfrwt beam="1">  1        2 0.82744051E+00 0.42387214E+04</pdfrwt>
<pdfrwt beam="2">  1       -2 0.12848317E+00 0.42387214E+04</pdfrwt>
<totfact> 0.31350404E-03</totfact>
</mgrwt>
<rwgt>
<wgt id='morphing_basis_vector_1'> +1.9868250e-05 </wgt>
<wgt id='morphing_basis_vector_2'> +1.3489247e-05 </wgt>
<wgt id='morphing_basis_vector_3'> +2.1836904e-05 </wgt>
<wgt id='morphing_basis_vector_4'> +1.5719455e-05 </wgt>
<wgt id='morphing_basis_vector_5'> +2.5087549e-05 </wgt>
</rwgt>
</event>
<event>
 4      1 +4.5322000e-10 4.33783600e+03 7.81860800e-03 7.48324200e-02
        2 -1    0    0  501    0 +0.0000000000e+00 +0.0000000000e+00 +3.5932395917e+03 3.5932395917e+03 0.0000000000e+00 0.0000e+00 1.0000e+00
       -2 -1    0    0    0  501 -0.0000000000e+00 -0.0000000000e+00 -1.3091820937e+03 1.3091820937e+03 0.0000000000e+00 0.0000e+00 -1.0000e+00
      -13  1    1    2    0    0 -1.0630542171e+03 -1.7543289430e+03 +3.4573082655e+02 2.0802125163e+03 0.0000000000e+00 0.0000e+00 -1.0000e+00
       13  1    1    2    0    0 +1.0630542171e+03 +1.7543289430e+03 +1.9383266714e+03 2.8222091690e+03 0.0000000000e+00 0.0000e+00 1.0000e+00
<mgrwt>
<rscale>  0 0.43378358E+04</rscale>
<asrwt>0</asrwt>
<pdfrwt beam="1">  1        2 0.55280609E+00 0.43378358E+04</pdfrwt>
<pdfrwt beam="2">  1       -2 0.20141263E+00 0.43378358E+04</pdfrwt>
<totfact> 0.72093147E-02</totfact>
</mgrwt>
<rwgt>
<wgt id='morphing_basis_vector_1'> +2.1999124e-05 </wgt>
<wgt id='morphing_basis_vector_2'> +1.5426177e-05 </wgt>
<wgt id='morphing_basis_vector_3'> +2.4298609e-05 </wgt>
<wgt id='morphing_basis_vector_4'> +1.6791963e-05 </wgt>
<wgt id='morphing_basis_vector_5'> +2.7490464e-05 </wgt>
</rwgt>
</event>
<event>
 4      1 +4.5322000e-10 4.12043200e+03 7.81860800e-03 7.51959400e-02
        2 -1    0    0  501    0 +0.0000000000e+00 +0.0000000000e+00 +3.7487437325e+03 3.7487437325e+03 0.0000000000e+00 0.0000e+00 -1.0000e+00
       -2 -1    0    0    0  501 -0.0000000000e+00 -0.0000000000e+00 -1.1322431173e+03 1.1322431173e+03 0.0000000000e+00 0.0000e+00 1.0000e+00
      -13  1    1    2    0    0 +3.1317274685e+02 +1.7407218940e+03 +5.6679951647e+01 1.7695769265e+03 0.0000000000e+00 0.0000e+00 1.0000e+00
       13  1    1    2    0    0 -3.1317274685e+02 -1.7407218940e+03 +2.5598206635e+03 3.1114099233e+03 0.0000000000e+00 0.0000e+00 -1.0000e+00
<mgrwt>
<rscale>  0 0.41204317E+04</rscale>
<asrwt>0</asrwt>
<pdfrwt beam="1">  1        2 0.57672980E+00 0.41204317E+04</pdfrwt>
<pdfrwt beam="2">  1       -2 0.17419125E+00 0.41204317E+04</pdfrwt>
<totfact> 0.89042843E-02</totfact>
</mgrwt>
<rwgt>
<wgt id='morphing_basis_vector_1'> +1.7817764e-05 </wgt>
<wgt id='morphing_basis_vector_2'> +1.2244194e-05 </wgt>
<wgt id='morphing_basis_vector_3'> +1.9607520e-05 </wgt>
<wgt id='morphing_basis_vector_4'> +1.3888318e-05 </wgt>
<wgt id='morphing_basis_vector_5'> +2.2378822e-05 </wgt>
</rwgt>
</event>
<event>
 4      1 +4.5322000e-10 4.43371700e+03 7.81860800e-03 7.46788900e-02
        2 -1    0    0  501    0 +0.0000000000e+00 +0.0000000000e+00 +2.5873784965e+03 2.5873784965e+03 0.0000000000e+00 0.0000e+00 -1.0000e+00
       -2 -1    0    0    0  501 -0.0000000000e+00 -0.0000000000e+00 -1.8993976173e+03 1.8993976173e+03 0.0000000000e+00 0.0000e+00 1.0000e+00
      -13  1    1    2    0    0 -4.4976051179e+02 +1.6625267659e+02 -1.8462902335e+03 1.9075408506e+03 0.0000000000e+00 0.0000e+00 1.0000e+00
       13  1    1    2    0    0 +4.4976051179e+02 -1.6625267659e+02 +2.5342711126e+03 2.5792352632e+03 0.0000000000e+00 0.0000e+00 -1.0000e+00
<mgrwt>
<rscale>  0 0.44337165E+04</rscale>
<asrwt>0</asrwt>
<pdfrwt beam="1">  1        2 0.39805823E+00 0.44337165E+04</pdfrwt>
<pdfrwt beam="2">  1       -2 0.29221502E+00 0.44337165E+04</pdfrwt>
<totfact> 0.78660722E-02</totfact>
</mgrwt>
<rwgt>
<wgt id='morphing_basis_vector_1'> +2.3755801e-05 </wgt>
<wgt id='morphing_basis_vector_2'> +1.6113955e-05 </wgt>
<wgt id='morphing_basis_vector_3'> +2.6123727e-05 </wgt>
<wgt id='morphing_basis_vector_4'> +1.8852812e-05 </wgt>
<wgt id='morphing_basis_vector_5'> +3.0057016e-05 </wgt>
</rwgt>
</event>
<event>
 4      1 +4.5322000e-10 4.02495100e+03 7.81860800e-03 7.53628600e-02
        2 -1    0    0  501    0 +0.0000000000e+00 +0.0000000000e+00 +2.7726017667e+03 2.7726017667e+03 0.0000000000e+00 0.0000e+00 1.0000e+00
       -2 -1    0    0    0  501 -0.0000000000e+00 -0.0000000000e+00 -1.4607425651e+03 1.4607425651e+03 0.0000000000e+00 0.0000e+00 -1.0000e+00
      -13  1    1    2    0    0 -6.0035468960e+02 -2.2650336015e+02 -1.3502690161e+03 1.4949769033e+03 0.0000000000e+00 0.0000e+00 -1.0000e+00
       13  1    1    2    0    0 +6.0035468960e+02 +2.2650336015e+02 +2.6621282177e+03 2.7383674284e+03 0.0000000000e+00 0.0000e+00 1.0000e+00
<mgrwt>
<rscale>  0 0.40249509E+04</rscale>
<asrwt>0</asrwt>
<pdfrwt beam="1">  1        2 0.42655412E+00 0.40249509E+04</pdfrwt>
<pdfrwt beam="2">  1       -2 0.22472963E+00 0.40249509E+04</pdfrwt>
<totfact> 0.18242748E-01</totfact>
</mgrwt>
<rwgt>
<wgt id='morphing_basis_vector_1'> +1.6163090e-05 </wgt>
<wgt id='morphing_basis_vector_2'> +1.0952739e-05 </wgt>
<wgt id='morphing_basis_vector_3'> +1.7744904e-05 </wgt>
<wgt id='morphing_basis_vector_4'> +1.2781694e-05 </wgt>
<wgt id='morphing_basis_vector_5'> +2.0378227e-05 </wgt>
</rwgt>
</event>
<event>
 4      1 +4.5322000e-10 4.46481700e+03 7.81860800e-03 7.46299300e-02
        2 -1    0    0  501    0 +0.0000000000e+00 +0.0000000000e+00 +1.9675107148e+03 1.9675107148e+03 0.0000000000e+00 0.0000e+00 1.0000e+00
       -2 -1    0    0    0  501 -0.0000000000e+00 -0.0000000000e+00 -2.5329713755e+03 2.5329713755e+03 0.0000000000e+00 0.0000e+00 -1.0000e+00
      -13  1    1    2    0    0 -7.4522960455e+01 +1.5835494234e+03 -1.8670571628e+03 2.4493029411e+03 0.0000000000e+00 0.0000e+00 -1.0000e+00
       13  1    1    2    0    0 +7.4522960455e+01 -1.5835494234e+03 +1.3015965021e+03 2.0511791493e+03 0.0000000000e+00 0.0000e+00 1.0000e+00
<mgrwt>
<rscale>  0 0.44648173E+04</rscale>
<asrwt>0</asrwt>
<pdfrwt beam="1">  1        2 0.30269396E+00 0.44648173E+04</pdfrwt>
<pdfrwt beam="2">  1       -2 0.38968790E+00 0.44648173E+04</pdfrwt>
<totfact> 0.41203849E-02</totfact>
</mgrwt>
<rwgt>
<wgt id='morphing_basis_vector_1'> +2.4456412e-05 </wgt>
<wgt id='morphing_basis_vector_2'> +1.6657799e-05 </wgt>
<wgt id='morphing_basis_vector_3'> +2.6912444e-05 </wgt>
<wgt id='morphing_basis_vector_4'> +1.9326119e-05 </wgt>
<wgt id='morphing_basis_vector_5'> +3.0907449e-05 </wgt>
</rwgt>
</event>
<event>
 4      1 +4.5322000e-10 4.54910800e+03 7.81860800e-03 7.44992500e-02
        2 -1    0    0  501    0 +0.0000000000e+00 +0.0000000000e+00 +2.6500390492e+03 2.6500390492e+03 0.0000000000e+00 0.0000e+00 1.0000e+00
       -2 -1    0    0    0  501 -0.0000000000e+00 -0.0000000000e+00 -1.9522716481e+03 1.9522716481e+03 0.0000000000e+00 0.0000e+00 -1.0000e+00
      -13  1    1    2    0    0 +1.0216670414e+03 -2.0116186458e+03 +5.7096040231e+01 2.2569167192e+03 0.0000000000e+00 0.0000e+00 -1.0000e+00
       13  1    1    2    0    0 -1.0216670414e+03 +2.0116186458e+03 +6.4067136078e+02 2.3453939781e+03 0.0000000000e+00 0.0000e+00 1.0000e+00
<mgrwt>
<rscale>  0 0.45491081E+04</rscale>
<asrwt>0</asrwt>
<pdfrwt beam="1">  1        2 0.40769831E+00 0.45491081E+04</pdfrwt>
<pdfrwt beam="2">  1       -2 0.30034949E+00 0.45491081E+04</pdfrwt>
<totfact> 0.62920954E-02</totfact>
</mgrwt>
<rwgt>
<wgt id='morphing_basis_vector_1'> +2.6921463e-05 </wgt>
<wgt id='morphing_basis_vector_2'> +1.9633563e-05 </wgt>
<wgt id='morphing_basis_vector_3'> +2.9928808e-05 </wgt>
<wgt id='morphing_basis_vector_4'> +1.9615275e-05 </wgt>
<wgt id='morphing_basis_vector_5'> +3.3216228e-05 </wgt>
</rwgt>
</event>
<event>
 4      1 +4.5322000e-10 4.14863100e+03 7.81860800e-03 7.51475200e-02
        2 -1    0    0  501    0 +0.0000000000e+00 +0.0000000000e+00 +3.1061470801e+03 3.1061470801e+03 0.0000000000e+00 0.0000e+00 1.0000e+00
       -2 -1    0    0    0  501 -0.0000000000e+00 -0.0000000000e+00 -1.3852481741e+03 1.3852481741e+03 0.0000000000e+00 0.0000e+00 -1.0000e+00
      -13  1    1    2    0    0 +1.2287584640e+03 +9.8559013298e+00 +2.6697033308e+03 2.9389216350e+03 0.0000000000e+00 0.0000e+00 1.0000e+00
       13  1    1    2    0    0 -1.2287584640e+03 -9.8559013298e+00 -9.4880442482e+02 1.5524736192e+03 0.0000000000e+00 0.0000e+00 -1.0000e+00
<mgrwt>
<rscale>  0 0.41486309E+04</rscale>
<asrwt>0</asrwt>
<pdfrwt beam="1">  1        2 0.47786878E+00 0.41486309E+04</pdfrwt>
<pdfrwt beam="2">  1       -2 0.21311510E+00 0.41486309E+04</pdfrwt>
<totfact> 0.13309839E-01</totfact>
</mgrwt>
<rwgt>
<wgt id='morphing_basis_vector_1'> +2.4350334e-05 </wgt>
<wgt id='morphing_basis_vector_2'> +3.0339200e-05 </wgt>
<wgt id='morphing_basis_vector_3'> +2.9865800e-05 </wgt>
<wgt id='morphing_basis_vector_4'> +1.4755011e-06 </wgt>
<wgt id='morphing_basis_vector_5'> +2.1933077e-05 </wgt>
</rwgt>
</event>
<event>
 4      1 +4.5322000e-10 3.87921500e+03 7.81860800e-03 7.56269500e-02
        2 -1    0    0  501    0 +0.0000000000e+00 +0.0000000000e+00 +2.6549418487e+03 2.6549418487e+03 0.0000000000e+00 0.0000e+00 -1.0000e+00
       -2 -1    0    0    0  501 -0.0000000000e+00 -0.0000000000e+00 -1.4170089780e+03 1.4170089780e+03 0.0000000000e+00 0.0000e+00 1.0000e+00
      -13  1    1    2    0    0 -1.1650698630e+03 -3.6679190929e+02 -9.6259556929e+02 1.5551573298e+03 0.0000000000e+00 0.0000e+00 1.0000e+00
       13  1    1    2    0    0 +1.1650698630e+03 +3.6679190929e+02 +2.2005284400e+03 2.5167934968e+03 0.0000000000e+00 0.0000e+00 -1.0000e+00
<mgrwt>
<rscale>  0 0.38792146E+04</rscale>
<asrwt>0</asrwt>
<pdfrwt beam="1">  1        2 0.40845259E+00 0.38792146E+04</pdfrwt>
<pdfrwt beam="2">  1       -2 0.21800138E+00 0.38792146E+04</pdfrwt>
<totfact> 0.24353783E-01</totfact>
</mgrwt>
<rwgt>
<wgt id='morphing_basis_vector_1'> +1.3965622e-05 </wgt>
<wgt id='morphing_basis_vector_2'> +9.4786025e-06 </wgt>
<wgt id='morphing_basis_vector_3'> +1.5325640e-05 </wgt>
<wgt id='morphing_basis_vector_4'> +1.1002448e-05 </wgt>
<wgt id='morphing_basis_vector_5'> +1.7568554e-05 </wgt>
</rwgt>
</event>
<event>
 4      1 +4.5322000e-10 3.89563000e+03 7.81860800e-03 7.55966100e-02
        2 -1    0    0  501    0 +0.0000000000e+00 +0.0000000000e+00 +3.0816986133e+03 3.0816986133e+03 0.0000000000e+00 0.0000e+00 -1.0000e+00
       -2 -1    0    0    0  501 -0.0000000000e+00 -0.0000000000e+00 -1.2311338943e+03 1.2311338943e+03 0.0000000000e+00 0.0000e+00 1.0000e+00
      -13  1    1    2    0    0 +4.3094297189e+02 -9.0953915178e+02 -9.2094919741e+02 1.3642289903e+03 0.0000000000e+00 0.0000e+00 1.0000e+00
       13  1    1    2    0    0 -4.3094297189e+02 +9.0953915178e+02 +2.7715139164e+03 2.9486035173e+03 0.0000000000e+00 0.0000e+00 -1.0000e+00
<mgrwt>
<rscale>  0 0.38956302E+04</rscale>
<asrwt>0</asrwt>
<pdfrwt beam="1">  1        2 0.47410748E+00 0.38956302E+04</pdfrwt>
<pdfrwt beam="2">  1       -2 0.18940521E+00 0.38956302E+04</pdfrwt>
<totfact> 0.21003598E-01</totfact>
</mgrwt>
<rwgt>
<wgt id='morphing_basis_vector_1'> +1.4196568e-05 </wgt>
<wgt id='morphing_basis_vector_2'> +9.6231048e-06 </wgt>
<wgt id='morphing_basis_vector_3'> +1.5577559e-05 </wgt>
<wgt id='morphing_basis_vector_4'> +1.1202776e-05 </wgt>
<wgt id='morphing_basis_vector_5'> +1.7870405e-05 </wgt>
</rwgt>
</event>
<event>
 4      1 +4.5322000e-10 3.93494300e+03 7.81860800e-03 7.55245900e-02
        2 -1    0    0  501    0 +0.0000000000e+00 +0.0000000000e+00 +3.9679122409e+03 3.9679122409e+03 0.0000000000e+00 0.0000e+00 1.0000e+00
       -2 -1    0    0    0  501 -0.0000000000e+00 -0.0000000000e+00 -9.7556196074e+02 9.7556196074e+02 0.0000000000e+00 0.0000e+00 -1.0000e+00
      -13  1    1    2    0    0 -1.3457837585e+02 +1.6565056618e+03 +1.7328214869e+02 1.6709724863e+03 0.0000000000e+00 0.0000e+00 -1.0000e+00
       13  1    1    2    0    0 +1.3457837585e+02 -1.6565056618e+03 +2.8190681314e+03 3.2725017153e+03 0.0000000000e+00 0.0000e+00 1.0000e+00
<mgrwt>
<rscale>  0 0.39349431E+04</rscale>
<asrwt>0</asrwt>
<pdfrwt beam="1">  1        2 0.61044803E+00 0.39349431E+04</pdfrwt>
<pdfrwt beam="2">  1       -2 0.15008646E+00 0.39349431E+04</pdfrwt>
<totfact> 0.93345788E-02</totfact>
</mgrwt>
<rwgt>
<wgt id='morphing_basis_vector_1'> +1.4826296e-05 </wgt>
<wgt id='morphing_basis_vector_2'> +1.0166858e-05 </wgt>
<wgt id='morphing_basis_vector_3'> +1.6297625e-05 </wgt>
<wgt id='morphing_basis_vector_4'> +1.1556217e-05 </wgt>
<wgt id='morphing_basis_vector_5'> +1.8597635e-05 </wgt>
</rwgt>
</event>
<event>
 4      1 +4.5322000e-10 4.03226700e+03 7.81860800e-03 7.53499000e-02
        2 -1    0    0  501    0 +0.0000000000e+00 +0.0000000000e+00 +2.0988404548e+03 2.0988404548e+03 0.0000000000e+00 0.0000e+00 -1.0000e+00
       -2 -1    0    0    0  501 -0.0000000000e+00 -0.0000000000e+00 -1.9366854104e+03 1.9366854104e+03 0.0000000000e+00 0.0000e+00 1.0000e+00
      -13  1    1    2    0    0 +7.2198910535e+02 +1.8779596072e+03 -4.8615542706e+01 2.0125516205e+03 0.0000000000e+00 0.0000e+00 1.0000e+00
       13  1    1    2    0    0 -7.2198910535e+02 -1.8779596072e+03 +2.1077058710e+02 2.0229742447e+03 0.0000000000e+00 0.0000e+00 -1.0000e+00
<mgrwt>
<rscale>  0 0.40322667E+04</rscale>
<asrwt>0</asrwt>
<pdfrwt beam="1">  1        2 0.32289853E+00 0.40322667E+04</pdfrwt>
<pdfrwt beam="2">  1       -2 0.29795160E+00 0.40322667E+04</pdfrwt>
<totfact> 0.14337028E-01</totfact>
</mgrwt>
<rwgt>
<wgt id='morphing_basis_vector_1'> +1.6753404e-05 </wgt>
<wgt id='morphing_basis_vector_2'> +1.2422926e-05 </wgt>
<wgt id='morphing_basis_vector_3'> +1.8633650e-05 </wgt>
<wgt id='morphing_basis_vector_4'> +1.1874341e-05 </wgt>
<wgt id='morphing_basis_vector_5'> +2.0444103e-05 </wgt>
</rwgt>
</event>
<event>
 4      1 +4.5322000e-10 3.85165700e+03 7.81860800e-03 7.56782100e-02
        2 -1    0    0  501    0 +0.0000000000e+00 +0.0000000000e+00 +1.3400412385e+03 1.3400412385e+03 0.0000000000e+00 0.0000e+00 -1.0000e+00
       -2 -1    0    0    0  501 -0.0000000000e+00 -0.0000000000e+00 -2.7676876296e+03 2.7676876296e+03 0.0000000000e+00 0.0000e+00 1.0000e+00
      -13  1    1    2    0    0 +2.0718912093e+02 +1.4492311601e+03 -2.0482567636e+03 2.5176485173e+03 0.0000000000e+00 0.0000e+00 1.0000e+00
       13  1    1    2    0    0 -2.0718912093e+02 -1.4492311601e+03 +6.2061037249e+02 1.5900803507e+03 0.0000000000e+00 0.0000e+00 -1.0000e+00
<mgrwt>
<rscale>  0 0.38516571E+04</rscale>
<asrwt>0</asrwt>
<pdfrwt beam="1">  1        2 0.20616019E+00 0.38516571E+04</pdfrwt>
<pdfrwt beam="2">  1       -2 0.42579810E+00 0.38516571E+04</pdfrwt>
<totfact> 0.56163165E-02</totfact>
</mgrwt>
<rwgt>
<wgt id='morphing_basis_vector_1'> +1.3591236e-05 </wgt>
<wgt id='morphing_basis_vector_2'> +9.2600907e-06 </wgt>
<wgt id='morphing_basis_vector_3'> +1.4920731e-05 </wgt>
<wgt id='morphing_basis_vector_4'> +1.0657495e-05 </wgt>
<wgt id='morphing_basis_vector_5'> +1.7069207e-05 </wgt>
</rwgt>
</event>
<event>
 4      1 +4.5322000e-10 4.14598700e+03 7.81860800e-03 7.51520400e-02
        2 -1    0    0  501    0 +0.0000000000e+00 +0.0000000000e+00 +3.1389124453e+03 3.1389124453e+03 0.0000000000e+00 0.0000e+00 -1.0000e+00
       -2 -1    0    0    0  501 -0.0000000000e+00 -0.0000000000e+00 -1.3690414098e+03 1.3690414098e+03 0.0000000000e+00 0.0000e+00 1.0000e+00
      -13  1    1    2    0    0 -1.6029163695e+03 +6.6305445612e+01 -5.4252878810e+02 1.6935391302e+03 0.0000000000e+00 0.0000e+00 1.0000e+00
       13  1    1    2    0    0 +1.6029163695e+03 -6.6305445612e+01 +2.3123998235e+03 2.8144147249e+03 0.0000000000e+00 0.0000e+00 -1.0000e+00
<mgrwt>
<rscale>  0 0.41459866E+04</rscale>
<asrwt>0</asrwt>
<pdfrwt beam="1">  1        2 0.48290960E+00 0.41459866E+04</pdfrwt>
<pdfrwt beam="2">  1       -2 0.21062176E+00 0.41459866E+04</pdfrwt>
<totfact> 0.13190694E-01</totfact>
</mgrwt>
<rwgt>
<wgt id='morphing_basis_vector_1'> +1.8222833e-05 </wgt>
<wgt id='morphing_basis_vector_2'> +1.2435811e-05 </wgt>
<wgt id='morphing_basis_vector_3'> +2.0035781e-05 </wgt>
<wgt id='morphing_basis_vector_4'> +1.4320101e-05 </wgt>
<wgt id='morphing_basis_vector_5'> +2.2948691e-05 </wgt>
</rwgt>
</event>
<event>
 4      1 +4.5322000e-10 4.20435100e+03 7.81860800e-03 7.50529800e-02
        2 -1    0    0  501    0 +0.0000000000e+00 +0.0000000000e+00 +3.7471189391e+03 3.7471189391e+03 0.0000000000e+00 0.0000e+00 -1.0000e+00
       -2 -1    0    0    0  501 -0.0000000000e+00 -0.0000000000e+00 -1.1793441506e+03 1.1793441506e+03 0.0000000000e+00 0.0000e+00 1.0000e+00
      -13  1    1    2    0    0 -4.0274974437e+02 +1.7372123915e+03 -2.0410751917e+01 1.7834042864e+03 0.0000000000e+00 0.0000e+00 1.0000e+00
       13  1    1    2    0    0 +4.0274974437e+02 -1.7372123915e+03 +2.5881855404e+03 3.1430588034e+03 0.0000000000e+00 0.0000e+00 -1.0000e+00
<mgrwt>
<rscale>  0 0.42043515E+04</rscale>
<asrwt>0</asrwt>
<pdfrwt beam="1">  1        2 0.57647983E+00 0.42043515E+04</pdfrwt>
<pdfrwt beam="2">  1       -2 0.18143756E+00 0.42043515E+04</pdfrwt>
<totfact> 0.78083599E-02</totfact>
</mgrwt>
<rwgt>
<wgt id='morphing_basis_vector_1'> +1.9299932e-05 </wgt>
<wgt id='morphing_basis_vector_2'> +1.3250032e-05 </wgt>
<wgt id='morphing_basis_vector_3'> +2.1242692e-05 </wgt>
<wgt id='morphing_basis_vector_4'> +1.5074989e-05 </wgt>
<wgt id='morphing_basis_vector_5'> +2.4268606e-05 </wgt>
</rwgt>
</event>
<event>
 4      1 +4.5322000e-10 3.91737500e+03 7.81860800e-03 7.55566700e-02
        2 -1    0    0  501    0 +0.0000000000e+00 +0.0000000000e+00 +1.6745859247e+03 1.6745859247e+03 0.0000000000e+00 0.0000e+00 -1.0000e+00
       -2 -1    0    0    0  501 -0.0000000000e+00 -0.0000000000e+00 -2.2909877713e+03 2.2909877713e+03 0.0000000000e+00 0.0000e+00 1.0000e+00
      -13  1    1    2    0    0 -5.7866228519e+01 +1.7631797997e+03 -1.1697330523e+03 2.1167018969e+03 0.0000000000e+00 0.0000e+00 1.0000e+00
       13  1    1    2    0    0 +5.7866228519e+01 -1.7631797997e+03 +5.5333120568e+02 1.8488717992e+03 0.0000000000e+00 0.0000e+00 -1.0000e+00
<mgrwt>
<rscale>  0 0.39173746E+04</rscale>
<asrwt>0</asrwt>
<pdfrwt beam="1">  1        2 0.25762861E+00 0.39173746E+04</pdfrwt>
<pdfrwt beam="2">  1       -2 0.35245965E+00 0.39173746E+04</pdfrwt>
<totfact> 0.10889202E-01</totfact>
</mgrwt>
<rwgt>
<wgt id='morphing_basis_vector_1'> +1.4601423e-05 </wgt>
<wgt id='morphing_basis_vector_2'> +1.0094938e-05 </wgt>
<wgt id='morphing_basis_vector_3'> +1.6067491e-05 </wgt>
<wgt id='morphing_basis_vector_4'> +1.1272514e-05 </wgt>
<wgt id='morphing_basis_vector_5'> +1.8259568e-05 </wgt>
</rwgt>
</event>
<event>
 4      1 +4.5322000e-10 3.89547000e+03 7.81860800e-03 7.55969100e-02
        2 -1    0    0  501    0 +0.0000000000e+00 +0.0000000000e+00 +2.0779630857e+03 2.0779630857e+03 0.0000000000e+00 0.0000e+00 -1.0000e+00
       -2 -1    0    0    0  501 -0.0000000000e+00 -0.0000000000e+00 -1.8256681666e+03 1.8256681666e+03 0.0000000000e+00 0.0000e+00 1.0000e+00
      -13  1    1    2    0    0 +8.2813990547e+02 +7.0218850882e+02 -1.4942706370e+03 1.8470866632e+03 0.0000000000e+00 0.0000e+00 1.0000e+00
       13  1    1    2    0    0 -8.2813990547e+02 -7.0218850882e+02 +1.7465655561e+03 2.0565445890e+03 0.0000000000e+00 0.0000e+00 -1.0000e+00
<mgrwt>
<rscale>  0 0.38954697E+04</rscale>
<asrwt>0</asrwt>
<pdfrwt beam="1">  1        2 0.31968663E+00 0.38954697E+04</pdfrwt>
<pdfrwt beam="2">  1       -2 0.28087203E+00 0.38954697E+04</pdfrwt>
<totfact> 0.19447866E-01</totfact>
</mgrwt>
<rwgt>
<wgt id='morphing_basis_vector_1'> +1.4195746e-05 </wgt>
<wgt id='morphing_basis_vector_2'> +9.6259454e-06 </wgt>
<wgt id='morphing_basis_vector_3'> +1.5577403e-05 </wgt>
<wgt id='morphing_basis_vector_4'> +1.1197742e-05 </wgt>
<wgt id='morphing_basis_vector_5'> +1.7867181e-05 </wgt>
</rwgt>
</event>
<event>
 4      1 +4.5322000e-10 4.10664900e+03 7.81860800e-03 7.52197500e-02
        2 -1    0    0  501    0 +0.0000000000e+00 +0.0000000000e+00 +2.1185826306e+03 2.1185826306e+03 0.0000000000e+00 0.0000e+00 1.0000e+00
       -2 -1    0    0    0  501 -0.0000000000e+00 -0.0000000000e+00 -1.9900764676e+03 1.9900764676e+03 0.0000000000e+00 0.0000e+00 -1.0000e+00
      -13  1    1    2    0    0 +2.5520634572e+02 -1.6753397381e+03 -1.0957314927e+03 2.0180488153e+03 0.0000000000e+00 0.0000e+00 -1.0000e+00
       13  1    1    2    0    0 -2.5520634572e+02 +1.6753397381e+03 +1.2242376557e+03 2.0906102828e+03 0.0000000000e+00 0.0000e+00 1.0000e+00
<mgrwt>
<rscale>  0 0.41066490E+04</rscale>
<asrwt>0</asrwt>
<pdfrwt beam="1">  1        2 0.32593579E+00 0.41066490E+04</pdfrwt>
<pdfrwt beam="2">  1       -2 0.30616561E+00 0.41066490E+04</pdfrwt>
<totfact> 0.12230138E-01</totfact>
</mgrwt>
<rwgt>
<wgt id='morphing_basis_vector_1'> +1.7563279e-05 </wgt>
<wgt id='morphing_basis_vector_2'> +1.2027369e-05 </wgt>
<wgt id='morphing_basis_vector_3'> +1.9316952e-05 </wgt>
<wgt id='morphing_basis_vector_4'> +1.3741590e-05 </wgt>
<wgt id='morphing_basis_vector_5'> +2.2082761e-05 </wgt>
</rwgt>
</event>
<event>
 4      1 +4.5322000e-10 4.26375100e+03 7.81860800e-03 7.49538200e-02
        2 -1    0    0  501    0 +0.0000000000e+00 +0.0000000000e+00 +3.0542479554e+03 3.0542479554e+03 0.0000000000e+00 0.0000e+00 -1.0000e+00
       -2 -1    0    0    0  501 -0.0000000000e+00 -0.0000000000e+00 -1.4880564893e+03 1.4880564893e+03 0.0000000000e+00 0.0000e+00 1.0000e+00
      -13  1    1    2    0    0 +1.0857645594e+03 -3.4766845402e+02 -1.1360183983e+03 1.6094396023e+03 0.0000000000e+00 0.0000e+00 1.0000e+00
       13  1    1    2    0    0 -1.0857645594e+03 +3.4766845402e+02 +2.7022098644e+03 2.9328648423e+03 0.0000000000e+00 0.0000e+00 -1.0000e+00
<mgrwt>
<rscale>  0 0.42637512E+04</rscale>
<asrwt>0</asrwt>
<pdfrwt beam="1">  1        2 0.46988430E+00 0.42637512E+04</pdfrwt>
<pdfrwt beam="2">  1       -2 0.22893177E+00 0.42637512E+04</pdfrwt>
<totfact> 0.11027451E-01</totfact>
</mgrwt>
<rwgt>
<wgt id='morphing_basis_vector_1'> +2.0336810e-05 </wgt>
<wgt id='morphing_basis_vector_2'> +1.3802095e-05 </wgt>
<wgt id='morphing_basis_vector_3'> +2.2352727e-05 </wgt>
<wgt id='morphing_basis_vector_4'> +1.6101463e-05 </wgt>
<wgt id='morphing_basis_vector_5'> +2.5688529e-05 </wgt>
</rwgt>
</event>
<event>
 4      1 +4.5322000e-10 3.97472400e+03 7.81860800e-03 7.54525700e-02
        2 -1    0    0  501    0 +0.0000000000e+00 +0.0000000000e+00 +1.4427896341e+03 1.4427896341e+03 0.0000000000e+00 0.0000e+00 -1.0000e+00
       -2 -1    0    0    0  501 -0.0000000000e+00 -0.0000000000e+00 -2.7374795831e+03 2.7374795831e+03 0.0000000000e+00 0.0000e+00 1.0000e+00
      -13  1    1    2    0    0 +5.6595897947e+02 +1.8949018597e+03 -8.5409300747e+02 2.1541674702e+03 0.0000000000e+00 0.0000e+00 1.0000e+00
       13  1    1    2    0    0 -5.6595897947e+02 -1.8949018597e+03 -4.4059694151e+02 2.0261017470e+03 0.0000000000e+00 0.0000e+00 -1.0000e+00
<mgrwt>
<rscale>  0 0.39747237E+04</rscale>
<asrwt>0</asrwt>
<pdfrwt beam="1">  1        2 0.22196764E+00 0.39747237E+04</pdfrwt>
<pdfrwt beam="2">  1       -2 0.42115070E+00 0.39747237E+04</pdfrwt>
<totfact> 0.52253178E-02</totfact>
</mgrwt>
<rwgt>
<wgt id='morphing_basis_vector_1'> +1.5767767e-05 </wgt>
<wgt id='morphing_basis_vector_2'> +1.1571080e-05 </wgt>
<wgt id='morphing_basis_vector_3'> +1.7505452e-05 </wgt>
<wgt id='morphing_basis_vector_4'> +1.1322492e-05 </wgt>
<wgt id='morphing_basis_vector_5'> +1.9305941e-05 </wgt>
</rwgt>
</event>
<event>
 4      1 +4.5322000e-10 4.05118800e+03 7.81860800e-03 7.53165300e-02
        2 -1    0    0  501    0 +0.0000000000e+00 +0.0000000000e+00 +1.8827664402e+03 1.8827664402e+03 0.0000000000e+00 0.0000e+00 -1.0000e+00
       -2 -1    0    0    0  501 -0.0000000000e+00 -0.0000000000e+00 -2.1792565011e+03 2.1792565011e+03 0.0000000000e+00 0.0000e+00 1.0000e+00
      -13  1    1    2    0    0 +2.2182988001e+02 -1.0182594793e+03 -1.8898332681e+03 2.1581312852e+03 0.0000000000e+00 0.0000e+00 1.0000e+00
       13  1    1    2    0    0 -2.2182988001e+02 +1.0182594793e+03 +1.5933432071e+03 1.9038916562e+03 0.0000000000e+00 0.0000e+00 -1.0000e+00
<mgrwt>
<rscale>  0 0.40511880E+04</rscale>
<asrwt>0</asrwt>
<pdfrwt beam="1">  1        2 0.28965638E+00 0.40511880E+04</pdfrwt>
<pdfrwt beam="2">  1       -2 0.33527023E+00 0.40511880E+04</pdfrwt>
<totfact> 0.10682720E-01</totfact>
</mgrwt>
<rwgt>
<wgt id='morphing_basis_vector_1'> +1.6590001e-05 </wgt>
<wgt id='morphing_basis_vector_2'> +1.1250827e-05 </wgt>
<wgt id='morphing_basis_vector_3'> +1.8217588e-05 </wgt>
<wgt id='morphing_basis_vector_4'> +1.3112462e-05 </wgt>
<wgt id='morphing_basis_vector_5'> +2.0916827e-05 </wgt>
</rwgt>
</event>
<event>
 4      1 +4.5322000e-10 3.93809800e+03 7.81860800e-03 7.55188400e-02
        2 -1    0    0  501    0 +0.0000000000e+00 +0.0000000000e+00 +3.5893043627e+03 3.5893043627e+03 0.0000000000e+00 0.0000e+00 1.0000e+00
       -2 -1    0    0    0  501 -0.0000000000e+00 -0.0000000000e+00 -1.0801963603e+03 1.0801963603e+03 0.0000000000e+00 0.0000e+00 -1.0000e+00
      -13  1    1    2    0    0 +1.2558764237e+03 +1.4924429910e+03 +9.3519568957e+02 2.1631464700e+03 0.0000000000e+00 0.0000e+00 1.0000e+00
       13  1    1    2    0    0 -1.2558764237e+03 -1.4924429910e+03 +1.5739123128e+03 2.5063542529e+03 0.0000000000e+00 0.0000e+00 -1.0000e+00
<mgrwt>
<rscale>  0 0.39380978E+04</rscale>
<asrwt>0</asrwt>
<pdfrwt beam="1">  1        2 0.55220067E+00 0.39380978E+04</pdfrwt>
<pdfrwt beam="2">  1       -2 0.16618406E+00 0.39380978E+04</pdfrwt>
<totfact> 0.13831495E-01</totfact>
</mgrwt>
<rwgt>
<wgt id='morphing_basis_vector_1'> +1.5146783e-05 </wgt>
<wgt id='morphing_basis_vector_2'> +1.1002346e-05 </wgt>
<wgt id='morphing_basis_vector_3'> +1.6787738e-05 </wgt>
<wgt id='morphing_basis_vector_4'> +1.1016137e-05 </wgt>
<wgt id='morphing_basis_vector_5'> +1.8609577e-05 </wgt>
</rwgt>
</event>
<event>
 4      1 +4.5322000e-10 3.98981800e+03 7.81860800e-03 7.54254700e-02
        2 -1    0    0  501    0 +0.0000000000e+00 +0.0000000000e+00 +1.9344713917e+03 1.9344713917e+03 0.0000000000e+00 0.0000e+00 1.0000e+00
       -2 -1    0    0    0  501 -0.0000000000e+00 -0.0000000000e+00 -2.0572347192e+03 2.0572347192e+03 0.0000000000e+00 0.0000e+00 -1.0000e+00
      -13  1    1    2    0    0 -3.6370152312e+01 +1.2063237510e+03 -1.6505672013e+03 2.0447278221e+03 0.0000000000e+00 0.0000e+00 -1.0000e+00
       13  1    1    2    0    0 +3.6370152312e+01 -1.2063237510e+03 +1.5278038738e+03 1.9469782888e+03 0.0000000000e+00 0.0000e+00 1.0000e+00
<mgrwt>
<rscale>  0 0.39898179E+04</rscale>
<asrwt>0</asrwt>
<pdfrwt beam="1">  1        2 0.29761098E+00 0.39898179E+04</pdfrwt>
<pdfrwt beam="2">  1       -2 0.31649765E+00 0.39898179E+04</pdfrwt>
<totfact> 0.13372607E-01</totfact>
</mgrwt>
<rwgt>
<wgt id='morphing_basis_vector_1'> +1.5616625e-05 </wgt>
<wgt id='morphing_basis_vector_2'> +1.0598775e-05 </wgt>
<wgt id='morphing_basis_vector_3'> +1.7146016e-05 </wgt>
<wgt id='morphing_basis_vector_4'> +1.2322786e-05 </wgt>
<wgt id='morphing_basis_vector_5'> +1.9671204e-05 </wgt>
</rwgt>
</event>
<event>
 4      1 +4.5322000e-10 3.85509100e+03 7.81860800e-03 7.56718000e-02
        2 -1    0    0  501    0 +0.0000000000e+00 +0.0000000000e+00 +3.0497552489e+03 3.0497552489e+03 0.0000000000e+00 0.0000e+00 1.0000e+00
       -2 -1    0    0    0  501 -0.0000000000e+00 -0.0000000000e+00 -1.2182722333e+03 1.2182722333e+03 0.0000000000e+00 0.0000e+00 -1.0000e+00
      -13  1    1    2    0    0 +1.4175453244e+03 +1.2689213143e+03 +1.2584754270e+03 2.2810866816e+03 0.0000000000e+00 0.0000e+00 1.0000e+00
       13  1    1    2    0    0 -1.4175453244e+03 -1.2689213143e+03 +5.7300758860e+02 1.9869408006e+03 0.0000000000e+00 0.0000e+00 -1.0000e+00
<mgrwt>
<rscale>  0 0.38550913E+04</rscale>
<asrwt>0</asrwt>
<pdfrwt beam="1">  1        2 0.46919311E+00 0.38550913E+04</pdfrwt>
<pdfrwt beam="2">  1       -2 0.18742650E+00 0.38550913E+04</pdfrwt>
<totfact> 0.22887706E-01</totfact>
</mgrwt>
<rwgt>
<wgt id='morphing_basis_vector_1'> +1.4492410e-05 </wgt>
<wgt id='morphing_basis_vector_2'> +1.1800583e-05 </wgt>
<wgt id='morphing_basis_vector_3'> +1.6339144e-05 </wgt>
<wgt id='morphing_basis_vector_4'> +8.8944819e-06 </wgt>
<wgt id='morphing_basis_vector_5'> +1.6980621e-05 </wgt>
</rwgt>
</event>
<event>
 4      1 +4.5322000e-10 4.09717300e+03 7.81860800e-03 7.52361700e-02
        2 -1    0    0  501    0 +0.0000000000e+00 +0.0000000000e+00 +3.0132073224e+03 3.0132073224e+03 0.0000000000e+00 0.0000e+00 -1.0000e+00
       -2 -1    0    0    0  501 -0.0000000000e+00 -0.0000000000e+00 -1.3927706459e+03 1.3927706459e+03 0.0000000000e+00 0.0000e+00 1.0000e+00
      -13  1    1    2    0    0 -1.2389429323e+03 +1.0618074965e+02 -9.4050713401e+02 1.5591047464e+03 0.0000000000e+00 0.0000e+00 1.0000e+00
       13  1    1    2    0    0 +1.2389429323e+03 -1.0618074965e+02 +2.5609438105e+03 2.8468732219e+03 0.0000000000e+00 0.0000e+00 -1.0000e+00
<mgrwt>
<rscale>  0 0.40971730E+04</rscale>
<asrwt>0</asrwt>
<pdfrwt beam="1">  1        2 0.46357036E+00 0.40971730E+04</pdfrwt>
<pdfrwt beam="2">  1       -2 0.21427241E+00 0.40971730E+04</pdfrwt>
<totfact> 0.15101974E-01</totfact>
</mgrwt>
<rwgt>
<wgt id='morphing_basis_vector_1'> +1.7357393e-05 </wgt>
<wgt id='morphing_basis_vector_2'> +1.1784341e-05 </wgt>
<wgt id='morphing_basis_vector_3'> +1.9066819e-05 </wgt>
<wgt id='morphing_basis_vector_4'> +1.3710152e-05 </wgt>
<wgt id='morphing_basis_vector_5'> +2.1886657e-05 </wgt>
</rwgt>
</event>
<event>
 4      1 +4.5322000e-10 4.29607900e+03 7.81860800e-03 7.49005400e-02
        2 -1    0    0  501    0 +0.0000000000e+00 +0.0000000000e+00 +2.2719025876e+03 2.2719025876e+03 0.0000000000e+00 0.0000e+00 -1.0000e+00
       -2 -1    0    0    0  501 -0.0000000000e+00 -0.0000000000e+00 -2.0309293795e+03 2.0309293795e+03 0.0000000000e+00 0.0000e+00 1.0000e+00
      -13  1    1    2    0    0 +1.7830843912e+02 +1.8448434483e+03 -9.6696057358e+02 2.0905152473e+03 0.0000000000e+00 0.0000e+00 1.0000e+00
       13  1    1    2    0    0 -1.7830843912e+02 -1.8448434483e+03 +1.2079337816e+03 2.2123167198e+03 0.0000000000e+00 0.0000e+00 -1.0000e+00
<mgrwt>
<rscale>  0 0.42960790E+04</rscale>
<asrwt>0</asrwt>
<pdfrwt beam="1">  1        2 0.34952347E+00 0.42960790E+04</pdfrwt>
<pdfrwt beam="2">  1       -2 0.31245068E+00 0.42960790E+04</pdfrwt>
<totfact> 0.89315926E-02</totfact>
</mgrwt>
<rwgt>
<wgt id='morphing_basis_vector_1'> +2.1043023e-05 </wgt>
<wgt id='morphing_basis_vector_2'> +1.4475128e-05 </wgt>
<wgt id='morphing_basis_vector_3'> +2.3175497e-05 </wgt>
<wgt id='morphing_basis_vector_4'> +1.6416741e-05 </wgt>
<wgt id='morphing_basis_vector_5'> +2.6464891e-05 </wgt>
</rwgt>
</event>
<event>
 4      1 +4.5322000e-10 4.02787600e+03 7.81860800e-03 7.53576800e-02
        2 -1    0    0  501    0 +0.0000000000e+00 +0.0000000000e+00 +3.1794321617e+03 3.1794321617e+03 0.0000000000e+00 0.0000e+00 -1.0000e+00
       -2 -1    0    0    0  501 -0.0000000000e+00 -0.0000000000e+00 -1.2756824455e+03 1.2756824455e+03 0.0000000000e+00 0.0000e+00 1.0000e+00
      -13  1    1    2    0    0 +7.8077483560e+02 +4.9697817292e+02 -1.0265229974e+03 1.3821527095e+03 0.0000000000e+00 0.0000e+00 1.0000e+00
       13  1    1    2    0    0 -7.8077483560e+02 -4.9697817292e+02 +2.9302727136e+03 3.0729618976e+03 0.0000000000e+00 0.0000e+00 -1.0000e+00
<mgrwt>
<rscale>  0 0.40278758E+04</rscale>
<asrwt>0</asrwt>
<pdfrwt beam="1">  1        2 0.48914341E+00 0.40278758E+04</pdfrwt>
<pdfrwt beam="2">  1       -2 0.19625884E+00 0.40278758E+04</pdfrwt>
<totfact> 0.15898775E-01</totfact>
</mgrwt>
<rwgt>
<wgt id='morphing_basis_vector_1'> +1.6211731e-05 </wgt>
<wgt id='morphing_basis_vector_2'> +1.0989974e-05 </wgt>
<wgt id='morphing_basis_vector_3'> +1.7799486e-05 </wgt>
<wgt id='morphing_basis_vector_4'> +1.2815158e-05 </wgt>
<wgt id='morphing_basis_vector_5'> +2.0437492e-05 </wgt>
</rwgt>
</event>
<event>
 4      1 +4.5322000e-10 4.16074100e+03 7.81860800e-03 7.51268400e-02
        2 -1    0    0  501    0 +0.0000000000e+00 +0.0000000000e+00 +3.0756848774e+03 3.0756848774e+03 0.0000000000e+00 0.0000e+00 -1.0000e+00
       -2 -1    0    0    0  501 -0.0000000000e+00 -0.0000000000e+00 -1.4071473510e+03 1.4071473510e+03 0.0000000000e+00 0.0000e+00 1.0000e+00
      -13  1    1    2    0    0 -1.1566623749e+03 +8.5744491274e+02 -7.8359439570e+02 1.6392375682e+03 0.0000000000e+00 0.0000e+00 1.0000e+00
       13  1    1    2    0    0 +1.1566623749e+03 -8.5744491274e+02 +2.4521319221e+03 2.8435946602e+03 0.0000000000e+00 0.0000e+00 -1.0000e+00
<mgrwt>
<rscale>  0 0.41607412E+04</rscale>
<asrwt>0</asrwt>
<pdfrwt beam="1">  1        2 0.47318229E+00 0.41607412E+04</pdfrwt>
<pdfrwt beam="2">  1       -2 0.21648421E+00 0.41607412E+04</pdfrwt>
<totfact> 0.13179995E-01</totfact>
</mgrwt>
<rwgt>
<wgt id='morphing_basis_vector_1'> +1.8464227e-05 </wgt>
<wgt id='morphing_basis_vector_2'> +1.2560105e-05 </wgt>
<wgt id='morphing_basis_vector_3'> +2.0293244e-05 </wgt>
<wgt id='morphing_basis_vector_4'> +1.4564414e-05 </wgt>
<wgt id='morphing_basis_vector_5'> +2.3281845e-05 </wgt>
</rwgt>
</event>
<event>
 4      1 +4.5322000e-10 4.06096700e+03 7.81860800e-03 7.52993500e-02
        2 -1    0    0  501    0 +0.0000000000e+00 +0.0000000000e+00 +3.2227133900e+03 3.2227133900e+03 0.0000000000e+00 0.0000e+00 -1.0000e+00
       -2 -1    0    0    0  501 -0.0000000000e+00 -0.0000000000e+00 -1.2793144927e+03 1.2793144927e+03 0.0000000000e+00 0.0000e+00 1.0000e+00
      -13  1    1    2    0    0 -9.5194641301e+02 -6.5445375171e+02 -8.7949697364e+02 1.4519044779e+03 0.0000000000e+00 0.0000e+00 1.0000e+00
       13  1    1    2    0    0 +9.5194641301e+02 +6.5445375171e+02 +2.8228958710e+03 3.0501234048e+03 0.0000000000e+00 0.0000e+00 -1.0000e+00
<mgrwt>
<rscale>  0 0.40609673E+04</rscale>
<asrwt>0</asrwt>
<pdfrwt beam="1">  1        2 0.49580206E+00 0.40609673E+04</pdfrwt>
<pdfrwt beam="2">  1       -2 0.19681762E+00 0.40609673E+04</pdfrwt>
<totfact> 0.14676594E-01</totfact>
</mgrwt>
<rwgt>
<wgt id='morphing_basis_vector_1'> +1.6752433e-05 </wgt>
<wgt id='morphing_basis_vector_2'> +1.1366891e-05 </wgt>
<wgt id='morphing_basis_vector_3'> +1.8398033e-05 </wgt>
<wgt id='morphing_basis_vector_4'> +1.3234914e-05 </wgt>
<wgt id='morphing_basis_vector_5'> +2.1120077e-05 </wgt>
</rwgt>
</event>
</LesHouchesEvents>
