<LesHouchesEvents version="3.0">
<header>
<!--
#*********************************************************************
#                                                                    *
#                        MadGraph5_aMC@NLO                           *
#                                                                    *
#                           Going Beyond                             *
#                                                                    *
#                   http://madgraph.hep.uiuc.edu                     *
#                   http://madgraph.phys.ucl.ac.be                   *
#                   http://amcatnlo.cern.ch                          *
#                                                                    *
#                     The MadGraph5_aMC@NLO team                     *
#                                                                    *
#....................................................................*
#                                                                    *
# This file contains all the information necessary to reproduce      *
# the events generated:                                              *
#                                                                    *
# 1. software version                                                *
# 2. proc_card          : code generation info including model       *
# 3. param_card         : model primary parameters in the LH format  *
# 4. run_card           : running parameters (collider and cuts)     *
# 5. pythia_card        : present only if pythia has been run        *
# 6. pgs_card           : present only if pgs has been run           *
# 7. delphes_cards      : present only if delphes has been run       *
#                                                                    *
#                                                                    *
#*********************************************************************
-->
<MGVersion>
2.6.4
</MGVersion>
<MG5ProcCard>
<![CDATA[
#************************************************************
#*                     MadGraph5_aMC@NLO                    *
#*                                                          *
#*                *                       *                 *
#*                  *        * *        *                   *
#*                    * * * * 5 * * * *                     *
#*                  *        * *        *                   *
#*                *                       *                 *
#*                                                          *
#*                                                          *
#*         VERSION 2.6.4                 2018-11-09         *
#*                                                          *
#*    The MadGraph5_aMC@NLO Development Team - Find us at   *
#*    https://server06.fynu.ucl.ac.be/projects/madgraph     *
#*                                                          *
#************************************************************
#*                                                          *
#*               Command File for MadGraph5_aMC@NLO         *
#*                                                          *
#*     run as ./bin/mg5_aMC  filename                       *
#*                                                          *
#************************************************************
set default_unset_couplings 99
set group_subprocesses Auto
set ignore_six_quark_processes False
set loop_optimized_output True
set loop_color_flows False
set gauge unitary
set complex_mass_scheme False
set max_npoint_for_channel 0
import model SM4fLL_UFO
define p = g u c d s u~ c~ d~ s~
define j = g u c d s u~ c~ d~ s~
define l+ = e+ mu+
define l- = e- mu-
define vl = ve vm vt
define vl~ = ve~ vm~ vt~
generate u u~ > mu+ mu- NP=2 QED=99 QCD=0
output /Users/dpappadopulo/Projects/~Physics/madminer/examples/example\
4_systematics_DY/data/mg_processes/DY_sys/
]]>
</MG5ProcCard>
<MGProcCard>
#*********************************************************************
#                        MadGraph/MadEvent                           *
#                   http://madgraph.hep.uiuc.edu                     *
#                                                                    *
#                          proc_card.dat                             *
#*********************************************************************
#                                                                    *
#            This Files is generated by MADGRAPH 5                   *
#                                                                    *
# WARNING: This Files is generated for MADEVENT (compatibility issue)*
#          This files is NOT a valid MG4 proc_card.dat               *
#          Running this in MG4 will NEVER reproduce the result of MG5*
#                                                                    *
#*********************************************************************
#*********************************************************************
# Process(es) requested : mg2 input                                  *
#*********************************************************************
# Begin PROCESS # This is TAG. Do not modify this line
u u~ > mu+ mu-           #Process
# Be carefull the coupling are here in MG5 convention
NP=2
QED=99
QCD=0
          
end_coup           # End the couplings input

done               # this tells MG there are no more procs
# End PROCESS  # This is TAG. Do not modify this line
#*********************************************************************
# Model information                                                  *
#*********************************************************************
# Begin MODEL  # This is TAG. Do not modify this line
SM4fLL_UFO
# End   MODEL  # This is TAG. Do not modify this line
#*********************************************************************
# Start multiparticle definitions                                    *
#*********************************************************************
# Begin MULTIPARTICLES # This is TAG. Do not modify this line

# End  MULTIPARTICLES # This is TAG. Do not modify this line
</MGProcCard>
<MGRunCard>
<![CDATA[
#*********************************************************************
#                       MadGraph5_aMC@NLO                            *
#                                                                    *
#                     run_card.dat MadEvent                          *
#                                                                    *
#  This file is used to set the parameters of the run.               *
#                                                                    *
#  Some notation/conventions:                                        *
#                                                                    *
#   Lines starting with a '# ' are info or comments                  *
#                                                                    *
#   mind the format:   value    = variable     ! comment             *
#*********************************************************************
#
#*******************                                                 
# Running parameters
#*******************                                                 
#                                                                    
#*********************************************************************
# Tag name for the run (one word)                                    *
#*********************************************************************
  tag_1     = run_tag ! name of the run 
#*********************************************************************
# Run to generate the grid pack                                      *
#*********************************************************************
  False     = gridpack  !True = setting up the grid pack
#*********************************************************************
# Number of events and rnd seed                                      *
# Warning: Do not generate more than 1M events in a single run       *
# If you want to run Pythia, avoid more than 50k events in a run.    *
#*********************************************************************
  1000 = nevents ! Number of unweighted events requested
 48 = iseed   ! rnd seed (0=assigned automatically=default))
#*********************************************************************
# Collider type and energy                                           *
# lpp: 0=No PDF, 1=proton, -1=antiproton, 2=photon from proton,      *
#                                         3=photon from electron     *
#*********************************************************************
     1        = lpp1    ! beam 1 type 
     1        = lpp2    ! beam 2 type
     6500.0     = ebeam1  ! beam 1 total energy in GeV
     6500.0     = ebeam2  ! beam 2 total energy in GeV
#*********************************************************************
# Beam polarization from -100 (left-handed) to 100 (right-handed)    *
#*********************************************************************
     0.0     = polbeam1 ! beam polarization for beam 1
     0.0     = polbeam2 ! beam polarization for beam 2
#*********************************************************************
# PDF CHOICE: this automatically fixes also alpha_s and its evol.    *
#*********************************************************************
     lhapdf    = pdlabel     ! PDF set
     90900   = lhaid     ! if pdlabel=lhapdf, this is the lhapdf number
#*********************************************************************
# Renormalization and factorization scales                           *
#*********************************************************************
 False = fixed_ren_scale  ! if .true. use fixed ren scale
 False        = fixed_fac_scale  ! if .true. use fixed fac scale
 91.188  = scale            ! fixed ren scale
 91.188  = dsqrt_q2fact1    ! fixed fact scale for pdf1
 91.188  = dsqrt_q2fact2    ! fixed fact scale for pdf2
 -1 = dynamical_scale_choice ! Choose one of the preselected dynamical choices
 1.0  = scalefact        ! scale factor for event-by-event scales
#*********************************************************************
# Type and output format
#*********************************************************************
  False     = gridpack  !True = setting up the grid pack
  -1.0 = time_of_flight ! threshold (in mm) below which the invariant livetime is not written (-1 means not written)
  3.0 = lhe_version       ! Change the way clustering information pass to shower.        
  True = clusinfo         ! include clustering tag in output
  sum =  event_norm       ! average/sum. Normalization of the weight in the LHEF
#*********************************************************************
# Matching - Warning! ickkw > 1 is still beta
#*********************************************************************
 0 = ickkw            ! 0 no matching, 1 MLM, 2 CKKW matching
 1 = highestmult      ! for ickkw=2, highest mult group
 1 = ktscheme         ! for ickkw=1, 1 Durham kT, 2 Pythia pTE
 1.0 = alpsfact         ! scale factor for QCD emission vx
 False = chcluster        ! cluster only according to channel diag
 True = pdfwgt           ! for ickkw=1, perform pdf reweighting
 4 = asrwgtflavor     ! highest quark flavor for a_s reweight    
#*********************************************************************
#**********************************************************
#
#**********************************************************
# Automatic ptj and mjj cuts if xqcut > 0
# (turn off for VBF and single top processes)
#**********************************************************
   False  = auto_ptj_mjj  ! Automatic setting of ptj and mjj
#**********************************************************
#                                                                    
#**********************************
# BW cutoff (M+/-bwcutoff*Gamma)
#**********************************
  15.0  = bwcutoff      ! (M+/-bwcutoff*Gamma)
#**********************************************************
# Apply pt/E/eta/dr/mij/kt_durham cuts on decay products or not
# (note that etmiss/ptll/ptheavy/ht/sorted cuts always apply)
#*************************************************************
   False  = cut_decays    ! Cut decay products 
#*************************************************************
# Number of helicities to sum per event (0 = all helicities)
# 0 gives more stable result, but longer run time (needed for
# long decay chains e.g.).
# Use >=2 if most helicities contribute, e.g. pure QCD.
#*************************************************************
   0  = nhel          ! Number of helicities used per event
#*******************                                                 
# Standard Cuts
#*******************                                                 
#                                                                    
#*********************************************************************
# Minimum and maximum pt's (for max, -1 means no cut)                *
#*********************************************************************
 15.0  = ptj       ! minimum pt for the jets
 0.0  = ptb       ! minimum pt for the b 
 0.0 = pta       ! minimum pt for the photons
 25.0  = ptl       ! minimum pt for the charged leptons
 0.0  = misset    ! minimum missing Et (sum of neutrino's momenta)
 0.0  = ptheavy   ! minimum pt for one heavy final state
 -1.0  = ptjmax    ! maximum pt for the jets
 -1.0  = ptbmax    ! maximum pt for the b
 -1.0 = ptamax       ! maximum pt for the photons
 -1.0  = ptlmax    ! maximum pt for the charged leptons
 -1.0  = missetmax ! maximum missing Et (sum of neutrino's momenta)
#*********************************************************************
# Minimum and maximum E's (in the center of mass frame)              *
#*********************************************************************
  0.0  = ej     ! minimum E for the jets 
  0.0  = eb     ! minimum E for the b 
  0.0  = ea     ! minimum E for the photons 
  0.0  = el     ! minimum E for the charged leptons 
  -1.0   = ejmax ! maximum E for the jets
 -1.0   = ebmax ! maximum E for the b
 -1.0   = eamax ! maximum E for the photons
 -1.0   = elmax ! maximum E for the charged leptons
#*********************************************************************
# Maximum and minimum absolute rapidity (for max, -1 means no cut)   *
#*********************************************************************
 2.5 = etaj    ! max rap for the jets
  -1.0  = etab    ! max rap for the b
 3.0  = etaa    ! max rap for the photons
 2.5  = etal    ! max rap for the charged leptons
 0.0  = etajmin ! min rap for the jets
 0.0  = etabmin ! min rap for the b
 0.0  = etaamin ! min rap for the photons
 0.0  = etalmin ! main rap for the charged leptons
#*********************************************************************
# Minimum and maximum DeltaR distance                                *
#*********************************************************************
 0.0 = drjj    ! min distance between jets
 0.0 = drbb    ! min distance between b's
 0.0 = drll    ! min distance between leptons
 0.0 = draa    ! min distance between gammas
 0.0 = drbj    ! min distance between b and jet
 0.0 = draj    ! min distance between gamma and jet
 0.0 = drjl    ! min distance between jet and lepton
 0.0 = drab    ! min distance between gamma and b
 0.0 = drbl    ! min distance between b and lepton
 0.0 = dral    ! min distance between gamma and lepton
 -1.0  = drjjmax ! max distance between jets
 -1.0  = drbbmax ! max distance between b's
 -1.0  = drllmax ! max distance between leptons
 -1.0  = draamax ! max distance between gammas
 -1.0  = drbjmax ! max distance between b and jet
 -1.0  = drajmax ! max distance between gamma and jet
 -1.0  = drjlmax ! max distance between jet and lepton
 -1.0  = drabmax ! max distance between gamma and b
 -1.0  = drblmax ! max distance between b and lepton
 -1.0  = dralmax ! maxdistance between gamma and lepton
#*********************************************************************
# Minimum and maximum invariant mass for pairs                       *
# WARNING: for four lepton final state mmll cut require to have      *
#          different lepton masses for each flavor!                  *           
#*********************************************************************
 0.0   = mmjj    ! min invariant mass of a jet pair 
 0.0   = mmbb    ! min invariant mass of a b pair 
 0.0   = mmaa    ! min invariant mass of gamma gamma pair
 520   = mmll    ! min invariant mass of l+l- (same flavour) lepton pair
 -1.0  = mmjjmax ! max invariant mass of a jet pair
 -1.0  = mmbbmax ! max invariant mass of a b pair
 -1.0  = mmaamax ! max invariant mass of gamma gamma pair
 620  = mmllmax ! max invariant mass of l+l- (same flavour) lepton pair
#*********************************************************************
# Minimum and maximum invariant mass for all letpons                 *
#*********************************************************************
 0.0   = mmnl    ! min invariant mass for all letpons (l+- and vl) 
 -1.0  = mmnlmax ! max invariant mass for all letpons (l+- and vl) 
#*********************************************************************
# Minimum and maximum pt for 4-momenta sum of leptons                *
#*********************************************************************
 0.0   = ptllmin  ! Minimum pt for 4-momenta sum of leptons(l and vl)
 -1.0  = ptllmax  ! Maximum pt for 4-momenta sum of leptons(l and vl)
#*********************************************************************
# Inclusive cuts                                                     *
#*********************************************************************
 0.0  = xptj ! minimum pt for at least one jet  
 0.0  = xptb ! minimum pt for at least one b 
 0.0  = xpta ! minimum pt for at least one photon 
 0.0  = xptl ! minimum pt for at least one charged lepton 
#*********************************************************************
# Control the pt's of the jets sorted by pt                          *
#*********************************************************************
 0.0   = ptj1min ! minimum pt for the leading jet in pt
 0.0   = ptj2min ! minimum pt for the second jet in pt
 0.0   = ptj3min ! minimum pt for the third jet in pt
 0.0   = ptj4min ! minimum pt for the fourth jet in pt
 -1.0  = ptj1max ! maximum pt for the leading jet in pt 
 -1.0  = ptj2max ! maximum pt for the second jet in pt
 -1.0  = ptj3max ! maximum pt for the third jet in pt
 -1.0  = ptj4max ! maximum pt for the fourth jet in pt
 0   = cutuse  ! reject event if fails any (0) / all (1) jet pt cuts
#*********************************************************************
# Control the pt's of leptons sorted by pt                           *
#*********************************************************************
 0.0   = ptl1min ! minimum pt for the leading lepton in pt
 0.0   = ptl2min ! minimum pt for the second lepton in pt
 0.0   = ptl3min ! minimum pt for the third lepton in pt
 0.0   = ptl4min ! minimum pt for the fourth lepton in pt
 -1.0  = ptl1max ! maximum pt for the leading lepton in pt 
 -1.0  = ptl2max ! maximum pt for the second lepton in pt
 -1.0  = ptl3max ! maximum pt for the third lepton in pt
 -1.0  = ptl4max ! maximum pt for the fourth lepton in pt
#*********************************************************************
# Control the Ht(k)=Sum of k leading jets                            *
#*********************************************************************
 0.0   = htjmin ! minimum jet HT=Sum(jet pt)
 -1.0  = htjmax ! maximum jet HT=Sum(jet pt)
 0.0   = ihtmin  !inclusive Ht for all partons (including b)
 -1.0  = ihtmax  !inclusive Ht for all partons (including b)
 0.0   = ht2min ! minimum Ht for the two leading jets
 0.0   = ht3min ! minimum Ht for the three leading jets
 0.0   = ht4min ! minimum Ht for the four leading jets
 -1.0  = ht2max ! maximum Ht for the two leading jets
 -1.0  = ht3max ! maximum Ht for the three leading jets
 -1.0  = ht4max ! maximum Ht for the four leading jets
#***********************************************************************
# Photon-isolation cuts, according to hep-ph/9801442                   *
# When ptgmin=0, all the other parameters are ignored                  *
# When ptgmin>0, pta and draj are not going to be used                 *
#***********************************************************************
 0.0 = ptgmin ! Min photon transverse momentum
 0.4 = R0gamma ! Radius of isolation code
 1.0 = xn ! n parameter of eq.(3.4) in hep-ph/9801442
 1.0 = epsgamma ! epsilon_gamma parameter of eq.(3.4) in hep-ph/9801442
 True = isoEM ! isolate photons from EM energy (photons and leptons)
#*********************************************************************
# WBF cuts                                                           *
#*********************************************************************
 0.0   = xetamin ! minimum rapidity for two jets in the WBF case  
 0.0   = deltaeta ! minimum rapidity for two jets in the WBF case 
#*********************************************************************
# KT DURHAM CUT                                                      *
#*********************************************************************
 -1.0    =  ktdurham        
 0.4  =  dparameter 
#*********************************************************************
# maximal pdg code for quark to be considered as a light jet         *
# (otherwise b cuts are applied)                                     *
#*********************************************************************
 4 = maxjetflavor    ! Maximum jet pdg code
#*********************************************************************
# Jet measure cuts                                                   *
#*********************************************************************
 0.0   = xqcut   ! minimum kt jet measure between partons
#*********************************************************************
#
#*********************************************************************
# Store info for systematics studies                                 *
# WARNING: If use_syst is T, matched Pythia output is                *
#          meaningful ONLY if plotted taking matchscale              *
#          reweighting into account!                                 *
#*********************************************************************
#    False  = use_syst      ! Enable systematics studies # Commented out by MadMiner
#
#**************************************
# Parameter of the systematics study
#  will be used by SysCalc (if installed)
#**************************************                                  
#
0.5 1 2 = sys_scalefact  # factorization/renormalization scale factor
None = sys_alpsfact  # \alpha_s emission scale factors
30 50 = sys_matchscale # variation of merging scale
# PDF sets and number of members (0 or none for all members).
NNPDF23_lo_as_0130_qed = sys_pdf # matching scales
# MSTW2008nlo68cl.LHgrid 1  = sys_pdf


#*********************************************************************
# MadMiner systematics setup                                         *
#*********************************************************************
True = use_syst
systematics = systematics_program
['--pdf=90900'] = systematics_arguments
]]>
</MGRunCard>
<slha>
######################################################################
## PARAM_CARD AUTOMATICALY GENERATED BY MG5 FOLLOWING UFO MODEL   ####
######################################################################
##                                                                  ##
##  Width set on Auto will be computed following the information    ##
##        present in the decay.py files of the model.               ##
##        See  arXiv:1402.1178 for more details.                    ##
##                                                                  ##
######################################################################

###################################
## INFORMATION FOR CKMBLOCK
###################################
Block ckmblock 
    1 2.277360e-01 # cabi 

###################################
## INFORMATION FOR MASS
###################################
Block mass 
    5 4.700000e+00 # MB 
    6 1.720000e+02 # MT 
   15 1.777000e+00 # MTA 
   23 9.118760e+01 # MZ 
   25 1.250000e+02 # MH 
## Dependent parameters, given by model restrictions.
## Those values should be edited following the 
## analytical expression. MG5 ignores those values 
## but they are important for interfacing the output of MG5
## to external program such as Pythia.
  1 0.000000 # d : 0.0 
  2 0.000000 # u : 0.0 
  3 0.000000 # s : 0.0 
  4 0.000000 # c : 0.0 
  11 0.000000 # e- : 0.0 
  12 0.000000 # ve : 0.0 
  13 0.000000 # mu- : 0.0 
  14 0.000000 # vm : 0.0 
  16 0.000000 # vt : 0.0 
  21 0.000000 # g : 0.0 
  22 0.000000 # a : 0.0 
  24 79.824360 # w+ : cmath.sqrt(MZ__exp__2/2. + cmath.sqrt(MZ__exp__4/4. - (aEW*cmath.pi*MZ__exp__2)/(Gf*sqrt__2))) 

###################################
## INFORMATION FOR OBLIQUE
###################################
Block oblique 
    1    0.0    # MadMiner
    2    0.0    # MadMiner

###################################
## INFORMATION FOR SMINPUTS
###################################
Block sminputs 
    1 1.279000e+02 # aEWM1 
    2 1.166370e-05 # Gf 
    3 1.184000e-01 # aS 

###################################
## INFORMATION FOR YUKAWA
###################################
Block yukawa 
    5 4.700000e+00 # ymb 
    6 1.720000e+02 # ymt 
   15 1.777000e+00 # ymtau 

###################################
## INFORMATION FOR DECAY
###################################
DECAY   6 1.508336e+00 # WT 
DECAY  23 2.495200e+00 # WZ 
DECAY  24 2.085000e+00 # WW 
DECAY  25 4.070000e-03 # WH 
## Dependent parameters, given by model restrictions.
## Those values should be edited following the 
## analytical expression. MG5 ignores those values 
## but they are important for interfacing the output of MG5
## to external program such as Pythia.
DECAY  1 0.000000 # d : 0.0 
DECAY  2 0.000000 # u : 0.0 
DECAY  3 0.000000 # s : 0.0 
DECAY  4 0.000000 # c : 0.0 
DECAY  5 0.000000 # b : 0.0 
DECAY  11 0.000000 # e- : 0.0 
DECAY  12 0.000000 # ve : 0.0 
DECAY  13 0.000000 # mu- : 0.0 
DECAY  14 0.000000 # vm : 0.0 
DECAY  15 0.000000 # ta- : 0.0 
DECAY  16 0.000000 # vt : 0.0 
DECAY  21 0.000000 # g : 0.0 
DECAY  22 0.000000 # a : 0.0
</slha>
<initrwgt>
<weightgroup name='mg_reweighting' weight_name_strategy='includeIdInWeightName'>
<weight id='morphing_basis_vector_1'>set param_card oblique 1 -0.06391685 # orig: 0.0
set param_card oblique 2 -0.08653588 # orig: 0.0
</weight>
<weight id='morphing_basis_vector_2'>set param_card oblique 1 0.0342439 # orig: 0.0
set param_card oblique 2 -0.09831893 # orig: 0.0
</weight>
<weight id='morphing_basis_vector_3'>set param_card oblique 1 -0.08145691 # orig: 0.0
set param_card oblique 2 0.09700122 # orig: 0.0
</weight>
<weight id='morphing_basis_vector_4'>set param_card oblique 1 0.09132942 # orig: 0.0
set param_card oblique 2 -0.005442744 # orig: 0.0
</weight>
<weight id='morphing_basis_vector_5'>set param_card oblique 1 0.08535809 # orig: 0.0
set param_card oblique 2 0.08156918 # orig: 0.0
</weight>
</weightgroup>
</initrwgt>
<MGGenerationInfo>
#  Number of Events        :       1000
#  Integrated weight (pb)  :       0.0101531
</MGGenerationInfo>
</header>
<init>
2212 2212 6.500000e+03 6.500000e+03 0 0 90900 90900 -3 1
1.015310e-02 6.365261e-05 1.015310e-05 1
<generator name='MadGraph5_aMC@NLO' version='2.6.4'>please cite 1405.0301 </generator>
</init>
<event>
 4      1 +1.0153100e-05 5.87653600e+02 7.81860800e-03 9.22257400e-02
        2 -1    0    0  501    0 +0.0000000000e+00 +0.0000000000e+00 +1.4459166799e+03 1.4459166799e+03 0.0000000000e+00 0.0000e+00 -1.0000e+00
       -2 -1    0    0    0  501 -0.0000000000e+00 -0.0000000000e+00 -5.9708968331e+01 5.9708968331e+01 0.0000000000e+00 0.0000e+00 1.0000e+00
      -13  1    1    2    0    0 +2.2795360597e+02 +1.4319489239e+02 +3.9140052241e+02 4.7503893801e+02 0.0000000000e+00 0.0000e+00 1.0000e+00
       13  1    1    2    0    0 -2.2795360597e+02 -1.4319489239e+02 +9.9480718918e+02 1.0305867102e+03 0.0000000000e+00 0.0000e+00 -1.0000e+00
<mgrwt>
<rscale>  0 0.58765362E+03</rscale>
<asrwt>0</asrwt>
<pdfrwt beam="1">  1        2 0.22244869E+00 0.58765362E+03</pdfrwt>
<pdfrwt beam="2">  1       -2 0.91859962E-02 0.58765362E+03</pdfrwt>
<totfact> 0.12046702E+03</totfact>
</mgrwt>
<rwgt>
<wgt id='morphing_basis_vector_1'> +2.5168692e-04 </wgt>
<wgt id='morphing_basis_vector_2'> +1.4658421e-04 </wgt>
<wgt id='morphing_basis_vector_3'> +1.9617799e-04 </wgt>
<wgt id='morphing_basis_vector_4'> +8.1785616e-05 </wgt>
<wgt id='morphing_basis_vector_5'> +1.2453988e-04 </wgt>
</rwgt>
</event>
<event>
 4      1 +1.0153100e-05 5.65167100e+02 7.81860800e-03 9.26473400e-02
        2 -1    0    0  501    0 +0.0000000000e+00 +0.0000000000e+00 +2.4854765784e+03 2.4854765784e+03 0.0000000000e+00 0.0000e+00 1.0000e+00
       -2 -1    0    0    0  501 -0.0000000000e+00 -0.0000000000e+00 -3.2128030738e+01 3.2128030738e+01 0.0000000000e+00 0.0000e+00 -1.0000e+00
      -13  1    1    2    0    0 -4.9730546276e+01 +2.7816847187e+02 +1.2194337240e+03 1.2517465531e+03 0.0000000000e+00 0.0000e+00 -1.0000e+00
       13  1    1    2    0    0 +4.9730546276e+01 -2.7816847187e+02 +1.2339148236e+03 1.2658580560e+03 0.0000000000e+00 0.0000e+00 1.0000e+00
<mgrwt>
<rscale>  0 0.56516712E+03</rscale>
<asrwt>0</asrwt>
<pdfrwt beam="1">  1        2 0.38238086E+00 0.56516712E+03</pdfrwt>
<pdfrwt beam="2">  1       -2 0.49427759E-02 0.56516712E+03</pdfrwt>
<totfact> 0.83166086E+02</totfact>
</mgrwt>
<rwgt>
<wgt id='morphing_basis_vector_1'> +2.2792284e-04 </wgt>
<wgt id='morphing_basis_vector_2'> +1.4641133e-04 </wgt>
<wgt id='morphing_basis_vector_3'> +1.6886667e-04 </wgt>
<wgt id='morphing_basis_vector_4'> +6.3695443e-05 </wgt>
<wgt id='morphing_basis_vector_5'> +1.0157915e-04 </wgt>
</rwgt>
</event>
<event>
 4      1 +1.0153100e-05 5.76085400e+02 7.81860800e-03 9.24400800e-02
        2 -1    0    0  501    0 +0.0000000000e+00 +0.0000000000e+00 +3.3721509712e+02 3.3721509712e+02 0.0000000000e+00 0.0000e+00 1.0000e+00
       -2 -1    0    0    0  501 -0.0000000000e+00 -0.0000000000e+00 -2.4604055426e+02 2.4604055426e+02 0.0000000000e+00 0.0000e+00 -1.0000e+00
      -13  1    1    2    0    0 +1.3766912401e+02 +2.3679404171e+02 -4.4653376948e+01 2.7752140452e+02 0.0000000000e+00 0.0000e+00 -1.0000e+00
       13  1    1    2    0    0 -1.3766912401e+02 -2.3679404171e+02 +1.3582791981e+02 3.0573424685e+02 0.0000000000e+00 0.0000e+00 1.0000e+00
<mgrwt>
<rscale>  0 0.57608537E+03</rscale>
<asrwt>0</asrwt>
<pdfrwt beam="1">  1        2 0.51879246E-01 0.57608537E+03</pdfrwt>
<pdfrwt beam="2">  1       -2 0.37852393E-01 0.57608537E+03</pdfrwt>
<totfact> 0.75721697E+02</totfact>
</mgrwt>
<rwgt>
<wgt id='morphing_basis_vector_1'> +2.3688981e-04 </wgt>
<wgt id='morphing_basis_vector_2'> +1.3942428e-04 </wgt>
<wgt id='morphing_basis_vector_3'> +1.8203719e-04 </wgt>
<wgt id='morphing_basis_vector_4'> +7.3630935e-05 </wgt>
<wgt id='morphing_basis_vector_5'> +1.1228000e-04 </wgt>
</rwgt>
</event>
<event>
 4      1 +1.0153100e-05 5.58074500e+02 7.81860800e-03 9.27846600e-02
        2 -1    0    0  501    0 +0.0000000000e+00 +0.0000000000e+00 +1.8789996677e+03 1.8789996677e+03 0.0000000000e+00 0.0000e+00 1.0000e+00
       -2 -1    0    0    0  501 -0.0000000000e+00 -0.0000000000e+00 -4.1437887761e+01 4.1437887761e+01 0.0000000000e+00 0.0000e+00 -1.0000e+00
      -13  1    1    2    0    0 -2.3817705406e+02 -8.6759040346e+01 +1.3201820770e+03 1.3442976443e+03 0.0000000000e+00 0.0000e+00 -1.0000e+00
       13  1    1    2    0    0 +2.3817705406e+02 +8.6759040346e+01 +5.1737970293e+02 5.7613991110e+02 0.0000000000e+00 0.0000e+00 1.0000e+00
<mgrwt>
<rscale>  0 0.55807447E+03</rscale>
<asrwt>0</asrwt>
<pdfrwt beam="1">  1        2 0.28907681E+00 0.55807447E+03</pdfrwt>
<pdfrwt beam="2">  1       -2 0.63750611E-02 0.55807447E+03</pdfrwt>
<totfact> 0.12316579E+03</totfact>
</mgrwt>
<rwgt>
<wgt id='morphing_basis_vector_1'> +2.4096287e-04 </wgt>
<wgt id='morphing_basis_vector_2'> +2.0863975e-04 </wgt>
<wgt id='morphing_basis_vector_3'> +1.5769895e-04 </wgt>
<wgt id='morphing_basis_vector_4'> +4.6100411e-05 </wgt>
<wgt id='morphing_basis_vector_5'> +9.5410281e-05 </wgt>
</rwgt>
</event>
<event>
 4      1 +1.0153100e-05 5.45010400e+02 7.81860800e-03 9.30433600e-02
        2 -1    0    0  501    0 +0.0000000000e+00 +0.0000000000e+00 +8.5725357799e+02 8.5725357799e+02 0.0000000000e+00 0.0000e+00 -1.0000e+00
       -2 -1    0    0    0  501 -0.0000000000e+00 -0.0000000000e+00 -8.6624411900e+01 8.6624411900e+01 0.0000000000e+00 0.0000e+00 1.0000e+00
      -13  1    1    2    0    0 +2.6771870512e+02 +4.1688354440e+01 +4.3574283581e+02 5.1311114092e+02 0.0000000000e+00 0.0000e+00 1.0000e+00
       13  1    1    2    0    0 -2.6771870512e+02 -4.1688354440e+01 +3.3488633028e+02 4.3076684897e+02 0.0000000000e+00 0.0000e+00 -1.0000e+00
<mgrwt>
<rscale>  0 0.54501041E+03</rscale>
<asrwt>0</asrwt>
<pdfrwt beam="1">  1        2 0.13188516E+00 0.54501041E+03</pdfrwt>
<pdfrwt beam="2">  1       -2 0.13326833E-01 0.54501041E+03</pdfrwt>
<totfact> 0.14893392E+03</totfact>
</mgrwt>
<rwgt>
<wgt id='morphing_basis_vector_1'> +2.0640602e-04 </wgt>
<wgt id='morphing_basis_vector_2'> +1.3958112e-04 </wgt>
<wgt id='morphing_basis_vector_3'> +1.4652320e-04 </wgt>
<wgt id='morphing_basis_vector_4'> +5.1485355e-05 </wgt>
<wgt id='morphing_basis_vector_5'> +8.3672481e-05 </wgt>
</rwgt>
</event>
<event>
 4      1 +1.0153100e-05 6.17545000e+02 7.81860800e-03 9.16952400e-02
        2 -1    0    0  501    0 +0.0000000000e+00 +0.0000000000e+00 +7.4360397505e+02 7.4360397505e+02 0.0000000000e+00 0.0000e+00 1.0000e+00
       -2 -1    0    0    0  501 -0.0000000000e+00 -0.0000000000e+00 -1.2821400777e+02 1.2821400777e+02 0.0000000000e+00 0.0000e+00 -1.0000e+00
      -13  1    1    2    0    0 -5.3473176707e+01 -3.0244450208e+02 +3.5252523274e+02 4.6755330946e+02 0.0000000000e+00 0.0000e+00 -1.0000e+00
       13  1    1    2    0    0 +5.3473176707e+01 +3.0244450208e+02 +2.6286473454e+02 4.0426467336e+02 0.0000000000e+00 0.0000e+00 1.0000e+00
<mgrwt>
<rscale>  0 0.61754496E+03</rscale>
<asrwt>0</asrwt>
<pdfrwt beam="1">  1        2 0.11440061E+00 0.61754496E+03</pdfrwt>
<pdfrwt beam="2">  1       -2 0.19725232E-01 0.61754496E+03</pdfrwt>
<totfact> 0.94257109E+02</totfact>
</mgrwt>
<rwgt>
<wgt id='morphing_basis_vector_1'> +3.0835018e-04 </wgt>
<wgt id='morphing_basis_vector_2'> +2.1274286e-04 </wgt>
<wgt id='morphing_basis_vector_3'> +2.3763832e-04 </wgt>
<wgt id='morphing_basis_vector_4'> +9.3753010e-05 </wgt>
<wgt id='morphing_basis_vector_5'> +1.6049084e-04 </wgt>
</rwgt>
</event>
<event>
 4      1 +1.0153100e-05 5.92923100e+02 7.81860800e-03 9.21298300e-02
        2 -1    0    0  501    0 +0.0000000000e+00 +0.0000000000e+00 +6.5131752026e+02 6.5131752026e+02 0.0000000000e+00 0.0000e+00 -1.0000e+00
       -2 -1    0    0    0  501 -0.0000000000e+00 -0.0000000000e+00 -1.3494103937e+02 1.3494103937e+02 0.0000000000e+00 0.0000e+00 1.0000e+00
      -13  1    1    2    0    0 -2.6148071954e+02 +1.3495077105e+02 +2.1027343806e+02 3.6166116193e+02 0.0000000000e+00 0.0000e+00 1.0000e+00
       13  1    1    2    0    0 +2.6148071954e+02 -1.3495077105e+02 +3.0610304284e+02 4.2459739770e+02 0.0000000000e+00 0.0000e+00 -1.0000e+00
<mgrwt>
<rscale>  0 0.59292314E+03</rscale>
<asrwt>0</asrwt>
<pdfrwt beam="1">  1        2 0.10020269E+00 0.59292314E+03</pdfrwt>
<pdfrwt beam="2">  1       -2 0.20760160E-01 0.59292314E+03</pdfrwt>
<totfact> 0.10172178E+03</totfact>
</mgrwt>
<rwgt>
<wgt id='morphing_basis_vector_1'> +2.6288748e-04 </wgt>
<wgt id='morphing_basis_vector_2'> +1.6302028e-04 </wgt>
<wgt id='morphing_basis_vector_3'> +2.0284363e-04 </wgt>
<wgt id='morphing_basis_vector_4'> +8.2572385e-05 </wgt>
<wgt id='morphing_basis_vector_5'> +1.3045351e-04 </wgt>
</rwgt>
</event>
<event>
 4      1 +1.0153100e-05 5.47617900e+02 7.81860800e-03 9.29911100e-02
        2 -1    0    0  501    0 +0.0000000000e+00 +0.0000000000e+00 +2.5954435654e+03 2.5954435654e+03 0.0000000000e+00 0.0000e+00 1.0000e+00
       -2 -1    0    0    0  501 -0.0000000000e+00 -0.0000000000e+00 -2.8885755672e+01 2.8885755672e+01 0.0000000000e+00 0.0000e+00 -1.0000e+00
      -13  1    1    2    0    0 +8.6895572055e+01 +2.5373031296e+02 +1.5475684931e+03 1.5706362255e+03 0.0000000000e+00 0.0000e+00 -1.0000e+00
       13  1    1    2    0    0 -8.6895572055e+01 -2.5373031296e+02 +1.0189893166e+03 1.0536930955e+03 0.0000000000e+00 0.0000e+00 1.0000e+00
<mgrwt>
<rscale>  0 0.54761793E+03</rscale>
<asrwt>0</asrwt>
<pdfrwt beam="1">  1        2 0.39929883E+00 0.54761793E+03</pdfrwt>
<pdfrwt beam="2">  1       -2 0.44439644E-02 0.54761793E+03</pdfrwt>
<totfact> 0.84376777E+02</totfact>
</mgrwt>
<rwgt>
<wgt id='morphing_basis_vector_1'> +2.1329039e-04 </wgt>
<wgt id='morphing_basis_vector_2'> +1.5350855e-04 </wgt>
<wgt id='morphing_basis_vector_3'> +1.4849523e-04 </wgt>
<wgt id='morphing_basis_vector_4'> +5.0471875e-05 </wgt>
<wgt id='morphing_basis_vector_5'> +8.5951668e-05 </wgt>
</rwgt>
</event>
<event>
 4      1 +1.0153100e-05 5.96478300e+02 7.81860800e-03 9.20657200e-02
        2 -1    0    0  501    0 +0.0000000000e+00 +0.0000000000e+00 +1.0730160159e+03 1.0730160159e+03 0.0000000000e+00 0.0000e+00 1.0000e+00
       -2 -1    0    0    0  501 -0.0000000000e+00 -0.0000000000e+00 -8.2893992451e+01 8.2893992451e+01 0.0000000000e+00 0.0000e+00 -1.0000e+00
      -13  1    1    2    0    0 -2.0884375004e+02 -9.3842944480e+00 +8.2864647120e+01 2.2487847085e+02 0.0000000000e+00 0.0000e+00 -1.0000e+00
       13  1    1    2    0    0 +2.0884375004e+02 +9.3842944480e+00 +9.0725737632e+02 9.3103153749e+02 0.0000000000e+00 0.0000e+00 1.0000e+00
<mgrwt>
<rscale>  0 0.59647827E+03</rscale>
<asrwt>0</asrwt>
<pdfrwt beam="1">  1        2 0.16507938E+00 0.59647827E+03</pdfrwt>
<pdfrwt beam="2">  1       -2 0.12752923E-01 0.59647827E+03</pdfrwt>
<totfact> 0.11705359E+03</totfact>
</mgrwt>
<rwgt>
<wgt id='morphing_basis_vector_1'> +2.6263887e-04 </wgt>
<wgt id='morphing_basis_vector_2'> +1.4966260e-04 </wgt>
<wgt id='morphing_basis_vector_3'> +2.0748188e-04 </wgt>
<wgt id='morphing_basis_vector_4'> +8.9093259e-05 </wgt>
<wgt id='morphing_basis_vector_5'> +1.3449348e-04 </wgt>
</rwgt>
</event>
<event>
 4      1 +1.0153100e-05 5.42500300e+02 7.81860800e-03 9.30939500e-02
        2 -1    0    0  501    0 +0.0000000000e+00 +0.0000000000e+00 +2.4468465120e+03 2.4468465120e+03 0.0000000000e+00 0.0000e+00 1.0000e+00
       -2 -1    0    0    0  501 -0.0000000000e+00 -0.0000000000e+00 -3.0069987925e+01 3.0069987925e+01 0.0000000000e+00 0.0000e+00 -1.0000e+00
      -13  1    1    2    0    0 +1.3959081072e+02 -2.3212187114e+02 +1.2746289158e+03 1.3030905688e+03 0.0000000000e+00 0.0000e+00 -1.0000e+00
       13  1    1    2    0    0 -1.3959081072e+02 +2.3212187114e+02 +1.1421476083e+03 1.1738259312e+03 0.0000000000e+00 0.0000e+00 1.0000e+00
<mgrwt>
<rscale>  0 0.54250030E+03</rscale>
<asrwt>0</asrwt>
<pdfrwt beam="1">  1        2 0.37643777E+00 0.54250030E+03</pdfrwt>
<pdfrwt beam="2">  1       -2 0.46261539E-02 0.54250030E+03</pdfrwt>
<totfact> 0.96936439E+02</totfact>
</mgrwt>
<rwgt>
<wgt id='morphing_basis_vector_1'> +2.0181051e-04 </wgt>
<wgt id='morphing_basis_vector_2'> +1.3239954e-04 </wgt>
<wgt id='morphing_basis_vector_3'> +1.4431304e-04 </wgt>
<wgt id='morphing_basis_vector_4'> +5.1275020e-05 </wgt>
<wgt id='morphing_basis_vector_5'> +8.1558759e-05 </wgt>
</rwgt>
</event>
<event>
 4      1 +1.0153100e-05 5.81462000e+02 7.81860800e-03 9.23398100e-02
        2 -1    0    0  501    0 +0.0000000000e+00 +0.0000000000e+00 +3.8374415726e+02 3.8374415726e+02 0.0000000000e+00 0.0000e+00 -1.0000e+00
       -2 -1    0    0    0  501 -0.0000000000e+00 -0.0000000000e+00 -2.2026264994e+02 2.2026264994e+02 0.0000000000e+00 0.0000e+00 1.0000e+00
      -13  1    1    2    0    0 +2.7538859584e+01 -2.5965000225e+02 -5.1075961418e+01 2.6605500613e+02 0.0000000000e+00 0.0000e+00 1.0000e+00
       13  1    1    2    0    0 -2.7538859584e+01 +2.5965000225e+02 +2.1455746874e+02 3.3795180107e+02 0.0000000000e+00 0.0000e+00 -1.0000e+00
<mgrwt>
<rscale>  0 0.58146197E+03</rscale>
<asrwt>0</asrwt>
<pdfrwt beam="1">  1        2 0.59037563E-01 0.58146197E+03</pdfrwt>
<pdfrwt beam="2">  1       -2 0.33886561E-01 0.58146197E+03</pdfrwt>
<totfact> 0.80035827E+02</totfact>
</mgrwt>
<rwgt>
<wgt id='morphing_basis_vector_1'> +2.4296524e-04 </wgt>
<wgt id='morphing_basis_vector_2'> +1.4050845e-04 </wgt>
<wgt id='morphing_basis_vector_3'> +1.8855160e-04 </wgt>
<wgt id='morphing_basis_vector_4'> +7.7842956e-05 </wgt>
<wgt id='morphing_basis_vector_5'> +1.1785980e-04 </wgt>
</rwgt>
</event>
<event>
 4      1 +1.0153100e-05 5.84732200e+02 7.81860800e-03 9.22793700e-02
        2 -1    0    0  501    0 +0.0000000000e+00 +0.0000000000e+00 +8.1684775392e+02 8.1684775392e+02 0.0000000000e+00 0.0000e+00 -1.0000e+00
       -2 -1    0    0    0  501 -0.0000000000e+00 -0.0000000000e+00 -1.0464365446e+02 1.0464365446e+02 0.0000000000e+00 0.0000e+00 1.0000e+00
      -13  1    1    2    0    0 -2.5070083363e+02 -3.7105472646e+01 +1.2637300883e+02 2.8319226939e+02 0.0000000000e+00 0.0000e+00 1.0000e+00
       13  1    1    2    0    0 +2.5070083363e+02 +3.7105472646e+01 +5.8583109063e+02 6.3829913899e+02 0.0000000000e+00 0.0000e+00 -1.0000e+00
<mgrwt>
<rscale>  0 0.58473219E+03</rscale>
<asrwt>0</asrwt>
<pdfrwt beam="1">  1        2 0.12566888E+00 0.58473219E+03</pdfrwt>
<pdfrwt beam="2">  1       -2 0.16099024E-01 0.58473219E+03</pdfrwt>
<totfact> 0.11692944E+03</totfact>
</mgrwt>
<rwgt>
<wgt id='morphing_basis_vector_1'> +2.4703794e-04 </wgt>
<wgt id='morphing_basis_vector_2'> +1.4213219e-04 </wgt>
<wgt id='morphing_basis_vector_3'> +1.9256779e-04 </wgt>
<wgt id='morphing_basis_vector_4'> +8.0270632e-05 </wgt>
<wgt id='morphing_basis_vector_5'> +1.2135121e-04 </wgt>
</rwgt>
</event>
<event>
 4      1 +1.0153100e-05 5.57137700e+02 7.81860800e-03 9.28029500e-02
        2 -1    0    0  501    0 +0.0000000000e+00 +0.0000000000e+00 +1.4696097469e+03 1.4696097469e+03 0.0000000000e+00 0.0000e+00 1.0000e+00
       -2 -1    0    0    0  501 -0.0000000000e+00 -0.0000000000e+00 -5.2803553253e+01 5.2803553253e+01 0.0000000000e+00 0.0000e+00 -1.0000e+00
      -13  1    1    2    0    0 +7.9311284353e+01 +2.5656838495e+02 +5.0606431425e+02 5.7290374945e+02 0.0000000000e+00 0.0000e+00 1.0000e+00
       13  1    1    2    0    0 -7.9311284353e+01 -2.5656838495e+02 +9.1074187943e+02 9.4950955073e+02 0.0000000000e+00 0.0000e+00 -1.0000e+00
<mgrwt>
<rscale>  0 0.55713774E+03</rscale>
<asrwt>0</asrwt>
<pdfrwt beam="1">  1        2 0.22609378E+00 0.55713774E+03</pdfrwt>
<pdfrwt beam="2">  1       -2 0.81236247E-02 0.55713774E+03</pdfrwt>
<totfact> 0.14165627E+03</totfact>
</mgrwt>
<rwgt>
<wgt id='morphing_basis_vector_1'> +2.1339812e-04 </wgt>
<wgt id='morphing_basis_vector_2'> +1.2586265e-04 </wgt>
<wgt id='morphing_basis_vector_3'> +1.6061013e-04 </wgt>
<wgt id='morphing_basis_vector_4'> +6.2148531e-05 </wgt>
<wgt id='morphing_basis_vector_5'> +9.4037783e-05 </wgt>
</rwgt>
</event>
<event>
 4      1 +1.0153100e-05 5.89963300e+02 7.81860800e-03 9.21835700e-02
        2 -1    0    0  501    0 +0.0000000000e+00 +0.0000000000e+00 +4.7130325084e+02 4.7130325084e+02 0.0000000000e+00 0.0000e+00 -1.0000e+00
       -2 -1    0    0    0  501 -0.0000000000e+00 -0.0000000000e+00 -1.8462461398e+02 1.8462461398e+02 0.0000000000e+00 0.0000e+00 1.0000e+00
      -13  1    1    2    0    0 -2.0585849067e+02 -1.9418593108e+02 +5.0796228935e+01 2.8751721842e+02 0.0000000000e+00 0.0000e+00 1.0000e+00
       13  1    1    2    0    0 +2.0585849067e+02 +1.9418593108e+02 +2.3588240793e+02 3.6841064640e+02 0.0000000000e+00 0.0000e+00 -1.0000e+00
<mgrwt>
<rscale>  0 0.58996332E+03</rscale>
<asrwt>0</asrwt>
<pdfrwt beam="1">  1        2 0.72508192E-01 0.58996332E+03</pdfrwt>
<pdfrwt beam="2">  1       -2 0.28403787E-01 0.58996332E+03</pdfrwt>
<totfact> 0.86741294E+02</totfact>
</mgrwt>
<rwgt>
<wgt id='morphing_basis_vector_1'> +2.5607429e-04 </wgt>
<wgt id='morphing_basis_vector_2'> +1.5222140e-04 </wgt>
<wgt id='morphing_basis_vector_3'> +1.9906806e-04 </wgt>
<wgt id='morphing_basis_vector_4'> +8.2501964e-05 </wgt>
<wgt id='morphing_basis_vector_5'> +1.2710622e-04 </wgt>
</rwgt>
</event>
<event>
 4      1 +1.0153100e-05 5.44794200e+02 7.81860800e-03 9.30477100e-02
        2 -1    0    0  501    0 +0.0000000000e+00 +0.0000000000e+00 +2.0440582762e+03 2.0440582762e+03 0.0000000000e+00 0.0000e+00 -1.0000e+00
       -2 -1    0    0    0  501 -0.0000000000e+00 -0.0000000000e+00 -3.6300425908e+01 3.6300425908e+01 0.0000000000e+00 0.0000e+00 1.0000e+00
      -13  1    1    2    0    0 -2.1852506458e+02 -1.2229672411e+02 +5.9454751600e+02 6.4513288659e+02 0.0000000000e+00 0.0000e+00 1.0000e+00
       13  1    1    2    0    0 +2.1852506458e+02 +1.2229672411e+02 +1.4132103343e+03 1.4352258156e+03 0.0000000000e+00 0.0000e+00 -1.0000e+00
<mgrwt>
<rscale>  0 0.54479422E+03</rscale>
<asrwt>0</asrwt>
<pdfrwt beam="1">  1        2 0.31447041E+00 0.54479422E+03</pdfrwt>
<pdfrwt beam="2">  1       -2 0.55846825E-02 0.54479422E+03</pdfrwt>
<totfact> 0.12255727E+03</totfact>
</mgrwt>
<rwgt>
<wgt id='morphing_basis_vector_1'> +1.9786034e-04 </wgt>
<wgt id='morphing_basis_vector_2'> +1.1365253e-04 </wgt>
<wgt id='morphing_basis_vector_3'> +1.4800373e-04 </wgt>
<wgt id='morphing_basis_vector_4'> +5.6176872e-05 </wgt>
<wgt id='morphing_basis_vector_5'> +8.3289578e-05 </wgt>
</rwgt>
</event>
<event>
 4      1 +1.0153100e-05 5.31954200e+02 7.81860800e-03 9.33097500e-02
        2 -1    0    0  501    0 +0.0000000000e+00 +0.0000000000e+00 +1.1280376316e+02 1.1280376316e+02 0.0000000000e+00 0.0000e+00 1.0000e+00
       -2 -1    0    0    0  501 -0.0000000000e+00 -0.0000000000e+00 -6.2714050567e+02 6.2714050567e+02 0.0000000000e+00 0.0000e+00 -1.0000e+00
      -13  1    1    2    0    0 -4.5074965409e+01 -2.5200980814e+02 -1.5683245267e+02 3.0022843655e+02 0.0000000000e+00 0.0000e+00 -1.0000e+00
       13  1    1    2    0    0 +4.5074965409e+01 +2.5200980814e+02 -3.5750428984e+02 4.3971583228e+02 0.0000000000e+00 0.0000e+00 1.0000e+00
<mgrwt>
<rscale>  0 0.53195417E+03</rscale>
<asrwt>0</asrwt>
<pdfrwt beam="1">  1        2 0.17354425E-01 0.53195417E+03</pdfrwt>
<pdfrwt beam="2">  1       -2 0.96483155E-01 0.53195417E+03</pdfrwt>
<totfact> 0.38890650E+02</totfact>
</mgrwt>
<rwgt>
<wgt id='morphing_basis_vector_1'> +1.9802963e-04 </wgt>
<wgt id='morphing_basis_vector_2'> +1.4956804e-04 </wgt>
<wgt id='morphing_basis_vector_3'> +1.3183943e-04 </wgt>
<wgt id='morphing_basis_vector_4'> +4.2244609e-05 </wgt>
<wgt id='morphing_basis_vector_5'> +7.3468723e-05 </wgt>
</rwgt>
</event>
<event>
 4      1 +1.0153100e-05 5.87149600e+02 7.81860800e-03 9.22349700e-02
        2 -1    0    0  501    0 +0.0000000000e+00 +0.0000000000e+00 +4.8855333186e+02 4.8855333186e+02 0.0000000000e+00 0.0000e+00 1.0000e+00
       -2 -1    0    0    0  501 -0.0000000000e+00 -0.0000000000e+00 -1.7641094278e+02 1.7641094278e+02 0.0000000000e+00 0.0000e+00 -1.0000e+00
      -13  1    1    2    0    0 -1.5218894092e+02 -1.6680246971e+01 -1.2761888277e+02 1.9931453439e+02 0.0000000000e+00 0.0000e+00 -1.0000e+00
       13  1    1    2    0    0 +1.5218894092e+02 +1.6680246971e+01 +4.3976127185e+02 4.6564974025e+02 0.0000000000e+00 0.0000e+00 1.0000e+00
<mgrwt>
<rscale>  0 0.58714957E+03</rscale>
<asrwt>0</asrwt>
<pdfrwt beam="1">  1        2 0.75162050E-01 0.58714957E+03</pdfrwt>
<pdfrwt beam="2">  1       -2 0.27140145E-01 0.58714957E+03</pdfrwt>
<totfact> 0.90124755E+02</totfact>
</mgrwt>
<rwgt>
<wgt id='morphing_basis_vector_1'> +2.4937182e-04 </wgt>
<wgt id='morphing_basis_vector_2'> +1.4113136e-04 </wgt>
<wgt id='morphing_basis_vector_3'> +1.9559551e-04 </wgt>
<wgt id='morphing_basis_vector_4'> +8.2621647e-05 </wgt>
<wgt id='morphing_basis_vector_5'> +1.2397146e-04 </wgt>
</rwgt>
</event>
<event>
 4      1 +1.0153100e-05 5.50101100e+02 7.81860800e-03 9.29416400e-02
        2 -1    0    0  501    0 +0.0000000000e+00 +0.0000000000e+00 +1.2314212299e+03 1.2314212299e+03 0.0000000000e+00 0.0000e+00 1.0000e+00
       -2 -1    0    0    0  501 -0.0000000000e+00 -0.0000000000e+00 -6.1435351348e+01 6.1435351348e+01 0.0000000000e+00 0.0000e+00 -1.0000e+00
      -13  1    1    2    0    0 -2.3846695404e+02 -1.1113311319e+02 +3.9645138993e+02 4.7580538205e+02 0.0000000000e+00 0.0000e+00 -1.0000e+00
       13  1    1    2    0    0 +2.3846695404e+02 +1.1113311319e+02 +7.7353448863e+02 8.1705119920e+02 0.0000000000e+00 0.0000e+00 1.0000e+00
<mgrwt>
<rscale>  0 0.55010107E+03</rscale>
<asrwt>0</asrwt>
<pdfrwt beam="1">  1        2 0.18944940E+00 0.55010107E+03</pdfrwt>
<pdfrwt beam="2">  1       -2 0.94515934E-02 0.55010107E+03</pdfrwt>
<totfact> 0.15197164E+03</totfact>
</mgrwt>
<rwgt>
<wgt id='morphing_basis_vector_1'> +2.0476432e-04 </wgt>
<wgt id='morphing_basis_vector_2'> +1.1984626e-04 </wgt>
<wgt id='morphing_basis_vector_3'> +1.5324571e-04 </wgt>
<wgt id='morphing_basis_vector_4'> +5.8494526e-05 </wgt>
<wgt id='morphing_basis_vector_5'> +8.7810197e-05 </wgt>
</rwgt>
</event>
<event>
 4      1 +1.0153100e-05 5.24894500e+02 7.81860800e-03 9.34572200e-02
        2 -1    0    0  501    0 +0.0000000000e+00 +0.0000000000e+00 +1.5579987011e+02 1.5579987011e+02 0.0000000000e+00 0.0000e+00 1.0000e+00
       -2 -1    0    0    0  501 -0.0000000000e+00 -0.0000000000e+00 -4.4209631071e+02 4.4209631071e+02 0.0000000000e+00 0.0000e+00 -1.0000e+00
      -13  1    1    2    0    0 +1.6807933516e+02 +2.0116690257e+02 -1.2875059741e+02 2.9205393668e+02 0.0000000000e+00 0.0000e+00 1.0000e+00
       13  1    1    2    0    0 -1.6807933516e+02 -2.0116690257e+02 -1.5754584320e+02 3.0584224415e+02 0.0000000000e+00 0.0000e+00 -1.0000e+00
<mgrwt>
<rscale>  0 0.52489446E+03</rscale>
<asrwt>0</asrwt>
<pdfrwt beam="1">  1        2 0.23969211E-01 0.52489446E+03</pdfrwt>
<pdfrwt beam="2">  1       -2 0.68014818E-01 0.52489446E+03</pdfrwt>
<totfact> 0.57991424E+02</totfact>
</mgrwt>
<rwgt>
<wgt id='morphing_basis_vector_1'> +1.8201504e-04 </wgt>
<wgt id='morphing_basis_vector_2'> +1.1839508e-04 </wgt>
<wgt id='morphing_basis_vector_3'> +1.2745970e-04 </wgt>
<wgt id='morphing_basis_vector_4'> +4.3690129e-05 </wgt>
<wgt id='morphing_basis_vector_5'> +6.7987497e-05 </wgt>
</rwgt>
</event>
<event>
 4      1 +1.0153100e-05 6.13620800e+02 7.81860800e-03 9.17630600e-02
        2 -1    0    0  501    0 +0.0000000000e+00 +0.0000000000e+00 +1.6869523101e+02 1.6869523101e+02 0.0000000000e+00 0.0000e+00 -1.0000e+00
       -2 -1    0    0    0  501 -0.0000000000e+00 -0.0000000000e+00 -5.5800397389e+02 5.5800397389e+02 0.0000000000e+00 0.0000e+00 1.0000e+00
      -13  1    1    2    0    0 +1.0044498149e+02 -2.8919959074e+02 -1.7076206473e+02 3.5054996839e+02 0.0000000000e+00 0.0000e+00 1.0000e+00
       13  1    1    2    0    0 -1.0044498149e+02 +2.8919959074e+02 -2.1854667815e+02 3.7614923650e+02 0.0000000000e+00 0.0000e+00 -1.0000e+00
<mgrwt>
<rscale>  0 0.61362076E+03</rscale>
<asrwt>0</asrwt>
<pdfrwt beam="1">  1        2 0.25953112E-01 0.61362076E+03</pdfrwt>
<pdfrwt beam="2">  1       -2 0.85846766E-01 0.61362076E+03</pdfrwt>
<totfact> 0.31551263E+02</totfact>
</mgrwt>
<rwgt>
<wgt id='morphing_basis_vector_1'> +3.0021813e-04 </wgt>
<wgt id='morphing_basis_vector_2'> +2.0272348e-04 </wgt>
<wgt id='morphing_basis_vector_3'> +2.3167126e-04 </wgt>
<wgt id='morphing_basis_vector_4'> +9.2381251e-05 </wgt>
<wgt id='morphing_basis_vector_5'> +1.5541929e-04 </wgt>
</rwgt>
</event>
<event>
 4      1 +1.0153100e-05 5.51922000e+02 7.81860800e-03 9.29055400e-02
        2 -1    0    0  501    0 +0.0000000000e+00 +0.0000000000e+00 +7.6391123396e+02 7.6391123396e+02 0.0000000000e+00 0.0000e+00 -1.0000e+00
       -2 -1    0    0    0  501 -0.0000000000e+00 -0.0000000000e+00 -9.9690205988e+01 9.9690205988e+01 0.0000000000e+00 0.0000e+00 1.0000e+00
      -13  1    1    2    0    0 -1.2717626788e+02 +1.2945903115e+02 +6.8111642351e+00 1.8160351268e+02 0.0000000000e+00 0.0000e+00 1.0000e+00
       13  1    1    2    0    0 +1.2717626788e+02 -1.2945903115e+02 +6.5740986373e+02 6.8199792726e+02 0.0000000000e+00 0.0000e+00 -1.0000e+00
<mgrwt>
<rscale>  0 0.55192198E+03</rscale>
<asrwt>0</asrwt>
<pdfrwt beam="1">  1        2 0.11752480E+00 0.55192198E+03</pdfrwt>
<pdfrwt beam="2">  1       -2 0.15336955E-01 0.55192198E+03</pdfrwt>
<totfact> 0.13768398E+03</totfact>
</mgrwt>
<rwgt>
<wgt id='morphing_basis_vector_1'> +2.0484103e-04 </wgt>
<wgt id='morphing_basis_vector_2'> +1.1476654e-04 </wgt>
<wgt id='morphing_basis_vector_3'> +1.5549493e-04 </wgt>
<wgt id='morphing_basis_vector_4'> +6.0712541e-05 </wgt>
<wgt id='morphing_basis_vector_5'> +8.9347143e-05 </wgt>
</rwgt>
</event>
<event>
 4      1 +1.0153100e-05 6.04643600e+02 7.81860800e-03 9.19202300e-02
        2 -1    0    0  501    0 +0.0000000000e+00 +0.0000000000e+00 +3.2136339827e+02 3.2136339827e+02 0.0000000000e+00 0.0000e+00 1.0000e+00
       -2 -1    0    0    0  501 -0.0000000000e+00 -0.0000000000e+00 -2.8440844004e+02 2.8440844004e+02 0.0000000000e+00 0.0000e+00 -1.0000e+00
      -13  1    1    2    0    0 -4.5999653536e+01 -1.2849420605e+02 -2.5178826254e+02 2.8639842574e+02 0.0000000000e+00 0.0000e+00 -1.0000e+00
       13  1    1    2    0    0 +4.5999653536e+01 +1.2849420605e+02 +2.8874322077e+02 3.1937341256e+02 0.0000000000e+00 0.0000e+00 1.0000e+00
<mgrwt>
<rscale>  0 0.60464357E+03</rscale>
<asrwt>0</asrwt>
<pdfrwt beam="1">  1        2 0.49440523E-01 0.60464357E+03</pdfrwt>
<pdfrwt beam="2">  1       -2 0.43755144E-01 0.60464357E+03</pdfrwt>
<totfact> 0.61003050E+02</totfact>
</mgrwt>
<rwgt>
<wgt id='morphing_basis_vector_1'> +2.7426774e-04 </wgt>
<wgt id='morphing_basis_vector_2'> +1.5608323e-04 </wgt>
<wgt id='morphing_basis_vector_3'> +2.1834570e-04 </wgt>
<wgt id='morphing_basis_vector_4'> +9.5397286e-05 </wgt>
<wgt id='morphing_basis_vector_5'> +1.4419598e-04 </wgt>
</rwgt>
</event>
<event>
 4      1 +1.0153100e-05 5.78989900e+02 7.81860800e-03 9.23857700e-02
        2 -1    0    0  501    0 +0.0000000000e+00 +0.0000000000e+00 +1.0832425704e+03 1.0832425704e+03 0.0000000000e+00 0.0000e+00 1.0000e+00
       -2 -1    0    0    0  501 -0.0000000000e+00 -0.0000000000e+00 -7.7367086911e+01 7.7367086911e+01 0.0000000000e+00 0.0000e+00 -1.0000e+00
      -13  1    1    2    0    0 -1.5695896210e+02 +8.3365193657e+01 +9.6101598903e+02 9.7731141529e+02 0.0000000000e+00 0.0000e+00 1.0000e+00
       13  1    1    2    0    0 +1.5695896210e+02 -8.3365193657e+01 +4.4859494511e+01 1.8329824207e+02 0.0000000000e+00 0.0000e+00 -1.0000e+00
<mgrwt>
<rscale>  0 0.57898989E+03</rscale>
<asrwt>0</asrwt>
<pdfrwt beam="1">  1        2 0.16665269E+00 0.57898989E+03</pdfrwt>
<pdfrwt beam="2">  1       -2 0.11902630E-01 0.57898989E+03</pdfrwt>
<totfact> 0.12884853E+03</totfact>
</mgrwt>
<rwgt>
<wgt id='morphing_basis_vector_1'> +3.1412885e-04 </wgt>
<wgt id='morphing_basis_vector_2'> +3.6957608e-04 </wgt>
<wgt id='morphing_basis_vector_3'> +1.8093228e-04 </wgt>
<wgt id='morphing_basis_vector_4'> +2.4058515e-05 </wgt>
<wgt id='morphing_basis_vector_5'> +1.1618255e-04 </wgt>
</rwgt>
</event>
<event>
 4      1 +1.0153100e-05 5.95092900e+02 7.81860800e-03 9.20906400e-02
        2 -1    0    0  501    0 +0.0000000000e+00 +0.0000000000e+00 +1.7210114717e+02 1.7210114717e+02 0.0000000000e+00 0.0000e+00 -1.0000e+00
       -2 -1    0    0    0  501 -0.0000000000e+00 -0.0000000000e+00 -5.1442948117e+02 5.1442948117e+02 0.0000000000e+00 0.0000e+00 1.0000e+00
      -13  1    1    2    0    0 +1.4029758607e+02 +1.2341786028e+02 -4.3830024002e+02 4.7646876214e+02 0.0000000000e+00 0.0000e+00 1.0000e+00
       13  1    1    2    0    0 -1.4029758607e+02 -1.2341786028e+02 +9.5971906014e+01 2.1006186621e+02 0.0000000000e+00 0.0000e+00 -1.0000e+00
<mgrwt>
<rscale>  0 0.59509295E+03</rscale>
<asrwt>0</asrwt>
<pdfrwt beam="1">  1        2 0.26477100E-01 0.59509295E+03</pdfrwt>
<pdfrwt beam="2">  1       -2 0.79142996E-01 0.59509295E+03</pdfrwt>
<totfact> 0.37092926E+02</totfact>
</mgrwt>
<rwgt>
<wgt id='morphing_basis_vector_1'> +2.6054320e-04 </wgt>
<wgt id='morphing_basis_vector_2'> +1.4809024e-04 </wgt>
<wgt id='morphing_basis_vector_3'> +2.0568040e-04 </wgt>
<wgt id='morphing_basis_vector_4'> +8.8178261e-05 </wgt>
<wgt id='morphing_basis_vector_5'> +1.3289271e-04 </wgt>
</rwgt>
</event>
<event>
 4      1 +1.0153100e-05 5.67984700e+02 7.81860800e-03 9.25933800e-02
        2 -1    0    0  501    0 +0.0000000000e+00 +0.0000000000e+00 +1.4311892707e+03 1.4311892707e+03 0.0000000000e+00 0.0000e+00 -1.0000e+00
       -2 -1    0    0    0  501 -0.0000000000e+00 -0.0000000000e+00 -5.6352888963e+01 5.6352888963e+01 0.0000000000e+00 0.0000e+00 1.0000e+00
      -13  1    1    2    0    0 +2.0179898326e+02 +1.6879778891e+02 +4.0734461171e+02 4.8491767948e+02 0.0000000000e+00 0.0000e+00 1.0000e+00
       13  1    1    2    0    0 -2.0179898326e+02 -1.6879778891e+02 +9.6749176999e+02 1.0026244801e+03 0.0000000000e+00 0.0000e+00 -1.0000e+00
<mgrwt>
<rscale>  0 0.56798468E+03</rscale>
<asrwt>0</asrwt>
<pdfrwt beam="1">  1        2 0.22018294E+00 0.56798468E+03</pdfrwt>
<pdfrwt beam="2">  1       -2 0.86696763E-02 0.56798468E+03</pdfrwt>
<totfact> 0.13439213E+03</totfact>
</mgrwt>
<rwgt>
<wgt id='morphing_basis_vector_1'> +2.2582872e-04 </wgt>
<wgt id='morphing_basis_vector_2'> +1.3108420e-04 </wgt>
<wgt id='morphing_basis_vector_3'> +1.7270500e-04 </wgt>
<wgt id='morphing_basis_vector_4'> +6.9053706e-05 </wgt>
<wgt id='morphing_basis_vector_5'> +1.0419473e-04 </wgt>
</rwgt>
</event>
<event>
 4      1 +1.0153100e-05 5.46448400e+02 7.81860800e-03 9.30145100e-02
        2 -1    0    0  501    0 +0.0000000000e+00 +0.0000000000e+00 +5.2947862503e+02 5.2947862503e+02 0.0000000000e+00 0.0000e+00 -1.0000e+00
       -2 -1    0    0    0  501 -0.0000000000e+00 -0.0000000000e+00 -1.4099049868e+02 1.4099049868e+02 0.0000000000e+00 0.0000e+00 1.0000e+00
      -13  1    1    2    0    0 -1.9127690824e+02 +1.7970771313e+02 +1.0104583011e+02 2.8123295960e+02 0.0000000000e+00 0.0000e+00 1.0000e+00
       13  1    1    2    0    0 +1.9127690824e+02 -1.7970771313e+02 +2.8744229624e+02 3.8923616411e+02 0.0000000000e+00 0.0000e+00 -1.0000e+00
<mgrwt>
<rscale>  0 0.54644837E+03</rscale>
<asrwt>0</asrwt>
<pdfrwt beam="1">  1        2 0.81458249E-01 0.54644837E+03</pdfrwt>
<pdfrwt beam="2">  1       -2 0.21690846E-01 0.54644837E+03</pdfrwt>
<totfact> 0.12037322E+03</totfact>
</mgrwt>
<rwgt>
<wgt id='morphing_basis_vector_1'> +2.0065277e-04 </wgt>
<wgt id='morphing_basis_vector_2'> +1.1761214e-04 </wgt>
<wgt id='morphing_basis_vector_3'> +1.4948691e-04 </wgt>
<wgt id='morphing_basis_vector_4'> +5.6508327e-05 </wgt>
<wgt id='morphing_basis_vector_5'> +8.4697310e-05 </wgt>
</rwgt>
</event>
<event>
 4      1 +1.0153100e-05 5.21304100e+02 7.81860800e-03 9.35331700e-02
        2 -1    0    0  501    0 +0.0000000000e+00 +0.0000000000e+00 +9.4173327907e+02 9.4173327907e+02 0.0000000000e+00 0.0000e+00 -1.0000e+00
       -2 -1    0    0    0  501 -0.0000000000e+00 -0.0000000000e+00 -7.2143015324e+01 7.2143015324e+01 0.0000000000e+00 0.0000e+00 1.0000e+00
      -13  1    1    2    0    0 -1.4815739256e+02 -4.1625328940e+01 +2.5646675607e+01 1.5601613042e+02 0.0000000000e+00 0.0000e+00 1.0000e+00
       13  1    1    2    0    0 +1.4815739256e+02 +4.1625328940e+01 +8.4394358814e+02 8.5786016398e+02 0.0000000000e+00 0.0000e+00 -1.0000e+00
<mgrwt>
<rscale>  0 0.52130405E+03</rscale>
<asrwt>0</asrwt>
<pdfrwt beam="1">  1        2 0.14488203E+00 0.52130405E+03</pdfrwt>
<pdfrwt beam="2">  1       -2 0.11098926E-01 0.52130405E+03</pdfrwt>
<totfact> 0.17562404E+03</totfact>
</mgrwt>
<rwgt>
<wgt id='morphing_basis_vector_1'> +1.7149652e-04 </wgt>
<wgt id='morphing_basis_vector_2'> +9.4933699e-05 </wgt>
<wgt id='morphing_basis_vector_3'> +1.2631036e-04 </wgt>
<wgt id='morphing_basis_vector_4'> +4.5508294e-05 </wgt>
<wgt id='morphing_basis_vector_5'> +6.5203173e-05 </wgt>
</rwgt>
</event>
<event>
 4      1 +1.0153100e-05 6.14314000e+02 7.81860800e-03 9.17510400e-02
        2 -1    0    0  501    0 +0.0000000000e+00 +0.0000000000e+00 +6.4903644483e+01 6.4903644483e+01 0.0000000000e+00 0.0000e+00 -1.0000e+00
       -2 -1    0    0    0  501 -0.0000000000e+00 -0.0000000000e+00 -1.4536229691e+03 1.4536229691e+03 0.0000000000e+00 0.0000e+00 1.0000e+00
      -13  1    1    2    0    0 -3.1442083540e+01 +2.5661254200e+02 -1.1043298061e+03 1.1341882216e+03 0.0000000000e+00 0.0000e+00 1.0000e+00
       13  1    1    2    0    0 +3.1442083540e+01 -2.5661254200e+02 -2.8438951855e+02 3.8433839203e+02 0.0000000000e+00 0.0000e+00 -1.0000e+00
<mgrwt>
<rscale>  0 0.61431402E+03</rscale>
<asrwt>0</asrwt>
<pdfrwt beam="1">  1        2 0.99851758E-02 0.61431402E+03</pdfrwt>
<pdfrwt beam="2">  1       -2 0.22363431E+00 0.61431402E+03</pdfrwt>
<totfact> 0.69299953E+01</totfact>
</mgrwt>
<rwgt>
<wgt id='morphing_basis_vector_1'> +2.8981320e-04 </wgt>
<wgt id='morphing_basis_vector_2'> +1.6782095e-04 </wgt>
<wgt id='morphing_basis_vector_3'> +2.3185744e-04 </wgt>
<wgt id='morphing_basis_vector_4'> +1.0227530e-04 </wgt>
<wgt id='morphing_basis_vector_5'> +1.5630665e-04 </wgt>
</rwgt>
</event>
<event>
 4      1 +1.0153100e-05 5.40040500e+02 7.81860800e-03 9.31438200e-02
        2 -1    0    0  501    0 +0.0000000000e+00 +0.0000000000e+00 +1.0085433060e+03 1.0085433060e+03 0.0000000000e+00 0.0000e+00 1.0000e+00
       -2 -1    0    0    0  501 -0.0000000000e+00 -0.0000000000e+00 -7.2293309569e+01 7.2293309569e+01 0.0000000000e+00 0.0000e+00 -1.0000e+00
      -13  1    1    2    0    0 -1.5392900669e+02 +1.7876477810e+02 +2.0518692800e+02 3.1265421860e+02 0.0000000000e+00 0.0000e+00 -1.0000e+00
       13  1    1    2    0    0 +1.5392900669e+02 -1.7876477810e+02 +7.3106306846e+02 7.6818239699e+02 0.0000000000e+00 0.0000e+00 1.0000e+00
<mgrwt>
<rscale>  0 0.54004049E+03</rscale>
<asrwt>0</asrwt>
<pdfrwt beam="1">  1        2 0.15516050E+00 0.54004049E+03</pdfrwt>
<pdfrwt beam="2">  1       -2 0.11122048E-01 0.54004049E+03</pdfrwt>
<totfact> 0.15914125E+03</totfact>
</mgrwt>
<rwgt>
<wgt id='morphing_basis_vector_1'> +1.9203640e-04 </wgt>
<wgt id='morphing_basis_vector_2'> +1.0891083e-04 </wgt>
<wgt id='morphing_basis_vector_3'> +1.4341775e-04 </wgt>
<wgt id='morphing_basis_vector_4'> +5.4027832e-05 </wgt>
<wgt id='morphing_basis_vector_5'> +7.9379975e-05 </wgt>
</rwgt>
</event>
<event>
 4      1 +1.0153100e-05 6.11808300e+02 7.81860800e-03 9.17945600e-02
        2 -1    0    0  501    0 +0.0000000000e+00 +0.0000000000e+00 +6.9975728378e+02 6.9975728378e+02 0.0000000000e+00 0.0000e+00 1.0000e+00
       -2 -1    0    0    0  501 -0.0000000000e+00 -0.0000000000e+00 -1.3372829873e+02 1.3372829873e+02 0.0000000000e+00 0.0000e+00 -1.0000e+00
      -13  1    1    2    0    0 +1.5628449279e+02 -3.1296440363e+01 -7.2689759546e+01 1.7518022436e+02 0.0000000000e+00 0.0000e+00 -1.0000e+00
       13  1    1    2    0    0 -1.5628449279e+02 +3.1296440363e+01 +6.3871874459e+02 6.5830535814e+02 0.0000000000e+00 0.0000e+00 1.0000e+00
<mgrwt>
<rscale>  0 0.61180831E+03</rscale>
<asrwt>0</asrwt>
<pdfrwt beam="1">  1        2 0.10765496E+00 0.61180831E+03</pdfrwt>
<pdfrwt beam="2">  1       -2 0.20573585E-01 0.61180831E+03</pdfrwt>
<totfact> 0.94699884E+02</totfact>
</mgrwt>
<rwgt>
<wgt id='morphing_basis_vector_1'> +2.8507092e-04 </wgt>
<wgt id='morphing_basis_vector_2'> +1.6271021e-04 </wgt>
<wgt id='morphing_basis_vector_3'> +2.2824768e-04 </wgt>
<wgt id='morphing_basis_vector_4'> +1.0098695e-04 </wgt>
<wgt id='morphing_basis_vector_5'> +1.5310316e-04 </wgt>
</rwgt>
</event>
<event>
 4      1 +1.0153100e-05 5.23973100e+02 7.81860800e-03 9.34766500e-02
        2 -1    0    0  501    0 +0.0000000000e+00 +0.0000000000e+00 +1.8553659866e+03 1.8553659866e+03 0.0000000000e+00 0.0000e+00 -1.0000e+00
       -2 -1    0    0    0  501 -0.0000000000e+00 -0.0000000000e+00 -3.6993758982e+01 3.6993758982e+01 0.0000000000e+00 0.0000e+00 1.0000e+00
      -13  1    1    2    0    0 -2.0131218802e+02 +1.1753202005e+02 +4.7735801303e+02 5.3123539545e+02 0.0000000000e+00 0.0000e+00 1.0000e+00
       13  1    1    2    0    0 +2.0131218802e+02 -1.1753202005e+02 +1.3410142146e+03 1.3611243501e+03 0.0000000000e+00 0.0000e+00 -1.0000e+00
<mgrwt>
<rscale>  0 0.52397314E+03</rscale>
<asrwt>0</asrwt>
<pdfrwt beam="1">  1        2 0.28544085E+00 0.52397314E+03</pdfrwt>
<pdfrwt beam="2">  1       -2 0.56913489E-02 0.52397314E+03</pdfrwt>
<totfact> 0.15110372E+03</totfact>
</mgrwt>
<rwgt>
<wgt id='morphing_basis_vector_1'> +1.7501298e-04 </wgt>
<wgt id='morphing_basis_vector_2'> +9.9024194e-05 </wgt>
<wgt id='morphing_basis_vector_3'> +1.2842137e-04 </wgt>
<wgt id='morphing_basis_vector_4'> +4.6309378e-05 </wgt>
<wgt id='morphing_basis_vector_5'> +6.7131274e-05 </wgt>
</rwgt>
</event>
<event>
 4      1 +1.0153100e-05 5.54587200e+02 7.81860800e-03 9.28529700e-02
        2 -1    0    0  501    0 +0.0000000000e+00 +0.0000000000e+00 +4.8691500309e+02 4.8691500309e+02 0.0000000000e+00 0.0000e+00 1.0000e+00
       -2 -1    0    0    0  501 -0.0000000000e+00 -0.0000000000e+00 -1.5791612967e+02 1.5791612967e+02 0.0000000000e+00 0.0000e+00 -1.0000e+00
      -13  1    1    2    0    0 -8.8310537720e+01 +2.5402869551e+02 +8.5962668527e+01 2.8234537290e+02 0.0000000000e+00 0.0000e+00 -1.0000e+00
       13  1    1    2    0    0 +8.8310537720e+01 -2.5402869551e+02 +2.4303620489e+02 3.6248575986e+02 0.0000000000e+00 0.0000e+00 1.0000e+00
<mgrwt>
<rscale>  0 0.55458717E+03</rscale>
<asrwt>0</asrwt>
<pdfrwt beam="1">  1        2 0.74910000E-01 0.55458717E+03</pdfrwt>
<pdfrwt beam="2">  1       -2 0.24294789E-01 0.55458717E+03</pdfrwt>
<totfact> 0.10939437E+03</totfact>
</mgrwt>
<rwgt>
<wgt id='morphing_basis_vector_1'> +2.1056875e-04 </wgt>
<wgt id='morphing_basis_vector_2'> +1.2469099e-04 </wgt>
<wgt id='morphing_basis_vector_3'> +1.5785231e-04 </wgt>
<wgt id='morphing_basis_vector_4'> +6.0601221e-05 </wgt>
<wgt id='morphing_basis_vector_5'> +9.1753818e-05 </wgt>
</rwgt>
</event>
<event>
 4      1 +1.0153100e-05 5.27109100e+02 7.81860800e-03 9.34106900e-02
        2 -1    0    0  501    0 +0.0000000000e+00 +0.0000000000e+00 +7.6561869626e+02 7.6561869626e+02 0.0000000000e+00 0.0000e+00 -1.0000e+00
       -2 -1    0    0    0  501 -0.0000000000e+00 -0.0000000000e+00 -9.0725314357e+01 9.0725314357e+01 0.0000000000e+00 0.0000e+00 1.0000e+00
      -13  1    1    2    0    0 -2.1818364674e+02 -7.6641873937e+01 +1.3205835504e+02 2.6630337903e+02 0.0000000000e+00 0.0000e+00 1.0000e+00
       13  1    1    2    0    0 +2.1818364674e+02 +7.6641873937e+01 +5.4283502685e+02 5.9004063159e+02 0.0000000000e+00 0.0000e+00 -1.0000e+00
<mgrwt>
<rscale>  0 0.52710909E+03</rscale>
<asrwt>0</asrwt>
<pdfrwt beam="1">  1        2 0.11778749E+00 0.52710909E+03</pdfrwt>
<pdfrwt beam="2">  1       -2 0.13957741E-01 0.52710909E+03</pdfrwt>
<totfact> 0.15975101E+03</totfact>
</mgrwt>
<rwgt>
<wgt id='morphing_basis_vector_1'> +1.7815976e-04 </wgt>
<wgt id='morphing_basis_vector_2'> +1.0066046e-04 </wgt>
<wgt id='morphing_basis_vector_3'> +1.3126559e-04 </wgt>
<wgt id='morphing_basis_vector_4'> +4.7784025e-05 </wgt>
<wgt id='morphing_basis_vector_5'> +6.9410650e-05 </wgt>
</rwgt>
</event>
<event>
 4      1 +1.0153100e-05 6.06378700e+02 7.81860800e-03 9.18896300e-02
        2 -1    0    0  501    0 +0.0000000000e+00 +0.0000000000e+00 +1.0152590137e+02 1.0152590137e+02 0.0000000000e+00 0.0000e+00 -1.0000e+00
       -2 -1    0    0    0  501 -0.0000000000e+00 -0.0000000000e+00 -9.0542207787e+02 9.0542207787e+02 0.0000000000e+00 0.0000e+00 1.0000e+00
      -13  1    1    2    0    0 +6.2901352873e+01 +2.9609868026e+02 -4.3036237047e+02 5.2615851087e+02 0.0000000000e+00 0.0000e+00 1.0000e+00
       13  1    1    2    0    0 -6.2901352873e+01 -2.9609868026e+02 -3.7353380603e+02 4.8078946837e+02 0.0000000000e+00 0.0000e+00 -1.0000e+00
<mgrwt>
<rscale>  0 0.60637874E+03</rscale>
<asrwt>0</asrwt>
<pdfrwt beam="1">  1        2 0.15619371E-01 0.60637874E+03</pdfrwt>
<pdfrwt beam="2">  1       -2 0.13929569E+00 0.60637874E+03</pdfrwt>
<totfact> 0.17298813E+02</totfact>
</mgrwt>
<rwgt>
<wgt id='morphing_basis_vector_1'> +2.8448783e-04 </wgt>
<wgt id='morphing_basis_vector_2'> +1.8133267e-04 </wgt>
<wgt id='morphing_basis_vector_3'> +2.2104194e-04 </wgt>
<wgt id='morphing_basis_vector_4'> +9.0692081e-05 </wgt>
<wgt id='morphing_basis_vector_5'> +1.4634028e-04 </wgt>
</rwgt>
</event>
<event>
 4      1 +1.0153100e-05 5.79209600e+02 7.81860800e-03 9.23816700e-02
        2 -1    0    0  501    0 +0.0000000000e+00 +0.0000000000e+00 +2.3042066160e+03 2.3042066160e+03 0.0000000000e+00 0.0000e+00 1.0000e+00
       -2 -1    0    0    0  501 -0.0000000000e+00 -0.0000000000e+00 -3.6399053593e+01 3.6399053593e+01 0.0000000000e+00 0.0000e+00 -1.0000e+00
      -13  1    1    2    0    0 +2.4719789711e+02 -1.3286986128e+02 +8.4504079855e+02 8.9042414140e+02 0.0000000000e+00 0.0000e+00 -1.0000e+00
       13  1    1    2    0    0 -2.4719789711e+02 +1.3286986128e+02 +1.4227667639e+03 1.4501815282e+03 0.0000000000e+00 0.0000e+00 1.0000e+00
<mgrwt>
<rscale>  0 0.57920960E+03</rscale>
<asrwt>0</asrwt>
<pdfrwt beam="1">  1        2 0.35449321E+00 0.57920960E+03</pdfrwt>
<pdfrwt beam="2">  1       -2 0.55998562E-02 0.57920960E+03</pdfrwt>
<totfact> 0.87259817E+02</totfact>
</mgrwt>
<rwgt>
<wgt id='morphing_basis_vector_1'> +2.4176071e-04 </wgt>
<wgt id='morphing_basis_vector_2'> +1.4426571e-04 </wgt>
<wgt id='morphing_basis_vector_3'> +1.8572285e-04 </wgt>
<wgt id='morphing_basis_vector_4'> +7.5104553e-05 </wgt>
<wgt id='morphing_basis_vector_5'> +1.1551561e-04 </wgt>
</rwgt>
</event>
<event>
 4      1 +1.0153100e-05 5.26905200e+02 7.81860800e-03 9.34149700e-02
        2 -1    0    0  501    0 +0.0000000000e+00 +0.0000000000e+00 +7.3509737883e+02 7.3509737883e+02 0.0000000000e+00 0.0000e+00 -1.0000e+00
       -2 -1    0    0    0  501 -0.0000000000e+00 -0.0000000000e+00 -9.4419149163e+01 9.4419149163e+01 0.0000000000e+00 0.0000e+00 1.0000e+00
      -13  1    1    2    0    0 +1.4476823045e+02 -7.9167120351e+01 -2.9984257028e+00 1.6502807049e+02 0.0000000000e+00 0.0000e+00 1.0000e+00
       13  1    1    2    0    0 -1.4476823045e+02 +7.9167120351e+01 +6.4367665537e+02 6.6448845751e+02 0.0000000000e+00 0.0000e+00 -1.0000e+00
<mgrwt>
<rscale>  0 0.52690519E+03</rscale>
<asrwt>0</asrwt>
<pdfrwt beam="1">  1        2 0.11309190E+00 0.52690519E+03</pdfrwt>
<pdfrwt beam="2">  1       -2 0.14526023E-01 0.52690519E+03</pdfrwt>
<totfact> 0.15758587E+03</totfact>
</mgrwt>
<rwgt>
<wgt id='morphing_basis_vector_1'> +1.7725206e-04 </wgt>
<wgt id='morphing_basis_vector_2'> +9.8373823e-05 </wgt>
<wgt id='morphing_basis_vector_3'> +1.3127950e-04 </wgt>
<wgt id='morphing_basis_vector_4'> +4.8044325e-05 </wgt>
<wgt id='morphing_basis_vector_5'> +6.9239221e-05 </wgt>
</rwgt>
</event>
<event>
 4      1 +1.0153100e-05 5.32949000e+02 7.81860800e-03 9.32891700e-02
        2 -1    0    0  501    0 +0.0000000000e+00 +0.0000000000e+00 +2.0316736583e+02 2.0316736583e+02 0.0000000000e+00 0.0000e+00 -1.0000e+00
       -2 -1    0    0    0  501 -0.0000000000e+00 -0.0000000000e+00 -3.4950814750e+02 3.4950814750e+02 0.0000000000e+00 0.0000e+00 1.0000e+00
      -13  1    1    2    0    0 +5.0379105628e+01 +7.6403114832e+01 -3.3269990898e+02 3.4505755994e+02 0.0000000000e+00 0.0000e+00 1.0000e+00
       13  1    1    2    0    0 -5.0379105628e+01 -7.6403114832e+01 +1.8635912731e+02 2.0761795339e+02 0.0000000000e+00 0.0000e+00 -1.0000e+00
<mgrwt>
<rscale>  0 0.53294896E+03</rscale>
<asrwt>0</asrwt>
<pdfrwt beam="1">  1        2 0.31256518E-01 0.53294896E+03</pdfrwt>
<pdfrwt beam="2">  1       -2 0.53770484E-01 0.53294896E+03</pdfrwt>
<totfact> 0.68840218E+02</totfact>
</mgrwt>
<rwgt>
<wgt id='morphing_basis_vector_1'> +1.8351502e-04 </wgt>
<wgt id='morphing_basis_vector_2'> +1.0181568e-04 </wgt>
<wgt id='morphing_basis_vector_3'> +1.3685343e-04 </wgt>
<wgt id='morphing_basis_vector_4'> +5.0962424e-05 </wgt>
<wgt id='morphing_basis_vector_5'> +7.3777079e-05 </wgt>
</rwgt>
</event>
<event>
 4      1 +1.0153100e-05 5.58023200e+02 7.81860800e-03 9.27856600e-02
        2 -1    0    0  501    0 +0.0000000000e+00 +0.0000000000e+00 +9.2933765094e+02 9.2933765094e+02 0.0000000000e+00 0.0000e+00 1.0000e+00
       -2 -1    0    0    0  501 -0.0000000000e+00 -0.0000000000e+00 -8.3766620839e+01 8.3766620839e+01 0.0000000000e+00 0.0000e+00 -1.0000e+00
      -13  1    1    2    0    0 +1.7885710698e+02 +1.9491848012e+02 +5.8378873960e+02 6.4093086296e+02 0.0000000000e+00 0.0000e+00 -1.0000e+00
       13  1    1    2    0    0 -1.7885710698e+02 -1.9491848012e+02 +2.6178229050e+02 3.7217340882e+02 0.0000000000e+00 0.0000e+00 1.0000e+00
<mgrwt>
<rscale>  0 0.55802321E+03</rscale>
<asrwt>0</asrwt>
<pdfrwt beam="1">  1        2 0.14297502E+00 0.55802321E+03</pdfrwt>
<pdfrwt beam="2">  1       -2 0.12887173E-01 0.55802321E+03</pdfrwt>
<totfact> 0.14112926E+03</totfact>
</mgrwt>
<rwgt>
<wgt id='morphing_basis_vector_1'> +2.3312217e-04 </wgt>
<wgt id='morphing_basis_vector_2'> +1.8444696e-04 </wgt>
<wgt id='morphing_basis_vector_3'> +1.5879307e-04 </wgt>
<wgt id='morphing_basis_vector_4'> +5.0951674e-05 </wgt>
<wgt id='morphing_basis_vector_5'> +9.5210287e-05 </wgt>
</rwgt>
</event>
<event>
 4      1 +1.0153100e-05 5.91333200e+02 7.81860800e-03 9.21586600e-02
        2 -1    0    0  501    0 +0.0000000000e+00 +0.0000000000e+00 +4.7569797466e+01 4.7569797466e+01 0.0000000000e+00 0.0000e+00 1.0000e+00
       -2 -1    0    0    0  501 -0.0000000000e+00 -0.0000000000e+00 -1.8376944150e+03 1.8376944150e+03 0.0000000000e+00 0.0000e+00 -1.0000e+00
      -13  1    1    2    0    0 +2.7222255357e+02 +3.1645607415e+01 -1.2488213496e+03 1.2785387466e+03 0.0000000000e+00 0.0000e+00 -1.0000e+00
       13  1    1    2    0    0 -2.7222255357e+02 -3.1645607415e+01 -5.4130326786e+02 6.0672546587e+02 0.0000000000e+00 0.0000e+00 1.0000e+00
<mgrwt>
<rscale>  0 0.59133324E+03</rscale>
<asrwt>0</asrwt>
<pdfrwt beam="1">  1        2 0.73184322E-02 0.59133324E+03</pdfrwt>
<pdfrwt beam="2">  1       -2 0.28272215E+00 0.59133324E+03</pdfrwt>
<totfact> 0.40979932E+01</totfact>
</mgrwt>
<rwgt>
<wgt id='morphing_basis_vector_1'> +2.5703202e-04 </wgt>
<wgt id='morphing_basis_vector_2'> +1.5042566e-04 </wgt>
<wgt id='morphing_basis_vector_3'> +2.0083111e-04 </wgt>
<wgt id='morphing_basis_vector_4'> +8.4160840e-05 </wgt>
<wgt id='morphing_basis_vector_5'> +1.2863124e-04 </wgt>
</rwgt>
</event>
<event>
 4      1 +1.0153100e-05 5.29432500e+02 7.81860800e-03 9.33621500e-02
        2 -1    0    0  501    0 +0.0000000000e+00 +0.0000000000e+00 +7.4738731669e+02 7.4738731669e+02 0.0000000000e+00 0.0000e+00 -1.0000e+00
       -2 -1    0    0    0  501 -0.0000000000e+00 -0.0000000000e+00 -9.3759540998e+01 9.3759540998e+01 0.0000000000e+00 0.0000e+00 1.0000e+00
      -13  1    1    2    0    0 +7.8009692646e+01 -1.0574148378e+02 -3.8285207414e+01 1.3686683545e+02 0.0000000000e+00 0.0000e+00 1.0000e+00
       13  1    1    2    0    0 -7.8009692646e+01 +1.0574148378e+02 +6.9191298311e+02 7.0428002225e+02 0.0000000000e+00 0.0000e+00 -1.0000e+00
<mgrwt>
<rscale>  0 0.52943250E+03</rscale>
<asrwt>0</asrwt>
<pdfrwt beam="1">  1        2 0.11498266E+00 0.52943250E+03</pdfrwt>
<pdfrwt beam="2">  1       -2 0.14424545E-01 0.52943250E+03</pdfrwt>
<totfact> 0.15614602E+03</totfact>
</mgrwt>
<rwgt>
<wgt id='morphing_basis_vector_1'> +1.7982074e-04 </wgt>
<wgt id='morphing_basis_vector_2'> +9.9712128e-05 </wgt>
<wgt id='morphing_basis_vector_3'> +1.3359579e-04 </wgt>
<wgt id='morphing_basis_vector_4'> +4.9263526e-05 </wgt>
<wgt id='morphing_basis_vector_5'> +7.1112100e-05 </wgt>
</rwgt>
</event>
<event>
 4      1 +1.0153100e-05 6.04667800e+02 7.81860800e-03 9.19198000e-02
        2 -1    0    0  501    0 +0.0000000000e+00 +0.0000000000e+00 +1.1667805367e+03 1.1667805367e+03 0.0000000000e+00 0.0000e+00 -1.0000e+00
       -2 -1    0    0    0  501 -0.0000000000e+00 -0.0000000000e+00 -7.8340180785e+01 7.8340180785e+01 0.0000000000e+00 0.0000e+00 1.0000e+00
      -13  1    1    2    0    0 +4.1266622260e+01 -2.9725090215e+02 +4.6870785534e+02 5.5655016539e+02 0.0000000000e+00 0.0000e+00 1.0000e+00
       13  1    1    2    0    0 -4.1266622260e+01 +2.9725090215e+02 +6.1973250062e+02 6.8857055213e+02 0.0000000000e+00 0.0000e+00 -1.0000e+00
<mgrwt>
<rscale>  0 0.60466784E+03</rscale>
<asrwt>0</asrwt>
<pdfrwt beam="1">  1        2 0.17950469E+00 0.60466784E+03</pdfrwt>
<pdfrwt beam="2">  1       -2 0.12052336E-01 0.60466784E+03</pdfrwt>
<totfact> 0.11277746E+03</totfact>
</mgrwt>
<rwgt>
<wgt id='morphing_basis_vector_1'> +2.8022801e-04 </wgt>
<wgt id='morphing_basis_vector_2'> +1.7447035e-04 </wgt>
<wgt id='morphing_basis_vector_3'> +2.1859709e-04 </wgt>
<wgt id='morphing_basis_vector_4'> +9.0762840e-05 </wgt>
<wgt id='morphing_basis_vector_5'> +1.4424544e-04 </wgt>
</rwgt>
</event>
<event>
 4      1 +1.0153100e-05 5.63029100e+02 7.81860800e-03 9.26885100e-02
        2 -1    0    0  501    0 +0.0000000000e+00 +0.0000000000e+00 +2.8802360508e+02 2.8802360508e+02 0.0000000000e+00 0.0000e+00 -1.0000e+00
       -2 -1    0    0    0  501 -0.0000000000e+00 -0.0000000000e+00 -2.7515257242e+02 2.7515257242e+02 0.0000000000e+00 0.0000e+00 1.0000e+00
      -13  1    1    2    0    0 -1.1637686084e+02 -1.8970651872e+02 -1.6599948448e+02 2.7764719669e+02 0.0000000000e+00 0.0000e+00 1.0000e+00
       13  1    1    2    0    0 +1.1637686084e+02 +1.8970651872e+02 +1.7887051714e+02 2.8552898081e+02 0.0000000000e+00 0.0000e+00 -1.0000e+00
<mgrwt>
<rscale>  0 0.56302908E+03</rscale>
<asrwt>0</asrwt>
<pdfrwt beam="1">  1        2 0.44311324E-01 0.56302908E+03</pdfrwt>
<pdfrwt beam="2">  1       -2 0.42331165E-01 0.56302908E+03</pdfrwt>
<totfact> 0.73440663E+02</totfact>
</mgrwt>
<rwgt>
<wgt id='morphing_basis_vector_1'> +2.1845918e-04 </wgt>
<wgt id='morphing_basis_vector_2'> +1.2365223e-04 </wgt>
<wgt id='morphing_basis_vector_3'> +1.6730994e-04 </wgt>
<wgt id='morphing_basis_vector_4'> +6.6870977e-05 </wgt>
<wgt id='morphing_basis_vector_5'> +9.9435262e-05 </wgt>
</rwgt>
</event>
<event>
 4      1 +1.0153100e-05 5.71081300e+02 7.81860800e-03 9.25344600e-02
        2 -1    0    0  501    0 +0.0000000000e+00 +0.0000000000e+00 +1.0487419895e+03 1.0487419895e+03 0.0000000000e+00 0.0000e+00 1.0000e+00
       -2 -1    0    0    0  501 -0.0000000000e+00 -0.0000000000e+00 -7.7744055895e+01 7.7744055895e+01 0.0000000000e+00 0.0000e+00 -1.0000e+00
      -13  1    1    2    0    0 +2.1401020462e+02 -1.8820867521e+02 +4.5073602227e+02 5.3327838404e+02 0.0000000000e+00 0.0000e+00 -1.0000e+00
       13  1    1    2    0    0 -2.1401020462e+02 +1.8820867521e+02 +5.2026191130e+02 5.9320766133e+02 0.0000000000e+00 0.0000e+00 1.0000e+00
<mgrwt>
<rscale>  0 0.57108128E+03</rscale>
<asrwt>0</asrwt>
<pdfrwt beam="1">  1        2 0.16134491E+00 0.57108128E+03</pdfrwt>
<pdfrwt beam="2">  1       -2 0.11960625E-01 0.57108128E+03</pdfrwt>
<totfact> 0.13409751E+03</totfact>
</mgrwt>
<rwgt>
<wgt id='morphing_basis_vector_1'> +2.3421627e-04 </wgt>
<wgt id='morphing_basis_vector_2'> +1.4729411e-04 </wgt>
<wgt id='morphing_basis_vector_3'> +1.7582467e-04 </wgt>
<wgt id='morphing_basis_vector_4'> +6.7946606e-05 </wgt>
<wgt id='morphing_basis_vector_5'> +1.0730042e-04 </wgt>
</rwgt>
</event>
<event>
 4      1 +1.0153100e-05 5.34332300e+02 7.81860800e-03 9.32606300e-02
        2 -1    0    0  501    0 +0.0000000000e+00 +0.0000000000e+00 +2.5445008516e+02 2.5445008516e+02 0.0000000000e+00 0.0000e+00 -1.0000e+00
       -2 -1    0    0    0  501 -0.0000000000e+00 -0.0000000000e+00 -2.8051767053e+02 2.8051767053e+02 0.0000000000e+00 0.0000e+00 1.0000e+00
      -13  1    1    2    0    0 -7.6499984486e+01 +2.4471542496e+02 -8.8222097867e+01 2.7114760812e+02 0.0000000000e+00 0.0000e+00 1.0000e+00
       13  1    1    2    0    0 +7.6499984486e+01 -2.4471542496e+02 +6.2154512495e+01 2.6382014757e+02 0.0000000000e+00 0.0000e+00 -1.0000e+00
<mgrwt>
<rscale>  0 0.53433228E+03</rscale>
<asrwt>0</asrwt>
<pdfrwt beam="1">  1        2 0.39146167E-01 0.53433228E+03</pdfrwt>
<pdfrwt beam="2">  1       -2 0.43156565E-01 0.53433228E+03</pdfrwt>
<totfact> 0.81453524E+02</totfact>
</mgrwt>
<rwgt>
<wgt id='morphing_basis_vector_1'> +1.8706876e-04 </wgt>
<wgt id='morphing_basis_vector_2'> +1.0912522e-04 </wgt>
<wgt id='morphing_basis_vector_3'> +1.3762772e-04 </wgt>
<wgt id='morphing_basis_vector_4'> +5.0521486e-05 </wgt>
<wgt id='morphing_basis_vector_5'> +7.4902582e-05 </wgt>
</rwgt>
</event>
<event>
 4      1 +1.0153100e-05 5.43208900e+02 7.81860800e-03 9.30796400e-02
        2 -1    0    0  501    0 +0.0000000000e+00 +0.0000000000e+00 +1.7714926652e+03 1.7714926652e+03 0.0000000000e+00 0.0000e+00 -1.0000e+00
       -2 -1    0    0    0  501 -0.0000000000e+00 -0.0000000000e+00 -4.1642268401e+01 4.1642268401e+01 0.0000000000e+00 0.0000e+00 1.0000e+00
      -13  1    1    2    0    0 +2.4628164936e+02 +4.1436269628e+01 +5.0858456145e+02 5.6659498003e+02 0.0000000000e+00 0.0000e+00 1.0000e+00
       13  1    1    2    0    0 -2.4628164936e+02 -4.1436269628e+01 +1.2212658353e+03 1.2465399535e+03 0.0000000000e+00 0.0000e+00 -1.0000e+00
<mgrwt>
<rscale>  0 0.54320888E+03</rscale>
<asrwt>0</asrwt>
<pdfrwt beam="1">  1        2 0.27253728E+00 0.54320888E+03</pdfrwt>
<pdfrwt beam="2">  1       -2 0.64065042E-02 0.54320888E+03</pdfrwt>
<totfact> 0.13994001E+03</totfact>
</mgrwt>
<rwgt>
<wgt id='morphing_basis_vector_1'> +1.9606753e-04 </wgt>
<wgt id='morphing_basis_vector_2'> +1.1256796e-04 </wgt>
<wgt id='morphing_basis_vector_3'> +1.4642390e-04 </wgt>
<wgt id='morphing_basis_vector_4'> +5.5360252e-05 </wgt>
<wgt id='morphing_basis_vector_5'> +8.1975826e-05 </wgt>
</rwgt>
</event>
<event>
 4      1 +1.0153100e-05 5.99981000e+02 7.81860800e-03 9.20030100e-02
        2 -1    0    0  501    0 +0.0000000000e+00 +0.0000000000e+00 +1.3123274688e+03 1.3123274688e+03 0.0000000000e+00 0.0000e+00 -1.0000e+00
       -2 -1    0    0    0  501 -0.0000000000e+00 -0.0000000000e+00 -6.8576099586e+01 6.8576099586e+01 0.0000000000e+00 0.0000e+00 1.0000e+00
      -13  1    1    2    0    0 -1.9593651470e+02 -1.3945611893e+02 +1.0345916573e+03 1.0621765504e+03 0.0000000000e+00 0.0000e+00 1.0000e+00
       13  1    1    2    0    0 +1.9593651470e+02 +1.3945611893e+02 +2.0915971192e+02 3.1872701798e+02 0.0000000000e+00 0.0000e+00 -1.0000e+00
<mgrwt>
<rscale>  0 0.59998100E+03</rscale>
<asrwt>0</asrwt>
<pdfrwt beam="1">  1        2 0.20189652E+00 0.59998100E+03</pdfrwt>
<pdfrwt beam="2">  1       -2 0.10550170E-01 0.59998100E+03</pdfrwt>
<totfact> 0.11497471E+03</totfact>
</mgrwt>
<rwgt>
<wgt id='morphing_basis_vector_1'> +3.2741217e-04 </wgt>
<wgt id='morphing_basis_vector_2'> +3.3791628e-04 </wgt>
<wgt id='morphing_basis_vector_3'> +2.1324468e-04 </wgt>
<wgt id='morphing_basis_vector_4'> +4.5662698e-05 </wgt>
<wgt id='morphing_basis_vector_5'> +1.3889612e-04 </wgt>
</rwgt>
</event>
<event>
 4      1 +1.0153100e-05 5.28048100e+02 7.81860800e-03 9.33910400e-02
        2 -1    0    0  501    0 +0.0000000000e+00 +0.0000000000e+00 +1.2257905281e+03 1.2257905281e+03 0.0000000000e+00 0.0000e+00 1.0000e+00
       -2 -1    0    0    0  501 -0.0000000000e+00 -0.0000000000e+00 -5.6868369471e+01 5.6868369471e+01 0.0000000000e+00 0.0000e+00 -1.0000e+00
      -13  1    1    2    0    0 -2.2099797344e+02 -1.2953008262e+02 +4.2910467621e+02 4.9974890667e+02 0.0000000000e+00 0.0000e+00 -1.0000e+00
       13  1    1    2    0    0 +2.2099797344e+02 +1.2953008262e+02 +7.3981748241e+02 7.8290999090e+02 0.0000000000e+00 0.0000e+00 1.0000e+00
<mgrwt>
<rscale>  0 0.52804814E+03</rscale>
<asrwt>0</asrwt>
<pdfrwt beam="1">  1        2 0.18858314E+00 0.52804814E+03</pdfrwt>
<pdfrwt beam="2">  1       -2 0.87489808E-02 0.52804814E+03</pdfrwt>
<totfact> 0.17272099E+03</totfact>
</mgrwt>
<rwgt>
<wgt id='morphing_basis_vector_1'> +1.8069053e-04 </wgt>
<wgt id='morphing_basis_vector_2'> +1.0606102e-04 </wgt>
<wgt id='morphing_basis_vector_3'> +1.3168403e-04 </wgt>
<wgt id='morphing_basis_vector_4'> +4.7421338e-05 </wgt>
<wgt id='morphing_basis_vector_5'> +7.0151417e-05 </wgt>
</rwgt>
</event>
<event>
 4      1 +1.0153100e-05 6.04752000e+02 7.81860800e-03 9.19183200e-02
        2 -1    0    0  501    0 +0.0000000000e+00 +0.0000000000e+00 +1.7513626425e+02 1.7513626425e+02 0.0000000000e+00 0.0000e+00 1.0000e+00
       -2 -1    0    0    0  501 -0.0000000000e+00 -0.0000000000e+00 -5.2205781232e+02 5.2205781232e+02 0.0000000000e+00 0.0000e+00 -1.0000e+00
      -13  1    1    2    0    0 +1.4850200813e+02 +8.2485542904e+00 -4.7697249055e+02 4.9962350006e+02 0.0000000000e+00 0.0000e+00 -1.0000e+00
       13  1    1    2    0    0 -1.4850200813e+02 -8.2485542904e+00 +1.3005094248e+02 1.9757057652e+02 0.0000000000e+00 0.0000e+00 1.0000e+00
<mgrwt>
<rscale>  0 0.60475203E+03</rscale>
<asrwt>0</asrwt>
<pdfrwt beam="1">  1        2 0.26944041E-01 0.60475203E+03</pdfrwt>
<pdfrwt beam="2">  1       -2 0.80316584E-01 0.60475203E+03</pdfrwt>
<totfact> 0.35151274E+02</totfact>
</mgrwt>
<rwgt>
<wgt id='morphing_basis_vector_1'> +2.7444420e-04 </wgt>
<wgt id='morphing_basis_vector_2'> +1.5622970e-04 </wgt>
<wgt id='morphing_basis_vector_3'> +2.1849358e-04 </wgt>
<wgt id='morphing_basis_vector_4'> +9.5468071e-05 </wgt>
<wgt id='morphing_basis_vector_5'> +1.4432811e-04 </wgt>
</rwgt>
</event>
<event>
 4      1 +1.0153100e-05 5.38270700e+02 7.81860800e-03 9.31798700e-02
        2 -1    0    0  501    0 +0.0000000000e+00 +0.0000000000e+00 +1.7117167210e+03 1.7117167210e+03 0.0000000000e+00 0.0000e+00 -1.0000e+00
       -2 -1    0    0    0  501 -0.0000000000e+00 -0.0000000000e+00 -4.2316493483e+01 4.2316493483e+01 0.0000000000e+00 0.0000e+00 1.0000e+00
      -13  1    1    2    0    0 +1.0805140207e+02 +1.9949014698e+02 +3.6290026483e+02 4.2798133890e+02 0.0000000000e+00 0.0000e+00 1.0000e+00
       13  1    1    2    0    0 -1.0805140207e+02 -1.9949014698e+02 +1.3064999627e+03 1.3260518755e+03 0.0000000000e+00 0.0000e+00 -1.0000e+00
<mgrwt>
<rscale>  0 0.53827075E+03</rscale>
<asrwt>0</asrwt>
<pdfrwt beam="1">  1        2 0.26334098E+00 0.53827075E+03</pdfrwt>
<pdfrwt beam="2">  1       -2 0.65102311E-02 0.53827075E+03</pdfrwt>
<totfact> 0.14714656E+03</totfact>
</mgrwt>
<rwgt>
<wgt id='morphing_basis_vector_1'> +1.8988390e-04 </wgt>
<wgt id='morphing_basis_vector_2'> +1.0711968e-04 </wgt>
<wgt id='morphing_basis_vector_3'> +1.4175024e-04 </wgt>
<wgt id='morphing_basis_vector_4'> +5.3251513e-05 </wgt>
<wgt id='morphing_basis_vector_5'> +7.7956058e-05 </wgt>
</rwgt>
</event>
<event>
 4      1 +1.0153100e-05 5.53194000e+02 7.81860800e-03 9.28804100e-02
        2 -1    0    0  501    0 +0.0000000000e+00 +0.0000000000e+00 +1.5468454673e+02 1.5468454673e+02 0.0000000000e+00 0.0000e+00 -1.0000e+00
       -2 -1    0    0    0  501 -0.0000000000e+00 -0.0000000000e+00 -4.9459306718e+02 4.9459306718e+02 0.0000000000e+00 0.0000e+00 1.0000e+00
      -13  1    1    2    0    0 -5.4184769054e+01 +1.3820952539e+02 -4.4387432139e+02 4.6804089062e+02 0.0000000000e+00 0.0000e+00 1.0000e+00
       13  1    1    2    0    0 +5.4184769054e+01 -1.3820952539e+02 +1.0396580094e+02 1.8123672329e+02 0.0000000000e+00 0.0000e+00 -1.0000e+00
<mgrwt>
<rscale>  0 0.55319401E+03</rscale>
<asrwt>0</asrwt>
<pdfrwt beam="1">  1        2 0.23797623E-01 0.55319401E+03</pdfrwt>
<pdfrwt beam="2">  1       -2 0.76091240E-01 0.55319401E+03</pdfrwt>
<totfact> 0.45917689E+02</totfact>
</mgrwt>
<rwgt>
<wgt id='morphing_basis_vector_1'> +2.0623494e-04 </wgt>
<wgt id='morphing_basis_vector_2'> +1.1535444e-04 </wgt>
<wgt id='morphing_basis_vector_3'> +1.5683339e-04 </wgt>
<wgt id='morphing_basis_vector_4'> +6.1475584e-05 </wgt>
<wgt id='morphing_basis_vector_5'> +9.0462489e-05 </wgt>
</rwgt>
</event>
<event>
 4      1 +1.0153100e-05 5.42335600e+02 7.81860800e-03 9.30972800e-02
        2 -1    0    0  501    0 +0.0000000000e+00 +0.0000000000e+00 +3.8253532106e+02 3.8253532106e+02 0.0000000000e+00 0.0000e+00 -1.0000e+00
       -2 -1    0    0    0  501 -0.0000000000e+00 -0.0000000000e+00 -1.9222268058e+02 1.9222268058e+02 0.0000000000e+00 0.0000e+00 1.0000e+00
      -13  1    1    2    0    0 +2.1171077647e+02 -6.6768062341e+00 -8.4275713604e+01 2.2796584946e+02 0.0000000000e+00 0.0000e+00 1.0000e+00
       13  1    1    2    0    0 -2.1171077647e+02 +6.6768062341e+00 +2.7458835408e+02 3.4679215218e+02 0.0000000000e+00 0.0000e+00 -1.0000e+00
<mgrwt>
<rscale>  0 0.54233556E+03</rscale>
<asrwt>0</asrwt>
<pdfrwt beam="1">  1        2 0.58851588E-01 0.54233556E+03</pdfrwt>
<pdfrwt beam="2">  1       -2 0.29572720E-01 0.54233556E+03</pdfrwt>
<totfact> 0.10224795E+03</totfact>
</mgrwt>
<rwgt>
<wgt id='morphing_basis_vector_1'> +1.9413180e-04 </wgt>
<wgt id='morphing_basis_vector_2'> +1.0901164e-04 </wgt>
<wgt id='morphing_basis_vector_3'> +1.4576564e-04 </wgt>
<wgt id='morphing_basis_vector_4'> +5.5456565e-05 </wgt>
<wgt id='morphing_basis_vector_5'> +8.1233998e-05 </wgt>
</rwgt>
</event>
<event>
 4      1 +1.0153100e-05 5.88458700e+02 7.81860800e-03 9.22110200e-02
        2 -1    0    0  501    0 +0.0000000000e+00 +0.0000000000e+00 +1.4149294121e+02 1.4149294121e+02 0.0000000000e+00 0.0000e+00 1.0000e+00
       -2 -1    0    0    0  501 -0.0000000000e+00 -0.0000000000e+00 -6.1183905828e+02 6.1183905828e+02 0.0000000000e+00 0.0000e+00 -1.0000e+00
      -13  1    1    2    0    0 +2.1852379183e+02 +1.1791314565e+02 -4.3724159872e+02 5.0282837347e+02 0.0000000000e+00 0.0000e+00 -1.0000e+00
       13  1    1    2    0    0 -2.1852379183e+02 -1.1791314565e+02 -3.3104518354e+01 2.5050362602e+02 0.0000000000e+00 0.0000e+00 1.0000e+00
<mgrwt>
<rscale>  0 0.58845869E+03</rscale>
<asrwt>0</asrwt>
<pdfrwt beam="1">  1        2 0.21768144E-01 0.58845869E+03</pdfrwt>
<pdfrwt beam="2">  1       -2 0.94129087E-01 0.58845869E+03</pdfrwt>
<totfact> 0.31357074E+02</totfact>
</mgrwt>
<rwgt>
<wgt id='morphing_basis_vector_1'> +2.5196078e-04 </wgt>
<wgt id='morphing_basis_vector_2'> +1.4466374e-04 </wgt>
<wgt id='morphing_basis_vector_3'> +1.9721027e-04 </wgt>
<wgt id='morphing_basis_vector_4'> +8.2951790e-05 </wgt>
<wgt id='morphing_basis_vector_5'> +1.2541927e-04 </wgt>
</rwgt>
</event>
<event>
 4      1 +1.0153100e-05 5.85253600e+02 7.81860800e-03 9.22697800e-02
        2 -1    0    0  501    0 +0.0000000000e+00 +0.0000000000e+00 +1.0701770310e+03 1.0701770310e+03 0.0000000000e+00 0.0000e+00 1.0000e+00
       -2 -1    0    0    0  501 -0.0000000000e+00 -0.0000000000e+00 -8.0015220654e+01 8.0015220654e+01 0.0000000000e+00 0.0000e+00 -1.0000e+00
      -13  1    1    2    0    0 +2.6917690329e+02 +7.9252493330e+01 +3.3191119309e+02 4.3462881067e+02 0.0000000000e+00 0.0000e+00 -1.0000e+00
       13  1    1    2    0    0 -2.6917690329e+02 -7.9252493330e+01 +6.5825061725e+02 7.1556344099e+02 0.0000000000e+00 0.0000e+00 1.0000e+00
<mgrwt>
<rscale>  0 0.58525362E+03</rscale>
<asrwt>0</asrwt>
<pdfrwt beam="1">  1        2 0.16464261E+00 0.58525362E+03</pdfrwt>
<pdfrwt beam="2">  1       -2 0.12310035E-01 0.58525362E+03</pdfrwt>
<totfact> 0.12434345E+03</totfact>
</mgrwt>
<rwgt>
<wgt id='morphing_basis_vector_1'> +2.4951239e-04 </wgt>
<wgt id='morphing_basis_vector_2'> +1.4803896e-04 </wgt>
<wgt id='morphing_basis_vector_3'> +1.9314539e-04 </wgt>
<wgt id='morphing_basis_vector_4'> +7.9349414e-05 </wgt>
<wgt id='morphing_basis_vector_5'> +1.2193295e-04 </wgt>
</rwgt>
</event>
<event>
 4      1 +1.0153100e-05 5.49877000e+02 7.81860800e-03 9.29461000e-02
        2 -1    0    0  501    0 +0.0000000000e+00 +0.0000000000e+00 +9.2838710860e+02 9.2838710860e+02 0.0000000000e+00 0.0000e+00 1.0000e+00
       -2 -1    0    0    0  501 -0.0000000000e+00 -0.0000000000e+00 -8.1422053176e+01 8.1422053176e+01 0.0000000000e+00 0.0000e+00 -1.0000e+00
      -13  1    1    2    0    0 -2.4715982389e+02 +1.1549586754e+01 +2.0334235941e+02 3.2026471337e+02 0.0000000000e+00 0.0000e+00 -1.0000e+00
       13  1    1    2    0    0 +2.4715982389e+02 -1.1549586754e+01 +6.4362269602e+02 6.8954444841e+02 0.0000000000e+00 0.0000e+00 1.0000e+00
<mgrwt>
<rscale>  0 0.54987702E+03</rscale>
<asrwt>0</asrwt>
<pdfrwt beam="1">  1        2 0.14282878E+00 0.54987702E+03</pdfrwt>
<pdfrwt beam="2">  1       -2 0.12526470E-01 0.54987702E+03</pdfrwt>
<totfact> 0.14787100E+03</totfact>
</mgrwt>
<rwgt>
<wgt id='morphing_basis_vector_1'> +2.0345407e-04 </wgt>
<wgt id='morphing_basis_vector_2'> +1.1642825e-04 </wgt>
<wgt id='morphing_basis_vector_3'> +1.5320670e-04 </wgt>
<wgt id='morphing_basis_vector_4'> +5.9001521e-05 </wgt>
<wgt id='morphing_basis_vector_5'> +8.7593082e-05 </wgt>
</rwgt>
</event>
<event>
 4      1 +1.0153100e-05 5.62302400e+02 7.81860800e-03 9.27025400e-02
        2 -1    0    0  501    0 +0.0000000000e+00 +0.0000000000e+00 +1.8930731491e+03 1.8930731491e+03 0.0000000000e+00 0.0000e+00 -1.0000e+00
       -2 -1    0    0    0  501 -0.0000000000e+00 -0.0000000000e+00 -4.1755388184e+01 4.1755388184e+01 0.0000000000e+00 0.0000e+00 1.0000e+00
      -13  1    1    2    0    0 +6.2133174542e+00 +2.8048290389e+02 +9.8880105991e+02 1.0278311149e+03 0.0000000000e+00 0.0000e+00 1.0000e+00
       13  1    1    2    0    0 -6.2133174542e+00 -2.8048290389e+02 +8.6251670105e+02 9.0699742242e+02 0.0000000000e+00 0.0000e+00 -1.0000e+00
<mgrwt>
<rscale>  0 0.56230242E+03</rscale>
<asrwt>0</asrwt>
<pdfrwt beam="1">  1        2 0.29124196E+00 0.56230242E+03</pdfrwt>
<pdfrwt beam="2">  1       -2 0.64239073E-02 0.56230242E+03</pdfrwt>
<totfact> 0.11957838E+03</totfact>
</mgrwt>
<rwgt>
<wgt id='morphing_basis_vector_1'> +2.2634874e-04 </wgt>
<wgt id='morphing_basis_vector_2'> +1.5038549e-04 </wgt>
<wgt id='morphing_basis_vector_3'> +1.6536581e-04 </wgt>
<wgt id='morphing_basis_vector_4'> +6.0802712e-05 </wgt>
<wgt id='morphing_basis_vector_5'> +9.8913209e-05 </wgt>
</rwgt>
</event>
<event>
 4      1 +1.0153100e-05 5.24009300e+02 7.81860800e-03 9.34758900e-02
        2 -1    0    0  501    0 +0.0000000000e+00 +0.0000000000e+00 +1.6555862981e+02 1.6555862981e+02 0.0000000000e+00 0.0000e+00 1.0000e+00
       -2 -1    0    0    0  501 -0.0000000000e+00 -0.0000000000e+00 -4.1463513213e+02 4.1463513213e+02 0.0000000000e+00 0.0000e+00 -1.0000e+00
      -13  1    1    2    0    0 +1.4750219428e+02 -2.0747051353e+02 -1.9319942811e+02 3.1957304380e+02 0.0000000000e+00 0.0000e+00 -1.0000e+00
       13  1    1    2    0    0 -1.4750219428e+02 +2.0747051353e+02 -5.5877074209e+01 2.6062071814e+02 0.0000000000e+00 0.0000e+00 1.0000e+00
<mgrwt>
<rscale>  0 0.52400925E+03</rscale>
<asrwt>0</asrwt>
<pdfrwt beam="1">  1        2 0.25470559E-01 0.52400925E+03</pdfrwt>
<pdfrwt beam="2">  1       -2 0.63790019E-01 0.52400925E+03</pdfrwt>
<totfact> 0.61750000E+02</totfact>
</mgrwt>
<rwgt>
<wgt id='morphing_basis_vector_1'> +1.7651645e-04 </wgt>
<wgt id='morphing_basis_vector_2'> +1.0360109e-04 </wgt>
<wgt id='morphing_basis_vector_3'> +1.2801545e-04 </wgt>
<wgt id='morphing_basis_vector_4'> +4.5595722e-05 </wgt>
<wgt id='morphing_basis_vector_5'> +6.7203997e-05 </wgt>
</rwgt>
</event>
<event>
 4      1 +1.0153100e-05 5.84090900e+02 7.81860800e-03 9.22911900e-02
        2 -1    0    0  501    0 +0.0000000000e+00 +0.0000000000e+00 +3.1667549134e+02 3.1667549134e+02 0.0000000000e+00 0.0000e+00 1.0000e+00
       -2 -1    0    0    0  501 -0.0000000000e+00 -0.0000000000e+00 -2.6933103007e+02 2.6933103007e+02 0.0000000000e+00 0.0000e+00 -1.0000e+00
      -13  1    1    2    0    0 +1.3297600253e+02 -1.1975331657e+02 -2.0788129794e+02 2.7429565821e+02 0.0000000000e+00 0.0000e+00 -1.0000e+00
       13  1    1    2    0    0 -1.3297600253e+02 +1.1975331657e+02 +2.5522575920e+02 3.1171086320e+02 0.0000000000e+00 0.0000e+00 1.0000e+00
<mgrwt>
<rscale>  0 0.58409087E+03</rscale>
<asrwt>0</asrwt>
<pdfrwt beam="1">  1        2 0.48719306E-01 0.58409087E+03</pdfrwt>
<pdfrwt beam="2">  1       -2 0.41435543E-01 0.58409087E+03</pdfrwt>
<totfact> 0.68721086E+02</totfact>
</mgrwt>
<rwgt>
<wgt id='morphing_basis_vector_1'> +2.4527645e-04 </wgt>
<wgt id='morphing_basis_vector_2'> +1.3883890e-04 </wgt>
<wgt id='morphing_basis_vector_3'> +1.9181587e-04 </wgt>
<wgt id='morphing_basis_vector_4'> +8.0478022e-05 </wgt>
<wgt id='morphing_basis_vector_5'> +1.2065079e-04 </wgt>
</rwgt>
</event>
<event>
 4      1 +1.0153100e-05 5.85130900e+02 7.81860800e-03 9.22720400e-02
        2 -1    0    0  501    0 +0.0000000000e+00 +0.0000000000e+00 +9.7857418711e+02 9.7857418711e+02 0.0000000000e+00 0.0000e+00 1.0000e+00
       -2 -1    0    0    0  501 -0.0000000000e+00 -0.0000000000e+00 -8.7468629524e+01 8.7468629524e+01 0.0000000000e+00 0.0000e+00 -1.0000e+00
      -13  1    1    2    0    0 -2.3930200128e+01 -1.5167353345e+02 -8.1559011676e+00 1.5376616647e+02 0.0000000000e+00 0.0000e+00 -1.0000e+00
       13  1    1    2    0    0 +2.3930200128e+01 +1.5167353345e+02 +8.9926145875e+02 9.1227665016e+02 0.0000000000e+00 0.0000e+00 1.0000e+00
<mgrwt>
<rscale>  0 0.58513090E+03</rscale>
<asrwt>0</asrwt>
<pdfrwt beam="1">  1        2 0.15054987E+00 0.58513090E+03</pdfrwt>
<pdfrwt beam="2">  1       -2 0.13456713E-01 0.58513090E+03</pdfrwt>
<totfact> 0.12262585E+03</totfact>
</mgrwt>
<rwgt>
<wgt id='morphing_basis_vector_1'> +2.4661932e-04 </wgt>
<wgt id='morphing_basis_vector_2'> +1.3947994e-04 </wgt>
<wgt id='morphing_basis_vector_3'> +1.9309629e-04 </wgt>
<wgt id='morphing_basis_vector_4'> +8.1233579e-05 </wgt>
<wgt id='morphing_basis_vector_5'> +1.2177244e-04 </wgt>
</rwgt>
</event>
<event>
 4      1 +1.0153100e-05 5.75321400e+02 7.81860800e-03 9.24544300e-02
        2 -1    0    0  501    0 +0.0000000000e+00 +0.0000000000e+00 +7.4050714387e+02 7.4050714387e+02 0.0000000000e+00 0.0000e+00 -1.0000e+00
       -2 -1    0    0    0  501 -0.0000000000e+00 -0.0000000000e+00 -1.1174596721e+02 1.1174596721e+02 0.0000000000e+00 0.0000e+00 1.0000e+00
      -13  1    1    2    0    0 -1.4292793598e+02 -1.8760624347e+02 +7.0410586679e+01 2.4613441082e+02 0.0000000000e+00 0.0000e+00 1.0000e+00
       13  1    1    2    0    0 +1.4292793598e+02 +1.8760624347e+02 +5.5835058998e+02 6.0611870026e+02 0.0000000000e+00 0.0000e+00 -1.0000e+00
<mgrwt>
<rscale>  0 0.57532143E+03</rscale>
<asrwt>0</asrwt>
<pdfrwt beam="1">  1        2 0.11392417E+00 0.57532143E+03</pdfrwt>
<pdfrwt beam="2">  1       -2 0.17191688E-01 0.57532143E+03</pdfrwt>
<totfact> 0.11888194E+03</totfact>
</mgrwt>
<rwgt>
<wgt id='morphing_basis_vector_1'> +2.3416719e-04 </wgt>
<wgt id='morphing_basis_vector_2'> +1.3346525e-04 </wgt>
<wgt id='morphing_basis_vector_3'> +1.8126653e-04 </wgt>
<wgt id='morphing_basis_vector_4'> +7.4333854e-05 </wgt>
<wgt id='morphing_basis_vector_5'> +1.1147717e-04 </wgt>
</rwgt>
</event>
<event>
 4      1 +1.0153100e-05 5.65000000e+02 7.81860800e-03 9.26505500e-02
        2 -1    0    0  501    0 +0.0000000000e+00 +0.0000000000e+00 +1.7968981363e+03 1.7968981363e+03 0.0000000000e+00 0.0000e+00 -1.0000e+00
       -2 -1    0    0    0  501 -0.0000000000e+00 -0.0000000000e+00 -4.4413337258e+01 4.4413337258e+01 0.0000000000e+00 0.0000e+00 1.0000e+00
      -13  1    1    2    0    0 -2.8095528979e+02 -1.2871439058e+01 +7.8972984001e+02 8.3831662814e+02 0.0000000000e+00 0.0000e+00 1.0000e+00
       13  1    1    2    0    0 +2.8095528979e+02 +1.2871439058e+01 +9.6275495900e+02 1.0029948454e+03 0.0000000000e+00 0.0000e+00 -1.0000e+00
<mgrwt>
<rscale>  0 0.56499998E+03</rscale>
<asrwt>0</asrwt>
<pdfrwt beam="1">  1        2 0.27644581E+00 0.56499998E+03</pdfrwt>
<pdfrwt beam="2">  1       -2 0.68328225E-02 0.56499998E+03</pdfrwt>
<totfact> 0.12268667E+03</totfact>
</mgrwt>
<rwgt>
<wgt id='morphing_basis_vector_1'> +2.2568102e-04 </wgt>
<wgt id='morphing_basis_vector_2'> +1.3997127e-04 </wgt>
<wgt id='morphing_basis_vector_3'> +1.6891870e-04 </wgt>
<wgt id='morphing_basis_vector_4'> +6.4925135e-05 </wgt>
<wgt id='morphing_basis_vector_5'> +1.0138495e-04 </wgt>
</rwgt>
</event>
<event>
 4      1 +1.0153100e-05 5.87515900e+02 7.81860800e-03 9.22282600e-02
        2 -1    0    0  501    0 +0.0000000000e+00 +0.0000000000e+00 +1.8963758270e+03 1.8963758270e+03 0.0000000000e+00 0.0000e+00 -1.0000e+00
       -2 -1    0    0    0  501 -0.0000000000e+00 -0.0000000000e+00 -4.5504555233e+01 4.5504555233e+01 0.0000000000e+00 0.0000e+00 1.0000e+00
      -13  1    1    2    0    0 -9.7993406972e+01 -2.2948836209e+02 +4.1311166172e+02 4.8262704151e+02 0.0000000000e+00 0.0000e+00 1.0000e+00
       13  1    1    2    0    0 +9.7993406972e+01 +2.2948836209e+02 +1.4377596100e+03 1.4592533407e+03 0.0000000000e+00 0.0000e+00 -1.0000e+00
<mgrwt>
<rscale>  0 0.58751592E+03</rscale>
<asrwt>0</asrwt>
<pdfrwt beam="1">  1        2 0.29175007E+00 0.58751592E+03</pdfrwt>
<pdfrwt beam="2">  1       -2 0.70007023E-02 0.58751592E+03</pdfrwt>
<totfact> 0.10421264E+03</totfact>
</mgrwt>
<rwgt>
<wgt id='morphing_basis_vector_1'> +2.5070166e-04 </wgt>
<wgt id='morphing_basis_vector_2'> +1.4400043e-04 </wgt>
<wgt id='morphing_basis_vector_3'> +1.9602815e-04 </wgt>
<wgt id='morphing_basis_vector_4'> +8.2271683e-05 </wgt>
<wgt id='morphing_basis_vector_5'> +1.2438119e-04 </wgt>
</rwgt>
</event>
<event>
 4      1 +1.0153100e-05 5.21315100e+02 7.81860800e-03 9.35329400e-02
        2 -1    0    0  501    0 +0.0000000000e+00 +0.0000000000e+00 +4.7299503199e+02 4.7299503199e+02 0.0000000000e+00 0.0000e+00 -1.0000e+00
       -2 -1    0    0    0  501 -0.0000000000e+00 -0.0000000000e+00 -1.4364285247e+02 1.4364285247e+02 0.0000000000e+00 0.0000e+00 1.0000e+00
      -13  1    1    2    0    0 -1.1899143216e+02 -8.4294902332e+00 -1.0946045667e+02 1.6189999632e+02 0.0000000000e+00 0.0000e+00 1.0000e+00
       13  1    1    2    0    0 +1.1899143216e+02 +8.4294902332e+00 +4.3881263619e+02 4.5473788814e+02 0.0000000000e+00 0.0000e+00 -1.0000e+00
<mgrwt>
<rscale>  0 0.52131509E+03</rscale>
<asrwt>0</asrwt>
<pdfrwt beam="1">  1        2 0.72768466E-01 0.52131509E+03</pdfrwt>
<pdfrwt beam="2">  1       -2 0.22098901E-01 0.52131509E+03</pdfrwt>
<totfact> 0.13259677E+03</totfact>
</mgrwt>
<rwgt>
<wgt id='morphing_basis_vector_1'> +1.7145774e-04 </wgt>
<wgt id='morphing_basis_vector_2'> +9.4785187e-05 </wgt>
<wgt id='morphing_basis_vector_3'> +1.2633555e-04 </wgt>
<wgt id='morphing_basis_vector_4'> +4.5537527e-05 </wgt>
<wgt id='morphing_basis_vector_5'> +6.5209326e-05 </wgt>
</rwgt>
</event>
<event>
 4      1 +1.0153100e-05 5.52661600e+02 7.81860800e-03 9.28909200e-02
        2 -1    0    0  501    0 +0.0000000000e+00 +0.0000000000e+00 +2.9208204622e+02 2.9208204622e+02 0.0000000000e+00 0.0000e+00 -1.0000e+00
       -2 -1    0    0    0  501 -0.0000000000e+00 -0.0000000000e+00 -2.6142896914e+02 2.6142896914e+02 0.0000000000e+00 0.0000e+00 1.0000e+00
      -13  1    1    2    0    0 -2.1206553993e+02 +1.1039710493e+02 -1.2344830595e+02 2.6907024779e+02 0.0000000000e+00 0.0000e+00 1.0000e+00
       13  1    1    2    0    0 +2.1206553993e+02 -1.1039710493e+02 +1.5410138304e+02 2.8444076757e+02 0.0000000000e+00 0.0000e+00 -1.0000e+00
<mgrwt>
<rscale>  0 0.55266159E+03</rscale>
<asrwt>0</asrwt>
<pdfrwt beam="1">  1        2 0.44935699E-01 0.55266159E+03</pdfrwt>
<pdfrwt beam="2">  1       -2 0.40219842E-01 0.55266159E+03</pdfrwt>
<totfact> 0.79537092E+02</totfact>
</mgrwt>
<rwgt>
<wgt id='morphing_basis_vector_1'> +2.0638677e-04 </wgt>
<wgt id='morphing_basis_vector_2'> +1.1739447e-04 </wgt>
<wgt id='morphing_basis_vector_3'> +1.5614604e-04 </wgt>
<wgt id='morphing_basis_vector_4'> +6.0708295e-05 </wgt>
<wgt id='morphing_basis_vector_5'> +9.0010447e-05 </wgt>
</rwgt>
</event>
<event>
 4      1 +1.0153100e-05 5.80757900e+02 7.81860800e-03 9.23528700e-02
        2 -1    0    0  501    0 +0.0000000000e+00 +0.0000000000e+00 +2.0116112941e+03 2.0116112941e+03 0.0000000000e+00 0.0000e+00 -1.0000e+00
       -2 -1    0    0    0  501 -0.0000000000e+00 -0.0000000000e+00 -4.1916607144e+01 4.1916607144e+01 0.0000000000e+00 0.0000e+00 1.0000e+00
      -13  1    1    2    0    0 +5.4706405126e+01 -2.7709137822e+02 +7.4640039857e+02 7.9805136278e+02 0.0000000000e+00 0.0000e+00 1.0000e+00
       13  1    1    2    0    0 -5.4706405126e+01 +2.7709137822e+02 +1.2232942884e+03 1.2554765385e+03 0.0000000000e+00 0.0000e+00 -1.0000e+00
<mgrwt>
<rscale>  0 0.58075785E+03</rscale>
<asrwt>0</asrwt>
<pdfrwt beam="1">  1        2 0.30947859E+00 0.58075785E+03</pdfrwt>
<pdfrwt beam="2">  1       -2 0.64487104E-02 0.58075785E+03</pdfrwt>
<totfact> 0.10228193E+03</totfact>
</mgrwt>
<rwgt>
<wgt id='morphing_basis_vector_1'> +2.4403794e-04 </wgt>
<wgt id='morphing_basis_vector_2'> +1.4618813e-04 </wgt>
<wgt id='morphing_basis_vector_3'> +1.8758718e-04 </wgt>
<wgt id='morphing_basis_vector_4'> +7.5955316e-05 </wgt>
<wgt id='morphing_basis_vector_5'> +1.1714011e-04 </wgt>
</rwgt>
</event>
<event>
 4      1 +1.0153100e-05 5.24924900e+02 7.81860800e-03 9.34565800e-02
        2 -1    0    0  501    0 +0.0000000000e+00 +0.0000000000e+00 +6.4129314011e+02 6.4129314011e+02 0.0000000000e+00 0.0000e+00 -1.0000e+00
       -2 -1    0    0    0  501 -0.0000000000e+00 -0.0000000000e+00 -1.0741817750e+02 1.0741817750e+02 0.0000000000e+00 0.0000e+00 1.0000e+00
      -13  1    1    2    0    0 -1.3439519928e+02 +1.3147909599e+02 +5.2814397546e+02 5.6061116747e+02 0.0000000000e+00 0.0000e+00 1.0000e+00
       13  1    1    2    0    0 +1.3439519928e+02 -1.3147909599e+02 +5.7309871450e+00 1.8810015015e+02 0.0000000000e+00 0.0000e+00 -1.0000e+00
<mgrwt>
<rscale>  0 0.52492491E+03</rscale>
<asrwt>0</asrwt>
<pdfrwt beam="1">  1        2 0.98660481E-01 0.52492491E+03</pdfrwt>
<pdfrwt beam="2">  1       -2 0.16525874E-01 0.52492491E+03</pdfrwt>
<totfact> 0.15085264E+03</totfact>
</mgrwt>
<rwgt>
<wgt id='morphing_basis_vector_1'> +2.2311735e-04 </wgt>
<wgt id='morphing_basis_vector_2'> +2.4598531e-04 </wgt>
<wgt id='morphing_basis_vector_3'> +1.1539103e-04 </wgt>
<wgt id='morphing_basis_vector_4'> +2.3111598e-05 </wgt>
<wgt id='morphing_basis_vector_5'> +6.9305093e-05 </wgt>
</rwgt>
</event>
<event>
 4      1 +1.0153100e-05 5.67216800e+02 7.81860800e-03 9.26080500e-02
        2 -1    0    0  501    0 +0.0000000000e+00 +0.0000000000e+00 +3.7592414025e+02 3.7592414025e+02 0.0000000000e+00 0.0000e+00 -1.0000e+00
       -2 -1    0    0    0  501 -0.0000000000e+00 -0.0000000000e+00 -2.1396263489e+02 2.1396263489e+02 0.0000000000e+00 0.0000e+00 1.0000e+00
      -13  1    1    2    0    0 -4.8422576105e+01 -5.4922062943e+01 -2.0396365946e+02 2.1670799075e+02 0.0000000000e+00 0.0000e+00 1.0000e+00
       13  1    1    2    0    0 +4.8422576105e+01 +5.4922062943e+01 +3.6592516482e+02 3.7317878440e+02 0.0000000000e+00 0.0000e+00 -1.0000e+00
<mgrwt>
<rscale>  0 0.56721678E+03</rscale>
<asrwt>0</asrwt>
<pdfrwt beam="1">  1        2 0.57834483E-01 0.56721678E+03</pdfrwt>
<pdfrwt beam="2">  1       -2 0.32917328E-01 0.56721678E+03</pdfrwt>
<totfact> 0.86283382E+02</totfact>
</mgrwt>
<rwgt>
<wgt id='morphing_basis_vector_1'> +2.2319043e-04 </wgt>
<wgt id='morphing_basis_vector_2'> +1.2530975e-04 </wgt>
<wgt id='morphing_basis_vector_3'> +1.7202011e-04 </wgt>
<wgt id='morphing_basis_vector_4'> +6.9692968e-05 </wgt>
<wgt id='morphing_basis_vector_5'> +1.0342299e-04 </wgt>
</rwgt>
</event>
<event>
 4      1 +1.0153100e-05 5.33487000e+02 7.81860800e-03 9.32780600e-02
        2 -1    0    0  501    0 +0.0000000000e+00 +0.0000000000e+00 +1.2048640204e+03 1.2048640204e+03 0.0000000000e+00 0.0000e+00 -1.0000e+00
       -2 -1    0    0    0  501 -0.0000000000e+00 -0.0000000000e+00 -5.9054041373e+01 5.9054041373e+01 0.0000000000e+00 0.0000e+00 1.0000e+00
      -13  1    1    2    0    0 -1.7139661851e+02 -1.7121911759e+02 +8.3735400972e+02 8.7169634889e+02 0.0000000000e+00 0.0000e+00 1.0000e+00
       13  1    1    2    0    0 +1.7139661851e+02 +1.7121911759e+02 +3.0845596935e+02 3.9222171293e+02 0.0000000000e+00 0.0000e+00 -1.0000e+00
<mgrwt>
<rscale>  0 0.53348698E+03</rscale>
<asrwt>0</asrwt>
<pdfrwt beam="1">  1        2 0.18536368E+00 0.53348698E+03</pdfrwt>
<pdfrwt beam="2">  1       -2 0.90852381E-02 0.53348698E+03</pdfrwt>
<totfact> 0.16741286E+03</totfact>
</mgrwt>
<rwgt>
<wgt id='morphing_basis_vector_1'> +2.0914416e-04 </wgt>
<wgt id='morphing_basis_vector_2'> +1.7997768e-04 </wgt>
<wgt id='morphing_basis_vector_3'> +1.3095291e-04 </wgt>
<wgt id='morphing_basis_vector_4'> +3.7823987e-05 </wgt>
<wgt id='morphing_basis_vector_5'> +7.4905269e-05 </wgt>
</rwgt>
</event>
<event>
 4      1 +1.0153100e-05 5.94503400e+02 7.81860800e-03 9.21012700e-02
        2 -1    0    0  501    0 +0.0000000000e+00 +0.0000000000e+00 +1.5775279840e+03 1.5775279840e+03 0.0000000000e+00 0.0000e+00 -1.0000e+00
       -2 -1    0    0    0  501 -0.0000000000e+00 -0.0000000000e+00 -5.6010784506e+01 5.6010784506e+01 0.0000000000e+00 0.0000e+00 1.0000e+00
      -13  1    1    2    0    0 -1.9609789777e+02 -1.4580910851e+02 +2.9571770205e+02 3.8361913526e+02 0.0000000000e+00 0.0000e+00 1.0000e+00
       13  1    1    2    0    0 +1.9609789777e+02 +1.4580910851e+02 +1.2257994974e+03 1.2499196332e+03 0.0000000000e+00 0.0000e+00 -1.0000e+00
<mgrwt>
<rscale>  0 0.59450342E+03</rscale>
<asrwt>0</asrwt>
<pdfrwt beam="1">  1        2 0.24269658E+00 0.59450342E+03</pdfrwt>
<pdfrwt beam="2">  1       -2 0.86170450E-02 0.59450342E+03</pdfrwt>
<totfact> 0.11268510E+03</totfact>
</mgrwt>
<rwgt>
<wgt id='morphing_basis_vector_1'> +2.6028366e-04 </wgt>
<wgt id='morphing_basis_vector_2'> +1.4937314e-04 </wgt>
<wgt id='morphing_basis_vector_3'> +2.0491696e-04 </wgt>
<wgt id='morphing_basis_vector_4'> +8.7317988e-05 </wgt>
<wgt id='morphing_basis_vector_5'> +1.3221982e-04 </wgt>
</rwgt>
</event>
<event>
 4      1 +1.0153100e-05 5.82479400e+02 7.81860800e-03 9.23209600e-02
        2 -1    0    0  501    0 +0.0000000000e+00 +0.0000000000e+00 +3.4124877390e+02 3.4124877390e+02 0.0000000000e+00 0.0000e+00 -1.0000e+00
       -2 -1    0    0    0  501 -0.0000000000e+00 -0.0000000000e+00 -2.4855934159e+02 2.4855934159e+02 0.0000000000e+00 0.0000e+00 1.0000e+00
      -13  1    1    2    0    0 -2.2617816397e+02 +7.8422106572e+01 -1.2161567494e+02 2.6850877275e+02 0.0000000000e+00 0.0000e+00 1.0000e+00
       13  1    1    2    0    0 +2.2617816397e+02 -7.8422106572e+01 +2.1430510725e+02 3.2129934274e+02 0.0000000000e+00 0.0000e+00 -1.0000e+00
<mgrwt>
<rscale>  0 0.58247943E+03</rscale>
<asrwt>0</asrwt>
<pdfrwt beam="1">  1        2 0.52499812E-01 0.58247943E+03</pdfrwt>
<pdfrwt beam="2">  1       -2 0.38239899E-01 0.58247943E+03</pdfrwt>
<totfact> 0.73332167E+02</totfact>
</mgrwt>
<rwgt>
<wgt id='morphing_basis_vector_1'> +2.4365893e-04 </wgt>
<wgt id='morphing_basis_vector_2'> +1.3925118e-04 </wgt>
<wgt id='morphing_basis_vector_3'> +1.8982238e-04 </wgt>
<wgt id='morphing_basis_vector_4'> +7.8996374e-05 </wgt>
<wgt id='morphing_basis_vector_5'> +1.1893214e-04 </wgt>
</rwgt>
</event>
<event>
 4      1 +1.0153100e-05 5.58280400e+02 7.81860800e-03 9.27806400e-02
        2 -1    0    0  501    0 +0.0000000000e+00 +0.0000000000e+00 +2.3519047334e+02 2.3519047334e+02 0.0000000000e+00 0.0000e+00 -1.0000e+00
       -2 -1    0    0    0  501 -0.0000000000e+00 -0.0000000000e+00 -3.3130272517e+02 3.3130272517e+02 0.0000000000e+00 0.0000e+00 1.0000e+00
      -13  1    1    2    0    0 -9.7490827408e+01 -7.0814400916e+01 -3.0355401834e+02 3.2659482981e+02 0.0000000000e+00 0.0000e+00 1.0000e+00
       13  1    1    2    0    0 +9.7490827408e+01 +7.0814400916e+01 +2.0744176652e+02 2.3989836869e+02 0.0000000000e+00 0.0000e+00 -1.0000e+00
<mgrwt>
<rscale>  0 0.55828038E+03</rscale>
<asrwt>0</asrwt>
<pdfrwt beam="1">  1        2 0.36183150E-01 0.55828038E+03</pdfrwt>
<pdfrwt beam="2">  1       -2 0.50969650E-01 0.55828038E+03</pdfrwt>
<totfact> 0.64712952E+02</totfact>
</mgrwt>
<rwgt>
<wgt id='morphing_basis_vector_1'> +2.1224326e-04 </wgt>
<wgt id='morphing_basis_vector_2'> +1.1883680e-04 </wgt>
<wgt id='morphing_basis_vector_3'> +1.6221490e-04 </wgt>
<wgt id='morphing_basis_vector_4'> +6.4378647e-05 </wgt>
<wgt id='morphing_basis_vector_5'> +9.5025803e-05 </wgt>
</rwgt>
</event>
<event>
 4      1 +1.0153100e-05 5.37601100e+02 7.81860800e-03 9.31935500e-02
        2 -1    0    0  501    0 +0.0000000000e+00 +0.0000000000e+00 +2.1597169062e+02 2.1597169062e+02 0.0000000000e+00 0.0000e+00 -1.0000e+00
       -2 -1    0    0    0  501 -0.0000000000e+00 -0.0000000000e+00 -3.3455182273e+02 3.3455182273e+02 0.0000000000e+00 0.0000e+00 1.0000e+00
      -13  1    1    2    0    0 +1.1142248914e+02 +1.9605320686e+02 -2.0910042497e+02 3.0753019157e+02 0.0000000000e+00 0.0000e+00 1.0000e+00
       13  1    1    2    0    0 -1.1142248914e+02 -1.9605320686e+02 +9.0520292856e+01 2.4299332177e+02 0.0000000000e+00 0.0000e+00 -1.0000e+00
<mgrwt>
<rscale>  0 0.53760105E+03</rscale>
<asrwt>0</asrwt>
<pdfrwt beam="1">  1        2 0.33226414E-01 0.53760105E+03</pdfrwt>
<pdfrwt beam="2">  1       -2 0.51469511E-01 0.53760105E+03</pdfrwt>
<totfact> 0.69971707E+02</totfact>
</mgrwt>
<rwgt>
<wgt id='morphing_basis_vector_1'> +1.8912806e-04 </wgt>
<wgt id='morphing_basis_vector_2'> +1.0661372e-04 </wgt>
<wgt id='morphing_basis_vector_3'> +1.4111150e-04 </wgt>
<wgt id='morphing_basis_vector_4'> +5.2929895e-05 </wgt>
<wgt id='morphing_basis_vector_5'> +7.7423175e-05 </wgt>
</rwgt>
</event>
<event>
 4      1 +1.0153100e-05 5.56551800e+02 7.81860800e-03 9.28144200e-02
        2 -1    0    0  501    0 +0.0000000000e+00 +0.0000000000e+00 +1.3424896381e+02 1.3424896381e+02 0.0000000000e+00 0.0000e+00 -1.0000e+00
       -2 -1    0    0    0  501 -0.0000000000e+00 -0.0000000000e+00 -5.7681990258e+02 5.7681990258e+02 0.0000000000e+00 0.0000e+00 1.0000e+00
      -13  1    1    2    0    0 -6.7556749925e-01 +2.1612088749e+02 -4.4524973806e+02 4.9493032201e+02 0.0000000000e+00 0.0000e+00 1.0000e+00
       13  1    1    2    0    0 +6.7556749925e-01 -2.1612088749e+02 +2.6787992947e+00 2.1613854438e+02 0.0000000000e+00 0.0000e+00 -1.0000e+00
<mgrwt>
<rscale>  0 0.55655179E+03</rscale>
<asrwt>0</asrwt>
<pdfrwt beam="1">  1        2 0.20653687E-01 0.55655179E+03</pdfrwt>
<pdfrwt beam="2">  1       -2 0.88741523E-01 0.55655179E+03</pdfrwt>
<totfact> 0.38325365E+02</totfact>
</mgrwt>
<rwgt>
<wgt id='morphing_basis_vector_1'> +2.1055294e-04 </wgt>
<wgt id='morphing_basis_vector_2'> +1.1878449e-04 </wgt>
<wgt id='morphing_basis_vector_3'> +1.6031291e-04 </wgt>
<wgt id='morphing_basis_vector_4'> +6.3152617e-05 </wgt>
<wgt id='morphing_basis_vector_5'> +9.3465122e-05 </wgt>
</rwgt>
</event>
<event>
 4      1 +1.0153100e-05 6.07494900e+02 7.81860800e-03 9.18700000e-02
        2 -1    0    0  501    0 +0.0000000000e+00 +0.0000000000e+00 +8.4470911877e+02 8.4470911877e+02 0.0000000000e+00 0.0000e+00 1.0000e+00
       -2 -1    0    0    0  501 -0.0000000000e+00 -0.0000000000e+00 -1.0922399194e+02 1.0922399194e+02 0.0000000000e+00 0.0000e+00 -1.0000e+00
      -13  1    1    2    0    0 +2.6241722969e+02 +8.1820641008e+01 +1.6478762519e+02 3.2048772387e+02 0.0000000000e+00 0.0000e+00 -1.0000e+00
       13  1    1    2    0    0 -2.6241722969e+02 -8.1820641008e+01 +5.7069750163e+02 6.3344538684e+02 0.0000000000e+00 0.0000e+00 1.0000e+00
<mgrwt>
<rscale>  0 0.60749486E+03</rscale>
<asrwt>0</asrwt>
<pdfrwt beam="1">  1        2 0.12995524E+00 0.60749486E+03</pdfrwt>
<pdfrwt beam="2">  1       -2 0.16803692E-01 0.60749486E+03</pdfrwt>
<totfact> 0.10439295E+03</totfact>
</mgrwt>
<rwgt>
<wgt id='morphing_basis_vector_1'> +2.8015522e-04 </wgt>
<wgt id='morphing_basis_vector_2'> +1.6374125e-04 </wgt>
<wgt id='morphing_basis_vector_3'> +2.2232174e-04 </wgt>
<wgt id='morphing_basis_vector_4'> +9.6300526e-05 </wgt>
<wgt id='morphing_basis_vector_5'> +1.4770011e-04 </wgt>
</rwgt>
</event>
<event>
 4      1 +1.0153100e-05 5.24029100e+02 7.81860800e-03 9.34754700e-02
        2 -1    0    0  501    0 +0.0000000000e+00 +0.0000000000e+00 +6.5901376433e+02 6.5901376433e+02 0.0000000000e+00 0.0000e+00 -1.0000e+00
       -2 -1    0    0    0  501 -0.0000000000e+00 -0.0000000000e+00 -1.0417329590e+02 1.0417329590e+02 0.0000000000e+00 0.0000e+00 1.0000e+00
      -13  1    1    2    0    0 -1.9477386110e+02 +1.2732588605e+02 +1.0203099329e+02 2.5408475322e+02 0.0000000000e+00 0.0000e+00 1.0000e+00
       13  1    1    2    0    0 +1.9477386110e+02 -1.2732588605e+02 +4.5280947514e+02 5.0910230701e+02 0.0000000000e+00 0.0000e+00 -1.0000e+00
<mgrwt>
<rscale>  0 0.52402914E+03</rscale>
<asrwt>0</asrwt>
<pdfrwt beam="1">  1        2 0.10138673E+00 0.52402914E+03</pdfrwt>
<pdfrwt beam="2">  1       -2 0.16026661E-01 0.52402914E+03</pdfrwt>
<totfact> 0.15349376E+03</totfact>
</mgrwt>
<rwgt>
<wgt id='morphing_basis_vector_1'> +1.7505647e-04 </wgt>
<wgt id='morphing_basis_vector_2'> +9.9014987e-05 </wgt>
<wgt id='morphing_basis_vector_3'> +1.2847543e-04 </wgt>
<wgt id='morphing_basis_vector_4'> +4.6341526e-05 </wgt>
<wgt id='morphing_basis_vector_5'> +6.7171137e-05 </wgt>
</rwgt>
</event>
<event>
 4      1 +1.0153100e-05 5.26974500e+02 7.81860800e-03 9.34135200e-02
        2 -1    0    0  501    0 +0.0000000000e+00 +0.0000000000e+00 +1.5416323816e+02 1.5416323816e+02 0.0000000000e+00 0.0000e+00 1.0000e+00
       -2 -1    0    0    0  501 -0.0000000000e+00 -0.0000000000e+00 -4.5033778370e+02 4.5033778370e+02 0.0000000000e+00 0.0000e+00 -1.0000e+00
      -13  1    1    2    0    0 +1.3100093292e+02 +1.8025825368e+02 +1.3209057462e+01 2.2322356875e+02 0.0000000000e+00 0.0000e+00 1.0000e+00
       13  1    1    2    0    0 -1.3100093292e+02 -1.8025825368e+02 -3.0938360300e+02 3.8127745311e+02 0.0000000000e+00 0.0000e+00 -1.0000e+00
<mgrwt>
<rscale>  0 0.52697450E+03</rscale>
<asrwt>0</asrwt>
<pdfrwt beam="1">  1        2 0.23717421E-01 0.52697450E+03</pdfrwt>
<pdfrwt beam="2">  1       -2 0.69282736E-01 0.52697450E+03</pdfrwt>
<totfact> 0.56462934E+02</totfact>
</mgrwt>
<rwgt>
<wgt id='morphing_basis_vector_1'> +2.1066333e-04 </wgt>
<wgt id='morphing_basis_vector_2'> +2.0197381e-04 </wgt>
<wgt id='morphing_basis_vector_3'> +1.2183585e-04 </wgt>
<wgt id='morphing_basis_vector_4'> +3.1091922e-05 </wgt>
<wgt id='morphing_basis_vector_5'> +7.0317772e-05 </wgt>
</rwgt>
</event>
<event>
 4      1 +1.0153100e-05 5.20646800e+02 7.81860800e-03 9.35471500e-02
        2 -1    0    0  501    0 +0.0000000000e+00 +0.0000000000e+00 +3.6474080560e+02 3.6474080560e+02 0.0000000000e+00 0.0000e+00 -1.0000e+00
       -2 -1    0    0    0  501 -0.0000000000e+00 -0.0000000000e+00 -1.8579844645e+02 1.8579844645e+02 0.0000000000e+00 0.0000e+00 1.0000e+00
      -13  1    1    2    0    0 +5.1351557115e+01 -6.9907743158e+01 -1.7006786301e+02 1.9091137473e+02 0.0000000000e+00 0.0000e+00 1.0000e+00
       13  1    1    2    0    0 -5.1351557115e+01 +6.9907743158e+01 +3.4901022216e+02 3.5962787732e+02 0.0000000000e+00 0.0000e+00 -1.0000e+00
<mgrwt>
<rscale>  0 0.52064681E+03</rscale>
<asrwt>0</asrwt>
<pdfrwt beam="1">  1        2 0.56113970E-01 0.52064681E+03</pdfrwt>
<pdfrwt beam="2">  1       -2 0.28584376E-01 0.52064681E+03</pdfrwt>
<totfact> 0.11444928E+03</totfact>
</mgrwt>
<rwgt>
<wgt id='morphing_basis_vector_1'> +1.7076846e-04 </wgt>
<wgt id='morphing_basis_vector_2'> +9.4341394e-05 </wgt>
<wgt id='morphing_basis_vector_3'> +1.2575741e-04 </wgt>
<wgt id='morphing_basis_vector_4'> +4.5247803e-05 </wgt>
<wgt id='morphing_basis_vector_5'> +6.4738210e-05 </wgt>
</rwgt>
</event>
<event>
 4      1 +1.0153100e-05 5.60437700e+02 7.81860800e-03 9.27386600e-02
        2 -1    0    0  501    0 +0.0000000000e+00 +0.0000000000e+00 +9.6751106728e+02 9.6751106728e+02 0.0000000000e+00 0.0000e+00 1.0000e+00
       -2 -1    0    0    0  501 -0.0000000000e+00 -0.0000000000e+00 -8.1159372014e+01 8.1159372014e+01 0.0000000000e+00 0.0000e+00 -1.0000e+00
      -13  1    1    2    0    0 +4.7250864990e+00 -2.5149084223e+02 +2.1208435781e+02 3.2901329000e+02 0.0000000000e+00 0.0000e+00 -1.0000e+00
       13  1    1    2    0    0 -4.7250864990e+00 +2.5149084223e+02 +6.7426733745e+02 7.1965714929e+02 0.0000000000e+00 0.0000e+00 1.0000e+00
<mgrwt>
<rscale>  0 0.56043765E+03</rscale>
<asrwt>0</asrwt>
<pdfrwt beam="1">  1        2 0.14884785E+00 0.56043765E+03</pdfrwt>
<pdfrwt beam="2">  1       -2 0.12486058E-01 0.56043765E+03</pdfrwt>
<totfact> 0.14044212E+03</totfact>
</mgrwt>
<rwgt>
<wgt id='morphing_basis_vector_1'> +2.1601318e-04 </wgt>
<wgt id='morphing_basis_vector_2'> +1.2400063e-04 </wgt>
<wgt id='morphing_basis_vector_3'> +1.6437823e-04 </wgt>
<wgt id='morphing_basis_vector_4'> +6.4890956e-05 </wgt>
<wgt id='morphing_basis_vector_5'> +9.7030377e-05 </wgt>
</rwgt>
</event>
<event>
 4      1 +1.0153100e-05 5.53545900e+02 7.81860800e-03 9.28734700e-02
        2 -1    0    0  501    0 +0.0000000000e+00 +0.0000000000e+00 +1.9278106724e+03 1.9278106724e+03 0.0000000000e+00 0.0000e+00 1.0000e+00
       -2 -1    0    0    0  501 -0.0000000000e+00 -0.0000000000e+00 -3.9735880070e+01 3.9735880070e+01 0.0000000000e+00 0.0000e+00 -1.0000e+00
      -13  1    1    2    0    0 +2.4545480763e+02 -1.2779647470e+02 +9.6117708357e+02 1.0002206694e+03 0.0000000000e+00 0.0000e+00 -1.0000e+00
       13  1    1    2    0    0 -2.4545480763e+02 +1.2779647470e+02 +9.2689770875e+02 9.6732588305e+02 0.0000000000e+00 0.0000e+00 1.0000e+00
<mgrwt>
<rscale>  0 0.55354586E+03</rscale>
<asrwt>0</asrwt>
<pdfrwt beam="1">  1        2 0.29658618E+00 0.55354586E+03</pdfrwt>
<pdfrwt beam="2">  1       -2 0.61132138E-02 0.55354586E+03</pdfrwt>
<totfact> 0.12355328E+03</totfact>
</mgrwt>
<rwgt>
<wgt id='morphing_basis_vector_1'> +2.1399152e-04 </wgt>
<wgt id='morphing_basis_vector_2'> +1.3840432e-04 </wgt>
<wgt id='morphing_basis_vector_3'> +1.5597031e-04 </wgt>
<wgt id='morphing_basis_vector_4'> +5.7189546e-05 </wgt>
<wgt id='morphing_basis_vector_5'> +9.0930173e-05 </wgt>
</rwgt>
</event>
<event>
 4      1 +1.0153100e-05 5.45953500e+02 7.81860800e-03 9.30244300e-02
        2 -1    0    0  501    0 +0.0000000000e+00 +0.0000000000e+00 +1.0793864008e+03 1.0793864008e+03 0.0000000000e+00 0.0000e+00 1.0000e+00
       -2 -1    0    0    0  501 -0.0000000000e+00 -0.0000000000e+00 -6.9035803995e+01 6.9035803995e+01 0.0000000000e+00 0.0000e+00 -1.0000e+00
      -13  1    1    2    0    0 +1.6990466991e+02 +1.1767100617e+02 +8.8029926614e+02 9.0423495869e+02 0.0000000000e+00 0.0000e+00 1.0000e+00
       13  1    1    2    0    0 -1.6990466991e+02 -1.1767100617e+02 +1.3005133066e+02 2.4418724610e+02 0.0000000000e+00 0.0000e+00 -1.0000e+00
<mgrwt>
<rscale>  0 0.54595351E+03</rscale>
<asrwt>0</asrwt>
<pdfrwt beam="1">  1        2 0.16605943E+00 0.54595351E+03</pdfrwt>
<pdfrwt beam="2">  1       -2 0.10620894E-01 0.54595351E+03</pdfrwt>
<totfact> 0.15509106E+03</totfact>
</mgrwt>
<rwgt>
<wgt id='morphing_basis_vector_1'> +2.4766503e-04 </wgt>
<wgt id='morphing_basis_vector_2'> +2.6504280e-04 </wgt>
<wgt id='morphing_basis_vector_3'> +1.3945421e-04 </wgt>
<wgt id='morphing_basis_vector_4'> +2.8548376e-05 </wgt>
<wgt id='morphing_basis_vector_5'> +8.5426746e-05 </wgt>
</rwgt>
</event>
<event>
 4      1 +1.0153100e-05 5.38488100e+02 7.81860800e-03 9.31754300e-02
        2 -1    0    0  501    0 +0.0000000000e+00 +0.0000000000e+00 +5.7264038447e+02 5.7264038447e+02 0.0000000000e+00 0.0000e+00 1.0000e+00
       -2 -1    0    0    0  501 -0.0000000000e+00 -0.0000000000e+00 -1.2659317881e+02 1.2659317881e+02 0.0000000000e+00 0.0000e+00 -1.0000e+00
      -13  1    1    2    0    0 +2.5727354590e+02 +2.3239814665e+01 +1.2445119258e+02 2.8673657901e+02 0.0000000000e+00 0.0000e+00 -1.0000e+00
       13  1    1    2    0    0 -2.5727354590e+02 -2.3239814665e+01 +3.2159601308e+02 4.1249698427e+02 0.0000000000e+00 0.0000e+00 1.0000e+00
<mgrwt>
<rscale>  0 0.53848813E+03</rscale>
<asrwt>0</asrwt>
<pdfrwt beam="1">  1        2 0.88098520E-01 0.53848813E+03</pdfrwt>
<pdfrwt beam="2">  1       -2 0.19475874E-01 0.53848813E+03</pdfrwt>
<totfact> 0.13158823E+03</totfact>
</mgrwt>
<rwgt>
<wgt id='morphing_basis_vector_1'> +1.9162300e-04 </wgt>
<wgt id='morphing_basis_vector_2'> +1.1192250e-04 </wgt>
<wgt id='morphing_basis_vector_3'> +1.4160988e-04 </wgt>
<wgt id='morphing_basis_vector_4'> +5.2528886e-05 </wgt>
<wgt id='morphing_basis_vector_5'> +7.8169490e-05 </wgt>
</rwgt>
</event>
<event>
 4      1 +1.0153100e-05 5.45760200e+02 7.81860800e-03 9.30283100e-02
        2 -1    0    0  501    0 +0.0000000000e+00 +0.0000000000e+00 +1.6159460512e+03 1.6159460512e+03 0.0000000000e+00 0.0000e+00 -1.0000e+00
       -2 -1    0    0    0  501 -0.0000000000e+00 -0.0000000000e+00 -4.6080463934e+01 4.6080463934e+01 0.0000000000e+00 0.0000e+00 1.0000e+00
      -13  1    1    2    0    0 -2.5336706352e+01 -2.2064454847e+02 +3.0209882076e+02 3.7495288099e+02 0.0000000000e+00 0.0000e+00 1.0000e+00
       13  1    1    2    0    0 +2.5336706352e+01 +2.2064454847e+02 +1.2677667666e+03 1.2870736342e+03 0.0000000000e+00 0.0000e+00 -1.0000e+00
<mgrwt>
<rscale>  0 0.54576018E+03</rscale>
<asrwt>0</asrwt>
<pdfrwt beam="1">  1        2 0.24860704E+00 0.54576018E+03</pdfrwt>
<pdfrwt beam="2">  1       -2 0.70893034E-02 0.54576018E+03</pdfrwt>
<totfact> 0.14547586E+03</totfact>
</mgrwt>
<rwgt>
<wgt id='morphing_basis_vector_1'> +1.9811255e-04 </wgt>
<wgt id='morphing_basis_vector_2'> +1.1168775e-04 </wgt>
<wgt id='morphing_basis_vector_3'> +1.4914340e-04 </wgt>
<wgt id='morphing_basis_vector_4'> +5.7171213e-05 </wgt>
<wgt id='morphing_basis_vector_5'> +8.4076626e-05 </wgt>
</rwgt>
</event>
<event>
 4      1 +1.0153100e-05 5.68346200e+02 7.81860800e-03 9.25864800e-02
        2 -1    0    0  501    0 +0.0000000000e+00 +0.0000000000e+00 +3.6529196547e+02 3.6529196547e+02 0.0000000000e+00 0.0000e+00 1.0000e+00
       -2 -1    0    0    0  501 -0.0000000000e+00 -0.0000000000e+00 -2.2106794092e+02 2.2106794092e+02 0.0000000000e+00 0.0000e+00 -1.0000e+00
      -13  1    1    2    0    0 -2.3805870922e+02 -1.5100597564e+02 +1.0901712741e+02 3.0225732048e+02 0.0000000000e+00 0.0000e+00 -1.0000e+00
       13  1    1    2    0    0 +2.3805870922e+02 +1.5100597564e+02 +3.5206897133e+01 2.8410258591e+02 0.0000000000e+00 0.0000e+00 1.0000e+00
<mgrwt>
<rscale>  0 0.56834617E+03</rscale>
<asrwt>0</asrwt>
<pdfrwt beam="1">  1        2 0.56198764E-01 0.56834617E+03</pdfrwt>
<pdfrwt beam="2">  1       -2 0.34010452E-01 0.56834617E+03</pdfrwt>
<totfact> 0.84055521E+02</totfact>
</mgrwt>
<rwgt>
<wgt id='morphing_basis_vector_1'> +2.3645649e-04 </wgt>
<wgt id='morphing_basis_vector_2'> +1.6293707e-04 </wgt>
<wgt id='morphing_basis_vector_3'> +1.7204264e-04 </wgt>
<wgt id='morphing_basis_vector_4'> +6.2522619e-05 </wgt>
<wgt id='morphing_basis_vector_5'> +1.0471007e-04 </wgt>
</rwgt>
</event>
<event>
 4      1 +1.0153100e-05 6.12607800e+02 7.81860800e-03 9.17806500e-02
        2 -1    0    0  501    0 +0.0000000000e+00 +0.0000000000e+00 +3.4754533594e+02 3.4754533594e+02 0.0000000000e+00 0.0000e+00 1.0000e+00
       -2 -1    0    0    0  501 -0.0000000000e+00 -0.0000000000e+00 -2.6995637618e+02 2.6995637618e+02 0.0000000000e+00 0.0000e+00 -1.0000e+00
      -13  1    1    2    0    0 -3.9563742049e+01 -3.0298032692e+02 +6.0406641923e+01 3.1146641966e+02 0.0000000000e+00 0.0000e+00 -1.0000e+00
       13  1    1    2    0    0 +3.9563742049e+01 +3.0298032692e+02 +1.7182317833e+01 3.0603529246e+02 0.0000000000e+00 0.0000e+00 1.0000e+00
<mgrwt>
<rscale>  0 0.61260780E+03</rscale>
<asrwt>0</asrwt>
<pdfrwt beam="1">  1        2 0.53468514E-01 0.61260780E+03</pdfrwt>
<pdfrwt beam="2">  1       -2 0.41531750E-01 0.61260780E+03</pdfrwt>
<totfact> 0.61625702E+02</totfact>
</mgrwt>
<rwgt>
<wgt id='morphing_basis_vector_1'> +2.9877992e-04 </wgt>
<wgt id='morphing_basis_vector_2'> +2.0214419e-04 </wgt>
<wgt id='morphing_basis_vector_3'> +2.3019995e-04 </wgt>
<wgt id='morphing_basis_vector_4'> +9.1508824e-05 </wgt>
<wgt id='morphing_basis_vector_5'> +1.5412823e-04 </wgt>
</rwgt>
</event>
<event>
 4      1 +1.0153100e-05 5.55361000e+02 7.81860800e-03 9.28377700e-02
        2 -1    0    0  501    0 +0.0000000000e+00 +0.0000000000e+00 +6.3755803258e+02 6.3755803258e+02 0.0000000000e+00 0.0000e+00 -1.0000e+00
       -2 -1    0    0    0  501 -0.0000000000e+00 -0.0000000000e+00 -1.2094030155e+02 1.2094030155e+02 0.0000000000e+00 0.0000e+00 1.0000e+00
      -13  1    1    2    0    0 -1.6275368145e+02 +1.6288792773e+02 +4.6348535984e+01 2.3488172473e+02 0.0000000000e+00 0.0000e+00 1.0000e+00
       13  1    1    2    0    0 +1.6275368145e+02 -1.6288792773e+02 +4.7026919505e+02 5.2361660939e+02 0.0000000000e+00 0.0000e+00 -1.0000e+00
<mgrwt>
<rscale>  0 0.55536100E+03</rscale>
<asrwt>0</asrwt>
<pdfrwt beam="1">  1        2 0.98085849E-01 0.55536100E+03</pdfrwt>
<pdfrwt beam="2">  1       -2 0.18606201E-01 0.55536100E+03</pdfrwt>
<totfact> 0.12514142E+03</totfact>
</mgrwt>
<rwgt>
<wgt id='morphing_basis_vector_1'> +2.0935205e-04 </wgt>
<wgt id='morphing_basis_vector_2'> +1.1861165e-04 </wgt>
<wgt id='morphing_basis_vector_3'> +1.5901662e-04 </wgt>
<wgt id='morphing_basis_vector_4'> +6.2345768e-05 </wgt>
<wgt id='morphing_basis_vector_5'> +9.2399706e-05 </wgt>
</rwgt>
</event>
<event>
 4      1 +1.0153100e-05 6.02016600e+02 7.81860800e-03 9.19667700e-02
        2 -1    0    0  501    0 +0.0000000000e+00 +0.0000000000e+00 +8.6636756884e+02 8.6636756884e+02 0.0000000000e+00 0.0000e+00 1.0000e+00
       -2 -1    0    0    0  501 -0.0000000000e+00 -0.0000000000e+00 -1.0458145714e+02 1.0458145714e+02 0.0000000000e+00 0.0000e+00 -1.0000e+00
      -13  1    1    2    0    0 -1.2886111161e+02 -1.2667647852e+02 +7.6915891588e+02 7.9009971153e+02 0.0000000000e+00 0.0000e+00 1.0000e+00
       13  1    1    2    0    0 +1.2886111161e+02 +1.2667647852e+02 -7.3728041790e+00 1.8084931445e+02 0.0000000000e+00 0.0000e+00 -1.0000e+00
<mgrwt>
<rscale>  0 0.60201655E+03</rscale>
<asrwt>0</asrwt>
<pdfrwt beam="1">  1        2 0.13328731E+00 0.60201655E+03</pdfrwt>
<pdfrwt beam="2">  1       -2 0.16089455E-01 0.60201655E+03</pdfrwt>
<totfact> 0.10840266E+03</totfact>
</mgrwt>
<rwgt>
<wgt id='morphing_basis_vector_1'> +3.5762155e-04 </wgt>
<wgt id='morphing_basis_vector_2'> +4.2415797e-04 </wgt>
<wgt id='morphing_basis_vector_3'> +2.1715310e-04 </wgt>
<wgt id='morphing_basis_vector_4'> +2.5632133e-05 </wgt>
<wgt id='morphing_basis_vector_5'> +1.4139572e-04 </wgt>
</rwgt>
</event>
<event>
 4      1 +1.0153100e-05 5.66645100e+02 7.81860800e-03 9.26189900e-02
        2 -1    0    0  501    0 +0.0000000000e+00 +0.0000000000e+00 +1.7435958664e+02 1.7435958664e+02 0.0000000000e+00 0.0000e+00 -1.0000e+00
       -2 -1    0    0    0  501 -0.0000000000e+00 -0.0000000000e+00 -4.6038003355e+02 4.6038003355e+02 0.0000000000e+00 0.0000e+00 1.0000e+00
      -13  1    1    2    0    0 -6.2908602187e+00 -2.7477551794e+02 -2.2005417306e+02 3.5208663601e+02 0.0000000000e+00 0.0000e+00 1.0000e+00
       13  1    1    2    0    0 +6.2908602187e+00 +2.7477551794e+02 -6.5966273853e+01 2.8265298418e+02 0.0000000000e+00 0.0000e+00 -1.0000e+00
<mgrwt>
<rscale>  0 0.56664512E+03</rscale>
<asrwt>0</asrwt>
<pdfrwt beam="1">  1        2 0.26824552E-01 0.56664512E+03</pdfrwt>
<pdfrwt beam="2">  1       -2 0.70827698E-01 0.56664512E+03</pdfrwt>
<totfact> 0.46616655E+02</totfact>
</mgrwt>
<rwgt>
<wgt id='morphing_basis_vector_1'> +2.2543531e-04 </wgt>
<wgt id='morphing_basis_vector_2'> +1.3407246e-04 </wgt>
<wgt id='morphing_basis_vector_3'> +1.7104626e-04 </wgt>
<wgt id='morphing_basis_vector_4'> +6.7398050e-05 </wgt>
<wgt id='morphing_basis_vector_5'> +1.0292053e-04 </wgt>
</rwgt>
</event>
<event>
 4      1 +1.0153100e-05 5.99054600e+02 7.81860800e-03 9.20195500e-02
        2 -1    0    0  501    0 +0.0000000000e+00 +0.0000000000e+00 +3.4189640038e+02 3.4189640038e+02 0.0000000000e+00 0.0000e+00 -1.0000e+00
       -2 -1    0    0    0  501 -0.0000000000e+00 -0.0000000000e+00 -2.6240872568e+02 2.6240872568e+02 0.0000000000e+00 0.0000e+00 1.0000e+00
      -13  1    1    2    0    0 -9.1786018271e+01 +2.6198836558e+02 -7.3732202981e+01 2.8722641697e+02 0.0000000000e+00 0.0000e+00 1.0000e+00
       13  1    1    2    0    0 +9.1786018271e+01 -2.6198836558e+02 +1.5321987768e+02 3.1707870910e+02 0.0000000000e+00 0.0000e+00 -1.0000e+00
<mgrwt>
<rscale>  0 0.59905458E+03</rscale>
<asrwt>0</asrwt>
<pdfrwt beam="1">  1        2 0.52599446E-01 0.59905458E+03</pdfrwt>
<pdfrwt beam="2">  1       -2 0.40370573E-01 0.59905458E+03</pdfrwt>
<totfact> 0.66189105E+02</totfact>
</mgrwt>
<rwgt>
<wgt id='morphing_basis_vector_1'> +2.6808054e-04 </wgt>
<wgt id='morphing_basis_vector_2'> +1.5729660e-04 </wgt>
<wgt id='morphing_basis_vector_3'> +2.1089265e-04 </wgt>
<wgt id='morphing_basis_vector_4'> +8.9653793e-05 </wgt>
<wgt id='morphing_basis_vector_5'> +1.3751366e-04 </wgt>
</rwgt>
</event>
<event>
 4      1 +1.0153100e-05 5.24133600e+02 7.81860800e-03 9.34732600e-02
        2 -1    0    0  501    0 +0.0000000000e+00 +0.0000000000e+00 +3.4154847255e+02 3.4154847255e+02 0.0000000000e+00 0.0000e+00 -1.0000e+00
       -2 -1    0    0    0  501 -0.0000000000e+00 -0.0000000000e+00 -2.0108128196e+02 2.0108128196e+02 0.0000000000e+00 0.0000e+00 1.0000e+00
      -13  1    1    2    0    0 -1.2056710247e+02 -2.0074912318e+02 -5.1571879331e+01 2.3978385140e+02 0.0000000000e+00 0.0000e+00 1.0000e+00
       13  1    1    2    0    0 +1.2056710247e+02 +2.0074912318e+02 +1.9203906992e+02 3.0284590311e+02 0.0000000000e+00 0.0000e+00 -1.0000e+00
<mgrwt>
<rscale>  0 0.52413359E+03</rscale>
<asrwt>0</asrwt>
<pdfrwt beam="1">  1        2 0.52545919E-01 0.52413359E+03</pdfrwt>
<pdfrwt beam="2">  1       -2 0.30935582E-01 0.52413359E+03</pdfrwt>
<totfact> 0.10725580E+03</totfact>
</mgrwt>
<rwgt>
<wgt id='morphing_basis_vector_1'> +1.7521095e-04 </wgt>
<wgt id='morphing_basis_vector_2'> +9.9225641e-05 </wgt>
<wgt id='morphing_basis_vector_3'> +1.2855438e-04 </wgt>
<wgt id='morphing_basis_vector_4'> +4.6364982e-05 </wgt>
<wgt id='morphing_basis_vector_5'> +6.7247854e-05 </wgt>
</rwgt>
</event>
<event>
 4      1 +1.0153100e-05 6.11888100e+02 7.81860800e-03 9.17931700e-02
        2 -1    0    0  501    0 +0.0000000000e+00 +0.0000000000e+00 +7.5189752306e+02 7.5189752306e+02 0.0000000000e+00 0.0000e+00 -1.0000e+00
       -2 -1    0    0    0  501 -0.0000000000e+00 -0.0000000000e+00 -1.2448738284e+02 1.2448738284e+02 0.0000000000e+00 0.0000e+00 1.0000e+00
      -13  1    1    2    0    0 +2.8559486145e+02 +2.7001080564e+01 +1.6139766717e+02 3.2915450811e+02 0.0000000000e+00 0.0000e+00 1.0000e+00
       13  1    1    2    0    0 -2.8559486145e+02 -2.7001080564e+01 +4.6601247304e+02 5.4723039779e+02 0.0000000000e+00 0.0000e+00 -1.0000e+00
<mgrwt>
<rscale>  0 0.61188808E+03</rscale>
<asrwt>0</asrwt>
<pdfrwt beam="1">  1        2 0.11567654E+00 0.61188808E+03</pdfrwt>
<pdfrwt beam="2">  1       -2 0.19151906E-01 0.61188808E+03</pdfrwt>
<totfact> 0.97636952E+02</totfact>
</mgrwt>
<rwgt>
<wgt id='morphing_basis_vector_1'> +2.8758527e-04 </wgt>
<wgt id='morphing_basis_vector_2'> +1.7019831e-04 </wgt>
<wgt id='morphing_basis_vector_3'> +2.2851183e-04 </wgt>
<wgt id='morphing_basis_vector_4'> +9.9117171e-05 </wgt>
<wgt id='morphing_basis_vector_5'> +1.5320655e-04 </wgt>
</rwgt>
</event>
<event>
 4      1 +1.0153100e-05 5.20721000e+02 7.81860800e-03 9.35455700e-02
        2 -1    0    0  501    0 +0.0000000000e+00 +0.0000000000e+00 +2.9281568138e+03 2.9281568138e+03 0.0000000000e+00 0.0000e+00 1.0000e+00
       -2 -1    0    0    0  501 -0.0000000000e+00 -0.0000000000e+00 -2.3150262070e+01 2.3150262070e+01 0.0000000000e+00 0.0000e+00 -1.0000e+00
      -13  1    1    2    0    0 -1.4197562791e+02 -2.1810613354e+02 +1.4085159762e+03 1.4323563173e+03 0.0000000000e+00 0.0000e+00 1.0000e+00
       13  1    1    2    0    0 +1.4197562791e+02 +2.1810613354e+02 +1.4964905755e+03 1.5189507586e+03 0.0000000000e+00 0.0000e+00 -1.0000e+00
<mgrwt>
<rscale>  0 0.52072103E+03</rscale>
<asrwt>0</asrwt>
<pdfrwt beam="1">  1        2 0.45048537E+00 0.52072103E+03</pdfrwt>
<pdfrwt beam="2">  1       -2 0.35615811E-02 0.52072103E+03</pdfrwt>
<totfact> 0.74239797E+02</totfact>
</mgrwt>
<rwgt>
<wgt id='morphing_basis_vector_1'> +1.7593543e-04 </wgt>
<wgt id='morphing_basis_vector_2'> +1.1020174e-04 </wgt>
<wgt id='morphing_basis_vector_3'> +1.2422329e-04 </wgt>
<wgt id='morphing_basis_vector_4'> +4.2812715e-05 </wgt>
<wgt id='morphing_basis_vector_5'> +6.4958533e-05 </wgt>
</rwgt>
</event>
<event>
 4      1 +1.0153100e-05 5.39732600e+02 7.81860800e-03 9.31500800e-02
        2 -1    0    0  501    0 +0.0000000000e+00 +0.0000000000e+00 +4.1045719552e+02 4.1045719552e+02 0.0000000000e+00 0.0000e+00 -1.0000e+00
       -2 -1    0    0    0  501 -0.0000000000e+00 -0.0000000000e+00 -1.7743098691e+02 1.7743098691e+02 0.0000000000e+00 0.0000e+00 1.0000e+00
      -13  1    1    2    0    0 -7.2384332496e+01 -1.5203138639e+02 -1.1319325726e+02 2.0289343885e+02 0.0000000000e+00 0.0000e+00 1.0000e+00
       13  1    1    2    0    0 +7.2384332496e+01 +1.5203138639e+02 +3.4621946587e+02 3.8499474358e+02 0.0000000000e+00 0.0000e+00 -1.0000e+00
<mgrwt>
<rscale>  0 0.53973262E+03</rscale>
<asrwt>0</asrwt>
<pdfrwt beam="1">  1        2 0.63147260E-01 0.53973262E+03</pdfrwt>
<pdfrwt beam="2">  1       -2 0.27297075E-01 0.53973262E+03</pdfrwt>
<totfact> 0.10859063E+03</totfact>
</mgrwt>
<rwgt>
<wgt id='morphing_basis_vector_1'> +1.9097068e-04 </wgt>
<wgt id='morphing_basis_vector_2'> +1.0645499e-04 </wgt>
<wgt id='morphing_basis_vector_3'> +1.4328336e-04 </wgt>
<wgt id='morphing_basis_vector_4'> +5.4277804e-05 </wgt>
<wgt id='morphing_basis_vector_5'> +7.9112882e-05 </wgt>
</rwgt>
</event>
<event>
 4      1 +1.0153100e-05 5.56157100e+02 7.81860800e-03 9.28221500e-02
        2 -1    0    0  501    0 +0.0000000000e+00 +0.0000000000e+00 +5.0704683263e+02 5.0704683263e+02 0.0000000000e+00 0.0000e+00 -1.0000e+00
       -2 -1    0    0    0  501 -0.0000000000e+00 -0.0000000000e+00 -1.5250601687e+02 1.5250601687e+02 0.0000000000e+00 0.0000e+00 1.0000e+00
      -13  1    1    2    0    0 +3.6895134297e+01 +2.4838177197e+02 +3.5590339757e+01 2.5361669477e+02 0.0000000000e+00 0.0000e+00 1.0000e+00
       13  1    1    2    0    0 -3.6895134297e+01 -2.4838177197e+02 +3.1895047601e+02 4.0593615474e+02 0.0000000000e+00 0.0000e+00 -1.0000e+00
<mgrwt>
<rscale>  0 0.55615715E+03</rscale>
<asrwt>0</asrwt>
<pdfrwt beam="1">  1        2 0.78007204E-01 0.55615715E+03</pdfrwt>
<pdfrwt beam="2">  1       -2 0.23462464E-01 0.55615715E+03</pdfrwt>
<totfact> 0.11083125E+03</totfact>
</mgrwt>
<rwgt>
<wgt id='morphing_basis_vector_1'> +2.1090169e-04 </wgt>
<wgt id='morphing_basis_vector_2'> +1.2104824e-04 </wgt>
<wgt id='morphing_basis_vector_3'> +1.5976572e-04 </wgt>
<wgt id='morphing_basis_vector_4'> +6.2420948e-05 </wgt>
<wgt id='morphing_basis_vector_5'> +9.3126350e-05 </wgt>
</rwgt>
</event>
<event>
 4      1 +1.0153100e-05 5.68127900e+02 7.81860800e-03 9.25906500e-02
        2 -1    0    0  501    0 +0.0000000000e+00 +0.0000000000e+00 +1.6048473705e+03 1.6048473705e+03 0.0000000000e+00 0.0000e+00 1.0000e+00
       -2 -1    0    0    0  501 -0.0000000000e+00 -0.0000000000e+00 -5.0280373249e+01 5.0280373249e+01 0.0000000000e+00 0.0000e+00 -1.0000e+00
      -13  1    1    2    0    0 +2.3151257994e+02 +1.2363574210e+02 +4.6070463273e+02 5.3021941685e+02 0.0000000000e+00 0.0000e+00 -1.0000e+00
       13  1    1    2    0    0 -2.3151257994e+02 -1.2363574210e+02 +1.0938623645e+03 1.1249083269e+03 0.0000000000e+00 0.0000e+00 1.0000e+00
<mgrwt>
<rscale>  0 0.56812789E+03</rscale>
<asrwt>0</asrwt>
<pdfrwt beam="1">  1        2 0.24689956E+00 0.56812789E+03</pdfrwt>
<pdfrwt beam="2">  1       -2 0.77354433E-02 0.56812789E+03</pdfrwt>
<totfact> 0.12885315E+03</totfact>
</mgrwt>
<rwgt>
<wgt id='morphing_basis_vector_1'> +2.2596481e-04 </wgt>
<wgt id='morphing_basis_vector_2'> +1.3105520e-04 </wgt>
<wgt id='morphing_basis_vector_3'> +1.7287218e-04 </wgt>
<wgt id='morphing_basis_vector_4'> +6.9169911e-05 </wgt>
<wgt id='morphing_basis_vector_5'> +1.0433319e-04 </wgt>
</rwgt>
</event>
<event>
 4      1 +1.0153100e-05 5.42586700e+02 7.81860800e-03 9.30922100e-02
        2 -1    0    0  501    0 +0.0000000000e+00 +0.0000000000e+00 +2.4139457319e+02 2.4139457319e+02 0.0000000000e+00 0.0000e+00 -1.0000e+00
       -2 -1    0    0    0  501 -0.0000000000e+00 -0.0000000000e+00 -3.0489537081e+02 3.0489537081e+02 0.0000000000e+00 0.0000e+00 1.0000e+00
      -13  1    1    2    0    0 +8.5197283028e+01 -1.7248829472e+02 -2.2433922618e+02 2.9553151652e+02 0.0000000000e+00 0.0000e+00 1.0000e+00
       13  1    1    2    0    0 -8.5197283028e+01 +1.7248829472e+02 +1.6083842856e+02 2.5075842748e+02 0.0000000000e+00 0.0000e+00 -1.0000e+00
<mgrwt>
<rscale>  0 0.54258672E+03</rscale>
<asrwt>0</asrwt>
<pdfrwt beam="1">  1        2 0.37137627E-01 0.54258672E+03</pdfrwt>
<pdfrwt beam="2">  1       -2 0.46906980E-01 0.54258672E+03</pdfrwt>
<totfact> 0.73803650E+02</totfact>
</mgrwt>
<rwgt>
<wgt id='morphing_basis_vector_1'> +1.9424529e-04 </wgt>
<wgt id='morphing_basis_vector_2'> +1.0865880e-04 </wgt>
<wgt id='morphing_basis_vector_3'> +1.4604902e-04 </wgt>
<wgt id='morphing_basis_vector_4'> +5.5681458e-05 </wgt>
<wgt id='morphing_basis_vector_5'> +8.1435770e-05 </wgt>
</rwgt>
</event>
<event>
 4      1 +1.0153100e-05 5.40899500e+02 7.81860800e-03 9.31263700e-02
        2 -1    0    0  501    0 +0.0000000000e+00 +0.0000000000e+00 +6.6184409156e+02 6.6184409156e+02 0.0000000000e+00 0.0000e+00 1.0000e+00
       -2 -1    0    0    0  501 -0.0000000000e+00 -0.0000000000e+00 -1.1051405023e+02 1.1051405023e+02 0.0000000000e+00 0.0000e+00 -1.0000e+00
      -13  1    1    2    0    0 +1.6137302180e+01 -1.0854725467e+02 -7.7293185311e+01 1.3422799825e+02 0.0000000000e+00 0.0000e+00 -1.0000e+00
       13  1    1    2    0    0 -1.6137302180e+01 +1.0854725467e+02 +6.2862322664e+02 6.3813014354e+02 0.0000000000e+00 0.0000e+00 1.0000e+00
<mgrwt>
<rscale>  0 0.54089951E+03</rscale>
<asrwt>0</asrwt>
<pdfrwt beam="1">  1        2 0.10182217E+00 0.54089951E+03</pdfrwt>
<pdfrwt beam="2">  1       -2 0.17002162E-01 0.54089951E+03</pdfrwt>
<totfact> 0.13874633E+03</totfact>
</mgrwt>
<rwgt>
<wgt id='morphing_basis_vector_1'> +1.9216864e-04 </wgt>
<wgt id='morphing_basis_vector_2'> +1.0693120e-04 </wgt>
<wgt id='morphing_basis_vector_3'> +1.4443869e-04 </wgt>
<wgt id='morphing_basis_vector_4'> +5.4924918e-05 </wgt>
<wgt id='morphing_basis_vector_5'> +8.0053577e-05 </wgt>
</rwgt>
</event>
<event>
 4      1 +1.0153100e-05 5.45550800e+02 7.81860800e-03 9.30325100e-02
        2 -1    0    0  501    0 +0.0000000000e+00 +0.0000000000e+00 +6.0414115120e+02 6.0414115120e+02 0.0000000000e+00 0.0000e+00 1.0000e+00
       -2 -1    0    0    0  501 -0.0000000000e+00 -0.0000000000e+00 -1.2316067267e+02 1.2316067267e+02 0.0000000000e+00 0.0000e+00 -1.0000e+00
      -13  1    1    2    0    0 -2.8113752541e+01 +1.7264094223e+02 +5.1953365839e+02 5.4818838022e+02 0.0000000000e+00 0.0000e+00 1.0000e+00
       13  1    1    2    0    0 +2.8113752541e+01 -1.7264094223e+02 -3.8553179859e+01 1.7911344364e+02 0.0000000000e+00 0.0000e+00 -1.0000e+00
<mgrwt>
<rscale>  0 0.54555084E+03</rscale>
<asrwt>0</asrwt>
<pdfrwt beam="1">  1        2 0.92944791E-01 0.54555084E+03</pdfrwt>
<pdfrwt beam="2">  1       -2 0.18947796E-01 0.54555084E+03</pdfrwt>
<totfact> 0.12938579E+03</totfact>
</mgrwt>
<rwgt>
<wgt id='morphing_basis_vector_1'> +2.5811652e-04 </wgt>
<wgt id='morphing_basis_vector_2'> +2.9865340e-04 </wgt>
<wgt id='morphing_basis_vector_3'> +1.3675890e-04 </wgt>
<wgt id='morphing_basis_vector_4'> +2.2075151e-05 </wgt>
<wgt id='morphing_basis_vector_5'> +8.5360279e-05 </wgt>
</rwgt>
</event>
<event>
 4      1 +1.0153100e-05 5.76052200e+02 7.81860800e-03 9.24407100e-02
        2 -1    0    0  501    0 +0.0000000000e+00 +0.0000000000e+00 +4.9913206426e+02 4.9913206426e+02 0.0000000000e+00 0.0000e+00 -1.0000e+00
       -2 -1    0    0    0  501 -0.0000000000e+00 -0.0000000000e+00 -1.6620655471e+02 1.6620655471e+02 0.0000000000e+00 0.0000e+00 1.0000e+00
      -13  1    1    2    0    0 -1.4892323683e+02 +2.4652992704e+02 +1.6873940420e+02 3.3380851086e+02 0.0000000000e+00 0.0000e+00 1.0000e+00
       13  1    1    2    0    0 +1.4892323683e+02 -2.4652992704e+02 +1.6418610535e+02 3.3153010811e+02 0.0000000000e+00 0.0000e+00 -1.0000e+00
<mgrwt>
<rscale>  0 0.57605215E+03</rscale>
<asrwt>0</asrwt>
<pdfrwt beam="1">  1        2 0.76789548E-01 0.57605215E+03</pdfrwt>
<pdfrwt beam="2">  1       -2 0.25570239E-01 0.57605215E+03</pdfrwt>
<totfact> 0.97463994E+02</totfact>
</mgrwt>
<rwgt>
<wgt id='morphing_basis_vector_1'> +2.4261237e-04 </wgt>
<wgt id='morphing_basis_vector_2'> +1.5729369e-04 </wgt>
<wgt id='morphing_basis_vector_3'> +1.8157070e-04 </wgt>
<wgt id='morphing_basis_vector_4'> +6.9628453e-05 </wgt>
<wgt id='morphing_basis_vector_5'> +1.1232311e-04 </wgt>
</rwgt>
</event>
<event>
 4      1 +1.0153100e-05 5.25423500e+02 7.81860800e-03 9.34460800e-02
        2 -1    0    0  501    0 +0.0000000000e+00 +0.0000000000e+00 +5.0745066138e+02 5.0745066138e+02 0.0000000000e+00 0.0000e+00 1.0000e+00
       -2 -1    0    0    0  501 -0.0000000000e+00 -0.0000000000e+00 -1.3600820784e+02 1.3600820784e+02 0.0000000000e+00 0.0000e+00 -1.0000e+00
      -13  1    1    2    0    0 +5.7899345851e+01 +1.3629206459e+02 -8.0029094285e+01 1.6832265757e+02 0.0000000000e+00 0.0000e+00 -1.0000e+00
       13  1    1    2    0    0 -5.7899345851e+01 -1.3629206459e+02 +4.5147154782e+02 4.7513621164e+02 0.0000000000e+00 0.0000e+00 1.0000e+00
<mgrwt>
<rscale>  0 0.52542347E+03</rscale>
<asrwt>0</asrwt>
<pdfrwt beam="1">  1        2 0.78069332E-01 0.52542347E+03</pdfrwt>
<pdfrwt beam="2">  1       -2 0.20924340E-01 0.52542347E+03</pdfrwt>
<totfact> 0.13414780E+03</totfact>
</mgrwt>
<rwgt>
<wgt id='morphing_basis_vector_1'> +1.7568061e-04 </wgt>
<wgt id='morphing_basis_vector_2'> +9.7349177e-05 </wgt>
<wgt id='morphing_basis_vector_3'> +1.2995934e-04 </wgt>
<wgt id='morphing_basis_vector_4'> +4.7380495e-05 </wgt>
<wgt id='morphing_basis_vector_5'> +6.8154474e-05 </wgt>
</rwgt>
</event>
<event>
 4      1 +1.0153100e-05 5.43224700e+02 7.81860800e-03 9.30793200e-02
        2 -1    0    0  501    0 +0.0000000000e+00 +0.0000000000e+00 +7.9552557984e+02 7.9552557984e+02 0.0000000000e+00 0.0000e+00 1.0000e+00
       -2 -1    0    0    0  501 -0.0000000000e+00 -0.0000000000e+00 -9.2735242137e+01 9.2735242137e+01 0.0000000000e+00 0.0000e+00 -1.0000e+00
      -13  1    1    2    0    0 -1.3918310570e+02 +1.1621512719e+02 +2.0722672328e+01 1.8250293655e+02 0.0000000000e+00 0.0000e+00 -1.0000e+00
       13  1    1    2    0    0 +1.3918310570e+02 -1.1621512719e+02 +6.8206766538e+02 7.0575788543e+02 0.0000000000e+00 0.0000e+00 1.0000e+00
<mgrwt>
<rscale>  0 0.54322466E+03</rscale>
<asrwt>0</asrwt>
<pdfrwt beam="1">  1        2 0.12238855E+00 0.54322466E+03</pdfrwt>
<pdfrwt beam="2">  1       -2 0.14266961E-01 0.54322466E+03</pdfrwt>
<totfact> 0.14699793E+03</totfact>
</mgrwt>
<rwgt>
<wgt id='morphing_basis_vector_1'> +1.9489909e-04 </wgt>
<wgt id='morphing_basis_vector_2'> +1.0889431e-04 </wgt>
<wgt id='morphing_basis_vector_3'> +1.4669136e-04 </wgt>
<wgt id='morphing_basis_vector_4'> +5.6046862e-05 </wgt>
<wgt id='morphing_basis_vector_5'> +8.1959112e-05 </wgt>
</rwgt>
</event>
<event>
 4      1 +1.0153100e-05 5.99725200e+02 7.81860800e-03 9.20075700e-02
        2 -1    0    0  501    0 +0.0000000000e+00 +0.0000000000e+00 +4.0992042206e+02 4.0992042206e+02 0.0000000000e+00 0.0000e+00 1.0000e+00
       -2 -1    0    0    0  501 -0.0000000000e+00 -0.0000000000e+00 -2.1935371505e+02 2.1935371505e+02 0.0000000000e+00 0.0000e+00 -1.0000e+00
      -13  1    1    2    0    0 +2.2572723397e+01 +6.5984158611e+01 -2.1072643368e+02 2.2196636430e+02 0.0000000000e+00 0.0000e+00 -1.0000e+00
       13  1    1    2    0    0 -2.2572723397e+01 -6.5984158611e+01 +4.0129314069e+02 4.0730777281e+02 0.0000000000e+00 0.0000e+00 1.0000e+00
<mgrwt>
<rscale>  0 0.59972516E+03</rscale>
<asrwt>0</asrwt>
<pdfrwt beam="1">  1        2 0.63064680E-01 0.59972516E+03</pdfrwt>
<pdfrwt beam="2">  1       -2 0.33746725E-01 0.59972516E+03</pdfrwt>
<totfact> 0.74847627E+02</totfact>
</mgrwt>
<rwgt>
<wgt id='morphing_basis_vector_1'> +2.6703508e-04 </wgt>
<wgt id='morphing_basis_vector_2'> +1.5163312e-04 </wgt>
<wgt id='morphing_basis_vector_3'> +2.1174786e-04 </wgt>
<wgt id='morphing_basis_vector_4'> +9.1699539e-05 </wgt>
<wgt id='morphing_basis_vector_5'> +1.3829435e-04 </wgt>
</rwgt>
</event>
<event>
 4      1 +1.0153100e-05 5.23335400e+02 7.81860800e-03 9.34901200e-02
        2 -1    0    0  501    0 +0.0000000000e+00 +0.0000000000e+00 +1.4219292152e+02 1.4219292152e+02 0.0000000000e+00 0.0000e+00 1.0000e+00
       -2 -1    0    0    0  501 -0.0000000000e+00 -0.0000000000e+00 -4.8152878808e+02 4.8152878808e+02 0.0000000000e+00 0.0000e+00 -1.0000e+00
      -13  1    1    2    0    0 -3.8145418933e+01 -8.3361515173e+01 -4.6176303378e+02 4.7077522722e+02 0.0000000000e+00 0.0000e+00 -1.0000e+00
       13  1    1    2    0    0 +3.8145418933e+01 +8.3361515173e+01 +1.2242716722e+02 1.5294648238e+02 0.0000000000e+00 0.0000e+00 1.0000e+00
<mgrwt>
<rscale>  0 0.52333540E+03</rscale>
<asrwt>0</asrwt>
<pdfrwt beam="1">  1        2 0.21875834E-01 0.52333540E+03</pdfrwt>
<pdfrwt beam="2">  1       -2 0.74081352E-01 0.52333540E+03</pdfrwt>
<totfact> 0.53792640E+02</totfact>
</mgrwt>
<rwgt>
<wgt id='morphing_basis_vector_1'> +1.7349097e-04 </wgt>
<wgt id='morphing_basis_vector_2'> +9.5936959e-05 </wgt>
<wgt id='morphing_basis_vector_3'> +1.2811678e-04 </wgt>
<wgt id='morphing_basis_vector_4'> +4.6453361e-05 </wgt>
<wgt id='morphing_basis_vector_5'> +6.6645561e-05 </wgt>
</rwgt>
</event>
<event>
 4      1 +1.0153100e-05 5.96793800e+02 7.81860800e-03 9.20600500e-02
        2 -1    0    0  501    0 +0.0000000000e+00 +0.0000000000e+00 +5.9862541339e+02 5.9862541339e+02 0.0000000000e+00 0.0000e+00 -1.0000e+00
       -2 -1    0    0    0  501 -0.0000000000e+00 -0.0000000000e+00 -1.4874192581e+02 1.4874192581e+02 0.0000000000e+00 0.0000e+00 1.0000e+00
      -13  1    1    2    0    0 +6.4513018173e+01 -2.1032423996e+02 -2.7522542819e+01 2.2171086079e+02 0.0000000000e+00 0.0000e+00 1.0000e+00
       13  1    1    2    0    0 -6.4513018173e+01 +2.1032423996e+02 +4.7740603040e+02 5.2565647841e+02 0.0000000000e+00 0.0000e+00 -1.0000e+00
<mgrwt>
<rscale>  0 0.59679376E+03</rscale>
<asrwt>0</asrwt>
<pdfrwt beam="1">  1        2 0.92096216E-01 0.59679376E+03</pdfrwt>
<pdfrwt beam="2">  1       -2 0.22883374E-01 0.59679376E+03</pdfrwt>
<totfact> 0.95450039E+02</totfact>
</mgrwt>
<rwgt>
<wgt id='morphing_basis_vector_1'> +2.6318287e-04 </wgt>
<wgt id='morphing_basis_vector_2'> +1.5022351e-04 </wgt>
<wgt id='morphing_basis_vector_3'> +2.0789453e-04 </wgt>
<wgt id='morphing_basis_vector_4'> +8.9253205e-05 </wgt>
<wgt id='morphing_basis_vector_5'> +1.3486027e-04 </wgt>
</rwgt>
</event>
<event>
 4      1 +1.0153100e-05 5.62311600e+02 7.81860800e-03 9.27023600e-02
        2 -1    0    0  501    0 +0.0000000000e+00 +0.0000000000e+00 +8.3425817966e+02 8.3425817966e+02 0.0000000000e+00 0.0000e+00 -1.0000e+00
       -2 -1    0    0    0  501 -0.0000000000e+00 -0.0000000000e+00 -9.4753131811e+01 9.4753131811e+01 0.0000000000e+00 0.0000e+00 1.0000e+00
      -13  1    1    2    0    0 +9.3340637928e+01 -2.4518725058e+02 +5.3676727383e+02 5.9745156188e+02 0.0000000000e+00 0.0000e+00 1.0000e+00
       13  1    1    2    0    0 -9.3340637928e+01 +2.4518725058e+02 +2.0273777403e+02 3.3155974960e+02 0.0000000000e+00 0.0000e+00 -1.0000e+00
<mgrwt>
<rscale>  0 0.56231157E+03</rscale>
<asrwt>0</asrwt>
<pdfrwt beam="1">  1        2 0.12834741E+00 0.56231157E+03</pdfrwt>
<pdfrwt beam="2">  1       -2 0.14577405E-01 0.56231157E+03</pdfrwt>
<totfact> 0.13361225E+03</totfact>
</mgrwt>
<rwgt>
<wgt id='morphing_basis_vector_1'> +2.4194451e-04 </wgt>
<wgt id='morphing_basis_vector_2'> +1.9878134e-04 </wgt>
<wgt id='morphing_basis_vector_3'> +1.6334272e-04 </wgt>
<wgt id='morphing_basis_vector_4'> +5.0799788e-05 </wgt>
<wgt id='morphing_basis_vector_5'> +9.9206096e-05 </wgt>
</rwgt>
</event>
<event>
 4      1 +1.0153100e-05 5.68902100e+02 7.81860800e-03 9.25758800e-02
        2 -1    0    0  501    0 +0.0000000000e+00 +0.0000000000e+00 +2.4906975621e+03 2.4906975621e+03 0.0000000000e+00 0.0000e+00 -1.0000e+00
       -2 -1    0    0    0  501 -0.0000000000e+00 -0.0000000000e+00 -3.2485837040e+01 3.2485837040e+01 0.0000000000e+00 0.0000e+00 1.0000e+00
      -13  1    1    2    0    0 -7.5836807404e+00 -2.8430787349e+02 +1.2074160718e+03 1.2404604184e+03 0.0000000000e+00 0.0000e+00 1.0000e+00
       13  1    1    2    0    0 +7.5836807404e+00 +2.8430787349e+02 +1.2507956533e+03 1.2827229808e+03 0.0000000000e+00 0.0000e+00 -1.0000e+00
<mgrwt>
<rscale>  0 0.56890208E+03</rscale>
<asrwt>0</asrwt>
<pdfrwt beam="1">  1        2 0.38318409E+00 0.56890208E+03</pdfrwt>
<pdfrwt beam="2">  1       -2 0.49978230E-02 0.56890208E+03</pdfrwt>
<totfact> 0.81190748E+02</totfact>
</mgrwt>
<rwgt>
<wgt id='morphing_basis_vector_1'> +2.3245483e-04 </wgt>
<wgt id='morphing_basis_vector_2'> +1.4875684e-04 </wgt>
<wgt id='morphing_basis_vector_3'> +1.7318369e-04 </wgt>
<wgt id='morphing_basis_vector_4'> +6.5971754e-05 </wgt>
<wgt id='morphing_basis_vector_5'> +1.0517552e-04 </wgt>
</rwgt>
</event>
<event>
 4      1 +1.0153100e-05 6.03528800e+02 7.81860800e-03 9.19399500e-02
        2 -1    0    0  501    0 +0.0000000000e+00 +0.0000000000e+00 +1.7737383651e+03 1.7737383651e+03 0.0000000000e+00 0.0000e+00 -1.0000e+00
       -2 -1    0    0    0  501 -0.0000000000e+00 -0.0000000000e+00 -5.1338891150e+01 5.1338891150e+01 0.0000000000e+00 0.0000e+00 1.0000e+00
      -13  1    1    2    0    0 -1.2958203277e+02 +2.7237617376e+02 +8.3390352607e+02 8.8677808613e+02 0.0000000000e+00 0.0000e+00 1.0000e+00
       13  1    1    2    0    0 +1.2958203277e+02 -2.7237617376e+02 +8.8849594789e+02 9.3829917013e+02 0.0000000000e+00 0.0000e+00 -1.0000e+00
<mgrwt>
<rscale>  0 0.60352883E+03</rscale>
<asrwt>0</asrwt>
<pdfrwt beam="1">  1        2 0.27288278E+00 0.60352883E+03</pdfrwt>
<pdfrwt beam="2">  1       -2 0.78982923E-02 0.60352883E+03</pdfrwt>
<totfact> 0.10082049E+03</totfact>
</mgrwt>
<rwgt>
<wgt id='morphing_basis_vector_1'> +2.8091782e-04 </wgt>
<wgt id='morphing_basis_vector_2'> +1.8080605e-04 </wgt>
<wgt id='morphing_basis_vector_3'> +2.1710701e-04 </wgt>
<wgt id='morphing_basis_vector_4'> +8.8058782e-05 </wgt>
<wgt id='morphing_basis_vector_5'> +1.4287453e-04 </wgt>
</rwgt>
</event>
<event>
 4      1 +1.0153100e-05 5.85017300e+02 7.81860800e-03 9.22741300e-02
        2 -1    0    0  501    0 +0.0000000000e+00 +0.0000000000e+00 +7.3948669203e+02 7.3948669203e+02 0.0000000000e+00 0.0000e+00 1.0000e+00
       -2 -1    0    0    0  501 -0.0000000000e+00 -0.0000000000e+00 -1.1570365846e+02 1.1570365846e+02 0.0000000000e+00 0.0000e+00 -1.0000e+00
      -13  1    1    2    0    0 +2.2244709837e+02 -1.8794581125e+02 +2.7172532349e+02 3.9829761606e+02 0.0000000000e+00 0.0000e+00 1.0000e+00
       13  1    1    2    0    0 -2.2244709837e+02 +1.8794581125e+02 +3.5205771008e+02 4.5689273442e+02 0.0000000000e+00 0.0000e+00 -1.0000e+00
<mgrwt>
<rscale>  0 0.58501732E+03</rscale>
<asrwt>0</asrwt>
<pdfrwt beam="1">  1        2 0.11376718E+00 0.58501732E+03</pdfrwt>
<pdfrwt beam="2">  1       -2 0.17800563E-01 0.58501732E+03</pdfrwt>
<totfact> 0.11248127E+03</totfact>
</mgrwt>
<rwgt>
<wgt id='morphing_basis_vector_1'> +2.5231356e-04 </wgt>
<wgt id='morphing_basis_vector_2'> +1.5753291e-04 </wgt>
<wgt id='morphing_basis_vector_3'> +1.9273196e-04 </wgt>
<wgt id='morphing_basis_vector_4'> +7.6939022e-05 </wgt>
<wgt id='morphing_basis_vector_5'> +1.2170921e-04 </wgt>
</rwgt>
</event>
<event>
 4      1 +1.0153100e-05 5.24343700e+02 7.81860800e-03 9.34688300e-02
        2 -1    0    0  501    0 +0.0000000000e+00 +0.0000000000e+00 +1.3609440000e+03 1.3609440000e+03 0.0000000000e+00 0.0000e+00 1.0000e+00
       -2 -1    0    0    0  501 -0.0000000000e+00 -0.0000000000e+00 -5.0504717072e+01 5.0504717072e+01 0.0000000000e+00 0.0000e+00 -1.0000e+00
      -13  1    1    2    0    0 -1.5703859583e+02 -1.1769787446e+02 +1.8727169852e+02 2.7126481397e+02 0.0000000000e+00 0.0000e+00 -1.0000e+00
       13  1    1    2    0    0 +1.5703859583e+02 +1.1769787446e+02 +1.1231675844e+03 1.1401839031e+03 0.0000000000e+00 0.0000e+00 1.0000e+00
<mgrwt>
<rscale>  0 0.52434375E+03</rscale>
<asrwt>0</asrwt>
<pdfrwt beam="1">  1        2 0.20937597E+00 0.52434375E+03</pdfrwt>
<pdfrwt beam="2">  1       -2 0.77699575E-02 0.52434375E+03</pdfrwt>
<totfact> 0.17432880E+03</totfact>
</mgrwt>
<rwgt>
<wgt id='morphing_basis_vector_1'> +1.7477578e-04 </wgt>
<wgt id='morphing_basis_vector_2'> +9.7331934e-05 </wgt>
<wgt id='morphing_basis_vector_3'> +1.2893532e-04 </wgt>
<wgt id='morphing_basis_vector_4'> +4.6784558e-05 </wgt>
<wgt id='morphing_basis_vector_5'> +6.7378693e-05 </wgt>
</rwgt>
</event>
<event>
 4      1 +1.0153100e-05 5.47383800e+02 7.81860800e-03 9.29957900e-02
        2 -1    0    0  501    0 +0.0000000000e+00 +0.0000000000e+00 +1.1415436584e+03 1.1415436584e+03 0.0000000000e+00 0.0000e+00 -1.0000e+00
       -2 -1    0    0    0  501 -0.0000000000e+00 -0.0000000000e+00 -6.5619262858e+01 6.5619262858e+01 0.0000000000e+00 0.0000e+00 1.0000e+00
      -13  1    1    2    0    0 -1.1448495728e+01 -2.2256121075e+02 +1.8758019063e+02 2.9129175838e+02 0.0000000000e+00 0.0000e+00 1.0000e+00
       13  1    1    2    0    0 +1.1448495728e+01 +2.2256121075e+02 +8.8834420495e+02 9.1587116291e+02 0.0000000000e+00 0.0000e+00 -1.0000e+00
<mgrwt>
<rscale>  0 0.54738379E+03</rscale>
<asrwt>0</asrwt>
<pdfrwt beam="1">  1        2 0.17562209E+00 0.54738379E+03</pdfrwt>
<pdfrwt beam="2">  1       -2 0.10095272E-01 0.54738379E+03</pdfrwt>
<totfact> 0.15439732E+03</totfact>
</mgrwt>
<rwgt>
<wgt id='morphing_basis_vector_1'> +1.9996712e-04 </wgt>
<wgt id='morphing_basis_vector_2'> +1.1280127e-04 </wgt>
<wgt id='morphing_basis_vector_3'> +1.5077895e-04 </wgt>
<wgt id='morphing_basis_vector_4'> +5.8029722e-05 </wgt>
<wgt id='morphing_basis_vector_5'> +8.5446317e-05 </wgt>
</rwgt>
</event>
<event>
 4      1 +1.0153100e-05 5.50318700e+02 7.81860800e-03 9.29373200e-02
        2 -1    0    0  501    0 +0.0000000000e+00 +0.0000000000e+00 +3.9434222566e+02 3.9434222566e+02 0.0000000000e+00 0.0000e+00 -1.0000e+00
       -2 -1    0    0    0  501 -0.0000000000e+00 -0.0000000000e+00 -1.9199733849e+02 1.9199733849e+02 0.0000000000e+00 0.0000e+00 1.0000e+00
      -13  1    1    2    0    0 +6.7213868698e+01 -2.6364110251e+02 +1.4495112620e+02 3.0827773852e+02 0.0000000000e+00 0.0000e+00 1.0000e+00
       13  1    1    2    0    0 -6.7213868698e+01 +2.6364110251e+02 +5.7393760970e+01 2.7806182564e+02 0.0000000000e+00 0.0000e+00 -1.0000e+00
<mgrwt>
<rscale>  0 0.55031866E+03</rscale>
<asrwt>0</asrwt>
<pdfrwt beam="1">  1        2 0.60668035E-01 0.55031866E+03</pdfrwt>
<pdfrwt beam="2">  1       -2 0.29538052E-01 0.55031866E+03</pdfrwt>
<totfact> 0.99017435E+02</totfact>
</mgrwt>
<rwgt>
<wgt id='morphing_basis_vector_1'> +2.1437433e-04 </wgt>
<wgt id='morphing_basis_vector_2'> +1.4905918e-04 </wgt>
<wgt id='morphing_basis_vector_3'> +1.5177339e-04 </wgt>
<wgt id='morphing_basis_vector_4'> +5.3010725e-05 </wgt>
<wgt id='morphing_basis_vector_5'> +8.8208944e-05 </wgt>
</rwgt>
</event>
<event>
 4      1 +1.0153100e-05 5.24758000e+02 7.81860800e-03 9.34600900e-02
        2 -1    0    0  501    0 +0.0000000000e+00 +0.0000000000e+00 +2.7291069368e+02 2.7291069368e+02 0.0000000000e+00 0.0000e+00 -1.0000e+00
       -2 -1    0    0    0  501 -0.0000000000e+00 -0.0000000000e+00 -2.5225377077e+02 2.5225377077e+02 0.0000000000e+00 0.0000e+00 1.0000e+00
      -13  1    1    2    0    0 +6.9499903738e+01 -5.5560843677e+01 -2.3669363540e+02 2.5286581621e+02 0.0000000000e+00 0.0000e+00 1.0000e+00
       13  1    1    2    0    0 -6.9499903738e+01 +5.5560843677e+01 +2.5735055831e+02 2.7229864824e+02 0.0000000000e+00 0.0000e+00 -1.0000e+00
<mgrwt>
<rscale>  0 0.52475805E+03</rscale>
<asrwt>0</asrwt>
<pdfrwt beam="1">  1        2 0.41986261E-01 0.52475805E+03</pdfrwt>
<pdfrwt beam="2">  1       -2 0.38808272E-01 0.52475805E+03</pdfrwt>
<totfact> 0.91692495E+02</totfact>
</mgrwt>
<rwgt>
<wgt id='morphing_basis_vector_1'> +1.7494442e-04 </wgt>
<wgt id='morphing_basis_vector_2'> +9.6785636e-05 </wgt>
<wgt id='morphing_basis_vector_3'> +1.2938032e-04 </wgt>
<wgt id='morphing_basis_vector_4'> +4.7101622e-05 </wgt>
<wgt id='morphing_basis_vector_5'> +6.7670003e-05 </wgt>
</rwgt>
</event>
<event>
 4      1 +1.0153100e-05 5.44218300e+02 7.81860800e-03 9.30593000e-02
        2 -1    0    0  501    0 +0.0000000000e+00 +0.0000000000e+00 +1.0861261369e+03 1.0861261369e+03 0.0000000000e+00 0.0000e+00 -1.0000e+00
       -2 -1    0    0    0  501 -0.0000000000e+00 -0.0000000000e+00 -6.8172007177e+01 6.8172007177e+01 0.0000000000e+00 0.0000e+00 1.0000e+00
      -13  1    1    2    0    0 -2.2843869256e+02 +9.2675613041e+01 +2.6464147779e+02 3.6167404839e+02 0.0000000000e+00 0.0000e+00 1.0000e+00
       13  1    1    2    0    0 +2.2843869256e+02 -9.2675613041e+01 +7.5331265195e+02 7.9262409571e+02 0.0000000000e+00 0.0000e+00 -1.0000e+00
<mgrwt>
<rscale>  0 0.54421833E+03</rscale>
<asrwt>0</asrwt>
<pdfrwt beam="1">  1        2 0.16709632E+00 0.54421833E+03</pdfrwt>
<pdfrwt beam="2">  1       -2 0.10488002E-01 0.54421833E+03</pdfrwt>
<totfact> 0.15673662E+03</totfact>
</mgrwt>
<rwgt>
<wgt id='morphing_basis_vector_1'> +1.9702994e-04 </wgt>
<wgt id='morphing_basis_vector_2'> +1.1270589e-04 </wgt>
<wgt id='morphing_basis_vector_3'> +1.4746519e-04 </wgt>
<wgt id='morphing_basis_vector_4'> +5.5981460e-05 </wgt>
<wgt id='morphing_basis_vector_5'> +8.2806309e-05 </wgt>
</rwgt>
</event>
<event>
 4      1 +1.0153100e-05 5.20569700e+02 7.81860800e-03 9.35487900e-02
        2 -1    0    0  501    0 +0.0000000000e+00 +0.0000000000e+00 +8.0420678287e+02 8.0420678287e+02 0.0000000000e+00 0.0000e+00 1.0000e+00
       -2 -1    0    0    0  501 -0.0000000000e+00 -0.0000000000e+00 -8.4242256598e+01 8.4242256598e+01 0.0000000000e+00 0.0000e+00 -1.0000e+00
      -13  1    1    2    0    0 +1.8485107172e+02 +1.5968564221e+02 +2.0658192503e+02 3.1991485554e+02 0.0000000000e+00 0.0000e+00 -1.0000e+00
       13  1    1    2    0    0 -1.8485107172e+02 -1.5968564221e+02 +5.1338260124e+02 5.6853418393e+02 0.0000000000e+00 0.0000e+00 1.0000e+00
<mgrwt>
<rscale>  0 0.52056967E+03</rscale>
<asrwt>0</asrwt>
<pdfrwt beam="1">  1        2 0.12372412E+00 0.52056967E+03</pdfrwt>
<pdfrwt beam="2">  1       -2 0.12960348E-01 0.52056967E+03</pdfrwt>
<totfact> 0.16905853E+03</totfact>
</mgrwt>
<rwgt>
<wgt id='morphing_basis_vector_1'> +1.7213251e-04 </wgt>
<wgt id='morphing_basis_vector_2'> +9.8773677e-05 </wgt>
<wgt id='morphing_basis_vector_3'> +1.2523661e-04 </wgt>
<wgt id='morphing_basis_vector_4'> +4.4515716e-05 </wgt>
<wgt id='morphing_basis_vector_5'> +6.4731721e-05 </wgt>
</rwgt>
</event>
<event>
 4      1 +1.0153100e-05 5.41574600e+02 7.81860800e-03 9.31126800e-02
        2 -1    0    0  501    0 +0.0000000000e+00 +0.0000000000e+00 +1.7821193955e+03 1.7821193955e+03 0.0000000000e+00 0.0000e+00 1.0000e+00
       -2 -1    0    0    0  501 -0.0000000000e+00 -0.0000000000e+00 -4.1145265044e+01 4.1145265044e+01 0.0000000000e+00 0.0000e+00 -1.0000e+00
      -13  1    1    2    0    0 +2.3167282352e+02 +6.3568069615e+01 +1.2911446287e+03 1.3133040961e+03 0.0000000000e+00 0.0000e+00 1.0000e+00
       13  1    1    2    0    0 -2.3167282352e+02 -6.3568069615e+01 +4.4982950178e+02 5.0996056446e+02 0.0000000000e+00 0.0000e+00 -1.0000e+00
<mgrwt>
<rscale>  0 0.54157465E+03</rscale>
<asrwt>0</asrwt>
<pdfrwt beam="1">  1        2 0.27417216E+00 0.54157465E+03</pdfrwt>
<pdfrwt beam="2">  1       -2 0.63300421E-02 0.54157465E+03</pdfrwt>
<totfact> 0.14066663E+03</totfact>
</mgrwt>
<rwgt>
<wgt id='morphing_basis_vector_1'> +2.2277772e-04 </wgt>
<wgt id='morphing_basis_vector_2'> +2.0012008e-04 </wgt>
<wgt id='morphing_basis_vector_3'> +1.3854284e-04 </wgt>
<wgt id='morphing_basis_vector_4'> +3.8377806e-05 </wgt>
<wgt id='morphing_basis_vector_5'> +8.1368281e-05 </wgt>
</rwgt>
</event>
<event>
 4      1 +1.0153100e-05 5.27859600e+02 7.81860800e-03 9.33949800e-02
        2 -1    0    0  501    0 +0.0000000000e+00 +0.0000000000e+00 +9.1761301079e+02 9.1761301079e+02 0.0000000000e+00 0.0000e+00 1.0000e+00
       -2 -1    0    0    0  501 -0.0000000000e+00 -0.0000000000e+00 -7.5913185652e+01 7.5913185652e+01 0.0000000000e+00 0.0000e+00 -1.0000e+00
      -13  1    1    2    0    0 -2.6321333208e+02 +1.9343747796e+01 +4.2436514601e+02 4.9974114891e+02 0.0000000000e+00 0.0000e+00 1.0000e+00
       13  1    1    2    0    0 +2.6321333208e+02 -1.9343747796e+01 +4.1733467913e+02 4.9378504753e+02 0.0000000000e+00 0.0000e+00 -1.0000e+00
<mgrwt>
<rscale>  0 0.52785955E+03</rscale>
<asrwt>0</asrwt>
<pdfrwt beam="1">  1        2 0.14117123E+00 0.52785955E+03</pdfrwt>
<pdfrwt beam="2">  1       -2 0.11678952E-01 0.52785955E+03</pdfrwt>
<totfact> 0.16786940E+03</totfact>
</mgrwt>
<rwgt>
<wgt id='morphing_basis_vector_1'> +1.8423938e-04 </wgt>
<wgt id='morphing_basis_vector_2'> +1.1757940e-04 </wgt>
<wgt id='morphing_basis_vector_3'> +1.3045806e-04 </wgt>
<wgt id='morphing_basis_vector_4'> +4.5413708e-05 </wgt>
<wgt id='morphing_basis_vector_5'> +7.0126149e-05 </wgt>
</rwgt>
</event>
<event>
 4      1 +1.0153100e-05 5.26704500e+02 7.81860800e-03 9.34191800e-02
        2 -1    0    0  501    0 +0.0000000000e+00 +0.0000000000e+00 +9.9598052602e+02 9.9598052602e+02 0.0000000000e+00 0.0000e+00 -1.0000e+00
       -2 -1    0    0    0  501 -0.0000000000e+00 -0.0000000000e+00 -6.9634311002e+01 6.9634311002e+01 0.0000000000e+00 0.0000e+00 1.0000e+00
      -13  1    1    2    0    0 -1.3915986249e+02 -1.7265242946e+02 +1.7576783138e+02 2.8296406004e+02 0.0000000000e+00 0.0000e+00 1.0000e+00
       13  1    1    2    0    0 +1.3915986249e+02 +1.7265242946e+02 +7.5057838364e+02 7.8265077698e+02 0.0000000000e+00 0.0000e+00 -1.0000e+00
<mgrwt>
<rscale>  0 0.52670454E+03</rscale>
<asrwt>0</asrwt>
<pdfrwt beam="1">  1        2 0.15322776E+00 0.52670454E+03</pdfrwt>
<pdfrwt beam="2">  1       -2 0.10712972E-01 0.52670454E+03</pdfrwt>
<totfact> 0.17181189E+03</totfact>
</mgrwt>
<rwgt>
<wgt id='morphing_basis_vector_1'> +1.7752128e-04 </wgt>
<wgt id='morphing_basis_vector_2'> +9.9733865e-05 </wgt>
<wgt id='morphing_basis_vector_3'> +1.3096183e-04 </wgt>
<wgt id='morphing_basis_vector_4'> +4.7708658e-05 </wgt>
<wgt id='morphing_basis_vector_5'> +6.9106575e-05 </wgt>
</rwgt>
</event>
<event>
 4      1 +1.0153100e-05 5.29697600e+02 7.81860800e-03 9.33566200e-02
        2 -1    0    0  501    0 +0.0000000000e+00 +0.0000000000e+00 +1.6911761851e+02 1.6911761851e+02 0.0000000000e+00 0.0000e+00 -1.0000e+00
       -2 -1    0    0    0  501 -0.0000000000e+00 -0.0000000000e+00 -4.1476989880e+02 4.1476989880e+02 0.0000000000e+00 0.0000e+00 1.0000e+00
      -13  1    1    2    0    0 +1.1062875350e+00 -2.3043703900e+02 -2.6672822939e+02 3.5248602975e+02 0.0000000000e+00 0.0000e+00 1.0000e+00
       13  1    1    2    0    0 -1.1062875350e+00 +2.3043703900e+02 +2.1075949103e+01 2.3140148756e+02 0.0000000000e+00 0.0000e+00 -1.0000e+00
<mgrwt>
<rscale>  0 0.52969764E+03</rscale>
<asrwt>0</asrwt>
<pdfrwt beam="1">  1        2 0.26018095E-01 0.52969764E+03</pdfrwt>
<pdfrwt beam="2">  1       -2 0.63810754E-01 0.52969764E+03</pdfrwt>
<totfact> 0.60191644E+02</totfact>
</mgrwt>
<rwgt>
<wgt id='morphing_basis_vector_1'> +1.8082149e-04 </wgt>
<wgt id='morphing_basis_vector_2'> +1.0211942e-04 </wgt>
<wgt id='morphing_basis_vector_3'> +1.3364168e-04 </wgt>
<wgt id='morphing_basis_vector_4'> +4.9013379e-05 </wgt>
<wgt id='morphing_basis_vector_5'> +7.1332349e-05 </wgt>
</rwgt>
</event>
<event>
 4      1 +1.0153100e-05 5.20180100e+02 7.81860800e-03 9.35570800e-02
        2 -1    0    0  501    0 +0.0000000000e+00 +0.0000000000e+00 +1.8310287066e+03 1.8310287066e+03 0.0000000000e+00 0.0000e+00 1.0000e+00
       -2 -1    0    0    0  501 -0.0000000000e+00 -0.0000000000e+00 -3.6944717782e+01 3.6944717782e+01 0.0000000000e+00 0.0000e+00 -1.0000e+00
      -13  1    1    2    0    0 -3.2876889527e+00 -2.5786794433e+02 +7.7578730306e+02 8.1752836354e+02 0.0000000000e+00 0.0000e+00 -1.0000e+00
       13  1    1    2    0    0 +3.2876889527e+00 +2.5786794433e+02 +1.0182966858e+03 1.0504450609e+03 0.0000000000e+00 0.0000e+00 1.0000e+00
<mgrwt>
<rscale>  0 0.52018012E+03</rscale>
<asrwt>0</asrwt>
<pdfrwt beam="1">  1        2 0.28169665E+00 0.52018012E+03</pdfrwt>
<pdfrwt beam="2">  1       -2 0.56838042E-02 0.52018012E+03</pdfrwt>
<totfact> 0.15610942E+03</totfact>
</mgrwt>
<rwgt>
<wgt id='morphing_basis_vector_1'> +1.7378604e-04 </wgt>
<wgt id='morphing_basis_vector_2'> +1.0489586e-04 </wgt>
<wgt id='morphing_basis_vector_3'> +1.2424813e-04 </wgt>
<wgt id='morphing_basis_vector_4'> +4.3358663e-05 </wgt>
<wgt id='morphing_basis_vector_5'> +6.4526743e-05 </wgt>
</rwgt>
</event>
<event>
 4      1 +1.0153100e-05 5.84577300e+02 7.81860800e-03 9.22822300e-02
        2 -1    0    0  501    0 +0.0000000000e+00 +0.0000000000e+00 +7.7091217218e+02 7.7091217218e+02 0.0000000000e+00 0.0000e+00 -1.0000e+00
       -2 -1    0    0    0  501 -0.0000000000e+00 -0.0000000000e+00 -1.1082021804e+02 1.1082021804e+02 0.0000000000e+00 0.0000e+00 1.0000e+00
      -13  1    1    2    0    0 -2.6624310104e+02 -1.2009545982e+02 +3.1322652035e+02 4.2827463312e+02 0.0000000000e+00 0.0000e+00 1.0000e+00
       13  1    1    2    0    0 +2.6624310104e+02 +1.2009545982e+02 +3.4686543379e+02 4.5345775710e+02 0.0000000000e+00 0.0000e+00 -1.0000e+00
<mgrwt>
<rscale>  0 0.58457730E+03</rscale>
<asrwt>0</asrwt>
<pdfrwt beam="1">  1        2 0.11860187E+00 0.58457730E+03</pdfrwt>
<pdfrwt beam="2">  1       -2 0.17049265E-01 0.58457730E+03</pdfrwt>
<totfact> 0.11461387E+03</totfact>
</mgrwt>
<rwgt>
<wgt id='morphing_basis_vector_1'> +2.5306165e-04 </wgt>
<wgt id='morphing_basis_vector_2'> +1.6134710e-04 </wgt>
<wgt id='morphing_basis_vector_3'> +1.9212684e-04 </wgt>
<wgt id='morphing_basis_vector_4'> +7.5680163e-05 </wgt>
<wgt id='morphing_basis_vector_5'> +1.2124865e-04 </wgt>
</rwgt>
</event>
<event>
 4      1 +1.0153100e-05 5.63624000e+02 7.81860800e-03 9.26770300e-02
        2 -1    0    0  501    0 +0.0000000000e+00 +0.0000000000e+00 +1.8642847585e+03 1.8642847585e+03 0.0000000000e+00 0.0000e+00 -1.0000e+00
       -2 -1    0    0    0  501 -0.0000000000e+00 -0.0000000000e+00 -4.2599711896e+01 4.2599711896e+01 0.0000000000e+00 0.0000e+00 1.0000e+00
      -13  1    1    2    0    0 -2.5061661486e+02 -3.1306813741e+01 +4.8787876399e+02 5.4937645798e+02 0.0000000000e+00 0.0000e+00 1.0000e+00
       13  1    1    2    0    0 +2.5061661486e+02 +3.1306813741e+01 +1.3338062826e+03 1.3575080124e+03 0.0000000000e+00 0.0000e+00 -1.0000e+00
<mgrwt>
<rscale>  0 0.56362397E+03</rscale>
<asrwt>0</asrwt>
<pdfrwt beam="1">  1        2 0.28681298E+00 0.56362397E+03</pdfrwt>
<pdfrwt beam="2">  1       -2 0.65538033E-02 0.56362397E+03</pdfrwt>
<totfact> 0.12021873E+03</totfact>
</mgrwt>
<rwgt>
<wgt id='morphing_basis_vector_1'> +2.1991569e-04 </wgt>
<wgt id='morphing_basis_vector_2'> +1.2633801e-04 </wgt>
<wgt id='morphing_basis_vector_3'> +1.6787500e-04 </wgt>
<wgt id='morphing_basis_vector_4'> +6.6755542e-05 </wgt>
<wgt id='morphing_basis_vector_5'> +1.0000912e-04 </wgt>
</rwgt>
</event>
<event>
 4      1 +1.0153100e-05 5.42773000e+02 7.81860800e-03 9.30884400e-02
        2 -1    0    0  501    0 +0.0000000000e+00 +0.0000000000e+00 +1.2752522287e+03 1.2752522287e+03 0.0000000000e+00 0.0000e+00 -1.0000e+00
       -2 -1    0    0    0  501 -0.0000000000e+00 -0.0000000000e+00 -5.7753770234e+01 5.7753770234e+01 0.0000000000e+00 0.0000e+00 1.0000e+00
      -13  1    1    2    0    0 +9.0662529239e+01 -2.1647407099e+02 +2.7407771261e+02 3.6083141517e+02 0.0000000000e+00 0.0000e+00 1.0000e+00
       13  1    1    2    0    0 -9.0662529239e+01 +2.1647407099e+02 +9.4342074584e+02 9.7217458376e+02 0.0000000000e+00 0.0000e+00 -1.0000e+00
<mgrwt>
<rscale>  0 0.54277297E+03</rscale>
<asrwt>0</asrwt>
<pdfrwt beam="1">  1        2 0.19619263E+00 0.54277297E+03</pdfrwt>
<pdfrwt beam="2">  1       -2 0.88851964E-02 0.54277297E+03</pdfrwt>
<totfact> 0.15806865E+03</totfact>
</mgrwt>
<rwgt>
<wgt id='morphing_basis_vector_1'> +1.9501936e-04 </wgt>
<wgt id='morphing_basis_vector_2'> +1.1053951e-04 </wgt>
<wgt id='morphing_basis_vector_3'> +1.4611135e-04 </wgt>
<wgt id='morphing_basis_vector_4'> +5.5455235e-05 </wgt>
<wgt id='morphing_basis_vector_5'> +8.1603029e-05 </wgt>
</rwgt>
</event>
<event>
 4      1 +1.0153100e-05 6.12258100e+02 7.81860800e-03 9.17867300e-02
        2 -1    0    0  501    0 +0.0000000000e+00 +0.0000000000e+00 +7.3108776729e+02 7.3108776729e+02 0.0000000000e+00 0.0000e+00 1.0000e+00
       -2 -1    0    0    0  501 -0.0000000000e+00 -0.0000000000e+00 -1.2818571705e+02 1.2818571705e+02 0.0000000000e+00 0.0000e+00 -1.0000e+00
      -13  1    1    2    0    0 +3.0306621410e+02 -4.1383133408e+01 +3.1882864595e+02 4.4182960441e+02 0.0000000000e+00 0.0000e+00 -1.0000e+00
       13  1    1    2    0    0 -3.0306621410e+02 +4.1383133408e+01 +2.8407340429e+02 4.1744387992e+02 0.0000000000e+00 0.0000e+00 1.0000e+00
<mgrwt>
<rscale>  0 0.61225815E+03</rscale>
<asrwt>0</asrwt>
<pdfrwt beam="1">  1        2 0.11247504E+00 0.61225815E+03</pdfrwt>
<pdfrwt beam="2">  1       -2 0.19720880E-01 0.61225815E+03</pdfrwt>
<totfact> 0.96300758E+02</totfact>
</mgrwt>
<rwgt>
<wgt id='morphing_basis_vector_1'> +2.9697244e-04 </wgt>
<wgt id='morphing_basis_vector_2'> +1.9787769e-04 </wgt>
<wgt id='morphing_basis_vector_3'> +2.2960834e-04 </wgt>
<wgt id='morphing_basis_vector_4'> +9.2271333e-05 </wgt>
<wgt id='morphing_basis_vector_5'> +1.5368336e-04 </wgt>
</rwgt>
</event>
<event>
 4      1 +1.0153100e-05 5.61583200e+02 7.81860800e-03 9.27164600e-02
        2 -1    0    0  501    0 +0.0000000000e+00 +0.0000000000e+00 +5.3752908992e+02 5.3752908992e+02 0.0000000000e+00 0.0000e+00 -1.0000e+00
       -2 -1    0    0    0  501 -0.0000000000e+00 -0.0000000000e+00 -1.4667841670e+02 1.4667841670e+02 0.0000000000e+00 0.0000e+00 1.0000e+00
      -13  1    1    2    0    0 +1.8501186596e+02 -1.9535889801e+02 +2.9326935644e+02 3.9799673994e+02 0.0000000000e+00 0.0000e+00 1.0000e+00
       13  1    1    2    0    0 -1.8501186596e+02 +1.9535889801e+02 +9.7581316788e+01 2.8621076668e+02 0.0000000000e+00 0.0000e+00 -1.0000e+00
<mgrwt>
<rscale>  0 0.56158318E+03</rscale>
<asrwt>0</asrwt>
<pdfrwt beam="1">  1        2 0.82696782E-01 0.56158318E+03</pdfrwt>
<pdfrwt beam="2">  1       -2 0.22565911E-01 0.56158318E+03</pdfrwt>
<totfact> 0.11071877E+03</totfact>
</mgrwt>
<rwgt>
<wgt id='morphing_basis_vector_1'> +2.3576029e-04 </wgt>
<wgt id='morphing_basis_vector_2'> +1.8181553e-04 </wgt>
<wgt id='morphing_basis_vector_3'> +1.6317834e-04 </wgt>
<wgt id='morphing_basis_vector_4'> +5.3820398e-05 </wgt>
<wgt id='morphing_basis_vector_5'> +9.8433726e-05 </wgt>
</rwgt>
</event>
<event>
 4      1 +1.0153100e-05 5.62950800e+02 7.81860800e-03 9.26900200e-02
        2 -1    0    0  501    0 +0.0000000000e+00 +0.0000000000e+00 +7.4023401327e+02 7.4023401327e+02 0.0000000000e+00 0.0000e+00 1.0000e+00
       -2 -1    0    0    0  501 -0.0000000000e+00 -0.0000000000e+00 -1.0703155967e+02 1.0703155967e+02 0.0000000000e+00 0.0000e+00 -1.0000e+00
      -13  1    1    2    0    0 -9.0418123682e+01 +1.1361505078e+02 -4.6312799149e+01 1.5240961984e+02 0.0000000000e+00 0.0000e+00 -1.0000e+00
       13  1    1    2    0    0 +9.0418123682e+01 -1.1361505078e+02 +6.7951525275e+02 6.9485595311e+02 0.0000000000e+00 0.0000e+00 1.0000e+00
<mgrwt>
<rscale>  0 0.56295080E+03</rscale>
<asrwt>0</asrwt>
<pdfrwt beam="1">  1        2 0.11388215E+00 0.56295080E+03</pdfrwt>
<pdfrwt beam="2">  1       -2 0.16466394E-01 0.56295080E+03</pdfrwt>
<totfact> 0.12760265E+03</totfact>
</mgrwt>
<rwgt>
<wgt id='morphing_basis_vector_1'> +2.1794537e-04 </wgt>
<wgt id='morphing_basis_vector_2'> +1.2229819e-04 </wgt>
<wgt id='morphing_basis_vector_3'> +1.6727720e-04 </wgt>
<wgt id='morphing_basis_vector_4'> +6.7093751e-05 </wgt>
<wgt id='morphing_basis_vector_5'> +9.9354082e-05 </wgt>
</rwgt>
</event>
<event>
 4      1 +1.0153100e-05 5.21135700e+02 7.81860800e-03 9.35367500e-02
        2 -1    0    0  501    0 +0.0000000000e+00 +0.0000000000e+00 +6.6288112137e+02 6.6288112137e+02 0.0000000000e+00 0.0000e+00 1.0000e+00
       -2 -1    0    0    0  501 -0.0000000000e+00 -0.0000000000e+00 -1.0242500132e+02 1.0242500132e+02 0.0000000000e+00 0.0000e+00 -1.0000e+00
      -13  1    1    2    0    0 +2.2758809530e+02 +6.8186372132e-01 +9.3898806156e+01 2.4619868371e+02 0.0000000000e+00 0.0000e+00 -1.0000e+00
       13  1    1    2    0    0 -2.2758809530e+02 -6.8186372132e-01 +4.6655731390e+02 5.1910743899e+02 0.0000000000e+00 0.0000e+00 1.0000e+00
<mgrwt>
<rscale>  0 0.52113568E+03</rscale>
<asrwt>0</asrwt>
<pdfrwt beam="1">  1        2 0.10198171E+00 0.52113568E+03</pdfrwt>
<pdfrwt beam="2">  1       -2 0.15757693E-01 0.52113568E+03</pdfrwt>
<totfact> 0.15665279E+03</totfact>
</mgrwt>
<rwgt>
<wgt id='morphing_basis_vector_1'> +1.7199393e-04 </wgt>
<wgt id='morphing_basis_vector_2'> +9.6906719e-05 </wgt>
<wgt id='morphing_basis_vector_3'> +1.2595500e-04 </wgt>
<wgt id='morphing_basis_vector_4'> +4.5108760e-05 </wgt>
<wgt id='morphing_basis_vector_5'> +6.5106344e-05 </wgt>
</rwgt>
</event>
<event>
 4      1 +1.0153100e-05 5.37779000e+02 7.81860800e-03 9.31899100e-02
        2 -1    0    0  501    0 +0.0000000000e+00 +0.0000000000e+00 +7.6732975310e+02 7.6732975310e+02 0.0000000000e+00 0.0000e+00 1.0000e+00
       -2 -1    0    0    0  501 -0.0000000000e+00 -0.0000000000e+00 -9.4224902283e+01 9.4224902283e+01 0.0000000000e+00 0.0000e+00 -1.0000e+00
      -13  1    1    2    0    0 +2.4543348903e+02 -2.0039154348e+01 +1.6354169304e+02 2.9560962536e+02 0.0000000000e+00 0.0000e+00 -1.0000e+00
       13  1    1    2    0    0 -2.4543348903e+02 +2.0039154348e+01 +5.0956315777e+02 5.6594503002e+02 0.0000000000e+00 0.0000e+00 1.0000e+00
<mgrwt>
<rscale>  0 0.53777903E+03</rscale>
<asrwt>0</asrwt>
<pdfrwt beam="1">  1        2 0.11805073E+00 0.53777903E+03</pdfrwt>
<pdfrwt beam="2">  1       -2 0.14496139E-01 0.53777903E+03</pdfrwt>
<totfact> 0.14992980E+03</totfact>
</mgrwt>
<rwgt>
<wgt id='morphing_basis_vector_1'> +1.8996758e-04 </wgt>
<wgt id='morphing_basis_vector_2'> +1.0873248e-04 </wgt>
<wgt id='morphing_basis_vector_3'> +1.4113000e-04 </wgt>
<wgt id='morphing_basis_vector_4'> +5.2662991e-05 </wgt>
<wgt id='morphing_basis_vector_5'> +7.7581795e-05 </wgt>
</rwgt>
</event>
<event>
 4      1 +1.0153100e-05 5.38276300e+02 7.81860800e-03 9.31797500e-02
        2 -1    0    0  501    0 +0.0000000000e+00 +0.0000000000e+00 +2.8564994646e+02 2.8564994646e+02 0.0000000000e+00 0.0000e+00 -1.0000e+00
       -2 -1    0    0    0  501 -0.0000000000e+00 -0.0000000000e+00 -2.5358081054e+02 2.5358081054e+02 0.0000000000e+00 0.0000e+00 1.0000e+00
      -13  1    1    2    0    0 -2.3698339461e+02 -6.9534215280e+01 +1.2317845118e+02 2.7598744039e+02 0.0000000000e+00 0.0000e+00 1.0000e+00
       13  1    1    2    0    0 +2.3698339461e+02 +6.9534215280e+01 -9.1109315271e+01 2.6324331662e+02 0.0000000000e+00 0.0000e+00 -1.0000e+00
<mgrwt>
<rscale>  0 0.53827630E+03</rscale>
<asrwt>0</asrwt>
<pdfrwt beam="1">  1        2 0.43946146E-01 0.53827630E+03</pdfrwt>
<pdfrwt beam="2">  1       -2 0.39012432E-01 0.53827630E+03</pdfrwt>
<totfact> 0.86276431E+02</totfact>
</mgrwt>
<rwgt>
<wgt id='morphing_basis_vector_1'> +2.1346423e-04 </wgt>
<wgt id='morphing_basis_vector_2'> +1.8034854e-04 </wgt>
<wgt id='morphing_basis_vector_3'> +1.3623560e-04 </wgt>
<wgt id='morphing_basis_vector_4'> +4.0212077e-05 </wgt>
<wgt id='morphing_basis_vector_5'> +7.8592580e-05 </wgt>
</rwgt>
</event>
<event>
 4      1 +1.0153100e-05 5.46340200e+02 7.81860800e-03 9.30166800e-02
        2 -1    0    0  501    0 +0.0000000000e+00 +0.0000000000e+00 +1.3299299724e+03 1.3299299724e+03 0.0000000000e+00 0.0000e+00 -1.0000e+00
       -2 -1    0    0    0  501 -0.0000000000e+00 -0.0000000000e+00 -5.6109654960e+01 5.6109654960e+01 0.0000000000e+00 0.0000e+00 1.0000e+00
      -13  1    1    2    0    0 -2.5531206897e+02 +1.0874490382e+01 +3.9200013919e+02 4.6793868853e+02 0.0000000000e+00 0.0000e+00 1.0000e+00
       13  1    1    2    0    0 +2.5531206897e+02 -1.0874490382e+01 +8.8182017824e+02 9.1810093882e+02 0.0000000000e+00 0.0000e+00 -1.0000e+00
<mgrwt>
<rscale>  0 0.54634023E+03</rscale>
<asrwt>0</asrwt>
<pdfrwt beam="1">  1        2 0.20460459E+00 0.54634023E+03</pdfrwt>
<pdfrwt beam="2">  1       -2 0.86322556E-02 0.54634023E+03</pdfrwt>
<totfact> 0.15404553E+03</totfact>
</mgrwt>
<rwgt>
<wgt id='morphing_basis_vector_1'> +1.9989752e-04 </wgt>
<wgt id='morphing_basis_vector_2'> +1.1557566e-04 </wgt>
<wgt id='morphing_basis_vector_3'> +1.4950277e-04 </wgt>
<wgt id='morphing_basis_vector_4'> +5.6820729e-05 </wgt>
<wgt id='morphing_basis_vector_5'> +8.4591134e-05 </wgt>
</rwgt>
</event>
<event>
 4      1 +1.0153100e-05 5.41263100e+02 7.81860800e-03 9.31190000e-02
        2 -1    0    0  501    0 +0.0000000000e+00 +0.0000000000e+00 +7.9697788097e+02 7.9697788097e+02 0.0000000000e+00 0.0000e+00 -1.0000e+00
       -2 -1    0    0    0  501 -0.0000000000e+00 -0.0000000000e+00 -9.1898952762e+01 9.1898952762e+01 0.0000000000e+00 0.0000e+00 1.0000e+00
      -13  1    1    2    0    0 +1.7366838669e+02 +1.7976266639e+02 +5.2293669787e+02 5.7960168628e+02 0.0000000000e+00 0.0000e+00 1.0000e+00
       13  1    1    2    0    0 -1.7366838669e+02 -1.7976266639e+02 +1.8214223034e+02 3.0927514746e+02 0.0000000000e+00 0.0000e+00 -1.0000e+00
<mgrwt>
<rscale>  0 0.54126309E+03</rscale>
<asrwt>0</asrwt>
<pdfrwt beam="1">  1        2 0.12261198E+00 0.54126309E+03</pdfrwt>
<pdfrwt beam="2">  1       -2 0.14138301E-01 0.54126309E+03</pdfrwt>
<totfact> 0.14880583E+03</totfact>
</mgrwt>
<rwgt>
<wgt id='morphing_basis_vector_1'> +2.1615738e-04 </wgt>
<wgt id='morphing_basis_vector_2'> +1.8042777e-04 </wgt>
<wgt id='morphing_basis_vector_3'> +1.3958315e-04 </wgt>
<wgt id='morphing_basis_vector_4'> +4.1795158e-05 </wgt>
<wgt id='morphing_basis_vector_5'> +8.0956301e-05 </wgt>
</rwgt>
</event>
<event>
 4      1 +1.0153100e-05 5.38912400e+02 7.81860800e-03 9.31667800e-02
        2 -1    0    0  501    0 +0.0000000000e+00 +0.0000000000e+00 +9.5823985944e+02 9.5823985944e+02 0.0000000000e+00 0.0000e+00 -1.0000e+00
       -2 -1    0    0    0  501 -0.0000000000e+00 -0.0000000000e+00 -7.5770844253e+01 7.5770844253e+01 0.0000000000e+00 0.0000e+00 1.0000e+00
      -13  1    1    2    0    0 +2.3468524083e+02 +1.1179989130e+02 +3.0515200105e+02 4.0086671314e+02 0.0000000000e+00 0.0000e+00 1.0000e+00
       13  1    1    2    0    0 -2.3468524083e+02 -1.1179989130e+02 +5.7731701413e+02 6.3314399055e+02 0.0000000000e+00 0.0000e+00 -1.0000e+00
<mgrwt>
<rscale>  0 0.53891240E+03</rscale>
<asrwt>0</asrwt>
<pdfrwt beam="1">  1        2 0.14742151E+00 0.53891240E+03</pdfrwt>
<pdfrwt beam="2">  1       -2 0.11657054E-01 0.53891240E+03</pdfrwt>
<totfact> 0.15871806E+03</totfact>
</mgrwt>
<rwgt>
<wgt id='morphing_basis_vector_1'> +1.9226740e-04 </wgt>
<wgt id='morphing_basis_vector_2'> +1.1275311e-04 </wgt>
<wgt id='morphing_basis_vector_3'> +1.4198126e-04 </wgt>
<wgt id='morphing_basis_vector_4'> +5.2640211e-05 </wgt>
<wgt id='morphing_basis_vector_5'> +7.8513007e-05 </wgt>
</rwgt>
</event>
<event>
 4      1 +1.0153100e-05 5.24710600e+02 7.81860800e-03 9.34610900e-02
        2 -1    0    0  501    0 +0.0000000000e+00 +0.0000000000e+00 +1.4831773947e+02 1.4831773947e+02 0.0000000000e+00 0.0000e+00 -1.0000e+00
       -2 -1    0    0    0  501 -0.0000000000e+00 -0.0000000000e+00 -4.6407335456e+02 4.6407335456e+02 0.0000000000e+00 0.0000e+00 1.0000e+00
      -13  1    1    2    0    0 +2.2588342936e+02 -1.1317717926e+01 -2.6975095523e+00 2.2618287061e+02 0.0000000000e+00 0.0000e+00 1.0000e+00
       13  1    1    2    0    0 -2.2588342936e+02 +1.1317717926e+01 -3.1305810553e+02 3.8620822342e+02 0.0000000000e+00 0.0000e+00 -1.0000e+00
<mgrwt>
<rscale>  0 0.52471063E+03</rscale>
<asrwt>0</asrwt>
<pdfrwt beam="1">  1        2 0.22818114E-01 0.52471063E+03</pdfrwt>
<pdfrwt beam="2">  1       -2 0.71395901E-01 0.52471063E+03</pdfrwt>
<totfact> 0.55423706E+02</totfact>
</mgrwt>
<rwgt>
<wgt id='morphing_basis_vector_1'> +2.0556137e-04 </wgt>
<wgt id='morphing_basis_vector_2'> +1.9200822e-04 </wgt>
<wgt id='morphing_basis_vector_3'> +1.2027578e-04 </wgt>
<wgt id='morphing_basis_vector_4'> +3.1731197e-05 </wgt>
<wgt id='morphing_basis_vector_5'> +6.8605362e-05 </wgt>
</rwgt>
</event>
<event>
 4      1 +1.0153100e-05 5.54835700e+02 7.81860800e-03 9.28480900e-02
        2 -1    0    0  501    0 +0.0000000000e+00 +0.0000000000e+00 +1.3371342236e+03 1.3371342236e+03 0.0000000000e+00 0.0000e+00 -1.0000e+00
       -2 -1    0    0    0  501 -0.0000000000e+00 -0.0000000000e+00 -5.7556418806e+01 5.7556418806e+01 0.0000000000e+00 0.0000e+00 1.0000e+00
      -13  1    1    2    0    0 +1.9166231623e+02 -1.9450341804e+02 +5.1678097392e+02 5.8449003250e+02 0.0000000000e+00 0.0000e+00 1.0000e+00
       13  1    1    2    0    0 -1.9166231623e+02 +1.9450341804e+02 +7.6279683086e+02 8.1020060989e+02 0.0000000000e+00 0.0000e+00 -1.0000e+00
<mgrwt>
<rscale>  0 0.55483568E+03</rscale>
<asrwt>0</asrwt>
<pdfrwt beam="1">  1        2 0.20571293E+00 0.55483568E+03</pdfrwt>
<pdfrwt beam="2">  1       -2 0.88548347E-02 0.55483568E+03</pdfrwt>
<totfact> 0.14667951E+03</totfact>
</mgrwt>
<rwgt>
<wgt id='morphing_basis_vector_1'> +2.1171764e-04 </wgt>
<wgt id='morphing_basis_vector_2'> +1.2752078e-04 </wgt>
<wgt id='morphing_basis_vector_3'> +1.5797785e-04 </wgt>
<wgt id='morphing_basis_vector_4'> +6.0212630e-05 </wgt>
<wgt id='morphing_basis_vector_5'> +9.1992922e-05 </wgt>
</rwgt>
</event>
<event>
 4      1 +1.0153100e-05 5.99916400e+02 7.81860800e-03 9.20041600e-02
        2 -1    0    0  501    0 +0.0000000000e+00 +0.0000000000e+00 +5.8096887069e+02 5.8096887069e+02 0.0000000000e+00 0.0000e+00 -1.0000e+00
       -2 -1    0    0    0  501 -0.0000000000e+00 -0.0000000000e+00 -1.5487047527e+02 1.5487047527e+02 0.0000000000e+00 0.0000e+00 1.0000e+00
      -13  1    1    2    0    0 -2.3392934384e+02 +1.1744448308e+02 +3.3371247956e+01 2.6387456245e+02 0.0000000000e+00 0.0000e+00 1.0000e+00
       13  1    1    2    0    0 +2.3392934384e+02 -1.1744448308e+02 +3.9272714746e+02 4.7196478351e+02 0.0000000000e+00 0.0000e+00 -1.0000e+00
<mgrwt>
<rscale>  0 0.59991641E+03</rscale>
<asrwt>0</asrwt>
<pdfrwt beam="1">  1        2 0.89379825E-01 0.59991641E+03</pdfrwt>
<pdfrwt beam="2">  1       -2 0.23826227E-01 0.59991641E+03</pdfrwt>
<totfact> 0.92321380E+02</totfact>
</mgrwt>
<rwgt>
<wgt id='morphing_basis_vector_1'> +2.6848323e-04 </wgt>
<wgt id='morphing_basis_vector_2'> +1.5543143e-04 </wgt>
<wgt id='morphing_basis_vector_3'> +2.1202369e-04 </wgt>
<wgt id='morphing_basis_vector_4'> +9.0940390e-05 </wgt>
<wgt id='morphing_basis_vector_5'> +1.3852649e-04 </wgt>
</rwgt>
</event>
<event>
 4      1 +1.0153100e-05 5.66433400e+02 7.81860800e-03 9.26230500e-02
        2 -1    0    0  501    0 +0.0000000000e+00 +0.0000000000e+00 +2.3424526066e+02 2.3424526066e+02 0.0000000000e+00 0.0000e+00 -1.0000e+00
       -2 -1    0    0    0  501 -0.0000000000e+00 -0.0000000000e+00 -3.4242614895e+02 3.4242614895e+02 0.0000000000e+00 0.0000e+00 1.0000e+00
      -13  1    1    2    0    0 +2.6254979751e+02 -6.3789715700e+01 -1.4053796960e+02 3.0455286060e+02 0.0000000000e+00 0.0000e+00 1.0000e+00
       13  1    1    2    0    0 -2.6254979751e+02 +6.3789715700e+01 +3.2357081311e+01 2.7211854901e+02 0.0000000000e+00 0.0000e+00 -1.0000e+00
<mgrwt>
<rscale>  0 0.56643341E+03</rscale>
<asrwt>0</asrwt>
<pdfrwt beam="1">  1        2 0.36037733E-01 0.56643341E+03</pdfrwt>
<pdfrwt beam="2">  1       -2 0.52680946E-01 0.56643341E+03</pdfrwt>
<totfact> 0.60918639E+02</totfact>
</mgrwt>
<rwgt>
<wgt id='morphing_basis_vector_1'> +2.2453983e-04 </wgt>
<wgt id='morphing_basis_vector_2'> +1.3195537e-04 </wgt>
<wgt id='morphing_basis_vector_3'> +1.7087832e-04 </wgt>
<wgt id='morphing_basis_vector_4'> +6.7686131e-05 </wgt>
<wgt id='morphing_basis_vector_5'> +1.0270629e-04 </wgt>
</rwgt>
</event>
<event>
 4      1 +1.0153100e-05 5.63009600e+02 7.81860800e-03 9.26888800e-02
        2 -1    0    0  501    0 +0.0000000000e+00 +0.0000000000e+00 +1.4560620810e+02 1.4560620810e+02 0.0000000000e+00 0.0000e+00 1.0000e+00
       -2 -1    0    0    0  501 -0.0000000000e+00 -0.0000000000e+00 -5.4424158367e+02 5.4424158367e+02 0.0000000000e+00 0.0000e+00 -1.0000e+00
      -13  1    1    2    0    0 -1.0183288391e+02 -2.0536363194e+02 -3.9953405538e+02 4.6062090593e+02 0.0000000000e+00 0.0000e+00 -1.0000e+00
       13  1    1    2    0    0 +1.0183288391e+02 +2.0536363194e+02 +8.9867981144e-01 2.2922688585e+02 0.0000000000e+00 0.0000e+00 1.0000e+00
<mgrwt>
<rscale>  0 0.56300960E+03</rscale>
<asrwt>0</asrwt>
<pdfrwt beam="1">  1        2 0.22400954E-01 0.56300960E+03</pdfrwt>
<pdfrwt beam="2">  1       -2 0.83729478E-01 0.56300960E+03</pdfrwt>
<totfact> 0.39773463E+02</totfact>
</mgrwt>
<rwgt>
<wgt id='morphing_basis_vector_1'> +2.1853655e-04 </wgt>
<wgt id='morphing_basis_vector_2'> +1.2395249e-04 </wgt>
<wgt id='morphing_basis_vector_3'> +1.6727558e-04 </wgt>
<wgt id='morphing_basis_vector_4'> +6.6794131e-05 </wgt>
<wgt id='morphing_basis_vector_5'> +9.9418756e-05 </wgt>
</rwgt>
</event>
<event>
 4      1 +1.0153100e-05 5.62234500e+02 7.81860800e-03 9.27038500e-02
        2 -1    0    0  501    0 +0.0000000000e+00 +0.0000000000e+00 +1.4650148194e+03 1.4650148194e+03 0.0000000000e+00 0.0000e+00 1.0000e+00
       -2 -1    0    0    0  501 -0.0000000000e+00 -0.0000000000e+00 -5.3942729334e+01 5.3942729334e+01 0.0000000000e+00 0.0000e+00 -1.0000e+00
      -13  1    1    2    0    0 -1.1710635409e+02 -1.7739083291e+02 +1.2025614526e+03 1.2212024620e+03 0.0000000000e+00 0.0000e+00 1.0000e+00
       13  1    1    2    0    0 +1.1710635409e+02 +1.7739083291e+02 +2.0851063743e+02 2.9775508676e+02 0.0000000000e+00 0.0000e+00 -1.0000e+00
<mgrwt>
<rscale>  0 0.56223446E+03</rscale>
<asrwt>0</asrwt>
<pdfrwt beam="1">  1        2 0.22538686E+00 0.56223446E+03</pdfrwt>
<pdfrwt beam="2">  1       -2 0.82988826E-02 0.56223446E+03</pdfrwt>
<totfact> 0.13782142E+03</totfact>
</mgrwt>
<rwgt>
<wgt id='morphing_basis_vector_1'> +2.7195904e-04 </wgt>
<wgt id='morphing_basis_vector_2'> +2.9221198e-04 </wgt>
<wgt id='morphing_basis_vector_3'> +1.5931210e-04 </wgt>
<wgt id='morphing_basis_vector_4'> +3.1434128e-05 </wgt>
<wgt id='morphing_basis_vector_5'> +9.9684733e-05 </wgt>
</rwgt>
</event>
<event>
 4      1 +1.0153100e-05 5.42577800e+02 7.81860800e-03 9.30923900e-02
        2 -1    0    0  501    0 +0.0000000000e+00 +0.0000000000e+00 +2.2960128301e+02 2.2960128301e+02 0.0000000000e+00 0.0000e+00 -1.0000e+00
       -2 -1    0    0    0  501 -0.0000000000e+00 -0.0000000000e+00 -3.2054553020e+02 3.2054553020e+02 0.0000000000e+00 0.0000e+00 1.0000e+00
      -13  1    1    2    0    0 -2.6661674033e+01 -2.5361870043e+02 -1.3930702967e+02 2.9058516581e+02 0.0000000000e+00 0.0000e+00 1.0000e+00
       13  1    1    2    0    0 +2.6661674033e+01 +2.5361870043e+02 +4.8362782492e+01 2.5956164740e+02 0.0000000000e+00 0.0000e+00 -1.0000e+00
<mgrwt>
<rscale>  0 0.54257779E+03</rscale>
<asrwt>0</asrwt>
<pdfrwt beam="1">  1        2 0.35323274E-01 0.54257779E+03</pdfrwt>
<pdfrwt beam="2">  1       -2 0.49314697E-01 0.54257779E+03</pdfrwt>
<totfact> 0.70933646E+02</totfact>
</mgrwt>
<rwgt>
<wgt id='morphing_basis_vector_1'> +1.9571014e-04 </wgt>
<wgt id='morphing_basis_vector_2'> +1.1323379e-04 </wgt>
<wgt id='morphing_basis_vector_3'> +1.4572295e-04 </wgt>
<wgt id='morphing_basis_vector_4'> +5.4836808e-05 </wgt>
<wgt id='morphing_basis_vector_5'> +8.1465724e-05 </wgt>
</rwgt>
</event>
<event>
 4      1 +1.0153100e-05 5.41975000e+02 7.81860800e-03 9.31045800e-02
        2 -1    0    0  501    0 +0.0000000000e+00 +0.0000000000e+00 +1.1183983511e+03 1.1183983511e+03 0.0000000000e+00 0.0000e+00 -1.0000e+00
       -2 -1    0    0    0  501 -0.0000000000e+00 -0.0000000000e+00 -6.5660165855e+01 6.5660165855e+01 0.0000000000e+00 0.0000e+00 1.0000e+00
      -13  1    1    2    0    0 -5.0920914291e+01 -2.1556556100e+02 +1.8529685197e+02 2.8878430350e+02 0.0000000000e+00 0.0000e+00 1.0000e+00
       13  1    1    2    0    0 +5.0920914291e+01 +2.1556556100e+02 +8.6744133327e+02 8.9527421345e+02 0.0000000000e+00 0.0000e+00 -1.0000e+00
<mgrwt>
<rscale>  0 0.54197499E+03</rscale>
<asrwt>0</asrwt>
<pdfrwt beam="1">  1        2 0.17206127E+00 0.54197499E+03</pdfrwt>
<pdfrwt beam="2">  1       -2 0.10101565E-01 0.54197499E+03</pdfrwt>
<totfact> 0.15913022E+03</totfact>
</mgrwt>
<rwgt>
<wgt id='morphing_basis_vector_1'> +1.9386203e-04 </wgt>
<wgt id='morphing_basis_vector_2'> +1.0918492e-04 </wgt>
<wgt id='morphing_basis_vector_3'> +1.4538217e-04 </wgt>
<wgt id='morphing_basis_vector_4'> +5.5195588e-05 </wgt>
<wgt id='morphing_basis_vector_5'> +8.0942267e-05 </wgt>
</rwgt>
</event>
<event>
 4      1 +1.0153100e-05 5.48172200e+02 7.81860800e-03 9.29800500e-02
        2 -1    0    0  501    0 +0.0000000000e+00 +0.0000000000e+00 +4.6433614010e+02 4.6433614010e+02 0.0000000000e+00 0.0000e+00 1.0000e+00
       -2 -1    0    0    0  501 -0.0000000000e+00 -0.0000000000e+00 -1.6178623744e+02 1.6178623744e+02 0.0000000000e+00 0.0000e+00 -1.0000e+00
      -13  1    1    2    0    0 -2.3678968065e+02 -1.2981752477e+01 +3.0824050383e+02 3.8890884145e+02 0.0000000000e+00 0.0000e+00 1.0000e+00
       13  1    1    2    0    0 +2.3678968065e+02 +1.2981752477e+01 -5.6906011734e+00 2.3721353609e+02 0.0000000000e+00 0.0000e+00 -1.0000e+00
<mgrwt>
<rscale>  0 0.54817222E+03</rscale>
<asrwt>0</asrwt>
<pdfrwt beam="1">  1        2 0.71436329E-01 0.54817222E+03</pdfrwt>
<pdfrwt beam="2">  1       -2 0.24890191E-01 0.54817222E+03</pdfrwt>
<totfact> 0.11076585E+03</totfact>
</mgrwt>
<rwgt>
<wgt id='morphing_basis_vector_1'> +2.3514530e-04 </wgt>
<wgt id='morphing_basis_vector_2'> +2.1978999e-04 </wgt>
<wgt id='morphing_basis_vector_3'> +1.4504304e-04 </wgt>
<wgt id='morphing_basis_vector_4'> +3.8210559e-05 </wgt>
<wgt id='morphing_basis_vector_5'> +8.6915008e-05 </wgt>
</rwgt>
</event>
<event>
 4      1 +1.0153100e-05 5.96167600e+02 7.81860800e-03 9.20713000e-02
        2 -1    0    0  501    0 +0.0000000000e+00 +0.0000000000e+00 +2.9308142080e+03 2.9308142080e+03 0.0000000000e+00 0.0000e+00 -1.0000e+00
       -2 -1    0    0    0  501 -0.0000000000e+00 -0.0000000000e+00 -3.0317158386e+01 3.0317158386e+01 0.0000000000e+00 0.0000e+00 1.0000e+00
      -13  1    1    2    0    0 -8.9963314059e+01 +2.8383160952e+02 +1.5205229945e+03 1.5494011609e+03 0.0000000000e+00 0.0000e+00 1.0000e+00
       13  1    1    2    0    0 +8.9963314059e+01 -2.8383160952e+02 +1.3799740551e+03 1.4117302055e+03 0.0000000000e+00 0.0000e+00 -1.0000e+00
<mgrwt>
<rscale>  0 0.59616762E+03</rscale>
<asrwt>0</asrwt>
<pdfrwt beam="1">  1        2 0.45089427E+00 0.59616762E+03</pdfrwt>
<pdfrwt beam="2">  1       -2 0.46641805E-02 0.59616762E+03</pdfrwt>
<totfact> 0.48882425E+02</totfact>
</mgrwt>
<rwgt>
<wgt id='morphing_basis_vector_1'> +2.7248505e-04 </wgt>
<wgt id='morphing_basis_vector_2'> +1.8130487e-04 </wgt>
<wgt id='morphing_basis_vector_3'> +2.0712643e-04 </wgt>
<wgt id='morphing_basis_vector_4'> +8.1066981e-05 </wgt>
<wgt id='morphing_basis_vector_5'> +1.3419844e-04 </wgt>
</rwgt>
</event>
<event>
 4      1 +1.0153100e-05 5.74065300e+02 7.81860800e-03 9.24780600e-02
        2 -1    0    0  501    0 +0.0000000000e+00 +0.0000000000e+00 +7.0348453832e+02 7.0348453832e+02 0.0000000000e+00 0.0000e+00 -1.0000e+00
       -2 -1    0    0    0  501 -0.0000000000e+00 -0.0000000000e+00 -1.1711379162e+02 1.1711379162e+02 0.0000000000e+00 0.0000e+00 1.0000e+00
      -13  1    1    2    0    0 -1.2628999390e+02 -1.1946978060e+01 -7.4869439853e+01 1.4730012175e+02 0.0000000000e+00 0.0000e+00 1.0000e+00
       13  1    1    2    0    0 +1.2628999390e+02 +1.1946978060e+01 +6.6124018655e+02 6.7329820819e+02 0.0000000000e+00 0.0000e+00 -1.0000e+00
<mgrwt>
<rscale>  0 0.57406530E+03</rscale>
<asrwt>0</asrwt>
<pdfrwt beam="1">  1        2 0.10822839E+00 0.57406530E+03</pdfrwt>
<pdfrwt beam="2">  1       -2 0.18017507E-01 0.57406530E+03</pdfrwt>
<totfact> 0.11724131E+03</totfact>
</mgrwt>
<rwgt>
<wgt id='morphing_basis_vector_1'> +2.3192569e-04 </wgt>
<wgt id='morphing_basis_vector_2'> +1.3058593e-04 </wgt>
<wgt id='morphing_basis_vector_3'> +1.7984728e-04 </wgt>
<wgt id='morphing_basis_vector_4'> +7.3951962e-05 </wgt>
<wgt id='morphing_basis_vector_5'> +1.1019455e-04 </wgt>
</rwgt>
</event>
<event>
 4      1 +1.0153100e-05 5.88158700e+02 7.81860800e-03 9.22165000e-02
        2 -1    0    0  501    0 +0.0000000000e+00 +0.0000000000e+00 +2.7268052850e+02 2.7268052850e+02 0.0000000000e+00 0.0000e+00 -1.0000e+00
       -2 -1    0    0    0  501 -0.0000000000e+00 -0.0000000000e+00 -3.1715747928e+02 3.1715747928e+02 0.0000000000e+00 0.0000e+00 1.0000e+00
      -13  1    1    2    0    0 -7.5174169546e+01 +2.3544790005e+02 -1.8205407270e+02 3.0696995748e+02 0.0000000000e+00 0.0000e+00 1.0000e+00
       13  1    1    2    0    0 +7.5174169546e+01 -2.3544790005e+02 +1.3757712193e+02 2.8286805031e+02 0.0000000000e+00 0.0000e+00 -1.0000e+00
<mgrwt>
<rscale>  0 0.58815872E+03</rscale>
<asrwt>0</asrwt>
<pdfrwt beam="1">  1        2 0.41950851E-01 0.58815872E+03</pdfrwt>
<pdfrwt beam="2">  1       -2 0.48793458E-01 0.58815872E+03</pdfrwt>
<totfact> 0.59551201E+02</totfact>
</mgrwt>
<rwgt>
<wgt id='morphing_basis_vector_1'> +2.5152085e-04 </wgt>
<wgt id='morphing_basis_vector_2'> +1.4433222e-04 </wgt>
<wgt id='morphing_basis_vector_3'> +1.9683457e-04 </wgt>
<wgt id='morphing_basis_vector_4'> +8.2763277e-05 </wgt>
<wgt id='morphing_basis_vector_5'> +1.2508797e-04 </wgt>
</rwgt>
</event>
<event>
 4      1 +1.0153100e-05 5.35518200e+02 7.81860800e-03 9.32362300e-02
        2 -1    0    0  501    0 +0.0000000000e+00 +0.0000000000e+00 +4.2804740648e+02 4.2804740648e+02 0.0000000000e+00 0.0000e+00 1.0000e+00
       -2 -1    0    0    0  501 -0.0000000000e+00 -0.0000000000e+00 -1.6749295527e+02 1.6749295527e+02 0.0000000000e+00 0.0000e+00 -1.0000e+00
      -13  1    1    2    0    0 +6.0121747110e+01 +2.3402903463e+02 +2.5858046855e+02 3.5390404383e+02 0.0000000000e+00 0.0000e+00 1.0000e+00
       13  1    1    2    0    0 -6.0121747110e+01 -2.3402903463e+02 +1.9739826676e+00 2.4163631791e+02 0.0000000000e+00 0.0000e+00 -1.0000e+00
<mgrwt>
<rscale>  0 0.53551816E+03</rscale>
<asrwt>0</asrwt>
<pdfrwt beam="1">  1        2 0.65853447E-01 0.53551816E+03</pdfrwt>
<pdfrwt beam="2">  1       -2 0.25768147E-01 0.53551816E+03</pdfrwt>
<totfact> 0.11439433E+03</totfact>
</mgrwt>
<rwgt>
<wgt id='morphing_basis_vector_1'> +2.1259939e-04 </wgt>
<wgt id='morphing_basis_vector_2'> +1.8521224e-04 </wgt>
<wgt id='morphing_basis_vector_3'> +1.3278034e-04 </wgt>
<wgt id='morphing_basis_vector_4'> +3.7933930e-05 </wgt>
<wgt id='morphing_basis_vector_5'> +7.6498852e-05 </wgt>
</rwgt>
</event>
<event>
 4      1 +1.0153100e-05 5.57122400e+02 7.81860800e-03 9.28032500e-02
        2 -1    0    0  501    0 +0.0000000000e+00 +0.0000000000e+00 +6.0795432151e+02 6.0795432151e+02 0.0000000000e+00 0.0000e+00 -1.0000e+00
       -2 -1    0    0    0  501 -0.0000000000e+00 -0.0000000000e+00 -1.2763516186e+02 1.2763516186e+02 0.0000000000e+00 0.0000e+00 1.0000e+00
      -13  1    1    2    0    0 +2.3538357365e+02 +7.8136418735e-01 +4.3476695629e+01 2.3936637261e+02 0.0000000000e+00 0.0000e+00 1.0000e+00
       13  1    1    2    0    0 -2.3538357365e+02 -7.8136418735e-01 +4.3684246403e+02 4.9622311076e+02 0.0000000000e+00 0.0000e+00 -1.0000e+00
<mgrwt>
<rscale>  0 0.55712242E+03</rscale>
<asrwt>0</asrwt>
<pdfrwt beam="1">  1        2 0.93531433E-01 0.55712242E+03</pdfrwt>
<pdfrwt beam="2">  1       -2 0.19636179E-01 0.55712242E+03</pdfrwt>
<totfact> 0.12107678E+03</totfact>
</mgrwt>
<rwgt>
<wgt id='morphing_basis_vector_1'> +2.1154684e-04 </wgt>
<wgt id='morphing_basis_vector_2'> +1.2015986e-04 </wgt>
<wgt id='morphing_basis_vector_3'> +1.6087285e-04 </wgt>
<wgt id='morphing_basis_vector_4'> +6.3282671e-05 </wgt>
<wgt id='morphing_basis_vector_5'> +9.3987089e-05 </wgt>
</rwgt>
</event>
<event>
 4      1 +1.0153100e-05 5.23913500e+02 7.81860800e-03 9.34779100e-02
        2 -1    0    0  501    0 +0.0000000000e+00 +0.0000000000e+00 +9.4974889925e+02 9.4974889925e+02 0.0000000000e+00 0.0000e+00 1.0000e+00
       -2 -1    0    0    0  501 -0.0000000000e+00 -0.0000000000e+00 -7.2252075965e+01 7.2252075965e+01 0.0000000000e+00 0.0000e+00 -1.0000e+00
      -13  1    1    2    0    0 +2.5550384471e+02 +3.9073869764e+01 +3.5570359982e+02 4.3969766077e+02 0.0000000000e+00 0.0000e+00 -1.0000e+00
       13  1    1    2    0    0 -2.5550384471e+02 -3.9073869764e+01 +5.2179322346e+02 5.8230331445e+02 0.0000000000e+00 0.0000e+00 1.0000e+00
<mgrwt>
<rscale>  0 0.52391346E+03</rscale>
<asrwt>0</asrwt>
<pdfrwt beam="1">  1        2 0.14611521E+00 0.52391346E+03</pdfrwt>
<pdfrwt beam="2">  1       -2 0.11115705E-01 0.52391346E+03</pdfrwt>
<totfact> 0.17318932E+03</totfact>
</mgrwt>
<rwgt>
<wgt id='morphing_basis_vector_1'> +1.7722333e-04 </wgt>
<wgt id='morphing_basis_vector_2'> +1.0604347e-04 </wgt>
<wgt id='morphing_basis_vector_3'> +1.2768862e-04 </wgt>
<wgt id='morphing_basis_vector_4'> +4.5152755e-05 </wgt>
<wgt id='morphing_basis_vector_5'> +6.7160814e-05 </wgt>
</rwgt>
</event>
<event>
 4      1 +1.0153100e-05 5.29591400e+02 7.81860800e-03 9.33588400e-02
        2 -1    0    0  501    0 +0.0000000000e+00 +0.0000000000e+00 +1.0859444519e+03 1.0859444519e+03 0.0000000000e+00 0.0000e+00 1.0000e+00
       -2 -1    0    0    0  501 -0.0000000000e+00 -0.0000000000e+00 -6.4567535161e+01 6.4567535161e+01 0.0000000000e+00 0.0000e+00 -1.0000e+00
      -13  1    1    2    0    0 -1.6643421425e+02 +8.8650321183e+01 +1.0683706425e+02 2.1673344323e+02 0.0000000000e+00 0.0000e+00 -1.0000e+00
       13  1    1    2    0    0 +1.6643421425e+02 -8.8650321183e+01 +9.1453985247e+02 9.3377854380e+02 0.0000000000e+00 0.0000e+00 1.0000e+00
<mgrwt>
<rscale>  0 0.52959138E+03</rscale>
<asrwt>0</asrwt>
<pdfrwt beam="1">  1        2 0.16706836E+00 0.52959138E+03</pdfrwt>
<pdfrwt beam="2">  1       -2 0.99334678E-02 0.52959138E+03</pdfrwt>
<totfact> 0.17074801E+03</totfact>
</mgrwt>
<rwgt>
<wgt id='morphing_basis_vector_1'> +1.8015679e-04 </wgt>
<wgt id='morphing_basis_vector_2'> +1.0033586e-04 </wgt>
<wgt id='morphing_basis_vector_3'> +1.3369505e-04 </wgt>
<wgt id='morphing_basis_vector_4'> +4.9250768e-05 </wgt>
<wgt id='morphing_basis_vector_5'> +7.1236169e-05 </wgt>
</rwgt>
</event>
<event>
 4      1 +1.0153100e-05 6.19462600e+02 7.81860800e-03 9.16622900e-02
        2 -1    0    0  501    0 +0.0000000000e+00 +0.0000000000e+00 +8.3506630612e+02 8.3506630612e+02 0.0000000000e+00 0.0000e+00 1.0000e+00
       -2 -1    0    0    0  501 -0.0000000000e+00 -0.0000000000e+00 -1.1488128766e+02 1.1488128766e+02 0.0000000000e+00 0.0000e+00 -1.0000e+00
      -13  1    1    2    0    0 +1.9251587160e+02 +1.7475305028e+02 +1.0196933553e+02 2.7928253578e+02 0.0000000000e+00 0.0000e+00 -1.0000e+00
       13  1    1    2    0    0 -1.9251587160e+02 -1.7475305028e+02 +6.1821568293e+02 6.7066505800e+02 0.0000000000e+00 0.0000e+00 1.0000e+00
<mgrwt>
<rscale>  0 0.61946265E+03</rscale>
<asrwt>0</asrwt>
<pdfrwt beam="1">  1        2 0.12847174E+00 0.61946265E+03</pdfrwt>
<pdfrwt beam="2">  1       -2 0.17674045E-01 0.61946265E+03</pdfrwt>
<totfact> 0.97539692E+02</totfact>
</mgrwt>
<rwgt>
<wgt id='morphing_basis_vector_1'> +2.9785530e-04 </wgt>
<wgt id='morphing_basis_vector_2'> +1.7272694e-04 </wgt>
<wgt id='morphing_basis_vector_3'> +2.3929484e-04 </wgt>
<wgt id='morphing_basis_vector_4'> +1.0649549e-04 </wgt>
<wgt id='morphing_basis_vector_5'> +1.6303361e-04 </wgt>
</rwgt>
</event>
<event>
 4      1 +1.0153100e-05 5.31936800e+02 7.81860800e-03 9.33101100e-02
        2 -1    0    0  501    0 +0.0000000000e+00 +0.0000000000e+00 +1.6959444834e+03 1.6959444834e+03 0.0000000000e+00 0.0000e+00 1.0000e+00
       -2 -1    0    0    0  501 -0.0000000000e+00 -0.0000000000e+00 -4.1710798339e+01 4.1710798339e+01 0.0000000000e+00 0.0000e+00 -1.0000e+00
      -13  1    1    2    0    0 -2.4216046665e+02 -9.4527769784e+01 +6.4342705652e+02 6.9395645968e+02 0.0000000000e+00 0.0000e+00 -1.0000e+00
       13  1    1    2    0    0 +2.4216046665e+02 +9.4527769784e+01 +1.0108066285e+03 1.0436988220e+03 0.0000000000e+00 0.0000e+00 1.0000e+00
<mgrwt>
<rscale>  0 0.53193683E+03</rscale>
<asrwt>0</asrwt>
<pdfrwt beam="1">  1        2 0.26091448E+00 0.53193683E+03</pdfrwt>
<pdfrwt beam="2">  1       -2 0.64170472E-02 0.53193683E+03</pdfrwt>
<totfact> 0.15346008E+03</totfact>
</mgrwt>
<rwgt>
<wgt id='morphing_basis_vector_1'> +1.8515881e-04 </wgt>
<wgt id='morphing_basis_vector_2'> +1.0963488e-04 </wgt>
<wgt id='morphing_basis_vector_3'> +1.3519684e-04 </wgt>
<wgt id='morphing_basis_vector_4'> +4.9034062e-05 </wgt>
<wgt id='morphing_basis_vector_5'> +7.3082049e-05 </wgt>
</rwgt>
</event>
<event>
 4      1 +1.0153100e-05 5.31529200e+02 7.81860800e-03 9.33185600e-02
        2 -1    0    0  501    0 +0.0000000000e+00 +0.0000000000e+00 +4.9754109568e+02 4.9754109568e+02 0.0000000000e+00 0.0000e+00 -1.0000e+00
       -2 -1    0    0    0  501 -0.0000000000e+00 -0.0000000000e+00 -1.4195977682e+02 1.4195977682e+02 0.0000000000e+00 0.0000e+00 1.0000e+00
      -13  1    1    2    0    0 -1.5059234843e+02 -7.3119067386e+01 -7.0551971222e+01 1.8166461974e+02 0.0000000000e+00 0.0000e+00 1.0000e+00
       13  1    1    2    0    0 +1.5059234843e+02 +7.3119067386e+01 +4.2613329009e+02 4.5783625276e+02 0.0000000000e+00 0.0000e+00 -1.0000e+00
<mgrwt>
<rscale>  0 0.53152920E+03</rscale>
<asrwt>0</asrwt>
<pdfrwt beam="1">  1        2 0.76544783E-01 0.53152920E+03</pdfrwt>
<pdfrwt beam="2">  1       -2 0.21839966E-01 0.53152920E+03</pdfrwt>
<totfact> 0.12772678E+03</totfact>
</mgrwt>
<rwgt>
<wgt id='morphing_basis_vector_1'> +1.8210433e-04 </wgt>
<wgt id='morphing_basis_vector_2'> +1.0123615e-04 </wgt>
<wgt id='morphing_basis_vector_3'> +1.3550721e-04 </wgt>
<wgt id='morphing_basis_vector_4'> +5.0224747e-05 </wgt>
<wgt id='morphing_basis_vector_5'> +7.2695647e-05 </wgt>
</rwgt>
</event>
<event>
 4      1 +1.0153100e-05 6.04244800e+02 7.81860800e-03 9.19272800e-02
        2 -1    0    0  501    0 +0.0000000000e+00 +0.0000000000e+00 +1.0340259008e+03 1.0340259008e+03 0.0000000000e+00 0.0000e+00 1.0000e+00
       -2 -1    0    0    0  501 -0.0000000000e+00 -0.0000000000e+00 -8.8274318770e+01 8.8274318770e+01 0.0000000000e+00 0.0000e+00 -1.0000e+00
      -13  1    1    2    0    0 -1.7958509462e+02 +2.2887273053e+02 +6.2427514019e+02 6.8873288265e+02 0.0000000000e+00 0.0000e+00 -1.0000e+00
       13  1    1    2    0    0 +1.7958509462e+02 -2.2887273053e+02 +3.2147644187e+02 4.3356733695e+02 0.0000000000e+00 0.0000e+00 1.0000e+00
<mgrwt>
<rscale>  0 0.60424476E+03</rscale>
<asrwt>0</asrwt>
<pdfrwt beam="1">  1        2 0.15908090E+00 0.60424476E+03</pdfrwt>
<pdfrwt beam="2">  1       -2 0.13580665E-01 0.60424476E+03</pdfrwt>
<totfact> 0.11170558E+03</totfact>
</mgrwt>
<rwgt>
<wgt id='morphing_basis_vector_1'> +2.9732342e-04 </wgt>
<wgt id='morphing_basis_vector_2'> +2.2902816e-04 </wgt>
<wgt id='morphing_basis_vector_3'> +2.1863935e-04 </wgt>
<wgt id='morphing_basis_vector_4'> +7.6551954e-05 </wgt>
<wgt id='morphing_basis_vector_5'> +1.4379402e-04 </wgt>
</rwgt>
</event>
<event>
 4      1 +1.0153100e-05 5.94931000e+02 7.81860800e-03 9.20935600e-02
        2 -1    0    0  501    0 +0.0000000000e+00 +0.0000000000e+00 +6.4596093754e+02 6.4596093754e+02 0.0000000000e+00 0.0000e+00 -1.0000e+00
       -2 -1    0    0    0  501 -0.0000000000e+00 -0.0000000000e+00 -1.3698306564e+02 1.3698306564e+02 0.0000000000e+00 0.0000e+00 1.0000e+00
      -13  1    1    2    0    0 -1.6829736817e+02 +1.6196031347e+02 +1.2073837549e+01 2.3388228840e+02 0.0000000000e+00 0.0000e+00 1.0000e+00
       13  1    1    2    0    0 +1.6829736817e+02 -1.6196031347e+02 +4.9690403435e+02 5.4906171477e+02 0.0000000000e+00 0.0000e+00 -1.0000e+00
<mgrwt>
<rscale>  0 0.59493095E+03</rscale>
<asrwt>0</asrwt>
<pdfrwt beam="1">  1        2 0.99378603E-01 0.59493095E+03</pdfrwt>
<pdfrwt beam="2">  1       -2 0.21074318E-01 0.59493095E+03</pdfrwt>
<totfact> 0.10018252E+03</totfact>
</mgrwt>
<rwgt>
<wgt id='morphing_basis_vector_1'> +2.6069850e-04 </wgt>
<wgt id='morphing_basis_vector_2'> +1.4914612e-04 </wgt>
<wgt id='morphing_basis_vector_3'> +2.0547067e-04 </wgt>
<wgt id='morphing_basis_vector_4'> +8.7770469e-05 </wgt>
<wgt id='morphing_basis_vector_5'> +1.3270907e-04 </wgt>
</rwgt>
</event>
<event>
 4      1 +1.0153100e-05 5.38034500e+02 7.81860800e-03 9.31846900e-02
        2 -1    0    0  501    0 +0.0000000000e+00 +0.0000000000e+00 +6.5690230319e+02 6.5690230319e+02 0.0000000000e+00 0.0000e+00 -1.0000e+00
       -2 -1    0    0    0  501 -0.0000000000e+00 -0.0000000000e+00 -1.1016899881e+02 1.1016899881e+02 0.0000000000e+00 0.0000e+00 1.0000e+00
      -13  1    1    2    0    0 -1.5453453011e+02 +6.0513496453e+01 -2.8487903590e+01 1.6838754378e+02 0.0000000000e+00 0.0000e+00 1.0000e+00
       13  1    1    2    0    0 +1.5453453011e+02 -6.0513496453e+01 +5.7522120798e+02 5.9868375822e+02 0.0000000000e+00 0.0000e+00 -1.0000e+00
<mgrwt>
<rscale>  0 0.53803446E+03</rscale>
<asrwt>0</asrwt>
<pdfrwt beam="1">  1        2 0.10106189E+00 0.53803446E+03</pdfrwt>
<pdfrwt beam="2">  1       -2 0.16949077E-01 0.53803446E+03</pdfrwt>
<totfact> 0.14070609E+03</totfact>
</mgrwt>
<rwgt>
<wgt id='morphing_basis_vector_1'> +1.8909982e-04 </wgt>
<wgt id='morphing_basis_vector_2'> +1.0533469e-04 </wgt>
<wgt id='morphing_basis_vector_3'> +1.4164623e-04 </wgt>
<wgt id='morphing_basis_vector_4'> +5.3423492e-05 </wgt>
<wgt id='morphing_basis_vector_5'> +7.7753846e-05 </wgt>
</rwgt>
</event>
<event>
 4      1 +1.0153100e-05 5.26469000e+02 7.81860800e-03 9.34241200e-02
        2 -1    0    0  501    0 +0.0000000000e+00 +0.0000000000e+00 +1.7369132544e+02 1.7369132544e+02 0.0000000000e+00 0.0000e+00 1.0000e+00
       -2 -1    0    0    0  501 -0.0000000000e+00 -0.0000000000e+00 -3.9893989241e+02 3.9893989241e+02 0.0000000000e+00 0.0000e+00 -1.0000e+00
      -13  1    1    2    0    0 +2.5353824219e+02 -6.8332687374e+01 -1.3272147772e+02 2.9422098338e+02 0.0000000000e+00 0.0000e+00 -1.0000e+00
       13  1    1    2    0    0 -2.5353824219e+02 +6.8332687374e+01 -9.2527089247e+01 2.7841023447e+02 0.0000000000e+00 0.0000e+00 1.0000e+00
<mgrwt>
<rscale>  0 0.52646899E+03</rscale>
<asrwt>0</asrwt>
<pdfrwt beam="1">  1        2 0.26721743E-01 0.52646899E+03</pdfrwt>
<pdfrwt beam="2">  1       -2 0.61375367E-01 0.52646899E+03</pdfrwt>
<totfact> 0.63211720E+02</totfact>
</mgrwt>
<rwgt>
<wgt id='morphing_basis_vector_1'> +1.8125061e-04 </wgt>
<wgt id='morphing_basis_vector_2'> +1.1193206e-04 </wgt>
<wgt id='morphing_basis_vector_3'> +1.2960697e-04 </wgt>
<wgt id='morphing_basis_vector_4'> +4.5583772e-05 </wgt>
<wgt id='morphing_basis_vector_5'> +6.9057018e-05 </wgt>
</rwgt>
</event>
<event>
 4      1 +1.0153100e-05 5.49952700e+02 7.81860800e-03 9.29445900e-02
        2 -1    0    0  501    0 +0.0000000000e+00 +0.0000000000e+00 +9.3310359294e+01 9.3310359294e+01 0.0000000000e+00 0.0000e+00 -1.0000e+00
       -2 -1    0    0    0  501 -0.0000000000e+00 -0.0000000000e+00 -8.1032795100e+02 8.1032795100e+02 0.0000000000e+00 0.0000e+00 1.0000e+00
      -13  1    1    2    0    0 -1.7276828782e+02 +8.0114250666e+00 -7.0976362607e+02 7.3053231899e+02 0.0000000000e+00 0.0000e+00 1.0000e+00
       13  1    1    2    0    0 +1.7276828782e+02 -8.0114250666e+00 -7.2539656440e+00 1.7310599130e+02 0.0000000000e+00 0.0000e+00 -1.0000e+00
<mgrwt>
<rscale>  0 0.54995270E+03</rscale>
<asrwt>0</asrwt>
<pdfrwt beam="1">  1        2 0.14355439E-01 0.54995270E+03</pdfrwt>
<pdfrwt beam="2">  1       -2 0.12466584E+00 0.54995270E+03</pdfrwt>
<totfact> 0.25896072E+02</totfact>
</mgrwt>
<rwgt>
<wgt id='morphing_basis_vector_1'> +2.0252091e-04 </wgt>
<wgt id='morphing_basis_vector_2'> +1.1331016e-04 </wgt>
<wgt id='morphing_basis_vector_3'> +1.5347135e-04 </wgt>
<wgt id='morphing_basis_vector_4'> +5.9651953e-05 </wgt>
<wgt id='morphing_basis_vector_5'> +8.7635242e-05 </wgt>
</rwgt>
</event>
<event>
 4      1 +1.0153100e-05 5.33386600e+02 7.81860800e-03 9.32801300e-02
        2 -1    0    0  501    0 +0.0000000000e+00 +0.0000000000e+00 +2.0306906341e+03 2.0306906341e+03 0.0000000000e+00 0.0000e+00 -1.0000e+00
       -2 -1    0    0    0  501 -0.0000000000e+00 -0.0000000000e+00 -3.5025185557e+01 3.5025185557e+01 0.0000000000e+00 0.0000e+00 1.0000e+00
      -13  1    1    2    0    0 -1.5408402167e+02 +2.1304868463e+02 +1.1707574628e+03 1.1999186074e+03 0.0000000000e+00 0.0000e+00 1.0000e+00
       13  1    1    2    0    0 +1.5408402167e+02 -2.1304868463e+02 +8.2490798573e+02 8.6579721221e+02 0.0000000000e+00 0.0000e+00 -1.0000e+00
<mgrwt>
<rscale>  0 0.53338660E+03</rscale>
<asrwt>0</asrwt>
<pdfrwt beam="1">  1        2 0.31241385E+00 0.53338660E+03</pdfrwt>
<pdfrwt beam="2">  1       -2 0.53884917E-02 0.53338660E+03</pdfrwt>
<totfact> 0.13169333E+03</totfact>
</mgrwt>
<rwgt>
<wgt id='morphing_basis_vector_1'> +1.9506554e-04 </wgt>
<wgt id='morphing_basis_vector_2'> +1.3651686e-04 </wgt>
<wgt id='morphing_basis_vector_3'> +1.3442477e-04 </wgt>
<wgt id='morphing_basis_vector_4'> +4.5251763e-05 </wgt>
<wgt id='morphing_basis_vector_5'> +7.4429953e-05 </wgt>
</rwgt>
</event>
<event>
 4      1 +1.0153100e-05 5.93215300e+02 7.81860800e-03 9.21245400e-02
        2 -1    0    0  501    0 +0.0000000000e+00 +0.0000000000e+00 +2.4892976098e+02 2.4892976098e+02 0.0000000000e+00 0.0000e+00 -1.0000e+00
       -2 -1    0    0    0  501 -0.0000000000e+00 -0.0000000000e+00 -3.5341729694e+02 3.5341729694e+02 0.0000000000e+00 0.0000e+00 1.0000e+00
      -13  1    1    2    0    0 -1.9373536482e+02 +2.2437976552e+02 -4.2273630572e+01 2.9944403584e+02 0.0000000000e+00 0.0000e+00 1.0000e+00
       13  1    1    2    0    0 +1.9373536482e+02 -2.2437976552e+02 -6.2213905388e+01 3.0290302208e+02 0.0000000000e+00 0.0000e+00 -1.0000e+00
<mgrwt>
<rscale>  0 0.59321525E+03</rscale>
<asrwt>0</asrwt>
<pdfrwt beam="1">  1        2 0.38296886E-01 0.59321525E+03</pdfrwt>
<pdfrwt beam="2">  1       -2 0.54371892E-01 0.59321525E+03</pdfrwt>
<totfact> 0.53374932E+02</totfact>
</mgrwt>
<rwgt>
<wgt id='morphing_basis_vector_1'> +2.6760685e-04 </wgt>
<wgt id='morphing_basis_vector_2'> +1.7663078e-04 </wgt>
<wgt id='morphing_basis_vector_3'> +2.0319633e-04 </wgt>
<wgt id='morphing_basis_vector_4'> +7.9552276e-05 </wgt>
<wgt id='morphing_basis_vector_5'> +1.3081647e-04 </wgt>
</rwgt>
</event>
<event>
 4      1 +1.0153100e-05 5.43887700e+02 7.81860800e-03 9.30659500e-02
        2 -1    0    0  501    0 +0.0000000000e+00 +0.0000000000e+00 +5.5423541978e+02 5.5423541978e+02 0.0000000000e+00 0.0000e+00 -1.0000e+00
       -2 -1    0    0    0  501 -0.0000000000e+00 -0.0000000000e+00 -1.3343329679e+02 1.3343329679e+02 0.0000000000e+00 0.0000e+00 1.0000e+00
      -13  1    1    2    0    0 -1.9255431043e+02 +1.9191965256e+02 +2.1870585827e+02 3.4891627641e+02 0.0000000000e+00 0.0000e+00 1.0000e+00
       13  1    1    2    0    0 +1.9255431043e+02 -1.9191965256e+02 +2.0209626471e+02 3.3875244016e+02 0.0000000000e+00 0.0000e+00 -1.0000e+00
<mgrwt>
<rscale>  0 0.54388771E+03</rscale>
<asrwt>0</asrwt>
<pdfrwt beam="1">  1        2 0.85266986E-01 0.54388771E+03</pdfrwt>
<pdfrwt beam="2">  1       -2 0.20528200E-01 0.54388771E+03</pdfrwt>
<totfact> 0.12521761E+03</totfact>
</mgrwt>
<rwgt>
<wgt id='morphing_basis_vector_1'> +2.0264019e-04 </wgt>
<wgt id='morphing_basis_vector_2'> +1.3106674e-04 </wgt>
<wgt id='morphing_basis_vector_3'> +1.4588293e-04 </wgt>
<wgt id='morphing_basis_vector_4'> +5.2372846e-05 </wgt>
<wgt id='morphing_basis_vector_5'> +8.2680700e-05 </wgt>
</rwgt>
</event>
<event>
 4      1 +1.0153100e-05 5.36810100e+02 7.81860800e-03 9.32097300e-02
        2 -1    0    0  501    0 +0.0000000000e+00 +0.0000000000e+00 +2.4708366299e+02 2.4708366299e+02 0.0000000000e+00 0.0000e+00 1.0000e+00
       -2 -1    0    0    0  501 -0.0000000000e+00 -0.0000000000e+00 -2.9156631063e+02 2.9156631063e+02 0.0000000000e+00 0.0000e+00 -1.0000e+00
      -13  1    1    2    0    0 +2.5497547467e+02 -6.5563623168e+01 -7.4671636781e+01 2.7365477285e+02 0.0000000000e+00 0.0000e+00 -1.0000e+00
       13  1    1    2    0    0 -2.5497547467e+02 +6.5563623168e+01 +3.0188989139e+01 2.6499520077e+02 0.0000000000e+00 0.0000e+00 1.0000e+00
<mgrwt>
<rscale>  0 0.53681010E+03</rscale>
<asrwt>0</asrwt>
<pdfrwt beam="1">  1        2 0.38012871E-01 0.53681010E+03</pdfrwt>
<pdfrwt beam="2">  1       -2 0.44856355E-01 0.53681010E+03</pdfrwt>
<totfact> 0.78281702E+02</totfact>
</mgrwt>
<rwgt>
<wgt id='morphing_basis_vector_1'> +1.9067146e-04 </wgt>
<wgt id='morphing_basis_vector_2'> +1.1357572e-04 </wgt>
<wgt id='morphing_basis_vector_3'> +1.3977473e-04 </wgt>
<wgt id='morphing_basis_vector_4'> +5.1219462e-05 </wgt>
<wgt id='morphing_basis_vector_5'> +7.6863502e-05 </wgt>
</rwgt>
</event>
<event>
 4      1 +1.0153100e-05 5.69516200e+02 7.81860800e-03 9.25641900e-02
        2 -1    0    0  501    0 +0.0000000000e+00 +0.0000000000e+00 +3.8341620534e+02 3.8341620534e+02 0.0000000000e+00 0.0000e+00 -1.0000e+00
       -2 -1    0    0    0  501 -0.0000000000e+00 -0.0000000000e+00 -2.1148607388e+02 2.1148607388e+02 0.0000000000e+00 0.0000e+00 1.0000e+00
      -13  1    1    2    0    0 -2.4733054090e+02 +2.0331101211e+01 -5.9907235193e+01 2.5529321762e+02 0.0000000000e+00 0.0000e+00 1.0000e+00
       13  1    1    2    0    0 +2.4733054090e+02 -2.0331101211e+01 +2.3183736666e+02 3.3960906159e+02 0.0000000000e+00 0.0000e+00 -1.0000e+00
<mgrwt>
<rscale>  0 0.56951624E+03</rscale>
<asrwt>0</asrwt>
<pdfrwt beam="1">  1        2 0.58987108E-01 0.56951624E+03</pdfrwt>
<pdfrwt beam="2">  1       -2 0.32536319E-01 0.56951624E+03</pdfrwt>
<totfact> 0.86155589E+02</totfact>
</mgrwt>
<rwgt>
<wgt id='morphing_basis_vector_1'> +2.2705633e-04 </wgt>
<wgt id='morphing_basis_vector_2'> +1.3005166e-04 </wgt>
<wgt id='morphing_basis_vector_3'> +1.7452002e-04 </wgt>
<wgt id='morphing_basis_vector_4'> +7.0459244e-05 </wgt>
<wgt id='morphing_basis_vector_5'> +1.0567878e-04 </wgt>
</rwgt>
</event>
<event>
 4      1 +1.0153100e-05 5.96667600e+02 7.81860800e-03 9.20623100e-02
        2 -1    0    0  501    0 +0.0000000000e+00 +0.0000000000e+00 +8.8238692058e+02 8.8238692058e+02 0.0000000000e+00 0.0000e+00 1.0000e+00
       -2 -1    0    0    0  501 -0.0000000000e+00 -0.0000000000e+00 -1.0086623735e+02 1.0086623735e+02 0.0000000000e+00 0.0000e+00 -1.0000e+00
      -13  1    1    2    0    0 +2.8637507283e+01 +2.1588691867e+02 +5.4749634701e+01 2.2455465031e+02 0.0000000000e+00 0.0000e+00 -1.0000e+00
       13  1    1    2    0    0 -2.8637507283e+01 -2.1588691867e+02 +7.2677104853e+02 7.5869850762e+02 0.0000000000e+00 0.0000e+00 1.0000e+00
<mgrwt>
<rscale>  0 0.59666757E+03</rscale>
<asrwt>0</asrwt>
<pdfrwt beam="1">  1        2 0.13575183E+00 0.59666757E+03</pdfrwt>
<pdfrwt beam="2">  1       -2 0.15517883E-01 0.59666757E+03</pdfrwt>
<totfact> 0.11221827E+03</totfact>
</mgrwt>
<rwgt>
<wgt id='morphing_basis_vector_1'> +2.6298141e-04 </wgt>
<wgt id='morphing_basis_vector_2'> +1.5004934e-04 </wgt>
<wgt id='morphing_basis_vector_3'> +2.0772949e-04 </wgt>
<wgt id='morphing_basis_vector_4'> +8.9176905e-05 </wgt>
<wgt id='morphing_basis_vector_5'> +1.3471359e-04 </wgt>
</rwgt>
</event>
<event>
 4      1 +1.0153100e-05 5.72190200e+02 7.81860800e-03 9.25134600e-02
        2 -1    0    0  501    0 +0.0000000000e+00 +0.0000000000e+00 +3.5971668120e+02 3.5971668120e+02 0.0000000000e+00 0.0000e+00 1.0000e+00
       -2 -1    0    0    0  501 -0.0000000000e+00 -0.0000000000e+00 -2.2754135018e+02 2.2754135018e+02 0.0000000000e+00 0.0000e+00 -1.0000e+00
      -13  1    1    2    0    0 +1.7647540486e+02 -1.5907047211e+02 -9.7494044379e+01 2.5681135549e+02 0.0000000000e+00 0.0000e+00 -1.0000e+00
       13  1    1    2    0    0 -1.7647540486e+02 +1.5907047211e+02 +2.2966937540e+02 3.3044667590e+02 0.0000000000e+00 0.0000e+00 1.0000e+00
<mgrwt>
<rscale>  0 0.57219025E+03</rscale>
<asrwt>0</asrwt>
<pdfrwt beam="1">  1        2 0.55341028E-01 0.57219025E+03</pdfrwt>
<pdfrwt beam="2">  1       -2 0.35006362E-01 0.57219025E+03</pdfrwt>
<totfact> 0.81192088E+02</totfact>
</mgrwt>
<rwgt>
<wgt id='morphing_basis_vector_1'> +2.3017469e-04 </wgt>
<wgt id='morphing_basis_vector_2'> +1.3119623e-04 </wgt>
<wgt id='morphing_basis_vector_3'> +1.7761648e-04 </wgt>
<wgt id='morphing_basis_vector_4'> +7.2315426e-05 </wgt>
<wgt id='morphing_basis_vector_5'> +1.0832094e-04 </wgt>
</rwgt>
</event>
<event>
 4      1 +1.0153100e-05 5.34406000e+02 7.81860800e-03 9.32591100e-02
        2 -1    0    0  501    0 +0.0000000000e+00 +0.0000000000e+00 +3.4935247456e+02 3.4935247456e+02 0.0000000000e+00 0.0000e+00 -1.0000e+00
       -2 -1    0    0    0  501 -0.0000000000e+00 -0.0000000000e+00 -2.0437082105e+02 2.0437082105e+02 0.0000000000e+00 0.0000e+00 1.0000e+00
      -13  1    1    2    0    0 +1.4589374829e+02 -4.4138302026e+01 -1.5490577140e+02 2.1732228028e+02 0.0000000000e+00 0.0000e+00 1.0000e+00
       13  1    1    2    0    0 -1.4589374829e+02 +4.4138302026e+01 +2.9988742491e+02 3.3640101533e+02 0.0000000000e+00 0.0000e+00 -1.0000e+00
<mgrwt>
<rscale>  0 0.53440603E+03</rscale>
<asrwt>0</asrwt>
<pdfrwt beam="1">  1        2 0.53746535E-01 0.53440603E+03</pdfrwt>
<pdfrwt beam="2">  1       -2 0.31441665E-01 0.53440603E+03</pdfrwt>
<totfact> 0.10163224E+03</totfact>
</mgrwt>
<rwgt>
<wgt id='morphing_basis_vector_1'> +1.8513403e-04 </wgt>
<wgt id='morphing_basis_vector_2'> +1.0291605e-04 </wgt>
<wgt id='morphing_basis_vector_3'> +1.3820421e-04 </wgt>
<wgt id='morphing_basis_vector_4'> +5.1641332e-05 </wgt>
<wgt id='morphing_basis_vector_5'> +7.4902942e-05 </wgt>
</rwgt>
</event>
<event>
 4      1 +1.0153100e-05 5.53263500e+02 7.81860800e-03 9.28790400e-02
        2 -1    0    0  501    0 +0.0000000000e+00 +0.0000000000e+00 +3.6725321829e+02 3.6725321829e+02 0.0000000000e+00 0.0000e+00 1.0000e+00
       -2 -1    0    0    0  501 -0.0000000000e+00 -0.0000000000e+00 -2.0837154386e+02 2.0837154386e+02 0.0000000000e+00 0.0000e+00 -1.0000e+00
      -13  1    1    2    0    0 +7.6605262100e+01 -1.2269885964e+02 -1.6588973312e+02 2.2009720556e+02 0.0000000000e+00 0.0000e+00 -1.0000e+00
       13  1    1    2    0    0 -7.6605262100e+01 +1.2269885964e+02 +3.2477140755e+02 3.5552755660e+02 0.0000000000e+00 0.0000e+00 1.0000e+00
<mgrwt>
<rscale>  0 0.55326348E+03</rscale>
<asrwt>0</asrwt>
<pdfrwt beam="1">  1        2 0.56500495E-01 0.55326348E+03</pdfrwt>
<pdfrwt beam="2">  1       -2 0.32057161E-01 0.55326348E+03</pdfrwt>
<totfact> 0.92853389E+02</totfact>
</mgrwt>
<rwgt>
<wgt id='morphing_basis_vector_1'> +2.0631018e-04 </wgt>
<wgt id='morphing_basis_vector_2'> +1.1538318e-04 </wgt>
<wgt id='morphing_basis_vector_3'> +1.5690691e-04 </wgt>
<wgt id='morphing_basis_vector_4'> +6.1518145e-05 </wgt>
<wgt id='morphing_basis_vector_5'> +9.0523652e-05 </wgt>
</rwgt>
</event>
<event>
 4      1 +1.0153100e-05 5.32817200e+02 7.81860800e-03 9.32918900e-02
        2 -1    0    0  501    0 +0.0000000000e+00 +0.0000000000e+00 +1.3709792775e+02 1.3709792775e+02 0.0000000000e+00 0.0000e+00 1.0000e+00
       -2 -1    0    0    0  501 -0.0000000000e+00 -0.0000000000e+00 -5.1768507892e+02 5.1768507892e+02 0.0000000000e+00 0.0000e+00 -1.0000e+00
      -13  1    1    2    0    0 +4.5255728995e+01 +1.1697568054e+02 +9.8544513814e+01 1.5950677744e+02 0.0000000000e+00 0.0000e+00 1.0000e+00
       13  1    1    2    0    0 -4.5255728995e+01 -1.1697568054e+02 -4.7913166498e+02 4.9527622922e+02 0.0000000000e+00 0.0000e+00 -1.0000e+00
<mgrwt>
<rscale>  0 0.53281724E+03</rscale>
<asrwt>0</asrwt>
<pdfrwt beam="1">  1        2 0.21091989E-01 0.53281724E+03</pdfrwt>
<pdfrwt beam="2">  1       -2 0.79643858E-01 0.53281724E+03</pdfrwt>
<totfact> 0.47856122E+02</totfact>
</mgrwt>
<rwgt>
<wgt id='morphing_basis_vector_1'> +2.4683569e-04 </wgt>
<wgt id='morphing_basis_vector_2'> +2.9885700e-04 </wgt>
<wgt id='morphing_basis_vector_3'> +1.2031942e-04 </wgt>
<wgt id='morphing_basis_vector_4'> +1.7121642e-05 </wgt>
<wgt id='morphing_basis_vector_5'> +7.5500706e-05 </wgt>
</rwgt>
</event>
<event>
 4      1 +1.0153100e-05 5.52504600e+02 7.81860800e-03 9.28940200e-02
        2 -1    0    0  501    0 +0.0000000000e+00 +0.0000000000e+00 +4.8383179083e+01 4.8383179083e+01 0.0000000000e+00 0.0000e+00 1.0000e+00
       -2 -1    0    0    0  501 -0.0000000000e+00 -0.0000000000e+00 -1.5773110751e+03 1.5773110751e+03 0.0000000000e+00 0.0000e+00 -1.0000e+00
      -13  1    1    2    0    0 +1.8895087315e+02 -1.5651184178e+02 -1.1380100659e+03 1.1641586228e+03 0.0000000000e+00 0.0000e+00 -1.0000e+00
       13  1    1    2    0    0 -1.8895087315e+02 +1.5651184178e+02 -3.9091783012e+02 4.6153563133e+02 0.0000000000e+00 0.0000e+00 1.0000e+00
<mgrwt>
<rscale>  0 0.55250457E+03</rscale>
<asrwt>0</asrwt>
<pdfrwt beam="1">  1        2 0.74435654E-02 0.55250457E+03</pdfrwt>
<pdfrwt beam="2">  1       -2 0.24266326E+00 0.55250457E+03</pdfrwt>
<totfact> 0.75210909E+01</totfact>
</mgrwt>
<rwgt>
<wgt id='morphing_basis_vector_1'> +2.0640148e-04 </wgt>
<wgt id='morphing_basis_vector_2'> +1.1790201e-04 </wgt>
<wgt id='morphing_basis_vector_3'> +1.5594817e-04 </wgt>
<wgt id='morphing_basis_vector_4'> +6.0501205e-05 </wgt>
<wgt id='morphing_basis_vector_5'> +8.9876846e-05 </wgt>
</rwgt>
</event>
<event>
 4      1 +1.0153100e-05 5.54212100e+02 7.81860800e-03 9.28603500e-02
        2 -1    0    0  501    0 +0.0000000000e+00 +0.0000000000e+00 +7.6257674747e+02 7.6257674747e+02 0.0000000000e+00 0.0000e+00 -1.0000e+00
       -2 -1    0    0    0  501 -0.0000000000e+00 -0.0000000000e+00 -1.0069511837e+02 1.0069511837e+02 0.0000000000e+00 0.0000e+00 1.0000e+00
      -13  1    1    2    0    0 +2.3914973694e+02 +1.0603282711e+02 +4.7329558137e+02 5.4078116133e+02 0.0000000000e+00 0.0000e+00 1.0000e+00
       13  1    1    2    0    0 -2.3914973694e+02 -1.0603282711e+02 +1.8858604772e+02 3.2249070451e+02 0.0000000000e+00 0.0000e+00 -1.0000e+00
<mgrwt>
<rscale>  0 0.55421207E+03</rscale>
<asrwt>0</asrwt>
<pdfrwt beam="1">  1        2 0.11731950E+00 0.55421207E+03</pdfrwt>
<pdfrwt beam="2">  1       -2 0.15491557E-01 0.55421207E+03</pdfrwt>
<totfact> 0.13576724E+03</totfact>
</mgrwt>
<rwgt>
<wgt id='morphing_basis_vector_1'> +2.2892306e-04 </wgt>
<wgt id='morphing_basis_vector_2'> +1.8280300e-04 </wgt>
<wgt id='morphing_basis_vector_3'> +1.5435850e-04 </wgt>
<wgt id='morphing_basis_vector_4'> +4.8874645e-05 </wgt>
<wgt id='morphing_basis_vector_5'> +9.1817820e-05 </wgt>
</rwgt>
</event>
<event>
 4      1 +1.0153100e-05 5.80035700e+02 7.81860800e-03 9.23663000e-02
        2 -1    0    0  501    0 +0.0000000000e+00 +0.0000000000e+00 +9.3592173360e+02 9.3592173360e+02 0.0000000000e+00 0.0000e+00 -1.0000e+00
       -2 -1    0    0    0  501 -0.0000000000e+00 -0.0000000000e+00 -8.9868998659e+01 8.9868998659e+01 0.0000000000e+00 0.0000e+00 1.0000e+00
      -13  1    1    2    0    0 +1.9142692764e+01 -2.6972275825e+02 +2.3759942443e+02 3.5995874138e+02 0.0000000000e+00 0.0000e+00 1.0000e+00
       13  1    1    2    0    0 -1.9142692764e+01 +2.6972275825e+02 +6.0845331051e+02 6.6583199088e+02 0.0000000000e+00 0.0000e+00 -1.0000e+00
<mgrwt>
<rscale>  0 0.58003569E+03</rscale>
<asrwt>0</asrwt>
<pdfrwt beam="1">  1        2 0.14398795E+00 0.58003569E+03</pdfrwt>
<pdfrwt beam="2">  1       -2 0.13826000E-01 0.58003569E+03</pdfrwt>
<totfact> 0.12487753E+03</totfact>
</mgrwt>
<rwgt>
<wgt id='morphing_basis_vector_1'> +2.4164596e-04 </wgt>
<wgt id='morphing_basis_vector_2'> +1.4116919e-04 </wgt>
<wgt id='morphing_basis_vector_3'> +1.8679259e-04 </wgt>
<wgt id='morphing_basis_vector_4'> +7.6492680e-05 </wgt>
<wgt id='morphing_basis_vector_5'> +1.1636458e-04 </wgt>
</rwgt>
</event>
<event>
 4      1 +1.0153100e-05 5.35672200e+02 7.81860800e-03 9.32330700e-02
        2 -1    0    0  501    0 +0.0000000000e+00 +0.0000000000e+00 +1.0321205652e+03 1.0321205652e+03 0.0000000000e+00 0.0000e+00 -1.0000e+00
       -2 -1    0    0    0  501 -0.0000000000e+00 -0.0000000000e+00 -6.9503680424e+01 6.9503680424e+01 0.0000000000e+00 0.0000e+00 1.0000e+00
      -13  1    1    2    0    0 +1.0096520602e+02 +2.2732773618e+02 +2.7705582561e+02 3.7233291954e+02 0.0000000000e+00 0.0000e+00 1.0000e+00
       13  1    1    2    0    0 -1.0096520602e+02 -2.2732773618e+02 +6.8556105920e+02 7.2929132612e+02 0.0000000000e+00 0.0000e+00 -1.0000e+00
<mgrwt>
<rscale>  0 0.53567221E+03</rscale>
<asrwt>0</asrwt>
<pdfrwt beam="1">  1        2 0.15878777E+00 0.53567221E+03</pdfrwt>
<pdfrwt beam="2">  1       -2 0.10692875E-01 0.53567221E+03</pdfrwt>
<totfact> 0.16380698E+03</totfact>
</mgrwt>
<rwgt>
<wgt id='morphing_basis_vector_1'> +1.8785034e-04 </wgt>
<wgt id='morphing_basis_vector_2'> +1.0791776e-04 </wgt>
<wgt id='morphing_basis_vector_3'> +1.3906799e-04 </wgt>
<wgt id='morphing_basis_vector_4'> +5.1530128e-05 </wgt>
<wgt id='morphing_basis_vector_5'> +7.5926748e-05 </wgt>
</rwgt>
</event>
<event>
 4      1 +1.0153100e-05 5.91488600e+02 7.81860800e-03 9.21558400e-02
        2 -1    0    0  501    0 +0.0000000000e+00 +0.0000000000e+00 +1.7693394457e+03 1.7693394457e+03 0.0000000000e+00 0.0000e+00 1.0000e+00
       -2 -1    0    0    0  501 -0.0000000000e+00 -0.0000000000e+00 -4.9433525105e+01 4.9433525105e+01 0.0000000000e+00 0.0000e+00 -1.0000e+00
      -13  1    1    2    0    0 -6.8935186311e+01 +2.5971675510e+02 +4.8010743263e+02 5.5018905811e+02 0.0000000000e+00 0.0000e+00 -1.0000e+00
       13  1    1    2    0    0 +6.8935186311e+01 -2.5971675510e+02 +1.2397984880e+03 1.2685839127e+03 0.0000000000e+00 0.0000e+00 1.0000e+00
<mgrwt>
<rscale>  0 0.59148858E+03</rscale>
<asrwt>0</asrwt>
<pdfrwt beam="1">  1        2 0.27220602E+00 0.59148858E+03</pdfrwt>
<pdfrwt beam="2">  1       -2 0.76051591E-02 0.59148858E+03</pdfrwt>
<totfact> 0.10754749E+03</totfact>
</mgrwt>
<rwgt>
<wgt id='morphing_basis_vector_1'> +2.5690400e-04 </wgt>
<wgt id='morphing_basis_vector_2'> +1.4948630e-04 </wgt>
<wgt id='morphing_basis_vector_3'> +2.0103427e-04 </wgt>
<wgt id='morphing_basis_vector_4'> +8.4526264e-05 </wgt>
<wgt id='morphing_basis_vector_5'> +1.2880315e-04 </wgt>
</rwgt>
</event>
<event>
 4      1 +1.0153100e-05 5.67598500e+02 7.81860800e-03 9.26007600e-02
        2 -1    0    0  501    0 +0.0000000000e+00 +0.0000000000e+00 +7.4515129389e+02 7.4515129389e+02 0.0000000000e+00 0.0000e+00 1.0000e+00
       -2 -1    0    0    0  501 -0.0000000000e+00 -0.0000000000e+00 -1.0808815023e+02 1.0808815023e+02 0.0000000000e+00 0.0000e+00 -1.0000e+00
      -13  1    1    2    0    0 +1.8307758526e+02 -1.9808182738e+02 +4.5119418591e+02 5.2567100544e+02 0.0000000000e+00 0.0000e+00 -1.0000e+00
       13  1    1    2    0    0 -1.8307758526e+02 +1.9808182738e+02 +1.8586895775e+02 3.2756843868e+02 0.0000000000e+00 0.0000e+00 1.0000e+00
<mgrwt>
<rscale>  0 0.56759854E+03</rscale>
<asrwt>0</asrwt>
<pdfrwt beam="1">  1        2 0.11463866E+00 0.56759854E+03</pdfrwt>
<pdfrwt beam="2">  1       -2 0.16628947E-01 0.56759854E+03</pdfrwt>
<totfact> 0.12455259E+03</totfact>
</mgrwt>
<rwgt>
<wgt id='morphing_basis_vector_1'> +2.4561236e-04 </wgt>
<wgt id='morphing_basis_vector_2'> +1.9371843e-04 </wgt>
<wgt id='morphing_basis_vector_3'> +1.7006765e-04 </wgt>
<wgt id='morphing_basis_vector_4'> +5.5422195e-05 </wgt>
<wgt id='morphing_basis_vector_5'> +1.0415178e-04 </wgt>
</rwgt>
</event>
<event>
 4      1 +1.0153100e-05 5.56679300e+02 7.81860800e-03 9.28119200e-02
        2 -1    0    0  501    0 +0.0000000000e+00 +0.0000000000e+00 +4.6629361306e+01 4.6629361306e+01 0.0000000000e+00 0.0000e+00 -1.0000e+00
       -2 -1    0    0    0  501 -0.0000000000e+00 -0.0000000000e+00 -1.6614627742e+03 1.6614627742e+03 0.0000000000e+00 0.0000e+00 1.0000e+00
      -13  1    1    2    0    0 +2.5129433053e+02 -9.3062540077e+00 -1.1735364431e+03 1.2001763330e+03 0.0000000000e+00 0.0000e+00 1.0000e+00
       13  1    1    2    0    0 -2.5129433053e+02 +9.3062540077e+00 -4.4129696974e+02 5.0791580250e+02 0.0000000000e+00 0.0000e+00 -1.0000e+00
<mgrwt>
<rscale>  0 0.55667925E+03</rscale>
<asrwt>0</asrwt>
<pdfrwt beam="1">  1        2 0.71737468E-02 0.55667925E+03</pdfrwt>
<pdfrwt beam="2">  1       -2 0.25560970E+00 0.55667925E+03</pdfrwt>
<totfact> 0.64368272E+01</totfact>
</mgrwt>
<rwgt>
<wgt id='morphing_basis_vector_1'> +2.1153322e-04 </wgt>
<wgt id='morphing_basis_vector_2'> +1.2144678e-04 </wgt>
<wgt id='morphing_basis_vector_3'> +1.6032074e-04 </wgt>
<wgt id='morphing_basis_vector_4'> +6.2710053e-05 </wgt>
<wgt id='morphing_basis_vector_5'> +9.3596916e-05 </wgt>
</rwgt>
</event>
<event>
 4      1 +1.0153100e-05 5.88267900e+02 7.81860800e-03 9.22145100e-02
        2 -1    0    0  501    0 +0.0000000000e+00 +0.0000000000e+00 +3.9377076635e+02 3.9377076635e+02 0.0000000000e+00 0.0000e+00 -1.0000e+00
       -2 -1    0    0    0  501 -0.0000000000e+00 -0.0000000000e+00 -2.1970847257e+02 2.1970847257e+02 0.0000000000e+00 0.0000e+00 1.0000e+00
      -13  1    1    2    0    0 -1.7578879824e+02 +2.3149261656e+02 +4.0111385757e+01 2.9342708868e+02 0.0000000000e+00 0.0000e+00 1.0000e+00
       13  1    1    2    0    0 +1.7578879824e+02 -2.3149261656e+02 +1.3395090803e+02 3.2005215023e+02 0.0000000000e+00 0.0000e+00 -1.0000e+00
<mgrwt>
<rscale>  0 0.58826788E+03</rscale>
<asrwt>0</asrwt>
<pdfrwt beam="1">  1        2 0.60580118E-01 0.58826788E+03</pdfrwt>
<pdfrwt beam="2">  1       -2 0.33801303E-01 0.58826788E+03</pdfrwt>
<totfact> 0.78092251E+02</totfact>
</mgrwt>
<rwgt>
<wgt id='morphing_basis_vector_1'> +2.5565360e-04 </wgt>
<wgt id='morphing_basis_vector_2'> +1.5677716e-04 </wgt>
<wgt id='morphing_basis_vector_3'> +1.9686931e-04 </wgt>
<wgt id='morphing_basis_vector_4'> +7.9924035e-05 </wgt>
<wgt id='morphing_basis_vector_5'> +1.2524448e-04 </wgt>
</rwgt>
</event>
<event>
 4      1 +1.0153100e-05 5.31487900e+02 7.81860800e-03 9.33194200e-02
        2 -1    0    0  501    0 +0.0000000000e+00 +0.0000000000e+00 +2.7118992884e+02 2.7118992884e+02 0.0000000000e+00 0.0000e+00 1.0000e+00
       -2 -1    0    0    0  501 -0.0000000000e+00 -0.0000000000e+00 -2.6040731597e+02 2.6040731597e+02 0.0000000000e+00 0.0000e+00 -1.0000e+00
      -13  1    1    2    0    0 -1.1492466962e+02 -1.4450958885e+02 -1.8577400275e+02 2.6192113518e+02 0.0000000000e+00 0.0000e+00 -1.0000e+00
       13  1    1    2    0    0 +1.1492466962e+02 +1.4450958885e+02 +1.9655661562e+02 2.6967610963e+02 0.0000000000e+00 0.0000e+00 1.0000e+00
<mgrwt>
<rscale>  0 0.53148788E+03</rscale>
<asrwt>0</asrwt>
<pdfrwt beam="1">  1        2 0.41721528E-01 0.53148788E+03</pdfrwt>
<pdfrwt beam="2">  1       -2 0.40062664E-01 0.53148788E+03</pdfrwt>
<totfact> 0.87085019E+02</totfact>
</mgrwt>
<rwgt>
<wgt id='morphing_basis_vector_1'> +1.8213304e-04 </wgt>
<wgt id='morphing_basis_vector_2'> +1.0143563e-04 </wgt>
<wgt id='morphing_basis_vector_3'> +1.3544975e-04 </wgt>
<wgt id='morphing_basis_vector_4'> +5.0166702e-05 </wgt>
<wgt id='morphing_basis_vector_5'> +7.2666371e-05 </wgt>
</rwgt>
</event>
<event>
 4      1 +1.0153100e-05 5.82807400e+02 7.81860800e-03 9.23148900e-02
        2 -1    0    0  501    0 +0.0000000000e+00 +0.0000000000e+00 +7.8785484116e+02 7.8785484116e+02 0.0000000000e+00 0.0000e+00 -1.0000e+00
       -2 -1    0    0    0  501 -0.0000000000e+00 -0.0000000000e+00 -1.0778141304e+02 1.0778141304e+02 0.0000000000e+00 0.0000e+00 1.0000e+00
      -13  1    1    2    0    0 -1.4031945590e+02 +1.6374419220e+02 +3.8837632074e+01 2.1911200754e+02 0.0000000000e+00 0.0000e+00 1.0000e+00
       13  1    1    2    0    0 +1.4031945590e+02 -1.6374419220e+02 +6.4123579605e+02 6.7652424666e+02 0.0000000000e+00 0.0000e+00 -1.0000e+00
<mgrwt>
<rscale>  0 0.58280737E+03</rscale>
<asrwt>0</asrwt>
<pdfrwt beam="1">  1        2 0.12120843E+00 0.58280737E+03</pdfrwt>
<pdfrwt beam="2">  1       -2 0.16581756E-01 0.58280737E+03</pdfrwt>
<totfact> 0.11669669E+03</totfact>
</mgrwt>
<rwgt>
<wgt id='morphing_basis_vector_1'> +2.4376847e-04 </wgt>
<wgt id='morphing_basis_vector_2'> +1.3848883e-04 </wgt>
<wgt id='morphing_basis_vector_3'> +1.9023763e-04 </wgt>
<wgt id='morphing_basis_vector_4'> +7.9452371e-05 </wgt>
<wgt id='morphing_basis_vector_5'> +1.1927806e-04 </wgt>
</rwgt>
</event>
<event>
 4      1 +1.0153100e-05 6.06145800e+02 7.81860800e-03 9.18937300e-02
        2 -1    0    0  501    0 +0.0000000000e+00 +0.0000000000e+00 +4.4586444068e+02 4.4586444068e+02 0.0000000000e+00 0.0000e+00 -1.0000e+00
       -2 -1    0    0    0  501 -0.0000000000e+00 -0.0000000000e+00 -2.0601143765e+02 2.0601143765e+02 0.0000000000e+00 0.0000e+00 1.0000e+00
      -13  1    1    2    0    0 +2.3893954478e+02 +1.9921672947e+01 -7.9434827255e+01 2.5258438371e+02 0.0000000000e+00 0.0000e+00 1.0000e+00
       13  1    1    2    0    0 -2.3893954478e+02 -1.9921672947e+01 +3.1928783028e+02 3.9929149462e+02 0.0000000000e+00 0.0000e+00 -1.0000e+00
<mgrwt>
<rscale>  0 0.60614577E+03</rscale>
<asrwt>0</asrwt>
<pdfrwt beam="1">  1        2 0.68594529E-01 0.60614577E+03</pdfrwt>
<pdfrwt beam="2">  1       -2 0.31694067E-01 0.60614577E+03</pdfrwt>
<totfact> 0.76145088E+02</totfact>
</mgrwt>
<rwgt>
<wgt id='morphing_basis_vector_1'> +2.7706540e-04 </wgt>
<wgt id='morphing_basis_vector_2'> +1.5919128e-04 </wgt>
<wgt id='morphing_basis_vector_3'> +2.2041675e-04 </wgt>
<wgt id='morphing_basis_vector_4'> +9.6107409e-05 </wgt>
<wgt id='morphing_basis_vector_5'> +1.4603439e-04 </wgt>
</rwgt>
</event>
<event>
 4      1 +1.0153100e-05 5.29935800e+02 7.81860800e-03 9.33516600e-02
        2 -1    0    0  501    0 +0.0000000000e+00 +0.0000000000e+00 +8.2990590042e+02 8.2990590042e+02 0.0000000000e+00 0.0000e+00 -1.0000e+00
       -2 -1    0    0    0  501 -0.0000000000e+00 -0.0000000000e+00 -8.4597543269e+01 8.4597543269e+01 0.0000000000e+00 0.0000e+00 1.0000e+00
      -13  1    1    2    0    0 +1.7220045295e+02 -4.3434868919e+01 +3.3310126368e+01 1.8069075337e+02 0.0000000000e+00 0.0000e+00 1.0000e+00
       13  1    1    2    0    0 -1.7220045295e+02 +4.3434868919e+01 +7.1199823079e+02 7.3381269032e+02 0.0000000000e+00 0.0000e+00 -1.0000e+00
<mgrwt>
<rscale>  0 0.52993585E+03</rscale>
<asrwt>0</asrwt>
<pdfrwt beam="1">  1        2 0.12767782E+00 0.52993585E+03</pdfrwt>
<pdfrwt beam="2">  1       -2 0.13015007E-01 0.52993585E+03</pdfrwt>
<totfact> 0.16131147E+03</totfact>
</mgrwt>
<rwgt>
<wgt id='morphing_basis_vector_1'> +1.8046153e-04 </wgt>
<wgt id='morphing_basis_vector_2'> +1.0037055e-04 </wgt>
<wgt id='morphing_basis_vector_3'> +1.3402678e-04 </wgt>
<wgt id='morphing_basis_vector_4'> +4.9443745e-05 </wgt>
<wgt id='morphing_basis_vector_5'> +7.1492930e-05 </wgt>
</rwgt>
</event>
<event>
 4      1 +1.0153100e-05 5.32169900e+02 7.81860800e-03 9.33052900e-02
        2 -1    0    0  501    0 +0.0000000000e+00 +0.0000000000e+00 +7.1758857422e+02 7.1758857422e+02 0.0000000000e+00 0.0000e+00 -1.0000e+00
       -2 -1    0    0    0  501 -0.0000000000e+00 -0.0000000000e+00 -9.8665446585e+01 9.8665446585e+01 0.0000000000e+00 0.0000e+00 1.0000e+00
      -13  1    1    2    0    0 -1.0074205206e+02 +2.0486175205e+02 +9.9804843103e+01 2.4915518300e+02 0.0000000000e+00 0.0000e+00 1.0000e+00
       13  1    1    2    0    0 +1.0074205206e+02 -2.0486175205e+02 +5.1911828453e+02 5.6709883781e+02 0.0000000000e+00 0.0000e+00 -1.0000e+00
<mgrwt>
<rscale>  0 0.53216989E+03</rscale>
<asrwt>0</asrwt>
<pdfrwt beam="1">  1        2 0.11039824E+00 0.53216989E+03</pdfrwt>
<pdfrwt beam="2">  1       -2 0.15179300E-01 0.53216989E+03</pdfrwt>
<totfact> 0.15122944E+03</totfact>
</mgrwt>
<rwgt>
<wgt id='morphing_basis_vector_1'> +1.8336563e-04 </wgt>
<wgt id='morphing_basis_vector_2'> +1.0344128e-04 </wgt>
<wgt id='morphing_basis_vector_3'> +1.3594987e-04 </wgt>
<wgt id='morphing_basis_vector_4'> +5.0225045e-05 </wgt>
<wgt id='morphing_basis_vector_5'> +7.3200435e-05 </wgt>
</rwgt>
</event>
<event>
 4      1 +1.0153100e-05 5.20221400e+02 7.81860800e-03 9.35562100e-02
        2 -1    0    0  501    0 +0.0000000000e+00 +0.0000000000e+00 +1.0806884997e+03 1.0806884997e+03 0.0000000000e+00 0.0000e+00 1.0000e+00
       -2 -1    0    0    0  501 -0.0000000000e+00 -0.0000000000e+00 -6.2605994337e+01 6.2605994337e+01 0.0000000000e+00 0.0000e+00 -1.0000e+00
      -13  1    1    2    0    0 +6.3047516159e+01 +1.7228654209e+02 +9.1427811477e+02 9.3250314371e+02 0.0000000000e+00 0.0000e+00 1.0000e+00
       13  1    1    2    0    0 -6.3047516159e+01 -1.7228654209e+02 +1.0380439064e+02 2.1079135038e+02 0.0000000000e+00 0.0000e+00 -1.0000e+00
<mgrwt>
<rscale>  0 0.52022141E+03</rscale>
<asrwt>0</asrwt>
<pdfrwt beam="1">  1        2 0.16625976E+00 0.52022141E+03</pdfrwt>
<pdfrwt beam="2">  1       -2 0.96316922E-02 0.52022141E+03</pdfrwt>
<totfact> 0.18049887E+03</totfact>
</mgrwt>
<rwgt>
<wgt id='morphing_basis_vector_1'> +2.1795498e-04 </wgt>
<wgt id='morphing_basis_vector_2'> +2.4197909e-04 </wgt>
<wgt id='morphing_basis_vector_3'> +1.1032802e-04 </wgt>
<wgt id='morphing_basis_vector_4'> +2.2077395e-05 </wgt>
<wgt id='morphing_basis_vector_5'> +6.6020646e-05 </wgt>
</rwgt>
</event>
<event>
 4      1 +1.0153100e-05 5.79889000e+02 7.81860800e-03 9.23690200e-02
        2 -1    0    0  501    0 +0.0000000000e+00 +0.0000000000e+00 +6.9863701932e+02 6.9863701932e+02 0.0000000000e+00 0.0000e+00 1.0000e+00
       -2 -1    0    0    0  501 -0.0000000000e+00 -0.0000000000e+00 -1.2033116899e+02 1.2033116899e+02 0.0000000000e+00 0.0000e+00 -1.0000e+00
      -13  1    1    2    0    0 +7.9673825749e+01 -1.4766104654e+02 +6.2310998727e+02 6.4530439283e+02 0.0000000000e+00 0.0000e+00 1.0000e+00
       13  1    1    2    0    0 -7.9673825749e+01 +1.4766104654e+02 -4.4804136941e+01 1.7366379548e+02 0.0000000000e+00 0.0000e+00 -1.0000e+00
<mgrwt>
<rscale>  0 0.57988899E+03</rscale>
<asrwt>0</asrwt>
<pdfrwt beam="1">  1        2 0.10748262E+00 0.57988899E+03</pdfrwt>
<pdfrwt beam="2">  1       -2 0.18512488E-01 0.57988899E+03</pdfrwt>
<totfact> 0.11307342E+03</totfact>
</mgrwt>
<rwgt>
<wgt id='morphing_basis_vector_1'> +3.1806552e-04 </wgt>
<wgt id='morphing_basis_vector_2'> +3.7880494e-04 </wgt>
<wgt id='morphing_basis_vector_3'> +1.8211876e-04 </wgt>
<wgt id='morphing_basis_vector_4'> +2.2486007e-05 </wgt>
<wgt id='morphing_basis_vector_5'> +1.1713116e-04 </wgt>
</rwgt>
</event>
<event>
 4      1 +1.0153100e-05 6.17539600e+02 7.81860800e-03 9.16953300e-02
        2 -1    0    0  501    0 +0.0000000000e+00 +0.0000000000e+00 +2.7974314409e+02 2.7974314409e+02 0.0000000000e+00 0.0000e+00 -1.0000e+00
       -2 -1    0    0    0  501 -0.0000000000e+00 -0.0000000000e+00 -3.4080834471e+02 3.4080834471e+02 0.0000000000e+00 0.0000e+00 1.0000e+00
      -13  1    1    2    0    0 +9.6780048759e+01 -7.5191332182e+01 -3.1532033520e+02 3.3830020406e+02 0.0000000000e+00 0.0000e+00 1.0000e+00
       13  1    1    2    0    0 -9.6780048759e+01 +7.5191332182e+01 +2.5425513459e+02 2.8225128474e+02 0.0000000000e+00 0.0000e+00 -1.0000e+00
<mgrwt>
<rscale>  0 0.61753963E+03</rscale>
<asrwt>0</asrwt>
<pdfrwt beam="1">  1        2 0.43037407E-01 0.61753963E+03</pdfrwt>
<pdfrwt beam="2">  1       -2 0.52432053E-01 0.61753963E+03</pdfrwt>
<totfact> 0.50240280E+02</totfact>
</mgrwt>
<rwgt>
<wgt id='morphing_basis_vector_1'> +2.9388214e-04 </wgt>
<wgt id='morphing_basis_vector_2'> +1.6794199e-04 </wgt>
<wgt id='morphing_basis_vector_3'> +2.3641571e-04 </wgt>
<wgt id='morphing_basis_vector_4'> +1.0568800e-04 </wgt>
<wgt id='morphing_basis_vector_5'> +1.6049890e-04 </wgt>
</rwgt>
</event>
<event>
 4      1 +1.0153100e-05 5.35885500e+02 7.81860800e-03 9.32286900e-02
        2 -1    0    0  501    0 +0.0000000000e+00 +0.0000000000e+00 +3.4785942564e+02 3.4785942564e+02 0.0000000000e+00 0.0000e+00 -1.0000e+00
       -2 -1    0    0    0  501 -0.0000000000e+00 -0.0000000000e+00 -2.0638601183e+02 2.0638601183e+02 0.0000000000e+00 0.0000e+00 1.0000e+00
      -13  1    1    2    0    0 +6.1332021815e+01 +2.5864804508e+02 +3.5925085186e+01 2.6823690997e+02 0.0000000000e+00 0.0000e+00 1.0000e+00
       13  1    1    2    0    0 -6.1332021815e+01 -2.5864804508e+02 +1.0554832863e+02 2.8600852750e+02 0.0000000000e+00 0.0000e+00 -1.0000e+00
<mgrwt>
<rscale>  0 0.53588551E+03</rscale>
<asrwt>0</asrwt>
<pdfrwt beam="1">  1        2 0.53516835E-01 0.53588551E+03</pdfrwt>
<pdfrwt beam="2">  1       -2 0.31751694E-01 0.53588551E+03</pdfrwt>
<totfact> 0.10036347E+03</totfact>
</mgrwt>
<rwgt>
<wgt id='morphing_basis_vector_1'> +1.9057456e-04 </wgt>
<wgt id='morphing_basis_vector_2'> +1.1579893e-04 </wgt>
<wgt id='morphing_basis_vector_3'> +1.3866113e-04 </wgt>
<wgt id='morphing_basis_vector_4'> +5.0277856e-05 </wgt>
<wgt id='morphing_basis_vector_5'> +7.6162646e-05 </wgt>
</rwgt>
</event>
<event>
 4      1 +1.0153100e-05 5.37525300e+02 7.81860800e-03 9.31951000e-02
        2 -1    0    0  501    0 +0.0000000000e+00 +0.0000000000e+00 +5.7181498767e+02 5.7181498767e+02 0.0000000000e+00 0.0000e+00 -1.0000e+00
       -2 -1    0    0    0  501 -0.0000000000e+00 -0.0000000000e+00 -1.2632294357e+02 1.2632294357e+02 0.0000000000e+00 0.0000e+00 1.0000e+00
      -13  1    1    2    0    0 -1.5368569594e+02 +1.2202289495e+02 -1.5768559886e+01 1.9686931581e+02 0.0000000000e+00 0.0000e+00 1.0000e+00
       13  1    1    2    0    0 +1.5368569594e+02 -1.2202289495e+02 +4.6126060398e+02 5.0126861543e+02 0.0000000000e+00 0.0000e+00 -1.0000e+00
<mgrwt>
<rscale>  0 0.53752526E+03</rscale>
<asrwt>0</asrwt>
<pdfrwt beam="1">  1        2 0.87971535E-01 0.53752526E+03</pdfrwt>
<pdfrwt beam="2">  1       -2 0.19434299E-01 0.53752526E+03</pdfrwt>
<totfact> 0.13227420E+03</totfact>
</mgrwt>
<rwgt>
<wgt id='morphing_basis_vector_1'> +1.8869017e-04 </wgt>
<wgt id='morphing_basis_vector_2'> +1.0546163e-04 </wgt>
<wgt id='morphing_basis_vector_3'> +1.4112310e-04 </wgt>
<wgt id='morphing_basis_vector_4'> +5.3087595e-05 </wgt>
<wgt id='morphing_basis_vector_5'> +7.7353480e-05 </wgt>
</rwgt>
</event>
<event>
 4      1 +1.0153100e-05 6.11963200e+02 7.81860800e-03 9.17918600e-02
        2 -1    0    0  501    0 +0.0000000000e+00 +0.0000000000e+00 +4.6054533379e+02 4.6054533379e+02 0.0000000000e+00 0.0000e+00 -1.0000e+00
       -2 -1    0    0    0  501 -0.0000000000e+00 -0.0000000000e+00 -2.0329104969e+02 2.0329104969e+02 0.0000000000e+00 0.0000e+00 1.0000e+00
      -13  1    1    2    0    0 -3.0324976511e+02 +4.0524757468e+01 +1.3372303698e+02 3.3389298679e+02 0.0000000000e+00 0.0000e+00 1.0000e+00
       13  1    1    2    0    0 +3.0324976511e+02 -4.0524757468e+01 +1.2353124712e+02 3.2994339669e+02 0.0000000000e+00 0.0000e+00 -1.0000e+00
<mgrwt>
<rscale>  0 0.61196322E+03</rscale>
<asrwt>0</asrwt>
<pdfrwt beam="1">  1        2 0.70853128E-01 0.61196322E+03</pdfrwt>
<pdfrwt beam="2">  1       -2 0.31275546E-01 0.61196322E+03</pdfrwt>
<totfact> 0.75156235E+02</totfact>
</mgrwt>
<rwgt>
<wgt id='morphing_basis_vector_1'> +2.9553412e-04 </wgt>
<wgt id='morphing_basis_vector_2'> +1.9454466e-04 </wgt>
<wgt id='morphing_basis_vector_3'> +2.2911794e-04 </wgt>
<wgt id='morphing_basis_vector_4'> +9.2843550e-05 </wgt>
<wgt id='morphing_basis_vector_5'> +1.5330865e-04 </wgt>
</rwgt>
</event>
<event>
 4      1 +1.0153100e-05 5.79122500e+02 7.81860800e-03 9.23833000e-02
        2 -1    0    0  501    0 +0.0000000000e+00 +0.0000000000e+00 +1.1034529999e+03 1.1034529999e+03 0.0000000000e+00 0.0000e+00 -1.0000e+00
       -2 -1    0    0    0  501 -0.0000000000e+00 -0.0000000000e+00 -7.5984845991e+01 7.5984845991e+01 0.0000000000e+00 0.0000e+00 1.0000e+00
      -13  1    1    2    0    0 +1.8222011813e+02 +9.2079810672e+01 +9.5547975261e+01 2.2541579040e+02 0.0000000000e+00 0.0000e+00 1.0000e+00
       13  1    1    2    0    0 -1.8222011813e+02 -9.2079810672e+01 +9.3192017861e+02 9.5402205545e+02 0.0000000000e+00 0.0000e+00 -1.0000e+00
<mgrwt>
<rscale>  0 0.57912246E+03</rscale>
<asrwt>0</asrwt>
<pdfrwt beam="1">  1        2 0.16976199E+00 0.57912246E+03</pdfrwt>
<pdfrwt beam="2">  1       -2 0.11689977E-01 0.57912246E+03</pdfrwt>
<totfact> 0.12897512E+03</totfact>
</mgrwt>
<rwgt>
<wgt id='morphing_basis_vector_1'> +2.3876685e-04 </wgt>
<wgt id='morphing_basis_vector_2'> +1.3526328e-04 </wgt>
<wgt id='morphing_basis_vector_3'> +1.8579544e-04 </wgt>
<wgt id='morphing_basis_vector_4'> +7.7066165e-05 </wgt>
<wgt id='morphing_basis_vector_5'> +1.1538944e-04 </wgt>
</rwgt>
</event>
<event>
 4      1 +1.0153100e-05 5.60214400e+02 7.81860800e-03 9.27430000e-02
        2 -1    0    0  501    0 +0.0000000000e+00 +0.0000000000e+00 +6.0537906134e+02 6.0537906134e+02 0.0000000000e+00 0.0000e+00 -1.0000e+00
       -2 -1    0    0    0  501 -0.0000000000e+00 -0.0000000000e+00 -1.2960484026e+02 1.2960484026e+02 0.0000000000e+00 0.0000e+00 1.0000e+00
      -13  1    1    2    0    0 -1.9441987234e+02 -1.6397853436e+02 +8.3922046066e+01 2.6782635477e+02 0.0000000000e+00 0.0000e+00 1.0000e+00
       13  1    1    2    0    0 +1.9441987234e+02 +1.6397853436e+02 +3.9185217501e+02 4.6715754682e+02 0.0000000000e+00 0.0000e+00 -1.0000e+00
<mgrwt>
<rscale>  0 0.56021445E+03</rscale>
<asrwt>0</asrwt>
<pdfrwt beam="1">  1        2 0.93135239E-01 0.56021445E+03</pdfrwt>
<pdfrwt beam="2">  1       -2 0.19939206E-01 0.56021445E+03</pdfrwt>
<totfact> 0.11862797E+03</totfact>
</mgrwt>
<rwgt>
<wgt id='morphing_basis_vector_1'> +2.1587191e-04 </wgt>
<wgt id='morphing_basis_vector_2'> +1.2424182e-04 </wgt>
<wgt id='morphing_basis_vector_3'> +1.6411737e-04 </wgt>
<wgt id='morphing_basis_vector_4'> +6.4679315e-05 </wgt>
<wgt id='morphing_basis_vector_5'> +9.6826496e-05 </wgt>
</rwgt>
</event>
<event>
 4      1 +1.0153100e-05 6.12973000e+02 7.81860800e-03 9.17743000e-02
        2 -1    0    0  501    0 +0.0000000000e+00 +0.0000000000e+00 +2.8425492664e+02 2.8425492664e+02 0.0000000000e+00 0.0000e+00 -1.0000e+00
       -2 -1    0    0    0  501 -0.0000000000e+00 -0.0000000000e+00 -3.3045676285e+02 3.3045676285e+02 0.0000000000e+00 0.0000e+00 1.0000e+00
      -13  1    1    2    0    0 +1.4413210208e+02 -2.1146100709e+01 -2.9351880593e+02 3.2768049966e+02 0.0000000000e+00 0.0000e+00 1.0000e+00
       13  1    1    2    0    0 -1.4413210208e+02 +2.1146100709e+01 +2.4731696972e+02 2.8703118983e+02 0.0000000000e+00 0.0000e+00 -1.0000e+00
<mgrwt>
<rscale>  0 0.61297296E+03</rscale>
<asrwt>0</asrwt>
<pdfrwt beam="1">  1        2 0.43731527E-01 0.61297296E+03</pdfrwt>
<pdfrwt beam="2">  1       -2 0.50839502E-01 0.61297296E+03</pdfrwt>
<totfact> 0.52434216E+02</totfact>
</mgrwt>
<rwgt>
<wgt id='morphing_basis_vector_1'> +2.8683043e-04 </wgt>
<wgt id='morphing_basis_vector_2'> +1.6372039e-04 </wgt>
<wgt id='morphing_basis_vector_3'> +2.2988845e-04 </wgt>
<wgt id='morphing_basis_vector_4'> +1.0194061e-04 </wgt>
<wgt id='morphing_basis_vector_5'> +1.5458635e-04 </wgt>
</rwgt>
</event>
<event>
 4      1 +1.0153100e-05 6.11558500e+02 7.81860800e-03 9.17989100e-02
        2 -1    0    0  501    0 +0.0000000000e+00 +0.0000000000e+00 +2.2244737132e+03 2.2244737132e+03 0.0000000000e+00 0.0000e+00 1.0000e+00
       -2 -1    0    0    0  501 -0.0000000000e+00 -0.0000000000e+00 -4.2032838407e+01 4.2032838407e+01 0.0000000000e+00 0.0000e+00 -1.0000e+00
      -13  1    1    2    0    0 +1.5994026513e+02 +2.1893984754e+02 +5.6728786943e+02 6.2875358612e+02 0.0000000000e+00 0.0000e+00 -1.0000e+00
       13  1    1    2    0    0 -1.5994026513e+02 -2.1893984754e+02 +1.6151530054e+03 1.6377529655e+03 0.0000000000e+00 0.0000e+00 1.0000e+00
<mgrwt>
<rscale>  0 0.61155848E+03</rscale>
<asrwt>0</asrwt>
<pdfrwt beam="1">  1        2 0.34222663E+00 0.61155848E+03</pdfrwt>
<pdfrwt beam="2">  1       -2 0.64665923E-02 0.61155848E+03</pdfrwt>
<totfact> 0.77461336E+02</totfact>
</mgrwt>
<rwgt>
<wgt id='morphing_basis_vector_1'> +2.8605318e-04 </wgt>
<wgt id='morphing_basis_vector_2'> +1.6670425e-04 </wgt>
<wgt id='morphing_basis_vector_3'> +2.2798155e-04 </wgt>
<wgt id='morphing_basis_vector_4'> +9.9686681e-05 </wgt>
<wgt id='morphing_basis_vector_5'> +1.5278766e-04 </wgt>
</rwgt>
</event>
<event>
 4      1 +1.0153100e-05 5.50527100e+02 7.81860800e-03 9.29331800e-02
        2 -1    0    0  501    0 +0.0000000000e+00 +0.0000000000e+00 +5.1596709674e+02 5.1596709674e+02 0.0000000000e+00 0.0000e+00 -1.0000e+00
       -2 -1    0    0    0  501 -0.0000000000e+00 -0.0000000000e+00 -1.4685051531e+02 1.4685051531e+02 0.0000000000e+00 0.0000e+00 1.0000e+00
      -13  1    1    2    0    0 -1.7080737951e+02 -1.8636422541e+02 +3.1569283734e+02 4.0443633981e+02 0.0000000000e+00 0.0000e+00 -1.0000e+00
       13  1    1    2    0    0 +1.7080737951e+02 +1.8636422541e+02 +5.3423744098e+01 2.5838127224e+02 0.0000000000e+00 0.0000e+00 1.0000e+00
<mgrwt>
<rscale>  0 0.55052714E+03</rscale>
<asrwt>0</asrwt>
<pdfrwt beam="1">  1        2 0.79379552E-01 0.55052714E+03</pdfrwt>
<pdfrwt beam="2">  1       -2 0.22592387E-01 0.55052714E+03</pdfrwt>
<totfact> 0.11579596E+03</totfact>
</mgrwt>
<rwgt>
<wgt id='morphing_basis_vector_1'> +2.2897382e-04 </wgt>
<wgt id='morphing_basis_vector_2'> +1.9379374e-04 </wgt>
<wgt id='morphing_basis_vector_3'> +1.4940621e-04 </wgt>
<wgt id='morphing_basis_vector_4'> +4.4511474e-05 </wgt>
<wgt id='morphing_basis_vector_5'> +8.8710911e-05 </wgt>
</rwgt>
</event>
<event>
 4      1 +1.0153100e-05 5.93721100e+02 7.81860800e-03 9.21154000e-02
        2 -1    0    0  501    0 +0.0000000000e+00 +0.0000000000e+00 +3.8070404187e+02 3.8070404187e+02 0.0000000000e+00 0.0000e+00 1.0000e+00
       -2 -1    0    0    0  501 -0.0000000000e+00 -0.0000000000e+00 -2.3148212735e+02 2.3148212735e+02 0.0000000000e+00 0.0000e+00 -1.0000e+00
      -13  1    1    2    0    0 -2.1027599604e+02 +1.9384547688e+02 -7.4514248386e+00 2.8609017311e+02 0.0000000000e+00 0.0000e+00 -1.0000e+00
       13  1    1    2    0    0 +2.1027599604e+02 -1.9384547688e+02 +1.5667333935e+02 3.2609599611e+02 0.0000000000e+00 0.0000e+00 1.0000e+00
<mgrwt>
<rscale>  0 0.59372108E+03</rscale>
<asrwt>0</asrwt>
<pdfrwt beam="1">  1        2 0.58569853E-01 0.59372108E+03</pdfrwt>
<pdfrwt beam="2">  1       -2 0.35612635E-01 0.59372108E+03</pdfrwt>
<totfact> 0.73831476E+02</totfact>
</mgrwt>
<rwgt>
<wgt id='morphing_basis_vector_1'> +2.6157308e-04 </wgt>
<wgt id='morphing_basis_vector_2'> +1.5613497e-04 </wgt>
<wgt id='morphing_basis_vector_3'> +2.0389586e-04 </wgt>
<wgt id='morphing_basis_vector_4'> +8.4959256e-05 </wgt>
<wgt id='morphing_basis_vector_5'> +1.3134259e-04 </wgt>
</rwgt>
</event>
<event>
 4      1 +1.0153100e-05 5.52352500e+02 7.81860800e-03 9.28970300e-02
        2 -1    0    0  501    0 +0.0000000000e+00 +0.0000000000e+00 +4.1135732723e+01 4.1135732723e+01 0.0000000000e+00 0.0000e+00 -1.0000e+00
       -2 -1    0    0    0  501 -0.0000000000e+00 -0.0000000000e+00 -1.8541864236e+03 1.8541864236e+03 0.0000000000e+00 0.0000e+00 1.0000e+00
      -13  1    1    2    0    0 +2.3263937571e+02 +5.8400392107e+01 -1.3762792863e+03 1.3970241082e+03 0.0000000000e+00 0.0000e+00 1.0000e+00
       13  1    1    2    0    0 -2.3263937571e+02 -5.8400392107e+01 -4.3677140458e+02 4.9829804815e+02 0.0000000000e+00 0.0000e+00 -1.0000e+00
<mgrwt>
<rscale>  0 0.55235249E+03</rscale>
<asrwt>0</asrwt>
<pdfrwt beam="1">  1        2 0.63285747E-02 0.55235249E+03</pdfrwt>
<pdfrwt beam="2">  1       -2 0.28525943E+00 0.55235249E+03</pdfrwt>
<totfact> 0.47896109E+01</totfact>
</mgrwt>
<rwgt>
<wgt id='morphing_basis_vector_1'> +2.0604893e-04 </wgt>
<wgt id='morphing_basis_vector_2'> +1.1725414e-04 </wgt>
<wgt id='morphing_basis_vector_3'> +1.5581975e-04 </wgt>
<wgt id='morphing_basis_vector_4'> +6.0523298e-05 </wgt>
<wgt id='morphing_basis_vector_5'> +8.9739611e-05 </wgt>
</rwgt>
</event>
<event>
 4      1 +1.0153100e-05 5.40938600e+02 7.81860800e-03 9.31255800e-02
        2 -1    0    0  501    0 +0.0000000000e+00 +0.0000000000e+00 +1.2106576427e+02 1.2106576427e+02 0.0000000000e+00 0.0000e+00 1.0000e+00
       -2 -1    0    0    0  501 -0.0000000000e+00 -0.0000000000e+00 -6.0424713349e+02 6.0424713349e+02 0.0000000000e+00 0.0000e+00 -1.0000e+00
      -13  1    1    2    0    0 +9.4597812822e+01 -2.4483351497e+02 -3.2912047007e+02 4.2096612698e+02 0.0000000000e+00 0.0000e+00 -1.0000e+00
       13  1    1    2    0    0 -9.4597812822e+01 +2.4483351497e+02 -1.5406089914e+02 3.0434677078e+02 0.0000000000e+00 0.0000e+00 1.0000e+00
<mgrwt>
<rscale>  0 0.54093860E+03</rscale>
<asrwt>0</asrwt>
<pdfrwt beam="1">  1        2 0.18625502E-01 0.54093860E+03</pdfrwt>
<pdfrwt beam="2">  1       -2 0.92961098E-01 0.54093860E+03</pdfrwt>
<totfact> 0.38955980E+02</totfact>
</mgrwt>
<rwgt>
<wgt id='morphing_basis_vector_1'> +1.9475098e-04 </wgt>
<wgt id='morphing_basis_vector_2'> +1.1484322e-04 </wgt>
<wgt id='morphing_basis_vector_3'> +1.4391226e-04 </wgt>
<wgt id='morphing_basis_vector_4'> +5.3514542e-05 </wgt>
<wgt id='morphing_basis_vector_5'> +8.0150968e-05 </wgt>
</rwgt>
</event>
<event>
 4      1 +1.0153100e-05 6.14483600e+02 7.81860800e-03 9.17481000e-02
        2 -1    0    0  501    0 +0.0000000000e+00 +0.0000000000e+00 +1.6793924864e+03 1.6793924864e+03 0.0000000000e+00 0.0000e+00 1.0000e+00
       -2 -1    0    0    0  501 -0.0000000000e+00 -0.0000000000e+00 -5.6209332397e+01 5.6209332397e+01 0.0000000000e+00 0.0000e+00 -1.0000e+00
      -13  1    1    2    0    0 +4.3136489439e+01 +3.0400434243e+02 +8.4229073241e+02 8.9651161445e+02 0.0000000000e+00 0.0000e+00 -1.0000e+00
       13  1    1    2    0    0 -4.3136489439e+01 -3.0400434243e+02 +7.8089242163e+02 8.3909020439e+02 0.0000000000e+00 0.0000e+00 1.0000e+00
<mgrwt>
<rscale>  0 0.61448362E+03</rscale>
<asrwt>0</asrwt>
<pdfrwt beam="1">  1        2 0.25836804E+00 0.61448362E+03</pdfrwt>
<pdfrwt beam="2">  1       -2 0.86475909E-02 0.61448362E+03</pdfrwt>
<totfact> 0.98529101E+02</totfact>
</mgrwt>
<rwgt>
<wgt id='morphing_basis_vector_1'> +3.0032842e-04 </wgt>
<wgt id='morphing_basis_vector_2'> +1.9974968e-04 </wgt>
<wgt id='morphing_basis_vector_3'> +2.3284761e-04 </wgt>
<wgt id='morphing_basis_vector_4'> +9.4043160e-05 </wgt>
<wgt id='morphing_basis_vector_5'> +1.5652509e-04 </wgt>
</rwgt>
</event>
<event>
 4      1 +1.0153100e-05 5.43225100e+02 7.81860800e-03 9.30793100e-02
        2 -1    0    0  501    0 +0.0000000000e+00 +0.0000000000e+00 +3.0915365429e+02 3.0915365429e+02 0.0000000000e+00 0.0000e+00 1.0000e+00
       -2 -1    0    0    0  501 -0.0000000000e+00 -0.0000000000e+00 -2.3863017342e+02 2.3863017342e+02 0.0000000000e+00 0.0000e+00 -1.0000e+00
      -13  1    1    2    0    0 +1.4987945067e+02 -4.6651522718e+01 -1.8825844981e+02 2.4511519380e+02 0.0000000000e+00 0.0000e+00 -1.0000e+00
       13  1    1    2    0    0 -1.4987945067e+02 +4.6651522718e+01 +2.5878193069e+02 3.0266863391e+02 0.0000000000e+00 0.0000e+00 1.0000e+00
<mgrwt>
<rscale>  0 0.54322515E+03</rscale>
<asrwt>0</asrwt>
<pdfrwt beam="1">  1        2 0.47562101E-01 0.54322515E+03</pdfrwt>
<pdfrwt beam="2">  1       -2 0.36712334E-01 0.54322515E+03</pdfrwt>
<totfact> 0.88257572E+02</totfact>
</mgrwt>
<rwgt>
<wgt id='morphing_basis_vector_1'> +1.9481937e-04 </wgt>
<wgt id='morphing_basis_vector_2'> +1.0864531e-04 </wgt>
<wgt id='morphing_basis_vector_3'> +1.4670888e-04 </wgt>
<wgt id='morphing_basis_vector_4'> +5.6093035e-05 </wgt>
<wgt id='morphing_basis_vector_5'> +8.1957504e-05 </wgt>
</rwgt>
</event>
<event>
 4      1 +1.0153100e-05 5.89396500e+02 7.81860800e-03 9.21939000e-02
        2 -1    0    0  501    0 +0.0000000000e+00 +0.0000000000e+00 +5.2416108099e+02 5.2416108099e+02 0.0000000000e+00 0.0000e+00 -1.0000e+00
       -2 -1    0    0    0  501 -0.0000000000e+00 -0.0000000000e+00 -1.6568773522e+02 1.6568773522e+02 0.0000000000e+00 0.0000e+00 1.0000e+00
      -13  1    1    2    0    0 +2.0673031345e+01 +2.2560856057e+02 -4.1353258679e+01 2.3029695793e+02 0.0000000000e+00 0.0000e+00 1.0000e+00
       13  1    1    2    0    0 -2.0673031345e+01 -2.2560856057e+02 +3.9982660445e+02 4.5955185828e+02 0.0000000000e+00 0.0000e+00 -1.0000e+00
<mgrwt>
<rscale>  0 0.58939651E+03</rscale>
<asrwt>0</asrwt>
<pdfrwt beam="1">  1        2 0.80640165E-01 0.58939651E+03</pdfrwt>
<pdfrwt beam="2">  1       -2 0.25490421E-01 0.58939651E+03</pdfrwt>
<totfact> 0.92661977E+02</totfact>
</mgrwt>
<rwgt>
<wgt id='morphing_basis_vector_1'> +2.5286257e-04 </wgt>
<wgt id='morphing_basis_vector_2'> +1.4422240e-04 </wgt>
<wgt id='morphing_basis_vector_3'> +1.9839904e-04 </wgt>
<wgt id='morphing_basis_vector_4'> +8.3894294e-05 </wgt>
<wgt id='morphing_basis_vector_5'> +1.2645479e-04 </wgt>
</rwgt>
</event>
<event>
 4      1 +1.0153100e-05 6.01517800e+02 7.81860800e-03 9.19756400e-02
        2 -1    0    0  501    0 +0.0000000000e+00 +0.0000000000e+00 +1.3967051927e+02 1.3967051927e+02 0.0000000000e+00 0.0000e+00 -1.0000e+00
       -2 -1    0    0    0  501 -0.0000000000e+00 -0.0000000000e+00 -6.4763776700e+02 6.4763776700e+02 0.0000000000e+00 0.0000e+00 1.0000e+00
      -13  1    1    2    0    0 -9.1467756631e+01 +6.1264449306e+01 -6.2031800093e+02 6.3001119476e+02 0.0000000000e+00 0.0000e+00 1.0000e+00
       13  1    1    2    0    0 +9.1467756631e+01 -6.1264449306e+01 +1.1235075320e+02 1.5729709151e+02 0.0000000000e+00 0.0000e+00 -1.0000e+00
<mgrwt>
<rscale>  0 0.60151776E+03</rscale>
<asrwt>0</asrwt>
<pdfrwt beam="1">  1        2 0.21487772E-01 0.60151776E+03</pdfrwt>
<pdfrwt beam="2">  1       -2 0.99636579E-01 0.60151776E+03</pdfrwt>
<totfact> 0.27815519E+02</totfact>
</mgrwt>
<rwgt>
<wgt id='morphing_basis_vector_1'> +2.6965293e-04 </wgt>
<wgt id='morphing_basis_vector_2'> +1.5324240e-04 </wgt>
<wgt id='morphing_basis_vector_3'> +2.1413388e-04 </wgt>
<wgt id='morphing_basis_vector_4'> +9.3035135e-05 </wgt>
<wgt id='morphing_basis_vector_5'> +1.4042546e-04 </wgt>
</rwgt>
</event>
<event>
 4      1 +1.0153100e-05 5.73007700e+02 7.81860800e-03 9.24980100e-02
        2 -1    0    0  501    0 +0.0000000000e+00 +0.0000000000e+00 +2.7924118194e+02 2.7924118194e+02 0.0000000000e+00 0.0000e+00 1.0000e+00
       -2 -1    0    0    0  501 -0.0000000000e+00 -0.0000000000e+00 -2.9395541702e+02 2.9395541702e+02 0.0000000000e+00 0.0000e+00 -1.0000e+00
      -13  1    1    2    0    0 -3.6612787291e+01 +5.1306214400e+01 +2.7221960131e+02 2.7942142932e+02 0.0000000000e+00 0.0000e+00 1.0000e+00
       13  1    1    2    0    0 +3.6612787291e+01 -5.1306214400e+01 -2.8693383639e+02 2.9377516964e+02 0.0000000000e+00 0.0000e+00 -1.0000e+00
<mgrwt>
<rscale>  0 0.57300771E+03</rscale>
<asrwt>0</asrwt>
<pdfrwt beam="1">  1        2 0.42960182E-01 0.57300771E+03</pdfrwt>
<pdfrwt beam="2">  1       -2 0.45223910E-01 0.57300771E+03</pdfrwt>
<totfact> 0.67103773E+02</totfact>
</mgrwt>
<rwgt>
<wgt id='morphing_basis_vector_1'> +3.1349302e-04 </wgt>
<wgt id='morphing_basis_vector_2'> +3.8718503e-04 </wgt>
<wgt id='morphing_basis_vector_3'> +1.7145514e-04 </wgt>
<wgt id='morphing_basis_vector_4'> +1.6891700e-05 </wgt>
<wgt id='morphing_basis_vector_5'> +1.1032749e-04 </wgt>
</rwgt>
</event>
<event>
 4      1 +1.0153100e-05 5.96456300e+02 7.81860800e-03 9.20661100e-02
        2 -1    0    0  501    0 +0.0000000000e+00 +0.0000000000e+00 +3.6207371286e+02 3.6207371286e+02 0.0000000000e+00 0.0000e+00 -1.0000e+00
       -2 -1    0    0    0  501 -0.0000000000e+00 -0.0000000000e+00 -2.4564067576e+02 2.4564067576e+02 0.0000000000e+00 0.0000e+00 1.0000e+00
      -13  1    1    2    0    0 +4.6119464073e+01 -1.4476697921e+02 -2.0325059276e+02 2.5376226413e+02 0.0000000000e+00 0.0000e+00 1.0000e+00
       13  1    1    2    0    0 -4.6119464073e+01 +1.4476697921e+02 +3.1968362985e+02 3.5395212449e+02 0.0000000000e+00 0.0000e+00 -1.0000e+00
<mgrwt>
<rscale>  0 0.59645631E+03</rscale>
<asrwt>0</asrwt>
<pdfrwt beam="1">  1        2 0.55703648E-01 0.59645631E+03</pdfrwt>
<pdfrwt beam="2">  1       -2 0.37790873E-01 0.59645631E+03</pdfrwt>
<totfact> 0.70109376E+02</totfact>
</mgrwt>
<rwgt>
<wgt id='morphing_basis_vector_1'> +2.6238754e-04 </wgt>
<wgt id='morphing_basis_vector_2'> +1.4896151e-04 </wgt>
<wgt id='morphing_basis_vector_3'> +2.0745192e-04 </wgt>
<wgt id='morphing_basis_vector_4'> +8.9244161e-05 </wgt>
<wgt id='morphing_basis_vector_5'> +1.3446664e-04 </wgt>
</rwgt>
</event>
<event>
 4      1 +1.0153100e-05 5.79656900e+02 7.81860800e-03 9.23733400e-02
        2 -1    0    0  501    0 +0.0000000000e+00 +0.0000000000e+00 +8.2955851740e+02 8.2955851740e+02 0.0000000000e+00 0.0000e+00 -1.0000e+00
       -2 -1    0    0    0  501 -0.0000000000e+00 -0.0000000000e+00 -1.0125930431e+02 1.0125930431e+02 0.0000000000e+00 0.0000e+00 1.0000e+00
      -13  1    1    2    0    0 +1.3343201922e+02 -2.3625280765e+02 +2.0053810153e+02 3.3739446208e+02 0.0000000000e+00 0.0000e+00 1.0000e+00
       13  1    1    2    0    0 -1.3343201922e+02 +2.3625280765e+02 +5.2776111156e+02 5.9342335963e+02 0.0000000000e+00 0.0000e+00 -1.0000e+00
<mgrwt>
<rscale>  0 0.57965686E+03</rscale>
<asrwt>0</asrwt>
<pdfrwt beam="1">  1        2 0.12762438E+00 0.57965686E+03</pdfrwt>
<pdfrwt beam="2">  1       -2 0.15578355E-01 0.57965686E+03</pdfrwt>
<totfact> 0.12090460E+03</totfact>
</mgrwt>
<rwgt>
<wgt id='morphing_basis_vector_1'> +2.4122727e-04 </wgt>
<wgt id='morphing_basis_vector_2'> +1.4112778e-04 </wgt>
<wgt id='morphing_basis_vector_3'> +1.8633057e-04 </wgt>
<wgt id='morphing_basis_vector_4'> +7.6185833e-05 </wgt>
<wgt id='morphing_basis_vector_5'> +1.1596892e-04 </wgt>
</rwgt>
</event>
<event>
 4      1 +1.0153100e-05 5.24363600e+02 7.81860800e-03 9.34684100e-02
        2 -1    0    0  501    0 +0.0000000000e+00 +0.0000000000e+00 +1.4478762261e+02 1.4478762261e+02 0.0000000000e+00 0.0000e+00 -1.0000e+00
       -2 -1    0    0    0  501 -0.0000000000e+00 -0.0000000000e+00 -4.7475953667e+02 4.7475953667e+02 0.0000000000e+00 0.0000e+00 1.0000e+00
      -13  1    1    2    0    0 -8.2416326077e+01 -2.3503908225e+02 -2.6172283873e+02 3.6129581413e+02 0.0000000000e+00 0.0000e+00 1.0000e+00
       13  1    1    2    0    0 +8.2416326077e+01 +2.3503908225e+02 -6.8249075322e+01 2.5825134515e+02 0.0000000000e+00 0.0000e+00 -1.0000e+00
<mgrwt>
<rscale>  0 0.52436363E+03</rscale>
<asrwt>0</asrwt>
<pdfrwt beam="1">  1        2 0.22275019E-01 0.52436363E+03</pdfrwt>
<pdfrwt beam="2">  1       -2 0.73039929E-01 0.52436363E+03</pdfrwt>
<totfact> 0.54295362E+02</totfact>
</mgrwt>
<rwgt>
<wgt id='morphing_basis_vector_1'> +1.7624618e-04 </wgt>
<wgt id='morphing_basis_vector_2'> +1.0184787e-04 </wgt>
<wgt id='morphing_basis_vector_3'> +1.2852220e-04 </wgt>
<wgt id='morphing_basis_vector_4'> +4.6069824e-05 </wgt>
<wgt id='morphing_basis_vector_5'> +6.7439071e-05 </wgt>
</rwgt>
</event>
<event>
 4      1 +1.0153100e-05 5.70366600e+02 7.81860800e-03 9.25480300e-02
        2 -1    0    0  501    0 +0.0000000000e+00 +0.0000000000e+00 +5.0892425359e+02 5.0892425359e+02 0.0000000000e+00 0.0000e+00 -1.0000e+00
       -2 -1    0    0    0  501 -0.0000000000e+00 -0.0000000000e+00 -1.5980669107e+02 1.5980669107e+02 0.0000000000e+00 0.0000e+00 1.0000e+00
      -13  1    1    2    0    0 -2.1018742619e+02 +4.0498932013e+01 -4.6382197709e+01 2.1902106266e+02 0.0000000000e+00 0.0000e+00 1.0000e+00
       13  1    1    2    0    0 +2.1018742619e+02 -4.0498932013e+01 +3.9549976023e+02 4.4970988199e+02 0.0000000000e+00 0.0000e+00 -1.0000e+00
<mgrwt>
<rscale>  0 0.57036655E+03</rscale>
<asrwt>0</asrwt>
<pdfrwt beam="1">  1        2 0.78296038E-01 0.57036655E+03</pdfrwt>
<pdfrwt beam="2">  1       -2 0.24585645E-01 0.57036655E+03</pdfrwt>
<totfact> 0.10194925E+03</totfact>
</mgrwt>
<rwgt>
<wgt id='morphing_basis_vector_1'> +2.2751302e-04 </wgt>
<wgt id='morphing_basis_vector_2'> +1.2876609e-04 </wgt>
<wgt id='morphing_basis_vector_3'> +1.7555228e-04 </wgt>
<wgt id='morphing_basis_vector_4'> +7.1401606e-05 </wgt>
<wgt id='morphing_basis_vector_5'> +1.0650586e-04 </wgt>
</rwgt>
</event>
<event>
 4      1 +1.0153100e-05 5.56341700e+02 7.81860800e-03 9.28185300e-02
        2 -1    0    0  501    0 +0.0000000000e+00 +0.0000000000e+00 +5.8258047029e+02 5.8258047029e+02 0.0000000000e+00 0.0000e+00 1.0000e+00
       -2 -1    0    0    0  501 -0.0000000000e+00 -0.0000000000e+00 -1.3282119465e+02 1.3282119465e+02 0.0000000000e+00 0.0000e+00 -1.0000e+00
      -13  1    1    2    0    0 -1.1339398620e+02 -1.1367113630e+02 -6.7220614630e+01 1.7406301837e+02 0.0000000000e+00 0.0000e+00 -1.0000e+00
       13  1    1    2    0    0 +1.1339398620e+02 +1.1367113630e+02 +5.1697989027e+02 5.4133864657e+02 0.0000000000e+00 0.0000e+00 1.0000e+00
<mgrwt>
<rscale>  0 0.55634174E+03</rscale>
<asrwt>0</asrwt>
<pdfrwt beam="1">  1        2 0.89627764E-01 0.55634174E+03</pdfrwt>
<pdfrwt beam="2">  1       -2 0.20434030E-01 0.55634174E+03</pdfrwt>
<totfact> 0.11911167E+03</totfact>
</mgrwt>
<rwgt>
<wgt id='morphing_basis_vector_1'> +2.0998189e-04 </wgt>
<wgt id='morphing_basis_vector_2'> +1.1763987e-04 </wgt>
<wgt id='morphing_basis_vector_3'> +1.6013964e-04 </wgt>
<wgt id='morphing_basis_vector_4'> +6.3232360e-05 </wgt>
<wgt id='morphing_basis_vector_5'> +9.3269255e-05 </wgt>
</rwgt>
</event>
<event>
 4      1 +1.0153100e-05 5.75555500e+02 7.81860800e-03 9.24500300e-02
        2 -1    0    0  501    0 +0.0000000000e+00 +0.0000000000e+00 +7.1420213046e+02 7.1420213046e+02 0.0000000000e+00 0.0000e+00 1.0000e+00
       -2 -1    0    0    0  501 -0.0000000000e+00 -0.0000000000e+00 -1.1595602158e+02 1.1595602158e+02 0.0000000000e+00 0.0000e+00 -1.0000e+00
      -13  1    1    2    0    0 +1.6143146152e+01 -1.6633147850e+02 -3.8799646401e+01 1.7155807899e+02 0.0000000000e+00 0.0000e+00 -1.0000e+00
       13  1    1    2    0    0 -1.6143146152e+01 +1.6633147850e+02 +6.3704575528e+02 6.5860007305e+02 0.0000000000e+00 0.0000e+00 1.0000e+00
<mgrwt>
<rscale>  0 0.57555551E+03</rscale>
<asrwt>0</asrwt>
<pdfrwt beam="1">  1        2 0.10987725E+00 0.57555551E+03</pdfrwt>
<pdfrwt beam="2">  1       -2 0.17839388E-01 0.57555551E+03</pdfrwt>
<totfact> 0.11698938E+03</totfact>
</mgrwt>
<rwgt>
<wgt id='morphing_basis_vector_1'> +2.3392368e-04 </wgt>
<wgt id='morphing_basis_vector_2'> +1.3194704e-04 </wgt>
<wgt id='morphing_basis_vector_3'> +1.8158313e-04 </wgt>
<wgt id='morphing_basis_vector_4'> +7.4861277e-05 </wgt>
<wgt id='morphing_basis_vector_5'> +1.1170828e-04 </wgt>
</rwgt>
</event>
<event>
 4      1 +1.0153100e-05 5.50019000e+02 7.81860800e-03 9.29432700e-02
        2 -1    0    0  501    0 +0.0000000000e+00 +0.0000000000e+00 +1.7590570084e+03 1.7590570084e+03 0.0000000000e+00 0.0000e+00 -1.0000e+00
       -2 -1    0    0    0  501 -0.0000000000e+00 -0.0000000000e+00 -4.2994754545e+01 4.2994754545e+01 0.0000000000e+00 0.0000e+00 1.0000e+00
      -13  1    1    2    0    0 -2.1248706121e+02 -1.6615967603e+02 +6.8249623984e+02 7.3386709050e+02 0.0000000000e+00 0.0000e+00 1.0000e+00
       13  1    1    2    0    0 +2.1248706121e+02 +1.6615967603e+02 +1.0335660140e+03 1.0681846724e+03 0.0000000000e+00 0.0000e+00 -1.0000e+00
<mgrwt>
<rscale>  0 0.55001900E+03</rscale>
<asrwt>0</asrwt>
<pdfrwt beam="1">  1        2 0.27062410E+00 0.55001900E+03</pdfrwt>
<pdfrwt beam="2">  1       -2 0.66145790E-02 0.55001900E+03</pdfrwt>
<totfact> 0.13529582E+03</totfact>
</mgrwt>
<rwgt>
<wgt id='morphing_basis_vector_1'> +2.0573462e-04 </wgt>
<wgt id='morphing_basis_vector_2'> +1.2309842e-04 </wgt>
<wgt id='morphing_basis_vector_3'> +1.5296619e-04 </wgt>
<wgt id='morphing_basis_vector_4'> +5.7814020e-05 </wgt>
<wgt id='morphing_basis_vector_5'> +8.7763469e-05 </wgt>
</rwgt>
</event>
<event>
 4      1 +1.0153100e-05 5.91252600e+02 7.81860800e-03 9.21601200e-02
        2 -1    0    0  501    0 +0.0000000000e+00 +0.0000000000e+00 +1.6824735045e+03 1.6824735045e+03 0.0000000000e+00 0.0000e+00 1.0000e+00
       -2 -1    0    0    0  501 -0.0000000000e+00 -0.0000000000e+00 -5.1944297543e+01 5.1944297543e+01 0.0000000000e+00 0.0000e+00 -1.0000e+00
      -13  1    1    2    0    0 +2.5331398630e+02 +5.3676307986e+01 +1.2336898410e+03 1.2605711981e+03 0.0000000000e+00 0.0000e+00 -1.0000e+00
       13  1    1    2    0    0 -2.5331398630e+02 -5.3676307986e+01 +3.9683936594e+02 4.7384660393e+02 0.0000000000e+00 0.0000e+00 1.0000e+00
<mgrwt>
<rscale>  0 0.59125258E+03</rscale>
<asrwt>0</asrwt>
<pdfrwt beam="1">  1        2 0.25884204E+00 0.59125258E+03</pdfrwt>
<pdfrwt beam="2">  1       -2 0.79914317E-02 0.59125258E+03</pdfrwt>
<totfact> 0.11106302E+03</totfact>
</mgrwt>
<rwgt>
<wgt id='morphing_basis_vector_1'> +2.9733904e-04 </wgt>
<wgt id='morphing_basis_vector_2'> +2.7573359e-04 </wgt>
<wgt id='morphing_basis_vector_3'> +2.0015968e-04 </wgt>
<wgt id='morphing_basis_vector_4'> +5.4118600e-05 </wgt>
<wgt id='morphing_basis_vector_5'> +1.2886482e-04 </wgt>
</rwgt>
</event>
<event>
 4      1 +1.0153100e-05 5.37597900e+02 7.81860800e-03 9.31936100e-02
        2 -1    0    0  501    0 +0.0000000000e+00 +0.0000000000e+00 +7.0416476839e+01 7.0416476839e+01 0.0000000000e+00 0.0000e+00 -1.0000e+00
       -2 -1    0    0    0  501 -0.0000000000e+00 -0.0000000000e+00 -1.0260790355e+03 1.0260790355e+03 0.0000000000e+00 0.0000e+00 1.0000e+00
      -13  1    1    2    0    0 +2.6835177523e+02 +1.0968290570e+01 -5.0016414048e+02 5.6771220357e+02 0.0000000000e+00 0.0000e+00 1.0000e+00
       13  1    1    2    0    0 -2.6835177523e+02 -1.0968290570e+01 -4.5549841820e+02 5.2878330879e+02 0.0000000000e+00 0.0000e+00 -1.0000e+00
<mgrwt>
<rscale>  0 0.53759788E+03</rscale>
<asrwt>0</asrwt>
<pdfrwt beam="1">  1        2 0.10833304E-01 0.53759788E+03</pdfrwt>
<pdfrwt beam="2">  1       -2 0.15785831E+00 0.53759788E+03</pdfrwt>
<totfact> 0.19250096E+02</totfact>
</mgrwt>
<rwgt>
<wgt id='morphing_basis_vector_1'> +1.9395907e-04 </wgt>
<wgt id='morphing_basis_vector_2'> +1.2162836e-04 </wgt>
<wgt id='morphing_basis_vector_3'> +1.3996185e-04 </wgt>
<wgt id='morphing_basis_vector_4'> +5.0266226e-05 </wgt>
<wgt id='morphing_basis_vector_5'> +7.7551455e-05 </wgt>
</rwgt>
</event>
<event>
 4      1 +1.0153100e-05 6.12856200e+02 7.81860800e-03 9.17763300e-02
        2 -1    0    0  501    0 +0.0000000000e+00 +0.0000000000e+00 +7.4595214032e+02 7.4595214032e+02 0.0000000000e+00 0.0000e+00 -1.0000e+00
       -2 -1    0    0    0  501 -0.0000000000e+00 -0.0000000000e+00 -1.2587694633e+02 1.2587694633e+02 0.0000000000e+00 0.0000e+00 1.0000e+00
      -13  1    1    2    0    0 +2.7166896260e+02 -1.3448147585e+02 +2.4627730327e+02 3.9056600299e+02 0.0000000000e+00 0.0000e+00 1.0000e+00
       13  1    1    2    0    0 -2.7166896260e+02 +1.3448147585e+02 +3.7379789072e+02 4.8126308366e+02 0.0000000000e+00 0.0000e+00 -1.0000e+00
<mgrwt>
<rscale>  0 0.61285619E+03</rscale>
<asrwt>0</asrwt>
<pdfrwt beam="1">  1        2 0.11476187E+00 0.61285619E+03</pdfrwt>
<pdfrwt beam="2">  1       -2 0.19365684E-01 0.61285619E+03</pdfrwt>
<totfact> 0.96806801E+02</totfact>
</mgrwt>
<rwgt>
<wgt id='morphing_basis_vector_1'> +2.9227472e-04 </wgt>
<wgt id='morphing_basis_vector_2'> +1.8103712e-04 </wgt>
<wgt id='morphing_basis_vector_3'> +2.3010041e-04 </wgt>
<wgt id='morphing_basis_vector_4'> +9.7284847e-05 </wgt>
<wgt id='morphing_basis_vector_5'> +1.5444031e-04 </wgt>
</rwgt>
</event>
<event>
 4      1 +1.0153100e-05 5.80768600e+02 7.81860800e-03 9.23526700e-02
        2 -1    0    0  501    0 +0.0000000000e+00 +0.0000000000e+00 +1.7682654710e+02 1.7682654710e+02 0.0000000000e+00 0.0000e+00 -1.0000e+00
       -2 -1    0    0    0  501 -0.0000000000e+00 -0.0000000000e+00 -4.7686872671e+02 4.7686872671e+02 0.0000000000e+00 0.0000e+00 1.0000e+00
      -13  1    1    2    0    0 +1.6324123906e+02 -1.7741070634e+02 -3.3221312371e+02 4.1047267926e+02 0.0000000000e+00 0.0000e+00 1.0000e+00
       13  1    1    2    0    0 -1.6324123906e+02 +1.7741070634e+02 +3.2170944089e+01 2.4322259455e+02 0.0000000000e+00 0.0000e+00 -1.0000e+00
<mgrwt>
<rscale>  0 0.58076863E+03</rscale>
<asrwt>0</asrwt>
<pdfrwt beam="1">  1        2 0.27204085E-01 0.58076863E+03</pdfrwt>
<pdfrwt beam="2">  1       -2 0.73364419E-01 0.58076863E+03</pdfrwt>
<totfact> 0.42500802E+02</totfact>
</mgrwt>
<rwgt>
<wgt id='morphing_basis_vector_1'> +2.4141430e-04 </wgt>
<wgt id='morphing_basis_vector_2'> +1.3801065e-04 </wgt>
<wgt id='morphing_basis_vector_3'> +1.8774590e-04 </wgt>
<wgt id='morphing_basis_vector_4'> +7.7826536e-05 </wgt>
<wgt id='morphing_basis_vector_5'> +1.1712059e-04 </wgt>
</rwgt>
</event>
<event>
 4      1 +1.0153100e-05 5.65736600e+02 7.81860800e-03 9.26364000e-02
        2 -1    0    0  501    0 +0.0000000000e+00 +0.0000000000e+00 +1.3400568852e+03 1.3400568852e+03 0.0000000000e+00 0.0000e+00 1.0000e+00
       -2 -1    0    0    0  501 -0.0000000000e+00 -0.0000000000e+00 -5.9709765063e+01 5.9709765063e+01 0.0000000000e+00 0.0000e+00 -1.0000e+00
      -13  1    1    2    0    0 -1.2545005029e+02 -1.9805768871e+02 +2.4857191494e+02 3.4169073747e+02 0.0000000000e+00 0.0000e+00 -1.0000e+00
       13  1    1    2    0    0 +1.2545005029e+02 +1.9805768871e+02 +1.0317752052e+03 1.0580759128e+03 0.0000000000e+00 0.0000e+00 1.0000e+00
<mgrwt>
<rscale>  0 0.56573662E+03</rscale>
<asrwt>0</asrwt>
<pdfrwt beam="1">  1        2 0.20616258E+00 0.56573662E+03</pdfrwt>
<pdfrwt beam="2">  1       -2 0.91861187E-02 0.56573662E+03</pdfrwt>
<totfact> 0.13797047E+03</totfact>
</mgrwt>
<rwgt>
<wgt id='morphing_basis_vector_1'> +2.2199249e-04 </wgt>
<wgt id='morphing_basis_vector_2'> +1.2622450e-04 </wgt>
<wgt id='morphing_basis_vector_3'> +1.7028898e-04 </wgt>
<wgt id='morphing_basis_vector_4'> +6.8368303e-05 </wgt>
<wgt id='morphing_basis_vector_5'> +1.0200924e-04 </wgt>
</rwgt>
</event>
<event>
 4      1 +1.0153100e-05 5.53968100e+02 7.81860800e-03 9.28651500e-02
        2 -1    0    0  501    0 +0.0000000000e+00 +0.0000000000e+00 +2.8880042950e+02 2.8880042950e+02 0.0000000000e+00 0.0000e+00 1.0000e+00
       -2 -1    0    0    0  501 -0.0000000000e+00 -0.0000000000e+00 -2.6565118814e+02 2.6565118814e+02 0.0000000000e+00 0.0000e+00 -1.0000e+00
      -13  1    1    2    0    0 -1.6640078215e+02 +2.0050504517e+02 -8.2468458772e+01 2.7329935992e+02 0.0000000000e+00 0.0000e+00 -1.0000e+00
       13  1    1    2    0    0 +1.6640078215e+02 -2.0050504517e+02 +1.0561770013e+02 2.8115225772e+02 0.0000000000e+00 0.0000e+00 1.0000e+00
<mgrwt>
<rscale>  0 0.55396815E+03</rscale>
<asrwt>0</asrwt>
<pdfrwt beam="1">  1        2 0.44430836E-01 0.55396815E+03</pdfrwt>
<pdfrwt beam="2">  1       -2 0.40869413E-01 0.55396815E+03</pdfrwt>
<totfact> 0.78190368E+02</totfact>
</mgrwt>
<rwgt>
<wgt id='morphing_basis_vector_1'> +2.0891483e-04 </wgt>
<wgt id='morphing_basis_vector_2'> +1.2138962e-04 </wgt>
<wgt id='morphing_basis_vector_3'> +1.5734902e-04 </wgt>
<wgt id='morphing_basis_vector_4'> +6.0825140e-05 </wgt>
<wgt id='morphing_basis_vector_5'> +9.1184747e-05 </wgt>
</rwgt>
</event>
<event>
 4      1 +1.0153100e-05 5.21550200e+02 7.81860800e-03 9.35279400e-02
        2 -1    0    0  501    0 +0.0000000000e+00 +0.0000000000e+00 +1.2063393838e+03 1.2063393838e+03 0.0000000000e+00 0.0000e+00 1.0000e+00
       -2 -1    0    0    0  501 -0.0000000000e+00 -0.0000000000e+00 -5.6371916260e+01 5.6371916260e+01 0.0000000000e+00 0.0000e+00 -1.0000e+00
      -13  1    1    2    0    0 +2.0211082199e+02 +7.7918013305e+01 +2.2343872427e+02 3.1119907562e+02 0.0000000000e+00 0.0000e+00 -1.0000e+00
       13  1    1    2    0    0 -2.0211082199e+02 -7.7918013305e+01 +9.2652874327e+02 9.5151222444e+02 0.0000000000e+00 0.0000e+00 1.0000e+00
<mgrwt>
<rscale>  0 0.52155024E+03</rscale>
<asrwt>0</asrwt>
<pdfrwt beam="1">  1        2 0.18559066E+00 0.52155024E+03</pdfrwt>
<pdfrwt beam="2">  1       -2 0.86726034E-02 0.52155024E+03</pdfrwt>
<totfact> 0.17962825E+03</totfact>
</mgrwt>
<rwgt>
<wgt id='morphing_basis_vector_1'> +1.7217955e-04 </wgt>
<wgt id='morphing_basis_vector_2'> +9.6428694e-05 </wgt>
<wgt id='morphing_basis_vector_3'> +1.2639107e-04 </wgt>
<wgt id='morphing_basis_vector_4'> +4.5406179e-05 </wgt>
<wgt id='morphing_basis_vector_5'> +6.5391317e-05 </wgt>
</rwgt>
</event>
<event>
 4      1 +1.0153100e-05 5.29960600e+02 7.81860800e-03 9.33511500e-02
        2 -1    0    0  501    0 +0.0000000000e+00 +0.0000000000e+00 +1.8348819789e+02 1.8348819789e+02 0.0000000000e+00 0.0000e+00 1.0000e+00
       -2 -1    0    0    0  501 -0.0000000000e+00 -0.0000000000e+00 -3.8266522778e+02 3.8266522778e+02 0.0000000000e+00 0.0000e+00 -1.0000e+00
      -13  1    1    2    0    0 -1.0471661385e+02 -1.4395893154e+02 -3.0927035926e+02 3.5684436146e+02 0.0000000000e+00 0.0000e+00 -1.0000e+00
       13  1    1    2    0    0 +1.0471661385e+02 +1.4395893154e+02 +1.1009332937e+02 2.0930906421e+02 0.0000000000e+00 0.0000e+00 1.0000e+00
<mgrwt>
<rscale>  0 0.52996058E+03</rscale>
<asrwt>0</asrwt>
<pdfrwt beam="1">  1        2 0.28228954E-01 0.52996058E+03</pdfrwt>
<pdfrwt beam="2">  1       -2 0.58871572E-01 0.52996058E+03</pdfrwt>
<totfact> 0.64558516E+02</totfact>
</mgrwt>
<rwgt>
<wgt id='morphing_basis_vector_1'> +1.8048939e-04 </wgt>
<wgt id='morphing_basis_vector_2'> +1.0039157e-04 </wgt>
<wgt id='morphing_basis_vector_3'> +1.3404899e-04 </wgt>
<wgt id='morphing_basis_vector_4'> +4.9454515e-05 </wgt>
<wgt id='morphing_basis_vector_5'> +7.1511566e-05 </wgt>
</rwgt>
</event>
<event>
 4      1 +1.0153100e-05 5.47982800e+02 7.81860800e-03 9.29838300e-02
        2 -1    0    0  501    0 +0.0000000000e+00 +0.0000000000e+00 +2.0231772945e+02 2.0231772945e+02 0.0000000000e+00 0.0000e+00 -1.0000e+00
       -2 -1    0    0    0  501 -0.0000000000e+00 -0.0000000000e+00 -3.7105645910e+02 3.7105645910e+02 0.0000000000e+00 0.0000e+00 1.0000e+00
      -13  1    1    2    0    0 -1.5793634748e+02 -1.5961805307e+02 -2.4864574380e+02 3.3503211582e+02 0.0000000000e+00 0.0000e+00 1.0000e+00
       13  1    1    2    0    0 +1.5793634748e+02 +1.5961805307e+02 +7.9907014152e+01 2.3834207273e+02 0.0000000000e+00 0.0000e+00 -1.0000e+00
<mgrwt>
<rscale>  0 0.54798285E+03</rscale>
<asrwt>0</asrwt>
<pdfrwt beam="1">  1        2 0.31125805E-01 0.54798285E+03</pdfrwt>
<pdfrwt beam="2">  1       -2 0.57085609E-01 0.54798285E+03</pdfrwt>
<totfact> 0.61372435E+02</totfact>
</mgrwt>
<rwgt>
<wgt id='morphing_basis_vector_1'> +2.0067800e-04 </wgt>
<wgt id='morphing_basis_vector_2'> +1.1328599e-04 </wgt>
<wgt id='morphing_basis_vector_3'> +1.5138166e-04 </wgt>
<wgt id='morphing_basis_vector_4'> +5.8335281e-05 </wgt>
<wgt id='morphing_basis_vector_5'> +8.5956054e-05 </wgt>
</rwgt>
</event>
<event>
 4      1 +1.0153100e-05 5.75897600e+02 7.81860800e-03 9.24436100e-02
        2 -1    0    0  501    0 +0.0000000000e+00 +0.0000000000e+00 +1.5397395335e+03 1.5397395335e+03 0.0000000000e+00 0.0000e+00 -1.0000e+00
       -2 -1    0    0    0  501 -0.0000000000e+00 -0.0000000000e+00 -5.3849690310e+01 5.3849690310e+01 0.0000000000e+00 0.0000e+00 1.0000e+00
      -13  1    1    2    0    0 +1.2005594415e+02 +2.0272363482e+02 +2.8486666323e+02 3.6967461051e+02 0.0000000000e+00 0.0000e+00 1.0000e+00
       13  1    1    2    0    0 -1.2005594415e+02 -2.0272363482e+02 +1.2010231800e+03 1.2239146133e+03 0.0000000000e+00 0.0000e+00 -1.0000e+00
<mgrwt>
<rscale>  0 0.57589755E+03</rscale>
<asrwt>0</asrwt>
<pdfrwt beam="1">  1        2 0.23688297E+00 0.57589755E+03</pdfrwt>
<pdfrwt beam="2">  1       -2 0.82845689E-02 0.57589755E+03</pdfrwt>
<totfact> 0.12570677E+03</totfact>
</mgrwt>
<rwgt>
<wgt id='morphing_basis_vector_1'> +2.3490999e-04 </wgt>
<wgt id='morphing_basis_vector_2'> +1.3389283e-04 </wgt>
<wgt id='morphing_basis_vector_3'> +1.8194427e-04 </wgt>
<wgt id='morphing_basis_vector_4'> +7.4708307e-05 </wgt>
<wgt id='morphing_basis_vector_5'> +1.1206477e-04 </wgt>
</rwgt>
</event>
<event>
 4      1 +1.0153100e-05 5.33487600e+02 7.81860800e-03 9.32780400e-02
        2 -1    0    0  501    0 +0.0000000000e+00 +0.0000000000e+00 +2.0422742459e+02 2.0422742459e+02 0.0000000000e+00 0.0000e+00 -1.0000e+00
       -2 -1    0    0    0  501 -0.0000000000e+00 -0.0000000000e+00 -3.4839722177e+02 3.4839722177e+02 0.0000000000e+00 0.0000e+00 1.0000e+00
      -13  1    1    2    0    0 +1.4297929013e+02 +6.2954412601e+01 -2.9604868089e+02 3.3474043217e+02 0.0000000000e+00 0.0000e+00 1.0000e+00
       13  1    1    2    0    0 -1.4297929013e+02 -6.2954412601e+01 +1.5187888372e+02 2.1788421419e+02 0.0000000000e+00 0.0000e+00 -1.0000e+00
<mgrwt>
<rscale>  0 0.53348765E+03</rscale>
<asrwt>0</asrwt>
<pdfrwt beam="1">  1        2 0.31419604E-01 0.53348765E+03</pdfrwt>
<pdfrwt beam="2">  1       -2 0.53599573E-01 0.53348765E+03</pdfrwt>
<totfact> 0.68863666E+02</totfact>
</mgrwt>
<rwgt>
<wgt id='morphing_basis_vector_1'> +1.8415805e-04 </wgt>
<wgt id='morphing_basis_vector_2'> +1.0236375e-04 </wgt>
<wgt id='morphing_basis_vector_3'> +1.3733975e-04 </wgt>
<wgt id='morphing_basis_vector_4'> +5.1188184e-05 </wgt>
<wgt id='morphing_basis_vector_5'> +7.4193278e-05 </wgt>
</rwgt>
</event>
<event>
 4      1 +1.0153100e-05 5.78783600e+02 7.81860800e-03 9.23896200e-02
        2 -1    0    0  501    0 +0.0000000000e+00 +0.0000000000e+00 +7.6536450687e+02 7.6536450687e+02 0.0000000000e+00 0.0000e+00 -1.0000e+00
       -2 -1    0    0    0  501 -0.0000000000e+00 -0.0000000000e+00 -1.0942186942e+02 1.0942186942e+02 0.0000000000e+00 0.0000e+00 1.0000e+00
      -13  1    1    2    0    0 +5.9295623804e+01 +1.4733787029e+02 -3.7665405093e+01 1.6322714775e+02 0.0000000000e+00 0.0000e+00 1.0000e+00
       13  1    1    2    0    0 -5.9295623804e+01 -1.4733787029e+02 +6.9360804255e+02 7.1155922853e+02 0.0000000000e+00 0.0000e+00 -1.0000e+00
<mgrwt>
<rscale>  0 0.57878360E+03</rscale>
<asrwt>0</asrwt>
<pdfrwt beam="1">  1        2 0.11774838E+00 0.57878360E+03</pdfrwt>
<pdfrwt beam="2">  1       -2 0.16834134E-01 0.57878360E+03</pdfrwt>
<totfact> 0.11808224E+03</totfact>
</mgrwt>
<rwgt>
<wgt id='morphing_basis_vector_1'> +2.3813282e-04 </wgt>
<wgt id='morphing_basis_vector_2'> +1.3441641e-04 </wgt>
<wgt id='morphing_basis_vector_3'> +1.8540251e-04 </wgt>
<wgt id='morphing_basis_vector_4'> +7.6974117e-05 </wgt>
<wgt id='morphing_basis_vector_5'> +1.1503409e-04 </wgt>
</rwgt>
</event>
<event>
 4      1 +1.0153100e-05 5.79600700e+02 7.81860800e-03 9.23743900e-02
        2 -1    0    0  501    0 +0.0000000000e+00 +0.0000000000e+00 +1.2908224935e+03 1.2908224935e+03 0.0000000000e+00 0.0000e+00 1.0000e+00
       -2 -1    0    0    0  501 -0.0000000000e+00 -0.0000000000e+00 -6.5062582381e+01 6.5062582381e+01 0.0000000000e+00 0.0000e+00 -1.0000e+00
      -13  1    1    2    0    0 -2.1003463842e+02 +1.4894713889e+01 +1.4707537329e+02 2.5684152169e+02 0.0000000000e+00 0.0000e+00 -1.0000e+00
       13  1    1    2    0    0 +2.1003463842e+02 -1.4894713889e+01 +1.0786845379e+03 1.0990435542e+03 0.0000000000e+00 0.0000e+00 1.0000e+00
<mgrwt>
<rscale>  0 0.57960071E+03</rscale>
<asrwt>0</asrwt>
<pdfrwt beam="1">  1        2 0.19858806E+00 0.57960071E+03</pdfrwt>
<pdfrwt beam="2">  1       -2 0.10009629E-01 0.57960071E+03</pdfrwt>
<totfact> 0.12848161E+03</totfact>
</mgrwt>
<rwgt>
<wgt id='morphing_basis_vector_1'> +2.3944871e-04 </wgt>
<wgt id='morphing_basis_vector_2'> +1.3579472e-04 </wgt>
<wgt id='morphing_basis_vector_3'> +1.8636487e-04 </wgt>
<wgt id='morphing_basis_vector_4'> +7.7346614e-05 </wgt>
<wgt id='morphing_basis_vector_5'> +1.1588957e-04 </wgt>
</rwgt>
</event>
<event>
 4      1 +1.0153100e-05 6.03695900e+02 7.81860800e-03 9.19369900e-02
        2 -1    0    0  501    0 +0.0000000000e+00 +0.0000000000e+00 +9.3097565672e+02 9.3097565672e+02 0.0000000000e+00 0.0000e+00 -1.0000e+00
       -2 -1    0    0    0  501 -0.0000000000e+00 -0.0000000000e+00 -9.7867425858e+01 9.7867425858e+01 0.0000000000e+00 0.0000e+00 1.0000e+00
      -13  1    1    2    0    0 -9.5416187411e+01 -2.7351723033e+02 +2.7198200068e+02 3.9735391378e+02 0.0000000000e+00 0.0000e+00 1.0000e+00
       13  1    1    2    0    0 +9.5416187411e+01 +2.7351723033e+02 +5.6112623019e+02 6.3148916880e+02 0.0000000000e+00 0.0000e+00 -1.0000e+00
<mgrwt>
<rscale>  0 0.60369592E+03</rscale>
<asrwt>0</asrwt>
<pdfrwt beam="1">  1        2 0.14322702E+00 0.60369592E+03</pdfrwt>
<pdfrwt beam="2">  1       -2 0.15056528E-01 0.60369592E+03</pdfrwt>
<totfact> 0.10962172E+03</totfact>
</mgrwt>
<rwgt>
<wgt id='morphing_basis_vector_1'> +2.7596557e-04 </wgt>
<wgt id='morphing_basis_vector_2'> +1.6483897e-04 </wgt>
<wgt id='morphing_basis_vector_3'> +2.1716508e-04 </wgt>
<wgt id='morphing_basis_vector_4'> +9.2248654e-05 </wgt>
<wgt id='morphing_basis_vector_5'> +1.4305701e-04 </wgt>
</rwgt>
</event>
<event>
 4      1 +1.0153100e-05 5.86517000e+02 7.81860800e-03 9.22465700e-02
        2 -1    0    0  501    0 +0.0000000000e+00 +0.0000000000e+00 +1.0091370130e+03 1.0091370130e+03 0.0000000000e+00 0.0000e+00 -1.0000e+00
       -2 -1    0    0    0  501 -0.0000000000e+00 -0.0000000000e+00 -8.5221884028e+01 8.5221884028e+01 0.0000000000e+00 0.0000e+00 1.0000e+00
      -13  1    1    2    0    0 -6.8362307375e+01 +2.7717879353e+02 +3.3680479536e+02 4.4151892239e+02 0.0000000000e+00 0.0000e+00 1.0000e+00
       13  1    1    2    0    0 +6.8362307375e+01 -2.7717879353e+02 +5.8711033362e+02 6.5283997464e+02 0.0000000000e+00 0.0000e+00 -1.0000e+00
<mgrwt>
<rscale>  0 0.58651703E+03</rscale>
<asrwt>0</asrwt>
<pdfrwt beam="1">  1        2 0.15525184E+00 0.58651703E+03</pdfrwt>
<pdfrwt beam="2">  1       -2 0.13111060E-01 0.58651703E+03</pdfrwt>
<totfact> 0.12241745E+03</totfact>
</mgrwt>
<rwgt>
<wgt id='morphing_basis_vector_1'> +2.5197027e-04 </wgt>
<wgt id='morphing_basis_vector_2'> +1.5135782e-04 </wgt>
<wgt id='morphing_basis_vector_3'> +1.9469710e-04 </wgt>
<wgt id='morphing_basis_vector_4'> +7.9669992e-05 </wgt>
<wgt id='morphing_basis_vector_5'> +1.2331301e-04 </wgt>
</rwgt>
</event>
<event>
 4      1 +1.0153100e-05 5.83645000e+02 7.81860800e-03 9.22994200e-02
        2 -1    0    0  501    0 +0.0000000000e+00 +0.0000000000e+00 +6.0983111388e+02 6.0983111388e+02 0.0000000000e+00 0.0000e+00 -1.0000e+00
       -2 -1    0    0    0  501 -0.0000000000e+00 -0.0000000000e+00 -1.3964583089e+02 1.3964583089e+02 0.0000000000e+00 0.0000e+00 1.0000e+00
      -13  1    1    2    0    0 +1.8934106051e+02 -2.0004582491e+02 +1.1130873504e+02 2.9708248645e+02 0.0000000000e+00 0.0000e+00 1.0000e+00
       13  1    1    2    0    0 -1.8934106051e+02 +2.0004582491e+02 +3.5887654795e+02 4.5239445832e+02 0.0000000000e+00 0.0000e+00 -1.0000e+00
<mgrwt>
<rscale>  0 0.58364500E+03</rscale>
<asrwt>0</asrwt>
<pdfrwt beam="1">  1        2 0.93820170E-01 0.58364500E+03</pdfrwt>
<pdfrwt beam="2">  1       -2 0.21483974E-01 0.58364500E+03</pdfrwt>
<totfact> 0.10384961E+03</totfact>
</mgrwt>
<rwgt>
<wgt id='morphing_basis_vector_1'> +2.4680851e-04 </wgt>
<wgt id='morphing_basis_vector_2'> +1.4509913e-04 </wgt>
<wgt id='morphing_basis_vector_3'> +1.9117663e-04 </wgt>
<wgt id='morphing_basis_vector_4'> +7.8647029e-05 </wgt>
<wgt id='morphing_basis_vector_5'> +1.2019465e-04 </wgt>
</rwgt>
</event>
<event>
 4      1 +1.0153100e-05 5.76649800e+02 7.81860800e-03 9.24295000e-02
        2 -1    0    0  501    0 +0.0000000000e+00 +0.0000000000e+00 +2.6986444234e+03 2.6986444234e+03 0.0000000000e+00 0.0000e+00 1.0000e+00
       -2 -1    0    0    0  501 -0.0000000000e+00 -0.0000000000e+00 -3.0804817047e+01 3.0804817047e+01 0.0000000000e+00 0.0000e+00 -1.0000e+00
      -13  1    1    2    0    0 -3.8304978888e+01 -2.8572574032e+02 +1.3574807597e+03 1.3877537544e+03 0.0000000000e+00 0.0000e+00 -1.0000e+00
       13  1    1    2    0    0 +3.8304978888e+01 +2.8572574032e+02 +1.3103588467e+03 1.3416954860e+03 0.0000000000e+00 0.0000e+00 1.0000e+00
<mgrwt>
<rscale>  0 0.57664980E+03</rscale>
<asrwt>0</asrwt>
<pdfrwt beam="1">  1        2 0.41517588E+00 0.57664980E+03</pdfrwt>
<pdfrwt beam="2">  1       -2 0.47392047E-02 0.57664980E+03</pdfrwt>
<totfact> 0.66310366E+02</totfact>
</mgrwt>
<rwgt>
<wgt id='morphing_basis_vector_1'> +2.4373367e-04 </wgt>
<wgt id='morphing_basis_vector_2'> +1.5881894e-04 </wgt>
<wgt id='morphing_basis_vector_3'> +1.8226951e-04 </wgt>
<wgt id='morphing_basis_vector_4'> +6.9762166e-05 </wgt>
<wgt id='morphing_basis_vector_5'> +1.1293852e-04 </wgt>
</rwgt>
</event>
<event>
 4      1 +1.0153100e-05 6.14734800e+02 7.81860800e-03 9.17437500e-02
        2 -1    0    0  501    0 +0.0000000000e+00 +0.0000000000e+00 +3.6087407465e+02 3.6087407465e+02 0.0000000000e+00 0.0000e+00 1.0000e+00
       -2 -1    0    0    0  501 -0.0000000000e+00 -0.0000000000e+00 -2.6179414801e+02 2.6179414801e+02 0.0000000000e+00 0.0000e+00 -1.0000e+00
      -13  1    1    2    0    0 -9.4310799341e+01 -1.3156932582e+02 -2.1511675069e+02 2.6922152737e+02 0.0000000000e+00 0.0000e+00 -1.0000e+00
       13  1    1    2    0    0 +9.4310799341e+01 +1.3156932582e+02 +3.1419667733e+02 3.5344669529e+02 0.0000000000e+00 0.0000e+00 1.0000e+00
<mgrwt>
<rscale>  0 0.61473481E+03</rscale>
<asrwt>0</asrwt>
<pdfrwt beam="1">  1        2 0.55519089E-01 0.61473481E+03</pdfrwt>
<pdfrwt beam="2">  1       -2 0.40276022E-01 0.61473481E+03</pdfrwt>
<totfact> 0.62551337E+02</totfact>
</mgrwt>
<rwgt>
<wgt id='morphing_basis_vector_1'> +2.8957128e-04 </wgt>
<wgt id='morphing_basis_vector_2'> +1.6545205e-04 </wgt>
<wgt id='morphing_basis_vector_3'> +2.3239245e-04 </wgt>
<wgt id='morphing_basis_vector_4'> +1.0334480e-04 </wgt>
<wgt id='morphing_basis_vector_5'> +1.5684910e-04 </wgt>
</rwgt>
</event>
<event>
 4      1 +1.0153100e-05 5.34673700e+02 7.81860800e-03 9.32536000e-02
        2 -1    0    0  501    0 +0.0000000000e+00 +0.0000000000e+00 +2.9260322189e+02 2.9260322189e+02 0.0000000000e+00 0.0000e+00 1.0000e+00
       -2 -1    0    0    0  501 -0.0000000000e+00 -0.0000000000e+00 -2.4425219302e+02 2.4425219302e+02 0.0000000000e+00 0.0000e+00 -1.0000e+00
      -13  1    1    2    0    0 +5.4342279644e+01 -1.8081125509e+02 -1.6586695027e+02 2.5131183521e+02 0.0000000000e+00 0.0000e+00 -1.0000e+00
       13  1    1    2    0    0 -5.4342279644e+01 +1.8081125509e+02 +2.1421797914e+02 2.8554357971e+02 0.0000000000e+00 0.0000e+00 1.0000e+00
<mgrwt>
<rscale>  0 0.53467365E+03</rscale>
<asrwt>0</asrwt>
<pdfrwt beam="1">  1        2 0.45015881E-01 0.53467365E+03</pdfrwt>
<pdfrwt beam="2">  1       -2 0.37577260E-01 0.53467365E+03</pdfrwt>
<totfact> 0.89958377E+02</totfact>
</mgrwt>
<rwgt>
<wgt id='morphing_basis_vector_1'> +1.8555528e-04 </wgt>
<wgt id='morphing_basis_vector_2'> +1.0350006e-04 </wgt>
<wgt id='morphing_basis_vector_3'> +1.3842289e-04 </wgt>
<wgt id='morphing_basis_vector_4'> +5.1700556e-05 </wgt>
<wgt id='morphing_basis_vector_5'> +7.5114429e-05 </wgt>
</rwgt>
</event>
<event>
 4      1 +1.0153100e-05 5.96422500e+02 7.81860800e-03 9.20667200e-02
        2 -1    0    0  501    0 +0.0000000000e+00 +0.0000000000e+00 +1.4252266734e+02 1.4252266734e+02 0.0000000000e+00 0.0000e+00 -1.0000e+00
       -2 -1    0    0    0  501 -0.0000000000e+00 -0.0000000000e+00 -6.2397061899e+02 6.2397061899e+02 0.0000000000e+00 0.0000e+00 1.0000e+00
      -13  1    1    2    0    0 -1.8007187183e+02 -3.1339093949e+01 -5.4354542351e+02 5.7345413527e+02 0.0000000000e+00 0.0000e+00 1.0000e+00
       13  1    1    2    0    0 +1.8007187183e+02 +3.1339093949e+01 +6.2097471861e+01 1.9303915107e+02 0.0000000000e+00 0.0000e+00 -1.0000e+00
<mgrwt>
<rscale>  0 0.59642252E+03</rscale>
<asrwt>0</asrwt>
<pdfrwt beam="1">  1        2 0.21926564E-01 0.59642252E+03</pdfrwt>
<pdfrwt beam="2">  1       -2 0.95995480E-01 0.59642252E+03</pdfrwt>
<totfact> 0.29676952E+02</totfact>
</mgrwt>
<rwgt>
<wgt id='morphing_basis_vector_1'> +2.6241911e-04 </wgt>
<wgt id='morphing_basis_vector_2'> +1.4917990e-04 </wgt>
<wgt id='morphing_basis_vector_3'> +2.0740834e-04 </wgt>
<wgt id='morphing_basis_vector_4'> +8.9158894e-05 </wgt>
<wgt id='morphing_basis_vector_5'> +1.3442797e-04 </wgt>
</rwgt>
</event>
<event>
 4      1 +1.0153100e-05 5.84625100e+02 7.81860800e-03 9.22813500e-02
        2 -1    0    0  501    0 +0.0000000000e+00 +0.0000000000e+00 +2.5087900189e+02 2.5087900189e+02 0.0000000000e+00 0.0000e+00 -1.0000e+00
       -2 -1    0    0    0  501 -0.0000000000e+00 -0.0000000000e+00 -3.4058901778e+02 3.4058901778e+02 0.0000000000e+00 0.0000e+00 1.0000e+00
      -13  1    1    2    0    0 -1.1121590053e+02 +1.2410259506e+02 -2.8782471111e+02 3.3258607150e+02 0.0000000000e+00 0.0000e+00 1.0000e+00
       13  1    1    2    0    0 +1.1121590053e+02 -1.2410259506e+02 +1.9811469521e+02 2.5888194817e+02 0.0000000000e+00 0.0000e+00 -1.0000e+00
<mgrwt>
<rscale>  0 0.58462512E+03</rscale>
<asrwt>0</asrwt>
<pdfrwt beam="1">  1        2 0.38596770E-01 0.58462512E+03</pdfrwt>
<pdfrwt beam="2">  1       -2 0.52398310E-01 0.58462512E+03</pdfrwt>
<totfact> 0.56934432E+02</totfact>
</mgrwt>
<rwgt>
<wgt id='morphing_basis_vector_1'> +2.4596190e-04 </wgt>
<wgt id='morphing_basis_vector_2'> +1.3915663e-04 </wgt>
<wgt id='morphing_basis_vector_3'> +1.9247297e-04 </wgt>
<wgt id='morphing_basis_vector_4'> +8.0868076e-05 </wgt>
<wgt id='morphing_basis_vector_5'> +1.2122602e-04 </wgt>
</rwgt>
</event>
<event>
 4      1 +1.0153100e-05 5.86003600e+02 7.81860800e-03 9.22559900e-02
        2 -1    0    0  501    0 +0.0000000000e+00 +0.0000000000e+00 +1.9984937871e+03 1.9984937871e+03 0.0000000000e+00 0.0000e+00 -1.0000e+00
       -2 -1    0    0    0  501 -0.0000000000e+00 -0.0000000000e+00 -4.2957379026e+01 4.2957379026e+01 0.0000000000e+00 0.0000e+00 1.0000e+00
      -13  1    1    2    0    0 -5.4751250124e+01 -2.8780572668e+02 +9.6210347802e+02 1.0057201092e+03 0.0000000000e+00 0.0000e+00 1.0000e+00
       13  1    1    2    0    0 +5.4751250124e+01 +2.8780572668e+02 +9.9343293009e+02 1.0357310569e+03 0.0000000000e+00 0.0000e+00 -1.0000e+00
<mgrwt>
<rscale>  0 0.58600360E+03</rscale>
<asrwt>0</asrwt>
<pdfrwt beam="1">  1        2 0.30746051E+00 0.58600360E+03</pdfrwt>
<pdfrwt beam="2">  1       -2 0.66088291E-02 0.58600360E+03</pdfrwt>
<totfact> 0.10011975E+03</totfact>
</mgrwt>
<rwgt>
<wgt id='morphing_basis_vector_1'> +2.5569653e-04 </wgt>
<wgt id='morphing_basis_vector_2'> +1.6467170e-04 </wgt>
<wgt id='morphing_basis_vector_3'> +1.9390134e-04 </wgt>
<wgt id='morphing_basis_vector_4'> +7.6116110e-05 </wgt>
<wgt id='morphing_basis_vector_5'> +1.2279756e-04 </wgt>
</rwgt>
</event>
<event>
 4      1 +1.0153100e-05 5.51983600e+02 7.81860800e-03 9.29043200e-02
        2 -1    0    0  501    0 +0.0000000000e+00 +0.0000000000e+00 +8.7042200441e+02 8.7042200441e+02 0.0000000000e+00 0.0000e+00 -1.0000e+00
       -2 -1    0    0    0  501 -0.0000000000e+00 -0.0000000000e+00 -8.7510956548e+01 8.7510956548e+01 0.0000000000e+00 0.0000e+00 1.0000e+00
      -13  1    1    2    0    0 -1.3566633892e+02 -8.3062986242e+01 +5.1279835586e-02 1.5907488120e+02 0.0000000000e+00 0.0000e+00 1.0000e+00
       13  1    1    2    0    0 +1.3566633892e+02 +8.3062986242e+01 +7.8285976802e+02 7.9885807976e+02 0.0000000000e+00 0.0000e+00 -1.0000e+00
<mgrwt>
<rscale>  0 0.55198356E+03</rscale>
<asrwt>0</asrwt>
<pdfrwt beam="1">  1        2 0.13391107E+00 0.55198356E+03</pdfrwt>
<pdfrwt beam="2">  1       -2 0.13463225E-01 0.55198356E+03</pdfrwt>
<totfact> 0.14363339E+03</totfact>
</mgrwt>
<rwgt>
<wgt id='morphing_basis_vector_1'> +2.0483980e-04 </wgt>
<wgt id='morphing_basis_vector_2'> +1.1458213e-04 </wgt>
<wgt id='morphing_basis_vector_3'> +1.5557148e-04 </wgt>
<wgt id='morphing_basis_vector_4'> +6.0790740e-05 </wgt>
<wgt id='morphing_basis_vector_5'> +8.9399413e-05 </wgt>
</rwgt>
</event>
<event>
 4      1 +1.0153100e-05 5.41573700e+02 7.81860800e-03 9.31127100e-02
        2 -1    0    0  501    0 +0.0000000000e+00 +0.0000000000e+00 +5.4242525925e+02 5.4242525925e+02 0.0000000000e+00 0.0000e+00 -1.0000e+00
       -2 -1    0    0    0  501 -0.0000000000e+00 -0.0000000000e+00 -1.3518084635e+02 1.3518084635e+02 0.0000000000e+00 0.0000e+00 1.0000e+00
      -13  1    1    2    0    0 +1.1615572710e+02 -2.0900497923e+02 +4.4617604684e+01 2.4324054951e+02 0.0000000000e+00 0.0000e+00 1.0000e+00
       13  1    1    2    0    0 -1.1615572710e+02 +2.0900497923e+02 +3.6262680822e+02 4.3436555609e+02 0.0000000000e+00 0.0000e+00 -1.0000e+00
<mgrwt>
<rscale>  0 0.54157365E+03</rscale>
<asrwt>0</asrwt>
<pdfrwt beam="1">  1        2 0.83450039E-01 0.54157365E+03</pdfrwt>
<pdfrwt beam="2">  1       -2 0.20797054E-01 0.54157365E+03</pdfrwt>
<totfact> 0.12560327E+03</totfact>
</mgrwt>
<rwgt>
<wgt id='morphing_basis_vector_1'> +1.9381988e-04 </wgt>
<wgt id='morphing_basis_vector_2'> +1.1017752e-04 </wgt>
<wgt id='morphing_basis_vector_3'> +1.4489917e-04 </wgt>
<wgt id='morphing_basis_vector_4'> +5.4760499e-05 </wgt>
<wgt id='morphing_basis_vector_5'> +8.0625059e-05 </wgt>
</rwgt>
</event>
<event>
 4      1 +1.0153100e-05 5.49678800e+02 7.81860800e-03 9.29500400e-02
        2 -1    0    0  501    0 +0.0000000000e+00 +0.0000000000e+00 +1.2980576014e+03 1.2980576014e+03 0.0000000000e+00 0.0000e+00 1.0000e+00
       -2 -1    0    0    0  501 -0.0000000000e+00 -0.0000000000e+00 -5.8192107437e+01 5.8192107437e+01 0.0000000000e+00 0.0000e+00 -1.0000e+00
      -13  1    1    2    0    0 -2.1684807571e+02 +7.4764554912e+01 +2.4636041125e+02 3.3660998031e+02 0.0000000000e+00 0.0000e+00 -1.0000e+00
       13  1    1    2    0    0 +2.1684807571e+02 -7.4764554912e+01 +9.9350508270e+02 1.0196397285e+03 0.0000000000e+00 0.0000e+00 1.0000e+00
<mgrwt>
<rscale>  0 0.54967884E+03</rscale>
<asrwt>0</asrwt>
<pdfrwt beam="1">  1        2 0.19970115E+00 0.54967884E+03</pdfrwt>
<pdfrwt beam="2">  1       -2 0.89526328E-02 0.54967884E+03</pdfrwt>
<totfact> 0.15165508E+03</totfact>
</mgrwt>
<rwgt>
<wgt id='morphing_basis_vector_1'> +2.0270943e-04 </wgt>
<wgt id='morphing_basis_vector_2'> +1.1469108e-04 </wgt>
<wgt id='morphing_basis_vector_3'> +1.5309785e-04 </wgt>
<wgt id='morphing_basis_vector_4'> +5.9201821e-05 </wgt>
<wgt id='morphing_basis_vector_5'> +8.7410558e-05 </wgt>
</rwgt>
</event>
<event>
 4      1 +1.0153100e-05 5.49342600e+02 7.81860800e-03 9.29567200e-02
        2 -1    0    0  501    0 +0.0000000000e+00 +0.0000000000e+00 +6.4175448894e+02 6.4175448894e+02 0.0000000000e+00 0.0000e+00 -1.0000e+00
       -2 -1    0    0    0  501 -0.0000000000e+00 -0.0000000000e+00 -1.1755949285e+02 1.1755949285e+02 0.0000000000e+00 0.0000e+00 1.0000e+00
      -13  1    1    2    0    0 -1.4053933745e+02 +2.3199680967e+02 +3.2187775570e+02 4.2092649558e+02 0.0000000000e+00 0.0000e+00 1.0000e+00
       13  1    1    2    0    0 +1.4053933745e+02 -2.3199680967e+02 +2.0231724038e+02 3.3838748621e+02 0.0000000000e+00 0.0000e+00 -1.0000e+00
<mgrwt>
<rscale>  0 0.54934263E+03</rscale>
<asrwt>0</asrwt>
<pdfrwt beam="1">  1        2 0.98731458E-01 0.54934263E+03</pdfrwt>
<pdfrwt beam="2">  1       -2 0.18086076E-01 0.54934263E+03</pdfrwt>
<totfact> 0.13009603E+03</totfact>
</mgrwt>
<rwgt>
<wgt id='morphing_basis_vector_1'> +2.1350443e-04 </wgt>
<wgt id='morphing_basis_vector_2'> +1.4919318e-04 </wgt>
<wgt id='morphing_basis_vector_3'> +1.5067754e-04 </wgt>
<wgt id='morphing_basis_vector_4'> +5.2367107e-05 </wgt>
<wgt id='morphing_basis_vector_5'> +8.7377014e-05 </wgt>
</rwgt>
</event>
<event>
 4      1 +1.0153100e-05 6.19133800e+02 7.81860800e-03 9.16679300e-02
        2 -1    0    0  501    0 +0.0000000000e+00 +0.0000000000e+00 +2.8421424701e+02 2.8421424701e+02 0.0000000000e+00 0.0000e+00 -1.0000e+00
       -2 -1    0    0    0  501 -0.0000000000e+00 -0.0000000000e+00 -3.3718107998e+02 3.3718107998e+02 0.0000000000e+00 0.0000e+00 1.0000e+00
      -13  1    1    2    0    0 +1.9158848228e+02 +2.0500089394e+02 -1.5772862989e+02 3.2188481440e+02 0.0000000000e+00 0.0000e+00 1.0000e+00
       13  1    1    2    0    0 -1.9158848228e+02 -2.0500089394e+02 +1.0476179692e+02 2.9951051259e+02 0.0000000000e+00 0.0000e+00 -1.0000e+00
<mgrwt>
<rscale>  0 0.61913380E+03</rscale>
<asrwt>0</asrwt>
<pdfrwt beam="1">  1        2 0.43725269E-01 0.61913380E+03</pdfrwt>
<pdfrwt beam="2">  1       -2 0.51874012E-01 0.61913380E+03</pdfrwt>
<totfact> 0.50401959E+02</totfact>
</mgrwt>
<rwgt>
<wgt id='morphing_basis_vector_1'> +2.9817892e-04 </wgt>
<wgt id='morphing_basis_vector_2'> +1.7502019e-04 </wgt>
<wgt id='morphing_basis_vector_3'> +2.3888989e-04 </wgt>
<wgt id='morphing_basis_vector_4'> +1.0552240e-04 </wgt>
<wgt id='morphing_basis_vector_5'> +1.6259670e-04 </wgt>
</rwgt>
</event>
<event>
 4      1 +1.0153100e-05 6.03557900e+02 7.81860800e-03 9.19394300e-02
        2 -1    0    0  501    0 +0.0000000000e+00 +0.0000000000e+00 +1.2128826677e+03 1.2128826677e+03 0.0000000000e+00 0.0000e+00 1.0000e+00
       -2 -1    0    0    0  501 -0.0000000000e+00 -0.0000000000e+00 -7.5086031366e+01 7.5086031366e+01 0.0000000000e+00 0.0000e+00 -1.0000e+00
      -13  1    1    2    0    0 -9.7488849437e+01 +2.7326204910e+02 +7.4608543811e+02 8.0051215119e+02 0.0000000000e+00 0.0000e+00 1.0000e+00
       13  1    1    2    0    0 +9.7488849437e+01 -2.7326204910e+02 +3.9171119818e+02 4.8745654783e+02 0.0000000000e+00 0.0000e+00 -1.0000e+00
<mgrwt>
<rscale>  0 0.60355794E+03</rscale>
<asrwt>0</asrwt>
<pdfrwt beam="1">  1        2 0.18659732E+00 0.60355794E+03</pdfrwt>
<pdfrwt beam="2">  1       -2 0.11551698E-01 0.60355794E+03</pdfrwt>
<totfact> 0.11346107E+03</totfact>
</mgrwt>
<rwgt>
<wgt id='morphing_basis_vector_1'> +2.9663556e-04 </wgt>
<wgt id='morphing_basis_vector_2'> +2.2942626e-04 </wgt>
<wgt id='morphing_basis_vector_3'> +2.1766027e-04 </wgt>
<wgt id='morphing_basis_vector_4'> +7.5824477e-05 </wgt>
<wgt id='morphing_basis_vector_5'> +1.4296838e-04 </wgt>
</rwgt>
</event>
<event>
 4      1 +1.0153100e-05 5.21722000e+02 7.81860800e-03 9.35243000e-02
        2 -1    0    0  501    0 +0.0000000000e+00 +0.0000000000e+00 +8.0530210797e+02 8.0530210797e+02 0.0000000000e+00 0.0000e+00 1.0000e+00
       -2 -1    0    0    0  501 -0.0000000000e+00 -0.0000000000e+00 -8.4500549415e+01 8.4500549415e+01 0.0000000000e+00 0.0000e+00 -1.0000e+00
      -13  1    1    2    0    0 -1.1557122349e+02 +2.0880987508e+02 +1.8079339552e+02 2.9940695298e+02 0.0000000000e+00 0.0000e+00 -1.0000e+00
       13  1    1    2    0    0 +1.1557122349e+02 -2.0880987508e+02 +5.4000816303e+02 5.9039570440e+02 0.0000000000e+00 0.0000e+00 1.0000e+00
<mgrwt>
<rscale>  0 0.52172204E+03</rscale>
<asrwt>0</asrwt>
<pdfrwt beam="1">  1        2 0.12389263E+00 0.52172204E+03</pdfrwt>
<pdfrwt beam="2">  1       -2 0.13000085E-01 0.52172204E+03</pdfrwt>
<totfact> 0.16794604E+03</totfact>
</mgrwt>
<rwgt>
<wgt id='morphing_basis_vector_1'> +1.7296395e-04 </wgt>
<wgt id='morphing_basis_vector_2'> +9.8427415e-05 </wgt>
<wgt id='morphing_basis_vector_3'> +1.2635301e-04 </wgt>
<wgt id='morphing_basis_vector_4'> +4.5184231e-05 </wgt>
<wgt id='morphing_basis_vector_5'> +6.5532802e-05 </wgt>
</rwgt>
</event>
<event>
 4      1 +1.0153100e-05 5.34034000e+02 7.81860800e-03 9.32667700e-02
        2 -1    0    0  501    0 +0.0000000000e+00 +0.0000000000e+00 +1.7774895237e+02 1.7774895237e+02 0.0000000000e+00 0.0000e+00 1.0000e+00
       -2 -1    0    0    0  501 -0.0000000000e+00 -0.0000000000e+00 -4.0111671863e+02 4.0111671863e+02 0.0000000000e+00 0.0000e+00 -1.0000e+00
      -13  1    1    2    0    0 +1.8913345377e+02 +1.5893878668e+02 -2.2150603817e+02 3.3181007548e+02 0.0000000000e+00 0.0000e+00 -1.0000e+00
       13  1    1    2    0    0 -1.8913345377e+02 -1.5893878668e+02 -1.8617280840e+00 2.4705559552e+02 0.0000000000e+00 0.0000e+00 1.0000e+00
<mgrwt>
<rscale>  0 0.53403399E+03</rscale>
<asrwt>0</asrwt>
<pdfrwt beam="1">  1        2 0.27345993E-01 0.53403399E+03</pdfrwt>
<pdfrwt beam="2">  1       -2 0.61710265E-01 0.53403399E+03</pdfrwt>
<totfact> 0.60851187E+02</totfact>
</mgrwt>
<rwgt>
<wgt id='morphing_basis_vector_1'> +1.8601815e-04 </wgt>
<wgt id='morphing_basis_vector_2'> +1.0666795e-04 </wgt>
<wgt id='morphing_basis_vector_3'> +1.3752950e-04 </wgt>
<wgt id='morphing_basis_vector_4'> +5.0770104e-05 </wgt>
<wgt id='morphing_basis_vector_5'> +7.4651152e-05 </wgt>
</rwgt>
</event>
<event>
 4      1 +1.0153100e-05 6.13219400e+02 7.81860800e-03 9.17700200e-02
        2 -1    0    0  501    0 +0.0000000000e+00 +0.0000000000e+00 +2.6813343770e+02 2.6813343770e+02 0.0000000000e+00 0.0000e+00 -1.0000e+00
       -2 -1    0    0    0  501 -0.0000000000e+00 -0.0000000000e+00 -3.5060721316e+02 3.5060721316e+02 0.0000000000e+00 0.0000e+00 1.0000e+00
      -13  1    1    2    0    0 -1.7381672576e+02 +2.0099750223e+02 -1.9557575585e+02 3.2994261066e+02 0.0000000000e+00 0.0000e+00 -1.0000e+00
       13  1    1    2    0    0 +1.7381672576e+02 -2.0099750223e+02 +1.1310198039e+02 2.8879804020e+02 0.0000000000e+00 0.0000e+00 1.0000e+00
<mgrwt>
<rscale>  0 0.61321943E+03</rscale>
<asrwt>0</asrwt>
<pdfrwt beam="1">  1        2 0.41251298E-01 0.61321943E+03</pdfrwt>
<pdfrwt beam="2">  1       -2 0.53939571E-01 0.61321943E+03</pdfrwt>
<totfact> 0.49826926E+02</totfact>
</mgrwt>
<rwgt>
<wgt id='morphing_basis_vector_1'> +2.8836122e-04 </wgt>
<wgt id='morphing_basis_vector_2'> +1.6752098e-04 </wgt>
<wgt id='morphing_basis_vector_3'> +2.3031597e-04 </wgt>
<wgt id='morphing_basis_vector_4'> +1.0120315e-04 </wgt>
<wgt id='morphing_basis_vector_5'> +1.5490201e-04 </wgt>
</rwgt>
</event>
<event>
 4      1 +1.0153100e-05 5.80744700e+02 7.81860800e-03 9.23531200e-02
        2 -1    0    0  501    0 +0.0000000000e+00 +0.0000000000e+00 +1.6828641231e+03 1.6828641231e+03 0.0000000000e+00 0.0000e+00 -1.0000e+00
       -2 -1    0    0    0  501 -0.0000000000e+00 -0.0000000000e+00 -5.0102735242e+01 5.0102735242e+01 0.0000000000e+00 0.0000e+00 1.0000e+00
      -13  1    1    2    0    0 -1.1329043250e+02 +2.6176284494e+02 +6.5398772187e+02 7.1348051791e+02 0.0000000000e+00 0.0000e+00 1.0000e+00
       13  1    1    2    0    0 +1.1329043250e+02 -2.6176284494e+02 +9.7877366597e+02 1.0194863404e+03 0.0000000000e+00 0.0000e+00 -1.0000e+00
<mgrwt>
<rscale>  0 0.58074468E+03</rscale>
<asrwt>0</asrwt>
<pdfrwt beam="1">  1        2 0.25890213E+00 0.58074468E+03</pdfrwt>
<pdfrwt beam="2">  1       -2 0.77081144E-02 0.58074468E+03</pdfrwt>
<totfact> 0.11743858E+03</totfact>
</mgrwt>
<rwgt>
<wgt id='morphing_basis_vector_1'> +2.4468092e-04 </wgt>
<wgt id='morphing_basis_vector_2'> +1.4822729e-04 </wgt>
<wgt id='morphing_basis_vector_3'> +1.8753463e-04 </wgt>
<wgt id='morphing_basis_vector_4'> +7.5480001e-05 </wgt>
<wgt id='morphing_basis_vector_5'> +1.1713398e-04 </wgt>
</rwgt>
</event>
<event>
 4      1 +1.0153100e-05 5.81240200e+02 7.81860800e-03 9.23439200e-02
        2 -1    0    0  501    0 +0.0000000000e+00 +0.0000000000e+00 +3.3539100973e+02 3.3539100973e+02 0.0000000000e+00 0.0000e+00 -1.0000e+00
       -2 -1    0    0    0  501 -0.0000000000e+00 -0.0000000000e+00 -2.5182560683e+02 2.5182560683e+02 0.0000000000e+00 0.0000e+00 1.0000e+00
      -13  1    1    2    0    0 -4.0449328912e+01 -2.8235660483e+02 +9.8020528663e+01 3.0161137999e+02 0.0000000000e+00 0.0000e+00 1.0000e+00
       13  1    1    2    0    0 +4.0449328912e+01 +2.8235660483e+02 -1.4455125770e+01 2.8560523657e+02 0.0000000000e+00 0.0000e+00 -1.0000e+00
<mgrwt>
<rscale>  0 0.58124021E+03</rscale>
<asrwt>0</asrwt>
<pdfrwt beam="1">  1        2 0.51598617E-01 0.58124021E+03</pdfrwt>
<pdfrwt beam="2">  1       -2 0.38742401E-01 0.58124021E+03</pdfrwt>
<totfact> 0.72995250E+02</totfact>
</mgrwt>
<rwgt>
<wgt id='morphing_basis_vector_1'> +2.5732236e-04 </wgt>
<wgt id='morphing_basis_vector_2'> +1.8580106e-04 </wgt>
<wgt id='morphing_basis_vector_3'> +1.8750130e-04 </wgt>
<wgt id='morphing_basis_vector_4'> +6.7317558e-05 </wgt>
<wgt id='morphing_basis_vector_5'> +1.1779440e-04 </wgt>
</rwgt>
</event>
<event>
 4      1 +1.0153100e-05 5.84504800e+02 7.81860800e-03 9.22835600e-02
        2 -1    0    0  501    0 +0.0000000000e+00 +0.0000000000e+00 +1.0065587278e+03 1.0065587278e+03 0.0000000000e+00 0.0000e+00 -1.0000e+00
       -2 -1    0    0    0  501 -0.0000000000e+00 -0.0000000000e+00 -8.4854931516e+01 8.4854931516e+01 0.0000000000e+00 0.0000e+00 1.0000e+00
      -13  1    1    2    0    0 -8.0482307922e+01 -2.2950019530e+02 +1.5824453466e+02 2.9015353570e+02 0.0000000000e+00 0.0000e+00 1.0000e+00
       13  1    1    2    0    0 +8.0482307922e+01 +2.2950019530e+02 +7.6345926160e+02 8.0126012359e+02 0.0000000000e+00 0.0000e+00 -1.0000e+00
<mgrwt>
<rscale>  0 0.58450482E+03</rscale>
<asrwt>0</asrwt>
<pdfrwt beam="1">  1        2 0.15485518E+00 0.58450482E+03</pdfrwt>
<pdfrwt beam="2">  1       -2 0.13054606E-01 0.58450482E+03</pdfrwt>
<totfact> 0.12371753E+03</totfact>
</mgrwt>
<rwgt>
<wgt id='morphing_basis_vector_1'> +2.4645971e-04 </wgt>
<wgt id='morphing_basis_vector_2'> +1.4110889e-04 </wgt>
<wgt id='morphing_basis_vector_3'> +1.9229852e-04 </wgt>
<wgt id='morphing_basis_vector_4'> +8.0310915e-05 </wgt>
<wgt id='morphing_basis_vector_5'> +1.2110311e-04 </wgt>
</rwgt>
</event>
<event>
 4      1 +1.0153100e-05 5.62884500e+02 7.81860800e-03 9.26913000e-02
        2 -1    0    0  501    0 +0.0000000000e+00 +0.0000000000e+00 +1.1240770854e+03 1.1240770854e+03 0.0000000000e+00 0.0000e+00 1.0000e+00
       -2 -1    0    0    0  501 -0.0000000000e+00 -0.0000000000e+00 -7.0466466529e+01 7.0466466529e+01 0.0000000000e+00 0.0000e+00 -1.0000e+00
      -13  1    1    2    0    0 +2.0129286874e+02 -1.9539281247e+02 +5.7485154351e+02 6.3964948780e+02 0.0000000000e+00 0.0000e+00 -1.0000e+00
       13  1    1    2    0    0 -2.0129286874e+02 +1.9539281247e+02 +4.7875907537e+02 5.5489406414e+02 0.0000000000e+00 0.0000e+00 1.0000e+00
<mgrwt>
<rscale>  0 0.56288450E+03</rscale>
<asrwt>0</asrwt>
<pdfrwt beam="1">  1        2 0.17293492E+00 0.56288450E+03</pdfrwt>
<pdfrwt beam="2">  1       -2 0.10840996E-01 0.56288450E+03</pdfrwt>
<totfact> 0.14130607E+03</totfact>
</mgrwt>
<rwgt>
<wgt id='morphing_basis_vector_1'> +2.2760531e-04 </wgt>
<wgt id='morphing_basis_vector_2'> +1.5249559e-04 </wgt>
<wgt id='morphing_basis_vector_3'> +1.6595668e-04 </wgt>
<wgt id='morphing_basis_vector_4'> +6.0778743e-05 </wgt>
<wgt id='morphing_basis_vector_5'> +9.9467467e-05 </wgt>
</rwgt>
</event>
<event>
 4      1 +1.0153100e-05 5.84258400e+02 7.81860800e-03 9.22881000e-02
        2 -1    0    0  501    0 +0.0000000000e+00 +0.0000000000e+00 +1.2103988677e+03 1.2103988677e+03 0.0000000000e+00 0.0000e+00 1.0000e+00
       -2 -1    0    0    0  501 -0.0000000000e+00 -0.0000000000e+00 -7.0505249791e+01 7.0505249791e+01 0.0000000000e+00 0.0000e+00 -1.0000e+00
      -13  1    1    2    0    0 -2.3735162338e+02 -9.5103421353e+01 +8.7967537189e+02 9.1608362816e+02 0.0000000000e+00 0.0000e+00 1.0000e+00
       13  1    1    2    0    0 +2.3735162338e+02 +9.5103421353e+01 +2.6021824601e+02 3.6482048933e+02 0.0000000000e+00 0.0000e+00 -1.0000e+00
<mgrwt>
<rscale>  0 0.58425842E+03</rscale>
<asrwt>0</asrwt>
<pdfrwt beam="1">  1        2 0.18621520E+00 0.58425842E+03</pdfrwt>
<pdfrwt beam="2">  1       -2 0.10846962E-01 0.58425842E+03</pdfrwt>
<totfact> 0.12578199E+03</totfact>
</mgrwt>
<rwgt>
<wgt id='morphing_basis_vector_1'> +2.8621020e-04 </wgt>
<wgt id='morphing_basis_vector_2'> +2.6527851e-04 </wgt>
<wgt id='morphing_basis_vector_3'> +1.9033728e-04 </wgt>
<wgt id='morphing_basis_vector_4'> +5.1343968e-05 </wgt>
<wgt id='morphing_basis_vector_5'> +1.2125743e-04 </wgt>
</rwgt>
</event>
<event>
 4      1 +1.0153100e-05 5.25358500e+02 7.81860800e-03 9.34474500e-02
        2 -1    0    0  501    0 +0.0000000000e+00 +0.0000000000e+00 +9.1547157671e+01 9.1547157671e+01 0.0000000000e+00 0.0000e+00 -1.0000e+00
       -2 -1    0    0    0  501 -0.0000000000e+00 -0.0000000000e+00 -7.5371404853e+02 7.5371404853e+02 0.0000000000e+00 0.0000e+00 1.0000e+00
      -13  1    1    2    0    0 -2.0896118198e+02 +6.7700160807e+01 -5.6285932264e+02 6.0420088086e+02 0.0000000000e+00 0.0000e+00 1.0000e+00
       13  1    1    2    0    0 +2.0896118198e+02 -6.7700160807e+01 -9.9307568219e+01 2.4106032534e+02 0.0000000000e+00 0.0000e+00 -1.0000e+00
<mgrwt>
<rscale>  0 0.52535846E+03</rscale>
<asrwt>0</asrwt>
<pdfrwt beam="1">  1        2 0.14084178E-01 0.52535846E+03</pdfrwt>
<pdfrwt beam="2">  1       -2 0.11595601E+00 0.52535846E+03</pdfrwt>
<totfact> 0.31991752E+02</totfact>
</mgrwt>
<rwgt>
<wgt id='morphing_basis_vector_1'> +1.7609895e-04 </wgt>
<wgt id='morphing_basis_vector_2'> +9.8817176e-05 </wgt>
<wgt id='morphing_basis_vector_3'> +1.2975922e-04 </wgt>
<wgt id='morphing_basis_vector_4'> +4.7106512e-05 </wgt>
<wgt id='morphing_basis_vector_5'> +6.8122439e-05 </wgt>
</rwgt>
</event>
<event>
 4      1 +1.0153100e-05 5.53122700e+02 7.81860800e-03 9.28818200e-02
        2 -1    0    0  501    0 +0.0000000000e+00 +0.0000000000e+00 +1.0633572361e+02 1.0633572361e+02 0.0000000000e+00 0.0000e+00 1.0000e+00
       -2 -1    0    0    0  501 -0.0000000000e+00 -0.0000000000e+00 -7.1928957396e+02 7.1928957396e+02 0.0000000000e+00 0.0000e+00 -1.0000e+00
      -13  1    1    2    0    0 -1.7421353359e+02 +1.2358967627e+02 -4.4254742614e+01 2.1813584210e+02 0.0000000000e+00 0.0000e+00 1.0000e+00
       13  1    1    2    0    0 +1.7421353359e+02 -1.2358967627e+02 -5.6869910773e+02 6.0748945546e+02 0.0000000000e+00 0.0000e+00 -1.0000e+00
<mgrwt>
<rscale>  0 0.55312269E+03</rscale>
<asrwt>0</asrwt>
<pdfrwt beam="1">  1        2 0.16359343E-01 0.55312269E+03</pdfrwt>
<pdfrwt beam="2">  1       -2 0.11065993E+00 0.55312269E+03</pdfrwt>
<totfact> 0.29923102E+02</totfact>
</mgrwt>
<rwgt>
<wgt id='morphing_basis_vector_1'> +2.5611045e-04 </wgt>
<wgt id='morphing_basis_vector_2'> +2.7045698e-04 </wgt>
<wgt id='morphing_basis_vector_3'> +1.4829817e-04 </wgt>
<wgt id='morphing_basis_vector_4'> +3.1018430e-05 </wgt>
<wgt id='morphing_basis_vector_5'> +9.1474744e-05 </wgt>
</rwgt>
</event>
<event>
 4      1 +1.0153100e-05 5.92080700e+02 7.81860800e-03 9.21450900e-02
        2 -1    0    0  501    0 +0.0000000000e+00 +0.0000000000e+00 +8.3247842902e+02 8.3247842902e+02 0.0000000000e+00 0.0000e+00 -1.0000e+00
       -2 -1    0    0    0  501 -0.0000000000e+00 -0.0000000000e+00 -1.0527587978e+02 1.0527587978e+02 0.0000000000e+00 0.0000e+00 1.0000e+00
      -13  1    1    2    0    0 -8.2441597087e+01 +1.6465366423e+02 -3.5343027208e+00 1.8417366091e+02 0.0000000000e+00 0.0000e+00 1.0000e+00
       13  1    1    2    0    0 +8.2441597087e+01 -1.6465366423e+02 +7.3073685196e+02 7.5358064790e+02 0.0000000000e+00 0.0000e+00 -1.0000e+00
<mgrwt>
<rscale>  0 0.59208073E+03</rscale>
<asrwt>0</asrwt>
<pdfrwt beam="1">  1        2 0.12807360E+00 0.59208073E+03</pdfrwt>
<pdfrwt beam="2">  1       -2 0.16196290E-01 0.59208073E+03</pdfrwt>
<totfact> 0.11298662E+03</totfact>
</mgrwt>
<rwgt>
<wgt id='morphing_basis_vector_1'> +2.5628663e-04 </wgt>
<wgt id='morphing_basis_vector_2'> +1.4550103e-04 </wgt>
<wgt id='morphing_basis_vector_3'> +2.0180773e-04 </wgt>
<wgt id='morphing_basis_vector_4'> +8.6020795e-05 </wgt>
<wgt id='morphing_basis_vector_5'> +1.2945930e-04 </wgt>
</rwgt>
</event>
<event>
 4      1 +1.0153100e-05 5.85753100e+02 7.81860800e-03 9.22605900e-02
        2 -1    0    0  501    0 +0.0000000000e+00 +0.0000000000e+00 +2.7035907957e+02 2.7035907957e+02 0.0000000000e+00 0.0000e+00 -1.0000e+00
       -2 -1    0    0    0  501 -0.0000000000e+00 -0.0000000000e+00 -3.1726947744e+02 3.1726947744e+02 0.0000000000e+00 0.0000e+00 1.0000e+00
      -13  1    1    2    0    0 +1.0476287709e+02 -1.2900253121e+02 +2.1848030908e+02 2.7450056271e+02 0.0000000000e+00 0.0000e+00 -1.0000e+00
       13  1    1    2    0    0 -1.0476287709e+02 +1.2900253121e+02 -2.6539070695e+02 3.1312799429e+02 0.0000000000e+00 0.0000e+00 1.0000e+00
<mgrwt>
<rscale>  0 0.58575314E+03</rscale>
<asrwt>0</asrwt>
<pdfrwt beam="1">  1        2 0.41593705E-01 0.58575314E+03</pdfrwt>
<pdfrwt beam="2">  1       -2 0.48810689E-01 0.58575314E+03</pdfrwt>
<totfact> 0.60089255E+02</totfact>
</mgrwt>
<rwgt>
<wgt id='morphing_basis_vector_1'> +3.2924923e-04 </wgt>
<wgt id='morphing_basis_vector_2'> +3.9372667e-04 </wgt>
<wgt id='morphing_basis_vector_3'> +1.9096148e-04 </wgt>
<wgt id='morphing_basis_vector_4'> +2.2486909e-05 </wgt>
<wgt id='morphing_basis_vector_5'> +1.2326093e-04 </wgt>
</rwgt>
</event>
<event>
 4      1 +1.0153100e-05 5.78881400e+02 7.81860800e-03 9.23877900e-02
        2 -1    0    0  501    0 +0.0000000000e+00 +0.0000000000e+00 +1.3243483371e+03 1.3243483371e+03 0.0000000000e+00 0.0000e+00 -1.0000e+00
       -2 -1    0    0    0  501 -0.0000000000e+00 -0.0000000000e+00 -6.3258227090e+01 6.3258227090e+01 0.0000000000e+00 0.0000e+00 1.0000e+00
      -13  1    1    2    0    0 -5.6446163117e+01 -2.7926529352e+02 +5.0830373112e+02 5.8270743651e+02 0.0000000000e+00 0.0000e+00 1.0000e+00
       13  1    1    2    0    0 +5.6446163117e+01 +2.7926529352e+02 +7.5278637887e+02 8.0489912766e+02 0.0000000000e+00 0.0000e+00 -1.0000e+00
<mgrwt>
<rscale>  0 0.57888143E+03</rscale>
<asrwt>0</asrwt>
<pdfrwt beam="1">  1        2 0.20374588E+00 0.57888143E+03</pdfrwt>
<pdfrwt beam="2">  1       -2 0.97320359E-02 0.57888143E+03</pdfrwt>
<totfact> 0.12859165E+03</totfact>
</mgrwt>
<rwgt>
<wgt id='morphing_basis_vector_1'> +2.4234687e-04 </wgt>
<wgt id='morphing_basis_vector_2'> +1.4717072e-04 </wgt>
<wgt id='morphing_basis_vector_3'> +1.8526300e-04 </wgt>
<wgt id='morphing_basis_vector_4'> +7.4178055e-05 </wgt>
<wgt id='morphing_basis_vector_5'> +1.1518646e-04 </wgt>
</rwgt>
</event>
<event>
 4      1 +1.0153100e-05 5.27147100e+02 7.81860800e-03 9.34099000e-02
        2 -1    0    0  501    0 +0.0000000000e+00 +0.0000000000e+00 +5.9645813405e+02 5.9645813405e+02 0.0000000000e+00 0.0000e+00 1.0000e+00
       -2 -1    0    0    0  501 -0.0000000000e+00 -0.0000000000e+00 -1.1647256466e+02 1.1647256466e+02 0.0000000000e+00 0.0000e+00 -1.0000e+00
      -13  1    1    2    0    0 -1.3564211910e+02 -2.2574111261e+02 +2.5438041302e+02 3.6615192056e+02 0.0000000000e+00 0.0000e+00 -1.0000e+00
       13  1    1    2    0    0 +1.3564211910e+02 +2.2574111261e+02 +2.2560515637e+02 3.4677877815e+02 0.0000000000e+00 0.0000e+00 1.0000e+00
<mgrwt>
<rscale>  0 0.52714707E+03</rscale>
<asrwt>0</asrwt>
<pdfrwt beam="1">  1        2 0.91762788E-01 0.52714707E+03</pdfrwt>
<pdfrwt beam="2">  1       -2 0.17918856E-01 0.52714707E+03</pdfrwt>
<totfact> 0.14394501E+03</totfact>
</mgrwt>
<rwgt>
<wgt id='morphing_basis_vector_1'> +1.8424403e-04 </wgt>
<wgt id='morphing_basis_vector_2'> +1.1945993e-04 </wgt>
<wgt id='morphing_basis_vector_3'> +1.2958122e-04 </wgt>
<wgt id='morphing_basis_vector_4'> +4.4717970e-05 </wgt>
<wgt id='morphing_basis_vector_5'> +6.9624555e-05 </wgt>
</rwgt>
</event>
<event>
 4      1 +1.0153100e-05 5.92019300e+02 7.81860800e-03 9.21462100e-02
        2 -1    0    0  501    0 +0.0000000000e+00 +0.0000000000e+00 +5.9488992108e+02 5.9488992108e+02 0.0000000000e+00 0.0000e+00 -1.0000e+00
       -2 -1    0    0    0  501 -0.0000000000e+00 -0.0000000000e+00 -1.4729063655e+02 1.4729063655e+02 0.0000000000e+00 0.0000e+00 1.0000e+00
      -13  1    1    2    0    0 +7.0302330047e+00 -2.7252978400e+02 +7.9223582261e+01 2.8389836796e+02 0.0000000000e+00 0.0000e+00 1.0000e+00
       13  1    1    2    0    0 -7.0302330047e+00 +2.7252978400e+02 +3.6837570227e+02 4.5828218967e+02 0.0000000000e+00 0.0000e+00 -1.0000e+00
<mgrwt>
<rscale>  0 0.59201931E+03</rscale>
<asrwt>0</asrwt>
<pdfrwt beam="1">  1        2 0.91521525E-01 0.59201931E+03</pdfrwt>
<pdfrwt beam="2">  1       -2 0.22660098E-01 0.59201931E+03</pdfrwt>
<totfact> 0.97758211E+02</totfact>
</mgrwt>
<rwgt>
<wgt id='morphing_basis_vector_1'> +2.5787542e-04 </wgt>
<wgt id='morphing_basis_vector_2'> +1.5064408e-04 </wgt>
<wgt id='morphing_basis_vector_3'> +2.0171078e-04 </wgt>
<wgt id='morphing_basis_vector_4'> +8.4730342e-05 </wgt>
<wgt id='morphing_basis_vector_5'> +1.2940292e-04 </wgt>
</rwgt>
</event>
<event>
 4      1 +1.0153100e-05 5.63550400e+02 7.81860800e-03 9.26784500e-02
        2 -1    0    0  501    0 +0.0000000000e+00 +0.0000000000e+00 +8.7320244149e+02 8.7320244149e+02 0.0000000000e+00 0.0000e+00 1.0000e+00
       -2 -1    0    0    0  501 -0.0000000000e+00 -0.0000000000e+00 -9.0926534334e+01 9.0926534334e+01 0.0000000000e+00 0.0000e+00 -1.0000e+00
      -13  1    1    2    0    0 +1.9669232261e+02 +1.7761186743e+02 +2.2736910280e+02 3.4918555831e+02 0.0000000000e+00 0.0000e+00 -1.0000e+00
       13  1    1    2    0    0 -1.9669232261e+02 -1.7761186743e+02 +5.5490680436e+02 6.1494341751e+02 0.0000000000e+00 0.0000e+00 1.0000e+00
<mgrwt>
<rscale>  0 0.56355043E+03</rscale>
<asrwt>0</asrwt>
<pdfrwt beam="1">  1        2 0.13433883E+00 0.56355043E+03</pdfrwt>
<pdfrwt beam="2">  1       -2 0.13988698E-01 0.56355043E+03</pdfrwt>
<totfact> 0.13451434E+03</totfact>
</mgrwt>
<rwgt>
<wgt id='morphing_basis_vector_1'> +2.2056203e-04 </wgt>
<wgt id='morphing_basis_vector_2'> +1.2857208e-04 </wgt>
<wgt id='morphing_basis_vector_3'> +1.6770128e-04 </wgt>
<wgt id='morphing_basis_vector_4'> +6.6235487e-05 </wgt>
<wgt id='morphing_basis_vector_5'> +9.9952800e-05 </wgt>
</rwgt>
</event>
<event>
 4      1 +1.0153100e-05 5.78768700e+02 7.81860800e-03 9.23898900e-02
        2 -1    0    0  501    0 +0.0000000000e+00 +0.0000000000e+00 +8.9686197390e+02 8.9686197390e+02 0.0000000000e+00 0.0000e+00 1.0000e+00
       -2 -1    0    0    0  501 -0.0000000000e+00 -0.0000000000e+00 -9.3373666516e+01 9.3373666516e+01 0.0000000000e+00 0.0000e+00 -1.0000e+00
      -13  1    1    2    0    0 -1.7017662295e+02 +8.3984869488e+01 +2.7953770445e+01 1.9182010995e+02 0.0000000000e+00 0.0000e+00 -1.0000e+00
       13  1    1    2    0    0 +1.7017662295e+02 -8.3984869488e+01 +7.7553453694e+02 7.9841553046e+02 0.0000000000e+00 0.0000e+00 1.0000e+00
<mgrwt>
<rscale>  0 0.57876866E+03</rscale>
<asrwt>0</asrwt>
<pdfrwt beam="1">  1        2 0.13797876E+00 0.57876866E+03</pdfrwt>
<pdfrwt beam="2">  1       -2 0.14365180E-01 0.57876866E+03</pdfrwt>
<totfact> 0.12439880E+03</totfact>
</mgrwt>
<rwgt>
<wgt id='morphing_basis_vector_1'> +2.3821522e-04 </wgt>
<wgt id='morphing_basis_vector_2'> +1.3472152e-04 </wgt>
<wgt id='morphing_basis_vector_3'> +1.8537824e-04 </wgt>
<wgt id='morphing_basis_vector_4'> +7.6892835e-05 </wgt>
<wgt id='morphing_basis_vector_5'> +1.1501980e-04 </wgt>
</rwgt>
</event>
<event>
 4      1 +1.0153100e-05 5.73122200e+02 7.81860800e-03 9.24958500e-02
        2 -1    0    0  501    0 +0.0000000000e+00 +0.0000000000e+00 +1.4802127708e+03 1.4802127708e+03 0.0000000000e+00 0.0000e+00 1.0000e+00
       -2 -1    0    0    0  501 -0.0000000000e+00 -0.0000000000e+00 -5.5476654304e+01 5.5476654304e+01 0.0000000000e+00 0.0000e+00 -1.0000e+00
      -13  1    1    2    0    0 +2.6621332350e+02 +1.0415443877e+02 +6.5880647291e+02 7.1815294295e+02 0.0000000000e+00 0.0000e+00 -1.0000e+00
       13  1    1    2    0    0 -2.6621332350e+02 -1.0415443877e+02 +7.6592964362e+02 8.1753648218e+02 0.0000000000e+00 0.0000e+00 1.0000e+00
<mgrwt>
<rscale>  0 0.57312216E+03</rscale>
<asrwt>0</asrwt>
<pdfrwt beam="1">  1        2 0.22772501E+00 0.57312216E+03</pdfrwt>
<pdfrwt beam="2">  1       -2 0.85348710E-02 0.57312216E+03</pdfrwt>
<totfact> 0.12939825E+03</totfact>
</mgrwt>
<rwgt>
<wgt id='morphing_basis_vector_1'> +2.3672048e-04 </wgt>
<wgt id='morphing_basis_vector_2'> +1.4851582e-04 </wgt>
<wgt id='morphing_basis_vector_3'> +1.7823591e-04 </wgt>
<wgt id='morphing_basis_vector_4'> +6.9262913e-05 </wgt>
<wgt id='morphing_basis_vector_5'> +1.0933102e-04 </wgt>
</rwgt>
</event>
<event>
 4      1 +1.0153100e-05 5.89180400e+02 7.81860800e-03 9.21978400e-02
        2 -1    0    0  501    0 +0.0000000000e+00 +0.0000000000e+00 +4.8925126591e+02 4.8925126591e+02 0.0000000000e+00 0.0000e+00 1.0000e+00
       -2 -1    0    0    0  501 -0.0000000000e+00 -0.0000000000e+00 -1.7738000394e+02 1.7738000394e+02 0.0000000000e+00 0.0000e+00 -1.0000e+00
      -13  1    1    2    0    0 +1.1000167455e+02 +2.3578104616e+02 -3.9496946333e-01 2.6017921926e+02 0.0000000000e+00 0.0000e+00 -1.0000e+00
       13  1    1    2    0    0 -1.1000167455e+02 -2.3578104616e+02 +3.1226623144e+02 4.0645205059e+02 0.0000000000e+00 0.0000e+00 1.0000e+00
<mgrwt>
<rscale>  0 0.58918042E+03</rscale>
<asrwt>0</asrwt>
<pdfrwt beam="1">  1        2 0.75269425E-01 0.58918042E+03</pdfrwt>
<pdfrwt beam="2">  1       -2 0.27289232E-01 0.58918042E+03</pdfrwt>
<totfact> 0.89128701E+02</totfact>
</mgrwt>
<rwgt>
<wgt id='morphing_basis_vector_1'> +2.5332664e-04 </wgt>
<wgt id='morphing_basis_vector_2'> +1.4640947e-04 </wgt>
<wgt id='morphing_basis_vector_3'> +1.9811002e-04 </wgt>
<wgt id='morphing_basis_vector_4'> +8.3182410e-05 </wgt>
<wgt id='morphing_basis_vector_5'> +1.2622151e-04 </wgt>
</rwgt>
</event>
<event>
 4      1 +1.0153100e-05 5.41904200e+02 7.81860800e-03 9.31060100e-02
        2 -1    0    0  501    0 +0.0000000000e+00 +0.0000000000e+00 +3.5108553557e+02 3.5108553557e+02 0.0000000000e+00 0.0000e+00 1.0000e+00
       -2 -1    0    0    0  501 -0.0000000000e+00 -0.0000000000e+00 -2.0910867582e+02 2.0910867582e+02 0.0000000000e+00 0.0000e+00 -1.0000e+00
      -13  1    1    2    0    0 -2.1158443983e+02 +1.3113288496e+02 +1.8161057043e+02 3.0813342563e+02 0.0000000000e+00 0.0000e+00 -1.0000e+00
       13  1    1    2    0    0 +2.1158443983e+02 -1.3113288496e+02 -3.9633710687e+01 2.5206078576e+02 0.0000000000e+00 0.0000e+00 1.0000e+00
<mgrwt>
<rscale>  0 0.54190417E+03</rscale>
<asrwt>0</asrwt>
<pdfrwt beam="1">  1        2 0.54013159E-01 0.54190417E+03</pdfrwt>
<pdfrwt beam="2">  1       -2 0.32170565E-01 0.54190417E+03</pdfrwt>
<totfact> 0.97052019E+02</totfact>
</mgrwt>
<rwgt>
<wgt id='morphing_basis_vector_1'> +2.1781811e-04 </wgt>
<wgt id='morphing_basis_vector_2'> +1.8379256e-04 </wgt>
<wgt id='morphing_basis_vector_3'> +1.4007070e-04 </wgt>
<wgt id='morphing_basis_vector_4'> +4.1530637e-05 </wgt>
<wgt id='morphing_basis_vector_5'> +8.1497799e-05 </wgt>
</rwgt>
</event>
<event>
 4      1 +1.0153100e-05 5.43623200e+02 7.81860800e-03 9.30712900e-02
        2 -1    0    0  501    0 +0.0000000000e+00 +0.0000000000e+00 +2.3925653054e+02 2.3925653054e+02 0.0000000000e+00 0.0000e+00 -1.0000e+00
       -2 -1    0    0    0  501 -0.0000000000e+00 -0.0000000000e+00 -3.0879637145e+02 3.0879637145e+02 0.0000000000e+00 0.0000e+00 1.0000e+00
      -13  1    1    2    0    0 +2.9650024431e+01 -1.8370553181e+02 -2.3451235293e+02 2.9937082364e+02 0.0000000000e+00 0.0000e+00 1.0000e+00
       13  1    1    2    0    0 -2.9650024431e+01 +1.8370553181e+02 +1.6497251203e+02 2.4868207835e+02 0.0000000000e+00 0.0000e+00 -1.0000e+00
<mgrwt>
<rscale>  0 0.54362321E+03</rscale>
<asrwt>0</asrwt>
<pdfrwt beam="1">  1        2 0.36808697E-01 0.54362321E+03</pdfrwt>
<pdfrwt beam="2">  1       -2 0.47507134E-01 0.54362321E+03</pdfrwt>
<totfact> 0.72753665E+02</totfact>
</mgrwt>
<rwgt>
<wgt id='morphing_basis_vector_1'> +1.9536897e-04 </wgt>
<wgt id='morphing_basis_vector_2'> +1.0922953e-04 </wgt>
<wgt id='morphing_basis_vector_3'> +1.4708090e-04 </wgt>
<wgt id='morphing_basis_vector_4'> +5.6241434e-05 </wgt>
<wgt id='morphing_basis_vector_5'> +8.2288757e-05 </wgt>
</rwgt>
</event>
<event>
 4      1 +1.0153100e-05 5.21546300e+02 7.81860800e-03 9.35280300e-02
        2 -1    0    0  501    0 +0.0000000000e+00 +0.0000000000e+00 +1.3321019614e+02 1.3321019614e+02 0.0000000000e+00 0.0000e+00 -1.0000e+00
       -2 -1    0    0    0  501 -0.0000000000e+00 -0.0000000000e+00 -5.1049115341e+02 5.1049115341e+02 0.0000000000e+00 0.0000e+00 1.0000e+00
      -13  1    1    2    0    0 -1.2532304113e+02 -2.6947303279e+01 -4.6892085539e+02 4.8612631117e+02 0.0000000000e+00 0.0000e+00 1.0000e+00
       13  1    1    2    0    0 +1.2532304113e+02 +2.6947303279e+01 +9.1639898125e+01 1.5757503838e+02 0.0000000000e+00 0.0000e+00 -1.0000e+00
<mgrwt>
<rscale>  0 0.52154627E+03</rscale>
<asrwt>0</asrwt>
<pdfrwt beam="1">  1        2 0.20493876E-01 0.52154627E+03</pdfrwt>
<pdfrwt beam="2">  1       -2 0.78537101E-01 0.52154627E+03</pdfrwt>
<totfact> 0.51105739E+02</totfact>
</mgrwt>
<rwgt>
<wgt id='morphing_basis_vector_1'> +1.7169943e-04 </wgt>
<wgt id='morphing_basis_vector_2'> +9.4947530e-05 </wgt>
<wgt id='morphing_basis_vector_3'> +1.2653524e-04 </wgt>
<wgt id='morphing_basis_vector_4'> +4.5636733e-05 </wgt>
<wgt id='morphing_basis_vector_5'> +6.5372923e-05 </wgt>
</rwgt>
</event>
<event>
 4      1 +1.0153100e-05 5.74769100e+02 7.81860800e-03 9.24648100e-02
        2 -1    0    0  501    0 +0.0000000000e+00 +0.0000000000e+00 +1.1197221359e+02 1.1197221359e+02 0.0000000000e+00 0.0000e+00 1.0000e+00
       -2 -1    0    0    0  501 -0.0000000000e+00 -0.0000000000e+00 -7.3759274001e+02 7.3759274001e+02 0.0000000000e+00 0.0000e+00 -1.0000e+00
      -13  1    1    2    0    0 -1.3292158179e+02 +2.5435853023e+02 -2.9071366515e+02 4.0851051873e+02 0.0000000000e+00 0.0000e+00 -1.0000e+00
       13  1    1    2    0    0 +1.3292158179e+02 -2.5435853023e+02 -3.3490686126e+02 4.4105443488e+02 0.0000000000e+00 0.0000e+00 1.0000e+00
<mgrwt>
<rscale>  0 0.57476914E+03</rscale>
<asrwt>0</asrwt>
<pdfrwt beam="1">  1        2 0.17226494E-01 0.57476914E+03</pdfrwt>
<pdfrwt beam="2">  1       -2 0.11347581E+00 0.57476914E+03</pdfrwt>
<totfact> 0.26362621E+02</totfact>
</mgrwt>
<rwgt>
<wgt id='morphing_basis_vector_1'> +2.4230354e-04 </wgt>
<wgt id='morphing_basis_vector_2'> +1.6051457e-04 </wgt>
<wgt id='morphing_basis_vector_3'> +1.7991754e-04 </wgt>
<wgt id='morphing_basis_vector_4'> +6.7906904e-05 </wgt>
<wgt id='morphing_basis_vector_5'> +1.1103815e-04 </wgt>
</rwgt>
</event>
<event>
 4      1 +1.0153100e-05 6.03332900e+02 7.81860800e-03 9.19434200e-02
        2 -1    0    0  501    0 +0.0000000000e+00 +0.0000000000e+00 +5.6256432285e+02 5.6256432285e+02 0.0000000000e+00 0.0000e+00 1.0000e+00
       -2 -1    0    0    0  501 -0.0000000000e+00 -0.0000000000e+00 -1.6176400610e+02 1.6176400610e+02 0.0000000000e+00 0.0000e+00 -1.0000e+00
      -13  1    1    2    0    0 -1.3480870761e+02 -1.9730607726e+02 -2.0642254167e+01 2.3985240968e+02 0.0000000000e+00 0.0000e+00 -1.0000e+00
       13  1    1    2    0    0 +1.3480870761e+02 +1.9730607726e+02 +4.2144257091e+02 4.8447591927e+02 0.0000000000e+00 0.0000e+00 1.0000e+00
<mgrwt>
<rscale>  0 0.60333294E+03</rscale>
<asrwt>0</asrwt>
<pdfrwt beam="1">  1        2 0.86548356E-01 0.60333294E+03</pdfrwt>
<pdfrwt beam="2">  1       -2 0.24886770E-01 0.60333294E+03</pdfrwt>
<totfact> 0.88986342E+02</totfact>
</mgrwt>
<rwgt>
<wgt id='morphing_basis_vector_1'> +2.7289646e-04 </wgt>
<wgt id='morphing_basis_vector_2'> +1.5665828e-04 </wgt>
<wgt id='morphing_basis_vector_3'> +2.1658997e-04 </wgt>
<wgt id='morphing_basis_vector_4'> +9.3955303e-05 </wgt>
<wgt id='morphing_basis_vector_5'> +1.4260875e-04 </wgt>
</rwgt>
</event>
<event>
 4      1 +1.0153100e-05 5.25701400e+02 7.81860800e-03 9.34402400e-02
        2 -1    0    0  501    0 +0.0000000000e+00 +0.0000000000e+00 +1.4365480162e+03 1.4365480162e+03 0.0000000000e+00 0.0000e+00 1.0000e+00
       -2 -1    0    0    0  501 -0.0000000000e+00 -0.0000000000e+00 -4.8094792811e+01 4.8094792811e+01 0.0000000000e+00 0.0000e+00 -1.0000e+00
      -13  1    1    2    0    0 -4.8047320922e+01 -1.9227143774e+02 +1.1818564786e+03 1.1983578709e+03 0.0000000000e+00 0.0000e+00 1.0000e+00
       13  1    1    2    0    0 +4.8047320922e+01 +1.9227143774e+02 +2.0659674482e+02 2.8628493811e+02 0.0000000000e+00 0.0000e+00 -1.0000e+00
<mgrwt>
<rscale>  0 0.52570136E+03</rscale>
<asrwt>0</asrwt>
<pdfrwt beam="1">  1        2 0.22100735E+00 0.52570136E+03</pdfrwt>
<pdfrwt beam="2">  1       -2 0.73992000E-02 0.52570136E+03</pdfrwt>
<totfact> 0.17075455E+03</totfact>
</mgrwt>
<rwgt>
<wgt id='morphing_basis_vector_1'> +2.2042391e-04 </wgt>
<wgt id='morphing_basis_vector_2'> +2.3560716e-04 </wgt>
<wgt id='morphing_basis_vector_3'> +1.1727270e-04 </wgt>
<wgt id='morphing_basis_vector_4'> +2.5082768e-05 </wgt>
<wgt id='morphing_basis_vector_5'> +6.9747033e-05 </wgt>
</rwgt>
</event>
<event>
 4      1 +1.0153100e-05 5.63574300e+02 7.81860800e-03 9.26779900e-02
        2 -1    0    0  501    0 +0.0000000000e+00 +0.0000000000e+00 +5.9719328647e+02 5.9719328647e+02 0.0000000000e+00 0.0000e+00 -1.0000e+00
       -2 -1    0    0    0  501 -0.0000000000e+00 -0.0000000000e+00 -1.3296195702e+02 1.3296195702e+02 0.0000000000e+00 0.0000e+00 1.0000e+00
      -13  1    1    2    0    0 -2.1875860309e+02 -1.1450107342e+01 +2.4742261861e+00 2.1907202737e+02 0.0000000000e+00 0.0000e+00 1.0000e+00
       13  1    1    2    0    0 +2.1875860309e+02 +1.1450107342e+01 +4.6175710326e+02 5.1108321612e+02 0.0000000000e+00 0.0000e+00 -1.0000e+00
<mgrwt>
<rscale>  0 0.56357427E+03</rscale>
<asrwt>0</asrwt>
<pdfrwt beam="1">  1        2 0.91875889E-01 0.56357427E+03</pdfrwt>
<pdfrwt beam="2">  1       -2 0.20455686E-01 0.56357427E+03</pdfrwt>
<totfact> 0.11551539E+03</totfact>
</mgrwt>
<rwgt>
<wgt id='morphing_basis_vector_1'> +2.1908359e-04 </wgt>
<wgt id='morphing_basis_vector_2'> +1.2390809e-04 </wgt>
<wgt id='morphing_basis_vector_3'> +1.6791651e-04 </wgt>
<wgt id='morphing_basis_vector_4'> +6.7224622e-05 </wgt>
<wgt id='morphing_basis_vector_5'> +9.9948466e-05 </wgt>
</rwgt>
</event>
<event>
 4      1 +1.0153100e-05 6.04450500e+02 7.81860800e-03 9.19236400e-02
        2 -1    0    0  501    0 +0.0000000000e+00 +0.0000000000e+00 +8.8412220101e+02 8.8412220101e+02 0.0000000000e+00 0.0000e+00 -1.0000e+00
       -2 -1    0    0    0  501 -0.0000000000e+00 -0.0000000000e+00 -1.0331164095e+02 1.0331164095e+02 0.0000000000e+00 0.0000e+00 1.0000e+00
      -13  1    1    2    0    0 -2.1286681389e+02 +1.9175642271e+02 +2.3322805368e+02 3.6942946706e+02 0.0000000000e+00 0.0000e+00 1.0000e+00
       13  1    1    2    0    0 +2.1286681389e+02 -1.9175642271e+02 +5.4758250638e+02 6.1800437490e+02 0.0000000000e+00 0.0000e+00 -1.0000e+00
<mgrwt>
<rscale>  0 0.60445055E+03</rscale>
<asrwt>0</asrwt>
<pdfrwt beam="1">  1        2 0.13601880E+00 0.60445055E+03</pdfrwt>
<pdfrwt beam="2">  1       -2 0.15894099E-01 0.60445055E+03</pdfrwt>
<totfact> 0.10765419E+03</totfact>
</mgrwt>
<rwgt>
<wgt id='morphing_basis_vector_1'> +2.7663018e-04 </wgt>
<wgt id='morphing_basis_vector_2'> +1.6411928e-04 </wgt>
<wgt id='morphing_basis_vector_3'> +2.1817925e-04 </wgt>
<wgt id='morphing_basis_vector_4'> +9.3171249e-05 </wgt>
<wgt id='morphing_basis_vector_5'> +1.4397023e-04 </wgt>
</rwgt>
</event>
<event>
 4      1 +1.0153100e-05 5.36232600e+02 7.81860800e-03 9.32215700e-02
        2 -1    0    0  501    0 +0.0000000000e+00 +0.0000000000e+00 +1.6434185840e+02 1.6434185840e+02 0.0000000000e+00 0.0000e+00 1.0000e+00
       -2 -1    0    0    0  501 -0.0000000000e+00 -0.0000000000e+00 -4.3741968246e+02 4.3741968246e+02 0.0000000000e+00 0.0000e+00 -1.0000e+00
      -13  1    1    2    0    0 -2.6726930785e+02 +1.1381637294e+01 -1.1634117341e+02 2.9171508911e+02 0.0000000000e+00 0.0000e+00 1.0000e+00
       13  1    1    2    0    0 +2.6726930785e+02 -1.1381637294e+01 -1.5673665065e+02 3.1004645175e+02 0.0000000000e+00 0.0000e+00 -1.0000e+00
<mgrwt>
<rscale>  0 0.53623265E+03</rscale>
<asrwt>0</asrwt>
<pdfrwt beam="1">  1        2 0.25283363E-01 0.53623265E+03</pdfrwt>
<pdfrwt beam="2">  1       -2 0.67295335E-01 0.53623265E+03</pdfrwt>
<totfact> 0.55704380E+02</totfact>
</mgrwt>
<rwgt>
<wgt id='morphing_basis_vector_1'> +1.9499655e-04 </wgt>
<wgt id='morphing_basis_vector_2'> +1.2858802e-04 </wgt>
<wgt id='morphing_basis_vector_3'> +1.3801259e-04 </wgt>
<wgt id='morphing_basis_vector_4'> +4.8238020e-05 </wgt>
<wgt id='morphing_basis_vector_5'> +7.6545955e-05 </wgt>
</rwgt>
</event>
<event>
 4      1 +1.0153100e-05 5.39357300e+02 7.81860800e-03 9.31577200e-02
        2 -1    0    0  501    0 +0.0000000000e+00 +0.0000000000e+00 +1.8478132615e+03 1.8478132615e+03 0.0000000000e+00 0.0000e+00 1.0000e+00
       -2 -1    0    0    0  501 -0.0000000000e+00 -0.0000000000e+00 -3.9358190245e+01 3.9358190245e+01 0.0000000000e+00 0.0000e+00 -1.0000e+00
      -13  1    1    2    0    0 +2.3610639086e+02 +1.2829566620e+02 +8.2439525271e+02 8.6708335151e+02 0.0000000000e+00 0.0000e+00 1.0000e+00
       13  1    1    2    0    0 -2.3610639086e+02 -1.2829566620e+02 +9.8405981850e+02 1.0200881002e+03 0.0000000000e+00 0.0000e+00 -1.0000e+00
<mgrwt>
<rscale>  0 0.53935734E+03</rscale>
<asrwt>0</asrwt>
<pdfrwt beam="1">  1        2 0.28427890E+00 0.53935734E+03</pdfrwt>
<pdfrwt beam="2">  1       -2 0.60551076E-02 0.53935734E+03</pdfrwt>
<totfact> 0.13869054E+03</totfact>
</mgrwt>
<rwgt>
<wgt id='morphing_basis_vector_1'> +1.9511821e-04 </wgt>
<wgt id='morphing_basis_vector_2'> +1.2037758e-04 </wgt>
<wgt id='morphing_basis_vector_3'> +1.4187388e-04 </wgt>
<wgt id='morphing_basis_vector_4'> +5.1545313e-05 </wgt>
<wgt id='morphing_basis_vector_5'> +7.8931740e-05 </wgt>
</rwgt>
</event>
<event>
 4      1 +1.0153100e-05 5.34718000e+02 7.81860800e-03 9.32526900e-02
        2 -1    0    0  501    0 +0.0000000000e+00 +0.0000000000e+00 +1.3161503600e+03 1.3161503600e+03 0.0000000000e+00 0.0000e+00 -1.0000e+00
       -2 -1    0    0    0  501 -0.0000000000e+00 -0.0000000000e+00 -5.4310543324e+01 5.4310543324e+01 0.0000000000e+00 0.0000e+00 1.0000e+00
      -13  1    1    2    0    0 +1.7129943103e+02 -2.0179834720e+02 +7.2732172795e+02 7.7399157873e+02 0.0000000000e+00 0.0000e+00 1.0000e+00
       13  1    1    2    0    0 -1.7129943103e+02 +2.0179834720e+02 +5.3451808873e+02 5.9646932459e+02 0.0000000000e+00 0.0000e+00 -1.0000e+00
<mgrwt>
<rscale>  0 0.53471802E+03</rscale>
<asrwt>0</asrwt>
<pdfrwt beam="1">  1        2 0.20248465E+00 0.53471802E+03</pdfrwt>
<pdfrwt beam="2">  1       -2 0.83554692E-02 0.53471802E+03</pdfrwt>
<totfact> 0.16496852E+03</totfact>
</mgrwt>
<rwgt>
<wgt id='morphing_basis_vector_1'> +1.9560167e-04 </wgt>
<wgt id='morphing_basis_vector_2'> +1.3458596e-04 </wgt>
<wgt id='morphing_basis_vector_3'> +1.3596458e-04 </wgt>
<wgt id='morphing_basis_vector_4'> +4.6327161e-05 </wgt>
<wgt id='morphing_basis_vector_5'> +7.5429649e-05 </wgt>
</rwgt>
</event>
<event>
 4      1 +1.0153100e-05 5.39539500e+02 7.81860800e-03 9.31540100e-02
        2 -1    0    0  501    0 +0.0000000000e+00 +0.0000000000e+00 +7.1392219369e+02 7.1392219369e+02 0.0000000000e+00 0.0000e+00 1.0000e+00
       -2 -1    0    0    0  501 -0.0000000000e+00 -0.0000000000e+00 -1.0193789847e+02 1.0193789847e+02 0.0000000000e+00 0.0000e+00 -1.0000e+00
      -13  1    1    2    0    0 -6.3018804719e+01 +1.8698618012e+02 +2.7821710839e+01 1.9927179654e+02 0.0000000000e+00 0.0000e+00 -1.0000e+00
       13  1    1    2    0    0 +6.3018804719e+01 -1.8698618012e+02 +5.8416258438e+02 6.1658829562e+02 0.0000000000e+00 0.0000e+00 1.0000e+00
<mgrwt>
<rscale>  0 0.53953954E+03</rscale>
<asrwt>0</asrwt>
<pdfrwt beam="1">  1        2 0.10983418E+00 0.53953954E+03</pdfrwt>
<pdfrwt beam="2">  1       -2 0.15682754E-01 0.53953954E+03</pdfrwt>
<totfact> 0.14437673E+03</totfact>
</mgrwt>
<rwgt>
<wgt id='morphing_basis_vector_1'> +1.9090295e-04 </wgt>
<wgt id='morphing_basis_vector_2'> +1.0677982e-04 </wgt>
<wgt id='morphing_basis_vector_3'> +1.4306313e-04 </wgt>
<wgt id='morphing_basis_vector_4'> +5.4098830e-05 </wgt>
<wgt id='morphing_basis_vector_5'> +7.8961392e-05 </wgt>
</rwgt>
</event>
<event>
 4      1 +1.0153100e-05 5.34718900e+02 7.81860800e-03 9.32526700e-02
        2 -1    0    0  501    0 +0.0000000000e+00 +0.0000000000e+00 +3.3186616439e+02 3.3186616439e+02 0.0000000000e+00 0.0000e+00 1.0000e+00
       -2 -1    0    0    0  501 -0.0000000000e+00 -0.0000000000e+00 -2.1539130429e+02 2.1539130429e+02 0.0000000000e+00 0.0000e+00 -1.0000e+00
      -13  1    1    2    0    0 -1.6102248489e+01 +1.1503733546e+02 +3.0469150369e+02 3.2608247941e+02 0.0000000000e+00 0.0000e+00 1.0000e+00
       13  1    1    2    0    0 +1.6102248489e+01 -1.1503733546e+02 -1.8821664359e+02 2.2117498927e+02 0.0000000000e+00 0.0000e+00 -1.0000e+00
<mgrwt>
<rscale>  0 0.53471894E+03</rscale>
<asrwt>0</asrwt>
<pdfrwt beam="1">  1        2 0.51056333E-01 0.53471894E+03</pdfrwt>
<pdfrwt beam="2">  1       -2 0.33137124E-01 0.53471894E+03</pdfrwt>
<totfact> 0.98055708E+02</totfact>
</mgrwt>
<rwgt>
<wgt id='morphing_basis_vector_1'> +2.5030994e-04 </wgt>
<wgt id='morphing_basis_vector_2'> +3.0451849e-04 </wgt>
<wgt id='morphing_basis_vector_3'> +1.2228612e-04 </wgt>
<wgt id='morphing_basis_vector_4'> +1.6807933e-05 </wgt>
<wgt id='morphing_basis_vector_5'> +7.6966415e-05 </wgt>
</rwgt>
</event>
<event>
 4      1 +1.0153100e-05 6.14946900e+02 7.81860800e-03 9.17400800e-02
        2 -1    0    0  501    0 +0.0000000000e+00 +0.0000000000e+00 +5.5179476800e+02 5.5179476800e+02 0.0000000000e+00 0.0000e+00 -1.0000e+00
       -2 -1    0    0    0  501 -0.0000000000e+00 -0.0000000000e+00 -1.7133165202e+02 1.7133165202e+02 0.0000000000e+00 0.0000e+00 1.0000e+00
      -13  1    1    2    0    0 -8.8881022315e+01 -2.9389352353e+02 +2.0943431669e+02 3.7166647994e+02 0.0000000000e+00 0.0000e+00 1.0000e+00
       13  1    1    2    0    0 +8.8881022315e+01 +2.9389352353e+02 +1.7102879928e+02 3.5145994008e+02 0.0000000000e+00 0.0000e+00 -1.0000e+00
<mgrwt>
<rscale>  0 0.61494686E+03</rscale>
<asrwt>0</asrwt>
<pdfrwt beam="1">  1        2 0.84891502E-01 0.61494686E+03</pdfrwt>
<pdfrwt beam="2">  1       -2 0.26358716E-01 0.61494686E+03</pdfrwt>
<totfact> 0.82441639E+02</totfact>
</mgrwt>
<rwgt>
<wgt id='morphing_basis_vector_1'> +3.0180711e-04 </wgt>
<wgt id='morphing_basis_vector_2'> +2.0254641e-04 </wgt>
<wgt id='morphing_basis_vector_3'> +2.3358387e-04 </wgt>
<wgt id='morphing_basis_vector_4'> +9.3780496e-05 </wgt>
<wgt id='morphing_basis_vector_5'> +1.5712110e-04 </wgt>
</rwgt>
</event>
<event>
 4      1 +1.0153100e-05 6.19336100e+02 7.81860800e-03 9.16644600e-02
        2 -1    0    0  501    0 +0.0000000000e+00 +0.0000000000e+00 +9.0991531743e+02 9.0991531743e+02 0.0000000000e+00 0.0000e+00 1.0000e+00
       -2 -1    0    0    0  501 -0.0000000000e+00 -0.0000000000e+00 -1.0538815476e+02 1.0538815476e+02 0.0000000000e+00 0.0000e+00 -1.0000e+00
      -13  1    1    2    0    0 -7.7338269551e+01 -1.6770673213e+02 -5.2292200389e+00 1.8475416283e+02 0.0000000000e+00 0.0000e+00 -1.0000e+00
       13  1    1    2    0    0 +7.7338269551e+01 +1.6770673213e+02 +8.0975638271e+02 8.3054930936e+02 0.0000000000e+00 0.0000e+00 1.0000e+00
<mgrwt>
<rscale>  0 0.61933608E+03</rscale>
<asrwt>0</asrwt>
<pdfrwt beam="1">  1        2 0.13998697E+00 0.61933608E+03</pdfrwt>
<pdfrwt beam="2">  1       -2 0.16213563E-01 0.61933608E+03</pdfrwt>
<totfact> 0.10026703E+03</totfact>
</mgrwt>
<rwgt>
<wgt id='morphing_basis_vector_1'> +2.9681745e-04 </wgt>
<wgt id='morphing_basis_vector_2'> +1.7000898e-04 </wgt>
<wgt id='morphing_basis_vector_3'> +2.3903400e-04 </wgt>
<wgt id='morphing_basis_vector_4'> +1.0708682e-04 </wgt>
<wgt id='morphing_basis_vector_5'> +1.6286725e-04 </wgt>
</rwgt>
</event>
<event>
 4      1 +1.0153100e-05 5.73665500e+02 7.81860800e-03 9.24856000e-02
        2 -1    0    0  501    0 +0.0000000000e+00 +0.0000000000e+00 +3.7398642633e+02 3.7398642633e+02 0.0000000000e+00 0.0000e+00 -1.0000e+00
       -2 -1    0    0    0  501 -0.0000000000e+00 -0.0000000000e+00 -2.1998936889e+02 2.1998936889e+02 0.0000000000e+00 0.0000e+00 1.0000e+00
      -13  1    1    2    0    0 +2.2425781221e+02 +4.8833648055e+01 -1.0112938058e+02 2.5080558833e+02 0.0000000000e+00 0.0000e+00 1.0000e+00
       13  1    1    2    0    0 -2.2425781221e+02 -4.8833648055e+01 +2.5512643801e+02 3.4317020689e+02 0.0000000000e+00 0.0000e+00 -1.0000e+00
<mgrwt>
<rscale>  0 0.57366554E+03</rscale>
<asrwt>0</asrwt>
<pdfrwt beam="1">  1        2 0.57536373E-01 0.57366554E+03</pdfrwt>
<pdfrwt beam="2">  1       -2 0.33844518E-01 0.57366554E+03</pdfrwt>
<totfact> 0.82579139E+02</totfact>
</mgrwt>
<rwgt>
<wgt id='morphing_basis_vector_1'> +2.3192112e-04 </wgt>
<wgt id='morphing_basis_vector_2'> +1.3186478e-04 </wgt>
<wgt id='morphing_basis_vector_3'> +1.7933974e-04 </wgt>
<wgt id='morphing_basis_vector_4'> +7.3348411e-05 </wgt>
<wgt id='morphing_basis_vector_5'> +1.0979841e-04 </wgt>
</rwgt>
</event>
<event>
 4      1 +1.0153100e-05 5.61610000e+02 7.81860800e-03 9.27159400e-02
        2 -1    0    0  501    0 +0.0000000000e+00 +0.0000000000e+00 +1.2984591080e+03 1.2984591080e+03 0.0000000000e+00 0.0000e+00 -1.0000e+00
       -2 -1    0    0    0  501 -0.0000000000e+00 -0.0000000000e+00 -6.0726950227e+01 6.0726950227e+01 0.0000000000e+00 0.0000e+00 1.0000e+00
      -13  1    1    2    0    0 +2.6237931571e+02 -9.7947815704e+01 +5.6957664411e+02 6.3470799068e+02 0.0000000000e+00 0.0000e+00 1.0000e+00
       13  1    1    2    0    0 -2.6237931571e+02 +9.7947815704e+01 +6.6815551363e+02 7.2447806751e+02 0.0000000000e+00 0.0000e+00 -1.0000e+00
<mgrwt>
<rscale>  0 0.56161005E+03</rscale>
<asrwt>0</asrwt>
<pdfrwt beam="1">  1        2 0.19976292E+00 0.56161005E+03</pdfrwt>
<pdfrwt beam="2">  1       -2 0.93426087E-02 0.56161005E+03</pdfrwt>
<totfact> 0.14179533E+03</totfact>
</mgrwt>
<rwgt>
<wgt id='morphing_basis_vector_1'> +2.2183768e-04 </wgt>
<wgt id='morphing_basis_vector_2'> +1.3850350e-04 </wgt>
<wgt id='morphing_basis_vector_3'> +1.6507167e-04 </wgt>
<wgt id='morphing_basis_vector_4'> +6.2761057e-05 </wgt>
<wgt id='morphing_basis_vector_5'> +9.8200490e-05 </wgt>
</rwgt>
</event>
<event>
 4      1 +1.0153100e-05 5.23295200e+02 7.81860800e-03 9.34909700e-02
        2 -1    0    0  501    0 +0.0000000000e+00 +0.0000000000e+00 +1.4746782259e+02 1.4746782259e+02 0.0000000000e+00 0.0000e+00 -1.0000e+00
       -2 -1    0    0    0  501 -0.0000000000e+00 -0.0000000000e+00 -4.6423333157e+02 4.6423333157e+02 0.0000000000e+00 0.0000e+00 1.0000e+00
      -13  1    1    2    0    0 -7.0429064969e+01 +1.6331580668e+02 -3.8270725005e+02 4.2201557453e+02 0.0000000000e+00 0.0000e+00 1.0000e+00
       13  1    1    2    0    0 +7.0429064969e+01 -1.6331580668e+02 +6.5941741067e+01 1.8968557963e+02 0.0000000000e+00 0.0000e+00 -1.0000e+00
<mgrwt>
<rscale>  0 0.52329525E+03</rscale>
<asrwt>0</asrwt>
<pdfrwt beam="1">  1        2 0.22687357E-01 0.52329525E+03</pdfrwt>
<pdfrwt beam="2">  1       -2 0.71420512E-01 0.52329525E+03</pdfrwt>
<totfact> 0.55759900E+02</totfact>
</mgrwt>
<rwgt>
<wgt id='morphing_basis_vector_1'> +1.7359342e-04 </wgt>
<wgt id='morphing_basis_vector_2'> +9.6358261e-05 </wgt>
<wgt id='morphing_basis_vector_3'> +1.2803797e-04 </wgt>
<wgt id='morphing_basis_vector_4'> +4.6364230e-05 </wgt>
<wgt id='morphing_basis_vector_5'> +6.6621404e-05 </wgt>
</rwgt>
</event>
<event>
 4      1 +1.0153100e-05 5.96098600e+02 7.81860800e-03 9.20725400e-02
        2 -1    0    0  501    0 +0.0000000000e+00 +0.0000000000e+00 +3.2640787762e+02 3.2640787762e+02 0.0000000000e+00 0.0000e+00 -1.0000e+00
       -2 -1    0    0    0  501 -0.0000000000e+00 -0.0000000000e+00 -2.7215454655e+02 2.7215454655e+02 0.0000000000e+00 0.0000e+00 1.0000e+00
      -13  1    1    2    0    0 +2.0567944210e+02 +1.6483431071e+02 -1.1258506036e+02 2.8661782692e+02 0.0000000000e+00 0.0000e+00 1.0000e+00
       13  1    1    2    0    0 -2.0567944210e+02 -1.6483431071e+02 +1.6683839144e+02 3.1194459724e+02 0.0000000000e+00 0.0000e+00 -1.0000e+00
<mgrwt>
<rscale>  0 0.59609861E+03</rscale>
<asrwt>0</asrwt>
<pdfrwt beam="1">  1        2 0.50216597E-01 0.59609861E+03</pdfrwt>
<pdfrwt beam="2">  1       -2 0.41869930E-01 0.59609861E+03</pdfrwt>
<totfact> 0.65137338E+02</totfact>
</mgrwt>
<rwgt>
<wgt id='morphing_basis_vector_1'> +2.6310329e-04 </wgt>
<wgt id='morphing_basis_vector_2'> +1.5245600e-04 </wgt>
<wgt id='morphing_basis_vector_3'> +2.0699154e-04 </wgt>
<wgt id='morphing_basis_vector_4'> +8.8053722e-05 </wgt>
<wgt id='morphing_basis_vector_5'> +1.3406005e-04 </wgt>
</rwgt>
</event>
<event>
 4      1 +1.0153100e-05 5.27422200e+02 7.81860800e-03 9.34041400e-02
        2 -1    0    0  501    0 +0.0000000000e+00 +0.0000000000e+00 +4.9687350121e+02 4.9687350121e+02 0.0000000000e+00 0.0000e+00 -1.0000e+00
       -2 -1    0    0    0  501 -0.0000000000e+00 -0.0000000000e+00 -1.3996226221e+02 1.3996226221e+02 0.0000000000e+00 0.0000e+00 1.0000e+00
      -13  1    1    2    0    0 -7.4390317273e+01 +6.7381760106e+01 -1.1599707613e+02 1.5339342414e+02 0.0000000000e+00 0.0000e+00 1.0000e+00
       13  1    1    2    0    0 +7.4390317273e+01 -6.7381760106e+01 +4.7290831513e+02 4.8344233929e+02 0.0000000000e+00 0.0000e+00 -1.0000e+00
<mgrwt>
<rscale>  0 0.52742218E+03</rscale>
<asrwt>0</asrwt>
<pdfrwt beam="1">  1        2 0.76442076E-01 0.52742218E+03</pdfrwt>
<pdfrwt beam="2">  1       -2 0.21532656E-01 0.52742218E+03</pdfrwt>
<totfact> 0.13098363E+03</totfact>
</mgrwt>
<rwgt>
<wgt id='morphing_basis_vector_1'> +1.7769883e-04 </wgt>
<wgt id='morphing_basis_vector_2'> +9.8409590e-05 </wgt>
<wgt id='morphing_basis_vector_3'> +1.3177234e-04 </wgt>
<wgt id='morphing_basis_vector_4'> +4.8330776e-05 </wgt>
<wgt id='morphing_basis_vector_5'> +6.9617236e-05 </wgt>
</rwgt>
</event>
<event>
 4      1 +1.0153100e-05 5.65657900e+02 7.81860800e-03 9.26379100e-02
        2 -1    0    0  501    0 +0.0000000000e+00 +0.0000000000e+00 +8.6983980964e+01 8.6983980964e+01 0.0000000000e+00 0.0000e+00 -1.0000e+00
       -2 -1    0    0    0  501 -0.0000000000e+00 -0.0000000000e+00 -9.1962021490e+02 9.1962021490e+02 0.0000000000e+00 0.0000e+00 1.0000e+00
      -13  1    1    2    0    0 +2.1633772454e+02 -2.5785349884e+01 -7.3725210644e+02 7.6877016317e+02 0.0000000000e+00 0.0000e+00 1.0000e+00
       13  1    1    2    0    0 -2.1633772454e+02 +2.5785349884e+01 -9.5384127498e+01 2.3783403270e+02 0.0000000000e+00 0.0000e+00 -1.0000e+00
<mgrwt>
<rscale>  0 0.56565794E+03</rscale>
<asrwt>0</asrwt>
<pdfrwt beam="1">  1        2 0.13382150E-01 0.56565794E+03</pdfrwt>
<pdfrwt beam="2">  1       -2 0.14148004E+00 0.56565794E+03</pdfrwt>
<totfact> 0.20099491E+02</totfact>
</mgrwt>
<rwgt>
<wgt id='morphing_basis_vector_1'> +2.2164382e-04 </wgt>
<wgt id='morphing_basis_vector_2'> +1.2538747e-04 </wgt>
<wgt id='morphing_basis_vector_3'> +1.7023035e-04 </wgt>
<wgt id='morphing_basis_vector_4'> +6.8484962e-05 </wgt>
<wgt id='morphing_basis_vector_5'> +1.0192962e-04 </wgt>
</rwgt>
</event>
<event>
 4      1 +1.0153100e-05 5.96857200e+02 7.81860800e-03 9.20589100e-02
        2 -1    0    0  501    0 +0.0000000000e+00 +0.0000000000e+00 +5.9887884820e+02 5.9887884820e+02 0.0000000000e+00 0.0000e+00 -1.0000e+00
       -2 -1    0    0    0  501 -0.0000000000e+00 -0.0000000000e+00 -1.4871059488e+02 1.4871059488e+02 0.0000000000e+00 0.0000e+00 1.0000e+00
      -13  1    1    2    0    0 -1.3107649697e+02 +8.8655685211e+00 -1.1054132968e+02 1.7169458911e+02 0.0000000000e+00 0.0000e+00 1.0000e+00
       13  1    1    2    0    0 +1.3107649697e+02 -8.8655685211e+00 +5.6070958300e+02 5.7589485397e+02 0.0000000000e+00 0.0000e+00 -1.0000e+00
<mgrwt>
<rscale>  0 0.59685720E+03</rscale>
<asrwt>0</asrwt>
<pdfrwt beam="1">  1        2 0.92135206E-01 0.59685720E+03</pdfrwt>
<pdfrwt beam="2">  1       -2 0.22878553E-01 0.59685720E+03</pdfrwt>
<totfact> 0.95436562E+02</totfact>
</mgrwt>
<rwgt>
<wgt id='morphing_basis_vector_1'> +2.6293366e-04 </wgt>
<wgt id='morphing_basis_vector_2'> +1.4922404e-04 </wgt>
<wgt id='morphing_basis_vector_3'> +2.0797495e-04 </wgt>
<wgt id='morphing_basis_vector_4'> +8.9558092e-05 </wgt>
<wgt id='morphing_basis_vector_5'> +1.3493194e-04 </wgt>
</rwgt>
</event>
<event>
 4      1 +1.0153100e-05 5.78440100e+02 7.81860800e-03 9.23960200e-02
        2 -1    0    0  501    0 +0.0000000000e+00 +0.0000000000e+00 +4.1501935999e+02 4.1501935999e+02 0.0000000000e+00 0.0000e+00 1.0000e+00
       -2 -1    0    0    0  501 -0.0000000000e+00 -0.0000000000e+00 -2.0155261193e+02 2.0155261193e+02 0.0000000000e+00 0.0000e+00 -1.0000e+00
      -13  1    1    2    0    0 -2.5429589733e+02 -6.2041934104e+01 -2.4390753352e+01 2.6288878606e+02 0.0000000000e+00 0.0000e+00 -1.0000e+00
       13  1    1    2    0    0 +2.5429589733e+02 +6.2041934104e+01 +2.3785750140e+02 3.5368318586e+02 0.0000000000e+00 0.0000e+00 1.0000e+00
<mgrwt>
<rscale>  0 0.57844010E+03</rscale>
<asrwt>0</asrwt>
<pdfrwt beam="1">  1        2 0.63849132E-01 0.57844010E+03</pdfrwt>
<pdfrwt beam="2">  1       -2 0.31008094E-01 0.57844010E+03</pdfrwt>
<totfact> 0.85828356E+02</totfact>
</mgrwt>
<rwgt>
<wgt id='morphing_basis_vector_1'> +2.3902830e-04 </wgt>
<wgt id='morphing_basis_vector_2'> +1.3832992e-04 </wgt>
<wgt id='morphing_basis_vector_3'> +1.8490627e-04 </wgt>
<wgt id='morphing_basis_vector_4'> +7.5806562e-05 </wgt>
<wgt id='morphing_basis_vector_5'> +1.1469383e-04 </wgt>
</rwgt>
</event>
<event>
 4      1 +1.0153100e-05 6.17643200e+02 7.81860800e-03 9.16935500e-02
        2 -1    0    0  501    0 +0.0000000000e+00 +0.0000000000e+00 +4.7875296951e+02 4.7875296951e+02 0.0000000000e+00 0.0000e+00 -1.0000e+00
       -2 -1    0    0    0  501 -0.0000000000e+00 -0.0000000000e+00 -1.9920667925e+02 1.9920667925e+02 0.0000000000e+00 0.0000e+00 1.0000e+00
      -13  1    1    2    0    0 +1.2524289948e+02 -6.8893557759e+01 -1.6070935937e+02 2.1508046020e+02 0.0000000000e+00 0.0000e+00 1.0000e+00
       13  1    1    2    0    0 -1.2524289948e+02 +6.8893557759e+01 +4.4025564962e+02 4.6287918856e+02 0.0000000000e+00 0.0000e+00 -1.0000e+00
<mgrwt>
<rscale>  0 0.61764323E+03</rscale>
<asrwt>0</asrwt>
<pdfrwt beam="1">  1        2 0.73654303E-01 0.61764323E+03</pdfrwt>
<pdfrwt beam="2">  1       -2 0.30647182E-01 0.61764323E+03</pdfrwt>
<totfact> 0.74551806E+02</totfact>
</mgrwt>
<rwgt>
<wgt id='morphing_basis_vector_1'> +2.9406413e-04 </wgt>
<wgt id='morphing_basis_vector_2'> +1.6810205e-04 </wgt>
<wgt id='morphing_basis_vector_3'> +2.3656718e-04 </wgt>
<wgt id='morphing_basis_vector_4'> +1.0575730e-04 </wgt>
<wgt id='morphing_basis_vector_5'> +1.6063481e-04 </wgt>
</rwgt>
</event>
<event>
 4      1 +1.0153100e-05 6.03543400e+02 7.81860800e-03 9.19396900e-02
        2 -1    0    0  501    0 +0.0000000000e+00 +0.0000000000e+00 +7.8071598684e+01 7.8071598684e+01 0.0000000000e+00 0.0000e+00 1.0000e+00
       -2 -1    0    0    0  501 -0.0000000000e+00 -0.0000000000e+00 -1.1664442878e+03 1.1664442878e+03 0.0000000000e+00 0.0000e+00 -1.0000e+00
      -13  1    1    2    0    0 +2.8247163170e+02 +3.7983475897e+01 -3.3971172032e+02 4.4343772965e+02 0.0000000000e+00 0.0000e+00 1.0000e+00
       13  1    1    2    0    0 -2.8247163170e+02 -3.7983475897e+01 -7.4866096882e+02 8.0107815686e+02 0.0000000000e+00 0.0000e+00 -1.0000e+00
<mgrwt>
<rscale>  0 0.60354344E+03</rscale>
<asrwt>0</asrwt>
<pdfrwt beam="1">  1        2 0.12011015E-01 0.60354344E+03</pdfrwt>
<pdfrwt beam="2">  1       -2 0.17945297E+00 0.60354344E+03</pdfrwt>
<totfact> 0.11450865E+02</totfact>
</mgrwt>
<rwgt>
<wgt id='morphing_basis_vector_1'> +3.0113592e-04 </wgt>
<wgt id='morphing_basis_vector_2'> +2.4343138e-04 </wgt>
<wgt id='morphing_basis_vector_3'> +2.1778714e-04 </wgt>
<wgt id='morphing_basis_vector_4'> +7.2279329e-05 </wgt>
<wgt id='morphing_basis_vector_5'> +1.4296792e-04 </wgt>
</rwgt>
</event>
<event>
 4      1 +1.0153100e-05 5.77364000e+02 7.81860800e-03 9.24161300e-02
        2 -1    0    0  501    0 +0.0000000000e+00 +0.0000000000e+00 +3.0372600679e+02 3.0372600679e+02 0.0000000000e+00 0.0000e+00 1.0000e+00
       -2 -1    0    0    0  501 -0.0000000000e+00 -0.0000000000e+00 -2.7438310639e+02 2.7438310639e+02 0.0000000000e+00 0.0000e+00 -1.0000e+00
      -13  1    1    2    0    0 +1.9870805676e+02 -4.1425934028e+01 +2.2020762462e+02 2.9948689082e+02 0.0000000000e+00 0.0000e+00 -1.0000e+00
       13  1    1    2    0    0 -1.9870805676e+02 +4.1425934028e+01 -1.9086472423e+02 2.7862222235e+02 0.0000000000e+00 0.0000e+00 1.0000e+00
<mgrwt>
<rscale>  0 0.57736396E+03</rscale>
<asrwt>0</asrwt>
<pdfrwt beam="1">  1        2 0.46727078E-01 0.57736396E+03</pdfrwt>
<pdfrwt beam="2">  1       -2 0.42212786E-01 0.57736396E+03</pdfrwt>
<totfact> 0.69551677E+02</totfact>
</mgrwt>
<rwgt>
<wgt id='morphing_basis_vector_1'> +3.0296558e-04 </wgt>
<wgt id='morphing_basis_vector_2'> +3.4030382e-04 </wgt>
<wgt id='morphing_basis_vector_3'> +1.7912680e-04 </wgt>
<wgt id='morphing_basis_vector_4'> +2.9688361e-05 </wgt>
<wgt id='morphing_basis_vector_5'> +1.1442372e-04 </wgt>
</rwgt>
</event>
<event>
 4      1 +1.0153100e-05 6.02328500e+02 7.81860800e-03 9.19612300e-02
        2 -1    0    0  501    0 +0.0000000000e+00 +0.0000000000e+00 +1.7709222024e+03 1.7709222024e+03 0.0000000000e+00 0.0000e+00 -1.0000e+00
       -2 -1    0    0    0  501 -0.0000000000e+00 -0.0000000000e+00 -5.1216201934e+01 5.1216201934e+01 0.0000000000e+00 0.0000e+00 1.0000e+00
      -13  1    1    2    0    0 +2.8851203737e+02 -8.4081104560e+01 +9.1967782728e+02 9.6753094722e+02 0.0000000000e+00 0.0000e+00 1.0000e+00
       13  1    1    2    0    0 -2.8851203737e+02 +8.4081104560e+01 +8.0002817321e+02 8.5460745713e+02 0.0000000000e+00 0.0000e+00 -1.0000e+00
<mgrwt>
<rscale>  0 0.60232851E+03</rscale>
<asrwt>0</asrwt>
<pdfrwt beam="1">  1        2 0.27244952E+00 0.60232851E+03</pdfrwt>
<pdfrwt beam="2">  1       -2 0.78794171E-02 0.60232851E+03</pdfrwt>
<totfact> 0.10155852E+03</totfact>
</mgrwt>
<rwgt>
<wgt id='morphing_basis_vector_1'> +2.8249554e-04 </wgt>
<wgt id='morphing_basis_vector_2'> +1.9009922e-04 </wgt>
<wgt id='morphing_basis_vector_3'> +2.1554776e-04 </wgt>
<wgt id='morphing_basis_vector_4'> +8.4579419e-05 </wgt>
<wgt id='morphing_basis_vector_5'> +1.4144537e-04 </wgt>
</rwgt>
</event>
<event>
 4      1 +1.0153100e-05 6.10107200e+02 7.81860800e-03 9.18242300e-02
        2 -1    0    0  501    0 +0.0000000000e+00 +0.0000000000e+00 +1.7487314493e+03 1.7487314493e+03 0.0000000000e+00 0.0000e+00 1.0000e+00
       -2 -1    0    0    0  501 -0.0000000000e+00 -0.0000000000e+00 -5.3214396335e+01 5.3214396335e+01 0.0000000000e+00 0.0000e+00 -1.0000e+00
      -13  1    1    2    0    0 -9.6279980842e+01 +2.2466257468e+02 +3.0867906182e+02 3.9373324775e+02 0.0000000000e+00 0.0000e+00 -1.0000e+00
       13  1    1    2    0    0 +9.6279980842e+01 -2.2466257468e+02 +1.3868379912e+03 1.4082125979e+03 0.0000000000e+00 0.0000e+00 1.0000e+00
<mgrwt>
<rscale>  0 0.61010717E+03</rscale>
<asrwt>0</asrwt>
<pdfrwt beam="1">  1        2 0.26903556E+00 0.61010717E+03</pdfrwt>
<pdfrwt beam="2">  1       -2 0.81868316E-02 0.61010717E+03</pdfrwt>
<totfact> 0.98368648E+02</totfact>
</mgrwt>
<rwgt>
<wgt id='morphing_basis_vector_1'> +2.8308428e-04 </wgt>
<wgt id='morphing_basis_vector_2'> +1.6300346e-04 </wgt>
<wgt id='morphing_basis_vector_3'> +2.2589972e-04 </wgt>
<wgt id='morphing_basis_vector_4'> +9.9150167e-05 </wgt>
<wgt id='morphing_basis_vector_5'> +1.5095549e-04 </wgt>
</rwgt>
</event>
<event>
 4      1 +1.0153100e-05 5.89782300e+02 7.81860800e-03 9.21868700e-02
        2 -1    0    0  501    0 +0.0000000000e+00 +0.0000000000e+00 +5.2999569096e+02 5.2999569096e+02 0.0000000000e+00 0.0000e+00 1.0000e+00
       -2 -1    0    0    0  501 -0.0000000000e+00 -0.0000000000e+00 -1.6407828466e+02 1.6407828466e+02 0.0000000000e+00 0.0000e+00 -1.0000e+00
      -13  1    1    2    0    0 +1.1260550710e+02 +3.5440810081e+01 -1.3505734021e+02 1.7937819375e+02 0.0000000000e+00 0.0000e+00 -1.0000e+00
       13  1    1    2    0    0 -1.1260550710e+02 -3.5440810081e+01 +5.0097474651e+02 5.1469578188e+02 0.0000000000e+00 0.0000e+00 1.0000e+00
<mgrwt>
<rscale>  0 0.58978228E+03</rscale>
<asrwt>0</asrwt>
<pdfrwt beam="1">  1        2 0.81537798E-01 0.58978228E+03</pdfrwt>
<pdfrwt beam="2">  1       -2 0.25242813E-01 0.58978228E+03</pdfrwt>
<totfact> 0.93036241E+02</totfact>
</mgrwt>
<rwgt>
<wgt id='morphing_basis_vector_1'> +2.5295989e-04 </wgt>
<wgt id='morphing_basis_vector_2'> +1.4318825e-04 </wgt>
<wgt id='morphing_basis_vector_3'> +1.9889425e-04 </wgt>
<wgt id='morphing_basis_vector_4'> +8.4486594e-05 </wgt>
<wgt id='morphing_basis_vector_5'> +1.2688019e-04 </wgt>
</rwgt>
</event>
<event>
 4      1 +1.0153100e-05 5.25328200e+02 7.81860800e-03 9.34480900e-02
        2 -1    0    0  501    0 +0.0000000000e+00 +0.0000000000e+00 +1.6969043267e+03 1.6969043267e+03 0.0000000000e+00 0.0000e+00 -1.0000e+00
       -2 -1    0    0    0  501 -0.0000000000e+00 -0.0000000000e+00 -4.0657826656e+01 4.0657826656e+01 0.0000000000e+00 0.0000e+00 1.0000e+00
      -13  1    1    2    0    0 +1.0198579069e+02 -2.3433225098e+02 +6.2748304570e+02 6.7753057348e+02 0.0000000000e+00 0.0000e+00 1.0000e+00
       13  1    1    2    0    0 -1.0198579069e+02 +2.3433225098e+02 +1.0287634543e+03 1.0600315798e+03 0.0000000000e+00 0.0000e+00 -1.0000e+00
<mgrwt>
<rscale>  0 0.52532825E+03</rscale>
<asrwt>0</asrwt>
<pdfrwt beam="1">  1        2 0.26106215E+00 0.52532825E+03</pdfrwt>
<pdfrwt beam="2">  1       -2 0.62550515E-02 0.52532825E+03</pdfrwt>
<totfact> 0.15942953E+03</totfact>
</mgrwt>
<rwgt>
<wgt id='morphing_basis_vector_1'> +1.7794404e-04 </wgt>
<wgt id='morphing_basis_vector_2'> +1.0462662e-04 </wgt>
<wgt id='morphing_basis_vector_3'> +1.2918300e-04 </wgt>
<wgt id='morphing_basis_vector_4'> +4.6149048e-05 </wgt>
<wgt id='morphing_basis_vector_5'> +6.8159398e-05 </wgt>
</rwgt>
</event>
<event>
 4      1 +1.0153100e-05 5.24816500e+02 7.81860800e-03 9.34588600e-02
        2 -1    0    0  501    0 +0.0000000000e+00 +0.0000000000e+00 +1.3326494218e+03 1.3326494218e+03 0.0000000000e+00 0.0000e+00 1.0000e+00
       -2 -1    0    0    0  501 -0.0000000000e+00 -0.0000000000e+00 -5.1670066102e+01 5.1670066102e+01 0.0000000000e+00 0.0000e+00 -1.0000e+00
      -13  1    1    2    0    0 +1.9665874514e+02 -1.7009358359e+02 +7.3380666167e+02 7.7851056893e+02 0.0000000000e+00 0.0000e+00 -1.0000e+00
       13  1    1    2    0    0 -1.9665874514e+02 +1.7009358359e+02 +5.4717269404e+02 6.0580891898e+02 0.0000000000e+00 0.0000e+00 1.0000e+00
<mgrwt>
<rscale>  0 0.52481648E+03</rscale>
<asrwt>0</asrwt>
<pdfrwt beam="1">  1        2 0.20502296E+00 0.52481648E+03</pdfrwt>
<pdfrwt beam="2">  1       -2 0.79492419E-02 0.52481648E+03</pdfrwt>
<totfact> 0.17449503E+03</totfact>
</mgrwt>
<rwgt>
<wgt id='morphing_basis_vector_1'> +1.8440074e-04 </wgt>
<wgt id='morphing_basis_vector_2'> +1.2600705e-04 </wgt>
<wgt id='morphing_basis_vector_3'> +1.2666019e-04 </wgt>
<wgt id='morphing_basis_vector_4'> +4.2421372e-05 </wgt>
<wgt id='morphing_basis_vector_5'> +6.8009079e-05 </wgt>
</rwgt>
</event>
<event>
 4      1 +1.0153100e-05 5.34117700e+02 7.81860800e-03 9.32650500e-02
        2 -1    0    0  501    0 +0.0000000000e+00 +0.0000000000e+00 +3.8354759574e+02 3.8354759574e+02 0.0000000000e+00 0.0000e+00 -1.0000e+00
       -2 -1    0    0    0  501 -0.0000000000e+00 -0.0000000000e+00 -1.8594935100e+02 1.8594935100e+02 0.0000000000e+00 0.0000e+00 1.0000e+00
      -13  1    1    2    0    0 +1.5257192920e+02 -2.0902250395e+02 +2.8461094376e+01 2.6034330149e+02 0.0000000000e+00 0.0000e+00 1.0000e+00
       13  1    1    2    0    0 -1.5257192920e+02 +2.0902250395e+02 +1.6913715036e+02 3.0915364525e+02 0.0000000000e+00 0.0000e+00 -1.0000e+00
<mgrwt>
<rscale>  0 0.53411769E+03</rscale>
<asrwt>0</asrwt>
<pdfrwt beam="1">  1        2 0.59007322E-01 0.53411769E+03</pdfrwt>
<pdfrwt beam="2">  1       -2 0.28607593E-01 0.53411769E+03</pdfrwt>
<totfact> 0.10802327E+03</totfact>
</mgrwt>
<rwgt>
<wgt id='morphing_basis_vector_1'> +1.8715161e-04 </wgt>
<wgt id='morphing_basis_vector_2'> +1.0996263e-04 </wgt>
<wgt id='morphing_basis_vector_3'> +1.3734483e-04 </wgt>
<wgt id='morphing_basis_vector_4'> +5.0249865e-05 </wgt>
<wgt id='morphing_basis_vector_5'> +7.4745396e-05 </wgt>
</rwgt>
</event>
<event>
 4      1 +1.0153100e-05 5.59852300e+02 7.81860800e-03 9.27500300e-02
        2 -1    0    0  501    0 +0.0000000000e+00 +0.0000000000e+00 +7.3788916873e+02 7.3788916873e+02 0.0000000000e+00 0.0000e+00 1.0000e+00
       -2 -1    0    0    0  501 -0.0000000000e+00 -0.0000000000e+00 -1.0619297272e+02 1.0619297272e+02 0.0000000000e+00 0.0000e+00 -1.0000e+00
      -13  1    1    2    0    0 +2.0247317444e+02 +1.1858545874e+01 +2.4967466945e+01 2.0435113380e+02 0.0000000000e+00 0.0000e+00 -1.0000e+00
       13  1    1    2    0    0 -2.0247317444e+02 -1.1858545874e+01 +6.0672872907e+02 6.3973100765e+02 0.0000000000e+00 0.0000e+00 1.0000e+00
<mgrwt>
<rscale>  0 0.55985228E+03</rscale>
<asrwt>0</asrwt>
<pdfrwt beam="1">  1        2 0.11352141E+00 0.55985228E+03</pdfrwt>
<pdfrwt beam="2">  1       -2 0.16337381E-01 0.55985228E+03</pdfrwt>
<totfact> 0.12975299E+03</totfact>
</mgrwt>
<rwgt>
<wgt id='morphing_basis_vector_1'> +2.1438705e-04 </wgt>
<wgt id='morphing_basis_vector_2'> +1.2073285e-04 </wgt>
<wgt id='morphing_basis_vector_3'> +1.6387106e-04 </wgt>
<wgt id='morphing_basis_vector_4'> +6.5132370e-05 </wgt>
<wgt id='morphing_basis_vector_5'> +9.6472353e-05 </wgt>
</rwgt>
</event>
<event>
 4      1 +1.0153100e-05 5.68778200e+02 7.81860800e-03 9.25782500e-02
        2 -1    0    0  501    0 +0.0000000000e+00 +0.0000000000e+00 +3.3645385317e+02 3.3645385317e+02 0.0000000000e+00 0.0000e+00 1.0000e+00
       -2 -1    0    0    0  501 -0.0000000000e+00 -0.0000000000e+00 -2.4038112095e+02 2.4038112095e+02 0.0000000000e+00 0.0000e+00 -1.0000e+00
      -13  1    1    2    0    0 -7.1704656330e-02 +2.1403835335e+02 +2.3794465583e+02 3.2004699824e+02 0.0000000000e+00 0.0000e+00 1.0000e+00
       13  1    1    2    0    0 +7.1704656330e-02 -2.1403835335e+02 -1.4187192361e+02 2.5678797587e+02 0.0000000000e+00 0.0000e+00 -1.0000e+00
<mgrwt>
<rscale>  0 0.56877818E+03</rscale>
<asrwt>0</asrwt>
<pdfrwt beam="1">  1        2 0.51762132E-01 0.56877818E+03</pdfrwt>
<pdfrwt beam="2">  1       -2 0.36981711E-01 0.56877818E+03</pdfrwt>
<totfact> 0.79217793E+02</totfact>
</mgrwt>
<rwgt>
<wgt id='morphing_basis_vector_1'> +2.8267664e-04 </wgt>
<wgt id='morphing_basis_vector_2'> +3.0505679e-04 </wgt>
<wgt id='morphing_basis_vector_3'> +1.6781669e-04 </wgt>
<wgt id='morphing_basis_vector_4'> +3.2389872e-05 </wgt>
<wgt id='morphing_basis_vector_5'> +1.0585806e-04 </wgt>
</rwgt>
</event>
<event>
 4      1 +1.0153100e-05 5.37368900e+02 7.81860800e-03 9.31982900e-02
        2 -1    0    0  501    0 +0.0000000000e+00 +0.0000000000e+00 +8.7854843292e+02 8.7854843292e+02 0.0000000000e+00 0.0000e+00 -1.0000e+00
       -2 -1    0    0    0  501 -0.0000000000e+00 -0.0000000000e+00 -8.2171162678e+01 8.2171162678e+01 0.0000000000e+00 0.0000e+00 1.0000e+00
      -13  1    1    2    0    0 -3.7575871248e+01 -1.6803924707e+02 +2.9436864327e+01 1.7468733107e+02 0.0000000000e+00 0.0000e+00 1.0000e+00
       13  1    1    2    0    0 +3.7575871248e+01 +1.6803924707e+02 +7.6694040592e+02 7.8603226453e+02 0.0000000000e+00 0.0000e+00 -1.0000e+00
<mgrwt>
<rscale>  0 0.53736895E+03</rscale>
<asrwt>0</asrwt>
<pdfrwt beam="1">  1        2 0.13516129E+00 0.53736895E+03</pdfrwt>
<pdfrwt beam="2">  1       -2 0.12641718E-01 0.53736895E+03</pdfrwt>
<totfact> 0.15689830E+03</totfact>
</mgrwt>
<rwgt>
<wgt id='morphing_basis_vector_1'> +1.8839433e-04 </wgt>
<wgt id='morphing_basis_vector_2'> +1.0497163e-04 </wgt>
<wgt id='morphing_basis_vector_3'> +1.4100322e-04 </wgt>
<wgt id='morphing_basis_vector_4'> +5.3078427e-05 </wgt>
<wgt id='morphing_basis_vector_5'> +7.7226248e-05 </wgt>
</rwgt>
</event>
<event>
 4      1 +1.0153100e-05 5.59474000e+02 7.81860800e-03 9.27573900e-02
        2 -1    0    0  501    0 +0.0000000000e+00 +0.0000000000e+00 +1.6067281469e+02 1.6067281469e+02 0.0000000000e+00 0.0000e+00 -1.0000e+00
       -2 -1    0    0    0  501 -0.0000000000e+00 -0.0000000000e+00 -4.8703188838e+02 4.8703188838e+02 0.0000000000e+00 0.0000e+00 1.0000e+00
      -13  1    1    2    0    0 -1.5786862869e+02 +1.1341541341e+02 -3.9606847683e+02 4.4119813946e+02 0.0000000000e+00 0.0000e+00 1.0000e+00
       13  1    1    2    0    0 +1.5786862869e+02 -1.1341541341e+02 +6.9709403149e+01 2.0650656360e+02 0.0000000000e+00 0.0000e+00 -1.0000e+00
<mgrwt>
<rscale>  0 0.55947398E+03</rscale>
<asrwt>0</asrwt>
<pdfrwt beam="1">  1        2 0.24718895E-01 0.55947398E+03</pdfrwt>
<pdfrwt beam="2">  1       -2 0.74927982E-01 0.55947398E+03</pdfrwt>
<totfact> 0.45422164E+02</totfact>
</mgrwt>
<rwgt>
<wgt id='morphing_basis_vector_1'> +2.1387239e-04 </wgt>
<wgt id='morphing_basis_vector_2'> +1.2028357e-04 </wgt>
<wgt id='morphing_basis_vector_3'> +1.6347054e-04 </wgt>
<wgt id='morphing_basis_vector_4'> +6.4948782e-05 </wgt>
<wgt id='morphing_basis_vector_5'> +9.6122933e-05 </wgt>
</rwgt>
</event>
<event>
 4      1 +1.0153100e-05 5.81715200e+02 7.81860800e-03 9.23351100e-02
        2 -1    0    0  501    0 +0.0000000000e+00 +0.0000000000e+00 +9.2885810106e+02 9.2885810106e+02 0.0000000000e+00 0.0000e+00 -1.0000e+00
       -2 -1    0    0    0  501 -0.0000000000e+00 -0.0000000000e+00 -9.1077569036e+01 9.1077569036e+01 0.0000000000e+00 0.0000e+00 1.0000e+00
      -13  1    1    2    0    0 -8.2821459252e+01 -1.6106692913e+02 +1.9854997123e+01 1.8219816323e+02 0.0000000000e+00 0.0000e+00 1.0000e+00
       13  1    1    2    0    0 +8.2821459252e+01 +1.6106692913e+02 +8.1792553490e+02 8.3773750687e+02 0.0000000000e+00 0.0000e+00 -1.0000e+00
<mgrwt>
<rscale>  0 0.58171518E+03</rscale>
<asrwt>0</asrwt>
<pdfrwt beam="1">  1        2 0.14290124E+00 0.58171518E+03</pdfrwt>
<pdfrwt beam="2">  1       -2 0.14011934E-01 0.58171518E+03</pdfrwt>
<totfact> 0.12349438E+03</totfact>
</mgrwt>
<rwgt>
<wgt id='morphing_basis_vector_1'> +2.4209123e-04 </wgt>
<wgt id='morphing_basis_vector_2'> +1.3694918e-04 </wgt>
<wgt id='morphing_basis_vector_3'> +1.8892156e-04 </wgt>
<wgt id='morphing_basis_vector_4'> +7.8871756e-05 </wgt>
<wgt id='morphing_basis_vector_5'> +1.1811410e-04 </wgt>
</rwgt>
</event>
<event>
 4      1 +1.0153100e-05 5.23018700e+02 7.81860800e-03 9.34968200e-02
        2 -1    0    0  501    0 +0.0000000000e+00 +0.0000000000e+00 +1.6575477951e+03 1.6575477951e+03 0.0000000000e+00 0.0000e+00 1.0000e+00
       -2 -1    0    0    0  501 -0.0000000000e+00 -0.0000000000e+00 -4.1258013457e+01 4.1258013457e+01 0.0000000000e+00 0.0000e+00 -1.0000e+00
      -13  1    1    2    0    0 -2.1270696915e+02 -7.5922783604e+01 +1.2363324221e+03 1.2567920997e+03 0.0000000000e+00 0.0000e+00 1.0000e+00
       13  1    1    2    0    0 +2.1270696915e+02 +7.5922783604e+01 +3.7995735956e+02 4.4201370893e+02 0.0000000000e+00 0.0000e+00 -1.0000e+00
<mgrwt>
<rscale>  0 0.52301866E+03</rscale>
<asrwt>0</asrwt>
<pdfrwt beam="1">  1        2 0.25500730E+00 0.52301866E+03</pdfrwt>
<pdfrwt beam="2">  1       -2 0.63473880E-02 0.52301866E+03</pdfrwt>
<totfact> 0.16375700E+03</totfact>
</mgrwt>
<rwgt>
<wgt id='morphing_basis_vector_1'> +2.0329350e-04 </wgt>
<wgt id='morphing_basis_vector_2'> +1.8931867e-04 </wgt>
<wgt id='morphing_basis_vector_3'> +1.1869948e-04 </wgt>
<wgt id='morphing_basis_vector_4'> +3.1433869e-05 </wgt>
<wgt id='morphing_basis_vector_5'> +6.7389449e-05 </wgt>
</rwgt>
</event>
<event>
 4      1 +1.0153100e-05 5.40779800e+02 7.81860800e-03 9.31288000e-02
        2 -1    0    0  501    0 +0.0000000000e+00 +0.0000000000e+00 +5.0318694909e+02 5.0318694909e+02 0.0000000000e+00 0.0000e+00 -1.0000e+00
       -2 -1    0    0    0  501 -0.0000000000e+00 -0.0000000000e+00 -1.4529531913e+02 1.4529531913e+02 0.0000000000e+00 0.0000e+00 1.0000e+00
      -13  1    1    2    0    0 +1.2766647804e+02 -1.0631409534e+01 -1.0659298452e+02 1.6665479540e+02 0.0000000000e+00 0.0000e+00 1.0000e+00
       13  1    1    2    0    0 -1.2766647804e+02 +1.0631409534e+01 +4.6448461448e+02 4.8182747282e+02 0.0000000000e+00 0.0000e+00 -1.0000e+00
<mgrwt>
<rscale>  0 0.54077984E+03</rscale>
<asrwt>0</asrwt>
<pdfrwt beam="1">  1        2 0.77413376E-01 0.54077984E+03</pdfrwt>
<pdfrwt beam="2">  1       -2 0.22353126E-01 0.54077984E+03</pdfrwt>
<totfact> 0.12129443E+03</totfact>
</mgrwt>
<rwgt>
<wgt id='morphing_basis_vector_1'> +1.9205028e-04 </wgt>
<wgt id='morphing_basis_vector_2'> +1.0689716e-04 </wgt>
<wgt id='morphing_basis_vector_3'> +1.4431883e-04 </wgt>
<wgt id='morphing_basis_vector_4'> +5.4855572e-05 </wgt>
<wgt id='morphing_basis_vector_5'> +7.9956871e-05 </wgt>
</rwgt>
</event>
<event>
 4      1 +1.0153100e-05 5.45238500e+02 7.81860800e-03 9.30387800e-02
        2 -1    0    0  501    0 +0.0000000000e+00 +0.0000000000e+00 +1.5408611782e+02 1.5408611782e+02 0.0000000000e+00 0.0000e+00 1.0000e+00
       -2 -1    0    0    0  501 -0.0000000000e+00 -0.0000000000e+00 -4.8233577837e+02 4.8233577837e+02 0.0000000000e+00 0.0000e+00 -1.0000e+00
      -13  1    1    2    0    0 +6.4774879730e+01 +2.0049399508e+02 -3.6605198031e+02 4.2235965645e+02 0.0000000000e+00 0.0000e+00 -1.0000e+00
       13  1    1    2    0    0 -6.4774879730e+01 -2.0049399508e+02 +3.7802319765e+01 2.1406223975e+02 0.0000000000e+00 0.0000e+00 1.0000e+00
<mgrwt>
<rscale>  0 0.54523847E+03</rscale>
<asrwt>0</asrwt>
<pdfrwt beam="1">  1        2 0.23705557E-01 0.54523847E+03</pdfrwt>
<pdfrwt beam="2">  1       -2 0.74205504E-01 0.54523847E+03</pdfrwt>
<totfact> 0.48740795E+02</totfact>
</mgrwt>
<rwgt>
<wgt id='morphing_basis_vector_1'> +1.9737439e-04 </wgt>
<wgt id='morphing_basis_vector_2'> +1.1088080e-04 </wgt>
<wgt id='morphing_basis_vector_3'> +1.4865047e-04 </wgt>
<wgt id='morphing_basis_vector_4'> +5.6981524e-05 </wgt>
<wgt id='morphing_basis_vector_5'> +8.3636180e-05 </wgt>
</rwgt>
</event>
<event>
 4      1 +1.0153100e-05 5.94072800e+02 7.81860800e-03 9.21090400e-02
        2 -1    0    0  501    0 +0.0000000000e+00 +0.0000000000e+00 +2.0448458957e+02 2.0448458957e+02 0.0000000000e+00 0.0000e+00 -1.0000e+00
       -2 -1    0    0    0  501 -0.0000000000e+00 -0.0000000000e+00 -4.3147810835e+02 4.3147810835e+02 0.0000000000e+00 0.0000e+00 1.0000e+00
      -13  1    1    2    0    0 -2.3298822480e+02 -1.3018641703e+02 -2.5306887111e+02 3.6779868080e+02 0.0000000000e+00 0.0000e+00 1.0000e+00
       13  1    1    2    0    0 +2.3298822480e+02 +1.3018641703e+02 +2.6075352341e+01 2.6816401711e+02 0.0000000000e+00 0.0000e+00 -1.0000e+00
<mgrwt>
<rscale>  0 0.59407280E+03</rscale>
<asrwt>0</asrwt>
<pdfrwt beam="1">  1        2 0.31459167E-01 0.59407280E+03</pdfrwt>
<pdfrwt beam="2">  1       -2 0.66381248E-01 0.59407280E+03</pdfrwt>
<totfact> 0.44449941E+02</totfact>
</mgrwt>
<rwgt>
<wgt id='morphing_basis_vector_1'> +2.6040140e-04 </wgt>
<wgt id='morphing_basis_vector_2'> +1.5126008e-04 </wgt>
<wgt id='morphing_basis_vector_3'> +2.0435811e-04 </wgt>
<wgt id='morphing_basis_vector_4'> +8.6462147e-05 </wgt>
<wgt id='morphing_basis_vector_5'> +1.3173213e-04 </wgt>
</rwgt>
</event>
<event>
 4      1 +1.0153100e-05 5.70113300e+02 7.81860800e-03 9.25528400e-02
        2 -1    0    0  501    0 +0.0000000000e+00 +0.0000000000e+00 +7.0641707713e+02 7.0641707713e+02 0.0000000000e+00 0.0000e+00 1.0000e+00
       -2 -1    0    0    0  501 -0.0000000000e+00 -0.0000000000e+00 -1.1502738326e+02 1.1502738326e+02 0.0000000000e+00 0.0000e+00 -1.0000e+00
      -13  1    1    2    0    0 -1.1622452449e+02 +2.2238031573e+02 +4.9058818968e+02 5.5103349878e+02 0.0000000000e+00 0.0000e+00 1.0000e+00
       13  1    1    2    0    0 +1.1622452449e+02 -2.2238031573e+02 +1.0080150418e+02 2.7041096161e+02 0.0000000000e+00 0.0000e+00 -1.0000e+00
<mgrwt>
<rscale>  0 0.57011335E+03</rscale>
<asrwt>0</asrwt>
<pdfrwt beam="1">  1        2 0.10867955E+00 0.57011335E+03</pdfrwt>
<pdfrwt beam="2">  1       -2 0.17696521E-01 0.57011335E+03</pdfrwt>
<totfact> 0.12014164E+03</totfact>
</mgrwt>
<rwgt>
<wgt id='morphing_basis_vector_1'> +2.6353156e-04 </wgt>
<wgt id='morphing_basis_vector_2'> +2.4138308e-04 </wgt>
<wgt id='morphing_basis_vector_3'> +1.7169448e-04 </wgt>
<wgt id='morphing_basis_vector_4'> +4.6902546e-05 </wgt>
<wgt id='morphing_basis_vector_5'> +1.0681844e-04 </wgt>
</rwgt>
</event>
<event>
 4      1 +1.0153100e-05 6.18930500e+02 7.81860800e-03 9.16714200e-02
        2 -1    0    0  501    0 +0.0000000000e+00 +0.0000000000e+00 +5.3454038153e+02 5.3454038153e+02 0.0000000000e+00 0.0000e+00 -1.0000e+00
       -2 -1    0    0    0  501 -0.0000000000e+00 -0.0000000000e+00 -1.7916093274e+02 1.7916093274e+02 0.0000000000e+00 0.0000e+00 1.0000e+00
      -13  1    1    2    0    0 +1.5829422927e+02 -2.6591457739e+02 +1.7646510522e+02 3.5624087195e+02 0.0000000000e+00 0.0000e+00 1.0000e+00
       13  1    1    2    0    0 -1.5829422927e+02 +2.6591457739e+02 +1.7891434356e+02 3.5746044232e+02 0.0000000000e+00 0.0000e+00 -1.0000e+00
<mgrwt>
<rscale>  0 0.61893054E+03</rscale>
<asrwt>0</asrwt>
<pdfrwt beam="1">  1        2 0.82236981E-01 0.61893054E+03</pdfrwt>
<pdfrwt beam="2">  1       -2 0.27563221E-01 0.61893054E+03</pdfrwt>
<totfact> 0.79151463E+02</totfact>
</mgrwt>
<rwgt>
<wgt id='morphing_basis_vector_1'> +3.0604259e-04 </wgt>
<wgt id='morphing_basis_vector_2'> +2.0017686e-04 </wgt>
<wgt id='morphing_basis_vector_3'> +2.3932094e-04 </wgt>
<wgt id='morphing_basis_vector_4'> +9.8561883e-05 </wgt>
<wgt id='morphing_basis_vector_5'> +1.6231555e-04 </wgt>
</rwgt>
</event>
<event>
 4      1 +1.0153100e-05 5.32433400e+02 7.81860800e-03 9.32998300e-02
        2 -1    0    0  501    0 +0.0000000000e+00 +0.0000000000e+00 +7.0102538696e+02 7.0102538696e+02 0.0000000000e+00 0.0000e+00 1.0000e+00
       -2 -1    0    0    0  501 -0.0000000000e+00 -0.0000000000e+00 -1.0109666630e+02 1.0109666630e+02 0.0000000000e+00 0.0000e+00 -1.0000e+00
      -13  1    1    2    0    0 -8.7779936008e+01 +1.4000688106e+02 -1.4476859766e+01 1.6588195615e+02 0.0000000000e+00 0.0000e+00 -1.0000e+00
       13  1    1    2    0    0 +8.7779936008e+01 -1.4000688106e+02 +6.1440558042e+02 6.3624009711e+02 0.0000000000e+00 0.0000e+00 1.0000e+00
<mgrwt>
<rscale>  0 0.53243339E+03</rscale>
<asrwt>0</asrwt>
<pdfrwt beam="1">  1        2 0.10785006E+00 0.53243339E+03</pdfrwt>
<pdfrwt beam="2">  1       -2 0.15553334E-01 0.53243339E+03</pdfrwt>
<totfact> 0.14959880E+03</totfact>
</mgrwt>
<rwgt>
<wgt id='morphing_basis_vector_1'> +1.8305754e-04 </wgt>
<wgt id='morphing_basis_vector_2'> +1.0177836e-04 </wgt>
<wgt id='morphing_basis_vector_3'> +1.3634893e-04 </wgt>
<wgt id='morphing_basis_vector_4'> +5.0663912e-05 </wgt>
<wgt id='morphing_basis_vector_5'> +7.3384712e-05 </wgt>
</rwgt>
</event>
<event>
 4      1 +1.0153100e-05 5.87127400e+02 7.81860800e-03 9.22353800e-02
        2 -1    0    0  501    0 +0.0000000000e+00 +0.0000000000e+00 +1.0472168396e+03 1.0472168396e+03 0.0000000000e+00 0.0000e+00 1.0000e+00
       -2 -1    0    0    0  501 -0.0000000000e+00 -0.0000000000e+00 -8.2293974670e+01 8.2293974670e+01 0.0000000000e+00 0.0000e+00 -1.0000e+00
      -13  1    1    2    0    0 -1.9622204659e+02 -2.1557583050e+02 +4.1571928027e+02 5.0773866334e+02 0.0000000000e+00 0.0000e+00 -1.0000e+00
       13  1    1    2    0    0 +1.9622204659e+02 +2.1557583050e+02 +5.4920358465e+02 6.2177215092e+02 0.0000000000e+00 0.0000e+00 1.0000e+00
<mgrwt>
<rscale>  0 0.58712737E+03</rscale>
<asrwt>0</asrwt>
<pdfrwt beam="1">  1        2 0.16111027E+00 0.58712737E+03</pdfrwt>
<pdfrwt beam="2">  1       -2 0.12660612E-01 0.58712737E+03</pdfrwt>
<totfact> 0.12273556E+03</totfact>
</mgrwt>
<rwgt>
<wgt id='morphing_basis_vector_1'> +2.5473839e-04 </wgt>
<wgt id='morphing_basis_vector_2'> +1.5785658e-04 </wgt>
<wgt id='morphing_basis_vector_3'> +1.9540541e-04 </wgt>
<wgt id='morphing_basis_vector_4'> +7.8676584e-05 </wgt>
<wgt id='morphing_basis_vector_5'> +1.2399822e-04 </wgt>
</rwgt>
</event>
<event>
 4      1 +1.0153100e-05 5.44868600e+02 7.81860800e-03 9.30462100e-02
        2 -1    0    0  501    0 +0.0000000000e+00 +0.0000000000e+00 +4.9848469848e+01 4.9848469848e+01 0.0000000000e+00 0.0000e+00 1.0000e+00
       -2 -1    0    0    0  501 -0.0000000000e+00 -0.0000000000e+00 -1.4889213559e+03 1.4889213559e+03 0.0000000000e+00 0.0000e+00 -1.0000e+00
      -13  1    1    2    0    0 +2.1852056333e+02 -4.5821930267e+01 -2.7867130001e+02 3.5708343470e+02 0.0000000000e+00 0.0000e+00 1.0000e+00
       13  1    1    2    0    0 -2.1852056333e+02 +4.5821930267e+01 -1.1604015860e+03 1.1816863910e+03 0.0000000000e+00 0.0000e+00 -1.0000e+00
<mgrwt>
<rscale>  0 0.54486861E+03</rscale>
<asrwt>0</asrwt>
<pdfrwt beam="1">  1        2 0.76689959E-02 0.54486861E+03</pdfrwt>
<pdfrwt beam="2">  1       -2 0.22906481E+00 0.54486861E+03</pdfrwt>
<totfact> 0.89823481E+01</totfact>
</mgrwt>
<rwgt>
<wgt id='morphing_basis_vector_1'> +2.3778507e-04 </wgt>
<wgt id='morphing_basis_vector_2'> +2.3744636e-04 </wgt>
<wgt id='morphing_basis_vector_3'> +1.3990786e-04 </wgt>
<wgt id='morphing_basis_vector_4'> +3.3179786e-05 </wgt>
<wgt id='morphing_basis_vector_5'> +8.4326257e-05 </wgt>
</rwgt>
</event>
<event>
 4      1 +1.0153100e-05 6.09264400e+02 7.81860800e-03 9.18389700e-02
        2 -1    0    0  501    0 +0.0000000000e+00 +0.0000000000e+00 +9.4768631135e+02 9.4768631135e+02 0.0000000000e+00 0.0000e+00 -1.0000e+00
       -2 -1    0    0    0  501 -0.0000000000e+00 -0.0000000000e+00 -9.7923514608e+01 9.7923514608e+01 0.0000000000e+00 0.0000e+00 1.0000e+00
      -13  1    1    2    0    0 +1.1619431550e+02 -2.7997111001e+02 +3.7294498028e+02 4.8059640002e+02 0.0000000000e+00 0.0000e+00 1.0000e+00
       13  1    1    2    0    0 -1.1619431550e+02 +2.7997111001e+02 +4.7681781645e+02 5.6501342593e+02 0.0000000000e+00 0.0000e+00 -1.0000e+00
<mgrwt>
<rscale>  0 0.60926439E+03</rscale>
<asrwt>0</asrwt>
<pdfrwt beam="1">  1        2 0.14579789E+00 0.60926439E+03</pdfrwt>
<pdfrwt beam="2">  1       -2 0.15065157E-01 0.60926439E+03</pdfrwt>
<totfact> 0.10687420E+03</totfact>
</mgrwt>
<rwgt>
<wgt id='morphing_basis_vector_1'> +2.8778664e-04 </wgt>
<wgt id='morphing_basis_vector_2'> +1.8075598e-04 </wgt>
<wgt id='morphing_basis_vector_3'> +2.2504711e-04 </wgt>
<wgt id='morphing_basis_vector_4'> +9.3704051e-05 </wgt>
<wgt id='morphing_basis_vector_5'> +1.4990971e-04 </wgt>
</rwgt>
</event>
<event>
 4      1 +1.0153100e-05 5.36807600e+02 7.81860800e-03 9.32097800e-02
        2 -1    0    0  501    0 +0.0000000000e+00 +0.0000000000e+00 +8.9156097369e+01 8.9156097369e+01 0.0000000000e+00 0.0000e+00 -1.0000e+00
       -2 -1    0    0    0  501 -0.0000000000e+00 -0.0000000000e+00 -8.0802762745e+02 8.0802762745e+02 0.0000000000e+00 0.0000e+00 1.0000e+00
      -13  1    1    2    0    0 +1.9421982410e+02 -2.2023413647e+01 -6.6686193833e+02 6.9491813591e+02 0.0000000000e+00 0.0000e+00 1.0000e+00
       13  1    1    2    0    0 -1.9421982410e+02 +2.2023413647e+01 -5.2009591743e+01 2.0226558890e+02 0.0000000000e+00 0.0000e+00 -1.0000e+00
<mgrwt>
<rscale>  0 0.53680756E+03</rscale>
<asrwt>0</asrwt>
<pdfrwt beam="1">  1        2 0.13716322E-01 0.53680756E+03</pdfrwt>
<pdfrwt beam="2">  1       -2 0.12431195E+00 0.53680756E+03</pdfrwt>
<totfact> 0.27614913E+02</totfact>
</mgrwt>
<rwgt>
<wgt id='morphing_basis_vector_1'> +1.8790407e-04 </wgt>
<wgt id='morphing_basis_vector_2'> +1.0498667e-04 </wgt>
<wgt id='morphing_basis_vector_3'> +1.4043772e-04 </wgt>
<wgt id='morphing_basis_vector_4'> +5.2732191e-05 </wgt>
<wgt id='morphing_basis_vector_5'> +7.6785928e-05 </wgt>
</rwgt>
</event>
<event>
 4      1 +1.0153100e-05 5.33984900e+02 7.81860800e-03 9.32677900e-02
        2 -1    0    0  501    0 +0.0000000000e+00 +0.0000000000e+00 +4.4142508195e+02 4.4142508195e+02 0.0000000000e+00 0.0000e+00 1.0000e+00
       -2 -1    0    0    0  501 -0.0000000000e+00 -0.0000000000e+00 -1.6148826969e+02 1.6148826969e+02 0.0000000000e+00 0.0000e+00 -1.0000e+00
      -13  1    1    2    0    0 +5.8253781072e+01 +1.8726538276e+02 +3.4452619234e+02 3.9643426163e+02 0.0000000000e+00 0.0000e+00 1.0000e+00
       13  1    1    2    0    0 -5.8253781072e+01 -1.8726538276e+02 -6.4589380082e+01 2.0647909000e+02 0.0000000000e+00 0.0000e+00 -1.0000e+00
<mgrwt>
<rscale>  0 0.53398492E+03</rscale>
<asrwt>0</asrwt>
<pdfrwt beam="1">  1        2 0.67911551E-01 0.53398492E+03</pdfrwt>
<pdfrwt beam="2">  1       -2 0.24844349E-01 0.53398492E+03</pdfrwt>
<totfact> 0.11761744E+03</totfact>
</mgrwt>
<rwgt>
<wgt id='morphing_basis_vector_1'> +2.3348433e-04 </wgt>
<wgt id='morphing_basis_vector_2'> +2.5424032e-04 </wgt>
<wgt id='morphing_basis_vector_3'> +1.2544454e-04 </wgt>
<wgt id='morphing_basis_vector_4'> +2.5240133e-05 </wgt>
<wgt id='morphing_basis_vector_5'> +7.5959830e-05 </wgt>
</rwgt>
</event>
<event>
 4      1 +1.0153100e-05 5.98402400e+02 7.81860800e-03 9.20312100e-02
        2 -1    0    0  501    0 +0.0000000000e+00 +0.0000000000e+00 +2.0304186250e+02 2.0304186250e+02 0.0000000000e+00 0.0000e+00 -1.0000e+00
       -2 -1    0    0    0  501 -0.0000000000e+00 -0.0000000000e+00 -4.4090095809e+02 4.4090095809e+02 0.0000000000e+00 0.0000e+00 1.0000e+00
      -13  1    1    2    0    0 -2.9148923291e+02 +6.7463269605e+01 -1.2110478456e+02 3.2277489755e+02 0.0000000000e+00 0.0000e+00 1.0000e+00
       13  1    1    2    0    0 +2.9148923291e+02 -6.7463269605e+01 -1.1675431103e+02 3.2116792304e+02 0.0000000000e+00 0.0000e+00 -1.0000e+00
<mgrwt>
<rscale>  0 0.59840238E+03</rscale>
<asrwt>0</asrwt>
<pdfrwt beam="1">  1        2 0.31237210E-01 0.59840238E+03</pdfrwt>
<pdfrwt beam="2">  1       -2 0.67830916E-01 0.59840238E+03</pdfrwt>
<totfact> 0.42815648E+02</totfact>
</mgrwt>
<rwgt>
<wgt id='morphing_basis_vector_1'> +2.7392705e-04 </wgt>
<wgt id='morphing_basis_vector_2'> +1.7777489e-04 </wgt>
<wgt id='morphing_basis_vector_3'> +2.1011815e-04 </wgt>
<wgt id='morphing_basis_vector_4'> +8.3980443e-05 </wgt>
<wgt id='morphing_basis_vector_5'> +1.3678497e-04 </wgt>
</rwgt>
</event>
<event>
 4      1 +1.0153100e-05 5.20672400e+02 7.81860800e-03 9.35466000e-02
        2 -1    0    0  501    0 +0.0000000000e+00 +0.0000000000e+00 +8.6815022182e+02 8.6815022182e+02 0.0000000000e+00 0.0000e+00 -1.0000e+00
       -2 -1    0    0    0  501 -0.0000000000e+00 -0.0000000000e+00 -7.8068217410e+01 7.8068217410e+01 0.0000000000e+00 0.0000e+00 1.0000e+00
      -13  1    1    2    0    0 -1.0357617580e+02 -2.1141784522e+02 +5.9699383910e+02 6.4173762036e+02 0.0000000000e+00 0.0000e+00 -1.0000e+00
       13  1    1    2    0    0 +1.0357617580e+02 +2.1141784522e+02 +1.9308816531e+02 3.0448081886e+02 0.0000000000e+00 0.0000e+00 1.0000e+00
<mgrwt>
<rscale>  0 0.52067241E+03</rscale>
<asrwt>0</asrwt>
<pdfrwt beam="1">  1        2 0.13356157E+00 0.52067241E+03</pdfrwt>
<pdfrwt beam="2">  1       -2 0.12010496E-01 0.52067241E+03</pdfrwt>
<totfact> 0.17285268E+03</totfact>
</mgrwt>
<rwgt>
<wgt id='morphing_basis_vector_1'> +1.9455667e-04 </wgt>
<wgt id='morphing_basis_vector_2'> +1.6816250e-04 </wgt>
<wgt id='morphing_basis_vector_3'> +1.1831392e-04 </wgt>
<wgt id='morphing_basis_vector_4'> +3.3746951e-05 </wgt>
<wgt id='morphing_basis_vector_5'> +6.5541355e-05 </wgt>
</rwgt>
</event>
<event>
 4      1 +1.0153100e-05 5.25866600e+02 7.81860800e-03 9.34367700e-02
        2 -1    0    0  501    0 +0.0000000000e+00 +0.0000000000e+00 +5.1730308899e+02 5.1730308899e+02 0.0000000000e+00 0.0000e+00 -1.0000e+00
       -2 -1    0    0    0  501 -0.0000000000e+00 -0.0000000000e+00 -1.3364297022e+02 1.3364297022e+02 0.0000000000e+00 0.0000e+00 1.0000e+00
      -13  1    1    2    0    0 +1.8205776756e+02 -9.9427472714e+01 -8.1631226880e+00 2.0759934882e+02 0.0000000000e+00 0.0000e+00 1.0000e+00
       13  1    1    2    0    0 -1.8205776756e+02 +9.9427472714e+01 +3.9182324146e+02 4.4334671038e+02 0.0000000000e+00 0.0000e+00 -1.0000e+00
<mgrwt>
<rscale>  0 0.52586660E+03</rscale>
<asrwt>0</asrwt>
<pdfrwt beam="1">  1        2 0.79585090E-01 0.52586660E+03</pdfrwt>
<pdfrwt beam="2">  1       -2 0.20560457E-01 0.52586660E+03</pdfrwt>
<totfact> 0.13513445E+03</totfact>
</mgrwt>
<rwgt>
<wgt id='morphing_basis_vector_1'> +1.7644533e-04 </wgt>
<wgt id='morphing_basis_vector_2'> +9.8573963e-05 </wgt>
<wgt id='morphing_basis_vector_3'> +1.3026707e-04 </wgt>
<wgt id='morphing_basis_vector_4'> +4.7428863e-05 </wgt>
<wgt id='morphing_basis_vector_5'> +6.8486914e-05 </wgt>
</rwgt>
</event>
<event>
 4      1 +1.0153100e-05 6.14216200e+02 7.81860800e-03 9.17527300e-02
        2 -1    0    0  501    0 +0.0000000000e+00 +0.0000000000e+00 +1.0459587813e+02 1.0459587813e+02 0.0000000000e+00 0.0000e+00 -1.0000e+00
       -2 -1    0    0    0  501 -0.0000000000e+00 -0.0000000000e+00 -9.0171236649e+02 9.0171236649e+02 0.0000000000e+00 0.0000e+00 1.0000e+00
      -13  1    1    2    0    0 -3.7175611111e+01 +2.0384897138e+02 -7.6992448695e+02 7.9732060352e+02 0.0000000000e+00 0.0000e+00 1.0000e+00
       13  1    1    2    0    0 +3.7175611111e+01 -2.0384897138e+02 -2.7192001410e+01 2.0898764111e+02 0.0000000000e+00 0.0000e+00 -1.0000e+00
<mgrwt>
<rscale>  0 0.61421624E+03</rscale>
<asrwt>0</asrwt>
<pdfrwt beam="1">  1        2 0.16091673E-01 0.61421624E+03</pdfrwt>
<pdfrwt beam="2">  1       -2 0.13872498E+00 0.61421624E+03</pdfrwt>
<totfact> 0.16861530E+02</totfact>
</mgrwt>
<rwgt>
<wgt id='morphing_basis_vector_1'> +2.8894558e-04 </wgt>
<wgt id='morphing_basis_vector_2'> +1.6550849e-04 </wgt>
<wgt id='morphing_basis_vector_3'> +2.3166637e-04 </wgt>
<wgt id='morphing_basis_vector_4'> +1.0278069e-04 </wgt>
<wgt id='morphing_basis_vector_5'> +1.5618074e-04 </wgt>
</rwgt>
</event>
<event>
 4      1 +1.0153100e-05 6.09706900e+02 7.81860800e-03 9.18312300e-02
        2 -1    0    0  501    0 +0.0000000000e+00 +0.0000000000e+00 +4.0560402378e+02 4.0560402378e+02 0.0000000000e+00 0.0000e+00 -1.0000e+00
       -2 -1    0    0    0  501 -0.0000000000e+00 -0.0000000000e+00 -2.2912896096e+02 2.2912896096e+02 0.0000000000e+00 0.0000e+00 1.0000e+00
      -13  1    1    2    0    0 -5.8611835061e+00 -1.2229599435e+02 -2.0240822366e+02 2.3655813812e+02 0.0000000000e+00 0.0000e+00 1.0000e+00
       13  1    1    2    0    0 +5.8611835061e+00 +1.2229599435e+02 +3.7888328648e+02 3.9817484662e+02 0.0000000000e+00 0.0000e+00 -1.0000e+00
<mgrwt>
<rscale>  0 0.60970691E+03</rscale>
<asrwt>0</asrwt>
<pdfrwt beam="1">  1        2 0.62400619E-01 0.60970691E+03</pdfrwt>
<pdfrwt beam="2">  1       -2 0.35250609E-01 0.60970691E+03</pdfrwt>
<totfact> 0.70016607E+02</totfact>
</mgrwt>
<rwgt>
<wgt id='morphing_basis_vector_1'> +2.8183099e-04 </wgt>
<wgt id='morphing_basis_vector_2'> +1.6063020e-04 </wgt>
<wgt id='morphing_basis_vector_3'> +2.2530526e-04 </wgt>
<wgt id='morphing_basis_vector_4'> +9.9352819e-05 </wgt>
<wgt id='morphing_basis_vector_5'> +1.5045206e-04 </wgt>
</rwgt>
</event>
<event>
 4      1 +1.0153100e-05 6.06888100e+02 7.81860800e-03 9.18806600e-02
        2 -1    0    0  501    0 +0.0000000000e+00 +0.0000000000e+00 +5.6944821026e+02 5.6944821026e+02 0.0000000000e+00 0.0000e+00 1.0000e+00
       -2 -1    0    0    0  501 -0.0000000000e+00 -0.0000000000e+00 -1.6169740077e+02 1.6169740077e+02 0.0000000000e+00 0.0000e+00 -1.0000e+00
      -13  1    1    2    0    0 -2.3966162793e+02 -1.6980535706e+02 +2.9567937149e+02 4.1677073544e+02 0.0000000000e+00 0.0000e+00 1.0000e+00
       13  1    1    2    0    0 +2.3966162793e+02 +1.6980535706e+02 +1.1207143800e+02 3.1437487560e+02 0.0000000000e+00 0.0000e+00 -1.0000e+00
<mgrwt>
<rscale>  0 0.60688811E+03</rscale>
<asrwt>0</asrwt>
<pdfrwt beam="1">  1        2 0.87607416E-01 0.60688811E+03</pdfrwt>
<pdfrwt beam="2">  1       -2 0.24876524E-01 0.60688811E+03</pdfrwt>
<totfact> 0.87799941E+02</totfact>
</mgrwt>
<rwgt>
<wgt id='morphing_basis_vector_1'> +3.0017025e-04 </wgt>
<wgt id='morphing_basis_vector_2'> +2.2804546e-04 </wgt>
<wgt id='morphing_basis_vector_3'> +2.2242804e-04 </wgt>
<wgt id='morphing_basis_vector_4'> +7.9250167e-05 </wgt>
<wgt id='morphing_basis_vector_5'> +1.4700509e-04 </wgt>
</rwgt>
</event>
<event>
 4      1 +1.0153100e-05 6.17940600e+02 7.81860800e-03 9.16884300e-02
        2 -1    0    0  501    0 +0.0000000000e+00 +0.0000000000e+00 +9.0432916365e+02 9.0432916365e+02 0.0000000000e+00 0.0000e+00 -1.0000e+00
       -2 -1    0    0    0  501 -0.0000000000e+00 -0.0000000000e+00 -1.0556184708e+02 1.0556184708e+02 0.0000000000e+00 0.0000e+00 1.0000e+00
      -13  1    1    2    0    0 -1.6271647145e+02 +9.6194125235e+01 -4.0027074702e-02 1.8902370595e+02 0.0000000000e+00 0.0000e+00 1.0000e+00
       13  1    1    2    0    0 +1.6271647145e+02 -9.6194125235e+01 +7.9880734364e+02 8.2086730479e+02 0.0000000000e+00 0.0000e+00 -1.0000e+00
<mgrwt>
<rscale>  0 0.61794063E+03</rscale>
<asrwt>0</asrwt>
<pdfrwt beam="1">  1        2 0.13912756E+00 0.61794063E+03</pdfrwt>
<pdfrwt beam="2">  1       -2 0.16240285E-01 0.61794063E+03</pdfrwt>
<totfact> 0.10083460E+03</totfact>
</mgrwt>
<rwgt>
<wgt id='morphing_basis_vector_1'> +2.9464092e-04 </wgt>
<wgt id='morphing_basis_vector_2'> +1.6872880e-04 </wgt>
<wgt id='morphing_basis_vector_3'> +2.3700710e-04 </wgt>
<wgt id='morphing_basis_vector_4'> +1.0591185e-04 </wgt>
<wgt id='morphing_basis_vector_5'> +1.6102535e-04 </wgt>
</rwgt>
</event>
<event>
 4      1 +1.0153100e-05 5.38530400e+02 7.81860800e-03 9.31745700e-02
        2 -1    0    0  501    0 +0.0000000000e+00 +0.0000000000e+00 +1.8906191403e+02 1.8906191403e+02 0.0000000000e+00 0.0000e+00 1.0000e+00
       -2 -1    0    0    0  501 -0.0000000000e+00 -0.0000000000e+00 -3.8349202296e+02 3.8349202296e+02 0.0000000000e+00 0.0000e+00 -1.0000e+00
      -13  1    1    2    0    0 +1.0497616514e+02 +1.2655750419e+02 -3.2391638785e+02 3.6326109540e+02 0.0000000000e+00 0.0000e+00 -1.0000e+00
       13  1    1    2    0    0 -1.0497616514e+02 -1.2655750419e+02 +1.2948627891e+02 2.0929284159e+02 0.0000000000e+00 0.0000e+00 1.0000e+00
<mgrwt>
<rscale>  0 0.53853036E+03</rscale>
<asrwt>0</asrwt>
<pdfrwt beam="1">  1        2 0.29086448E-01 0.53853036E+03</pdfrwt>
<pdfrwt beam="2">  1       -2 0.58998773E-01 0.53853036E+03</pdfrwt>
<totfact> 0.62085258E+02</totfact>
</mgrwt>
<rwgt>
<wgt id='morphing_basis_vector_1'> +1.8963787e-04 </wgt>
<wgt id='morphing_basis_vector_2'> +1.0563995e-04 </wgt>
<wgt id='morphing_basis_vector_3'> +1.4212428e-04 </wgt>
<wgt id='morphing_basis_vector_4'> +5.3675661e-05 </wgt>
<wgt id='morphing_basis_vector_5'> +7.8148876e-05 </wgt>
</rwgt>
</event>
<event>
 4      1 +1.0153100e-05 5.61250400e+02 7.81860800e-03 9.27229000e-02
        2 -1    0    0  501    0 +0.0000000000e+00 +0.0000000000e+00 +5.4135098928e+02 5.4135098928e+02 0.0000000000e+00 0.0000e+00 -1.0000e+00
       -2 -1    0    0    0  501 -0.0000000000e+00 -0.0000000000e+00 -1.4547032905e+02 1.4547032905e+02 0.0000000000e+00 0.0000e+00 1.0000e+00
      -13  1    1    2    0    0 +2.0112334008e+02 -2.3767080622e+01 -3.9776247346e+01 2.0639191336e+02 0.0000000000e+00 0.0000e+00 1.0000e+00
       13  1    1    2    0    0 -2.0112334008e+02 +2.3767080622e+01 +4.3565690757e+02 4.8042940497e+02 0.0000000000e+00 0.0000e+00 -1.0000e+00
<mgrwt>
<rscale>  0 0.56125041E+03</rscale>
<asrwt>0</asrwt>
<pdfrwt beam="1">  1        2 0.83284767E-01 0.56125041E+03</pdfrwt>
<pdfrwt beam="2">  1       -2 0.22380051E-01 0.56125041E+03</pdfrwt>
<totfact> 0.11135949E+03</totfact>
</mgrwt>
<rwgt>
<wgt id='morphing_basis_vector_1'> +2.1608144e-04 </wgt>
<wgt id='morphing_basis_vector_2'> +1.2173122e-04 </wgt>
<wgt id='morphing_basis_vector_3'> +1.6538899e-04 </wgt>
<wgt id='morphing_basis_vector_4'> +6.5951306e-05 </wgt>
<wgt id='morphing_basis_vector_5'> +9.7767145e-05 </wgt>
</rwgt>
</event>
<event>
 4      1 +1.0153100e-05 5.24005800e+02 7.81860800e-03 9.34759600e-02
        2 -1    0    0  501    0 +0.0000000000e+00 +0.0000000000e+00 +7.7044884651e+02 7.7044884651e+02 0.0000000000e+00 0.0000e+00 1.0000e+00
       -2 -1    0    0    0  501 -0.0000000000e+00 -0.0000000000e+00 -8.9098074333e+01 8.9098074333e+01 0.0000000000e+00 0.0000e+00 -1.0000e+00
      -13  1    1    2    0    0 +1.2043704362e+02 +1.8060848980e+02 +1.0003708165e+02 2.3902285616e+02 0.0000000000e+00 0.0000e+00 -1.0000e+00
       13  1    1    2    0    0 -1.2043704362e+02 -1.8060848980e+02 +5.8131369053e+02 6.2052406469e+02 0.0000000000e+00 0.0000e+00 1.0000e+00
<mgrwt>
<rscale>  0 0.52400576E+03</rscale>
<asrwt>0</asrwt>
<pdfrwt beam="1">  1        2 0.11853059E+00 0.52400576E+03</pdfrwt>
<pdfrwt beam="2">  1       -2 0.13707397E-01 0.52400576E+03</pdfrwt>
<totfact> 0.16315983E+03</totfact>
</mgrwt>
<rwgt>
<wgt id='morphing_basis_vector_1'> +1.7467297e-04 </wgt>
<wgt id='morphing_basis_vector_2'> +9.7884064e-05 </wgt>
<wgt id='morphing_basis_vector_3'> +1.2856200e-04 </wgt>
<wgt id='morphing_basis_vector_4'> +4.6509938e-05 </wgt>
<wgt id='morphing_basis_vector_5'> +6.7142847e-05 </wgt>
</rwgt>
</event>
<event>
 4      1 +1.0153100e-05 5.69693100e+02 7.81860800e-03 9.25608300e-02
        2 -1    0    0  501    0 +0.0000000000e+00 +0.0000000000e+00 +1.3124687021e+03 1.3124687021e+03 0.0000000000e+00 0.0000e+00 -1.0000e+00
       -2 -1    0    0    0  501 -0.0000000000e+00 -0.0000000000e+00 -6.1820560602e+01 6.1820560602e+01 0.0000000000e+00 0.0000e+00 1.0000e+00
      -13  1    1    2    0    0 +2.5808168594e+02 -1.1706849804e+02 +6.9467018639e+02 7.5025186285e+02 0.0000000000e+00 0.0000e+00 1.0000e+00
       13  1    1    2    0    0 -2.5808168594e+02 +1.1706849804e+02 +5.5597795513e+02 6.2403739988e+02 0.0000000000e+00 0.0000e+00 -1.0000e+00
<mgrwt>
<rscale>  0 0.56969308E+03</rscale>
<asrwt>0</asrwt>
<pdfrwt beam="1">  1        2 0.20191824E+00 0.56969308E+03</pdfrwt>
<pdfrwt beam="2">  1       -2 0.95108564E-02 0.56969308E+03</pdfrwt>
<totfact> 0.13539566E+03</totfact>
</mgrwt>
<rwgt>
<wgt id='morphing_basis_vector_1'> +2.3725657e-04 </wgt>
<wgt id='morphing_basis_vector_2'> +1.6115491e-04 </wgt>
<wgt id='morphing_basis_vector_3'> +1.7372493e-04 </wgt>
<wgt id='morphing_basis_vector_4'> +6.3900529e-05 </wgt>
<wgt id='morphing_basis_vector_5'> +1.0600824e-04 </wgt>
</rwgt>
</event>
<event>
 4      1 +1.0153100e-05 5.25400200e+02 7.81860800e-03 9.34465700e-02
        2 -1    0    0  501    0 +0.0000000000e+00 +0.0000000000e+00 +1.1293201691e+03 1.1293201691e+03 0.0000000000e+00 0.0000e+00 -1.0000e+00
       -2 -1    0    0    0  501 -0.0000000000e+00 -0.0000000000e+00 -6.1108747529e+01 6.1108747529e+01 0.0000000000e+00 0.0000e+00 1.0000e+00
      -13  1    1    2    0    0 +1.1855317931e+02 -1.7876353987e+02 +1.9048611171e+02 2.8687317453e+02 0.0000000000e+00 0.0000e+00 1.0000e+00
       13  1    1    2    0    0 -1.1855317931e+02 +1.7876353987e+02 +8.7772530984e+02 9.0355574208e+02 0.0000000000e+00 0.0000e+00 -1.0000e+00
<mgrwt>
<rscale>  0 0.52540019E+03</rscale>
<asrwt>0</asrwt>
<pdfrwt beam="1">  1        2 0.17374155E+00 0.52540019E+03</pdfrwt>
<pdfrwt beam="2">  1       -2 0.94013466E-02 0.52540019E+03</pdfrwt>
<totfact> 0.17550882E+03</totfact>
</mgrwt>
<rwgt>
<wgt id='morphing_basis_vector_1'> +1.7605798e-04 </wgt>
<wgt id='morphing_basis_vector_2'> +9.8581706e-05 </wgt>
<wgt id='morphing_basis_vector_3'> +1.2982119e-04 </wgt>
<wgt id='morphing_basis_vector_4'> +4.7167835e-05 </wgt>
<wgt id='morphing_basis_vector_5'> +6.8150141e-05 </wgt>
</rwgt>
</event>
<event>
 4      1 +1.0153100e-05 5.87314000e+02 7.81860800e-03 9.22319600e-02
        2 -1    0    0  501    0 +0.0000000000e+00 +0.0000000000e+00 +8.0307608391e+02 8.0307608391e+02 0.0000000000e+00 0.0000e+00 1.0000e+00
       -2 -1    0    0    0  501 -0.0000000000e+00 -0.0000000000e+00 -1.0738015347e+02 1.0738015347e+02 0.0000000000e+00 0.0000e+00 -1.0000e+00
      -13  1    1    2    0    0 +5.1834163200e+01 -1.3971816675e+02 -4.4407098492e+01 1.5549899354e+02 0.0000000000e+00 0.0000e+00 -1.0000e+00
       13  1    1    2    0    0 -5.1834163200e+01 +1.3971816675e+02 +7.4010302894e+02 7.5495724385e+02 0.0000000000e+00 0.0000e+00 1.0000e+00
<mgrwt>
<rscale>  0 0.58731400E+03</rscale>
<asrwt>0</asrwt>
<pdfrwt beam="1">  1        2 0.12355016E+00 0.58731400E+03</pdfrwt>
<pdfrwt beam="2">  1       -2 0.16520024E-01 0.58731400E+03</pdfrwt>
<totfact> 0.11458655E+03</totfact>
</mgrwt>
<rwgt>
<wgt id='morphing_basis_vector_1'> +2.4959027e-04 </wgt>
<wgt id='morphing_basis_vector_2'> +1.4124533e-04 </wgt>
<wgt id='morphing_basis_vector_3'> +1.9580041e-04 </wgt>
<wgt id='morphing_basis_vector_4'> +8.2740460e-05 </wgt>
<wgt id='morphing_basis_vector_5'> +1.2415172e-04 </wgt>
</rwgt>
</event>
<event>
 4      1 +1.0153100e-05 5.21698000e+02 7.81860800e-03 9.35248100e-02
        2 -1    0    0  501    0 +0.0000000000e+00 +0.0000000000e+00 +1.0274688952e+02 1.0274688952e+02 0.0000000000e+00 0.0000e+00 1.0000e+00
       -2 -1    0    0    0  501 -0.0000000000e+00 -0.0000000000e+00 -6.6223122127e+02 6.6223122127e+02 0.0000000000e+00 0.0000e+00 -1.0000e+00
      -13  1    1    2    0    0 +1.0960351611e+00 +1.9494537105e+02 -2.5609621323e+01 1.9662337524e+02 0.0000000000e+00 0.0000e+00 1.0000e+00
       13  1    1    2    0    0 -1.0960351611e+00 -1.9494537105e+02 -5.3387471042e+02 5.6835473554e+02 0.0000000000e+00 0.0000e+00 -1.0000e+00
<mgrwt>
<rscale>  0 0.52169799E+03</rscale>
<asrwt>0</asrwt>
<pdfrwt beam="1">  1        2 0.15807214E-01 0.52169799E+03</pdfrwt>
<pdfrwt beam="2">  1       -2 0.10188172E+00 0.52169799E+03</pdfrwt>
<totfact> 0.38266412E+02</totfact>
</mgrwt>
<rwgt>
<wgt id='morphing_basis_vector_1'> +2.1595427e-04 </wgt>
<wgt id='morphing_basis_vector_2'> +2.3201801e-04 </wgt>
<wgt id='morphing_basis_vector_3'> +1.1302195e-04 </wgt>
<wgt id='morphing_basis_vector_4'> +2.4158243e-05 </wgt>
<wgt id='morphing_basis_vector_5'> +6.6921577e-05 </wgt>
</rwgt>
</event>
<event>
 4      1 +1.0153100e-05 5.34959300e+02 7.81860800e-03 9.32477200e-02
        2 -1    0    0  501    0 +0.0000000000e+00 +0.0000000000e+00 +2.1939654100e+03 2.1939654100e+03 0.0000000000e+00 0.0000e+00 1.0000e+00
       -2 -1    0    0    0  501 -0.0000000000e+00 -0.0000000000e+00 -3.2610064715e+01 3.2610064715e+01 0.0000000000e+00 0.0000e+00 -1.0000e+00
      -13  1    1    2    0    0 -1.6469104460e+02 +1.8975126250e+02 +6.9883284343e+02 7.4262778351e+02 0.0000000000e+00 0.0000e+00 -1.0000e+00
       13  1    1    2    0    0 +1.6469104460e+02 -1.8975126250e+02 +1.4625225019e+03 1.4839476912e+03 0.0000000000e+00 0.0000e+00 1.0000e+00
<mgrwt>
<rscale>  0 0.53495927E+03</rscale>
<asrwt>0</asrwt>
<pdfrwt beam="1">  1        2 0.33753302E+00 0.53495927E+03</pdfrwt>
<pdfrwt beam="2">  1       -2 0.50169348E-02 0.53495927E+03</pdfrwt>
<totfact> 0.11923622E+03</totfact>
</mgrwt>
<rwgt>
<wgt id='morphing_basis_vector_1'> +1.8726224e-04 </wgt>
<wgt id='morphing_basis_vector_2'> +1.0802803e-04 </wgt>
<wgt id='morphing_basis_vector_3'> +1.3834409e-04 </wgt>
<wgt id='morphing_basis_vector_4'> +5.1084311e-05 </wgt>
<wgt id='morphing_basis_vector_5'> +7.5375725e-05 </wgt>
</rwgt>
</event>
<event>
 4      1 +1.0153100e-05 5.79592800e+02 7.81860800e-03 9.23745400e-02
        2 -1    0    0  501    0 +0.0000000000e+00 +0.0000000000e+00 +6.7247143672e+02 6.7247143672e+02 0.0000000000e+00 0.0000e+00 -1.0000e+00
       -2 -1    0    0    0  501 -0.0000000000e+00 -0.0000000000e+00 -1.2488553998e+02 1.2488553998e+02 0.0000000000e+00 0.0000e+00 1.0000e+00
      -13  1    1    2    0    0 +2.1176587420e+00 -1.6357314254e+02 -5.5292491614e+01 1.7267865261e+02 0.0000000000e+00 0.0000e+00 1.0000e+00
       13  1    1    2    0    0 -2.1176587420e+00 +1.6357314254e+02 +6.0287838836e+02 6.2467832409e+02 0.0000000000e+00 0.0000e+00 -1.0000e+00
<mgrwt>
<rscale>  0 0.57959282E+03</rscale>
<asrwt>0</asrwt>
<pdfrwt beam="1">  1        2 0.10345714E+00 0.57959282E+03</pdfrwt>
<pdfrwt beam="2">  1       -2 0.19213160E-01 0.57959282E+03</pdfrwt>
<totfact> 0.11136170E+03</totfact>
</mgrwt>
<rwgt>
<wgt id='morphing_basis_vector_1'> +2.3921348e-04 </wgt>
<wgt id='morphing_basis_vector_2'> +1.3509089e-04 </wgt>
<wgt id='morphing_basis_vector_3'> +1.8636887e-04 </wgt>
<wgt id='morphing_basis_vector_4'> +7.7499357e-05 </wgt>
<wgt id='morphing_basis_vector_5'> +1.1587859e-04 </wgt>
</rwgt>
</event>
<event>
 4      1 +1.0153100e-05 5.82393100e+02 7.81860800e-03 9.23225600e-02
        2 -1    0    0  501    0 +0.0000000000e+00 +0.0000000000e+00 +4.2291870948e+02 4.2291870948e+02 0.0000000000e+00 0.0000e+00 -1.0000e+00
       -2 -1    0    0    0  501 -0.0000000000e+00 -0.0000000000e+00 -2.0050050849e+02 2.0050050849e+02 0.0000000000e+00 0.0000e+00 1.0000e+00
      -13  1    1    2    0    0 -1.0362591116e+02 -2.6366276112e+02 +3.9090750947e+01 2.8597983823e+02 0.0000000000e+00 0.0000e+00 1.0000e+00
       13  1    1    2    0    0 +1.0362591116e+02 +2.6366276112e+02 +1.8332745004e+02 3.3743937975e+02 0.0000000000e+00 0.0000e+00 -1.0000e+00
<mgrwt>
<rscale>  0 0.58239305E+03</rscale>
<asrwt>0</asrwt>
<pdfrwt beam="1">  1        2 0.65064416E-01 0.58239305E+03</pdfrwt>
<pdfrwt beam="2">  1       -2 0.30846232E-01 0.58239305E+03</pdfrwt>
<totfact> 0.84806537E+02</totfact>
</mgrwt>
<rwgt>
<wgt id='morphing_basis_vector_1'> +2.4626738e-04 </wgt>
<wgt id='morphing_basis_vector_2'> +1.4763511e-04 </wgt>
<wgt id='morphing_basis_vector_3'> +1.8958444e-04 </wgt>
<wgt id='morphing_basis_vector_4'> +7.6998309e-05 </wgt>
<wgt id='morphing_basis_vector_5'> +1.1887051e-04 </wgt>
</rwgt>
</event>
<event>
 4      1 +1.0153100e-05 5.23618500e+02 7.81860800e-03 9.34841400e-02
        2 -1    0    0  501    0 +0.0000000000e+00 +0.0000000000e+00 +3.2028564895e+02 3.2028564895e+02 0.0000000000e+00 0.0000e+00 -1.0000e+00
       -2 -1    0    0    0  501 -0.0000000000e+00 -0.0000000000e+00 -2.1400924069e+02 2.1400924069e+02 0.0000000000e+00 0.0000e+00 1.0000e+00
      -13  1    1    2    0    0 +5.3151592016e+01 -1.1779029366e+02 -1.7919812880e+02 2.2093350669e+02 0.0000000000e+00 0.0000e+00 1.0000e+00
       13  1    1    2    0    0 -5.3151592016e+01 +1.1779029366e+02 +2.8547453706e+02 3.1336138295e+02 0.0000000000e+00 0.0000e+00 -1.0000e+00
<mgrwt>
<rscale>  0 0.52361852E+03</rscale>
<asrwt>0</asrwt>
<pdfrwt beam="1">  1        2 0.49274715E-01 0.52361852E+03</pdfrwt>
<pdfrwt beam="2">  1       -2 0.32924499E-01 0.52361852E+03</pdfrwt>
<totfact> 0.10319833E+03</totfact>
</mgrwt>
<rwgt>
<wgt id='morphing_basis_vector_1'> +1.7380374e-04 </wgt>
<wgt id='morphing_basis_vector_2'> +9.6180860e-05 </wgt>
<wgt id='morphing_basis_vector_3'> +1.2836012e-04 </wgt>
<wgt id='morphing_basis_vector_4'> +4.6569776e-05 </wgt>
<wgt id='morphing_basis_vector_5'> +6.6849369e-05 </wgt>
</rwgt>
</event>
<event>
 4      1 +1.0153100e-05 5.37750700e+02 7.81860800e-03 9.31904900e-02
        2 -1    0    0  501    0 +0.0000000000e+00 +0.0000000000e+00 +1.7076132512e+03 1.7076132512e+03 0.0000000000e+00 0.0000e+00 1.0000e+00
       -2 -1    0    0    0  501 -0.0000000000e+00 -0.0000000000e+00 -4.2336249386e+01 4.2336249386e+01 0.0000000000e+00 0.0000e+00 -1.0000e+00
      -13  1    1    2    0    0 -2.5293941191e+02 -7.5014457128e+01 +6.6390800548e+02 7.1440839484e+02 0.0000000000e+00 0.0000e+00 -1.0000e+00
       13  1    1    2    0    0 +2.5293941191e+02 +7.5014457128e+01 +1.0013689963e+03 1.0355411058e+03 0.0000000000e+00 0.0000e+00 1.0000e+00
<mgrwt>
<rscale>  0 0.53775065E+03</rscale>
<asrwt>0</asrwt>
<pdfrwt beam="1">  1        2 0.26270968E+00 0.53775065E+03</pdfrwt>
<pdfrwt beam="2">  1       -2 0.65132705E-02 0.53775065E+03</pdfrwt>
<totfact> 0.14779951E+03</totfact>
</mgrwt>
<rwgt>
<wgt id='morphing_basis_vector_1'> +1.9173539e-04 </wgt>
<wgt id='morphing_basis_vector_2'> +1.1430159e-04 </wgt>
<wgt id='morphing_basis_vector_3'> +1.4067724e-04 </wgt>
<wgt id='morphing_basis_vector_4'> +5.1657331e-05 </wgt>
<wgt id='morphing_basis_vector_5'> +7.7607842e-05 </wgt>
</rwgt>
</event>
<event>
 4      1 +1.0153100e-05 5.29153100e+02 7.81860800e-03 9.33679700e-02
        2 -1    0    0  501    0 +0.0000000000e+00 +0.0000000000e+00 +6.1688447304e+02 6.1688447304e+02 0.0000000000e+00 0.0000e+00 1.0000e+00
       -2 -1    0    0    0  501 -0.0000000000e+00 -0.0000000000e+00 -1.1347467151e+02 1.1347467151e+02 0.0000000000e+00 0.0000e+00 -1.0000e+00
      -13  1    1    2    0    0 -2.2979699635e+01 +1.8831481851e+02 -2.8373291761e+00 1.8973293837e+02 0.0000000000e+00 0.0000e+00 -1.0000e+00
       13  1    1    2    0    0 +2.2979699635e+01 -1.8831481851e+02 +5.0624713071e+02 5.4062620619e+02 0.0000000000e+00 0.0000e+00 1.0000e+00
<mgrwt>
<rscale>  0 0.52915315E+03</rscale>
<asrwt>0</asrwt>
<pdfrwt beam="1">  1        2 0.94905301E-01 0.52915315E+03</pdfrwt>
<pdfrwt beam="2">  1       -2 0.17457642E-01 0.52915315E+03</pdfrwt>
<totfact> 0.14441723E+03</totfact>
</mgrwt>
<rwgt>
<wgt id='morphing_basis_vector_1'> +1.7970464e-04 </wgt>
<wgt id='morphing_basis_vector_2'> +1.0008939e-04 </wgt>
<wgt id='morphing_basis_vector_3'> +1.3329162e-04 </wgt>
<wgt id='morphing_basis_vector_4'> +4.9039898e-05 </wgt>
<wgt id='morphing_basis_vector_5'> +7.0908497e-05 </wgt>
</rwgt>
</event>
<event>
 4      1 +1.0153100e-05 5.80455100e+02 7.81860800e-03 9.23585000e-02
        2 -1    0    0  501    0 +0.0000000000e+00 +0.0000000000e+00 +1.9041492507e+03 1.9041492507e+03 0.0000000000e+00 0.0000e+00 -1.0000e+00
       -2 -1    0    0    0  501 -0.0000000000e+00 -0.0000000000e+00 -4.4236050891e+01 4.4236050891e+01 0.0000000000e+00 0.0000e+00 1.0000e+00
      -13  1    1    2    0    0 -2.8188071255e+02 +1.1922291309e+01 +7.0147821894e+02 7.5608899528e+02 0.0000000000e+00 0.0000e+00 1.0000e+00
       13  1    1    2    0    0 +2.8188071255e+02 -1.1922291309e+01 +1.1584349808e+03 1.1922963063e+03 0.0000000000e+00 0.0000e+00 -1.0000e+00
<mgrwt>
<rscale>  0 0.58045514E+03</rscale>
<asrwt>0</asrwt>
<pdfrwt beam="1">  1        2 0.29294598E+00 0.58045514E+03</pdfrwt>
<pdfrwt beam="2">  1       -2 0.68055478E-02 0.58045514E+03</pdfrwt>
<totfact> 0.10782669E+03</totfact>
</mgrwt>
<rwgt>
<wgt id='morphing_basis_vector_1'> +2.4359801e-04 </wgt>
<wgt id='morphing_basis_vector_2'> +1.4583151e-04 </wgt>
<wgt id='morphing_basis_vector_3'> +1.8722094e-04 </wgt>
<wgt id='morphing_basis_vector_4'> +7.5783844e-05 </wgt>
<wgt id='morphing_basis_vector_5'> +1.1682136e-04 </wgt>
</rwgt>
</event>
<event>
 4      1 +1.0153100e-05 5.86982700e+02 7.81860800e-03 9.22380300e-02
        2 -1    0    0  501    0 +0.0000000000e+00 +0.0000000000e+00 +1.6201508448e+03 1.6201508448e+03 0.0000000000e+00 0.0000e+00 -1.0000e+00
       -2 -1    0    0    0  501 -0.0000000000e+00 -0.0000000000e+00 -5.3166147962e+01 5.3166147962e+01 0.0000000000e+00 0.0000e+00 1.0000e+00
      -13  1    1    2    0    0 +2.7396905116e+01 -2.8516405691e+02 +6.0167051569e+02 6.6639068061e+02 0.0000000000e+00 0.0000e+00 1.0000e+00
       13  1    1    2    0    0 -2.7396905116e+01 +2.8516405691e+02 +9.6531418114e+02 1.0069263121e+03 0.0000000000e+00 0.0000e+00 -1.0000e+00
<mgrwt>
<rscale>  0 0.58698272E+03</rscale>
<asrwt>0</asrwt>
<pdfrwt beam="1">  1        2 0.24925394E+00 0.58698272E+03</pdfrwt>
<pdfrwt beam="2">  1       -2 0.81794086E-02 0.58698272E+03</pdfrwt>
<totfact> 0.11585567E+03</totfact>
</mgrwt>
<rwgt>
<wgt id='morphing_basis_vector_1'> +2.5278324e-04 </wgt>
<wgt id='morphing_basis_vector_2'> +1.5228653e-04 </wgt>
<wgt id='morphing_basis_vector_3'> +1.9527634e-04 </wgt>
<wgt id='morphing_basis_vector_4'> +7.9857746e-05 </wgt>
<wgt id='morphing_basis_vector_5'> +1.2382332e-04 </wgt>
</rwgt>
</event>
<event>
 4      1 +1.0153100e-05 5.87426500e+02 7.81860800e-03 9.22299000e-02
        2 -1    0    0  501    0 +0.0000000000e+00 +0.0000000000e+00 +1.2187264314e+03 1.2187264314e+03 0.0000000000e+00 0.0000e+00 1.0000e+00
       -2 -1    0    0    0  501 -0.0000000000e+00 -0.0000000000e+00 -7.0784946573e+01 7.0784946573e+01 0.0000000000e+00 0.0000e+00 -1.0000e+00
      -13  1    1    2    0    0 -1.6162195512e+02 +1.6443318296e+02 +1.7454579826e+02 2.8918188693e+02 0.0000000000e+00 0.0000e+00 -1.0000e+00
       13  1    1    2    0    0 +1.6162195512e+02 -1.6443318296e+02 +9.7339568660e+02 1.0003294911e+03 0.0000000000e+00 0.0000e+00 1.0000e+00
<mgrwt>
<rscale>  0 0.58742654E+03</rscale>
<asrwt>0</asrwt>
<pdfrwt beam="1">  1        2 0.18749636E+00 0.58742654E+03</pdfrwt>
<pdfrwt beam="2">  1       -2 0.10889993E-01 0.58742654E+03</pdfrwt>
<totfact> 0.12362749E+03</totfact>
</mgrwt>
<rwgt>
<wgt id='morphing_basis_vector_1'> +2.5020649e-04 </wgt>
<wgt id='morphing_basis_vector_2'> +1.4277099e-04 </wgt>
<wgt id='morphing_basis_vector_3'> +1.9592724e-04 </wgt>
<wgt id='morphing_basis_vector_4'> +8.2481629e-05 </wgt>
<wgt id='morphing_basis_vector_5'> +1.2427957e-04 </wgt>
</rwgt>
</event>
<event>
 4      1 +1.0153100e-05 5.62498100e+02 7.81860800e-03 9.26987600e-02
        2 -1    0    0  501    0 +0.0000000000e+00 +0.0000000000e+00 +3.3120545162e+02 3.3120545162e+02 0.0000000000e+00 0.0000e+00 -1.0000e+00
       -2 -1    0    0    0  501 -0.0000000000e+00 -0.0000000000e+00 -2.3882767719e+02 2.3882767719e+02 0.0000000000e+00 0.0000e+00 1.0000e+00
      -13  1    1    2    0    0 -1.8316034476e+02 -2.7456825864e+01 -1.6830520024e+02 2.5025632781e+02 0.0000000000e+00 0.0000e+00 1.0000e+00
       13  1    1    2    0    0 +1.8316034476e+02 +2.7456825864e+01 +2.6068297466e+02 3.1977680100e+02 0.0000000000e+00 0.0000e+00 -1.0000e+00
<mgrwt>
<rscale>  0 0.56249810E+03</rscale>
<asrwt>0</asrwt>
<pdfrwt beam="1">  1        2 0.50954685E-01 0.56249810E+03</pdfrwt>
<pdfrwt beam="2">  1       -2 0.36742720E-01 0.56249810E+03</pdfrwt>
<totfact> 0.81585498E+02</totfact>
</mgrwt>
<rwgt>
<wgt id='morphing_basis_vector_1'> +2.1750250e-04 </wgt>
<wgt id='morphing_basis_vector_2'> +1.2231684e-04 </wgt>
<wgt id='morphing_basis_vector_3'> +1.6676604e-04 </wgt>
<wgt id='morphing_basis_vector_4'> +6.6752927e-05 </wgt>
<wgt id='morphing_basis_vector_5'> +9.8930836e-05 </wgt>
</rwgt>
</event>
<event>
 4      1 +1.0153100e-05 5.26920600e+02 7.81860800e-03 9.34146400e-02
        2 -1    0    0  501    0 +0.0000000000e+00 +0.0000000000e+00 +6.3673021666e+02 6.3673021666e+02 0.0000000000e+00 0.0000e+00 -1.0000e+00
       -2 -1    0    0    0  501 -0.0000000000e+00 -0.0000000000e+00 -1.0901215764e+02 1.0901215764e+02 0.0000000000e+00 0.0000e+00 1.0000e+00
      -13  1    1    2    0    0 -1.2217703943e+02 +2.3055742012e+02 +2.1229562793e+02 3.3638279768e+02 0.0000000000e+00 0.0000e+00 1.0000e+00
       13  1    1    2    0    0 +1.2217703943e+02 -2.3055742012e+02 +3.1542243109e+02 4.0935957662e+02 0.0000000000e+00 0.0000e+00 -1.0000e+00
<mgrwt>
<rscale>  0 0.52692062E+03</rscale>
<asrwt>0</asrwt>
<pdfrwt beam="1">  1        2 0.97958492E-01 0.52692062E+03</pdfrwt>
<pdfrwt beam="2">  1       -2 0.16771102E-01 0.52692062E+03</pdfrwt>
<totfact> 0.14853393E+03</totfact>
</mgrwt>
<rwgt>
<wgt id='morphing_basis_vector_1'> +1.8069317e-04 </wgt>
<wgt id='morphing_basis_vector_2'> +1.0902217e-04 </wgt>
<wgt id='morphing_basis_vector_3'> +1.3031597e-04 </wgt>
<wgt id='morphing_basis_vector_4'> +4.6307313e-05 </wgt>
<wgt id='morphing_basis_vector_5'> +6.9356200e-05 </wgt>
</rwgt>
</event>
<event>
 4      1 +1.0153100e-05 5.49059900e+02 7.81860800e-03 9.29623500e-02
        2 -1    0    0  501    0 +0.0000000000e+00 +0.0000000000e+00 +2.1551890532e+02 2.1551890532e+02 0.0000000000e+00 0.0000e+00 -1.0000e+00
       -2 -1    0    0    0  501 -0.0000000000e+00 -0.0000000000e+00 -3.4969879310e+02 3.4969879310e+02 0.0000000000e+00 0.0000e+00 1.0000e+00
      -13  1    1    2    0    0 +2.2626766963e+01 +2.3880846517e+02 -2.0453014675e+02 3.1523647402e+02 0.0000000000e+00 0.0000e+00 1.0000e+00
       13  1    1    2    0    0 -2.2626766963e+01 -2.3880846517e+02 +7.0350258970e+01 2.4998122441e+02 0.0000000000e+00 0.0000e+00 -1.0000e+00
<mgrwt>
<rscale>  0 0.54905993E+03</rscale>
<asrwt>0</asrwt>
<pdfrwt beam="1">  1        2 0.33156755E-01 0.54905993E+03</pdfrwt>
<pdfrwt beam="2">  1       -2 0.53799814E-01 0.54905993E+03</pdfrwt>
<totfact> 0.64268817E+02</totfact>
</mgrwt>
<rwgt>
<wgt id='morphing_basis_vector_1'> +2.0225327e-04 </wgt>
<wgt id='morphing_basis_vector_2'> +1.1506842e-04 </wgt>
<wgt id='morphing_basis_vector_3'> +1.5241598e-04 </wgt>
<wgt id='morphing_basis_vector_4'> +5.8714086e-05 </wgt>
<wgt id='morphing_basis_vector_5'> +8.6884441e-05 </wgt>
</rwgt>
</event>
<event>
 4      1 +1.0153100e-05 5.50906900e+02 7.81860800e-03 9.29256500e-02
        2 -1    0    0  501    0 +0.0000000000e+00 +0.0000000000e+00 +2.9593037319e+02 2.9593037319e+02 0.0000000000e+00 0.0000e+00 -1.0000e+00
       -2 -1    0    0    0  501 -0.0000000000e+00 -0.0000000000e+00 -2.5639341811e+02 2.5639341811e+02 0.0000000000e+00 0.0000e+00 1.0000e+00
      -13  1    1    2    0    0 +3.8163141272e+01 +1.3254646829e+02 -2.1927631457e+02 2.5905036912e+02 0.0000000000e+00 0.0000e+00 1.0000e+00
       13  1    1    2    0    0 -3.8163141272e+01 -1.3254646829e+02 +2.5881326965e+02 2.9327342218e+02 0.0000000000e+00 0.0000e+00 -1.0000e+00
<mgrwt>
<rscale>  0 0.55090689E+03</rscale>
<asrwt>0</asrwt>
<pdfrwt beam="1">  1        2 0.45527750E-01 0.55090689E+03</pdfrwt>
<pdfrwt beam="2">  1       -2 0.39445141E-01 0.55090689E+03</pdfrwt>
<totfact> 0.81250184E+02</totfact>
</mgrwt>
<rwgt>
<wgt id='morphing_basis_vector_1'> +2.0354847e-04 </wgt>
<wgt id='morphing_basis_vector_2'> +1.1372221e-04 </wgt>
<wgt id='morphing_basis_vector_3'> +1.5446591e-04 </wgt>
<wgt id='morphing_basis_vector_4'> +6.0220589e-05 </wgt>
<wgt id='morphing_basis_vector_5'> +8.8459800e-05 </wgt>
</rwgt>
</event>
<event>
 4      1 +1.0153100e-05 6.05618900e+02 7.81860800e-03 9.19030200e-02
        2 -1    0    0  501    0 +0.0000000000e+00 +0.0000000000e+00 +2.1729865561e+03 2.1729865561e+03 0.0000000000e+00 0.0000e+00 -1.0000e+00
       -2 -1    0    0    0  501 -0.0000000000e+00 -0.0000000000e+00 -4.2197025283e+01 4.2197025283e+01 0.0000000000e+00 0.0000e+00 1.0000e+00
      -13  1    1    2    0    0 -2.2568701167e+02 -2.0188783629e+02 +1.0635918150e+03 1.1058575290e+03 0.0000000000e+00 0.0000e+00 1.0000e+00
       13  1    1    2    0    0 +2.2568701167e+02 +2.0188783629e+02 +1.0671977159e+03 1.1093260524e+03 0.0000000000e+00 0.0000e+00 -1.0000e+00
<mgrwt>
<rscale>  0 0.60561892E+03</rscale>
<asrwt>0</asrwt>
<pdfrwt beam="1">  1        2 0.33430554E+00 0.60561892E+03</pdfrwt>
<pdfrwt beam="2">  1       -2 0.64918517E-02 0.60561892E+03</pdfrwt>
<totfact> 0.82306616E+02</totfact>
</mgrwt>
<rwgt>
<wgt id='morphing_basis_vector_1'> +2.8502378e-04 </wgt>
<wgt id='morphing_basis_vector_2'> +1.8581655e-04 </wgt>
<wgt id='morphing_basis_vector_3'> +2.2004929e-04 </wgt>
<wgt id='morphing_basis_vector_4'> +8.8808185e-05 </wgt>
<wgt id='morphing_basis_vector_5'> +1.4541499e-04 </wgt>
</rwgt>
</event>
<event>
 4      1 +1.0153100e-05 5.76185800e+02 7.81860800e-03 9.24382000e-02
        2 -1    0    0  501    0 +0.0000000000e+00 +0.0000000000e+00 +1.0568749709e+03 1.0568749709e+03 0.0000000000e+00 0.0000e+00 1.0000e+00
       -2 -1    0    0    0  501 -0.0000000000e+00 -0.0000000000e+00 -7.8531066724e+01 7.8531066724e+01 0.0000000000e+00 0.0000e+00 -1.0000e+00
      -13  1    1    2    0    0 -1.8845382453e+01 -2.7946390668e+02 +6.2198059239e+02 6.8214007424e+02 0.0000000000e+00 0.0000e+00 1.0000e+00
       13  1    1    2    0    0 +1.8845382453e+01 +2.7946390668e+02 +3.5636331178e+02 4.5326596337e+02 0.0000000000e+00 0.0000e+00 -1.0000e+00
<mgrwt>
<rscale>  0 0.57618580E+03</rscale>
<asrwt>0</asrwt>
<pdfrwt beam="1">  1        2 0.16259614E+00 0.57618580E+03</pdfrwt>
<pdfrwt beam="2">  1       -2 0.12081703E-01 0.57618580E+03</pdfrwt>
<totfact> 0.13048641E+03</totfact>
</mgrwt>
<rwgt>
<wgt id='morphing_basis_vector_1'> +2.5257307e-04 </wgt>
<wgt id='morphing_basis_vector_2'> +1.8777150e-04 </wgt>
<wgt id='morphing_basis_vector_3'> +1.8101259e-04 </wgt>
<wgt id='morphing_basis_vector_4'> +6.2949092e-05 </wgt>
<wgt id='morphing_basis_vector_5'> +1.1258988e-04 </wgt>
</rwgt>
</event>
<event>
 4      1 +1.0153100e-05 5.48132700e+02 7.81860800e-03 9.29808300e-02
        2 -1    0    0  501    0 +0.0000000000e+00 +0.0000000000e+00 +9.9517693236e+02 9.9517693236e+02 0.0000000000e+00 0.0000e+00 1.0000e+00
       -2 -1    0    0    0  501 -0.0000000000e+00 -0.0000000000e+00 -7.5476397425e+01 7.5476397425e+01 0.0000000000e+00 0.0000e+00 -1.0000e+00
      -13  1    1    2    0    0 +2.2563686440e+02 +1.3985590154e+02 +3.2678798158e+02 4.2102500243e+02 0.0000000000e+00 0.0000e+00 -1.0000e+00
       13  1    1    2    0    0 -2.2563686440e+02 -1.3985590154e+02 +5.9291255336e+02 6.4962832735e+02 0.0000000000e+00 0.0000e+00 1.0000e+00
<mgrwt>
<rscale>  0 0.54813272E+03</rscale>
<asrwt>0</asrwt>
<pdfrwt beam="1">  1        2 0.15310413E+00 0.54813272E+03</pdfrwt>
<pdfrwt beam="2">  1       -2 0.11611754E-01 0.54813272E+03</pdfrwt>
<totfact> 0.15150026E+03</totfact>
</mgrwt>
<rwgt>
<wgt id='morphing_basis_vector_1'> +2.0289765e-04 </wgt>
<wgt id='morphing_basis_vector_2'> +1.1974803e-04 </wgt>
<wgt id='morphing_basis_vector_3'> +1.5114314e-04 </wgt>
<wgt id='morphing_basis_vector_4'> +5.7206610e-05 </wgt>
<wgt id='morphing_basis_vector_5'> +8.6131471e-05 </wgt>
</rwgt>
</event>
<event>
 4      1 +1.0153100e-05 5.77874200e+02 7.81860800e-03 9.24065900e-02
        2 -1    0    0  501    0 +0.0000000000e+00 +0.0000000000e+00 +4.0140971356e+02 4.0140971356e+02 0.0000000000e+00 0.0000e+00 1.0000e+00
       -2 -1    0    0    0  501 -0.0000000000e+00 -0.0000000000e+00 -2.0797861051e+02 2.0797861051e+02 0.0000000000e+00 0.0000e+00 -1.0000e+00
      -13  1    1    2    0    0 -4.8321160058e+01 -2.8275053555e+02 +6.0157485676e+01 2.9308995709e+02 0.0000000000e+00 0.0000e+00 -1.0000e+00
       13  1    1    2    0    0 +4.8321160058e+01 +2.8275053555e+02 +1.3327361738e+02 3.1629836698e+02 0.0000000000e+00 0.0000e+00 1.0000e+00
<mgrwt>
<rscale>  0 0.57787415E+03</rscale>
<asrwt>0</asrwt>
<pdfrwt beam="1">  1        2 0.61755340E-01 0.57787415E+03</pdfrwt>
<pdfrwt beam="2">  1       -2 0.31996709E-01 0.57787415E+03</pdfrwt>
<totfact> 0.84288109E+02</totfact>
</mgrwt>
<rwgt>
<wgt id='morphing_basis_vector_1'> +2.4199941e-04 </wgt>
<wgt id='morphing_basis_vector_2'> +1.4941608e-04 </wgt>
<wgt id='morphing_basis_vector_3'> +1.8398244e-04 </wgt>
<wgt id='morphing_basis_vector_4'> +7.2849829e-05 </wgt>
<wgt id='morphing_basis_vector_5'> +1.1415464e-04 </wgt>
</rwgt>
</event>
<event>
 4      1 +1.0153100e-05 5.41038700e+02 7.81860800e-03 9.31235500e-02
        2 -1    0    0  501    0 +0.0000000000e+00 +0.0000000000e+00 +2.0575885940e+03 2.0575885940e+03 0.0000000000e+00 0.0000e+00 1.0000e+00
       -2 -1    0    0    0  501 -0.0000000000e+00 -0.0000000000e+00 -3.5566255809e+01 3.5566255809e+01 0.0000000000e+00 0.0000e+00 -1.0000e+00
      -13  1    1    2    0    0 -2.2202873121e+02 +1.3214829396e+02 +1.3210152123e+03 1.3460464778e+03 0.0000000000e+00 0.0000e+00 1.0000e+00
       13  1    1    2    0    0 +2.2202873121e+02 -1.3214829396e+02 +7.0100712586e+02 7.4710837204e+02 0.0000000000e+00 0.0000e+00 -1.0000e+00
<mgrwt>
<rscale>  0 0.54103871E+03</rscale>
<asrwt>0</asrwt>
<pdfrwt beam="1">  1        2 0.31655200E+00 0.54103871E+03</pdfrwt>
<pdfrwt beam="2">  1       -2 0.54717333E-02 0.54103871E+03</pdfrwt>
<totfact> 0.12430748E+03</totfact>
</mgrwt>
<rwgt>
<wgt id='morphing_basis_vector_1'> +2.1017649e-04 </wgt>
<wgt id='morphing_basis_vector_2'> +1.6247702e-04 </wgt>
<wgt id='morphing_basis_vector_3'> +1.4061262e-04 </wgt>
<wgt id='morphing_basis_vector_4'> +4.4931365e-05 </wgt>
<wgt id='morphing_basis_vector_5'> +8.0627738e-05 </wgt>
</rwgt>
</event>
<event>
 4      1 +1.0153100e-05 5.84994300e+02 7.81860800e-03 9.22745500e-02
        2 -1    0    0  501    0 +0.0000000000e+00 +0.0000000000e+00 +1.1971538860e+03 1.1971538860e+03 0.0000000000e+00 0.0000e+00 -1.0000e+00
       -2 -1    0    0    0  501 -0.0000000000e+00 -0.0000000000e+00 -7.1464974201e+01 7.1464974201e+01 0.0000000000e+00 0.0000e+00 1.0000e+00
      -13  1    1    2    0    0 +2.2372981325e+02 -1.8807202222e+02 +5.3826581120e+02 6.1249995787e+02 0.0000000000e+00 0.0000e+00 1.0000e+00
       13  1    1    2    0    0 -2.2372981325e+02 +1.8807202222e+02 +5.8742310058e+02 6.5611890231e+02 0.0000000000e+00 0.0000e+00 -1.0000e+00
<mgrwt>
<rscale>  0 0.58499426E+03</rscale>
<asrwt>0</asrwt>
<pdfrwt beam="1">  1        2 0.18417751E+00 0.58499426E+03</pdfrwt>
<pdfrwt beam="2">  1       -2 0.10994612E-01 0.58499426E+03</pdfrwt>
<totfact> 0.12530692E+03</totfact>
</mgrwt>
<rwgt>
<wgt id='morphing_basis_vector_1'> +2.5362849e-04 </wgt>
<wgt id='morphing_basis_vector_2'> +1.6169096e-04 </wgt>
<wgt id='morphing_basis_vector_3'> +1.9265126e-04 </wgt>
<wgt id='morphing_basis_vector_4'> +7.5953157e-05 </wgt>
<wgt id='morphing_basis_vector_5'> +1.2169806e-04 </wgt>
</rwgt>
</event>
<event>
 4      1 +1.0153100e-05 6.03178500e+02 7.81860800e-03 9.19461600e-02
        2 -1    0    0  501    0 +0.0000000000e+00 +0.0000000000e+00 +6.5593571617e+02 6.5593571617e+02 0.0000000000e+00 0.0000e+00 -1.0000e+00
       -2 -1    0    0    0  501 -0.0000000000e+00 -0.0000000000e+00 -1.3866612022e+02 1.3866612022e+02 0.0000000000e+00 0.0000e+00 1.0000e+00
      -13  1    1    2    0    0 +2.4716309502e+02 -1.5282473313e+02 +3.6493395123e+02 4.6649949984e+02 0.0000000000e+00 0.0000e+00 1.0000e+00
       13  1    1    2    0    0 -2.4716309502e+02 +1.5282473313e+02 +1.5233564472e+02 3.2810233655e+02 0.0000000000e+00 0.0000e+00 -1.0000e+00
<mgrwt>
<rscale>  0 0.60317845E+03</rscale>
<asrwt>0</asrwt>
<pdfrwt beam="1">  1        2 0.10091319E+00 0.60317845E+03</pdfrwt>
<pdfrwt beam="2">  1       -2 0.21333250E-01 0.60317845E+03</pdfrwt>
<totfact> 0.96371584E+02</totfact>
</mgrwt>
<rwgt>
<wgt id='morphing_basis_vector_1'> +2.9543748e-04 </wgt>
<wgt id='morphing_basis_vector_2'> +2.2710702e-04 </wgt>
<wgt id='morphing_basis_vector_3'> +2.1709422e-04 </wgt>
<wgt id='morphing_basis_vector_4'> +7.6063698e-05 </wgt>
<wgt id='morphing_basis_vector_5'> +1.4251052e-04 </wgt>
</rwgt>
</event>
<event>
 4      1 +1.0153100e-05 5.67653200e+02 7.81860800e-03 9.25997100e-02
        2 -1    0    0  501    0 +0.0000000000e+00 +0.0000000000e+00 +1.0866257747e+03 1.0866257747e+03 0.0000000000e+00 0.0000e+00 1.0000e+00
       -2 -1    0    0    0  501 -0.0000000000e+00 -0.0000000000e+00 -7.4135504781e+01 7.4135504781e+01 0.0000000000e+00 0.0000e+00 -1.0000e+00
      -13  1    1    2    0    0 +2.3480215040e+02 +7.7008123485e+01 +2.2073325152e+02 3.3133890391e+02 0.0000000000e+00 0.0000e+00 -1.0000e+00
       13  1    1    2    0    0 -2.3480215040e+02 -7.7008123485e+01 +7.9175701837e+02 8.2942237554e+02 0.0000000000e+00 0.0000e+00 1.0000e+00
<mgrwt>
<rscale>  0 0.56765324E+03</rscale>
<asrwt>0</asrwt>
<pdfrwt beam="1">  1        2 0.16717319E+00 0.56765324E+03</pdfrwt>
<pdfrwt beam="2">  1       -2 0.11405463E-01 0.56765324E+03</pdfrwt>
<totfact> 0.13723366E+03</totfact>
</mgrwt>
<rwgt>
<wgt id='morphing_basis_vector_1'> +2.2469021e-04 </wgt>
<wgt id='morphing_basis_vector_2'> +1.2859359e-04 </wgt>
<wgt id='morphing_basis_vector_3'> +1.7240759e-04 </wgt>
<wgt id='morphing_basis_vector_4'> +6.9330028e-05 </wgt>
<wgt id='morphing_basis_vector_5'> +1.0386130e-04 </wgt>
</rwgt>
</event>
<event>
 4      1 +1.0153100e-05 5.47563600e+02 7.81860800e-03 9.29922000e-02
        2 -1    0    0  501    0 +0.0000000000e+00 +0.0000000000e+00 +9.8145245607e+02 9.8145245607e+02 0.0000000000e+00 0.0000e+00 -1.0000e+00
       -2 -1    0    0    0  501 -0.0000000000e+00 -0.0000000000e+00 -7.6372993552e+01 7.6372993552e+01 0.0000000000e+00 0.0000e+00 1.0000e+00
      -13  1    1    2    0    0 +1.3311556679e+02 -1.7897155043e+02 +1.4582791190e+02 2.6648893012e+02 0.0000000000e+00 0.0000e+00 1.0000e+00
       13  1    1    2    0    0 -1.3311556679e+02 +1.7897155043e+02 +7.5925155062e+02 7.9133651950e+02 0.0000000000e+00 0.0000e+00 -1.0000e+00
<mgrwt>
<rscale>  0 0.54756356E+03</rscale>
<asrwt>0</asrwt>
<pdfrwt beam="1">  1        2 0.15099268E+00 0.54756356E+03</pdfrwt>
<pdfrwt beam="2">  1       -2 0.11749692E-01 0.54756356E+03</pdfrwt>
<totfact> 0.15162074E+03</totfact>
</mgrwt>
<rwgt>
<wgt id='morphing_basis_vector_1'> +2.0017505e-04 </wgt>
<wgt id='morphing_basis_vector_2'> +1.1293049e-04 </wgt>
<wgt id='morphing_basis_vector_3'> +1.5096060e-04 </wgt>
<wgt id='morphing_basis_vector_4'> +5.8124339e-05 </wgt>
<wgt id='morphing_basis_vector_5'> +8.5598942e-05 </wgt>
</rwgt>
</event>
<event>
 4      1 +1.0153100e-05 5.21984300e+02 7.81860800e-03 9.35187300e-02
        2 -1    0    0  501    0 +0.0000000000e+00 +0.0000000000e+00 +2.1427815464e+03 2.1427815464e+03 0.0000000000e+00 0.0000e+00 -1.0000e+00
       -2 -1    0    0    0  501 -0.0000000000e+00 -0.0000000000e+00 -3.1789015144e+01 3.1789015144e+01 0.0000000000e+00 0.0000e+00 1.0000e+00
      -13  1    1    2    0    0 -2.4607449012e+02 +6.8643356102e+00 +6.9430072618e+02 7.3665003371e+02 0.0000000000e+00 0.0000e+00 1.0000e+00
       13  1    1    2    0    0 +2.4607449012e+02 -6.8643356102e+00 +1.4166918051e+03 1.4379205278e+03 0.0000000000e+00 0.0000e+00 -1.0000e+00
<mgrwt>
<rscale>  0 0.52198435E+03</rscale>
<asrwt>0</asrwt>
<pdfrwt beam="1">  1        2 0.32965859E+00 0.52198435E+03</pdfrwt>
<pdfrwt beam="2">  1       -2 0.48906194E-02 0.52198435E+03</pdfrwt>
<totfact> 0.13239959E+03</totfact>
</mgrwt>
<rwgt>
<wgt id='morphing_basis_vector_1'> +1.7365915e-04 </wgt>
<wgt id='morphing_basis_vector_2'> +9.9917829e-05 </wgt>
<wgt id='morphing_basis_vector_3'> +1.2645196e-04 </wgt>
<wgt id='morphing_basis_vector_4'> +4.5090118e-05 </wgt>
<wgt id='morphing_basis_vector_5'> +6.5732603e-05 </wgt>
</rwgt>
</event>
<event>
 4      1 +1.0153100e-05 5.28740700e+02 7.81860800e-03 9.33765700e-02
        2 -1    0    0  501    0 +0.0000000000e+00 +0.0000000000e+00 +1.2796477135e+03 1.2796477135e+03 0.0000000000e+00 0.0000e+00 -1.0000e+00
       -2 -1    0    0    0  501 -0.0000000000e+00 -0.0000000000e+00 -5.4617906734e+01 5.4617906734e+01 0.0000000000e+00 0.0000e+00 1.0000e+00
      -13  1    1    2    0    0 -2.6135169721e+02 +3.3734471020e+01 +5.5904602023e+02 6.1804140388e+02 0.0000000000e+00 0.0000e+00 1.0000e+00
       13  1    1    2    0    0 +2.6135169721e+02 -3.3734471020e+01 +6.6598378651e+02 7.1622421634e+02 0.0000000000e+00 0.0000e+00 -1.0000e+00
<mgrwt>
<rscale>  0 0.52874069E+03</rscale>
<asrwt>0</asrwt>
<pdfrwt beam="1">  1        2 0.19686886E+00 0.52874069E+03</pdfrwt>
<pdfrwt beam="2">  1       -2 0.84027559E-02 0.52874069E+03</pdfrwt>
<totfact> 0.17143909E+03</totfact>
</mgrwt>
<rwgt>
<wgt id='morphing_basis_vector_1'> +1.8350891e-04 </wgt>
<wgt id='morphing_basis_vector_2'> +1.1299386e-04 </wgt>
<wgt id='morphing_basis_vector_3'> +1.3174107e-04 </wgt>
<wgt id='morphing_basis_vector_4'> +4.6658339e-05 </wgt>
<wgt id='morphing_basis_vector_5'> +7.0728740e-05 </wgt>
</rwgt>
</event>
<event>
 4      1 +1.0153100e-05 6.14214400e+02 7.81860800e-03 9.17527600e-02
        2 -1    0    0  501    0 +0.0000000000e+00 +0.0000000000e+00 +1.2495202361e+03 1.2495202361e+03 0.0000000000e+00 0.0000e+00 1.0000e+00
       -2 -1    0    0    0  501 -0.0000000000e+00 -0.0000000000e+00 -7.5480837724e+01 7.5480837724e+01 0.0000000000e+00 0.0000e+00 -1.0000e+00
      -13  1    1    2    0    0 -2.5170052604e+02 +1.8919088837e+01 +2.0963565304e+02 3.2811308075e+02 0.0000000000e+00 0.0000e+00 -1.0000e+00
       13  1    1    2    0    0 +2.5170052604e+02 -1.8919088837e+01 +9.6440374534e+02 9.9688799308e+02 0.0000000000e+00 0.0000e+00 1.0000e+00
<mgrwt>
<rscale>  0 0.61421441E+03</rscale>
<asrwt>0</asrwt>
<pdfrwt beam="1">  1        2 0.19223387E+00 0.61421441E+03</pdfrwt>
<pdfrwt beam="2">  1       -2 0.11612437E-01 0.61421441E+03</pdfrwt>
<totfact> 0.10720170E+03</totfact>
</mgrwt>
<rwgt>
<wgt id='morphing_basis_vector_1'> +2.8950836e-04 </wgt>
<wgt id='morphing_basis_vector_2'> +1.6725933e-04 </wgt>
<wgt id='morphing_basis_vector_3'> +2.3170448e-04 </wgt>
<wgt id='morphing_basis_vector_4'> +1.0231799e-04 </wgt>
<wgt id='morphing_basis_vector_5'> +1.5617843e-04 </wgt>
</rwgt>
</event>
<event>
 4      1 +1.0153100e-05 5.22024100e+02 7.81860800e-03 9.35178900e-02
        2 -1    0    0  501    0 +0.0000000000e+00 +0.0000000000e+00 +4.9632672037e+02 4.9632672037e+02 0.0000000000e+00 0.0000e+00 -1.0000e+00
       -2 -1    0    0    0  501 -0.0000000000e+00 -0.0000000000e+00 -1.3726299837e+02 1.3726299837e+02 0.0000000000e+00 0.0000e+00 1.0000e+00
      -13  1    1    2    0    0 -1.2774471769e+02 +7.2633237146e+00 -9.6587700309e+01 1.6031423087e+02 0.0000000000e+00 0.0000e+00 1.0000e+00
       13  1    1    2    0    0 +1.2774471769e+02 -7.2633237146e+00 +4.5565142231e+02 4.7327548787e+02 0.0000000000e+00 0.0000e+00 -1.0000e+00
<mgrwt>
<rscale>  0 0.52202411E+03</rscale>
<asrwt>0</asrwt>
<pdfrwt beam="1">  1        2 0.76357956E-01 0.52202411E+03</pdfrwt>
<pdfrwt beam="2">  1       -2 0.21117385E-01 0.52202411E+03</pdfrwt>
<totfact> 0.13547122E+03</totfact>
</mgrwt>
<rwgt>
<wgt id='morphing_basis_vector_1'> +1.7218228e-04 </wgt>
<wgt id='morphing_basis_vector_2'> +9.5229128e-05 </wgt>
<wgt id='morphing_basis_vector_3'> +1.2695430e-04 </wgt>
<wgt id='morphing_basis_vector_4'> +4.5850895e-05 </wgt>
<wgt id='morphing_basis_vector_5'> +6.5711386e-05 </wgt>
</rwgt>
</event>
<event>
 4      1 +1.0153100e-05 5.84916300e+02 7.81860800e-03 9.22759800e-02
        2 -1    0    0  501    0 +0.0000000000e+00 +0.0000000000e+00 +2.3180706050e+02 2.3180706050e+02 0.0000000000e+00 0.0000e+00 -1.0000e+00
       -2 -1    0    0    0  501 -0.0000000000e+00 -0.0000000000e+00 -3.6897826473e+02 3.6897826473e+02 0.0000000000e+00 0.0000e+00 1.0000e+00
      -13  1    1    2    0    0 -2.2884081654e+01 +2.8696526118e+02 -1.2155033387e+02 3.1248556124e+02 0.0000000000e+00 0.0000e+00 1.0000e+00
       13  1    1    2    0    0 +2.2884081654e+01 -2.8696526118e+02 -1.5620870358e+01 2.8829976398e+02 0.0000000000e+00 0.0000e+00 -1.0000e+00
<mgrwt>
<rscale>  0 0.58491629E+03</rscale>
<asrwt>0</asrwt>
<pdfrwt beam="1">  1        2 0.35662625E-01 0.58491629E+03</pdfrwt>
<pdfrwt beam="2">  1       -2 0.56765886E-01 0.58491629E+03</pdfrwt>
<totfact> 0.53106703E+02</totfact>
</mgrwt>
<rwgt>
<wgt id='morphing_basis_vector_1'> +2.5057013e-04 </wgt>
<wgt id='morphing_basis_vector_2'> +1.5246669e-04 </wgt>
<wgt id='morphing_basis_vector_3'> +1.9266760e-04 </wgt>
<wgt id='morphing_basis_vector_4'> +7.8029788e-05 </wgt>
<wgt id='morphing_basis_vector_5'> +1.2158370e-04 </wgt>
</rwgt>
</event>
<event>
 4      1 +1.0153100e-05 5.74646400e+02 7.81860800e-03 9.24671200e-02
        2 -1    0    0  501    0 +0.0000000000e+00 +0.0000000000e+00 +8.5531492250e+02 8.5531492250e+02 0.0000000000e+00 0.0000e+00 -1.0000e+00
       -2 -1    0    0    0  501 -0.0000000000e+00 -0.0000000000e+00 -9.6519554193e+01 9.6519554193e+01 0.0000000000e+00 0.0000e+00 1.0000e+00
      -13  1    1    2    0    0 -2.3931757215e+01 +1.8361995344e+02 +1.5499736306e+01 1.8582049976e+02 0.0000000000e+00 0.0000e+00 1.0000e+00
       13  1    1    2    0    0 +2.3931757215e+01 -1.8361995344e+02 +7.4329563200e+02 7.6601397693e+02 0.0000000000e+00 0.0000e+00 -1.0000e+00
<mgrwt>
<rscale>  0 0.57464638E+03</rscale>
<asrwt>0</asrwt>
<pdfrwt beam="1">  1        2 0.13158691E+00 0.57464638E+03</pdfrwt>
<pdfrwt beam="2">  1       -2 0.14849163E-01 0.57464638E+03</pdfrwt>
<totfact> 0.12555242E+03</totfact>
</mgrwt>
<rwgt>
<wgt id='morphing_basis_vector_1'> +2.3280620e-04 </wgt>
<wgt id='morphing_basis_vector_2'> +1.3143529e-04 </wgt>
<wgt id='morphing_basis_vector_3'> +1.8051424e-04 </wgt>
<wgt id='morphing_basis_vector_4'> +7.4234943e-05 </wgt>
<wgt id='morphing_basis_vector_5'> +1.1078454e-04 </wgt>
</rwgt>
</event>
<event>
 4      1 +1.0153100e-05 6.11261200e+02 7.81860800e-03 9.18040900e-02
        2 -1    0    0  501    0 +0.0000000000e+00 +0.0000000000e+00 +9.6500390877e+02 9.6500390877e+02 0.0000000000e+00 0.0000e+00 1.0000e+00
       -2 -1    0    0    0  501 -0.0000000000e+00 -0.0000000000e+00 -9.6797586020e+01 9.6797586020e+01 0.0000000000e+00 0.0000e+00 -1.0000e+00
      -13  1    1    2    0    0 -1.8163646320e+01 -2.2819079964e+02 +7.8587138211e+02 8.1853209364e+02 0.0000000000e+00 0.0000e+00 1.0000e+00
       13  1    1    2    0    0 +1.8163646320e+01 +2.2819079964e+02 +8.2334940637e+01 2.4326940115e+02 0.0000000000e+00 0.0000e+00 -1.0000e+00
<mgrwt>
<rscale>  0 0.61126115E+03</rscale>
<asrwt>0</asrwt>
<pdfrwt beam="1">  1        2 0.14846213E+00 0.61126115E+03</pdfrwt>
<pdfrwt beam="2">  1       -2 0.14891937E-01 0.61126115E+03</pdfrwt>
<totfact> 0.10619254E+03</totfact>
</mgrwt>
<rwgt>
<wgt id='morphing_basis_vector_1'> +3.5777916e-04 </wgt>
<wgt id='morphing_basis_vector_2'> +3.9011086e-04 </wgt>
<wgt id='morphing_basis_vector_3'> +2.3198185e-04 </wgt>
<wgt id='morphing_basis_vector_4'> +4.1257916e-05 </wgt>
<wgt id='morphing_basis_vector_5'> +1.5249062e-04 </wgt>
</rwgt>
</event>
<event>
 4      1 +1.0153100e-05 5.96119400e+02 7.81860800e-03 9.20721700e-02
        2 -1    0    0  501    0 +0.0000000000e+00 +0.0000000000e+00 +1.2037179565e+03 1.2037179565e+03 0.0000000000e+00 0.0000e+00 -1.0000e+00
       -2 -1    0    0    0  501 -0.0000000000e+00 -0.0000000000e+00 -7.3804330977e+01 7.3804330977e+01 0.0000000000e+00 0.0000e+00 1.0000e+00
      -13  1    1    2    0    0 -1.7601243871e+02 -1.1262729493e+02 +1.0946458438e+02 2.3589781978e+02 0.0000000000e+00 0.0000e+00 1.0000e+00
       13  1    1    2    0    0 +1.7601243871e+02 +1.1262729493e+02 +1.0204490412e+03 1.0416244677e+03 0.0000000000e+00 0.0000e+00 -1.0000e+00
<mgrwt>
<rscale>  0 0.59611945E+03</rscale>
<asrwt>0</asrwt>
<pdfrwt beam="1">  1        2 0.18518736E+00 0.59611945E+03</pdfrwt>
<pdfrwt beam="2">  1       -2 0.11354513E-01 0.59611945E+03</pdfrwt>
<totfact> 0.11803545E+03</totfact>
</mgrwt>
<rwgt>
<wgt id='morphing_basis_vector_1'> +2.6212658e-04 </wgt>
<wgt id='morphing_basis_vector_2'> +1.4935283e-04 </wgt>
<wgt id='morphing_basis_vector_3'> +2.0701409e-04 </wgt>
<wgt id='morphing_basis_vector_4'> +8.8831555e-05 </wgt>
<wgt id='morphing_basis_vector_5'> +1.3407779e-04 </wgt>
</rwgt>
</event>
<event>
 4      1 +1.0153100e-05 5.79550100e+02 7.81860800e-03 9.23753300e-02
        2 -1    0    0  501    0 +0.0000000000e+00 +0.0000000000e+00 +1.6303620084e+02 1.6303620084e+02 0.0000000000e+00 0.0000e+00 1.0000e+00
       -2 -1    0    0    0  501 -0.0000000000e+00 -0.0000000000e+00 -5.1503632567e+02 5.1503632567e+02 0.0000000000e+00 0.0000e+00 -1.0000e+00
      -13  1    1    2    0    0 -2.5340876123e+02 +1.3631119395e+02 -1.3593169797e+02 3.1823602621e+02 0.0000000000e+00 0.0000e+00 -1.0000e+00
       13  1    1    2    0    0 +2.5340876123e+02 -1.3631119395e+02 -2.1606842685e+02 3.5983650030e+02 0.0000000000e+00 0.0000e+00 1.0000e+00
<mgrwt>
<rscale>  0 0.57955005E+03</rscale>
<asrwt>0</asrwt>
<pdfrwt beam="1">  1        2 0.25082492E-01 0.57955005E+03</pdfrwt>
<pdfrwt beam="2">  1       -2 0.79236358E-01 0.57955005E+03</pdfrwt>
<totfact> 0.39428730E+02</totfact>
</mgrwt>
<rwgt>
<wgt id='morphing_basis_vector_1'> +2.5139211e-04 </wgt>
<wgt id='morphing_basis_vector_2'> +1.7302643e-04 </wgt>
<wgt id='morphing_basis_vector_3'> +1.8558299e-04 </wgt>
<wgt id='morphing_basis_vector_4'> +6.8875793e-05 </wgt>
<wgt id='morphing_basis_vector_5'> +1.1598229e-04 </wgt>
</rwgt>
</event>
<event>
 4      1 +1.0153100e-05 5.79499000e+02 7.81860800e-03 9.23762800e-02
        2 -1    0    0  501    0 +0.0000000000e+00 +0.0000000000e+00 +1.2447731956e+03 1.2447731956e+03 0.0000000000e+00 0.0000e+00 -1.0000e+00
       -2 -1    0    0    0  501 -0.0000000000e+00 -0.0000000000e+00 -6.7445848334e+01 6.7445848334e+01 0.0000000000e+00 0.0000e+00 1.0000e+00
      -13  1    1    2    0    0 -2.7670628489e+02 +4.8620725365e+01 +4.2815537298e+02 5.1210093384e+02 0.0000000000e+00 0.0000e+00 1.0000e+00
       13  1    1    2    0    0 +2.7670628489e+02 -4.8620725365e+01 +7.4917197427e+02 8.0011811008e+02 0.0000000000e+00 0.0000e+00 -1.0000e+00
<mgrwt>
<rscale>  0 0.57949904E+03</rscale>
<asrwt>0</asrwt>
<pdfrwt beam="1">  1        2 0.19150355E+00 0.57949904E+03</pdfrwt>
<pdfrwt beam="2">  1       -2 0.10376285E-01 0.57949904E+03</pdfrwt>
<totfact> 0.12891822E+03</totfact>
</mgrwt>
<rwgt>
<wgt id='morphing_basis_vector_1'> +2.4217734e-04 </wgt>
<wgt id='morphing_basis_vector_2'> +1.4459958e-04 </wgt>
<wgt id='morphing_basis_vector_3'> +1.8607054e-04 </wgt>
<wgt id='morphing_basis_vector_4'> +7.5268642e-05 </wgt>
<wgt id='morphing_basis_vector_5'> +1.1581804e-04 </wgt>
</rwgt>
</event>
<event>
 4      1 +1.0153100e-05 5.71104000e+02 7.81860800e-03 9.25340300e-02
        2 -1    0    0  501    0 +0.0000000000e+00 +0.0000000000e+00 +1.1743489109e+03 1.1743489109e+03 0.0000000000e+00 0.0000e+00 1.0000e+00
       -2 -1    0    0    0  501 -0.0000000000e+00 -0.0000000000e+00 -6.9434173724e+01 6.9434173724e+01 0.0000000000e+00 0.0000e+00 -1.0000e+00
      -13  1    1    2    0    0 -2.0317557666e+02 -8.3246660661e+01 +9.5005579094e+02 9.7509811166e+02 0.0000000000e+00 0.0000e+00 1.0000e+00
       13  1    1    2    0    0 +2.0317557666e+02 +8.3246660661e+01 +1.5485894621e+02 2.6868497294e+02 0.0000000000e+00 0.0000e+00 -1.0000e+00
<mgrwt>
<rscale>  0 0.57110401E+03</rscale>
<asrwt>0</asrwt>
<pdfrwt beam="1">  1        2 0.18066905E+00 0.57110401E+03</pdfrwt>
<pdfrwt beam="2">  1       -2 0.10682181E-01 0.57110401E+03</pdfrwt>
<totfact> 0.13518401E+03</totfact>
</mgrwt>
<rwgt>
<wgt id='morphing_basis_vector_1'> +2.8409935e-04 </wgt>
<wgt id='morphing_basis_vector_2'> +3.0206681e-04 </wgt>
<wgt id='morphing_basis_vector_3'> +1.7115756e-04 </wgt>
<wgt id='morphing_basis_vector_4'> +3.4393483e-05 </wgt>
<wgt id='morphing_basis_vector_5'> +1.0807671e-04 </wgt>
</rwgt>
</event>
<event>
 4      1 +1.0153100e-05 5.23724300e+02 7.81860800e-03 9.34819000e-02
        2 -1    0    0  501    0 +0.0000000000e+00 +0.0000000000e+00 +3.1168535825e+02 3.1168535825e+02 0.0000000000e+00 0.0000e+00 -1.0000e+00
       -2 -1    0    0    0  501 -0.0000000000e+00 -0.0000000000e+00 -2.2000320907e+02 2.2000320907e+02 0.0000000000e+00 0.0000e+00 1.0000e+00
      -13  1    1    2    0    0 +2.2082007484e+02 -2.7835143111e+01 -9.4226147556e+01 2.4169167865e+02 0.0000000000e+00 0.0000e+00 1.0000e+00
       13  1    1    2    0    0 -2.2082007484e+02 +2.7835143111e+01 +1.8590829674e+02 2.8999688868e+02 0.0000000000e+00 0.0000e+00 -1.0000e+00
<mgrwt>
<rscale>  0 0.52372427E+03</rscale>
<asrwt>0</asrwt>
<pdfrwt beam="1">  1        2 0.47951594E-01 0.52372427E+03</pdfrwt>
<pdfrwt beam="2">  1       -2 0.33846648E-01 0.52372427E+03</pdfrwt>
<totfact> 0.10126434E+03</totfact>
</mgrwt>
<rwgt>
<wgt id='morphing_basis_vector_1'> +1.7448758e-04 </wgt>
<wgt id='morphing_basis_vector_2'> +9.8032911e-05 </wgt>
<wgt id='morphing_basis_vector_3'> +1.2828103e-04 </wgt>
<wgt id='morphing_basis_vector_4'> +4.6331778e-05 </wgt>
<wgt id='morphing_basis_vector_5'> +6.6943728e-05 </wgt>
</rwgt>
</event>
<event>
 4      1 +1.0153100e-05 5.39522000e+02 7.81860800e-03 9.31543600e-02
        2 -1    0    0  501    0 +0.0000000000e+00 +0.0000000000e+00 +1.6989254909e+03 1.6989254909e+03 0.0000000000e+00 0.0000e+00 -1.0000e+00
       -2 -1    0    0    0  501 -0.0000000000e+00 -0.0000000000e+00 -4.2833545409e+01 4.2833545409e+01 0.0000000000e+00 0.0000e+00 1.0000e+00
      -13  1    1    2    0    0 -2.6445286317e+02 +2.7540656655e+01 +6.8091036085e+02 7.3098065920e+02 0.0000000000e+00 0.0000e+00 1.0000e+00
       13  1    1    2    0    0 +2.6445286317e+02 -2.7540656655e+01 +9.7518158459e+02 1.0107783771e+03 0.0000000000e+00 0.0000e+00 -1.0000e+00
<mgrwt>
<rscale>  0 0.53952202E+03</rscale>
<asrwt>0</asrwt>
<pdfrwt beam="1">  1        2 0.26137310E+00 0.53952202E+03</pdfrwt>
<pdfrwt beam="2">  1       -2 0.65897775E-02 0.53952202E+03</pdfrwt>
<totfact> 0.14675098E+03</totfact>
</mgrwt>
<rwgt>
<wgt id='morphing_basis_vector_1'> +1.9401433e-04 </wgt>
<wgt id='morphing_basis_vector_2'> +1.1649269e-04 </wgt>
<wgt id='morphing_basis_vector_3'> +1.4233041e-04 </wgt>
<wgt id='morphing_basis_vector_4'> +5.2343070e-05 </wgt>
<wgt id='morphing_basis_vector_5'> +7.9029866e-05 </wgt>
</rwgt>
</event>
<event>
 4      1 +1.0153100e-05 5.24053100e+02 7.81860800e-03 9.34749600e-02
        2 -1    0    0  501    0 +0.0000000000e+00 +0.0000000000e+00 +6.1292992749e+02 6.1292992749e+02 0.0000000000e+00 0.0000e+00 -1.0000e+00
       -2 -1    0    0    0  501 -0.0000000000e+00 -0.0000000000e+00 -1.1201593797e+02 1.1201593797e+02 0.0000000000e+00 0.0000e+00 1.0000e+00
      -13  1    1    2    0    0 -9.2137187497e+01 -2.4233359817e+02 +1.9790654256e+02 3.2616228125e+02 0.0000000000e+00 0.0000e+00 1.0000e+00
       13  1    1    2    0    0 +9.2137187497e+01 +2.4233359817e+02 +3.0300744696e+02 3.9878358421e+02 0.0000000000e+00 0.0000e+00 -1.0000e+00
<mgrwt>
<rscale>  0 0.52405313E+03</rscale>
<asrwt>0</asrwt>
<pdfrwt beam="1">  1        2 0.94296910E-01 0.52405313E+03</pdfrwt>
<pdfrwt beam="2">  1       -2 0.17233222E-01 0.52405313E+03</pdfrwt>
<totfact> 0.14861061E+03</totfact>
</mgrwt>
<rwgt>
<wgt id='morphing_basis_vector_1'> +1.7759094e-04 </wgt>
<wgt id='morphing_basis_vector_2'> +1.0682554e-04 </wgt>
<wgt id='morphing_basis_vector_3'> +1.2774748e-04 </wgt>
<wgt id='morphing_basis_vector_4'> +4.5102614e-05 </wgt>
<wgt id='morphing_basis_vector_5'> +6.7268350e-05 </wgt>
</rwgt>
</event>
<event>
 4      1 +1.0153100e-05 6.03865000e+02 7.81860800e-03 9.19340000e-02
        2 -1    0    0  501    0 +0.0000000000e+00 +0.0000000000e+00 +2.0355731630e+03 2.0355731630e+03 0.0000000000e+00 0.0000e+00 1.0000e+00
       -2 -1    0    0    0  501 -0.0000000000e+00 -0.0000000000e+00 -4.4785051787e+01 4.4785051787e+01 0.0000000000e+00 0.0000e+00 -1.0000e+00
      -13  1    1    2    0    0 -2.5080651371e+02 +1.2765426602e+02 +6.1857614269e+02 6.7958514055e+02 0.0000000000e+00 0.0000e+00 -1.0000e+00
       13  1    1    2    0    0 +2.5080651371e+02 -1.2765426602e+02 +1.3722119685e+03 1.4007730742e+03 0.0000000000e+00 0.0000e+00 1.0000e+00
<mgrwt>
<rscale>  0 0.60386505E+03</rscale>
<asrwt>0</asrwt>
<pdfrwt beam="1">  1        2 0.31316503E+00 0.60386505E+03</pdfrwt>
<pdfrwt beam="2">  1       -2 0.68900096E-02 0.60386505E+03</pdfrwt>
<totfact> 0.89506175E+02</totfact>
</mgrwt>
<rwgt>
<wgt id='morphing_basis_vector_1'> +2.7528586e-04 </wgt>
<wgt id='morphing_basis_vector_2'> +1.6210950e-04 </wgt>
<wgt id='morphing_basis_vector_3'> +2.1736421e-04 </wgt>
<wgt id='morphing_basis_vector_4'> +9.3103493e-05 </wgt>
<wgt id='morphing_basis_vector_5'> +1.4325830e-04 </wgt>
</rwgt>
</event>
<event>
 4      1 +1.0153100e-05 5.45383300e+02 7.81860800e-03 9.30358700e-02
        2 -1    0    0  501    0 +0.0000000000e+00 +0.0000000000e+00 +5.5305979472e+02 5.5305979472e+02 0.0000000000e+00 0.0000e+00 -1.0000e+00
       -2 -1    0    0    0  501 -0.0000000000e+00 -0.0000000000e+00 -1.3445335926e+02 1.3445335926e+02 0.0000000000e+00 0.0000e+00 1.0000e+00
      -13  1    1    2    0    0 -2.0877760878e+02 -1.5072776992e+02 +3.2243365746e+02 4.1263835742e+02 0.0000000000e+00 0.0000e+00 1.0000e+00
       13  1    1    2    0    0 +2.0877760878e+02 +1.5072776992e+02 +9.6172777996e+01 2.7487479656e+02 0.0000000000e+00 0.0000e+00 -1.0000e+00
<mgrwt>
<rscale>  0 0.54538334E+03</rscale>
<asrwt>0</asrwt>
<pdfrwt beam="1">  1        2 0.85086121E-01 0.54538334E+03</pdfrwt>
<pdfrwt beam="2">  1       -2 0.20685132E-01 0.54538334E+03</pdfrwt>
<totfact> 0.12394352E+03</totfact>
</mgrwt>
<rwgt>
<wgt id='morphing_basis_vector_1'> +2.1756935e-04 </wgt>
<wgt id='morphing_basis_vector_2'> +1.7319316e-04 </wgt>
<wgt id='morphing_basis_vector_3'> +1.4473259e-04 </wgt>
<wgt id='morphing_basis_vector_4'> +4.5437279e-05 </wgt>
<wgt id='morphing_basis_vector_5'> +8.4243719e-05 </wgt>
</rwgt>
</event>
<event>
 4      1 +1.0153100e-05 5.25528500e+02 7.81860800e-03 9.34438800e-02
        2 -1    0    0  501    0 +0.0000000000e+00 +0.0000000000e+00 +3.1006671516e+02 3.1006671516e+02 0.0000000000e+00 0.0000e+00 1.0000e+00
       -2 -1    0    0    0  501 -0.0000000000e+00 -0.0000000000e+00 -2.2267802135e+02 2.2267802135e+02 0.0000000000e+00 0.0000e+00 -1.0000e+00
      -13  1    1    2    0    0 +6.9037843553e+01 +4.9477560514e+01 -2.0837806558e+02 2.2502371220e+02 0.0000000000e+00 0.0000e+00 -1.0000e+00
       13  1    1    2    0    0 -6.9037843553e+01 -4.9477560514e+01 +2.9576675940e+02 3.0772102431e+02 0.0000000000e+00 0.0000e+00 1.0000e+00
<mgrwt>
<rscale>  0 0.52552847E+03</rscale>
<asrwt>0</asrwt>
<pdfrwt beam="1">  1        2 0.47702572E-01 0.52552847E+03</pdfrwt>
<pdfrwt beam="2">  1       -2 0.34258157E-01 0.52552847E+03</pdfrwt>
<totfact> 0.99674139E+02</totfact>
</mgrwt>
<rwgt>
<wgt id='morphing_basis_vector_1'> +1.7573508e-04 </wgt>
<wgt id='morphing_basis_vector_2'> +9.7245976e-05 </wgt>
<wgt id='morphing_basis_vector_3'> +1.3006900e-04 </wgt>
<wgt id='morphing_basis_vector_4'> +4.7455788e-05 </wgt>
<wgt id='morphing_basis_vector_5'> +6.8229192e-05 </wgt>
</rwgt>
</event>
<event>
 4      1 +1.0153100e-05 5.29069900e+02 7.81860800e-03 9.33697100e-02
        2 -1    0    0  501    0 +0.0000000000e+00 +0.0000000000e+00 +1.5921387064e+03 1.5921387064e+03 0.0000000000e+00 0.0000e+00 -1.0000e+00
       -2 -1    0    0    0  501 -0.0000000000e+00 -0.0000000000e+00 -4.3952660376e+01 4.3952660376e+01 0.0000000000e+00 0.0000e+00 1.0000e+00
      -13  1    1    2    0    0 +9.7044712760e+01 -1.9298960010e+02 +3.0189713927e+02 3.7122034524e+02 0.0000000000e+00 0.0000e+00 1.0000e+00
       13  1    1    2    0    0 -9.7044712760e+01 +1.9298960010e+02 +1.2462889068e+03 1.2648710216e+03 0.0000000000e+00 0.0000e+00 -1.0000e+00
<mgrwt>
<rscale>  0 0.52906987E+03</rscale>
<asrwt>0</asrwt>
<pdfrwt beam="1">  1        2 0.24494437E+00 0.52906987E+03</pdfrwt>
<pdfrwt beam="2">  1       -2 0.67619490E-02 0.52906987E+03</pdfrwt>
<totfact> 0.16125112E+03</totfact>
</mgrwt>
<rwgt>
<wgt id='morphing_basis_vector_1'> +1.7987833e-04 </wgt>
<wgt id='morphing_basis_vector_2'> +1.0084868e-04 </wgt>
<wgt id='morphing_basis_vector_3'> +1.3314355e-04 </wgt>
<wgt id='morphing_basis_vector_4'> +4.8865569e-05 </wgt>
<wgt id='morphing_basis_vector_5'> +7.0854153e-05 </wgt>
</rwgt>
</event>
<event>
 4      1 +1.0153100e-05 5.48176000e+02 7.81860800e-03 9.29799700e-02
        2 -1    0    0  501    0 +0.0000000000e+00 +0.0000000000e+00 +5.6311014938e+02 5.6311014938e+02 0.0000000000e+00 0.0000e+00 -1.0000e+00
       -2 -1    0    0    0  501 -0.0000000000e+00 -0.0000000000e+00 -1.3340948716e+02 1.3340948716e+02 0.0000000000e+00 0.0000e+00 1.0000e+00
      -13  1    1    2    0    0 -1.0595526568e+02 -1.7895746864e+02 -1.1988603927e+01 2.0831711531e+02 0.0000000000e+00 0.0000e+00 1.0000e+00
       13  1    1    2    0    0 +1.0595526568e+02 +1.7895746864e+02 +4.4168926615e+02 4.8820252123e+02 0.0000000000e+00 0.0000e+00 -1.0000e+00
<mgrwt>
<rscale>  0 0.54817602E+03</rscale>
<asrwt>0</asrwt>
<pdfrwt beam="1">  1        2 0.86632330E-01 0.54817602E+03</pdfrwt>
<pdfrwt beam="2">  1       -2 0.20524537E-01 0.54817602E+03</pdfrwt>
<totfact> 0.12298476E+03</totfact>
</mgrwt>
<rwgt>
<wgt id='morphing_basis_vector_1'> +2.0068675e-04 </wgt>
<wgt id='morphing_basis_vector_2'> +1.1275651e-04 </wgt>
<wgt id='morphing_basis_vector_3'> +1.5161858e-04 </wgt>
<wgt id='morphing_basis_vector_4'> +5.8564511e-05 </wgt>
<wgt id='morphing_basis_vector_5'> +8.6115717e-05 </wgt>
</rwgt>
</event>
<event>
 4      1 +1.0153100e-05 5.85342800e+02 7.81860800e-03 9.22681400e-02
        2 -1    0    0  501    0 +0.0000000000e+00 +0.0000000000e+00 +5.6408841224e+02 5.6408841224e+02 0.0000000000e+00 0.0000e+00 -1.0000e+00
       -2 -1    0    0    0  501 -0.0000000000e+00 -0.0000000000e+00 -1.5184949827e+02 1.5184949827e+02 0.0000000000e+00 0.0000e+00 1.0000e+00
      -13  1    1    2    0    0 +1.9035825790e+02 +1.9774969158e+02 +3.3034381854e+02 4.2949766626e+02 0.0000000000e+00 0.0000e+00 1.0000e+00
       13  1    1    2    0    0 -1.9035825790e+02 -1.9774969158e+02 +8.1895095433e+01 2.8644024425e+02 0.0000000000e+00 0.0000e+00 -1.0000e+00
<mgrwt>
<rscale>  0 0.58534278E+03</rscale>
<asrwt>0</asrwt>
<pdfrwt beam="1">  1        2 0.86782832E-01 0.58534278E+03</pdfrwt>
<pdfrwt beam="2">  1       -2 0.23361462E-01 0.58534278E+03</pdfrwt>
<totfact> 0.98786340E+02</totfact>
</mgrwt>
<rwgt>
<wgt id='morphing_basis_vector_1'> +2.7412844e-04 </wgt>
<wgt id='morphing_basis_vector_2'> +2.2410959e-04 </wgt>
<wgt id='morphing_basis_vector_3'> +1.9234747e-04 </wgt>
<wgt id='morphing_basis_vector_4'> +6.1720717e-05 </wgt>
<wgt id='morphing_basis_vector_5'> +1.2227668e-04 </wgt>
</rwgt>
</event>
<event>
 4      1 +1.0153100e-05 5.60366500e+02 7.81860800e-03 9.27400400e-02
        2 -1    0    0  501    0 +0.0000000000e+00 +0.0000000000e+00 +1.8822415825e+02 1.8822415825e+02 0.0000000000e+00 0.0000e+00 -1.0000e+00
       -2 -1    0    0    0  501 -0.0000000000e+00 -0.0000000000e+00 -4.1707008857e+02 4.1707008857e+02 0.0000000000e+00 0.0000e+00 1.0000e+00
      -13  1    1    2    0    0 +2.0601596284e+02 -1.8406443552e+02 -1.6486118412e+02 3.2171649538e+02 0.0000000000e+00 0.0000e+00 1.0000e+00
       13  1    1    2    0    0 -2.0601596284e+02 +1.8406443552e+02 -6.3984746195e+01 2.8357775144e+02 0.0000000000e+00 0.0000e+00 -1.0000e+00
<mgrwt>
<rscale>  0 0.56036655E+03</rscale>
<asrwt>0</asrwt>
<pdfrwt beam="1">  1        2 0.28957563E-01 0.56036655E+03</pdfrwt>
<pdfrwt beam="2">  1       -2 0.64164628E-01 0.56036655E+03</pdfrwt>
<totfact> 0.52527657E+02</totfact>
</mgrwt>
<rwgt>
<wgt id='morphing_basis_vector_1'> +2.1861081e-04 </wgt>
<wgt id='morphing_basis_vector_2'> +1.3228315e-04 </wgt>
<wgt id='morphing_basis_vector_3'> +1.6392878e-04 </wgt>
<wgt id='morphing_basis_vector_4'> +6.3144900e-05 </wgt>
<wgt id='morphing_basis_vector_5'> +9.7015439e-05 </wgt>
</rwgt>
</event>
<event>
 4      1 +1.0153100e-05 5.87069300e+02 7.81860800e-03 9.22364400e-02
        2 -1    0    0  501    0 +0.0000000000e+00 +0.0000000000e+00 +2.1362476951e+03 2.1362476951e+03 0.0000000000e+00 0.0000e+00 -1.0000e+00
       -2 -1    0    0    0  501 -0.0000000000e+00 -0.0000000000e+00 -4.0333612662e+01 4.0333612662e+01 0.0000000000e+00 0.0000e+00 1.0000e+00
      -13  1    1    2    0    0 +2.5624876606e+02 -1.0687171103e+02 +6.9471619190e+02 7.4814141712e+02 0.0000000000e+00 0.0000e+00 1.0000e+00
       13  1    1    2    0    0 -2.5624876606e+02 +1.0687171103e+02 +1.4011978906e+03 1.4284398907e+03 0.0000000000e+00 0.0000e+00 -1.0000e+00
<mgrwt>
<rscale>  0 0.58706929E+03</rscale>
<asrwt>0</asrwt>
<pdfrwt beam="1">  1        2 0.32865340E+00 0.58706929E+03</pdfrwt>
<pdfrwt beam="2">  1       -2 0.62051728E-02 0.58706929E+03</pdfrwt>
<totfact> 0.92570844E+02</totfact>
</mgrwt>
<rwgt>
<wgt id='morphing_basis_vector_1'> +2.5156677e-04 </wgt>
<wgt id='morphing_basis_vector_2'> +1.4821603e-04 </wgt>
<wgt id='morphing_basis_vector_3'> +1.9542572e-04 </wgt>
<wgt id='morphing_basis_vector_4'> +8.0888306e-05 </wgt>
<wgt id='morphing_basis_vector_5'> +1.2390535e-04 </wgt>
</rwgt>
</event>
<event>
 4      1 +1.0153100e-05 6.13066400e+02 7.81860800e-03 9.17726800e-02
        2 -1    0    0  501    0 +0.0000000000e+00 +0.0000000000e+00 +7.9714175597e+02 7.9714175597e+02 0.0000000000e+00 0.0000e+00 -1.0000e+00
       -2 -1    0    0    0  501 -0.0000000000e+00 -0.0000000000e+00 -1.1787441425e+02 1.1787441425e+02 0.0000000000e+00 0.0000e+00 1.0000e+00
      -13  1    1    2    0    0 -1.6979667454e+02 -1.7240844966e+00 -4.1263318111e+01 1.7474708745e+02 0.0000000000e+00 0.0000e+00 1.0000e+00
       13  1    1    2    0    0 +1.6979667454e+02 +1.7240844966e+00 +7.2053065983e+02 7.4026908277e+02 0.0000000000e+00 0.0000e+00 -1.0000e+00
<mgrwt>
<rscale>  0 0.61306645E+03</rscale>
<asrwt>0</asrwt>
<pdfrwt beam="1">  1        2 0.12263719E+00 0.61306645E+03</pdfrwt>
<pdfrwt beam="2">  1       -2 0.18134526E-01 0.61306645E+03</pdfrwt>
<totfact> 0.99270175E+02</totfact>
</mgrwt>
<rwgt>
<wgt id='morphing_basis_vector_1'> +2.8701998e-04 </wgt>
<wgt id='morphing_basis_vector_2'> +1.6395023e-04 </wgt>
<wgt id='morphing_basis_vector_3'> +2.3002380e-04 </wgt>
<wgt id='morphing_basis_vector_4'> +1.0197853e-04 </wgt>
<wgt id='morphing_basis_vector_5'> +1.5470586e-04 </wgt>
</rwgt>
</event>
<event>
 4      1 +1.0153100e-05 5.84577500e+02 7.81860800e-03 9.22822200e-02
        2 -1    0    0  501    0 +0.0000000000e+00 +0.0000000000e+00 +1.6032101984e+03 1.6032101984e+03 0.0000000000e+00 0.0000e+00 -1.0000e+00
       -2 -1    0    0    0  501 -0.0000000000e+00 -0.0000000000e+00 -5.3288536799e+01 5.3288536799e+01 0.0000000000e+00 0.0000e+00 1.0000e+00
      -13  1    1    2    0    0 +1.7531903233e+02 -1.8790810732e+02 +1.1695078358e+03 1.1974117078e+03 0.0000000000e+00 0.0000e+00 1.0000e+00
       13  1    1    2    0    0 -1.7531903233e+02 +1.8790810732e+02 +3.8041382578e+02 4.5908702741e+02 0.0000000000e+00 0.0000e+00 -1.0000e+00
<mgrwt>
<rscale>  0 0.58457754E+03</rscale>
<asrwt>0</asrwt>
<pdfrwt beam="1">  1        2 0.24664769E+00 0.58457754E+03</pdfrwt>
<pdfrwt beam="2">  1       -2 0.81982377E-02 0.58457754E+03</pdfrwt>
<totfact> 0.11793418E+03</totfact>
</mgrwt>
<rwgt>
<wgt id='morphing_basis_vector_1'> +2.8588792e-04 </wgt>
<wgt id='morphing_basis_vector_2'> +2.6319615e-04 </wgt>
<wgt id='morphing_basis_vector_3'> +1.9081045e-04 </wgt>
<wgt id='morphing_basis_vector_4'> +5.2059840e-05 </wgt>
<wgt id='morphing_basis_vector_5'> +1.2158902e-04 </wgt>
</rwgt>
</event>
<event>
 4      1 +1.0153100e-05 5.68753100e+02 7.81860800e-03 9.25787200e-02
        2 -1    0    0  501    0 +0.0000000000e+00 +0.0000000000e+00 +1.3880199379e+03 1.3880199379e+03 0.0000000000e+00 0.0000e+00 1.0000e+00
       -2 -1    0    0    0  501 -0.0000000000e+00 -0.0000000000e+00 -5.8262874374e+01 5.8262874374e+01 0.0000000000e+00 0.0000e+00 -1.0000e+00
      -13  1    1    2    0    0 +2.8115353820e+02 -4.2477531274e+01 +6.5397705800e+02 7.1311825463e+02 0.0000000000e+00 0.0000e+00 -1.0000e+00
       13  1    1    2    0    0 -2.8115353820e+02 +4.2477531274e+01 +6.7578000549e+02 7.3316455761e+02 0.0000000000e+00 0.0000e+00 1.0000e+00
<mgrwt>
<rscale>  0 0.56875313E+03</rscale>
<asrwt>0</asrwt>
<pdfrwt beam="1">  1        2 0.21354150E+00 0.56875313E+03</pdfrwt>
<pdfrwt beam="2">  1       -2 0.89635202E-02 0.56875313E+03</pdfrwt>
<totfact> 0.13480482E+03</totfact>
</mgrwt>
<rwgt>
<wgt id='morphing_basis_vector_1'> +2.3231601e-04 </wgt>
<wgt id='morphing_basis_vector_2'> +1.4879720e-04 </wgt>
<wgt id='morphing_basis_vector_3'> +1.7300555e-04 </wgt>
<wgt id='morphing_basis_vector_4'> +6.5850941e-05 </wgt>
<wgt id='morphing_basis_vector_5'> +1.0503111e-04 </wgt>
</rwgt>
</event>
<event>
 4      1 +1.0153100e-05 6.08722000e+02 7.81860800e-03 9.18484700e-02
        2 -1    0    0  501    0 +0.0000000000e+00 +0.0000000000e+00 +1.9170006885e+02 1.9170006885e+02 0.0000000000e+00 0.0000e+00 -1.0000e+00
       -2 -1    0    0    0  501 -0.0000000000e+00 -0.0000000000e+00 -4.8323197689e+02 4.8323197689e+02 0.0000000000e+00 0.0000e+00 1.0000e+00
      -13  1    1    2    0    0 +4.3428392538e+01 +1.0335880025e+02 -4.5950358080e+02 4.7298267160e+02 0.0000000000e+00 0.0000e+00 1.0000e+00
       13  1    1    2    0    0 -4.3428392538e+01 -1.0335880025e+02 +1.6797167275e+02 2.0194937414e+02 0.0000000000e+00 0.0000e+00 -1.0000e+00
<mgrwt>
<rscale>  0 0.60872195E+03</rscale>
<asrwt>0</asrwt>
<pdfrwt beam="1">  1        2 0.29492318E-01 0.60872195E+03</pdfrwt>
<pdfrwt beam="2">  1       -2 0.74343381E-01 0.60872195E+03</pdfrwt>
<totfact> 0.37572978E+02</totfact>
</mgrwt>
<rwgt>
<wgt id='morphing_basis_vector_1'> +2.8033767e-04 </wgt>
<wgt id='morphing_basis_vector_2'> +1.5970928e-04 </wgt>
<wgt id='morphing_basis_vector_3'> +2.2393747e-04 </wgt>
<wgt id='morphing_basis_vector_4'> +9.8581389e-05 </wgt>
<wgt id='morphing_basis_vector_5'> +1.4922054e-04 </wgt>
</rwgt>
</event>
<event>
 4      1 +1.0153100e-05 5.29888400e+02 7.81860800e-03 9.33526500e-02
        2 -1    0    0  501    0 +0.0000000000e+00 +0.0000000000e+00 +8.5092779708e+01 8.5092779708e+01 0.0000000000e+00 0.0000e+00 -1.0000e+00
       -2 -1    0    0    0  501 -0.0000000000e+00 -0.0000000000e+00 -8.2492815110e+02 8.2492815110e+02 0.0000000000e+00 0.0000e+00 1.0000e+00
      -13  1    1    2    0    0 -1.2921309185e+02 -2.2135856739e+02 -4.8512051313e+02 5.4866888988e+02 0.0000000000e+00 0.0000e+00 1.0000e+00
       13  1    1    2    0    0 +1.2921309185e+02 +2.2135856739e+02 -2.5471485826e+02 3.6135204092e+02 0.0000000000e+00 0.0000e+00 -1.0000e+00
<mgrwt>
<rscale>  0 0.52988840E+03</rscale>
<asrwt>0</asrwt>
<pdfrwt beam="1">  1        2 0.13091197E-01 0.52988840E+03</pdfrwt>
<pdfrwt beam="2">  1       -2 0.12691202E+00 0.52988840E+03</pdfrwt>
<totfact> 0.27730073E+02</totfact>
</mgrwt>
<rwgt>
<wgt id='morphing_basis_vector_1'> +1.8253931e-04 </wgt>
<wgt id='morphing_basis_vector_2'> +1.0695025e-04 </wgt>
<wgt id='morphing_basis_vector_3'> +1.3340479e-04 </wgt>
<wgt id='morphing_basis_vector_4'> +4.8313021e-05 </wgt>
<wgt id='morphing_basis_vector_5'> +7.1520678e-05 </wgt>
</rwgt>
</event>
<event>
 4      1 +1.0153100e-05 6.10014300e+02 7.81860800e-03 9.18258600e-02
        2 -1    0    0  501    0 +0.0000000000e+00 +0.0000000000e+00 +1.0730243009e+03 1.0730243009e+03 0.0000000000e+00 0.0000e+00 -1.0000e+00
       -2 -1    0    0    0  501 -0.0000000000e+00 -0.0000000000e+00 -8.6698293744e+01 8.6698293744e+01 0.0000000000e+00 0.0000e+00 1.0000e+00
      -13  1    1    2    0    0 +2.5225071727e+02 +7.8382380566e+01 +2.0324600524e+02 3.3329140492e+02 0.0000000000e+00 0.0000e+00 1.0000e+00
       13  1    1    2    0    0 -2.5225071727e+02 -7.8382380566e+01 +7.8308000191e+02 8.2643118972e+02 0.0000000000e+00 0.0000e+00 -1.0000e+00
<mgrwt>
<rscale>  0 0.61001435E+03</rscale>
<asrwt>0</asrwt>
<pdfrwt beam="1">  1        2 0.16508065E+00 0.61001435E+03</pdfrwt>
<pdfrwt beam="2">  1       -2 0.13338200E-01 0.61001435E+03</pdfrwt>
<totfact> 0.10891589E+03</totfact>
</mgrwt>
<rwgt>
<wgt id='morphing_basis_vector_1'> +2.8344446e-04 </wgt>
<wgt id='morphing_basis_vector_2'> +1.6447032e-04 </wgt>
<wgt id='morphing_basis_vector_3'> +2.2579848e-04 </wgt>
<wgt id='morphing_basis_vector_4'> +9.8675006e-05 </wgt>
<wgt id='morphing_basis_vector_5'> +1.5083966e-04 </wgt>
</rwgt>
</event>
<event>
 4      1 +1.0153100e-05 5.56627100e+02 7.81860800e-03 9.28129500e-02
        2 -1    0    0  501    0 +0.0000000000e+00 +0.0000000000e+00 +1.0142806418e+03 1.0142806418e+03 0.0000000000e+00 0.0000e+00 -1.0000e+00
       -2 -1    0    0    0  501 -0.0000000000e+00 -0.0000000000e+00 -7.6367851220e+01 7.6367851220e+01 0.0000000000e+00 0.0000e+00 1.0000e+00
      -13  1    1    2    0    0 -2.2711967417e+02 +7.8313888073e+00 +1.5414818142e+02 2.7460214653e+02 0.0000000000e+00 0.0000e+00 1.0000e+00
       13  1    1    2    0    0 +2.2711967417e+02 -7.8313888073e+00 +7.8376460920e+02 8.1604634652e+02 0.0000000000e+00 0.0000e+00 -1.0000e+00
<mgrwt>
<rscale>  0 0.55662710E+03</rscale>
<asrwt>0</asrwt>
<pdfrwt beam="1">  1        2 0.15604317E+00 0.55662710E+03</pdfrwt>
<pdfrwt beam="2">  1       -2 0.11748901E-01 0.55662710E+03</pdfrwt>
<totfact> 0.14475595E+03</totfact>
</mgrwt>
<rwgt>
<wgt id='morphing_basis_vector_1'> +2.1079922e-04 </wgt>
<wgt id='morphing_basis_vector_2'> +1.1932368e-04 </wgt>
<wgt id='morphing_basis_vector_3'> +1.6036883e-04 </wgt>
<wgt id='morphing_basis_vector_4'> +6.3098171e-05 </wgt>
<wgt id='morphing_basis_vector_5'> +9.3536242e-05 </wgt>
</rwgt>
</event>
<event>
 4      1 +1.0153100e-05 5.21012000e+02 7.81860800e-03 9.35393800e-02
        2 -1    0    0  501    0 +0.0000000000e+00 +0.0000000000e+00 +8.1172460194e+02 8.1172460194e+02 0.0000000000e+00 0.0000e+00 1.0000e+00
       -2 -1    0    0    0  501 -0.0000000000e+00 -0.0000000000e+00 -8.3603926976e+01 8.3603926976e+01 0.0000000000e+00 0.0000e+00 -1.0000e+00
      -13  1    1    2    0    0 +1.2261340740e+02 -5.9273021551e+01 -1.7557590391e+01 1.3731572284e+02 0.0000000000e+00 0.0000e+00 -1.0000e+00
       13  1    1    2    0    0 -1.2261340740e+02 +5.9273021551e+01 +7.4567826536e+02 7.5801280608e+02 0.0000000000e+00 0.0000e+00 1.0000e+00
<mgrwt>
<rscale>  0 0.52101196E+03</rscale>
<asrwt>0</asrwt>
<pdfrwt beam="1">  1        2 0.12488070E+00 0.52101196E+03</pdfrwt>
<pdfrwt beam="2">  1       -2 0.12862143E-01 0.52101196E+03</pdfrwt>
<totfact> 0.16910593E+03</totfact>
</mgrwt>
<rwgt>
<wgt id='morphing_basis_vector_1'> +1.7117031e-04 </wgt>
<wgt id='morphing_basis_vector_2'> +9.4662894e-05 </wgt>
<wgt id='morphing_basis_vector_3'> +1.2606504e-04 </wgt>
<wgt id='morphing_basis_vector_4'> +4.5393552e-05 </wgt>
<wgt id='morphing_basis_vector_5'> +6.4996181e-05 </wgt>
</rwgt>
</event>
<event>
 4      1 +1.0153100e-05 5.96318500e+02 7.81860800e-03 9.20685900e-02
        2 -1    0    0  501    0 +0.0000000000e+00 +0.0000000000e+00 +2.0918114450e+02 2.0918114450e+02 0.0000000000e+00 0.0000e+00 -1.0000e+00
       -2 -1    0    0    0  501 -0.0000000000e+00 -0.0000000000e+00 -4.2498537612e+02 4.2498537612e+02 0.0000000000e+00 0.0000e+00 1.0000e+00
      -13  1    1    2    0    0 -1.6724438984e+02 -7.9481265155e+01 -3.5642420714e+02 4.0165429523e+02 0.0000000000e+00 0.0000e+00 1.0000e+00
       13  1    1    2    0    0 +1.6724438984e+02 +7.9481265155e+01 +1.4061997552e+02 2.3251222540e+02 0.0000000000e+00 0.0000e+00 -1.0000e+00
<mgrwt>
<rscale>  0 0.59631846E+03</rscale>
<asrwt>0</asrwt>
<pdfrwt beam="1">  1        2 0.32181715E-01 0.59631846E+03</pdfrwt>
<pdfrwt beam="2">  1       -2 0.65382364E-01 0.59631846E+03</pdfrwt>
<totfact> 0.44701054E+02</totfact>
</mgrwt>
<rwgt>
<wgt id='morphing_basis_vector_1'> +2.6227985e-04 </wgt>
<wgt id='morphing_basis_vector_2'> +1.4911904e-04 </wgt>
<wgt id='morphing_basis_vector_3'> +2.0727273e-04 </wgt>
<wgt id='morphing_basis_vector_4'> +8.9075825e-05 </wgt>
<wgt id='morphing_basis_vector_5'> +1.3430742e-04 </wgt>
</rwgt>
</event>
<event>
 4      1 +1.0153100e-05 5.56630100e+02 7.81860800e-03 9.28128900e-02
        2 -1    0    0  501    0 +0.0000000000e+00 +0.0000000000e+00 +4.5219143722e+02 4.5219143722e+02 0.0000000000e+00 0.0000e+00 -1.0000e+00
       -2 -1    0    0    0  501 -0.0000000000e+00 -0.0000000000e+00 -1.7129752296e+02 1.7129752296e+02 0.0000000000e+00 0.0000e+00 1.0000e+00
      -13  1    1    2    0    0 +1.4506017734e+02 +7.4391403798e+01 -1.1221932867e+02 1.9791339959e+02 0.0000000000e+00 0.0000e+00 1.0000e+00
       13  1    1    2    0    0 -1.4506017734e+02 -7.4391403798e+01 +3.9311324293e+02 4.2557556059e+02 0.0000000000e+00 0.0000e+00 -1.0000e+00
<mgrwt>
<rscale>  0 0.55663012E+03</rscale>
<asrwt>0</asrwt>
<pdfrwt beam="1">  1        2 0.69567913E-01 0.55663012E+03</pdfrwt>
<pdfrwt beam="2">  1       -2 0.26353465E-01 0.55663012E+03</pdfrwt>
<totfact> 0.10348759E+03</totfact>
</mgrwt>
<rwgt>
<wgt id='morphing_basis_vector_1'> +2.1033174e-04 </wgt>
<wgt id='morphing_basis_vector_2'> +1.1786297e-04 </wgt>
<wgt id='morphing_basis_vector_3'> +1.6044477e-04 </wgt>
<wgt id='morphing_basis_vector_4'> +6.3392737e-05 </wgt>
<wgt id='morphing_basis_vector_5'> +9.3529417e-05 </wgt>
</rwgt>
</event>
<event>
 4      1 +1.0153100e-05 5.53399300e+02 7.81860800e-03 9.28763600e-02
        2 -1    0    0  501    0 +0.0000000000e+00 +0.0000000000e+00 +4.8597986658e+02 4.8597986658e+02 0.0000000000e+00 0.0000e+00 -1.0000e+00
       -2 -1    0    0    0  501 -0.0000000000e+00 -0.0000000000e+00 -1.5754295586e+02 1.5754295586e+02 0.0000000000e+00 0.0000e+00 1.0000e+00
      -13  1    1    2    0    0 -1.7510915675e+02 +2.0110835450e+02 +7.8333039365e+01 2.7792778214e+02 0.0000000000e+00 0.0000e+00 1.0000e+00
       13  1    1    2    0    0 +1.7510915675e+02 -2.0110835450e+02 +2.5010387135e+02 3.6559504030e+02 0.0000000000e+00 0.0000e+00 -1.0000e+00
<mgrwt>
<rscale>  0 0.55339933E+03</rscale>
<asrwt>0</asrwt>
<pdfrwt beam="1">  1        2 0.74766133E-01 0.55339933E+03</pdfrwt>
<pdfrwt beam="2">  1       -2 0.24237378E-01 0.55339933E+03</pdfrwt>
<totfact> 0.11007423E+03</totfact>
</mgrwt>
<rwgt>
<wgt id='morphing_basis_vector_1'> +2.0889894e-04 </wgt>
<wgt id='morphing_basis_vector_2'> +1.2302180e-04 </wgt>
<wgt id='morphing_basis_vector_3'> +1.5664015e-04 </wgt>
<wgt id='morphing_basis_vector_4'> +6.0112436e-05 </wgt>
<wgt id='morphing_basis_vector_5'> +9.0695647e-05 </wgt>
</rwgt>
</event>
<event>
 4      1 +1.0153100e-05 6.11680600e+02 7.81860800e-03 9.17967800e-02
        2 -1    0    0  501    0 +0.0000000000e+00 +0.0000000000e+00 +1.2383169107e+03 1.2383169107e+03 0.0000000000e+00 0.0000e+00 -1.0000e+00
       -2 -1    0    0    0  501 -0.0000000000e+00 -0.0000000000e+00 -7.5536644588e+01 7.5536644588e+01 0.0000000000e+00 0.0000e+00 1.0000e+00
      -13  1    1    2    0    0 -1.0450234591e+02 -2.8321544290e+02 +4.7601889151e+02 5.6367163532e+02 0.0000000000e+00 0.0000e+00 1.0000e+00
       13  1    1    2    0    0 +1.0450234591e+02 +2.8321544290e+02 +6.8676137465e+02 7.5018192000e+02 0.0000000000e+00 0.0000e+00 -1.0000e+00
<mgrwt>
<rscale>  0 0.61168065E+03</rscale>
<asrwt>0</asrwt>
<pdfrwt beam="1">  1        2 0.19051028E+00 0.61168065E+03</pdfrwt>
<pdfrwt beam="2">  1       -2 0.11621023E-01 0.61168065E+03</pdfrwt>
<totfact> 0.10866759E+03</totfact>
</mgrwt>
<rwgt>
<wgt id='morphing_basis_vector_1'> +2.9013922e-04 </wgt>
<wgt id='morphing_basis_vector_2'> +1.7890203e-04 </wgt>
<wgt id='morphing_basis_vector_3'> +2.2839853e-04 </wgt>
<wgt id='morphing_basis_vector_4'> +9.6634665e-05 </wgt>
<wgt id='morphing_basis_vector_5'> +1.5294622e-04 </wgt>
</rwgt>
</event>
<event>
 4      1 +1.0153100e-05 5.43840500e+02 7.81860800e-03 9.30669100e-02
        2 -1    0    0  501    0 +0.0000000000e+00 +0.0000000000e+00 +9.4045715303e+02 9.4045715303e+02 0.0000000000e+00 0.0000e+00 -1.0000e+00
       -2 -1    0    0    0  501 -0.0000000000e+00 -0.0000000000e+00 -7.8622007770e+01 7.8622007770e+01 0.0000000000e+00 0.0000e+00 1.0000e+00
      -13  1    1    2    0    0 -2.2078005846e+02 +3.7309498991e+01 +1.4180392630e+02 2.6503619836e+02 0.0000000000e+00 0.0000e+00 1.0000e+00
       13  1    1    2    0    0 +2.2078005846e+02 -3.7309498991e+01 +7.2003121895e+02 7.5404296243e+02 0.0000000000e+00 0.0000e+00 -1.0000e+00
<mgrwt>
<rscale>  0 0.54384053E+03</rscale>
<asrwt>0</asrwt>
<pdfrwt beam="1">  1        2 0.14468571E+00 0.54384053E+03</pdfrwt>
<pdfrwt beam="2">  1       -2 0.12095694E-01 0.54384053E+03</pdfrwt>
<totfact> 0.15359982E+03</totfact>
</mgrwt>
<rwgt>
<wgt id='morphing_basis_vector_1'> +1.9598220e-04 </wgt>
<wgt id='morphing_basis_vector_2'> +1.1052033e-04 </wgt>
<wgt id='morphing_basis_vector_3'> +1.4721896e-04 </wgt>
<wgt id='morphing_basis_vector_4'> +5.6142893e-05 </wgt>
<wgt id='morphing_basis_vector_5'> +8.2477735e-05 </wgt>
</rwgt>
</event>
<event>
 4      1 +1.0153100e-05 5.44612900e+02 7.81860800e-03 9.30513500e-02
        2 -1    0    0  501    0 +0.0000000000e+00 +0.0000000000e+00 +8.6066917777e+02 8.6066917777e+02 0.0000000000e+00 0.0000e+00 -1.0000e+00
       -2 -1    0    0    0  501 -0.0000000000e+00 -0.0000000000e+00 -8.6154832390e+01 8.6154832390e+01 0.0000000000e+00 0.0000e+00 1.0000e+00
      -13  1    1    2    0    0 -2.3833716646e+02 +8.0267456160e+01 +2.0572187379e+02 3.2491377132e+02 0.0000000000e+00 0.0000e+00 1.0000e+00
       13  1    1    2    0    0 +2.3833716646e+02 -8.0267456160e+01 +5.6879247160e+02 6.2191023885e+02 0.0000000000e+00 0.0000e+00 -1.0000e+00
<mgrwt>
<rscale>  0 0.54461292E+03</rscale>
<asrwt>0</asrwt>
<pdfrwt beam="1">  1        2 0.13241064E+00 0.54461292E+03</pdfrwt>
<pdfrwt beam="2">  1       -2 0.13254590E-01 0.54461292E+03</pdfrwt>
<totfact> 0.14945614E+03</totfact>
</mgrwt>
<rwgt>
<wgt id='morphing_basis_vector_1'> +1.9771846e-04 </wgt>
<wgt id='morphing_basis_vector_2'> +1.1372627e-04 </wgt>
<wgt id='morphing_basis_vector_3'> +1.4780920e-04 </wgt>
<wgt id='morphing_basis_vector_4'> +5.6046196e-05 </wgt>
<wgt id='morphing_basis_vector_5'> +8.3140181e-05 </wgt>
</rwgt>
</event>
<event>
 4      1 +1.0153100e-05 5.64827500e+02 7.81860800e-03 9.26538600e-02
        2 -1    0    0  501    0 +0.0000000000e+00 +0.0000000000e+00 +2.6884898649e+03 2.6884898649e+03 0.0000000000e+00 0.0000e+00 -1.0000e+00
       -2 -1    0    0    0  501 -0.0000000000e+00 -0.0000000000e+00 -2.9666292968e+01 2.9666292968e+01 0.0000000000e+00 0.0000e+00 1.0000e+00
      -13  1    1    2    0    0 +2.7660919658e+02 -5.5151944953e+01 +1.2608219401e+03 1.2919854292e+03 0.0000000000e+00 0.0000e+00 1.0000e+00
       13  1    1    2    0    0 -2.7660919658e+02 +5.5151944953e+01 +1.3980016318e+03 1.4261707286e+03 0.0000000000e+00 0.0000e+00 -1.0000e+00
<mgrwt>
<rscale>  0 0.56482751E+03</rscale>
<asrwt>0</asrwt>
<pdfrwt beam="1">  1        2 0.41361363E+00 0.56482751E+03</pdfrwt>
<pdfrwt beam="2">  1       -2 0.45640472E-02 0.56482751E+03</pdfrwt>
<totfact> 0.71262978E+02</totfact>
</mgrwt>
<rwgt>
<wgt id='morphing_basis_vector_1'> +2.2638747e-04 </wgt>
<wgt id='morphing_basis_vector_2'> +1.4270085e-04 </wgt>
<wgt id='morphing_basis_vector_3'> +1.6861318e-04 </wgt>
<wgt id='morphing_basis_vector_4'> +6.4225403e-05 </wgt>
<wgt id='morphing_basis_vector_5'> +1.0123689e-04 </wgt>
</rwgt>
</event>
<event>
 4      1 +1.0153100e-05 5.74226100e+02 7.81860800e-03 9.24750300e-02
        2 -1    0    0  501    0 +0.0000000000e+00 +0.0000000000e+00 +8.5500795149e+02 8.5500795149e+02 0.0000000000e+00 0.0000e+00 -1.0000e+00
       -2 -1    0    0    0  501 -0.0000000000e+00 -0.0000000000e+00 -9.6413014289e+01 9.6413014289e+01 0.0000000000e+00 0.0000e+00 1.0000e+00
      -13  1    1    2    0    0 +3.9135254212e+01 -2.2472541854e+02 +9.0407536942e+01 2.4537034172e+02 0.0000000000e+00 0.0000e+00 1.0000e+00
       13  1    1    2    0    0 -3.9135254212e+01 +2.2472541854e+02 +6.6818740025e+02 7.0605062405e+02 0.0000000000e+00 0.0000e+00 -1.0000e+00
<mgrwt>
<rscale>  0 0.57422607E+03</rscale>
<asrwt>0</asrwt>
<pdfrwt beam="1">  1        2 0.13153968E+00 0.57422607E+03</pdfrwt>
<pdfrwt beam="2">  1       -2 0.14832772E-01 0.57422607E+03</pdfrwt>
<totfact> 0.12583546E+03</totfact>
</mgrwt>
<rwgt>
<wgt id='morphing_basis_vector_1'> +2.3262204e-04 </wgt>
<wgt id='morphing_basis_vector_2'> +1.3222662e-04 </wgt>
<wgt id='morphing_basis_vector_3'> +1.7999465e-04 </wgt>
<wgt id='morphing_basis_vector_4'> +7.3720288e-05 </wgt>
<wgt id='morphing_basis_vector_5'> +1.1036392e-04 </wgt>
</rwgt>
</event>
<event>
 4      1 +1.0153100e-05 5.59105600e+02 7.81860800e-03 9.27645600e-02
        2 -1    0    0  501    0 +0.0000000000e+00 +0.0000000000e+00 +3.2684598297e+02 3.2684598297e+02 0.0000000000e+00 0.0000e+00 -1.0000e+00
       -2 -1    0    0    0  501 -0.0000000000e+00 -0.0000000000e+00 -2.3910269234e+02 2.3910269234e+02 0.0000000000e+00 0.0000e+00 1.0000e+00
      -13  1    1    2    0    0 -4.0874489514e+01 -4.7536215310e+01 -2.3189503027e+02 2.4022015054e+02 0.0000000000e+00 0.0000e+00 1.0000e+00
       13  1    1    2    0    0 +4.0874489514e+01 +4.7536215310e+01 +3.1963832091e+02 3.2572852477e+02 0.0000000000e+00 0.0000e+00 -1.0000e+00
<mgrwt>
<rscale>  0 0.55910555E+03</rscale>
<asrwt>0</asrwt>
<pdfrwt beam="1">  1        2 0.50283998E-01 0.55910555E+03</pdfrwt>
<pdfrwt beam="2">  1       -2 0.36785029E-01 0.55910555E+03</pdfrwt>
<totfact> 0.82632162E+02</totfact>
</mgrwt>
<rwgt>
<wgt id='morphing_basis_vector_1'> +2.1321742e-04 </wgt>
<wgt id='morphing_basis_vector_2'> +1.1936677e-04 </wgt>
<wgt id='morphing_basis_vector_3'> +1.6310366e-04 </wgt>
<wgt id='morphing_basis_vector_4'> +6.4867785e-05 </wgt>
<wgt id='morphing_basis_vector_5'> +9.5780450e-05 </wgt>
</rwgt>
</event>
<event>
 4      1 +1.0153100e-05 5.64516900e+02 7.81860800e-03 9.26598400e-02
        2 -1    0    0  501    0 +0.0000000000e+00 +0.0000000000e+00 +3.7660408771e+02 3.7660408771e+02 0.0000000000e+00 0.0000e+00 -1.0000e+00
       -2 -1    0    0    0  501 -0.0000000000e+00 -0.0000000000e+00 -2.1154795031e+02 2.1154795031e+02 0.0000000000e+00 0.0000e+00 1.0000e+00
      -13  1    1    2    0    0 +2.2388984595e+02 -1.7167527575e+02 +7.3764020044e+01 2.9161651887e+02 0.0000000000e+00 0.0000e+00 1.0000e+00
       13  1    1    2    0    0 -2.2388984595e+02 +1.7167527575e+02 +9.1292117361e+01 2.9653551915e+02 0.0000000000e+00 0.0000e+00 -1.0000e+00
<mgrwt>
<rscale>  0 0.56451687E+03</rscale>
<asrwt>0</asrwt>
<pdfrwt beam="1">  1        2 0.57939090E-01 0.56451687E+03</pdfrwt>
<pdfrwt beam="2">  1       -2 0.32545839E-01 0.56451687E+03</pdfrwt>
<totfact> 0.87867796E+02</totfact>
</mgrwt>
<rwgt>
<wgt id='morphing_basis_vector_1'> +2.2647901e-04 </wgt>
<wgt id='morphing_basis_vector_2'> +1.4394997e-04 </wgt>
<wgt id='morphing_basis_vector_3'> +1.6820328e-04 </wgt>
<wgt id='morphing_basis_vector_4'> +6.3736128e-05 </wgt>
<wgt id='morphing_basis_vector_5'> +1.0095033e-04 </wgt>
</rwgt>
</event>
<event>
 4      1 +1.0153100e-05 5.32166400e+02 7.81860800e-03 9.33053600e-02
        2 -1    0    0  501    0 +0.0000000000e+00 +0.0000000000e+00 +3.4208340507e+02 3.4208340507e+02 0.0000000000e+00 0.0000e+00 1.0000e+00
       -2 -1    0    0    0  501 -0.0000000000e+00 -0.0000000000e+00 -2.0696786287e+02 2.0696786287e+02 0.0000000000e+00 0.0000e+00 -1.0000e+00
      -13  1    1    2    0    0 -1.3480818777e+02 +1.0578598163e+02 -1.4246006914e+02 2.2284252892e+02 0.0000000000e+00 0.0000e+00 -1.0000e+00
       13  1    1    2    0    0 +1.3480818777e+02 -1.0578598163e+02 +2.7757561134e+02 3.2620873901e+02 0.0000000000e+00 0.0000e+00 1.0000e+00
<mgrwt>
<rscale>  0 0.53216641E+03</rscale>
<asrwt>0</asrwt>
<pdfrwt beam="1">  1        2 0.52628216E-01 0.53216641E+03</pdfrwt>
<pdfrwt beam="2">  1       -2 0.31841210E-01 0.53216641E+03</pdfrwt>
<totfact> 0.10175077E+03</totfact>
</mgrwt>
<rwgt>
<wgt id='morphing_basis_vector_1'> +1.8279396e-04 </wgt>
<wgt id='morphing_basis_vector_2'> +1.0167486e-04 </wgt>
<wgt id='morphing_basis_vector_3'> +1.3609517e-04 </wgt>
<wgt id='morphing_basis_vector_4'> +5.0524243e-05 </wgt>
<wgt id='morphing_basis_vector_5'> +7.3181318e-05 </wgt>
</rwgt>
</event>
<event>
 4      1 +1.0153100e-05 5.26159500e+02 7.81860800e-03 9.34306100e-02
        2 -1    0    0  501    0 +0.0000000000e+00 +0.0000000000e+00 +2.5727445605e+02 2.5727445605e+02 0.0000000000e+00 0.0000e+00 1.0000e+00
       -2 -1    0    0    0  501 -0.0000000000e+00 -0.0000000000e+00 -2.6901600249e+02 2.6901600249e+02 0.0000000000e+00 0.0000e+00 -1.0000e+00
      -13  1    1    2    0    0 +9.8668774850e+01 +2.2067699958e+02 +9.7967790192e+01 2.6082858967e+02 0.0000000000e+00 0.0000e+00 1.0000e+00
       13  1    1    2    0    0 -9.8668774850e+01 -2.2067699958e+02 -1.0970933663e+02 2.6546186886e+02 0.0000000000e+00 0.0000e+00 -1.0000e+00
<mgrwt>
<rscale>  0 0.52615947E+03</rscale>
<asrwt>0</asrwt>
<pdfrwt beam="1">  1        2 0.39580686E-01 0.52615947E+03</pdfrwt>
<pdfrwt beam="2">  1       -2 0.41387077E-01 0.52615947E+03</pdfrwt>
<totfact> 0.87002604E+02</totfact>
</mgrwt>
<rwgt>
<wgt id='morphing_basis_vector_1'> +1.9867069e-04 </wgt>
<wgt id='morphing_basis_vector_2'> +1.6684769e-04 </wgt>
<wgt id='morphing_basis_vector_3'> +1.2419764e-04 </wgt>
<wgt id='morphing_basis_vector_4'> +3.6465395e-05 </wgt>
<wgt id='morphing_basis_vector_5'> +6.9382820e-05 </wgt>
</rwgt>
</event>
<event>
 4      1 +1.0153100e-05 5.43849600e+02 7.81860800e-03 9.30667200e-02
        2 -1    0    0  501    0 +0.0000000000e+00 +0.0000000000e+00 +5.5699842485e+02 5.5699842485e+02 0.0000000000e+00 0.0000e+00 1.0000e+00
       -2 -1    0    0    0  501 -0.0000000000e+00 -0.0000000000e+00 -1.3275278484e+02 1.3275278484e+02 0.0000000000e+00 0.0000e+00 -1.0000e+00
      -13  1    1    2    0    0 +1.1920372749e+02 +1.8675142740e+02 +1.2163286939e+01 2.2188638947e+02 0.0000000000e+00 0.0000e+00 -1.0000e+00
       13  1    1    2    0    0 -1.1920372749e+02 -1.8675142740e+02 +4.1208235307e+02 4.6786482022e+02 0.0000000000e+00 0.0000e+00 1.0000e+00
<mgrwt>
<rscale>  0 0.54384958E+03</rscale>
<asrwt>0</asrwt>
<pdfrwt beam="1">  1        2 0.85692064E-01 0.54384958E+03</pdfrwt>
<pdfrwt beam="2">  1       -2 0.20423506E-01 0.54384958E+03</pdfrwt>
<totfact> 0.12556640E+03</totfact>
</mgrwt>
<rwgt>
<wgt id='morphing_basis_vector_1'> +1.9595377e-04 </wgt>
<wgt id='morphing_basis_vector_2'> +1.1040643e-04 </wgt>
<wgt id='morphing_basis_vector_3'> +1.4723604e-04 </wgt>
<wgt id='morphing_basis_vector_4'> +5.6169788e-05 </wgt>
<wgt id='morphing_basis_vector_5'> +8.2484274e-05 </wgt>
</rwgt>
</event>
<event>
 4      1 +1.0153100e-05 5.23233900e+02 7.81860800e-03 9.34922700e-02
        2 -1    0    0  501    0 +0.0000000000e+00 +0.0000000000e+00 +8.5551907176e+02 8.5551907176e+02 0.0000000000e+00 0.0000e+00 1.0000e+00
       -2 -1    0    0    0  501 -0.0000000000e+00 -0.0000000000e+00 -8.0002231517e+01 8.0002231517e+01 0.0000000000e+00 0.0000e+00 -1.0000e+00
      -13  1    1    2    0    0 +1.4302403314e+02 +8.0186934048e+01 +2.3270530991e+01 1.6561200457e+02 0.0000000000e+00 0.0000e+00 -1.0000e+00
       13  1    1    2    0    0 -1.4302403314e+02 -8.0186934048e+01 +7.5224630925e+02 7.6990929870e+02 0.0000000000e+00 0.0000e+00 1.0000e+00
<mgrwt>
<rscale>  0 0.52323392E+03</rscale>
<asrwt>0</asrwt>
<pdfrwt beam="1">  1        2 0.13161831E+00 0.52323392E+03</pdfrwt>
<pdfrwt beam="2">  1       -2 0.12308036E-01 0.52323392E+03</pdfrwt>
<totfact> 0.16949050E+03</totfact>
</mgrwt>
<rwgt>
<wgt id='morphing_basis_vector_1'> +1.7347864e-04 </wgt>
<wgt id='morphing_basis_vector_2'> +9.6159172e-05 </wgt>
<wgt id='morphing_basis_vector_3'> +1.2799954e-04 </wgt>
<wgt id='morphing_basis_vector_4'> +4.6362385e-05 </wgt>
<wgt id='morphing_basis_vector_5'> +6.6575817e-05 </wgt>
</rwgt>
</event>
<event>
 4      1 +1.0153100e-05 5.34622300e+02 7.81860800e-03 9.32546600e-02
        2 -1    0    0  501    0 +0.0000000000e+00 +0.0000000000e+00 +5.1806388131e+02 5.1806388131e+02 0.0000000000e+00 0.0000e+00 1.0000e+00
       -2 -1    0    0    0  501 -0.0000000000e+00 -0.0000000000e+00 -1.3792748348e+02 1.3792748348e+02 0.0000000000e+00 0.0000e+00 -1.0000e+00
      -13  1    1    2    0    0 +1.3943305337e+01 -1.1053857923e+02 +4.8821612491e+02 5.0076758869e+02 0.0000000000e+00 0.0000e+00 1.0000e+00
       13  1    1    2    0    0 -1.3943305337e+01 +1.1053857923e+02 -1.0807972707e+02 1.5522377610e+02 0.0000000000e+00 0.0000e+00 -1.0000e+00
<mgrwt>
<rscale>  0 0.53462229E+03</rscale>
<asrwt>0</asrwt>
<pdfrwt beam="1">  1        2 0.79702134E-01 0.53462229E+03</pdfrwt>
<pdfrwt beam="2">  1       -2 0.21219613E-01 0.53462229E+03</pdfrwt>
<totfact> 0.12801012E+03</totfact>
</mgrwt>
<rwgt>
<wgt id='morphing_basis_vector_1'> +2.5045235e-04 </wgt>
<wgt id='morphing_basis_vector_2'> +3.0522273e-04 </wgt>
<wgt id='morphing_basis_vector_3'> +1.2210517e-04 </wgt>
<wgt id='morphing_basis_vector_4'> +1.6651783e-05 </wgt>
<wgt id='morphing_basis_vector_5'> +7.6900474e-05 </wgt>
</rwgt>
</event>
<event>
 4      1 +1.0153100e-05 5.98442900e+02 7.81860800e-03 9.20304900e-02
        2 -1    0    0  501    0 +0.0000000000e+00 +0.0000000000e+00 +1.2797232236e+03 1.2797232236e+03 0.0000000000e+00 0.0000e+00 1.0000e+00
       -2 -1    0    0    0  501 -0.0000000000e+00 -0.0000000000e+00 -6.9963149192e+01 6.9963149192e+01 0.0000000000e+00 0.0000e+00 -1.0000e+00
      -13  1    1    2    0    0 -6.7878718896e+01 +2.8305187782e+02 +4.4850282627e+02 5.3467810053e+02 0.0000000000e+00 0.0000e+00 -1.0000e+00
       13  1    1    2    0    0 +6.7878718896e+01 -2.8305187782e+02 +7.6125724814e+02 8.1500827227e+02 0.0000000000e+00 0.0000e+00 1.0000e+00
<mgrwt>
<rscale>  0 0.59844287E+03</rscale>
<asrwt>0</asrwt>
<pdfrwt beam="1">  1        2 0.19688048E+00 0.59844287E+03</pdfrwt>
<pdfrwt beam="2">  1       -2 0.10763562E-01 0.59844287E+03</pdfrwt>
<totfact> 0.11623116E+03</totfact>
</mgrwt>
<rwgt>
<wgt id='morphing_basis_vector_1'> +2.6890676e-04 </wgt>
<wgt id='morphing_basis_vector_2'> +1.6206193e-04 </wgt>
<wgt id='morphing_basis_vector_3'> +2.1010439e-04 </wgt>
<wgt id='morphing_basis_vector_4'> +8.7896449e-05 </wgt>
<wgt id='morphing_basis_vector_5'> +1.3680434e-04 </wgt>
</rwgt>
</event>
<event>
 4      1 +1.0153100e-05 5.75341000e+02 7.81860800e-03 9.24540600e-02
        2 -1    0    0  501    0 +0.0000000000e+00 +0.0000000000e+00 +1.6251746558e+03 1.6251746558e+03 0.0000000000e+00 0.0000e+00 -1.0000e+00
       -2 -1    0    0    0  501 -0.0000000000e+00 -0.0000000000e+00 -5.0920251997e+01 5.0920251997e+01 0.0000000000e+00 0.0000e+00 1.0000e+00
      -13  1    1    2    0    0 +2.2155807567e+02 +8.2209546933e+01 +3.0925329036e+02 3.8920943989e+02 0.0000000000e+00 0.0000e+00 1.0000e+00
       13  1    1    2    0    0 -2.2155807567e+02 -8.2209546933e+01 +1.2650011134e+03 1.2868854679e+03 0.0000000000e+00 0.0000e+00 -1.0000e+00
<mgrwt>
<rscale>  0 0.57534095E+03</rscale>
<asrwt>0</asrwt>
<pdfrwt beam="1">  1        2 0.25002683E+00 0.57534095E+03</pdfrwt>
<pdfrwt beam="2">  1       -2 0.78338862E-02 0.57534095E+03</pdfrwt>
<totfact> 0.12314602E+03</totfact>
</mgrwt>
<rwgt>
<wgt id='morphing_basis_vector_1'> +2.3420139e-04 </wgt>
<wgt id='morphing_basis_vector_2'> +1.3350782e-04 </wgt>
<wgt id='morphing_basis_vector_3'> +1.8128876e-04 </wgt>
<wgt id='morphing_basis_vector_4'> +7.4340291e-05 </wgt>
<wgt id='morphing_basis_vector_5'> +1.1149717e-04 </wgt>
</rwgt>
</event>
<event>
 4      1 +1.0153100e-05 5.84851600e+02 7.81860800e-03 9.22771800e-02
        2 -1    0    0  501    0 +0.0000000000e+00 +0.0000000000e+00 +3.1493035034e+02 3.1493035034e+02 0.0000000000e+00 0.0000e+00 -1.0000e+00
       -2 -1    0    0    0  501 -0.0000000000e+00 -0.0000000000e+00 -2.7152944104e+02 2.7152944104e+02 0.0000000000e+00 0.0000e+00 1.0000e+00
      -13  1    1    2    0    0 -1.4981082748e+02 -2.5233044765e+00 -2.3011394709e+02 2.7459439132e+02 0.0000000000e+00 0.0000e+00 1.0000e+00
       13  1    1    2    0    0 +1.4981082748e+02 +2.5233044765e+00 +2.7351485638e+02 3.1186540007e+02 0.0000000000e+00 0.0000e+00 -1.0000e+00
<mgrwt>
<rscale>  0 0.58485165E+03</rscale>
<asrwt>0</asrwt>
<pdfrwt beam="1">  1        2 0.48450823E-01 0.58485165E+03</pdfrwt>
<pdfrwt beam="2">  1       -2 0.41773760E-01 0.58485165E+03</pdfrwt>
<totfact> 0.68103912E+02</totfact>
</mgrwt>
<rwgt>
<wgt id='morphing_basis_vector_1'> +2.4623393e-04 </wgt>
<wgt id='morphing_basis_vector_2'> +1.3923237e-04 </wgt>
<wgt id='morphing_basis_vector_3'> +1.9275282e-04 </wgt>
<wgt id='morphing_basis_vector_4'> +8.1047639e-05 </wgt>
<wgt id='morphing_basis_vector_5'> +1.2147031e-04 </wgt>
</rwgt>
</event>
<event>
 4      1 +1.0153100e-05 5.33155000e+02 7.81860800e-03 9.32849100e-02
        2 -1    0    0  501    0 +0.0000000000e+00 +0.0000000000e+00 +1.5358764687e+03 1.5358764687e+03 0.0000000000e+00 0.0000e+00 -1.0000e+00
       -2 -1    0    0    0  501 -0.0000000000e+00 -0.0000000000e+00 -4.6269064390e+01 4.6269064390e+01 0.0000000000e+00 0.0000e+00 1.0000e+00
      -13  1    1    2    0    0 +8.3958986401e+00 +2.5714775864e+02 +9.5185261757e+02 9.8601159550e+02 0.0000000000e+00 0.0000e+00 -1.0000e+00
       13  1    1    2    0    0 -8.3958986401e+00 -2.5714775864e+02 +5.3775478677e+02 5.9613393762e+02 0.0000000000e+00 0.0000e+00 1.0000e+00
<mgrwt>
<rscale>  0 0.53315501E+03</rscale>
<asrwt>0</asrwt>
<pdfrwt beam="1">  1        2 0.23628865E+00 0.53315501E+03</pdfrwt>
<pdfrwt beam="2">  1       -2 0.71183188E-02 0.53315501E+03</pdfrwt>
<totfact> 0.15988703E+03</totfact>
</mgrwt>
<rwgt>
<wgt id='morphing_basis_vector_1'> +1.9894071e-04 </wgt>
<wgt id='morphing_basis_vector_2'> +1.4917721e-04 </wgt>
<wgt id='morphing_basis_vector_3'> +1.3313681e-04 </wgt>
<wgt id='morphing_basis_vector_4'> +4.2949416e-05 </wgt>
<wgt id='morphing_basis_vector_5'> +7.4370741e-05 </wgt>
</rwgt>
</event>
<event>
 4      1 +1.0153100e-05 5.44350900e+02 7.81860800e-03 9.30566300e-02
        2 -1    0    0  501    0 +0.0000000000e+00 +0.0000000000e+00 +3.7035642493e+02 3.7035642493e+02 0.0000000000e+00 0.0000e+00 -1.0000e+00
       -2 -1    0    0    0  501 -0.0000000000e+00 -0.0000000000e+00 -2.0002210323e+02 2.0002210323e+02 0.0000000000e+00 0.0000e+00 1.0000e+00
      -13  1    1    2    0    0 +2.2800551218e+02 -1.4449027449e+02 +1.2169844528e+02 2.9609874129e+02 0.0000000000e+00 0.0000e+00 1.0000e+00
       13  1    1    2    0    0 -2.2800551218e+02 +1.4449027449e+02 +4.8635876422e+01 2.7427978687e+02 0.0000000000e+00 0.0000e+00 -1.0000e+00
<mgrwt>
<rscale>  0 0.54435088E+03</rscale>
<asrwt>0</asrwt>
<pdfrwt beam="1">  1        2 0.56977912E-01 0.54435088E+03</pdfrwt>
<pdfrwt beam="2">  1       -2 0.30772631E-01 0.54435088E+03</pdfrwt>
<totfact> 0.98878028E+02</totfact>
</mgrwt>
<rwgt>
<wgt id='morphing_basis_vector_1'> +2.0636161e-04 </wgt>
<wgt id='morphing_basis_vector_2'> +1.4131460e-04 </wgt>
<wgt id='morphing_basis_vector_3'> +1.4569364e-04 </wgt>
<wgt id='morphing_basis_vector_4'> +5.0759028e-05 </wgt>
<wgt id='morphing_basis_vector_5'> +8.3142692e-05 </wgt>
</rwgt>
</event>
<event>
 4      1 +1.0153100e-05 5.71538400e+02 7.81860800e-03 9.25258000e-02
        2 -1    0    0  501    0 +0.0000000000e+00 +0.0000000000e+00 +1.3630627685e+03 1.3630627685e+03 0.0000000000e+00 0.0000e+00 1.0000e+00
       -2 -1    0    0    0  501 -0.0000000000e+00 -0.0000000000e+00 -5.9912151888e+01 5.9912151888e+01 0.0000000000e+00 0.0000e+00 -1.0000e+00
      -13  1    1    2    0    0 -1.1509919007e+02 -2.4238076233e+02 +4.0677332563e+02 4.8729949307e+02 0.0000000000e+00 0.0000e+00 -1.0000e+00
       13  1    1    2    0    0 +1.1509919007e+02 +2.4238076233e+02 +8.9637729099e+02 9.3567542732e+02 0.0000000000e+00 0.0000e+00 1.0000e+00
<mgrwt>
<rscale>  0 0.57153836E+03</rscale>
<asrwt>0</asrwt>
<pdfrwt beam="1">  1        2 0.20970194E+00 0.57153836E+03</pdfrwt>
<pdfrwt beam="2">  1       -2 0.92172551E-02 0.57153836E+03</pdfrwt>
<totfact> 0.13323605E+03</totfact>
</mgrwt>
<rwgt>
<wgt id='morphing_basis_vector_1'> +2.3063609e-04 </wgt>
<wgt id='morphing_basis_vector_2'> +1.3471862e-04 </wgt>
<wgt id='morphing_basis_vector_3'> +1.7674506e-04 </wgt>
<wgt id='morphing_basis_vector_4'> +7.1032844e-05 </wgt>
<wgt id='morphing_basis_vector_5'> +1.0769094e-04 </wgt>
</rwgt>
</event>
<event>
 4      1 +1.0153100e-05 5.42626700e+02 7.81860800e-03 9.30914000e-02
        2 -1    0    0  501    0 +0.0000000000e+00 +0.0000000000e+00 +1.9529077441e+02 1.9529077441e+02 0.0000000000e+00 0.0000e+00 -1.0000e+00
       -2 -1    0    0    0  501 -0.0000000000e+00 -0.0000000000e+00 -3.7692987307e+02 3.7692987307e+02 0.0000000000e+00 0.0000e+00 1.0000e+00
      -13  1    1    2    0    0 -2.3845009975e+02 -2.5446219435e+01 -2.2464610509e+02 3.2859067651e+02 0.0000000000e+00 0.0000e+00 1.0000e+00
       13  1    1    2    0    0 +2.3845009975e+02 +2.5446219435e+01 +4.3007006423e+01 2.4362997097e+02 0.0000000000e+00 0.0000e+00 -1.0000e+00
<mgrwt>
<rscale>  0 0.54262667E+03</rscale>
<asrwt>0</asrwt>
<pdfrwt beam="1">  1        2 0.30044735E-01 0.54262667E+03</pdfrwt>
<pdfrwt beam="2">  1       -2 0.57989211E-01 0.54262667E+03</pdfrwt>
<totfact> 0.61929761E+02</totfact>
</mgrwt>
<rwgt>
<wgt id='morphing_basis_vector_1'> +1.9500666e-04 </wgt>
<wgt id='morphing_basis_vector_2'> +1.1091138e-04 </wgt>
<wgt id='morphing_basis_vector_3'> +1.4593435e-04 </wgt>
<wgt id='morphing_basis_vector_4'> +5.5293785e-05 </wgt>
<wgt id='morphing_basis_vector_5'> +8.1486679e-05 </wgt>
</rwgt>
</event>
<event>
 4      1 +1.0153100e-05 5.67881500e+02 7.81860800e-03 9.25953500e-02
        2 -1    0    0  501    0 +0.0000000000e+00 +0.0000000000e+00 +1.4941642462e+03 1.4941642462e+03 0.0000000000e+00 0.0000e+00 -1.0000e+00
       -2 -1    0    0    0  501 -0.0000000000e+00 -0.0000000000e+00 -5.3958154444e+01 5.3958154444e+01 0.0000000000e+00 0.0000e+00 1.0000e+00
      -13  1    1    2    0    0 -2.6723883870e+02 +8.3545969795e+01 +5.9148777817e+02 6.5441142847e+02 0.0000000000e+00 0.0000e+00 1.0000e+00
       13  1    1    2    0    0 +2.6723883870e+02 -8.3545969795e+01 +8.4871831363e+02 8.9371097222e+02 0.0000000000e+00 0.0000e+00 -1.0000e+00
<mgrwt>
<rscale>  0 0.56788148E+03</rscale>
<asrwt>0</asrwt>
<pdfrwt beam="1">  1        2 0.22987139E+00 0.56788148E+03</pdfrwt>
<pdfrwt beam="2">  1       -2 0.83012557E-02 0.56788148E+03</pdfrwt>
<totfact> 0.13276031E+03</totfact>
</mgrwt>
<rwgt>
<wgt id='morphing_basis_vector_1'> +2.2807449e-04 </wgt>
<wgt id='morphing_basis_vector_2'> +1.3838131e-04 </wgt>
<wgt id='morphing_basis_vector_3'> +1.7233293e-04 </wgt>
<wgt id='morphing_basis_vector_4'> +6.7418513e-05 </wgt>
<wgt id='morphing_basis_vector_5'> +1.0413315e-04 </wgt>
</rwgt>
</event>
<event>
 4      1 +1.0153100e-05 5.37888900e+02 7.81860800e-03 9.31876600e-02
        2 -1    0    0  501    0 +0.0000000000e+00 +0.0000000000e+00 +2.5438099596e+02 2.5438099596e+02 0.0000000000e+00 0.0000e+00 1.0000e+00
       -2 -1    0    0    0  501 -0.0000000000e+00 -0.0000000000e+00 -2.8434167712e+02 2.8434167712e+02 0.0000000000e+00 0.0000e+00 -1.0000e+00
      -13  1    1    2    0    0 -1.1964844219e+02 +1.2399786558e+02 +1.9183404689e+02 2.5785950038e+02 0.0000000000e+00 0.0000e+00 1.0000e+00
       13  1    1    2    0    0 +1.1964844219e+02 -1.2399786558e+02 -2.2179472806e+02 2.8086317270e+02 0.0000000000e+00 0.0000e+00 -1.0000e+00
<mgrwt>
<rscale>  0 0.53788891E+03</rscale>
<asrwt>0</asrwt>
<pdfrwt beam="1">  1        2 0.39135538E-01 0.53788891E+03</pdfrwt>
<pdfrwt beam="2">  1       -2 0.43744874E-01 0.53788891E+03</pdfrwt>
<totfact> 0.79424617E+02</totfact>
</mgrwt>
<rwgt>
<wgt id='morphing_basis_vector_1'> +2.4695672e-04 </wgt>
<wgt id='morphing_basis_vector_2'> +2.8544799e-04 </wgt>
<wgt id='morphing_basis_vector_3'> +1.2782182e-04 </wgt>
<wgt id='morphing_basis_vector_4'> +2.1339510e-05 </wgt>
<wgt id='morphing_basis_vector_5'> +7.9201702e-05 </wgt>
</rwgt>
</event>
<event>
 4      1 +1.0153100e-05 5.85826900e+02 7.81860800e-03 9.22592400e-02
        2 -1    0    0  501    0 +0.0000000000e+00 +0.0000000000e+00 +3.8188528633e+02 3.8188528633e+02 0.0000000000e+00 0.0000e+00 -1.0000e+00
       -2 -1    0    0    0  501 -0.0000000000e+00 -0.0000000000e+00 -2.2467031429e+02 2.2467031429e+02 0.0000000000e+00 0.0000e+00 1.0000e+00
      -13  1    1    2    0    0 +2.5771959386e+02 +1.2333473611e+02 +1.1767546497e+01 2.8595335518e+02 0.0000000000e+00 0.0000e+00 1.0000e+00
       13  1    1    2    0    0 -2.5771959386e+02 -1.2333473611e+02 +1.4544742554e+02 3.2060224544e+02 0.0000000000e+00 0.0000e+00 -1.0000e+00
<mgrwt>
<rscale>  0 0.58582689E+03</rscale>
<asrwt>0</asrwt>
<pdfrwt beam="1">  1        2 0.58751582E-01 0.58582689E+03</pdfrwt>
<pdfrwt beam="2">  1       -2 0.34564664E-01 0.58582689E+03</pdfrwt>
<totfact> 0.77657401E+02</totfact>
</mgrwt>
<rwgt>
<wgt id='morphing_basis_vector_1'> +2.5113498e-04 </wgt>
<wgt id='morphing_basis_vector_2'> +1.5112188e-04 </wgt>
<wgt id='morphing_basis_vector_3'> +1.9382944e-04 </wgt>
<wgt id='morphing_basis_vector_4'> +7.9126751e-05 </wgt>
<wgt id='morphing_basis_vector_5'> +1.2256295e-04 </wgt>
</rwgt>
</event>
<event>
 4      1 +1.0153100e-05 5.55458200e+02 7.81860800e-03 9.28358600e-02
        2 -1    0    0  501    0 +0.0000000000e+00 +0.0000000000e+00 +3.1105084568e+02 3.1105084568e+02 0.0000000000e+00 0.0000e+00 -1.0000e+00
       -2 -1    0    0    0  501 -0.0000000000e+00 -0.0000000000e+00 -2.4797695266e+02 2.4797695266e+02 0.0000000000e+00 0.0000e+00 1.0000e+00
      -13  1    1    2    0    0 -1.4867709885e+02 +1.3353173317e+02 -1.6256992123e+02 2.5761324262e+02 0.0000000000e+00 0.0000e+00 1.0000e+00
       13  1    1    2    0    0 +1.4867709885e+02 -1.3353173317e+02 +2.2564381425e+02 3.0141455571e+02 0.0000000000e+00 0.0000e+00 -1.0000e+00
<mgrwt>
<rscale>  0 0.55545816E+03</rscale>
<asrwt>0</asrwt>
<pdfrwt beam="1">  1        2 0.47853976E-01 0.55545816E+03</pdfrwt>
<pdfrwt beam="2">  1       -2 0.38150301E-01 0.55545816E+03</pdfrwt>
<totfact> 0.81711152E+02</totfact>
</mgrwt>
<rwgt>
<wgt id='morphing_basis_vector_1'> +2.0910334e-04 </wgt>
<wgt id='morphing_basis_vector_2'> +1.1754984e-04 </wgt>
<wgt id='morphing_basis_vector_3'> +1.5917738e-04 </wgt>
<wgt id='morphing_basis_vector_4'> +6.2625192e-05 </wgt>
<wgt id='morphing_basis_vector_5'> +9.2479142e-05 </wgt>
</rwgt>
</event>
<event>
 4      1 +1.0153100e-05 5.77274100e+02 7.81860800e-03 9.24178100e-02
        2 -1    0    0  501    0 +0.0000000000e+00 +0.0000000000e+00 +1.4341069081e+03 1.4341069081e+03 0.0000000000e+00 0.0000e+00 1.0000e+00
       -2 -1    0    0    0  501 -0.0000000000e+00 -0.0000000000e+00 -5.8092841814e+01 5.8092841814e+01 0.0000000000e+00 0.0000e+00 -1.0000e+00
      -13  1    1    2    0    0 -2.7412647130e+02 -8.5514946339e+01 +6.1250219934e+02 6.7647399988e+02 0.0000000000e+00 0.0000e+00 -1.0000e+00
       13  1    1    2    0    0 +2.7412647130e+02 +8.5514946339e+01 +7.6351186698e+02 8.1572575007e+02 0.0000000000e+00 0.0000e+00 1.0000e+00
<mgrwt>
<rscale>  0 0.57727410E+03</rscale>
<asrwt>0</asrwt>
<pdfrwt beam="1">  1        2 0.22063180E+00 0.57727410E+03</pdfrwt>
<pdfrwt beam="2">  1       -2 0.89373614E-02 0.57727410E+03</pdfrwt>
<totfact> 0.12767298E+03</totfact>
</mgrwt>
<rwgt>
<wgt id='morphing_basis_vector_1'> +2.4157216e-04 </wgt>
<wgt id='morphing_basis_vector_2'> +1.5006316e-04 </wgt>
<wgt id='morphing_basis_vector_3'> +1.8323416e-04 </wgt>
<wgt id='morphing_basis_vector_4'> +7.2218790e-05 </wgt>
<wgt id='morphing_basis_vector_5'> +1.1354054e-04 </wgt>
</rwgt>
</event>
<event>
 4      1 +1.0153100e-05 5.69956300e+02 7.81860800e-03 9.25558200e-02
        2 -1    0    0  501    0 +0.0000000000e+00 +0.0000000000e+00 +1.2449572390e+03 1.2449572390e+03 0.0000000000e+00 0.0000e+00 -1.0000e+00
       -2 -1    0    0    0  501 -0.0000000000e+00 -0.0000000000e+00 -6.5233204155e+01 6.5233204155e+01 0.0000000000e+00 0.0000e+00 1.0000e+00
      -13  1    1    2    0    0 +4.3612305805e+01 +2.7840649425e+02 +4.9232484051e+02 5.6727062134e+02 0.0000000000e+00 0.0000e+00 1.0000e+00
       13  1    1    2    0    0 -4.3612305805e+01 -2.7840649425e+02 +6.8739919430e+02 7.4291982177e+02 0.0000000000e+00 0.0000e+00 -1.0000e+00
<mgrwt>
<rscale>  0 0.56995631E+03</rscale>
<asrwt>0</asrwt>
<pdfrwt beam="1">  1        2 0.19153187E+00 0.56995631E+03</pdfrwt>
<pdfrwt beam="2">  1       -2 0.10035878E-01 0.56995631E+03</pdfrwt>
<totfact> 0.13585346E+03</totfact>
</mgrwt>
<rwgt>
<wgt id='morphing_basis_vector_1'> +2.3102801e-04 </wgt>
<wgt id='morphing_basis_vector_2'> +1.4098307e-04 </wgt>
<wgt id='morphing_basis_vector_3'> +1.7468500e-04 </wgt>
<wgt id='morphing_basis_vector_4'> +6.8445803e-05 </wgt>
<wgt id='morphing_basis_vector_5'> +1.0616422e-04 </wgt>
</rwgt>
</event>
<event>
 4      1 +1.0153100e-05 5.73470000e+02 7.81860800e-03 9.24892800e-02
        2 -1    0    0  501    0 +0.0000000000e+00 +0.0000000000e+00 +1.2482359928e+03 1.2482359928e+03 0.0000000000e+00 0.0000e+00 1.0000e+00
       -2 -1    0    0    0  501 -0.0000000000e+00 -0.0000000000e+00 -6.5866523913e+01 6.5866523913e+01 0.0000000000e+00 0.0000e+00 -1.0000e+00
      -13  1    1    2    0    0 -9.1267374733e+01 -2.1495754710e+02 +2.0993866300e+02 3.1402344334e+02 0.0000000000e+00 0.0000e+00 -1.0000e+00
       13  1    1    2    0    0 +9.1267374733e+01 +2.1495754710e+02 +9.7243080590e+02 1.0000790734e+03 0.0000000000e+00 0.0000e+00 1.0000e+00
<mgrwt>
<rscale>  0 0.57347002E+03</rscale>
<asrwt>0</asrwt>
<pdfrwt beam="1">  1        2 0.19203629E+00 0.57347002E+03</pdfrwt>
<pdfrwt beam="2">  1       -2 0.10133312E-01 0.57347002E+03</pdfrwt>
<totfact> 0.13322209E+03</totfact>
</mgrwt>
<rwgt>
<wgt id='morphing_basis_vector_1'> +2.3173631e-04 </wgt>
<wgt id='morphing_basis_vector_2'> +1.3192273e-04 </wgt>
<wgt id='morphing_basis_vector_3'> +1.7910670e-04 </wgt>
<wgt id='morphing_basis_vector_4'> +7.3178636e-05 </wgt>
<wgt id='morphing_basis_vector_5'> +1.0960248e-04 </wgt>
</rwgt>
</event>
<event>
 4      1 +1.0153100e-05 5.84927500e+02 7.81860800e-03 9.22757800e-02
        2 -1    0    0  501    0 +0.0000000000e+00 +0.0000000000e+00 +7.9443451932e+02 7.9443451932e+02 0.0000000000e+00 0.0000e+00 -1.0000e+00
       -2 -1    0    0    0  501 -0.0000000000e+00 -0.0000000000e+00 -1.0766784552e+02 1.0766784552e+02 0.0000000000e+00 0.0000e+00 1.0000e+00
      -13  1    1    2    0    0 +6.2402334908e+01 +1.2795031291e+02 -5.0628830049e+01 1.5109140415e+02 0.0000000000e+00 0.0000e+00 1.0000e+00
       13  1    1    2    0    0 -6.2402334908e+01 -1.2795031291e+02 +7.3739550385e+02 7.5101096069e+02 0.0000000000e+00 0.0000e+00 -1.0000e+00
<mgrwt>
<rscale>  0 0.58492753E+03</rscale>
<asrwt>0</asrwt>
<pdfrwt beam="1">  1        2 0.12222069E+00 0.58492753E+03</pdfrwt>
<pdfrwt beam="2">  1       -2 0.16564284E-01 0.58492753E+03</pdfrwt>
<totfact> 0.11567080E+03</totfact>
</mgrwt>
<rwgt>
<wgt id='morphing_basis_vector_1'> +2.4632567e-04 </wgt>
<wgt id='morphing_basis_vector_2'> +1.3925946e-04 </wgt>
<wgt id='morphing_basis_vector_3'> +1.9284661e-04 </wgt>
<wgt id='morphing_basis_vector_4'> +8.1107459e-05 </wgt>
<wgt id='morphing_basis_vector_5'> +1.2155222e-04 </wgt>
</rwgt>
</event>
<event>
 4      1 +1.0153100e-05 6.11287600e+02 7.81860800e-03 9.18036300e-02
        2 -1    0    0  501    0 +0.0000000000e+00 +0.0000000000e+00 +4.3009169434e+02 4.3009169434e+02 0.0000000000e+00 0.0000e+00 1.0000e+00
       -2 -1    0    0    0  501 -0.0000000000e+00 -0.0000000000e+00 -2.1720517534e+02 2.1720517534e+02 0.0000000000e+00 0.0000e+00 -1.0000e+00
      -13  1    1    2    0    0 +5.7777416517e+01 +8.6840762108e+01 -1.9777580899e+02 2.2359521114e+02 0.0000000000e+00 0.0000e+00 -1.0000e+00
       13  1    1    2    0    0 -5.7777416517e+01 -8.6840762108e+01 +4.1066232799e+02 4.2370165854e+02 0.0000000000e+00 0.0000e+00 1.0000e+00
<mgrwt>
<rscale>  0 0.61128763E+03</rscale>
<asrwt>0</asrwt>
<pdfrwt beam="1">  1        2 0.66167953E-01 0.61128763E+03</pdfrwt>
<pdfrwt beam="2">  1       -2 0.33416181E-01 0.61128763E+03</pdfrwt>
<totfact> 0.72160258E+02</totfact>
</mgrwt>
<rwgt>
<wgt id='morphing_basis_vector_1'> +2.8422018e-04 </wgt>
<wgt id='morphing_basis_vector_2'> +1.6205281e-04 </wgt>
<wgt id='morphing_basis_vector_3'> +2.2751297e-04 </wgt>
<wgt id='morphing_basis_vector_4'> +1.0061671e-04 </wgt>
<wgt id='morphing_basis_vector_5'> +1.5244323e-04 </wgt>
</rwgt>
</event>
<event>
 4      1 +1.0153100e-05 5.32381500e+02 7.81860800e-03 9.33009000e-02
        2 -1    0    0  501    0 +0.0000000000e+00 +0.0000000000e+00 +2.0995345515e+03 2.0995345515e+03 0.0000000000e+00 0.0000e+00 -1.0000e+00
       -2 -1    0    0    0  501 -0.0000000000e+00 -0.0000000000e+00 -3.3749159186e+01 3.3749159186e+01 0.0000000000e+00 0.0000e+00 1.0000e+00
      -13  1    1    2    0    0 +1.8717427131e+02 +1.7781156765e+02 +1.2927764160e+03 1.3183027054e+03 0.0000000000e+00 0.0000e+00 1.0000e+00
       13  1    1    2    0    0 -1.8717427131e+02 -1.7781156765e+02 +7.7300897633e+02 8.1498100525e+02 0.0000000000e+00 0.0000e+00 -1.0000e+00
<mgrwt>
<rscale>  0 0.53238154E+03</rscale>
<asrwt>0</asrwt>
<pdfrwt beam="1">  1        2 0.32300521E+00 0.53238154E+03</pdfrwt>
<pdfrwt beam="2">  1       -2 0.51921800E-02 0.53238154E+03</pdfrwt>
<totfact> 0.12769955E+03</totfact>
</mgrwt>
<rwgt>
<wgt id='morphing_basis_vector_1'> +1.9716277e-04 </wgt>
<wgt id='morphing_basis_vector_2'> +1.4573121e-04 </wgt>
<wgt id='morphing_basis_vector_3'> +1.3261093e-04 </wgt>
<wgt id='morphing_basis_vector_4'> +4.3125962e-05 </wgt>
<wgt id='morphing_basis_vector_5'> +7.3754405e-05 </wgt>
</rwgt>
</event>
<event>
 4      1 +1.0153100e-05 5.22964800e+02 7.81860800e-03 9.34979600e-02
        2 -1    0    0  501    0 +0.0000000000e+00 +0.0000000000e+00 +2.4730582598e+02 2.4730582598e+02 0.0000000000e+00 0.0000e+00 1.0000e+00
       -2 -1    0    0    0  501 -0.0000000000e+00 -0.0000000000e+00 -2.7647165232e+02 2.7647165232e+02 0.0000000000e+00 0.0000e+00 -1.0000e+00
      -13  1    1    2    0    0 -7.4809408421e+01 -1.5399952118e+02 -2.1252795921e+02 2.7291103598e+02 0.0000000000e+00 0.0000e+00 -1.0000e+00
       13  1    1    2    0    0 +7.4809408421e+01 +1.5399952118e+02 +1.8336213287e+02 2.5086644232e+02 0.0000000000e+00 0.0000e+00 1.0000e+00
<mgrwt>
<rscale>  0 0.52296482E+03</rscale>
<asrwt>0</asrwt>
<pdfrwt beam="1">  1        2 0.38047050E-01 0.52296482E+03</pdfrwt>
<pdfrwt beam="2">  1       -2 0.42534100E-01 0.52296482E+03</pdfrwt>
<totfact> 0.86454416E+02</totfact>
</mgrwt>
<rwgt>
<wgt id='morphing_basis_vector_1'> +1.7322958e-04 </wgt>
<wgt id='morphing_basis_vector_2'> +9.6075902e-05 </wgt>
<wgt id='morphing_basis_vector_3'> +1.2775423e-04 </wgt>
<wgt id='morphing_basis_vector_4'> +4.6228547e-05 </wgt>
<wgt id='morphing_basis_vector_5'> +6.6384169e-05 </wgt>
</rwgt>
</event>
<event>
 4      1 +1.0153100e-05 5.78118800e+02 7.81860800e-03 9.24020200e-02
        2 -1    0    0  501    0 +0.0000000000e+00 +0.0000000000e+00 +5.4291204976e+01 5.4291204976e+01 0.0000000000e+00 0.0000e+00 -1.0000e+00
       -2 -1    0    0    0  501 -0.0000000000e+00 -0.0000000000e+00 -1.5390213281e+03 1.5390213281e+03 0.0000000000e+00 0.0000e+00 1.0000e+00
      -13  1    1    2    0    0 -2.5038310094e+02 -1.4383367526e+02 -7.0585426922e+02 7.6263364255e+02 0.0000000000e+00 0.0000e+00 1.0000e+00
       13  1    1    2    0    0 +2.5038310094e+02 +1.4383367526e+02 -7.7887585395e+02 8.3067889057e+02 0.0000000000e+00 0.0000e+00 -1.0000e+00
<mgrwt>
<rscale>  0 0.57811875E+03</rscale>
<asrwt>0</asrwt>
<pdfrwt beam="1">  1        2 0.83524940E-02 0.57811875E+03</pdfrwt>
<pdfrwt beam="2">  1       -2 0.23677249E+00 0.57811875E+03</pdfrwt>
<totfact> 0.70909318E+01</totfact>
</mgrwt>
<rwgt>
<wgt id='morphing_basis_vector_1'> +2.4665410e-04 </wgt>
<wgt id='morphing_basis_vector_2'> +1.6305587e-04 </wgt>
<wgt id='morphing_basis_vector_3'> +1.8399293e-04 </wgt>
<wgt id='morphing_basis_vector_4'> +6.9982701e-05 </wgt>
<wgt id='morphing_basis_vector_5'> +1.1446229e-04 </wgt>
</rwgt>
</event>
<event>
 4      1 +1.0153100e-05 5.58642700e+02 7.81860800e-03 9.27735800e-02
        2 -1    0    0  501    0 +0.0000000000e+00 +0.0000000000e+00 +6.2736582383e+02 6.2736582383e+02 0.0000000000e+00 0.0000e+00 -1.0000e+00
       -2 -1    0    0    0  501 -0.0000000000e+00 -0.0000000000e+00 -1.2436191106e+02 1.2436191106e+02 0.0000000000e+00 0.0000e+00 1.0000e+00
      -13  1    1    2    0    0 -2.0752962517e+02 -1.3567718724e+02 +7.8424282011e+01 2.6005232640e+02 0.0000000000e+00 0.0000e+00 1.0000e+00
       13  1    1    2    0    0 +2.0752962517e+02 +1.3567718724e+02 +4.2457963076e+02 4.9167540849e+02 0.0000000000e+00 0.0000e+00 -1.0000e+00
<mgrwt>
<rscale>  0 0.55864269E+03</rscale>
<asrwt>0</asrwt>
<pdfrwt beam="1">  1        2 0.96517817E-01 0.55864269E+03</pdfrwt>
<pdfrwt beam="2">  1       -2 0.19132602E-01 0.55864269E+03</pdfrwt>
<totfact> 0.12181002E+03</totfact>
</mgrwt>
<rwgt>
<wgt id='morphing_basis_vector_1'> +2.1372135e-04 </wgt>
<wgt id='morphing_basis_vector_2'> +1.2233224e-04 </wgt>
<wgt id='morphing_basis_vector_3'> +1.6245136e-04 </wgt>
<wgt id='morphing_basis_vector_4'> +6.3932147e-05 </wgt>
<wgt id='morphing_basis_vector_5'> +9.5377186e-05 </wgt>
</rwgt>
</event>
<event>
 4      1 +1.0153100e-05 5.74422800e+02 7.81860800e-03 9.24713300e-02
        2 -1    0    0  501    0 +0.0000000000e+00 +0.0000000000e+00 +5.4609781297e+02 5.4609781297e+02 0.0000000000e+00 0.0000e+00 -1.0000e+00
       -2 -1    0    0    0  501 -0.0000000000e+00 -0.0000000000e+00 -1.5105425606e+02 1.5105425606e+02 0.0000000000e+00 0.0000e+00 1.0000e+00
      -13  1    1    2    0    0 +1.9285428946e+02 -1.0129600606e+02 -2.9651724596e+01 2.1984740748e+02 0.0000000000e+00 0.0000e+00 1.0000e+00
       13  1    1    2    0    0 -1.9285428946e+02 +1.0129600606e+02 +4.2469528150e+02 4.7730466155e+02 0.0000000000e+00 0.0000e+00 -1.0000e+00
<mgrwt>
<rscale>  0 0.57442284E+03</rscale>
<asrwt>0</asrwt>
<pdfrwt beam="1">  1        2 0.84015047E-01 0.57442284E+03</pdfrwt>
<pdfrwt beam="2">  1       -2 0.23239117E-01 0.57442284E+03</pdfrwt>
<totfact> 0.10346795E+03</totfact>
</mgrwt>
<rwgt>
<wgt id='morphing_basis_vector_1'> +2.3274640e-04 </wgt>
<wgt id='morphing_basis_vector_2'> +1.3197487e-04 </wgt>
<wgt id='morphing_basis_vector_3'> +1.8023483e-04 </wgt>
<wgt id='morphing_basis_vector_4'> +7.3934792e-05 </wgt>
<wgt id='morphing_basis_vector_5'> +1.1056122e-04 </wgt>
</rwgt>
</event>
<event>
 4      1 +1.0153100e-05 5.42550800e+02 7.81860800e-03 9.30929300e-02
        2 -1    0    0  501    0 +0.0000000000e+00 +0.0000000000e+00 +6.2009524990e+02 6.2009524990e+02 0.0000000000e+00 0.0000e+00 1.0000e+00
       -2 -1    0    0    0  501 -0.0000000000e+00 -0.0000000000e+00 -1.1867586305e+02 1.1867586305e+02 0.0000000000e+00 0.0000e+00 -1.0000e+00
      -13  1    1    2    0    0 -1.2592927249e+02 +7.6646895264e+00 -7.6297512360e+01 1.4743893491e+02 0.0000000000e+00 0.0000e+00 -1.0000e+00
       13  1    1    2    0    0 +1.2592927249e+02 -7.6646895264e+00 +5.7771689921e+02 5.9133217803e+02 0.0000000000e+00 0.0000e+00 1.0000e+00
<mgrwt>
<rscale>  0 0.54255079E+03</rscale>
<asrwt>0</asrwt>
<pdfrwt beam="1">  1        2 0.95399267E-01 0.54255079E+03</pdfrwt>
<pdfrwt beam="2">  1       -2 0.18257825E-01 0.54255079E+03</pdfrwt>
<totfact> 0.13338989E+03</totfact>
</mgrwt>
<rwgt>
<wgt id='morphing_basis_vector_1'> +1.9401783e-04 </wgt>
<wgt id='morphing_basis_vector_2'> +1.0805326e-04 </wgt>
<wgt id='morphing_basis_vector_3'> +1.4605394e-04 </wgt>
<wgt id='morphing_basis_vector_4'> +5.5769523e-05 </wgt>
<wgt id='morphing_basis_vector_5'> +8.1401535e-05 </wgt>
</rwgt>
</event>
<event>
 4      1 +1.0153100e-05 6.03954400e+02 7.81860800e-03 9.19324200e-02
        2 -1    0    0  501    0 +0.0000000000e+00 +0.0000000000e+00 +1.8680677781e+02 1.8680677781e+02 0.0000000000e+00 0.0000e+00 1.0000e+00
       -2 -1    0    0    0  501 -0.0000000000e+00 -0.0000000000e+00 -4.8815266756e+02 4.8815266756e+02 0.0000000000e+00 0.0000e+00 -1.0000e+00
      -13  1    1    2    0    0 +2.4110989162e+02 -1.1734550456e+01 -3.5343835330e+02 4.2800741710e+02 0.0000000000e+00 0.0000e+00 -1.0000e+00
       13  1    1    2    0    0 -2.4110989162e+02 +1.1734550456e+01 +5.2092463550e+01 2.4695202827e+02 0.0000000000e+00 0.0000e+00 1.0000e+00
<mgrwt>
<rscale>  0 0.60395439E+03</rscale>
<asrwt>0</asrwt>
<pdfrwt beam="1">  1        2 0.28739505E-01 0.60395439E+03</pdfrwt>
<pdfrwt beam="2">  1       -2 0.75100409E-01 0.60395439E+03</pdfrwt>
<totfact> 0.37870918E+02</totfact>
</mgrwt>
<rwgt>
<wgt id='morphing_basis_vector_1'> +2.7385107e-04 </wgt>
<wgt id='morphing_basis_vector_2'> +1.5733263e-04 </wgt>
<wgt id='morphing_basis_vector_3'> +2.1743219e-04 </wgt>
<wgt id='morphing_basis_vector_4'> +9.4398023e-05 </wgt>
<wgt id='morphing_basis_vector_5'> +1.4336087e-04 </wgt>
</rwgt>
</event>
<event>
 4      1 +1.0153100e-05 5.26965000e+02 7.81860800e-03 9.34137200e-02
        2 -1    0    0  501    0 +0.0000000000e+00 +0.0000000000e+00 +2.6618121987e+03 2.6618121987e+03 0.0000000000e+00 0.0000e+00 1.0000e+00
       -2 -1    0    0    0  501 -0.0000000000e+00 -0.0000000000e+00 -2.6081110344e+01 2.6081110344e+01 0.0000000000e+00 0.0000e+00 -1.0000e+00
      -13  1    1    2    0    0 -2.3221917169e+02 +1.2343721745e+02 +1.4001953174e+03 1.4246787067e+03 0.0000000000e+00 0.0000e+00 -1.0000e+00
       13  1    1    2    0    0 +2.3221917169e+02 -1.2343721745e+02 +1.2355357709e+03 1.2632146024e+03 0.0000000000e+00 0.0000e+00 1.0000e+00
<mgrwt>
<rscale>  0 0.52696496E+03</rscale>
<asrwt>0</asrwt>
<pdfrwt beam="1">  1        2 0.40950935E+00 0.52696496E+03</pdfrwt>
<pdfrwt beam="2">  1       -2 0.40124806E-02 0.52696496E+03</pdfrwt>
<totfact> 0.90075987E+02</totfact>
</mgrwt>
<rwgt>
<wgt id='morphing_basis_vector_1'> +1.8457573e-04 </wgt>
<wgt id='morphing_basis_vector_2'> +1.2096622e-04 </wgt>
<wgt id='morphing_basis_vector_3'> +1.2926259e-04 </wgt>
<wgt id='morphing_basis_vector_4'> +4.4372928e-05 </wgt>
<wgt id='morphing_basis_vector_5'> +6.9507017e-05 </wgt>
</rwgt>
</event>
<event>
 4      1 +1.0153100e-05 5.72700300e+02 7.81860800e-03 9.25038200e-02
        2 -1    0    0  501    0 +0.0000000000e+00 +0.0000000000e+00 +5.6973127065e+02 5.6973127065e+02 0.0000000000e+00 0.0000e+00 -1.0000e+00
       -2 -1    0    0    0  501 -0.0000000000e+00 -0.0000000000e+00 -1.4392120175e+02 1.4392120175e+02 0.0000000000e+00 0.0000e+00 1.0000e+00
      -13  1    1    2    0    0 +1.1659548759e+02 -1.7210723403e+02 -3.2491752360e+01 2.1040703815e+02 0.0000000000e+00 0.0000e+00 1.0000e+00
       13  1    1    2    0    0 -1.1659548759e+02 +1.7210723403e+02 +4.5830182125e+02 5.0324543425e+02 0.0000000000e+00 0.0000e+00 -1.0000e+00
<mgrwt>
<rscale>  0 0.57270030E+03</rscale>
<asrwt>0</asrwt>
<pdfrwt beam="1">  1        2 0.87650963E-01 0.57270030E+03</pdfrwt>
<pdfrwt beam="2">  1       -2 0.22141724E-01 0.57270030E+03</pdfrwt>
<totfact> 0.10689252E+03</totfact>
</mgrwt>
<rwgt>
<wgt id='morphing_basis_vector_1'> +2.3043496e-04 </wgt>
<wgt id='morphing_basis_vector_2'> +1.3036459e-04 </wgt>
<wgt id='morphing_basis_vector_3'> +1.7824098e-04 </wgt>
<wgt id='morphing_basis_vector_4'> +7.2903637e-05 </wgt>
<wgt id='morphing_basis_vector_5'> +1.0882519e-04 </wgt>
</rwgt>
</event>
<event>
 4      1 +1.0153100e-05 5.50793000e+02 7.81860800e-03 9.29279100e-02
        2 -1    0    0  501    0 +0.0000000000e+00 +0.0000000000e+00 +1.4510386490e+03 1.4510386490e+03 0.0000000000e+00 0.0000e+00 1.0000e+00
       -2 -1    0    0    0  501 -0.0000000000e+00 -0.0000000000e+00 -5.2268228851e+01 5.2268228851e+01 0.0000000000e+00 0.0000e+00 -1.0000e+00
      -13  1    1    2    0    0 +2.0505664181e+02 -1.8368633608e+02 +7.1950179300e+02 7.7037116154e+02 0.0000000000e+00 0.0000e+00 -1.0000e+00
       13  1    1    2    0    0 -2.0505664181e+02 +1.8368633608e+02 +6.7926862718e+02 7.3293571634e+02 0.0000000000e+00 0.0000e+00 1.0000e+00
<mgrwt>
<rscale>  0 0.55079296E+03</rscale>
<asrwt>0</asrwt>
<pdfrwt beam="1">  1        2 0.22323668E+00 0.55079296E+03</pdfrwt>
<pdfrwt beam="2">  1       -2 0.80412671E-02 0.55079296E+03</pdfrwt>
<totfact> 0.14735304E+03</totfact>
</mgrwt>
<rwgt>
<wgt id='morphing_basis_vector_1'> +2.1090260e-04 </wgt>
<wgt id='morphing_basis_vector_2'> +1.3689447e-04 </wgt>
<wgt id='morphing_basis_vector_3'> +1.5300583e-04 </wgt>
<wgt id='morphing_basis_vector_4'> +5.5664269e-05 </wgt>
<wgt id='morphing_basis_vector_5'> +8.8528191e-05 </wgt>
</rwgt>
</event>
<event>
 4      1 +1.0153100e-05 5.39282000e+02 7.81860800e-03 9.31592500e-02
        2 -1    0    0  501    0 +0.0000000000e+00 +0.0000000000e+00 +7.9806330812e+01 7.9806330812e+01 0.0000000000e+00 0.0000e+00 1.0000e+00
       -2 -1    0    0    0  501 -0.0000000000e+00 -0.0000000000e+00 -9.1103385828e+02 9.1103385828e+02 0.0000000000e+00 0.0000e+00 -1.0000e+00
      -13  1    1    2    0    0 +1.5387322485e+02 +1.5702602470e+02 -1.2877726702e+02 2.5478957251e+02 0.0000000000e+00 0.0000e+00 -1.0000e+00
       13  1    1    2    0    0 -1.5387322485e+02 -1.5702602470e+02 -7.0245026045e+02 7.3605061658e+02 0.0000000000e+00 0.0000e+00 1.0000e+00
<mgrwt>
<rscale>  0 0.53928200E+03</rscale>
<asrwt>0</asrwt>
<pdfrwt beam="1">  1        2 0.12277897E-01 0.53928200E+03</pdfrwt>
<pdfrwt beam="2">  1       -2 0.14015905E+00 0.53928200E+03</pdfrwt>
<totfact> 0.22996008E+02</totfact>
</mgrwt>
<rwgt>
<wgt id='morphing_basis_vector_1'> +2.3080710e-04 </wgt>
<wgt id='morphing_basis_vector_2'> +2.3144066e-04 </wgt>
<wgt id='morphing_basis_vector_3'> +1.3358318e-04 </wgt>
<wgt id='morphing_basis_vector_4'> +3.1580853e-05 </wgt>
<wgt id='morphing_basis_vector_5'> +7.9817736e-05 </wgt>
</rwgt>
</event>
<event>
 4      1 +1.0153100e-05 6.13209400e+02 7.81860800e-03 9.17702000e-02
        2 -1    0    0  501    0 +0.0000000000e+00 +0.0000000000e+00 +4.9356396203e+02 4.9356396203e+02 0.0000000000e+00 0.0000e+00 1.0000e+00
       -2 -1    0    0    0  501 -0.0000000000e+00 -0.0000000000e+00 -1.9046454265e+02 1.9046454265e+02 0.0000000000e+00 0.0000e+00 -1.0000e+00
      -13  1    1    2    0    0 -2.9221655378e+02 +9.2327185129e+01 +1.4087296320e+02 3.3728328624e+02 0.0000000000e+00 0.0000e+00 -1.0000e+00
       13  1    1    2    0    0 +2.9221655378e+02 -9.2327185129e+01 +1.6222645618e+02 3.4674521843e+02 0.0000000000e+00 0.0000e+00 1.0000e+00
<mgrwt>
<rscale>  0 0.61320937E+03</rscale>
<asrwt>0</asrwt>
<pdfrwt beam="1">  1        2 0.75932917E-01 0.61320937E+03</pdfrwt>
<pdfrwt beam="2">  1       -2 0.29302237E-01 0.61320937E+03</pdfrwt>
<totfact> 0.77935947E+02</totfact>
</mgrwt>
<rwgt>
<wgt id='morphing_basis_vector_1'> +2.9590118e-04 </wgt>
<wgt id='morphing_basis_vector_2'> +1.9092331e-04 </wgt>
<wgt id='morphing_basis_vector_3'> +2.3081798e-04 </wgt>
<wgt id='morphing_basis_vector_4'> +9.5057807e-05 </wgt>
<wgt id='morphing_basis_vector_5'> +1.5489242e-04 </wgt>
</rwgt>
</event>
<event>
 4      1 +1.0153100e-05 5.87444300e+02 7.81860800e-03 9.22295700e-02
        2 -1    0    0  501    0 +0.0000000000e+00 +0.0000000000e+00 +7.1532949941e+02 7.1532949941e+02 0.0000000000e+00 0.0000e+00 1.0000e+00
       -2 -1    0    0    0  501 -0.0000000000e+00 -0.0000000000e+00 -1.2060553430e+02 1.2060553430e+02 0.0000000000e+00 0.0000e+00 -1.0000e+00
      -13  1    1    2    0    0 +1.1755374216e+02 +2.6707487275e+02 +3.4508727743e+02 4.5192156287e+02 0.0000000000e+00 0.0000e+00 -1.0000e+00
       13  1    1    2    0    0 -1.1755374216e+02 -2.6707487275e+02 +2.4963668768e+02 3.8401347084e+02 0.0000000000e+00 0.0000e+00 1.0000e+00
<mgrwt>
<rscale>  0 0.58744428E+03</rscale>
<asrwt>0</asrwt>
<pdfrwt beam="1">  1        2 0.11005069E+00 0.58744428E+03</pdfrwt>
<pdfrwt beam="2">  1       -2 0.18554698E-01 0.58744428E+03</pdfrwt>
<totfact> 0.10944638E+03</totfact>
</mgrwt>
<rwgt>
<wgt id='morphing_basis_vector_1'> +2.6242985e-04 </wgt>
<wgt id='morphing_basis_vector_2'> +1.8063115e-04 </wgt>
<wgt id='morphing_basis_vector_3'> +1.9559725e-04 </wgt>
<wgt id='morphing_basis_vector_4'> +7.3598480e-05 </wgt>
<wgt id='morphing_basis_vector_5'> +1.2441316e-04 </wgt>
</rwgt>
</event>
<event>
 4      1 +1.0153100e-05 5.73664100e+02 7.81860800e-03 9.24856200e-02
        2 -1    0    0  501    0 +0.0000000000e+00 +0.0000000000e+00 +2.3990857724e+02 2.3990857724e+02 0.0000000000e+00 0.0000e+00 -1.0000e+00
       -2 -1    0    0    0  501 -0.0000000000e+00 -0.0000000000e+00 -3.4293323671e+02 3.4293323671e+02 0.0000000000e+00 0.0000e+00 1.0000e+00
      -13  1    1    2    0    0 -6.2078967415e+01 -1.6565675036e+01 -3.3552778479e+02 3.4162422946e+02 0.0000000000e+00 0.0000e+00 1.0000e+00
       13  1    1    2    0    0 +6.2078967415e+01 +1.6565675036e+01 +2.3250312533e+02 2.4121758450e+02 0.0000000000e+00 0.0000e+00 -1.0000e+00
<mgrwt>
<rscale>  0 0.57366410E+03</rscale>
<asrwt>0</asrwt>
<pdfrwt beam="1">  1        2 0.36909012E-01 0.57366410E+03</pdfrwt>
<pdfrwt beam="2">  1       -2 0.52758960E-01 0.57366410E+03</pdfrwt>
<totfact> 0.59107454E+02</totfact>
</mgrwt>
<rwgt>
<wgt id='morphing_basis_vector_1'> +2.3138375e-04 </wgt>
<wgt id='morphing_basis_vector_2'> +1.3020148e-04 </wgt>
<wgt id='morphing_basis_vector_3'> +1.7938290e-04 </wgt>
<wgt id='morphing_basis_vector_4'> +7.3712839e-05 </wgt>
<wgt id='morphing_basis_vector_5'> +1.0978935e-04 </wgt>
</rwgt>
</event>
<event>
 4      1 +1.0153100e-05 5.87320700e+02 7.81860800e-03 9.22318400e-02
        2 -1    0    0  501    0 +0.0000000000e+00 +0.0000000000e+00 +2.9922161087e+02 2.9922161087e+02 0.0000000000e+00 0.0000e+00 1.0000e+00
       -2 -1    0    0    0  501 -0.0000000000e+00 -0.0000000000e+00 -2.8820242476e+02 2.8820242476e+02 0.0000000000e+00 0.0000e+00 -1.0000e+00
      -13  1    1    2    0    0 -2.3684880806e+02 +6.2156705737e+01 -1.5661637332e+02 2.9067077999e+02 0.0000000000e+00 0.0000e+00 -1.0000e+00
       13  1    1    2    0    0 +2.3684880806e+02 -6.2156705737e+01 +1.6763555943e+02 2.9675325564e+02 0.0000000000e+00 0.0000e+00 1.0000e+00
<mgrwt>
<rscale>  0 0.58732067E+03</rscale>
<asrwt>0</asrwt>
<pdfrwt beam="1">  1        2 0.46034094E-01 0.58732067E+03</pdfrwt>
<pdfrwt beam="2">  1       -2 0.44338835E-01 0.58732067E+03</pdfrwt>
<totfact> 0.64458009E+02</totfact>
</mgrwt>
<rwgt>
<wgt id='morphing_basis_vector_1'> +2.5032020e-04 </wgt>
<wgt id='morphing_basis_vector_2'> +1.4348693e-04 </wgt>
<wgt id='morphing_basis_vector_3'> +1.9578757e-04 </wgt>
<wgt id='morphing_basis_vector_4'> +8.2219799e-05 </wgt>
<wgt id='morphing_basis_vector_5'> +1.2416582e-04 </wgt>
</rwgt>
</event>
<event>
 4      1 +1.0153100e-05 5.76619300e+02 7.81860800e-03 9.24300700e-02
        2 -1    0    0  501    0 +0.0000000000e+00 +0.0000000000e+00 +6.1452157058e+02 6.1452157058e+02 0.0000000000e+00 0.0000e+00 1.0000e+00
       -2 -1    0    0    0  501 -0.0000000000e+00 -0.0000000000e+00 -1.3526367827e+02 1.3526367827e+02 0.0000000000e+00 0.0000e+00 -1.0000e+00
      -13  1    1    2    0    0 -7.0332743047e+01 +2.1559919424e+02 +8.1413993338e+00 2.2692727840e+02 0.0000000000e+00 0.0000e+00 -1.0000e+00
       13  1    1    2    0    0 +7.0332743047e+01 -2.1559919424e+02 +4.7111649298e+02 5.2285797044e+02 0.0000000000e+00 0.0000e+00 1.0000e+00
<mgrwt>
<rscale>  0 0.57661928E+03</rscale>
<asrwt>0</asrwt>
<pdfrwt beam="1">  1        2 0.94541779E-01 0.57661928E+03</pdfrwt>
<pdfrwt beam="2">  1       -2 0.20809797E-01 0.57661928E+03</pdfrwt>
<totfact> 0.10855222E+03</totfact>
</mgrwt>
<rwgt>
<wgt id='morphing_basis_vector_1'> +2.3570769e-04 </wgt>
<wgt id='morphing_basis_vector_2'> +1.3400946e-04 </wgt>
<wgt id='morphing_basis_vector_3'> +1.8280582e-04 </wgt>
<wgt id='morphing_basis_vector_4'> +7.5273221e-05 </wgt>
<wgt id='morphing_basis_vector_5'> +1.1280212e-04 </wgt>
</rwgt>
</event>
<event>
 4      1 +1.0153100e-05 5.98721700e+02 7.81860800e-03 9.20255000e-02
        2 -1    0    0  501    0 +0.0000000000e+00 +0.0000000000e+00 +9.3785171242e+02 9.3785171242e+02 0.0000000000e+00 0.0000e+00 1.0000e+00
       -2 -1    0    0    0  501 -0.0000000000e+00 -0.0000000000e+00 -9.5555537419e+01 9.5555537419e+01 0.0000000000e+00 0.0000e+00 -1.0000e+00
      -13  1    1    2    0    0 +5.9846162434e+01 +2.7845073990e+02 +2.6201154455e+02 3.8699667594e+02 0.0000000000e+00 0.0000e+00 -1.0000e+00
       13  1    1    2    0    0 -5.9846162434e+01 -2.7845073990e+02 +5.8028463045e+02 6.4641057390e+02 0.0000000000e+00 0.0000e+00 1.0000e+00
<mgrwt>
<rscale>  0 0.59872172E+03</rscale>
<asrwt>0</asrwt>
<pdfrwt beam="1">  1        2 0.14428487E+00 0.59872172E+03</pdfrwt>
<pdfrwt beam="2">  1       -2 0.14700853E-01 0.59872172E+03</pdfrwt>
<totfact> 0.11280153E+03</totfact>
</mgrwt>
<rwgt>
<wgt id='morphing_basis_vector_1'> +2.6829739e-04 </wgt>
<wgt id='morphing_basis_vector_2'> +1.5916865e-04 </wgt>
<wgt id='morphing_basis_vector_3'> +2.1046102e-04 </wgt>
<wgt id='morphing_basis_vector_4'> +8.8874614e-05 </wgt>
<wgt id='morphing_basis_vector_5'> +1.3712601e-04 </wgt>
</rwgt>
</event>
<event>
 4      1 +1.0153100e-05 5.25557900e+02 7.81860800e-03 9.34432600e-02
        2 -1    0    0  501    0 +0.0000000000e+00 +0.0000000000e+00 +1.4933419979e+03 1.4933419979e+03 0.0000000000e+00 0.0000e+00 -1.0000e+00
       -2 -1    0    0    0  501 -0.0000000000e+00 -0.0000000000e+00 -4.6240434380e+01 4.6240434380e+01 0.0000000000e+00 0.0000e+00 1.0000e+00
      -13  1    1    2    0    0 -1.6511974791e+02 +1.2721267763e+02 +2.5479533417e+02 3.2919334564e+02 0.0000000000e+00 0.0000e+00 1.0000e+00
       13  1    1    2    0    0 +1.6511974791e+02 -1.2721267763e+02 +1.1923062293e+03 1.2103890866e+03 0.0000000000e+00 0.0000e+00 -1.0000e+00
<mgrwt>
<rscale>  0 0.52555792E+03</rscale>
<asrwt>0</asrwt>
<pdfrwt beam="1">  1        2 0.22974489E+00 0.52555792E+03</pdfrwt>
<pdfrwt beam="2">  1       -2 0.71139141E-02 0.52555792E+03</pdfrwt>
<totfact> 0.16886406E+03</totfact>
</mgrwt>
<rwgt>
<wgt id='morphing_basis_vector_1'> +1.7613962e-04 </wgt>
<wgt id='morphing_basis_vector_2'> +9.8426093e-05 </wgt>
<wgt id='morphing_basis_vector_3'> +1.2998625e-04 </wgt>
<wgt id='morphing_basis_vector_4'> +4.7280795e-05 </wgt>
<wgt id='morphing_basis_vector_5'> +6.8262356e-05 </wgt>
</rwgt>
</event>
<event>
 4      1 +1.0153100e-05 5.40994300e+02 7.81860800e-03 9.31244500e-02
        2 -1    0    0  501    0 +0.0000000000e+00 +0.0000000000e+00 +8.2557913304e+02 8.2557913304e+02 0.0000000000e+00 0.0000e+00 1.0000e+00
       -2 -1    0    0    0  501 -0.0000000000e+00 -0.0000000000e+00 -8.8627125621e+01 8.8627125621e+01 0.0000000000e+00 0.0000e+00 -1.0000e+00
      -13  1    1    2    0    0 +1.0161429208e+02 +1.0924963035e+02 -1.2803535589e+01 1.4974937933e+02 0.0000000000e+00 0.0000e+00 -1.0000e+00
       13  1    1    2    0    0 -1.0161429208e+02 -1.0924963035e+02 +7.4975554301e+02 7.6445687933e+02 0.0000000000e+00 0.0000e+00 1.0000e+00
<mgrwt>
<rscale>  0 0.54099429E+03</rscale>
<asrwt>0</asrwt>
<pdfrwt beam="1">  1        2 0.12701217E+00 0.54099429E+03</pdfrwt>
<pdfrwt beam="2">  1       -2 0.13634943E-01 0.54099429E+03</pdfrwt>
<totfact> 0.15076445E+03</totfact>
</mgrwt>
<rwgt>
<wgt id='morphing_basis_vector_1'> +1.9231739e-04 </wgt>
<wgt id='morphing_basis_vector_2'> +1.0712891e-04 </wgt>
<wgt id='morphing_basis_vector_3'> +1.4452145e-04 </wgt>
<wgt id='morphing_basis_vector_4'> +5.4948904e-05 </wgt>
<wgt id='morphing_basis_vector_5'> +8.0131641e-05 </wgt>
</rwgt>
</event>
<event>
 4      1 +1.0153100e-05 6.04949500e+02 7.81860800e-03 9.19148300e-02
        2 -1    0    0  501    0 +0.0000000000e+00 +0.0000000000e+00 +3.9470781256e+02 3.9470781256e+02 0.0000000000e+00 0.0000e+00 1.0000e+00
       -2 -1    0    0    0  501 -0.0000000000e+00 -0.0000000000e+00 -2.3179416867e+02 2.3179416867e+02 0.0000000000e+00 0.0000e+00 -1.0000e+00
      -13  1    1    2    0    0 +1.6717545485e+02 -4.2743702777e+00 +3.4247809432e+02 3.8112615764e+02 0.0000000000e+00 0.0000e+00 1.0000e+00
       13  1    1    2    0    0 -1.6717545485e+02 +4.2743702777e+00 -1.7956445043e+02 2.4537582359e+02 0.0000000000e+00 0.0000e+00 -1.0000e+00
<mgrwt>
<rscale>  0 0.60494948E+03</rscale>
<asrwt>0</asrwt>
<pdfrwt beam="1">  1        2 0.60724279E-01 0.60494948E+03</pdfrwt>
<pdfrwt beam="2">  1       -2 0.35660641E-01 0.60494948E+03</pdfrwt>
<totfact> 0.70704636E+02</totfact>
</mgrwt>
<rwgt>
<wgt id='morphing_basis_vector_1'> +3.6659203e-04 </wgt>
<wgt id='morphing_basis_vector_2'> +4.4115249e-04 </wgt>
<wgt id='morphing_basis_vector_3'> +2.2224532e-04 </wgt>
<wgt id='morphing_basis_vector_4'> +2.3392968e-05 </wgt>
<wgt id='morphing_basis_vector_5'> +1.4486878e-04 </wgt>
</rwgt>
</event>
<event>
 4      1 +1.0153100e-05 5.84763100e+02 7.81860800e-03 9.22788100e-02
        2 -1    0    0  501    0 +0.0000000000e+00 +0.0000000000e+00 +4.6541815856e+02 4.6541815856e+02 0.0000000000e+00 0.0000e+00 1.0000e+00
       -2 -1    0    0    0  501 -0.0000000000e+00 -0.0000000000e+00 -1.8367776407e+02 1.8367776407e+02 0.0000000000e+00 0.0000e+00 -1.0000e+00
      -13  1    1    2    0    0 +1.5091507205e+02 +1.2094199227e+02 -1.0253627736e+02 2.1889726504e+02 0.0000000000e+00 0.0000e+00 -1.0000e+00
       13  1    1    2    0    0 -1.5091507205e+02 -1.2094199227e+02 +3.8427667185e+02 4.3019865759e+02 0.0000000000e+00 0.0000e+00 1.0000e+00
<mgrwt>
<rscale>  0 0.58476309E+03</rscale>
<asrwt>0</asrwt>
<pdfrwt beam="1">  1        2 0.71602793E-01 0.58476309E+03</pdfrwt>
<pdfrwt beam="2">  1       -2 0.28258118E-01 0.58476309E+03</pdfrwt>
<totfact> 0.88776792E+02</totfact>
</mgrwt>
<rwgt>
<wgt id='morphing_basis_vector_1'> +2.4624829e-04 </wgt>
<wgt id='morphing_basis_vector_2'> +1.3957737e-04 </wgt>
<wgt id='morphing_basis_vector_3'> +1.9263863e-04 </wgt>
<wgt id='morphing_basis_vector_4'> +8.0890448e-05 </wgt>
<wgt id='morphing_basis_vector_5'> +1.2137601e-04 </wgt>
</rwgt>
</event>
<event>
 4      1 +1.0153100e-05 5.32504300e+02 7.81860800e-03 9.32983600e-02
        2 -1    0    0  501    0 +0.0000000000e+00 +0.0000000000e+00 +1.0345526635e+03 1.0345526635e+03 0.0000000000e+00 0.0000e+00 -1.0000e+00
       -2 -1    0    0    0  501 -0.0000000000e+00 -0.0000000000e+00 -6.8522579727e+01 6.8522579727e+01 0.0000000000e+00 0.0000e+00 1.0000e+00
      -13  1    1    2    0    0 -1.0345753611e+02 +2.4483320284e+02 +5.1533675352e+02 5.7984371042e+02 0.0000000000e+00 0.0000e+00 1.0000e+00
       13  1    1    2    0    0 +1.0345753611e+02 -2.4483320284e+02 +4.5069333030e+02 5.2323153285e+02 0.0000000000e+00 0.0000e+00 -1.0000e+00
<mgrwt>
<rscale>  0 0.53250434E+03</rscale>
<asrwt>0</asrwt>
<pdfrwt beam="1">  1        2 0.15916194E+00 0.53250434E+03</pdfrwt>
<pdfrwt beam="2">  1       -2 0.10541936E-01 0.53250434E+03</pdfrwt>
<totfact> 0.16693616E+03</totfact>
</mgrwt>
<rwgt>
<wgt id='morphing_basis_vector_1'> +1.9057996e-04 </wgt>
<wgt id='morphing_basis_vector_2'> +1.2495438e-04 </wgt>
<wgt id='morphing_basis_vector_3'> +1.3447873e-04 </wgt>
<wgt id='morphing_basis_vector_4'> +4.6743650e-05 </wgt>
<wgt id='morphing_basis_vector_5'> +7.3653927e-05 </wgt>
</rwgt>
</event>
<event>
 4      1 +1.0153100e-05 5.49153800e+02 7.81860800e-03 9.29604800e-02
        2 -1    0    0  501    0 +0.0000000000e+00 +0.0000000000e+00 +4.8881032444e+02 4.8881032444e+02 0.0000000000e+00 0.0000e+00 -1.0000e+00
       -2 -1    0    0    0  501 -0.0000000000e+00 -0.0000000000e+00 -1.5423664954e+02 1.5423664954e+02 0.0000000000e+00 0.0000e+00 1.0000e+00
      -13  1    1    2    0    0 +2.6609874119e+02 -3.5457487774e+01 +9.9747763436e+01 2.8638329179e+02 0.0000000000e+00 0.0000e+00 1.0000e+00
       13  1    1    2    0    0 -2.6609874119e+02 +3.5457487774e+01 +2.3482591146e+02 3.5666368219e+02 0.0000000000e+00 0.0000e+00 -1.0000e+00
<mgrwt>
<rscale>  0 0.54915377E+03</rscale>
<asrwt>0</asrwt>
<pdfrwt beam="1">  1        2 0.75201587E-01 0.54915377E+03</pdfrwt>
<pdfrwt beam="2">  1       -2 0.23728716E-01 0.54915377E+03</pdfrwt>
<totfact> 0.11335370E+03</totfact>
</mgrwt>
<rwgt>
<wgt id='morphing_basis_vector_1'> +2.0452786e-04 </wgt>
<wgt id='morphing_basis_vector_2'> +1.2186110e-04 </wgt>
<wgt id='morphing_basis_vector_3'> +1.5210813e-04 </wgt>
<wgt id='morphing_basis_vector_4'> +5.7477351e-05 </wgt>
<wgt id='morphing_basis_vector_5'> +8.7014653e-05 </wgt>
</rwgt>
</event>
<event>
 4      1 +1.0153100e-05 5.34139100e+02 7.81860800e-03 9.32646100e-02
        2 -1    0    0  501    0 +0.0000000000e+00 +0.0000000000e+00 +3.5495868488e+02 3.5495868488e+02 0.0000000000e+00 0.0000e+00 -1.0000e+00
       -2 -1    0    0    0  501 -0.0000000000e+00 -0.0000000000e+00 -2.0094213314e+02 2.0094213314e+02 0.0000000000e+00 0.0000e+00 1.0000e+00
      -13  1    1    2    0    0 -1.5574229830e+02 +1.8793232481e+02 -3.5814703928e+01 2.4669194394e+02 0.0000000000e+00 0.0000e+00 1.0000e+00
       13  1    1    2    0    0 +1.5574229830e+02 -1.8793232481e+02 +1.8983125567e+02 3.0920887409e+02 0.0000000000e+00 0.0000e+00 -1.0000e+00
<mgrwt>
<rscale>  0 0.53413914E+03</rscale>
<asrwt>0</asrwt>
<pdfrwt beam="1">  1        2 0.54609028E-01 0.53413914E+03</pdfrwt>
<pdfrwt beam="2">  1       -2 0.30914174E-01 0.53413914E+03</pdfrwt>
<totfact> 0.10286412E+03</totfact>
</mgrwt>
<rwgt>
<wgt id='morphing_basis_vector_1'> +1.8597582e-04 </wgt>
<wgt id='morphing_basis_vector_2'> +1.0625241e-04 </wgt>
<wgt id='morphing_basis_vector_3'> +1.3766809e-04 </wgt>
<wgt id='morphing_basis_vector_4'> +5.0904349e-05 </wgt>
<wgt id='morphing_basis_vector_5'> +7.4728075e-05 </wgt>
</rwgt>
</event>
<event>
 4      1 +1.0153100e-05 5.97895400e+02 7.81860800e-03 9.20402900e-02
        2 -1    0    0  501    0 +0.0000000000e+00 +0.0000000000e+00 +2.3574768569e+02 2.3574768569e+02 0.0000000000e+00 0.0000e+00 1.0000e+00
       -2 -1    0    0    0  501 -0.0000000000e+00 -0.0000000000e+00 -3.7909052110e+02 3.7909052110e+02 0.0000000000e+00 0.0000e+00 -1.0000e+00
      -13  1    1    2    0    0 +2.3617112816e+02 -1.2316915245e+02 +6.7903459590e+01 2.7487874002e+02 0.0000000000e+00 0.0000e+00 -1.0000e+00
       13  1    1    2    0    0 -2.3617112816e+02 +1.2316915245e+02 -2.1124629500e+02 3.3995946677e+02 0.0000000000e+00 0.0000e+00 1.0000e+00
<mgrwt>
<rscale>  0 0.59789535E+03</rscale>
<asrwt>0</asrwt>
<pdfrwt beam="1">  1        2 0.36268875E-01 0.59789535E+03</pdfrwt>
<pdfrwt beam="2">  1       -2 0.58321619E-01 0.59789535E+03</pdfrwt>
<totfact> 0.49317359E+02</totfact>
</mgrwt>
<rwgt>
<wgt id='morphing_basis_vector_1'> +3.0492443e-04 </wgt>
<wgt id='morphing_basis_vector_2'> +2.7571849e-04 </wgt>
<wgt id='morphing_basis_vector_3'> +2.0979616e-04 </wgt>
<wgt id='morphing_basis_vector_4'> +5.9392766e-05 </wgt>
<wgt id='morphing_basis_vector_5'> +1.3637361e-04 </wgt>
</rwgt>
</event>
<event>
 4      1 +1.0153100e-05 5.45190800e+02 7.81860800e-03 9.30397400e-02
        2 -1    0    0  501    0 +0.0000000000e+00 +0.0000000000e+00 +3.8706959909e+02 3.8706959909e+02 0.0000000000e+00 0.0000e+00 -1.0000e+00
       -2 -1    0    0    0  501 -0.0000000000e+00 -0.0000000000e+00 -1.9197647678e+02 1.9197647678e+02 0.0000000000e+00 0.0000e+00 1.0000e+00
      -13  1    1    2    0    0 +5.5612235663e+01 -6.7534508128e+01 -1.7666119797e+02 1.9713652480e+02 0.0000000000e+00 0.0000e+00 1.0000e+00
       13  1    1    2    0    0 -5.5612235663e+01 +6.7534508128e+01 +3.7175432028e+02 3.8190955106e+02 0.0000000000e+00 0.0000e+00 -1.0000e+00
<mgrwt>
<rscale>  0 0.54519082E+03</rscale>
<asrwt>0</asrwt>
<pdfrwt beam="1">  1        2 0.59549169E-01 0.54519082E+03</pdfrwt>
<pdfrwt beam="2">  1       -2 0.29534843E-01 0.54519082E+03</pdfrwt>
<totfact> 0.10112963E+03</totfact>
</mgrwt>
<rwgt>
<wgt id='morphing_basis_vector_1'> +1.9696352e-04 </wgt>
<wgt id='morphing_basis_vector_2'> +1.0974019e-04 </wgt>
<wgt id='morphing_basis_vector_3'> +1.4867552e-04 </wgt>
<wgt id='morphing_basis_vector_4'> +5.7163257e-05 </wgt>
<wgt id='morphing_basis_vector_5'> +8.3587662e-05 </wgt>
</rwgt>
</event>
<event>
 4      1 +1.0153100e-05 5.80775700e+02 7.81860800e-03 9.23525400e-02
        2 -1    0    0  501    0 +0.0000000000e+00 +0.0000000000e+00 +2.1923613480e+02 2.1923613480e+02 0.0000000000e+00 0.0000e+00 -1.0000e+00
       -2 -1    0    0    0  501 -0.0000000000e+00 -0.0000000000e+00 -3.8463135568e+02 3.8463135568e+02 0.0000000000e+00 0.0000e+00 1.0000e+00
      -13  1    1    2    0    0 +1.3657951952e+02 -2.4105507723e+02 -1.7312434331e+02 3.2670101569e+02 0.0000000000e+00 0.0000e+00 1.0000e+00
       13  1    1    2    0    0 -1.3657951952e+02 +2.4105507723e+02 +7.7291224260e+00 2.7716647478e+02 0.0000000000e+00 0.0000e+00 -1.0000e+00
<mgrwt>
<rscale>  0 0.58077566E+03</rscale>
<asrwt>0</asrwt>
<pdfrwt beam="1">  1        2 0.33728636E-01 0.58077566E+03</pdfrwt>
<pdfrwt beam="2">  1       -2 0.59174054E-01 0.58077566E+03</pdfrwt>
<totfact> 0.52035094E+02</totfact>
</mgrwt>
<rwgt>
<wgt id='morphing_basis_vector_1'> +2.4324195e-04 </wgt>
<wgt id='morphing_basis_vector_2'> +1.4365870e-04 </wgt>
<wgt id='morphing_basis_vector_3'> +1.8765409e-04 </wgt>
<wgt id='morphing_basis_vector_4'> +7.6546229e-05 </wgt>
<wgt id='morphing_basis_vector_5'> +1.1714927e-04 </wgt>
</rwgt>
</event>
<event>
 4      1 +1.0153100e-05 5.61727900e+02 7.81860800e-03 9.27136500e-02
        2 -1    0    0  501    0 +0.0000000000e+00 +0.0000000000e+00 +9.1146137161e+02 9.1146137161e+02 0.0000000000e+00 0.0000e+00 1.0000e+00
       -2 -1    0    0    0  501 -0.0000000000e+00 -0.0000000000e+00 -8.6547352280e+01 8.6547352280e+01 0.0000000000e+00 0.0000e+00 -1.0000e+00
      -13  1    1    2    0    0 +1.6241490273e+02 -1.2422139622e+02 +7.0360244022e+01 2.1624088384e+02 0.0000000000e+00 0.0000e+00 -1.0000e+00
       13  1    1    2    0    0 -1.6241490273e+02 +1.2422139622e+02 +7.5455377530e+02 7.8176784005e+02 0.0000000000e+00 0.0000e+00 1.0000e+00
<mgrwt>
<rscale>  0 0.56172794E+03</rscale>
<asrwt>0</asrwt>
<pdfrwt beam="1">  1        2 0.14022482E+00 0.56172794E+03</pdfrwt>
<pdfrwt beam="2">  1       -2 0.13314978E-01 0.56172794E+03</pdfrwt>
<totfact> 0.13751382E+03</totfact>
</mgrwt>
<rwgt>
<wgt id='morphing_basis_vector_1'> +2.1667849e-04 </wgt>
<wgt id='morphing_basis_vector_2'> +1.2212299e-04 </wgt>
<wgt id='morphing_basis_vector_3'> +1.6590788e-04 </wgt>
<wgt id='morphing_basis_vector_4'> +6.6222595e-05 </wgt>
<wgt id='morphing_basis_vector_5'> +9.8212387e-05 </wgt>
</rwgt>
</event>
<event>
 4      1 +1.0153100e-05 5.38464000e+02 7.81860800e-03 9.31759200e-02
        2 -1    0    0  501    0 +0.0000000000e+00 +0.0000000000e+00 +2.8549279892e+03 2.8549279892e+03 0.0000000000e+00 0.0000e+00 1.0000e+00
       -2 -1    0    0    0  501 -0.0000000000e+00 -0.0000000000e+00 -2.5389734017e+01 2.5389734017e+01 0.0000000000e+00 0.0000e+00 -1.0000e+00
      -13  1    1    2    0    0 +1.9490142368e+02 -1.8351519735e+02 +1.2614559399e+03 1.2895485570e+03 0.0000000000e+00 0.0000e+00 1.0000e+00
       13  1    1    2    0    0 -1.9490142368e+02 +1.8351519735e+02 +1.5680823153e+03 1.5907691662e+03 0.0000000000e+00 0.0000e+00 -1.0000e+00
<mgrwt>
<rscale>  0 0.53846397E+03</rscale>
<asrwt>0</asrwt>
<pdfrwt beam="1">  1        2 0.43921944E+00 0.53846397E+03</pdfrwt>
<pdfrwt beam="2">  1       -2 0.39061152E-02 0.53846397E+03</pdfrwt>
<totfact> 0.71613062E+02</totfact>
</mgrwt>
<rwgt>
<wgt id='morphing_basis_vector_1'> +1.9374487e-04 </wgt>
<wgt id='morphing_basis_vector_2'> +1.1857994e-04 </wgt>
<wgt id='morphing_basis_vector_3'> +1.4108515e-04 </wgt>
<wgt id='morphing_basis_vector_4'> +5.1326817e-05 </wgt>
<wgt id='morphing_basis_vector_5'> +7.8207691e-05 </wgt>
</rwgt>
</event>
<event>
 4      1 +1.0153100e-05 6.14407300e+02 7.81860800e-03 9.17494200e-02
        2 -1    0    0  501    0 +0.0000000000e+00 +0.0000000000e+00 +8.6289207664e+02 8.6289207664e+02 0.0000000000e+00 0.0000e+00 -1.0000e+00
       -2 -1    0    0    0  501 -0.0000000000e+00 -0.0000000000e+00 -1.0936951085e+02 1.0936951085e+02 0.0000000000e+00 0.0000e+00 1.0000e+00
      -13  1    1    2    0    0 -3.7340056319e+01 -2.8044396556e+02 +1.8732428465e+02 3.3931325533e+02 0.0000000000e+00 0.0000e+00 1.0000e+00
       13  1    1    2    0    0 +3.7340056319e+01 +2.8044396556e+02 +5.6619828114e+02 6.3294833216e+02 0.0000000000e+00 0.0000e+00 -1.0000e+00
<mgrwt>
<rscale>  0 0.61440731E+03</rscale>
<asrwt>0</asrwt>
<pdfrwt beam="1">  1        2 0.13275262E+00 0.61440731E+03</pdfrwt>
<pdfrwt beam="2">  1       -2 0.16826079E-01 0.61440731E+03</pdfrwt>
<totfact> 0.10129450E+03</totfact>
</mgrwt>
<rwgt>
<wgt id='morphing_basis_vector_1'> +2.9105504e-04 </wgt>
<wgt id='morphing_basis_vector_2'> +1.7131001e-04 </wgt>
<wgt id='morphing_basis_vector_3'> +2.3207035e-04 </wgt>
<wgt id='morphing_basis_vector_4'> +1.0145491e-04 </wgt>
<wgt id='morphing_basis_vector_5'> +1.5642680e-04 </wgt>
</rwgt>
</event>
<event>
 4      1 +1.0153100e-05 5.41555900e+02 7.81860800e-03 9.31130600e-02
        2 -1    0    0  501    0 +0.0000000000e+00 +0.0000000000e+00 +2.8092638033e+02 2.8092638033e+02 0.0000000000e+00 0.0000e+00 -1.0000e+00
       -2 -1    0    0    0  501 -0.0000000000e+00 -0.0000000000e+00 -2.6099615195e+02 2.6099615195e+02 0.0000000000e+00 0.0000e+00 1.0000e+00
      -13  1    1    2    0    0 -8.3685340272e+01 -1.5041506762e+02 -1.9920455802e+02 2.6326865495e+02 0.0000000000e+00 0.0000e+00 1.0000e+00
       13  1    1    2    0    0 +8.3685340272e+01 +1.5041506762e+02 +2.1913478640e+02 2.7865387733e+02 0.0000000000e+00 0.0000e+00 -1.0000e+00
<mgrwt>
<rscale>  0 0.54155592E+03</rscale>
<asrwt>0</asrwt>
<pdfrwt beam="1">  1        2 0.43219443E-01 0.54155592E+03</pdfrwt>
<pdfrwt beam="2">  1       -2 0.40153254E-01 0.54155592E+03</pdfrwt>
<totfact> 0.83349024E+02</totfact>
</mgrwt>
<rwgt>
<wgt id='morphing_basis_vector_1'> +1.9300064e-04 </wgt>
<wgt id='morphing_basis_vector_2'> +1.0768249e-04 </wgt>
<wgt id='morphing_basis_vector_3'> +1.4505734e-04 </wgt>
<wgt id='morphing_basis_vector_4'> +5.5203726e-05 </wgt>
<wgt id='morphing_basis_vector_5'> +8.0590106e-05 </wgt>
</rwgt>
</event>
<event>
 4      1 +1.0153100e-05 5.26397600e+02 7.81860800e-03 9.34256200e-02
        2 -1    0    0  501    0 +0.0000000000e+00 +0.0000000000e+00 +5.9209764895e+02 5.9209764895e+02 0.0000000000e+00 0.0000e+00 -1.0000e+00
       -2 -1    0    0    0  501 -0.0000000000e+00 -0.0000000000e+00 -1.1699692612e+02 1.1699692612e+02 0.0000000000e+00 0.0000e+00 1.0000e+00
      -13  1    1    2    0    0 -6.7448002706e+01 +7.9735280054e+01 -8.7890950909e+01 1.3649823151e+02 0.0000000000e+00 0.0000e+00 1.0000e+00
       13  1    1    2    0    0 +6.7448002706e+01 -7.9735280054e+01 +5.6299167374e+02 5.7259634356e+02 0.0000000000e+00 0.0000e+00 -1.0000e+00
<mgrwt>
<rscale>  0 0.52639759E+03</rscale>
<asrwt>0</asrwt>
<pdfrwt beam="1">  1        2 0.91091944E-01 0.52639759E+03</pdfrwt>
<pdfrwt beam="2">  1       -2 0.17999527E-01 0.52639759E+03</pdfrwt>
<totfact> 0.14411607E+03</totfact>
</mgrwt>
<rwgt>
<wgt id='morphing_basis_vector_1'> +1.7663877e-04 </wgt>
<wgt id='morphing_basis_vector_2'> +9.7793025e-05 </wgt>
<wgt id='morphing_basis_vector_3'> +1.3084715e-04 </wgt>
<wgt id='morphing_basis_vector_4'> +4.7853535e-05 </wgt>
<wgt id='morphing_basis_vector_5'> +6.8864026e-05 </wgt>
</rwgt>
</event>
<event>
 4      1 +1.0153100e-05 5.99446100e+02 7.81860800e-03 9.20125500e-02
        2 -1    0    0  501    0 +0.0000000000e+00 +0.0000000000e+00 +1.1748282502e+03 1.1748282502e+03 0.0000000000e+00 0.0000e+00 1.0000e+00
       -2 -1    0    0    0  501 -0.0000000000e+00 -0.0000000000e+00 -7.6465575889e+01 7.6465575889e+01 0.0000000000e+00 0.0000e+00 -1.0000e+00
      -13  1    1    2    0    0 +2.2505304278e+02 +1.8646199081e+02 +4.1045098509e+02 5.0387196513e+02 0.0000000000e+00 0.0000e+00 -1.0000e+00
       13  1    1    2    0    0 -2.2505304278e+02 -1.8646199081e+02 +6.8791168925e+02 7.4742186099e+02 0.0000000000e+00 0.0000e+00 1.0000e+00
<mgrwt>
<rscale>  0 0.59944614E+03</rscale>
<asrwt>0</asrwt>
<pdfrwt beam="1">  1        2 0.18074279E+00 0.59944614E+03</pdfrwt>
<pdfrwt beam="2">  1       -2 0.11763936E-01 0.59944614E+03</pdfrwt>
<totfact> 0.11595589E+03</totfact>
</mgrwt>
<rwgt>
<wgt id='morphing_basis_vector_1'> +2.7053088e-04 </wgt>
<wgt id='morphing_basis_vector_2'> +1.6348115e-04 </wgt>
<wgt id='morphing_basis_vector_3'> +2.1144577e-04 </wgt>
<wgt id='morphing_basis_vector_4'> +8.8494062e-05 </wgt>
<wgt id='morphing_basis_vector_5'> +1.3798483e-04 </wgt>
</rwgt>
</event>
<event>
 4      1 +1.0153100e-05 5.57128400e+02 7.81860800e-03 9.28031400e-02
        2 -1    0    0  501    0 +0.0000000000e+00 +0.0000000000e+00 +2.5233638039e+03 2.5233638039e+03 0.0000000000e+00 0.0000e+00 -1.0000e+00
       -2 -1    0    0    0  501 -0.0000000000e+00 -0.0000000000e+00 -3.0751816258e+01 3.0751816258e+01 0.0000000000e+00 0.0000e+00 1.0000e+00
      -13  1    1    2    0    0 -3.8387596535e+01 +2.7378762667e+02 +1.0898467536e+03 1.1243661407e+03 0.0000000000e+00 0.0000e+00 1.0000e+00
       13  1    1    2    0    0 +3.8387596535e+01 -2.7378762667e+02 +1.4027652340e+03 1.4297494794e+03 0.0000000000e+00 0.0000e+00 -1.0000e+00
<mgrwt>
<rscale>  0 0.55712842E+03</rscale>
<asrwt>0</asrwt>
<pdfrwt beam="1">  1        2 0.38820965E+00 0.55712842E+03</pdfrwt>
<pdfrwt beam="2">  1       -2 0.47310506E-02 0.55712842E+03</pdfrwt>
<totfact> 0.84525442E+02</totfact>
</mgrwt>
<rwgt>
<wgt id='morphing_basis_vector_1'> +2.1534179e-04 </wgt>
<wgt id='morphing_basis_vector_2'> +1.3192637e-04 </wgt>
<wgt id='morphing_basis_vector_3'> +1.6030241e-04 </wgt>
<wgt id='morphing_basis_vector_4'> +6.0924505e-05 </wgt>
<wgt id='morphing_basis_vector_5'> +9.4068627e-05 </wgt>
</rwgt>
</event>
<event>
 4      1 +1.0153100e-05 5.77814900e+02 7.81860800e-03 9.24077000e-02
        2 -1    0    0  501    0 +0.0000000000e+00 +0.0000000000e+00 +1.8818189035e+02 1.8818189035e+02 0.0000000000e+00 0.0000e+00 -1.0000e+00
       -2 -1    0    0    0  501 -0.0000000000e+00 -0.0000000000e+00 -4.4354707281e+02 4.4354707281e+02 0.0000000000e+00 0.0000e+00 1.0000e+00
      -13  1    1    2    0    0 +2.7029946125e+02 +2.0926809290e+01 -2.3683708070e+02 3.5998823994e+02 0.0000000000e+00 0.0000e+00 1.0000e+00
       13  1    1    2    0    0 -2.7029946125e+02 -2.0926809290e+01 -1.8528101758e+01 2.7174072322e+02 0.0000000000e+00 0.0000e+00 -1.0000e+00
<mgrwt>
<rscale>  0 0.57781494E+03</rscale>
<asrwt>0</asrwt>
<pdfrwt beam="1">  1        2 0.28951060E-01 0.57781494E+03</pdfrwt>
<pdfrwt beam="2">  1       -2 0.68238011E-01 0.57781494E+03</pdfrwt>
<totfact> 0.46172258E+02</totfact>
</mgrwt>
<rwgt>
<wgt id='morphing_basis_vector_1'> +2.3882879e-04 </wgt>
<wgt id='morphing_basis_vector_2'> +1.3977106e-04 </wgt>
<wgt id='morphing_basis_vector_3'> +1.8411814e-04 </wgt>
<wgt id='morphing_basis_vector_4'> +7.4966526e-05 </wgt>
<wgt id='morphing_basis_vector_5'> +1.1405406e-04 </wgt>
</rwgt>
</event>
<event>
 4      1 +1.0153100e-05 5.63043800e+02 7.81860800e-03 9.26882200e-02
        2 -1    0    0  501    0 +0.0000000000e+00 +0.0000000000e+00 +1.2039473187e+03 1.2039473187e+03 0.0000000000e+00 0.0000e+00 -1.0000e+00
       -2 -1    0    0    0  501 -0.0000000000e+00 -0.0000000000e+00 -6.5828946051e+01 6.5828946051e+01 0.0000000000e+00 0.0000e+00 1.0000e+00
      -13  1    1    2    0    0 -1.6242533665e+02 -1.1793463937e+02 +1.2389844059e+02 2.3588427826e+02 0.0000000000e+00 0.0000e+00 1.0000e+00
       13  1    1    2    0    0 +1.6242533665e+02 +1.1793463937e+02 +1.0142199320e+03 1.0338919865e+03 0.0000000000e+00 0.0000e+00 -1.0000e+00
<mgrwt>
<rscale>  0 0.56304381E+03</rscale>
<asrwt>0</asrwt>
<pdfrwt beam="1">  1        2 0.18522265E+00 0.56304381E+03</pdfrwt>
<pdfrwt beam="2">  1       -2 0.10127531E-01 0.56304381E+03</pdfrwt>
<totfact> 0.14135480E+03</totfact>
</mgrwt>
<rwgt>
<wgt id='morphing_basis_vector_1'> +2.1826082e-04 </wgt>
<wgt id='morphing_basis_vector_2'> +1.2299093e-04 </wgt>
<wgt id='morphing_basis_vector_3'> +1.6735373e-04 </wgt>
<wgt id='morphing_basis_vector_4'> +6.7019281e-05 </wgt>
<wgt id='morphing_basis_vector_5'> +9.9445234e-05 </wgt>
</rwgt>
</event>
<event>
 4      1 +1.0153100e-05 5.82024900e+02 7.81860800e-03 9.23293700e-02
        2 -1    0    0  501    0 +0.0000000000e+00 +0.0000000000e+00 +6.7388341500e+02 6.7388341500e+02 0.0000000000e+00 0.0000e+00 -1.0000e+00
       -2 -1    0    0    0  501 -0.0000000000e+00 -0.0000000000e+00 -1.2567197528e+02 1.2567197528e+02 0.0000000000e+00 0.0000e+00 1.0000e+00
      -13  1    1    2    0    0 +3.2262451772e+01 -2.8681200136e+02 +2.2295746044e+02 3.6470812863e+02 0.0000000000e+00 0.0000e+00 1.0000e+00
       13  1    1    2    0    0 -3.2262451772e+01 +2.8681200136e+02 +3.2525397928e+02 4.3484726164e+02 0.0000000000e+00 0.0000e+00 -1.0000e+00
<mgrwt>
<rscale>  0 0.58202495E+03</rscale>
<asrwt>0</asrwt>
<pdfrwt beam="1">  1        2 0.10367437E+00 0.58202495E+03</pdfrwt>
<pdfrwt beam="2">  1       -2 0.19334150E-01 0.58202495E+03</pdfrwt>
<totfact> 0.10993131E+03</totfact>
</mgrwt>
<rwgt>
<wgt id='morphing_basis_vector_1'> +2.4747437e-04 </wgt>
<wgt id='morphing_basis_vector_2'> +1.5261542e-04 </wgt>
<wgt id='morphing_basis_vector_3'> +1.8904750e-04 </wgt>
<wgt id='morphing_basis_vector_4'> +7.5546704e-05 </wgt>
<wgt id='morphing_basis_vector_5'> +1.1849870e-04 </wgt>
</rwgt>
</event>
<event>
 4      1 +1.0153100e-05 5.24358000e+02 7.81860800e-03 9.34685300e-02
        2 -1    0    0  501    0 +0.0000000000e+00 +0.0000000000e+00 +7.2352047893e+02 7.2352047893e+02 0.0000000000e+00 0.0000e+00 -1.0000e+00
       -2 -1    0    0    0  501 -0.0000000000e+00 -0.0000000000e+00 -9.5004663673e+01 9.5004663673e+01 0.0000000000e+00 0.0000e+00 1.0000e+00
      -13  1    1    2    0    0 -1.1336362368e+02 +1.2745255602e+01 -5.4231963807e+01 1.2631254337e+02 0.0000000000e+00 0.0000e+00 1.0000e+00
       13  1    1    2    0    0 +1.1336362368e+02 -1.2745255602e+01 +6.8274777906e+02 6.9221259923e+02 0.0000000000e+00 0.0000e+00 -1.0000e+00
<mgrwt>
<rscale>  0 0.52435797E+03</rscale>
<asrwt>0</asrwt>
<pdfrwt beam="1">  1        2 0.11131084E+00 0.52435797E+03</pdfrwt>
<pdfrwt beam="2">  1       -2 0.14616103E-01 0.52435797E+03</pdfrwt>
<totfact> 0.15909639E+03</totfact>
</mgrwt>
<rwgt>
<wgt id='morphing_basis_vector_1'> +1.7454605e-04 </wgt>
<wgt id='morphing_basis_vector_2'> +9.6581679e-05 </wgt>
<wgt id='morphing_basis_vector_3'> +1.2902058e-04 </wgt>
<wgt id='morphing_basis_vector_4'> +4.6912962e-05 </wgt>
<wgt id='morphing_basis_vector_5'> +6.7381199e-05 </wgt>
</rwgt>
</event>
<event>
 4      1 +1.0153100e-05 5.48491800e+02 7.81860800e-03 9.29736700e-02
        2 -1    0    0  501    0 +0.0000000000e+00 +0.0000000000e+00 +4.4944478090e+02 4.4944478090e+02 0.0000000000e+00 0.0000e+00 1.0000e+00
       -2 -1    0    0    0  501 -0.0000000000e+00 -0.0000000000e+00 -1.6734160280e+02 1.6734160280e+02 0.0000000000e+00 0.0000e+00 -1.0000e+00
      -13  1    1    2    0    0 -8.7557632841e+01 -1.0166686865e+02 +4.1001564258e+02 4.3141084642e+02 0.0000000000e+00 0.0000e+00 1.0000e+00
       13  1    1    2    0    0 +8.7557632841e+01 +1.0166686865e+02 -1.2791246448e+02 1.8537553727e+02 0.0000000000e+00 0.0000e+00 -1.0000e+00
<mgrwt>
<rscale>  0 0.54849179E+03</rscale>
<asrwt>0</asrwt>
<pdfrwt beam="1">  1        2 0.69145351E-01 0.54849179E+03</pdfrwt>
<pdfrwt beam="2">  1       -2 0.25744862E-01 0.54849179E+03</pdfrwt>
<totfact> 0.10846333E+03</totfact>
</mgrwt>
<rwgt>
<wgt id='morphing_basis_vector_1'> +2.6979930e-04 </wgt>
<wgt id='morphing_basis_vector_2'> +3.2649662e-04 </wgt>
<wgt id='morphing_basis_vector_3'> +1.3892507e-04 </wgt>
<wgt id='morphing_basis_vector_4'> +1.8052640e-05 </wgt>
<wgt id='morphing_basis_vector_5'> +8.7978423e-05 </wgt>
</rwgt>
</event>
<event>
 4      1 +1.0153100e-05 5.31211100e+02 7.81860800e-03 9.33251600e-02
        2 -1    0    0  501    0 +0.0000000000e+00 +0.0000000000e+00 +5.3242024999e+02 5.3242024999e+02 0.0000000000e+00 0.0000e+00 1.0000e+00
       -2 -1    0    0    0  501 -0.0000000000e+00 -0.0000000000e+00 -1.3250118968e+02 1.3250118968e+02 0.0000000000e+00 0.0000e+00 -1.0000e+00
      -13  1    1    2    0    0 -1.5392602269e+02 +1.7914393385e+02 +4.7885730879e+01 2.4099546203e+02 0.0000000000e+00 0.0000e+00 -1.0000e+00
       13  1    1    2    0    0 +1.5392602269e+02 -1.7914393385e+02 +3.5203332942e+02 4.2392597764e+02 0.0000000000e+00 0.0000e+00 1.0000e+00
<mgrwt>
<rscale>  0 0.53121113E+03</rscale>
<asrwt>0</asrwt>
<pdfrwt beam="1">  1        2 0.81910806E-01 0.53121113E+03</pdfrwt>
<pdfrwt beam="2">  1       -2 0.20384799E-01 0.53121113E+03</pdfrwt>
<totfact> 0.13264922E+03</totfact>
</mgrwt>
<rwgt>
<wgt id='morphing_basis_vector_1'> +1.8257563e-04 </wgt>
<wgt id='morphing_basis_vector_2'> +1.0354851e-04 </wgt>
<wgt id='morphing_basis_vector_3'> +1.3499793e-04 </wgt>
<wgt id='morphing_basis_vector_4'> +4.9647164e-05 </wgt>
<wgt id='morphing_basis_vector_5'> +7.2477927e-05 </wgt>
</rwgt>
</event>
<event>
 4      1 +1.0153100e-05 5.52128500e+02 7.81860800e-03 9.29014600e-02
        2 -1    0    0  501    0 +0.0000000000e+00 +0.0000000000e+00 +1.5897037114e+03 1.5897037114e+03 0.0000000000e+00 0.0000e+00 -1.0000e+00
       -2 -1    0    0    0  501 -0.0000000000e+00 -0.0000000000e+00 -4.7940670527e+01 4.7940670527e+01 0.0000000000e+00 0.0000e+00 1.0000e+00
      -13  1    1    2    0    0 -9.2359332326e+01 -2.2435245181e+02 +3.8022591294e+02 4.5103881626e+02 0.0000000000e+00 0.0000e+00 1.0000e+00
       13  1    1    2    0    0 +9.2359332326e+01 +2.2435245181e+02 +1.1615371279e+03 1.1866055656e+03 0.0000000000e+00 0.0000e+00 -1.0000e+00
<mgrwt>
<rscale>  0 0.55212847E+03</rscale>
<asrwt>0</asrwt>
<pdfrwt beam="1">  1        2 0.24456976E+00 0.55212847E+03</pdfrwt>
<pdfrwt beam="2">  1       -2 0.73754890E-02 0.55212847E+03</pdfrwt>
<totfact> 0.14142107E+03</totfact>
</mgrwt>
<rwgt>
<wgt id='morphing_basis_vector_1'> +2.0587226e-04 </wgt>
<wgt id='morphing_basis_vector_2'> +1.1736335e-04 </wgt>
<wgt id='morphing_basis_vector_3'> +1.5557180e-04 </wgt>
<wgt id='morphing_basis_vector_4'> +6.0348424e-05 </wgt>
<wgt id='morphing_basis_vector_5'> +8.9545167e-05 </wgt>
</rwgt>
</event>
<event>
 4      1 +1.0153100e-05 5.20359000e+02 7.81860800e-03 9.35532700e-02
        2 -1    0    0  501    0 +0.0000000000e+00 +0.0000000000e+00 +5.4086631089e+02 5.4086631089e+02 0.0000000000e+00 0.0000e+00 1.0000e+00
       -2 -1    0    0    0  501 -0.0000000000e+00 -0.0000000000e+00 -1.2515730774e+02 1.2515730774e+02 0.0000000000e+00 0.0000e+00 -1.0000e+00
      -13  1    1    2    0    0 +1.7556644642e+02 +6.0672391285e+01 +4.4102918198e+02 4.7855141367e+02 0.0000000000e+00 0.0000e+00 1.0000e+00
       13  1    1    2    0    0 -1.7556644642e+02 -6.0672391285e+01 -2.5320178826e+01 1.8747220495e+02 0.0000000000e+00 0.0000e+00 -1.0000e+00
<mgrwt>
<rscale>  0 0.52035900E+03</rscale>
<asrwt>0</asrwt>
<pdfrwt beam="1">  1        2 0.83210200E-01 0.52035900E+03</pdfrwt>
<pdfrwt beam="2">  1       -2 0.19254971E-01 0.52035900E+03</pdfrwt>
<totfact> 0.14317679E+03</totfact>
</mgrwt>
<rwgt>
<wgt id='morphing_basis_vector_1'> +2.1739039e-04 </wgt>
<wgt id='morphing_basis_vector_2'> +2.3987747e-04 </wgt>
<wgt id='morphing_basis_vector_3'> +1.1069988e-04 </wgt>
<wgt id='morphing_basis_vector_4'> +2.2451731e-05 </wgt>
<wgt id='morphing_basis_vector_5'> +6.6091447e-05 </wgt>
</rwgt>
</event>
<event>
 4      1 +1.0153100e-05 5.80483600e+02 7.81860800e-03 9.23579700e-02
        2 -1    0    0  501    0 +0.0000000000e+00 +0.0000000000e+00 +5.2164296370e+02 5.2164296370e+02 0.0000000000e+00 0.0000e+00 1.0000e+00
       -2 -1    0    0    0  501 -0.0000000000e+00 -0.0000000000e+00 -1.6149035868e+02 1.6149035868e+02 0.0000000000e+00 0.0000e+00 -1.0000e+00
      -13  1    1    2    0    0 -1.1996255900e+02 -2.7521973523e+01 -1.2925855461e+02 1.7848318837e+02 0.0000000000e+00 0.0000e+00 -1.0000e+00
       13  1    1    2    0    0 +1.1996255900e+02 +2.7521973523e+01 +4.8941115963e+02 5.0465013402e+02 0.0000000000e+00 0.0000e+00 1.0000e+00
<mgrwt>
<rscale>  0 0.58048362E+03</rscale>
<asrwt>0</asrwt>
<pdfrwt beam="1">  1        2 0.80252763E-01 0.58048362E+03</pdfrwt>
<pdfrwt beam="2">  1       -2 0.24844671E-01 0.58048362E+03</pdfrwt>
<totfact> 0.97358589E+02</totfact>
</mgrwt>
<rwgt>
<wgt id='morphing_basis_vector_1'> +2.4033621e-04 </wgt>
<wgt id='morphing_basis_vector_2'> +1.3561474e-04 </wgt>
<wgt id='morphing_basis_vector_3'> +1.8744142e-04 </wgt>
<wgt id='morphing_basis_vector_4'> +7.8130980e-05 </wgt>
<wgt id='morphing_basis_vector_5'> +1.1681234e-04 </wgt>
</rwgt>
</event>
<event>
 4      1 +1.0153100e-05 5.39349300e+02 7.81860800e-03 9.31578800e-02
        2 -1    0    0  501    0 +0.0000000000e+00 +0.0000000000e+00 +1.0475209981e+03 1.0475209981e+03 0.0000000000e+00 0.0000e+00 -1.0000e+00
       -2 -1    0    0    0  501 -0.0000000000e+00 -0.0000000000e+00 -6.9425254957e+01 6.9425254957e+01 0.0000000000e+00 0.0000e+00 1.0000e+00
      -13  1    1    2    0    0 -2.5577593960e+02 -7.3625549676e+01 +3.9919882824e+02 4.7979345276e+02 0.0000000000e+00 0.0000e+00 1.0000e+00
       13  1    1    2    0    0 +2.5577593960e+02 +7.3625549676e+01 +5.7889691489e+02 6.3715280028e+02 0.0000000000e+00 0.0000e+00 -1.0000e+00
<mgrwt>
<rscale>  0 0.53934928E+03</rscale>
<asrwt>0</asrwt>
<pdfrwt beam="1">  1        2 0.16115707E+00 0.53934928E+03</pdfrwt>
<pdfrwt beam="2">  1       -2 0.10680809E-01 0.53934928E+03</pdfrwt>
<totfact> 0.16062574E+03</totfact>
</mgrwt>
<rwgt>
<wgt id='morphing_basis_vector_1'> +1.9392880e-04 </wgt>
<wgt id='morphing_basis_vector_2'> +1.1670542e-04 </wgt>
<wgt id='morphing_basis_vector_3'> +1.4213672e-04 </wgt>
<wgt id='morphing_basis_vector_4'> +5.2199322e-05 </wgt>
<wgt id='morphing_basis_vector_5'> +7.8894080e-05 </wgt>
</rwgt>
</event>
<event>
 4      1 +1.0153100e-05 5.54036100e+02 7.81860800e-03 9.28638200e-02
        2 -1    0    0  501    0 +0.0000000000e+00 +0.0000000000e+00 +1.1448148276e+03 1.1448148276e+03 0.0000000000e+00 0.0000e+00 -1.0000e+00
       -2 -1    0    0    0  501 -0.0000000000e+00 -0.0000000000e+00 -6.7031807182e+01 6.7031807182e+01 0.0000000000e+00 0.0000e+00 1.0000e+00
      -13  1    1    2    0    0 +1.3382920745e+02 +1.0271285047e+02 +5.8286931937e+01 1.7848684224e+02 0.0000000000e+00 0.0000e+00 1.0000e+00
       13  1    1    2    0    0 -1.3382920745e+02 -1.0271285047e+02 +1.0194960885e+03 1.0333597926e+03 0.0000000000e+00 0.0000e+00 -1.0000e+00
<mgrwt>
<rscale>  0 0.55403612E+03</rscale>
<asrwt>0</asrwt>
<pdfrwt beam="1">  1        2 0.17612534E+00 0.55403612E+03</pdfrwt>
<pdfrwt beam="2">  1       -2 0.10312587E-01 0.55403612E+03</pdfrwt>
<totfact> 0.14865251E+03</totfact>
</mgrwt>
<rwgt>
<wgt id='morphing_basis_vector_1'> +2.0727272e-04 </wgt>
<wgt id='morphing_basis_vector_2'> +1.1608877e-04 </wgt>
<wgt id='morphing_basis_vector_3'> +1.5770567e-04 </wgt>
<wgt id='morphing_basis_vector_4'> +6.1917103e-05 </wgt>
<wgt id='morphing_basis_vector_5'> +9.1208496e-05 </wgt>
</rwgt>
</event>
<event>
 4      1 +1.0153100e-05 5.38074300e+02 7.81860800e-03 9.31838800e-02
        2 -1    0    0  501    0 +0.0000000000e+00 +0.0000000000e+00 +3.8569760346e+02 3.8569760346e+02 0.0000000000e+00 0.0000e+00 -1.0000e+00
       -2 -1    0    0    0  501 -0.0000000000e+00 -0.0000000000e+00 -1.8766249945e+02 1.8766249945e+02 0.0000000000e+00 0.0000e+00 1.0000e+00
      -13  1    1    2    0    0 -5.7051301477e+01 +2.5909914442e+02 +5.1437868489e+01 2.7024631718e+02 0.0000000000e+00 0.0000e+00 1.0000e+00
       13  1    1    2    0    0 +5.7051301477e+01 -2.5909914442e+02 +1.4659723552e+02 3.0311378573e+02 0.0000000000e+00 0.0000e+00 -1.0000e+00
<mgrwt>
<rscale>  0 0.53807426E+03</rscale>
<asrwt>0</asrwt>
<pdfrwt beam="1">  1        2 0.59338093E-01 0.53807426E+03</pdfrwt>
<pdfrwt beam="2">  1       -2 0.28871154E-01 0.53807426E+03</pdfrwt>
<totfact> 0.10564649E+03</totfact>
</mgrwt>
<rwgt>
<wgt id='morphing_basis_vector_1'> +1.9243546e-04 </wgt>
<wgt id='morphing_basis_vector_2'> +1.1558622e-04 </wgt>
<wgt id='morphing_basis_vector_3'> +1.4091064e-04 </wgt>
<wgt id='morphing_basis_vector_4'> +5.1624691e-05 </wgt>
<wgt id='morphing_basis_vector_5'> +7.7874019e-05 </wgt>
</rwgt>
</event>
<event>
 4      1 +1.0153100e-05 5.79824600e+02 7.81860800e-03 9.23702200e-02
        2 -1    0    0  501    0 +0.0000000000e+00 +0.0000000000e+00 +1.5939802822e+02 1.5939802822e+02 0.0000000000e+00 0.0000e+00 1.0000e+00
       -2 -1    0    0    0  501 -0.0000000000e+00 -0.0000000000e+00 -5.2729102435e+02 5.2729102435e+02 0.0000000000e+00 0.0000e+00 -1.0000e+00
      -13  1    1    2    0    0 -1.7115959572e+01 -2.4125956721e+02 -3.7325017251e+02 4.4476378688e+02 0.0000000000e+00 0.0000e+00 -1.0000e+00
       13  1    1    2    0    0 +1.7115959572e+01 +2.4125956721e+02 +5.3571763745e+00 2.4192526570e+02 0.0000000000e+00 0.0000e+00 1.0000e+00
<mgrwt>
<rscale>  0 0.57982463E+03</rscale>
<asrwt>0</asrwt>
<pdfrwt beam="1">  1        2 0.24522773E-01 0.57982463E+03</pdfrwt>
<pdfrwt beam="2">  1       -2 0.81121697E-01 0.57982463E+03</pdfrwt>
<totfact> 0.38398696E+02</totfact>
</mgrwt>
<rwgt>
<wgt id='morphing_basis_vector_1'> +2.4018126e-04 </wgt>
<wgt id='morphing_basis_vector_2'> +1.3732495e-04 </wgt>
<wgt id='morphing_basis_vector_3'> +1.8660769e-04 </wgt>
<wgt id='morphing_basis_vector_4'> +7.7187790e-05 </wgt>
<wgt id='morphing_basis_vector_5'> +1.1612921e-04 </wgt>
</rwgt>
</event>
<event>
 4      1 +1.0153100e-05 5.34705900e+02 7.81860800e-03 9.32529300e-02
        2 -1    0    0  501    0 +0.0000000000e+00 +0.0000000000e+00 +4.2357240309e+02 4.2357240309e+02 0.0000000000e+00 0.0000e+00 1.0000e+00
       -2 -1    0    0    0  501 -0.0000000000e+00 -0.0000000000e+00 -1.6874944455e+02 1.6874944455e+02 0.0000000000e+00 0.0000e+00 -1.0000e+00
      -13  1    1    2    0    0 -1.2393914567e+02 +2.2558985055e+02 +2.0749145500e+02 3.3061215404e+02 0.0000000000e+00 0.0000e+00 -1.0000e+00
       13  1    1    2    0    0 +1.2393914567e+02 -2.2558985055e+02 +4.7331503534e+01 2.6170969360e+02 0.0000000000e+00 0.0000e+00 1.0000e+00
<mgrwt>
<rscale>  0 0.53470593E+03</rscale>
<asrwt>0</asrwt>
<pdfrwt beam="1">  1        2 0.65164985E-01 0.53470593E+03</pdfrwt>
<pdfrwt beam="2">  1       -2 0.25961453E-01 0.53470593E+03</pdfrwt>
<totfact> 0.11427779E+03</totfact>
</mgrwt>
<rwgt>
<wgt id='morphing_basis_vector_1'> +2.0119290e-04 </wgt>
<wgt id='morphing_basis_vector_2'> +1.5198624e-04 </wgt>
<wgt id='morphing_basis_vector_3'> +1.3455098e-04 </wgt>
<wgt id='morphing_basis_vector_4'> +4.3297966e-05 </wgt>
<wgt id='morphing_basis_vector_5'> +7.5577674e-05 </wgt>
</rwgt>
</event>
<event>
 4      1 +1.0153100e-05 5.33613400e+02 7.81860800e-03 9.32754500e-02
        2 -1    0    0  501    0 +0.0000000000e+00 +0.0000000000e+00 +2.6604996063e+02 2.6604996063e+02 0.0000000000e+00 0.0000e+00 -1.0000e+00
       -2 -1    0    0    0  501 -0.0000000000e+00 -0.0000000000e+00 -2.6756555142e+02 2.6756555142e+02 0.0000000000e+00 0.0000e+00 1.0000e+00
      -13  1    1    2    0    0 +1.7531304255e+02 -1.0902520066e+02 -1.6976926715e+02 2.6728778748e+02 0.0000000000e+00 0.0000e+00 1.0000e+00
       13  1    1    2    0    0 -1.7531304255e+02 +1.0902520066e+02 +1.6825367636e+02 2.6632772457e+02 0.0000000000e+00 0.0000e+00 -1.0000e+00
<mgrwt>
<rscale>  0 0.53361336E+03</rscale>
<asrwt>0</asrwt>
<pdfrwt beam="1">  1        2 0.40930763E-01 0.53361336E+03</pdfrwt>
<pdfrwt beam="2">  1       -2 0.41163931E-01 0.53361336E+03</pdfrwt>
<totfact> 0.84615020E+02</totfact>
</mgrwt>
<rwgt>
<wgt id='morphing_basis_vector_1'> +1.8455838e-04 </wgt>
<wgt id='morphing_basis_vector_2'> +1.0326852e-04 </wgt>
<wgt id='morphing_basis_vector_3'> +1.3738974e-04 </wgt>
<wgt id='morphing_basis_vector_4'> +5.1107112e-05 </wgt>
<wgt id='morphing_basis_vector_5'> +7.4297749e-05 </wgt>
</rwgt>
</event>
<event>
 4      1 +1.0153100e-05 5.52241600e+02 7.81860800e-03 9.28992200e-02
        2 -1    0    0  501    0 +0.0000000000e+00 +0.0000000000e+00 +1.6441738646e+02 1.6441738646e+02 0.0000000000e+00 0.0000e+00 -1.0000e+00
       -2 -1    0    0    0  501 -0.0000000000e+00 -0.0000000000e+00 -4.6371427079e+02 4.6371427079e+02 0.0000000000e+00 0.0000e+00 1.0000e+00
      -13  1    1    2    0    0 -1.7579566905e+02 +1.9588672548e+02 -5.4709736634e+01 2.6882872197e+02 0.0000000000e+00 0.0000e+00 1.0000e+00
       13  1    1    2    0    0 +1.7579566905e+02 -1.9588672548e+02 -2.4458714769e+02 3.5930293527e+02 0.0000000000e+00 0.0000e+00 -1.0000e+00
<mgrwt>
<rscale>  0 0.55224157E+03</rscale>
<asrwt>0</asrwt>
<pdfrwt beam="1">  1        2 0.25294983E-01 0.55224157E+03</pdfrwt>
<pdfrwt beam="2">  1       -2 0.71340657E-01 0.55224157E+03</pdfrwt>
<totfact> 0.49172657E+02</totfact>
</mgrwt>
<rwgt>
<wgt id='morphing_basis_vector_1'> +2.2455499e-04 </wgt>
<wgt id='morphing_basis_vector_2'> +1.7505285e-04 </wgt>
<wgt id='morphing_basis_vector_3'> +1.5247783e-04 </wgt>
<wgt id='morphing_basis_vector_4'> +4.9176310e-05 </wgt>
<wgt id='morphing_basis_vector_5'> +9.0049292e-05 </wgt>
</rwgt>
</event>
<event>
 4      1 +1.0153100e-05 5.70684200e+02 7.81860800e-03 9.25419900e-02
        2 -1    0    0  501    0 +0.0000000000e+00 +0.0000000000e+00 +8.7858310129e+02 8.7858310129e+02 0.0000000000e+00 0.0000e+00 -1.0000e+00
       -2 -1    0    0    0  501 -0.0000000000e+00 -0.0000000000e+00 -9.2672084043e+01 9.2672084043e+01 0.0000000000e+00 0.0000e+00 1.0000e+00
      -13  1    1    2    0    0 -1.1556004304e+01 +2.7981779732e+02 +2.9991536953e+02 4.1034225935e+02 0.0000000000e+00 0.0000e+00 1.0000e+00
       13  1    1    2    0    0 +1.1556004304e+01 -2.7981779732e+02 +4.8599564772e+02 5.6091292598e+02 0.0000000000e+00 0.0000e+00 -1.0000e+00
<mgrwt>
<rscale>  0 0.57068425E+03</rscale>
<asrwt>0</asrwt>
<pdfrwt beam="1">  1        2 0.13516662E+00 0.57068425E+03</pdfrwt>
<pdfrwt beam="2">  1       -2 0.14257244E-01 0.57068425E+03</pdfrwt>
<totfact> 0.12941439E+03</totfact>
</mgrwt>
<rwgt>
<wgt id='morphing_basis_vector_1'> +2.3129299e-04 </wgt>
<wgt id='morphing_basis_vector_2'> +1.3948733e-04 </wgt>
<wgt id='morphing_basis_vector_3'> +1.7559204e-04 </wgt>
<wgt id='morphing_basis_vector_4'> +6.9331220e-05 </wgt>
<wgt id='morphing_basis_vector_5'> +1.0687123e-04 </wgt>
</rwgt>
</event>
<event>
 4      1 +1.0153100e-05 5.47253600e+02 7.81860800e-03 9.29983900e-02
        2 -1    0    0  501    0 +0.0000000000e+00 +0.0000000000e+00 +5.8575829877e+02 5.8575829877e+02 0.0000000000e+00 0.0000e+00 -1.0000e+00
       -2 -1    0    0    0  501 -0.0000000000e+00 -0.0000000000e+00 -1.2781998590e+02 1.2781998590e+02 0.0000000000e+00 0.0000e+00 1.0000e+00
      -13  1    1    2    0    0 -1.9310107877e+00 -2.2398913499e+02 +2.4054520787e+01 2.2528533323e+02 0.0000000000e+00 0.0000e+00 1.0000e+00
       13  1    1    2    0    0 +1.9310107877e+00 +2.2398913499e+02 +4.3388379208e+02 4.8829295144e+02 0.0000000000e+00 0.0000e+00 -1.0000e+00
<mgrwt>
<rscale>  0 0.54725357E+03</rscale>
<asrwt>0</asrwt>
<pdfrwt beam="1">  1        2 0.90116660E-01 0.54725357E+03</pdfrwt>
<pdfrwt beam="2">  1       -2 0.19664614E-01 0.54725357E+03</pdfrwt>
<totfact> 0.12614873E+03</totfact>
</mgrwt>
<rwgt>
<wgt id='morphing_basis_vector_1'> +1.9983731e-04 </wgt>
<wgt id='morphing_basis_vector_2'> +1.1277205e-04 </wgt>
<wgt id='morphing_basis_vector_3'> +1.5064345e-04 </wgt>
<wgt id='morphing_basis_vector_4'> +5.7949094e-05 </wgt>
<wgt id='morphing_basis_vector_5'> +8.5336364e-05 </wgt>
</rwgt>
</event>
<event>
 4      1 +1.0153100e-05 6.02236300e+02 7.81860800e-03 9.19628700e-02
        2 -1    0    0  501    0 +0.0000000000e+00 +0.0000000000e+00 +1.1263920908e+03 1.1263920908e+03 0.0000000000e+00 0.0000e+00 -1.0000e+00
       -2 -1    0    0    0  501 -0.0000000000e+00 -0.0000000000e+00 -8.0497857763e+01 8.0497857763e+01 0.0000000000e+00 0.0000e+00 1.0000e+00
      -13  1    1    2    0    0 -1.2222731239e+02 -2.7051470827e+02 +6.2423266118e+02 6.9121931293e+02 0.0000000000e+00 0.0000e+00 1.0000e+00
       13  1    1    2    0    0 +1.2222731239e+02 +2.7051470827e+02 +4.2166157190e+02 5.1567063567e+02 0.0000000000e+00 0.0000e+00 -1.0000e+00
<mgrwt>
<rscale>  0 0.60223633E+03</rscale>
<asrwt>0</asrwt>
<pdfrwt beam="1">  1        2 0.17329108E+00 0.60223633E+03</pdfrwt>
<pdfrwt beam="2">  1       -2 0.12384287E-01 0.60223633E+03</pdfrwt>
<totfact> 0.11403842E+03</totfact>
</mgrwt>
<rwgt>
<wgt id='morphing_basis_vector_1'> +2.8732918e-04 </wgt>
<wgt id='morphing_basis_vector_2'> +2.0542227e-04 </wgt>
<wgt id='morphing_basis_vector_3'> +2.1555807e-04 </wgt>
<wgt id='morphing_basis_vector_4'> +8.0649238e-05 </wgt>
<wgt id='morphing_basis_vector_5'> +1.4135595e-04 </wgt>
</rwgt>
</event>
<event>
 4      1 +1.0153100e-05 6.02390100e+02 7.81860800e-03 9.19601400e-02
        2 -1    0    0  501    0 +0.0000000000e+00 +0.0000000000e+00 +9.1223926786e+01 9.1223926786e+01 0.0000000000e+00 0.0000e+00 1.0000e+00
       -2 -1    0    0    0  501 -0.0000000000e+00 -0.0000000000e+00 -9.9445903076e+02 9.9445903076e+02 0.0000000000e+00 0.0000e+00 -1.0000e+00
      -13  1    1    2    0    0 +2.3631961383e+01 +2.9971313915e+02 -4.1877711607e+02 5.1551984280e+02 0.0000000000e+00 0.0000e+00 -1.0000e+00
       13  1    1    2    0    0 -2.3631961383e+01 -2.9971313915e+02 -4.8445798790e+02 5.7016311474e+02 0.0000000000e+00 0.0000e+00 1.0000e+00
<mgrwt>
<rscale>  0 0.60239010E+03</rscale>
<asrwt>0</asrwt>
<pdfrwt beam="1">  1        2 0.14034450E-01 0.60239010E+03</pdfrwt>
<pdfrwt beam="2">  1       -2 0.15299369E+00 0.60239010E+03</pdfrwt>
<totfact> 0.15179626E+02</totfact>
</mgrwt>
<rwgt>
<wgt id='morphing_basis_vector_1'> +2.8237817e-04 </wgt>
<wgt id='morphing_basis_vector_2'> +1.8951002e-04 </wgt>
<wgt id='morphing_basis_vector_3'> +2.1562724e-04 </wgt>
<wgt id='morphing_basis_vector_4'> +8.4785317e-05 </wgt>
<wgt id='morphing_basis_vector_5'> +1.4151823e-04 </wgt>
</rwgt>
</event>
<event>
 4      1 +1.0153100e-05 5.78642400e+02 7.81860800e-03 9.23922500e-02
        2 -1    0    0  501    0 +0.0000000000e+00 +0.0000000000e+00 +1.7877603896e+03 1.7877603896e+03 0.0000000000e+00 0.0000e+00 1.0000e+00
       -2 -1    0    0    0  501 -0.0000000000e+00 -0.0000000000e+00 -4.6822131585e+01 4.6822131585e+01 0.0000000000e+00 0.0000e+00 -1.0000e+00
      -13  1    1    2    0    0 +2.4466111235e+02 +1.4987406827e+00 +3.8088228894e+02 4.5269484661e+02 0.0000000000e+00 0.0000e+00 -1.0000e+00
       13  1    1    2    0    0 -2.4466111235e+02 -1.4987406827e+00 +1.3600559691e+03 1.3818876746e+03 0.0000000000e+00 0.0000e+00 1.0000e+00
<mgrwt>
<rscale>  0 0.57864238E+03</rscale>
<asrwt>0</asrwt>
<pdfrwt beam="1">  1        2 0.27504001E+00 0.57864238E+03</pdfrwt>
<pdfrwt beam="2">  1       -2 0.72034062E-02 0.57864238E+03</pdfrwt>
<totfact> 0.11434081E+03</totfact>
</mgrwt>
<rwgt>
<wgt id='morphing_basis_vector_1'> +2.3868934e-04 </wgt>
<wgt id='morphing_basis_vector_2'> +1.3661010e-04 </wgt>
<wgt id='morphing_basis_vector_3'> +1.8518686e-04 </wgt>
<wgt id='morphing_basis_vector_4'> +7.6361868e-05 </wgt>
<wgt id='morphing_basis_vector_5'> +1.1489642e-04 </wgt>
</rwgt>
</event>
<event>
 4      1 +1.0153100e-05 5.20928800e+02 7.81860800e-03 9.35411500e-02
        2 -1    0    0  501    0 +0.0000000000e+00 +0.0000000000e+00 +2.4676359288e+02 2.4676359288e+02 0.0000000000e+00 0.0000e+00 1.0000e+00
       -2 -1    0    0    0  501 -0.0000000000e+00 -0.0000000000e+00 -2.7492588398e+02 2.7492588398e+02 0.0000000000e+00 0.0000e+00 -1.0000e+00
      -13  1    1    2    0    0 -2.1071223565e+02 -2.7263225710e+01 -1.6496225805e+02 2.6898973272e+02 0.0000000000e+00 0.0000e+00 -1.0000e+00
       13  1    1    2    0    0 +2.1071223565e+02 +2.7263225710e+01 +1.3679996695e+02 2.5269974413e+02 0.0000000000e+00 0.0000e+00 1.0000e+00
<mgrwt>
<rscale>  0 0.52092878E+03</rscale>
<asrwt>0</asrwt>
<pdfrwt beam="1">  1        2 0.37963630E-01 0.52092878E+03</pdfrwt>
<pdfrwt beam="2">  1       -2 0.42296290E-01 0.52092878E+03</pdfrwt>
<totfact> 0.87584945E+02</totfact>
</mgrwt>
<rwgt>
<wgt id='morphing_basis_vector_1'> +1.7149094e-04 </wgt>
<wgt id='morphing_basis_vector_2'> +9.5869993e-05 </wgt>
<wgt id='morphing_basis_vector_3'> +1.2586588e-04 </wgt>
<wgt id='morphing_basis_vector_4'> +4.5160191e-05 </wgt>
<wgt id='morphing_basis_vector_5'> +6.4950944e-05 </wgt>
</rwgt>
</event>
<event>
 4      1 +1.0153100e-05 6.00510300e+02 7.81860800e-03 9.19935700e-02
        2 -1    0    0  501    0 +0.0000000000e+00 +0.0000000000e+00 +4.7048101453e+02 4.7048101453e+02 0.0000000000e+00 0.0000e+00 -1.0000e+00
       -2 -1    0    0    0  501 -0.0000000000e+00 -0.0000000000e+00 -1.9161910528e+02 1.9161910528e+02 0.0000000000e+00 0.0000e+00 1.0000e+00
      -13  1    1    2    0    0 -1.1403118601e+02 +2.3556828436e+02 -2.2827976550e+01 2.6271019107e+02 0.0000000000e+00 0.0000e+00 1.0000e+00
       13  1    1    2    0    0 +1.1403118601e+02 -2.3556828436e+02 +3.0168988581e+02 3.9938992874e+02 0.0000000000e+00 0.0000e+00 -1.0000e+00
<mgrwt>
<rscale>  0 0.60051029E+03</rscale>
<asrwt>0</asrwt>
<pdfrwt beam="1">  1        2 0.72381694E-01 0.60051029E+03</pdfrwt>
<pdfrwt beam="2">  1       -2 0.29479863E-01 0.60051029E+03</pdfrwt>
<totfact> 0.81434361E+02</totfact>
</mgrwt>
<rwgt>
<wgt id='morphing_basis_vector_1'> +2.6933844e-04 </wgt>
<wgt id='morphing_basis_vector_2'> +1.5593084e-04 </wgt>
<wgt id='morphing_basis_vector_3'> +2.1281495e-04 </wgt>
<wgt id='morphing_basis_vector_4'> +9.1387683e-05 </wgt>
<wgt id='morphing_basis_vector_5'> +1.3923052e-04 </wgt>
</rwgt>
</event>
<event>
 4      1 +1.0153100e-05 5.56808900e+02 7.81860800e-03 9.28093900e-02
        2 -1    0    0  501    0 +0.0000000000e+00 +0.0000000000e+00 +3.9726861098e+02 3.9726861098e+02 0.0000000000e+00 0.0000e+00 -1.0000e+00
       -2 -1    0    0    0  501 -0.0000000000e+00 -0.0000000000e+00 -1.9510483188e+02 1.9510483188e+02 0.0000000000e+00 0.0000e+00 1.0000e+00
      -13  1    1    2    0    0 +2.1388520040e+02 -1.1179055473e+01 -8.8147372887e+01 2.3160701539e+02 0.0000000000e+00 0.0000e+00 1.0000e+00
       13  1    1    2    0    0 -2.1388520040e+02 +1.1179055473e+01 +2.9031115198e+02 3.6076642748e+02 0.0000000000e+00 0.0000e+00 -1.0000e+00
<mgrwt>
<rscale>  0 0.55680886E+03</rscale>
<asrwt>0</asrwt>
<pdfrwt beam="1">  1        2 0.61118248E-01 0.55680886E+03</pdfrwt>
<pdfrwt beam="2">  1       -2 0.30016128E-01 0.55680886E+03</pdfrwt>
<totfact> 0.95470950E+02</totfact>
</mgrwt>
<rwgt>
<wgt id='morphing_basis_vector_1'> +2.1083709e-04 </wgt>
<wgt id='morphing_basis_vector_2'> +1.1889661e-04 </wgt>
<wgt id='morphing_basis_vector_3'> +1.6058984e-04 </wgt>
<wgt id='morphing_basis_vector_4'> +6.3312885e-05 </wgt>
<wgt id='morphing_basis_vector_5'> +9.3696737e-05 </wgt>
</rwgt>
</event>
<event>
 4      1 +1.0153100e-05 5.99766200e+02 7.81860800e-03 9.20068400e-02
        2 -1    0    0  501    0 +0.0000000000e+00 +0.0000000000e+00 +1.2200973129e+03 1.2200973129e+03 0.0000000000e+00 0.0000e+00 -1.0000e+00
       -2 -1    0    0    0  501 -0.0000000000e+00 -0.0000000000e+00 -7.3707134414e+01 7.3707134414e+01 0.0000000000e+00 0.0000e+00 1.0000e+00
      -13  1    1    2    0    0 +2.5547160381e+02 +2.5220967097e+01 +2.3881084165e+02 3.5061724947e+02 0.0000000000e+00 0.0000e+00 1.0000e+00
       13  1    1    2    0    0 -2.5547160381e+02 -2.5220967097e+01 +9.0757933685e+02 9.4318719786e+02 0.0000000000e+00 0.0000e+00 -1.0000e+00
<mgrwt>
<rscale>  0 0.59976621E+03</rscale>
<asrwt>0</asrwt>
<pdfrwt beam="1">  1        2 0.18770726E+00 0.59976621E+03</pdfrwt>
<pdfrwt beam="2">  1       -2 0.11339560E-01 0.59976621E+03</pdfrwt>
<totfact> 0.11574100E+03</totfact>
</mgrwt>
<rwgt>
<wgt id='morphing_basis_vector_1'> +2.6810026e-04 </wgt>
<wgt id='morphing_basis_vector_2'> +1.5478743e-04 </wgt>
<wgt id='morphing_basis_vector_3'> +2.1182084e-04 </wgt>
<wgt id='morphing_basis_vector_4'> +9.0956077e-05 </wgt>
<wgt id='morphing_basis_vector_5'> +1.3834798e-04 </wgt>
</rwgt>
</event>
<event>
 4      1 +1.0153100e-05 6.00757100e+02 7.81860800e-03 9.19891700e-02
        2 -1    0    0  501    0 +0.0000000000e+00 +0.0000000000e+00 +4.7848518165e+02 4.7848518165e+02 0.0000000000e+00 0.0000e+00 -1.0000e+00
       -2 -1    0    0    0  501 -0.0000000000e+00 -0.0000000000e+00 -1.8856855321e+02 1.8856855321e+02 0.0000000000e+00 0.0000e+00 1.0000e+00
      -13  1    1    2    0    0 +6.4460222546e+01 -2.8695300925e+02 +7.7143795557e+01 3.0405314503e+02 0.0000000000e+00 0.0000e+00 1.0000e+00
       13  1    1    2    0    0 -6.4460222546e+01 +2.8695300925e+02 +2.1277283288e+02 3.6300058984e+02 0.0000000000e+00 0.0000e+00 -1.0000e+00
<mgrwt>
<rscale>  0 0.60075705E+03</rscale>
<asrwt>0</asrwt>
<pdfrwt beam="1">  1        2 0.73613105E-01 0.60075705E+03</pdfrwt>
<pdfrwt beam="2">  1       -2 0.29010547E-01 0.60075705E+03</pdfrwt>
<totfact> 0.82170805E+02</totfact>
</mgrwt>
<rwgt>
<wgt id='morphing_basis_vector_1'> +2.7276338e-04 </wgt>
<wgt id='morphing_basis_vector_2'> +1.6565415e-04 </wgt>
<wgt id='morphing_basis_vector_3'> +2.1321259e-04 </wgt>
<wgt id='morphing_basis_vector_4'> +8.9202079e-05 </wgt>
<wgt id='morphing_basis_vector_5'> +1.3953825e-04 </wgt>
</rwgt>
</event>
<event>
 4      1 +1.0153100e-05 5.89958100e+02 7.81860800e-03 9.21836700e-02
        2 -1    0    0  501    0 +0.0000000000e+00 +0.0000000000e+00 +1.1523685649e+03 1.1523685649e+03 0.0000000000e+00 0.0000e+00 -1.0000e+00
       -2 -1    0    0    0  501 -0.0000000000e+00 -0.0000000000e+00 -7.5507657586e+01 7.5507657586e+01 0.0000000000e+00 0.0000e+00 1.0000e+00
      -13  1    1    2    0    0 -2.7615201606e+02 -5.2324405372e+01 +3.5210092762e+02 4.5052507433e+02 0.0000000000e+00 0.0000e+00 1.0000e+00
       13  1    1    2    0    0 +2.7615201606e+02 +5.2324405372e+01 +7.2475997971e+02 7.7735114817e+02 0.0000000000e+00 0.0000e+00 -1.0000e+00
<mgrwt>
<rscale>  0 0.58995814E+03</rscale>
<asrwt>0</asrwt>
<pdfrwt beam="1">  1        2 0.17728746E+00 0.58995814E+03</pdfrwt>
<pdfrwt beam="2">  1       -2 0.11616564E-01 0.58995814E+03</pdfrwt>
<totfact> 0.12192463E+03</totfact>
</mgrwt>
<rwgt>
<wgt id='morphing_basis_vector_1'> +2.5581774e-04 </wgt>
<wgt id='morphing_basis_vector_2'> +1.5144355e-04 </wgt>
<wgt id='morphing_basis_vector_3'> +1.9906621e-04 </wgt>
<wgt id='morphing_basis_vector_4'> +8.2682286e-05 </wgt>
<wgt id='morphing_basis_vector_5'> +1.2709833e-04 </wgt>
</rwgt>
</event>
<event>
 4      1 +1.0153100e-05 5.94246700e+02 7.81860800e-03 9.21059000e-02
        2 -1    0    0  501    0 +0.0000000000e+00 +0.0000000000e+00 +8.6795947969e+02 8.6795947969e+02 0.0000000000e+00 0.0000e+00 1.0000e+00
       -2 -1    0    0    0  501 -0.0000000000e+00 -0.0000000000e+00 -1.0171245534e+02 1.0171245534e+02 0.0000000000e+00 0.0000e+00 -1.0000e+00
      -13  1    1    2    0    0 -1.4246341745e+02 -2.6066042664e+02 +3.9377464758e+02 4.9325262939e+02 0.0000000000e+00 0.0000e+00 -1.0000e+00
       13  1    1    2    0    0 +1.4246341745e+02 +2.6066042664e+02 +3.7247237677e+02 4.7641930564e+02 0.0000000000e+00 0.0000e+00 1.0000e+00
<mgrwt>
<rscale>  0 0.59424672E+03</rscale>
<asrwt>0</asrwt>
<pdfrwt beam="1">  1        2 0.13353222E+00 0.59424672E+03</pdfrwt>
<pdfrwt beam="2">  1       -2 0.15648071E-01 0.59424672E+03</pdfrwt>
<totfact> 0.11314319E+03</totfact>
</mgrwt>
<rwgt>
<wgt id='morphing_basis_vector_1'> +2.6873155e-04 </wgt>
<wgt id='morphing_basis_vector_2'> +1.7648143e-04 </wgt>
<wgt id='morphing_basis_vector_3'> +2.0456276e-04 </wgt>
<wgt id='morphing_basis_vector_4'> +8.0509651e-05 </wgt>
<wgt id='morphing_basis_vector_5'> +1.3198735e-04 </wgt>
</rwgt>
</event>
<event>
 4      1 +1.0153100e-05 5.68480800e+02 7.81860800e-03 9.25839200e-02
        2 -1    0    0  501    0 +0.0000000000e+00 +0.0000000000e+00 +6.7234072638e+02 6.7234072638e+02 0.0000000000e+00 0.0000e+00 -1.0000e+00
       -2 -1    0    0    0  501 -0.0000000000e+00 -0.0000000000e+00 -1.2016614603e+02 1.2016614603e+02 0.0000000000e+00 0.0000e+00 1.0000e+00
      -13  1    1    2    0    0 -8.2697102725e+01 +1.3420675137e+02 -5.3642012957e+01 1.6651645104e+02 0.0000000000e+00 0.0000e+00 1.0000e+00
       13  1    1    2    0    0 +8.2697102725e+01 -1.3420675137e+02 +6.0581659331e+02 6.2599042136e+02 0.0000000000e+00 0.0000e+00 -1.0000e+00
<mgrwt>
<rscale>  0 0.56848076E+03</rscale>
<asrwt>0</asrwt>
<pdfrwt beam="1">  1        2 0.10343703E+00 0.56848076E+03</pdfrwt>
<pdfrwt beam="2">  1       -2 0.18487100E-01 0.56848076E+03</pdfrwt>
<totfact> 0.11870703E+03</totfact>
</mgrwt>
<rwgt>
<wgt id='morphing_basis_vector_1'> +2.2484580e-04 </wgt>
<wgt id='morphing_basis_vector_2'> +1.2646758e-04 </wgt>
<wgt id='morphing_basis_vector_3'> +1.7343701e-04 </wgt>
<wgt id='morphing_basis_vector_4'> +7.0422949e-05 </wgt>
<wgt id='morphing_basis_vector_5'> +1.0465159e-04 </wgt>
</rwgt>
</event>
<event>
 4      1 +1.0153100e-05 5.21568500e+02 7.81860800e-03 9.35275600e-02
        2 -1    0    0  501    0 +0.0000000000e+00 +0.0000000000e+00 +4.4171558442e+02 4.4171558442e+02 0.0000000000e+00 0.0000e+00 1.0000e+00
       -2 -1    0    0    0  501 -0.0000000000e+00 -0.0000000000e+00 -1.5396428297e+02 1.5396428297e+02 0.0000000000e+00 0.0000e+00 -1.0000e+00
      -13  1    1    2    0    0 -1.0367397860e+02 -6.5943650341e+01 -1.1883451269e+02 1.7093419864e+02 0.0000000000e+00 0.0000e+00 -1.0000e+00
       13  1    1    2    0    0 +1.0367397860e+02 +6.5943650341e+01 +4.0658581414e+02 4.2474566875e+02 0.0000000000e+00 0.0000e+00 1.0000e+00
<mgrwt>
<rscale>  0 0.52156849E+03</rscale>
<asrwt>0</asrwt>
<pdfrwt beam="1">  1        2 0.67956243E-01 0.52156849E+03</pdfrwt>
<pdfrwt beam="2">  1       -2 0.23686813E-01 0.52156849E+03</pdfrwt>
<totfact> 0.12742718E+03</totfact>
</mgrwt>
<rwgt>
<wgt id='morphing_basis_vector_1'> +1.7171660e-04 </wgt>
<wgt id='morphing_basis_vector_2'> +9.4944275e-05 </wgt>
<wgt id='morphing_basis_vector_3'> +1.2655634e-04 </wgt>
<wgt id='morphing_basis_vector_4'> +4.5649245e-05 </wgt>
<wgt id='morphing_basis_vector_5'> +6.5388469e-05 </wgt>
</rwgt>
</event>
<event>
 4      1 +1.0153100e-05 5.88321000e+02 7.81860800e-03 9.22135400e-02
        2 -1    0    0  501    0 +0.0000000000e+00 +0.0000000000e+00 +1.6569593400e+03 1.6569593400e+03 0.0000000000e+00 0.0000e+00 1.0000e+00
       -2 -1    0    0    0  501 -0.0000000000e+00 -0.0000000000e+00 -5.2222395804e+01 5.2222395804e+01 0.0000000000e+00 0.0000e+00 -1.0000e+00
      -13  1    1    2    0    0 -2.1215462577e+02 -1.4538096959e+02 +3.8757573133e+02 4.6514530963e+02 0.0000000000e+00 0.0000e+00 -1.0000e+00
       13  1    1    2    0    0 +2.1215462577e+02 +1.4538096959e+02 +1.2171612128e+03 1.2440364262e+03 0.0000000000e+00 0.0000e+00 1.0000e+00
<mgrwt>
<rscale>  0 0.58832095E+03</rscale>
<asrwt>0</asrwt>
<pdfrwt beam="1">  1        2 0.25491678E+00 0.58832095E+03</pdfrwt>
<pdfrwt beam="2">  1       -2 0.80342160E-02 0.58832095E+03</pdfrwt>
<totfact> 0.11374085E+03</totfact>
</mgrwt>
<rwgt>
<wgt id='morphing_basis_vector_1'> +2.5203735e-04 </wgt>
<wgt id='morphing_basis_vector_2'> +1.4537588e-04 </wgt>
<wgt id='morphing_basis_vector_3'> +1.9703059e-04 </wgt>
<wgt id='morphing_basis_vector_4'> +8.2661194e-05 </wgt>
<wgt id='morphing_basis_vector_5'> +1.2526960e-04 </wgt>
</rwgt>
</event>
<event>
 4      1 +1.0153100e-05 5.68251600e+02 7.81860800e-03 9.25882900e-02
        2 -1    0    0  501    0 +0.0000000000e+00 +0.0000000000e+00 +6.9689935006e+02 6.9689935006e+02 0.0000000000e+00 0.0000e+00 -1.0000e+00
       -2 -1    0    0    0  501 -0.0000000000e+00 -0.0000000000e+00 -1.1583804259e+02 1.1583804259e+02 0.0000000000e+00 0.0000e+00 1.0000e+00
      -13  1    1    2    0    0 +2.3139976622e+02 +7.9131260630e+01 +8.3664767966e+01 2.5847127812e+02 0.0000000000e+00 0.0000e+00 1.0000e+00
       13  1    1    2    0    0 -2.3139976622e+02 -7.9131260630e+01 +4.9739653950e+02 5.5426611453e+02 0.0000000000e+00 0.0000e+00 -1.0000e+00
<mgrwt>
<rscale>  0 0.56825155E+03</rscale>
<asrwt>0</asrwt>
<pdfrwt beam="1">  1        2 0.10721528E+00 0.56825155E+03</pdfrwt>
<pdfrwt beam="2">  1       -2 0.17821238E-01 0.56825155E+03</pdfrwt>
<totfact> 0.12074171E+03</totfact>
</mgrwt>
<rwgt>
<wgt id='morphing_basis_vector_1'> +2.2536264e-04 </wgt>
<wgt id='morphing_basis_vector_2'> +1.2879567e-04 </wgt>
<wgt id='morphing_basis_vector_3'> +1.7309278e-04 </wgt>
<wgt id='morphing_basis_vector_4'> +6.9747786e-05 </wgt>
<wgt id='morphing_basis_vector_5'> +1.0444125e-04 </wgt>
</rwgt>
</event>
<event>
 4      1 +1.0153100e-05 5.31863800e+02 7.81860800e-03 9.33116200e-02
        2 -1    0    0  501    0 +0.0000000000e+00 +0.0000000000e+00 +7.7620422264e+02 7.7620422264e+02 0.0000000000e+00 0.0000e+00 -1.0000e+00
       -2 -1    0    0    0  501 -0.0000000000e+00 -0.0000000000e+00 -9.1109765463e+01 9.1109765463e+01 0.0000000000e+00 0.0000e+00 1.0000e+00
      -13  1    1    2    0    0 +1.7098068897e+02 -4.5593489905e+01 +1.8833963509e+01 1.7795471476e+02 0.0000000000e+00 0.0000e+00 1.0000e+00
       13  1    1    2    0    0 -1.7098068897e+02 +4.5593489905e+01 +6.6626049367e+02 6.8935927335e+02 0.0000000000e+00 0.0000e+00 -1.0000e+00
<mgrwt>
<rscale>  0 0.53186383E+03</rscale>
<asrwt>0</asrwt>
<pdfrwt beam="1">  1        2 0.11941603E+00 0.53186383E+03</pdfrwt>
<pdfrwt beam="2">  1       -2 0.14016888E-01 0.53186383E+03</pdfrwt>
<totfact> 0.15597711E+03</totfact>
</mgrwt>
<rwgt>
<wgt id='morphing_basis_vector_1'> +1.8249473e-04 </wgt>
<wgt id='morphing_basis_vector_2'> +1.0155489e-04 </wgt>
<wgt id='morphing_basis_vector_3'> +1.3580822e-04 </wgt>
<wgt id='morphing_basis_vector_4'> +5.0366804e-05 </wgt>
<wgt id='morphing_basis_vector_5'> +7.2951256e-05 </wgt>
</rwgt>
</event>
<event>
 4      1 +1.0153100e-05 5.36958600e+02 7.81860800e-03 9.32066900e-02
        2 -1    0    0  501    0 +0.0000000000e+00 +0.0000000000e+00 +5.4167412235e+02 5.4167412235e+02 0.0000000000e+00 0.0000e+00 -1.0000e+00
       -2 -1    0    0    0  501 -0.0000000000e+00 -0.0000000000e+00 -1.3307101230e+02 1.3307101230e+02 0.0000000000e+00 0.0000e+00 1.0000e+00
      -13  1    1    2    0    0 -2.2452573740e+02 -1.3604552125e+02 +2.7495065763e+02 3.8015530345e+02 0.0000000000e+00 0.0000e+00 1.0000e+00
       13  1    1    2    0    0 +2.2452573740e+02 +1.3604552125e+02 +1.3365245242e+02 2.9458983120e+02 0.0000000000e+00 0.0000e+00 -1.0000e+00
<mgrwt>
<rscale>  0 0.53695856E+03</rscale>
<asrwt>0</asrwt>
<pdfrwt beam="1">  1        2 0.83334479E-01 0.53695856E+03</pdfrwt>
<pdfrwt beam="2">  1       -2 0.20472464E-01 0.53695856E+03</pdfrwt>
<totfact> 0.12913696E+03</totfact>
</mgrwt>
<rwgt>
<wgt id='morphing_basis_vector_1'> +2.0090077e-04 </wgt>
<wgt id='morphing_basis_vector_2'> +1.4494349e-04 </wgt>
<wgt id='morphing_basis_vector_3'> +1.3750180e-04 </wgt>
<wgt id='morphing_basis_vector_4'> +4.5772575e-05 </wgt>
<wgt id='morphing_basis_vector_5'> +7.7255166e-05 </wgt>
</rwgt>
</event>
<event>
 4      1 +1.0153100e-05 5.49827100e+02 7.81860800e-03 9.29470900e-02
        2 -1    0    0  501    0 +0.0000000000e+00 +0.0000000000e+00 +1.6712197189e+03 1.6712197189e+03 0.0000000000e+00 0.0000e+00 -1.0000e+00
       -2 -1    0    0    0  501 -0.0000000000e+00 -0.0000000000e+00 -4.5222940516e+01 4.5222940516e+01 0.0000000000e+00 0.0000e+00 1.0000e+00
      -13  1    1    2    0    0 +2.4422271781e+02 -6.8069140297e+01 +4.8115787909e+02 5.4386675608e+02 0.0000000000e+00 0.0000e+00 1.0000e+00
       13  1    1    2    0    0 -2.4422271781e+02 +6.8069140297e+01 +1.1448388993e+03 1.1725759034e+03 0.0000000000e+00 0.0000e+00 -1.0000e+00
<mgrwt>
<rscale>  0 0.54982714E+03</rscale>
<asrwt>0</asrwt>
<pdfrwt beam="1">  1        2 0.25711068E+00 0.54982714E+03</pdfrwt>
<pdfrwt beam="2">  1       -2 0.69573768E-02 0.54982714E+03</pdfrwt>
<totfact> 0.13971819E+03</totfact>
</mgrwt>
<rwgt>
<wgt id='morphing_basis_vector_1'> +2.0369529e-04 </wgt>
<wgt id='morphing_basis_vector_2'> +1.1732232e-04 </wgt>
<wgt id='morphing_basis_vector_3'> +1.5310052e-04 </wgt>
<wgt id='morphing_basis_vector_4'> +5.8796214e-05 </wgt>
<wgt id='morphing_basis_vector_5'> +8.7556852e-05 </wgt>
</rwgt>
</event>
<event>
 4      1 +1.0153100e-05 5.91835300e+02 7.81860800e-03 9.21495400e-02
        2 -1    0    0  501    0 +0.0000000000e+00 +0.0000000000e+00 +9.7440606731e+02 9.7440606731e+02 0.0000000000e+00 0.0000e+00 1.0000e+00
       -2 -1    0    0    0  501 -0.0000000000e+00 -0.0000000000e+00 -8.9867311896e+01 8.9867311896e+01 0.0000000000e+00 0.0000e+00 -1.0000e+00
      -13  1    1    2    0    0 -2.7134650612e+02 +2.6033156015e+01 +6.4934737895e+02 7.0424333163e+02 0.0000000000e+00 0.0000e+00 1.0000e+00
       13  1    1    2    0    0 +2.7134650612e+02 -2.6033156015e+01 +2.3519137647e+02 3.6003004758e+02 0.0000000000e+00 0.0000e+00 -1.0000e+00
<mgrwt>
<rscale>  0 0.59183529E+03</rscale>
<asrwt>0</asrwt>
<pdfrwt beam="1">  1        2 0.14990862E+00 0.59183529E+03</pdfrwt>
<pdfrwt beam="2">  1       -2 0.13825741E-01 0.59183529E+03</pdfrwt>
<totfact> 0.11810971E+03</totfact>
</mgrwt>
<rwgt>
<wgt id='morphing_basis_vector_1'> +2.8807244e-04 </wgt>
<wgt id='morphing_basis_vector_2'> +2.4495232e-04 </wgt>
<wgt id='morphing_basis_vector_3'> +2.0111530e-04 </wgt>
<wgt id='morphing_basis_vector_4'> +6.1948847e-05 </wgt>
<wgt id='morphing_basis_vector_5'> +1.2943345e-04 </wgt>
</rwgt>
</event>
<event>
 4      1 +1.0153100e-05 5.21788200e+02 7.81860800e-03 9.35228900e-02
        2 -1    0    0  501    0 +0.0000000000e+00 +0.0000000000e+00 +2.9772993157e+02 2.9772993157e+02 0.0000000000e+00 0.0000e+00 1.0000e+00
       -2 -1    0    0    0  501 -0.0000000000e+00 -0.0000000000e+00 -2.2861568342e+02 2.2861568342e+02 0.0000000000e+00 0.0000e+00 -1.0000e+00
      -13  1    1    2    0    0 -1.5060612730e+02 +5.6705499230e+01 -1.7258495015e+02 2.3597305830e+02 0.0000000000e+00 0.0000e+00 -1.0000e+00
       13  1    1    2    0    0 +1.5060612730e+02 -5.6705499230e+01 +2.4169919830e+02 2.9037255670e+02 0.0000000000e+00 0.0000e+00 1.0000e+00
<mgrwt>
<rscale>  0 0.52178820E+03</rscale>
<asrwt>0</asrwt>
<pdfrwt beam="1">  1        2 0.45804605E-01 0.52178820E+03</pdfrwt>
<pdfrwt beam="2">  1       -2 0.35171644E-01 0.52178820E+03</pdfrwt>
<totfact> 0.99477735E+02</totfact>
</mgrwt>
<rwgt>
<wgt id='morphing_basis_vector_1'> +1.7200328e-04 </wgt>
<wgt id='morphing_basis_vector_2'> +9.5274894e-05 </wgt>
<wgt id='morphing_basis_vector_3'> +1.2672887e-04 </wgt>
<wgt id='morphing_basis_vector_4'> +4.5715969e-05 </wgt>
<wgt id='morphing_basis_vector_5'> +6.5546083e-05 </wgt>
</rwgt>
</event>
<event>
 4      1 +1.0153100e-05 5.97134500e+02 7.81860800e-03 9.20539300e-02
        2 -1    0    0  501    0 +0.0000000000e+00 +0.0000000000e+00 +1.0236405888e+03 1.0236405888e+03 0.0000000000e+00 0.0000e+00 1.0000e+00
       -2 -1    0    0    0  501 -0.0000000000e+00 -0.0000000000e+00 -8.7083687723e+01 8.7083687723e+01 0.0000000000e+00 0.0000e+00 -1.0000e+00
      -13  1    1    2    0    0 +2.3794086860e+02 +5.3996980896e+01 +1.4819761533e+02 2.8547165198e+02 0.0000000000e+00 0.0000e+00 -1.0000e+00
       13  1    1    2    0    0 -2.3794086860e+02 -5.3996980896e+01 +7.8835928579e+02 8.2525262459e+02 0.0000000000e+00 0.0000e+00 1.0000e+00
<mgrwt>
<rscale>  0 0.59713448E+03</rscale>
<asrwt>0</asrwt>
<pdfrwt beam="1">  1        2 0.15748316E+00 0.59713448E+03</pdfrwt>
<pdfrwt beam="2">  1       -2 0.13397491E-01 0.59713448E+03</pdfrwt>
<totfact> 0.11584943E+03</totfact>
</mgrwt>
<rwgt>
<wgt id='morphing_basis_vector_1'> +2.6401097e-04 </wgt>
<wgt id='morphing_basis_vector_2'> +1.5157365e-04 </wgt>
<wgt id='morphing_basis_vector_3'> +2.0834321e-04 </wgt>
<wgt id='morphing_basis_vector_4'> +8.9243631e-05 </wgt>
<wgt id='morphing_basis_vector_5'> +1.3525859e-04 </wgt>
</rwgt>
</event>
<event>
 4      1 +1.0153100e-05 5.53320500e+02 7.81860800e-03 9.28779200e-02
        2 -1    0    0  501    0 +0.0000000000e+00 +0.0000000000e+00 +3.9241938283e+02 3.9241938283e+02 0.0000000000e+00 0.0000e+00 1.0000e+00
       -2 -1    0    0    0  501 -0.0000000000e+00 -0.0000000000e+00 -1.9504874155e+02 1.9504874155e+02 0.0000000000e+00 0.0000e+00 -1.0000e+00
      -13  1    1    2    0    0 -2.9196263314e+00 -1.3634564262e+02 -1.5688191849e+02 2.0787158254e+02 0.0000000000e+00 0.0000e+00 -1.0000e+00
       13  1    1    2    0    0 +2.9196263314e+00 +1.3634564262e+02 +3.5425255976e+02 3.7959654184e+02 0.0000000000e+00 0.0000e+00 1.0000e+00
<mgrwt>
<rscale>  0 0.55332055E+03</rscale>
<asrwt>0</asrwt>
<pdfrwt beam="1">  1        2 0.60372213E-01 0.55332055E+03</pdfrwt>
<pdfrwt beam="2">  1       -2 0.30007499E-01 0.55332055E+03</pdfrwt>
<totfact> 0.96846944E+02</totfact>
</mgrwt>
<rwgt>
<wgt id='morphing_basis_vector_1'> +2.0636559e-04 </wgt>
<wgt id='morphing_basis_vector_2'> +1.1538688e-04 </wgt>
<wgt id='morphing_basis_vector_3'> +1.5696840e-04 </wgt>
<wgt id='morphing_basis_vector_4'> +6.1557034e-05 </wgt>
<wgt id='morphing_basis_vector_5'> +9.0573779e-05 </wgt>
</rwgt>
</event>
<event>
 4      1 +1.0153100e-05 5.38986600e+02 7.81860800e-03 9.31652700e-02
        2 -1    0    0  501    0 +0.0000000000e+00 +0.0000000000e+00 +1.5675075811e+03 1.5675075811e+03 0.0000000000e+00 0.0000e+00 -1.0000e+00
       -2 -1    0    0    0  501 -0.0000000000e+00 -0.0000000000e+00 -4.6332565334e+01 4.6332565334e+01 0.0000000000e+00 0.0000e+00 1.0000e+00
      -13  1    1    2    0    0 +1.3475819959e+02 -2.0470960563e+02 +4.2501059277e+02 4.9061165800e+02 0.0000000000e+00 0.0000e+00 1.0000e+00
       13  1    1    2    0    0 -1.3475819959e+02 +2.0470960563e+02 +1.0961644230e+03 1.1232284884e+03 0.0000000000e+00 0.0000e+00 -1.0000e+00
<mgrwt>
<rscale>  0 0.53898663E+03</rscale>
<asrwt>0</asrwt>
<pdfrwt beam="1">  1        2 0.24115497E+00 0.53898663E+03</pdfrwt>
<pdfrwt beam="2">  1       -2 0.71280882E-02 0.53898663E+03</pdfrwt>
<totfact> 0.15331649E+03</totfact>
</mgrwt>
<rwgt>
<wgt id='morphing_basis_vector_1'> +1.9121755e-04 </wgt>
<wgt id='morphing_basis_vector_2'> +1.0928699e-04 </wgt>
<wgt id='morphing_basis_vector_3'> +1.4231499e-04 </wgt>
<wgt id='morphing_basis_vector_4'> +5.3306099e-05 </wgt>
<wgt id='morphing_basis_vector_5'> +7.8542328e-05 </wgt>
</rwgt>
</event>
<event>
 4      1 +1.0153100e-05 5.73268600e+02 7.81860800e-03 9.24930800e-02
        2 -1    0    0  501    0 +0.0000000000e+00 +0.0000000000e+00 +2.4303958026e+02 2.4303958026e+02 0.0000000000e+00 0.0000e+00 -1.0000e+00
       -2 -1    0    0    0  501 -0.0000000000e+00 -0.0000000000e+00 -3.3804870918e+02 3.3804870918e+02 0.0000000000e+00 0.0000e+00 1.0000e+00
      -13  1    1    2    0    0 -1.6263408424e+02 +2.2157221832e+02 -1.2994740531e+02 3.0402371854e+02 0.0000000000e+00 0.0000e+00 1.0000e+00
       13  1    1    2    0    0 +1.6263408424e+02 -2.2157221832e+02 +3.4938276388e+01 2.7706457090e+02 0.0000000000e+00 0.0000e+00 -1.0000e+00
<mgrwt>
<rscale>  0 0.57326858E+03</rscale>
<asrwt>0</asrwt>
<pdfrwt beam="1">  1        2 0.37390704E-01 0.57326858E+03</pdfrwt>
<pdfrwt beam="2">  1       -2 0.52007494E-01 0.57326858E+03</pdfrwt>
<totfact> 0.59913662E+02</totfact>
</mgrwt>
<rwgt>
<wgt id='morphing_basis_vector_1'> +2.3347067e-04 </wgt>
<wgt id='morphing_basis_vector_2'> +1.3795627e-04 </wgt>
<wgt id='morphing_basis_vector_3'> +1.7870251e-04 </wgt>
<wgt id='morphing_basis_vector_4'> +7.1693653e-05 </wgt>
<wgt id='morphing_basis_vector_5'> +1.0942849e-04 </wgt>
</rwgt>
</event>
<event>
 4      1 +1.0153100e-05 5.25994900e+02 7.81860800e-03 9.34340700e-02
        2 -1    0    0  501    0 +0.0000000000e+00 +0.0000000000e+00 +6.8148358125e+02 6.8148358125e+02 0.0000000000e+00 0.0000e+00 1.0000e+00
       -2 -1    0    0    0  501 -0.0000000000e+00 -0.0000000000e+00 -1.0149569950e+02 1.0149569950e+02 0.0000000000e+00 0.0000e+00 -1.0000e+00
      -13  1    1    2    0    0 +9.7033893092e+01 -1.7123432582e+02 +3.0321401249e+01 1.9913854002e+02 0.0000000000e+00 0.0000e+00 -1.0000e+00
       13  1    1    2    0    0 -9.7033893092e+01 +1.7123432582e+02 +5.4966648050e+02 5.8384074073e+02 0.0000000000e+00 0.0000e+00 1.0000e+00
<mgrwt>
<rscale>  0 0.52599488E+03</rscale>
<asrwt>0</asrwt>
<pdfrwt beam="1">  1        2 0.10484363E+00 0.52599488E+03</pdfrwt>
<pdfrwt beam="2">  1       -2 0.15614723E-01 0.52599488E+03</pdfrwt>
<totfact> 0.15380233E+03</totfact>
</mgrwt>
<rwgt>
<wgt id='morphing_basis_vector_1'> +1.7647511e-04 </wgt>
<wgt id='morphing_basis_vector_2'> +9.8332969e-05 </wgt>
<wgt id='morphing_basis_vector_3'> +1.3041210e-04 </wgt>
<wgt id='morphing_basis_vector_4'> +4.7539738e-05 </wgt>
<wgt id='morphing_basis_vector_5'> +6.8577343e-05 </wgt>
</rwgt>
</event>
<event>
 4      1 +1.0153100e-05 5.44408700e+02 7.81860800e-03 9.30554600e-02
        2 -1    0    0  501    0 +0.0000000000e+00 +0.0000000000e+00 +8.2617971311e+02 8.2617971311e+02 0.0000000000e+00 0.0000e+00 -1.0000e+00
       -2 -1    0    0    0  501 -0.0000000000e+00 -0.0000000000e+00 -8.9684126656e+01 8.9684126656e+01 0.0000000000e+00 0.0000e+00 1.0000e+00
      -13  1    1    2    0    0 +1.5125440668e+02 -5.3555199989e+01 -1.6657979493e+00 1.6046441932e+02 0.0000000000e+00 0.0000e+00 1.0000e+00
       13  1    1    2    0    0 -1.5125440668e+02 +5.3555199989e+01 +7.3816138440e+02 7.5539942044e+02 0.0000000000e+00 0.0000e+00 -1.0000e+00
<mgrwt>
<rscale>  0 0.54440869E+03</rscale>
<asrwt>0</asrwt>
<pdfrwt beam="1">  1        2 0.12710457E+00 0.54440869E+03</pdfrwt>
<pdfrwt beam="2">  1       -2 0.13797559E-01 0.54440869E+03</pdfrwt>
<totfact> 0.14779054E+03</totfact>
</mgrwt>
<rwgt>
<wgt id='morphing_basis_vector_1'> +1.9615721e-04 </wgt>
<wgt id='morphing_basis_vector_2'> +1.0945604e-04 </wgt>
<wgt id='morphing_basis_vector_3'> +1.4788044e-04 </wgt>
<wgt id='morphing_basis_vector_4'> +5.6707233e-05 </wgt>
<wgt id='morphing_basis_vector_5'> +8.2937602e-05 </wgt>
</rwgt>
</event>
<event>
 4      1 +1.0153100e-05 5.83286600e+02 7.81860800e-03 9.23060400e-02
        2 -1    0    0  501    0 +0.0000000000e+00 +0.0000000000e+00 +2.9895459837e+02 2.9895459837e+02 0.0000000000e+00 0.0000e+00 -1.0000e+00
       -2 -1    0    0    0  501 -0.0000000000e+00 -0.0000000000e+00 -2.8451077244e+02 2.8451077244e+02 0.0000000000e+00 0.0000e+00 1.0000e+00
      -13  1    1    2    0    0 -3.6061641220e+01 +2.8175092766e+02 -5.8917767022e+01 2.9009538168e+02 0.0000000000e+00 0.0000e+00 1.0000e+00
       13  1    1    2    0    0 +3.6061641220e+01 -2.8175092766e+02 +7.3361592956e+01 2.9336998913e+02 0.0000000000e+00 0.0000e+00 -1.0000e+00
<mgrwt>
<rscale>  0 0.58328656E+03</rscale>
<asrwt>0</asrwt>
<pdfrwt beam="1">  1        2 0.45993015E-01 0.58328656E+03</pdfrwt>
<pdfrwt beam="2">  1       -2 0.43770888E-01 0.58328656E+03</pdfrwt>
<totfact> 0.66120896E+02</totfact>
</mgrwt>
<rwgt>
<wgt id='morphing_basis_vector_1'> +2.4755113e-04 </wgt>
<wgt id='morphing_basis_vector_2'> +1.4861247e-04 </wgt>
<wgt id='morphing_basis_vector_3'> +1.9068033e-04 </wgt>
<wgt id='morphing_basis_vector_4'> +7.7530713e-05 </wgt>
<wgt id='morphing_basis_vector_5'> +1.1982410e-04 </wgt>
</rwgt>
</event>
<event>
 4      1 +1.0153100e-05 5.60042200e+02 7.81860800e-03 9.27463400e-02
        2 -1    0    0  501    0 +0.0000000000e+00 +0.0000000000e+00 +2.9276245823e+02 2.9276245823e+02 0.0000000000e+00 0.0000e+00 -1.0000e+00
       -2 -1    0    0    0  501 -0.0000000000e+00 -0.0000000000e+00 -2.6783425644e+02 2.6783425644e+02 0.0000000000e+00 0.0000e+00 1.0000e+00
      -13  1    1    2    0    0 -2.4802162602e+02 +1.2760229940e+02 -1.2354430263e+01 2.7919474517e+02 0.0000000000e+00 0.0000e+00 1.0000e+00
       13  1    1    2    0    0 +2.4802162602e+02 -1.2760229940e+02 +3.7282632055e+01 2.8140196950e+02 0.0000000000e+00 0.0000e+00 -1.0000e+00
<mgrwt>
<rscale>  0 0.56004220E+03</rscale>
<asrwt>0</asrwt>
<pdfrwt beam="1">  1        2 0.45040378E-01 0.56004220E+03</pdfrwt>
<pdfrwt beam="2">  1       -2 0.41205270E-01 0.56004220E+03</pdfrwt>
<totfact> 0.75836775E+02</totfact>
</mgrwt>
<rwgt>
<wgt id='morphing_basis_vector_1'> +2.1955704e-04 </wgt>
<wgt id='morphing_basis_vector_2'> +1.3620880e-04 </wgt>
<wgt id='morphing_basis_vector_3'> +1.6338496e-04 </wgt>
<wgt id='morphing_basis_vector_4'> +6.2110807e-05 </wgt>
<wgt id='morphing_basis_vector_5'> +9.6741669e-05 </wgt>
</rwgt>
</event>
<event>
 4      1 +1.0153100e-05 5.29934400e+02 7.81860800e-03 9.33516900e-02
        2 -1    0    0  501    0 +0.0000000000e+00 +0.0000000000e+00 +1.0299520157e+03 1.0299520157e+03 0.0000000000e+00 0.0000e+00 -1.0000e+00
       -2 -1    0    0    0  501 -0.0000000000e+00 -0.0000000000e+00 -6.8165916054e+01 6.8165916054e+01 0.0000000000e+00 0.0000e+00 1.0000e+00
      -13  1    1    2    0    0 +2.8731510654e+01 +2.2225938617e+02 +1.8796835687e+02 2.9250100449e+02 0.0000000000e+00 0.0000e+00 1.0000e+00
       13  1    1    2    0    0 -2.8731510654e+01 -2.2225938617e+02 +7.7381774274e+02 8.0561692722e+02 0.0000000000e+00 0.0000e+00 -1.0000e+00
<mgrwt>
<rscale>  0 0.52993442E+03</rscale>
<asrwt>0</asrwt>
<pdfrwt beam="1">  1        2 0.15845415E+00 0.52993442E+03</pdfrwt>
<pdfrwt beam="2">  1       -2 0.10487065E-01 0.52993442E+03</pdfrwt>
<totfact> 0.16938899E+03</totfact>
</mgrwt>
<rwgt>
<wgt id='morphing_basis_vector_1'> +1.8092317e-04 </wgt>
<wgt id='morphing_basis_vector_2'> +1.0180828e-04 </wgt>
<wgt id='morphing_basis_vector_3'> +1.3389966e-04 </wgt>
<wgt id='morphing_basis_vector_4'> +4.9201754e-05 </wgt>
<wgt id='morphing_basis_vector_5'> +7.1505649e-05 </wgt>
</rwgt>
</event>
<event>
 4      1 +1.0153100e-05 5.68614000e+02 7.81860800e-03 9.25813700e-02
        2 -1    0    0  501    0 +0.0000000000e+00 +0.0000000000e+00 +7.2275793769e+02 7.2275793769e+02 0.0000000000e+00 0.0000e+00 -1.0000e+00
       -2 -1    0    0    0  501 -0.0000000000e+00 -0.0000000000e+00 -1.1183617095e+02 1.1183617095e+02 0.0000000000e+00 0.0000e+00 1.0000e+00
      -13  1    1    2    0    0 +9.8603593236e+01 +2.3075194077e+02 +1.0929886456e+02 2.7370671998e+02 0.0000000000e+00 0.0000e+00 1.0000e+00
       13  1    1    2    0    0 -9.8603593236e+01 -2.3075194077e+02 +5.0162290218e+02 5.6088738866e+02 0.0000000000e+00 0.0000e+00 -1.0000e+00
<mgrwt>
<rscale>  0 0.56861404E+03</rscale>
<asrwt>0</asrwt>
<pdfrwt beam="1">  1        2 0.11119353E+00 0.56861404E+03</pdfrwt>
<pdfrwt beam="2">  1       -2 0.17205565E-01 0.56861404E+03</pdfrwt>
<totfact> 0.12233196E+03</totfact>
</mgrwt>
<rwgt>
<wgt id='morphing_basis_vector_1'> +2.2601820e-04 </wgt>
<wgt id='morphing_basis_vector_2'> +1.2968608e-04 </wgt>
<wgt id='morphing_basis_vector_3'> +1.7348293e-04 </wgt>
<wgt id='morphing_basis_vector_4'> +6.9837469e-05 </wgt>
<wgt id='morphing_basis_vector_5'> +1.0479767e-04 </wgt>
</rwgt>
</event>
<event>
 4      1 +1.0153100e-05 5.77195900e+02 7.81860800e-03 9.24192800e-02
        2 -1    0    0  501    0 +0.0000000000e+00 +0.0000000000e+00 +8.8378329551e+02 8.8378329551e+02 0.0000000000e+00 0.0000e+00 1.0000e+00
       -2 -1    0    0    0  501 -0.0000000000e+00 -0.0000000000e+00 -9.4241184925e+01 9.4241184925e+01 0.0000000000e+00 0.0000e+00 -1.0000e+00
      -13  1    1    2    0    0 -2.2402244795e+02 +1.3001193776e+02 +1.7910642182e+02 3.1490994186e+02 0.0000000000e+00 0.0000e+00 -1.0000e+00
       13  1    1    2    0    0 +2.2402244795e+02 -1.3001193776e+02 +6.1043568877e+02 6.6311453857e+02 0.0000000000e+00 0.0000e+00 1.0000e+00
<mgrwt>
<rscale>  0 0.57719593E+03</rscale>
<asrwt>0</asrwt>
<pdfrwt beam="1">  1        2 0.13596666E+00 0.57719593E+03</pdfrwt>
<pdfrwt beam="2">  1       -2 0.14498644E-01 0.57719593E+03</pdfrwt>
<totfact> 0.12498441E+03</totfact>
</mgrwt>
<rwgt>
<wgt id='morphing_basis_vector_1'> +2.3727990e-04 </wgt>
<wgt id='morphing_basis_vector_2'> +1.3699863e-04 </wgt>
<wgt id='morphing_basis_vector_3'> +1.8343106e-04 </wgt>
<wgt id='morphing_basis_vector_4'> +7.5078948e-05 </wgt>
<wgt id='morphing_basis_vector_5'> +1.1340580e-04 </wgt>
</rwgt>
</event>
<event>
 4      1 +1.0153100e-05 6.13055800e+02 7.81860800e-03 9.17728600e-02
        2 -1    0    0  501    0 +0.0000000000e+00 +0.0000000000e+00 +1.9900436930e+02 1.9900436930e+02 0.0000000000e+00 0.0000e+00 1.0000e+00
       -2 -1    0    0    0  501 -0.0000000000e+00 -0.0000000000e+00 -4.7214720026e+02 4.7214720026e+02 0.0000000000e+00 0.0000e+00 -1.0000e+00
      -13  1    1    2    0    0 -1.5240526460e+02 -1.6514935141e+02 -3.6479151076e+02 4.2845597121e+02 0.0000000000e+00 0.0000e+00 -1.0000e+00
       13  1    1    2    0    0 +1.5240526460e+02 +1.6514935141e+02 +9.1648679795e+01 2.4269559834e+02 0.0000000000e+00 0.0000e+00 1.0000e+00
<mgrwt>
<rscale>  0 0.61305581E+03</rscale>
<asrwt>0</asrwt>
<pdfrwt beam="1">  1        2 0.30616057E-01 0.61305581E+03</pdfrwt>
<pdfrwt beam="2">  1       -2 0.72638030E-01 0.61305581E+03</pdfrwt>
<totfact> 0.37840943E+02</totfact>
</mgrwt>
<rwgt>
<wgt id='morphing_basis_vector_1'> +2.8730423e-04 </wgt>
<wgt id='morphing_basis_vector_2'> +1.6487174e-04 </wgt>
<wgt id='morphing_basis_vector_3'> +2.3002911e-04 </wgt>
<wgt id='morphing_basis_vector_4'> +1.0172594e-04 </wgt>
<wgt id='morphing_basis_vector_5'> +1.5469241e-04 </wgt>
</rwgt>
</event>
<event>
 4      1 +1.0153100e-05 5.21788100e+02 7.81860800e-03 9.35229000e-02
        2 -1    0    0  501    0 +0.0000000000e+00 +0.0000000000e+00 +1.7522794129e+02 1.7522794129e+02 0.0000000000e+00 0.0000e+00 1.0000e+00
       -2 -1    0    0    0  501 -0.0000000000e+00 -0.0000000000e+00 -3.8844088637e+02 3.8844088637e+02 0.0000000000e+00 0.0000e+00 -1.0000e+00
      -13  1    1    2    0    0 -1.0862694787e+02 -3.0636638545e+01 -3.6070346949e+02 3.7794895201e+02 0.0000000000e+00 0.0000e+00 -1.0000e+00
       13  1    1    2    0    0 +1.0862694787e+02 +3.0636638545e+01 +1.4749052440e+02 1.8571987565e+02 0.0000000000e+00 0.0000e+00 1.0000e+00
<mgrwt>
<rscale>  0 0.52178807E+03</rscale>
<asrwt>0</asrwt>
<pdfrwt beam="1">  1        2 0.26958145E-01 0.52178807E+03</pdfrwt>
<pdfrwt beam="2">  1       -2 0.59760136E-01 0.52178807E+03</pdfrwt>
<totfact> 0.66066885E+02</totfact>
</mgrwt>
<rwgt>
<wgt id='morphing_basis_vector_1'> +1.7193066e-04 </wgt>
<wgt id='morphing_basis_vector_2'> +9.5049669e-05 </wgt>
<wgt id='morphing_basis_vector_3'> +1.2675116e-04 </wgt>
<wgt id='morphing_basis_vector_4'> +4.5751349e-05 </wgt>
<wgt id='morphing_basis_vector_5'> +6.5543622e-05 </wgt>
</rwgt>
</event>
<event>
 4      1 +1.0153100e-05 5.64281700e+02 7.81860800e-03 9.26643600e-02
        2 -1    0    0  501    0 +0.0000000000e+00 +0.0000000000e+00 +8.3166221458e+02 8.3166221458e+02 0.0000000000e+00 0.0000e+00 1.0000e+00
       -2 -1    0    0    0  501 -0.0000000000e+00 -0.0000000000e+00 -9.5716091479e+01 9.5716091479e+01 0.0000000000e+00 0.0000e+00 -1.0000e+00
      -13  1    1    2    0    0 -2.5663682726e+02 +7.2552096211e+01 +5.1928977579e+02 5.8377062192e+02 0.0000000000e+00 0.0000e+00 1.0000e+00
       13  1    1    2    0    0 +2.5663682726e+02 -7.2552096211e+01 +2.1665634731e+02 3.4360768414e+02 0.0000000000e+00 0.0000e+00 -1.0000e+00
<mgrwt>
<rscale>  0 0.56428169E+03</rscale>
<asrwt>0</asrwt>
<pdfrwt beam="1">  1        2 0.12794803E+00 0.56428169E+03</pdfrwt>
<pdfrwt beam="2">  1       -2 0.14725553E-01 0.56428169E+03</pdfrwt>
<totfact> 0.13198525E+03</totfact>
</mgrwt>
<rwgt>
<wgt id='morphing_basis_vector_1'> +2.4214865e-04 </wgt>
<wgt id='morphing_basis_vector_2'> +1.9333040e-04 </wgt>
<wgt id='morphing_basis_vector_3'> +1.6598519e-04 </wgt>
<wgt id='morphing_basis_vector_4'> +5.3238930e-05 </wgt>
<wgt id='morphing_basis_vector_5'> +1.0100754e-04 </wgt>
</rwgt>
</event>
<event>
 4      1 +1.0153100e-05 5.71752500e+02 7.81860800e-03 9.25217400e-02
        2 -1    0    0  501    0 +0.0000000000e+00 +0.0000000000e+00 +5.1166055756e+02 5.1166055756e+02 0.0000000000e+00 0.0000e+00 -1.0000e+00
       -2 -1    0    0    0  501 -0.0000000000e+00 -0.0000000000e+00 -1.5972549552e+02 1.5972549552e+02 0.0000000000e+00 0.0000e+00 1.0000e+00
      -13  1    1    2    0    0 -1.9852830545e+02 -1.7650512342e+02 +5.1930500044e+01 2.7067383231e+02 0.0000000000e+00 0.0000e+00 1.0000e+00
       13  1    1    2    0    0 +1.9852830545e+02 +1.7650512342e+02 +3.0000456199e+02 4.0071222077e+02 0.0000000000e+00 0.0000e+00 -1.0000e+00
<mgrwt>
<rscale>  0 0.57175252E+03</rscale>
<asrwt>0</asrwt>
<pdfrwt beam="1">  1        2 0.78717008E-01 0.57175252E+03</pdfrwt>
<pdfrwt beam="2">  1       -2 0.24573153E-01 0.57175252E+03</pdfrwt>
<totfact> 0.10141553E+03</totfact>
</mgrwt>
<rwgt>
<wgt id='morphing_basis_vector_1'> +2.3069863e-04 </wgt>
<wgt id='morphing_basis_vector_2'> +1.3422673e-04 </wgt>
<wgt id='morphing_basis_vector_3'> +1.7701220e-04 </wgt>
<wgt id='morphing_basis_vector_4'> +7.1308530e-05 </wgt>
<wgt id='morphing_basis_vector_5'> +1.0790074e-04 </wgt>
</rwgt>
</event>
<event>
 4      1 +1.0153100e-05 5.77621300e+02 7.81860800e-03 9.24113200e-02
        2 -1    0    0  501    0 +0.0000000000e+00 +0.0000000000e+00 +3.4289212249e+02 3.4289212249e+02 0.0000000000e+00 0.0000e+00 1.0000e+00
       -2 -1    0    0    0  501 -0.0000000000e+00 -0.0000000000e+00 -2.4325901422e+02 2.4325901422e+02 0.0000000000e+00 0.0000e+00 -1.0000e+00
      -13  1    1    2    0    0 +2.1916666270e+02 -8.5899549793e+01 -1.1998295010e+02 2.6421329832e+02 0.0000000000e+00 0.0000e+00 -1.0000e+00
       13  1    1    2    0    0 -2.1916666270e+02 +8.5899549793e+01 +2.1961605837e+02 3.2193783839e+02 0.0000000000e+00 0.0000e+00 1.0000e+00
<mgrwt>
<rscale>  0 0.57762133E+03</rscale>
<asrwt>0</asrwt>
<pdfrwt beam="1">  1        2 0.52752634E-01 0.57762133E+03</pdfrwt>
<pdfrwt beam="2">  1       -2 0.37424464E-01 0.57762133E+03</pdfrwt>
<totfact> 0.75881274E+02</totfact>
</mgrwt>
<rwgt>
<wgt id='morphing_basis_vector_1'> +2.3715407e-04 </wgt>
<wgt id='morphing_basis_vector_2'> +1.3521055e-04 </wgt>
<wgt id='morphing_basis_vector_3'> +1.8398324e-04 </wgt>
<wgt id='morphing_basis_vector_4'> +7.5829987e-05 </wgt>
<wgt id='morphing_basis_vector_5'> +1.1383582e-04 </wgt>
</rwgt>
</event>
<event>
 4      1 +1.0153100e-05 5.38767000e+02 7.81860800e-03 9.31697400e-02
        2 -1    0    0  501    0 +0.0000000000e+00 +0.0000000000e+00 +1.0456351806e+03 1.0456351806e+03 0.0000000000e+00 0.0000e+00 1.0000e+00
       -2 -1    0    0    0  501 -0.0000000000e+00 -0.0000000000e+00 -6.9400383608e+01 6.9400383608e+01 0.0000000000e+00 0.0000e+00 -1.0000e+00
      -13  1    1    2    0    0 -1.7312355532e+02 +8.7214422213e+01 +1.0098839870e+02 2.1857899606e+02 0.0000000000e+00 0.0000e+00 -1.0000e+00
       13  1    1    2    0    0 +1.7312355532e+02 -8.7214422213e+01 +8.7524639829e+02 8.9645656815e+02 0.0000000000e+00 0.0000e+00 1.0000e+00
<mgrwt>
<rscale>  0 0.53876705E+03</rscale>
<asrwt>0</asrwt>
<pdfrwt beam="1">  1        2 0.16086694E+00 0.53876705E+03</pdfrwt>
<pdfrwt beam="2">  1       -2 0.10676983E-01 0.53876705E+03</pdfrwt>
<totfact> 0.16113658E+03</totfact>
</mgrwt>
<rwgt>
<wgt id='morphing_basis_vector_1'> +1.9003031e-04 </wgt>
<wgt id='morphing_basis_vector_2'> +1.0620580e-04 </wgt>
<wgt id='morphing_basis_vector_3'> +1.4232155e-04 </wgt>
<wgt id='morphing_basis_vector_4'> +5.3721297e-05 </wgt>
<wgt id='morphing_basis_vector_5'> +7.8341505e-05 </wgt>
</rwgt>
</event>
<event>
 4      1 +1.0153100e-05 5.85768300e+02 7.81860800e-03 9.22603200e-02
        2 -1    0    0  501    0 +0.0000000000e+00 +0.0000000000e+00 +1.1453027255e+03 1.1453027255e+03 0.0000000000e+00 0.0000e+00 -1.0000e+00
       -2 -1    0    0    0  501 -0.0000000000e+00 -0.0000000000e+00 -7.4898207136e+01 7.4898207136e+01 0.0000000000e+00 0.0000e+00 1.0000e+00
      -13  1    1    2    0    0 +2.0488046325e+02 -1.4440955065e+02 +2.1962457230e+02 3.3326427246e+02 0.0000000000e+00 0.0000e+00 1.0000e+00
       13  1    1    2    0    0 -2.0488046325e+02 +1.4440955065e+02 +8.5077994603e+02 8.8693666014e+02 0.0000000000e+00 0.0000e+00 -1.0000e+00
<mgrwt>
<rscale>  0 0.58576828E+03</rscale>
<asrwt>0</asrwt>
<pdfrwt beam="1">  1        2 0.17620041E+00 0.58576828E+03</pdfrwt>
<pdfrwt beam="2">  1       -2 0.11522802E-01 0.58576828E+03</pdfrwt>
<totfact> 0.12468449E+03</totfact>
</mgrwt>
<rwgt>
<wgt id='morphing_basis_vector_1'> +2.4835468e-04 </wgt>
<wgt id='morphing_basis_vector_2'> +1.4269558e-04 </wgt>
<wgt id='morphing_basis_vector_3'> +1.9385186e-04 </wgt>
<wgt id='morphing_basis_vector_4'> +8.1041255e-05 </wgt>
<wgt id='morphing_basis_vector_5'> +1.2247247e-04 </wgt>
</rwgt>
</event>
<event>
 4      1 +1.0153100e-05 5.81511200e+02 7.81860800e-03 9.23388900e-02
        2 -1    0    0  501    0 +0.0000000000e+00 +0.0000000000e+00 +3.7683431604e+02 3.7683431604e+02 0.0000000000e+00 0.0000e+00 -1.0000e+00
       -2 -1    0    0    0  501 -0.0000000000e+00 -0.0000000000e+00 -2.2433948677e+02 2.2433948677e+02 0.0000000000e+00 0.0000e+00 1.0000e+00
      -13  1    1    2    0    0 -7.8536745715e+01 +2.7421528892e+02 +1.3451606889e+02 3.1536743316e+02 0.0000000000e+00 0.0000e+00 1.0000e+00
       13  1    1    2    0    0 +7.8536745715e+01 -2.7421528892e+02 +1.7978760376e+01 2.8580636965e+02 0.0000000000e+00 0.0000e+00 -1.0000e+00
<mgrwt>
<rscale>  0 0.58151119E+03</rscale>
<asrwt>0</asrwt>
<pdfrwt beam="1">  1        2 0.57974510E-01 0.58151119E+03</pdfrwt>
<pdfrwt beam="2">  1       -2 0.34513767E-01 0.58151119E+03</pdfrwt>
<totfact> 0.79043047E+02</totfact>
</mgrwt>
<rwgt>
<wgt id='morphing_basis_vector_1'> +2.5783511e-04 </wgt>
<wgt id='morphing_basis_vector_2'> +1.8648585e-04 </wgt>
<wgt id='morphing_basis_vector_3'> +1.8783804e-04 </wgt>
<wgt id='morphing_basis_vector_4'> +6.7376711e-05 </wgt>
<wgt id='morphing_basis_vector_5'> +1.1808125e-04 </wgt>
</rwgt>
</event>
<event>
 4      1 +1.0153100e-05 6.06565300e+02 7.81860800e-03 9.18863400e-02
        2 -1    0    0  501    0 +0.0000000000e+00 +0.0000000000e+00 +1.6886621460e+03 1.6886621460e+03 0.0000000000e+00 0.0000e+00 1.0000e+00
       -2 -1    0    0    0  501 -0.0000000000e+00 -0.0000000000e+00 -5.4469369365e+01 5.4469369365e+01 0.0000000000e+00 0.0000e+00 -1.0000e+00
      -13  1    1    2    0    0 -2.7830819609e+02 +2.7040472128e+01 +4.7958117580e+02 5.5514389425e+02 0.0000000000e+00 0.0000e+00 -1.0000e+00
       13  1    1    2    0    0 +2.7830819609e+02 -2.7040472128e+01 +1.1546116009e+03 1.1879876211e+03 0.0000000000e+00 0.0000e+00 1.0000e+00
<mgrwt>
<rscale>  0 0.60656529E+03</rscale>
<asrwt>0</asrwt>
<pdfrwt beam="1">  1        2 0.25979414E+00 0.60656529E+03</pdfrwt>
<pdfrwt beam="2">  1       -2 0.83799043E-02 0.60656529E+03</pdfrwt>
<totfact> 0.10230754E+03</totfact>
</mgrwt>
<rwgt>
<wgt id='morphing_basis_vector_1'> +2.7908513e-04 </wgt>
<wgt id='morphing_basis_vector_2'> +1.6389159e-04 </wgt>
<wgt id='morphing_basis_vector_3'> +2.2105324e-04 </wgt>
<wgt id='morphing_basis_vector_4'> +9.5328494e-05 </wgt>
<wgt id='morphing_basis_vector_5'> +1.4655394e-04 </wgt>
</rwgt>
</event>
<event>
 4      1 +1.0153100e-05 5.69345200e+02 7.81860800e-03 9.25674500e-02
        2 -1    0    0  501    0 +0.0000000000e+00 +0.0000000000e+00 +1.6971997741e+03 1.6971997741e+03 0.0000000000e+00 0.0000e+00 -1.0000e+00
       -2 -1    0    0    0  501 -0.0000000000e+00 -0.0000000000e+00 -4.7748350163e+01 4.7748350163e+01 0.0000000000e+00 0.0000e+00 1.0000e+00
      -13  1    1    2    0    0 +2.3091912261e+02 +1.5939124383e+02 +6.7744526632e+02 7.3325391144e+02 0.0000000000e+00 0.0000e+00 1.0000e+00
       13  1    1    2    0    0 -2.3091912261e+02 -1.5939124383e+02 +9.7200615758e+02 1.0116942128e+03 0.0000000000e+00 0.0000e+00 -1.0000e+00
<mgrwt>
<rscale>  0 0.56934520E+03</rscale>
<asrwt>0</asrwt>
<pdfrwt beam="1">  1        2 0.26110761E+00 0.56934520E+03</pdfrwt>
<pdfrwt beam="2">  1       -2 0.73459014E-02 0.56934520E+03</pdfrwt>
<totfact> 0.12430337E+03</totfact>
</mgrwt>
<rwgt>
<wgt id='morphing_basis_vector_1'> +2.2991230e-04 </wgt>
<wgt id='morphing_basis_vector_2'> +1.3946009e-04 </wgt>
<wgt id='morphing_basis_vector_3'> +1.7401366e-04 </wgt>
<wgt id='morphing_basis_vector_4'> +6.8304211e-05 </wgt>
<wgt id='morphing_basis_vector_5'> +1.0555941e-04 </wgt>
</rwgt>
</event>
<event>
 4      1 +1.0153100e-05 5.56720400e+02 7.81860800e-03 9.28111200e-02
        2 -1    0    0  501    0 +0.0000000000e+00 +0.0000000000e+00 +1.0479580022e+03 1.0479580022e+03 0.0000000000e+00 0.0000e+00 1.0000e+00
       -2 -1    0    0    0  501 -0.0000000000e+00 -0.0000000000e+00 -7.3938458133e+01 7.3938458133e+01 0.0000000000e+00 0.0000e+00 -1.0000e+00
      -13  1    1    2    0    0 -1.7149350947e+02 -4.4103472319e+01 +5.4193194706e+01 1.8518110707e+02 0.0000000000e+00 0.0000e+00 -1.0000e+00
       13  1    1    2    0    0 +1.7149350947e+02 +4.4103472319e+01 +9.1982634938e+02 9.3671535329e+02 0.0000000000e+00 0.0000e+00 1.0000e+00
<mgrwt>
<rscale>  0 0.55672039E+03</rscale>
<asrwt>0</asrwt>
<pdfrwt beam="1">  1        2 0.16122430E+00 0.55672039E+03</pdfrwt>
<pdfrwt beam="2">  1       -2 0.11375148E-01 0.55672039E+03</pdfrwt>
<totfact> 0.14535937E+03</totfact>
</mgrwt>
<rwgt>
<wgt id='morphing_basis_vector_1'> +2.1048363e-04 </wgt>
<wgt id='morphing_basis_vector_2'> +1.1806416e-04 </wgt>
<wgt id='morphing_basis_vector_3'> +1.6053388e-04 </wgt>
<wgt id='morphing_basis_vector_4'> +6.3416703e-05 </wgt>
<wgt id='morphing_basis_vector_5'> +9.3611813e-05 </wgt>
</rwgt>
</event>
<event>
 4      1 +1.0153100e-05 5.72280600e+02 7.81860800e-03 9.25117500e-02
        2 -1    0    0  501    0 +0.0000000000e+00 +0.0000000000e+00 +5.5749673524e+02 5.5749673524e+02 0.0000000000e+00 0.0000e+00 -1.0000e+00
       -2 -1    0    0    0  501 -0.0000000000e+00 -0.0000000000e+00 -1.4686410434e+02 1.4686410434e+02 0.0000000000e+00 0.0000e+00 1.0000e+00
      -13  1    1    2    0    0 -6.1452405764e+01 +7.6770324055e+01 -1.2541353191e+02 1.5936949148e+02 0.0000000000e+00 0.0000e+00 1.0000e+00
       13  1    1    2    0    0 +6.1452405764e+01 -7.6770324055e+01 +5.3604616282e+02 5.4499134810e+02 0.0000000000e+00 0.0000e+00 -1.0000e+00
<mgrwt>
<rscale>  0 0.57228056E+03</rscale>
<asrwt>0</asrwt>
<pdfrwt beam="1">  1        2 0.85768727E-01 0.57228056E+03</pdfrwt>
<pdfrwt beam="2">  1       -2 0.22594478E-01 0.57228056E+03</pdfrwt>
<totfact> 0.10594216E+03</totfact>
</mgrwt>
<rwgt>
<wgt id='morphing_basis_vector_1'> +2.2961203e-04 </wgt>
<wgt id='morphing_basis_vector_2'> +1.2915967e-04 </wgt>
<wgt id='morphing_basis_vector_3'> +1.7778144e-04 </wgt>
<wgt id='morphing_basis_vector_4'> +7.2831692e-05 </wgt>
<wgt id='morphing_basis_vector_5'> +1.0840115e-04 </wgt>
</rwgt>
</event>
<event>
 4      1 +1.0153100e-05 5.61745900e+02 7.81860800e-03 9.27133100e-02
        2 -1    0    0  501    0 +0.0000000000e+00 +0.0000000000e+00 +4.7646899451e+02 4.7646899451e+02 0.0000000000e+00 0.0000e+00 -1.0000e+00
       -2 -1    0    0    0  501 -0.0000000000e+00 -0.0000000000e+00 -1.6557137201e+02 1.6557137201e+02 0.0000000000e+00 0.0000e+00 1.0000e+00
      -13  1    1    2    0    0 -1.7254519468e+02 +1.9263178298e+02 +3.0190097947e+01 2.6036568521e+02 0.0000000000e+00 0.0000e+00 1.0000e+00
       13  1    1    2    0    0 +1.7254519468e+02 -1.9263178298e+02 +2.8070752454e+02 3.8167468131e+02 0.0000000000e+00 0.0000e+00 -1.0000e+00
<mgrwt>
<rscale>  0 0.56174594E+03</rscale>
<asrwt>0</asrwt>
<pdfrwt beam="1">  1        2 0.73302922E-01 0.56174594E+03</pdfrwt>
<pdfrwt beam="2">  1       -2 0.25472519E-01 0.56174594E+03</pdfrwt>
<totfact> 0.10341965E+03</totfact>
</mgrwt>
<rwgt>
<wgt id='morphing_basis_vector_1'> +2.1793978e-04 </wgt>
<wgt id='morphing_basis_vector_2'> +1.2598412e-04 </wgt>
<wgt id='morphing_basis_vector_3'> +1.6576291e-04 </wgt>
<wgt id='morphing_basis_vector_4'> +6.5439849e-05 </wgt>
<wgt id='morphing_basis_vector_5'> +9.8252053e-05 </wgt>
</rwgt>
</event>
<event>
 4      1 +1.0153100e-05 5.76954900e+02 7.81860800e-03 9.24237900e-02
        2 -1    0    0  501    0 +0.0000000000e+00 +0.0000000000e+00 +4.7069380062e+02 4.7069380062e+02 0.0000000000e+00 0.0000e+00 1.0000e+00
       -2 -1    0    0    0  501 -0.0000000000e+00 -0.0000000000e+00 -1.7680119863e+02 1.7680119863e+02 0.0000000000e+00 0.0000e+00 -1.0000e+00
      -13  1    1    2    0    0 -1.2141614942e+02 -1.2489643176e+02 -1.1112102887e+02 2.0661288214e+02 0.0000000000e+00 0.0000e+00 -1.0000e+00
       13  1    1    2    0    0 +1.2141614942e+02 +1.2489643176e+02 +4.0501363086e+02 4.4088211712e+02 0.0000000000e+00 0.0000e+00 1.0000e+00
<mgrwt>
<rscale>  0 0.57695486E+03</rscale>
<asrwt>0</asrwt>
<pdfrwt beam="1">  1        2 0.72414430E-01 0.57695486E+03</pdfrwt>
<pdfrwt beam="2">  1       -2 0.27200185E-01 0.57695486E+03</pdfrwt>
<totfact> 0.93656786E+02</totfact>
</mgrwt>
<rwgt>
<wgt id='morphing_basis_vector_1'> +2.3577013e-04 </wgt>
<wgt id='morphing_basis_vector_2'> +1.3310378e-04 </wgt>
<wgt id='morphing_basis_vector_3'> +1.8322901e-04 </wgt>
<wgt id='morphing_basis_vector_4'> +7.5751535e-05 </wgt>
<wgt id='morphing_basis_vector_5'> +1.1314209e-04 </wgt>
</rwgt>
</event>
<event>
 4      1 +1.0153100e-05 5.26271400e+02 7.81860800e-03 9.34282600e-02
        2 -1    0    0  501    0 +0.0000000000e+00 +0.0000000000e+00 +8.1373881655e+02 8.1373881655e+02 0.0000000000e+00 0.0000e+00 -1.0000e+00
       -2 -1    0    0    0  501 -0.0000000000e+00 -0.0000000000e+00 -8.5089223499e+01 8.5089223499e+01 0.0000000000e+00 0.0000e+00 1.0000e+00
      -13  1    1    2    0    0 +2.0228876158e+01 -2.3914090169e+02 +1.8003723708e+02 3.0001830782e+02 0.0000000000e+00 0.0000e+00 1.0000e+00
       13  1    1    2    0    0 -2.0228876158e+01 +2.3914090169e+02 +5.4861235597e+02 5.9880973223e+02 0.0000000000e+00 0.0000e+00 -1.0000e+00
<mgrwt>
<rscale>  0 0.52627143E+03</rscale>
<asrwt>0</asrwt>
<pdfrwt beam="1">  1        2 0.12519058E+00 0.52627143E+03</pdfrwt>
<pdfrwt beam="2">  1       -2 0.13090650E-01 0.52627143E+03</pdfrwt>
<totfact> 0.16390959E+03</totfact>
</mgrwt>
<rwgt>
<wgt id='morphing_basis_vector_1'> +1.7761165e-04 </wgt>
<wgt id='morphing_basis_vector_2'> +1.0114357e-04 </wgt>
<wgt id='morphing_basis_vector_3'> +1.3041553e-04 </wgt>
<wgt id='morphing_basis_vector_4'> +4.7236125e-05 </wgt>
<wgt id='morphing_basis_vector_5'> +6.8805939e-05 </wgt>
</rwgt>
</event>
<event>
 4      1 +1.0153100e-05 6.08435300e+02 7.81860800e-03 9.18535000e-02
        2 -1    0    0  501    0 +0.0000000000e+00 +0.0000000000e+00 +2.3253578854e+02 2.3253578854e+02 0.0000000000e+00 0.0000e+00 -1.0000e+00
       -2 -1    0    0    0  501 -0.0000000000e+00 -0.0000000000e+00 -3.9799628882e+02 3.9799628882e+02 0.0000000000e+00 0.0000e+00 1.0000e+00
      -13  1    1    2    0    0 +2.9247335289e+01 -2.2151360858e+02 -2.9668573376e+02 3.7141097187e+02 0.0000000000e+00 0.0000e+00 1.0000e+00
       13  1    1    2    0    0 -2.9247335289e+01 +2.2151360858e+02 +1.3122523348e+02 2.5912110549e+02 0.0000000000e+00 0.0000e+00 -1.0000e+00
<mgrwt>
<rscale>  0 0.60843531E+03</rscale>
<asrwt>0</asrwt>
<pdfrwt beam="1">  1        2 0.35774737E-01 0.60843531E+03</pdfrwt>
<pdfrwt beam="2">  1       -2 0.61230198E-01 0.60843531E+03</pdfrwt>
<totfact> 0.45353262E+02</totfact>
</mgrwt>
<rwgt>
<wgt id='morphing_basis_vector_1'> +2.8027707e-04 </wgt>
<wgt id='morphing_basis_vector_2'> +1.6059749e-04 </wgt>
<wgt id='morphing_basis_vector_3'> +2.2355961e-04 </wgt>
<wgt id='morphing_basis_vector_4'> +9.8060462e-05 </wgt>
<wgt id='morphing_basis_vector_5'> +1.4886424e-04 </wgt>
</rwgt>
</event>
<event>
 4      1 +1.0153100e-05 5.21495400e+02 7.81860800e-03 9.35291100e-02
        2 -1    0    0  501    0 +0.0000000000e+00 +0.0000000000e+00 +1.1020775175e+03 1.1020775175e+03 0.0000000000e+00 0.0000e+00 -1.0000e+00
       -2 -1    0    0    0  501 -0.0000000000e+00 -0.0000000000e+00 -6.1691998177e+01 6.1691998177e+01 0.0000000000e+00 0.0000e+00 1.0000e+00
      -13  1    1    2    0    0 +1.8105941208e+01 +1.9054456778e+02 +1.2503993301e+02 2.2862642512e+02 0.0000000000e+00 0.0000e+00 1.0000e+00
       13  1    1    2    0    0 -1.8105941208e+01 -1.9054456778e+02 +9.1534558634e+02 9.3514309057e+02 0.0000000000e+00 0.0000e+00 -1.0000e+00
<mgrwt>
<rscale>  0 0.52149540E+03</rscale>
<asrwt>0</asrwt>
<pdfrwt beam="1">  1        2 0.16955037E+00 0.52149540E+03</pdfrwt>
<pdfrwt beam="2">  1       -2 0.94910775E-02 0.52149540E+03</pdfrwt>
<totfact> 0.17940002E+03</totfact>
</mgrwt>
<rwgt>
<wgt id='morphing_basis_vector_1'> +1.7184714e-04 </wgt>
<wgt id='morphing_basis_vector_2'> +9.5535823e-05 </wgt>
<wgt id='morphing_basis_vector_3'> +1.2642892e-04 </wgt>
<wgt id='morphing_basis_vector_4'> +4.5516899e-05 </wgt>
<wgt id='morphing_basis_vector_5'> +6.5343487e-05 </wgt>
</rwgt>
</event>
<event>
 4      1 +1.0153100e-05 5.72505100e+02 7.81860800e-03 9.25075100e-02
        2 -1    0    0  501    0 +0.0000000000e+00 +0.0000000000e+00 +1.8053253149e+02 1.8053253149e+02 0.0000000000e+00 0.0000e+00 -1.0000e+00
       -2 -1    0    0    0  501 -0.0000000000e+00 -0.0000000000e+00 -4.5388228782e+02 4.5388228782e+02 0.0000000000e+00 0.0000e+00 1.0000e+00
      -13  1    1    2    0    0 -7.6667587326e+01 -2.7402354385e+01 -4.4078104382e+02 4.4823736632e+02 0.0000000000e+00 0.0000e+00 1.0000e+00
       13  1    1    2    0    0 +7.6667587326e+01 +2.7402354385e+01 +1.6743128749e+02 1.8617745299e+02 0.0000000000e+00 0.0000e+00 -1.0000e+00
<mgrwt>
<rscale>  0 0.57250509E+03</rscale>
<asrwt>0</asrwt>
<pdfrwt beam="1">  1        2 0.27774236E-01 0.57250509E+03</pdfrwt>
<pdfrwt beam="2">  1       -2 0.69828043E-01 0.57250509E+03</pdfrwt>
<totfact> 0.46141536E+02</totfact>
</mgrwt>
<rwgt>
<wgt id='morphing_basis_vector_1'> +2.2989530e-04 </wgt>
<wgt id='morphing_basis_vector_2'> +1.2931739e-04 </wgt>
<wgt id='morphing_basis_vector_3'> +1.7804087e-04 </wgt>
<wgt id='morphing_basis_vector_4'> +7.2976537e-05 </wgt>
<wgt id='morphing_basis_vector_5'> +1.0862555e-04 </wgt>
</rwgt>
</event>
<event>
 4      1 +1.0153100e-05 5.41187000e+02 7.81860800e-03 9.31205400e-02
        2 -1    0    0  501    0 +0.0000000000e+00 +0.0000000000e+00 +7.7864733848e+02 7.7864733848e+02 0.0000000000e+00 0.0000e+00 -1.0000e+00
       -2 -1    0    0    0  501 -0.0000000000e+00 -0.0000000000e+00 -9.4035965794e+01 9.4035965794e+01 0.0000000000e+00 0.0000e+00 1.0000e+00
      -13  1    1    2    0    0 +1.9492415068e+02 -1.3304579015e+02 +1.2883956120e+02 2.6887960005e+02 0.0000000000e+00 0.0000e+00 1.0000e+00
       13  1    1    2    0    0 -1.9492415068e+02 +1.3304579015e+02 +5.5577181149e+02 6.0380370423e+02 0.0000000000e+00 0.0000e+00 -1.0000e+00
<mgrwt>
<rscale>  0 0.54118705E+03</rscale>
<asrwt>0</asrwt>
<pdfrwt beam="1">  1        2 0.11979189E+00 0.54118705E+03</pdfrwt>
<pdfrwt beam="2">  1       -2 0.14467072E-01 0.54118705E+03</pdfrwt>
<totfact> 0.14768426E+03</totfact>
</mgrwt>
<rwgt>
<wgt id='morphing_basis_vector_1'> +1.9329952e-04 </wgt>
<wgt id='morphing_basis_vector_2'> +1.0964160e-04 </wgt>
<wgt id='morphing_basis_vector_3'> +1.4453969e-04 </wgt>
<wgt id='morphing_basis_vector_4'> +5.4614255e-05 </wgt>
<wgt id='morphing_basis_vector_5'> +8.0308068e-05 </wgt>
</rwgt>
</event>
<event>
 4      1 +1.0153100e-05 6.15793000e+02 7.81860800e-03 9.17254500e-02
        2 -1    0    0  501    0 +0.0000000000e+00 +0.0000000000e+00 +1.6941929698e+03 1.6941929698e+03 0.0000000000e+00 0.0000e+00 -1.0000e+00
       -2 -1    0    0    0  501 -0.0000000000e+00 -0.0000000000e+00 -5.5955987074e+01 5.5955987074e+01 0.0000000000e+00 0.0000e+00 1.0000e+00
      -13  1    1    2    0    0 -1.6361299740e+02 -1.8100016740e+02 +2.8536242674e+02 3.7544904862e+02 0.0000000000e+00 0.0000e+00 1.0000e+00
       13  1    1    2    0    0 +1.6361299740e+02 +1.8100016740e+02 +1.3528745560e+03 1.3746999083e+03 0.0000000000e+00 0.0000e+00 -1.0000e+00
<mgrwt>
<rscale>  0 0.61579295E+03</rscale>
<asrwt>0</asrwt>
<pdfrwt beam="1">  1        2 0.26064503E+00 0.61579295E+03</pdfrwt>
<pdfrwt beam="2">  1       -2 0.86086147E-02 0.61579295E+03</pdfrwt>
<totfact> 0.97392322E+02</totfact>
</mgrwt>
<rwgt>
<wgt id='morphing_basis_vector_1'> +2.9178009e-04 </wgt>
<wgt id='morphing_basis_vector_2'> +1.6821120e-04 </wgt>
<wgt id='morphing_basis_vector_3'> +2.3394973e-04 </wgt>
<wgt id='morphing_basis_vector_4'> +1.0374149e-04 </wgt>
<wgt id='morphing_basis_vector_5'> +1.5821887e-04 </wgt>
</rwgt>
</event>
<event>
 4      1 +1.0153100e-05 5.23772100e+02 7.81860800e-03 9.34808900e-02
        2 -1    0    0  501    0 +0.0000000000e+00 +0.0000000000e+00 +2.8065275247e+02 2.8065275247e+02 0.0000000000e+00 0.0000e+00 -1.0000e+00
       -2 -1    0    0    0  501 -0.0000000000e+00 -0.0000000000e+00 -2.4437425698e+02 2.4437425698e+02 0.0000000000e+00 0.0000e+00 1.0000e+00
      -13  1    1    2    0    0 -5.5286846126e+01 -5.6471791884e+01 -2.3213595652e+02 2.4521990324e+02 0.0000000000e+00 0.0000e+00 1.0000e+00
       13  1    1    2    0    0 +5.5286846126e+01 +5.6471791884e+01 +2.6841445202e+02 2.7980710621e+02 0.0000000000e+00 0.0000e+00 -1.0000e+00
<mgrwt>
<rscale>  0 0.52377212E+03</rscale>
<asrwt>0</asrwt>
<pdfrwt beam="1">  1        2 0.43177346E-01 0.52377212E+03</pdfrwt>
<pdfrwt beam="2">  1       -2 0.37596040E-01 0.52377212E+03</pdfrwt>
<totfact> 0.94176977E+02</totfact>
</mgrwt>
<rwgt>
<wgt id='morphing_basis_vector_1'> +1.7393315e-04 </wgt>
<wgt id='morphing_basis_vector_2'> +9.6187703e-05 </wgt>
<wgt id='morphing_basis_vector_3'> +1.2850445e-04 </wgt>
<wgt id='morphing_basis_vector_4'> +4.6653107e-05 </wgt>
<wgt id='morphing_basis_vector_5'> +6.6958820e-05 </wgt>
</rwgt>
</event>
<event>
 4      1 +1.0153100e-05 5.24107300e+02 7.81860800e-03 9.34738200e-02
        2 -1    0    0  501    0 +0.0000000000e+00 +0.0000000000e+00 +1.0919670819e+03 1.0919670819e+03 0.0000000000e+00 0.0000e+00 -1.0000e+00
       -2 -1    0    0    0  501 -0.0000000000e+00 -0.0000000000e+00 -6.2888444274e+01 6.2888444274e+01 0.0000000000e+00 0.0000e+00 1.0000e+00
      -13  1    1    2    0    0 +2.0880018397e+02 -2.9506039928e+01 +1.7173133755e+02 2.7195546605e+02 0.0000000000e+00 0.0000e+00 1.0000e+00
       13  1    1    2    0    0 -2.0880018397e+02 +2.9506039928e+01 +8.5734730006e+02 8.8290006011e+02 0.0000000000e+00 0.0000e+00 -1.0000e+00
<mgrwt>
<rscale>  0 0.52410728E+03</rscale>
<asrwt>0</asrwt>
<pdfrwt beam="1">  1        2 0.16799492E+00 0.52410728E+03</pdfrwt>
<pdfrwt beam="2">  1       -2 0.96751461E-02 0.52410728E+03</pdfrwt>
<totfact> 0.17649719E+03</totfact>
</mgrwt>
<rwgt>
<wgt id='morphing_basis_vector_1'> +1.7468511e-04 </wgt>
<wgt id='morphing_basis_vector_2'> +9.7660138e-05 </wgt>
<wgt id='morphing_basis_vector_3'> +1.2867973e-04 </wgt>
<wgt id='morphing_basis_vector_4'> +4.6601628e-05 </wgt>
<wgt id='morphing_basis_vector_5'> +6.7213026e-05 </wgt>
</rwgt>
</event>
<event>
 4      1 +1.0153100e-05 5.62332300e+02 7.81860800e-03 9.27019600e-02
        2 -1    0    0  501    0 +0.0000000000e+00 +0.0000000000e+00 +7.6197374900e+02 7.6197374900e+02 0.0000000000e+00 0.0000e+00 1.0000e+00
       -2 -1    0    0    0  501 -0.0000000000e+00 -0.0000000000e+00 -1.0374951069e+02 1.0374951069e+02 0.0000000000e+00 0.0000e+00 -1.0000e+00
      -13  1    1    2    0    0 -1.4978849639e+02 +2.2757143871e+02 +4.3609564802e+02 5.1420304121e+02 0.0000000000e+00 0.0000e+00 -1.0000e+00
       13  1    1    2    0    0 +1.4978849639e+02 -2.2757143871e+02 +2.2212859030e+02 3.5152021847e+02 0.0000000000e+00 0.0000e+00 1.0000e+00
<mgrwt>
<rscale>  0 0.56233230E+03</rscale>
<asrwt>0</asrwt>
<pdfrwt beam="1">  1        2 0.11722673E+00 0.56233230E+03</pdfrwt>
<pdfrwt beam="2">  1       -2 0.15961464E-01 0.56233230E+03</pdfrwt>
<totfact> 0.12948432E+03</totfact>
</mgrwt>
<rwgt>
<wgt id='morphing_basis_vector_1'> +2.3440664e-04 </wgt>
<wgt id='morphing_basis_vector_2'> +1.7531295e-04 </wgt>
<wgt id='morphing_basis_vector_3'> +1.6435374e-04 </wgt>
<wgt id='morphing_basis_vector_4'> +5.5667712e-05 </wgt>
<wgt id='morphing_basis_vector_5'> +9.9087397e-05 </wgt>
</rwgt>
</event>
<event>
 4      1 +1.0153100e-05 5.52791100e+02 7.81860800e-03 9.28883600e-02
        2 -1    0    0  501    0 +0.0000000000e+00 +0.0000000000e+00 +4.0969759197e+02 4.0969759197e+02 0.0000000000e+00 0.0000e+00 -1.0000e+00
       -2 -1    0    0    0  501 -0.0000000000e+00 -0.0000000000e+00 -1.8646558722e+02 1.8646558722e+02 0.0000000000e+00 0.0000e+00 1.0000e+00
      -13  1    1    2    0    0 -2.2810065001e+02 -8.2253905868e+01 -3.1453394335e+01 2.4450956542e+02 0.0000000000e+00 0.0000e+00 1.0000e+00
       13  1    1    2    0    0 +2.2810065001e+02 +8.2253905868e+01 +2.5468539908e+02 3.5165361377e+02 0.0000000000e+00 0.0000e+00 -1.0000e+00
<mgrwt>
<rscale>  0 0.55279111E+03</rscale>
<asrwt>0</asrwt>
<pdfrwt beam="1">  1        2 0.63030399E-01 0.55279111E+03</pdfrwt>
<pdfrwt beam="2">  1       -2 0.28687013E-01 0.55279111E+03</pdfrwt>
<totfact> 0.99832247E+02</totfact>
</mgrwt>
<rwgt>
<wgt id='morphing_basis_vector_1'> +2.0663748e-04 </wgt>
<wgt id='morphing_basis_vector_2'> +1.1779186e-04 </wgt>
<wgt id='morphing_basis_vector_3'> +1.5626428e-04 </wgt>
<wgt id='morphing_basis_vector_4'> +6.0719702e-05 </wgt>
<wgt id='morphing_basis_vector_5'> +9.0126458e-05 </wgt>
</rwgt>
</event>
<event>
 4      1 +1.0153100e-05 5.75925400e+02 7.81860800e-03 9.24430900e-02
        2 -1    0    0  501    0 +0.0000000000e+00 +0.0000000000e+00 +1.6216062826e+02 1.6216062826e+02 0.0000000000e+00 0.0000e+00 1.0000e+00
       -2 -1    0    0    0  501 -0.0000000000e+00 -0.0000000000e+00 -5.1136034715e+02 5.1136034715e+02 0.0000000000e+00 0.0000e+00 -1.0000e+00
      -13  1    1    2    0    0 +7.7741009574e+01 -2.0734285461e+02 -3.8988126889e+02 4.4837721592e+02 0.0000000000e+00 0.0000e+00 -1.0000e+00
       13  1    1    2    0    0 -7.7741009574e+01 +2.0734285461e+02 +4.0681549996e+01 2.2514375949e+02 0.0000000000e+00 0.0000e+00 1.0000e+00
<mgrwt>
<rscale>  0 0.57592540E+03</rscale>
<asrwt>0</asrwt>
<pdfrwt beam="1">  1        2 0.24947789E-01 0.57592540E+03</pdfrwt>
<pdfrwt beam="2">  1       -2 0.78670822E-01 0.57592540E+03</pdfrwt>
<totfact> 0.40323616E+02</totfact>
</mgrwt>
<rwgt>
<wgt id='morphing_basis_vector_1'> +2.3473524e-04 </wgt>
<wgt id='morphing_basis_vector_2'> +1.3325958e-04 </wgt>
<wgt id='morphing_basis_vector_3'> +1.8199279e-04 </wgt>
<wgt id='morphing_basis_vector_4'> +7.4871837e-05 </wgt>
<wgt id='morphing_basis_vector_5'> +1.1209040e-04 </wgt>
</rwgt>
</event>
<event>
 4      1 +1.0153100e-05 5.59121100e+02 7.81860800e-03 9.27642600e-02
        2 -1    0    0  501    0 +0.0000000000e+00 +0.0000000000e+00 +2.9273270006e+02 2.9273270006e+02 0.0000000000e+00 0.0000e+00 -1.0000e+00
       -2 -1    0    0    0  501 -0.0000000000e+00 -0.0000000000e+00 -2.6698111570e+02 2.6698111570e+02 0.0000000000e+00 0.0000e+00 1.0000e+00
      -13  1    1    2    0    0 +1.7915110672e+01 +2.7869451977e+02 +2.5637495250e+01 2.8044405450e+02 0.0000000000e+00 0.0000e+00 1.0000e+00
       13  1    1    2    0    0 -1.7915110672e+01 -2.7869451977e+02 +1.1408911733e-01 2.7926976126e+02 0.0000000000e+00 0.0000e+00 -1.0000e+00
<mgrwt>
<rscale>  0 0.55912111E+03</rscale>
<asrwt>0</asrwt>
<pdfrwt beam="1">  1        2 0.45035800E-01 0.55912111E+03</pdfrwt>
<pdfrwt beam="2">  1       -2 0.41074018E-01 0.55912111E+03</pdfrwt>
<totfact> 0.76298044E+02</totfact>
</mgrwt>
<rwgt>
<wgt id='morphing_basis_vector_1'> +2.2169610e-04 </wgt>
<wgt id='morphing_basis_vector_2'> +1.4564750e-04 </wgt>
<wgt id='morphing_basis_vector_3'> +1.6190326e-04 </wgt>
<wgt id='morphing_basis_vector_4'> +5.9541166e-05 </wgt>
<wgt id='morphing_basis_vector_5'> +9.5958692e-05 </wgt>
</rwgt>
</event>
<event>
 4      1 +1.0153100e-05 6.09690100e+02 7.81860800e-03 9.18315200e-02
        2 -1    0    0  501    0 +0.0000000000e+00 +0.0000000000e+00 +1.8150754348e+02 1.8150754348e+02 0.0000000000e+00 0.0000e+00 -1.0000e+00
       -2 -1    0    0    0  501 -0.0000000000e+00 -0.0000000000e+00 -5.1199253861e+02 5.1199253861e+02 0.0000000000e+00 0.0000e+00 1.0000e+00
      -13  1    1    2    0    0 -1.7739446206e+02 -5.2526515821e+01 +1.1034932214e+02 2.1541774052e+02 0.0000000000e+00 0.0000e+00 -1.0000e+00
       13  1    1    2    0    0 +1.7739446206e+02 +5.2526515821e+01 -4.4083431727e+02 4.7808234157e+02 0.0000000000e+00 0.0000e+00 1.0000e+00
<mgrwt>
<rscale>  0 0.60969011E+03</rscale>
<asrwt>0</asrwt>
<pdfrwt beam="1">  1        2 0.27924238E-01 0.60969011E+03</pdfrwt>
<pdfrwt beam="2">  1       -2 0.78768081E-01 0.60969011E+03</pdfrwt>
<totfact> 0.35222155E+02</totfact>
</mgrwt>
<rwgt>
<wgt id='morphing_basis_vector_1'> +3.7224110e-04 </wgt>
<wgt id='morphing_basis_vector_2'> +4.4089432e-04 </wgt>
<wgt id='morphing_basis_vector_3'> +2.3029760e-04 </wgt>
<wgt id='morphing_basis_vector_4'> +2.6873380e-05 </wgt>
<wgt id='morphing_basis_vector_5'> +1.5057905e-04 </wgt>
</rwgt>
</event>
<event>
 4      1 +1.0153100e-05 5.69770900e+02 7.81860800e-03 9.25593500e-02
        2 -1    0    0  501    0 +0.0000000000e+00 +0.0000000000e+00 +2.2131417332e+03 2.2131417332e+03 0.0000000000e+00 0.0000e+00 1.0000e+00
       -2 -1    0    0    0  501 -0.0000000000e+00 -0.0000000000e+00 -3.6671716754e+01 3.6671716754e+01 0.0000000000e+00 0.0000e+00 -1.0000e+00
      -13  1    1    2    0    0 -1.6280366344e+02 +2.1142557144e+02 +6.9428333260e+02 7.4379778906e+02 0.0000000000e+00 0.0000e+00 -1.0000e+00
       13  1    1    2    0    0 +1.6280366344e+02 -2.1142557144e+02 +1.4821866839e+03 1.5060156609e+03 0.0000000000e+00 0.0000e+00 1.0000e+00
<mgrwt>
<rscale>  0 0.56977085E+03</rscale>
<asrwt>0</asrwt>
<pdfrwt beam="1">  1        2 0.34048324E+00 0.56977085E+03</pdfrwt>
<pdfrwt beam="2">  1       -2 0.56418043E-02 0.56977085E+03</pdfrwt>
<totfact> 0.97123087E+02</totfact>
</mgrwt>
<rwgt>
<wgt id='morphing_basis_vector_1'> +2.2831427e-04 </wgt>
<wgt id='morphing_basis_vector_2'> +1.3314828e-04 </wgt>
<wgt id='morphing_basis_vector_3'> +1.7471740e-04 </wgt>
<wgt id='morphing_basis_vector_4'> +6.9990776e-05 </wgt>
<wgt id='morphing_basis_vector_5'> +1.0594341e-04 </wgt>
</rwgt>
</event>
<event>
 4      1 +1.0153100e-05 5.30048900e+02 7.81860800e-03 9.33493100e-02
        2 -1    0    0  501    0 +0.0000000000e+00 +0.0000000000e+00 +2.7937140585e+03 2.7937140585e+03 0.0000000000e+00 0.0000e+00 1.0000e+00
       -2 -1    0    0    0  501 -0.0000000000e+00 -0.0000000000e+00 -2.5141425573e+01 2.5141425573e+01 0.0000000000e+00 0.0000e+00 -1.0000e+00
      -13  1    1    2    0    0 +2.0785649883e+02 -1.6438495449e+02 +1.4020973679e+03 1.4269210792e+03 0.0000000000e+00 0.0000e+00 1.0000e+00
       13  1    1    2    0    0 -2.0785649883e+02 +1.6438495449e+02 +1.3664752651e+03 1.3919344049e+03 0.0000000000e+00 0.0000e+00 -1.0000e+00
<mgrwt>
<rscale>  0 0.53004888E+03</rscale>
<asrwt>0</asrwt>
<pdfrwt beam="1">  1        2 0.42980192E+00 0.53004888E+03</pdfrwt>
<pdfrwt beam="2">  1       -2 0.38679138E-02 0.53004888E+03</pdfrwt>
<totfact> 0.79284317E+02</totfact>
</mgrwt>
<rwgt>
<wgt id='morphing_basis_vector_1'> +1.8673945e-04 </wgt>
<wgt id='morphing_basis_vector_2'> +1.1957149e-04 </wgt>
<wgt id='morphing_basis_vector_3'> +1.3246077e-04 </wgt>
<wgt id='morphing_basis_vector_4'> +4.6285569e-05 </wgt>
<wgt id='morphing_basis_vector_5'> +7.1761018e-05 </wgt>
</rwgt>
</event>
<event>
 4      1 +1.0153100e-05 5.73238100e+02 7.81860800e-03 9.24936600e-02
        2 -1    0    0  501    0 +0.0000000000e+00 +0.0000000000e+00 +8.8430017064e+02 8.8430017064e+02 0.0000000000e+00 0.0000e+00 -1.0000e+00
       -2 -1    0    0    0  501 -0.0000000000e+00 -0.0000000000e+00 -9.2898877479e+01 9.2898877479e+01 0.0000000000e+00 0.0000e+00 1.0000e+00
      -13  1    1    2    0    0 +2.6188022833e+02 -2.0757835062e+01 +2.0030342216e+02 3.3035375378e+02 0.0000000000e+00 0.0000e+00 1.0000e+00
       13  1    1    2    0    0 -2.6188022833e+02 +2.0757835062e+01 +5.9109787101e+02 6.4684529435e+02 0.0000000000e+00 0.0000e+00 -1.0000e+00
<mgrwt>
<rscale>  0 0.57323815E+03</rscale>
<asrwt>0</asrwt>
<pdfrwt beam="1">  1        2 0.13604617E+00 0.57323815E+03</pdfrwt>
<pdfrwt beam="2">  1       -2 0.14292136E-01 0.57323815E+03</pdfrwt>
<totfact> 0.12780640E+03</totfact>
</mgrwt>
<rwgt>
<wgt id='morphing_basis_vector_1'> +2.3238666e-04 </wgt>
<wgt id='morphing_basis_vector_2'> +1.3468975e-04 </wgt>
<wgt id='morphing_basis_vector_3'> +1.7875622e-04 </wgt>
<wgt id='morphing_basis_vector_4'> +7.2385877e-05 </wgt>
<wgt id='morphing_basis_vector_5'> +1.0938292e-04 </wgt>
</rwgt>
</event>
<event>
 4      1 +1.0153100e-05 5.20052700e+02 7.81860800e-03 9.35598000e-02
        2 -1    0    0  501    0 +0.0000000000e+00 +0.0000000000e+00 +8.1708085527e+01 8.1708085527e+01 0.0000000000e+00 0.0000e+00 -1.0000e+00
       -2 -1    0    0    0  501 -0.0000000000e+00 -0.0000000000e+00 -8.2750333382e+02 8.2750333382e+02 0.0000000000e+00 0.0000e+00 1.0000e+00
      -13  1    1    2    0    0 -9.0108897520e+01 +1.2179644681e+02 -7.4236450679e+02 7.5766684553e+02 0.0000000000e+00 0.0000e+00 1.0000e+00
       13  1    1    2    0    0 +9.0108897520e+01 -1.2179644681e+02 -3.4307415006e+00 1.5154457382e+02 0.0000000000e+00 0.0000e+00 -1.0000e+00
<mgrwt>
<rscale>  0 0.52005274E+03</rscale>
<asrwt>0</asrwt>
<pdfrwt beam="1">  1        2 0.12570475E-01 0.52005274E+03</pdfrwt>
<pdfrwt beam="2">  1       -2 0.12730820E+00 0.52005274E+03</pdfrwt>
<totfact> 0.28944368E+02</totfact>
</mgrwt>
<rwgt>
<wgt id='morphing_basis_vector_1'> +1.7023309e-04 </wgt>
<wgt id='morphing_basis_vector_2'> +9.4182636e-05 </wgt>
<wgt id='morphing_basis_vector_3'> +1.2522146e-04 </wgt>
<wgt id='morphing_basis_vector_4'> +4.4954994e-05 </wgt>
<wgt id='morphing_basis_vector_5'> +6.4323850e-05 </wgt>
</rwgt>
</event>
<event>
 4      1 +1.0153100e-05 5.23160000e+02 7.81860800e-03 9.34938300e-02
        2 -1    0    0  501    0 +0.0000000000e+00 +0.0000000000e+00 +8.0943628009e+02 8.0943628009e+02 0.0000000000e+00 0.0000e+00 -1.0000e+00
       -2 -1    0    0    0  501 -0.0000000000e+00 -0.0000000000e+00 -8.4533027123e+01 8.4533027123e+01 0.0000000000e+00 0.0000e+00 1.0000e+00
      -13  1    1    2    0    0 -1.1299143538e+02 +1.9617130884e+02 +1.3851665147e+02 2.6539990508e+02 0.0000000000e+00 0.0000e+00 1.0000e+00
       13  1    1    2    0    0 +1.1299143538e+02 -1.9617130884e+02 +5.8638660150e+02 6.2856940214e+02 0.0000000000e+00 0.0000e+00 -1.0000e+00
<mgrwt>
<rscale>  0 0.52316001E+03</rscale>
<asrwt>0</asrwt>
<pdfrwt beam="1">  1        2 0.12452865E+00 0.52316001E+03</pdfrwt>
<pdfrwt beam="2">  1       -2 0.13005082E-01 0.52316001E+03</pdfrwt>
<totfact> 0.16675450E+03</totfact>
</mgrwt>
<rwgt>
<wgt id='morphing_basis_vector_1'> +1.7400070e-04 </wgt>
<wgt id='morphing_basis_vector_2'> +9.7970433e-05 </wgt>
<wgt id='morphing_basis_vector_3'> +1.2775341e-04 </wgt>
<wgt id='morphing_basis_vector_4'> +4.6033664e-05 </wgt>
<wgt id='morphing_basis_vector_5'> +6.6542135e-05 </wgt>
</rwgt>
</event>
<event>
 4      1 +1.0153100e-05 5.56258000e+02 7.81860800e-03 9.28201700e-02
        2 -1    0    0  501    0 +0.0000000000e+00 +0.0000000000e+00 +1.6890846640e+02 1.6890846640e+02 0.0000000000e+00 0.0000e+00 1.0000e+00
       -2 -1    0    0    0  501 -0.0000000000e+00 -0.0000000000e+00 -4.5797437782e+02 4.5797437782e+02 0.0000000000e+00 0.0000e+00 -1.0000e+00
      -13  1    1    2    0    0 +2.1565981009e+02 -1.1277122963e+02 -2.9627291344e+02 3.8341119331e+02 0.0000000000e+00 0.0000e+00 -1.0000e+00
       13  1    1    2    0    0 -2.1565981009e+02 +1.1277122963e+02 +7.2070020248e+00 2.4347165091e+02 0.0000000000e+00 0.0000e+00 1.0000e+00
<mgrwt>
<rscale>  0 0.55625803E+03</rscale>
<asrwt>0</asrwt>
<pdfrwt beam="1">  1        2 0.25985918E-01 0.55625803E+03</pdfrwt>
<pdfrwt beam="2">  1       -2 0.70457595E-01 0.55625803E+03</pdfrwt>
<totfact> 0.48930564E+02</totfact>
</mgrwt>
<rwgt>
<wgt id='morphing_basis_vector_1'> +2.1073234e-04 </wgt>
<wgt id='morphing_basis_vector_2'> +1.2022070e-04 </wgt>
<wgt id='morphing_basis_vector_3'> +1.5991827e-04 </wgt>
<wgt id='morphing_basis_vector_4'> +6.2657406e-05 </wgt>
<wgt id='morphing_basis_vector_5'> +9.3211208e-05 </wgt>
</rwgt>
</event>
<event>
 4      1 +1.0153100e-05 5.79327700e+02 7.81860800e-03 9.23794700e-02
        2 -1    0    0  501    0 +0.0000000000e+00 +0.0000000000e+00 +1.7313504814e+02 1.7313504814e+02 0.0000000000e+00 0.0000e+00 -1.0000e+00
       -2 -1    0    0    0  501 -0.0000000000e+00 -0.0000000000e+00 -4.8462252224e+02 4.8462252224e+02 0.0000000000e+00 0.0000e+00 1.0000e+00
      -13  1    1    2    0    0 -1.7000115996e+02 +2.0465497334e+01 -4.2100989983e+02 4.5449814820e+02 0.0000000000e+00 0.0000e+00 1.0000e+00
       13  1    1    2    0    0 +1.7000115996e+02 -2.0465497334e+01 +1.0952242573e+02 2.0325942218e+02 0.0000000000e+00 0.0000e+00 -1.0000e+00
<mgrwt>
<rscale>  0 0.57932769E+03</rscale>
<asrwt>0</asrwt>
<pdfrwt beam="1">  1        2 0.26636162E-01 0.57932769E+03</pdfrwt>
<pdfrwt beam="2">  1       -2 0.74557310E-01 0.57932769E+03</pdfrwt>
<totfact> 0.42057691E+02</totfact>
</mgrwt>
<rwgt>
<wgt id='morphing_basis_vector_1'> +2.3888301e-04 </wgt>
<wgt id='morphing_basis_vector_2'> +1.3494419e-04 </wgt>
<wgt id='morphing_basis_vector_3'> +1.8605034e-04 </wgt>
<wgt id='morphing_basis_vector_4'> +7.7310121e-05 </wgt>
<wgt id='morphing_basis_vector_5'> +1.1560173e-04 </wgt>
</rwgt>
</event>
<event>
 4      1 +1.0153100e-05 5.33569900e+02 7.81860800e-03 9.32763500e-02
        2 -1    0    0  501    0 +0.0000000000e+00 +0.0000000000e+00 +1.8031203881e+03 1.8031203881e+03 0.0000000000e+00 0.0000e+00 -1.0000e+00
       -2 -1    0    0    0  501 -0.0000000000e+00 -0.0000000000e+00 -3.9472792700e+01 3.9472792700e+01 0.0000000000e+00 0.0000e+00 1.0000e+00
      -13  1    1    2    0    0 +2.0565247302e+02 +1.3008122027e+02 +5.0415927170e+02 5.5981303554e+02 0.0000000000e+00 0.0000e+00 1.0000e+00
       13  1    1    2    0    0 -2.0565247302e+02 -1.3008122027e+02 +1.2594883237e+03 1.2827801453e+03 0.0000000000e+00 0.0000e+00 -1.0000e+00
<mgrwt>
<rscale>  0 0.53356985E+03</rscale>
<asrwt>0</asrwt>
<pdfrwt beam="1">  1        2 0.27740307E+00 0.53356985E+03</pdfrwt>
<pdfrwt beam="2">  1       -2 0.60727387E-02 0.53356985E+03</pdfrwt>
<totfact> 0.14604844E+03</totfact>
</mgrwt>
<rwgt>
<wgt id='morphing_basis_vector_1'> +1.8533927e-04 </wgt>
<wgt id='morphing_basis_vector_2'> +1.0581138e-04 </wgt>
<wgt id='morphing_basis_vector_3'> +1.3713774e-04 </wgt>
<wgt id='morphing_basis_vector_4'> +5.0643146e-05 </wgt>
<wgt id='morphing_basis_vector_5'> +7.4287779e-05 </wgt>
</rwgt>
</event>
<event>
 4      1 +1.0153100e-05 5.21735900e+02 7.81860800e-03 9.35240000e-02
        2 -1    0    0  501    0 +0.0000000000e+00 +0.0000000000e+00 +8.5195213671e+02 8.5195213671e+02 0.0000000000e+00 0.0000e+00 -1.0000e+00
       -2 -1    0    0    0  501 -0.0000000000e+00 -0.0000000000e+00 -7.9877830340e+01 7.9877830340e+01 0.0000000000e+00 0.0000e+00 1.0000e+00
      -13  1    1    2    0    0 +1.0425847964e+02 +2.3076679347e+02 +4.9798710384e+02 5.5867190652e+02 0.0000000000e+00 0.0000e+00 1.0000e+00
       13  1    1    2    0    0 -1.0425847964e+02 -2.3076679347e+02 +2.7408720253e+02 3.7315806053e+02 0.0000000000e+00 0.0000e+00 -1.0000e+00
<mgrwt>
<rscale>  0 0.52173590E+03</rscale>
<asrwt>0</asrwt>
<pdfrwt beam="1">  1        2 0.13106955E+00 0.52173590E+03</pdfrwt>
<pdfrwt beam="2">  1       -2 0.12288898E-01 0.52173590E+03</pdfrwt>
<totfact> 0.17083401E+03</totfact>
</mgrwt>
<rwgt>
<wgt id='morphing_basis_vector_1'> +1.8506692e-04 </wgt>
<wgt id='morphing_basis_vector_2'> +1.3598432e-04 </wgt>
<wgt id='morphing_basis_vector_3'> +1.2262672e-04 </wgt>
<wgt id='morphing_basis_vector_4'> +3.9282343e-05 </wgt>
<wgt id='morphing_basis_vector_5'> +6.5937541e-05 </wgt>
</rwgt>
</event>
<event>
 4      1 +1.0153100e-05 6.00158600e+02 7.81860800e-03 9.19998400e-02
        2 -1    0    0  501    0 +0.0000000000e+00 +0.0000000000e+00 +5.2393856777e+02 5.2393856777e+02 0.0000000000e+00 0.0000e+00 1.0000e+00
       -2 -1    0    0    0  501 -0.0000000000e+00 -0.0000000000e+00 -1.7186670233e+02 1.7186670233e+02 0.0000000000e+00 0.0000e+00 -1.0000e+00
      -13  1    1    2    0    0 -1.3003901157e+01 -8.5568991186e+01 -1.5708133123e+02 1.7934798108e+02 0.0000000000e+00 0.0000e+00 -1.0000e+00
       13  1    1    2    0    0 +1.3003901157e+01 +8.5568991186e+01 +5.0915319667e+02 5.1645728902e+02 0.0000000000e+00 0.0000e+00 1.0000e+00
<mgrwt>
<rscale>  0 0.60015863E+03</rscale>
<asrwt>0</asrwt>
<pdfrwt beam="1">  1        2 0.80605933E-01 0.60015863E+03</pdfrwt>
<pdfrwt beam="2">  1       -2 0.26441031E-01 0.60015863E+03</pdfrwt>
<totfact> 0.87045897E+02</totfact>
</mgrwt>
<rwgt>
<wgt id='morphing_basis_vector_1'> +2.6766633e-04 </wgt>
<wgt id='morphing_basis_vector_2'> +1.5202136e-04 </wgt>
<wgt id='morphing_basis_vector_3'> +2.1232287e-04 </wgt>
<wgt id='morphing_basis_vector_4'> +9.2021125e-05 </wgt>
<wgt id='morphing_basis_vector_5'> +1.3880760e-04 </wgt>
</rwgt>
</event>
<event>
 4      1 +1.0153100e-05 5.46435500e+02 7.81860800e-03 9.30147700e-02
        2 -1    0    0  501    0 +0.0000000000e+00 +0.0000000000e+00 +2.3766865892e+02 2.3766865892e+02 0.0000000000e+00 0.0000e+00 -1.0000e+00
       -2 -1    0    0    0  501 -0.0000000000e+00 -0.0000000000e+00 -3.1408407755e+02 3.1408407755e+02 0.0000000000e+00 0.0000e+00 1.0000e+00
      -13  1    1    2    0    0 +6.7260652555e+01 +1.9908279042e+02 -2.1452065998e+02 3.0029496563e+02 0.0000000000e+00 0.0000e+00 1.0000e+00
       13  1    1    2    0    0 -6.7260652555e+01 -1.9908279042e+02 +1.3810524136e+02 2.5145777083e+02 0.0000000000e+00 0.0000e+00 -1.0000e+00
<mgrwt>
<rscale>  0 0.54643551E+03</rscale>
<asrwt>0</asrwt>
<pdfrwt beam="1">  1        2 0.36564409E-01 0.54643551E+03</pdfrwt>
<pdfrwt beam="2">  1       -2 0.48320627E-01 0.54643551E+03</pdfrwt>
<totfact> 0.70944174E+02</totfact>
</mgrwt>
<rwgt>
<wgt id='morphing_basis_vector_1'> +1.9872385e-04 </wgt>
<wgt id='morphing_basis_vector_2'> +1.1165789e-04 </wgt>
<wgt id='morphing_basis_vector_3'> +1.4985334e-04 </wgt>
<wgt id='morphing_basis_vector_4'> +5.7619661e-05 </wgt>
<wgt id='morphing_basis_vector_5'> +8.4640716e-05 </wgt>
</rwgt>
</event>
<event>
 4      1 +1.0153100e-05 5.40112700e+02 7.81860800e-03 9.31423500e-02
        2 -1    0    0  501    0 +0.0000000000e+00 +0.0000000000e+00 +1.9491219552e+03 1.9491219552e+03 0.0000000000e+00 0.0000e+00 -1.0000e+00
       -2 -1    0    0    0  501 -0.0000000000e+00 -0.0000000000e+00 -3.7417072041e+01 3.7417072041e+01 0.0000000000e+00 0.0000e+00 1.0000e+00
      -13  1    1    2    0    0 +2.6698105171e+02 +2.4819951879e+01 +8.3749572300e+02 8.7937136525e+02 0.0000000000e+00 0.0000e+00 1.0000e+00
       13  1    1    2    0    0 -2.6698105171e+02 -2.4819951879e+01 +1.0742091601e+03 1.1071676620e+03 0.0000000000e+00 0.0000e+00 -1.0000e+00
<mgrwt>
<rscale>  0 0.54011272E+03</rscale>
<asrwt>0</asrwt>
<pdfrwt beam="1">  1        2 0.29986484E+00 0.54011272E+03</pdfrwt>
<pdfrwt beam="2">  1       -2 0.57564741E-02 0.54011272E+03</pdfrwt>
<totfact> 0.13194018E+03</totfact>
</mgrwt>
<rwgt>
<wgt id='morphing_basis_vector_1'> +1.9539760e-04 </wgt>
<wgt id='morphing_basis_vector_2'> +1.1915051e-04 </wgt>
<wgt id='morphing_basis_vector_3'> +1.4274650e-04 </wgt>
<wgt id='morphing_basis_vector_4'> +5.2226028e-05 </wgt>
<wgt id='morphing_basis_vector_5'> +7.9524071e-05 </wgt>
</rwgt>
</event>
<event>
 4      1 +1.0153100e-05 6.15921100e+02 7.81860800e-03 9.17232400e-02
        2 -1    0    0  501    0 +0.0000000000e+00 +0.0000000000e+00 +1.7471506715e+02 1.7471506715e+02 0.0000000000e+00 0.0000e+00 -1.0000e+00
       -2 -1    0    0    0  501 -0.0000000000e+00 -0.0000000000e+00 -5.4282487779e+02 5.4282487779e+02 0.0000000000e+00 0.0000e+00 1.0000e+00
      -13  1    1    2    0    0 -4.6312034358e+01 +2.5211363089e+02 -3.8290147088e+02 4.6078153589e+02 0.0000000000e+00 0.0000e+00 1.0000e+00
       13  1    1    2    0    0 +4.6312034358e+01 -2.5211363089e+02 +1.4791660237e+01 2.5675840906e+02 0.0000000000e+00 0.0000e+00 -1.0000e+00
<mgrwt>
<rscale>  0 0.61592105E+03</rscale>
<asrwt>0</asrwt>
<pdfrwt beam="1">  1        2 0.26879241E-01 0.61592105E+03</pdfrwt>
<pdfrwt beam="2">  1       -2 0.83511520E-01 0.61592105E+03</pdfrwt>
<totfact> 0.32256546E+02</totfact>
</mgrwt>
<rwgt>
<wgt id='morphing_basis_vector_1'> +2.9223478e-04 </wgt>
<wgt id='morphing_basis_vector_2'> +1.6912427e-04 </wgt>
<wgt id='morphing_basis_vector_3'> +2.3415367e-04 </wgt>
<wgt id='morphing_basis_vector_4'> +1.0363631e-04 </wgt>
<wgt id='morphing_basis_vector_5'> +1.5838513e-04 </wgt>
</rwgt>
</event>
<event>
 4      1 +1.0153100e-05 5.30194300e+02 7.81860800e-03 9.33462900e-02
        2 -1    0    0  501    0 +0.0000000000e+00 +0.0000000000e+00 +5.3807313383e+02 5.3807313383e+02 0.0000000000e+00 0.0000e+00 -1.0000e+00
       -2 -1    0    0    0  501 -0.0000000000e+00 -0.0000000000e+00 -1.3060769364e+02 1.3060769364e+02 0.0000000000e+00 0.0000e+00 1.0000e+00
      -13  1    1    2    0    0 -1.4585703328e+02 -1.1251032735e+02 +4.4416793202e+02 4.8085132812e+02 0.0000000000e+00 0.0000e+00 -1.0000e+00
       13  1    1    2    0    0 +1.4585703328e+02 +1.1251032735e+02 -3.6702491831e+01 1.8782949935e+02 0.0000000000e+00 0.0000e+00 1.0000e+00
<mgrwt>
<rscale>  0 0.53019427E+03</rscale>
<asrwt>0</asrwt>
<pdfrwt beam="1">  1        2 0.82780481E-01 0.53019427E+03</pdfrwt>
<pdfrwt beam="2">  1       -2 0.20093492E-01 0.53019427E+03</pdfrwt>
<totfact> 0.13422511E+03</totfact>
</mgrwt>
<rwgt>
<wgt id='morphing_basis_vector_1'> +2.3205538e-04 </wgt>
<wgt id='morphing_basis_vector_2'> +2.5994666e-04 </wgt>
<wgt id='morphing_basis_vector_3'> +1.2038352e-04 </wgt>
<wgt id='morphing_basis_vector_4'> +2.2773782e-05 </wgt>
<wgt id='morphing_basis_vector_5'> +7.3210634e-05 </wgt>
</rwgt>
</event>
<event>
 4      1 +1.0153100e-05 6.04316700e+02 7.81860800e-03 9.19260100e-02
        2 -1    0    0  501    0 +0.0000000000e+00 +0.0000000000e+00 +7.0362140007e+02 7.0362140007e+02 0.0000000000e+00 0.0000e+00 -1.0000e+00
       -2 -1    0    0    0  501 -0.0000000000e+00 -0.0000000000e+00 -1.2975682447e+02 1.2975682447e+02 0.0000000000e+00 0.0000e+00 1.0000e+00
      -13  1    1    2    0    0 +7.3151343700e+01 -2.7328725191e+02 +1.4058065264e+02 3.1591131831e+02 0.0000000000e+00 0.0000e+00 -1.0000e+00
       13  1    1    2    0    0 -7.3151343700e+01 +2.7328725191e+02 +4.3328392296e+02 5.1746690622e+02 0.0000000000e+00 0.0000e+00 1.0000e+00
<mgrwt>
<rscale>  0 0.60431673E+03</rscale>
<asrwt>0</asrwt>
<pdfrwt beam="1">  1        2 0.10824944E+00 0.60431673E+03</pdfrwt>
<pdfrwt beam="2">  1       -2 0.19962589E-01 0.60431673E+03</pdfrwt>
<totfact> 0.98920496E+02</totfact>
</mgrwt>
<rwgt>
<wgt id='morphing_basis_vector_1'> +2.7607017e-04 </wgt>
<wgt id='morphing_basis_vector_2'> +1.6287685e-04 </wgt>
<wgt id='morphing_basis_vector_3'> +2.1798361e-04 </wgt>
<wgt id='morphing_basis_vector_4'> +9.3353878e-05 </wgt>
<wgt id='morphing_basis_vector_5'> +1.4380644e-04 </wgt>
</rwgt>
</event>
<event>
 4      1 +1.0153100e-05 5.48599400e+02 7.81860800e-03 9.29715300e-02
        2 -1    0    0  501    0 +0.0000000000e+00 +0.0000000000e+00 +8.9652938779e+02 8.9652938779e+02 0.0000000000e+00 0.0000e+00 -1.0000e+00
       -2 -1    0    0    0  501 -0.0000000000e+00 -0.0000000000e+00 -8.3923999296e+01 8.3923999296e+01 0.0000000000e+00 0.0000e+00 1.0000e+00
      -13  1    1    2    0    0 +1.7862010438e+02 -5.2447426077e+01 +4.6262093757e+01 1.9182297962e+02 0.0000000000e+00 0.0000e+00 1.0000e+00
       13  1    1    2    0    0 -1.7862010438e+02 +5.2447426077e+01 +7.6634329474e+02 7.8863040747e+02 0.0000000000e+00 0.0000e+00 -1.0000e+00
<mgrwt>
<rscale>  0 0.54859942E+03</rscale>
<asrwt>0</asrwt>
<pdfrwt beam="1">  1        2 0.13792759E+00 0.54859942E+03</pdfrwt>
<pdfrwt beam="2">  1       -2 0.12911385E-01 0.54859942E+03</pdfrwt>
<totfact> 0.14768945E+03</totfact>
</mgrwt>
<rwgt>
<wgt id='morphing_basis_vector_1'> +2.0101755e-04 </wgt>
<wgt id='morphing_basis_vector_2'> +1.1256208e-04 </wgt>
<wgt id='morphing_basis_vector_3'> +1.5207862e-04 </wgt>
<wgt id='morphing_basis_vector_4'> +5.8884398e-05 </wgt>
<wgt id='morphing_basis_vector_5'> +8.6473731e-05 </wgt>
</rwgt>
</event>
<event>
 4      1 +1.0153100e-05 5.92369300e+02 7.81860800e-03 9.21398600e-02
        2 -1    0    0  501    0 +0.0000000000e+00 +0.0000000000e+00 +1.0346546334e+03 1.0346546334e+03 0.0000000000e+00 0.0000e+00 -1.0000e+00
       -2 -1    0    0    0  501 -0.0000000000e+00 -0.0000000000e+00 -8.4787071695e+01 8.4787071695e+01 0.0000000000e+00 0.0000e+00 1.0000e+00
      -13  1    1    2    0    0 +6.3400806494e+01 -2.8737582645e+02 +4.1166714968e+02 5.0603791362e+02 0.0000000000e+00 0.0000e+00 1.0000e+00
       13  1    1    2    0    0 -6.3400806494e+01 +2.8737582645e+02 +5.3820041203e+02 6.1340379148e+02 0.0000000000e+00 0.0000e+00 -1.0000e+00
<mgrwt>
<rscale>  0 0.59236927E+03</rscale>
<asrwt>0</asrwt>
<pdfrwt beam="1">  1        2 0.15917763E+00 0.59236927E+03</pdfrwt>
<pdfrwt beam="2">  1       -2 0.13044166E-01 0.59236927E+03</pdfrwt>
<totfact> 0.11907600E+03</totfact>
</mgrwt>
<rwgt>
<wgt id='morphing_basis_vector_1'> +2.6228224e-04 </wgt>
<wgt id='morphing_basis_vector_2'> +1.6308702e-04 </wgt>
<wgt id='morphing_basis_vector_3'> +2.0212165e-04 </wgt>
<wgt id='morphing_basis_vector_4'> +8.2057923e-05 </wgt>
<wgt id='morphing_basis_vector_5'> +1.2982814e-04 </wgt>
</rwgt>
</event>
<event>
 4      1 +1.0153100e-05 5.38470500e+02 7.81860800e-03 9.31757900e-02
        2 -1    0    0  501    0 +0.0000000000e+00 +0.0000000000e+00 +5.8390764951e+02 5.8390764951e+02 0.0000000000e+00 0.0000e+00 -1.0000e+00
       -2 -1    0    0    0  501 -0.0000000000e+00 -0.0000000000e+00 -1.2414228227e+02 1.2414228227e+02 0.0000000000e+00 0.0000e+00 1.0000e+00
      -13  1    1    2    0    0 +1.6840890516e+02 +3.7410391421e+00 -4.6289975094e+01 1.7469492410e+02 0.0000000000e+00 0.0000e+00 1.0000e+00
       13  1    1    2    0    0 -1.6840890516e+02 -3.7410391421e+00 +5.0605534233e+02 5.3335500768e+02 0.0000000000e+00 0.0000e+00 -1.0000e+00
<mgrwt>
<rscale>  0 0.53847053E+03</rscale>
<asrwt>0</asrwt>
<pdfrwt beam="1">  1        2 0.89831944E-01 0.53847053E+03</pdfrwt>
<pdfrwt beam="2">  1       -2 0.19098813E-01 0.53847053E+03</pdfrwt>
<totfact> 0.13287421E+03</totfact>
</mgrwt>
<rwgt>
<wgt id='morphing_basis_vector_1'> +1.8958466e-04 </wgt>
<wgt id='morphing_basis_vector_2'> +1.0563963e-04 </wgt>
<wgt id='morphing_basis_vector_3'> +1.4206380e-04 </wgt>
<wgt id='morphing_basis_vector_4'> +5.3638677e-05 </wgt>
<wgt id='morphing_basis_vector_5'> +7.8101462e-05 </wgt>
</rwgt>
</event>
<event>
 4      1 +1.0153100e-05 5.97343700e+02 7.81860800e-03 9.20501800e-02
        2 -1    0    0  501    0 +0.0000000000e+00 +0.0000000000e+00 +1.9597206084e+03 1.9597206084e+03 0.0000000000e+00 0.0000e+00 1.0000e+00
       -2 -1    0    0    0  501 -0.0000000000e+00 -0.0000000000e+00 -4.5519174594e+01 4.5519174594e+01 0.0000000000e+00 0.0000e+00 -1.0000e+00
      -13  1    1    2    0    0 -2.0927874603e+02 -1.8041105044e+02 +5.7643151863e+02 6.3923316273e+02 0.0000000000e+00 0.0000e+00 -1.0000e+00
       13  1    1    2    0    0 +2.0927874603e+02 +1.8041105044e+02 +1.3377699152e+03 1.3660066203e+03 0.0000000000e+00 0.0000e+00 1.0000e+00
<mgrwt>
<rscale>  0 0.59734367E+03</rscale>
<asrwt>0</asrwt>
<pdfrwt beam="1">  1        2 0.30149541E+00 0.59734367E+03</pdfrwt>
<pdfrwt beam="2">  1       -2 0.70029515E-02 0.59734367E+03</pdfrwt>
<totfact> 0.96120353E+02</totfact>
</mgrwt>
<rwgt>
<wgt id='morphing_basis_vector_1'> +2.6556215e-04 </wgt>
<wgt id='morphing_basis_vector_2'> +1.5563530e-04 </wgt>
<wgt id='morphing_basis_vector_3'> +2.0862918e-04 </wgt>
<wgt id='morphing_basis_vector_4'> +8.8443489e-05 </wgt>
<wgt id='morphing_basis_vector_5'> +1.3550965e-04 </wgt>
</rwgt>
</event>
<event>
 4      1 +1.0153100e-05 5.50407700e+02 7.81860800e-03 9.29355500e-02
        2 -1    0    0  501    0 +0.0000000000e+00 +0.0000000000e+00 +2.0998369191e+02 2.0998369191e+02 0.0000000000e+00 0.0000e+00 -1.0000e+00
       -2 -1    0    0    0  501 -0.0000000000e+00 -0.0000000000e+00 -3.6068116422e+02 3.6068116422e+02 0.0000000000e+00 0.0000e+00 1.0000e+00
      -13  1    1    2    0    0 +4.0285584453e+01 +1.3264689394e+02 -3.2183571897e+02 3.5042311110e+02 0.0000000000e+00 0.0000e+00 1.0000e+00
       13  1    1    2    0    0 -4.0285584453e+01 -1.3264689394e+02 +1.7113824665e+02 2.2024174503e+02 0.0000000000e+00 0.0000e+00 -1.0000e+00
<mgrwt>
<rscale>  0 0.55040771E+03</rscale>
<asrwt>0</asrwt>
<pdfrwt beam="1">  1        2 0.32305184E-01 0.55040771E+03</pdfrwt>
<pdfrwt beam="2">  1       -2 0.55489409E-01 0.55040771E+03</pdfrwt>
<totfact> 0.62253828E+02</totfact>
</mgrwt>
<rwgt>
<wgt id='morphing_basis_vector_1'> +2.0297032e-04 </wgt>
<wgt id='morphing_basis_vector_2'> +1.1338210e-04 </wgt>
<wgt id='morphing_basis_vector_3'> +1.5395230e-04 </wgt>
<wgt id='morphing_basis_vector_4'> +5.9946566e-05 </wgt>
<wgt id='morphing_basis_vector_5'> +8.8026873e-05 </wgt>
</rwgt>
</event>
<event>
 4      1 +1.0153100e-05 5.74344300e+02 7.81860800e-03 9.24728100e-02
        2 -1    0    0  501    0 +0.0000000000e+00 +0.0000000000e+00 +1.0505186327e+03 1.0505186327e+03 0.0000000000e+00 0.0000e+00 -1.0000e+00
       -2 -1    0    0    0  501 -0.0000000000e+00 -0.0000000000e+00 -7.8502026107e+01 7.8502026107e+01 0.0000000000e+00 0.0000e+00 1.0000e+00
      -13  1    1    2    0    0 -5.9619077813e+00 -1.9020286166e+02 +6.3232899981e+01 2.0052698714e+02 0.0000000000e+00 0.0000e+00 1.0000e+00
       13  1    1    2    0    0 +5.9619077813e+00 +1.9020286166e+02 +9.0878370663e+02 9.2849367169e+02 0.0000000000e+00 0.0000e+00 -1.0000e+00
<mgrwt>
<rscale>  0 0.57434429E+03</rscale>
<asrwt>0</asrwt>
<pdfrwt beam="1">  1        2 0.16161824E+00 0.57434429E+03</pdfrwt>
<pdfrwt beam="2">  1       -2 0.12077236E-01 0.57434429E+03</pdfrwt>
<totfact> 0.13171969E+03</totfact>
</mgrwt>
<rwgt>
<wgt id='morphing_basis_vector_1'> +2.3243919e-04 </wgt>
<wgt id='morphing_basis_vector_2'> +1.3127599e-04 </wgt>
<wgt id='morphing_basis_vector_3'> +1.8015981e-04 </wgt>
<wgt id='morphing_basis_vector_4'> +7.4025434e-05 </wgt>
<wgt id='morphing_basis_vector_5'> +1.1047883e-04 </wgt>
</rwgt>
</event>
<event>
 4      1 +1.0153100e-05 5.52629700e+02 7.81860800e-03 9.28915500e-02
        2 -1    0    0  501    0 +0.0000000000e+00 +0.0000000000e+00 +1.2872688106e+03 1.2872688106e+03 0.0000000000e+00 0.0000e+00 1.0000e+00
       -2 -1    0    0    0  501 -0.0000000000e+00 -0.0000000000e+00 -5.9311537774e+01 5.9311537774e+01 0.0000000000e+00 0.0000e+00 -1.0000e+00
      -13  1    1    2    0    0 +1.4757226818e+02 +1.9205594794e+02 +2.8992039064e+02 3.7777889616e+02 0.0000000000e+00 0.0000e+00 -1.0000e+00
       13  1    1    2    0    0 -1.4757226818e+02 -1.9205594794e+02 +9.3803688216e+02 9.6880145219e+02 0.0000000000e+00 0.0000e+00 1.0000e+00
<mgrwt>
<rscale>  0 0.55262969E+03</rscale>
<asrwt>0</asrwt>
<pdfrwt beam="1">  1        2 0.19804133E+00 0.55262969E+03</pdfrwt>
<pdfrwt beam="2">  1       -2 0.91248529E-02 0.55262969E+03</pdfrwt>
<totfact> 0.14928286E+03</totfact>
</mgrwt>
<rwgt>
<wgt id='morphing_basis_vector_1'> +2.0644114e-04 </wgt>
<wgt id='morphing_basis_vector_2'> +1.1765718e-04 </wgt>
<wgt id='morphing_basis_vector_3'> +1.5609703e-04 </wgt>
<wgt id='morphing_basis_vector_4'> +6.0634998e-05 </wgt>
<wgt id='morphing_basis_vector_5'> +8.9984404e-05 </wgt>
</rwgt>
</event>
<event>
 4      1 +1.0153100e-05 5.20303400e+02 7.81860800e-03 9.35544600e-02
        2 -1    0    0  501    0 +0.0000000000e+00 +0.0000000000e+00 +5.7338912987e+02 5.7338912987e+02 0.0000000000e+00 0.0000e+00 1.0000e+00
       -2 -1    0    0    0  501 -0.0000000000e+00 -0.0000000000e+00 -1.1803312888e+02 1.1803312888e+02 0.0000000000e+00 0.0000e+00 -1.0000e+00
      -13  1    1    2    0    0 -2.3010321158e+02 +6.9561843170e+01 +3.5985057529e+02 4.3275717734e+02 0.0000000000e+00 0.0000e+00 1.0000e+00
       13  1    1    2    0    0 +2.3010321158e+02 -6.9561843170e+01 +9.5505425699e+01 2.5866508141e+02 0.0000000000e+00 0.0000e+00 -1.0000e+00
<mgrwt>
<rscale>  0 0.52030342E+03</rscale>
<asrwt>0</asrwt>
<pdfrwt beam="1">  1        2 0.88213711E-01 0.52030342E+03</pdfrwt>
<pdfrwt beam="2">  1       -2 0.18158943E-01 0.52030342E+03</pdfrwt>
<totfact> 0.14743233E+03</totfact>
</mgrwt>
<rwgt>
<wgt id='morphing_basis_vector_1'> +1.9112061e-04 </wgt>
<wgt id='morphing_basis_vector_2'> +1.5842467e-04 </wgt>
<wgt id='morphing_basis_vector_3'> +1.1892040e-04 </wgt>
<wgt id='morphing_basis_vector_4'> +3.5098789e-05 </wgt>
<wgt id='morphing_basis_vector_5'> +6.5183859e-05 </wgt>
</rwgt>
</event>
<event>
 4      1 +1.0153100e-05 5.35009300e+02 7.81860800e-03 9.32466900e-02
        2 -1    0    0  501    0 +0.0000000000e+00 +0.0000000000e+00 +4.2400843589e+02 4.2400843589e+02 0.0000000000e+00 0.0000e+00 -1.0000e+00
       -2 -1    0    0    0  501 -0.0000000000e+00 -0.0000000000e+00 -1.6876726671e+02 1.6876726671e+02 0.0000000000e+00 0.0000e+00 1.0000e+00
      -13  1    1    2    0    0 -6.7984731389e+01 +2.4780044508e+02 +4.5214225601e+01 2.6090479198e+02 0.0000000000e+00 0.0000e+00 1.0000e+00
       13  1    1    2    0    0 +6.7984731389e+01 -2.4780044508e+02 +2.1002694358e+02 3.3187091061e+02 0.0000000000e+00 0.0000e+00 -1.0000e+00
<mgrwt>
<rscale>  0 0.53500933E+03</rscale>
<asrwt>0</asrwt>
<pdfrwt beam="1">  1        2 0.65232067E-01 0.53500933E+03</pdfrwt>
<pdfrwt beam="2">  1       -2 0.25964195E-01 0.53500933E+03</pdfrwt>
<totfact> 0.11412546E+03</totfact>
</mgrwt>
<rwgt>
<wgt id='morphing_basis_vector_1'> +1.8783282e-04 </wgt>
<wgt id='morphing_basis_vector_2'> +1.0966457e-04 </wgt>
<wgt id='morphing_basis_vector_3'> +1.3826319e-04 </wgt>
<wgt id='morphing_basis_vector_4'> +5.0829287e-05 </wgt>
<wgt id='morphing_basis_vector_5'> +7.5429131e-05 </wgt>
</rwgt>
</event>
<event>
 4      1 +1.0153100e-05 5.51821700e+02 7.81860800e-03 9.29075300e-02
        2 -1    0    0  501    0 +0.0000000000e+00 +0.0000000000e+00 +7.6543347148e+02 7.6543347148e+02 0.0000000000e+00 0.0000e+00 -1.0000e+00
       -2 -1    0    0    0  501 -0.0000000000e+00 -0.0000000000e+00 -9.9455787867e+01 9.9455787867e+01 0.0000000000e+00 0.0000e+00 1.0000e+00
      -13  1    1    2    0    0 -2.0856043326e+02 +5.1883835911e+00 +4.9988708457e+01 2.1453028835e+02 0.0000000000e+00 0.0000e+00 1.0000e+00
       13  1    1    2    0    0 +2.0856043326e+02 -5.1883835911e+00 +6.1598897516e+02 6.5035897100e+02 0.0000000000e+00 0.0000e+00 -1.0000e+00
<mgrwt>
<rscale>  0 0.55182167E+03</rscale>
<asrwt>0</asrwt>
<pdfrwt beam="1">  1        2 0.11775899E+00 0.55182167E+03</pdfrwt>
<pdfrwt beam="2">  1       -2 0.15300891E-01 0.55182167E+03</pdfrwt>
<totfact> 0.13786533E+03</totfact>
</mgrwt>
<rwgt>
<wgt id='morphing_basis_vector_1'> +2.0490354e-04 </wgt>
<wgt id='morphing_basis_vector_2'> +1.1525479e-04 </wgt>
<wgt id='morphing_basis_vector_3'> +1.5535963e-04 </wgt>
<wgt id='morphing_basis_vector_4'> +6.0548726e-05 </wgt>
<wgt id='morphing_basis_vector_5'> +8.9263380e-05 </wgt>
</rwgt>
</event>
<event>
 4      1 +1.0153100e-05 5.95373500e+02 7.81860800e-03 9.20855900e-02
        2 -1    0    0  501    0 +0.0000000000e+00 +0.0000000000e+00 +2.8776837867e+02 2.8776837867e+02 0.0000000000e+00 0.0000e+00 -1.0000e+00
       -2 -1    0    0    0  501 -0.0000000000e+00 -0.0000000000e+00 -3.0794702214e+02 3.0794702214e+02 0.0000000000e+00 0.0000e+00 1.0000e+00
      -13  1    1    2    0    0 +1.3457905879e+02 +1.5441394952e+02 -2.2622776137e+02 3.0517894896e+02 0.0000000000e+00 0.0000e+00 1.0000e+00
       13  1    1    2    0    0 -1.3457905879e+02 -1.5441394952e+02 +2.0604911790e+02 2.9053645186e+02 0.0000000000e+00 0.0000e+00 -1.0000e+00
<mgrwt>
<rscale>  0 0.59537355E+03</rscale>
<asrwt>0</asrwt>
<pdfrwt beam="1">  1        2 0.44272058E-01 0.59537355E+03</pdfrwt>
<pdfrwt beam="2">  1       -2 0.47376465E-01 0.59537355E+03</pdfrwt>
<totfact> 0.59326183E+02</totfact>
</mgrwt>
<rwgt>
<wgt id='morphing_basis_vector_1'> +2.6103673e-04 </wgt>
<wgt id='morphing_basis_vector_2'> +1.4862523e-04 </wgt>
<wgt id='morphing_basis_vector_3'> +2.0604431e-04 </wgt>
<wgt id='morphing_basis_vector_4'> +8.8310123e-05 </wgt>
<wgt id='morphing_basis_vector_5'> +1.3321635e-04 </wgt>
</rwgt>
</event>
<event>
 4      1 +1.0153100e-05 5.57360100e+02 7.81860800e-03 9.27986100e-02
        2 -1    0    0  501    0 +0.0000000000e+00 +0.0000000000e+00 +1.5382320845e+03 1.5382320845e+03 0.0000000000e+00 0.0000e+00 1.0000e+00
       -2 -1    0    0    0  501 -0.0000000000e+00 -0.0000000000e+00 -5.0488208794e+01 5.0488208794e+01 0.0000000000e+00 0.0000e+00 -1.0000e+00
      -13  1    1    2    0    0 +2.3730615358e+02 -1.3706380564e+02 +8.8814703487e+02 9.2946535863e+02 0.0000000000e+00 0.0000e+00 -1.0000e+00
       13  1    1    2    0    0 -2.3730615358e+02 +1.3706380564e+02 +5.9959684083e+02 6.5925493466e+02 0.0000000000e+00 0.0000e+00 1.0000e+00
<mgrwt>
<rscale>  0 0.55736014E+03</rscale>
<asrwt>0</asrwt>
<pdfrwt beam="1">  1        2 0.23665105E+00 0.55736014E+03</pdfrwt>
<pdfrwt beam="2">  1       -2 0.77674179E-02 0.55736014E+03</pdfrwt>
<totfact> 0.13925371E+03</totfact>
</mgrwt>
<rwgt>
<wgt id='morphing_basis_vector_1'> +2.2456980e-04 </wgt>
<wgt id='morphing_basis_vector_2'> +1.5988605e-04 </wgt>
<wgt id='morphing_basis_vector_3'> +1.5919932e-04 </wgt>
<wgt id='morphing_basis_vector_4'> +5.5465198e-05 </wgt>
<wgt id='morphing_basis_vector_5'> +9.4457366e-05 </wgt>
</rwgt>
</event>
<event>
 4      1 +1.0153100e-05 5.59031200e+02 7.81860800e-03 9.27660100e-02
        2 -1    0    0  501    0 +0.0000000000e+00 +0.0000000000e+00 +2.3761689182e+02 2.3761689182e+02 0.0000000000e+00 0.0000e+00 1.0000e+00
       -2 -1    0    0    0  501 -0.0000000000e+00 -0.0000000000e+00 -3.2880221585e+02 3.2880221585e+02 0.0000000000e+00 0.0000e+00 -1.0000e+00
      -13  1    1    2    0    0 -6.0090963943e+01 +2.3651905588e+02 -1.8369054201e+02 3.0544132491e+02 0.0000000000e+00 0.0000e+00 -1.0000e+00
       13  1    1    2    0    0 +6.0090963943e+01 -2.3651905588e+02 +9.2505217972e+01 2.6097778276e+02 0.0000000000e+00 0.0000e+00 1.0000e+00
<mgrwt>
<rscale>  0 0.55903116E+03</rscale>
<asrwt>0</asrwt>
<pdfrwt beam="1">  1        2 0.36556445E-01 0.55903116E+03</pdfrwt>
<pdfrwt beam="2">  1       -2 0.50584956E-01 0.55903116E+03</pdfrwt>
<totfact> 0.64916293E+02</totfact>
</mgrwt>
<rwgt>
<wgt id='morphing_basis_vector_1'> +2.1405440e-04 </wgt>
<wgt id='morphing_basis_vector_2'> +1.2219105e-04 </wgt>
<wgt id='morphing_basis_vector_3'> +1.6288996e-04 </wgt>
<wgt id='morphing_basis_vector_4'> +6.4240516e-05 </wgt>
<wgt id='morphing_basis_vector_5'> +9.5730208e-05 </wgt>
</rwgt>
</event>
<event>
 4      1 +1.0153100e-05 5.23599200e+02 7.81860800e-03 9.34845500e-02
        2 -1    0    0  501    0 +0.0000000000e+00 +0.0000000000e+00 +1.3731320811e+03 1.3731320811e+03 0.0000000000e+00 0.0000e+00 1.0000e+00
       -2 -1    0    0    0  501 -0.0000000000e+00 -0.0000000000e+00 -4.9914373522e+01 4.9914373522e+01 0.0000000000e+00 0.0000e+00 -1.0000e+00
      -13  1    1    2    0    0 -1.0652000049e+02 +1.9490182313e+02 +2.8496032681e+02 3.6129713398e+02 0.0000000000e+00 0.0000e+00 -1.0000e+00
       13  1    1    2    0    0 +1.0652000049e+02 -1.9490182313e+02 +1.0382573807e+03 1.0617493206e+03 0.0000000000e+00 0.0000e+00 1.0000e+00
<mgrwt>
<rscale>  0 0.52359919E+03</rscale>
<asrwt>0</asrwt>
<pdfrwt beam="1">  1        2 0.21125106E+00 0.52359919E+03</pdfrwt>
<pdfrwt beam="2">  1       -2 0.76791354E-02 0.52359919E+03</pdfrwt>
<totfact> 0.17478533E+03</totfact>
</mgrwt>
<rwgt>
<wgt id='morphing_basis_vector_1'> +1.7435128e-04 </wgt>
<wgt id='morphing_basis_vector_2'> +9.7931274e-05 </wgt>
<wgt id='morphing_basis_vector_3'> +1.2817245e-04 </wgt>
<wgt id='morphing_basis_vector_4'> +4.6279576e-05 </wgt>
<wgt id='morphing_basis_vector_5'> +6.6853653e-05 </wgt>
</rwgt>
</event>
<event>
 4      1 +1.0153100e-05 5.68255200e+02 7.81860800e-03 9.25882200e-02
        2 -1    0    0  501    0 +0.0000000000e+00 +0.0000000000e+00 +1.3810583081e+02 1.3810583081e+02 0.0000000000e+00 0.0000e+00 -1.0000e+00
       -2 -1    0    0    0  501 -0.0000000000e+00 -0.0000000000e+00 -5.8454085716e+02 5.8454085716e+02 0.0000000000e+00 0.0000e+00 1.0000e+00
      -13  1    1    2    0    0 +2.5426782030e+02 +1.0638332869e+02 -3.1094562284e+02 4.1551981593e+02 0.0000000000e+00 0.0000e+00 1.0000e+00
       13  1    1    2    0    0 -2.5426782030e+02 -1.0638332869e+02 -1.3548940350e+02 3.0712687204e+02 0.0000000000e+00 0.0000e+00 -1.0000e+00
<mgrwt>
<rscale>  0 0.56825523E+03</rscale>
<asrwt>0</asrwt>
<pdfrwt beam="1">  1        2 0.21247051E-01 0.56825523E+03</pdfrwt>
<pdfrwt beam="2">  1       -2 0.89929362E-01 0.56825523E+03</pdfrwt>
<totfact> 0.35919469E+02</totfact>
</mgrwt>
<rwgt>
<wgt id='morphing_basis_vector_1'> +2.2748177e-04 </wgt>
<wgt id='morphing_basis_vector_2'> +1.3536278e-04 </wgt>
<wgt id='morphing_basis_vector_3'> +1.7287316e-04 </wgt>
<wgt id='morphing_basis_vector_4'> +6.8347484e-05 </wgt>
<wgt id='morphing_basis_vector_5'> +1.0447894e-04 </wgt>
</rwgt>
</event>
<event>
 4      1 +1.0153100e-05 5.78728600e+02 7.81860800e-03 9.23906400e-02
        2 -1    0    0  501    0 +0.0000000000e+00 +0.0000000000e+00 +1.6680665160e+03 1.6680665160e+03 0.0000000000e+00 0.0000e+00 -1.0000e+00
       -2 -1    0    0    0  501 -0.0000000000e+00 -0.0000000000e+00 -5.0196852755e+01 5.0196852755e+01 0.0000000000e+00 0.0000e+00 1.0000e+00
      -13  1    1    2    0    0 +2.7367601765e+02 -5.4007691090e+01 +5.8056446197e+02 6.4410440756e+02 0.0000000000e+00 0.0000e+00 1.0000e+00
       13  1    1    2    0    0 -2.7367601765e+02 +5.4007691090e+01 +1.0373052013e+03 1.0741589612e+03 0.0000000000e+00 0.0000e+00 -1.0000e+00
<mgrwt>
<rscale>  0 0.57872857E+03</rscale>
<asrwt>0</asrwt>
<pdfrwt beam="1">  1        2 0.25662558E+00 0.57872857E+03</pdfrwt>
<pdfrwt beam="2">  1       -2 0.77225940E-02 0.57872857E+03</pdfrwt>
<totfact> 0.11929901E+03</totfact>
</mgrwt>
<rwgt>
<wgt id='morphing_basis_vector_1'> +2.4088058e-04 </wgt>
<wgt id='morphing_basis_vector_2'> +1.4312560e-04 </wgt>
<wgt id='morphing_basis_vector_3'> +1.8515827e-04 </wgt>
<wgt id='morphing_basis_vector_4'> +7.4964571e-05 </wgt>
<wgt id='morphing_basis_vector_5'> +1.1501185e-04 </wgt>
</rwgt>
</event>
<event>
 4      1 +1.0153100e-05 5.28164100e+02 7.81860800e-03 9.33886200e-02
        2 -1    0    0  501    0 +0.0000000000e+00 +0.0000000000e+00 +5.4124922587e+02 5.4124922587e+02 0.0000000000e+00 0.0000e+00 1.0000e+00
       -2 -1    0    0    0  501 -0.0000000000e+00 -0.0000000000e+00 -1.2884882456e+02 1.2884882456e+02 0.0000000000e+00 0.0000e+00 -1.0000e+00
      -13  1    1    2    0    0 -4.5832409850e+01 +2.1125579666e+02 +1.3747056470e+01 2.1660702430e+02 0.0000000000e+00 0.0000e+00 -1.0000e+00
       13  1    1    2    0    0 +4.5832409850e+01 -2.1125579666e+02 +3.9865334484e+02 4.5349102612e+02 0.0000000000e+00 0.0000e+00 1.0000e+00
<mgrwt>
<rscale>  0 0.52816409E+03</rscale>
<asrwt>0</asrwt>
<pdfrwt beam="1">  1        2 0.83269111E-01 0.52816409E+03</pdfrwt>
<pdfrwt beam="2">  1       -2 0.19822896E-01 0.52816409E+03</pdfrwt>
<totfact> 0.13635302E+03</totfact>
</mgrwt>
<rwgt>
<wgt id='morphing_basis_vector_1'> +1.7893704e-04 </wgt>
<wgt id='morphing_basis_vector_2'> +1.0030977e-04 </wgt>
<wgt id='morphing_basis_vector_3'> +1.3231488e-04 </wgt>
<wgt id='morphing_basis_vector_4'> +4.8438280e-05 </wgt>
<wgt id='morphing_basis_vector_5'> +7.0180322e-05 </wgt>
</rwgt>
</event>
<event>
 4      1 +1.0153100e-05 5.21134300e+02 7.81860800e-03 9.35367800e-02
        2 -1    0    0  501    0 +0.0000000000e+00 +0.0000000000e+00 +2.6151247073e+03 2.6151247073e+03 0.0000000000e+00 0.0000e+00 -1.0000e+00
       -2 -1    0    0    0  501 -0.0000000000e+00 -0.0000000000e+00 -2.5962520421e+01 2.5962520421e+01 0.0000000000e+00 0.0000e+00 1.0000e+00
      -13  1    1    2    0    0 -2.2183307826e+01 -2.5804164106e+02 +1.4394964594e+03 1.4626098742e+03 0.0000000000e+00 0.0000e+00 1.0000e+00
       13  1    1    2    0    0 +2.2183307826e+01 +2.5804164106e+02 +1.1496657275e+03 1.1784773535e+03 0.0000000000e+00 0.0000e+00 -1.0000e+00
<mgrwt>
<rscale>  0 0.52113426E+03</rscale>
<asrwt>0</asrwt>
<pdfrwt beam="1">  1        2 0.40232667E+00 0.52113426E+03</pdfrwt>
<pdfrwt beam="2">  1       -2 0.39942360E-02 0.52113426E+03</pdfrwt>
<totfact> 0.96702044E+02</totfact>
</mgrwt>
<rwgt>
<wgt id='morphing_basis_vector_1'> +1.7967575e-04 </wgt>
<wgt id='morphing_basis_vector_2'> +1.2077018e-04 </wgt>
<wgt id='morphing_basis_vector_3'> +1.2355626e-04 </wgt>
<wgt id='morphing_basis_vector_4'> +4.1371645e-05 </wgt>
<wgt id='morphing_basis_vector_5'> +6.5357964e-05 </wgt>
</rwgt>
</event>
<event>
 4      1 +1.0153100e-05 5.22828500e+02 7.81860800e-03 9.35008400e-02
        2 -1    0    0  501    0 +0.0000000000e+00 +0.0000000000e+00 +1.7784970042e+02 1.7784970042e+02 0.0000000000e+00 0.0000e+00 1.0000e+00
       -2 -1    0    0    0  501 -0.0000000000e+00 -0.0000000000e+00 -3.8424253298e+02 3.8424253298e+02 0.0000000000e+00 0.0000e+00 -1.0000e+00
      -13  1    1    2    0    0 +2.1629630854e+02 -9.8290717179e+01 +1.4044855684e+01 2.3799667254e+02 0.0000000000e+00 0.0000e+00 1.0000e+00
       13  1    1    2    0    0 -2.1629630854e+02 +9.8290717179e+01 -2.2043768824e+02 3.2409556086e+02 0.0000000000e+00 0.0000e+00 -1.0000e+00
<mgrwt>
<rscale>  0 0.52282854E+03</rscale>
<asrwt>0</asrwt>
<pdfrwt beam="1">  1        2 0.27361492E-01 0.52282854E+03</pdfrwt>
<pdfrwt beam="2">  1       -2 0.59114236E-01 0.52282854E+03</pdfrwt>
<totfact> 0.66385047E+02</totfact>
</mgrwt>
<rwgt>
<wgt id='morphing_basis_vector_1'> +1.9636063e-04 </wgt>
<wgt id='morphing_basis_vector_2'> +1.6827181e-04 </wgt>
<wgt id='morphing_basis_vector_3'> +1.2055541e-04 </wgt>
<wgt id='morphing_basis_vector_4'> +3.4693757e-05 </wgt>
<wgt id='morphing_basis_vector_5'> +6.7038089e-05 </wgt>
</rwgt>
</event>
<event>
 4      1 +1.0153100e-05 5.68262900e+02 7.81860800e-03 9.25880700e-02
        2 -1    0    0  501    0 +0.0000000000e+00 +0.0000000000e+00 +1.3069964647e+03 1.3069964647e+03 0.0000000000e+00 0.0000e+00 -1.0000e+00
       -2 -1    0    0    0  501 -0.0000000000e+00 -0.0000000000e+00 -6.1768094187e+01 6.1768094187e+01 0.0000000000e+00 0.0000e+00 1.0000e+00
      -13  1    1    2    0    0 -2.8386958566e+02 +1.1961587763e+01 +6.2834436122e+02 6.8959528531e+02 0.0000000000e+00 0.0000e+00 1.0000e+00
       13  1    1    2    0    0 +2.8386958566e+02 -1.1961587763e+01 +6.1688400928e+02 6.7916927356e+02 0.0000000000e+00 0.0000e+00 -1.0000e+00
<mgrwt>
<rscale>  0 0.56826290E+03</rscale>
<asrwt>0</asrwt>
<pdfrwt beam="1">  1        2 0.20107636E+00 0.56826290E+03</pdfrwt>
<pdfrwt beam="2">  1       -2 0.95027847E-02 0.56826290E+03</pdfrwt>
<totfact> 0.13654173E+03</totfact>
</mgrwt>
<rwgt>
<wgt id='morphing_basis_vector_1'> +2.3231522e-04 </wgt>
<wgt id='morphing_basis_vector_2'> +1.5034370e-04 </wgt>
<wgt id='morphing_basis_vector_3'> +1.7237159e-04 </wgt>
<wgt id='morphing_basis_vector_4'> +6.5152373e-05 </wgt>
<wgt id='morphing_basis_vector_5'> +1.0456421e-04 </wgt>
</rwgt>
</event>
<event>
 4      1 +1.0153100e-05 5.92616200e+02 7.81860800e-03 9.21353900e-02
        2 -1    0    0  501    0 +0.0000000000e+00 +0.0000000000e+00 +1.4173043442e+03 1.4173043442e+03 0.0000000000e+00 0.0000e+00 1.0000e+00
       -2 -1    0    0    0  501 -0.0000000000e+00 -0.0000000000e+00 -6.1947526531e+01 6.1947526531e+01 0.0000000000e+00 0.0000e+00 -1.0000e+00
      -13  1    1    2    0    0 +1.5468364564e+02 +2.2242952718e+02 +3.7817748990e+02 4.6520977919e+02 0.0000000000e+00 0.0000e+00 -1.0000e+00
       13  1    1    2    0    0 -1.5468364564e+02 -2.2242952718e+02 +9.7717932779e+02 1.0140420916e+03 0.0000000000e+00 0.0000e+00 1.0000e+00
<mgrwt>
<rscale>  0 0.59261623E+03</rscale>
<asrwt>0</asrwt>
<pdfrwt beam="1">  1        2 0.21804680E+00 0.59261623E+03</pdfrwt>
<pdfrwt beam="2">  1       -2 0.95303897E-02 0.59261623E+03</pdfrwt>
<totfact> 0.11792684E+03</totfact>
</mgrwt>
<rwgt>
<wgt id='morphing_basis_vector_1'> +2.5859277e-04 </wgt>
<wgt id='morphing_basis_vector_2'> +1.5077728e-04 </wgt>
<wgt id='morphing_basis_vector_3'> +2.0247825e-04 </wgt>
<wgt id='morphing_basis_vector_4'> +8.5241976e-05 </wgt>
<wgt id='morphing_basis_vector_5'> +1.3007684e-04 </wgt>
</rwgt>
</event>
<event>
 4      1 +1.0153100e-05 5.81582700e+02 7.81860800e-03 9.23375700e-02
        2 -1    0    0  501    0 +0.0000000000e+00 +0.0000000000e+00 +2.4948193130e+02 2.4948193130e+02 0.0000000000e+00 0.0000e+00 1.0000e+00
       -2 -1    0    0    0  501 -0.0000000000e+00 -0.0000000000e+00 -3.3894083823e+02 3.3894083823e+02 0.0000000000e+00 0.0000e+00 -1.0000e+00
      -13  1    1    2    0    0 +1.3850018785e+02 -1.3399152386e+02 -2.6506022942e+02 3.2770864456e+02 0.0000000000e+00 0.0000e+00 -1.0000e+00
       13  1    1    2    0    0 -1.3850018785e+02 +1.3399152386e+02 +1.7560132249e+02 2.6071412497e+02 0.0000000000e+00 0.0000e+00 1.0000e+00
<mgrwt>
<rscale>  0 0.58158272E+03</rscale>
<asrwt>0</asrwt>
<pdfrwt beam="1">  1        2 0.38381836E-01 0.58158272E+03</pdfrwt>
<pdfrwt beam="2">  1       -2 0.52144744E-01 0.58158272E+03</pdfrwt>
<totfact> 0.57850088E+02</totfact>
</mgrwt>
<rwgt>
<wgt id='morphing_basis_vector_1'> +2.4196561e-04 </wgt>
<wgt id='morphing_basis_vector_2'> +1.3700264e-04 </wgt>
<wgt id='morphing_basis_vector_3'> +1.8875856e-04 </wgt>
<wgt id='morphing_basis_vector_4'> +7.8746726e-05 </wgt>
<wgt id='morphing_basis_vector_5'> +1.1797434e-04 </wgt>
</rwgt>
</event>
<event>
 4      1 +1.0153100e-05 5.59747800e+02 7.81860800e-03 9.27520600e-02
        2 -1    0    0  501    0 +0.0000000000e+00 +0.0000000000e+00 +4.8776528448e+02 4.8776528448e+02 0.0000000000e+00 0.0000e+00 -1.0000e+00
       -2 -1    0    0    0  501 -0.0000000000e+00 -0.0000000000e+00 -1.6058833110e+02 1.6058833110e+02 0.0000000000e+00 0.0000e+00 1.0000e+00
      -13  1    1    2    0    0 +6.4298607556e+01 +2.7218153509e+02 +1.5131305258e+02 3.1798229331e+02 0.0000000000e+00 0.0000e+00 1.0000e+00
       13  1    1    2    0    0 -6.4298607556e+01 -2.7218153509e+02 +1.7586390080e+02 3.3037132228e+02 0.0000000000e+00 0.0000e+00 -1.0000e+00
<mgrwt>
<rscale>  0 0.55974785E+03</rscale>
<asrwt>0</asrwt>
<pdfrwt beam="1">  1        2 0.75040812E-01 0.55974785E+03</pdfrwt>
<pdfrwt beam="2">  1       -2 0.24705897E-01 0.55974785E+03</pdfrwt>
<totfact> 0.10610596E+03</totfact>
</mgrwt>
<rwgt>
<wgt id='morphing_basis_vector_1'> +2.2026964e-04 </wgt>
<wgt id='morphing_basis_vector_2'> +1.3931644e-04 </wgt>
<wgt id='morphing_basis_vector_3'> +1.6290951e-04 </wgt>
<wgt id='morphing_basis_vector_4'> +6.1268230e-05 </wgt>
<wgt id='morphing_basis_vector_5'> +9.6491232e-05 </wgt>
</rwgt>
</event>
<event>
 4      1 +1.0153100e-05 6.08008100e+02 7.81860800e-03 9.18609900e-02
        2 -1    0    0  501    0 +0.0000000000e+00 +0.0000000000e+00 +1.6797481272e+03 1.6797481272e+03 0.0000000000e+00 0.0000e+00 -1.0000e+00
       -2 -1    0    0    0  501 -0.0000000000e+00 -0.0000000000e+00 -5.5019242609e+01 5.5019242609e+01 0.0000000000e+00 0.0000e+00 1.0000e+00
      -13  1    1    2    0    0 +1.9952694242e+02 +2.2849154867e+02 +7.5536606644e+02 8.1400078801e+02 0.0000000000e+00 0.0000e+00 1.0000e+00
       13  1    1    2    0    0 -1.9952694242e+02 -2.2849154867e+02 +8.6936281818e+02 9.2076658182e+02 0.0000000000e+00 0.0000e+00 -1.0000e+00
<mgrwt>
<rscale>  0 0.60800812E+03</rscale>
<asrwt>0</asrwt>
<pdfrwt beam="1">  1        2 0.25842275E+00 0.60800812E+03</pdfrwt>
<pdfrwt beam="2">  1       -2 0.84645001E-02 0.60800812E+03</pdfrwt>
<totfact> 0.10184857E+03</totfact>
</mgrwt>
<rwgt>
<wgt id='morphing_basis_vector_1'> +2.8673440e-04 </wgt>
<wgt id='morphing_basis_vector_2'> +1.8221311e-04 </wgt>
<wgt id='morphing_basis_vector_3'> +2.2331858e-04 </wgt>
<wgt id='morphing_basis_vector_4'> +9.2074884e-05 </wgt>
<wgt id='morphing_basis_vector_5'> +1.4834897e-04 </wgt>
</rwgt>
</event>
<event>
 4      1 +1.0153100e-05 5.71376400e+02 7.81860800e-03 9.25288700e-02
        2 -1    0    0  501    0 +0.0000000000e+00 +0.0000000000e+00 +4.7036036018e+02 4.7036036018e+02 0.0000000000e+00 0.0000e+00 -1.0000e+00
       -2 -1    0    0    0  501 -0.0000000000e+00 -0.0000000000e+00 -1.7352173256e+02 1.7352173256e+02 0.0000000000e+00 0.0000e+00 1.0000e+00
      -13  1    1    2    0    0 +1.1750818183e+02 +9.8393869672e+00 -1.4481805170e+02 1.8675452988e+02 0.0000000000e+00 0.0000e+00 1.0000e+00
       13  1    1    2    0    0 -1.1750818183e+02 -9.8393869672e+00 +4.4165667932e+02 4.5712756286e+02 0.0000000000e+00 0.0000e+00 -1.0000e+00
<mgrwt>
<rscale>  0 0.57137639E+03</rscale>
<asrwt>0</asrwt>
<pdfrwt beam="1">  1        2 0.72363132E-01 0.57137639E+03</pdfrwt>
<pdfrwt beam="2">  1       -2 0.26695651E-01 0.57137639E+03</pdfrwt>
<totfact> 0.96813851E+02</totfact>
</mgrwt>
<rwgt>
<wgt id='morphing_basis_vector_1'> +2.2846570e-04 </wgt>
<wgt id='morphing_basis_vector_2'> +1.2849983e-04 </wgt>
<wgt id='morphing_basis_vector_3'> +1.7674050e-04 </wgt>
<wgt id='morphing_basis_vector_4'> +7.2256300e-05 </wgt>
<wgt id='morphing_basis_vector_5'> +1.0750059e-04 </wgt>
</rwgt>
</event>
<event>
 4      1 +1.0153100e-05 5.56882000e+02 7.81860800e-03 9.28079600e-02
        2 -1    0    0  501    0 +0.0000000000e+00 +0.0000000000e+00 +4.3080764370e+02 4.3080764370e+02 0.0000000000e+00 0.0000e+00 -1.0000e+00
       -2 -1    0    0    0  501 -0.0000000000e+00 -0.0000000000e+00 -1.7996287065e+02 1.7996287065e+02 0.0000000000e+00 0.0000e+00 1.0000e+00
      -13  1    1    2    0    0 +1.4256220605e+02 -1.5148170930e+02 -7.7579597898e+01 2.2201190252e+02 0.0000000000e+00 0.0000e+00 1.0000e+00
       13  1    1    2    0    0 -1.4256220605e+02 +1.5148170930e+02 +3.2842437094e+02 3.8875861184e+02 0.0000000000e+00 0.0000e+00 -1.0000e+00
<mgrwt>
<rscale>  0 0.55688196E+03</rscale>
<asrwt>0</asrwt>
<pdfrwt beam="1">  1        2 0.66278099E-01 0.55688196E+03</pdfrwt>
<pdfrwt beam="2">  1       -2 0.27686596E-01 0.55688196E+03</pdfrwt>
<totfact> 0.10036067E+03</totfact>
</mgrwt>
<rwgt>
<wgt id='morphing_basis_vector_1'> +2.1086263e-04 </wgt>
<wgt id='morphing_basis_vector_2'> +1.1875670e-04 </wgt>
<wgt id='morphing_basis_vector_3'> +1.6067714e-04 </wgt>
<wgt id='morphing_basis_vector_4'> +6.3392967e-05 </wgt>
<wgt id='morphing_basis_vector_5'> +9.3761563e-05 </wgt>
</rwgt>
</event>
<event>
 4      1 +1.0153100e-05 5.89912600e+02 7.81860800e-03 9.21845000e-02
        2 -1    0    0  501    0 +0.0000000000e+00 +0.0000000000e+00 +9.0082667571e+02 9.0082667571e+02 0.0000000000e+00 0.0000e+00 1.0000e+00
       -2 -1    0    0    0  501 -0.0000000000e+00 -0.0000000000e+00 -9.6577078596e+01 9.6577078596e+01 0.0000000000e+00 0.0000e+00 -1.0000e+00
      -13  1    1    2    0    0 -1.1187589875e+02 -2.7276118202e+02 +4.1765128451e+02 5.1122155138e+02 0.0000000000e+00 0.0000e+00 -1.0000e+00
       13  1    1    2    0    0 +1.1187589875e+02 +2.7276118202e+02 +3.8659831260e+02 4.8618220293e+02 0.0000000000e+00 0.0000e+00 1.0000e+00
<mgrwt>
<rscale>  0 0.58991257E+03</rscale>
<asrwt>0</asrwt>
<pdfrwt beam="1">  1        2 0.13858871E+00 0.58991257E+03</pdfrwt>
<pdfrwt beam="2">  1       -2 0.14858013E-01 0.58991257E+03</pdfrwt>
<totfact> 0.11711375E+03</totfact>
</mgrwt>
<rwgt>
<wgt id='morphing_basis_vector_1'> +2.6273919e-04 </wgt>
<wgt id='morphing_basis_vector_2'> +1.7307218e-04 </wgt>
<wgt id='morphing_basis_vector_3'> +1.9887377e-04 </wgt>
<wgt id='morphing_basis_vector_4'> +7.7500018e-05 </wgt>
<wgt id='morphing_basis_vector_5'> +1.2710686e-04 </wgt>
</rwgt>
</event>
<event>
 4      1 +1.0153100e-05 5.74095700e+02 7.81860800e-03 9.24774900e-02
        2 -1    0    0  501    0 +0.0000000000e+00 +0.0000000000e+00 +4.2524414853e+02 4.2524414853e+02 0.0000000000e+00 0.0000e+00 -1.0000e+00
       -2 -1    0    0    0  501 -0.0000000000e+00 -0.0000000000e+00 -1.9376272756e+02 1.9376272756e+02 0.0000000000e+00 0.0000e+00 1.0000e+00
      -13  1    1    2    0    0 +3.2777707067e+01 -2.7233173289e+02 +2.4520236040e+01 2.7539098169e+02 0.0000000000e+00 0.0000e+00 1.0000e+00
       13  1    1    2    0    0 -3.2777707067e+01 +2.7233173289e+02 +2.0696118492e+02 3.4361589440e+02 0.0000000000e+00 0.0000e+00 -1.0000e+00
<mgrwt>
<rscale>  0 0.57409569E+03</rscale>
<asrwt>0</asrwt>
<pdfrwt beam="1">  1        2 0.65422176E-01 0.57409569E+03</pdfrwt>
<pdfrwt beam="2">  1       -2 0.29809651E-01 0.57409569E+03</pdfrwt>
<totfact> 0.89518513E+02</totfact>
</mgrwt>
<rwgt>
<wgt id='morphing_basis_vector_1'> +2.3443157e-04 </wgt>
<wgt id='morphing_basis_vector_2'> +1.3826543e-04 </wgt>
<wgt id='morphing_basis_vector_3'> +1.7968044e-04 </wgt>
<wgt id='morphing_basis_vector_4'> +7.2284874e-05 </wgt>
<wgt id='morphing_basis_vector_5'> +1.1025995e-04 </wgt>
</rwgt>
</event>
<event>
 4      1 +1.0153100e-05 5.38954300e+02 7.81860800e-03 9.31659300e-02
        2 -1    0    0  501    0 +0.0000000000e+00 +0.0000000000e+00 +2.7005114224e+02 2.7005114224e+02 0.0000000000e+00 0.0000e+00 1.0000e+00
       -2 -1    0    0    0  501 -0.0000000000e+00 -0.0000000000e+00 -2.6890438408e+02 2.6890438408e+02 0.0000000000e+00 0.0000e+00 -1.0000e+00
      -13  1    1    2    0    0 +1.2034944694e+02 +1.7189492247e+02 +1.6964795358e+02 2.6983751019e+02 0.0000000000e+00 0.0000e+00 1.0000e+00
       13  1    1    2    0    0 -1.2034944694e+02 -1.7189492247e+02 -1.6850119542e+02 2.6911801614e+02 0.0000000000e+00 0.0000e+00 -1.0000e+00
<mgrwt>
<rscale>  0 0.53895431E+03</rscale>
<asrwt>0</asrwt>
<pdfrwt beam="1">  1        2 0.41546329E-01 0.53895431E+03</pdfrwt>
<pdfrwt beam="2">  1       -2 0.41369906E-01 0.53895431E+03</pdfrwt>
<totfact> 0.82432628E+02</totfact>
</mgrwt>
<rwgt>
<wgt id='morphing_basis_vector_1'> +2.3523054e-04 </wgt>
<wgt id='morphing_basis_vector_2'> +2.4608697e-04 </wgt>
<wgt id='morphing_basis_vector_3'> +1.3210221e-04 </wgt>
<wgt id='morphing_basis_vector_4'> +2.8806534e-05 </wgt>
<wgt id='morphing_basis_vector_5'> +7.9686902e-05 </wgt>
</rwgt>
</event>
<event>
 4      1 +1.0153100e-05 6.19628200e+02 7.81860800e-03 9.16594500e-02
        2 -1    0    0  501    0 +0.0000000000e+00 +0.0000000000e+00 +1.0052060990e+03 1.0052060990e+03 0.0000000000e+00 0.0000e+00 -1.0000e+00
       -2 -1    0    0    0  501 -0.0000000000e+00 -0.0000000000e+00 -9.5487657097e+01 9.5487657097e+01 0.0000000000e+00 0.0000e+00 1.0000e+00
      -13  1    1    2    0    0 +4.7813285909e+01 -3.0448757229e+02 +5.1063814234e+02 5.9644790586e+02 0.0000000000e+00 0.0000e+00 1.0000e+00
       13  1    1    2    0    0 -4.7813285909e+01 +3.0448757229e+02 +3.9908029956e+02 5.0424585024e+02 0.0000000000e+00 0.0000e+00 -1.0000e+00
<mgrwt>
<rscale>  0 0.61962820E+03</rscale>
<asrwt>0</asrwt>
<pdfrwt beam="1">  1        2 0.15464708E+00 0.61962820E+03</pdfrwt>
<pdfrwt beam="2">  1       -2 0.14690410E-01 0.61962820E+03</pdfrwt>
<totfact> 0.10248703E+03</totfact>
</mgrwt>
<rwgt>
<wgt id='morphing_basis_vector_1'> +3.1171609e-04 </wgt>
<wgt id='morphing_basis_vector_2'> +2.1501215e-04 </wgt>
<wgt id='morphing_basis_vector_3'> +2.4078122e-04 </wgt>
<wgt id='morphing_basis_vector_4'> +9.5317543e-05 </wgt>
<wgt id='morphing_basis_vector_5'> +1.6322944e-04 </wgt>
</rwgt>
</event>
<event>
 4      1 +1.0153100e-05 5.39728000e+02 7.81860800e-03 9.31501700e-02
        2 -1    0    0  501    0 +0.0000000000e+00 +0.0000000000e+00 +7.5301444641e+02 7.5301444641e+02 0.0000000000e+00 0.0000e+00 -1.0000e+00
       -2 -1    0    0    0  501 -0.0000000000e+00 -0.0000000000e+00 -9.6713374563e+01 9.6713374563e+01 0.0000000000e+00 0.0000e+00 1.0000e+00
      -13  1    1    2    0    0 -2.6177732600e+02 -3.5181392658e+01 +2.4104016128e+02 3.5758279901e+02 0.0000000000e+00 0.0000e+00 1.0000e+00
       13  1    1    2    0    0 +2.6177732600e+02 +3.5181392658e+01 +4.1526091056e+02 4.9214502196e+02 0.0000000000e+00 0.0000e+00 -1.0000e+00
<mgrwt>
<rscale>  0 0.53972796E+03</rscale>
<asrwt>0</asrwt>
<pdfrwt beam="1">  1        2 0.11584837E+00 0.53972796E+03</pdfrwt>
<pdfrwt beam="2">  1       -2 0.14878981E-01 0.53972796E+03</pdfrwt>
<totfact> 0.14718418E+03</totfact>
</mgrwt>
<rwgt>
<wgt id='morphing_basis_vector_1'> +1.9379518e-04 </wgt>
<wgt id='morphing_basis_vector_2'> +1.1524115e-04 </wgt>
<wgt id='morphing_basis_vector_3'> +1.4263451e-04 </wgt>
<wgt id='morphing_basis_vector_4'> +5.2694313e-05 </wgt>
<wgt id='morphing_basis_vector_5'> +7.9183542e-05 </wgt>
</rwgt>
</event>
<event>
 4      1 +1.0153100e-05 5.54610000e+02 7.81860800e-03 9.28525200e-02
        2 -1    0    0  501    0 +0.0000000000e+00 +0.0000000000e+00 +9.9312737296e+02 9.9312737296e+02 0.0000000000e+00 0.0000e+00 1.0000e+00
       -2 -1    0    0    0  501 -0.0000000000e+00 -0.0000000000e+00 -7.7430215671e+01 7.7430215671e+01 0.0000000000e+00 0.0000e+00 -1.0000e+00
      -13  1    1    2    0    0 +1.1829948979e+02 -1.2510971785e+02 +8.7744054831e+02 8.9417510958e+02 0.0000000000e+00 0.0000e+00 1.0000e+00
       13  1    1    2    0    0 -1.1829948979e+02 +1.2510971785e+02 +3.8256608984e+01 1.7638247905e+02 0.0000000000e+00 0.0000e+00 -1.0000e+00
<mgrwt>
<rscale>  0 0.55461001E+03</rscale>
<asrwt>0</asrwt>
<pdfrwt beam="1">  1        2 0.15278882E+00 0.55461001E+03</pdfrwt>
<pdfrwt beam="2">  1       -2 0.11912342E-01 0.55461001E+03</pdfrwt>
<totfact> 0.14591314E+03</totfact>
</mgrwt>
<rwgt>
<wgt id='morphing_basis_vector_1'> +2.7333044e-04 </wgt>
<wgt id='morphing_basis_vector_2'> +3.1952881e-04 </wgt>
<wgt id='morphing_basis_vector_3'> +1.4765087e-04 </wgt>
<wgt id='morphing_basis_vector_4'> +2.2076167e-05 </wgt>
<wgt id='morphing_basis_vector_5'> +9.3090959e-05 </wgt>
</rwgt>
</event>
<event>
 4      1 +1.0153100e-05 5.99530600e+02 7.81860800e-03 9.20110400e-02
        2 -1    0    0  501    0 +0.0000000000e+00 +0.0000000000e+00 +2.1801862057e+03 2.1801862057e+03 0.0000000000e+00 0.0000e+00 -1.0000e+00
       -2 -1    0    0    0  501 -0.0000000000e+00 -0.0000000000e+00 -4.1216315036e+01 4.1216315036e+01 0.0000000000e+00 0.0000e+00 1.0000e+00
      -13  1    1    2    0    0 +8.8258460897e+01 -2.6865347893e+02 +1.4380580615e+03 1.4655972284e+03 0.0000000000e+00 0.0000e+00 1.0000e+00
       13  1    1    2    0    0 -8.8258460897e+01 +2.6865347893e+02 +7.0091182921e+02 7.5580529238e+02 0.0000000000e+00 0.0000e+00 -1.0000e+00
<mgrwt>
<rscale>  0 0.59953062E+03</rscale>
<asrwt>0</asrwt>
<pdfrwt beam="1">  1        2 0.33541317E+00 0.59953062E+03</pdfrwt>
<pdfrwt beam="2">  1       -2 0.63409733E-02 0.59953062E+03</pdfrwt>
<totfact> 0.84580817E+02</totfact>
</mgrwt>
<rwgt>
<wgt id='morphing_basis_vector_1'> +2.9493050e-04 </wgt>
<wgt id='morphing_basis_vector_2'> +2.3883240e-04 </wgt>
<wgt id='morphing_basis_vector_3'> +2.1198586e-04 </wgt>
<wgt id='morphing_basis_vector_4'> +6.9888375e-05 </wgt>
<wgt id='morphing_basis_vector_5'> +1.3820924e-04 </wgt>
</rwgt>
</event>
<event>
 4      1 +1.0153100e-05 5.66763200e+02 7.81860800e-03 9.26167300e-02
        2 -1    0    0  501    0 +0.0000000000e+00 +0.0000000000e+00 +1.1428522311e+03 1.1428522311e+03 0.0000000000e+00 0.0000e+00 -1.0000e+00
       -2 -1    0    0    0  501 -0.0000000000e+00 -0.0000000000e+00 -7.0267279436e+01 7.0267279436e+01 0.0000000000e+00 0.0000e+00 1.0000e+00
      -13  1    1    2    0    0 +2.5788304240e+02 +9.3998359530e+01 +3.8545997591e+02 4.7320053696e+02 0.0000000000e+00 0.0000e+00 1.0000e+00
       13  1    1    2    0    0 -2.5788304240e+02 -9.3998359530e+01 +6.8712497571e+02 7.3991897354e+02 0.0000000000e+00 0.0000e+00 -1.0000e+00
<mgrwt>
<rscale>  0 0.56676315E+03</rscale>
<asrwt>0</asrwt>
<pdfrwt beam="1">  1        2 0.17582341E+00 0.56676315E+03</pdfrwt>
<pdfrwt beam="2">  1       -2 0.10810351E-01 0.56676315E+03</pdfrwt>
<totfact> 0.13838926E+03</totfact>
</mgrwt>
<rwgt>
<wgt id='morphing_basis_vector_1'> +2.2551385e-04 </wgt>
<wgt id='morphing_basis_vector_2'> +1.3394636e-04 </wgt>
<wgt id='morphing_basis_vector_3'> +1.7118760e-04 </wgt>
<wgt id='morphing_basis_vector_4'> +6.7514021e-05 </wgt>
<wgt id='morphing_basis_vector_5'> +1.0303304e-04 </wgt>
</rwgt>
</event>
<event>
 4      1 +1.0153100e-05 5.49889500e+02 7.81860800e-03 9.29458500e-02
        2 -1    0    0  501    0 +0.0000000000e+00 +0.0000000000e+00 +9.7933901101e+02 9.7933901101e+02 0.0000000000e+00 0.0000e+00 1.0000e+00
       -2 -1    0    0    0  501 -0.0000000000e+00 -0.0000000000e+00 -7.7189417864e+01 7.7189417864e+01 0.0000000000e+00 0.0000e+00 -1.0000e+00
      -13  1    1    2    0    0 -1.5149897555e+02 -9.8927267153e+01 +8.4882638671e+02 8.6789675570e+02 0.0000000000e+00 0.0000e+00 1.0000e+00
       13  1    1    2    0    0 +1.5149897555e+02 +9.8927267153e+01 +5.3323206435e+01 1.8863167317e+02 0.0000000000e+00 0.0000e+00 -1.0000e+00
<mgrwt>
<rscale>  0 0.54988947E+03</rscale>
<asrwt>0</asrwt>
<pdfrwt beam="1">  1        2 0.15066753E+00 0.54988947E+03</pdfrwt>
<pdfrwt beam="2">  1       -2 0.11875296E-01 0.54988947E+03</pdfrwt>
<totfact> 0.14953818E+03</totfact>
</mgrwt>
<rwgt>
<wgt id='morphing_basis_vector_1'> +2.6335383e-04 </wgt>
<wgt id='morphing_basis_vector_2'> +3.0242583e-04 </wgt>
<wgt id='morphing_basis_vector_3'> +1.4224507e-04 </wgt>
<wgt id='morphing_basis_vector_4'> +2.3261443e-05 </wgt>
<wgt id='morphing_basis_vector_5'> +8.8961668e-05 </wgt>
</rwgt>
</event>
<event>
 4      1 +1.0153100e-05 5.82360800e+02 7.81860800e-03 9.23231500e-02
        2 -1    0    0  501    0 +0.0000000000e+00 +0.0000000000e+00 +5.7517326822e+02 5.7517326822e+02 0.0000000000e+00 0.0000e+00 1.0000e+00
       -2 -1    0    0    0  501 -0.0000000000e+00 -0.0000000000e+00 -1.4740952932e+02 1.4740952932e+02 0.0000000000e+00 0.0000e+00 -1.0000e+00
      -13  1    1    2    0    0 -1.0417809506e+02 +8.9863609885e+01 +5.3230018457e+02 5.4979271581e+02 0.0000000000e+00 0.0000e+00 1.0000e+00
       13  1    1    2    0    0 +1.0417809506e+02 -8.9863609885e+01 -1.0453644567e+02 1.7279008173e+02 0.0000000000e+00 0.0000e+00 -1.0000e+00
<mgrwt>
<rscale>  0 0.58236078E+03</rscale>
<asrwt>0</asrwt>
<pdfrwt beam="1">  1        2 0.88488194E-01 0.58236078E+03</pdfrwt>
<pdfrwt beam="2">  1       -2 0.22678389E-01 0.58236078E+03</pdfrwt>
<totfact> 0.10154419E+03</totfact>
</mgrwt>
<rwgt>
<wgt id='morphing_basis_vector_1'> +3.2714915e-04 </wgt>
<wgt id='morphing_basis_vector_2'> +3.9871616e-04 </wgt>
<wgt id='morphing_basis_vector_3'> +1.8559022e-04 </wgt>
<wgt id='morphing_basis_vector_4'> +1.9352430e-05 </wgt>
<wgt id='morphing_basis_vector_5'> +1.1973777e-04 </wgt>
</rwgt>
</event>
<event>
 4      1 +1.0153100e-05 5.95594200e+02 7.81860800e-03 9.20816100e-02
        2 -1    0    0  501    0 +0.0000000000e+00 +0.0000000000e+00 +1.0995122951e+03 1.0995122951e+03 0.0000000000e+00 0.0000e+00 -1.0000e+00
       -2 -1    0    0    0  501 -0.0000000000e+00 -0.0000000000e+00 -8.0656774547e+01 8.0656774547e+01 0.0000000000e+00 0.0000e+00 1.0000e+00
      -13  1    1    2    0    0 +1.4425818955e+02 -2.5497993119e+02 +4.0349771550e+02 4.9863373028e+02 0.0000000000e+00 0.0000e+00 1.0000e+00
       13  1    1    2    0    0 -1.4425818955e+02 +2.5497993119e+02 +6.1535780505e+02 6.8153533936e+02 0.0000000000e+00 0.0000e+00 -1.0000e+00
<mgrwt>
<rscale>  0 0.59559421E+03</rscale>
<asrwt>0</asrwt>
<pdfrwt beam="1">  1        2 0.16915573E+00 0.59559421E+03</pdfrwt>
<pdfrwt beam="2">  1       -2 0.12408735E-01 0.59559421E+03</pdfrwt>
<totfact> 0.11791816E+03</totfact>
</mgrwt>
<rwgt>
<wgt id='morphing_basis_vector_1'> +2.6561999e-04 </wgt>
<wgt id='morphing_basis_vector_2'> +1.6205544e-04 </wgt>
<wgt id='morphing_basis_vector_3'> +2.0634201e-04 </wgt>
<wgt id='morphing_basis_vector_4'> +8.5242096e-05 </wgt>
<wgt id='morphing_basis_vector_5'> +1.3349851e-04 </wgt>
</rwgt>
</event>
<event>
 4      1 +1.0153100e-05 5.51741500e+02 7.81860800e-03 9.29091100e-02
        2 -1    0    0  501    0 +0.0000000000e+00 +0.0000000000e+00 +1.5092558729e+03 1.5092558729e+03 0.0000000000e+00 0.0000e+00 -1.0000e+00
       -2 -1    0    0    0  501 -0.0000000000e+00 -0.0000000000e+00 -5.0425298478e+01 5.0425298478e+01 0.0000000000e+00 0.0000e+00 1.0000e+00
      -13  1    1    2    0    0 -9.2636311711e+01 -1.8688430603e+02 +1.2397933003e+03 1.2572170288e+03 0.0000000000e+00 0.0000e+00 1.0000e+00
       13  1    1    2    0    0 +9.2636311711e+01 +1.8688430603e+02 +2.1903727418e+02 3.0246414261e+02 0.0000000000e+00 0.0000e+00 -1.0000e+00
<mgrwt>
<rscale>  0 0.55174153E+03</rscale>
<asrwt>0</asrwt>
<pdfrwt beam="1">  1        2 0.23219318E+00 0.55174153E+03</pdfrwt>
<pdfrwt beam="2">  1       -2 0.77577394E-02 0.55174153E+03</pdfrwt>
<totfact> 0.14473024E+03</totfact>
</mgrwt>
<rwgt>
<wgt id='morphing_basis_vector_1'> +2.5617251e-04 </wgt>
<wgt id='morphing_basis_vector_2'> +2.7471337e-04 </wgt>
<wgt id='morphing_basis_vector_3'> +1.4627379e-04 </wgt>
<wgt id='morphing_basis_vector_4'> +2.9493796e-05 </wgt>
<wgt id='morphing_basis_vector_5'> +9.0324015e-05 </wgt>
</rwgt>
</event>
<event>
 4      1 +1.0153100e-05 5.49720700e+02 7.81860800e-03 9.29492000e-02
        2 -1    0    0  501    0 +0.0000000000e+00 +0.0000000000e+00 +4.1656314788e+02 4.1656314788e+02 0.0000000000e+00 0.0000e+00 -1.0000e+00
       -2 -1    0    0    0  501 -0.0000000000e+00 -0.0000000000e+00 -1.8136078291e+02 1.8136078291e+02 0.0000000000e+00 0.0000e+00 1.0000e+00
      -13  1    1    2    0    0 +1.7264193680e+02 -2.1386708332e+02 +1.1973564329e+02 2.9980158763e+02 0.0000000000e+00 0.0000e+00 1.0000e+00
       13  1    1    2    0    0 -1.7264193680e+02 +2.1386708332e+02 +1.1546672168e+02 2.9812234316e+02 0.0000000000e+00 0.0000e+00 -1.0000e+00
<mgrwt>
<rscale>  0 0.54972072E+03</rscale>
<asrwt>0</asrwt>
<pdfrwt beam="1">  1        2 0.64086638E-01 0.54972072E+03</pdfrwt>
<pdfrwt beam="2">  1       -2 0.27901659E-01 0.54972072E+03</pdfrwt>
<totfact> 0.10283365E+03</totfact>
</mgrwt>
<rwgt>
<wgt id='morphing_basis_vector_1'> +2.0910206e-04 </wgt>
<wgt id='morphing_basis_vector_2'> +1.3442350e-04 </wgt>
<wgt id='morphing_basis_vector_3'> +1.5197356e-04 </wgt>
<wgt id='morphing_basis_vector_4'> +5.5441468e-05 </wgt>
<wgt id='morphing_basis_vector_5'> +8.7590873e-05 </wgt>
</rwgt>
</event>
<event>
 4      1 +1.0153100e-05 5.40460100e+02 7.81860800e-03 9.31352900e-02
        2 -1    0    0  501    0 +0.0000000000e+00 +0.0000000000e+00 +1.7578488913e+02 1.7578488913e+02 0.0000000000e+00 0.0000e+00 1.0000e+00
       -2 -1    0    0    0  501 -0.0000000000e+00 -0.0000000000e+00 -4.1541848422e+02 4.1541848422e+02 0.0000000000e+00 0.0000e+00 -1.0000e+00
      -13  1    1    2    0    0 -1.9431395900e+02 -1.3404089570e+02 -2.6369299410e+02 3.5391930085e+02 0.0000000000e+00 0.0000e+00 -1.0000e+00
       13  1    1    2    0    0 +1.9431395900e+02 +1.3404089570e+02 +2.4059399004e+01 2.3728407250e+02 0.0000000000e+00 0.0000e+00 1.0000e+00
<mgrwt>
<rscale>  0 0.54046015E+03</rscale>
<asrwt>0</asrwt>
<pdfrwt beam="1">  1        2 0.27043829E-01 0.54046015E+03</pdfrwt>
<pdfrwt beam="2">  1       -2 0.63910535E-01 0.54046015E+03</pdfrwt>
<totfact> 0.57347920E+02</totfact>
</mgrwt>
<rwgt>
<wgt id='morphing_basis_vector_1'> +1.9250137e-04 </wgt>
<wgt id='morphing_basis_vector_2'> +1.0918850e-04 </wgt>
<wgt id='morphing_basis_vector_3'> +1.4382681e-04 </wgt>
<wgt id='morphing_basis_vector_4'> +5.4239989e-05 </wgt>
<wgt id='morphing_basis_vector_5'> +7.9718903e-05 </wgt>
</rwgt>
</event>
<event>
 4      1 +1.0153100e-05 5.76121800e+02 7.81860800e-03 9.24394000e-02
        2 -1    0    0  501    0 +0.0000000000e+00 +0.0000000000e+00 +4.7443911322e+02 4.7443911322e+02 0.0000000000e+00 0.0000e+00 -1.0000e+00
       -2 -1    0    0    0  501 -0.0000000000e+00 -0.0000000000e+00 -1.7489932964e+02 1.7489932964e+02 0.0000000000e+00 0.0000e+00 1.0000e+00
      -13  1    1    2    0    0 +2.5822365258e+02 +8.3676925348e+01 +4.1090572207e+01 2.7453545802e+02 0.0000000000e+00 0.0000e+00 1.0000e+00
       13  1    1    2    0    0 -2.5822365258e+02 -8.3676925348e+01 +2.5844921136e+02 3.7480298484e+02 0.0000000000e+00 0.0000e+00 -1.0000e+00
<mgrwt>
<rscale>  0 0.57612180E+03</rscale>
<asrwt>0</asrwt>
<pdfrwt beam="1">  1        2 0.72990632E-01 0.57612180E+03</pdfrwt>
<pdfrwt beam="2">  1       -2 0.26907589E-01 0.57612180E+03</pdfrwt>
<totfact> 0.94572420E+02</totfact>
</mgrwt>
<rwgt>
<wgt id='morphing_basis_vector_1'> +2.3669128e-04 </wgt>
<wgt id='morphing_basis_vector_2'> +1.3868911e-04 </wgt>
<wgt id='morphing_basis_vector_3'> +1.8209853e-04 </wgt>
<wgt id='morphing_basis_vector_4'> +7.3824115e-05 </wgt>
<wgt id='morphing_basis_vector_5'> +1.1231397e-04 </wgt>
</rwgt>
</event>
<event>
 4      1 +1.0153100e-05 5.45364700e+02 7.81860800e-03 9.30362400e-02
        2 -1    0    0  501    0 +0.0000000000e+00 +0.0000000000e+00 +1.9634414797e+03 1.9634414797e+03 0.0000000000e+00 0.0000e+00 -1.0000e+00
       -2 -1    0    0    0  501 -0.0000000000e+00 -0.0000000000e+00 -3.7870074808e+01 3.7870074808e+01 0.0000000000e+00 0.0000e+00 1.0000e+00
      -13  1    1    2    0    0 +2.4030421204e+02 -8.5202754796e+00 +1.4346917744e+03 1.4547024428e+03 0.0000000000e+00 0.0000e+00 1.0000e+00
       13  1    1    2    0    0 -2.4030421204e+02 +8.5202754796e+00 +4.9087963049e+02 5.4660911175e+02 0.0000000000e+00 0.0000e+00 -1.0000e+00
<mgrwt>
<rscale>  0 0.54536474E+03</rscale>
<asrwt>0</asrwt>
<pdfrwt beam="1">  1        2 0.30206784E+00 0.54536474E+03</pdfrwt>
<pdfrwt beam="2">  1       -2 0.58261669E-02 0.54536474E+03</pdfrwt>
<totfact> 0.12719523E+03</totfact>
</mgrwt>
<rwgt>
<wgt id='morphing_basis_vector_1'> +2.2861990e-04 </wgt>
<wgt id='morphing_basis_vector_2'> +2.0756862e-04 </wgt>
<wgt id='morphing_basis_vector_3'> +1.4246582e-04 </wgt>
<wgt id='morphing_basis_vector_4'> +3.9006665e-05 </wgt>
<wgt id='morphing_basis_vector_5'> +8.4497195e-05 </wgt>
</rwgt>
</event>
<event>
 4      1 +1.0153100e-05 5.85965100e+02 7.81860800e-03 9.22567000e-02
        2 -1    0    0  501    0 +0.0000000000e+00 +0.0000000000e+00 +7.0581339788e+02 7.0581339788e+02 0.0000000000e+00 0.0000e+00 -1.0000e+00
       -2 -1    0    0    0  501 -0.0000000000e+00 -0.0000000000e+00 -1.2161680558e+02 1.2161680558e+02 0.0000000000e+00 0.0000e+00 1.0000e+00
      -13  1    1    2    0    0 -1.8858870201e+02 +1.2026078736e+02 +5.5931543396e+02 6.0238037000e+02 0.0000000000e+00 0.0000e+00 1.0000e+00
       13  1    1    2    0    0 +1.8858870201e+02 -1.2026078736e+02 +2.4881158343e+01 2.2504983346e+02 0.0000000000e+00 0.0000e+00 -1.0000e+00
<mgrwt>
<rscale>  0 0.58596509E+03</rscale>
<asrwt>0</asrwt>
<pdfrwt beam="1">  1        2 0.10858667E+00 0.58596509E+03</pdfrwt>
<pdfrwt beam="2">  1       -2 0.18710278E-01 0.58596509E+03</pdfrwt>
<totfact> 0.10973190E+03</totfact>
</mgrwt>
<rwgt>
<wgt id='morphing_basis_vector_1'> +3.0948772e-04 </wgt>
<wgt id='morphing_basis_vector_2'> +3.3169161e-04 </wgt>
<wgt id='morphing_basis_vector_3'> +1.9198643e-04 </wgt>
<wgt id='morphing_basis_vector_4'> +3.7095205e-05 </wgt>
<wgt id='morphing_basis_vector_5'> +1.2328737e-04 </wgt>
</rwgt>
</event>
<event>
 4      1 +1.0153100e-05 5.24728200e+02 7.81860800e-03 9.34607200e-02
        2 -1    0    0  501    0 +0.0000000000e+00 +0.0000000000e+00 +9.5898555998e+02 9.5898555998e+02 0.0000000000e+00 0.0000e+00 -1.0000e+00
       -2 -1    0    0    0  501 -0.0000000000e+00 -0.0000000000e+00 -7.1778904412e+01 7.1778904412e+01 0.0000000000e+00 0.0000e+00 1.0000e+00
      -13  1    1    2    0    0 -1.6408800199e+02 +1.9570766072e+02 +3.2560042741e+02 4.1381396689e+02 0.0000000000e+00 0.0000e+00 1.0000e+00
       13  1    1    2    0    0 +1.6408800199e+02 -1.9570766072e+02 +5.6160622817e+02 6.1695049751e+02 0.0000000000e+00 0.0000e+00 -1.0000e+00
<mgrwt>
<rscale>  0 0.52472825E+03</rscale>
<asrwt>0</asrwt>
<pdfrwt beam="1">  1        2 0.14753623E+00 0.52472825E+03</pdfrwt>
<pdfrwt beam="2">  1       -2 0.11042909E-01 0.52472825E+03</pdfrwt>
<totfact> 0.17267827E+03</totfact>
</mgrwt>
<rwgt>
<wgt id='morphing_basis_vector_1'> +1.7733825e-04 </wgt>
<wgt id='morphing_basis_vector_2'> +1.0429821e-04 </wgt>
<wgt id='morphing_basis_vector_3'> +1.2863749e-04 </wgt>
<wgt id='morphing_basis_vector_4'> +4.5874356e-05 </wgt>
<wgt id='morphing_basis_vector_5'> +6.7725081e-05 </wgt>
</rwgt>
</event>
<event>
 4      1 +1.0153100e-05 5.98518800e+02 7.81860800e-03 9.20291300e-02
        2 -1    0    0  501    0 +0.0000000000e+00 +0.0000000000e+00 +1.7893582428e+03 1.7893582428e+03 0.0000000000e+00 0.0000e+00 -1.0000e+00
       -2 -1    0    0    0  501 -0.0000000000e+00 -0.0000000000e+00 -5.0049327258e+01 5.0049327258e+01 0.0000000000e+00 0.0000e+00 1.0000e+00
      -13  1    1    2    0    0 +9.1085311823e+01 +2.8487021511e+02 +9.0168178459e+02 9.4998821791e+02 0.0000000000e+00 0.0000e+00 1.0000e+00
       13  1    1    2    0    0 -9.1085311823e+01 -2.8487021511e+02 +8.3762713097e+02 8.8941935218e+02 0.0000000000e+00 0.0000e+00 -1.0000e+00
<mgrwt>
<rscale>  0 0.59851876E+03</rscale>
<asrwt>0</asrwt>
<pdfrwt beam="1">  1        2 0.27528583E+00 0.59851876E+03</pdfrwt>
<pdfrwt beam="2">  1       -2 0.76998979E-02 0.59851876E+03</pdfrwt>
<totfact> 0.10286009E+03</totfact>
</mgrwt>
<rwgt>
<wgt id='morphing_basis_vector_1'> +2.7552484e-04 </wgt>
<wgt id='morphing_basis_vector_2'> +1.8231067e-04 </wgt>
<wgt id='morphing_basis_vector_3'> +2.1029496e-04 </wgt>
<wgt id='morphing_basis_vector_4'> +8.2968281e-05 </wgt>
<wgt id='morphing_basis_vector_5'> +1.3692906e-04 </wgt>
</rwgt>
</event>
<event>
 4      1 +1.0153100e-05 5.38692600e+02 7.81860800e-03 9.31712600e-02
        2 -1    0    0  501    0 +0.0000000000e+00 +0.0000000000e+00 +5.2893689573e+02 5.2893689573e+02 0.0000000000e+00 0.0000e+00 1.0000e+00
       -2 -1    0    0    0  501 -0.0000000000e+00 -0.0000000000e+00 -1.3715704187e+02 1.3715704187e+02 0.0000000000e+00 0.0000e+00 -1.0000e+00
      -13  1    1    2    0    0 +2.0972718752e+02 -5.7207684730e+00 -1.2962387777e+01 2.1020524226e+02 0.0000000000e+00 0.0000e+00 -1.0000e+00
       13  1    1    2    0    0 -2.0972718752e+02 +5.7207684730e+00 +4.0474224164e+02 4.5588869535e+02 0.0000000000e+00 0.0000e+00 1.0000e+00
<mgrwt>
<rscale>  0 0.53869257E+03</rscale>
<asrwt>0</asrwt>
<pdfrwt beam="1">  1        2 0.81374906E-01 0.53869257E+03</pdfrwt>
<pdfrwt beam="2">  1       -2 0.21101084E-01 0.53869257E+03</pdfrwt>
<totfact> 0.12618775E+03</totfact>
</mgrwt>
<rwgt>
<wgt id='morphing_basis_vector_1'> +1.9008727e-04 </wgt>
<wgt id='morphing_basis_vector_2'> +1.0658834e-04 </wgt>
<wgt id='morphing_basis_vector_3'> +1.4221748e-04 </wgt>
<wgt id='morphing_basis_vector_4'> +5.3606801e-05 </wgt>
<wgt id='morphing_basis_vector_5'> +7.8285670e-05 </wgt>
</rwgt>
</event>
<event>
 4      1 +1.0153100e-05 5.31515700e+02 7.81860800e-03 9.33188400e-02
        2 -1    0    0  501    0 +0.0000000000e+00 +0.0000000000e+00 +2.2490217821e+02 2.2490217821e+02 0.0000000000e+00 0.0000e+00 1.0000e+00
       -2 -1    0    0    0  501 -0.0000000000e+00 -0.0000000000e+00 -3.1403532639e+02 3.1403532639e+02 0.0000000000e+00 0.0000e+00 -1.0000e+00
      -13  1    1    2    0    0 +1.9095466480e+02 -1.8420894331e+02 -2.9168673028e+01 2.6692214275e+02 0.0000000000e+00 0.0000e+00 -1.0000e+00
       13  1    1    2    0    0 -1.9095466480e+02 +1.8420894331e+02 -5.9964475148e+01 2.7201536185e+02 0.0000000000e+00 0.0000e+00 1.0000e+00
<mgrwt>
<rscale>  0 0.53151568E+03</rscale>
<asrwt>0</asrwt>
<pdfrwt beam="1">  1        2 0.34600335E-01 0.53151568E+03</pdfrwt>
<pdfrwt beam="2">  1       -2 0.48313127E-01 0.53151568E+03</pdfrwt>
<totfact> 0.75567810E+02</totfact>
</mgrwt>
<rwgt>
<wgt id='morphing_basis_vector_1'> +1.8944525e-04 </wgt>
<wgt id='morphing_basis_vector_2'> +1.2407471e-04 </wgt>
<wgt id='morphing_basis_vector_3'> +1.3354938e-04 </wgt>
<wgt id='morphing_basis_vector_4'> +4.6340601e-05 </wgt>
<wgt id='morphing_basis_vector_5'> +7.2900252e-05 </wgt>
</rwgt>
</event>
<event>
 4      1 +1.0153100e-05 5.36025400e+02 7.81860800e-03 9.32258200e-02
        2 -1    0    0  501    0 +0.0000000000e+00 +0.0000000000e+00 +3.9738701624e+01 3.9738701624e+01 0.0000000000e+00 0.0000e+00 -1.0000e+00
       -2 -1    0    0    0  501 -0.0000000000e+00 -0.0000000000e+00 -1.8075779245e+03 1.8075779245e+03 0.0000000000e+00 0.0000e+00 1.0000e+00
      -13  1    1    2    0    0 -2.6695888970e+02 +1.9317861929e+01 -9.3149525346e+02 9.6918710051e+02 0.0000000000e+00 0.0000e+00 1.0000e+00
       13  1    1    2    0    0 +2.6695888970e+02 -1.9317861929e+01 -8.3634396946e+02 8.7812952566e+02 0.0000000000e+00 0.0000e+00 -1.0000e+00
<mgrwt>
<rscale>  0 0.53602537E+03</rscale>
<asrwt>0</asrwt>
<pdfrwt beam="1">  1        2 0.61136470E-02 0.53602537E+03</pdfrwt>
<pdfrwt beam="2">  1       -2 0.27808888E+00 0.53602537E+03</pdfrwt>
<totfact> 0.56108096E+01</totfact>
</mgrwt>
<rwgt>
<wgt id='morphing_basis_vector_1'> +1.9198799e-04 </wgt>
<wgt id='morphing_basis_vector_2'> +1.1980819e-04 </wgt>
<wgt id='morphing_basis_vector_3'> +1.3848814e-04 </wgt>
<wgt id='morphing_basis_vector_4'> +4.9657733e-05 </wgt>
<wgt id='morphing_basis_vector_5'> +7.6306957e-05 </wgt>
</rwgt>
</event>
<event>
 4      1 +1.0153100e-05 5.28935000e+02 7.81860800e-03 9.33725200e-02
        2 -1    0    0  501    0 +0.0000000000e+00 +0.0000000000e+00 +1.9529873422e+02 1.9529873422e+02 0.0000000000e+00 0.0000e+00 1.0000e+00
       -2 -1    0    0    0  501 -0.0000000000e+00 -0.0000000000e+00 -3.5813375311e+02 3.5813375311e+02 0.0000000000e+00 0.0000e+00 -1.0000e+00
      -13  1    1    2    0    0 +1.3296665957e+02 +2.2754951036e+02 -5.8394866894e+01 2.6994235070e+02 0.0000000000e+00 0.0000e+00 1.0000e+00
       13  1    1    2    0    0 -1.3296665957e+02 -2.2754951036e+02 -1.0444015199e+02 2.8349013664e+02 0.0000000000e+00 0.0000e+00 -1.0000e+00
<mgrwt>
<rscale>  0 0.52893504E+03</rscale>
<asrwt>0</asrwt>
<pdfrwt beam="1">  1        2 0.30045959E-01 0.52893504E+03</pdfrwt>
<pdfrwt beam="2">  1       -2 0.55097500E-01 0.52893504E+03</pdfrwt>
<totfact> 0.68629821E+02</totfact>
</mgrwt>
<rwgt>
<wgt id='morphing_basis_vector_1'> +1.8731936e-04 </wgt>
<wgt id='morphing_basis_vector_2'> +1.2431765e-04 </wgt>
<wgt id='morphing_basis_vector_3'> +1.3092604e-04 </wgt>
<wgt id='morphing_basis_vector_4'> +4.4881185e-05 </wgt>
<wgt id='morphing_basis_vector_5'> +7.0981988e-05 </wgt>
</rwgt>
</event>
<event>
 4      1 +1.0153100e-05 5.54592400e+02 7.81860800e-03 9.28528700e-02
        2 -1    0    0  501    0 +0.0000000000e+00 +0.0000000000e+00 +4.7361430532e+02 4.7361430532e+02 0.0000000000e+00 0.0000e+00 -1.0000e+00
       -2 -1    0    0    0  501 -0.0000000000e+00 -0.0000000000e+00 -1.6235400583e+02 1.6235400583e+02 0.0000000000e+00 0.0000e+00 1.0000e+00
      -13  1    1    2    0    0 +9.2926369632e+01 -2.4695452125e+01 -1.4262576469e+02 1.7200954706e+02 0.0000000000e+00 0.0000e+00 1.0000e+00
       13  1    1    2    0    0 -9.2926369632e+01 +2.4695452125e+01 +4.5388606417e+02 4.6395876409e+02 0.0000000000e+00 0.0000e+00 -1.0000e+00
<mgrwt>
<rscale>  0 0.55459239E+03</rscale>
<asrwt>0</asrwt>
<pdfrwt beam="1">  1        2 0.72863738E-01 0.55459239E+03</pdfrwt>
<pdfrwt beam="2">  1       -2 0.24977540E-01 0.55459239E+03</pdfrwt>
<totfact> 0.10767600E+03</totfact>
</mgrwt>
<rwgt>
<wgt id='morphing_basis_vector_1'> +2.0783497e-04 </wgt>
<wgt id='morphing_basis_vector_2'> +1.1618580e-04 </wgt>
<wgt id='morphing_basis_vector_3'> +1.5830467e-04 </wgt>
<wgt id='morphing_basis_vector_4'> +6.2287061e-05 </wgt>
<wgt id='morphing_basis_vector_5'> +9.1700930e-05 </wgt>
</rwgt>
</event>
<event>
 4      1 +1.0153100e-05 5.23853900e+02 7.81860800e-03 9.34791700e-02
        2 -1    0    0  501    0 +0.0000000000e+00 +0.0000000000e+00 +8.4035702656e+02 8.4035702656e+02 0.0000000000e+00 0.0000e+00 1.0000e+00
       -2 -1    0    0    0  501 -0.0000000000e+00 -0.0000000000e+00 -8.1638770997e+01 8.1638770997e+01 0.0000000000e+00 0.0000e+00 -1.0000e+00
      -13  1    1    2    0    0 +9.1514776060e+01 +1.8008060316e+02 +8.5895174213e+01 2.1950389250e+02 0.0000000000e+00 0.0000e+00 -1.0000e+00
       13  1    1    2    0    0 -9.1514776060e+01 -1.8008060316e+02 +6.7282308135e+02 7.0249190505e+02 0.0000000000e+00 0.0000e+00 1.0000e+00
<mgrwt>
<rscale>  0 0.52385385E+03</rscale>
<asrwt>0</asrwt>
<pdfrwt beam="1">  1        2 0.12928569E+00 0.52385385E+03</pdfrwt>
<pdfrwt beam="2">  1       -2 0.12559812E-01 0.52385385E+03</pdfrwt>
<totfact> 0.16798075E+03</totfact>
</mgrwt>
<rwgt>
<wgt id='morphing_basis_vector_1'> +1.7432639e-04 </wgt>
<wgt id='morphing_basis_vector_2'> +9.7198744e-05 </wgt>
<wgt id='morphing_basis_vector_3'> +1.2848417e-04 </wgt>
<wgt id='morphing_basis_vector_4'> +4.6536268e-05 </wgt>
<wgt id='morphing_basis_vector_5'> +6.7027468e-05 </wgt>
</rwgt>
</event>
<event>
 4      1 +1.0153100e-05 5.74522800e+02 7.81860800e-03 9.24694400e-02
        2 -1    0    0  501    0 +0.0000000000e+00 +0.0000000000e+00 +4.6947635933e+02 4.6947635933e+02 0.0000000000e+00 0.0000e+00 -1.0000e+00
       -2 -1    0    0    0  501 -0.0000000000e+00 -0.0000000000e+00 -1.7576843014e+02 1.7576843014e+02 0.0000000000e+00 0.0000e+00 1.0000e+00
      -13  1    1    2    0    0 +1.4225425439e+00 +1.3455113437e+02 -1.3818503204e+02 1.9287595617e+02 0.0000000000e+00 0.0000e+00 1.0000e+00
       13  1    1    2    0    0 -1.4225425439e+00 -1.3455113437e+02 +4.3189296123e+02 4.5236883331e+02 0.0000000000e+00 0.0000e+00 -1.0000e+00
<mgrwt>
<rscale>  0 0.57452284E+03</rscale>
<asrwt>0</asrwt>
<pdfrwt beam="1">  1        2 0.72227131E-01 0.57452284E+03</pdfrwt>
<pdfrwt beam="2">  1       -2 0.27041297E-01 0.57452284E+03</pdfrwt>
<totfact> 0.94888332E+02</totfact>
</mgrwt>
<rwgt>
<wgt id='morphing_basis_vector_1'> +2.3252516e-04 </wgt>
<wgt id='morphing_basis_vector_2'> +1.3096385e-04 </wgt>
<wgt id='morphing_basis_vector_3'> +1.8037974e-04 </wgt>
<wgt id='morphing_basis_vector_4'> +7.4238897e-05 </wgt>
<wgt id='morphing_basis_vector_5'> +1.1065763e-04 </wgt>
</rwgt>
</event>
<event>
 4      1 +1.0153100e-05 5.36308900e+02 7.81860800e-03 9.32200000e-02
        2 -1    0    0  501    0 +0.0000000000e+00 +0.0000000000e+00 +1.2200986003e+03 1.2200986003e+03 0.0000000000e+00 0.0000e+00 1.0000e+00
       -2 -1    0    0    0  501 -0.0000000000e+00 -0.0000000000e+00 -5.8935235946e+01 5.8935235946e+01 0.0000000000e+00 0.0000e+00 -1.0000e+00
      -13  1    1    2    0    0 -1.1159866524e+01 -2.0167277013e+02 +1.0012303417e+03 1.0214003358e+03 0.0000000000e+00 0.0000e+00 1.0000e+00
       13  1    1    2    0    0 +1.1159866524e+01 +2.0167277013e+02 +1.5993302273e+02 2.5763350053e+02 0.0000000000e+00 0.0000e+00 -1.0000e+00
<mgrwt>
<rscale>  0 0.53630886E+03</rscale>
<asrwt>0</asrwt>
<pdfrwt beam="1">  1        2 0.18770746E+00 0.53630886E+03</pdfrwt>
<pdfrwt beam="2">  1       -2 0.90669603E-02 0.53630886E+03</pdfrwt>
<totfact> 0.16460247E+03</totfact>
</mgrwt>
<rwgt>
<wgt id='morphing_basis_vector_1'> +2.3464000e-04 </wgt>
<wgt id='morphing_basis_vector_2'> +2.5152001e-04 </wgt>
<wgt id='morphing_basis_vector_3'> +1.2847741e-04 </wgt>
<wgt id='morphing_basis_vector_4'> +2.6684886e-05 </wgt>
<wgt id='morphing_basis_vector_5'> +7.7694051e-05 </wgt>
</rwgt>
</event>
<event>
 4      1 +1.0153100e-05 5.33523600e+02 7.81860800e-03 9.32773000e-02
        2 -1    0    0  501    0 +0.0000000000e+00 +0.0000000000e+00 +1.0358467663e+03 1.0358467663e+03 0.0000000000e+00 0.0000e+00 -1.0000e+00
       -2 -1    0    0    0  501 -0.0000000000e+00 -0.0000000000e+00 -6.8699218238e+01 6.8699218238e+01 0.0000000000e+00 0.0000e+00 1.0000e+00
      -13  1    1    2    0    0 +1.1999030827e+02 -2.1202682577e+02 +2.5859927458e+02 3.5528387767e+02 0.0000000000e+00 0.0000e+00 1.0000e+00
       13  1    1    2    0    0 -1.1999030827e+02 +2.1202682577e+02 +7.0854827347e+02 7.4926210684e+02 0.0000000000e+00 0.0000e+00 -1.0000e+00
<mgrwt>
<rscale>  0 0.53352362E+03</rscale>
<asrwt>0</asrwt>
<pdfrwt beam="1">  1        2 0.15936103E+00 0.53352362E+03</pdfrwt>
<pdfrwt beam="2">  1       -2 0.10569111E-01 0.53352362E+03</pdfrwt>
<totfact> 0.16596448E+03</totfact>
</mgrwt>
<rwgt>
<wgt id='morphing_basis_vector_1'> +1.8530368e-04 </wgt>
<wgt id='morphing_basis_vector_2'> +1.0582540e-04 </wgt>
<wgt id='morphing_basis_vector_3'> +1.3709066e-04 </wgt>
<wgt id='morphing_basis_vector_4'> +5.0613400e-05 </wgt>
<wgt id='morphing_basis_vector_5'> +7.4252554e-05 </wgt>
</rwgt>
</event>
<event>
 4      1 +1.0153100e-05 5.88319200e+02 7.81860800e-03 9.22135700e-02
        2 -1    0    0  501    0 +0.0000000000e+00 +0.0000000000e+00 +4.6314395264e+02 4.6314395264e+02 0.0000000000e+00 0.0000e+00 -1.0000e+00
       -2 -1    0    0    0  501 -0.0000000000e+00 -0.0000000000e+00 -1.8683148228e+02 1.8683148228e+02 0.0000000000e+00 0.0000e+00 1.0000e+00
      -13  1    1    2    0    0 -1.8047146432e+02 +2.1027977158e+02 +2.4720369335e+02 3.7134511950e+02 0.0000000000e+00 0.0000e+00 1.0000e+00
       13  1    1    2    0    0 +1.8047146432e+02 -2.1027977158e+02 +2.9108777009e+01 2.7863031542e+02 0.0000000000e+00 0.0000e+00 -1.0000e+00
<mgrwt>
<rscale>  0 0.58831920E+03</rscale>
<asrwt>0</asrwt>
<pdfrwt beam="1">  1        2 0.71252915E-01 0.58831920E+03</pdfrwt>
<pdfrwt beam="2">  1       -2 0.28743305E-01 0.58831920E+03</pdfrwt>
<totfact> 0.86656400E+02</totfact>
</mgrwt>
<rwgt>
<wgt id='morphing_basis_vector_1'> +2.7767838e-04 </wgt>
<wgt id='morphing_basis_vector_2'> +2.2492634e-04 </wgt>
<wgt id='morphing_basis_vector_3'> +1.9637574e-04 </wgt>
<wgt id='morphing_basis_vector_4'> +6.3886089e-05 </wgt>
<wgt id='morphing_basis_vector_5'> +1.2549967e-04 </wgt>
</rwgt>
</event>
<event>
 4      1 +1.0153100e-05 5.36595300e+02 7.81860800e-03 9.32141300e-02
        2 -1    0    0  501    0 +0.0000000000e+00 +0.0000000000e+00 +7.7022529614e+02 7.7022529614e+02 0.0000000000e+00 0.0000e+00 -1.0000e+00
       -2 -1    0    0    0  501 -0.0000000000e+00 -0.0000000000e+00 -9.3457881724e+01 9.3457881724e+01 0.0000000000e+00 0.0000e+00 1.0000e+00
      -13  1    1    2    0    0 -9.5305317533e+01 -8.9703999513e+01 +7.1535703790e+02 7.2723146436e+02 0.0000000000e+00 0.0000e+00 -1.0000e+00
       13  1    1    2    0    0 +9.5305317533e+01 +8.9703999513e+01 -3.8589623481e+01 1.3645171351e+02 0.0000000000e+00 0.0000e+00 1.0000e+00
<mgrwt>
<rscale>  0 0.53659528E+03</rscale>
<asrwt>0</asrwt>
<pdfrwt beam="1">  1        2 0.11849620E+00 0.53659528E+03</pdfrwt>
<pdfrwt beam="2">  1       -2 0.14378136E-01 0.53659528E+03</pdfrwt>
<totfact> 0.15119740E+03</totfact>
</mgrwt>
<rwgt>
<wgt id='morphing_basis_vector_1'> +2.5191210e-04 </wgt>
<wgt id='morphing_basis_vector_2'> +3.0438782e-04 </wgt>
<wgt id='morphing_basis_vector_3'> +1.2471216e-04 </wgt>
<wgt id='morphing_basis_vector_4'> +1.7500524e-05 </wgt>
<wgt id='morphing_basis_vector_5'> +7.8379481e-05 </wgt>
</rwgt>
</event>
<event>
 4      1 +1.0153100e-05 6.11538200e+02 7.81860800e-03 9.17992600e-02
        2 -1    0    0  501    0 +0.0000000000e+00 +0.0000000000e+00 +1.6953639519e+03 1.6953639519e+03 0.0000000000e+00 0.0000e+00 1.0000e+00
       -2 -1    0    0    0  501 -0.0000000000e+00 -0.0000000000e+00 -5.5147299875e+01 5.5147299875e+01 0.0000000000e+00 0.0000e+00 -1.0000e+00
      -13  1    1    2    0    0 -2.4398905739e+02 -9.7465189630e+01 +3.7238413798e+02 4.5574123089e+02 0.0000000000e+00 0.0000e+00 -1.0000e+00
       13  1    1    2    0    0 +2.4398905739e+02 +9.7465189630e+01 +1.2678325140e+03 1.2947700209e+03 0.0000000000e+00 0.0000e+00 1.0000e+00
<mgrwt>
<rscale>  0 0.61153821E+03</rscale>
<asrwt>0</asrwt>
<pdfrwt beam="1">  1        2 0.26082518E+00 0.61153821E+03</pdfrwt>
<pdfrwt beam="2">  1       -2 0.84842013E-02 0.61153821E+03</pdfrwt>
<totfact> 0.99496257E+02</totfact>
</mgrwt>
<rwgt>
<wgt id='morphing_basis_vector_1'> +2.8570016e-04 </wgt>
<wgt id='morphing_basis_vector_2'> +1.6568735e-04 </wgt>
<wgt id='morphing_basis_vector_3'> +2.2793293e-04 </wgt>
<wgt id='morphing_basis_vector_4'> +9.9930529e-05 </wgt>
<wgt id='morphing_basis_vector_5'> +1.5276165e-04 </wgt>
</rwgt>
</event>
<event>
 4      1 +1.0153100e-05 5.41289400e+02 7.81860800e-03 9.31184700e-02
        2 -1    0    0  501    0 +0.0000000000e+00 +0.0000000000e+00 +1.7629369775e+03 1.7629369775e+03 0.0000000000e+00 0.0000e+00 1.0000e+00
       -2 -1    0    0    0  501 -0.0000000000e+00 -0.0000000000e+00 -4.1549154143e+01 4.1549154143e+01 0.0000000000e+00 0.0000e+00 -1.0000e+00
      -13  1    1    2    0    0 +1.9743993795e+02 -1.8261713095e+02 +9.6164417507e+02 9.9854447325e+02 0.0000000000e+00 0.0000e+00 -1.0000e+00
       13  1    1    2    0    0 -1.9743993795e+02 +1.8261713095e+02 +7.5974364825e+02 8.0594165835e+02 0.0000000000e+00 0.0000e+00 1.0000e+00
<mgrwt>
<rscale>  0 0.54128935E+03</rscale>
<asrwt>0</asrwt>
<pdfrwt beam="1">  1        2 0.27122102E+00 0.54128935E+03</pdfrwt>
<pdfrwt beam="2">  1       -2 0.63921789E-02 0.54128935E+03</pdfrwt>
<totfact> 0.14194013E+03</totfact>
</mgrwt>
<rwgt>
<wgt id='morphing_basis_vector_1'> +2.0219081e-04 </wgt>
<wgt id='morphing_basis_vector_2'> +1.3697302e-04 </wgt>
<wgt id='morphing_basis_vector_3'> +1.4270186e-04 </wgt>
<wgt id='morphing_basis_vector_4'> +4.9709718e-05 </wgt>
<wgt id='morphing_basis_vector_5'> +8.0617193e-05 </wgt>
</rwgt>
</event>
<event>
 4      1 +1.0153100e-05 5.80512300e+02 7.81860800e-03 9.23574300e-02
        2 -1    0    0  501    0 +0.0000000000e+00 +0.0000000000e+00 +3.1530389475e+02 3.1530389475e+02 0.0000000000e+00 0.0000e+00 -1.0000e+00
       -2 -1    0    0    0  501 -0.0000000000e+00 -0.0000000000e+00 -2.6719820730e+02 2.6719820730e+02 0.0000000000e+00 0.0000e+00 1.0000e+00
      -13  1    1    2    0    0 +9.9521275371e+01 -2.2148603833e+02 +1.8362019773e+02 3.0442885284e+02 0.0000000000e+00 0.0000e+00 1.0000e+00
       13  1    1    2    0    0 -9.9521275371e+01 +2.2148603833e+02 -1.3551451028e+02 2.7807324921e+02 0.0000000000e+00 0.0000e+00 -1.0000e+00
<mgrwt>
<rscale>  0 0.58051231E+03</rscale>
<asrwt>0</asrwt>
<pdfrwt beam="1">  1        2 0.48508291E-01 0.58051231E+03</pdfrwt>
<pdfrwt beam="2">  1       -2 0.41107417E-01 0.58051231E+03</pdfrwt>
<totfact> 0.70090426E+02</totfact>
</mgrwt>
<rwgt>
<wgt id='morphing_basis_vector_1'> +2.8789714e-04 </wgt>
<wgt id='morphing_basis_vector_2'> +2.8310893e-04 </wgt>
<wgt id='morphing_basis_vector_3'> +1.8480470e-04 </wgt>
<wgt id='morphing_basis_vector_4'> +4.4608971e-05 </wgt>
<wgt id='morphing_basis_vector_5'> +1.1740291e-04 </wgt>
</rwgt>
</event>
<event>
 4      1 +1.0153100e-05 5.81007500e+02 7.81860800e-03 9.23482400e-02
        2 -1    0    0  501    0 +0.0000000000e+00 +0.0000000000e+00 +2.3057764082e+03 2.3057764082e+03 0.0000000000e+00 0.0000e+00 1.0000e+00
       -2 -1    0    0    0  501 -0.0000000000e+00 -0.0000000000e+00 -3.6600439437e+01 3.6600439437e+01 0.0000000000e+00 0.0000e+00 -1.0000e+00
      -13  1    1    2    0    0 +2.4212819761e+02 +1.5432876933e+02 +9.5660414391e+02 9.9876670012e+02 0.0000000000e+00 0.0000e+00 1.0000e+00
       13  1    1    2    0    0 -2.4212819761e+02 -1.5432876933e+02 +1.3125718248e+03 1.3436101475e+03 0.0000000000e+00 0.0000e+00 -1.0000e+00
<mgrwt>
<rscale>  0 0.58100750E+03</rscale>
<asrwt>0</asrwt>
<pdfrwt beam="1">  1        2 0.35473472E+00 0.58100750E+03</pdfrwt>
<pdfrwt beam="2">  1       -2 0.56308386E-02 0.58100750E+03</pdfrwt>
<totfact> 0.86341182E+02</totfact>
</mgrwt>
<rwgt>
<wgt id='morphing_basis_vector_1'> +2.4563638e-04 </wgt>
<wgt id='morphing_basis_vector_2'> +1.5031551e-04 </wgt>
<wgt id='morphing_basis_vector_3'> +1.8782272e-04 </wgt>
<wgt id='morphing_basis_vector_4'> +7.5223084e-05 </wgt>
<wgt id='morphing_basis_vector_5'> +1.1741779e-04 </wgt>
</rwgt>
</event>
<event>
 4      1 +1.0153100e-05 5.28780500e+02 7.81860800e-03 9.33757400e-02
        2 -1    0    0  501    0 +0.0000000000e+00 +0.0000000000e+00 +1.6867881624e+03 1.6867881624e+03 0.0000000000e+00 0.0000e+00 -1.0000e+00
       -2 -1    0    0    0  501 -0.0000000000e+00 -0.0000000000e+00 -4.1441005466e+01 4.1441005466e+01 0.0000000000e+00 0.0000e+00 1.0000e+00
      -13  1    1    2    0    0 -2.4168618402e+02 +9.1800933784e+01 +6.4180244949e+02 6.9191763033e+02 0.0000000000e+00 0.0000e+00 1.0000e+00
       13  1    1    2    0    0 +2.4168618402e+02 -9.1800933784e+01 +1.0035447075e+03 1.0363115375e+03 0.0000000000e+00 0.0000e+00 -1.0000e+00
<mgrwt>
<rscale>  0 0.52878047E+03</rscale>
<asrwt>0</asrwt>
<pdfrwt beam="1">  1        2 0.25950582E+00 0.52878047E+03</pdfrwt>
<pdfrwt beam="2">  1       -2 0.63755406E-02 0.52878047E+03</pdfrwt>
<totfact> 0.15679177E+03</totfact>
</mgrwt>
<rwgt>
<wgt id='morphing_basis_vector_1'> +1.8180259e-04 </wgt>
<wgt id='morphing_basis_vector_2'> +1.0758888e-04 </wgt>
<wgt id='morphing_basis_vector_3'> +1.3226213e-04 </wgt>
<wgt id='morphing_basis_vector_4'> +4.7579240e-05 </wgt>
<wgt id='morphing_basis_vector_5'> +7.0705559e-05 </wgt>
</rwgt>
</event>
<event>
 4      1 +1.0153100e-05 5.43949600e+02 7.81860800e-03 9.30647100e-02
        2 -1    0    0  501    0 +0.0000000000e+00 +0.0000000000e+00 +1.4267303967e+02 1.4267303967e+02 0.0000000000e+00 0.0000e+00 1.0000e+00
       -2 -1    0    0    0  501 -0.0000000000e+00 -0.0000000000e+00 -5.1846023569e+02 5.1846023569e+02 0.0000000000e+00 0.0000e+00 -1.0000e+00
      -13  1    1    2    0    0 -8.7479052298e+01 -2.2846526348e+02 -3.3232719894e+02 4.1266248723e+02 0.0000000000e+00 0.0000e+00 -1.0000e+00
       13  1    1    2    0    0 +8.7479052298e+01 +2.2846526348e+02 -4.3459997075e+01 2.4847078813e+02 0.0000000000e+00 0.0000e+00 1.0000e+00
<mgrwt>
<rscale>  0 0.54394962E+03</rscale>
<asrwt>0</asrwt>
<pdfrwt beam="1">  1        2 0.21949698E-01 0.54394962E+03</pdfrwt>
<pdfrwt beam="2">  1       -2 0.79763116E-01 0.54394962E+03</pdfrwt>
<totfact> 0.45486058E+02</totfact>
</mgrwt>
<rwgt>
<wgt id='morphing_basis_vector_1'> +1.9665167e-04 </wgt>
<wgt id='morphing_basis_vector_2'> +1.1229132e-04 </wgt>
<wgt id='morphing_basis_vector_3'> +1.4721302e-04 </wgt>
<wgt id='morphing_basis_vector_4'> +5.5885470e-05 </wgt>
<wgt id='morphing_basis_vector_5'> +8.2581647e-05 </wgt>
</rwgt>
</event>
<event>
 4      1 +1.0153100e-05 5.27233400e+02 7.81860800e-03 9.34080900e-02
        2 -1    0    0  501    0 +0.0000000000e+00 +0.0000000000e+00 +1.2277207831e+03 1.2277207831e+03 0.0000000000e+00 0.0000e+00 -1.0000e+00
       -2 -1    0    0    0  501 -0.0000000000e+00 -0.0000000000e+00 -5.6603883235e+01 5.6603883235e+01 0.0000000000e+00 0.0000e+00 1.0000e+00
      -13  1    1    2    0    0 -1.8705240133e+01 +2.1100272216e+02 +2.0332280429e+02 2.9361913682e+02 0.0000000000e+00 0.0000e+00 1.0000e+00
       13  1    1    2    0    0 +1.8705240133e+01 -2.1100272216e+02 +9.6779409555e+02 9.9070552949e+02 0.0000000000e+00 0.0000e+00 -1.0000e+00
<mgrwt>
<rscale>  0 0.52723340E+03</rscale>
<asrwt>0</asrwt>
<pdfrwt beam="1">  1        2 0.18888010E+00 0.52723340E+03</pdfrwt>
<pdfrwt beam="2">  1       -2 0.87082906E-02 0.52723340E+03</pdfrwt>
<totfact> 0.17353827E+03</totfact>
</mgrwt>
<rwgt>
<wgt id='morphing_basis_vector_1'> +1.7791006e-04 </wgt>
<wgt id='morphing_basis_vector_2'> +9.9559755e-05 </wgt>
<wgt id='morphing_basis_vector_3'> +1.3148592e-04 </wgt>
<wgt id='morphing_basis_vector_4'> +4.8034852e-05 </wgt>
<wgt id='morphing_basis_vector_5'> +6.9490543e-05 </wgt>
</rwgt>
</event>
<event>
 4      1 +1.0153100e-05 5.83955500e+02 7.81860800e-03 9.22936900e-02
        2 -1    0    0  501    0 +0.0000000000e+00 +0.0000000000e+00 +2.5963468191e+02 2.5963468191e+02 0.0000000000e+00 0.0000e+00 -1.0000e+00
       -2 -1    0    0    0  501 -0.0000000000e+00 -0.0000000000e+00 -3.2834980872e+02 3.2834980872e+02 0.0000000000e+00 0.0000e+00 1.0000e+00
      -13  1    1    2    0    0 -3.6945993306e+01 -9.1981754241e+01 -3.1088918596e+02 3.2630926355e+02 0.0000000000e+00 0.0000e+00 1.0000e+00
       13  1    1    2    0    0 +3.6945993306e+01 +9.1981754241e+01 +2.4217405915e+02 2.6167522707e+02 0.0000000000e+00 0.0000e+00 -1.0000e+00
<mgrwt>
<rscale>  0 0.58395547E+03</rscale>
<asrwt>0</asrwt>
<pdfrwt beam="1">  1        2 0.39943797E-01 0.58395547E+03</pdfrwt>
<pdfrwt beam="2">  1       -2 0.50515355E-01 0.58395547E+03</pdfrwt>
<totfact> 0.58840217E+02</totfact>
</mgrwt>
<rwgt>
<wgt id='morphing_basis_vector_1'> +2.4497634e-04 </wgt>
<wgt id='morphing_basis_vector_2'> +1.3836552e-04 </wgt>
<wgt id='morphing_basis_vector_3'> +1.9165498e-04 </wgt>
<wgt id='morphing_basis_vector_4'> +8.0470259e-05 </wgt>
<wgt id='morphing_basis_vector_5'> +1.2050396e-04 </wgt>
</rwgt>
</event>
<event>
 4      1 +1.0153100e-05 6.16296500e+02 7.81860800e-03 9.17167600e-02
        2 -1    0    0  501    0 +0.0000000000e+00 +0.0000000000e+00 +8.9800684896e+02 8.9800684896e+02 0.0000000000e+00 0.0000e+00 1.0000e+00
       -2 -1    0    0    0  501 -0.0000000000e+00 -0.0000000000e+00 -1.0574012163e+02 1.0574012163e+02 0.0000000000e+00 0.0000e+00 -1.0000e+00
      -13  1    1    2    0    0 -1.6720077634e+02 -2.0925607302e+02 +1.4800132078e+02 3.0602057881e+02 0.0000000000e+00 0.0000e+00 -1.0000e+00
       13  1    1    2    0    0 +1.6720077634e+02 +2.0925607302e+02 +6.4426540655e+02 6.9772639178e+02 0.0000000000e+00 0.0000e+00 1.0000e+00
<mgrwt>
<rscale>  0 0.61629653E+03</rscale>
<asrwt>0</asrwt>
<pdfrwt beam="1">  1        2 0.13815489E+00 0.61629653E+03</pdfrwt>
<pdfrwt beam="2">  1       -2 0.16267712E-01 0.61629653E+03</pdfrwt>
<totfact> 0.10151393E+03</totfact>
</mgrwt>
<rwgt>
<wgt id='morphing_basis_vector_1'> +2.9316824e-04 </wgt>
<wgt id='morphing_basis_vector_2'> +1.7056180e-04 </wgt>
<wgt id='morphing_basis_vector_3'> +2.3472168e-04 </wgt>
<wgt id='morphing_basis_vector_4'> +1.0365602e-04 </wgt>
<wgt id='morphing_basis_vector_5'> +1.5887332e-04 </wgt>
</rwgt>
</event>
<event>
 4      1 +1.0153100e-05 5.63069000e+02 7.81860800e-03 9.26877400e-02
        2 -1    0    0  501    0 +0.0000000000e+00 +0.0000000000e+00 +7.2833614815e+02 7.2833614815e+02 0.0000000000e+00 0.0000e+00 -1.0000e+00
       -2 -1    0    0    0  501 -0.0000000000e+00 -0.0000000000e+00 -1.0882565994e+02 1.0882565994e+02 0.0000000000e+00 0.0000e+00 1.0000e+00
      -13  1    1    2    0    0 +1.6020925094e+02 -1.0359781745e+02 +1.9437727405e+00 1.9079646254e+02 0.0000000000e+00 0.0000e+00 1.0000e+00
       13  1    1    2    0    0 -1.6020925094e+02 +1.0359781745e+02 +6.1756671547e+02 6.4636534554e+02 0.0000000000e+00 0.0000e+00 -1.0000e+00
<mgrwt>
<rscale>  0 0.56306895E+03</rscale>
<asrwt>0</asrwt>
<pdfrwt beam="1">  1        2 0.11205171E+00 0.56306895E+03</pdfrwt>
<pdfrwt beam="2">  1       -2 0.16742410E-01 0.56306895E+03</pdfrwt>
<totfact> 0.12670134E+03</totfact>
</mgrwt>
<rwgt>
<wgt id='morphing_basis_vector_1'> +2.1823042e-04 </wgt>
<wgt id='morphing_basis_vector_2'> +1.2281899e-04 </wgt>
<wgt id='morphing_basis_vector_3'> +1.6738918e-04 </wgt>
<wgt id='morphing_basis_vector_4'> +6.7073740e-05 </wgt>
<wgt id='morphing_basis_vector_5'> +9.9467804e-05 </wgt>
</rwgt>
</event>
<event>
 4      1 +1.0153100e-05 5.79498000e+02 7.81860800e-03 9.23763000e-02
        2 -1    0    0  501    0 +0.0000000000e+00 +0.0000000000e+00 +5.7015533304e+02 5.7015533304e+02 0.0000000000e+00 0.0000e+00 -1.0000e+00
       -2 -1    0    0    0  501 -0.0000000000e+00 -0.0000000000e+00 -1.4724843954e+02 1.4724843954e+02 0.0000000000e+00 0.0000e+00 1.0000e+00
      -13  1    1    2    0    0 -1.6338523955e+02 -2.0513244564e+02 +5.8923998681e+01 2.6878633592e+02 0.0000000000e+00 0.0000e+00 1.0000e+00
       13  1    1    2    0    0 +1.6338523955e+02 +2.0513244564e+02 +3.6398289482e+02 4.4861743666e+02 0.0000000000e+00 0.0000e+00 -1.0000e+00
<mgrwt>
<rscale>  0 0.57949800E+03</rscale>
<asrwt>0</asrwt>
<pdfrwt beam="1">  1        2 0.87716204E-01 0.57949800E+03</pdfrwt>
<pdfrwt beam="2">  1       -2 0.22653606E-01 0.57949800E+03</pdfrwt>
<totfact> 0.10277193E+03</totfact>
</mgrwt>
<rwgt>
<wgt id='morphing_basis_vector_1'> +2.4043524e-04 </wgt>
<wgt id='morphing_basis_vector_2'> +1.3919678e-04 </wgt>
<wgt id='morphing_basis_vector_3'> +1.8617417e-04 </wgt>
<wgt id='morphing_basis_vector_4'> +7.6490529e-05 </wgt>
<wgt id='morphing_basis_vector_5'> +1.1579580e-04 </wgt>
</rwgt>
</event>
<event>
 4      1 +1.0153100e-05 5.99006000e+02 7.81860800e-03 9.20204200e-02
        2 -1    0    0  501    0 +0.0000000000e+00 +0.0000000000e+00 +1.7452891507e+02 1.7452891507e+02 0.0000000000e+00 0.0000e+00 1.0000e+00
       -2 -1    0    0    0  501 -0.0000000000e+00 -0.0000000000e+00 -5.1396664831e+02 5.1396664831e+02 0.0000000000e+00 0.0000e+00 -1.0000e+00
      -13  1    1    2    0    0 -1.1852667998e+02 +1.3062397369e+02 -4.4793663838e+02 4.8141294994e+02 0.0000000000e+00 0.0000e+00 -1.0000e+00
       13  1    1    2    0    0 +1.1852667998e+02 -1.3062397369e+02 +1.0849890515e+02 2.0708261344e+02 0.0000000000e+00 0.0000e+00 1.0000e+00
<mgrwt>
<rscale>  0 0.59900598E+03</rscale>
<asrwt>0</asrwt>
<pdfrwt beam="1">  1        2 0.26850603E-01 0.59900598E+03</pdfrwt>
<pdfrwt beam="2">  1       -2 0.79071791E-01 0.59900598E+03</pdfrwt>
<totfact> 0.36561360E+02</totfact>
</mgrwt>
<rwgt>
<wgt id='morphing_basis_vector_1'> +2.6610544e-04 </wgt>
<wgt id='morphing_basis_vector_2'> +1.5134748e-04 </wgt>
<wgt id='morphing_basis_vector_3'> +2.1079837e-04 </wgt>
<wgt id='morphing_basis_vector_4'> +9.1079513e-05 </wgt>
<wgt id='morphing_basis_vector_5'> +1.3744632e-04 </wgt>
</rwgt>
</event>
<event>
 4      1 +1.0153100e-05 5.48398300e+02 7.81860800e-03 9.29755400e-02
        2 -1    0    0  501    0 +0.0000000000e+00 +0.0000000000e+00 +6.8597324701e+02 6.8597324701e+02 0.0000000000e+00 0.0000e+00 -1.0000e+00
       -2 -1    0    0    0  501 -0.0000000000e+00 -0.0000000000e+00 -1.0960366771e+02 1.0960366771e+02 0.0000000000e+00 0.0000e+00 1.0000e+00
      -13  1    1    2    0    0 -1.4564785363e+02 +2.0509144370e+02 +1.2986662926e+02 2.8309210329e+02 0.0000000000e+00 0.0000e+00 1.0000e+00
       13  1    1    2    0    0 +1.4564785363e+02 -2.0509144370e+02 +4.4650295004e+02 5.1248481143e+02 0.0000000000e+00 0.0000e+00 -1.0000e+00
<mgrwt>
<rscale>  0 0.54839834E+03</rscale>
<asrwt>0</asrwt>
<pdfrwt beam="1">  1        2 0.10553434E+00 0.54839834E+03</pdfrwt>
<pdfrwt beam="2">  1       -2 0.16862103E-01 0.54839834E+03</pdfrwt>
<totfact> 0.13472049E+03</totfact>
</mgrwt>
<rwgt>
<wgt id='morphing_basis_vector_1'> +2.0196429e-04 </wgt>
<wgt id='morphing_basis_vector_2'> +1.1608309e-04 </wgt>
<wgt id='morphing_basis_vector_3'> +1.5165065e-04 </wgt>
<wgt id='morphing_basis_vector_4'> +5.8079459e-05 </wgt>
<wgt id='morphing_basis_vector_5'> +8.6329184e-05 </wgt>
</rwgt>
</event>
<event>
 4      1 +1.0153100e-05 5.57318300e+02 7.81860800e-03 9.27994200e-02
        2 -1    0    0  501    0 +0.0000000000e+00 +0.0000000000e+00 +2.2850126011e+02 2.2850126011e+02 0.0000000000e+00 0.0000e+00 1.0000e+00
       -2 -1    0    0    0  501 -0.0000000000e+00 -0.0000000000e+00 -3.3982709934e+02 3.3982709934e+02 0.0000000000e+00 0.0000e+00 -1.0000e+00
      -13  1    1    2    0    0 +9.4553763156e+01 -2.5843015624e+02 -1.0039707696e+02 2.9292683872e+02 0.0000000000e+00 0.0000e+00 -1.0000e+00
       13  1    1    2    0    0 -9.4553763156e+01 +2.5843015624e+02 -1.0928762271e+01 2.7540152074e+02 0.0000000000e+00 0.0000e+00 1.0000e+00
<mgrwt>
<rscale>  0 0.55731829E+03</rscale>
<asrwt>0</asrwt>
<pdfrwt beam="1">  1        2 0.35154040E-01 0.55731829E+03</pdfrwt>
<pdfrwt beam="2">  1       -2 0.52281092E-01 0.55731829E+03</pdfrwt>
<totfact> 0.63618950E+02</totfact>
</mgrwt>
<rwgt>
<wgt id='morphing_basis_vector_1'> +2.1500686e-04 </wgt>
<wgt id='morphing_basis_vector_2'> +1.3031594e-04 </wgt>
<wgt id='morphing_basis_vector_3'> +1.6059342e-04 </wgt>
<wgt id='morphing_basis_vector_4'> +6.1380874e-05 </wgt>
<wgt id='morphing_basis_vector_5'> +9.4229124e-05 </wgt>
</rwgt>
</event>
<event>
 4      1 +1.0153100e-05 5.64583400e+02 7.81860800e-03 9.26585600e-02
        2 -1    0    0  501    0 +0.0000000000e+00 +0.0000000000e+00 +1.0789144504e+03 1.0789144504e+03 0.0000000000e+00 0.0000e+00 -1.0000e+00
       -2 -1    0    0    0  501 -0.0000000000e+00 -0.0000000000e+00 -7.3859991750e+01 7.3859991750e+01 0.0000000000e+00 0.0000e+00 1.0000e+00
      -13  1    1    2    0    0 +1.8491983043e+02 -9.3239828168e+01 +1.1084147273e+02 2.3489325516e+02 0.0000000000e+00 0.0000e+00 1.0000e+00
       13  1    1    2    0    0 -1.8491983043e+02 +9.3239828168e+01 +8.9421298595e+02 9.1788118702e+02 0.0000000000e+00 0.0000e+00 -1.0000e+00
<mgrwt>
<rscale>  0 0.56458343E+03</rscale>
<asrwt>0</asrwt>
<pdfrwt beam="1">  1        2 0.16598683E+00 0.56458343E+03</pdfrwt>
<pdfrwt beam="2">  1       -2 0.11363076E-01 0.56458343E+03</pdfrwt>
<totfact> 0.13951286E+03</totfact>
</mgrwt>
<rwgt>
<wgt id='morphing_basis_vector_1'> +2.2020657e-04 </wgt>
<wgt id='morphing_basis_vector_2'> +1.2426891e-04 </wgt>
<wgt id='morphing_basis_vector_3'> +1.6904782e-04 </wgt>
<wgt id='morphing_basis_vector_4'> +6.7906970e-05 </wgt>
<wgt id='morphing_basis_vector_5'> +1.0090265e-04 </wgt>
</rwgt>
</event>
<event>
 4      1 +1.0153100e-05 5.65382200e+02 7.81860800e-03 9.26432100e-02
        2 -1    0    0  501    0 +0.0000000000e+00 +0.0000000000e+00 +3.1439930647e+02 3.1439930647e+02 0.0000000000e+00 0.0000e+00 -1.0000e+00
       -2 -1    0    0    0  501 -0.0000000000e+00 -0.0000000000e+00 -2.5418078425e+02 2.5418078425e+02 0.0000000000e+00 0.0000e+00 1.0000e+00
      -13  1    1    2    0    0 +1.4926664305e+01 -1.1000690295e+02 -2.3134187321e+02 2.5659966154e+02 0.0000000000e+00 0.0000e+00 1.0000e+00
       13  1    1    2    0    0 -1.4926664305e+01 +1.1000690295e+02 +2.9156039543e+02 3.1198042918e+02 0.0000000000e+00 0.0000e+00 -1.0000e+00
<mgrwt>
<rscale>  0 0.56538222E+03</rscale>
<asrwt>0</asrwt>
<pdfrwt beam="1">  1        2 0.48369124E-01 0.56538222E+03</pdfrwt>
<pdfrwt beam="2">  1       -2 0.39104736E-01 0.56538222E+03</pdfrwt>
<totfact> 0.77147493E+02</totfact>
</mgrwt>
<rwgt>
<wgt id='morphing_basis_vector_1'> +2.2091437e-04 </wgt>
<wgt id='morphing_basis_vector_2'> +1.2398229e-04 </wgt>
<wgt id='morphing_basis_vector_3'> +1.6996854e-04 </wgt>
<wgt id='morphing_basis_vector_4'> +6.8571432e-05 </wgt>
<wgt id='morphing_basis_vector_5'> +1.0165924e-04 </wgt>
</rwgt>
</event>
<event>
 4      1 +1.0153100e-05 5.59648100e+02 7.81860800e-03 9.27540000e-02
        2 -1    0    0  501    0 +0.0000000000e+00 +0.0000000000e+00 +9.2522828272e+02 9.2522828272e+02 0.0000000000e+00 0.0000e+00 -1.0000e+00
       -2 -1    0    0    0  501 -0.0000000000e+00 -0.0000000000e+00 -8.4629372177e+01 8.4629372177e+01 0.0000000000e+00 0.0000e+00 1.0000e+00
      -13  1    1    2    0    0 +2.1607388925e+02 -1.7043712457e+02 +3.2891598519e+02 4.2886182433e+02 0.0000000000e+00 0.0000e+00 1.0000e+00
       13  1    1    2    0    0 -2.1607388925e+02 +1.7043712457e+02 +5.1168292534e+02 5.8099583057e+02 0.0000000000e+00 0.0000e+00 -1.0000e+00
<mgrwt>
<rscale>  0 0.55964806E+03</rscale>
<asrwt>0</asrwt>
<pdfrwt beam="1">  1        2 0.14234281E+00 0.55964806E+03</pdfrwt>
<pdfrwt beam="2">  1       -2 0.13019904E-01 0.55964806E+03</pdfrwt>
<totfact> 0.13967532E+03</totfact>
</mgrwt>
<rwgt>
<wgt id='morphing_basis_vector_1'> +2.1751319e-04 </wgt>
<wgt id='morphing_basis_vector_2'> +1.3106037e-04 </wgt>
<wgt id='morphing_basis_vector_3'> +1.6317253e-04 </wgt>
<wgt id='morphing_basis_vector_4'> +6.2879806e-05 </wgt>
<wgt id='morphing_basis_vector_5'> +9.6348958e-05 </wgt>
</rwgt>
</event>
<event>
 4      1 +1.0153100e-05 5.58632400e+02 7.81860800e-03 9.27737800e-02
        2 -1    0    0  501    0 +0.0000000000e+00 +0.0000000000e+00 +8.4663407538e+02 8.4663407538e+02 0.0000000000e+00 0.0000e+00 1.0000e+00
       -2 -1    0    0    0  501 -0.0000000000e+00 -0.0000000000e+00 -9.2150232483e+01 9.2150232483e+01 0.0000000000e+00 0.0000e+00 -1.0000e+00
      -13  1    1    2    0    0 +1.3895980407e+02 -1.8626460850e+02 +1.1682769071e+02 2.6010198163e+02 0.0000000000e+00 0.0000e+00 -1.0000e+00
       13  1    1    2    0    0 -1.3895980407e+02 +1.8626460850e+02 +6.3765615218e+02 6.7868232623e+02 0.0000000000e+00 0.0000e+00 1.0000e+00
<mgrwt>
<rscale>  0 0.55863235E+03</rscale>
<asrwt>0</asrwt>
<pdfrwt beam="1">  1        2 0.13025139E+00 0.55863235E+03</pdfrwt>
<pdfrwt beam="2">  1       -2 0.14176959E-01 0.55863235E+03</pdfrwt>
<totfact> 0.13708753E+03</totfact>
</mgrwt>
<rwgt>
<wgt id='morphing_basis_vector_1'> +2.1328807e-04 </wgt>
<wgt id='morphing_basis_vector_2'> +1.2101805e-04 </wgt>
<wgt id='morphing_basis_vector_3'> +1.6250164e-04 </wgt>
<wgt id='morphing_basis_vector_4'> +6.4190894e-05 </wgt>
<wgt id='morphing_basis_vector_5'> +9.5359509e-05 </wgt>
</rwgt>
</event>
<event>
 4      1 +1.0153100e-05 5.95486100e+02 7.81860800e-03 9.20835600e-02
        2 -1    0    0  501    0 +0.0000000000e+00 +0.0000000000e+00 +4.6986786054e+02 4.6986786054e+02 0.0000000000e+00 0.0000e+00 -1.0000e+00
       -2 -1    0    0    0  501 -0.0000000000e+00 -0.0000000000e+00 -1.8867202533e+02 1.8867202533e+02 0.0000000000e+00 0.0000e+00 1.0000e+00
      -13  1    1    2    0    0 +1.5373370090e+02 +1.5456509925e+02 -8.3672163097e+01 2.3350685552e+02 0.0000000000e+00 0.0000e+00 1.0000e+00
       13  1    1    2    0    0 -1.5373370090e+02 -1.5456509925e+02 +3.6486799831e+02 4.2503303035e+02 0.0000000000e+00 0.0000e+00 -1.0000e+00
<mgrwt>
<rscale>  0 0.59548609E+03</rscale>
<asrwt>0</asrwt>
<pdfrwt beam="1">  1        2 0.72287363E-01 0.59548609E+03</pdfrwt>
<pdfrwt beam="2">  1       -2 0.29026466E-01 0.59548609E+03</pdfrwt>
<totfact> 0.83803189E+02</totfact>
</mgrwt>
<rwgt>
<wgt id='morphing_basis_vector_1'> +2.6130106e-04 </wgt>
<wgt id='morphing_basis_vector_2'> +1.4904537e-04 </wgt>
<wgt id='morphing_basis_vector_3'> +2.0619061e-04 </wgt>
<wgt id='morphing_basis_vector_4'> +8.8312983e-05 </wgt>
<wgt id='morphing_basis_vector_5'> +1.3334673e-04 </wgt>
</rwgt>
</event>
<event>
 4      1 +1.0153100e-05 5.22536400e+02 7.81860800e-03 9.35070300e-02
        2 -1    0    0  501    0 +0.0000000000e+00 +0.0000000000e+00 +2.3700374067e+02 2.3700374067e+02 0.0000000000e+00 0.0000e+00 -1.0000e+00
       -2 -1    0    0    0  501 -0.0000000000e+00 -0.0000000000e+00 -2.8801684235e+02 2.8801684235e+02 0.0000000000e+00 0.0000e+00 1.0000e+00
      -13  1    1    2    0    0 +1.4641550205e+01 -8.1998734437e+01 -2.7431844618e+02 2.8668585134e+02 0.0000000000e+00 0.0000e+00 1.0000e+00
       13  1    1    2    0    0 -1.4641550205e+01 +8.1998734437e+01 +2.2330534450e+02 2.3833473168e+02 0.0000000000e+00 0.0000e+00 -1.0000e+00
<mgrwt>
<rscale>  0 0.52253639E+03</rscale>
<asrwt>0</asrwt>
<pdfrwt beam="1">  1        2 0.36462114E-01 0.52253639E+03</pdfrwt>
<pdfrwt beam="2">  1       -2 0.44310283E-01 0.52253639E+03</pdfrwt>
<totfact> 0.84001151E+02</totfact>
</mgrwt>
<rwgt>
<wgt id='morphing_basis_vector_1'> +1.7267631e-04 </wgt>
<wgt id='morphing_basis_vector_2'> +9.5454626e-05 </wgt>
<wgt id='morphing_basis_vector_3'> +1.2741241e-04 </wgt>
<wgt id='morphing_basis_vector_4'> +4.6093538e-05 </wgt>
<wgt id='morphing_basis_vector_5'> +6.6074743e-05 </wgt>
</rwgt>
</event>
<event>
 4      1 +1.0153100e-05 5.25772600e+02 7.81860800e-03 9.34387400e-02
        2 -1    0    0  501    0 +0.0000000000e+00 +0.0000000000e+00 +2.1649741696e+02 2.1649741696e+02 0.0000000000e+00 0.0000e+00 -1.0000e+00
       -2 -1    0    0    0  501 -0.0000000000e+00 -0.0000000000e+00 -3.1921491000e+02 3.1921491000e+02 0.0000000000e+00 0.0000e+00 1.0000e+00
      -13  1    1    2    0    0 -1.9074711394e+02 +5.3919912952e+01 -2.2730032206e+02 3.0159120494e+02 0.0000000000e+00 0.0000e+00 1.0000e+00
       13  1    1    2    0    0 +1.9074711394e+02 -5.3919912952e+01 +1.2458282902e+02 2.3412112202e+02 0.0000000000e+00 0.0000e+00 -1.0000e+00
<mgrwt>
<rscale>  0 0.52577259E+03</rscale>
<asrwt>0</asrwt>
<pdfrwt beam="1">  1        2 0.33307295E-01 0.52577259E+03</pdfrwt>
<pdfrwt beam="2">  1       -2 0.49109986E-01 0.52577259E+03</pdfrwt>
<totfact> 0.76462803E+02</totfact>
</mgrwt>
<rwgt>
<wgt id='morphing_basis_vector_1'> +1.7625775e-04 </wgt>
<wgt id='morphing_basis_vector_2'> +9.8235642e-05 </wgt>
<wgt id='morphing_basis_vector_3'> +1.3020893e-04 </wgt>
<wgt id='morphing_basis_vector_4'> +4.7431378e-05 </wgt>
<wgt id='morphing_basis_vector_5'> +6.8415516e-05 </wgt>
</rwgt>
</event>
<event>
 4      1 +1.0153100e-05 6.01548400e+02 7.81860800e-03 9.19750900e-02
        2 -1    0    0  501    0 +0.0000000000e+00 +0.0000000000e+00 +1.1830702461e+02 1.1830702461e+02 0.0000000000e+00 0.0000e+00 1.0000e+00
       -2 -1    0    0    0  501 -0.0000000000e+00 -0.0000000000e+00 -7.6466396784e+02 7.6466396784e+02 0.0000000000e+00 0.0000e+00 -1.0000e+00
      -13  1    1    2    0    0 +2.4155962222e+02 -7.5581288452e+01 -5.6167961404e+02 6.1607432269e+02 0.0000000000e+00 0.0000e+00 -1.0000e+00
       13  1    1    2    0    0 -2.4155962222e+02 +7.5581288452e+01 -8.4677329189e+01 2.6689666976e+02 0.0000000000e+00 0.0000e+00 1.0000e+00
<mgrwt>
<rscale>  0 0.60154840E+03</rscale>
<asrwt>0</asrwt>
<pdfrwt beam="1">  1        2 0.18201081E-01 0.60154840E+03</pdfrwt>
<pdfrwt beam="2">  1       -2 0.11764061E+00 0.60154840E+03</pdfrwt>
<totfact> 0.22476705E+02</totfact>
</mgrwt>
<rwgt>
<wgt id='morphing_basis_vector_1'> +2.7057997e-04 </wgt>
<wgt id='morphing_basis_vector_2'> +1.5600497e-04 </wgt>
<wgt id='morphing_basis_vector_3'> +2.1419708e-04 </wgt>
<wgt id='morphing_basis_vector_4'> +9.2374068e-05 </wgt>
<wgt id='morphing_basis_vector_5'> +1.4046600e-04 </wgt>
</rwgt>
</event>
<event>
 4      1 +1.0153100e-05 5.36585300e+02 7.81860800e-03 9.32143400e-02
        2 -1    0    0  501    0 +0.0000000000e+00 +0.0000000000e+00 +8.2620780347e+02 8.2620780347e+02 0.0000000000e+00 0.0000e+00 1.0000e+00
       -2 -1    0    0    0  501 -0.0000000000e+00 -0.0000000000e+00 -8.7122080119e+01 8.7122080119e+01 0.0000000000e+00 0.0000e+00 -1.0000e+00
      -13  1    1    2    0    0 -2.5625932676e+02 -3.4707144052e+00 +2.3444108971e+02 3.4733775054e+02 0.0000000000e+00 0.0000e+00 -1.0000e+00
       13  1    1    2    0    0 +2.5625932676e+02 +3.4707144052e+00 +5.0464463365e+02 5.6599213305e+02 0.0000000000e+00 0.0000e+00 1.0000e+00
<mgrwt>
<rscale>  0 0.53658529E+03</rscale>
<asrwt>0</asrwt>
<pdfrwt beam="1">  1        2 0.12710889E+00 0.53658529E+03</pdfrwt>
<pdfrwt beam="2">  1       -2 0.13403398E-01 0.53658529E+03</pdfrwt>
<totfact> 0.15480078E+03</totfact>
</mgrwt>
<rwgt>
<wgt id='morphing_basis_vector_1'> +1.8940311e-04 </wgt>
<wgt id='morphing_basis_vector_2'> +1.1025076e-04 </wgt>
<wgt id='morphing_basis_vector_3'> +1.3980499e-04 </wgt>
<wgt id='morphing_basis_vector_4'> +5.1670031e-05 </wgt>
<wgt id='morphing_basis_vector_5'> +7.6658485e-05 </wgt>
</rwgt>
</event>
<event>
 4      1 +1.0153100e-05 5.37598600e+02 7.81860800e-03 9.31936000e-02
        2 -1    0    0  501    0 +0.0000000000e+00 +0.0000000000e+00 +3.5567531810e+02 3.5567531810e+02 0.0000000000e+00 0.0000e+00 -1.0000e+00
       -2 -1    0    0    0  501 -0.0000000000e+00 -0.0000000000e+00 -2.0314333825e+02 2.0314333825e+02 0.0000000000e+00 0.0000e+00 1.0000e+00
      -13  1    1    2    0    0 +5.5656573688e+01 +1.2273828514e+02 -1.6548828818e+02 2.1342144775e+02 0.0000000000e+00 0.0000e+00 1.0000e+00
       13  1    1    2    0    0 -5.5656573688e+01 -1.2273828514e+02 +3.1802026803e+02 3.4539720860e+02 0.0000000000e+00 0.0000e+00 -1.0000e+00
<mgrwt>
<rscale>  0 0.53759863E+03</rscale>
<asrwt>0</asrwt>
<pdfrwt beam="1">  1        2 0.54719280E-01 0.53759863E+03</pdfrwt>
<pdfrwt beam="2">  1       -2 0.31252821E-01 0.53759863E+03</pdfrwt>
<totfact> 0.10067875E+03</totfact>
</mgrwt>
<rwgt>
<wgt id='morphing_basis_vector_1'> +1.8856126e-04 </wgt>
<wgt id='morphing_basis_vector_2'> +1.0485981e-04 </wgt>
<wgt id='morphing_basis_vector_3'> +1.4124298e-04 </wgt>
<wgt id='morphing_basis_vector_4'> +5.3239337e-05 </wgt>
<wgt id='morphing_basis_vector_5'> +7.7405992e-05 </wgt>
</rwgt>
</event>
<event>
 4      1 +1.0153100e-05 5.27525900e+02 7.81860800e-03 9.34019700e-02
        2 -1    0    0  501    0 +0.0000000000e+00 +0.0000000000e+00 +4.4287173299e+01 4.4287173299e+01 0.0000000000e+00 0.0000e+00 1.0000e+00
       -2 -1    0    0    0  501 -0.0000000000e+00 -0.0000000000e+00 -1.5709038982e+03 1.5709038982e+03 0.0000000000e+00 0.0000e+00 -1.0000e+00
      -13  1    1    2    0    0 +1.1838698064e+02 +2.0637499224e+02 -1.1119366896e+03 1.1371056750e+03 0.0000000000e+00 0.0000e+00 -1.0000e+00
       13  1    1    2    0    0 -1.1838698064e+02 -2.0637499224e+02 -4.1468003537e+02 4.7808539649e+02 0.0000000000e+00 0.0000e+00 1.0000e+00
<mgrwt>
<rscale>  0 0.52752590E+03</rscale>
<asrwt>0</asrwt>
<pdfrwt beam="1">  1        2 0.68134119E-02 0.52752590E+03</pdfrwt>
<pdfrwt beam="2">  1       -2 0.24167750E+00 0.52752590E+03</pdfrwt>
<totfact> 0.85962065E+01</totfact>
</mgrwt>
<rwgt>
<wgt id='morphing_basis_vector_1'> +1.7881016e-04 </wgt>
<wgt id='morphing_basis_vector_2'> +1.0158994e-04 </wgt>
<wgt id='morphing_basis_vector_3'> +1.3158263e-04 </wgt>
<wgt id='morphing_basis_vector_4'> +4.7865765e-05 </wgt>
<wgt id='morphing_basis_vector_5'> +6.9724533e-05 </wgt>
</rwgt>
</event>
<event>
 4      1 +1.0153100e-05 5.76724700e+02 7.81860800e-03 9.24281000e-02
        2 -1    0    0  501    0 +0.0000000000e+00 +0.0000000000e+00 +2.0158443575e+02 2.0158443575e+02 0.0000000000e+00 0.0000e+00 1.0000e+00
       -2 -1    0    0    0  501 -0.0000000000e+00 -0.0000000000e+00 -4.1249631389e+02 4.1249631389e+02 0.0000000000e+00 0.0000e+00 -1.0000e+00
      -13  1    1    2    0    0 +2.2292809543e+01 +2.8369931625e+02 -1.5506298654e+02 3.2407838742e+02 0.0000000000e+00 0.0000e+00 -1.0000e+00
       13  1    1    2    0    0 -2.2292809543e+01 -2.8369931625e+02 -5.5848891601e+01 2.9000236221e+02 0.0000000000e+00 0.0000e+00 1.0000e+00
<mgrwt>
<rscale>  0 0.57672467E+03</rscale>
<asrwt>0</asrwt>
<pdfrwt beam="1">  1        2 0.31012990E-01 0.57672467E+03</pdfrwt>
<pdfrwt beam="2">  1       -2 0.63460971E-01 0.57672467E+03</pdfrwt>
<totfact> 0.49640085E+02</totfact>
</mgrwt>
<rwgt>
<wgt id='morphing_basis_vector_1'> +2.3970261e-04 </wgt>
<wgt id='morphing_basis_vector_2'> +1.4606293e-04 </wgt>
<wgt id='morphing_basis_vector_3'> +1.8265505e-04 </wgt>
<wgt id='morphing_basis_vector_4'> +7.2669109e-05 </wgt>
<wgt id='morphing_basis_vector_5'> +1.1296100e-04 </wgt>
</rwgt>
</event>
<event>
 4      1 +1.0153100e-05 5.48118500e+02 7.81860800e-03 9.29811200e-02
        2 -1    0    0  501    0 +0.0000000000e+00 +0.0000000000e+00 +1.7020417982e+02 1.7020417982e+02 0.0000000000e+00 0.0000e+00 1.0000e+00
       -2 -1    0    0    0  501 -0.0000000000e+00 -0.0000000000e+00 -4.4128450445e+02 4.4128450445e+02 0.0000000000e+00 0.0000e+00 -1.0000e+00
      -13  1    1    2    0    0 +1.3728370721e+02 +1.5999344654e+02 -3.3089609195e+02 3.9234798695e+02 0.0000000000e+00 0.0000e+00 -1.0000e+00
       13  1    1    2    0    0 -1.3728370721e+02 -1.5999344654e+02 +5.9815767320e+01 2.1914069732e+02 0.0000000000e+00 0.0000e+00 1.0000e+00
<mgrwt>
<rscale>  0 0.54811848E+03</rscale>
<asrwt>0</asrwt>
<pdfrwt beam="1">  1        2 0.26185259E-01 0.54811848E+03</pdfrwt>
<pdfrwt beam="2">  1       -2 0.67889923E-01 0.54811848E+03</pdfrwt>
<totfact> 0.52478356E+02</totfact>
</mgrwt>
<rwgt>
<wgt id='morphing_basis_vector_1'> +2.0064969e-04 </wgt>
<wgt id='morphing_basis_vector_2'> +1.1280728e-04 </wgt>
<wgt id='morphing_basis_vector_3'> +1.5155460e-04 </wgt>
<wgt id='morphing_basis_vector_4'> +5.8516512e-05 </wgt>
<wgt id='morphing_basis_vector_5'> +8.6067333e-05 </wgt>
</rwgt>
</event>
<event>
 4      1 +1.0153100e-05 6.12298700e+02 7.81860800e-03 9.17860200e-02
        2 -1    0    0  501    0 +0.0000000000e+00 +0.0000000000e+00 +4.2586290197e+01 4.2586290197e+01 0.0000000000e+00 0.0000e+00 -1.0000e+00
       -2 -1    0    0    0  501 -0.0000000000e+00 -0.0000000000e+00 -2.2008825966e+03 2.2008825966e+03 0.0000000000e+00 0.0000e+00 1.0000e+00
      -13  1    1    2    0    0 -2.1721142035e+02 -2.0883395478e+02 -1.2776483761e+03 1.3126986687e+03 0.0000000000e+00 0.0000e+00 1.0000e+00
       13  1    1    2    0    0 +2.1721142035e+02 +2.0883395478e+02 -8.8064793033e+02 9.3077021815e+02 0.0000000000e+00 0.0000e+00 -1.0000e+00
<mgrwt>
<rscale>  0 0.61229870E+03</rscale>
<asrwt>0</asrwt>
<pdfrwt beam="1">  1        2 0.65517356E-02 0.61229870E+03</pdfrwt>
<pdfrwt beam="2">  1       -2 0.33859739E+00 0.61229870E+03</pdfrwt>
<totfact> 0.20153292E+01</totfact>
</mgrwt>
<rwgt>
<wgt id='morphing_basis_vector_1'> +2.9076653e-04 </wgt>
<wgt id='morphing_basis_vector_2'> +1.7849206e-04 </wgt>
<wgt id='morphing_basis_vector_3'> +2.2925964e-04 </wgt>
<wgt id='morphing_basis_vector_4'> +9.7376139e-05 </wgt>
<wgt id='morphing_basis_vector_5'> +1.5373015e-04 </wgt>
</rwgt>
</event>
<event>
 4      1 +1.0153100e-05 5.34833300e+02 7.81860800e-03 9.32503100e-02
        2 -1    0    0  501    0 +0.0000000000e+00 +0.0000000000e+00 +1.8819496154e+03 1.8819496154e+03 0.0000000000e+00 0.0000e+00 -1.0000e+00
       -2 -1    0    0    0  501 -0.0000000000e+00 -0.0000000000e+00 -3.7998720698e+01 3.7998720698e+01 0.0000000000e+00 0.0000e+00 1.0000e+00
      -13  1    1    2    0    0 +5.5402118276e+00 -2.5866253368e+02 +6.7917398065e+02 7.2678352779e+02 0.0000000000e+00 0.0000e+00 1.0000e+00
       13  1    1    2    0    0 -5.5402118276e+00 +2.5866253368e+02 +1.1647769140e+03 1.1931648083e+03 0.0000000000e+00 0.0000e+00 -1.0000e+00
<mgrwt>
<rscale>  0 0.53483335E+03</rscale>
<asrwt>0</asrwt>
<pdfrwt beam="1">  1        2 0.28953064E+00 0.53483335E+03</pdfrwt>
<pdfrwt beam="2">  1       -2 0.58459585E-02 0.53483335E+03</pdfrwt>
<totfact> 0.14024308E+03</totfact>
</mgrwt>
<rwgt>
<wgt id='morphing_basis_vector_1'> +1.8787364e-04 </wgt>
<wgt id='morphing_basis_vector_2'> +1.1026860e-04 </wgt>
<wgt id='morphing_basis_vector_3'> +1.3803797e-04 </wgt>
<wgt id='morphing_basis_vector_4'> +5.0619737e-05 </wgt>
<wgt id='morphing_basis_vector_5'> +7.5298751e-05 </wgt>
</rwgt>
</event>
<event>
 4      1 +1.0153100e-05 5.98721100e+02 7.81860800e-03 9.20255100e-02
        2 -1    0    0  501    0 +0.0000000000e+00 +0.0000000000e+00 +1.1651288040e+03 1.1651288040e+03 0.0000000000e+00 0.0000e+00 -1.0000e+00
       -2 -1    0    0    0  501 -0.0000000000e+00 -0.0000000000e+00 -7.6915733671e+01 7.6915733671e+01 0.0000000000e+00 0.0000e+00 1.0000e+00
      -13  1    1    2    0    0 -5.2417624767e+01 +2.8857411685e+02 +4.1973866387e+02 5.1205778409e+02 0.0000000000e+00 0.0000e+00 1.0000e+00
       13  1    1    2    0    0 +5.2417624767e+01 -2.8857411685e+02 +6.6847440642e+02 7.2998675354e+02 0.0000000000e+00 0.0000e+00 -1.0000e+00
<mgrwt>
<rscale>  0 0.59872109E+03</rscale>
<asrwt>0</asrwt>
<pdfrwt beam="1">  1        2 0.17925057E+00 0.59872109E+03</pdfrwt>
<pdfrwt beam="2">  1       -2 0.11833191E-01 0.59872109E+03</pdfrwt>
<totfact> 0.11638126E+03</totfact>
</mgrwt>
<rwgt>
<wgt id='morphing_basis_vector_1'> +2.6981700e-04 </wgt>
<wgt id='morphing_basis_vector_2'> +1.6388297e-04 </wgt>
<wgt id='morphing_basis_vector_3'> +2.1048228e-04 </wgt>
<wgt id='morphing_basis_vector_4'> +8.7708975e-05 </wgt>
<wgt id='morphing_basis_vector_5'> +1.3713352e-04 </wgt>
</rwgt>
</event>
<event>
 4      1 +1.0153100e-05 5.78458500e+02 7.81860800e-03 9.23956800e-02
        2 -1    0    0  501    0 +0.0000000000e+00 +0.0000000000e+00 +1.5562614266e+03 1.5562614266e+03 0.0000000000e+00 0.0000e+00 -1.0000e+00
       -2 -1    0    0    0  501 -0.0000000000e+00 -0.0000000000e+00 -5.3752894025e+01 5.3752894025e+01 0.0000000000e+00 0.0000e+00 1.0000e+00
      -13  1    1    2    0    0 -2.3556474696e+02 +9.1027777848e+01 +1.1436553696e+03 1.1712063912e+03 0.0000000000e+00 0.0000e+00 1.0000e+00
       13  1    1    2    0    0 +2.3556474696e+02 -9.1027777848e+01 +3.5885316291e+02 4.3880792937e+02 0.0000000000e+00 0.0000e+00 -1.0000e+00
<mgrwt>
<rscale>  0 0.57845849E+03</rscale>
<asrwt>0</asrwt>
<pdfrwt beam="1">  1        2 0.23942480E+00 0.57845849E+03</pdfrwt>
<pdfrwt beam="2">  1       -2 0.82696772E-02 0.57845849E+03</pdfrwt>
<totfact> 0.12345383E+03</totfact>
</mgrwt>
<rwgt>
<wgt id='morphing_basis_vector_1'> +2.7756362e-04 </wgt>
<wgt id='morphing_basis_vector_2'> +2.5785978e-04 </wgt>
<wgt id='morphing_basis_vector_3'> +1.8244777e-04 </wgt>
<wgt id='morphing_basis_vector_4'> +4.8908191e-05 </wgt>
<wgt id='morphing_basis_vector_5'> +1.1519497e-04 </wgt>
</rwgt>
</event>
<event>
 4      1 +1.0153100e-05 5.90655500e+02 7.81860800e-03 9.21709700e-02
        2 -1    0    0  501    0 +0.0000000000e+00 +0.0000000000e+00 +2.6933941692e+02 2.6933941692e+02 0.0000000000e+00 0.0000e+00 -1.0000e+00
       -2 -1    0    0    0  501 -0.0000000000e+00 -0.0000000000e+00 -3.2382372636e+02 3.2382372636e+02 0.0000000000e+00 0.0000e+00 1.0000e+00
      -13  1    1    2    0    0 +1.7950439855e+02 -1.6456282570e+02 -1.9503152771e+02 3.1199366901e+02 0.0000000000e+00 0.0000e+00 1.0000e+00
       13  1    1    2    0    0 -1.7950439855e+02 +1.6456282570e+02 +1.4054721827e+02 2.8116947428e+02 0.0000000000e+00 0.0000e+00 -1.0000e+00
<mgrwt>
<rscale>  0 0.59065555E+03</rscale>
<asrwt>0</asrwt>
<pdfrwt beam="1">  1        2 0.41436833E-01 0.59065555E+03</pdfrwt>
<pdfrwt beam="2">  1       -2 0.49819035E-01 0.59065555E+03</pdfrwt>
<totfact> 0.57991415E+02</totfact>
</mgrwt>
<rwgt>
<wgt id='morphing_basis_vector_1'> +2.5488209e-04 </wgt>
<wgt id='morphing_basis_vector_2'> +1.4611822e-04 </wgt>
<wgt id='morphing_basis_vector_3'> +1.9998612e-04 </wgt>
<wgt id='morphing_basis_vector_4'> +8.4577191e-05 </wgt>
<wgt id='morphing_basis_vector_5'> +1.2786133e-04 </wgt>
</rwgt>
</event>
<event>
 4      1 +1.0153100e-05 5.42750700e+02 7.81860800e-03 9.30889000e-02
        2 -1    0    0  501    0 +0.0000000000e+00 +0.0000000000e+00 +4.9105969160e+02 4.9105969160e+02 0.0000000000e+00 0.0000e+00 -1.0000e+00
       -2 -1    0    0    0  501 -0.0000000000e+00 -0.0000000000e+00 -1.4997070650e+02 1.4997070650e+02 0.0000000000e+00 0.0000e+00 1.0000e+00
      -13  1    1    2    0    0 +2.2460417068e+02 -6.0056715560e+01 +5.2328140315e+00 2.3255370329e+02 0.0000000000e+00 0.0000e+00 1.0000e+00
       13  1    1    2    0    0 -2.2460417068e+02 +6.0056715560e+01 +3.3585617107e+02 4.0847669482e+02 0.0000000000e+00 0.0000e+00 -1.0000e+00
<mgrwt>
<rscale>  0 0.54275066E+03</rscale>
<asrwt>0</asrwt>
<pdfrwt beam="1">  1        2 0.75547644E-01 0.54275066E+03</pdfrwt>
<pdfrwt beam="2">  1       -2 0.23072417E-01 0.54275066E+03</pdfrwt>
<totfact> 0.11823178E+03</totfact>
</mgrwt>
<rwgt>
<wgt id='morphing_basis_vector_1'> +1.9493954e-04 </wgt>
<wgt id='morphing_basis_vector_2'> +1.1035433e-04 </wgt>
<wgt id='morphing_basis_vector_3'> +1.4610106e-04 </wgt>
<wgt id='morphing_basis_vector_4'> +5.5475002e-05 </wgt>
<wgt id='morphing_basis_vector_5'> +8.1583311e-05 </wgt>
</rwgt>
</event>
<event>
 4      1 +1.0153100e-05 5.35999900e+02 7.81860800e-03 9.32263400e-02
        2 -1    0    0  501    0 +0.0000000000e+00 +0.0000000000e+00 +3.4093124889e+02 3.4093124889e+02 0.0000000000e+00 0.0000e+00 1.0000e+00
       -2 -1    0    0    0  501 -0.0000000000e+00 -0.0000000000e+00 -2.1066995254e+02 2.1066995254e+02 0.0000000000e+00 0.0000e+00 -1.0000e+00
      -13  1    1    2    0    0 +5.8761090077e+01 -2.6147819414e+02 +6.5653681623e+01 2.7592411570e+02 0.0000000000e+00 0.0000e+00 -1.0000e+00
       13  1    1    2    0    0 -5.8761090077e+01 +2.6147819414e+02 +6.4607614721e+01 2.7567708573e+02 0.0000000000e+00 0.0000e+00 1.0000e+00
<mgrwt>
<rscale>  0 0.53599989E+03</rscale>
<asrwt>0</asrwt>
<pdfrwt beam="1">  1        2 0.52450961E-01 0.53599989E+03</pdfrwt>
<pdfrwt beam="2">  1       -2 0.32410762E-01 0.53599989E+03</pdfrwt>
<totfact> 0.98974504E+02</totfact>
</mgrwt>
<rwgt>
<wgt id='morphing_basis_vector_1'> +1.9307699e-04 </wgt>
<wgt id='morphing_basis_vector_2'> +1.2326028e-04 </wgt>
<wgt id='morphing_basis_vector_3'> +1.3819056e-04 </wgt>
<wgt id='morphing_basis_vector_4'> +4.9037601e-05 </wgt>
<wgt id='morphing_basis_vector_5'> +7.6317859e-05 </wgt>
</rwgt>
</event>
<event>
 4      1 +1.0153100e-05 5.35058800e+02 7.81860800e-03 9.32456700e-02
        2 -1    0    0  501    0 +0.0000000000e+00 +0.0000000000e+00 +5.2110855281e+02 5.2110855281e+02 0.0000000000e+00 0.0000e+00 -1.0000e+00
       -2 -1    0    0    0  501 -0.0000000000e+00 -0.0000000000e+00 -1.3734564415e+02 1.3734564415e+02 0.0000000000e+00 0.0000e+00 1.0000e+00
      -13  1    1    2    0    0 +1.4022223766e+02 -1.8975890371e+02 +3.6699946568e+01 2.3878359146e+02 0.0000000000e+00 0.0000e+00 1.0000e+00
       13  1    1    2    0    0 -1.4022223766e+02 +1.8975890371e+02 +3.4706296209e+02 4.1967060551e+02 0.0000000000e+00 0.0000e+00 -1.0000e+00
<mgrwt>
<rscale>  0 0.53505884E+03</rscale>
<asrwt>0</asrwt>
<pdfrwt beam="1">  1        2 0.80170546E-01 0.53505884E+03</pdfrwt>
<pdfrwt beam="2">  1       -2 0.21130099E-01 0.53505884E+03</pdfrwt>
<totfact> 0.12805793E+03</totfact>
</mgrwt>
<rwgt>
<wgt id='morphing_basis_vector_1'> +1.8664337e-04 </wgt>
<wgt id='morphing_basis_vector_2'> +1.0583554e-04 </wgt>
<wgt id='morphing_basis_vector_3'> +1.3861928e-04 </wgt>
<wgt id='morphing_basis_vector_4'> +5.1525502e-05 </wgt>
<wgt id='morphing_basis_vector_5'> +7.5432916e-05 </wgt>
</rwgt>
</event>
<event>
 4      1 +1.0153100e-05 6.14636000e+02 7.81860800e-03 9.17454600e-02
        2 -1    0    0  501    0 +0.0000000000e+00 +0.0000000000e+00 +4.9884164311e+02 4.9884164311e+02 0.0000000000e+00 0.0000e+00 1.0000e+00
       -2 -1    0    0    0  501 -0.0000000000e+00 -0.0000000000e+00 -1.8932734839e+02 1.8932734839e+02 0.0000000000e+00 0.0000e+00 -1.0000e+00
      -13  1    1    2    0    0 -2.4382865006e+02 -1.7867947294e+02 +2.1674903857e+02 3.7196627584e+02 0.0000000000e+00 0.0000e+00 -1.0000e+00
       13  1    1    2    0    0 +2.4382865006e+02 +1.7867947294e+02 +9.2765256155e+01 3.1620271566e+02 0.0000000000e+00 0.0000e+00 1.0000e+00
<mgrwt>
<rscale>  0 0.61463604E+03</rscale>
<asrwt>0</asrwt>
<pdfrwt beam="1">  1        2 0.76744868E-01 0.61463604E+03</pdfrwt>
<pdfrwt beam="2">  1       -2 0.29127284E-01 0.61463604E+03</pdfrwt>
<totfact> 0.77808757E+02</totfact>
</mgrwt>
<rwgt>
<wgt id='morphing_basis_vector_1'> +3.0794479e-04 </wgt>
<wgt id='morphing_basis_vector_2'> +2.2276168e-04 </wgt>
<wgt id='morphing_basis_vector_3'> +2.3361359e-04 </wgt>
<wgt id='morphing_basis_vector_4'> +8.8133590e-05 </wgt>
<wgt id='morphing_basis_vector_5'> +1.5672067e-04 </wgt>
</rwgt>
</event>
<event>
 4      1 +1.0153100e-05 5.48719600e+02 7.81860800e-03 9.29691300e-02
        2 -1    0    0  501    0 +0.0000000000e+00 +0.0000000000e+00 +7.9744849457e+02 7.9744849457e+02 0.0000000000e+00 0.0000e+00 -1.0000e+00
       -2 -1    0    0    0  501 -0.0000000000e+00 -0.0000000000e+00 -9.4392694354e+01 9.4392694354e+01 0.0000000000e+00 0.0000e+00 1.0000e+00
      -13  1    1    2    0    0 -9.1217067102e+01 -2.3918575928e+02 +5.1195651593e+02 5.7238960069e+02 0.0000000000e+00 0.0000e+00 1.0000e+00
       13  1    1    2    0    0 +9.1217067102e+01 +2.3918575928e+02 +1.9109928428e+02 3.1945158823e+02 0.0000000000e+00 0.0000e+00 -1.0000e+00
<mgrwt>
<rscale>  0 0.54871964E+03</rscale>
<asrwt>0</asrwt>
<pdfrwt beam="1">  1        2 0.12268438E+00 0.54871964E+03</pdfrwt>
<pdfrwt beam="2">  1       -2 0.14521953E-01 0.54871964E+03</pdfrwt>
<totfact> 0.14243821E+03</totfact>
</mgrwt>
<rwgt>
<wgt id='morphing_basis_vector_1'> +2.2390880e-04 </wgt>
<wgt id='morphing_basis_vector_2'> +1.8331057e-04 </wgt>
<wgt id='morphing_basis_vector_3'> +1.4791624e-04 </wgt>
<wgt id='morphing_basis_vector_4'> +4.5466277e-05 </wgt>
<wgt id='morphing_basis_vector_5'> +8.7102000e-05 </wgt>
</rwgt>
</event>
<event>
 4      1 +1.0153100e-05 5.57790100e+02 7.81860800e-03 9.27902100e-02
        2 -1    0    0  501    0 +0.0000000000e+00 +0.0000000000e+00 +1.0915807988e+02 1.0915807988e+02 0.0000000000e+00 0.0000e+00 1.0000e+00
       -2 -1    0    0    0  501 -0.0000000000e+00 -0.0000000000e+00 -7.1256715151e+02 7.1256715151e+02 0.0000000000e+00 0.0000e+00 -1.0000e+00
      -13  1    1    2    0    0 -1.8288941123e+02 +3.9138627141e+01 -6.0648581525e+02 6.3466953053e+02 0.0000000000e+00 0.0000e+00 -1.0000e+00
       13  1    1    2    0    0 +1.8288941123e+02 -3.9138627141e+01 +3.0767436284e+00 1.8705570087e+02 0.0000000000e+00 0.0000e+00 1.0000e+00
<mgrwt>
<rscale>  0 0.55779015E+03</rscale>
<asrwt>0</asrwt>
<pdfrwt beam="1">  1        2 0.16793551E-01 0.55779015E+03</pdfrwt>
<pdfrwt beam="2">  1       -2 0.10962571E+00 0.55779015E+03</pdfrwt>
<totfact> 0.29664848E+02</totfact>
</mgrwt>
<rwgt>
<wgt id='morphing_basis_vector_1'> +2.1180609e-04 </wgt>
<wgt id='morphing_basis_vector_2'> +1.1895714e-04 </wgt>
<wgt id='morphing_basis_vector_3'> +1.6166777e-04 </wgt>
<wgt id='morphing_basis_vector_4'> +6.4001850e-05 </wgt>
<wgt id='morphing_basis_vector_5'> +9.4582195e-05 </wgt>
</rwgt>
</event>
<event>
 4      1 +1.0153100e-05 5.50876000e+02 7.81860800e-03 9.29262600e-02
        2 -1    0    0  501    0 +0.0000000000e+00 +0.0000000000e+00 +9.1642993918e+02 9.1642993918e+02 0.0000000000e+00 0.0000e+00 -1.0000e+00
       -2 -1    0    0    0  501 -0.0000000000e+00 -0.0000000000e+00 -8.2784398746e+01 8.2784398746e+01 0.0000000000e+00 0.0000e+00 1.0000e+00
      -13  1    1    2    0    0 -6.5742161526e+01 -1.6970150891e+02 +4.1806756023e+01 1.8673092614e+02 0.0000000000e+00 0.0000e+00 1.0000e+00
       13  1    1    2    0    0 +6.5742161526e+01 +1.6970150891e+02 +7.9183878441e+02 8.1248341179e+02 0.0000000000e+00 0.0000e+00 -1.0000e+00
<mgrwt>
<rscale>  0 0.55087604E+03</rscale>
<asrwt>0</asrwt>
<pdfrwt beam="1">  1        2 0.14098921E+00 0.55087604E+03</pdfrwt>
<pdfrwt beam="2">  1       -2 0.12736062E-01 0.55087604E+03</pdfrwt>
<totfact> 0.14656152E+03</totfact>
</mgrwt>
<rwgt>
<wgt id='morphing_basis_vector_1'> +2.0362620e-04 </wgt>
<wgt id='morphing_basis_vector_2'> +1.1405369e-04 </wgt>
<wgt id='morphing_basis_vector_3'> +1.5441381e-04 </wgt>
<wgt id='morphing_basis_vector_4'> +6.0135456e-05 </wgt>
<wgt id='morphing_basis_vector_5'> +8.8435533e-05 </wgt>
</rwgt>
</event>
<event>
 4      1 +1.0153100e-05 5.96254000e+02 7.81860800e-03 9.20697500e-02
        2 -1    0    0  501    0 +0.0000000000e+00 +0.0000000000e+00 +2.0895140438e+02 2.0895140438e+02 0.0000000000e+00 0.0000e+00 -1.0000e+00
       -2 -1    0    0    0  501 -0.0000000000e+00 -0.0000000000e+00 -4.2536068586e+02 4.2536068586e+02 0.0000000000e+00 0.0000e+00 1.0000e+00
      -13  1    1    2    0    0 -1.0077258328e+02 -6.9348628467e+01 +1.8102249788e+02 2.1847995457e+02 0.0000000000e+00 0.0000e+00 -1.0000e+00
       13  1    1    2    0    0 +1.0077258328e+02 +6.9348628467e+01 -3.9743177936e+02 4.1583213567e+02 0.0000000000e+00 0.0000e+00 1.0000e+00
<mgrwt>
<rscale>  0 0.59625402E+03</rscale>
<asrwt>0</asrwt>
<pdfrwt beam="1">  1        2 0.32146370E-01 0.59625402E+03</pdfrwt>
<pdfrwt beam="2">  1       -2 0.65440105E-01 0.59625402E+03</pdfrwt>
<totfact> 0.44675037E+02</totfact>
</mgrwt>
<rwgt>
<wgt id='morphing_basis_vector_1'> +3.5473354e-04 </wgt>
<wgt id='morphing_basis_vector_2'> +4.3606458e-04 </wgt>
<wgt id='morphing_basis_vector_3'> +2.0766516e-04 </wgt>
<wgt id='morphing_basis_vector_4'> +1.8852547e-05 </wgt>
<wgt id='morphing_basis_vector_5'> +1.3481365e-04 </wgt>
</rwgt>
</event>
<event>
 4      1 +1.0153100e-05 5.49128600e+02 7.81860800e-03 9.29609800e-02
        2 -1    0    0  501    0 +0.0000000000e+00 +0.0000000000e+00 +2.2386081341e+02 2.2386081341e+02 0.0000000000e+00 0.0000e+00 -1.0000e+00
       -2 -1    0    0    0  501 -0.0000000000e+00 -0.0000000000e+00 -3.3675185142e+02 3.3675185142e+02 0.0000000000e+00 0.0000e+00 1.0000e+00
      -13  1    1    2    0    0 -2.4688903258e+02 -9.8009811689e+01 +1.4472516113e+01 2.6602550877e+02 0.0000000000e+00 0.0000e+00 1.0000e+00
       13  1    1    2    0    0 +2.4688903258e+02 +9.8009811689e+01 -1.2736355412e+02 2.9458715606e+02 0.0000000000e+00 0.0000e+00 -1.0000e+00
<mgrwt>
<rscale>  0 0.54912856E+03</rscale>
<asrwt>0</asrwt>
<pdfrwt beam="1">  1        2 0.34440126E-01 0.54912856E+03</pdfrwt>
<pdfrwt beam="2">  1       -2 0.51807977E-01 0.54912856E+03</pdfrwt>
<totfact> 0.66302762E+02</totfact>
</mgrwt>
<rwgt>
<wgt id='morphing_basis_vector_1'> +2.1773006e-04 </wgt>
<wgt id='morphing_basis_vector_2'> +1.6293737e-04 </wgt>
<wgt id='morphing_basis_vector_3'> +1.4961384e-04 </wgt>
<wgt id='morphing_basis_vector_4'> +4.9603282e-05 </wgt>
<wgt id='morphing_basis_vector_5'> +8.7296631e-05 </wgt>
</rwgt>
</event>
<event>
 4      1 +1.0153100e-05 5.51096700e+02 7.81860800e-03 9.29218900e-02
        2 -1    0    0  501    0 +0.0000000000e+00 +0.0000000000e+00 +4.4990167478e+02 4.4990167478e+02 0.0000000000e+00 0.0000e+00 -1.0000e+00
       -2 -1    0    0    0  501 -0.0000000000e+00 -0.0000000000e+00 -1.6876327755e+02 1.6876327755e+02 0.0000000000e+00 0.0000e+00 1.0000e+00
      -13  1    1    2    0    0 +1.1264003998e+02 -1.2887440534e+01 -1.4136615515e+02 1.8121328470e+02 0.0000000000e+00 0.0000e+00 1.0000e+00
       13  1    1    2    0    0 -1.1264003998e+02 +1.2887440534e+01 +4.2250455238e+02 4.3745166763e+02 0.0000000000e+00 0.0000e+00 -1.0000e+00
<mgrwt>
<rscale>  0 0.55109666E+03</rscale>
<asrwt>0</asrwt>
<pdfrwt beam="1">  1        2 0.69215642E-01 0.55109666E+03</pdfrwt>
<pdfrwt beam="2">  1       -2 0.25963581E-01 0.55109666E+03</pdfrwt>
<totfact> 0.10677965E+03</totfact>
</mgrwt>
<rwgt>
<wgt id='morphing_basis_vector_1'> +2.0374607e-04 </wgt>
<wgt id='morphing_basis_vector_2'> +1.1378172e-04 </wgt>
<wgt id='morphing_basis_vector_3'> +1.5466554e-04 </wgt>
<wgt id='morphing_basis_vector_4'> +6.0338562e-05 </wgt>
<wgt id='morphing_basis_vector_5'> +8.8624264e-05 </wgt>
</rwgt>
</event>
<event>
 4      1 +1.0153100e-05 5.44154600e+02 7.81860800e-03 9.30605800e-02
        2 -1    0    0  501    0 +0.0000000000e+00 +0.0000000000e+00 +1.6207492042e+03 1.6207492042e+03 0.0000000000e+00 0.0000e+00 -1.0000e+00
       -2 -1    0    0    0  501 -0.0000000000e+00 -0.0000000000e+00 -4.5673982251e+01 4.5673982251e+01 0.0000000000e+00 0.0000e+00 1.0000e+00
      -13  1    1    2    0    0 +2.3000548419e+02 -3.4075109300e+01 +1.2202204881e+03 1.2421761853e+03 0.0000000000e+00 0.0000e+00 1.0000e+00
       13  1    1    2    0    0 -2.3000548419e+02 +3.4075109300e+01 +3.5485473392e+02 4.2424700119e+02 0.0000000000e+00 0.0000e+00 -1.0000e+00
<mgrwt>
<rscale>  0 0.54415465E+03</rscale>
<asrwt>0</asrwt>
<pdfrwt beam="1">  1        2 0.24934599E+00 0.54415465E+03</pdfrwt>
<pdfrwt beam="2">  1       -2 0.70267677E-02 0.54415465E+03</pdfrwt>
<totfact> 0.14659574E+03</totfact>
</mgrwt>
<rwgt>
<wgt id='morphing_basis_vector_1'> +2.3146497e-04 </wgt>
<wgt id='morphing_basis_vector_2'> +2.1984129e-04 </wgt>
<wgt id='morphing_basis_vector_3'> +1.4021723e-04 </wgt>
<wgt id='morphing_basis_vector_4'> +3.6089135e-05 </wgt>
<wgt id='morphing_basis_vector_5'> +8.3606452e-05 </wgt>
</rwgt>
</event>
<event>
 4      1 +1.0153100e-05 5.97900500e+02 7.81860800e-03 9.20402000e-02
        2 -1    0    0  501    0 +0.0000000000e+00 +0.0000000000e+00 +1.0074631843e+02 1.0074631843e+02 0.0000000000e+00 0.0000e+00 1.0000e+00
       -2 -1    0    0    0  501 -0.0000000000e+00 -0.0000000000e+00 -8.8709201609e+02 8.8709201609e+02 0.0000000000e+00 0.0000e+00 -1.0000e+00
      -13  1    1    2    0    0 -1.9555182521e+02 +2.0596112177e+02 -5.4737301597e+02 6.1666661871e+02 0.0000000000e+00 0.0000e+00 -1.0000e+00
       13  1    1    2    0    0 +1.9555182521e+02 -2.0596112177e+02 -2.3897268168e+02 3.7117171580e+02 0.0000000000e+00 0.0000e+00 1.0000e+00
<mgrwt>
<rscale>  0 0.59790051E+03</rscale>
<asrwt>0</asrwt>
<pdfrwt beam="1">  1        2 0.15499434E-01 0.59790051E+03</pdfrwt>
<pdfrwt beam="2">  1       -2 0.13647569E+00 0.59790051E+03</pdfrwt>
<totfact> 0.18474834E+02</totfact>
</mgrwt>
<rwgt>
<wgt id='morphing_basis_vector_1'> +2.6705409e-04 </wgt>
<wgt id='morphing_basis_vector_2'> +1.5826574e-04 </wgt>
<wgt id='morphing_basis_vector_3'> +2.0937138e-04 </wgt>
<wgt id='morphing_basis_vector_4'> +8.8321102e-05 </wgt>
<wgt id='morphing_basis_vector_5'> +1.3616349e-04 </wgt>
</rwgt>
</event>
<event>
 4      1 +1.0153100e-05 5.61821500e+02 7.81860800e-03 9.27118400e-02
        2 -1    0    0  501    0 +0.0000000000e+00 +0.0000000000e+00 +2.7619835012e+02 2.7619835012e+02 0.0000000000e+00 0.0000e+00 1.0000e+00
       -2 -1    0    0    0  501 -0.0000000000e+00 -0.0000000000e+00 -2.8570357086e+02 2.8570357086e+02 0.0000000000e+00 0.0000e+00 -1.0000e+00
      -13  1    1    2    0    0 +7.1138634251e+01 +1.6815245628e+02 -2.1826595033e+02 2.8456278553e+02 0.0000000000e+00 0.0000e+00 -1.0000e+00
       13  1    1    2    0    0 -7.1138634251e+01 -1.6815245628e+02 +2.0876072959e+02 2.7733913545e+02 0.0000000000e+00 0.0000e+00 1.0000e+00
<mgrwt>
<rscale>  0 0.56182152E+03</rscale>
<asrwt>0</asrwt>
<pdfrwt beam="1">  1        2 0.42492054E-01 0.56182152E+03</pdfrwt>
<pdfrwt beam="2">  1       -2 0.43954396E-01 0.56182152E+03</pdfrwt>
<totfact> 0.71716834E+02</totfact>
</mgrwt>
<rwgt>
<wgt id='morphing_basis_vector_1'> +2.1666324e-04 </wgt>
<wgt id='morphing_basis_vector_2'> +1.2178875e-04 </wgt>
<wgt id='morphing_basis_vector_3'> +1.6602728e-04 </wgt>
<wgt id='morphing_basis_vector_4'> +6.6360652e-05 </wgt>
<wgt id='morphing_basis_vector_5'> +9.8297368e-05 </wgt>
</rwgt>
</event>
<event>
 4      1 +1.0153100e-05 5.35617600e+02 7.81860800e-03 9.32341900e-02
        2 -1    0    0  501    0 +0.0000000000e+00 +0.0000000000e+00 +1.9374413936e+03 1.9374413936e+03 0.0000000000e+00 0.0000e+00 -1.0000e+00
       -2 -1    0    0    0  501 -0.0000000000e+00 -0.0000000000e+00 -3.7018692246e+01 3.7018692246e+01 0.0000000000e+00 0.0000e+00 1.0000e+00
      -13  1    1    2    0    0 -2.5130084156e+02 -4.0177946421e+01 +6.4278060357e+02 6.9132719075e+02 0.0000000000e+00 0.0000e+00 1.0000e+00
       13  1    1    2    0    0 +2.5130084156e+02 +4.0177946421e+01 +1.2576420977e+03 1.2831328951e+03 0.0000000000e+00 0.0000e+00 -1.0000e+00
<mgrwt>
<rscale>  0 0.53561758E+03</rscale>
<asrwt>0</asrwt>
<pdfrwt beam="1">  1        2 0.29806783E+00 0.53561758E+03</pdfrwt>
<pdfrwt beam="2">  1       -2 0.56951849E-02 0.53561758E+03</pdfrwt>
<totfact> 0.13612348E+03</totfact>
</mgrwt>
<rwgt>
<wgt id='morphing_basis_vector_1'> +1.8821626e-04 </wgt>
<wgt id='morphing_basis_vector_2'> +1.0920304e-04 </wgt>
<wgt id='morphing_basis_vector_3'> +1.3891134e-04 </wgt>
<wgt id='morphing_basis_vector_4'> +5.1272632e-05 </wgt>
<wgt id='morphing_basis_vector_5'> +7.5895833e-05 </wgt>
</rwgt>
</event>
<event>
 4      1 +1.0153100e-05 5.89410000e+02 7.81860800e-03 9.21936600e-02
        2 -1    0    0  501    0 +0.0000000000e+00 +0.0000000000e+00 +1.0242855889e+03 1.0242855889e+03 0.0000000000e+00 0.0000e+00 1.0000e+00
       -2 -1    0    0    0  501 -0.0000000000e+00 -0.0000000000e+00 -8.4791818430e+01 8.4791818430e+01 0.0000000000e+00 0.0000e+00 -1.0000e+00
      -13  1    1    2    0    0 -1.0391175589e+02 -2.6663110575e+02 +3.3720919666e+02 4.4226670899e+02 0.0000000000e+00 0.0000e+00 -1.0000e+00
       13  1    1    2    0    0 +1.0391175589e+02 +2.6663110575e+02 +6.0228457378e+02 6.6681069831e+02 0.0000000000e+00 0.0000e+00 1.0000e+00
<mgrwt>
<rscale>  0 0.58941000E+03</rscale>
<asrwt>0</asrwt>
<pdfrwt beam="1">  1        2 0.15758239E+00 0.58941000E+03</pdfrwt>
<pdfrwt beam="2">  1       -2 0.13044896E-01 0.58941000E+03</pdfrwt>
<totfact> 0.12080881E+03</totfact>
</mgrwt>
<rwgt>
<wgt id='morphing_basis_vector_1'> +2.5586105e-04 </wgt>
<wgt id='morphing_basis_vector_2'> +1.5347727e-04 </wgt>
<wgt id='morphing_basis_vector_3'> +1.9835285e-04 </wgt>
<wgt id='morphing_basis_vector_4'> +8.1711352e-05 </wgt>
<wgt id='morphing_basis_vector_5'> +1.2649560e-04 </wgt>
</rwgt>
</event>
<event>
 4      1 +1.0153100e-05 5.69214100e+02 7.81860800e-03 9.25699400e-02
        2 -1    0    0  501    0 +0.0000000000e+00 +0.0000000000e+00 +7.0366656570e+02 7.0366656570e+02 0.0000000000e+00 0.0000e+00 1.0000e+00
       -2 -1    0    0    0  501 -0.0000000000e+00 -0.0000000000e+00 -1.1511301891e+02 1.1511301891e+02 0.0000000000e+00 0.0000e+00 -1.0000e+00
      -13  1    1    2    0    0 -1.7612316367e+01 +2.2913159235e+02 +5.3578758378e+02 5.8299212279e+02 0.0000000000e+00 0.0000e+00 1.0000e+00
       13  1    1    2    0    0 +1.7612316367e+01 -2.2913159235e+02 +5.2765963007e+01 2.3578746182e+02 0.0000000000e+00 0.0000e+00 -1.0000e+00
<mgrwt>
<rscale>  0 0.56921413E+03</rscale>
<asrwt>0</asrwt>
<pdfrwt beam="1">  1        2 0.10825639E+00 0.56921413E+03</pdfrwt>
<pdfrwt beam="2">  1       -2 0.17709696E-01 0.56921413E+03</pdfrwt>
<totfact> 0.12056690E+03</totfact>
</mgrwt>
<rwgt>
<wgt id='morphing_basis_vector_1'> +2.7519132e-04 </wgt>
<wgt id='morphing_basis_vector_2'> +2.8043733e-04 </wgt>
<wgt id='morphing_basis_vector_3'> +1.6923252e-04 </wgt>
<wgt id='morphing_basis_vector_4'> +3.7928145e-05 </wgt>
<wgt id='morphing_basis_vector_5'> +1.0614876e-04 </wgt>
</rwgt>
</event>
<event>
 4      1 +1.0153100e-05 5.67068900e+02 7.81860800e-03 9.26108800e-02
        2 -1    0    0  501    0 +0.0000000000e+00 +0.0000000000e+00 +2.3565204227e+02 2.3565204227e+02 0.0000000000e+00 0.0000e+00 -1.0000e+00
       -2 -1    0    0    0  501 -0.0000000000e+00 -0.0000000000e+00 -3.4114609451e+02 3.4114609451e+02 0.0000000000e+00 0.0000e+00 1.0000e+00
      -13  1    1    2    0    0 +1.1616203046e+02 -1.8033049805e+02 -2.4134416373e+02 3.2289272400e+02 0.0000000000e+00 0.0000e+00 1.0000e+00
       13  1    1    2    0    0 -1.1616203046e+02 +1.8033049805e+02 +1.3585011149e+02 2.5390541278e+02 0.0000000000e+00 0.0000e+00 -1.0000e+00
<mgrwt>
<rscale>  0 0.56706886E+03</rscale>
<asrwt>0</asrwt>
<pdfrwt beam="1">  1        2 0.36254160E-01 0.56706886E+03</pdfrwt>
<pdfrwt beam="2">  1       -2 0.52484015E-01 0.56706886E+03</pdfrwt>
<totfact> 0.60953543E+02</totfact>
</mgrwt>
<rwgt>
<wgt id='morphing_basis_vector_1'> +2.2336474e-04 </wgt>
<wgt id='morphing_basis_vector_2'> +1.2631535e-04 </wgt>
<wgt id='morphing_basis_vector_3'> +1.7181427e-04 </wgt>
<wgt id='morphing_basis_vector_4'> +6.9365730e-05 </wgt>
<wgt id='morphing_basis_vector_5'> +1.0328594e-04 </wgt>
</rwgt>
</event>
<event>
 4      1 +1.0153100e-05 5.58462500e+02 7.81860800e-03 9.27770900e-02
        2 -1    0    0  501    0 +0.0000000000e+00 +0.0000000000e+00 +8.2107663502e+02 8.2107663502e+02 0.0000000000e+00 0.0000e+00 -1.0000e+00
       -2 -1    0    0    0  501 -0.0000000000e+00 -0.0000000000e+00 -9.4960811108e+01 9.4960811108e+01 0.0000000000e+00 0.0000e+00 1.0000e+00
      -13  1    1    2    0    0 -1.1878792623e+02 -1.9547751308e+02 +1.0036608949e+02 2.4979067528e+02 0.0000000000e+00 0.0000e+00 1.0000e+00
       13  1    1    2    0    0 +1.1878792623e+02 +1.9547751308e+02 +6.2574973442e+02 6.6624677085e+02 0.0000000000e+00 0.0000e+00 -1.0000e+00
<mgrwt>
<rscale>  0 0.55846254E+03</rscale>
<asrwt>0</asrwt>
<pdfrwt beam="1">  1        2 0.12631948E+00 0.55846254E+03</pdfrwt>
<pdfrwt beam="2">  1       -2 0.14609356E-01 0.55846254E+03</pdfrwt>
<totfact> 0.13590706E+03</totfact>
</mgrwt>
<rwgt>
<wgt id='morphing_basis_vector_1'> +2.1301671e-04 </wgt>
<wgt id='morphing_basis_vector_2'> +1.2068852e-04 </wgt>
<wgt id='morphing_basis_vector_3'> +1.6232884e-04 </wgt>
<wgt id='morphing_basis_vector_4'> +6.4135351e-05 </wgt>
<wgt id='morphing_basis_vector_5'> +9.5203007e-05 </wgt>
</rwgt>
</event>
<event>
 4      1 +1.0153100e-05 5.58487400e+02 7.81860800e-03 9.27766000e-02
        2 -1    0    0  501    0 +0.0000000000e+00 +0.0000000000e+00 +3.6805932040e+02 3.6805932040e+02 0.0000000000e+00 0.0000e+00 -1.0000e+00
       -2 -1    0    0    0  501 -0.0000000000e+00 -0.0000000000e+00 -2.1185995350e+02 2.1185995350e+02 0.0000000000e+00 0.0000e+00 1.0000e+00
      -13  1    1    2    0    0 +1.0293278587e+02 -6.6803001452e+01 -1.8236323616e+02 2.1980479820e+02 0.0000000000e+00 0.0000e+00 1.0000e+00
       13  1    1    2    0    0 -1.0293278587e+02 +6.6803001452e+01 +3.3856260306e+02 3.6011447569e+02 0.0000000000e+00 0.0000e+00 -1.0000e+00
<mgrwt>
<rscale>  0 0.55848735E+03</rscale>
<asrwt>0</asrwt>
<pdfrwt beam="1">  1        2 0.56624511E-01 0.55848735E+03</pdfrwt>
<pdfrwt beam="2">  1       -2 0.32593839E-01 0.55848735E+03</pdfrwt>
<totfact> 0.89931096E+02</totfact>
</mgrwt>
<rwgt>
<wgt id='morphing_basis_vector_1'> +2.1249392e-04 </wgt>
<wgt id='morphing_basis_vector_2'> +1.1899020e-04 </wgt>
<wgt id='morphing_basis_vector_3'> +1.6243649e-04 </wgt>
<wgt id='morphing_basis_vector_4'> +6.4496893e-05 </wgt>
<wgt id='morphing_basis_vector_5'> +9.5214832e-05 </wgt>
</rwgt>
</event>
<event>
 4      1 +1.0153100e-05 5.85828300e+02 7.81860800e-03 9.22592100e-02
        2 -1    0    0  501    0 +0.0000000000e+00 +0.0000000000e+00 +3.0032167311e+02 3.0032167311e+02 0.0000000000e+00 0.0000e+00 -1.0000e+00
       -2 -1    0    0    0  501 -0.0000000000e+00 -0.0000000000e+00 -2.8568933299e+02 2.8568933299e+02 0.0000000000e+00 0.0000e+00 1.0000e+00
      -13  1    1    2    0    0 +2.9113976557e+02 -2.6400110113e+01 -1.1111561203e+01 2.9254537375e+02 0.0000000000e+00 0.0000e+00 1.0000e+00
       13  1    1    2    0    0 -2.9113976557e+02 +2.6400110113e+01 +2.5743901324e+01 2.9346563234e+02 0.0000000000e+00 0.0000e+00 -1.0000e+00
<mgrwt>
<rscale>  0 0.58582830E+03</rscale>
<asrwt>0</asrwt>
<pdfrwt beam="1">  1        2 0.46203334E-01 0.58582830E+03</pdfrwt>
<pdfrwt beam="2">  1       -2 0.43952205E-01 0.58582830E+03</pdfrwt>
<totfact> 0.65269016E+02</totfact>
</mgrwt>
<rwgt>
<wgt id='morphing_basis_vector_1'> +2.5417496e-04 </wgt>
<wgt id='morphing_basis_vector_2'> +1.6054874e-04 </wgt>
<wgt id='morphing_basis_vector_3'> +1.9372427e-04 </wgt>
<wgt id='morphing_basis_vector_4'> +7.6928822e-05 </wgt>
<wgt id='morphing_basis_vector_5'> +1.2259462e-04 </wgt>
</rwgt>
</event>
<event>
 4      1 +1.0153100e-05 5.30166000e+02 7.81860800e-03 9.33468700e-02
        2 -1    0    0  501    0 +0.0000000000e+00 +0.0000000000e+00 +1.8584332370e+03 1.8584332370e+03 0.0000000000e+00 0.0000e+00 1.0000e+00
       -2 -1    0    0    0  501 -0.0000000000e+00 -0.0000000000e+00 -3.7810884832e+01 3.7810884832e+01 0.0000000000e+00 0.0000e+00 -1.0000e+00
      -13  1    1    2    0    0 +1.9773451015e+02 +1.7133996445e+02 +7.5803094032e+02 8.0191472515e+02 0.0000000000e+00 0.0000e+00 -1.0000e+00
       13  1    1    2    0    0 -1.9773451015e+02 -1.7133996445e+02 +1.0625914119e+03 1.0943293967e+03 0.0000000000e+00 0.0000e+00 1.0000e+00
<mgrwt>
<rscale>  0 0.53016603E+03</rscale>
<asrwt>0</asrwt>
<pdfrwt beam="1">  1        2 0.28591273E+00 0.53016603E+03</pdfrwt>
<pdfrwt beam="2">  1       -2 0.58170606E-02 0.53016603E+03</pdfrwt>
<totfact> 0.14555795E+03</totfact>
</mgrwt>
<rwgt>
<wgt id='morphing_basis_vector_1'> +1.8385708e-04 </wgt>
<wgt id='morphing_basis_vector_2'> +1.1030765e-04 </wgt>
<wgt id='morphing_basis_vector_3'> +1.3338507e-04 </wgt>
<wgt id='morphing_basis_vector_4'> +4.7907189e-05 </wgt>
<wgt id='morphing_basis_vector_5'> +7.1759635e-05 </wgt>
</rwgt>
</event>
<event>
 4      1 +1.0153100e-05 5.86030400e+02 7.81860800e-03 9.22555000e-02
        2 -1    0    0  501    0 +0.0000000000e+00 +0.0000000000e+00 +5.2265255837e+02 5.2265255837e+02 0.0000000000e+00 0.0000e+00 -1.0000e+00
       -2 -1    0    0    0  501 -0.0000000000e+00 -0.0000000000e+00 -1.6427340708e+02 1.6427340708e+02 0.0000000000e+00 0.0000e+00 1.0000e+00
      -13  1    1    2    0    0 +2.5004079604e+02 -3.4125273935e+01 +3.5373232854e+02 4.3452444611e+02 0.0000000000e+00 0.0000e+00 1.0000e+00
       13  1    1    2    0    0 -2.5004079604e+02 +3.4125273935e+01 +4.6468227466e+00 2.5240151935e+02 0.0000000000e+00 0.0000e+00 -1.0000e+00
<mgrwt>
<rscale>  0 0.58603043E+03</rscale>
<asrwt>0</asrwt>
<pdfrwt beam="1">  1        2 0.80408085E-01 0.58603043E+03</pdfrwt>
<pdfrwt beam="2">  1       -2 0.25272832E-01 0.58603043E+03</pdfrwt>
<totfact> 0.94345007E+02</totfact>
</mgrwt>
<rwgt>
<wgt id='morphing_basis_vector_1'> +2.9193656e-04 </wgt>
<wgt id='morphing_basis_vector_2'> +2.7701550e-04 </wgt>
<wgt id='morphing_basis_vector_3'> +1.9268993e-04 </wgt>
<wgt id='morphing_basis_vector_4'> +4.9906076e-05 </wgt>
<wgt id='morphing_basis_vector_5'> +1.2318331e-04 </wgt>
</rwgt>
</event>
<event>
 4      1 +1.0153100e-05 5.46969700e+02 7.81860800e-03 9.30040700e-02
        2 -1    0    0  501    0 +0.0000000000e+00 +0.0000000000e+00 +1.6422354941e+02 1.6422354941e+02 0.0000000000e+00 0.0000e+00 -1.0000e+00
       -2 -1    0    0    0  501 -0.0000000000e+00 -0.0000000000e+00 -4.5544001681e+02 4.5544001681e+02 0.0000000000e+00 0.0000e+00 1.0000e+00
      -13  1    1    2    0    0 -4.2093747941e+01 +7.5545875020e+01 -4.3954120242e+02 4.4796822596e+02 0.0000000000e+00 0.0000e+00 1.0000e+00
       13  1    1    2    0    0 +4.2093747941e+01 -7.5545875020e+01 +1.4832473502e+02 1.7169534026e+02 0.0000000000e+00 0.0000e+00 -1.0000e+00
<mgrwt>
<rscale>  0 0.54696975E+03</rscale>
<asrwt>0</asrwt>
<pdfrwt beam="1">  1        2 0.25265162E-01 0.54696975E+03</pdfrwt>
<pdfrwt beam="2">  1       -2 0.70067693E-01 0.54696975E+03</pdfrwt>
<totfact> 0.51176411E+02</totfact>
</mgrwt>
<rwgt>
<wgt id='morphing_basis_vector_1'> +1.9898329e-04 </wgt>
<wgt id='morphing_basis_vector_2'> +1.1093385e-04 </wgt>
<wgt id='morphing_basis_vector_3'> +1.5046032e-04 </wgt>
<wgt id='morphing_basis_vector_4'> +5.8108519e-05 </wgt>
<wgt id='morphing_basis_vector_5'> +8.5083505e-05 </wgt>
</rwgt>
</event>
<event>
 4      1 +1.0153100e-05 5.60468100e+02 7.81860800e-03 9.27380700e-02
        2 -1    0    0  501    0 +0.0000000000e+00 +0.0000000000e+00 +1.3844664770e+03 1.3844664770e+03 0.0000000000e+00 0.0000e+00 -1.0000e+00
       -2 -1    0    0    0  501 -0.0000000000e+00 -0.0000000000e+00 -5.6723013215e+01 5.6723013215e+01 0.0000000000e+00 0.0000e+00 1.0000e+00
      -13  1    1    2    0    0 +1.1382916952e+02 -2.5440346801e+02 +5.8877504432e+02 6.5140943898e+02 0.0000000000e+00 0.0000e+00 1.0000e+00
       13  1    1    2    0    0 -1.1382916952e+02 +2.5440346801e+02 +7.3896841943e+02 7.8978005121e+02 0.0000000000e+00 0.0000e+00 -1.0000e+00
<mgrwt>
<rscale>  0 0.56046806E+03</rscale>
<asrwt>0</asrwt>
<pdfrwt beam="1">  1        2 0.21299482E+00 0.56046806E+03</pdfrwt>
<pdfrwt beam="2">  1       -2 0.87266185E-02 0.56046806E+03</pdfrwt>
<totfact> 0.14120993E+03</totfact>
</mgrwt>
<rwgt>
<wgt id='morphing_basis_vector_1'> +2.1978703e-04 </wgt>
<wgt id='morphing_basis_vector_2'> +1.3562607e-04 </wgt>
<wgt id='morphing_basis_vector_3'> +1.6389487e-04 </wgt>
<wgt id='morphing_basis_vector_4'> +6.2533575e-05 </wgt>
<wgt id='morphing_basis_vector_5'> +9.7129142e-05 </wgt>
</rwgt>
</event>
<event>
 4      1 +1.0153100e-05 5.53918500e+02 7.81860800e-03 9.28661300e-02
        2 -1    0    0  501    0 +0.0000000000e+00 +0.0000000000e+00 +7.7146387827e+01 7.7146387827e+01 0.0000000000e+00 0.0000e+00 1.0000e+00
       -2 -1    0    0    0  501 -0.0000000000e+00 -0.0000000000e+00 -9.9429704711e+02 9.9429704711e+02 0.0000000000e+00 0.0000e+00 -1.0000e+00
      -13  1    1    2    0    0 -2.7368810552e+02 -1.0565487174e+01 -5.3808455333e+02 6.0378124777e+02 0.0000000000e+00 0.0000e+00 -1.0000e+00
       13  1    1    2    0    0 +2.7368810552e+02 +1.0565487174e+01 -3.7906610595e+02 4.6766218717e+02 0.0000000000e+00 0.0000e+00 1.0000e+00
<mgrwt>
<rscale>  0 0.55391850E+03</rscale>
<asrwt>0</asrwt>
<pdfrwt beam="1">  1        2 0.11868676E-01 0.55391850E+03</pdfrwt>
<pdfrwt beam="2">  1       -2 0.15296877E+00 0.55391850E+03</pdfrwt>
<totfact> 0.18771657E+02</totfact>
</mgrwt>
<rwgt>
<wgt id='morphing_basis_vector_1'> +2.1102832e-04 </wgt>
<wgt id='morphing_basis_vector_2'> +1.2810006e-04 </wgt>
<wgt id='morphing_basis_vector_3'> +1.5693623e-04 </wgt>
<wgt id='morphing_basis_vector_4'> +5.9468928e-05 </wgt>
<wgt id='morphing_basis_vector_5'> +9.1186884e-05 </wgt>
</rwgt>
</event>
<event>
 4      1 +1.0153100e-05 5.27177800e+02 7.81860800e-03 9.34092500e-02
        2 -1    0    0  501    0 +0.0000000000e+00 +0.0000000000e+00 +3.3170143920e+02 3.3170143920e+02 0.0000000000e+00 0.0000e+00 -1.0000e+00
       -2 -1    0    0    0  501 -0.0000000000e+00 -0.0000000000e+00 -2.0946279239e+02 2.0946279239e+02 0.0000000000e+00 0.0000e+00 1.0000e+00
      -13  1    1    2    0    0 +2.3328752258e+02 -9.1183221897e+01 -2.3166675668e+01 2.5154352110e+02 0.0000000000e+00 0.0000e+00 1.0000e+00
       13  1    1    2    0    0 -2.3328752258e+02 +9.1183221897e+01 +1.4540532248e+02 2.8962071050e+02 0.0000000000e+00 0.0000e+00 -1.0000e+00
<mgrwt>
<rscale>  0 0.52717781E+03</rscale>
<asrwt>0</asrwt>
<pdfrwt beam="1">  1        2 0.51030990E-01 0.52717781E+03</pdfrwt>
<pdfrwt beam="2">  1       -2 0.32225045E-01 0.52717781E+03</pdfrwt>
<totfact> 0.10310070E+03</totfact>
</mgrwt>
<rwgt>
<wgt id='morphing_basis_vector_1'> +1.7918314e-04 </wgt>
<wgt id='morphing_basis_vector_2'> +1.0365956e-04 </wgt>
<wgt id='morphing_basis_vector_3'> +1.3105735e-04 </wgt>
<wgt id='morphing_basis_vector_4'> +4.7330022e-05 </wgt>
<wgt id='morphing_basis_vector_5'> +6.9490515e-05 </wgt>
</rwgt>
</event>
<event>
 4      1 +1.0153100e-05 5.44625400e+02 7.81860800e-03 9.30511000e-02
        2 -1    0    0  501    0 +0.0000000000e+00 +0.0000000000e+00 +1.4984516809e+03 1.4984516809e+03 0.0000000000e+00 0.0000e+00 1.0000e+00
       -2 -1    0    0    0  501 -0.0000000000e+00 -0.0000000000e+00 -4.9487227362e+01 4.9487227362e+01 0.0000000000e+00 0.0000e+00 -1.0000e+00
      -13  1    1    2    0    0 -1.2197505151e+02 -2.3055370594e+02 +5.0211154591e+02 5.6581704556e+02 0.0000000000e+00 0.0000e+00 -1.0000e+00
       13  1    1    2    0    0 +1.2197505151e+02 +2.3055370594e+02 +9.4685290758e+02 9.8212186266e+02 0.0000000000e+00 0.0000e+00 1.0000e+00
<mgrwt>
<rscale>  0 0.54462545E+03</rscale>
<asrwt>0</asrwt>
<pdfrwt beam="1">  1        2 0.23053099E+00 0.54462545E+03</pdfrwt>
<pdfrwt beam="2">  1       -2 0.76134208E-02 0.54462545E+03</pdfrwt>
<totfact> 0.15105959E+03</totfact>
</mgrwt>
<rwgt>
<wgt id='morphing_basis_vector_1'> +1.9847690e-04 </wgt>
<wgt id='morphing_basis_vector_2'> +1.1604645e-04 </wgt>
<wgt id='morphing_basis_vector_3'> +1.4766831e-04 </wgt>
<wgt id='morphing_basis_vector_4'> +5.5623032e-05 </wgt>
<wgt id='morphing_basis_vector_5'> +8.3168875e-05 </wgt>
</rwgt>
</event>
<event>
 4      1 +1.0153100e-05 5.51457200e+02 7.81860800e-03 9.29147400e-02
        2 -1    0    0  501    0 +0.0000000000e+00 +0.0000000000e+00 +9.1974238079e+02 9.1974238079e+02 0.0000000000e+00 0.0000e+00 -1.0000e+00
       -2 -1    0    0    0  501 -0.0000000000e+00 -0.0000000000e+00 -8.2660397202e+01 8.2660397202e+01 0.0000000000e+00 0.0000e+00 1.0000e+00
      -13  1    1    2    0    0 +2.6795329603e+01 +1.7251963746e+02 +3.0612217656e+01 1.7725158072e+02 0.0000000000e+00 0.0000e+00 1.0000e+00
       13  1    1    2    0    0 -2.6795329603e+01 -1.7251963746e+02 +8.0646976594e+02 8.2515119728e+02 0.0000000000e+00 0.0000e+00 -1.0000e+00
<mgrwt>
<rscale>  0 0.55145724E+03</rscale>
<asrwt>0</asrwt>
<pdfrwt beam="1">  1        2 0.14149882E+00 0.55145724E+03</pdfrwt>
<pdfrwt beam="2">  1       -2 0.12716985E-01 0.55145724E+03</pdfrwt>
<totfact> 0.14619825E+03</totfact>
</mgrwt>
<rwgt>
<wgt id='morphing_basis_vector_1'> +2.0427200e-04 </wgt>
<wgt id='morphing_basis_vector_2'> +1.1436079e-04 </wgt>
<wgt id='morphing_basis_vector_3'> +1.5501884e-04 </wgt>
<wgt id='morphing_basis_vector_4'> +6.0472806e-05 </wgt>
<wgt id='morphing_basis_vector_5'> +8.8940666e-05 </wgt>
</rwgt>
</event>
<event>
 4      1 +1.0153100e-05 5.90799800e+02 7.81860800e-03 9.21683500e-02
        2 -1    0    0  501    0 +0.0000000000e+00 +0.0000000000e+00 +7.0716156125e+02 7.0716156125e+02 0.0000000000e+00 0.0000e+00 -1.0000e+00
       -2 -1    0    0    0  501 -0.0000000000e+00 -0.0000000000e+00 -1.2339625208e+02 1.2339625208e+02 0.0000000000e+00 0.0000e+00 1.0000e+00
      -13  1    1    2    0    0 +2.3430341247e+01 -1.5097476369e+02 -6.3538784080e+01 1.6546763201e+02 0.0000000000e+00 0.0000e+00 1.0000e+00
       13  1    1    2    0    0 -2.3430341247e+01 +1.5097476369e+02 +6.4730409325e+02 6.6509018133e+02 0.0000000000e+00 0.0000e+00 -1.0000e+00
<mgrwt>
<rscale>  0 0.59079975E+03</rscale>
<asrwt>0</asrwt>
<pdfrwt beam="1">  1        2 0.10879408E+00 0.59079975E+03</pdfrwt>
<pdfrwt beam="2">  1       -2 0.18984039E-01 0.59079975E+03</pdfrwt>
<totfact> 0.10687745E+03</totfact>
</mgrwt>
<rwgt>
<wgt id='morphing_basis_vector_1'> +2.5441308e-04 </wgt>
<wgt id='morphing_basis_vector_2'> +1.4416149e-04 </wgt>
<wgt id='morphing_basis_vector_3'> +2.0017980e-04 </wgt>
<wgt id='morphing_basis_vector_4'> +8.5174643e-05 </wgt>
<wgt id='morphing_basis_vector_5'> +1.2801736e-04 </wgt>
</rwgt>
</event>
<event>
 4      1 +1.0153100e-05 5.27458000e+02 7.81860800e-03 9.34033900e-02
        2 -1    0    0  501    0 +0.0000000000e+00 +0.0000000000e+00 +6.0970974875e+02 6.0970974875e+02 0.0000000000e+00 0.0000e+00 -1.0000e+00
       -2 -1    0    0    0  501 -0.0000000000e+00 -0.0000000000e+00 -1.1407556425e+02 1.1407556425e+02 0.0000000000e+00 0.0000e+00 1.0000e+00
      -13  1    1    2    0    0 -2.1260289274e+02 +1.3489232477e+02 +3.5549048090e+02 4.3562531066e+02 0.0000000000e+00 0.0000e+00 1.0000e+00
       13  1    1    2    0    0 +2.1260289274e+02 -1.3489232477e+02 +1.4014370361e+02 2.8816000233e+02 0.0000000000e+00 0.0000e+00 -1.0000e+00
<mgrwt>
<rscale>  0 0.52745799E+03</rscale>
<asrwt>0</asrwt>
<pdfrwt beam="1">  1        2 0.93801498E-01 0.52745799E+03</pdfrwt>
<pdfrwt beam="2">  1       -2 0.17550087E-01 0.52745799E+03</pdfrwt>
<totfact> 0.14515155E+03</totfact>
</mgrwt>
<rwgt>
<wgt id='morphing_basis_vector_1'> +1.9424695e-04 </wgt>
<wgt id='morphing_basis_vector_2'> +1.4971721e-04 </wgt>
<wgt id='morphing_basis_vector_3'> +1.2713341e-04 </wgt>
<wgt id='morphing_basis_vector_4'> +3.9904719e-05 </wgt>
<wgt id='morphing_basis_vector_5'> +7.0149742e-05 </wgt>
</rwgt>
</event>
<event>
 4      1 +1.0153100e-05 5.56120300e+02 7.81860800e-03 9.28228700e-02
        2 -1    0    0  501    0 +0.0000000000e+00 +0.0000000000e+00 +2.6711791552e+02 2.6711791552e+02 0.0000000000e+00 0.0000e+00 1.0000e+00
       -2 -1    0    0    0  501 -0.0000000000e+00 -0.0000000000e+00 -2.8945066755e+02 2.8945066755e+02 0.0000000000e+00 0.0000e+00 -1.0000e+00
      -13  1    1    2    0    0 +1.8922125548e+02 +1.9370966739e+02 -7.4378508600e+01 2.8082072806e+02 0.0000000000e+00 0.0000e+00 -1.0000e+00
       13  1    1    2    0    0 -1.8922125548e+02 -1.9370966739e+02 +5.2045756576e+01 2.7574785501e+02 0.0000000000e+00 0.0000e+00 1.0000e+00
<mgrwt>
<rscale>  0 0.55612034E+03</rscale>
<asrwt>0</asrwt>
<pdfrwt beam="1">  1        2 0.41095064E-01 0.55612034E+03</pdfrwt>
<pdfrwt beam="2">  1       -2 0.44530872E-01 0.55612034E+03</pdfrwt>
<totfact> 0.72657123E+02</totfact>
</mgrwt>
<rwgt>
<wgt id='morphing_basis_vector_1'> +2.1260422e-04 </wgt>
<wgt id='morphing_basis_vector_2'> +1.2644529e-04 </wgt>
<wgt id='morphing_basis_vector_3'> +1.5945313e-04 </wgt>
<wgt id='morphing_basis_vector_4'> +6.1317803e-05 </wgt>
<wgt id='morphing_basis_vector_5'> +9.3128970e-05 </wgt>
</rwgt>
</event>
<event>
 4      1 +1.0153100e-05 6.17070900e+02 7.81860800e-03 9.17034000e-02
        2 -1    0    0  501    0 +0.0000000000e+00 +0.0000000000e+00 +4.6776064201e+02 4.6776064201e+02 0.0000000000e+00 0.0000e+00 -1.0000e+00
       -2 -1    0    0    0  501 -0.0000000000e+00 -0.0000000000e+00 -2.0351031679e+02 2.0351031679e+02 0.0000000000e+00 0.0000e+00 1.0000e+00
      -13  1    1    2    0    0 +1.9747534726e+02 -1.5803981963e+02 -6.0089426113e+01 2.5996891448e+02 0.0000000000e+00 0.0000e+00 1.0000e+00
       13  1    1    2    0    0 -1.9747534726e+02 +1.5803981963e+02 +3.2433975134e+02 4.1130204432e+02 0.0000000000e+00 0.0000e+00 -1.0000e+00
<mgrwt>
<rscale>  0 0.61707088E+03</rscale>
<asrwt>0</asrwt>
<pdfrwt beam="1">  1        2 0.71963175E-01 0.61707088E+03</pdfrwt>
<pdfrwt beam="2">  1       -2 0.31309280E-01 0.61707088E+03</pdfrwt>
<totfact> 0.73701060E+02</totfact>
</mgrwt>
<rwgt>
<wgt id='morphing_basis_vector_1'> +2.9393979e-04 </wgt>
<wgt id='morphing_basis_vector_2'> +1.6994541e-04 </wgt>
<wgt id='morphing_basis_vector_3'> +2.3580395e-04 </wgt>
<wgt id='morphing_basis_vector_4'> +1.0464941e-04 </wgt>
<wgt id='morphing_basis_vector_5'> +1.5988415e-04 </wgt>
</rwgt>
</event>
<event>
 4      1 +1.0153100e-05 5.30286200e+02 7.81860800e-03 9.33443700e-02
        2 -1    0    0  501    0 +0.0000000000e+00 +0.0000000000e+00 +2.3986500728e+02 2.3986500728e+02 0.0000000000e+00 0.0000e+00 1.0000e+00
       -2 -1    0    0    0  501 -0.0000000000e+00 -0.0000000000e+00 -2.9308511429e+02 2.9308511429e+02 0.0000000000e+00 0.0000e+00 -1.0000e+00
      -13  1    1    2    0    0 -1.2432979499e+02 -4.4267508956e+01 -2.5772909746e+02 2.8955448183e+02 0.0000000000e+00 0.0000e+00 -1.0000e+00
       13  1    1    2    0    0 +1.2432979499e+02 +4.4267508956e+01 +2.0450899044e+02 2.4339563974e+02 0.0000000000e+00 0.0000e+00 1.0000e+00
<mgrwt>
<rscale>  0 0.53028620E+03</rscale>
<asrwt>0</asrwt>
<pdfrwt beam="1">  1        2 0.36902309E-01 0.53028620E+03</pdfrwt>
<pdfrwt beam="2">  1       -2 0.45090018E-01 0.53028620E+03</pdfrwt>
<totfact> 0.80167360E+02</totfact>
</mgrwt>
<rwgt>
<wgt id='morphing_basis_vector_1'> +1.8071883e-04 </wgt>
<wgt id='morphing_basis_vector_2'> +1.0024078e-04 </wgt>
<wgt id='morphing_basis_vector_3'> +1.3437900e-04 </wgt>
<wgt id='morphing_basis_vector_4'> +4.9668411e-05 </wgt>
<wgt id='morphing_basis_vector_5'> +7.1753164e-05 </wgt>
</rwgt>
</event>
<event>
 4      1 +1.0153100e-05 5.80366700e+02 7.81860800e-03 9.23601400e-02
        2 -1    0    0  501    0 +0.0000000000e+00 +0.0000000000e+00 +5.2543693756e+02 5.2543693756e+02 0.0000000000e+00 0.0000e+00 -1.0000e+00
       -2 -1    0    0    0  501 -0.0000000000e+00 -0.0000000000e+00 -1.6025974032e+02 1.6025974032e+02 0.0000000000e+00 0.0000e+00 1.0000e+00
      -13  1    1    2    0    0 -2.0858019581e+02 -1.8454773526e+02 +8.6293128840e+01 2.9156486201e+02 0.0000000000e+00 0.0000e+00 1.0000e+00
       13  1    1    2    0    0 +2.0858019581e+02 +1.8454773526e+02 +2.7888406840e+02 3.9413181587e+02 0.0000000000e+00 0.0000e+00 -1.0000e+00
<mgrwt>
<rscale>  0 0.58036674E+03</rscale>
<asrwt>0</asrwt>
<pdfrwt beam="1">  1        2 0.80836451E-01 0.58036674E+03</pdfrwt>
<pdfrwt beam="2">  1       -2 0.24655345E-01 0.58036674E+03</pdfrwt>
<totfact> 0.97822849E+02</totfact>
</mgrwt>
<rwgt>
<wgt id='morphing_basis_vector_1'> +2.4289973e-04 </wgt>
<wgt id='morphing_basis_vector_2'> +1.4395890e-04 </wgt>
<wgt id='morphing_basis_vector_3'> +1.8714647e-04 </wgt>
<wgt id='morphing_basis_vector_4'> +7.6135772e-05 </wgt>
<wgt id='morphing_basis_vector_5'> +1.1672163e-04 </wgt>
</rwgt>
</event>
<event>
 4      1 +1.0153100e-05 6.03932900e+02 7.81860800e-03 9.19328000e-02
        2 -1    0    0  501    0 +0.0000000000e+00 +0.0000000000e+00 +1.2027461921e+03 1.2027461921e+03 0.0000000000e+00 0.0000e+00 1.0000e+00
       -2 -1    0    0    0  501 -0.0000000000e+00 -0.0000000000e+00 -7.5812943904e+01 7.5812943904e+01 0.0000000000e+00 0.0000e+00 -1.0000e+00
      -13  1    1    2    0    0 -7.2424297099e+01 +2.1835090301e+02 +1.4935997683e+02 2.7428233325e+02 0.0000000000e+00 0.0000e+00 -1.0000e+00
       13  1    1    2    0    0 +7.2424297099e+01 -2.1835090301e+02 +9.7757327137e+02 1.0042768028e+03 0.0000000000e+00 0.0000e+00 1.0000e+00
<mgrwt>
<rscale>  0 0.60393288E+03</rscale>
<asrwt>0</asrwt>
<pdfrwt beam="1">  1        2 0.18503786E+00 0.60393288E+03</pdfrwt>
<pdfrwt beam="2">  1       -2 0.11663531E-01 0.60393288E+03</pdfrwt>
<totfact> 0.11325007E+03</totfact>
</mgrwt>
<rwgt>
<wgt id='morphing_basis_vector_1'> +2.7365167e-04 </wgt>
<wgt id='morphing_basis_vector_2'> +1.5679370e-04 </wgt>
<wgt id='morphing_basis_vector_3'> +2.1739731e-04 </wgt>
<wgt id='morphing_basis_vector_4'> +9.4512896e-05 </wgt>
<wgt id='morphing_basis_vector_5'> +1.4333418e-04 </wgt>
</rwgt>
</event>
<event>
 4      1 +1.0153100e-05 6.01847000e+02 7.81860800e-03 9.19697800e-02
        2 -1    0    0  501    0 +0.0000000000e+00 +0.0000000000e+00 +2.0836223935e+02 2.0836223935e+02 0.0000000000e+00 0.0000e+00 -1.0000e+00
       -2 -1    0    0    0  501 -0.0000000000e+00 -0.0000000000e+00 -4.3460353954e+02 4.3460353954e+02 0.0000000000e+00 0.0000e+00 1.0000e+00
      -13  1    1    2    0    0 -1.6956683653e+02 -5.0114985412e+01 -3.7325304479e+02 4.1301605206e+02 0.0000000000e+00 0.0000e+00 1.0000e+00
       13  1    1    2    0    0 +1.6956683653e+02 +5.0114985412e+01 +1.4701174461e+02 2.2994972683e+02 0.0000000000e+00 0.0000e+00 -1.0000e+00
<mgrwt>
<rscale>  0 0.60184705E+03</rscale>
<asrwt>0</asrwt>
<pdfrwt beam="1">  1        2 0.32055729E-01 0.60184705E+03</pdfrwt>
<pdfrwt beam="2">  1       -2 0.66862083E-01 0.60184705E+03</pdfrwt>
<totfact> 0.42840091E+02</totfact>
</mgrwt>
<rwgt>
<wgt id='morphing_basis_vector_1'> +2.7023379e-04 </wgt>
<wgt id='morphing_basis_vector_2'> +1.5384253e-04 </wgt>
<wgt id='morphing_basis_vector_3'> +2.1457707e-04 </wgt>
<wgt id='morphing_basis_vector_4'> +9.3206118e-05 </wgt>
<wgt id='morphing_basis_vector_5'> +1.4081982e-04 </wgt>
</rwgt>
</event>
<event>
 4      1 +1.0153100e-05 6.13405800e+02 7.81860800e-03 9.17667900e-02
        2 -1    0    0  501    0 +0.0000000000e+00 +0.0000000000e+00 +1.7295547434e+03 1.7295547434e+03 0.0000000000e+00 0.0000e+00 -1.0000e+00
       -2 -1    0    0    0  501 -0.0000000000e+00 -0.0000000000e+00 -5.4387802268e+01 5.4387802268e+01 0.0000000000e+00 0.0000e+00 1.0000e+00
      -13  1    1    2    0    0 -2.3721640533e+02 -1.7048286488e+02 +1.1093251629e+03 1.1471435600e+03 0.0000000000e+00 0.0000e+00 1.0000e+00
       13  1    1    2    0    0 +2.3721640533e+02 +1.7048286488e+02 +5.6584177826e+02 6.3679898571e+02 0.0000000000e+00 0.0000e+00 -1.0000e+00
<mgrwt>
<rscale>  0 0.61340584E+03</rscale>
<asrwt>0</asrwt>
<pdfrwt beam="1">  1        2 0.26608530E+00 0.61340584E+03</pdfrwt>
<pdfrwt beam="2">  1       -2 0.83673555E-02 0.61340584E+03</pdfrwt>
<totfact> 0.97389112E+02</totfact>
</mgrwt>
<rwgt>
<wgt id='morphing_basis_vector_1'> +3.1536187e-04 </wgt>
<wgt id='morphing_basis_vector_2'> +2.5047249e-04 </wgt>
<wgt id='morphing_basis_vector_3'> +2.3242535e-04 </wgt>
<wgt id='morphing_basis_vector_4'> +7.9636627e-05 </wgt>
<wgt id='morphing_basis_vector_5'> +1.5515040e-04 </wgt>
</rwgt>
</event>
<event>
 4      1 +1.0153100e-05 5.28606500e+02 7.81860800e-03 9.33793700e-02
        2 -1    0    0  501    0 +0.0000000000e+00 +0.0000000000e+00 +1.8927611344e+03 1.8927611344e+03 0.0000000000e+00 0.0000e+00 1.0000e+00
       -2 -1    0    0    0  501 -0.0000000000e+00 -0.0000000000e+00 -3.6907044924e+01 3.6907044924e+01 0.0000000000e+00 0.0000e+00 -1.0000e+00
      -13  1    1    2    0    0 +2.3690442605e+02 +6.9114796449e+01 +5.8246618512e+02 6.3258787451e+02 0.0000000000e+00 0.0000e+00 -1.0000e+00
       13  1    1    2    0    0 -2.3690442605e+02 -6.9114796449e+01 +1.2733879044e+03 1.2970803048e+03 0.0000000000e+00 0.0000e+00 1.0000e+00
<mgrwt>
<rscale>  0 0.52860655E+03</rscale>
<asrwt>0</asrwt>
<pdfrwt beam="1">  1        2 0.29119394E+00 0.52860655E+03</pdfrwt>
<pdfrwt beam="2">  1       -2 0.56780084E-02 0.52860655E+03</pdfrwt>
<totfact> 0.14468312E+03</totfact>
</mgrwt>
<rwgt>
<wgt id='morphing_basis_vector_1'> +1.8036030e-04 </wgt>
<wgt id='morphing_basis_vector_2'> +1.0356697e-04 </wgt>
<wgt id='morphing_basis_vector_3'> +1.3245148e-04 </wgt>
<wgt id='morphing_basis_vector_4'> +4.8149391e-05 </wgt>
<wgt id='morphing_basis_vector_5'> +7.0538083e-05 </wgt>
</rwgt>
</event>
<event>
 4      1 +1.0153100e-05 5.56449700e+02 7.81860800e-03 9.28164200e-02
        2 -1    0    0  501    0 +0.0000000000e+00 +0.0000000000e+00 +1.3296627984e+03 1.3296627984e+03 0.0000000000e+00 0.0000e+00 -1.0000e+00
       -2 -1    0    0    0  501 -0.0000000000e+00 -0.0000000000e+00 -5.8217072771e+01 5.8217072771e+01 0.0000000000e+00 0.0000e+00 1.0000e+00
      -13  1    1    2    0    0 +1.7578385144e+02 -9.7794656124e+01 +1.5631445252e+02 2.5475079050e+02 0.0000000000e+00 0.0000e+00 1.0000e+00
       13  1    1    2    0    0 -1.7578385144e+02 +9.7794656124e+01 +1.1151312732e+03 1.1331290807e+03 0.0000000000e+00 0.0000e+00 -1.0000e+00
<mgrwt>
<rscale>  0 0.55644973E+03</rscale>
<asrwt>0</asrwt>
<pdfrwt beam="1">  1        2 0.20456349E+00 0.55644973E+03</pdfrwt>
<pdfrwt beam="2">  1       -2 0.89564737E-02 0.55644973E+03</pdfrwt>
<totfact> 0.14548250E+03</totfact>
</mgrwt>
<rwgt>
<wgt id='morphing_basis_vector_1'> +2.1029099e-04 </wgt>
<wgt id='morphing_basis_vector_2'> +1.1827658e-04 </wgt>
<wgt id='morphing_basis_vector_3'> +1.6022621e-04 </wgt>
<wgt id='morphing_basis_vector_4'> +6.3181751e-05 </wgt>
<wgt id='morphing_basis_vector_5'> +9.3370241e-05 </wgt>
</rwgt>
</event>
<event>
 4      1 +1.0153100e-05 5.62486900e+02 7.81860800e-03 9.26989800e-02
        2 -1    0    0  501    0 +0.0000000000e+00 +0.0000000000e+00 +7.8111001987e+02 7.8111001987e+02 0.0000000000e+00 0.0000e+00 -1.0000e+00
       -2 -1    0    0    0  501 -0.0000000000e+00 -0.0000000000e+00 -1.0126341812e+02 1.0126341812e+02 0.0000000000e+00 0.0000e+00 1.0000e+00
      -13  1    1    2    0    0 +3.8918846187e+01 -2.3543922743e+02 +1.0644730671e+02 2.6129932167e+02 0.0000000000e+00 0.0000e+00 1.0000e+00
       13  1    1    2    0    0 -3.8918846187e+01 +2.3543922743e+02 +5.7339929504e+02 6.2107411631e+02 0.0000000000e+00 0.0000e+00 -1.0000e+00
<mgrwt>
<rscale>  0 0.56248687E+03</rscale>
<asrwt>0</asrwt>
<pdfrwt beam="1">  1        2 0.12017077E+00 0.56248687E+03</pdfrwt>
<pdfrwt beam="2">  1       -2 0.15578988E-01 0.56248687E+03</pdfrwt>
<totfact> 0.13055003E+03</totfact>
</mgrwt>
<rwgt>
<wgt id='morphing_basis_vector_1'> +2.1808669e-04 </wgt>
<wgt id='morphing_basis_vector_2'> +1.2416524e-04 </wgt>
<wgt id='morphing_basis_vector_3'> +1.6667615e-04 </wgt>
<wgt id='morphing_basis_vector_4'> +6.6361915e-05 </wgt>
<wgt id='morphing_basis_vector_5'> +9.8931176e-05 </wgt>
</rwgt>
</event>
<event>
 4      1 +1.0153100e-05 5.55215700e+02 7.81860800e-03 9.28406200e-02
        2 -1    0    0  501    0 +0.0000000000e+00 +0.0000000000e+00 +1.0512126207e+03 1.0512126207e+03 0.0000000000e+00 0.0000e+00 1.0000e+00
       -2 -1    0    0    0  501 -0.0000000000e+00 -0.0000000000e+00 -7.3311631378e+01 7.3311631378e+01 0.0000000000e+00 0.0000e+00 -1.0000e+00
      -13  1    1    2    0    0 -6.3157238976e+01 -2.0847495162e+02 +1.4039942570e+02 2.5915756023e+02 0.0000000000e+00 0.0000e+00 -1.0000e+00
       13  1    1    2    0    0 +6.3157238976e+01 +2.0847495162e+02 +8.3750156362e+02 8.6536669184e+02 0.0000000000e+00 0.0000e+00 1.0000e+00
<mgrwt>
<rscale>  0 0.55521568E+03</rscale>
<asrwt>0</asrwt>
<pdfrwt beam="1">  1        2 0.16172501E+00 0.55521568E+03</pdfrwt>
<pdfrwt beam="2">  1       -2 0.11278713E-01 0.55521568E+03</pdfrwt>
<totfact> 0.14666618E+03</totfact>
</mgrwt>
<rwgt>
<wgt id='morphing_basis_vector_1'> +2.0898833e-04 </wgt>
<wgt id='morphing_basis_vector_2'> +1.1791484e-04 </wgt>
<wgt id='morphing_basis_vector_3'> +1.5889374e-04 </wgt>
<wgt id='morphing_basis_vector_4'> +6.2382006e-05 </wgt>
<wgt id='morphing_basis_vector_5'> +9.2265750e-05 </wgt>
</rwgt>
</event>
<event>
 4      1 +1.0153100e-05 5.39081200e+02 7.81860800e-03 9.31633400e-02
        2 -1    0    0  501    0 +0.0000000000e+00 +0.0000000000e+00 +2.6576252491e+02 2.6576252491e+02 0.0000000000e+00 0.0000e+00 -1.0000e+00
       -2 -1    0    0    0  501 -0.0000000000e+00 -0.0000000000e+00 -2.7337243410e+02 2.7337243410e+02 0.0000000000e+00 0.0000e+00 1.0000e+00
      -13  1    1    2    0    0 +1.2559219851e+02 +2.3721613706e+02 +2.0839990725e+01 2.6921961522e+02 0.0000000000e+00 0.0000e+00 1.0000e+00
       13  1    1    2    0    0 -1.2559219851e+02 -2.3721613706e+02 -2.8449899911e+01 2.6991534379e+02 0.0000000000e+00 0.0000e+00 -1.0000e+00
<mgrwt>
<rscale>  0 0.53908125E+03</rscale>
<asrwt>0</asrwt>
<pdfrwt beam="1">  1        2 0.40886542E-01 0.53908125E+03</pdfrwt>
<pdfrwt beam="2">  1       -2 0.42057298E-01 0.53908125E+03</pdfrwt>
<totfact> 0.81389774E+02</totfact>
</mgrwt>
<rwgt>
<wgt id='morphing_basis_vector_1'> +1.9896901e-04 </wgt>
<wgt id='morphing_basis_vector_2'> +1.3310256e-04 </wgt>
<wgt id='morphing_basis_vector_3'> +1.4064347e-04 </wgt>
<wgt id='morphing_basis_vector_4'> +4.9099170e-05 </wgt>
<wgt id='morphing_basis_vector_5'> +7.8820945e-05 </wgt>
</rwgt>
</event>
<event>
 4      1 +1.0153100e-05 5.48475200e+02 7.81860800e-03 9.29740000e-02
        2 -1    0    0  501    0 +0.0000000000e+00 +0.0000000000e+00 +9.0883627838e+02 9.0883627838e+02 0.0000000000e+00 0.0000e+00 -1.0000e+00
       -2 -1    0    0    0  501 -0.0000000000e+00 -0.0000000000e+00 -8.2750057437e+01 8.2750057437e+01 0.0000000000e+00 0.0000e+00 1.0000e+00
      -13  1    1    2    0    0 -2.0903182592e+02 +9.5004560154e+01 +6.8414370406e+02 7.2164588165e+02 0.0000000000e+00 0.0000e+00 1.0000e+00
       13  1    1    2    0    0 +2.0903182592e+02 -9.5004560154e+01 +1.4194251688e+02 2.6994045416e+02 0.0000000000e+00 0.0000e+00 -1.0000e+00
<mgrwt>
<rscale>  0 0.54847517E+03</rscale>
<asrwt>0</asrwt>
<pdfrwt beam="1">  1        2 0.13982096E+00 0.54847517E+03</pdfrwt>
<pdfrwt beam="2">  1       -2 0.12730779E-01 0.54847517E+03</pdfrwt>
<totfact> 0.14831039E+03</totfact>
</mgrwt>
<rwgt>
<wgt id='morphing_basis_vector_1'> +2.4006931e-04 </wgt>
<wgt id='morphing_basis_vector_2'> +2.3420865e-04 </wgt>
<wgt id='morphing_basis_vector_3'> +1.4452973e-04 </wgt>
<wgt id='morphing_basis_vector_4'> +3.5627061e-05 </wgt>
<wgt id='morphing_basis_vector_5'> +8.7275976e-05 </wgt>
</rwgt>
</event>
<event>
 4      1 +1.0153100e-05 5.41811500e+02 7.81860800e-03 9.31078900e-02
        2 -1    0    0  501    0 +0.0000000000e+00 +0.0000000000e+00 +3.9920487410e+02 3.9920487410e+02 0.0000000000e+00 0.0000e+00 1.0000e+00
       -2 -1    0    0    0  501 -0.0000000000e+00 -0.0000000000e+00 -1.8384025834e+02 1.8384025834e+02 0.0000000000e+00 0.0000e+00 -1.0000e+00
      -13  1    1    2    0    0 +7.8906735629e+01 +2.4498909871e+02 +1.6727733837e+01 2.5792585852e+02 0.0000000000e+00 0.0000e+00 -1.0000e+00
       13  1    1    2    0    0 -7.8906735629e+01 -2.4498909871e+02 +1.9863688192e+02 3.2511927392e+02 0.0000000000e+00 0.0000e+00 1.0000e+00
<mgrwt>
<rscale>  0 0.54181151E+03</rscale>
<asrwt>0</asrwt>
<pdfrwt beam="1">  1        2 0.61416134E-01 0.54181151E+03</pdfrwt>
<pdfrwt beam="2">  1       -2 0.28283117E-01 0.54181151E+03</pdfrwt>
<totfact> 0.10534905E+03</totfact>
</mgrwt>
<rwgt>
<wgt id='morphing_basis_vector_1'> +1.9507567e-04 </wgt>
<wgt id='morphing_basis_vector_2'> +1.1341247e-04 </wgt>
<wgt id='morphing_basis_vector_3'> +1.4491654e-04 </wgt>
<wgt id='morphing_basis_vector_4'> +5.4320611e-05 </wgt>
<wgt id='morphing_basis_vector_5'> +8.0844387e-05 </wgt>
</rwgt>
</event>
<event>
 4      1 +1.0153100e-05 6.02289500e+02 7.81860800e-03 9.19619300e-02
        2 -1    0    0  501    0 +0.0000000000e+00 +0.0000000000e+00 +3.2914226406e+02 3.2914226406e+02 0.0000000000e+00 0.0000e+00 -1.0000e+00
       -2 -1    0    0    0  501 -0.0000000000e+00 -0.0000000000e+00 -2.7552875333e+02 2.7552875333e+02 0.0000000000e+00 0.0000e+00 1.0000e+00
      -13  1    1    2    0    0 -1.2671146942e+02 +2.5317747663e+02 -7.6232037990e+01 2.9319951360e+02 0.0000000000e+00 0.0000e+00 1.0000e+00
       13  1    1    2    0    0 +1.2671146942e+02 -2.5317747663e+02 +1.2984554871e+02 3.1147150380e+02 0.0000000000e+00 0.0000e+00 -1.0000e+00
<mgrwt>
<rscale>  0 0.60228949E+03</rscale>
<asrwt>0</asrwt>
<pdfrwt beam="1">  1        2 0.50637271E-01 0.60228949E+03</pdfrwt>
<pdfrwt beam="2">  1       -2 0.42389039E-01 0.60228949E+03</pdfrwt>
<totfact> 0.63051373E+02</totfact>
</mgrwt>
<rwgt>
<wgt id='morphing_basis_vector_1'> +2.7316951e-04 </wgt>
<wgt id='morphing_basis_vector_2'> +1.6132819e-04 </wgt>
<wgt id='morphing_basis_vector_3'> +2.1523434e-04 </wgt>
<wgt id='morphing_basis_vector_4'> +9.1760755e-05 </wgt>
<wgt id='morphing_basis_vector_5'> +1.4135989e-04 </wgt>
</rwgt>
</event>
<event>
 4      1 +1.0153100e-05 5.80311700e+02 7.81860800e-03 9.23611600e-02
        2 -1    0    0  501    0 +0.0000000000e+00 +0.0000000000e+00 +4.5569154219e+02 4.5569154219e+02 0.0000000000e+00 0.0000e+00 1.0000e+00
       -2 -1    0    0    0  501 -0.0000000000e+00 -0.0000000000e+00 -1.8475309169e+02 1.8475309169e+02 0.0000000000e+00 0.0000e+00 -1.0000e+00
      -13  1    1    2    0    0 +2.5761269566e+02 -5.6348750516e+01 +1.8856758744e+00 2.6371014092e+02 0.0000000000e+00 0.0000e+00 -1.0000e+00
       13  1    1    2    0    0 -2.5761269566e+02 +5.6348750516e+01 +2.6905277463e+02 3.7673449296e+02 0.0000000000e+00 0.0000e+00 1.0000e+00
<mgrwt>
<rscale>  0 0.58031171E+03</rscale>
<asrwt>0</asrwt>
<pdfrwt beam="1">  1        2 0.70106391E-01 0.58031171E+03</pdfrwt>
<pdfrwt beam="2">  1       -2 0.28423553E-01 0.58031171E+03</pdfrwt>
<totfact> 0.90000730E+02</totfact>
</mgrwt>
<rwgt>
<wgt id='morphing_basis_vector_1'> +2.4157788e-04 </wgt>
<wgt id='morphing_basis_vector_2'> +1.4004004e-04 </wgt>
<wgt id='morphing_basis_vector_3'> +1.8715093e-04 </wgt>
<wgt id='morphing_basis_vector_4'> +7.6980269e-05 </wgt>
<wgt id='morphing_basis_vector_5'> +1.1664904e-04 </wgt>
</rwgt>
</event>
<event>
 4      1 +1.0153100e-05 5.99394500e+02 7.81860800e-03 9.20134800e-02
        2 -1    0    0  501    0 +0.0000000000e+00 +0.0000000000e+00 +1.8912163174e+02 1.8912163174e+02 0.0000000000e+00 0.0000e+00 -1.0000e+00
       -2 -1    0    0    0  501 -0.0000000000e+00 -0.0000000000e+00 -4.7492421930e+02 4.7492421930e+02 0.0000000000e+00 0.0000e+00 1.0000e+00
      -13  1    1    2    0    0 +2.6793812877e+02 +1.1112216400e+02 -2.2639218657e+02 3.6795706042e+02 0.0000000000e+00 0.0000e+00 1.0000e+00
       13  1    1    2    0    0 -2.6793812877e+02 -1.1112216400e+02 -5.9410400993e+01 2.9608879061e+02 0.0000000000e+00 0.0000e+00 -1.0000e+00
<mgrwt>
<rscale>  0 0.59939451E+03</rscale>
<asrwt>0</asrwt>
<pdfrwt beam="1">  1        2 0.29095636E-01 0.59939451E+03</pdfrwt>
<pdfrwt beam="2">  1       -2 0.73065265E-01 0.59939451E+03</pdfrwt>
<totfact> 0.39642514E+02</totfact>
</mgrwt>
<rwgt>
<wgt id='morphing_basis_vector_1'> +2.7001003e-04 </wgt>
<wgt id='morphing_basis_vector_2'> +1.6205266e-04 </wgt>
<wgt id='morphing_basis_vector_3'> +2.1136907e-04 </wgt>
<wgt id='morphing_basis_vector_4'> +8.8799135e-05 </wgt>
<wgt id='morphing_basis_vector_5'> +1.3792164e-04 </wgt>
</rwgt>
</event>
<event>
 4      1 +1.0153100e-05 5.59716000e+02 7.81860800e-03 9.27526800e-02
        2 -1    0    0  501    0 +0.0000000000e+00 +0.0000000000e+00 +1.4089229790e+02 1.4089229790e+02 0.0000000000e+00 0.0000e+00 -1.0000e+00
       -2 -1    0    0    0  501 -0.0000000000e+00 -0.0000000000e+00 -5.5588914836e+02 5.5588914836e+02 0.0000000000e+00 0.0000e+00 1.0000e+00
      -13  1    1    2    0    0 +1.0942702901e+01 -2.5149864825e+02 -5.5290368771e+01 2.5773695446e+02 0.0000000000e+00 0.0000e+00 1.0000e+00
       13  1    1    2    0    0 -1.0942702901e+01 +2.5149864825e+02 -3.5970648169e+02 4.3904449180e+02 0.0000000000e+00 0.0000e+00 -1.0000e+00
<mgrwt>
<rscale>  0 0.55971600E+03</rscale>
<asrwt>0</asrwt>
<pdfrwt beam="1">  1        2 0.21675738E-01 0.55971600E+03</pdfrwt>
<pdfrwt beam="2">  1       -2 0.85521409E-01 0.55971600E+03</pdfrwt>
<totfact> 0.39402046E+02</totfact>
</mgrwt>
<rwgt>
<wgt id='morphing_basis_vector_1'> +2.4491548e-04 </wgt>
<wgt id='morphing_basis_vector_2'> +2.1594201e-04 </wgt>
<wgt id='morphing_basis_vector_3'> +1.5938478e-04 </wgt>
<wgt id='morphing_basis_vector_4'> +4.5629054e-05 </wgt>
<wgt id='morphing_basis_vector_5'> +9.6935163e-05 </wgt>
</rwgt>
</event>
<event>
 4      1 +1.0153100e-05 5.50679000e+02 7.81860800e-03 9.29301700e-02
        2 -1    0    0  501    0 +0.0000000000e+00 +0.0000000000e+00 +6.2810470400e+02 6.2810470400e+02 0.0000000000e+00 0.0000e+00 -1.0000e+00
       -2 -1    0    0    0  501 -0.0000000000e+00 -0.0000000000e+00 -1.2069936205e+02 1.2069936205e+02 0.0000000000e+00 0.0000e+00 1.0000e+00
      -13  1    1    2    0    0 +9.1196320946e+01 +1.7403069405e+02 -8.5923833614e+00 1.9666540234e+02 0.0000000000e+00 0.0000e+00 1.0000e+00
       13  1    1    2    0    0 -9.1196320946e+01 -1.7403069405e+02 +5.1599772531e+02 5.5213866370e+02 0.0000000000e+00 0.0000e+00 -1.0000e+00
<mgrwt>
<rscale>  0 0.55067899E+03</rscale>
<asrwt>0</asrwt>
<pdfrwt beam="1">  1        2 0.96631491E-01 0.55067899E+03</pdfrwt>
<pdfrwt beam="2">  1       -2 0.18569133E-01 0.55067899E+03</pdfrwt>
<totfact> 0.12778914E+03</totfact>
</mgrwt>
<rwgt>
<wgt id='morphing_basis_vector_1'> +2.0347753e-04 </wgt>
<wgt id='morphing_basis_vector_2'> +1.1416679e-04 </wgt>
<wgt id='morphing_basis_vector_3'> +1.5419651e-04 </wgt>
<wgt id='morphing_basis_vector_4'> +5.9979492e-05 </wgt>
<wgt id='morphing_basis_vector_5'> +8.8266292e-05 </wgt>
</rwgt>
</event>
<event>
 4      1 +1.0153100e-05 5.58001200e+02 7.81860800e-03 9.27860900e-02
        2 -1    0    0  501    0 +0.0000000000e+00 +0.0000000000e+00 +3.9486800416e+02 3.9486800416e+02 0.0000000000e+00 0.0000e+00 1.0000e+00
       -2 -1    0    0    0  501 -0.0000000000e+00 -0.0000000000e+00 -1.9713251115e+02 1.9713251115e+02 0.0000000000e+00 0.0000e+00 -1.0000e+00
      -13  1    1    2    0    0 -6.8428080039e+01 +4.5201577285e+01 -1.8405629013e+02 2.0150013068e+02 0.0000000000e+00 0.0000e+00 -1.0000e+00
       13  1    1    2    0    0 +6.8428080039e+01 -4.5201577285e+01 +3.8179178314e+02 3.9050038463e+02 0.0000000000e+00 0.0000e+00 1.0000e+00
<mgrwt>
<rscale>  0 0.55800115E+03</rscale>
<asrwt>0</asrwt>
<pdfrwt beam="1">  1        2 0.60748923E-01 0.55800115E+03</pdfrwt>
<pdfrwt beam="2">  1       -2 0.30328079E-01 0.55800115E+03</pdfrwt>
<totfact> 0.94391678E+02</totfact>
</mgrwt>
<rwgt>
<wgt id='morphing_basis_vector_1'> +2.1189096e-04 </wgt>
<wgt id='morphing_basis_vector_2'> +1.1858498e-04 </wgt>
<wgt id='morphing_basis_vector_3'> +1.6191850e-04 </wgt>
<wgt id='morphing_basis_vector_4'> +6.4228480e-05 </wgt>
<wgt id='morphing_basis_vector_5'> +9.4770909e-05 </wgt>
</rwgt>
</event>
<event>
 4      1 +1.0153100e-05 5.48536100e+02 7.81860800e-03 9.29727900e-02
        2 -1    0    0  501    0 +0.0000000000e+00 +0.0000000000e+00 +2.6793800942e+02 2.6793800942e+02 0.0000000000e+00 0.0000e+00 -1.0000e+00
       -2 -1    0    0    0  501 -0.0000000000e+00 -0.0000000000e+00 -2.8074767052e+02 2.8074767052e+02 0.0000000000e+00 0.0000e+00 1.0000e+00
      -13  1    1    2    0    0 -2.4576159207e+02 -9.4859989462e+01 -8.2752530390e+01 2.7612525966e+02 0.0000000000e+00 0.0000e+00 1.0000e+00
       13  1    1    2    0    0 +2.4576159207e+02 +9.4859989462e+01 +6.9942869292e+01 2.7256042028e+02 0.0000000000e+00 0.0000e+00 -1.0000e+00
<mgrwt>
<rscale>  0 0.54853613E+03</rscale>
<asrwt>0</asrwt>
<pdfrwt beam="1">  1        2 0.41221232E-01 0.54853613E+03</pdfrwt>
<pdfrwt beam="2">  1       -2 0.43191949E-01 0.54853613E+03</pdfrwt>
<totfact> 0.76710948E+02</totfact>
</mgrwt>
<rwgt>
<wgt id='morphing_basis_vector_1'> +2.0306538e-04 </wgt>
<wgt id='morphing_basis_vector_2'> +1.1910506e-04 </wgt>
<wgt id='morphing_basis_vector_3'> +1.5161319e-04 </wgt>
<wgt id='morphing_basis_vector_4'> +5.7595096e-05 </wgt>
<wgt id='morphing_basis_vector_5'> +8.6468714e-05 </wgt>
</rwgt>
</event>
<event>
 4      1 +1.0153100e-05 5.38714800e+02 7.81860800e-03 9.31708100e-02
        2 -1    0    0  501    0 +0.0000000000e+00 +0.0000000000e+00 +7.6430677965e+02 7.6430677965e+02 0.0000000000e+00 0.0000e+00 1.0000e+00
       -2 -1    0    0    0  501 -0.0000000000e+00 -0.0000000000e+00 -9.4927077355e+01 9.4927077355e+01 0.0000000000e+00 0.0000e+00 -1.0000e+00
      -13  1    1    2    0    0 -5.0179482737e+01 +2.6120503519e+02 +2.6688284720e+02 3.7679238982e+02 0.0000000000e+00 0.0000e+00 -1.0000e+00
       13  1    1    2    0    0 +5.0179482737e+01 -2.6120503519e+02 +4.0249685509e+02 4.8244146718e+02 0.0000000000e+00 0.0000e+00 1.0000e+00
<mgrwt>
<rscale>  0 0.53871480E+03</rscale>
<asrwt>0</asrwt>
<pdfrwt beam="1">  1        2 0.11758565E+00 0.53871480E+03</pdfrwt>
<pdfrwt beam="2">  1       -2 0.14604166E-01 0.53871480E+03</pdfrwt>
<totfact> 0.14888330E+03</totfact>
</mgrwt>
<rwgt>
<wgt id='morphing_basis_vector_1'> +1.9325994e-04 </wgt>
<wgt id='morphing_basis_vector_2'> +1.1638174e-04 </wgt>
<wgt id='morphing_basis_vector_3'> +1.4150790e-04 </wgt>
<wgt id='morphing_basis_vector_4'> +5.1870977e-05 </wgt>
<wgt id='morphing_basis_vector_5'> +7.8387361e-05 </wgt>
</rwgt>
</event>
<event>
 4      1 +1.0153100e-05 5.86255500e+02 7.81860800e-03 9.22513700e-02
        2 -1    0    0  501    0 +0.0000000000e+00 +0.0000000000e+00 +1.9702842852e+03 1.9702842852e+03 0.0000000000e+00 0.0000e+00 -1.0000e+00
       -2 -1    0    0    0  501 -0.0000000000e+00 -0.0000000000e+00 -4.3609883396e+01 4.3609883396e+01 0.0000000000e+00 0.0000e+00 1.0000e+00
      -13  1    1    2    0    0 -1.9623883935e+02 -1.9034036698e+02 +6.0003962297e+02 6.5938356554e+02 0.0000000000e+00 0.0000e+00 1.0000e+00
       13  1    1    2    0    0 +1.9623883935e+02 +1.9034036698e+02 +1.3266347788e+03 1.3545106030e+03 0.0000000000e+00 0.0000e+00 -1.0000e+00
<mgrwt>
<rscale>  0 0.58625547E+03</rscale>
<asrwt>0</asrwt>
<pdfrwt beam="1">  1        2 0.30312059E+00 0.58625547E+03</pdfrwt>
<pdfrwt beam="2">  1       -2 0.67092144E-02 0.58625547E+03</pdfrwt>
<totfact> 0.10137389E+03</totfact>
</mgrwt>
<rwgt>
<wgt id='morphing_basis_vector_1'> +2.5009491e-04 </wgt>
<wgt id='morphing_basis_vector_2'> +1.4643312e-04 </wgt>
<wgt id='morphing_basis_vector_3'> +1.9442021e-04 </wgt>
<wgt id='morphing_basis_vector_4'> +8.0594003e-05 </wgt>
<wgt id='morphing_basis_vector_5'> +1.2301312e-04 </wgt>
</rwgt>
</event>
<event>
 4      1 +1.0153100e-05 5.98979400e+02 7.81860800e-03 9.20208900e-02
        2 -1    0    0  501    0 +0.0000000000e+00 +0.0000000000e+00 +7.4046711825e+02 7.4046711825e+02 0.0000000000e+00 0.0000e+00 1.0000e+00
       -2 -1    0    0    0  501 -0.0000000000e+00 -0.0000000000e+00 -1.2113174361e+02 1.2113174361e+02 0.0000000000e+00 0.0000e+00 -1.0000e+00
      -13  1    1    2    0    0 -1.6626190717e+02 -2.4896143007e+02 +2.9769677566e+02 4.2219448798e+02 0.0000000000e+00 0.0000e+00 -1.0000e+00
       13  1    1    2    0    0 +1.6626190717e+02 +2.4896143007e+02 +3.2163859898e+02 4.3940437389e+02 0.0000000000e+00 0.0000e+00 1.0000e+00
<mgrwt>
<rscale>  0 0.59897938E+03</rscale>
<asrwt>0</asrwt>
<pdfrwt beam="1">  1        2 0.11391802E+00 0.59897938E+03</pdfrwt>
<pdfrwt beam="2">  1       -2 0.18635653E-01 0.59897938E+03</pdfrwt>
<totfact> 0.10412595E+03</totfact>
</mgrwt>
<rwgt>
<wgt id='morphing_basis_vector_1'> +2.7413569e-04 </wgt>
<wgt id='morphing_basis_vector_2'> +1.7634362e-04 </wgt>
<wgt id='morphing_basis_vector_3'> +2.1088834e-04 </wgt>
<wgt id='morphing_basis_vector_4'> +8.4869933e-05 </wgt>
<wgt id='morphing_basis_vector_5'> +1.3745800e-04 </wgt>
</rwgt>
</event>
<event>
 4      1 +1.0153100e-05 5.24710400e+02 7.81860800e-03 9.34611000e-02
        2 -1    0    0  501    0 +0.0000000000e+00 +0.0000000000e+00 +9.5691554365e+02 9.5691554365e+02 0.0000000000e+00 0.0000e+00 -1.0000e+00
       -2 -1    0    0    0  501 -0.0000000000e+00 -0.0000000000e+00 -7.1929273038e+01 7.1929273038e+01 0.0000000000e+00 0.0000e+00 1.0000e+00
      -13  1    1    2    0    0 +2.1471141140e+02 +1.1333451577e+02 +2.4754979708e+02 3.4673708294e+02 0.0000000000e+00 0.0000e+00 1.0000e+00
       13  1    1    2    0    0 -2.1471141140e+02 -1.1333451577e+02 +6.3743647353e+02 6.8210773375e+02 0.0000000000e+00 0.0000e+00 -1.0000e+00
<mgrwt>
<rscale>  0 0.52471036E+03</rscale>
<asrwt>0</asrwt>
<pdfrwt beam="1">  1        2 0.14721777E+00 0.52471036E+03</pdfrwt>
<pdfrwt beam="2">  1       -2 0.11066043E-01 0.52471036E+03</pdfrwt>
<totfact> 0.17262343E+03</totfact>
</mgrwt>
<rwgt>
<wgt id='morphing_basis_vector_1'> +1.7616572e-04 </wgt>
<wgt id='morphing_basis_vector_2'> +1.0070242e-04 </wgt>
<wgt id='morphing_basis_vector_3'> +1.2896243e-04 </wgt>
<wgt id='morphing_basis_vector_4'> +4.6444034e-05 </wgt>
<wgt id='morphing_basis_vector_5'> +6.7675655e-05 </wgt>
</rwgt>
</event>
<event>
 4      1 +1.0153100e-05 5.76726100e+02 7.81860800e-03 9.24280700e-02
        2 -1    0    0  501    0 +0.0000000000e+00 +0.0000000000e+00 +1.2778755433e+03 1.2778755433e+03 0.0000000000e+00 0.0000e+00 1.0000e+00
       -2 -1    0    0    0  501 -0.0000000000e+00 -0.0000000000e+00 -6.5071475559e+01 6.5071475559e+01 0.0000000000e+00 0.0000e+00 -1.0000e+00
      -13  1    1    2    0    0 -2.8688503258e+02 +2.9090599683e+01 +6.0176690645e+02 6.6728756515e+02 0.0000000000e+00 0.0000e+00 1.0000e+00
       13  1    1    2    0    0 +2.8688503258e+02 -2.9090599683e+01 +6.1103716132e+02 6.7565945373e+02 0.0000000000e+00 0.0000e+00 -1.0000e+00
<mgrwt>
<rscale>  0 0.57672610E+03</rscale>
<asrwt>0</asrwt>
<pdfrwt beam="1">  1        2 0.19659622E+00 0.57672610E+03</pdfrwt>
<pdfrwt beam="2">  1       -2 0.10010997E-01 0.57672610E+03</pdfrwt>
<totfact> 0.13064023E+03</totfact>
</mgrwt>
<rwgt>
<wgt id='morphing_basis_vector_1'> +2.4312744e-04 </wgt>
<wgt id='morphing_basis_vector_2'> +1.5668755e-04 </wgt>
<wgt id='morphing_basis_vector_3'> +1.8241248e-04 </wgt>
<wgt id='morphing_basis_vector_4'> +7.0298521e-05 </wgt>
<wgt id='morphing_basis_vector_5'> +1.1300740e-04 </wgt>
</rwgt>
</event>
<event>
 4      1 +1.0153100e-05 5.38945900e+02 7.81860800e-03 9.31661000e-02
        2 -1    0    0  501    0 +0.0000000000e+00 +0.0000000000e+00 +1.3119845933e+03 1.3119845933e+03 0.0000000000e+00 0.0000e+00 -1.0000e+00
       -2 -1    0    0    0  501 -0.0000000000e+00 -0.0000000000e+00 -5.5347959354e+01 5.5347959354e+01 0.0000000000e+00 0.0000e+00 1.0000e+00
      -13  1    1    2    0    0 -1.8695969780e+02 -1.3546352352e+02 +2.7575625000e+02 3.5964677702e+02 0.0000000000e+00 0.0000e+00 1.0000e+00
       13  1    1    2    0    0 +1.8695969780e+02 +1.3546352352e+02 +9.8088038398e+02 1.0076857757e+03 0.0000000000e+00 0.0000e+00 -1.0000e+00
<mgrwt>
<rscale>  0 0.53894590E+03</rscale>
<asrwt>0</asrwt>
<pdfrwt beam="1">  1        2 0.20184376E+00 0.53894590E+03</pdfrwt>
<pdfrwt beam="2">  1       -2 0.85150717E-02 0.53894590E+03</pdfrwt>
<totfact> 0.16104683E+03</totfact>
</mgrwt>
<rwgt>
<wgt id='morphing_basis_vector_1'> +1.9070800e-04 </wgt>
<wgt id='morphing_basis_vector_2'> +1.0781684e-04 </wgt>
<wgt id='morphing_basis_vector_3'> +1.4238292e-04 </wgt>
<wgt id='morphing_basis_vector_4'> +5.3544009e-05 </wgt>
<wgt id='morphing_basis_vector_5'> +7.8497377e-05 </wgt>
</rwgt>
</event>
<event>
 4      1 +1.0153100e-05 5.75071500e+02 7.81860800e-03 9.24591200e-02
        2 -1    0    0  501    0 +0.0000000000e+00 +0.0000000000e+00 +1.8455192456e+02 1.8455192456e+02 0.0000000000e+00 0.0000e+00 -1.0000e+00
       -2 -1    0    0    0  501 -0.0000000000e+00 -0.0000000000e+00 -4.4798676428e+02 4.4798676428e+02 0.0000000000e+00 0.0000e+00 1.0000e+00
      -13  1    1    2    0    0 +3.4231002032e+01 +2.1998822632e+02 -3.3186316910e+02 3.9962450404e+02 0.0000000000e+00 0.0000e+00 1.0000e+00
       13  1    1    2    0    0 -3.4231002032e+01 -2.1998822632e+02 +6.8428329374e+01 2.3291418480e+02 0.0000000000e+00 0.0000e+00 -1.0000e+00
<mgrwt>
<rscale>  0 0.57507154E+03</rscale>
<asrwt>0</asrwt>
<pdfrwt beam="1">  1        2 0.28392604E-01 0.57507154E+03</pdfrwt>
<pdfrwt beam="2">  1       -2 0.68921040E-01 0.57507154E+03</pdfrwt>
<totfact> 0.46242493E+02</totfact>
</mgrwt>
<rwgt>
<wgt id='morphing_basis_vector_1'> +2.3364121e-04 </wgt>
<wgt id='morphing_basis_vector_2'> +1.3264574e-04 </wgt>
<wgt id='morphing_basis_vector_3'> +1.8098913e-04 </wgt>
<wgt id='morphing_basis_vector_4'> +7.4312315e-05 </wgt>
<wgt id='morphing_basis_vector_5'> +1.1122016e-04 </wgt>
</rwgt>
</event>
<event>
 4      1 +1.0153100e-05 5.55354000e+02 7.81860800e-03 9.28379000e-02
        2 -1    0    0  501    0 +0.0000000000e+00 +0.0000000000e+00 +6.9885073141e+02 6.9885073141e+02 0.0000000000e+00 0.0000e+00 -1.0000e+00
       -2 -1    0    0    0  501 -0.0000000000e+00 -0.0000000000e+00 -1.1033044240e+02 1.1033044240e+02 0.0000000000e+00 0.0000e+00 1.0000e+00
      -13  1    1    2    0    0 +2.7415042176e+02 +3.6399035256e+00 +2.3020261162e+02 3.5800131990e+02 0.0000000000e+00 0.0000e+00 1.0000e+00
       13  1    1    2    0    0 -2.7415042176e+02 -3.6399035256e+00 +3.5831767738e+02 4.5117985391e+02 0.0000000000e+00 0.0000e+00 -1.0000e+00
<mgrwt>
<rscale>  0 0.55535398E+03</rscale>
<asrwt>0</asrwt>
<pdfrwt beam="1">  1        2 0.10751550E+00 0.55535398E+03</pdfrwt>
<pdfrwt beam="2">  1       -2 0.16973915E-01 0.55535398E+03</pdfrwt>
<totfact> 0.13031392E+03</totfact>
</mgrwt>
<rwgt>
<wgt id='morphing_basis_vector_1'> +2.1260728e-04 </wgt>
<wgt id='morphing_basis_vector_2'> +1.2874147e-04 </wgt>
<wgt id='morphing_basis_vector_3'> +1.5848759e-04 </wgt>
<wgt id='morphing_basis_vector_4'> +6.0328153e-05 </wgt>
<wgt id='morphing_basis_vector_5'> +9.2461058e-05 </wgt>
</rwgt>
</event>
<event>
 4      1 +1.0153100e-05 5.37318200e+02 7.81860800e-03 9.31993300e-02
        2 -1    0    0  501    0 +0.0000000000e+00 +0.0000000000e+00 +1.8016879678e+02 1.8016879678e+02 0.0000000000e+00 0.0000e+00 1.0000e+00
       -2 -1    0    0    0  501 -0.0000000000e+00 -0.0000000000e+00 -4.0061159827e+02 4.0061159827e+02 0.0000000000e+00 0.0000e+00 -1.0000e+00
      -13  1    1    2    0    0 +3.6036795368e+01 -2.2400868935e+02 -2.6573086623e+02 3.4941585080e+02 0.0000000000e+00 0.0000e+00 -1.0000e+00
       13  1    1    2    0    0 -3.6036795368e+01 +2.2400868935e+02 +4.5288064740e+01 2.3136454425e+02 0.0000000000e+00 0.0000e+00 1.0000e+00
<mgrwt>
<rscale>  0 0.53731819E+03</rscale>
<asrwt>0</asrwt>
<pdfrwt beam="1">  1        2 0.27718277E-01 0.53731819E+03</pdfrwt>
<pdfrwt beam="2">  1       -2 0.61632553E-01 0.53731819E+03</pdfrwt>
<totfact> 0.60056382E+02</totfact>
</mgrwt>
<rwgt>
<wgt id='morphing_basis_vector_1'> +1.8884864e-04 </wgt>
<wgt id='morphing_basis_vector_2'> +1.0652201e-04 </wgt>
<wgt id='morphing_basis_vector_3'> +1.4083314e-04 </wgt>
<wgt id='morphing_basis_vector_4'> +5.2772981e-05 </wgt>
<wgt id='morphing_basis_vector_5'> +7.7199906e-05 </wgt>
</rwgt>
</event>
<event>
 4      1 +1.0153100e-05 5.38364400e+02 7.81860800e-03 9.31779600e-02
        2 -1    0    0  501    0 +0.0000000000e+00 +0.0000000000e+00 +1.2468397445e+03 1.2468397445e+03 0.0000000000e+00 0.0000e+00 -1.0000e+00
       -2 -1    0    0    0  501 -0.0000000000e+00 -0.0000000000e+00 -5.8114168270e+01 5.8114168270e+01 0.0000000000e+00 0.0000e+00 1.0000e+00
      -13  1    1    2    0    0 +1.7196489373e+02 +1.3202881041e+02 +2.0763100937e+02 3.0019021887e+02 0.0000000000e+00 0.0000e+00 1.0000e+00
       13  1    1    2    0    0 -1.7196489373e+02 -1.3202881041e+02 +9.8109456688e+02 1.0047636939e+03 0.0000000000e+00 0.0000e+00 -1.0000e+00
<mgrwt>
<rscale>  0 0.53836439E+03</rscale>
<asrwt>0</asrwt>
<pdfrwt beam="1">  1        2 0.19182148E+00 0.53836439E+03</pdfrwt>
<pdfrwt beam="2">  1       -2 0.89406422E-02 0.53836439E+03</pdfrwt>
<totfact> 0.16244868E+03</totfact>
</mgrwt>
<rwgt>
<wgt id='morphing_basis_vector_1'> +1.8981578e-04 </wgt>
<wgt id='morphing_basis_vector_2'> +1.0665007e-04 </wgt>
<wgt id='morphing_basis_vector_3'> +1.4188044e-04 </wgt>
<wgt id='morphing_basis_vector_4'> +5.3392924e-05 </wgt>
<wgt id='morphing_basis_vector_5'> +7.8026109e-05 </wgt>
</rwgt>
</event>
<event>
 4      1 +1.0153100e-05 5.29588300e+02 7.81860800e-03 9.33589000e-02
        2 -1    0    0  501    0 +0.0000000000e+00 +0.0000000000e+00 +3.9922438538e+02 3.9922438538e+02 0.0000000000e+00 0.0000e+00 -1.0000e+00
       -2 -1    0    0    0  501 -0.0000000000e+00 -0.0000000000e+00 -1.7563041520e+02 1.7563041520e+02 0.0000000000e+00 0.0000e+00 1.0000e+00
      -13  1    1    2    0    0 +3.2335454029e+01 +1.2717519795e+02 -1.3785475862e+02 1.9032353253e+02 0.0000000000e+00 0.0000e+00 1.0000e+00
       13  1    1    2    0    0 -3.2335454029e+01 -1.2717519795e+02 +3.6144872880e+02 3.8453126805e+02 0.0000000000e+00 0.0000e+00 -1.0000e+00
<mgrwt>
<rscale>  0 0.52958831E+03</rscale>
<asrwt>0</asrwt>
<pdfrwt beam="1">  1        2 0.61419136E-01 0.52958831E+03</pdfrwt>
<pdfrwt beam="2">  1       -2 0.27020064E-01 0.52958831E+03</pdfrwt>
<totfact> 0.11400752E+03</totfact>
</mgrwt>
<rwgt>
<wgt id='morphing_basis_vector_1'> +1.7998405e-04 </wgt>
<wgt id='morphing_basis_vector_2'> +9.9807413e-05 </wgt>
<wgt id='morphing_basis_vector_3'> +1.3373855e-04 </wgt>
<wgt id='morphing_basis_vector_4'> +4.9337413e-05 </wgt>
<wgt id='morphing_basis_vector_5'> +7.1228803e-05 </wgt>
</rwgt>
</event>
<event>
 4      1 +1.0153100e-05 5.23939800e+02 7.81860800e-03 9.34773500e-02
        2 -1    0    0  501    0 +0.0000000000e+00 +0.0000000000e+00 +5.0685278281e+02 5.0685278281e+02 0.0000000000e+00 0.0000e+00 -1.0000e+00
       -2 -1    0    0    0  501 -0.0000000000e+00 -0.0000000000e+00 -1.3540072350e+02 1.3540072350e+02 0.0000000000e+00 0.0000e+00 1.0000e+00
      -13  1    1    2    0    0 +1.3515493799e+02 +2.0452708391e+02 +7.2511850975e+01 2.5564849667e+02 0.0000000000e+00 0.0000e+00 1.0000e+00
       13  1    1    2    0    0 -1.3515493799e+02 -2.0452708391e+02 +2.9894020834e+02 3.8660500964e+02 0.0000000000e+00 0.0000e+00 -1.0000e+00
<mgrwt>
<rscale>  0 0.52393982E+03</rscale>
<asrwt>0</asrwt>
<pdfrwt beam="1">  1        2 0.77977351E-01 0.52393982E+03</pdfrwt>
<pdfrwt beam="2">  1       -2 0.20830881E-01 0.52393982E+03</pdfrwt>
<totfact> 0.13533060E+03</totfact>
</mgrwt>
<rwgt>
<wgt id='morphing_basis_vector_1'> +1.7553181e-04 </wgt>
<wgt id='morphing_basis_vector_2'> +1.0072155e-04 </wgt>
<wgt id='morphing_basis_vector_3'> +1.2822632e-04 </wgt>
<wgt id='morphing_basis_vector_4'> +4.6019293e-05 </wgt>
<wgt id='morphing_basis_vector_5'> +6.7124940e-05 </wgt>
</rwgt>
</event>
<event>
 4      1 +1.0153100e-05 5.77730500e+02 7.81860800e-03 9.24092800e-02
        2 -1    0    0  501    0 +0.0000000000e+00 +0.0000000000e+00 +2.9366563533e+02 2.9366563533e+02 0.0000000000e+00 0.0000e+00 -1.0000e+00
       -2 -1    0    0    0  501 -0.0000000000e+00 -0.0000000000e+00 -2.8414331665e+02 2.8414331665e+02 0.0000000000e+00 0.0000e+00 1.0000e+00
      -13  1    1    2    0    0 -3.2169988722e+01 -1.2496841660e+02 -2.5371371205e+02 2.8464479796e+02 0.0000000000e+00 0.0000e+00 1.0000e+00
       13  1    1    2    0    0 +3.2169988722e+01 +1.2496841660e+02 +2.6323603074e+02 2.9316415402e+02 0.0000000000e+00 0.0000e+00 -1.0000e+00
<mgrwt>
<rscale>  0 0.57773048E+03</rscale>
<asrwt>0</asrwt>
<pdfrwt beam="1">  1        2 0.45179329E-01 0.57773048E+03</pdfrwt>
<pdfrwt beam="2">  1       -2 0.43714356E-01 0.57773048E+03</pdfrwt>
<totfact> 0.67627816E+02</totfact>
</mgrwt>
<rwgt>
<wgt id='morphing_basis_vector_1'> +2.3670249e-04 </wgt>
<wgt id='morphing_basis_vector_2'> +1.3345005e-04 </wgt>
<wgt id='morphing_basis_vector_3'> +1.8415297e-04 </wgt>
<wgt id='morphing_basis_vector_4'> +7.6315202e-05 </wgt>
<wgt id='morphing_basis_vector_5'> +1.1394102e-04 </wgt>
</rwgt>
</event>
<event>
 4      1 +1.0153100e-05 5.30133800e+02 7.81860800e-03 9.33475400e-02
        2 -1    0    0  501    0 +0.0000000000e+00 +0.0000000000e+00 +1.6822235748e+02 1.6822235748e+02 0.0000000000e+00 0.0000e+00 -1.0000e+00
       -2 -1    0    0    0  501 -0.0000000000e+00 -0.0000000000e+00 -4.1766427659e+02 4.1766427659e+02 0.0000000000e+00 0.0000e+00 1.0000e+00
      -13  1    1    2    0    0 +2.3718303943e+02 +6.4443217141e+01 -2.3441541916e+02 3.3964586140e+02 0.0000000000e+00 0.0000e+00 1.0000e+00
       13  1    1    2    0    0 -2.3718303943e+02 -6.4443217141e+01 -1.5026499950e+01 2.4624077268e+02 0.0000000000e+00 0.0000e+00 -1.0000e+00
<mgrwt>
<rscale>  0 0.53013383E+03</rscale>
<asrwt>0</asrwt>
<pdfrwt beam="1">  1        2 0.25880363E-01 0.53013383E+03</pdfrwt>
<pdfrwt beam="2">  1       -2 0.64256042E-01 0.53013383E+03</pdfrwt>
<totfact> 0.59699914E+02</totfact>
</mgrwt>
<rwgt>
<wgt id='morphing_basis_vector_1'> +1.8187211e-04 </wgt>
<wgt id='morphing_basis_vector_2'> +1.0422733e-04 </wgt>
<wgt id='morphing_basis_vector_3'> +1.3388323e-04 </wgt>
<wgt id='morphing_basis_vector_4'> +4.8910382e-05 </wgt>
<wgt id='morphing_basis_vector_5'> +7.1677487e-05 </wgt>
</rwgt>
</event>
<event>
 4      1 +1.0153100e-05 5.59154400e+02 7.81860800e-03 9.27636100e-02
        2 -1    0    0  501    0 +0.0000000000e+00 +0.0000000000e+00 +5.9493719440e+02 5.9493719440e+02 0.0000000000e+00 0.0000e+00 -1.0000e+00
       -2 -1    0    0    0  501 -0.0000000000e+00 -0.0000000000e+00 -1.3138093744e+02 1.3138093744e+02 0.0000000000e+00 0.0000e+00 1.0000e+00
      -13  1    1    2    0    0 -9.4818342436e+01 -2.6083289238e+02 +1.8793775264e+02 3.3517892935e+02 0.0000000000e+00 0.0000e+00 1.0000e+00
       13  1    1    2    0    0 +9.4818342436e+01 +2.6083289238e+02 +2.7561850432e+02 3.9113920250e+02 0.0000000000e+00 0.0000e+00 -1.0000e+00
<mgrwt>
<rscale>  0 0.55915438E+03</rscale>
<asrwt>0</asrwt>
<pdfrwt beam="1">  1        2 0.91528798E-01 0.55915438E+03</pdfrwt>
<pdfrwt beam="2">  1       -2 0.20212452E-01 0.55915438E+03</pdfrwt>
<totfact> 0.11836010E+03</totfact>
</mgrwt>
<rwgt>
<wgt id='morphing_basis_vector_1'> +2.1786147e-04 </wgt>
<wgt id='morphing_basis_vector_2'> +1.3363946e-04 </wgt>
<wgt id='morphing_basis_vector_3'> +1.6249718e-04 </wgt>
<wgt id='morphing_basis_vector_4'> +6.2003712e-05 </wgt>
<wgt id='morphing_basis_vector_5'> +9.5914074e-05 </wgt>
</rwgt>
</event>
<event>
 4      1 +1.0153100e-05 5.31194700e+02 7.81860800e-03 9.33255000e-02
        2 -1    0    0  501    0 +0.0000000000e+00 +0.0000000000e+00 +2.1542308449e+02 2.1542308449e+02 0.0000000000e+00 0.0000e+00 1.0000e+00
       -2 -1    0    0    0  501 -0.0000000000e+00 -0.0000000000e+00 -3.2745770359e+02 3.2745770359e+02 0.0000000000e+00 0.0000e+00 -1.0000e+00
      -13  1    1    2    0    0 +1.8851224373e+02 +1.8694096517e+02 -6.3811224528e+01 2.7304882874e+02 0.0000000000e+00 0.0000e+00 -1.0000e+00
       13  1    1    2    0    0 -1.8851224373e+02 -1.8694096517e+02 -4.8223394576e+01 2.6983195934e+02 0.0000000000e+00 0.0000e+00 1.0000e+00
<mgrwt>
<rscale>  0 0.53119469E+03</rscale>
<asrwt>0</asrwt>
<pdfrwt beam="1">  1        2 0.33142013E-01 0.53119469E+03</pdfrwt>
<pdfrwt beam="2">  1       -2 0.50378108E-01 0.53119469E+03</pdfrwt>
<totfact> 0.73180359E+02</totfact>
</mgrwt>
<rwgt>
<wgt id='morphing_basis_vector_1'> +1.8710609e-04 </wgt>
<wgt id='morphing_basis_vector_2'> +1.1766491e-04 </wgt>
<wgt id='morphing_basis_vector_3'> +1.3377324e-04 </wgt>
<wgt id='morphing_basis_vector_4'> +4.7247403e-05 </wgt>
<wgt id='morphing_basis_vector_5'> +7.2598846e-05 </wgt>
</rwgt>
</event>
<event>
 4      1 +1.0153100e-05 5.49361200e+02 7.81860800e-03 9.29563500e-02
        2 -1    0    0  501    0 +0.0000000000e+00 +0.0000000000e+00 +1.0985053950e+03 1.0985053950e+03 0.0000000000e+00 0.0000e+00 1.0000e+00
       -2 -1    0    0    0  501 -0.0000000000e+00 -0.0000000000e+00 -6.8683725748e+01 6.8683725748e+01 0.0000000000e+00 0.0000e+00 -1.0000e+00
      -13  1    1    2    0    0 -2.8609925287e+01 +1.8100685284e+02 +8.0179052852e+01 2.0002672100e+02 0.0000000000e+00 0.0000e+00 -1.0000e+00
       13  1    1    2    0    0 +2.8609925287e+01 -1.8100685284e+02 +9.4964261642e+02 9.6716239977e+02 0.0000000000e+00 0.0000e+00 1.0000e+00
<mgrwt>
<rscale>  0 0.54936124E+03</rscale>
<asrwt>0</asrwt>
<pdfrwt beam="1">  1        2 0.16900082E+00 0.54936124E+03</pdfrwt>
<pdfrwt beam="2">  1       -2 0.10566728E-01 0.54936124E+03</pdfrwt>
<totfact> 0.15231211E+03</totfact>
</mgrwt>
<rwgt>
<wgt id='morphing_basis_vector_1'> +2.0187985e-04 </wgt>
<wgt id='morphing_basis_vector_2'> +1.1303587e-04 </wgt>
<wgt id='morphing_basis_vector_3'> +1.5285830e-04 </wgt>
<wgt id='morphing_basis_vector_4'> +5.9305357e-05 </wgt>
<wgt id='morphing_basis_vector_5'> +8.7126676e-05 </wgt>
</rwgt>
</event>
<event>
 4      1 +1.0153100e-05 5.82237300e+02 7.81860800e-03 9.23254400e-02
        2 -1    0    0  501    0 +0.0000000000e+00 +0.0000000000e+00 +3.6163280845e+02 3.6163280845e+02 0.0000000000e+00 0.0000e+00 1.0000e+00
       -2 -1    0    0    0  501 -0.0000000000e+00 -0.0000000000e+00 -2.3435388631e+02 2.3435388631e+02 0.0000000000e+00 0.0000e+00 -1.0000e+00
      -13  1    1    2    0    0 -2.2267455456e+02 +9.2061701708e+01 -1.0359157611e+02 2.6227948606e+02 0.0000000000e+00 0.0000e+00 -1.0000e+00
       13  1    1    2    0    0 +2.2267455456e+02 -9.2061701708e+01 +2.3087049826e+02 3.3370720869e+02 0.0000000000e+00 0.0000e+00 1.0000e+00
<mgrwt>
<rscale>  0 0.58223725E+03</rscale>
<asrwt>0</asrwt>
<pdfrwt beam="1">  1        2 0.55635816E-01 0.58223725E+03</pdfrwt>
<pdfrwt beam="2">  1       -2 0.36054444E-01 0.58223725E+03</pdfrwt>
<totfact> 0.76507917E+02</totfact>
</mgrwt>
<rwgt>
<wgt id='morphing_basis_vector_1'> +2.4336700e-04 </wgt>
<wgt id='morphing_basis_vector_2'> +1.3915828e-04 </wgt>
<wgt id='morphing_basis_vector_3'> +1.8952605e-04 </wgt>
<wgt id='morphing_basis_vector_4'> +7.8810882e-05 </wgt>
<wgt id='morphing_basis_vector_5'> +1.1867483e-04 </wgt>
</rwgt>
</event>
<event>
 4      1 +1.0153100e-05 5.45555100e+02 7.81860800e-03 9.30324200e-02
        2 -1    0    0  501    0 +0.0000000000e+00 +0.0000000000e+00 +3.2028941243e+02 3.2028941243e+02 0.0000000000e+00 0.0000e+00 -1.0000e+00
       -2 -1    0    0    0  501 -0.0000000000e+00 -0.0000000000e+00 -2.3231361905e+02 2.3231361905e+02 0.0000000000e+00 0.0000e+00 1.0000e+00
      -13  1    1    2    0    0 -1.9997845336e+02 +9.8921564994e+01 -1.1498142611e+02 2.5099319946e+02 0.0000000000e+00 0.0000e+00 1.0000e+00
       13  1    1    2    0    0 +1.9997845336e+02 -9.8921564994e+01 +2.0295721949e+02 3.0160983202e+02 0.0000000000e+00 0.0000e+00 -1.0000e+00
<mgrwt>
<rscale>  0 0.54555510E+03</rscale>
<asrwt>0</asrwt>
<pdfrwt beam="1">  1        2 0.49275294E-01 0.54555510E+03</pdfrwt>
<pdfrwt beam="2">  1       -2 0.35740557E-01 0.54555510E+03</pdfrwt>
<totfact> 0.89067998E+02</totfact>
</mgrwt>
<rwgt>
<wgt id='morphing_basis_vector_1'> +1.9789702e-04 </wgt>
<wgt id='morphing_basis_vector_2'> +1.1160278e-04 </wgt>
<wgt id='morphing_basis_vector_3'> +1.4893426e-04 </wgt>
<wgt id='morphing_basis_vector_4'> +5.7053155e-05 </wgt>
<wgt id='morphing_basis_vector_5'> +8.3905125e-05 </wgt>
</rwgt>
</event>
<event>
 4      1 +1.0153100e-05 5.21508600e+02 7.81860800e-03 9.35288300e-02
        2 -1    0    0  501    0 +0.0000000000e+00 +0.0000000000e+00 +1.6261338104e+03 1.6261338104e+03 0.0000000000e+00 0.0000e+00 -1.0000e+00
       -2 -1    0    0    0  501 -0.0000000000e+00 -0.0000000000e+00 -4.1812556473e+01 4.1812556473e+01 0.0000000000e+00 0.0000e+00 1.0000e+00
      -13  1    1    2    0    0 -6.8384976850e+01 +2.1124715002e+02 +3.5490414747e+02 4.1863924487e+02 0.0000000000e+00 0.0000e+00 1.0000e+00
       13  1    1    2    0    0 +6.8384976850e+01 -2.1124715002e+02 +1.2294171065e+03 1.2493071220e+03 0.0000000000e+00 0.0000e+00 -1.0000e+00
<mgrwt>
<rscale>  0 0.52150863E+03</rscale>
<asrwt>0</asrwt>
<pdfrwt beam="1">  1        2 0.25017438E+00 0.52150863E+03</pdfrwt>
<pdfrwt beam="2">  1       -2 0.64327022E-02 0.52150863E+03</pdfrwt>
<totfact> 0.16686947E+03</totfact>
</mgrwt>
<rwgt>
<wgt id='morphing_basis_vector_1'> +1.7223846e-04 </wgt>
<wgt id='morphing_basis_vector_2'> +9.6717615e-05 </wgt>
<wgt id='morphing_basis_vector_3'> +1.2632322e-04 </wgt>
<wgt id='morphing_basis_vector_4'> +4.5338421e-05 </wgt>
<wgt id='morphing_basis_vector_5'> +6.5365210e-05 </wgt>
</rwgt>
</event>
<event>
 4      1 +1.0153100e-05 6.17445300e+02 7.81860800e-03 9.16969500e-02
        2 -1    0    0  501    0 +0.0000000000e+00 +0.0000000000e+00 +1.6113986974e+02 1.6113986974e+02 0.0000000000e+00 0.0000e+00 -1.0000e+00
       -2 -1    0    0    0  501 -0.0000000000e+00 -0.0000000000e+00 -5.9147179098e+02 5.9147179098e+02 0.0000000000e+00 0.0000e+00 1.0000e+00
      -13  1    1    2    0    0 +3.2856157262e+01 +1.9211735507e+02 -5.0699574559e+02 5.4316967077e+02 0.0000000000e+00 0.0000e+00 1.0000e+00
       13  1    1    2    0    0 -3.2856157262e+01 -1.9211735507e+02 +7.6663824358e+01 2.0944198995e+02 0.0000000000e+00 0.0000e+00 -1.0000e+00
<mgrwt>
<rscale>  0 0.61744534E+03</rscale>
<asrwt>0</asrwt>
<pdfrwt beam="1">  1        2 0.24790749E-01 0.61744534E+03</pdfrwt>
<pdfrwt beam="2">  1       -2 0.90995660E-01 0.61744534E+03</pdfrwt>
<totfact> 0.29087424E+02</totfact>
</mgrwt>
<rwgt>
<wgt id='morphing_basis_vector_1'> +2.9389126e-04 </wgt>
<wgt id='morphing_basis_vector_2'> +1.6833760e-04 </wgt>
<wgt id='morphing_basis_vector_3'> +2.3629255e-04 </wgt>
<wgt id='morphing_basis_vector_4'> +1.0548077e-04 </wgt>
<wgt id='morphing_basis_vector_5'> +1.6037509e-04 </wgt>
</rwgt>
</event>
<event>
 4      1 +1.0153100e-05 5.72000800e+02 7.81860800e-03 9.25170400e-02
        2 -1    0    0  501    0 +0.0000000000e+00 +0.0000000000e+00 +4.9297829204e+02 4.9297829204e+02 0.0000000000e+00 0.0000e+00 1.0000e+00
       -2 -1    0    0    0  501 -0.0000000000e+00 -0.0000000000e+00 -1.6592255045e+02 1.6592255045e+02 0.0000000000e+00 0.0000e+00 -1.0000e+00
      -13  1    1    2    0    0 -1.9628215963e+02 -2.0327230854e+02 +1.1266165844e+02 3.0420218094e+02 0.0000000000e+00 0.0000e+00 -1.0000e+00
       13  1    1    2    0    0 +1.9628215963e+02 +2.0327230854e+02 +2.1439408315e+02 3.5469866154e+02 0.0000000000e+00 0.0000e+00 1.0000e+00
<mgrwt>
<rscale>  0 0.57200075E+03</rscale>
<asrwt>0</asrwt>
<pdfrwt beam="1">  1        2 0.75842813E-01 0.57200075E+03</pdfrwt>
<pdfrwt beam="2">  1       -2 0.25526547E-01 0.57200075E+03</pdfrwt>
<totfact> 0.99139263E+02</totfact>
</mgrwt>
<rwgt>
<wgt id='morphing_basis_vector_1'> +2.3359196e-04 </wgt>
<wgt id='morphing_basis_vector_2'> +1.4241187e-04 </wgt>
<wgt id='morphing_basis_vector_3'> +1.7706650e-04 </wgt>
<wgt id='morphing_basis_vector_4'> +6.9720813e-05 </wgt>
<wgt id='morphing_basis_vector_5'> +1.0818608e-04 </wgt>
</rwgt>
</event>
<event>
 4      1 +1.0153100e-05 5.35643100e+02 7.81860800e-03 9.32336700e-02
        2 -1    0    0  501    0 +0.0000000000e+00 +0.0000000000e+00 +5.9976072406e+02 5.9976072406e+02 0.0000000000e+00 0.0000e+00 -1.0000e+00
       -2 -1    0    0    0  501 -0.0000000000e+00 -0.0000000000e+00 -1.1959501495e+02 1.1959501495e+02 0.0000000000e+00 0.0000e+00 1.0000e+00
      -13  1    1    2    0    0 -5.5583724196e+01 +1.2006270523e+02 -7.2642503751e+01 1.5093553900e+02 0.0000000000e+00 0.0000e+00 1.0000e+00
       13  1    1    2    0    0 +5.5583724196e+01 -1.2006270523e+02 +5.5280821286e+02 5.6842020002e+02 0.0000000000e+00 0.0000e+00 -1.0000e+00
<mgrwt>
<rscale>  0 0.53564314E+03</rscale>
<asrwt>0</asrwt>
<pdfrwt beam="1">  1        2 0.92270879E-01 0.53564314E+03</pdfrwt>
<pdfrwt beam="2">  1       -2 0.18399233E-01 0.53564314E+03</pdfrwt>
<totfact> 0.13695375E+03</totfact>
</mgrwt>
<rwgt>
<wgt id='morphing_basis_vector_1'> +1.8643509e-04 </wgt>
<wgt id='morphing_basis_vector_2'> +1.0360083e-04 </wgt>
<wgt id='morphing_basis_vector_3'> +1.3938056e-04 </wgt>
<wgt id='morphing_basis_vector_4'> +5.2267538e-05 </wgt>
<wgt id='morphing_basis_vector_5'> +7.5865620e-05 </wgt>
</rwgt>
</event>
<event>
 4      1 +1.0153100e-05 5.84577800e+02 7.81860800e-03 9.22822200e-02
        2 -1    0    0  501    0 +0.0000000000e+00 +0.0000000000e+00 +2.7776879438e+02 2.7776879438e+02 0.0000000000e+00 0.0000e+00 1.0000e+00
       -2 -1    0    0    0  501 -0.0000000000e+00 -0.0000000000e+00 -3.0756804676e+02 3.0756804676e+02 0.0000000000e+00 0.0000e+00 -1.0000e+00
      -13  1    1    2    0    0 +1.5071600636e+02 -1.9671900707e+02 +1.4028264533e+02 2.8476815640e+02 0.0000000000e+00 0.0000e+00 1.0000e+00
       13  1    1    2    0    0 -1.5071600636e+02 +1.9671900707e+02 -1.7008189771e+02 3.0056868474e+02 0.0000000000e+00 0.0000e+00 -1.0000e+00
<mgrwt>
<rscale>  0 0.58457782E+03</rscale>
<asrwt>0</asrwt>
<pdfrwt beam="1">  1        2 0.42733661E-01 0.58457782E+03</pdfrwt>
<pdfrwt beam="2">  1       -2 0.47318161E-01 0.58457782E+03</pdfrwt>
<totfact> 0.61890214E+02</totfact>
</mgrwt>
<rwgt>
<wgt id='morphing_basis_vector_1'> +2.9227430e-04 </wgt>
<wgt id='morphing_basis_vector_2'> +2.8301021e-04 </wgt>
<wgt id='morphing_basis_vector_3'> +1.9055468e-04 </wgt>
<wgt id='morphing_basis_vector_4'> +4.7464817e-05 </wgt>
<wgt id='morphing_basis_vector_5'> +1.2165547e-04 </wgt>
</rwgt>
</event>
<event>
 4      1 +1.0153100e-05 5.33695100e+02 7.81860800e-03 9.32737600e-02
        2 -1    0    0  501    0 +0.0000000000e+00 +0.0000000000e+00 +1.0510802549e+03 1.0510802549e+03 0.0000000000e+00 0.0000e+00 -1.0000e+00
       -2 -1    0    0    0  501 -0.0000000000e+00 -0.0000000000e+00 -6.7747071808e+01 6.7747071808e+01 0.0000000000e+00 0.0000e+00 1.0000e+00
      -13  1    1    2    0    0 -2.0178284472e+02 -1.5803814341e+02 +3.3597971426e+02 4.2258104499e+02 0.0000000000e+00 0.0000e+00 1.0000e+00
       13  1    1    2    0    0 +2.0178284472e+02 +1.5803814341e+02 +6.4735346881e+02 6.9624628170e+02 0.0000000000e+00 0.0000e+00 -1.0000e+00
<mgrwt>
<rscale>  0 0.53369508E+03</rscale>
<asrwt>0</asrwt>
<pdfrwt beam="1">  1        2 0.16170464E+00 0.53369508E+03</pdfrwt>
<pdfrwt beam="2">  1       -2 0.10422627E-01 0.53369508E+03</pdfrwt>
<totfact> 0.16609416E+03</totfact>
</mgrwt>
<rwgt>
<wgt id='morphing_basis_vector_1'> +1.8640171e-04 </wgt>
<wgt id='morphing_basis_vector_2'> +1.0877398e-04 </wgt>
<wgt id='morphing_basis_vector_3'> +1.3701932e-04 </wgt>
<wgt id='morphing_basis_vector_4'> +5.0206353e-05 </wgt>
<wgt id='morphing_basis_vector_5'> +7.4410719e-05 </wgt>
</rwgt>
</event>
<event>
 4      1 +1.0153100e-05 5.66885600e+02 7.81860800e-03 9.26143900e-02
        2 -1    0    0  501    0 +0.0000000000e+00 +0.0000000000e+00 +4.2872125392e+02 4.2872125392e+02 0.0000000000e+00 0.0000e+00 -1.0000e+00
       -2 -1    0    0    0  501 -0.0000000000e+00 -0.0000000000e+00 -1.8739405109e+02 1.8739405109e+02 0.0000000000e+00 0.0000e+00 1.0000e+00
      -13  1    1    2    0    0 +6.4064848055e+00 -6.9316880724e+01 -1.7795897570e+02 1.9108969107e+02 0.0000000000e+00 0.0000e+00 1.0000e+00
       13  1    1    2    0    0 -6.4064848055e+00 +6.9316880724e+01 +4.1928617852e+02 4.2502561394e+02 0.0000000000e+00 0.0000e+00 -1.0000e+00
<mgrwt>
<rscale>  0 0.56688557E+03</rscale>
<asrwt>0</asrwt>
<pdfrwt beam="1">  1        2 0.65957116E-01 0.56688557E+03</pdfrwt>
<pdfrwt beam="2">  1       -2 0.28829854E-01 0.56688557E+03</pdfrwt>
<totfact> 0.94050236E+02</totfact>
</mgrwt>
<rwgt>
<wgt id='morphing_basis_vector_1'> +2.2277547e-04 </wgt>
<wgt id='morphing_basis_vector_2'> +1.2506104e-04 </wgt>
<wgt id='morphing_basis_vector_3'> +1.7164857e-04 </wgt>
<wgt id='morphing_basis_vector_4'> +6.9491228e-05 </wgt>
<wgt id='morphing_basis_vector_5'> +1.0310298e-04 </wgt>
</rwgt>
</event>
<event>
 4      1 +1.0153100e-05 6.07305900e+02 7.81860800e-03 9.18733200e-02
        2 -1    0    0  501    0 +0.0000000000e+00 +0.0000000000e+00 +2.1292808116e+02 2.1292808116e+02 0.0000000000e+00 0.0000e+00 -1.0000e+00
       -2 -1    0    0    0  501 -0.0000000000e+00 -0.0000000000e+00 -4.3303410109e+02 4.3303410109e+02 0.0000000000e+00 0.0000e+00 1.0000e+00
      -13  1    1    2    0    0 -2.0583933626e+02 +1.5418156921e+02 -2.8177050434e+02 3.8149234036e+02 0.0000000000e+00 0.0000e+00 1.0000e+00
       13  1    1    2    0    0 +2.0583933626e+02 -1.5418156921e+02 +6.1664484418e+01 2.6446984189e+02 0.0000000000e+00 0.0000e+00 -1.0000e+00
<mgrwt>
<rscale>  0 0.60730592E+03</rscale>
<asrwt>0</asrwt>
<pdfrwt beam="1">  1        2 0.32758167E-01 0.60730592E+03</pdfrwt>
<pdfrwt beam="2">  1       -2 0.66620630E-01 0.60730592E+03</pdfrwt>
<totfact> 0.42102920E+02</totfact>
</mgrwt>
<rwgt>
<wgt id='morphing_basis_vector_1'> +2.7916728e-04 </wgt>
<wgt id='morphing_basis_vector_2'> +1.6138487e-04 </wgt>
<wgt id='morphing_basis_vector_3'> +2.2202768e-04 </wgt>
<wgt id='morphing_basis_vector_4'> +9.6713689e-05 </wgt>
<wgt id='morphing_basis_vector_5'> +1.4746473e-04 </wgt>
</rwgt>
</event>
<event>
 4      1 +1.0153100e-05 5.60352200e+02 7.81860800e-03 9.27403200e-02
        2 -1    0    0  501    0 +0.0000000000e+00 +0.0000000000e+00 +3.7611883582e+02 3.7611883582e+02 0.0000000000e+00 0.0000e+00 -1.0000e+00
       -2 -1    0    0    0  501 -0.0000000000e+00 -0.0000000000e+00 -2.0870701994e+02 2.0870701994e+02 0.0000000000e+00 0.0000e+00 1.0000e+00
      -13  1    1    2    0    0 +1.0278602588e+02 +1.4703608870e+02 -1.4090039518e+02 2.2811729408e+02 0.0000000000e+00 0.0000e+00 1.0000e+00
       13  1    1    2    0    0 -1.0278602588e+02 -1.4703608870e+02 +3.0831221106e+02 3.5670856169e+02 0.0000000000e+00 0.0000e+00 -1.0000e+00
<mgrwt>
<rscale>  0 0.56035218E+03</rscale>
<asrwt>0</asrwt>
<pdfrwt beam="1">  1        2 0.57864436E-01 0.56035218E+03</pdfrwt>
<pdfrwt beam="2">  1       -2 0.32108772E-01 0.56035218E+03</pdfrwt>
<totfact> 0.90136942E+02</totfact>
</mgrwt>
<rwgt>
<wgt id='morphing_basis_vector_1'> +2.1486164e-04 </wgt>
<wgt id='morphing_basis_vector_2'> +1.2068540e-04 </wgt>
<wgt id='morphing_basis_vector_3'> +1.6443054e-04 </wgt>
<wgt id='morphing_basis_vector_4'> +6.5506873e-05 </wgt>
<wgt id='morphing_basis_vector_5'> +9.6931478e-05 </wgt>
</rwgt>
</event>
<event>
 4      1 +1.0153100e-05 5.68968400e+02 7.81860800e-03 9.25746200e-02
        2 -1    0    0  501    0 +0.0000000000e+00 +0.0000000000e+00 +9.8280684116e+02 9.8280684116e+02 0.0000000000e+00 0.0000e+00 -1.0000e+00
       -2 -1    0    0    0  501 -0.0000000000e+00 -0.0000000000e+00 -8.2347073227e+01 8.2347073227e+01 0.0000000000e+00 0.0000e+00 1.0000e+00
      -13  1    1    2    0    0 -1.8897952733e+02 +1.2985517509e+02 +1.3498799634e+02 2.6607778450e+02 0.0000000000e+00 0.0000e+00 1.0000e+00
       13  1    1    2    0    0 +1.8897952733e+02 -1.2985517509e+02 +7.6547177159e+02 7.9907612988e+02 0.0000000000e+00 0.0000e+00 -1.0000e+00
<mgrwt>
<rscale>  0 0.56896842E+03</rscale>
<asrwt>0</asrwt>
<pdfrwt beam="1">  1        2 0.15120104E+00 0.56896842E+03</pdfrwt>
<pdfrwt beam="2">  1       -2 0.12668781E-01 0.56896842E+03</pdfrwt>
<totfact> 0.13425403E+03</totfact>
</mgrwt>
<rwgt>
<wgt id='morphing_basis_vector_1'> +2.2593875e-04 </wgt>
<wgt id='morphing_basis_vector_2'> +1.2831850e-04 </wgt>
<wgt id='morphing_basis_vector_3'> +1.7393989e-04 </wgt>
<wgt id='morphing_basis_vector_4'> +7.0405276e-05 </wgt>
<wgt id='morphing_basis_vector_5'> +1.0513543e-04 </wgt>
</rwgt>
</event>
<event>
 4      1 +1.0153100e-05 5.20661700e+02 7.81860800e-03 9.35468300e-02
        2 -1    0    0  501    0 +0.0000000000e+00 +0.0000000000e+00 +5.7136811725e+01 5.7136811725e+01 0.0000000000e+00 0.0000e+00 -1.0000e+00
       -2 -1    0    0    0  501 -0.0000000000e+00 -0.0000000000e+00 -1.1861382885e+03 1.1861382885e+03 0.0000000000e+00 0.0000e+00 1.0000e+00
      -13  1    1    2    0    0 +1.8266093081e+02 -6.0942382894e+01 -9.8284368531e+02 1.0015291805e+03 0.0000000000e+00 0.0000e+00 1.0000e+00
       13  1    1    2    0    0 -1.8266093081e+02 +6.0942382894e+01 -1.4615779142e+02 2.4174591966e+02 0.0000000000e+00 0.0000e+00 -1.0000e+00
<mgrwt>
<rscale>  0 0.52066173E+03</rscale>
<asrwt>0</asrwt>
<pdfrwt beam="1">  1        2 0.87902786E-02 0.52066173E+03</pdfrwt>
<pdfrwt beam="2">  1       -2 0.18248282E+00 0.52066173E+03</pdfrwt>
<totfact> 0.16256319E+02</totfact>
</mgrwt>
<rwgt>
<wgt id='morphing_basis_vector_1'> +1.7101640e-04 </wgt>
<wgt id='morphing_basis_vector_2'> +9.5073643e-05 </wgt>
<wgt id='morphing_basis_vector_3'> +1.2569721e-04 </wgt>
<wgt id='morphing_basis_vector_4'> +4.5141596e-05 </wgt>
<wgt id='morphing_basis_vector_5'> +6.4756391e-05 </wgt>
</rwgt>
</event>
<event>
 4      1 +1.0153100e-05 5.92561100e+02 7.81860800e-03 9.21363900e-02
        2 -1    0    0  501    0 +0.0000000000e+00 +0.0000000000e+00 +3.3262154501e+02 3.3262154501e+02 0.0000000000e+00 0.0000e+00 -1.0000e+00
       -2 -1    0    0    0  501 -0.0000000000e+00 -0.0000000000e+00 -2.6391004248e+02 2.6391004248e+02 0.0000000000e+00 0.0000e+00 1.0000e+00
      -13  1    1    2    0    0 -2.8866561992e+02 +6.0763189625e+01 +6.5635088483e+00 2.9506454376e+02 0.0000000000e+00 0.0000e+00 1.0000e+00
       13  1    1    2    0    0 +2.8866561992e+02 -6.0763189625e+01 +6.2147993683e+01 3.0146704373e+02 0.0000000000e+00 0.0000e+00 -1.0000e+00
<mgrwt>
<rscale>  0 0.59256111E+03</rscale>
<asrwt>0</asrwt>
<pdfrwt beam="1">  1        2 0.51172545E-01 0.59256111E+03</pdfrwt>
<pdfrwt beam="2">  1       -2 0.40601545E-01 0.59256111E+03</pdfrwt>
<totfact> 0.67546634E+02</totfact>
</mgrwt>
<rwgt>
<wgt id='morphing_basis_vector_1'> +2.6300534e-04 </wgt>
<wgt id='morphing_basis_vector_2'> +1.6465707e-04 </wgt>
<wgt id='morphing_basis_vector_3'> +2.0236695e-04 </wgt>
<wgt id='morphing_basis_vector_4'> +8.1852585e-05 </wgt>
<wgt id='morphing_basis_vector_5'> +1.3004838e-04 </wgt>
</rwgt>
</event>
<event>
 4      1 +1.0153100e-05 5.22399800e+02 7.81860800e-03 9.35099200e-02
        2 -1    0    0  501    0 +0.0000000000e+00 +0.0000000000e+00 +9.6449518977e+02 9.6449518977e+02 0.0000000000e+00 0.0000e+00 -1.0000e+00
       -2 -1    0    0    0  501 -0.0000000000e+00 -0.0000000000e+00 -7.0736899066e+01 7.0736899066e+01 0.0000000000e+00 0.0000e+00 1.0000e+00
      -13  1    1    2    0    0 -8.9824070490e+01 +1.2211182370e+02 +2.5353963072e+01 1.5369607858e+02 0.0000000000e+00 0.0000e+00 1.0000e+00
       13  1    1    2    0    0 +8.9824070490e+01 -1.2211182370e+02 +8.6840432764e+02 8.8153601026e+02 0.0000000000e+00 0.0000e+00 -1.0000e+00
<mgrwt>
<rscale>  0 0.52239984E+03</rscale>
<asrwt>0</asrwt>
<pdfrwt beam="1">  1        2 0.14838387E+00 0.52239984E+03</pdfrwt>
<pdfrwt beam="2">  1       -2 0.10882601E-01 0.52239984E+03</pdfrwt>
<totfact> 0.17530063E+03</totfact>
</mgrwt>
<rwgt>
<wgt id='morphing_basis_vector_1'> +1.7259945e-04 </wgt>
<wgt id='morphing_basis_vector_2'> +9.5565108e-05 </wgt>
<wgt id='morphing_basis_vector_3'> +1.2727336e-04 </wgt>
<wgt id='morphing_basis_vector_4'> +4.6001770e-05 </wgt>
<wgt id='morphing_basis_vector_5'> +6.5979539e-05 </wgt>
</rwgt>
</event>
<event>
 4      1 +1.0153100e-05 5.41294300e+02 7.81860800e-03 9.31183700e-02
        2 -1    0    0  501    0 +0.0000000000e+00 +0.0000000000e+00 +2.2080153868e+02 2.2080153868e+02 0.0000000000e+00 0.0000e+00 -1.0000e+00
       -2 -1    0    0    0  501 -0.0000000000e+00 -0.0000000000e+00 -3.3174527687e+02 3.3174527687e+02 0.0000000000e+00 0.0000e+00 1.0000e+00
      -13  1    1    2    0    0 +2.0175034291e+02 -1.2647085415e+02 -1.8680011495e+02 3.0264229837e+02 0.0000000000e+00 0.0000e+00 1.0000e+00
       13  1    1    2    0    0 -2.0175034291e+02 +1.2647085415e+02 +7.5856376756e+01 2.4990451718e+02 0.0000000000e+00 0.0000e+00 -1.0000e+00
<mgrwt>
<rscale>  0 0.54129425E+03</rscale>
<asrwt>0</asrwt>
<pdfrwt beam="1">  1        2 0.33969468E-01 0.54129425E+03</pdfrwt>
<pdfrwt beam="2">  1       -2 0.51037735E-01 0.54129425E+03</pdfrwt>
<totfact> 0.69361887E+02</totfact>
</mgrwt>
<rwgt>
<wgt id='morphing_basis_vector_1'> +1.9348023e-04 </wgt>
<wgt id='morphing_basis_vector_2'> +1.0990348e-04 </wgt>
<wgt id='morphing_basis_vector_3'> +1.4463121e-04 </wgt>
<wgt id='morphing_basis_vector_4'> +5.4634181e-05 </wgt>
<wgt id='morphing_basis_vector_5'> +8.0396829e-05 </wgt>
</rwgt>
</event>
<event>
 4      1 +1.0153100e-05 5.88953500e+02 7.81860800e-03 9.22019800e-02
        2 -1    0    0  501    0 +0.0000000000e+00 +0.0000000000e+00 +1.6135557586e+03 1.6135557586e+03 0.0000000000e+00 0.0000e+00 -1.0000e+00
       -2 -1    0    0    0  501 -0.0000000000e+00 -0.0000000000e+00 -5.3742523942e+01 5.3742523942e+01 0.0000000000e+00 0.0000e+00 1.0000e+00
      -13  1    1    2    0    0 -2.3417332724e+02 -2.1699592592e+01 +2.7819268658e+02 3.6427900073e+02 0.0000000000e+00 0.0000e+00 1.0000e+00
       13  1    1    2    0    0 +2.3417332724e+02 +2.1699592592e+01 +1.2816205480e+03 1.3030192818e+03 0.0000000000e+00 0.0000e+00 -1.0000e+00
<mgrwt>
<rscale>  0 0.58895351E+03</rscale>
<asrwt>0</asrwt>
<pdfrwt beam="1">  1        2 0.24823931E+00 0.58895351E+03</pdfrwt>
<pdfrwt beam="2">  1       -2 0.82680818E-02 0.58895351E+03</pdfrwt>
<totfact> 0.11487006E+03</totfact>
</mgrwt>
<rwgt>
<wgt id='morphing_basis_vector_1'> +2.5237441e-04 </wgt>
<wgt id='morphing_basis_vector_2'> +1.4423963e-04 </wgt>
<wgt id='morphing_basis_vector_3'> +1.9783857e-04 </wgt>
<wgt id='morphing_basis_vector_4'> +8.3493466e-05 </wgt>
<wgt id='morphing_basis_vector_5'> +1.2596432e-04 </wgt>
</rwgt>
</event>
<event>
 4      1 +1.0153100e-05 5.59894700e+02 7.81860800e-03 9.27492100e-02
        2 -1    0    0  501    0 +0.0000000000e+00 +0.0000000000e+00 +2.7157136062e+02 2.7157136062e+02 0.0000000000e+00 0.0000e+00 -1.0000e+00
       -2 -1    0    0    0  501 -0.0000000000e+00 -0.0000000000e+00 -2.8858166128e+02 2.8858166128e+02 0.0000000000e+00 0.0000e+00 1.0000e+00
      -13  1    1    2    0    0 -1.0052070063e+02 -1.1300408810e+02 -2.4419011660e+02 2.8723361264e+02 0.0000000000e+00 0.0000e+00 1.0000e+00
       13  1    1    2    0    0 +1.0052070063e+02 +1.1300408810e+02 +2.2717981594e+02 2.7291940927e+02 0.0000000000e+00 0.0000e+00 -1.0000e+00
<mgrwt>
<rscale>  0 0.55989468E+03</rscale>
<asrwt>0</asrwt>
<pdfrwt beam="1">  1        2 0.41780210E-01 0.55989468E+03</pdfrwt>
<pdfrwt beam="2">  1       -2 0.44397178E-01 0.55989468E+03</pdfrwt>
<totfact> 0.71720841E+02</totfact>
</mgrwt>
<rwgt>
<wgt id='morphing_basis_vector_1'> +2.1422892e-04 </wgt>
<wgt id='morphing_basis_vector_2'> +1.2011292e-04 </wgt>
<wgt id='morphing_basis_vector_3'> +1.6394637e-04 </wgt>
<wgt id='morphing_basis_vector_4'> +6.5289725e-05 </wgt>
<wgt id='morphing_basis_vector_5'> +9.6507447e-05 </wgt>
</rwgt>
</event>
<event>
 4      1 +1.0153100e-05 6.00979500e+02 7.81860800e-03 9.19852100e-02
        2 -1    0    0  501    0 +0.0000000000e+00 +0.0000000000e+00 +5.6698643407e+02 5.6698643407e+02 0.0000000000e+00 0.0000e+00 -1.0000e+00
       -2 -1    0    0    0  501 -0.0000000000e+00 -0.0000000000e+00 -1.5925265751e+02 1.5925265751e+02 0.0000000000e+00 0.0000e+00 1.0000e+00
      -13  1    1    2    0    0 +2.7744673273e+02 +2.7958330731e+01 +6.8567786692e+01 2.8715831719e+02 0.0000000000e+00 0.0000e+00 1.0000e+00
       13  1    1    2    0    0 -2.7744673273e+02 -2.7958330731e+01 +3.3916598987e+02 4.3908077440e+02 0.0000000000e+00 0.0000e+00 -1.0000e+00
<mgrwt>
<rscale>  0 0.60097952E+03</rscale>
<asrwt>0</asrwt>
<pdfrwt beam="1">  1        2 0.87228681E-01 0.60097952E+03</pdfrwt>
<pdfrwt beam="2">  1       -2 0.24500409E-01 0.60097952E+03</pdfrwt>
<totfact> 0.90570949E+02</totfact>
</mgrwt>
<rwgt>
<wgt id='morphing_basis_vector_1'> +2.7092208e-04 </wgt>
<wgt id='morphing_basis_vector_2'> +1.5913657e-04 </wgt>
<wgt id='morphing_basis_vector_3'> +2.1346266e-04 </wgt>
<wgt id='morphing_basis_vector_4'> +9.1041088e-05 </wgt>
<wgt id='morphing_basis_vector_5'> +1.3979275e-04 </wgt>
</rwgt>
</event>
<event>
 4      1 +1.0153100e-05 5.21477200e+02 7.81860800e-03 9.35295000e-02
        2 -1    0    0  501    0 +0.0000000000e+00 +0.0000000000e+00 +1.3491786999e+02 1.3491786999e+02 0.0000000000e+00 0.0000e+00 -1.0000e+00
       -2 -1    0    0    0  501 -0.0000000000e+00 -0.0000000000e+00 -5.0389626270e+02 5.0389626270e+02 0.0000000000e+00 0.0000e+00 1.0000e+00
      -13  1    1    2    0    0 +6.7544072571e+01 +1.3565463640e+02 -4.4441120824e+02 4.6953775580e+02 0.0000000000e+00 0.0000e+00 1.0000e+00
       13  1    1    2    0    0 -6.7544072571e+01 -1.3565463640e+02 +7.5432815523e+01 1.6927637689e+02 0.0000000000e+00 0.0000e+00 -1.0000e+00
<mgrwt>
<rscale>  0 0.52147717E+03</rscale>
<asrwt>0</asrwt>
<pdfrwt beam="1">  1        2 0.20756595E-01 0.52147717E+03</pdfrwt>
<pdfrwt beam="2">  1       -2 0.77522502E-01 0.52147717E+03</pdfrwt>
<totfact> 0.51814469E+02</totfact>
</mgrwt>
<rwgt>
<wgt id='morphing_basis_vector_1'> +1.7166595e-04 </wgt>
<wgt id='morphing_basis_vector_2'> +9.5019454e-05 </wgt>
<wgt id='morphing_basis_vector_3'> +1.2646349e-04 </wgt>
<wgt id='morphing_basis_vector_4'> +4.5588152e-05 </wgt>
<wgt id='morphing_basis_vector_5'> +6.5325270e-05 </wgt>
</rwgt>
</event>
<event>
 4      1 +1.0153100e-05 5.75176600e+02 7.81860800e-03 9.24571500e-02
        2 -1    0    0  501    0 +0.0000000000e+00 +0.0000000000e+00 +1.0328439967e+03 1.0328439967e+03 0.0000000000e+00 0.0000e+00 -1.0000e+00
       -2 -1    0    0    0  501 -0.0000000000e+00 -0.0000000000e+00 -8.0076985695e+01 8.0076985695e+01 0.0000000000e+00 0.0000e+00 1.0000e+00
      -13  1    1    2    0    0 +2.1861483396e+02 +1.4046101690e+02 +2.3794594393e+02 3.5233508926e+02 0.0000000000e+00 0.0000e+00 1.0000e+00
       13  1    1    2    0    0 -2.1861483396e+02 -1.4046101690e+02 +7.1482106712e+02 7.6058589318e+02 0.0000000000e+00 0.0000e+00 -1.0000e+00
<mgrwt>
<rscale>  0 0.57517661E+03</rscale>
<asrwt>0</asrwt>
<pdfrwt beam="1">  1        2 0.15889907E+00 0.57517661E+03</pdfrwt>
<pdfrwt beam="2">  1       -2 0.12319537E-01 0.57517661E+03</pdfrwt>
<totfact> 0.13080147E+03</totfact>
</mgrwt>
<rwgt>
<wgt id='morphing_basis_vector_1'> +2.3471138e-04 </wgt>
<wgt id='morphing_basis_vector_2'> +1.3562555e-04 </wgt>
<wgt id='morphing_basis_vector_3'> +1.8103978e-04 </wgt>
<wgt id='morphing_basis_vector_4'> +7.3737686e-05 </wgt>
<wgt id='morphing_basis_vector_5'> +1.1133979e-04 </wgt>
</rwgt>
</event>
<event>
 4      1 +1.0153100e-05 5.34976300e+02 7.81860800e-03 9.32473700e-02
        2 -1    0    0  501    0 +0.0000000000e+00 +0.0000000000e+00 +1.3764856426e+03 1.3764856426e+03 0.0000000000e+00 0.0000e+00 1.0000e+00
       -2 -1    0    0    0  501 -0.0000000000e+00 -0.0000000000e+00 -5.1980141207e+01 5.1980141207e+01 0.0000000000e+00 0.0000e+00 -1.0000e+00
      -13  1    1    2    0    0 +1.2545048564e+02 -2.3528180746e+02 +6.0532379990e+02 6.6144709236e+02 0.0000000000e+00 0.0000e+00 -1.0000e+00
       13  1    1    2    0    0 -1.2545048564e+02 +2.3528180746e+02 +7.1918170153e+02 7.6701869148e+02 0.0000000000e+00 0.0000e+00 1.0000e+00
<mgrwt>
<rscale>  0 0.53497633E+03</rscale>
<asrwt>0</asrwt>
<pdfrwt beam="1">  1        2 0.21176699E+00 0.53497633E+03</pdfrwt>
<pdfrwt beam="2">  1       -2 0.79969459E-02 0.53497633E+03</pdfrwt>
<totfact> 0.16343813E+03</totfact>
</mgrwt>
<rwgt>
<wgt id='morphing_basis_vector_1'> +1.9030947e-04 </wgt>
<wgt id='morphing_basis_vector_2'> +1.1744704e-04 </wgt>
<wgt id='morphing_basis_vector_3'> +1.3760646e-04 </wgt>
<wgt id='morphing_basis_vector_4'> +4.9455260e-05 </wgt>
<wgt id='morphing_basis_vector_5'> +7.5473767e-05 </wgt>
</rwgt>
</event>
<event>
 4      1 +1.0153100e-05 5.43347800e+02 7.81860800e-03 9.30768400e-02
        2 -1    0    0  501    0 +0.0000000000e+00 +0.0000000000e+00 +2.3743826950e+02 2.3743826950e+02 0.0000000000e+00 0.0000e+00 -1.0000e+00
       -2 -1    0    0    0  501 -0.0000000000e+00 -0.0000000000e+00 -3.1084592629e+02 3.1084592629e+02 0.0000000000e+00 0.0000e+00 1.0000e+00
      -13  1    1    2    0    0 -2.4751152397e+02 -8.9387328839e+01 -1.0480525813e+02 2.8325993572e+02 0.0000000000e+00 0.0000e+00 1.0000e+00
       13  1    1    2    0    0 +2.4751152397e+02 +8.9387328839e+01 +3.1397601344e+01 2.6502426007e+02 0.0000000000e+00 0.0000e+00 -1.0000e+00
<mgrwt>
<rscale>  0 0.54334784E+03</rscale>
<asrwt>0</asrwt>
<pdfrwt beam="1">  1        2 0.36528965E-01 0.54334784E+03</pdfrwt>
<pdfrwt beam="2">  1       -2 0.47822450E-01 0.54334784E+03</pdfrwt>
<totfact> 0.72458064E+02</totfact>
</mgrwt>
<rwgt>
<wgt id='morphing_basis_vector_1'> +1.9740031e-04 </wgt>
<wgt id='morphing_basis_vector_2'> +1.1631589e-04 </wgt>
<wgt id='morphing_basis_vector_3'> +1.4631278e-04 </wgt>
<wgt id='morphing_basis_vector_4'> +5.4758141e-05 </wgt>
<wgt id='morphing_basis_vector_5'> +8.2119819e-05 </wgt>
</rwgt>
</event>
<event>
 4      1 +1.0153100e-05 5.97085200e+02 7.81860800e-03 9.20548200e-02
        2 -1    0    0  501    0 +0.0000000000e+00 +0.0000000000e+00 +1.1257942401e+03 1.1257942401e+03 0.0000000000e+00 0.0000e+00 -1.0000e+00
       -2 -1    0    0    0  501 -0.0000000000e+00 -0.0000000000e+00 -7.9168710197e+01 7.9168710197e+01 0.0000000000e+00 0.0000e+00 1.0000e+00
      -13  1    1    2    0    0 -7.5753120710e+01 -2.0076570879e+02 +1.0443558094e+02 2.3864659161e+02 0.0000000000e+00 0.0000e+00 1.0000e+00
       13  1    1    2    0    0 +7.5753120710e+01 +2.0076570879e+02 +9.4218994893e+02 9.6631635865e+02 0.0000000000e+00 0.0000e+00 -1.0000e+00
<mgrwt>
<rscale>  0 0.59708518E+03</rscale>
<asrwt>0</asrwt>
<pdfrwt beam="1">  1        2 0.17319910E+00 0.59708518E+03</pdfrwt>
<pdfrwt beam="2">  1       -2 0.12179802E-01 0.59708518E+03</pdfrwt>
<totfact> 0.11720559E+03</totfact>
</mgrwt>
<rwgt>
<wgt id='morphing_basis_vector_1'> +2.6354977e-04 </wgt>
<wgt id='morphing_basis_vector_2'> +1.5031978e-04 </wgt>
<wgt id='morphing_basis_vector_3'> +2.0827535e-04 </wgt>
<wgt id='morphing_basis_vector_4'> +8.9504780e-05 </wgt>
<wgt id='morphing_basis_vector_5'> +1.3519887e-04 </wgt>
</rwgt>
</event>
<event>
 4      1 +1.0153100e-05 5.50760500e+02 7.81860800e-03 9.29285500e-02
        2 -1    0    0  501    0 +0.0000000000e+00 +0.0000000000e+00 +5.3941733208e+02 5.3941733208e+02 0.0000000000e+00 0.0000e+00 -1.0000e+00
       -2 -1    0    0    0  501 -0.0000000000e+00 -0.0000000000e+00 -1.4058556338e+02 1.4058556338e+02 0.0000000000e+00 0.0000e+00 1.0000e+00
      -13  1    1    2    0    0 -1.0032802729e+02 +1.9531265395e+02 +4.0461331958e+02 4.6035278237e+02 0.0000000000e+00 0.0000e+00 1.0000e+00
       13  1    1    2    0    0 +1.0032802729e+02 -1.9531265395e+02 -5.7815508916e+00 2.1965011309e+02 0.0000000000e+00 0.0000e+00 -1.0000e+00
<mgrwt>
<rscale>  0 0.55076053E+03</rscale>
<asrwt>0</asrwt>
<pdfrwt beam="1">  1        2 0.82987281E-01 0.55076053E+03</pdfrwt>
<pdfrwt beam="2">  1       -2 0.21628548E-01 0.55076053E+03</pdfrwt>
<totfact> 0.11840544E+03</totfact>
</mgrwt>
<rwgt>
<wgt id='morphing_basis_vector_1'> +2.4924968e-04 </wgt>
<wgt id='morphing_basis_vector_2'> +2.5608389e-04 </wgt>
<wgt id='morphing_basis_vector_3'> +1.4608132e-04 </wgt>
<wgt id='morphing_basis_vector_4'> +3.2611050e-05 </wgt>
<wgt id='morphing_basis_vector_5'> +8.9358541e-05 </wgt>
</rwgt>
</event>
<event>
 4      1 +1.0153100e-05 5.67750100e+02 7.81860800e-03 9.25978600e-02
        2 -1    0    0  501    0 +0.0000000000e+00 +0.0000000000e+00 +1.2760855704e+03 1.2760855704e+03 0.0000000000e+00 0.0000e+00 1.0000e+00
       -2 -1    0    0    0  501 -0.0000000000e+00 -0.0000000000e+00 -6.3150178532e+01 6.3150178532e+01 0.0000000000e+00 0.0000e+00 -1.0000e+00
      -13  1    1    2    0    0 +2.4641279464e+02 +8.5569540145e+01 +3.4228078749e+02 4.3034584818e+02 0.0000000000e+00 0.0000e+00 -1.0000e+00
       13  1    1    2    0    0 -2.4641279464e+02 -8.5569540145e+01 +8.7065460438e+02 9.0888990076e+02 0.0000000000e+00 0.0000e+00 1.0000e+00
<mgrwt>
<rscale>  0 0.56775006E+03</rscale>
<asrwt>0</asrwt>
<pdfrwt beam="1">  1        2 0.19632084E+00 0.56775006E+03</pdfrwt>
<pdfrwt beam="2">  1       -2 0.97154130E-02 0.56775006E+03</pdfrwt>
<totfact> 0.13728280E+03</totfact>
</mgrwt>
<rwgt>
<wgt id='morphing_basis_vector_1'> +2.2539861e-04 </wgt>
<wgt id='morphing_basis_vector_2'> +1.3048805e-04 </wgt>
<wgt id='morphing_basis_vector_3'> +1.7245363e-04 </wgt>
<wgt id='morphing_basis_vector_4'> +6.9000777e-05 </wgt>
<wgt id='morphing_basis_vector_5'> +1.0396477e-04 </wgt>
</rwgt>
</event>
<event>
 4      1 +1.0153100e-05 5.65920200e+02 7.81860800e-03 9.26328800e-02
        2 -1    0    0  501    0 +0.0000000000e+00 +0.0000000000e+00 +9.5105916017e+02 9.5105916017e+02 0.0000000000e+00 0.0000e+00 1.0000e+00
       -2 -1    0    0    0  501 -0.0000000000e+00 -0.0000000000e+00 -8.4186576350e+01 8.4186576350e+01 0.0000000000e+00 0.0000e+00 -1.0000e+00
      -13  1    1    2    0    0 +2.9459653106e+01 +1.7901623533e+02 +3.6210824722e+01 1.8500245269e+02 0.0000000000e+00 0.0000e+00 -1.0000e+00
       13  1    1    2    0    0 -2.9459653106e+01 -1.7901623533e+02 +8.3066175910e+02 8.5024328383e+02 0.0000000000e+00 0.0000e+00 1.0000e+00
<mgrwt>
<rscale>  0 0.56592019E+03</rscale>
<asrwt>0</asrwt>
<pdfrwt beam="1">  1        2 0.14631679E+00 0.56592019E+03</pdfrwt>
<pdfrwt beam="2">  1       -2 0.12951782E-01 0.56592019E+03</pdfrwt>
<totfact> 0.13564758E+03</totfact>
</mgrwt>
<rwgt>
<wgt id='morphing_basis_vector_1'> +2.2171154e-04 </wgt>
<wgt id='morphing_basis_vector_2'> +1.2477922e-04 </wgt>
<wgt id='morphing_basis_vector_3'> +1.7055292e-04 </wgt>
<wgt id='morphing_basis_vector_4'> +6.8812654e-05 </wgt>
<wgt id='morphing_basis_vector_5'> +1.0217652e-04 </wgt>
</rwgt>
</event>
<event>
 4      1 +1.0153100e-05 5.68728600e+02 7.81860800e-03 9.25791900e-02
        2 -1    0    0  501    0 +0.0000000000e+00 +0.0000000000e+00 +8.5643952640e+02 8.5643952640e+02 0.0000000000e+00 0.0000e+00 1.0000e+00
       -2 -1    0    0    0  501 -0.0000000000e+00 -0.0000000000e+00 -9.4417700832e+01 9.4417700832e+01 0.0000000000e+00 0.0000e+00 -1.0000e+00
      -13  1    1    2    0    0 -3.9229757564e+00 -2.4872446859e+02 +6.1136813293e+02 6.6003806328e+02 0.0000000000e+00 0.0000e+00 1.0000e+00
       13  1    1    2    0    0 +3.9229757564e+00 +2.4872446859e+02 +1.5065369264e+02 2.9081916395e+02 0.0000000000e+00 0.0000e+00 -1.0000e+00
<mgrwt>
<rscale>  0 0.56872859E+03</rscale>
<asrwt>0</asrwt>
<pdfrwt beam="1">  1        2 0.13175992E+00 0.56872859E+03</pdfrwt>
<pdfrwt beam="2">  1       -2 0.14525801E-01 0.56872859E+03</pdfrwt>
<totfact> 0.12986536E+03</totfact>
</mgrwt>
<rwgt>
<wgt id='morphing_basis_vector_1'> +2.6253237e-04 </wgt>
<wgt id='morphing_basis_vector_2'> +2.4267823e-04 </wgt>
<wgt id='morphing_basis_vector_3'> +1.6983493e-04 </wgt>
<wgt id='morphing_basis_vector_4'> +4.5722989e-05 </wgt>
<wgt id='morphing_basis_vector_5'> +1.0549005e-04 </wgt>
</rwgt>
</event>
<event>
 4      1 +1.0153100e-05 5.84178600e+02 7.81860800e-03 9.22895700e-02
        2 -1    0    0  501    0 +0.0000000000e+00 +0.0000000000e+00 +6.3125702724e+02 6.3125702724e+02 0.0000000000e+00 0.0000e+00 1.0000e+00
       -2 -1    0    0    0  501 -0.0000000000e+00 -0.0000000000e+00 -1.3515282816e+02 1.3515282816e+02 0.0000000000e+00 0.0000e+00 -1.0000e+00
      -13  1    1    2    0    0 +2.0618244605e+02 -8.0295895402e+01 +4.9820909516e+02 5.4513386831e+02 0.0000000000e+00 0.0000e+00 1.0000e+00
       13  1    1    2    0    0 -2.0618244605e+02 +8.0295895402e+01 -2.1048960813e+00 2.2127598710e+02 0.0000000000e+00 0.0000e+00 -1.0000e+00
<mgrwt>
<rscale>  0 0.58417865E+03</rscale>
<asrwt>0</asrwt>
<pdfrwt beam="1">  1        2 0.97116464E-01 0.58417865E+03</pdfrwt>
<pdfrwt beam="2">  1       -2 0.20792743E-01 0.58417865E+03</pdfrwt>
<totfact> 0.10530498E+03</totfact>
</mgrwt>
<rwgt>
<wgt id='morphing_basis_vector_1'> +3.0733589e-04 </wgt>
<wgt id='morphing_basis_vector_2'> +3.3109641e-04 </wgt>
<wgt id='morphing_basis_vector_3'> +1.8934157e-04 </wgt>
<wgt id='morphing_basis_vector_4'> +3.6050335e-05 </wgt>
<wgt id='morphing_basis_vector_5'> +1.2139568e-04 </wgt>
</rwgt>
</event>
<event>
 4      1 +1.0153100e-05 6.11339200e+02 7.81860800e-03 9.18027300e-02
        2 -1    0    0  501    0 +0.0000000000e+00 +0.0000000000e+00 +1.5794035977e+03 1.5794035977e+03 0.0000000000e+00 0.0000e+00 -1.0000e+00
       -2 -1    0    0    0  501 -0.0000000000e+00 -0.0000000000e+00 -5.9157716091e+01 5.9157716091e+01 0.0000000000e+00 0.0000e+00 1.0000e+00
      -13  1    1    2    0    0 +1.2500284892e+02 -2.7715241376e+02 +8.4465755252e+02 8.9771128639e+02 0.0000000000e+00 0.0000e+00 1.0000e+00
       13  1    1    2    0    0 -1.2500284892e+02 +2.7715241376e+02 +6.7558832905e+02 7.4085002736e+02 0.0000000000e+00 0.0000e+00 -1.0000e+00
<mgrwt>
<rscale>  0 0.61133922E+03</rscale>
<asrwt>0</asrwt>
<pdfrwt beam="1">  1        2 0.24298514E+00 0.61133922E+03</pdfrwt>
<pdfrwt beam="2">  1       -2 0.91011883E-02 0.61133922E+03</pdfrwt>
<totfact> 0.10317333E+03</totfact>
</mgrwt>
<rwgt>
<wgt id='morphing_basis_vector_1'> +2.9829399e-04 </wgt>
<wgt id='morphing_basis_vector_2'> +2.0547117e-04 </wgt>
<wgt id='morphing_basis_vector_3'> +2.2844616e-04 </wgt>
<wgt id='morphing_basis_vector_4'> +8.9371150e-05 </wgt>
<wgt id='morphing_basis_vector_5'> +1.5252353e-04 </wgt>
</rwgt>
</event>
<event>
 4      1 +1.0153100e-05 5.44127500e+02 7.81860800e-03 9.30611200e-02
        2 -1    0    0  501    0 +0.0000000000e+00 +0.0000000000e+00 +4.7871476491e+02 4.7871476491e+02 0.0000000000e+00 0.0000e+00 1.0000e+00
       -2 -1    0    0    0  501 -0.0000000000e+00 -0.0000000000e+00 -1.5461957243e+02 1.5461957243e+02 0.0000000000e+00 0.0000e+00 -1.0000e+00
      -13  1    1    2    0    0 -2.2211277903e+02 +1.5709558844e+02 +1.5930262342e+02 3.1526248801e+02 0.0000000000e+00 0.0000e+00 -1.0000e+00
       13  1    1    2    0    0 +2.2211277903e+02 -1.5709558844e+02 +1.6479256905e+02 3.1807184933e+02 0.0000000000e+00 0.0000e+00 1.0000e+00
<mgrwt>
<rscale>  0 0.54412746E+03</rscale>
<asrwt>0</asrwt>
<pdfrwt beam="1">  1        2 0.73648425E-01 0.54412746E+03</pdfrwt>
<pdfrwt beam="2">  1       -2 0.23787627E-01 0.54412746E+03</pdfrwt>
<totfact> 0.11557708E+03</totfact>
</mgrwt>
<rwgt>
<wgt id='morphing_basis_vector_1'> +2.0211856e-04 </wgt>
<wgt id='morphing_basis_vector_2'> +1.2876840e-04 </wgt>
<wgt id='morphing_basis_vector_3'> +1.4629311e-04 </wgt>
<wgt id='morphing_basis_vector_4'> +5.2947278e-05 </wgt>
<wgt id='morphing_basis_vector_5'> +8.2859286e-05 </wgt>
</rwgt>
</event>
<event>
 4      1 +1.0153100e-05 5.99774500e+02 7.81860800e-03 9.20066900e-02
        2 -1    0    0  501    0 +0.0000000000e+00 +0.0000000000e+00 +2.9014711244e+02 2.9014711244e+02 0.0000000000e+00 0.0000e+00 -1.0000e+00
       -2 -1    0    0    0  501 -0.0000000000e+00 -0.0000000000e+00 -3.0995437036e+02 3.0995437036e+02 0.0000000000e+00 0.0000e+00 1.0000e+00
      -13  1    1    2    0    0 -2.8045593022e+01 -2.4113365749e+02 -1.8606883281e+02 3.0586534064e+02 0.0000000000e+00 0.0000e+00 1.0000e+00
       13  1    1    2    0    0 +2.8045593022e+01 +2.4113365749e+02 +1.6626157490e+02 2.9423614215e+02 0.0000000000e+00 0.0000e+00 -1.0000e+00
<mgrwt>
<rscale>  0 0.59977451E+03</rscale>
<asrwt>0</asrwt>
<pdfrwt beam="1">  1        2 0.44638017E-01 0.59977451E+03</pdfrwt>
<pdfrwt beam="2">  1       -2 0.47685288E-01 0.59977451E+03</pdfrwt>
<totfact> 0.58044107E+02</totfact>
</mgrwt>
<rwgt>
<wgt id='morphing_basis_vector_1'> +2.6777934e-04 </wgt>
<wgt id='morphing_basis_vector_2'> +1.5376235e-04 </wgt>
<wgt id='morphing_basis_vector_3'> +2.1182571e-04 </wgt>
<wgt id='morphing_basis_vector_4'> +9.1218511e-05 </wgt>
<wgt id='morphing_basis_vector_5'> +1.3835611e-04 </wgt>
</rwgt>
</event>
<event>
 4      1 +1.0153100e-05 5.45214000e+02 7.81860800e-03 9.30392700e-02
        2 -1    0    0  501    0 +0.0000000000e+00 +0.0000000000e+00 +8.8620087810e+01 8.8620087810e+01 0.0000000000e+00 0.0000e+00 -1.0000e+00
       -2 -1    0    0    0  501 -0.0000000000e+00 -0.0000000000e+00 -8.3857482610e+02 8.3857482610e+02 0.0000000000e+00 0.0000e+00 1.0000e+00
      -13  1    1    2    0    0 +1.3810938174e+02 +2.3118783731e+02 -4.4697870721e+02 5.2183520593e+02 0.0000000000e+00 0.0000e+00 1.0000e+00
       13  1    1    2    0    0 -1.3810938174e+02 -2.3118783731e+02 -3.0297603108e+02 4.0535970798e+02 0.0000000000e+00 0.0000e+00 -1.0000e+00
<mgrwt>
<rscale>  0 0.54521399E+03</rscale>
<asrwt>0</asrwt>
<pdfrwt beam="1">  1        2 0.13633860E-01 0.54521399E+03</pdfrwt>
<pdfrwt beam="2">  1       -2 0.12901151E+00 0.54521399E+03</pdfrwt>
<totfact> 0.25235426E+02</totfact>
</mgrwt>
<rwgt>
<wgt id='morphing_basis_vector_1'> +2.0067625e-04 </wgt>
<wgt id='morphing_basis_vector_2'> +1.2120587e-04 </wgt>
<wgt id='morphing_basis_vector_3'> +1.4794820e-04 </wgt>
<wgt id='morphing_basis_vector_4'> +5.5039171e-05 </wgt>
<wgt id='morphing_basis_vector_5'> +8.3696767e-05 </wgt>
</rwgt>
</event>
<event>
 4      1 +1.0153100e-05 6.02137800e+02 7.81860800e-03 9.19646200e-02
        2 -1    0    0  501    0 +0.0000000000e+00 +0.0000000000e+00 +3.3690851373e+03 3.3690851373e+03 0.0000000000e+00 0.0000e+00 1.0000e+00
       -2 -1    0    0    0  501 -0.0000000000e+00 -0.0000000000e+00 -2.6904178430e+01 2.6904178430e+01 0.0000000000e+00 0.0000e+00 -1.0000e+00
      -13  1    1    2    0    0 +2.6748497401e+02 -1.3669588421e+02 +1.5571017206e+03 1.5858120142e+03 0.0000000000e+00 0.0000e+00 -1.0000e+00
       13  1    1    2    0    0 -2.6748497401e+02 +1.3669588421e+02 +1.7850792382e+03 1.8101773015e+03 0.0000000000e+00 0.0000e+00 1.0000e+00
<mgrwt>
<rscale>  0 0.60213775E+03</rscale>
<asrwt>0</asrwt>
<pdfrwt beam="1">  1        2 0.51832046E+00 0.60213775E+03</pdfrwt>
<pdfrwt beam="2">  1       -2 0.41391070E-02 0.60213775E+03</pdfrwt>
<totfact> 0.30225592E+02</totfact>
</mgrwt>
<rwgt>
<wgt id='morphing_basis_vector_1'> +2.7774893e-04 </wgt>
<wgt id='morphing_basis_vector_2'> +1.7608065e-04 </wgt>
<wgt id='morphing_basis_vector_3'> +2.1516105e-04 </wgt>
<wgt id='morphing_basis_vector_4'> +8.7914647e-05 </wgt>
<wgt id='morphing_basis_vector_5'> +1.4119826e-04 </wgt>
</rwgt>
</event>
<event>
 4      1 +1.0153100e-05 5.55836300e+02 7.81860800e-03 9.28284400e-02
        2 -1    0    0  501    0 +0.0000000000e+00 +0.0000000000e+00 +3.9936555845e+02 3.9936555845e+02 0.0000000000e+00 0.0000e+00 1.0000e+00
       -2 -1    0    0    0  501 -0.0000000000e+00 -0.0000000000e+00 -1.9340299694e+02 1.9340299694e+02 0.0000000000e+00 0.0000e+00 -1.0000e+00
      -13  1    1    2    0    0 -1.6565601463e+02 -1.9384910976e+01 -1.3409776450e+02 2.1400911289e+02 0.0000000000e+00 0.0000e+00 -1.0000e+00
       13  1    1    2    0    0 +1.6565601463e+02 +1.9384910976e+01 +3.4006032601e+02 3.7875944250e+02 0.0000000000e+00 0.0000e+00 1.0000e+00
<mgrwt>
<rscale>  0 0.55583629E+03</rscale>
<asrwt>0</asrwt>
<pdfrwt beam="1">  1        2 0.61440855E-01 0.55583629E+03</pdfrwt>
<pdfrwt beam="2">  1       -2 0.29754307E-01 0.55583629E+03</pdfrwt>
<totfact> 0.96378966E+02</totfact>
</mgrwt>
<rwgt>
<wgt id='morphing_basis_vector_1'> +2.0939703e-04 </wgt>
<wgt id='morphing_basis_vector_2'> +1.1733412e-04 </wgt>
<wgt id='morphing_basis_vector_3'> +1.5960170e-04 </wgt>
<wgt id='morphing_basis_vector_4'> +6.2935132e-05 </wgt>
<wgt id='morphing_basis_vector_5'> +9.2815011e-05 </wgt>
</rwgt>
</event>
<event>
 4      1 +1.0153100e-05 5.46944400e+02 7.81860800e-03 9.30045800e-02
        2 -1    0    0  501    0 +0.0000000000e+00 +0.0000000000e+00 +1.2934940032e+03 1.2934940032e+03 0.0000000000e+00 0.0000e+00 -1.0000e+00
       -2 -1    0    0    0  501 -0.0000000000e+00 -0.0000000000e+00 -5.7817860992e+01 5.7817860992e+01 0.0000000000e+00 0.0000e+00 1.0000e+00
      -13  1    1    2    0    0 +3.6278023022e+01 +2.6564351803e+02 +7.5098979137e+02 7.9741346889e+02 0.0000000000e+00 0.0000e+00 1.0000e+00
       13  1    1    2    0    0 -3.6278023022e+01 -2.6564351803e+02 +4.8468635084e+02 5.5389839531e+02 0.0000000000e+00 0.0000e+00 -1.0000e+00
<mgrwt>
<rscale>  0 0.54694444E+03</rscale>
<asrwt>0</asrwt>
<pdfrwt beam="1">  1        2 0.19899906E+00 0.54694444E+03</pdfrwt>
<pdfrwt beam="2">  1       -2 0.88950565E-02 0.54694444E+03</pdfrwt>
<totfact> 0.15409971E+03</totfact>
</mgrwt>
<rwgt>
<wgt id='morphing_basis_vector_1'> +2.1226916e-04 </wgt>
<wgt id='morphing_basis_vector_2'> +1.5227082e-04 </wgt>
<wgt id='morphing_basis_vector_3'> +1.4782483e-04 </wgt>
<wgt id='morphing_basis_vector_4'> +5.0292971e-05 </wgt>
<wgt id='morphing_basis_vector_5'> +8.5377988e-05 </wgt>
</rwgt>
</event>
<event>
 4      1 +1.0153100e-05 5.62576200e+02 7.81860800e-03 9.26972500e-02
        2 -1    0    0  501    0 +0.0000000000e+00 +0.0000000000e+00 +1.6245150833e+03 1.6245150833e+03 0.0000000000e+00 0.0000e+00 -1.0000e+00
       -2 -1    0    0    0  501 -0.0000000000e+00 -0.0000000000e+00 -4.8705612839e+01 4.8705612839e+01 0.0000000000e+00 0.0000e+00 1.0000e+00
      -13  1    1    2    0    0 -6.1401417682e+01 -2.0903936884e+02 +2.5873398654e+02 3.3824675551e+02 0.0000000000e+00 0.0000e+00 1.0000e+00
       13  1    1    2    0    0 +6.1401417682e+01 +2.0903936884e+02 +1.3170754839e+03 1.3349739406e+03 0.0000000000e+00 0.0000e+00 -1.0000e+00
<mgrwt>
<rscale>  0 0.56257623E+03</rscale>
<asrwt>0</asrwt>
<pdfrwt beam="1">  1        2 0.24992536E+00 0.56257623E+03</pdfrwt>
<pdfrwt beam="2">  1       -2 0.74931724E-02 0.56257623E+03</pdfrwt>
<totfact> 0.13207361E+03</totfact>
</mgrwt>
<rwgt>
<wgt id='morphing_basis_vector_1'> +2.1784513e-04 </wgt>
<wgt id='morphing_basis_vector_2'> +1.2314037e-04 </wgt>
<wgt id='morphing_basis_vector_3'> +1.6681975e-04 </wgt>
<wgt id='morphing_basis_vector_4'> +6.6640406e-05 </wgt>
<wgt id='morphing_basis_vector_5'> +9.9008619e-05 </wgt>
</rwgt>
</event>
<event>
 4      1 +1.0153100e-05 5.20779500e+02 7.81860800e-03 9.35443200e-02
        2 -1    0    0  501    0 +0.0000000000e+00 +0.0000000000e+00 +1.3760475941e+02 1.3760475941e+02 0.0000000000e+00 0.0000e+00 -1.0000e+00
       -2 -1    0    0    0  501 -0.0000000000e+00 -0.0000000000e+00 -4.9273606054e+02 4.9273606054e+02 0.0000000000e+00 0.0000e+00 1.0000e+00
      -13  1    1    2    0    0 +2.1636595829e+02 +1.5425337539e+01 -3.5192188181e+02 4.1340195916e+02 0.0000000000e+00 0.0000e+00 1.0000e+00
       13  1    1    2    0    0 -2.1636595829e+02 -1.5425337539e+01 -3.2094193193e+00 2.1693886078e+02 0.0000000000e+00 0.0000e+00 -1.0000e+00
<mgrwt>
<rscale>  0 0.52077952E+03</rscale>
<asrwt>0</asrwt>
<pdfrwt beam="1">  1        2 0.21169963E-01 0.52077952E+03</pdfrwt>
<pdfrwt beam="2">  1       -2 0.75805548E-01 0.52077952E+03</pdfrwt>
<totfact> 0.53182405E+02</totfact>
</mgrwt>
<rwgt>
<wgt id='morphing_basis_vector_1'> +1.7141070e-04 </wgt>
<wgt id='morphing_basis_vector_2'> +9.5999583e-05 </wgt>
<wgt id='morphing_basis_vector_3'> +1.2571345e-04 </wgt>
<wgt id='morphing_basis_vector_4'> +4.5060099e-05 </wgt>
<wgt id='morphing_basis_vector_5'> +6.4848268e-05 </wgt>
</rwgt>
</event>
<event>
 4      1 +1.0153100e-05 5.43957500e+02 7.81860800e-03 9.30645500e-02
        2 -1    0    0  501    0 +0.0000000000e+00 +0.0000000000e+00 +2.8891411891e+02 2.8891411891e+02 0.0000000000e+00 0.0000e+00 -1.0000e+00
       -2 -1    0    0    0  501 -0.0000000000e+00 -0.0000000000e+00 -2.5603604795e+02 2.5603604795e+02 0.0000000000e+00 0.0000e+00 1.0000e+00
      -13  1    1    2    0    0 +1.6634238942e+02 -3.1706108785e+01 -1.9678114468e+02 2.5961102972e+02 0.0000000000e+00 0.0000e+00 1.0000e+00
       13  1    1    2    0    0 -1.6634238942e+02 +3.1706108785e+01 +2.2965921565e+02 2.8533913714e+02 0.0000000000e+00 0.0000e+00 -1.0000e+00
<mgrwt>
<rscale>  0 0.54395746E+03</rscale>
<asrwt>0</asrwt>
<pdfrwt beam="1">  1        2 0.44448326E-01 0.54395746E+03</pdfrwt>
<pdfrwt beam="2">  1       -2 0.39390161E-01 0.54395746E+03</pdfrwt>
<totfact> 0.83683205E+02</totfact>
</mgrwt>
<rwgt>
<wgt id='morphing_basis_vector_1'> +1.9567496e-04 </wgt>
<wgt id='morphing_basis_vector_2'> +1.0923548e-04 </wgt>
<wgt id='morphing_basis_vector_3'> +1.4742687e-04 </wgt>
<wgt id='morphing_basis_vector_4'> +5.6455997e-05 </wgt>
<wgt id='morphing_basis_vector_5'> +8.2563708e-05 </wgt>
</rwgt>
</event>
<event>
 4      1 +1.0153100e-05 5.70162800e+02 7.81860800e-03 9.25519000e-02
        2 -1    0    0  501    0 +0.0000000000e+00 +0.0000000000e+00 +7.8808315935e+02 7.8808315935e+02 0.0000000000e+00 0.0000e+00 1.0000e+00
       -2 -1    0    0    0  501 -0.0000000000e+00 -0.0000000000e+00 -1.0312541078e+02 1.0312541078e+02 0.0000000000e+00 0.0000e+00 -1.0000e+00
      -13  1    1    2    0    0 -1.3062608640e+02 -2.3518340976e+02 +1.9504339276e+02 3.3228953601e+02 0.0000000000e+00 0.0000e+00 -1.0000e+00
       13  1    1    2    0    0 +1.3062608640e+02 +2.3518340976e+02 +4.8991435581e+02 5.5891903413e+02 0.0000000000e+00 0.0000e+00 1.0000e+00
<mgrwt>
<rscale>  0 0.57016278E+03</rscale>
<asrwt>0</asrwt>
<pdfrwt beam="1">  1        2 0.12124356E+00 0.57016278E+03</pdfrwt>
<pdfrwt beam="2">  1       -2 0.15865448E-01 0.57016278E+03</pdfrwt>
<totfact> 0.12533986E+03</totfact>
</mgrwt>
<rwgt>
<wgt id='morphing_basis_vector_1'> +2.2898626e-04 </wgt>
<wgt id='morphing_basis_vector_2'> +1.3398816e-04 </wgt>
<wgt id='morphing_basis_vector_3'> +1.7514978e-04 </wgt>
<wgt id='morphing_basis_vector_4'> +7.0114514e-05 </wgt>
<wgt id='morphing_basis_vector_5'> +1.0633167e-04 </wgt>
</rwgt>
</event>
<event>
 4      1 +1.0153100e-05 6.03266100e+02 7.81860800e-03 9.19446000e-02
        2 -1    0    0  501    0 +0.0000000000e+00 +0.0000000000e+00 +3.7906170581e+02 3.7906170581e+02 0.0000000000e+00 0.0000e+00 -1.0000e+00
       -2 -1    0    0    0  501 -0.0000000000e+00 -0.0000000000e+00 -2.4002028485e+02 2.4002028485e+02 0.0000000000e+00 0.0000e+00 1.0000e+00
      -13  1    1    2    0    0 +2.5096826702e+01 +1.1230913517e+02 -2.1660677270e+02 2.4527879349e+02 0.0000000000e+00 0.0000e+00 1.0000e+00
       13  1    1    2    0    0 -2.5096826702e+01 -1.1230913517e+02 +3.5564819367e+02 3.7380319717e+02 0.0000000000e+00 0.0000e+00 -1.0000e+00
<mgrwt>
<rscale>  0 0.60326611E+03</rscale>
<asrwt>0</asrwt>
<pdfrwt beam="1">  1        2 0.58317185E-01 0.60326611E+03</pdfrwt>
<pdfrwt beam="2">  1       -2 0.36926198E-01 0.60326611E+03</pdfrwt>
<totfact> 0.69455263E+02</totfact>
</mgrwt>
<rwgt>
<wgt id='morphing_basis_vector_1'> +2.7221774e-04 </wgt>
<wgt id='morphing_basis_vector_2'> +1.5479951e-04 </wgt>
<wgt id='morphing_basis_vector_3'> +2.1648133e-04 </wgt>
<wgt id='morphing_basis_vector_4'> +9.4357768e-05 </wgt>
<wgt id='morphing_basis_vector_5'> +1.4252581e-04 </wgt>
</rwgt>
</event>
<event>
 4      1 +1.0153100e-05 5.85608300e+02 7.81860800e-03 9.22632600e-02
        2 -1    0    0  501    0 +0.0000000000e+00 +0.0000000000e+00 +7.3342799968e+01 7.3342799968e+01 0.0000000000e+00 0.0000e+00 1.0000e+00
       -2 -1    0    0    0  501 -0.0000000000e+00 -0.0000000000e+00 -1.1689528439e+03 1.1689528439e+03 0.0000000000e+00 0.0000e+00 -1.0000e+00
      -13  1    1    2    0    0 +2.1689856428e+02 +1.9345660432e+02 -6.2322076251e+02 6.8765875532e+02 0.0000000000e+00 0.0000e+00 -1.0000e+00
       13  1    1    2    0    0 -2.1689856428e+02 -1.9345660432e+02 -4.7238928142e+02 5.5463688855e+02 0.0000000000e+00 0.0000e+00 1.0000e+00
<mgrwt>
<rscale>  0 0.58560831E+03</rscale>
<asrwt>0</asrwt>
<pdfrwt beam="1">  1        2 0.11283509E-01 0.58560831E+03</pdfrwt>
<pdfrwt beam="2">  1       -2 0.17983888E+00 0.58560831E+03</pdfrwt>
<totfact> 0.12320552E+02</totfact>
</mgrwt>
<rwgt>
<wgt id='morphing_basis_vector_1'> +2.5255036e-04 </wgt>
<wgt id='morphing_basis_vector_2'> +1.5625777e-04 </wgt>
<wgt id='morphing_basis_vector_3'> +1.9349458e-04 </wgt>
<wgt id='morphing_basis_vector_4'> +7.7741008e-05 </wgt>
<wgt id='morphing_basis_vector_5'> +1.2234287e-04 </wgt>
</rwgt>
</event>
<event>
 4      1 +1.0153100e-05 5.57721700e+02 7.81860800e-03 9.27915400e-02
        2 -1    0    0  501    0 +0.0000000000e+00 +0.0000000000e+00 +1.4860244784e+02 1.4860244784e+02 0.0000000000e+00 0.0000e+00 -1.0000e+00
       -2 -1    0    0    0  501 -0.0000000000e+00 -0.0000000000e+00 -5.2329811182e+02 5.2329811182e+02 0.0000000000e+00 0.0000e+00 1.0000e+00
      -13  1    1    2    0    0 +1.9357944452e+02 -1.5215403776e+02 -3.4506786826e+02 4.2390527981e+02 0.0000000000e+00 0.0000e+00 1.0000e+00
       13  1    1    2    0    0 -1.9357944452e+02 +1.5215403776e+02 -2.9627795715e+01 2.4799527985e+02 0.0000000000e+00 0.0000e+00 -1.0000e+00
<mgrwt>
<rscale>  0 0.55772172E+03</rscale>
<asrwt>0</asrwt>
<pdfrwt beam="1">  1        2 0.22861915E-01 0.55772172E+03</pdfrwt>
<pdfrwt beam="2">  1       -2 0.80507403E-01 0.55772172E+03</pdfrwt>
<totfact> 0.42442454E+02</totfact>
</mgrwt>
<rwgt>
<wgt id='morphing_basis_vector_1'> +2.1256222e-04 </wgt>
<wgt id='morphing_basis_vector_2'> +1.2151115e-04 </wgt>
<wgt id='morphing_basis_vector_3'> +1.6146909e-04 </wgt>
<wgt id='morphing_basis_vector_4'> +6.3438207e-05 </wgt>
<wgt id='morphing_basis_vector_5'> +9.4536641e-05 </wgt>
</rwgt>
</event>
<event>
 4      1 +1.0153100e-05 5.78405200e+02 7.81860800e-03 9.23966800e-02
        2 -1    0    0  501    0 +0.0000000000e+00 +0.0000000000e+00 +4.6143133353e+02 4.6143133353e+02 0.0000000000e+00 0.0000e+00 1.0000e+00
       -2 -1    0    0    0  501 -0.0000000000e+00 -0.0000000000e+00 -1.8125805945e+02 1.8125805945e+02 0.0000000000e+00 0.0000e+00 -1.0000e+00
      -13  1    1    2    0    0 -1.2390515374e+02 -1.8875516125e+02 -6.0710757617e+01 2.3380931143e+02 0.0000000000e+00 0.0000e+00 -1.0000e+00
       13  1    1    2    0    0 +1.2390515374e+02 +1.8875516125e+02 +3.4088403170e+02 4.0888008155e+02 0.0000000000e+00 0.0000e+00 1.0000e+00
<mgrwt>
<rscale>  0 0.57840521E+03</rscale>
<asrwt>0</asrwt>
<pdfrwt beam="1">  1        2 0.70989436E-01 0.57840521E+03</pdfrwt>
<pdfrwt beam="2">  1       -2 0.27885855E-01 0.57840521E+03</pdfrwt>
<totfact> 0.91737540E+02</totfact>
</mgrwt>
<rwgt>
<wgt id='morphing_basis_vector_1'> +2.3803344e-04 </wgt>
<wgt id='morphing_basis_vector_2'> +1.3535755e-04 </wgt>
<wgt id='morphing_basis_vector_3'> +1.8492588e-04 </wgt>
<wgt id='morphing_basis_vector_4'> +7.6446759e-05 </wgt>
<wgt id='morphing_basis_vector_5'> +1.1464573e-04 </wgt>
</rwgt>
</event>
<event>
 4      1 +1.0153100e-05 5.66929800e+02 7.81860800e-03 9.26135400e-02
        2 -1    0    0  501    0 +0.0000000000e+00 +0.0000000000e+00 +5.2718089091e+01 5.2718089091e+01 0.0000000000e+00 0.0000e+00 -1.0000e+00
       -2 -1    0    0    0  501 -0.0000000000e+00 -0.0000000000e+00 -1.5241892380e+03 1.5241892380e+03 0.0000000000e+00 0.0000e+00 1.0000e+00
      -13  1    1    2    0    0 -1.5392270991e+02 -2.3601107258e+02 -8.2186814676e+02 8.6882718515e+02 0.0000000000e+00 0.0000e+00 -1.0000e+00
       13  1    1    2    0    0 +1.5392270991e+02 +2.3601107258e+02 -6.4960300214e+02 7.0808014192e+02 0.0000000000e+00 0.0000e+00 1.0000e+00
<mgrwt>
<rscale>  0 0.56692978E+03</rscale>
<asrwt>0</asrwt>
<pdfrwt beam="1">  1        2 0.81104742E-02 0.56692978E+03</pdfrwt>
<pdfrwt beam="2">  1       -2 0.23449068E+00 0.56692978E+03</pdfrwt>
<totfact> 0.76458813E+01</totfact>
</mgrwt>
<rwgt>
<wgt id='morphing_basis_vector_1'> +2.2784601e-04 </wgt>
<wgt id='morphing_basis_vector_2'> +1.4066414e-04 </wgt>
<wgt id='morphing_basis_vector_3'> +1.7113998e-04 </wgt>
<wgt id='morphing_basis_vector_4'> +6.6215039e-05 </wgt>
<wgt id='morphing_basis_vector_5'> +1.0322892e-04 </wgt>
</rwgt>
</event>
<event>
 4      1 +1.0153100e-05 5.98305300e+02 7.81860800e-03 9.20329500e-02
        2 -1    0    0  501    0 +0.0000000000e+00 +0.0000000000e+00 +1.4565212560e+03 1.4565212560e+03 0.0000000000e+00 0.0000e+00 -1.0000e+00
       -2 -1    0    0    0  501 -0.0000000000e+00 -0.0000000000e+00 -6.1442493672e+01 6.1442493672e+01 0.0000000000e+00 0.0000e+00 1.0000e+00
      -13  1    1    2    0    0 -2.1739091789e+02 -1.4688708489e+02 +3.3288683156e+02 4.2384934767e+02 0.0000000000e+00 0.0000e+00 1.0000e+00
       13  1    1    2    0    0 +2.1739091789e+02 +1.4688708489e+02 +1.0621919308e+03 1.0941144020e+03 0.0000000000e+00 0.0000e+00 -1.0000e+00
<mgrwt>
<rscale>  0 0.59830527E+03</rscale>
<asrwt>0</asrwt>
<pdfrwt beam="1">  1        2 0.22408017E+00 0.59830527E+03</pdfrwt>
<pdfrwt beam="2">  1       -2 0.94526924E-02 0.59830527E+03</pdfrwt>
<totfact> 0.11361857E+03</totfact>
</mgrwt>
<rwgt>
<wgt id='morphing_basis_vector_1'> +2.6619360e-04 </wgt>
<wgt id='morphing_basis_vector_2'> +1.5414357e-04 </wgt>
<wgt id='morphing_basis_vector_3'> +2.0988877e-04 </wgt>
<wgt id='morphing_basis_vector_4'> +8.9720182e-05 </wgt>
<wgt id='morphing_basis_vector_5'> +1.3662912e-04 </wgt>
</rwgt>
</event>
<event>
 4      1 +1.0153100e-05 5.93676800e+02 7.81860800e-03 9.21162000e-02
        2 -1    0    0  501    0 +0.0000000000e+00 +0.0000000000e+00 +7.6180397674e+02 7.6180397674e+02 0.0000000000e+00 0.0000e+00 1.0000e+00
       -2 -1    0    0    0  501 -0.0000000000e+00 -0.0000000000e+00 -1.1566367463e+02 1.1566367463e+02 0.0000000000e+00 0.0000e+00 -1.0000e+00
      -13  1    1    2    0    0 +4.1915849310e+01 -1.4185362516e+02 -5.7312217930e+01 1.5863190007e+02 0.0000000000e+00 0.0000e+00 -1.0000e+00
       13  1    1    2    0    0 -4.1915849310e+01 +1.4185362516e+02 +7.0345252005e+02 7.1883575130e+02 0.0000000000e+00 0.0000e+00 1.0000e+00
<mgrwt>
<rscale>  0 0.59367684E+03</rscale>
<asrwt>0</asrwt>
<pdfrwt beam="1">  1        2 0.11720061E+00 0.59367684E+03</pdfrwt>
<pdfrwt beam="2">  1       -2 0.17794412E-01 0.59367684E+03</pdfrwt>
<totfact> 0.10845408E+03</totfact>
</mgrwt>
<rwgt>
<wgt id='morphing_basis_vector_1'> +2.5843700e-04 </wgt>
<wgt id='morphing_basis_vector_2'> +1.4656428e-04 </wgt>
<wgt id='morphing_basis_vector_3'> +2.0385294e-04 </wgt>
<wgt id='morphing_basis_vector_4'> +8.7232662e-05 </wgt>
<wgt id='morphing_basis_vector_5'> +1.3127012e-04 </wgt>
</rwgt>
</event>
<event>
 4      1 +1.0153100e-05 5.90465300e+02 7.81860800e-03 9.21744300e-02
        2 -1    0    0  501    0 +0.0000000000e+00 +0.0000000000e+00 +2.2851509235e+02 2.2851509235e+02 0.0000000000e+00 0.0000e+00 1.0000e+00
       -2 -1    0    0    0  501 -0.0000000000e+00 -0.0000000000e+00 -3.8142912882e+02 3.8142912882e+02 0.0000000000e+00 0.0000e+00 -1.0000e+00
      -13  1    1    2    0    0 +9.9897408306e+01 -2.3140564110e+02 -2.3526292895e+02 3.4478501803e+02 0.0000000000e+00 0.0000e+00 -1.0000e+00
       13  1    1    2    0    0 -9.9897408306e+01 +2.3140564110e+02 +8.2348892480e+01 2.6515920314e+02 0.0000000000e+00 0.0000e+00 1.0000e+00
<mgrwt>
<rscale>  0 0.59046528E+03</rscale>
<asrwt>0</asrwt>
<pdfrwt beam="1">  1        2 0.35156169E-01 0.59046528E+03</pdfrwt>
<pdfrwt beam="2">  1       -2 0.58681403E-01 0.59046528E+03</pdfrwt>
<totfact> 0.50472856E+02</totfact>
</mgrwt>
<rwgt>
<wgt id='morphing_basis_vector_1'> +2.5482607e-04 </wgt>
<wgt id='morphing_basis_vector_2'> +1.4660617e-04 </wgt>
<wgt id='morphing_basis_vector_3'> +1.9974120e-04 </wgt>
<wgt id='morphing_basis_vector_4'> +8.4289045e-05 </wgt>
<wgt id='morphing_basis_vector_5'> +1.2765017e-04 </wgt>
</rwgt>
</event>
<event>
 4      1 +1.0153100e-05 6.13448200e+02 7.81860800e-03 9.17660500e-02
        2 -1    0    0  501    0 +0.0000000000e+00 +0.0000000000e+00 +7.4529600394e+02 7.4529600394e+02 0.0000000000e+00 0.0000e+00 -1.0000e+00
       -2 -1    0    0    0  501 -0.0000000000e+00 -0.0000000000e+00 -1.2623130087e+02 1.2623130087e+02 0.0000000000e+00 0.0000e+00 1.0000e+00
      -13  1    1    2    0    0 -2.9182240244e+02 -8.8753290464e+01 +2.6366714033e+02 4.0318460043e+02 0.0000000000e+00 0.0000e+00 1.0000e+00
       13  1    1    2    0    0 +2.9182240244e+02 +8.8753290464e+01 +3.5539756275e+02 4.6834270438e+02 0.0000000000e+00 0.0000e+00 -1.0000e+00
<mgrwt>
<rscale>  0 0.61344823E+03</rscale>
<asrwt>0</asrwt>
<pdfrwt beam="1">  1        2 0.11466092E+00 0.61344823E+03</pdfrwt>
<pdfrwt beam="2">  1       -2 0.19420201E-01 0.61344823E+03</pdfrwt>
<totfact> 0.96461057E+02</totfact>
</mgrwt>
<rwgt>
<wgt id='morphing_basis_vector_1'> +2.9416812e-04 </wgt>
<wgt id='morphing_basis_vector_2'> +1.8463826e-04 </wgt>
<wgt id='morphing_basis_vector_3'> +2.3101855e-04 </wgt>
<wgt id='morphing_basis_vector_4'> +9.6951639e-05 </wgt>
<wgt id='morphing_basis_vector_5'> +1.5519682e-04 </wgt>
</rwgt>
</event>
<event>
 4      1 +1.0153100e-05 5.78862400e+02 7.81860800e-03 9.23881500e-02
        2 -1    0    0  501    0 +0.0000000000e+00 +0.0000000000e+00 +1.5581981637e+03 1.5581981637e+03 0.0000000000e+00 0.0000e+00 -1.0000e+00
       -2 -1    0    0    0  501 -0.0000000000e+00 -0.0000000000e+00 -5.3761082916e+01 5.3761082916e+01 0.0000000000e+00 0.0000e+00 1.0000e+00
      -13  1    1    2    0    0 -1.2103398241e+02 -2.6286002710e+02 +7.3807347817e+02 7.9277807609e+02 0.0000000000e+00 0.0000e+00 1.0000e+00
       13  1    1    2    0    0 +1.2103398241e+02 +2.6286002710e+02 +7.6636360265e+02 8.1918117057e+02 0.0000000000e+00 0.0000e+00 -1.0000e+00
<mgrwt>
<rscale>  0 0.57886240E+03</rscale>
<asrwt>0</asrwt>
<pdfrwt beam="1">  1        2 0.23972276E+00 0.57886240E+03</pdfrwt>
<pdfrwt beam="2">  1       -2 0.82709370E-02 0.57886240E+03</pdfrwt>
<totfact> 0.12312264E+03</totfact>
</mgrwt>
<rwgt>
<wgt id='morphing_basis_vector_1'> +2.4573253e-04 </wgt>
<wgt id='morphing_basis_vector_2'> +1.5774057e-04 </wgt>
<wgt id='morphing_basis_vector_3'> +1.8502581e-04 </wgt>
<wgt id='morphing_basis_vector_4'> +7.1777747e-05 </wgt>
<wgt id='morphing_basis_vector_5'> +1.1520888e-04 </wgt>
</rwgt>
</event>
<event>
 4      1 +1.0153100e-05 5.66128100e+02 7.81860800e-03 9.26289000e-02
        2 -1    0    0  501    0 +0.0000000000e+00 +0.0000000000e+00 +1.1489556515e+03 1.1489556515e+03 0.0000000000e+00 0.0000e+00 1.0000e+00
       -2 -1    0    0    0  501 -0.0000000000e+00 -0.0000000000e+00 -6.9737476339e+01 6.9737476339e+01 0.0000000000e+00 0.0000e+00 -1.0000e+00
      -13  1    1    2    0    0 -1.9287954104e+02 +1.4668927849e+02 +2.2466221881e+02 3.3044420760e+02 0.0000000000e+00 0.0000e+00 -1.0000e+00
       13  1    1    2    0    0 +1.9287954104e+02 -1.4668927849e+02 +8.5455595637e+02 8.8824892026e+02 0.0000000000e+00 0.0000e+00 1.0000e+00
<mgrwt>
<rscale>  0 0.56612814E+03</rscale>
<asrwt>0</asrwt>
<pdfrwt beam="1">  1        2 0.17676239E+00 0.56612814E+03</pdfrwt>
<pdfrwt beam="2">  1       -2 0.10728843E-01 0.56612814E+03</pdfrwt>
<totfact> 0.13890447E+03</totfact>
</mgrwt>
<rwgt>
<wgt id='morphing_basis_vector_1'> +2.2265721e-04 </wgt>
<wgt id='morphing_basis_vector_2'> +1.2706545e-04 </wgt>
<wgt id='morphing_basis_vector_3'> +1.7070640e-04 </wgt>
<wgt id='morphing_basis_vector_4'> +6.8488286e-05 </wgt>
<wgt id='morphing_basis_vector_5'> +1.0238770e-04 </wgt>
</rwgt>
</event>
<event>
 4      1 +1.0153100e-05 5.68982600e+02 7.81860800e-03 9.25743500e-02
        2 -1    0    0  501    0 +0.0000000000e+00 +0.0000000000e+00 +1.2675600743e+03 1.2675600743e+03 0.0000000000e+00 0.0000e+00 -1.0000e+00
       -2 -1    0    0    0  501 -0.0000000000e+00 -0.0000000000e+00 -6.3851248396e+01 6.3851248396e+01 0.0000000000e+00 0.0000e+00 1.0000e+00
      -13  1    1    2    0    0 -1.2270451999e+02 +1.9360565048e+02 +2.0754248024e+02 3.0921421091e+02 0.0000000000e+00 0.0000e+00 1.0000e+00
       13  1    1    2    0    0 +1.2270451999e+02 -1.9360565048e+02 +9.9616634568e+02 1.0221971118e+03 0.0000000000e+00 0.0000e+00 -1.0000e+00
<mgrwt>
<rscale>  0 0.56898258E+03</rscale>
<asrwt>0</asrwt>
<pdfrwt beam="1">  1        2 0.19500922E+00 0.56898258E+03</pdfrwt>
<pdfrwt beam="2">  1       -2 0.98232699E-02 0.56898258E+03</pdfrwt>
<totfact> 0.13642592E+03</totfact>
</mgrwt>
<rwgt>
<wgt id='morphing_basis_vector_1'> +2.2595531e-04 </wgt>
<wgt id='morphing_basis_vector_2'> +1.2832511e-04 </wgt>
<wgt id='morphing_basis_vector_3'> +1.7395610e-04 </wgt>
<wgt id='morphing_basis_vector_4'> +7.0414859e-05 </wgt>
<wgt id='morphing_basis_vector_5'> +1.0514925e-04 </wgt>
</rwgt>
</event>
<event>
 4      1 +1.0153100e-05 6.07114800e+02 7.81860800e-03 9.18766800e-02
        2 -1    0    0  501    0 +0.0000000000e+00 +0.0000000000e+00 +9.9988614879e+02 9.9988614879e+02 0.0000000000e+00 0.0000e+00 -1.0000e+00
       -2 -1    0    0    0  501 -0.0000000000e+00 -0.0000000000e+00 -9.2157595082e+01 9.2157595082e+01 0.0000000000e+00 0.0000e+00 1.0000e+00
      -13  1    1    2    0    0 -1.8069875072e+02 +1.4793504124e+02 +1.0502729058e+02 2.5606160724e+02 0.0000000000e+00 0.0000e+00 1.0000e+00
       13  1    1    2    0    0 +1.8069875072e+02 -1.4793504124e+02 +8.0270126313e+02 8.3598213663e+02 0.0000000000e+00 0.0000e+00 -1.0000e+00
<mgrwt>
<rscale>  0 0.60711483E+03</rscale>
<asrwt>0</asrwt>
<pdfrwt beam="1">  1        2 0.15382863E+00 0.60711483E+03</pdfrwt>
<pdfrwt beam="2">  1       -2 0.14178092E-01 0.60711483E+03</pdfrwt>
<totfact> 0.10936215E+03</totfact>
</mgrwt>
<rwgt>
<wgt id='morphing_basis_vector_1'> +2.7841682e-04 </wgt>
<wgt id='morphing_basis_vector_2'> +1.5977204e-04 </wgt>
<wgt id='morphing_basis_vector_3'> +2.2174294e-04 </wgt>
<wgt id='morphing_basis_vector_4'> +9.6933753e-05 </wgt>
<wgt id='morphing_basis_vector_5'> +1.4722746e-04 </wgt>
</rwgt>
</event>
<event>
 4      1 +1.0153100e-05 5.42467300e+02 7.81860800e-03 9.30946200e-02
        2 -1    0    0  501    0 +0.0000000000e+00 +0.0000000000e+00 +3.9948313844e+02 3.9948313844e+02 0.0000000000e+00 0.0000e+00 1.0000e+00
       -2 -1    0    0    0  501 -0.0000000000e+00 -0.0000000000e+00 -1.8415719882e+02 1.8415719882e+02 0.0000000000e+00 0.0000e+00 -1.0000e+00
      -13  1    1    2    0    0 -7.5182936949e+01 -7.0524628411e+01 -1.6226026292e+02 1.9223576708e+02 0.0000000000e+00 0.0000e+00 -1.0000e+00
       13  1    1    2    0    0 +7.5182936949e+01 +7.0524628411e+01 +3.7758620253e+02 3.9140457018e+02 0.0000000000e+00 0.0000e+00 1.0000e+00
<mgrwt>
<rscale>  0 0.54246731E+03</rscale>
<asrwt>0</asrwt>
<pdfrwt beam="1">  1        2 0.61458944E-01 0.54246731E+03</pdfrwt>
<pdfrwt beam="2">  1       -2 0.28331877E-01 0.54246731E+03</pdfrwt>
<totfact> 0.10495208E+03</totfact>
</mgrwt>
<rwgt>
<wgt id='morphing_basis_vector_1'> +1.9390897e-04 </wgt>
<wgt id='morphing_basis_vector_2'> +1.0794961e-04 </wgt>
<wgt id='morphing_basis_vector_3'> +1.4597517e-04 </wgt>
<wgt id='morphing_basis_vector_4'> +5.5735155e-05 </wgt>
<wgt id='morphing_basis_vector_5'> +8.1332644e-05 </wgt>
</rwgt>
</event>
<event>
 4      1 +1.0153100e-05 6.15193100e+02 7.81860800e-03 9.17358200e-02
        2 -1    0    0  501    0 +0.0000000000e+00 +0.0000000000e+00 +1.8727815129e+02 1.8727815129e+02 0.0000000000e+00 0.0000e+00 -1.0000e+00
       -2 -1    0    0    0  501 -0.0000000000e+00 -0.0000000000e+00 -5.0521448120e+02 5.0521448120e+02 0.0000000000e+00 0.0000e+00 1.0000e+00
      -13  1    1    2    0    0 -4.8661653345e+01 +2.0586471243e+02 +9.2401034686e+01 2.3083801147e+02 0.0000000000e+00 0.0000e+00 -1.0000e+00
       13  1    1    2    0    0 +4.8661653345e+01 -2.0586471243e+02 -4.1033736459e+02 4.6165462102e+02 0.0000000000e+00 0.0000e+00 1.0000e+00
<mgrwt>
<rscale>  0 0.61519309E+03</rscale>
<asrwt>0</asrwt>
<pdfrwt beam="1">  1        2 0.28812024E-01 0.61519309E+03</pdfrwt>
<pdfrwt beam="2">  1       -2 0.77725304E-01 0.61519309E+03</pdfrwt>
<totfact> 0.34986577E+02</totfact>
</mgrwt>
<rwgt>
<wgt id='morphing_basis_vector_1'> +3.7468885e-04 </wgt>
<wgt id='morphing_basis_vector_2'> +4.2740978e-04 </wgt>
<wgt id='morphing_basis_vector_3'> +2.3942250e-04 </wgt>
<wgt id='morphing_basis_vector_4'> +3.4633853e-05 </wgt>
<wgt id='morphing_basis_vector_5'> +1.5742098e-04 </wgt>
</rwgt>
</event>
<event>
 4      1 +1.0153100e-05 5.35979500e+02 7.81860800e-03 9.32267600e-02
        2 -1    0    0  501    0 +0.0000000000e+00 +0.0000000000e+00 +2.4931532989e+02 2.4931532989e+02 0.0000000000e+00 0.0000e+00 -1.0000e+00
       -2 -1    0    0    0  501 -0.0000000000e+00 -0.0000000000e+00 -2.8806290096e+02 2.8806290096e+02 0.0000000000e+00 0.0000e+00 1.0000e+00
      -13  1    1    2    0    0 -8.2647918099e+01 -1.4312431018e+02 -2.3088226549e+02 2.8393990042e+02 0.0000000000e+00 0.0000e+00 1.0000e+00
       13  1    1    2    0    0 +8.2647918099e+01 +1.4312431018e+02 +1.9213469442e+02 2.5343833043e+02 0.0000000000e+00 0.0000e+00 -1.0000e+00
<mgrwt>
<rscale>  0 0.53597947E+03</rscale>
<asrwt>0</asrwt>
<pdfrwt beam="1">  1        2 0.38356205E-01 0.53597947E+03</pdfrwt>
<pdfrwt beam="2">  1       -2 0.44317369E-01 0.53597947E+03</pdfrwt>
<totfact> 0.79284080E+02</totfact>
</mgrwt>
<rwgt>
<wgt id='morphing_basis_vector_1'> +1.8686290e-04 </wgt>
<wgt id='morphing_basis_vector_2'> +1.0401379e-04 </wgt>
<wgt id='morphing_basis_vector_3'> +1.3968392e-04 </wgt>
<wgt id='morphing_basis_vector_4'> +5.2399152e-05 </wgt>
<wgt id='morphing_basis_vector_5'> +7.6130807e-05 </wgt>
</rwgt>
</event>
<event>
 4      1 +1.0153100e-05 5.94510700e+02 7.81860800e-03 9.21011400e-02
        2 -1    0    0  501    0 +0.0000000000e+00 +0.0000000000e+00 +1.9295211700e+03 1.9295211700e+03 0.0000000000e+00 0.0000e+00 1.0000e+00
       -2 -1    0    0    0  501 -0.0000000000e+00 -0.0000000000e+00 -4.5794133598e+01 4.5794133598e+01 0.0000000000e+00 0.0000e+00 -1.0000e+00
      -13  1    1    2    0    0 +1.9225430665e+02 -1.7100060172e+02 +4.4727923708e+02 5.1600546522e+02 0.0000000000e+00 0.0000e+00 -1.0000e+00
       13  1    1    2    0    0 -1.9225430665e+02 +1.7100060172e+02 +1.4364477993e+03 1.4593098383e+03 0.0000000000e+00 0.0000e+00 1.0000e+00
<mgrwt>
<rscale>  0 0.59451072E+03</rscale>
<asrwt>0</asrwt>
<pdfrwt beam="1">  1        2 0.29684935E+00 0.59451072E+03</pdfrwt>
<pdfrwt beam="2">  1       -2 0.70452528E-02 0.59451072E+03</pdfrwt>
<totfact> 0.98945492E+02</totfact>
</mgrwt>
<rwgt>
<wgt id='morphing_basis_vector_1'> +2.6063201e-04 </wgt>
<wgt id='morphing_basis_vector_2'> +1.5042770e-04 </wgt>
<wgt id='morphing_basis_vector_3'> +2.0492590e-04 </wgt>
<wgt id='morphing_basis_vector_4'> +8.7068866e-05 </wgt>
<wgt id='morphing_basis_vector_5'> +1.3223052e-04 </wgt>
</rwgt>
</event>
<event>
 4      1 +1.0153100e-05 5.73174200e+02 7.81860800e-03 9.24948700e-02
        2 -1    0    0  501    0 +0.0000000000e+00 +0.0000000000e+00 +7.5847520646e+02 7.5847520646e+02 0.0000000000e+00 0.0000e+00 -1.0000e+00
       -2 -1    0    0    0  501 -0.0000000000e+00 -0.0000000000e+00 -1.0828588881e+02 1.0828588881e+02 0.0000000000e+00 0.0000e+00 1.0000e+00
      -13  1    1    2    0    0 +3.4218592267e+01 -1.2285179343e+02 -6.3013067798e+01 1.4224669388e+02 0.0000000000e+00 0.0000e+00 1.0000e+00
       13  1    1    2    0    0 -3.4218592267e+01 +1.2285179343e+02 +7.1320238546e+02 7.2451440139e+02 0.0000000000e+00 0.0000e+00 -1.0000e+00
<mgrwt>
<rscale>  0 0.57317419E+03</rscale>
<asrwt>0</asrwt>
<pdfrwt beam="1">  1        2 0.11668849E+00 0.57317419E+03</pdfrwt>
<pdfrwt beam="2">  1       -2 0.16659368E-01 0.57317419E+03</pdfrwt>
<totfact> 0.12147551E+03</totfact>
</mgrwt>
<rwgt>
<wgt id='morphing_basis_vector_1'> +2.3077733e-04 </wgt>
<wgt id='morphing_basis_vector_2'> +1.2990073e-04 </wgt>
<wgt id='morphing_basis_vector_3'> +1.7881261e-04 </wgt>
<wgt id='morphing_basis_vector_4'> +7.3384815e-05 </wgt>
<wgt id='morphing_basis_vector_5'> +1.0929671e-04 </wgt>
</rwgt>
</event>
<event>
 4      1 +1.0153100e-05 5.75372300e+02 7.81860800e-03 9.24534700e-02
        2 -1    0    0  501    0 +0.0000000000e+00 +0.0000000000e+00 +1.5699384213e+02 1.5699384213e+02 0.0000000000e+00 0.0000e+00 -1.0000e+00
       -2 -1    0    0    0  501 -0.0000000000e+00 -0.0000000000e+00 -5.2717563260e+02 5.2717563260e+02 0.0000000000e+00 0.0000e+00 1.0000e+00
      -13  1    1    2    0    0 -2.0912601830e+02 +1.9488938201e+02 -2.2358079045e+02 3.6291036442e+02 0.0000000000e+00 0.0000e+00 1.0000e+00
       13  1    1    2    0    0 +2.0912601830e+02 -1.9488938201e+02 -1.4660100002e+02 3.2125911030e+02 0.0000000000e+00 0.0000e+00 -1.0000e+00
<mgrwt>
<rscale>  0 0.57537232E+03</rscale>
<asrwt>0</asrwt>
<pdfrwt beam="1">  1        2 0.24152899E-01 0.57537232E+03</pdfrwt>
<pdfrwt beam="2">  1       -2 0.81103942E-01 0.57537232E+03</pdfrwt>
<totfact> 0.39113586E+02</totfact>
</mgrwt>
<rwgt>
<wgt id='morphing_basis_vector_1'> +2.3880096e-04 </wgt>
<wgt id='morphing_basis_vector_2'> +1.4768152e-04 </wgt>
<wgt id='morphing_basis_vector_3'> +1.8097540e-04 </wgt>
<wgt id='morphing_basis_vector_4'> +7.1223280e-05 </wgt>
<wgt id='morphing_basis_vector_5'> +1.1159116e-04 </wgt>
</rwgt>
</event>
<event>
 4      1 +1.0153100e-05 6.07713300e+02 7.81860800e-03 9.18661600e-02
        2 -1    0    0  501    0 +0.0000000000e+00 +0.0000000000e+00 +2.0899776206e+03 2.0899776206e+03 0.0000000000e+00 0.0000e+00 -1.0000e+00
       -2 -1    0    0    0  501 -0.0000000000e+00 -0.0000000000e+00 -4.4176958556e+01 4.4176958556e+01 0.0000000000e+00 0.0000e+00 1.0000e+00
      -13  1    1    2    0    0 -9.0697195570e+01 +2.8226402832e+02 +7.8916535223e+02 8.4301892988e+02 0.0000000000e+00 0.0000e+00 1.0000e+00
       13  1    1    2    0    0 +9.0697195570e+01 -2.8226402832e+02 +1.2566353098e+03 1.2911356493e+03 0.0000000000e+00 0.0000e+00 -1.0000e+00
<mgrwt>
<rscale>  0 0.60771327E+03</rscale>
<asrwt>0</asrwt>
<pdfrwt beam="1">  1        2 0.32153494E+00 0.60771327E+03</pdfrwt>
<pdfrwt beam="2">  1       -2 0.67964568E-02 0.60771327E+03</pdfrwt>
<totfact> 0.85281967E+02</totfact>
</mgrwt>
<rwgt>
<wgt id='morphing_basis_vector_1'> +2.8294046e-04 </wgt>
<wgt id='morphing_basis_vector_2'> +1.7155758e-04 </wgt>
<wgt id='morphing_basis_vector_3'> +2.2274233e-04 </wgt>
<wgt id='morphing_basis_vector_4'> +9.4515824e-05 </wgt>
<wgt id='morphing_basis_vector_5'> +1.4797620e-04 </wgt>
</rwgt>
</event>
<event>
 4      1 +1.0153100e-05 5.71538100e+02 7.81860800e-03 9.25258000e-02
        2 -1    0    0  501    0 +0.0000000000e+00 +0.0000000000e+00 +1.7279227218e+03 1.7279227218e+03 0.0000000000e+00 0.0000e+00 -1.0000e+00
       -2 -1    0    0    0  501 -0.0000000000e+00 -0.0000000000e+00 -4.7261339450e+01 4.7261339450e+01 0.0000000000e+00 0.0000e+00 1.0000e+00
      -13  1    1    2    0    0 -1.3601717456e+02 +2.4732280006e+02 +7.0161124249e+02 7.5625893370e+02 0.0000000000e+00 0.0000e+00 1.0000e+00
       13  1    1    2    0    0 +1.3601717456e+02 -2.4732280006e+02 +9.7905013991e+02 1.0189251276e+03 0.0000000000e+00 0.0000e+00 -1.0000e+00
<mgrwt>
<rscale>  0 0.57153807E+03</rscale>
<asrwt>0</asrwt>
<pdfrwt beam="1">  1        2 0.26583422E+00 0.57153807E+03</pdfrwt>
<pdfrwt beam="2">  1       -2 0.72709766E-02 0.57153807E+03</pdfrwt>
<totfact> 0.12150977E+03</totfact>
</mgrwt>
<rwgt>
<wgt id='morphing_basis_vector_1'> +2.3295686e-04 </wgt>
<wgt id='morphing_basis_vector_2'> +1.4192348e-04 </wgt>
<wgt id='morphing_basis_vector_3'> +1.7653031e-04 </wgt>
<wgt id='morphing_basis_vector_4'> +6.9466324e-05 </wgt>
<wgt id='morphing_basis_vector_5'> +1.0772540e-04 </wgt>
</rwgt>
</event>
<event>
 4      1 +1.0153100e-05 5.45214900e+02 7.81860800e-03 9.30392500e-02
        2 -1    0    0  501    0 +0.0000000000e+00 +0.0000000000e+00 +6.2480810973e+02 6.2480810973e+02 0.0000000000e+00 0.0000e+00 1.0000e+00
       -2 -1    0    0    0  501 -0.0000000000e+00 -0.0000000000e+00 -1.1894021131e+02 1.1894021131e+02 0.0000000000e+00 0.0000e+00 -1.0000e+00
      -13  1    1    2    0    0 -1.8238848123e+02 -1.3148422201e+02 +4.2656815864e+01 2.2885205409e+02 0.0000000000e+00 0.0000e+00 -1.0000e+00
       13  1    1    2    0    0 +1.8238848123e+02 +1.3148422201e+02 +4.6321108255e+02 5.1489626695e+02 0.0000000000e+00 0.0000e+00 1.0000e+00
<mgrwt>
<rscale>  0 0.54521485E+03</rscale>
<asrwt>0</asrwt>
<pdfrwt beam="1">  1        2 0.96124322E-01 0.54521485E+03</pdfrwt>
<pdfrwt beam="2">  1       -2 0.18298494E-01 0.54521485E+03</pdfrwt>
<totfact> 0.13172530E+03</totfact>
</mgrwt>
<rwgt>
<wgt id='morphing_basis_vector_1'> +1.9754233e-04 </wgt>
<wgt id='morphing_basis_vector_2'> +1.1146961e-04 </wgt>
<wgt id='morphing_basis_vector_3'> +1.4858722e-04 </wgt>
<wgt id='morphing_basis_vector_4'> +5.6856277e-05 </wgt>
<wgt id='morphing_basis_vector_5'> +8.3621175e-05 </wgt>
</rwgt>
</event>
<event>
 4      1 +1.0153100e-05 5.20833900e+02 7.81860800e-03 9.35431700e-02
        2 -1    0    0  501    0 +0.0000000000e+00 +0.0000000000e+00 +3.4739632601e+02 3.4739632601e+02 0.0000000000e+00 0.0000e+00 1.0000e+00
       -2 -1    0    0    0  501 -0.0000000000e+00 -0.0000000000e+00 -1.9521503776e+02 1.9521503776e+02 0.0000000000e+00 0.0000e+00 -1.0000e+00
      -13  1    1    2    0    0 +2.0038925059e+02 -1.1269626957e+02 +2.0351879985e+02 3.0704430107e+02 0.0000000000e+00 0.0000e+00 1.0000e+00
       13  1    1    2    0    0 -2.0038925059e+02 +1.1269626957e+02 -5.1337511605e+01 2.3556706269e+02 0.0000000000e+00 0.0000e+00 -1.0000e+00
<mgrwt>
<rscale>  0 0.52083390E+03</rscale>
<asrwt>0</asrwt>
<pdfrwt beam="1">  1        2 0.53445589E-01 0.52083390E+03</pdfrwt>
<pdfrwt beam="2">  1       -2 0.30033083E-01 0.52083390E+03</pdfrwt>
<totfact> 0.11086214E+03</totfact>
</mgrwt>
<rwgt>
<wgt id='morphing_basis_vector_1'> +1.9793160e-04 </wgt>
<wgt id='morphing_basis_vector_2'> +1.7823553e-04 </wgt>
<wgt id='morphing_basis_vector_3'> +1.1746558e-04 </wgt>
<wgt id='morphing_basis_vector_4'> +3.2245004e-05 </wgt>
<wgt id='morphing_basis_vector_5'> +6.5759494e-05 </wgt>
</rwgt>
</event>
<event>
 4      1 +1.0153100e-05 5.64459000e+02 7.81860800e-03 9.26609500e-02
        2 -1    0    0  501    0 +0.0000000000e+00 +0.0000000000e+00 +3.5066012273e+02 3.5066012273e+02 0.0000000000e+00 0.0000e+00 -1.0000e+00
       -2 -1    0    0    0  501 -0.0000000000e+00 -0.0000000000e+00 -2.2715299504e+02 2.2715299504e+02 0.0000000000e+00 0.0000e+00 1.0000e+00
      -13  1    1    2    0    0 +1.1884895375e+02 +2.3838183649e+01 -1.9914911298e+02 2.3313880417e+02 0.0000000000e+00 0.0000e+00 1.0000e+00
       13  1    1    2    0    0 -1.1884895375e+02 -2.3838183649e+01 +3.2265624067e+02 3.4467431360e+02 0.0000000000e+00 0.0000e+00 -1.0000e+00
<mgrwt>
<rscale>  0 0.56445902E+03</rscale>
<asrwt>0</asrwt>
<pdfrwt beam="1">  1        2 0.53947711E-01 0.56445902E+03</pdfrwt>
<pdfrwt beam="2">  1       -2 0.34946615E-01 0.56445902E+03</pdfrwt>
<totfact> 0.83809197E+02</totfact>
</mgrwt>
<rwgt>
<wgt id='morphing_basis_vector_1'> +2.1977706e-04 </wgt>
<wgt id='morphing_basis_vector_2'> +1.2332150e-04 </wgt>
<wgt id='morphing_basis_vector_3'> +1.6894342e-04 </wgt>
<wgt id='morphing_basis_vector_4'> +6.8011535e-05 </wgt>
<wgt id='morphing_basis_vector_5'> +1.0077959e-04 </wgt>
</rwgt>
</event>
<event>
 4      1 +1.0153100e-05 5.31700900e+02 7.81860800e-03 9.33150000e-02
        2 -1    0    0  501    0 +0.0000000000e+00 +0.0000000000e+00 +6.0956672832e+02 6.0956672832e+02 0.0000000000e+00 0.0000e+00 -1.0000e+00
       -2 -1    0    0    0  501 -0.0000000000e+00 -0.0000000000e+00 -1.1594542006e+02 1.1594542006e+02 0.0000000000e+00 0.0000e+00 1.0000e+00
      -13  1    1    2    0    0 +2.5933445640e+02 -5.4578167112e+01 +2.1808018797e+02 3.4320854445e+02 0.0000000000e+00 0.0000e+00 1.0000e+00
       13  1    1    2    0    0 -2.5933445640e+02 +5.4578167112e+01 +2.7554112029e+02 3.8230360392e+02 0.0000000000e+00 0.0000e+00 -1.0000e+00
<mgrwt>
<rscale>  0 0.53170093E+03</rscale>
<asrwt>0</asrwt>
<pdfrwt beam="1">  1        2 0.93779495E-01 0.53170093E+03</pdfrwt>
<pdfrwt beam="2">  1       -2 0.17837757E-01 0.53170093E+03</pdfrwt>
<totfact> 0.14138496E+03</totfact>
</mgrwt>
<rwgt>
<wgt id='morphing_basis_vector_1'> +1.8672448e-04 </wgt>
<wgt id='morphing_basis_vector_2'> +1.1512874e-04 </wgt>
<wgt id='morphing_basis_vector_3'> +1.3449634e-04 </wgt>
<wgt id='morphing_basis_vector_4'> +4.7964297e-05 </wgt>
<wgt id='morphing_basis_vector_5'> +7.2955583e-05 </wgt>
</rwgt>
</event>
<event>
 4      1 +1.0153100e-05 5.29425000e+02 7.81860800e-03 9.33623000e-02
        2 -1    0    0  501    0 +0.0000000000e+00 +0.0000000000e+00 +2.7157160926e+02 2.7157160926e+02 0.0000000000e+00 0.0000e+00 -1.0000e+00
       -2 -1    0    0    0  501 -0.0000000000e+00 -0.0000000000e+00 -2.5802667573e+02 2.5802667573e+02 0.0000000000e+00 0.0000e+00 1.0000e+00
      -13  1    1    2    0    0 -1.7191568801e+02 -1.9502473404e+02 -4.3074240101e+01 2.6352426991e+02 0.0000000000e+00 0.0000e+00 1.0000e+00
       13  1    1    2    0    0 +1.7191568801e+02 +1.9502473404e+02 +5.6619173637e+01 2.6607401507e+02 0.0000000000e+00 0.0000e+00 -1.0000e+00
<mgrwt>
<rscale>  0 0.52942504E+03</rscale>
<asrwt>0</asrwt>
<pdfrwt beam="1">  1        2 0.41780248E-01 0.52942504E+03</pdfrwt>
<pdfrwt beam="2">  1       -2 0.39696412E-01 0.52942504E+03</pdfrwt>
<totfact> 0.88436271E+02</totfact>
</mgrwt>
<rwgt>
<wgt id='morphing_basis_vector_1'> +1.8272564e-04 </wgt>
<wgt id='morphing_basis_vector_2'> +1.0875502e-04 </wgt>
<wgt id='morphing_basis_vector_3'> +1.3279101e-04 </wgt>
<wgt id='morphing_basis_vector_4'> +4.7748157e-05 </wgt>
<wgt id='morphing_basis_vector_5'> +7.1193774e-05 </wgt>
</rwgt>
</event>
<event>
 4      1 +1.0153100e-05 5.31418800e+02 7.81860800e-03 9.33208500e-02
        2 -1    0    0  501    0 +0.0000000000e+00 +0.0000000000e+00 +7.9664960527e+02 7.9664960527e+02 0.0000000000e+00 0.0000e+00 1.0000e+00
       -2 -1    0    0    0  501 -0.0000000000e+00 -0.0000000000e+00 -8.8623001093e+01 8.8623001093e+01 0.0000000000e+00 0.0000e+00 -1.0000e+00
      -13  1    1    2    0    0 +5.1267301223e+01 -2.3766825096e+02 +1.7547047603e+02 2.9984066043e+02 0.0000000000e+00 0.0000e+00 -1.0000e+00
       13  1    1    2    0    0 -5.1267301223e+01 +2.3766825096e+02 +5.3255612815e+02 5.8543194593e+02 0.0000000000e+00 0.0000e+00 1.0000e+00
<mgrwt>
<rscale>  0 0.53141878E+03</rscale>
<asrwt>0</asrwt>
<pdfrwt beam="1">  1        2 0.12256147E+00 0.53141878E+03</pdfrwt>
<pdfrwt beam="2">  1       -2 0.13634308E-01 0.53141878E+03</pdfrwt>
<totfact> 0.15779441E+03</totfact>
</mgrwt>
<rwgt>
<wgt id='morphing_basis_vector_1'> +1.8306985e-04 </wgt>
<wgt id='morphing_basis_vector_2'> +1.0452993e-04 </wgt>
<wgt id='morphing_basis_vector_3'> +1.3511816e-04 </wgt>
<wgt id='morphing_basis_vector_4'> +4.9601477e-05 </wgt>
<wgt id='morphing_basis_vector_5'> +7.2643434e-05 </wgt>
</rwgt>
</event>
<event>
 4      1 +1.0153100e-05 5.47987900e+02 7.81860800e-03 9.29837200e-02
        2 -1    0    0  501    0 +0.0000000000e+00 +0.0000000000e+00 +4.6510304665e+02 4.6510304665e+02 0.0000000000e+00 0.0000e+00 -1.0000e+00
       -2 -1    0    0    0  501 -0.0000000000e+00 -0.0000000000e+00 -1.6141087022e+02 1.6141087022e+02 0.0000000000e+00 0.0000e+00 1.0000e+00
      -13  1    1    2    0    0 +8.6287801296e+01 -1.5922665508e+02 -8.3223414793e+01 1.9931093575e+02 0.0000000000e+00 0.0000e+00 1.0000e+00
       13  1    1    2    0    0 -8.6287801296e+01 +1.5922665508e+02 +3.8691559122e+02 4.2720298111e+02 0.0000000000e+00 0.0000e+00 -1.0000e+00
<mgrwt>
<rscale>  0 0.54798791E+03</rscale>
<asrwt>0</asrwt>
<pdfrwt beam="1">  1        2 0.71554314E-01 0.54798791E+03</pdfrwt>
<pdfrwt beam="2">  1       -2 0.24832442E-01 0.54798791E+03</pdfrwt>
<totfact> 0.11099863E+03</totfact>
</mgrwt>
<rwgt>
<wgt id='morphing_basis_vector_1'> +2.0029231e-04 </wgt>
<wgt id='morphing_basis_vector_2'> +1.1207353e-04 </wgt>
<wgt id='morphing_basis_vector_3'> +1.5146177e-04 </wgt>
<wgt id='morphing_basis_vector_4'> +5.8568917e-05 </wgt>
<wgt id='morphing_basis_vector_5'> +8.5951224e-05 </wgt>
</rwgt>
</event>
<event>
 4      1 +1.0153100e-05 5.55910700e+02 7.81860800e-03 9.28269800e-02
        2 -1    0    0  501    0 +0.0000000000e+00 +0.0000000000e+00 +1.5737074397e+02 1.5737074397e+02 0.0000000000e+00 0.0000e+00 1.0000e+00
       -2 -1    0    0    0  501 -0.0000000000e+00 -0.0000000000e+00 -4.9093732642e+02 4.9093732642e+02 0.0000000000e+00 0.0000e+00 -1.0000e+00
      -13  1    1    2    0    0 +2.7756743765e+01 +1.0745097558e+02 -4.6397908464e+02 4.7706680870e+02 0.0000000000e+00 0.0000e+00 -1.0000e+00
       13  1    1    2    0    0 -2.7756743765e+01 -1.0745097558e+02 +1.3041250220e+02 1.7124126169e+02 0.0000000000e+00 0.0000e+00 1.0000e+00
<mgrwt>
<rscale>  0 0.55591068E+03</rscale>
<asrwt>0</asrwt>
<pdfrwt beam="1">  1        2 0.24210883E-01 0.55591068E+03</pdfrwt>
<pdfrwt beam="2">  1       -2 0.75528820E-01 0.55591068E+03</pdfrwt>
<totfact> 0.45737204E+02</totfact>
</mgrwt>
<rwgt>
<wgt id='morphing_basis_vector_1'> +2.0940420e-04 </wgt>
<wgt id='morphing_basis_vector_2'> +1.1713428e-04 </wgt>
<wgt id='morphing_basis_vector_3'> +1.5969320e-04 </wgt>
<wgt id='morphing_basis_vector_4'> +6.3027610e-05 </wgt>
<wgt id='morphing_basis_vector_5'> +9.2880153e-05 </wgt>
</rwgt>
</event>
<event>
 4      1 +1.0153100e-05 5.77848800e+02 7.81860800e-03 9.24070700e-02
        2 -1    0    0  501    0 +0.0000000000e+00 +0.0000000000e+00 +1.4034933606e+02 1.4034933606e+02 0.0000000000e+00 0.0000e+00 -1.0000e+00
       -2 -1    0    0    0  501 -0.0000000000e+00 -0.0000000000e+00 -5.9478239238e+02 5.9478239238e+02 0.0000000000e+00 0.0000e+00 1.0000e+00
      -13  1    1    2    0    0 +2.8231414421e+02 -5.7179698679e+01 -1.9858469219e+02 3.4986665164e+02 0.0000000000e+00 0.0000e+00 1.0000e+00
       13  1    1    2    0    0 -2.8231414421e+02 +5.7179698679e+01 -2.5584836414e+02 3.8526507679e+02 0.0000000000e+00 0.0000e+00 -1.0000e+00
<mgrwt>
<rscale>  0 0.57784882E+03</rscale>
<asrwt>0</asrwt>
<pdfrwt beam="1">  1        2 0.21592205E-01 0.57784882E+03</pdfrwt>
<pdfrwt beam="2">  1       -2 0.91504984E-01 0.57784882E+03</pdfrwt>
<totfact> 0.33834575E+02</totfact>
</mgrwt>
<rwgt>
<wgt id='morphing_basis_vector_1'> +2.4742226e-04 </wgt>
<wgt id='morphing_basis_vector_2'> +1.6632913e-04 </wgt>
<wgt id='morphing_basis_vector_3'> +1.8358709e-04 </wgt>
<wgt id='morphing_basis_vector_4'> +6.9032551e-05 </wgt>
<wgt id='morphing_basis_vector_5'> +1.1419794e-04 </wgt>
</rwgt>
</event>
<event>
 4      1 +1.0153100e-05 5.31215100e+02 7.81860800e-03 9.33250800e-02
        2 -1    0    0  501    0 +0.0000000000e+00 +0.0000000000e+00 +7.0096084331e+02 7.0096084331e+02 0.0000000000e+00 0.0000e+00 -1.0000e+00
       -2 -1    0    0    0  501 -0.0000000000e+00 -0.0000000000e+00 -1.0064380688e+02 1.0064380688e+02 0.0000000000e+00 0.0000e+00 1.0000e+00
      -13  1    1    2    0    0 +1.4587889718e+02 +2.2000673781e+02 +3.4450753141e+02 4.3401504181e+02 0.0000000000e+00 0.0000e+00 1.0000e+00
       13  1    1    2    0    0 -1.4587889718e+02 -2.2000673781e+02 +2.5580950502e+02 3.6758960837e+02 0.0000000000e+00 0.0000e+00 -1.0000e+00
<mgrwt>
<rscale>  0 0.53121509E+03</rscale>
<asrwt>0</asrwt>
<pdfrwt beam="1">  1        2 0.10784013E+00 0.53121509E+03</pdfrwt>
<pdfrwt beam="2">  1       -2 0.15483663E-01 0.53121509E+03</pdfrwt>
<totfact> 0.15070280E+03</totfact>
</mgrwt>
<rwgt>
<wgt id='morphing_basis_vector_1'> +1.9065820e-04 </wgt>
<wgt id='morphing_basis_vector_2'> +1.2864412e-04 </wgt>
<wgt id='morphing_basis_vector_3'> +1.3285406e-04 </wgt>
<wgt id='morphing_basis_vector_4'> +4.5399602e-05 </wgt>
<wgt id='morphing_basis_vector_5'> +7.2717794e-05 </wgt>
</rwgt>
</event>
<event>
 4      1 +1.0153100e-05 5.61896900e+02 7.81860800e-03 9.27103800e-02
        2 -1    0    0  501    0 +0.0000000000e+00 +0.0000000000e+00 +1.7474555332e+02 1.7474555332e+02 0.0000000000e+00 0.0000e+00 -1.0000e+00
       -2 -1    0    0    0  501 -0.0000000000e+00 -0.0000000000e+00 -4.5169692619e+02 4.5169692619e+02 0.0000000000e+00 0.0000e+00 1.0000e+00
      -13  1    1    2    0    0 +1.2628787521e+02 -1.7165716725e+02 -3.4258299561e+02 4.0345745671e+02 0.0000000000e+00 0.0000e+00 1.0000e+00
       13  1    1    2    0    0 -1.2628787521e+02 +1.7165716725e+02 +6.5631622738e+01 2.2298502280e+02 0.0000000000e+00 0.0000e+00 -1.0000e+00
<mgrwt>
<rscale>  0 0.56189689E+03</rscale>
<asrwt>0</asrwt>
<pdfrwt beam="1">  1        2 0.26883931E-01 0.56189689E+03</pdfrwt>
<pdfrwt beam="2">  1       -2 0.69491835E-01 0.56189689E+03</pdfrwt>
<totfact> 0.48427827E+02</totfact>
</mgrwt>
<rwgt>
<wgt id='morphing_basis_vector_1'> +2.1696257e-04 </wgt>
<wgt id='morphing_basis_vector_2'> +1.2248700e-04 </wgt>
<wgt id='morphing_basis_vector_3'> +1.6608222e-04 </wgt>
<wgt id='morphing_basis_vector_4'> +6.6272311e-05 </wgt>
<wgt id='morphing_basis_vector_5'> +9.8371588e-05 </wgt>
</rwgt>
</event>
<event>
 4      1 +1.0153100e-05 5.20808800e+02 7.81860800e-03 9.35437000e-02
        2 -1    0    0  501    0 +0.0000000000e+00 +0.0000000000e+00 +2.6553734556e+02 2.6553734556e+02 0.0000000000e+00 0.0000e+00 -1.0000e+00
       -2 -1    0    0    0  501 -0.0000000000e+00 -0.0000000000e+00 -2.5537070189e+02 2.5537070189e+02 0.0000000000e+00 0.0000e+00 1.0000e+00
      -13  1    1    2    0    0 -8.1001365567e+01 +4.7294685503e+01 -2.3788774098e+02 2.5571191957e+02 0.0000000000e+00 0.0000e+00 1.0000e+00
       13  1    1    2    0    0 +8.1001365567e+01 -4.7294685503e+01 +2.4805438465e+02 2.6519612788e+02 0.0000000000e+00 0.0000e+00 -1.0000e+00
<mgrwt>
<rscale>  0 0.52080883E+03</rscale>
<asrwt>0</asrwt>
<pdfrwt beam="1">  1        2 0.40851899E-01 0.52080883E+03</pdfrwt>
<pdfrwt beam="2">  1       -2 0.39287800E-01 0.52080883E+03</pdfrwt>
<totfact> 0.92449636E+02</totfact>
</mgrwt>
<rwgt>
<wgt id='morphing_basis_vector_1'> +1.7093358e-04 </wgt>
<wgt id='morphing_basis_vector_2'> +9.4443287e-05 </wgt>
<wgt id='morphing_basis_vector_3'> +1.2589792e-04 </wgt>
<wgt id='morphing_basis_vector_4'> +4.5318788e-05 </wgt>
<wgt id='morphing_basis_vector_5'> +6.4852156e-05 </wgt>
</rwgt>
</event>
<event>
 4      1 +1.0153100e-05 5.80793900e+02 7.81860800e-03 9.23522000e-02
        2 -1    0    0  501    0 +0.0000000000e+00 +0.0000000000e+00 +2.5985802786e+02 2.5985802786e+02 0.0000000000e+00 0.0000e+00 1.0000e+00
       -2 -1    0    0    0  501 -0.0000000000e+00 -0.0000000000e+00 -3.2452486425e+02 3.2452486425e+02 0.0000000000e+00 0.0000e+00 -1.0000e+00
      -13  1    1    2    0    0 +1.6825506371e+02 -7.7806445918e+01 +1.9258039533e+02 2.6730285849e+02 0.0000000000e+00 0.0000e+00 1.0000e+00
       13  1    1    2    0    0 -1.6825506371e+02 +7.7806445918e+01 -2.5724723172e+02 3.1708003362e+02 0.0000000000e+00 0.0000e+00 -1.0000e+00
<mgrwt>
<rscale>  0 0.58079391E+03</rscale>
<asrwt>0</asrwt>
<pdfrwt beam="1">  1        2 0.39978158E-01 0.58079391E+03</pdfrwt>
<pdfrwt beam="2">  1       -2 0.49926902E-01 0.58079391E+03</pdfrwt>
<totfact> 0.60144930E+02</totfact>
</mgrwt>
<rwgt>
<wgt id='morphing_basis_vector_1'> +3.1534599e-04 </wgt>
<wgt id='morphing_basis_vector_2'> +3.6734669e-04 </wgt>
<wgt id='morphing_basis_vector_3'> +1.8370549e-04 </wgt>
<wgt id='morphing_basis_vector_4'> +2.5615970e-05 </wgt>
<wgt id='morphing_basis_vector_5'> +1.1801131e-04 </wgt>
</rwgt>
</event>
<event>
 4      1 +1.0153100e-05 5.66748700e+02 7.81860800e-03 9.26170100e-02
        2 -1    0    0  501    0 +0.0000000000e+00 +0.0000000000e+00 +7.3733033035e+02 7.3733033035e+02 0.0000000000e+00 0.0000e+00 1.0000e+00
       -2 -1    0    0    0  501 -0.0000000000e+00 -0.0000000000e+00 -1.0890780682e+02 1.0890780682e+02 0.0000000000e+00 0.0000e+00 -1.0000e+00
      -13  1    1    2    0    0 -2.3755918375e+02 -5.3040004862e+00 +8.3673651649e+01 2.5192018217e+02 0.0000000000e+00 0.0000e+00 -1.0000e+00
       13  1    1    2    0    0 +2.3755918375e+02 +5.3040004862e+00 +5.4474887188e+02 5.9431795499e+02 0.0000000000e+00 0.0000e+00 1.0000e+00
<mgrwt>
<rscale>  0 0.56674872E+03</rscale>
<asrwt>0</asrwt>
<pdfrwt beam="1">  1        2 0.11343543E+00 0.56674872E+03</pdfrwt>
<pdfrwt beam="2">  1       -2 0.16755048E-01 0.56674872E+03</pdfrwt>
<totfact> 0.12464480E+03</totfact>
</mgrwt>
<rwgt>
<wgt id='morphing_basis_vector_1'> +2.2331560e-04 </wgt>
<wgt id='morphing_basis_vector_2'> +1.2716697e-04 </wgt>
<wgt id='morphing_basis_vector_3'> +1.7141554e-04 </wgt>
<wgt id='morphing_basis_vector_4'> +6.8939919e-05 </wgt>
<wgt id='morphing_basis_vector_5'> +1.0298281e-04 </wgt>
</rwgt>
</event>
<event>
 4      1 +1.0153100e-05 5.69578600e+02 7.81860800e-03 9.25630000e-02
        2 -1    0    0  501    0 +0.0000000000e+00 +0.0000000000e+00 +9.9666838486e+02 9.9666838486e+02 0.0000000000e+00 0.0000e+00 1.0000e+00
       -2 -1    0    0    0  501 -0.0000000000e+00 -0.0000000000e+00 -8.1376049829e+01 8.1376049829e+01 0.0000000000e+00 0.0000e+00 -1.0000e+00
      -13  1    1    2    0    0 +2.2256181228e+02 -4.0972063416e+01 +1.3040804370e+02 2.6118715154e+02 0.0000000000e+00 0.0000e+00 -1.0000e+00
       13  1    1    2    0    0 -2.2256181228e+02 +4.0972063416e+01 +7.8488429133e+02 8.1685728316e+02 0.0000000000e+00 0.0000e+00 1.0000e+00
<mgrwt>
<rscale>  0 0.56957857E+03</rscale>
<asrwt>0</asrwt>
<pdfrwt beam="1">  1        2 0.15333359E+00 0.56957857E+03</pdfrwt>
<pdfrwt beam="2">  1       -2 0.12519393E-01 0.56957857E+03</pdfrwt>
<totfact> 0.13414900E+03</totfact>
</mgrwt>
<rwgt>
<wgt id='morphing_basis_vector_1'> +2.2666262e-04 </wgt>
<wgt id='morphing_basis_vector_2'> +1.2863165e-04 </wgt>
<wgt id='morphing_basis_vector_3'> +1.7463855e-04 </wgt>
<wgt id='morphing_basis_vector_4'> +7.0813341e-05 </wgt>
<wgt id='morphing_basis_vector_5'> +1.0573255e-04 </wgt>
</rwgt>
</event>
<event>
 4      1 +1.0153100e-05 5.23953300e+02 7.81860800e-03 9.34770700e-02
        2 -1    0    0  501    0 +0.0000000000e+00 +0.0000000000e+00 +1.2649743708e+02 1.2649743708e+02 0.0000000000e+00 0.0000e+00 1.0000e+00
       -2 -1    0    0    0  501 -0.0000000000e+00 -0.0000000000e+00 -5.4255464701e+02 5.4255464701e+02 0.0000000000e+00 0.0000e+00 -1.0000e+00
      -13  1    1    2    0    0 +1.5140781083e+02 +2.0927153403e+02 -2.6387694914e+02 3.6925593350e+02 0.0000000000e+00 0.0000e+00 1.0000e+00
       13  1    1    2    0    0 -1.5140781083e+02 -2.0927153403e+02 -1.5218026078e+02 2.9979615059e+02 0.0000000000e+00 0.0000e+00 -1.0000e+00
<mgrwt>
<rscale>  0 0.52395333E+03</rscale>
<asrwt>0</asrwt>
<pdfrwt beam="1">  1        2 0.19461144E-01 0.52395333E+03</pdfrwt>
<pdfrwt beam="2">  1       -2 0.83469948E-01 0.52395333E+03</pdfrwt>
<totfact> 0.47392771E+02</totfact>
</mgrwt>
<rwgt>
<wgt id='morphing_basis_vector_1'> +1.7721075e-04 </wgt>
<wgt id='morphing_basis_vector_2'> +1.0590174e-04 </wgt>
<wgt id='morphing_basis_vector_3'> +1.2774051e-04 </wgt>
<wgt id='morphing_basis_vector_4'> +4.5196917e-05 </wgt>
<wgt id='morphing_basis_vector_5'> +6.7187752e-05 </wgt>
</rwgt>
</event>
<event>
 4      1 +1.0153100e-05 5.62648400e+02 7.81860800e-03 9.26958600e-02
        2 -1    0    0  501    0 +0.0000000000e+00 +0.0000000000e+00 +2.6514705976e+02 2.6514705976e+02 0.0000000000e+00 0.0000e+00 -1.0000e+00
       -2 -1    0    0    0  501 -0.0000000000e+00 -0.0000000000e+00 -2.9848835313e+02 2.9848835313e+02 0.0000000000e+00 0.0000e+00 1.0000e+00
      -13  1    1    2    0    0 -2.2520008315e+02 -1.3572857659e+02 -1.1687604128e+02 2.8774525710e+02 0.0000000000e+00 0.0000e+00 1.0000e+00
       13  1    1    2    0    0 +2.2520008315e+02 +1.3572857659e+02 +8.3534747905e+01 2.7589015579e+02 0.0000000000e+00 0.0000e+00 -1.0000e+00
<mgrwt>
<rscale>  0 0.56264841E+03</rscale>
<asrwt>0</asrwt>
<pdfrwt beam="1">  1        2 0.40791856E-01 0.56264841E+03</pdfrwt>
<pdfrwt beam="2">  1       -2 0.45921285E-01 0.56264841E+03</pdfrwt>
<totfact> 0.69097438E+02</totfact>
</mgrwt>
<rwgt>
<wgt id='morphing_basis_vector_1'> +2.1931286e-04 </wgt>
<wgt id='morphing_basis_vector_2'> +1.2747540e-04 </wgt>
<wgt id='morphing_basis_vector_3'> +1.6672097e-04 </wgt>
<wgt id='morphing_basis_vector_4'> +6.5795737e-05 </wgt>
<wgt id='morphing_basis_vector_5'> +9.9101376e-05 </wgt>
</rwgt>
</event>
<event>
 4      1 +1.0153100e-05 5.24317600e+02 7.81860800e-03 9.34693800e-02
        2 -1    0    0  501    0 +0.0000000000e+00 +0.0000000000e+00 +1.6331075559e+03 1.6331075559e+03 0.0000000000e+00 0.0000e+00 1.0000e+00
       -2 -1    0    0    0  501 -0.0000000000e+00 -0.0000000000e+00 -4.2083722302e+01 4.2083722302e+01 0.0000000000e+00 0.0000e+00 -1.0000e+00
      -13  1    1    2    0    0 +2.0339474944e+02 +1.2424623358e+02 +4.4667638561e+02 5.0628682001e+02 0.0000000000e+00 0.0000e+00 -1.0000e+00
       13  1    1    2    0    0 -2.0339474944e+02 -1.2424623358e+02 +1.1443474480e+03 1.1689044582e+03 0.0000000000e+00 0.0000e+00 1.0000e+00
<mgrwt>
<rscale>  0 0.52431763E+03</rscale>
<asrwt>0</asrwt>
<pdfrwt beam="1">  1        2 0.25124727E+00 0.52431763E+03</pdfrwt>
<pdfrwt beam="2">  1       -2 0.64744201E-02 0.52431763E+03</pdfrwt>
<totfact> 0.16377896E+03</totfact>
</mgrwt>
<rwgt>
<wgt id='morphing_basis_vector_1'> +1.7555587e-04 </wgt>
<wgt id='morphing_basis_vector_2'> +9.9822362e-05 </wgt>
<wgt id='morphing_basis_vector_3'> +1.2867217e-04 </wgt>
<wgt id='morphing_basis_vector_4'> +4.6370091e-05 </wgt>
<wgt id='morphing_basis_vector_5'> +6.7385474e-05 </wgt>
</rwgt>
</event>
<event>
 4      1 +1.0153100e-05 5.42288400e+02 7.81860800e-03 9.30982400e-02
        2 -1    0    0  501    0 +0.0000000000e+00 +0.0000000000e+00 +5.1189868853e+02 5.1189868853e+02 0.0000000000e+00 0.0000e+00 -1.0000e+00
       -2 -1    0    0    0  501 -0.0000000000e+00 -0.0000000000e+00 -1.4362055051e+02 1.4362055051e+02 0.0000000000e+00 0.0000e+00 1.0000e+00
      -13  1    1    2    0    0 +8.4398363133e+01 +2.1121492849e+02 +5.7257117957e+00 2.2752497334e+02 0.0000000000e+00 0.0000e+00 1.0000e+00
       13  1    1    2    0    0 -8.4398363133e+01 -2.1121492849e+02 +3.6255242623e+02 4.2799426571e+02 0.0000000000e+00 0.0000e+00 -1.0000e+00
<mgrwt>
<rscale>  0 0.54228838E+03</rscale>
<asrwt>0</asrwt>
<pdfrwt beam="1">  1        2 0.78753644E-01 0.54228838E+03</pdfrwt>
<pdfrwt beam="2">  1       -2 0.22095469E-01 0.54228838E+03</pdfrwt>
<totfact> 0.12128673E+03</totfact>
</mgrwt>
<rwgt>
<wgt id='morphing_basis_vector_1'> +1.9431598e-04 </wgt>
<wgt id='morphing_basis_vector_2'> +1.0971612e-04 </wgt>
<wgt id='morphing_basis_vector_3'> +1.4566795e-04 </wgt>
<wgt id='morphing_basis_vector_4'> +5.5297578e-05 </wgt>
<wgt id='morphing_basis_vector_5'> +8.1201354e-05 </wgt>
</rwgt>
</event>
<event>
 4      1 +1.0153100e-05 5.84623700e+02 7.81860800e-03 9.22813700e-02
        2 -1    0    0  501    0 +0.0000000000e+00 +0.0000000000e+00 +1.1097183195e+03 1.1097183195e+03 0.0000000000e+00 0.0000e+00 -1.0000e+00
       -2 -1    0    0    0  501 -0.0000000000e+00 -0.0000000000e+00 -7.6998109607e+01 7.6998109607e+01 0.0000000000e+00 0.0000e+00 1.0000e+00
      -13  1    1    2    0    0 +1.5363164939e+02 -1.0651821175e+02 +6.0212858595e+01 1.9640366969e+02 0.0000000000e+00 0.0000e+00 1.0000e+00
       13  1    1    2    0    0 -1.5363164939e+02 +1.0651821175e+02 +9.7250735134e+02 9.9031275945e+02 0.0000000000e+00 0.0000e+00 -1.0000e+00
<mgrwt>
<rscale>  0 0.58462368E+03</rscale>
<asrwt>0</asrwt>
<pdfrwt beam="1">  1        2 0.17072588E+00 0.58462368E+03</pdfrwt>
<pdfrwt beam="2">  1       -2 0.11845864E-01 0.58462368E+03</pdfrwt>
<totfact> 0.12521571E+03</totfact>
</mgrwt>
<rwgt>
<wgt id='morphing_basis_vector_1'> +2.4602878e-04 </wgt>
<wgt id='morphing_basis_vector_2'> +1.3936903e-04 </wgt>
<wgt id='morphing_basis_vector_3'> +1.9246846e-04 </wgt>
<wgt id='morphing_basis_vector_4'> +8.0817558e-05 </wgt>
<wgt id='morphing_basis_vector_5'> +1.2122519e-04 </wgt>
</rwgt>
</event>
<event>
 4      1 +1.0153100e-05 6.10582200e+02 7.81860800e-03 9.18159400e-02
        2 -1    0    0  501    0 +0.0000000000e+00 +0.0000000000e+00 +7.4615034022e+02 7.4615034022e+02 0.0000000000e+00 0.0000e+00 -1.0000e+00
       -2 -1    0    0    0  501 -0.0000000000e+00 -0.0000000000e+00 -1.2491137840e+02 1.2491137840e+02 0.0000000000e+00 0.0000e+00 1.0000e+00
      -13  1    1    2    0    0 +1.3093203617e+02 +9.9888926604e+01 -5.6109533828e+01 1.7398067577e+02 0.0000000000e+00 0.0000e+00 1.0000e+00
       13  1    1    2    0    0 -1.3093203617e+02 -9.9888926604e+01 +6.7734849564e+02 6.9708104285e+02 0.0000000000e+00 0.0000e+00 -1.0000e+00
<mgrwt>
<rscale>  0 0.61058224E+03</rscale>
<asrwt>0</asrwt>
<pdfrwt beam="1">  1        2 0.11479236E+00 0.61058224E+03</pdfrwt>
<pdfrwt beam="2">  1       -2 0.19217136E-01 0.61058224E+03</pdfrwt>
<totfact> 0.98020926E+02</totfact>
</mgrwt>
<rwgt>
<wgt id='morphing_basis_vector_1'> +2.8321558e-04 </wgt>
<wgt id='morphing_basis_vector_2'> +1.6161375e-04 </wgt>
<wgt id='morphing_basis_vector_3'> +2.2652944e-04 </wgt>
<wgt id='morphing_basis_vector_4'> +1.0000014e-04 </wgt>
<wgt id='morphing_basis_vector_5'> +1.5155251e-04 </wgt>
</rwgt>
</event>
<event>
 4      1 +1.0153100e-05 5.48712200e+02 7.81860800e-03 9.29692800e-02
        2 -1    0    0  501    0 +0.0000000000e+00 +0.0000000000e+00 +1.5496116373e+03 1.5496116373e+03 0.0000000000e+00 0.0000e+00 -1.0000e+00
       -2 -1    0    0    0  501 -0.0000000000e+00 -0.0000000000e+00 -4.8574281702e+01 4.8574281702e+01 0.0000000000e+00 0.0000e+00 1.0000e+00
      -13  1    1    2    0    0 -3.7418660383e+01 -2.1356401050e+02 +2.6087459914e+02 3.3921276392e+02 0.0000000000e+00 0.0000e+00 1.0000e+00
       13  1    1    2    0    0 +3.7418660383e+01 +2.1356401050e+02 +1.2401627564e+03 1.2589731551e+03 0.0000000000e+00 0.0000e+00 -1.0000e+00
<mgrwt>
<rscale>  0 0.54871221E+03</rscale>
<asrwt>0</asrwt>
<pdfrwt beam="1">  1        2 0.23840175E+00 0.54871221E+03</pdfrwt>
<pdfrwt beam="2">  1       -2 0.74729676E-02 0.54871221E+03</pdfrwt>
<totfact> 0.14575263E+03</totfact>
</mgrwt>
<rwgt>
<wgt id='morphing_basis_vector_1'> +2.0139981e-04 </wgt>
<wgt id='morphing_basis_vector_2'> +1.1342345e-04 </wgt>
<wgt id='morphing_basis_vector_3'> +1.5214586e-04 </wgt>
<wgt id='morphing_basis_vector_4'> +5.8795602e-05 </wgt>
<wgt id='morphing_basis_vector_5'> +8.6576071e-05 </wgt>
</rwgt>
</event>
<event>
 4      1 +1.0153100e-05 5.35523900e+02 7.81860800e-03 9.32361100e-02
        2 -1    0    0  501    0 +0.0000000000e+00 +0.0000000000e+00 +2.2615335138e+03 2.2615335138e+03 0.0000000000e+00 0.0000e+00 -1.0000e+00
       -2 -1    0    0    0  501 -0.0000000000e+00 -0.0000000000e+00 -3.1702586139e+01 3.1702586139e+01 0.0000000000e+00 0.0000e+00 1.0000e+00
      -13  1    1    2    0    0 -1.4446249002e+02 +2.2249595154e+02 +9.5918110860e+02 9.9518955911e+02 0.0000000000e+00 0.0000e+00 1.0000e+00
       13  1    1    2    0    0 +1.4446249002e+02 -2.2249595154e+02 +1.2706498191e+03 1.2980465408e+03 0.0000000000e+00 0.0000e+00 -1.0000e+00
<mgrwt>
<rscale>  0 0.53552390E+03</rscale>
<asrwt>0</asrwt>
<pdfrwt beam="1">  1        2 0.34792811E+00 0.53552390E+03</pdfrwt>
<pdfrwt beam="2">  1       -2 0.48773227E-02 0.53552390E+03</pdfrwt>
<totfact> 0.11407782E+03</totfact>
</mgrwt>
<rwgt>
<wgt id='morphing_basis_vector_1'> +1.9002514e-04 </wgt>
<wgt id='morphing_basis_vector_2'> +1.1507661e-04 </wgt>
<wgt id='morphing_basis_vector_3'> +1.3835112e-04 </wgt>
<wgt id='morphing_basis_vector_4'> +5.0190403e-05 </wgt>
<wgt id='morphing_basis_vector_5'> +7.5875732e-05 </wgt>
</rwgt>
</event>
<event>
 4      1 +1.0153100e-05 5.28258600e+02 7.81860800e-03 9.33866400e-02
        2 -1    0    0  501    0 +0.0000000000e+00 +0.0000000000e+00 +2.2752322565e+02 2.2752322565e+02 0.0000000000e+00 0.0000e+00 -1.0000e+00
       -2 -1    0    0    0  501 -0.0000000000e+00 -0.0000000000e+00 -3.0662494771e+02 3.0662494771e+02 0.0000000000e+00 0.0000e+00 1.0000e+00
      -13  1    1    2    0    0 -2.6070468477e+02 -2.1047073914e+01 -2.3385847141e+00 2.6156334025e+02 0.0000000000e+00 0.0000e+00 1.0000e+00
       13  1    1    2    0    0 +2.6070468477e+02 +2.1047073914e+01 -7.6763137350e+01 2.7258483311e+02 0.0000000000e+00 0.0000e+00 -1.0000e+00
<mgrwt>
<rscale>  0 0.52825864E+03</rscale>
<asrwt>0</asrwt>
<pdfrwt beam="1">  1        2 0.35003574E-01 0.52825864E+03</pdfrwt>
<pdfrwt beam="2">  1       -2 0.47173068E-01 0.52825864E+03</pdfrwt>
<totfact> 0.78088062E+02</totfact>
</mgrwt>
<rwgt>
<wgt id='morphing_basis_vector_1'> +1.8831532e-04 </wgt>
<wgt id='morphing_basis_vector_2'> +1.2919203e-04 </wgt>
<wgt id='morphing_basis_vector_3'> +1.2980950e-04 </wgt>
<wgt id='morphing_basis_vector_4'> +4.3708211e-05 </wgt>
<wgt id='morphing_basis_vector_5'> +7.0532275e-05 </wgt>
</rwgt>
</event>
<event>
 4      1 +1.0153100e-05 5.56560500e+02 7.81860800e-03 9.28142500e-02
        2 -1    0    0  501    0 +0.0000000000e+00 +0.0000000000e+00 +1.5108473205e+02 1.5108473205e+02 0.0000000000e+00 0.0000e+00 1.0000e+00
       -2 -1    0    0    0  501 -0.0000000000e+00 -0.0000000000e+00 -5.1255939304e+02 5.1255939304e+02 0.0000000000e+00 0.0000e+00 -1.0000e+00
      -13  1    1    2    0    0 +2.5739835898e+02 -5.8790503036e+01 -7.5903110234e+01 2.7472080481e+02 0.0000000000e+00 0.0000e+00 1.0000e+00
       13  1    1    2    0    0 -2.5739835898e+02 +5.8790503036e+01 -2.8557155076e+02 3.8892332028e+02 0.0000000000e+00 0.0000e+00 -1.0000e+00
<mgrwt>
<rscale>  0 0.55656050E+03</rscale>
<asrwt>0</asrwt>
<pdfrwt beam="1">  1        2 0.23243805E-01 0.55656050E+03</pdfrwt>
<pdfrwt beam="2">  1       -2 0.78855291E-01 0.55656050E+03</pdfrwt>
<totfact> 0.43606694E+02</totfact>
</mgrwt>
<rwgt>
<wgt id='morphing_basis_vector_1'> +2.3106080e-04 </wgt>
<wgt id='morphing_basis_vector_2'> +1.8244273e-04 </wgt>
<wgt id='morphing_basis_vector_3'> +1.5715119e-04 </wgt>
<wgt id='morphing_basis_vector_4'> +5.0420205e-05 </wgt>
<wgt id='morphing_basis_vector_5'> +9.3888972e-05 </wgt>
</rwgt>
</event>
<event>
 4      1 +1.0153100e-05 5.55443000e+02 7.81860800e-03 9.28361600e-02
        2 -1    0    0  501    0 +0.0000000000e+00 +0.0000000000e+00 +1.8450324704e+03 1.8450324704e+03 0.0000000000e+00 0.0000e+00 1.0000e+00
       -2 -1    0    0    0  501 -0.0000000000e+00 -0.0000000000e+00 -4.1803724163e+01 4.1803724163e+01 0.0000000000e+00 0.0000e+00 -1.0000e+00
      -13  1    1    2    0    0 +2.0937894683e+02 +1.8022010813e+02 +8.0491051235e+02 8.5099927358e+02 0.0000000000e+00 0.0000e+00 -1.0000e+00
       13  1    1    2    0    0 -2.0937894683e+02 -1.8022010813e+02 +9.9831823386e+02 1.0358369209e+03 0.0000000000e+00 0.0000e+00 1.0000e+00
<mgrwt>
<rscale>  0 0.55544299E+03</rscale>
<asrwt>0</asrwt>
<pdfrwt beam="1">  1        2 0.28385109E+00 0.55544299E+03</pdfrwt>
<pdfrwt beam="2">  1       -2 0.64313436E-02 0.55544299E+03</pdfrwt>
<totfact> 0.12681767E+03</totfact>
</mgrwt>
<rwgt>
<wgt id='morphing_basis_vector_1'> +2.1364160e-04 </wgt>
<wgt id='morphing_basis_vector_2'> +1.3168832e-04 </wgt>
<wgt id='morphing_basis_vector_3'> +1.5843486e-04 </wgt>
<wgt id='morphing_basis_vector_4'> +5.9803869e-05 </wgt>
<wgt id='morphing_basis_vector_5'> +9.2559843e-05 </wgt>
</rwgt>
</event>
<event>
 4      1 +1.0153100e-05 5.21194700e+02 7.81860800e-03 9.35355000e-02
        2 -1    0    0  501    0 +0.0000000000e+00 +0.0000000000e+00 +1.5766341029e+02 1.5766341029e+02 0.0000000000e+00 0.0000e+00 -1.0000e+00
       -2 -1    0    0    0  501 -0.0000000000e+00 -0.0000000000e+00 -4.3073397227e+02 4.3073397227e+02 0.0000000000e+00 0.0000e+00 1.0000e+00
      -13  1    1    2    0    0 -2.4927271617e+02 -1.9072470232e+01 -2.1957445647e+02 3.3273651450e+02 0.0000000000e+00 0.0000e+00 1.0000e+00
       13  1    1    2    0    0 +2.4927271617e+02 +1.9072470232e+01 -5.3496105520e+01 2.5566086806e+02 0.0000000000e+00 0.0000e+00 -1.0000e+00
<mgrwt>
<rscale>  0 0.52119473E+03</rscale>
<asrwt>0</asrwt>
<pdfrwt beam="1">  1        2 0.24255910E-01 0.52119473E+03</pdfrwt>
<pdfrwt beam="2">  1       -2 0.66266763E-01 0.52119473E+03</pdfrwt>
<totfact> 0.60407044E+02</totfact>
</mgrwt>
<rwgt>
<wgt id='morphing_basis_vector_1'> +1.7322219e-04 </wgt>
<wgt id='morphing_basis_vector_2'> +1.0057164e-04 </wgt>
<wgt id='morphing_basis_vector_3'> +1.2564242e-04 </wgt>
<wgt id='morphing_basis_vector_4'> +4.4566264e-05 </wgt>
<wgt id='morphing_basis_vector_5'> +6.5186369e-05 </wgt>
</rwgt>
</event>
<event>
 4      1 +1.0153100e-05 5.54147300e+02 7.81860800e-03 9.28616300e-02
        2 -1    0    0  501    0 +0.0000000000e+00 +0.0000000000e+00 +3.3982633090e+02 3.3982633090e+02 0.0000000000e+00 0.0000e+00 1.0000e+00
       -2 -1    0    0    0  501 -0.0000000000e+00 -0.0000000000e+00 -2.2590892267e+02 2.2590892267e+02 0.0000000000e+00 0.0000e+00 -1.0000e+00
      -13  1    1    2    0    0 +1.7246850192e+02 +4.3877695750e+00 -1.6438176485e+02 2.3829813531e+02 0.0000000000e+00 0.0000e+00 -1.0000e+00
       13  1    1    2    0    0 -1.7246850192e+02 -4.3877695750e+00 +2.7829917309e+02 3.2743711826e+02 0.0000000000e+00 0.0000e+00 1.0000e+00
<mgrwt>
<rscale>  0 0.55414727E+03</rscale>
<asrwt>0</asrwt>
<pdfrwt beam="1">  1        2 0.52280974E-01 0.55414727E+03</pdfrwt>
<pdfrwt beam="2">  1       -2 0.34755219E-01 0.55414727E+03</pdfrwt>
<totfact> 0.87673006E+02</totfact>
</mgrwt>
<rwgt>
<wgt id='morphing_basis_vector_1'> +2.0741599e-04 </wgt>
<wgt id='morphing_basis_vector_2'> +1.1620453e-04 </wgt>
<wgt id='morphing_basis_vector_3'> +1.5782013e-04 </wgt>
<wgt id='morphing_basis_vector_4'> +6.1971874e-05 </wgt>
<wgt id='morphing_basis_vector_5'> +9.1307398e-05 </wgt>
</rwgt>
</event>
<event>
 4      1 +1.0153100e-05 5.40515500e+02 7.81860800e-03 9.31341700e-02
        2 -1    0    0  501    0 +0.0000000000e+00 +0.0000000000e+00 +3.1529659802e+02 3.1529659802e+02 0.0000000000e+00 0.0000e+00 -1.0000e+00
       -2 -1    0    0    0  501 -0.0000000000e+00 -0.0000000000e+00 -2.3165253973e+02 2.3165253973e+02 0.0000000000e+00 0.0000e+00 1.0000e+00
      -13  1    1    2    0    0 -1.2394380566e+01 -1.1418188388e+02 -2.0572862573e+02 2.3561704251e+02 0.0000000000e+00 0.0000e+00 1.0000e+00
       13  1    1    2    0    0 +1.2394380566e+01 +1.1418188388e+02 +2.8937268402e+02 3.1133209525e+02 0.0000000000e+00 0.0000e+00 -1.0000e+00
<mgrwt>
<rscale>  0 0.54051552E+03</rscale>
<asrwt>0</asrwt>
<pdfrwt beam="1">  1        2 0.48507169E-01 0.54051552E+03</pdfrwt>
<pdfrwt beam="2">  1       -2 0.35638852E-01 0.54051552E+03</pdfrwt>
<totfact> 0.91114132E+02</totfact>
</mgrwt>
<rwgt>
<wgt id='morphing_basis_vector_1'> +1.9174671e-04 </wgt>
<wgt id='morphing_basis_vector_2'> +1.0669032e-04 </wgt>
<wgt id='morphing_basis_vector_3'> +1.4406385e-04 </wgt>
<wgt id='morphing_basis_vector_4'> +5.4726484e-05 </wgt>
<wgt id='morphing_basis_vector_5'> +7.9742471e-05 </wgt>
</rwgt>
</event>
<event>
 4      1 +1.0153100e-05 5.86920600e+02 7.81860800e-03 9.22391700e-02
        2 -1    0    0  501    0 +0.0000000000e+00 +0.0000000000e+00 +2.0745719137e+03 2.0745719137e+03 0.0000000000e+00 0.0000e+00 -1.0000e+00
       -2 -1    0    0    0  501 -0.0000000000e+00 -0.0000000000e+00 -4.1511672265e+01 4.1511672265e+01 0.0000000000e+00 0.0000e+00 1.0000e+00
      -13  1    1    2    0    0 -1.8683136212e+02 -2.2354626219e+02 +1.1434924377e+03 1.1800228152e+03 0.0000000000e+00 0.0000e+00 1.0000e+00
       13  1    1    2    0    0 +1.8683136212e+02 +2.2354626219e+02 +8.8956780372e+02 9.3606077079e+02 0.0000000000e+00 0.0000e+00 -1.0000e+00
<mgrwt>
<rscale>  0 0.58692061E+03</rscale>
<asrwt>0</asrwt>
<pdfrwt beam="1">  1        2 0.31916483E+00 0.58692061E+03</pdfrwt>
<pdfrwt beam="2">  1       -2 0.63864127E-02 0.58692061E+03</pdfrwt>
<totfact> 0.95818430E+02</totfact>
</mgrwt>
<rwgt>
<wgt id='morphing_basis_vector_1'> +2.6193286e-04 </wgt>
<wgt id='morphing_basis_vector_2'> +1.8088513e-04 </wgt>
<wgt id='morphing_basis_vector_3'> +1.9491276e-04 </wgt>
<wgt id='morphing_basis_vector_4'> +7.3097950e-05 </wgt>
<wgt id='morphing_basis_vector_5'> +1.2384347e-04 </wgt>
</rwgt>
</event>
<event>
 4      1 +1.0153100e-05 5.73453300e+02 7.81860800e-03 9.24896000e-02
        2 -1    0    0  501    0 +0.0000000000e+00 +0.0000000000e+00 +1.8600827306e+03 1.8600827306e+03 0.0000000000e+00 0.0000e+00 1.0000e+00
       -2 -1    0    0    0  501 -0.0000000000e+00 -0.0000000000e+00 -4.4198130863e+01 4.4198130863e+01 0.0000000000e+00 0.0000e+00 -1.0000e+00
      -13  1    1    2    0    0 +2.4721687273e+02 +8.7216997000e+01 +5.2226337074e+02 5.8436462516e+02 0.0000000000e+00 0.0000e+00 -1.0000e+00
       13  1    1    2    0    0 -2.4721687273e+02 -8.7216997000e+01 +1.2936212290e+03 1.3199162363e+03 0.0000000000e+00 0.0000e+00 1.0000e+00
<mgrwt>
<rscale>  0 0.57345333E+03</rscale>
<asrwt>0</asrwt>
<pdfrwt beam="1">  1        2 0.28616651E+00 0.57345333E+03</pdfrwt>
<pdfrwt beam="2">  1       -2 0.67997139E-02 0.57345333E+03</pdfrwt>
<totfact> 0.11415139E+03</totfact>
</mgrwt>
<rwgt>
<wgt id='morphing_basis_vector_1'> +2.3262865e-04 </wgt>
<wgt id='morphing_basis_vector_2'> +1.3474640e-04 </wgt>
<wgt id='morphing_basis_vector_3'> +1.7901000e-04 </wgt>
<wgt id='morphing_basis_vector_4'> +7.2545282e-05 </wgt>
<wgt id='morphing_basis_vector_5'> +1.0959873e-04 </wgt>
</rwgt>
</event>
<event>
 4      1 +1.0153100e-05 5.34535900e+02 7.81860800e-03 9.32564300e-02
        2 -1    0    0  501    0 +0.0000000000e+00 +0.0000000000e+00 +1.2163112180e+03 1.2163112180e+03 0.0000000000e+00 0.0000e+00 -1.0000e+00
       -2 -1    0    0    0  501 -0.0000000000e+00 -0.0000000000e+00 -5.8728525616e+01 5.8728525616e+01 0.0000000000e+00 0.0000e+00 1.0000e+00
      -13  1    1    2    0    0 -1.3055286343e+02 -2.0085211411e+02 +8.6149507843e+02 8.9418084975e+02 0.0000000000e+00 0.0000e+00 1.0000e+00
       13  1    1    2    0    0 +1.3055286343e+02 +2.0085211411e+02 +2.9608761391e+02 3.8085889382e+02 0.0000000000e+00 0.0000e+00 -1.0000e+00
<mgrwt>
<rscale>  0 0.53453593E+03</rscale>
<asrwt>0</asrwt>
<pdfrwt beam="1">  1        2 0.18712478E+00 0.53453593E+03</pdfrwt>
<pdfrwt beam="2">  1       -2 0.90351587E-02 0.53453593E+03</pdfrwt>
<totfact> 0.16633391E+03</totfact>
</mgrwt>
<rwgt>
<wgt id='morphing_basis_vector_1'> +2.1237799e-04 </wgt>
<wgt id='morphing_basis_vector_2'> +1.8718984e-04 </wgt>
<wgt id='morphing_basis_vector_3'> +1.3152691e-04 </wgt>
<wgt id='morphing_basis_vector_4'> +3.7098823e-05 </wgt>
<wgt id='morphing_basis_vector_5'> +7.5766513e-05 </wgt>
</rwgt>
</event>
<event>
 4      1 +1.0153100e-05 5.54895300e+02 7.81860800e-03 9.28469100e-02
        2 -1    0    0  501    0 +0.0000000000e+00 +0.0000000000e+00 +7.1655449882e+01 7.1655449882e+01 0.0000000000e+00 0.0000e+00 -1.0000e+00
       -2 -1    0    0    0  501 -0.0000000000e+00 -0.0000000000e+00 -1.0742685954e+03 1.0742685954e+03 0.0000000000e+00 0.0000e+00 1.0000e+00
      -13  1    1    2    0    0 +8.7227396327e+01 +2.1475404552e+02 -8.1618981192e+02 8.4846551363e+02 0.0000000000e+00 0.0000e+00 1.0000e+00
       13  1    1    2    0    0 -8.7227396327e+01 -2.1475404552e+02 -1.8642333356e+02 2.9745853162e+02 0.0000000000e+00 0.0000e+00 -1.0000e+00
<mgrwt>
<rscale>  0 0.55489530E+03</rscale>
<asrwt>0</asrwt>
<pdfrwt beam="1">  1        2 0.11023916E-01 0.55489530E+03</pdfrwt>
<pdfrwt beam="2">  1       -2 0.16527209E+00 0.55489530E+03</pdfrwt>
<totfact> 0.16441000E+02</totfact>
</mgrwt>
<rwgt>
<wgt id='morphing_basis_vector_1'> +2.0883232e-04 </wgt>
<wgt id='morphing_basis_vector_2'> +1.1838331e-04 </wgt>
<wgt id='morphing_basis_vector_3'> +1.5851969e-04 </wgt>
<wgt id='morphing_basis_vector_4'> +6.2064299e-05 </wgt>
<wgt id='morphing_basis_vector_5'> +9.1984294e-05 </wgt>
</rwgt>
</event>
<event>
 4      1 +1.0153100e-05 5.25294900e+02 7.81860800e-03 9.34487900e-02
        2 -1    0    0  501    0 +0.0000000000e+00 +0.0000000000e+00 +1.8544123782e+02 1.8544123782e+02 0.0000000000e+00 0.0000e+00 1.0000e+00
       -2 -1    0    0    0  501 -0.0000000000e+00 -0.0000000000e+00 -3.7199751442e+02 3.7199751442e+02 0.0000000000e+00 0.0000e+00 -1.0000e+00
      -13  1    1    2    0    0 -2.2665709019e+02 -1.0160028811e+02 -2.6867373404e+00 2.4840143646e+02 0.0000000000e+00 0.0000e+00 1.0000e+00
       13  1    1    2    0    0 +2.2665709019e+02 +1.0160028811e+02 -1.8386953926e+02 3.0903731578e+02 0.0000000000e+00 0.0000e+00 -1.0000e+00
<mgrwt>
<rscale>  0 0.52529489E+03</rscale>
<asrwt>0</asrwt>
<pdfrwt beam="1">  1        2 0.28529421E-01 0.52529489E+03</pdfrwt>
<pdfrwt beam="2">  1       -2 0.57230387E-01 0.52529489E+03</pdfrwt>
<totfact> 0.67521206E+02</totfact>
</mgrwt>
<rwgt>
<wgt id='morphing_basis_vector_1'> +1.9330734e-04 </wgt>
<wgt id='morphing_basis_vector_2'> +1.5243361e-04 </wgt>
<wgt id='morphing_basis_vector_3'> +1.2464385e-04 </wgt>
<wgt id='morphing_basis_vector_4'> +3.8391684e-05 </wgt>
<wgt id='morphing_basis_vector_5'> +6.8618896e-05 </wgt>
</rwgt>
</event>
<event>
 4      1 +1.0153100e-05 5.42147400e+02 7.81860800e-03 9.31010900e-02
        2 -1    0    0  501    0 +0.0000000000e+00 +0.0000000000e+00 +5.0612403060e+02 5.0612403060e+02 0.0000000000e+00 0.0000e+00 -1.0000e+00
       -2 -1    0    0    0  501 -0.0000000000e+00 -0.0000000000e+00 -1.4518366461e+02 1.4518366461e+02 0.0000000000e+00 0.0000e+00 1.0000e+00
      -13  1    1    2    0    0 +2.6181035418e+02 +3.9049080186e+01 +1.1030230911e+02 2.8676835881e+02 0.0000000000e+00 0.0000e+00 1.0000e+00
       13  1    1    2    0    0 -2.6181035418e+02 -3.9049080186e+01 +2.5063805689e+02 3.6453933640e+02 0.0000000000e+00 0.0000e+00 -1.0000e+00
<mgrwt>
<rscale>  0 0.54214737E+03</rscale>
<asrwt>0</asrwt>
<pdfrwt beam="1">  1        2 0.77865235E-01 0.54214737E+03</pdfrwt>
<pdfrwt beam="2">  1       -2 0.22335949E-01 0.54214737E+03</pdfrwt>
<totfact> 0.12065123E+03</totfact>
</mgrwt>
<rwgt>
<wgt id='morphing_basis_vector_1'> +1.9639822e-04 </wgt>
<wgt id='morphing_basis_vector_2'> +1.1657925e-04 </wgt>
<wgt id='morphing_basis_vector_3'> +1.4504303e-04 </wgt>
<wgt id='morphing_basis_vector_4'> +5.3953026e-05 </wgt>
<wgt id='morphing_basis_vector_5'> +8.1142869e-05 </wgt>
</rwgt>
</event>
<event>
 4      1 +1.0153100e-05 5.21952900e+02 7.81860800e-03 9.35194000e-02
        2 -1    0    0  501    0 +0.0000000000e+00 +0.0000000000e+00 +3.3439137474e+02 3.3439137474e+02 0.0000000000e+00 0.0000e+00 -1.0000e+00
       -2 -1    0    0    0  501 -0.0000000000e+00 -0.0000000000e+00 -2.0367961102e+02 2.0367961102e+02 0.0000000000e+00 0.0000e+00 1.0000e+00
      -13  1    1    2    0    0 +6.7674855981e+00 -1.7194094378e+02 -1.3691539763e+02 2.1989841545e+02 0.0000000000e+00 0.0000e+00 1.0000e+00
       13  1    1    2    0    0 -6.7674855981e+00 +1.7194094378e+02 +2.6762716135e+02 3.1817257031e+02 0.0000000000e+00 0.0000e+00 -1.0000e+00
<mgrwt>
<rscale>  0 0.52195289E+03</rscale>
<asrwt>0</asrwt>
<pdfrwt beam="1">  1        2 0.51444827E-01 0.52195289E+03</pdfrwt>
<pdfrwt beam="2">  1       -2 0.31335325E-01 0.52195289E+03</pdfrwt>
<totfact> 0.10736253E+03</totfact>
</mgrwt>
<rwgt>
<wgt id='morphing_basis_vector_1'> +1.7220690e-04 </wgt>
<wgt id='morphing_basis_vector_2'> +9.5487355e-05 </wgt>
<wgt id='morphing_basis_vector_3'> +1.2686197e-04 </wgt>
<wgt id='morphing_basis_vector_4'> +4.5771602e-05 </wgt>
<wgt id='morphing_basis_vector_5'> +6.5664014e-05 </wgt>
</rwgt>
</event>
<event>
 4      1 +1.0153100e-05 5.99117500e+02 7.81860800e-03 9.20184200e-02
        2 -1    0    0  501    0 +0.0000000000e+00 +0.0000000000e+00 +6.9134019918e+02 6.9134019918e+02 0.0000000000e+00 0.0000e+00 -1.0000e+00
       -2 -1    0    0    0  501 -0.0000000000e+00 -0.0000000000e+00 -1.2979925839e+02 1.2979925839e+02 0.0000000000e+00 0.0000e+00 1.0000e+00
      -13  1    1    2    0    0 -2.1932405351e+02 +1.4258575684e+01 +5.5974056678e+02 6.0134503368e+02 0.0000000000e+00 0.0000e+00 -1.0000e+00
       13  1    1    2    0    0 +2.1932405351e+02 -1.4258575684e+01 +1.8003740092e+00 2.1979442389e+02 0.0000000000e+00 0.0000e+00 1.0000e+00
<mgrwt>
<rscale>  0 0.59911750E+03</rscale>
<asrwt>0</asrwt>
<pdfrwt beam="1">  1        2 0.10636003E+00 0.59911750E+03</pdfrwt>
<pdfrwt beam="2">  1       -2 0.19969117E-01 0.59911750E+03</pdfrwt>
<totfact> 0.10101059E+03</totfact>
</mgrwt>
<rwgt>
<wgt id='morphing_basis_vector_1'> +3.3733192e-04 </wgt>
<wgt id='morphing_basis_vector_2'> +3.7180320e-04 </wgt>
<wgt id='morphing_basis_vector_3'> +2.1208471e-04 </wgt>
<wgt id='morphing_basis_vector_4'> +3.6613116e-05 </wgt>
<wgt id='morphing_basis_vector_5'> +1.3795306e-04 </wgt>
</rwgt>
</event>
<event>
 4      1 +1.0153100e-05 5.45255300e+02 7.81860800e-03 9.30384400e-02
        2 -1    0    0  501    0 +0.0000000000e+00 +0.0000000000e+00 +3.8730987045e+02 3.8730987045e+02 0.0000000000e+00 0.0000e+00 -1.0000e+00
       -2 -1    0    0    0  501 -0.0000000000e+00 -0.0000000000e+00 -1.9190279687e+02 1.9190279687e+02 0.0000000000e+00 0.0000e+00 1.0000e+00
      -13  1    1    2    0    0 +7.5031642014e+01 +2.1208835071e+02 -6.5882530562e+01 2.3441783986e+02 0.0000000000e+00 0.0000e+00 1.0000e+00
       13  1    1    2    0    0 -7.5031642014e+01 -2.1208835071e+02 +2.6128960415e+02 3.4479482747e+02 0.0000000000e+00 0.0000e+00 -1.0000e+00
<mgrwt>
<rscale>  0 0.54525534E+03</rscale>
<asrwt>0</asrwt>
<pdfrwt beam="1">  1        2 0.59586134E-01 0.54525534E+03</pdfrwt>
<pdfrwt beam="2">  1       -2 0.29523507E-01 0.54525534E+03</pdfrwt>
<totfact> 0.10112707E+03</totfact>
</mgrwt>
<rwgt>
<wgt id='morphing_basis_vector_1'> +1.9759021e-04 </wgt>
<wgt id='morphing_basis_vector_2'> +1.1150312e-04 </wgt>
<wgt id='morphing_basis_vector_3'> +1.4862733e-04 </wgt>
<wgt id='morphing_basis_vector_4'> +5.6876379e-05 </wgt>
<wgt id='morphing_basis_vector_5'> +8.3655071e-05 </wgt>
</rwgt>
</event>
<event>
 4      1 +1.0153100e-05 5.69672000e+02 7.81860800e-03 9.25612300e-02
        2 -1    0    0  501    0 +0.0000000000e+00 +0.0000000000e+00 +6.1271516814e+02 6.1271516814e+02 0.0000000000e+00 0.0000e+00 1.0000e+00
       -2 -1    0    0    0  501 -0.0000000000e+00 -0.0000000000e+00 -1.3241313915e+02 1.3241313915e+02 0.0000000000e+00 0.0000e+00 -1.0000e+00
      -13  1    1    2    0    0 -2.8077638311e+02 -4.4092537037e+01 +2.6469152071e+02 3.8838271108e+02 0.0000000000e+00 0.0000e+00 -1.0000e+00
       13  1    1    2    0    0 +2.8077638311e+02 +4.4092537037e+01 +2.1561050828e+02 3.5674559621e+02 0.0000000000e+00 0.0000e+00 1.0000e+00
<mgrwt>
<rscale>  0 0.56967197E+03</rscale>
<asrwt>0</asrwt>
<pdfrwt beam="1">  1        2 0.94263871E-01 0.56967197E+03</pdfrwt>
<pdfrwt beam="2">  1       -2 0.20371252E-01 0.56967197E+03</pdfrwt>
<totfact> 0.11286623E+03</totfact>
</mgrwt>
<rwgt>
<wgt id='morphing_basis_vector_1'> +2.3595792e-04 </wgt>
<wgt id='morphing_basis_vector_2'> +1.5719056e-04 </wgt>
<wgt id='morphing_basis_vector_3'> +1.7382718e-04 </wgt>
<wgt id='morphing_basis_vector_4'> +6.4738245e-05 </wgt>
<wgt id='morphing_basis_vector_5'> +1.0596770e-04 </wgt>
</rwgt>
</event>
<event>
 4      1 +1.0153100e-05 6.02352600e+02 7.81860800e-03 9.19608000e-02
        2 -1    0    0  501    0 +0.0000000000e+00 +0.0000000000e+00 +2.9000351253e+02 2.9000351253e+02 0.0000000000e+00 0.0000e+00 1.0000e+00
       -2 -1    0    0    0  501 -0.0000000000e+00 -0.0000000000e+00 -3.1277957786e+02 3.1277957786e+02 0.0000000000e+00 0.0000e+00 -1.0000e+00
      -13  1    1    2    0    0 +2.9561027469e+02 -5.0211296915e+01 -3.9702551699e+01 3.0246140489e+02 0.0000000000e+00 0.0000e+00 -1.0000e+00
       13  1    1    2    0    0 -2.9561027469e+02 +5.0211296915e+01 +1.6926486368e+01 3.0032168549e+02 0.0000000000e+00 0.0000e+00 1.0000e+00
<mgrwt>
<rscale>  0 0.60235264E+03</rscale>
<asrwt>0</asrwt>
<pdfrwt beam="1">  1        2 0.44615925E-01 0.60235264E+03</pdfrwt>
<pdfrwt beam="2">  1       -2 0.48119935E-01 0.60235264E+03</pdfrwt>
<totfact> 0.57065204E+02</totfact>
</mgrwt>
<rwgt>
<wgt id='morphing_basis_vector_1'> +2.7738358e-04 </wgt>
<wgt id='morphing_basis_vector_2'> +1.7416224e-04 </wgt>
<wgt id='morphing_basis_vector_3'> +2.1543597e-04 </wgt>
<wgt id='morphing_basis_vector_4'> +8.8601473e-05 </wgt>
<wgt id='morphing_basis_vector_5'> +1.4145282e-04 </wgt>
</rwgt>
</event>
<event>
 4      1 +1.0153100e-05 5.51066800e+02 7.81860800e-03 9.29224800e-02
        2 -1    0    0  501    0 +0.0000000000e+00 +0.0000000000e+00 +8.1484422223e+02 8.1484422223e+02 0.0000000000e+00 0.0000e+00 1.0000e+00
       -2 -1    0    0    0  501 -0.0000000000e+00 -0.0000000000e+00 -9.3169544269e+01 9.3169544269e+01 0.0000000000e+00 0.0000e+00 -1.0000e+00
      -13  1    1    2    0    0 -1.7385629982e+02 +3.2998777494e+01 +7.0883294306e+02 7.3058816954e+02 0.0000000000e+00 0.0000e+00 1.0000e+00
       13  1    1    2    0    0 +1.7385629982e+02 -3.2998777494e+01 +1.2841734908e+01 1.7742559697e+02 0.0000000000e+00 0.0000e+00 -1.0000e+00
<mgrwt>
<rscale>  0 0.55106684E+03</rscale>
<asrwt>0</asrwt>
<pdfrwt beam="1">  1        2 0.12536064E+00 0.55106684E+03</pdfrwt>
<pdfrwt beam="2">  1       -2 0.14333777E-01 0.55106684E+03</pdfrwt>
<totfact> 0.14151009E+03</totfact>
</mgrwt>
<rwgt>
<wgt id='morphing_basis_vector_1'> +2.6635823e-04 </wgt>
<wgt id='morphing_basis_vector_2'> +3.0832286e-04 </wgt>
<wgt id='morphing_basis_vector_3'> +1.4347229e-04 </wgt>
<wgt id='morphing_basis_vector_4'> +2.2654217e-05 </wgt>
<wgt id='morphing_basis_vector_5'> +8.9992478e-05 </wgt>
</rwgt>
</event>
<event>
 4      1 +1.0153100e-05 5.39894400e+02 7.81860800e-03 9.31467900e-02
        2 -1    0    0  501    0 +0.0000000000e+00 +0.0000000000e+00 +3.0085099083e+02 3.0085099083e+02 0.0000000000e+00 0.0000e+00 -1.0000e+00
       -2 -1    0    0    0  501 -0.0000000000e+00 -0.0000000000e+00 -2.4221787923e+02 2.4221787923e+02 0.0000000000e+00 0.0000e+00 1.0000e+00
      -13  1    1    2    0    0 +1.9380150508e+02 +6.0439458775e+01 -1.4966091800e+02 2.5221090762e+02 0.0000000000e+00 0.0000e+00 1.0000e+00
       13  1    1    2    0    0 -1.9380150508e+02 -6.0439458775e+01 +2.0829402959e+02 2.9085796244e+02 0.0000000000e+00 0.0000e+00 -1.0000e+00
<mgrwt>
<rscale>  0 0.53989439E+03</rscale>
<asrwt>0</asrwt>
<pdfrwt beam="1">  1        2 0.46284768E-01 0.53989439E+03</pdfrwt>
<pdfrwt beam="2">  1       -2 0.37264289E-01 0.53989439E+03</pdfrwt>
<totfact> 0.88543527E+02</totfact>
</mgrwt>
<rwgt>
<wgt id='morphing_basis_vector_1'> +1.9133959e-04 </wgt>
<wgt id='morphing_basis_vector_2'> +1.0715206e-04 </wgt>
<wgt id='morphing_basis_vector_3'> +1.4339702e-04 </wgt>
<wgt id='morphing_basis_vector_4'> +5.4253481e-05 </wgt>
<wgt id='morphing_basis_vector_5'> +7.9248170e-05 </wgt>
</rwgt>
</event>
<event>
 4      1 +1.0153100e-05 5.65355700e+02 7.81860800e-03 9.26437200e-02
        2 -1    0    0  501    0 +0.0000000000e+00 +0.0000000000e+00 +1.0276247856e+03 1.0276247856e+03 0.0000000000e+00 0.0000e+00 1.0000e+00
       -2 -1    0    0    0  501 -0.0000000000e+00 -0.0000000000e+00 -7.7758690270e+01 7.7758690270e+01 0.0000000000e+00 0.0000e+00 -1.0000e+00
      -13  1    1    2    0    0 +1.8684061187e+02 +1.8029841843e+02 +2.5642402778e+02 3.6492494565e+02 0.0000000000e+00 0.0000e+00 -1.0000e+00
       13  1    1    2    0    0 -1.8684061187e+02 -1.8029841843e+02 +6.9344206759e+02 7.4045853027e+02 0.0000000000e+00 0.0000e+00 1.0000e+00
<mgrwt>
<rscale>  0 0.56535567E+03</rscale>
<asrwt>0</asrwt>
<pdfrwt beam="1">  1        2 0.15809611E+00 0.56535567E+03</pdfrwt>
<pdfrwt beam="2">  1       -2 0.11962876E-01 0.56535567E+03</pdfrwt>
<totfact> 0.13806271E+03</totfact>
</mgrwt>
<rwgt>
<wgt id='morphing_basis_vector_1'> +2.2238150e-04 </wgt>
<wgt id='morphing_basis_vector_2'> +1.2861999e-04 </wgt>
<wgt id='morphing_basis_vector_3'> +1.6976230e-04 </wgt>
<wgt id='morphing_basis_vector_4'> +6.7575790e-05 </wgt>
<wgt id='morphing_basis_vector_5'> +1.0165962e-04 </wgt>
</rwgt>
</event>
<event>
 4      1 +1.0153100e-05 5.77280400e+02 7.81860800e-03 9.24177000e-02
        2 -1    0    0  501    0 +0.0000000000e+00 +0.0000000000e+00 +4.5063556995e+02 4.5063556995e+02 0.0000000000e+00 0.0000e+00 -1.0000e+00
       -2 -1    0    0    0  501 -0.0000000000e+00 -0.0000000000e+00 -1.8487924307e+02 1.8487924307e+02 0.0000000000e+00 0.0000e+00 1.0000e+00
      -13  1    1    2    0    0 -6.5038242178e+01 +1.0380526248e+02 -1.5484416550e+02 1.9743915785e+02 0.0000000000e+00 0.0000e+00 1.0000e+00
       13  1    1    2    0    0 +6.5038242178e+01 -1.0380526248e+02 +4.2060049238e+02 4.3807565517e+02 0.0000000000e+00 0.0000e+00 -1.0000e+00
<mgrwt>
<rscale>  0 0.57728039E+03</rscale>
<asrwt>0</asrwt>
<pdfrwt beam="1">  1        2 0.69328549E-01 0.57728039E+03</pdfrwt>
<pdfrwt beam="2">  1       -2 0.28442961E-01 0.57728039E+03</pdfrwt>
<totfact> 0.91032853E+02</totfact>
</mgrwt>
<rwgt>
<wgt id='morphing_basis_vector_1'> +2.3610623e-04 </wgt>
<wgt id='morphing_basis_vector_2'> +1.3307881e-04 </wgt>
<wgt id='morphing_basis_vector_3'> +1.8362021e-04 </wgt>
<wgt id='morphing_basis_vector_4'> +7.6025814e-05 </wgt>
<wgt id='morphing_basis_vector_5'> +1.1347622e-04 </wgt>
</rwgt>
</event>
<event>
 4      1 +1.0153100e-05 5.42809000e+02 7.81860800e-03 9.30877200e-02
        2 -1    0    0  501    0 +0.0000000000e+00 +0.0000000000e+00 +5.2606959885e+02 5.2606959885e+02 0.0000000000e+00 0.0000e+00 1.0000e+00
       -2 -1    0    0    0  501 -0.0000000000e+00 -0.0000000000e+00 -1.4002027033e+02 1.4002027033e+02 0.0000000000e+00 0.0000e+00 -1.0000e+00
      -13  1    1    2    0    0 +2.4184134076e+02 +9.3245031724e+01 +9.4254844882e+01 2.7580037314e+02 0.0000000000e+00 0.0000e+00 -1.0000e+00
       13  1    1    2    0    0 -2.4184134076e+02 -9.3245031724e+01 +2.9179448363e+02 3.9028949604e+02 0.0000000000e+00 0.0000e+00 1.0000e+00
<mgrwt>
<rscale>  0 0.54280902E+03</rscale>
<asrwt>0</asrwt>
<pdfrwt beam="1">  1        2 0.80933783E-01 0.54280902E+03</pdfrwt>
<pdfrwt beam="2">  1       -2 0.21541580E-01 0.54280902E+03</pdfrwt>
<totfact> 0.12267187E+03</totfact>
</mgrwt>
<rwgt>
<wgt id='morphing_basis_vector_1'> +1.9633127e-04 </wgt>
<wgt id='morphing_basis_vector_2'> +1.1451299e-04 </wgt>
<wgt id='morphing_basis_vector_3'> +1.4587474e-04 </wgt>
<wgt id='morphing_basis_vector_4'> +5.4748468e-05 </wgt>
<wgt id='morphing_basis_vector_5'> +8.1664699e-05 </wgt>
</rwgt>
</event>
<event>
 4      1 +1.0153100e-05 6.01499000e+02 7.81860800e-03 9.19759700e-02
        2 -1    0    0  501    0 +0.0000000000e+00 +0.0000000000e+00 +1.1450308881e+03 1.1450308881e+03 0.0000000000e+00 0.0000e+00 -1.0000e+00
       -2 -1    0    0    0  501 -0.0000000000e+00 -0.0000000000e+00 -7.8993735954e+01 7.8993735954e+01 0.0000000000e+00 0.0000e+00 1.0000e+00
      -13  1    1    2    0    0 -1.6928151848e+02 -2.1958804081e+02 +2.9592095907e+02 4.0551739073e+02 0.0000000000e+00 0.0000e+00 1.0000e+00
       13  1    1    2    0    0 +1.6928151848e+02 +2.1958804081e+02 +7.7011619310e+02 8.1850723335e+02 0.0000000000e+00 0.0000e+00 -1.0000e+00
<mgrwt>
<rscale>  0 0.60149902E+03</rscale>
<asrwt>0</asrwt>
<pdfrwt beam="1">  1        2 0.17615859E+00 0.60149902E+03</pdfrwt>
<pdfrwt beam="2">  1       -2 0.12152883E-01 0.60149902E+03</pdfrwt>
<totfact> 0.11459933E+03</totfact>
</mgrwt>
<rwgt>
<wgt id='morphing_basis_vector_1'> +2.7154976e-04 </wgt>
<wgt id='morphing_basis_vector_2'> +1.5919169e-04 </wgt>
<wgt id='morphing_basis_vector_3'> +2.1415696e-04 </wgt>
<wgt id='morphing_basis_vector_4'> +9.1529244e-05 </wgt>
<wgt id='morphing_basis_vector_5'> +1.4041165e-04 </wgt>
</rwgt>
</event>
<event>
 4      1 +1.0153100e-05 5.91904500e+02 7.81860800e-03 9.21482900e-02
        2 -1    0    0  501    0 +0.0000000000e+00 +0.0000000000e+00 +8.9160841627e+01 8.9160841627e+01 0.0000000000e+00 0.0000e+00 -1.0000e+00
       -2 -1    0    0    0  501 -0.0000000000e+00 -0.0000000000e+00 -9.8235642927e+02 9.8235642927e+02 0.0000000000e+00 0.0000e+00 1.0000e+00
      -13  1    1    2    0    0 +1.5534905593e+02 -1.2109974595e+01 -9.0208478467e+02 9.1544357521e+02 0.0000000000e+00 0.0000e+00 1.0000e+00
       13  1    1    2    0    0 -1.5534905593e+02 +1.2109974595e+01 +8.8891970256e+00 1.5607369569e+02 0.0000000000e+00 0.0000e+00 -1.0000e+00
<mgrwt>
<rscale>  0 0.59190447E+03</rscale>
<asrwt>0</asrwt>
<pdfrwt beam="1">  1        2 0.13717054E-01 0.59190447E+03</pdfrwt>
<pdfrwt beam="2">  1       -2 0.15113174E+00 0.59190447E+03</pdfrwt>
<totfact> 0.16182005E+02</totfact>
</mgrwt>
<rwgt>
<wgt id='morphing_basis_vector_1'> +2.5596068e-04 </wgt>
<wgt id='morphing_basis_vector_2'> +1.4510681e-04 </wgt>
<wgt id='morphing_basis_vector_3'> +2.0158384e-04 </wgt>
<wgt id='morphing_basis_vector_4'> +8.5954244e-05 </wgt>
<wgt id='morphing_basis_vector_5'> +1.2925971e-04 </wgt>
</rwgt>
</event>
<event>
 4      1 +1.0153100e-05 5.37379200e+02 7.81860800e-03 9.31980900e-02
        2 -1    0    0  501    0 +0.0000000000e+00 +0.0000000000e+00 +1.2419399561e+02 1.2419399561e+02 0.0000000000e+00 0.0000e+00 1.0000e+00
       -2 -1    0    0    0  501 -0.0000000000e+00 -0.0000000000e+00 -5.8130095278e+02 5.8130095278e+02 0.0000000000e+00 0.0000e+00 -1.0000e+00
      -13  1    1    2    0    0 +1.0632610173e+02 +2.3879529636e+02 -3.1017874535e+02 4.0563442598e+02 0.0000000000e+00 0.0000e+00 -1.0000e+00
       13  1    1    2    0    0 -1.0632610173e+02 -2.3879529636e+02 -1.4692821181e+02 2.9986052241e+02 0.0000000000e+00 0.0000e+00 1.0000e+00
<mgrwt>
<rscale>  0 0.53737915E+03</rscale>
<asrwt>0</asrwt>
<pdfrwt beam="1">  1        2 0.19106769E-01 0.53737915E+03</pdfrwt>
<pdfrwt beam="2">  1       -2 0.89430915E-01 0.53737915E+03</pdfrwt>
<totfact> 0.41341046E+02</totfact>
</mgrwt>
<rwgt>
<wgt id='morphing_basis_vector_1'> +1.9088761e-04 </wgt>
<wgt id='morphing_basis_vector_2'> +1.1268821e-04 </wgt>
<wgt id='morphing_basis_vector_3'> +1.4042186e-04 </wgt>
<wgt id='morphing_basis_vector_4'> +5.1718809e-05 </wgt>
<wgt id='morphing_basis_vector_5'> +7.7301674e-05 </wgt>
</rwgt>
</event>
<event>
 4      1 +1.0153100e-05 5.81126900e+02 7.81860800e-03 9.23460200e-02
        2 -1    0    0  501    0 +0.0000000000e+00 +0.0000000000e+00 +1.0978015731e+03 1.0978015731e+03 0.0000000000e+00 0.0000e+00 -1.0000e+00
       -2 -1    0    0    0  501 -0.0000000000e+00 -0.0000000000e+00 -7.6905624676e+01 7.6905624676e+01 0.0000000000e+00 0.0000e+00 1.0000e+00
      -13  1    1    2    0    0 -2.2104792868e+02 +1.3248904836e+02 +2.3915748050e+02 3.5158474823e+02 0.0000000000e+00 0.0000e+00 1.0000e+00
       13  1    1    2    0    0 +2.2104792868e+02 -1.3248904836e+02 +7.8173846792e+02 8.2312244954e+02 0.0000000000e+00 0.0000e+00 -1.0000e+00
<mgrwt>
<rscale>  0 0.58112689E+03</rscale>
<asrwt>0</asrwt>
<pdfrwt beam="1">  1        2 0.16889254E+00 0.58112689E+03</pdfrwt>
<pdfrwt beam="2">  1       -2 0.11831635E-01 0.58112689E+03</pdfrwt>
<totfact> 0.12751093E+03</totfact>
</mgrwt>
<rwgt>
<wgt id='morphing_basis_vector_1'> +2.4237611e-04 </wgt>
<wgt id='morphing_basis_vector_2'> +1.3979997e-04 </wgt>
<wgt id='morphing_basis_vector_3'> +1.8815277e-04 </wgt>
<wgt id='morphing_basis_vector_4'> +7.7721336e-05 </wgt>
<wgt id='morphing_basis_vector_5'> +1.1750406e-04 </wgt>
</rwgt>
</event>
<event>
 4      1 +1.0153100e-05 5.45481800e+02 7.81860800e-03 9.30338900e-02
        2 -1    0    0  501    0 +0.0000000000e+00 +0.0000000000e+00 +3.0479350995e+02 3.0479350995e+02 0.0000000000e+00 0.0000e+00 -1.0000e+00
       -2 -1    0    0    0  501 -0.0000000000e+00 -0.0000000000e+00 -2.4405903258e+02 2.4405903258e+02 0.0000000000e+00 0.0000e+00 1.0000e+00
      -13  1    1    2    0    0 -7.1581239579e+01 +3.3096093544e+01 -2.3233688105e+02 2.4535617287e+02 0.0000000000e+00 0.0000e+00 1.0000e+00
       13  1    1    2    0    0 +7.1581239579e+01 -3.3096093544e+01 +2.9307135842e+02 3.0349636966e+02 0.0000000000e+00 0.0000e+00 -1.0000e+00
<mgrwt>
<rscale>  0 0.54548184E+03</rscale>
<asrwt>0</asrwt>
<pdfrwt beam="1">  1        2 0.46891309E-01 0.54548184E+03</pdfrwt>
<pdfrwt beam="2">  1       -2 0.37547544E-01 0.54548184E+03</pdfrwt>
<totfact> 0.86064619E+02</totfact>
</mgrwt>
<rwgt>
<wgt id='morphing_basis_vector_1'> +1.9729093e-04 </wgt>
<wgt id='morphing_basis_vector_2'> +1.0992895e-04 </wgt>
<wgt id='morphing_basis_vector_3'> +1.4896669e-04 </wgt>
<wgt id='morphing_basis_vector_4'> +5.7318193e-05 </wgt>
<wgt id='morphing_basis_vector_5'> +8.3831085e-05 </wgt>
</rwgt>
</event>
<event>
 4      1 +1.0153100e-05 5.51092200e+02 7.81860800e-03 9.29219800e-02
        2 -1    0    0  501    0 +0.0000000000e+00 +0.0000000000e+00 +1.3216708254e+03 1.3216708254e+03 0.0000000000e+00 0.0000e+00 -1.0000e+00
       -2 -1    0    0    0  501 -0.0000000000e+00 -0.0000000000e+00 -5.7446718000e+01 5.7446718000e+01 0.0000000000e+00 0.0000e+00 1.0000e+00
      -13  1    1    2    0    0 -8.1616200118e+01 +2.2718287691e+02 +9.6460217856e+02 9.9434934835e+02 0.0000000000e+00 0.0000e+00 1.0000e+00
       13  1    1    2    0    0 +8.1616200118e+01 -2.2718287691e+02 +2.9962192885e+02 3.8476819506e+02 0.0000000000e+00 0.0000e+00 -1.0000e+00
<mgrwt>
<rscale>  0 0.55109219E+03</rscale>
<asrwt>0</asrwt>
<pdfrwt beam="1">  1        2 0.20333395E+00 0.55109219E+03</pdfrwt>
<pdfrwt beam="2">  1       -2 0.88379576E-02 0.55109219E+03</pdfrwt>
<totfact> 0.15008109E+03</totfact>
</mgrwt>
<rwgt>
<wgt id='morphing_basis_vector_1'> +2.3727258e-04 </wgt>
<wgt id='morphing_basis_vector_2'> +2.1791769e-04 </wgt>
<wgt id='morphing_basis_vector_3'> +1.4868987e-04 </wgt>
<wgt id='morphing_basis_vector_4'> +4.0171204e-05 </wgt>
<wgt id='morphing_basis_vector_5'> +8.9366296e-05 </wgt>
</rwgt>
</event>
<event>
 4      1 +1.0153100e-05 5.57906500e+02 7.81860800e-03 9.27879300e-02
        2 -1    0    0  501    0 +0.0000000000e+00 +0.0000000000e+00 +6.5534626720e+02 6.5534626720e+02 0.0000000000e+00 0.0000e+00 -1.0000e+00
       -2 -1    0    0    0  501 -0.0000000000e+00 -0.0000000000e+00 -1.1873864771e+02 1.1873864771e+02 0.0000000000e+00 0.0000e+00 1.0000e+00
      -13  1    1    2    0    0 +1.4324656649e+02 +7.9146575423e+01 -4.5129326585e+01 1.6976576607e+02 0.0000000000e+00 0.0000e+00 1.0000e+00
       13  1    1    2    0    0 -1.4324656649e+02 -7.9146575423e+01 +5.8173694608e+02 6.0431914884e+02 0.0000000000e+00 0.0000e+00 -1.0000e+00
<mgrwt>
<rscale>  0 0.55790655E+03</rscale>
<asrwt>0</asrwt>
<pdfrwt beam="1">  1        2 0.10082250E+00 0.55790655E+03</pdfrwt>
<pdfrwt beam="2">  1       -2 0.18267485E-01 0.55790655E+03</pdfrwt>
<totfact> 0.12483149E+03</totfact>
</mgrwt>
<rwgt>
<wgt id='morphing_basis_vector_1'> +2.1186017e-04 </wgt>
<wgt id='morphing_basis_vector_2'> +1.1877444e-04 </wgt>
<wgt id='morphing_basis_vector_3'> +1.6180501e-04 </wgt>
<wgt id='morphing_basis_vector_4'> +6.4122255e-05 </wgt>
<wgt id='morphing_basis_vector_5'> +9.4686409e-05 </wgt>
</rwgt>
</event>
<event>
 4      1 +1.0153100e-05 5.94548500e+02 7.81860800e-03 9.21004600e-02
        2 -1    0    0  501    0 +0.0000000000e+00 +0.0000000000e+00 +6.6489825800e+02 6.6489825800e+02 0.0000000000e+00 0.0000e+00 1.0000e+00
       -2 -1    0    0    0  501 -0.0000000000e+00 -0.0000000000e+00 -1.3291054157e+02 1.3291054157e+02 0.0000000000e+00 0.0000e+00 -1.0000e+00
      -13  1    1    2    0    0 -1.7271359407e+02 -1.0952237501e+02 -2.3511542175e+01 2.0585900228e+02 0.0000000000e+00 0.0000e+00 -1.0000e+00
       13  1    1    2    0    0 +1.7271359407e+02 +1.0952237501e+02 +5.5549925860e+02 5.9194979729e+02 0.0000000000e+00 0.0000e+00 1.0000e+00
<mgrwt>
<rscale>  0 0.59454853E+03</rscale>
<asrwt>0</asrwt>
<pdfrwt beam="1">  1        2 0.10229204E+00 0.59454853E+03</pdfrwt>
<pdfrwt beam="2">  1       -2 0.20447776E-01 0.59454853E+03</pdfrwt>
<totfact> 0.10178093E+03</totfact>
</mgrwt>
<rwgt>
<wgt id='morphing_basis_vector_1'> +2.5986510e-04 </wgt>
<wgt id='morphing_basis_vector_2'> +1.4791544e-04 </wgt>
<wgt id='morphing_basis_vector_3'> +2.0497599e-04 </wgt>
<wgt id='morphing_basis_vector_4'> +8.7713622e-05 </wgt>
<wgt id='morphing_basis_vector_5'> +1.3226820e-04 </wgt>
</rwgt>
</event>
<event>
 4      1 +1.0153100e-05 5.86971300e+02 7.81860800e-03 9.22382400e-02
        2 -1    0    0  501    0 +0.0000000000e+00 +0.0000000000e+00 +5.6506295807e+02 5.6506295807e+02 0.0000000000e+00 0.0000e+00 1.0000e+00
       -2 -1    0    0    0  501 -0.0000000000e+00 -0.0000000000e+00 -1.5243227557e+02 1.5243227557e+02 0.0000000000e+00 0.0000e+00 -1.0000e+00
      -13  1    1    2    0    0 +9.8846546174e+01 -2.2077249957e+02 +4.0947392331e+02 4.7558388338e+02 0.0000000000e+00 0.0000e+00 1.0000e+00
       13  1    1    2    0    0 -9.8846546174e+01 +2.2077249957e+02 +3.1567591868e+00 2.4191135027e+02 0.0000000000e+00 0.0000e+00 -1.0000e+00
<mgrwt>
<rscale>  0 0.58697132E+03</rscale>
<asrwt>0</asrwt>
<pdfrwt beam="1">  1        2 0.86932762E-01 0.58697132E+03</pdfrwt>
<pdfrwt beam="2">  1       -2 0.23451120E-01 0.58697132E+03</pdfrwt>
<totfact> 0.97951757E+02</totfact>
</mgrwt>
<rwgt>
<wgt id='morphing_basis_vector_1'> +3.0075363e-04 </wgt>
<wgt id='morphing_basis_vector_2'> +3.0114899e-04 </wgt>
<wgt id='morphing_basis_vector_3'> +1.9378811e-04 </wgt>
<wgt id='morphing_basis_vector_4'> +4.4934981e-05 </wgt>
<wgt id='morphing_basis_vector_5'> +1.2426768e-04 </wgt>
</rwgt>
</event>
<event>
 4      1 +1.0153100e-05 5.77744500e+02 7.81860800e-03 9.24090200e-02
        2 -1    0    0  501    0 +0.0000000000e+00 +0.0000000000e+00 +1.6820610362e+02 1.6820610362e+02 0.0000000000e+00 0.0000e+00 -1.0000e+00
       -2 -1    0    0    0  501 -0.0000000000e+00 -0.0000000000e+00 -4.9610070550e+02 4.9610070550e+02 0.0000000000e+00 0.0000e+00 1.0000e+00
      -13  1    1    2    0    0 +2.3645265694e+02 -9.3044351250e+01 -3.2193910357e+02 4.1013643667e+02 0.0000000000e+00 0.0000e+00 1.0000e+00
       13  1    1    2    0    0 -2.3645265694e+02 +9.3044351250e+01 -5.9554983024e+00 2.5417037245e+02 0.0000000000e+00 0.0000e+00 -1.0000e+00
<mgrwt>
<rscale>  0 0.57774446E+03</rscale>
<asrwt>0</asrwt>
<pdfrwt beam="1">  1        2 0.25877862E-01 0.57774446E+03</pdfrwt>
<pdfrwt beam="2">  1       -2 0.76323184E-01 0.57774446E+03</pdfrwt>
<totfact> 0.41321710E+02</totfact>
</mgrwt>
<rwgt>
<wgt id='morphing_basis_vector_1'> +2.3779568e-04 </wgt>
<wgt id='morphing_basis_vector_2'> +1.3679675e-04 </wgt>
<wgt id='morphing_basis_vector_3'> +1.8409724e-04 </wgt>
<wgt id='morphing_basis_vector_4'> +7.5575906e-05 </wgt>
<wgt id='morphing_basis_vector_5'> +1.1396921e-04 </wgt>
</rwgt>
</event>
<event>
 4      1 +1.0153100e-05 5.39853600e+02 7.81860800e-03 9.31476200e-02
        2 -1    0    0  501    0 +0.0000000000e+00 +0.0000000000e+00 +8.4808498582e+02 8.4808498582e+02 0.0000000000e+00 0.0000e+00 -1.0000e+00
       -2 -1    0    0    0  501 -0.0000000000e+00 -0.0000000000e+00 -8.5911752677e+01 8.5911752677e+01 0.0000000000e+00 0.0000e+00 1.0000e+00
      -13  1    1    2    0    0 -1.6456590632e+02 +9.4641215881e+01 +4.9100027881e+01 1.9608597605e+02 0.0000000000e+00 0.0000e+00 1.0000e+00
       13  1    1    2    0    0 +1.6456590632e+02 -9.4641215881e+01 +7.1307320526e+02 7.3791076244e+02 0.0000000000e+00 0.0000e+00 -1.0000e+00
<mgrwt>
<rscale>  0 0.53985356E+03</rscale>
<asrwt>0</asrwt>
<pdfrwt beam="1">  1        2 0.13047461E+00 0.53985356E+03</pdfrwt>
<pdfrwt beam="2">  1       -2 0.13217193E-01 0.53985356E+03</pdfrwt>
<totfact> 0.15304134E+03</totfact>
</mgrwt>
<rwgt>
<wgt id='morphing_basis_vector_1'> +1.9119890e-04 </wgt>
<wgt id='morphing_basis_vector_2'> +1.0682834e-04 </wgt>
<wgt id='morphing_basis_vector_3'> +1.4337910e-04 </wgt>
<wgt id='morphing_basis_vector_4'> +5.4286240e-05 </wgt>
<wgt id='morphing_basis_vector_5'> +7.9212764e-05 </wgt>
</rwgt>
</event>
<event>
 4      1 +1.0153100e-05 5.28674800e+02 7.81860800e-03 9.33779500e-02
        2 -1    0    0  501    0 +0.0000000000e+00 +0.0000000000e+00 +5.1227827890e+02 5.1227827890e+02 0.0000000000e+00 0.0000e+00 1.0000e+00
       -2 -1    0    0    0  501 -0.0000000000e+00 -0.0000000000e+00 -1.3639903598e+02 1.3639903598e+02 0.0000000000e+00 0.0000e+00 -1.0000e+00
      -13  1    1    2    0    0 +1.8535661657e+02 +5.0204157389e+01 -3.4942662418e+01 1.9518842789e+02 0.0000000000e+00 0.0000e+00 -1.0000e+00
       13  1    1    2    0    0 -1.8535661657e+02 -5.0204157389e+01 +4.1082190533e+02 4.5348888699e+02 0.0000000000e+00 0.0000e+00 1.0000e+00
<mgrwt>
<rscale>  0 0.52867481E+03</rscale>
<asrwt>0</asrwt>
<pdfrwt beam="1">  1        2 0.78812042E-01 0.52867481E+03</pdfrwt>
<pdfrwt beam="2">  1       -2 0.20984467E-01 0.52867481E+03</pdfrwt>
<totfact> 0.13208263E+03</totfact>
</mgrwt>
<rwgt>
<wgt id='morphing_basis_vector_1'> +1.7921979e-04 </wgt>
<wgt id='morphing_basis_vector_2'> +9.9844570e-05 </wgt>
<wgt id='morphing_basis_vector_3'> +1.3285026e-04 </wgt>
<wgt id='morphing_basis_vector_4'> +4.8806592e-05 </wgt>
<wgt id='morphing_basis_vector_5'> +7.0552239e-05 </wgt>
</rwgt>
</event>
<event>
 4      1 +1.0153100e-05 5.55368600e+02 7.81860800e-03 9.28376200e-02
        2 -1    0    0  501    0 +0.0000000000e+00 +0.0000000000e+00 +1.2532536474e+03 1.2532536474e+03 0.0000000000e+00 0.0000e+00 -1.0000e+00
       -2 -1    0    0    0  501 -0.0000000000e+00 -0.0000000000e+00 -6.1526699284e+01 6.1526699284e+01 0.0000000000e+00 0.0000e+00 1.0000e+00
      -13  1    1    2    0    0 +2.6763260868e+02 +5.4093283174e+01 +4.7619223711e+02 5.4891925016e+02 0.0000000000e+00 0.0000e+00 1.0000e+00
       13  1    1    2    0    0 -2.6763260868e+02 -5.4093283174e+01 +7.1553471096e+02 7.6586109648e+02 0.0000000000e+00 0.0000e+00 -1.0000e+00
<mgrwt>
<rscale>  0 0.55536856E+03</rscale>
<asrwt>0</asrwt>
<pdfrwt beam="1">  1        2 0.19280823E+00 0.55536856E+03</pdfrwt>
<pdfrwt beam="2">  1       -2 0.94656470E-02 0.55536856E+03</pdfrwt>
<totfact> 0.14734285E+03</totfact>
</mgrwt>
<rwgt>
<wgt id='morphing_basis_vector_1'> +2.1228088e-04 </wgt>
<wgt id='morphing_basis_vector_2'> +1.2768444e-04 </wgt>
<wgt id='morphing_basis_vector_3'> +1.5855812e-04 </wgt>
<wgt id='morphing_basis_vector_4'> +6.0548270e-05 </wgt>
<wgt id='morphing_basis_vector_5'> +9.2466971e-05 </wgt>
</rwgt>
</event>
<event>
 4      1 +1.0153100e-05 5.24608600e+02 7.81860800e-03 9.34632400e-02
        2 -1    0    0  501    0 +0.0000000000e+00 +0.0000000000e+00 +1.8485562921e+02 1.8485562921e+02 0.0000000000e+00 0.0000e+00 -1.0000e+00
       -2 -1    0    0    0  501 -0.0000000000e+00 -0.0000000000e+00 -3.7220155615e+02 3.7220155615e+02 0.0000000000e+00 0.0000e+00 1.0000e+00
      -13  1    1    2    0    0 +2.0378007008e+02 +8.8044381320e+01 -2.4204927674e+02 3.2842956995e+02 0.0000000000e+00 0.0000e+00 1.0000e+00
       13  1    1    2    0    0 -2.0378007008e+02 -8.8044381320e+01 +5.4703349801e+01 2.2862761540e+02 0.0000000000e+00 0.0000e+00 -1.0000e+00
<mgrwt>
<rscale>  0 0.52460863E+03</rscale>
<asrwt>0</asrwt>
<pdfrwt beam="1">  1        2 0.28439328E-01 0.52460863E+03</pdfrwt>
<pdfrwt beam="2">  1       -2 0.57261777E-01 0.52460863E+03</pdfrwt>
<totfact> 0.67694263E+02</totfact>
</mgrwt>
<rwgt>
<wgt id='morphing_basis_vector_1'> +1.7537616e-04 </wgt>
<wgt id='morphing_basis_vector_2'> +9.8512871e-05 </wgt>
<wgt id='morphing_basis_vector_3'> +1.2907402e-04 </wgt>
<wgt id='morphing_basis_vector_4'> +4.6740720e-05 </wgt>
<wgt id='morphing_basis_vector_5'> +6.7580424e-05 </wgt>
</rwgt>
</event>
<event>
 4      1 +1.0153100e-05 5.94059500e+02 7.81860800e-03 9.21092800e-02
        2 -1    0    0  501    0 +0.0000000000e+00 +0.0000000000e+00 +6.4049783598e+02 6.4049783598e+02 0.0000000000e+00 0.0000e+00 -1.0000e+00
       -2 -1    0    0    0  501 -0.0000000000e+00 -0.0000000000e+00 -1.3774702778e+02 1.3774702778e+02 0.0000000000e+00 0.0000e+00 1.0000e+00
      -13  1    1    2    0    0 +2.2434814791e+02 -1.5848856683e+02 +1.0329996878e+02 2.9346482044e+02 0.0000000000e+00 0.0000e+00 1.0000e+00
       13  1    1    2    0    0 -2.2434814791e+02 +1.5848856683e+02 +3.9945083941e+02 4.8478004331e+02 0.0000000000e+00 0.0000e+00 -1.0000e+00
<mgrwt>
<rscale>  0 0.59405950E+03</rscale>
<asrwt>0</asrwt>
<pdfrwt beam="1">  1        2 0.98538127E-01 0.59405950E+03</pdfrwt>
<pdfrwt beam="2">  1       -2 0.21191851E-01 0.59405950E+03</pdfrwt>
<totfact> 0.10026430E+03</totfact>
</mgrwt>
<rwgt>
<wgt id='morphing_basis_vector_1'> +2.6084451e-04 </wgt>
<wgt id='morphing_basis_vector_2'> +1.5268134e-04 </wgt>
<wgt id='morphing_basis_vector_3'> +2.0433940e-04 </wgt>
<wgt id='morphing_basis_vector_4'> +8.6105680e-05 </wgt>
<wgt id='morphing_basis_vector_5'> +1.3172018e-04 </wgt>
</rwgt>
</event>
<event>
 4      1 +1.0153100e-05 5.48268100e+02 7.81860800e-03 9.29781300e-02
        2 -1    0    0  501    0 +0.0000000000e+00 +0.0000000000e+00 +6.0110119071e+02 6.0110119071e+02 0.0000000000e+00 0.0000e+00 -1.0000e+00
       -2 -1    0    0    0  501 -0.0000000000e+00 -0.0000000000e+00 -1.2501967791e+02 1.2501967791e+02 0.0000000000e+00 0.0000e+00 1.0000e+00
      -13  1    1    2    0    0 -1.1047072469e+02 -2.0925877128e+02 +5.4736055751e+01 2.4287661512e+02 0.0000000000e+00 0.0000e+00 1.0000e+00
       13  1    1    2    0    0 +1.1047072469e+02 +2.0925877128e+02 +4.2134545705e+02 4.8324425351e+02 0.0000000000e+00 0.0000e+00 -1.0000e+00
<mgrwt>
<rscale>  0 0.54826810E+03</rscale>
<asrwt>0</asrwt>
<pdfrwt beam="1">  1        2 0.92477104E-01 0.54826810E+03</pdfrwt>
<pdfrwt beam="2">  1       -2 0.19233797E-01 0.54826810E+03</pdfrwt>
<totfact> 0.12697154E+03</totfact>
</mgrwt>
<rwgt>
<wgt id='morphing_basis_vector_1'> +2.0125777e-04 </wgt>
<wgt id='morphing_basis_vector_2'> +1.1426447e-04 </wgt>
<wgt id='morphing_basis_vector_3'> +1.5162362e-04 </wgt>
<wgt id='morphing_basis_vector_4'> +5.8339031e-05 </wgt>
<wgt id='morphing_basis_vector_5'> +8.6205093e-05 </wgt>
</rwgt>
</event>
<event>
 4      1 +1.0153100e-05 5.67451000e+02 7.81860800e-03 9.26035800e-02
        2 -1    0    0  501    0 +0.0000000000e+00 +0.0000000000e+00 +2.9016980924e+02 2.9016980924e+02 0.0000000000e+00 0.0000e+00 -1.0000e+00
       -2 -1    0    0    0  501 -0.0000000000e+00 -0.0000000000e+00 -2.7742431340e+02 2.7742431340e+02 0.0000000000e+00 0.0000e+00 1.0000e+00
      -13  1    1    2    0    0 +9.1493004659e+01 -2.5922954343e+02 -6.3853463597e+01 2.8222011073e+02 0.0000000000e+00 0.0000e+00 1.0000e+00
       13  1    1    2    0    0 -9.1493004659e+01 +2.5922954343e+02 +7.6598959438e+01 2.8537401191e+02 0.0000000000e+00 0.0000e+00 -1.0000e+00
<mgrwt>
<rscale>  0 0.56745100E+03</rscale>
<asrwt>0</asrwt>
<pdfrwt beam="1">  1        2 0.44641509E-01 0.56745100E+03</pdfrwt>
<pdfrwt beam="2">  1       -2 0.42680663E-01 0.56745100E+03</pdfrwt>
<totfact> 0.71712869E+02</totfact>
</mgrwt>
<rwgt>
<wgt id='morphing_basis_vector_1'> +2.2640121e-04 </wgt>
<wgt id='morphing_basis_vector_2'> +1.3454160e-04 </wgt>
<wgt id='morphing_basis_vector_3'> +1.7196488e-04 </wgt>
<wgt id='morphing_basis_vector_4'> +6.7909353e-05 </wgt>
<wgt id='morphing_basis_vector_5'> +1.0369760e-04 </wgt>
</rwgt>
</event>
<event>
 4      1 +1.0153100e-05 5.76718900e+02 7.81860800e-03 9.24282100e-02
        2 -1    0    0  501    0 +0.0000000000e+00 +0.0000000000e+00 +6.7150201489e+02 6.7150201489e+02 0.0000000000e+00 0.0000e+00 -1.0000e+00
       -2 -1    0    0    0  501 -0.0000000000e+00 -0.0000000000e+00 -1.2382862341e+02 1.2382862341e+02 0.0000000000e+00 0.0000e+00 1.0000e+00
      -13  1    1    2    0    0 +8.9976402321e+01 -1.8513757048e+02 -4.6500099725e+00 2.0589632239e+02 0.0000000000e+00 0.0000e+00 1.0000e+00
       13  1    1    2    0    0 -8.9976402321e+01 +1.8513757048e+02 +5.5232340145e+02 5.8943431591e+02 0.0000000000e+00 0.0000e+00 -1.0000e+00
<mgrwt>
<rscale>  0 0.57671889E+03</rscale>
<asrwt>0</asrwt>
<pdfrwt beam="1">  1        2 0.10330800E+00 0.57671889E+03</pdfrwt>
<pdfrwt beam="2">  1       -2 0.19050558E-01 0.57671889E+03</pdfrwt>
<totfact> 0.11313583E+03</totfact>
</mgrwt>
<rwgt>
<wgt id='morphing_basis_vector_1'> +2.3562161e-04 </wgt>
<wgt id='morphing_basis_vector_2'> +1.3341610e-04 </wgt>
<wgt id='morphing_basis_vector_3'> +1.8293894e-04 </wgt>
<wgt id='morphing_basis_vector_4'> +7.5487496e-05 </wgt>
<wgt id='morphing_basis_vector_5'> +1.1290157e-04 </wgt>
</rwgt>
</event>
<event>
 4      1 +1.0153100e-05 5.37281500e+02 7.81860800e-03 9.32000800e-02
        2 -1    0    0  501    0 +0.0000000000e+00 +0.0000000000e+00 +4.6808037707e+02 4.6808037707e+02 0.0000000000e+00 0.0000e+00 1.0000e+00
       -2 -1    0    0    0  501 -0.0000000000e+00 -0.0000000000e+00 -1.5417833717e+02 1.5417833717e+02 0.0000000000e+00 0.0000e+00 -1.0000e+00
      -13  1    1    2    0    0 +6.6933672371e+01 +2.4868607442e+02 +6.8421914514e+01 2.6647033323e+02 0.0000000000e+00 0.0000e+00 -1.0000e+00
       13  1    1    2    0    0 -6.6933672371e+01 -2.4868607442e+02 +2.4548012538e+02 3.5578838101e+02 0.0000000000e+00 0.0000e+00 1.0000e+00
<mgrwt>
<rscale>  0 0.53728151E+03</rscale>
<asrwt>0</asrwt>
<pdfrwt beam="1">  1        2 0.72012365E-01 0.53728151E+03</pdfrwt>
<pdfrwt beam="2">  1       -2 0.23719744E-01 0.53728151E+03</pdfrwt>
<totfact> 0.11911699E+03</totfact>
</mgrwt>
<rwgt>
<wgt id='morphing_basis_vector_1'> +1.9026628e-04 </wgt>
<wgt id='morphing_basis_vector_2'> +1.1102603e-04 </wgt>
<wgt id='morphing_basis_vector_3'> +1.4045020e-04 </wgt>
<wgt id='morphing_basis_vector_4'> +5.1953860e-05 </wgt>
<wgt id='morphing_basis_vector_5'> +7.7210479e-05 </wgt>
</rwgt>
</event>
<event>
 4      1 +1.0153100e-05 5.38020800e+02 7.81860800e-03 9.31849700e-02
        2 -1    0    0  501    0 +0.0000000000e+00 +0.0000000000e+00 +3.9919297433e+02 3.9919297433e+02 0.0000000000e+00 0.0000e+00 -1.0000e+00
       -2 -1    0    0    0  501 -0.0000000000e+00 -0.0000000000e+00 -1.8128224844e+02 1.8128224844e+02 0.0000000000e+00 0.0000e+00 1.0000e+00
      -13  1    1    2    0    0 +4.0690816574e+01 +1.6972630665e+02 -1.1190181027e+02 2.0732770405e+02 0.0000000000e+00 0.0000e+00 1.0000e+00
       13  1    1    2    0    0 -4.0690816574e+01 -1.6972630665e+02 +3.2981253616e+02 3.7314751872e+02 0.0000000000e+00 0.0000e+00 -1.0000e+00
<mgrwt>
<rscale>  0 0.53802082E+03</rscale>
<asrwt>0</asrwt>
<pdfrwt beam="1">  1        2 0.61414304E-01 0.53802082E+03</pdfrwt>
<pdfrwt beam="2">  1       -2 0.27889577E-01 0.53802082E+03</pdfrwt>
<totfact> 0.10794566E+03</totfact>
</mgrwt>
<rwgt>
<wgt id='morphing_basis_vector_1'> +1.8911426e-04 </wgt>
<wgt id='morphing_basis_vector_2'> +1.0541709e-04 </wgt>
<wgt id='morphing_basis_vector_3'> +1.4162623e-04 </wgt>
<wgt id='morphing_basis_vector_4'> +5.3400428e-05 </wgt>
<wgt id='morphing_basis_vector_5'> +7.7743787e-05 </wgt>
</rwgt>
</event>
<event>
 4      1 +1.0153100e-05 5.38296600e+02 7.81860800e-03 9.31793400e-02
        2 -1    0    0  501    0 +0.0000000000e+00 +0.0000000000e+00 +8.1340434455e+02 8.1340434455e+02 0.0000000000e+00 0.0000e+00 -1.0000e+00
       -2 -1    0    0    0  501 -0.0000000000e+00 -0.0000000000e+00 -8.9058789280e+01 8.9058789280e+01 0.0000000000e+00 0.0000e+00 1.0000e+00
      -13  1    1    2    0    0 -1.7807093859e+02 -1.5515414472e+02 +5.7855864371e+02 6.2490973109e+02 0.0000000000e+00 0.0000e+00 1.0000e+00
       13  1    1    2    0    0 +1.7807093859e+02 +1.5515414472e+02 +1.4578691156e+02 2.7755340274e+02 0.0000000000e+00 0.0000e+00 -1.0000e+00
<mgrwt>
<rscale>  0 0.53829660E+03</rscale>
<asrwt>0</asrwt>
<pdfrwt beam="1">  1        2 0.12513912E+00 0.53829660E+03</pdfrwt>
<pdfrwt beam="2">  1       -2 0.13701353E-01 0.53829660E+03</pdfrwt>
<totfact> 0.15247320E+03</totfact>
</mgrwt>
<rwgt>
<wgt id='morphing_basis_vector_1'> +2.2014123e-04 </wgt>
<wgt id='morphing_basis_vector_2'> +2.0103244e-04 </wgt>
<wgt id='morphing_basis_vector_3'> +1.3469965e-04 </wgt>
<wgt id='morphing_basis_vector_4'> +3.6538206e-05 </wgt>
<wgt id='morphing_basis_vector_5'> +7.8786962e-05 </wgt>
</rwgt>
</event>
<event>
 4      1 +1.0153100e-05 5.48891400e+02 7.81860800e-03 9.29657100e-02
        2 -1    0    0  501    0 +0.0000000000e+00 +0.0000000000e+00 +1.2521003198e+03 1.2521003198e+03 0.0000000000e+00 0.0000e+00 -1.0000e+00
       -2 -1    0    0    0  501 -0.0000000000e+00 -0.0000000000e+00 -6.0155281736e+01 6.0155281736e+01 0.0000000000e+00 0.0000e+00 1.0000e+00
      -13  1    1    2    0    0 +2.2878434916e+02 -5.2238985810e+01 +2.5577076791e+02 3.4711651614e+02 0.0000000000e+00 0.0000e+00 1.0000e+00
       13  1    1    2    0    0 -2.2878434916e+02 +5.2238985810e+01 +9.3617427014e+02 9.6513908538e+02 0.0000000000e+00 0.0000e+00 -1.0000e+00
<mgrwt>
<rscale>  0 0.54889142E+03</rscale>
<asrwt>0</asrwt>
<pdfrwt beam="1">  1        2 0.19263080E+00 0.54889142E+03</pdfrwt>
<pdfrwt beam="2">  1       -2 0.92546597E-02 0.54889142E+03</pdfrwt>
<totfact> 0.15286805E+03</totfact>
</mgrwt>
<rwgt>
<wgt id='morphing_basis_vector_1'> +2.0192079e-04 </wgt>
<wgt id='morphing_basis_vector_2'> +1.1452337e-04 </wgt>
<wgt id='morphing_basis_vector_3'> +1.5226960e-04 </wgt>
<wgt id='morphing_basis_vector_4'> +5.8705514e-05 </wgt>
<wgt id='morphing_basis_vector_5'> +8.6736797e-05 </wgt>
</rwgt>
</event>
<event>
 4      1 +1.0153100e-05 5.65236700e+02 7.81860800e-03 9.26460000e-02
        2 -1    0    0  501    0 +0.0000000000e+00 +0.0000000000e+00 +1.0952120742e+03 1.0952120742e+03 0.0000000000e+00 0.0000e+00 -1.0000e+00
       -2 -1    0    0    0  501 -0.0000000000e+00 -0.0000000000e+00 -7.2929379176e+01 7.2929379176e+01 0.0000000000e+00 0.0000e+00 1.0000e+00
      -13  1    1    2    0    0 -8.2942486969e+01 +2.5479471759e+02 +3.2545007739e+02 4.2156560240e+02 0.0000000000e+00 0.0000e+00 1.0000e+00
       13  1    1    2    0    0 +8.2942486969e+01 -2.5479471759e+02 +6.9683261765e+02 7.4657585099e+02 0.0000000000e+00 0.0000e+00 -1.0000e+00
<mgrwt>
<rscale>  0 0.56523672E+03</rscale>
<asrwt>0</asrwt>
<pdfrwt beam="1">  1        2 0.16849415E+00 0.56523672E+03</pdfrwt>
<pdfrwt beam="2">  1       -2 0.11219905E-01 0.56523672E+03</pdfrwt>
<totfact> 0.13919912E+03</totfact>
</mgrwt>
<rwgt>
<wgt id='morphing_basis_vector_1'> +2.2286074e-04 </wgt>
<wgt id='morphing_basis_vector_2'> +1.3047835e-04 </wgt>
<wgt id='morphing_basis_vector_3'> +1.6955516e-04 </wgt>
<wgt id='morphing_basis_vector_4'> +6.7095550e-05 </wgt>
<wgt id='morphing_basis_vector_5'> +1.0155684e-04 </wgt>
</rwgt>
</event>
<event>
 4      1 +1.0153100e-05 5.98987700e+02 7.81860800e-03 9.20207400e-02
        2 -1    0    0  501    0 +0.0000000000e+00 +0.0000000000e+00 +6.9304733771e+02 6.9304733771e+02 0.0000000000e+00 0.0000e+00 1.0000e+00
       -2 -1    0    0    0  501 -0.0000000000e+00 -0.0000000000e+00 -1.2942342300e+02 1.2942342300e+02 0.0000000000e+00 0.0000e+00 -1.0000e+00
      -13  1    1    2    0    0 +1.5630451603e+02 +1.7805096811e+02 +3.0255788587e+01 2.3884861674e+02 0.0000000000e+00 0.0000e+00 -1.0000e+00
       13  1    1    2    0    0 -1.5630451603e+02 -1.7805096811e+02 +5.3336812612e+02 5.8362214397e+02 0.0000000000e+00 0.0000e+00 1.0000e+00
<mgrwt>
<rscale>  0 0.59898768E+03</rscale>
<asrwt>0</asrwt>
<pdfrwt beam="1">  1        2 0.10662267E+00 0.59898768E+03</pdfrwt>
<pdfrwt beam="2">  1       -2 0.19911296E-01 0.59898768E+03</pdfrwt>
<totfact> 0.10119597E+03</totfact>
</mgrwt>
<rwgt>
<wgt id='morphing_basis_vector_1'> +2.6654332e-04 </wgt>
<wgt id='morphing_basis_vector_2'> +1.5277125e-04 </wgt>
<wgt id='morphing_basis_vector_3'> +2.1078141e-04 </wgt>
<wgt id='morphing_basis_vector_4'> +9.0709721e-05 </wgt>
<wgt id='morphing_basis_vector_5'> +1.3742724e-04 </wgt>
</rwgt>
</event>
<event>
 4      1 +1.0153100e-05 5.94511900e+02 7.81860800e-03 9.21011200e-02
        2 -1    0    0  501    0 +0.0000000000e+00 +0.0000000000e+00 +1.2839081828e+03 1.2839081828e+03 0.0000000000e+00 0.0000e+00 1.0000e+00
       -2 -1    0    0    0  501 -0.0000000000e+00 -0.0000000000e+00 -6.8821975145e+01 6.8821975145e+01 0.0000000000e+00 0.0000e+00 -1.0000e+00
      -13  1    1    2    0    0 +1.0523135948e+02 +2.3988983366e+02 +2.8785403661e+02 3.8920523854e+02 0.0000000000e+00 0.0000e+00 -1.0000e+00
       13  1    1    2    0    0 -1.0523135948e+02 -2.3988983366e+02 +9.2723217104e+02 9.6352491941e+02 0.0000000000e+00 0.0000e+00 1.0000e+00
<mgrwt>
<rscale>  0 0.59451189E+03</rscale>
<asrwt>0</asrwt>
<pdfrwt beam="1">  1        2 0.19752432E+00 0.59451189E+03</pdfrwt>
<pdfrwt beam="2">  1       -2 0.10587997E-01 0.59451189E+03</pdfrwt>
<totfact> 0.11863921E+03</totfact>
</mgrwt>
<rwgt>
<wgt id='morphing_basis_vector_1'> +2.6080068e-04 </wgt>
<wgt id='morphing_basis_vector_2'> +1.5094667e-04 </wgt>
<wgt id='morphing_basis_vector_3'> +2.0492716e-04 </wgt>
<wgt id='morphing_basis_vector_4'> +8.6944013e-05 </wgt>
<wgt id='morphing_basis_vector_5'> +1.3223300e-04 </wgt>
</rwgt>
</event>
<event>
 4      1 +1.0153100e-05 5.36358400e+02 7.81860800e-03 9.32189900e-02
        2 -1    0    0  501    0 +0.0000000000e+00 +0.0000000000e+00 +8.8647412841e+01 8.8647412841e+01 0.0000000000e+00 0.0000e+00 -1.0000e+00
       -2 -1    0    0    0  501 -0.0000000000e+00 -0.0000000000e+00 -8.1130504672e+02 8.1130504672e+02 0.0000000000e+00 0.0000e+00 1.0000e+00
      -13  1    1    2    0    0 +2.7961563309e+00 +2.6806868729e+02 -3.4929306361e+02 4.4031157591e+02 0.0000000000e+00 0.0000e+00 1.0000e+00
       13  1    1    2    0    0 -2.7961563309e+00 -2.6806868729e+02 -3.7336457028e+02 4.5964088366e+02 0.0000000000e+00 0.0000e+00 -1.0000e+00
<mgrwt>
<rscale>  0 0.53635844E+03</rscale>
<asrwt>0</asrwt>
<pdfrwt beam="1">  1        2 0.13638063E-01 0.53635844E+03</pdfrwt>
<pdfrwt beam="2">  1       -2 0.12481616E+00 0.53635844E+03</pdfrwt>
<totfact> 0.27519937E+02</totfact>
</mgrwt>
<rwgt>
<wgt id='morphing_basis_vector_1'> +1.9407074e-04 </wgt>
<wgt id='morphing_basis_vector_2'> +1.2536895e-04 </wgt>
<wgt id='morphing_basis_vector_3'> +1.3839447e-04 </wgt>
<wgt id='morphing_basis_vector_4'> +4.8876508e-05 </wgt>
<wgt id='morphing_basis_vector_5'> +7.6615250e-05 </wgt>
</rwgt>
</event>
<event>
 4      1 +1.0153100e-05 5.85754800e+02 7.81860800e-03 9.22605600e-02
        2 -1    0    0  501    0 +0.0000000000e+00 +0.0000000000e+00 +6.4607694854e+02 6.4607694854e+02 0.0000000000e+00 0.0000e+00 -1.0000e+00
       -2 -1    0    0    0  501 -0.0000000000e+00 -0.0000000000e+00 -1.3276619931e+02 1.3276619931e+02 0.0000000000e+00 0.0000e+00 1.0000e+00
      -13  1    1    2    0    0 +9.2912167158e+01 -5.0266633854e+01 +6.1986326322e+02 6.2880034221e+02 0.0000000000e+00 0.0000e+00 -1.0000e+00
       13  1    1    2    0    0 -9.2912167158e+01 +5.0266633854e+01 -1.0655251399e+02 1.5004280564e+02 0.0000000000e+00 0.0000e+00 1.0000e+00
<mgrwt>
<rscale>  0 0.58575483E+03</rscale>
<asrwt>0</asrwt>
<pdfrwt beam="1">  1        2 0.99396451E-01 0.58575483E+03</pdfrwt>
<pdfrwt beam="2">  1       -2 0.20425570E-01 0.58575483E+03</pdfrwt>
<totfact> 0.10553144E+03</totfact>
</mgrwt>
<rwgt>
<wgt id='morphing_basis_vector_1'> +3.3561345e-04 </wgt>
<wgt id='morphing_basis_vector_2'> +4.1346618e-04 </wgt>
<wgt id='morphing_basis_vector_3'> +1.9073839e-04 </wgt>
<wgt id='morphing_basis_vector_4'> +1.7884584e-05 </wgt>
<wgt id='morphing_basis_vector_5'> +1.2332601e-04 </wgt>
</rwgt>
</event>
<event>
 4      1 +1.0153100e-05 5.44227300e+02 7.81860800e-03 9.30591200e-02
        2 -1    0    0  501    0 +0.0000000000e+00 +0.0000000000e+00 +7.6809419616e+02 7.6809419616e+02 0.0000000000e+00 0.0000e+00 1.0000e+00
       -2 -1    0    0    0  501 -0.0000000000e+00 -0.0000000000e+00 -9.6402013596e+01 9.6402013596e+01 0.0000000000e+00 0.0000e+00 -1.0000e+00
      -13  1    1    2    0    0 -8.2106761096e+01 +1.6979702997e+02 +6.4742093428e+02 6.7433405501e+02 0.0000000000e+00 0.0000e+00 1.0000e+00
       13  1    1    2    0    0 +8.2106761096e+01 -1.6979702997e+02 +2.4271248289e+01 1.9016215475e+02 0.0000000000e+00 0.0000e+00 -1.0000e+00
<mgrwt>
<rscale>  0 0.54422726E+03</rscale>
<asrwt>0</asrwt>
<pdfrwt beam="1">  1        2 0.11816833E+00 0.54422726E+03</pdfrwt>
<pdfrwt beam="2">  1       -2 0.14831080E-01 0.54422726E+03</pdfrwt>
<totfact> 0.14434517E+03</totfact>
</mgrwt>
<rwgt>
<wgt id='morphing_basis_vector_1'> +2.5195664e-04 </wgt>
<wgt id='morphing_basis_vector_2'> +2.8328267e-04 </wgt>
<wgt id='morphing_basis_vector_3'> +1.3605776e-04 </wgt>
<wgt id='morphing_basis_vector_4'> +2.4365631e-05 </wgt>
<wgt id='morphing_basis_vector_5'> +8.4169791e-05 </wgt>
</rwgt>
</event>
<event>
 4      1 +1.0153100e-05 5.60182600e+02 7.81860800e-03 9.27436200e-02
        2 -1    0    0  501    0 +0.0000000000e+00 +0.0000000000e+00 +9.2644607372e+02 9.2644607372e+02 0.0000000000e+00 0.0000e+00 -1.0000e+00
       -2 -1    0    0    0  501 -0.0000000000e+00 -0.0000000000e+00 -8.4679653100e+01 8.4679653100e+01 0.0000000000e+00 0.0000e+00 1.0000e+00
      -13  1    1    2    0    0 +1.9346365018e+02 -1.2714723515e+01 +5.6018750697e+01 2.0181166607e+02 0.0000000000e+00 0.0000e+00 1.0000e+00
       13  1    1    2    0    0 -1.9346365018e+02 +1.2714723515e+01 +7.8574766993e+02 8.0931406075e+02 0.0000000000e+00 0.0000e+00 -1.0000e+00
<mgrwt>
<rscale>  0 0.56018259E+03</rscale>
<asrwt>0</asrwt>
<pdfrwt beam="1">  1        2 0.14253016E+00 0.56018259E+03</pdfrwt>
<pdfrwt beam="2">  1       -2 0.13027640E-01 0.56018259E+03</pdfrwt>
<totfact> 0.13929379E+03</totfact>
</mgrwt>
<rwgt>
<wgt id='morphing_basis_vector_1'> +2.1472664e-04 </wgt>
<wgt id='morphing_basis_vector_2'> +1.2078263e-04 </wgt>
<wgt id='morphing_basis_vector_3'> +1.6423698e-04 </wgt>
<wgt id='morphing_basis_vector_4'> +6.5363058e-05 </wgt>
<wgt id='morphing_basis_vector_5'> +9.6776038e-05 </wgt>
</rwgt>
</event>
<event>
 4      1 +1.0153100e-05 5.90643200e+02 7.81860800e-03 9.21712000e-02
        2 -1    0    0  501    0 +0.0000000000e+00 +0.0000000000e+00 +5.5890359485e+02 5.5890359485e+02 0.0000000000e+00 0.0000e+00 1.0000e+00
       -2 -1    0    0    0  501 -0.0000000000e+00 -0.0000000000e+00 -1.5604629538e+02 1.5604629538e+02 0.0000000000e+00 0.0000e+00 -1.0000e+00
      -13  1    1    2    0    0 +9.9804230517e+00 -2.7369056040e+02 +6.7681294441e+01 2.8211148384e+02 0.0000000000e+00 0.0000e+00 1.0000e+00
       13  1    1    2    0    0 -9.9804230517e+00 +2.7369056040e+02 +3.3517600503e+02 4.3283840639e+02 0.0000000000e+00 0.0000e+00 -1.0000e+00
<mgrwt>
<rscale>  0 0.59064316E+03</rscale>
<asrwt>0</asrwt>
<pdfrwt beam="1">  1        2 0.85985167E-01 0.59064316E+03</pdfrwt>
<pdfrwt beam="2">  1       -2 0.24007123E-01 0.59064316E+03</pdfrwt>
<totfact> 0.95336805E+02</totfact>
</mgrwt>
<rwgt>
<wgt id='morphing_basis_vector_1'> +2.5607263e-04 </wgt>
<wgt id='morphing_basis_vector_2'> +1.4985430e-04 </wgt>
<wgt id='morphing_basis_vector_3'> +1.9995057e-04 </wgt>
<wgt id='morphing_basis_vector_4'> +8.3674906e-05 </wgt>
<wgt id='morphing_basis_vector_5'> +1.2785740e-04 </wgt>
</rwgt>
</event>
<event>
 4      1 +1.0153100e-05 5.86287300e+02 7.81860800e-03 9.22507800e-02
        2 -1    0    0  501    0 +0.0000000000e+00 +0.0000000000e+00 +3.6915381426e+02 3.6915381426e+02 0.0000000000e+00 0.0000e+00 -1.0000e+00
       -2 -1    0    0    0  501 -0.0000000000e+00 -0.0000000000e+00 -2.3278427923e+02 2.3278427923e+02 0.0000000000e+00 0.0000e+00 1.0000e+00
      -13  1    1    2    0    0 +2.2210239269e+02 -1.4554729326e+02 -5.9306234015e+01 2.7208586293e+02 0.0000000000e+00 0.0000e+00 1.0000e+00
       13  1    1    2    0    0 -2.2210239269e+02 +1.4554729326e+02 +1.9567576905e+02 3.2985223056e+02 0.0000000000e+00 0.0000e+00 -1.0000e+00
<mgrwt>
<rscale>  0 0.58628732E+03</rscale>
<asrwt>0</asrwt>
<pdfrwt beam="1">  1        2 0.56792894E-01 0.58628732E+03</pdfrwt>
<pdfrwt beam="2">  1       -2 0.35812966E-01 0.58628732E+03</pdfrwt>
<totfact> 0.75671114E+02</totfact>
</mgrwt>
<rwgt>
<wgt id='morphing_basis_vector_1'> +2.4963210e-04 </wgt>
<wgt id='morphing_basis_vector_2'> +1.4488851e-04 </wgt>
<wgt id='morphing_basis_vector_3'> +1.9447682e-04 </wgt>
<wgt id='morphing_basis_vector_4'> +8.0982915e-05 </wgt>
<wgt id='morphing_basis_vector_5'> +1.2304289e-04 </wgt>
</rwgt>
</event>
<event>
 4      1 +1.0153100e-05 5.51787200e+02 7.81860800e-03 9.29082100e-02
        2 -1    0    0  501    0 +0.0000000000e+00 +0.0000000000e+00 +1.2738543949e+02 1.2738543949e+02 0.0000000000e+00 0.0000e+00 -1.0000e+00
       -2 -1    0    0    0  501 -0.0000000000e+00 -0.0000000000e+00 -5.9753511326e+02 5.9753511326e+02 0.0000000000e+00 0.0000e+00 1.0000e+00
      -13  1    1    2    0    0 +2.4843591619e+02 -5.6623096150e+01 -3.7405323712e+02 4.5259518742e+02 0.0000000000e+00 0.0000e+00 1.0000e+00
       13  1    1    2    0    0 -2.4843591619e+02 +5.6623096150e+01 -9.6096436649e+01 2.7232536534e+02 0.0000000000e+00 0.0000e+00 -1.0000e+00
<mgrwt>
<rscale>  0 0.55178718E+03</rscale>
<asrwt>0</asrwt>
<pdfrwt beam="1">  1        2 0.19597760E-01 0.55178718E+03</pdfrwt>
<pdfrwt beam="2">  1       -2 0.91928480E-01 0.55178718E+03</pdfrwt>
<totfact> 0.37601587E+02</totfact>
</mgrwt>
<rwgt>
<wgt id='morphing_basis_vector_1'> +2.0600969e-04 </wgt>
<wgt id='morphing_basis_vector_2'> +1.1879120e-04 </wgt>
<wgt id='morphing_basis_vector_3'> +1.5512317e-04 </wgt>
<wgt id='morphing_basis_vector_4'> +5.9837388e-05 </wgt>
<wgt id='morphing_basis_vector_5'> +8.9258454e-05 </wgt>
</rwgt>
</event>
<event>
 4      1 +1.0153100e-05 5.81295400e+02 7.81860800e-03 9.23429000e-02
        2 -1    0    0  501    0 +0.0000000000e+00 +0.0000000000e+00 +5.1556734018e+02 5.1556734018e+02 0.0000000000e+00 0.0000e+00 1.0000e+00
       -2 -1    0    0    0  501 -0.0000000000e+00 -0.0000000000e+00 -1.6385071965e+02 1.6385071965e+02 0.0000000000e+00 0.0000e+00 -1.0000e+00
      -13  1    1    2    0    0 +2.4237227063e+02 -5.6227921592e+01 +2.6508520432e-01 2.4880909752e+02 0.0000000000e+00 0.0000e+00 -1.0000e+00
       13  1    1    2    0    0 -2.4237227063e+02 +5.6227921592e+01 +3.5145153533e+02 4.3060896231e+02 0.0000000000e+00 0.0000e+00 1.0000e+00
<mgrwt>
<rscale>  0 0.58129538E+03</rscale>
<asrwt>0</asrwt>
<pdfrwt beam="1">  1        2 0.79318052E-01 0.58129538E+03</pdfrwt>
<pdfrwt beam="2">  1       -2 0.25207803E-01 0.58129538E+03</pdfrwt>
<totfact> 0.96253940E+02</totfact>
</mgrwt>
<rwgt>
<wgt id='morphing_basis_vector_1'> +2.4230200e-04 </wgt>
<wgt id='morphing_basis_vector_2'> +1.3900722e-04 </wgt>
<wgt id='morphing_basis_vector_3'> +1.8837284e-04 </wgt>
<wgt id='morphing_basis_vector_4'> +7.8044787e-05 </wgt>
<wgt id='morphing_basis_vector_5'> +1.1767859e-04 </wgt>
</rwgt>
</event>
<event>
 4      1 +1.0153100e-05 5.27472400e+02 7.81860800e-03 9.34030900e-02
        2 -1    0    0  501    0 +0.0000000000e+00 +0.0000000000e+00 +2.0437998954e+03 2.0437998954e+03 0.0000000000e+00 0.0000e+00 1.0000e+00
       -2 -1    0    0    0  501 -0.0000000000e+00 -0.0000000000e+00 -3.4033068372e+01 3.4033068372e+01 0.0000000000e+00 0.0000e+00 -1.0000e+00
      -13  1    1    2    0    0 -1.4890433301e+02 +1.8806565559e+02 +1.4366842247e+03 1.4565722614e+03 0.0000000000e+00 0.0000e+00 1.0000e+00
       13  1    1    2    0    0 +1.4890433301e+02 -1.8806565559e+02 +5.7308260227e+02 6.2126070231e+02 0.0000000000e+00 0.0000e+00 -1.0000e+00
<mgrwt>
<rscale>  0 0.52747239E+03</rscale>
<asrwt>0</asrwt>
<pdfrwt beam="1">  1        2 0.31443066E+00 0.52747239E+03</pdfrwt>
<pdfrwt beam="2">  1       -2 0.52358583E-02 0.52747239E+03</pdfrwt>
<totfact> 0.13534596E+03</totfact>
</mgrwt>
<rwgt>
<wgt id='morphing_basis_vector_1'> +2.0169632e-04 </wgt>
<wgt id='morphing_basis_vector_2'> +1.7281858e-04 </wgt>
<wgt id='morphing_basis_vector_3'> +1.2504465e-04 </wgt>
<wgt id='morphing_basis_vector_4'> +3.6108539e-05 </wgt>
<wgt id='morphing_basis_vector_5'> +7.0388122e-05 </wgt>
</rwgt>
</event>
<event>
 4      1 +1.0153100e-05 5.31952100e+02 7.81860800e-03 9.33098000e-02
        2 -1    0    0  501    0 +0.0000000000e+00 +0.0000000000e+00 +1.2191603703e+03 1.2191603703e+03 0.0000000000e+00 0.0000e+00 1.0000e+00
       -2 -1    0    0    0  501 -0.0000000000e+00 -0.0000000000e+00 -5.8026205943e+01 5.8026205943e+01 0.0000000000e+00 0.0000e+00 -1.0000e+00
      -13  1    1    2    0    0 +1.5755531001e+02 +1.9010450519e+02 +3.4313030573e+02 4.2273136306e+02 0.0000000000e+00 0.0000e+00 1.0000e+00
       13  1    1    2    0    0 -1.5755531001e+02 -1.9010450519e+02 +8.1800385859e+02 8.5445521315e+02 0.0000000000e+00 0.0000e+00 -1.0000e+00
<mgrwt>
<rscale>  0 0.53195207E+03</rscale>
<asrwt>0</asrwt>
<pdfrwt beam="1">  1        2 0.18756312E+00 0.53195207E+03</pdfrwt>
<pdfrwt beam="2">  1       -2 0.89271095E-02 0.53195207E+03</pdfrwt>
<totfact> 0.16884875E+03</totfact>
</mgrwt>
<rwgt>
<wgt id='morphing_basis_vector_1'> +1.8382623e-04 </wgt>
<wgt id='morphing_basis_vector_2'> +1.0545487e-04 </wgt>
<wgt id='morphing_basis_vector_3'> +1.3556522e-04 </wgt>
<wgt id='morphing_basis_vector_4'> +4.9754584e-05 </wgt>
<wgt id='morphing_basis_vector_5'> +7.3054452e-05 </wgt>
</rwgt>
</event>
<event>
 4      1 +1.0153100e-05 5.78387300e+02 7.81860800e-03 9.23970100e-02
        2 -1    0    0  501    0 +0.0000000000e+00 +0.0000000000e+00 +2.1046401434e+02 2.1046401434e+02 0.0000000000e+00 0.0000e+00 1.0000e+00
       -2 -1    0    0    0  501 -0.0000000000e+00 -0.0000000000e+00 -3.9737425576e+02 3.9737425576e+02 0.0000000000e+00 0.0000e+00 -1.0000e+00
      -13  1    1    2    0    0 -1.1486801980e+02 -1.1060659964e+02 -3.4699573273e+02 3.8188286213e+02 0.0000000000e+00 0.0000e+00 -1.0000e+00
       13  1    1    2    0    0 +1.1486801980e+02 +1.1060659964e+02 +1.6008549131e+02 2.2595540796e+02 0.0000000000e+00 0.0000e+00 1.0000e+00
<mgrwt>
<rscale>  0 0.57838735E+03</rscale>
<asrwt>0</asrwt>
<pdfrwt beam="1">  1        2 0.32379079E-01 0.57838735E+03</pdfrwt>
<pdfrwt beam="2">  1       -2 0.61134501E-01 0.57838735E+03</pdfrwt>
<totfact> 0.51017593E+02</totfact>
</mgrwt>
<rwgt>
<wgt id='morphing_basis_vector_1'> +2.3761174e-04 </wgt>
<wgt id='morphing_basis_vector_2'> +1.3410779e-04 </wgt>
<wgt id='morphing_basis_vector_3'> +1.8493035e-04 </wgt>
<wgt id='morphing_basis_vector_4'> +7.6713203e-05 </wgt>
<wgt id='morphing_basis_vector_5'> +1.1462218e-04 </wgt>
</rwgt>
</event>
<event>
 4      1 +1.0153100e-05 5.30160500e+02 7.81860800e-03 9.33469900e-02
        2 -1    0    0  501    0 +0.0000000000e+00 +0.0000000000e+00 +1.5010890700e+02 1.5010890700e+02 0.0000000000e+00 0.0000e+00 1.0000e+00
       -2 -1    0    0    0  501 -0.0000000000e+00 -0.0000000000e+00 -4.6811039258e+02 4.6811039258e+02 0.0000000000e+00 0.0000e+00 -1.0000e+00
      -13  1    1    2    0    0 +1.6828151714e+02 +1.6010582887e+02 -3.0794667558e+02 3.8572490255e+02 0.0000000000e+00 0.0000e+00 -1.0000e+00
       13  1    1    2    0    0 -1.6828151714e+02 -1.6010582887e+02 -1.0054810001e+01 2.3249439703e+02 0.0000000000e+00 0.0000e+00 1.0000e+00
<mgrwt>
<rscale>  0 0.53016050E+03</rscale>
<asrwt>0</asrwt>
<pdfrwt beam="1">  1        2 0.23093678E-01 0.53016050E+03</pdfrwt>
<pdfrwt beam="2">  1       -2 0.72016983E-01 0.53016050E+03</pdfrwt>
<totfact> 0.53636162E+02</totfact>
</mgrwt>
<rwgt>
<wgt id='morphing_basis_vector_1'> +1.8135511e-04 </wgt>
<wgt id='morphing_basis_vector_2'> +1.0255066e-04 </wgt>
<wgt id='morphing_basis_vector_3'> +1.3405541e-04 </wgt>
<wgt id='morphing_basis_vector_4'> +4.9207423e-05 </wgt>
<wgt id='morphing_basis_vector_5'> +7.1681357e-05 </wgt>
</rwgt>
</event>
<event>
 4      1 +1.0153100e-05 6.11752900e+02 7.81860800e-03 9.17955200e-02
        2 -1    0    0  501    0 +0.0000000000e+00 +0.0000000000e+00 +6.8158181843e+02 6.8158181843e+02 0.0000000000e+00 0.0000e+00 1.0000e+00
       -2 -1    0    0    0  501 -0.0000000000e+00 -0.0000000000e+00 -1.3726949926e+02 1.3726949926e+02 0.0000000000e+00 0.0000e+00 -1.0000e+00
      -13  1    1    2    0    0 +9.0628113945e+01 +2.9185525197e+02 +2.5483512145e+02 3.9791190264e+02 0.0000000000e+00 0.0000e+00 1.0000e+00
       13  1    1    2    0    0 -9.0628113945e+01 -2.9185525197e+02 +2.8947719772e+02 4.2093941505e+02 0.0000000000e+00 0.0000e+00 -1.0000e+00
<mgrwt>
<rscale>  0 0.61175287E+03</rscale>
<asrwt>0</asrwt>
<pdfrwt beam="1">  1        2 0.10485874E+00 0.61175287E+03</pdfrwt>
<pdfrwt beam="2">  1       -2 0.21118385E-01 0.61175287E+03</pdfrwt>
<totfact> 0.93594063E+02</totfact>
</mgrwt>
<rwgt>
<wgt id='morphing_basis_vector_1'> +2.9325383e-04 </wgt>
<wgt id='morphing_basis_vector_2'> +1.8827914e-04 </wgt>
<wgt id='morphing_basis_vector_3'> +2.2869077e-04 </wgt>
<wgt id='morphing_basis_vector_4'> +9.4264401e-05 </wgt>
<wgt id='morphing_basis_vector_5'> +1.5304051e-04 </wgt>
</rwgt>
</event>
<event>
 4      1 +1.0153100e-05 6.17087700e+02 7.81860800e-03 9.17031100e-02
        2 -1    0    0  501    0 +0.0000000000e+00 +0.0000000000e+00 +7.7544900135e+02 7.7544900135e+02 0.0000000000e+00 0.0000e+00 -1.0000e+00
       -2 -1    0    0    0  501 -0.0000000000e+00 -0.0000000000e+00 -1.2276670089e+02 1.2276670089e+02 0.0000000000e+00 0.0000e+00 1.0000e+00
      -13  1    1    2    0    0 -1.4833074143e+02 -2.6732777568e+02 +3.8693854491e+02 4.9314053376e+02 0.0000000000e+00 0.0000e+00 1.0000e+00
       13  1    1    2    0    0 +1.4833074143e+02 +2.6732777568e+02 +2.6574375555e+02 4.0507516847e+02 0.0000000000e+00 0.0000e+00 -1.0000e+00
<mgrwt>
<rscale>  0 0.61708773E+03</rscale>
<asrwt>0</asrwt>
<pdfrwt beam="1">  1        2 0.11929984E+00 0.61708773E+03</pdfrwt>
<pdfrwt beam="2">  1       -2 0.18887185E-01 0.61708773E+03</pdfrwt>
<totfact> 0.96121994E+02</totfact>
</mgrwt>
<rwgt>
<wgt id='morphing_basis_vector_1'> +3.0930110e-04 </wgt>
<wgt id='morphing_basis_vector_2'> +2.1746996e-04 </wgt>
<wgt id='morphing_basis_vector_3'> +2.3709151e-04 </wgt>
<wgt id='morphing_basis_vector_4'> +9.2022683e-05 </wgt>
<wgt id='morphing_basis_vector_5'> +1.5989260e-04 </wgt>
</rwgt>
</event>
<event>
 4      1 +1.0153100e-05 5.85653300e+02 7.81860800e-03 9.22624300e-02
        2 -1    0    0  501    0 +0.0000000000e+00 +0.0000000000e+00 +1.9065010892e+02 1.9065010892e+02 0.0000000000e+00 0.0000e+00 -1.0000e+00
       -2 -1    0    0    0  501 -0.0000000000e+00 -0.0000000000e+00 -4.4976345236e+02 4.4976345236e+02 0.0000000000e+00 0.0000e+00 1.0000e+00
      -13  1    1    2    0    0 -1.5863876958e+02 -1.3454194746e+02 -3.5493409625e+02 4.1139519628e+02 0.0000000000e+00 0.0000e+00 1.0000e+00
       13  1    1    2    0    0 +1.5863876958e+02 +1.3454194746e+02 +9.5820752807e+01 2.2901836501e+02 0.0000000000e+00 0.0000e+00 -1.0000e+00
<mgrwt>
<rscale>  0 0.58565331E+03</rscale>
<asrwt>0</asrwt>
<pdfrwt beam="1">  1        2 0.29330786E-01 0.58565331E+03</pdfrwt>
<pdfrwt beam="2">  1       -2 0.69194377E-01 0.58565331E+03</pdfrwt>
<totfact> 0.44151710E+02</totfact>
</mgrwt>
<rwgt>
<wgt id='morphing_basis_vector_1'> +2.4754880e-04 </wgt>
<wgt id='morphing_basis_vector_2'> +1.4058688e-04 </wgt>
<wgt id='morphing_basis_vector_3'> +1.9373274e-04 </wgt>
<wgt id='morphing_basis_vector_4'> +8.1432392e-05 </wgt>
<wgt id='morphing_basis_vector_5'> +1.2234111e-04 </wgt>
</rwgt>
</event>
<event>
 4      1 +1.0153100e-05 5.36498500e+02 7.81860800e-03 9.32161200e-02
        2 -1    0    0  501    0 +0.0000000000e+00 +0.0000000000e+00 +1.5199357204e+03 1.5199357204e+03 0.0000000000e+00 0.0000e+00 1.0000e+00
       -2 -1    0    0    0  501 -0.0000000000e+00 -0.0000000000e+00 -4.7342567930e+01 4.7342567930e+01 0.0000000000e+00 0.0000e+00 -1.0000e+00
      -13  1    1    2    0    0 -1.2059762290e+02 +1.7517391924e+02 +1.2138924927e+03 1.2323817072e+03 0.0000000000e+00 0.0000e+00 1.0000e+00
       13  1    1    2    0    0 +1.2059762290e+02 -1.7517391924e+02 +2.5870065980e+02 3.3489658107e+02 0.0000000000e+00 0.0000e+00 -1.0000e+00
<mgrwt>
<rscale>  0 0.53649850E+03</rscale>
<asrwt>0</asrwt>
<pdfrwt beam="1">  1        2 0.23383623E+00 0.53649850E+03</pdfrwt>
<pdfrwt beam="2">  1       -2 0.72834732E-02 0.53649850E+03</pdfrwt>
<totfact> 0.15745308E+03</totfact>
</mgrwt>
<rwgt>
<wgt id='morphing_basis_vector_1'> +2.3010911e-04 </wgt>
<wgt id='morphing_basis_vector_2'> +2.3692826e-04 </wgt>
<wgt id='morphing_basis_vector_3'> +1.2984473e-04 </wgt>
<wgt id='morphing_basis_vector_4'> +2.9332824e-05 </wgt>
<wgt id='morphing_basis_vector_5'> +7.7709998e-05 </wgt>
</rwgt>
</event>
<event>
 4      1 +1.0153100e-05 5.20183900e+02 7.81860800e-03 9.35570000e-02
        2 -1    0    0  501    0 +0.0000000000e+00 +0.0000000000e+00 +3.2793064115e+02 3.2793064115e+02 0.0000000000e+00 0.0000e+00 -1.0000e+00
       -2 -1    0    0    0  501 -0.0000000000e+00 -0.0000000000e+00 -2.0628695020e+02 2.0628695020e+02 0.0000000000e+00 0.0000e+00 1.0000e+00
      -13  1    1    2    0    0 +1.2808098718e+01 -2.5434770188e+02 +6.5665558436e+00 2.5475462802e+02 0.0000000000e+00 0.0000e+00 1.0000e+00
       13  1    1    2    0    0 -1.2808098718e+01 +2.5434770188e+02 +1.1507713511e+02 2.7946296332e+02 0.0000000000e+00 0.0000e+00 -1.0000e+00
<mgrwt>
<rscale>  0 0.52018386E+03</rscale>
<asrwt>0</asrwt>
<pdfrwt beam="1">  1        2 0.50450868E-01 0.52018386E+03</pdfrwt>
<pdfrwt beam="2">  1       -2 0.31736454E-01 0.52018386E+03</pdfrwt>
<totfact> 0.10728698E+03</totfact>
</mgrwt>
<rwgt>
<wgt id='morphing_basis_vector_1'> +1.7291948e-04 </wgt>
<wgt id='morphing_basis_vector_2'> +1.0219488e-04 </wgt>
<wgt id='morphing_basis_vector_3'> +1.2452686e-04 </wgt>
<wgt id='morphing_basis_vector_4'> +4.3780210e-05 </wgt>
<wgt id='morphing_basis_vector_5'> +6.4500451e-05 </wgt>
</rwgt>
</event>
<event>
 4      1 +1.0153100e-05 5.26791700e+02 7.81860800e-03 9.34173500e-02
        2 -1    0    0  501    0 +0.0000000000e+00 +0.0000000000e+00 +8.0071984514e+02 8.0071984514e+02 0.0000000000e+00 0.0000e+00 1.0000e+00
       -2 -1    0    0    0  501 -0.0000000000e+00 -0.0000000000e+00 -8.6643762298e+01 8.6643762298e+01 0.0000000000e+00 0.0000e+00 -1.0000e+00
      -13  1    1    2    0    0 -2.2996694571e+02 +6.1994156639e+01 +1.6758740857e+02 2.9122776497e+02 0.0000000000e+00 0.0000e+00 -1.0000e+00
       13  1    1    2    0    0 +2.2996694571e+02 -6.1994156639e+01 +5.4648867427e+02 5.9613584247e+02 0.0000000000e+00 0.0000e+00 1.0000e+00
<mgrwt>
<rscale>  0 0.52679172E+03</rscale>
<asrwt>0</asrwt>
<pdfrwt beam="1">  1        2 0.12318766E+00 0.52679172E+03</pdfrwt>
<pdfrwt beam="2">  1       -2 0.13329810E-01 0.52679172E+03</pdfrwt>
<totfact> 0.16254189E+03</totfact>
</mgrwt>
<rwgt>
<wgt id='morphing_basis_vector_1'> +1.7806677e-04 </wgt>
<wgt id='morphing_basis_vector_2'> +1.0120071e-04 </wgt>
<wgt id='morphing_basis_vector_3'> +1.3091049e-04 </wgt>
<wgt id='morphing_basis_vector_4'> +4.7517373e-05 </wgt>
<wgt id='morphing_basis_vector_5'> +6.9184639e-05 </wgt>
</rwgt>
</event>
<event>
 4      1 +1.0153100e-05 5.37151400e+02 7.81860800e-03 9.32027400e-02
        2 -1    0    0  501    0 +0.0000000000e+00 +0.0000000000e+00 +1.3752542513e+03 1.3752542513e+03 0.0000000000e+00 0.0000e+00 -1.0000e+00
       -2 -1    0    0    0  501 -0.0000000000e+00 -0.0000000000e+00 -5.2450604621e+01 5.2450604621e+01 0.0000000000e+00 0.0000e+00 1.0000e+00
      -13  1    1    2    0    0 +9.0614763034e+00 -2.6791963305e+02 +7.0506592393e+02 7.5430829056e+02 0.0000000000e+00 0.0000e+00 1.0000e+00
       13  1    1    2    0    0 -9.0614763034e+00 +2.6791963305e+02 +6.1773772274e+02 6.7339656535e+02 0.0000000000e+00 0.0000e+00 -1.0000e+00
<mgrwt>
<rscale>  0 0.53715144E+03</rscale>
<asrwt>0</asrwt>
<pdfrwt beam="1">  1        2 0.21157755E+00 0.53715144E+03</pdfrwt>
<pdfrwt beam="2">  1       -2 0.80693248E-02 0.53715144E+03</pdfrwt>
<totfact> 0.16142130E+03</totfact>
</mgrwt>
<rwgt>
<wgt id='morphing_basis_vector_1'> +1.9587195e-04 </wgt>
<wgt id='morphing_basis_vector_2'> +1.2879475e-04 </wgt>
<wgt id='morphing_basis_vector_3'> +1.3895013e-04 </wgt>
<wgt id='morphing_basis_vector_4'> +4.8734957e-05 </wgt>
<wgt id='morphing_basis_vector_5'> +7.7264097e-05 </wgt>
</rwgt>
</event>
<event>
 4      1 +1.0153100e-05 5.94189500e+02 7.81860800e-03 9.21069400e-02
        2 -1    0    0  501    0 +0.0000000000e+00 +0.0000000000e+00 +8.9958778944e+01 8.9958778944e+01 0.0000000000e+00 0.0000e+00 -1.0000e+00
       -2 -1    0    0    0  501 -0.0000000000e+00 -0.0000000000e+00 -9.8117488743e+02 9.8117488743e+02 0.0000000000e+00 0.0000e+00 1.0000e+00
      -13  1    1    2    0    0 -1.7461599106e+02 +5.5883459174e+01 -8.6703284961e+02 8.8620520628e+02 0.0000000000e+00 0.0000e+00 1.0000e+00
       13  1    1    2    0    0 +1.7461599106e+02 -5.5883459174e+01 -2.4183258880e+01 1.8492846009e+02 0.0000000000e+00 0.0000e+00 -1.0000e+00
<mgrwt>
<rscale>  0 0.59418951E+03</rscale>
<asrwt>0</asrwt>
<pdfrwt beam="1">  1        2 0.13839813E-01 0.59418951E+03</pdfrwt>
<pdfrwt beam="2">  1       -2 0.15094997E+00 0.59418951E+03</pdfrwt>
<totfact> 0.16056930E+02</totfact>
</mgrwt>
<rwgt>
<wgt id='morphing_basis_vector_1'> +2.5924987e-04 </wgt>
<wgt id='morphing_basis_vector_2'> +1.4727646e-04 </wgt>
<wgt id='morphing_basis_vector_3'> +2.0451277e-04 </wgt>
<wgt id='morphing_basis_vector_4'> +8.7535172e-05 </wgt>
<wgt id='morphing_basis_vector_5'> +1.3185633e-04 </wgt>
</rwgt>
</event>
<event>
 4      1 +1.0153100e-05 5.98082600e+02 7.81860800e-03 9.20369400e-02
        2 -1    0    0  501    0 +0.0000000000e+00 +0.0000000000e+00 +1.4370753294e+03 1.4370753294e+03 0.0000000000e+00 0.0000e+00 -1.0000e+00
       -2 -1    0    0    0  501 -0.0000000000e+00 -0.0000000000e+00 -6.2227567127e+01 6.2227567127e+01 0.0000000000e+00 0.0000e+00 1.0000e+00
      -13  1    1    2    0    0 +3.0187004440e+01 +2.8501107776e+02 +4.7348619601e+02 5.5347244511e+02 0.0000000000e+00 0.0000e+00 1.0000e+00
       13  1    1    2    0    0 -3.0187004440e+01 -2.8501107776e+02 +9.0136156622e+02 9.4583045137e+02 0.0000000000e+00 0.0000e+00 -1.0000e+00
<mgrwt>
<rscale>  0 0.59808261E+03</rscale>
<asrwt>0</asrwt>
<pdfrwt beam="1">  1        2 0.22108849E+00 0.59808261E+03</pdfrwt>
<pdfrwt beam="2">  1       -2 0.95734730E-02 0.59808261E+03</pdfrwt>
<totfact> 0.11416683E+03</totfact>
</mgrwt>
<rwgt>
<wgt id='morphing_basis_vector_1'> +2.6764026e-04 </wgt>
<wgt id='morphing_basis_vector_2'> +1.5942962e-04 </wgt>
<wgt id='morphing_basis_vector_3'> +2.0961635e-04 </wgt>
<wgt id='morphing_basis_vector_4'> +8.8206053e-05 </wgt>
<wgt id='morphing_basis_vector_5'> +1.3637827e-04 </wgt>
</rwgt>
</event>
<event>
 4      1 +1.0153100e-05 5.92867800e+02 7.81860800e-03 9.21308300e-02
        2 -1    0    0  501    0 +0.0000000000e+00 +0.0000000000e+00 +4.7976382726e+02 4.7976382726e+02 0.0000000000e+00 0.0000e+00 -1.0000e+00
       -2 -1    0    0    0  501 -0.0000000000e+00 -0.0000000000e+00 -1.8315898206e+02 1.8315898206e+02 0.0000000000e+00 0.0000e+00 1.0000e+00
      -13  1    1    2    0    0 -1.2880188903e+02 -2.0650849760e+01 -1.4934044145e+02 1.9829006951e+02 0.0000000000e+00 0.0000e+00 1.0000e+00
       13  1    1    2    0    0 +1.2880188903e+02 +2.0650849760e+01 +4.4594528666e+02 4.6463273981e+02 0.0000000000e+00 0.0000e+00 -1.0000e+00
<mgrwt>
<rscale>  0 0.59286779E+03</rscale>
<asrwt>0</asrwt>
<pdfrwt beam="1">  1        2 0.73809819E-01 0.59286779E+03</pdfrwt>
<pdfrwt beam="2">  1       -2 0.28178305E-01 0.59286779E+03</pdfrwt>
<totfact> 0.86197154E+02</totfact>
</mgrwt>
<rwgt>
<wgt id='morphing_basis_vector_1'> +2.5727663e-04 </wgt>
<wgt id='morphing_basis_vector_2'> +1.4581191e-04 </wgt>
<wgt id='morphing_basis_vector_3'> +2.0281488e-04 </wgt>
<wgt id='morphing_basis_vector_4'> +8.6667988e-05 </wgt>
<wgt id='morphing_basis_vector_5'> +1.3034953e-04 </wgt>
</rwgt>
</event>
<event>
 4      1 +1.0153100e-05 5.46037200e+02 7.81860800e-03 9.30227500e-02
        2 -1    0    0  501    0 +0.0000000000e+00 +0.0000000000e+00 +3.8623319911e+02 3.8623319911e+02 0.0000000000e+00 0.0000e+00 -1.0000e+00
       -2 -1    0    0    0  501 -0.0000000000e+00 -0.0000000000e+00 -1.9299005259e+02 1.9299005259e+02 0.0000000000e+00 0.0000e+00 1.0000e+00
      -13  1    1    2    0    0 +1.0030945679e+02 -1.8323152588e+02 -8.9856066427e+01 2.2739809118e+02 0.0000000000e+00 0.0000e+00 1.0000e+00
       13  1    1    2    0    0 -1.0030945679e+02 +1.8323152588e+02 +2.8309921295e+02 3.5182516051e+02 0.0000000000e+00 0.0000e+00 -1.0000e+00
<mgrwt>
<rscale>  0 0.54603723E+03</rscale>
<asrwt>0</asrwt>
<pdfrwt beam="1">  1        2 0.59420492E-01 0.54603723E+03</pdfrwt>
<pdfrwt beam="2">  1       -2 0.29690777E-01 0.54603723E+03</pdfrwt>
<totfact> 0.10044500E+03</totfact>
</mgrwt>
<rwgt>
<wgt id='morphing_basis_vector_1'> +1.9825916e-04 </wgt>
<wgt id='morphing_basis_vector_2'> +1.1135264e-04 </wgt>
<wgt id='morphing_basis_vector_3'> +1.4945524e-04 </wgt>
<wgt id='morphing_basis_vector_4'> +5.7415418e-05 </wgt>
<wgt id='morphing_basis_vector_5'> +8.4305221e-05 </wgt>
</rwgt>
</event>
<event>
 4      1 +1.0153100e-05 5.39612500e+02 7.81860800e-03 9.31525200e-02
        2 -1    0    0  501    0 +0.0000000000e+00 +0.0000000000e+00 +1.1392624620e+03 1.1392624620e+03 0.0000000000e+00 0.0000e+00 -1.0000e+00
       -2 -1    0    0    0  501 -0.0000000000e+00 -0.0000000000e+00 -6.3896956925e+01 6.3896956925e+01 0.0000000000e+00 0.0000e+00 1.0000e+00
      -13  1    1    2    0    0 -1.7246318632e+02 +1.8760639142e+02 +3.4006155591e+02 4.2494890345e+02 0.0000000000e+00 0.0000e+00 1.0000e+00
       13  1    1    2    0    0 +1.7246318632e+02 -1.8760639142e+02 +7.3530394915e+02 7.7821051546e+02 0.0000000000e+00 0.0000e+00 -1.0000e+00
<mgrwt>
<rscale>  0 0.53961247E+03</rscale>
<asrwt>0</asrwt>
<pdfrwt beam="1">  1        2 0.17527113E+00 0.53961247E+03</pdfrwt>
<pdfrwt beam="2">  1       -2 0.98303019E-02 0.53961247E+03</pdfrwt>
<totfact> 0.16149079E+03</totfact>
</mgrwt>
<rwgt>
<wgt id='morphing_basis_vector_1'> +1.9248541e-04 </wgt>
<wgt id='morphing_basis_vector_2'> +1.1149304e-04 </wgt>
<wgt id='morphing_basis_vector_3'> +1.4279100e-04 </wgt>
<wgt id='morphing_basis_vector_4'> +5.3297123e-05 </wgt>
<wgt id='morphing_basis_vector_5'> +7.9059592e-05 </wgt>
</rwgt>
</event>
<event>
 4      1 +1.0153100e-05 5.77071600e+02 7.81860800e-03 9.24216000e-02
        2 -1    0    0  501    0 +0.0000000000e+00 +0.0000000000e+00 +7.4372960094e+02 7.4372960094e+02 0.0000000000e+00 0.0000e+00 -1.0000e+00
       -2 -1    0    0    0  501 -0.0000000000e+00 -0.0000000000e+00 -1.1193974982e+02 1.1193974982e+02 0.0000000000e+00 0.0000e+00 1.0000e+00
      -13  1    1    2    0    0 +1.9715876249e+02 -1.4379292875e+02 +8.7600376720e+01 2.5927169145e+02 0.0000000000e+00 0.0000e+00 1.0000e+00
       13  1    1    2    0    0 -1.9715876249e+02 +1.4379292875e+02 +5.4418947440e+02 5.9639765932e+02 0.0000000000e+00 0.0000e+00 -1.0000e+00
<mgrwt>
<rscale>  0 0.57707159E+03</rscale>
<asrwt>0</asrwt>
<pdfrwt beam="1">  1        2 0.11441994E+00 0.57707159E+03</pdfrwt>
<pdfrwt beam="2">  1       -2 0.17221500E-01 0.57707159E+03</pdfrwt>
<totfact> 0.11790928E+03</totfact>
</mgrwt>
<rwgt>
<wgt id='morphing_basis_vector_1'> +2.3661791e-04 </wgt>
<wgt id='morphing_basis_vector_2'> +1.3535211e-04 </wgt>
<wgt id='morphing_basis_vector_3'> +1.8331835e-04 </wgt>
<wgt id='morphing_basis_vector_4'> +7.5345038e-05 </wgt>
<wgt id='morphing_basis_vector_5'> +1.1327128e-04 </wgt>
</rwgt>
</event>
<event>
 4      1 +1.0153100e-05 5.91000800e+02 7.81860800e-03 9.21647000e-02
        2 -1    0    0  501    0 +0.0000000000e+00 +0.0000000000e+00 +5.2289172951e+02 5.2289172951e+02 0.0000000000e+00 0.0000e+00 1.0000e+00
       -2 -1    0    0    0  501 -0.0000000000e+00 -0.0000000000e+00 -1.6699533584e+02 1.6699533584e+02 0.0000000000e+00 0.0000e+00 -1.0000e+00
      -13  1    1    2    0    0 -1.1861338428e+02 +2.2604416969e+02 +4.1963075436e+00 2.5530904915e+02 0.0000000000e+00 0.0000e+00 -1.0000e+00
       13  1    1    2    0    0 +1.1861338428e+02 -2.2604416969e+02 +3.5170008613e+02 4.3457801620e+02 0.0000000000e+00 0.0000e+00 1.0000e+00
<mgrwt>
<rscale>  0 0.59100078E+03</rscale>
<asrwt>0</asrwt>
<pdfrwt beam="1">  1        2 0.80444881E-01 0.59100078E+03</pdfrwt>
<pdfrwt beam="2">  1       -2 0.25691590E-01 0.59100078E+03</pdfrwt>
<totfact> 0.91674391E+02</totfact>
</mgrwt>
<rwgt>
<wgt id='morphing_basis_vector_1'> +2.5566418e-04 </wgt>
<wgt id='morphing_basis_vector_2'> +1.4734211e-04 </wgt>
<wgt id='morphing_basis_vector_3'> +2.0042013e-04 </wgt>
<wgt id='morphing_basis_vector_4'> +8.4597298e-05 </wgt>
<wgt id='morphing_basis_vector_5'> +1.2825068e-04 </wgt>
</rwgt>
</event>
<event>
 4      1 +1.0153100e-05 5.59927800e+02 7.81860800e-03 9.27485700e-02
        2 -1    0    0  501    0 +0.0000000000e+00 +0.0000000000e+00 +2.3551939576e+02 2.3551939576e+02 0.0000000000e+00 0.0000e+00 -1.0000e+00
       -2 -1    0    0    0  501 -0.0000000000e+00 -0.0000000000e+00 -3.3279545296e+02 3.3279545296e+02 0.0000000000e+00 0.0000e+00 1.0000e+00
      -13  1    1    2    0    0 -2.3839320861e+02 -1.3712759612e+02 +4.5345063152e+00 2.7505610569e+02 0.0000000000e+00 0.0000e+00 1.0000e+00
       13  1    1    2    0    0 +2.3839320861e+02 +1.3712759612e+02 -1.0181056352e+02 2.9325874304e+02 0.0000000000e+00 0.0000e+00 -1.0000e+00
<mgrwt>
<rscale>  0 0.55992780E+03</rscale>
<asrwt>0</asrwt>
<pdfrwt beam="1">  1        2 0.36233753E-01 0.55992780E+03</pdfrwt>
<pdfrwt beam="2">  1       -2 0.51199300E-01 0.55992780E+03</pdfrwt>
<totfact> 0.64042859E+02</totfact>
</mgrwt>
<rwgt>
<wgt id='morphing_basis_vector_1'> +2.2812558e-04 </wgt>
<wgt id='morphing_basis_vector_2'> +1.6316314e-04 </wgt>
<wgt id='morphing_basis_vector_3'> +1.6203567e-04 </wgt>
<wgt id='morphing_basis_vector_4'> +5.6529374e-05 </wgt>
<wgt id='morphing_basis_vector_5'> +9.6802572e-05 </wgt>
</rwgt>
</event>
<event>
 4      1 +1.0153100e-05 5.55045900e+02 7.81860800e-03 9.28439500e-02
        2 -1    0    0  501    0 +0.0000000000e+00 +0.0000000000e+00 +9.3092930036e+02 9.3092930036e+02 0.0000000000e+00 0.0000e+00 -1.0000e+00
       -2 -1    0    0    0  501 -0.0000000000e+00 -0.0000000000e+00 -8.2733450457e+01 8.2733450457e+01 0.0000000000e+00 0.0000e+00 1.0000e+00
      -13  1    1    2    0    0 +5.3505524246e+01 +2.1462132576e+02 +1.1799314257e+02 2.5069410900e+02 0.0000000000e+00 0.0000e+00 1.0000e+00
       13  1    1    2    0    0 -5.3505524246e+01 -2.1462132576e+02 +7.3020270733e+02 7.6296864181e+02 0.0000000000e+00 0.0000e+00 -1.0000e+00
<mgrwt>
<rscale>  0 0.55504592E+03</rscale>
<asrwt>0</asrwt>
<pdfrwt beam="1">  1        2 0.14321989E+00 0.55504592E+03</pdfrwt>
<pdfrwt beam="2">  1       -2 0.12728224E-01 0.55504592E+03</pdfrwt>
<totfact> 0.14361838E+03</totfact>
</mgrwt>
<rwgt>
<wgt id='morphing_basis_vector_1'> +2.0883198e-04 </wgt>
<wgt id='morphing_basis_vector_2'> +1.1793441e-04 </wgt>
<wgt id='morphing_basis_vector_3'> +1.5870741e-04 </wgt>
<wgt id='morphing_basis_vector_4'> +6.2258888e-05 </wgt>
<wgt id='morphing_basis_vector_5'> +9.2114998e-05 </wgt>
</rwgt>
</event>
<event>
 4      1 +1.0153100e-05 5.20826600e+02 7.81860800e-03 9.35433200e-02
        2 -1    0    0  501    0 +0.0000000000e+00 +0.0000000000e+00 +6.0342067524e+02 6.0342067524e+02 0.0000000000e+00 0.0000e+00 1.0000e+00
       -2 -1    0    0    0  501 -0.0000000000e+00 -0.0000000000e+00 -1.1238440585e+02 1.1238440585e+02 0.0000000000e+00 0.0000e+00 -1.0000e+00
      -13  1    1    2    0    0 -1.9071432459e+02 +1.6647028796e+02 +1.6157203334e+02 3.0031622057e+02 0.0000000000e+00 0.0000e+00 -1.0000e+00
       13  1    1    2    0    0 +1.9071432459e+02 -1.6647028796e+02 +3.2946423604e+02 4.1548886051e+02 0.0000000000e+00 0.0000e+00 1.0000e+00
<mgrwt>
<rscale>  0 0.52082655E+03</rscale>
<asrwt>0</asrwt>
<pdfrwt beam="1">  1        2 0.92833948E-01 0.52082655E+03</pdfrwt>
<pdfrwt beam="2">  1       -2 0.17289909E-01 0.52082655E+03</pdfrwt>
<totfact> 0.15054113E+03</totfact>
</mgrwt>
<rwgt>
<wgt id='morphing_basis_vector_1'> +1.7326252e-04 </wgt>
<wgt id='morphing_basis_vector_2'> +1.0163201e-04 </wgt>
<wgt id='morphing_basis_vector_3'> +1.2518891e-04 </wgt>
<wgt id='morphing_basis_vector_4'> +4.4205585e-05 </wgt>
<wgt id='morphing_basis_vector_5'> +6.4940861e-05 </wgt>
</rwgt>
</event>
<event>
 4      1 +1.0153100e-05 6.17994100e+02 7.81860800e-03 9.16875100e-02
        2 -1    0    0  501    0 +0.0000000000e+00 +0.0000000000e+00 +4.0588181769e+02 4.0588181769e+02 0.0000000000e+00 0.0000e+00 -1.0000e+00
       -2 -1    0    0    0  501 -0.0000000000e+00 -0.0000000000e+00 -2.3523883393e+02 2.3523883393e+02 0.0000000000e+00 0.0000e+00 1.0000e+00
      -13  1    1    2    0    0 +2.0715967651e+02 +1.9564576581e+02 -3.8678730375e+01 2.8755597965e+02 0.0000000000e+00 0.0000e+00 -1.0000e+00
       13  1    1    2    0    0 -2.0715967651e+02 -1.9564576581e+02 +2.0932171414e+02 3.5356467196e+02 0.0000000000e+00 0.0000e+00 1.0000e+00
<mgrwt>
<rscale>  0 0.61799406E+03</rscale>
<asrwt>0</asrwt>
<pdfrwt beam="1">  1        2 0.62443357E-01 0.61799406E+03</pdfrwt>
<pdfrwt beam="2">  1       -2 0.36190590E-01 0.61799406E+03</pdfrwt>
<totfact> 0.66694205E+02</totfact>
</mgrwt>
<rwgt>
<wgt id='morphing_basis_vector_1'> +2.9670441e-04 </wgt>
<wgt id='morphing_basis_vector_2'> +1.7491275e-04 </wgt>
<wgt id='morphing_basis_vector_3'> +2.3725405e-04 </wgt>
<wgt id='morphing_basis_vector_4'> +1.0431871e-04 </wgt>
<wgt id='morphing_basis_vector_5'> +1.6109324e-04 </wgt>
</rwgt>
</event>
<event>
 4      1 +1.0153100e-05 5.29418500e+02 7.81860800e-03 9.33624400e-02
        2 -1    0    0  501    0 +0.0000000000e+00 +0.0000000000e+00 +5.1899070163e+02 5.1899070163e+02 0.0000000000e+00 0.0000e+00 -1.0000e+00
       -2 -1    0    0    0  501 -0.0000000000e+00 -0.0000000000e+00 -1.3501397675e+02 1.3501397675e+02 0.0000000000e+00 0.0000e+00 1.0000e+00
      -13  1    1    2    0    0 -1.5088047394e+01 +8.6487850236e+01 -1.1650505809e+02 1.4588086226e+02 0.0000000000e+00 0.0000e+00 1.0000e+00
       13  1    1    2    0    0 +1.5088047394e+01 -8.6487850236e+01 +5.0048178298e+02 5.0812381612e+02 0.0000000000e+00 0.0000e+00 -1.0000e+00
<mgrwt>
<rscale>  0 0.52941854E+03</rscale>
<asrwt>0</asrwt>
<pdfrwt beam="1">  1        2 0.79844722E-01 0.52941854E+03</pdfrwt>
<pdfrwt beam="2">  1       -2 0.20771381E-01 0.52941854E+03</pdfrwt>
<totfact> 0.13237118E+03</totfact>
</mgrwt>
<rwgt>
<wgt id='morphing_basis_vector_1'> +1.7977876e-04 </wgt>
<wgt id='morphing_basis_vector_2'> +9.9618597e-05 </wgt>
<wgt id='morphing_basis_vector_3'> +1.3359051e-04 </wgt>
<wgt id='morphing_basis_vector_4'> +4.9271117e-05 </wgt>
<wgt id='morphing_basis_vector_5'> +7.1100837e-05 </wgt>
</rwgt>
</event>
<event>
 4      1 +1.0153100e-05 6.11536700e+02 7.81860800e-03 9.17992900e-02
        2 -1    0    0  501    0 +0.0000000000e+00 +0.0000000000e+00 +1.0126289344e+03 1.0126289344e+03 0.0000000000e+00 0.0000e+00 1.0000e+00
       -2 -1    0    0    0  501 -0.0000000000e+00 -0.0000000000e+00 -9.2328280088e+01 9.2328280088e+01 0.0000000000e+00 0.0000e+00 -1.0000e+00
      -13  1    1    2    0    0 -2.3242063927e+02 -1.4121946370e+02 +7.1267060359e+02 7.6279858397e+02 0.0000000000e+00 0.0000e+00 1.0000e+00
       13  1    1    2    0    0 +2.3242063927e+02 +1.4121946370e+02 +2.0763005076e+02 3.4215863055e+02 0.0000000000e+00 0.0000e+00 -1.0000e+00
<mgrwt>
<rscale>  0 0.61153671E+03</rscale>
<asrwt>0</asrwt>
<pdfrwt beam="1">  1        2 0.15578906E+00 0.61153671E+03</pdfrwt>
<pdfrwt beam="2">  1       -2 0.14204352E-01 0.61153671E+03</pdfrwt>
<totfact> 0.10708325E+03</totfact>
</mgrwt>
<rwgt>
<wgt id='morphing_basis_vector_1'> +3.2870654e-04 </wgt>
<wgt id='morphing_basis_vector_2'> +2.9896691e-04 </wgt>
<wgt id='morphing_basis_vector_3'> +2.3060733e-04 </wgt>
<wgt id='morphing_basis_vector_4'> +6.5217604e-05 </wgt>
<wgt id='morphing_basis_vector_5'> +1.5280298e-04 </wgt>
</rwgt>
</event>
<event>
 4      1 +1.0153100e-05 5.61812800e+02 7.81860800e-03 9.27120100e-02
        2 -1    0    0  501    0 +0.0000000000e+00 +0.0000000000e+00 +5.0916293684e+02 5.0916293684e+02 0.0000000000e+00 0.0000e+00 -1.0000e+00
       -2 -1    0    0    0  501 -0.0000000000e+00 -0.0000000000e+00 -1.5497672520e+02 1.5497672520e+02 0.0000000000e+00 0.0000e+00 1.0000e+00
      -13  1    1    2    0    0 +8.7645783252e+01 -4.6612451135e+01 -1.3355012733e+02 1.6640354694e+02 0.0000000000e+00 0.0000e+00 1.0000e+00
       13  1    1    2    0    0 -8.7645783252e+01 +4.6612451135e+01 +4.8773633897e+02 4.9773611510e+02 0.0000000000e+00 0.0000e+00 -1.0000e+00
<mgrwt>
<rscale>  0 0.56181280E+03</rscale>
<asrwt>0</asrwt>
<pdfrwt beam="1">  1        2 0.78332758E-01 0.56181280E+03</pdfrwt>
<pdfrwt beam="2">  1       -2 0.23842573E-01 0.56181280E+03</pdfrwt>
<totfact> 0.10734830E+03</totfact>
</mgrwt>
<rwgt>
<wgt id='morphing_basis_vector_1'> +2.1651206e-04 </wgt>
<wgt id='morphing_basis_vector_2'> +1.2134607e-04 </wgt>
<wgt id='morphing_basis_vector_3'> +1.6603638e-04 </wgt>
<wgt id='morphing_basis_vector_4'> +6.6445505e-05 </wgt>
<wgt id='morphing_basis_vector_5'> +9.8286633e-05 </wgt>
</rwgt>
</event>
<event>
 4      1 +1.0153100e-05 5.51035000e+02 7.81860800e-03 9.29231100e-02
        2 -1    0    0  501    0 +0.0000000000e+00 +0.0000000000e+00 +9.4349299282e+02 9.4349299282e+02 0.0000000000e+00 0.0000e+00 -1.0000e+00
       -2 -1    0    0    0  501 -0.0000000000e+00 -0.0000000000e+00 -8.0456219662e+01 8.0456219662e+01 0.0000000000e+00 0.0000e+00 1.0000e+00
      -13  1    1    2    0    0 +1.8139825162e+01 +2.7058295074e+02 +3.4113711209e+02 4.3579664494e+02 0.0000000000e+00 0.0000e+00 1.0000e+00
       13  1    1    2    0    0 -1.8139825162e+01 -2.7058295074e+02 +5.2189966106e+02 5.8815256754e+02 0.0000000000e+00 0.0000e+00 -1.0000e+00
<mgrwt>
<rscale>  0 0.55103495E+03</rscale>
<asrwt>0</asrwt>
<pdfrwt beam="1">  1        2 0.14515276E+00 0.55103495E+03</pdfrwt>
<pdfrwt beam="2">  1       -2 0.12377881E-01 0.55103495E+03</pdfrwt>
<totfact> 0.14742473E+03</totfact>
</mgrwt>
<rwgt>
<wgt id='morphing_basis_vector_1'> +2.0717782e-04 </wgt>
<wgt id='morphing_basis_vector_2'> +1.2461993e-04 </wgt>
<wgt id='morphing_basis_vector_3'> +1.5397720e-04 </wgt>
<wgt id='morphing_basis_vector_4'> +5.8198525e-05 </wgt>
<wgt id='morphing_basis_vector_5'> +8.8648604e-05 </wgt>
</rwgt>
</event>
<event>
 4      1 +1.0153100e-05 5.27905900e+02 7.81860800e-03 9.33940100e-02
        2 -1    0    0  501    0 +0.0000000000e+00 +0.0000000000e+00 +1.0154261046e+03 1.0154261046e+03 0.0000000000e+00 0.0000e+00 -1.0000e+00
       -2 -1    0    0    0  501 -0.0000000000e+00 -0.0000000000e+00 -6.8612740945e+01 6.8612740945e+01 0.0000000000e+00 0.0000e+00 1.0000e+00
      -13  1    1    2    0    0 -8.3981512065e+01 +1.6301163976e+02 +8.3542169864e+01 2.0150678205e+02 0.0000000000e+00 0.0000e+00 1.0000e+00
       13  1    1    2    0    0 +8.3981512065e+01 -1.6301163976e+02 +8.6327119383e+02 8.8253206353e+02 0.0000000000e+00 0.0000e+00 -1.0000e+00
<mgrwt>
<rscale>  0 0.52790593E+03</rscale>
<asrwt>0</asrwt>
<pdfrwt beam="1">  1        2 0.15621939E+00 0.52790593E+03</pdfrwt>
<pdfrwt beam="2">  1       -2 0.10555807E-01 0.52790593E+03</pdfrwt>
<totfact> 0.17109765E+03</totfact>
</mgrwt>
<rwgt>
<wgt id='morphing_basis_vector_1'> +1.7836625e-04 </wgt>
<wgt id='morphing_basis_vector_2'> +9.9214669e-05 </wgt>
<wgt id='morphing_basis_vector_3'> +1.3216464e-04 </wgt>
<wgt id='morphing_basis_vector_4'> +4.8472614e-05 </wgt>
<wgt id='morphing_basis_vector_5'> +6.9979826e-05 </wgt>
</rwgt>
</event>
<event>
 4      1 +1.0153100e-05 6.05975900e+02 7.81860800e-03 9.18967200e-02
        2 -1    0    0  501    0 +0.0000000000e+00 +0.0000000000e+00 +1.2526292273e+03 1.2526292273e+03 0.0000000000e+00 0.0000e+00 -1.0000e+00
       -2 -1    0    0    0  501 -0.0000000000e+00 -0.0000000000e+00 -7.3287206739e+01 7.3287206739e+01 0.0000000000e+00 0.0000e+00 1.0000e+00
      -13  1    1    2    0    0 +1.7809505663e+02 -2.3509981722e+02 +4.3788904295e+02 5.2795509959e+02 0.0000000000e+00 0.0000e+00 1.0000e+00
       13  1    1    2    0    0 -1.7809505663e+02 +2.3509981722e+02 +7.4145297761e+02 7.9796133444e+02 0.0000000000e+00 0.0000e+00 -1.0000e+00
<mgrwt>
<rscale>  0 0.60597590E+03</rscale>
<asrwt>0</asrwt>
<pdfrwt beam="1">  1        2 0.19271217E+00 0.60597590E+03</pdfrwt>
<pdfrwt beam="2">  1       -2 0.11274956E-01 0.60597590E+03</pdfrwt>
<totfact> 0.11189183E+03</totfact>
</mgrwt>
<rwgt>
<wgt id='morphing_basis_vector_1'> +2.8014381e-04 </wgt>
<wgt id='morphing_basis_vector_2'> +1.6936470e-04 </wgt>
<wgt id='morphing_basis_vector_3'> +2.2032320e-04 </wgt>
<wgt id='morphing_basis_vector_4'> +9.3345862e-05 </wgt>
<wgt id='morphing_basis_vector_5'> +1.4583560e-04 </wgt>
</rwgt>
</event>
<event>
 4      1 +1.0153100e-05 5.77844300e+02 7.81860800e-03 9.24071500e-02
        2 -1    0    0  501    0 +0.0000000000e+00 +0.0000000000e+00 +4.6219221950e+02 4.6219221950e+02 0.0000000000e+00 0.0000e+00 1.0000e+00
       -2 -1    0    0    0  501 -0.0000000000e+00 -0.0000000000e+00 -1.8060885056e+02 1.8060885056e+02 0.0000000000e+00 0.0000e+00 -1.0000e+00
      -13  1    1    2    0    0 -7.9942872000e+01 +2.7469814184e+02 +1.8564926694e+02 3.4105070331e+02 0.0000000000e+00 0.0000e+00 -1.0000e+00
       13  1    1    2    0    0 +7.9942872000e+01 -2.7469814184e+02 +9.5934102004e+01 3.0175036676e+02 0.0000000000e+00 0.0000e+00 1.0000e+00
<mgrwt>
<rscale>  0 0.57784429E+03</rscale>
<asrwt>0</asrwt>
<pdfrwt beam="1">  1        2 0.71106495E-01 0.57784429E+03</pdfrwt>
<pdfrwt beam="2">  1       -2 0.27785977E-01 0.57784429E+03</pdfrwt>
<totfact> 0.92139575E+02</totfact>
</mgrwt>
<rwgt>
<wgt id='morphing_basis_vector_1'> +2.4995834e-04 </wgt>
<wgt id='morphing_basis_vector_2'> +1.7421468e-04 </wgt>
<wgt id='morphing_basis_vector_3'> +1.8341154e-04 </wgt>
<wgt id='morphing_basis_vector_4'> +6.7258824e-05 </wgt>
<wgt id='morphing_basis_vector_5'> +1.1422564e-04 </wgt>
</rwgt>
</event>
<event>
 4      1 +1.0153100e-05 5.94304200e+02 7.81860800e-03 9.21048700e-02
        2 -1    0    0  501    0 +0.0000000000e+00 +0.0000000000e+00 +1.9773695896e+02 1.9773695896e+02 0.0000000000e+00 0.0000e+00 -1.0000e+00
       -2 -1    0    0    0  501 -0.0000000000e+00 -0.0000000000e+00 -4.4654961868e+02 4.4654961868e+02 0.0000000000e+00 0.0000e+00 1.0000e+00
      -13  1    1    2    0    0 +5.5404179024e+01 -1.7658378621e+02 -3.7644068364e+02 4.1947472499e+02 0.0000000000e+00 0.0000e+00 1.0000e+00
       13  1    1    2    0    0 -5.5404179024e+01 +1.7658378621e+02 +1.2762802391e+02 2.2481185265e+02 0.0000000000e+00 0.0000e+00 -1.0000e+00
<mgrwt>
<rscale>  0 0.59430418E+03</rscale>
<asrwt>0</asrwt>
<pdfrwt beam="1">  1        2 0.30421071E-01 0.59430418E+03</pdfrwt>
<pdfrwt beam="2">  1       -2 0.68699941E-01 0.59430418E+03</pdfrwt>
<totfact> 0.42970623E+02</totfact>
</mgrwt>
<rwgt>
<wgt id='morphing_basis_vector_1'> +2.5941872e-04 </wgt>
<wgt id='morphing_basis_vector_2'> +1.4739503e-04 </wgt>
<wgt id='morphing_basis_vector_3'> +2.0466066e-04 </wgt>
<wgt id='morphing_basis_vector_4'> +8.7612851e-05 </wgt>
<wgt id='morphing_basis_vector_5'> +1.3198759e-04 </wgt>
</rwgt>
</event>
<event>
 4      1 +1.0153100e-05 5.32113900e+02 7.81860800e-03 9.33064400e-02
        2 -1    0    0  501    0 +0.0000000000e+00 +0.0000000000e+00 +1.2540080010e+03 1.2540080010e+03 0.0000000000e+00 0.0000e+00 -1.0000e+00
       -2 -1    0    0    0  501 -0.0000000000e+00 -0.0000000000e+00 -5.6448055645e+01 5.6448055645e+01 0.0000000000e+00 0.0000e+00 1.0000e+00
      -13  1    1    2    0    0 +2.3335495363e+02 -7.0057453782e+01 +3.3555818988e+02 4.1468286680e+02 0.0000000000e+00 0.0000e+00 1.0000e+00
       13  1    1    2    0    0 -2.3335495363e+02 +7.0057453782e+01 +8.6200175543e+02 8.9577318981e+02 0.0000000000e+00 0.0000e+00 -1.0000e+00
<mgrwt>
<rscale>  0 0.53211395E+03</rscale>
<asrwt>0</asrwt>
<pdfrwt beam="1">  1        2 0.19292429E+00 0.53211395E+03</pdfrwt>
<pdfrwt beam="2">  1       -2 0.86843172E-02 0.53211395E+03</pdfrwt>
<totfact> 0.16839632E+03</totfact>
</mgrwt>
<rwgt>
<wgt id='morphing_basis_vector_1'> +1.8382170e-04 </wgt>
<wgt id='morphing_basis_vector_2'> +1.0500767e-04 </wgt>
<wgt id='morphing_basis_vector_3'> +1.3576276e-04 </wgt>
<wgt id='morphing_basis_vector_4'> +4.9925224e-05 </wgt>
<wgt id='morphing_basis_vector_5'> +7.3172707e-05 </wgt>
</rwgt>
</event>
<event>
 4      1 +1.0153100e-05 5.51555800e+02 7.81860800e-03 9.29127900e-02
        2 -1    0    0  501    0 +0.0000000000e+00 +0.0000000000e+00 +1.4133449861e+03 1.4133449861e+03 0.0000000000e+00 0.0000e+00 -1.0000e+00
       -2 -1    0    0    0  501 -0.0000000000e+00 -0.0000000000e+00 -5.3810955452e+01 5.3810955452e+01 0.0000000000e+00 0.0000e+00 1.0000e+00
      -13  1    1    2    0    0 +1.6584545334e+02 +2.0151105339e+02 +4.4271018973e+02 5.1391023645e+02 0.0000000000e+00 0.0000e+00 1.0000e+00
       13  1    1    2    0    0 -1.6584545334e+02 -2.0151105339e+02 +9.1682384092e+02 9.5324570511e+02 0.0000000000e+00 0.0000e+00 -1.0000e+00
<mgrwt>
<rscale>  0 0.55155578E+03</rscale>
<asrwt>0</asrwt>
<pdfrwt beam="1">  1        2 0.21743766E+00 0.55155578E+03</pdfrwt>
<pdfrwt beam="2">  1       -2 0.82786096E-02 0.55155578E+03</pdfrwt>
<totfact> 0.14775229E+03</totfact>
</mgrwt>
<rwgt>
<wgt id='morphing_basis_vector_1'> +2.0619337e-04 </wgt>
<wgt id='morphing_basis_vector_2'> +1.2003949e-04 </wgt>
<wgt id='morphing_basis_vector_3'> +1.5480260e-04 </wgt>
<wgt id='morphing_basis_vector_4'> +5.9437547e-05 </wgt>
<wgt id='morphing_basis_vector_5'> +8.9066510e-05 </wgt>
</rwgt>
</event>
<event>
 4      1 +1.0153100e-05 5.53748000e+02 7.81860800e-03 9.28694900e-02
        2 -1    0    0  501    0 +0.0000000000e+00 +0.0000000000e+00 +7.8273578914e+01 7.8273578914e+01 0.0000000000e+00 0.0000e+00 -1.0000e+00
       -2 -1    0    0    0  501 -0.0000000000e+00 -0.0000000000e+00 -9.7937531565e+02 9.7937531565e+02 0.0000000000e+00 0.0000e+00 1.0000e+00
      -13  1    1    2    0    0 -1.5459987196e+02 +7.8939925330e+00 -8.8899801864e+02 9.0237515074e+02 0.0000000000e+00 0.0000e+00 1.0000e+00
       13  1    1    2    0    0 +1.5459987196e+02 -7.8939925330e+00 -1.2103718097e+01 1.5527374382e+02 0.0000000000e+00 0.0000e+00 -1.0000e+00
<mgrwt>
<rscale>  0 0.55374800E+03</rscale>
<asrwt>0</asrwt>
<pdfrwt beam="1">  1        2 0.12042089E-01 0.55374800E+03</pdfrwt>
<pdfrwt beam="2">  1       -2 0.15067312E+00 0.55374800E+03</pdfrwt>
<totfact> 0.19245060E+02</totfact>
</mgrwt>
<rwgt>
<wgt id='morphing_basis_vector_1'> +2.0689819e-04 </wgt>
<wgt id='morphing_basis_vector_2'> +1.1577818e-04 </wgt>
<wgt id='morphing_basis_vector_3'> +1.5740990e-04 </wgt>
<wgt id='morphing_basis_vector_4'> +6.1777397e-05 </wgt>
<wgt id='morphing_basis_vector_5'> +9.0952377e-05 </wgt>
</rwgt>
</event>
<event>
 4      1 +1.0153100e-05 5.98532400e+02 7.81860800e-03 9.20288900e-02
        2 -1    0    0  501    0 +0.0000000000e+00 +0.0000000000e+00 +1.9017033430e+03 1.9017033430e+03 0.0000000000e+00 0.0000e+00 -1.0000e+00
       -2 -1    0    0    0  501 -0.0000000000e+00 -0.0000000000e+00 -4.7094764861e+01 4.7094764861e+01 0.0000000000e+00 0.0000e+00 1.0000e+00
      -13  1    1    2    0    0 -8.5320758583e+01 +2.8166666468e+02 +7.5062439126e+02 8.0625846885e+02 0.0000000000e+00 0.0000e+00 1.0000e+00
       13  1    1    2    0    0 +8.5320758583e+01 -2.8166666468e+02 +1.1039841869e+03 1.1425396390e+03 0.0000000000e+00 0.0000e+00 -1.0000e+00
<mgrwt>
<rscale>  0 0.59853244E+03</rscale>
<asrwt>0</asrwt>
<pdfrwt beam="1">  1        2 0.29256969E+00 0.59853244E+03</pdfrwt>
<pdfrwt beam="2">  1       -2 0.72453499E-02 0.59853244E+03</pdfrwt>
<totfact> 0.98124112E+02</totfact>
</mgrwt>
<rwgt>
<wgt id='morphing_basis_vector_1'> +2.6987012e-04 </wgt>
<wgt id='morphing_basis_vector_2'> +1.6472687e-04 </wgt>
<wgt id='morphing_basis_vector_3'> +2.1023514e-04 </wgt>
<wgt id='morphing_basis_vector_4'> +8.7322865e-05 </wgt>
<wgt id='morphing_basis_vector_5'> +1.3691395e-04 </wgt>
</rwgt>
</event>
<event>
 4      1 +1.0153100e-05 5.99080900e+02 7.81860800e-03 9.20190800e-02
        2 -1    0    0  501    0 +0.0000000000e+00 +0.0000000000e+00 +4.1959637031e+02 4.1959637031e+02 0.0000000000e+00 0.0000e+00 -1.0000e+00
       -2 -1    0    0    0  501 -0.0000000000e+00 -0.0000000000e+00 -2.1383524973e+02 2.1383524973e+02 0.0000000000e+00 0.0000e+00 1.0000e+00
      -13  1    1    2    0    0 -1.8613810079e+02 -8.9852053580e+01 -1.2635411097e+02 2.4225223520e+02 0.0000000000e+00 0.0000e+00 1.0000e+00
       13  1    1    2    0    0 +1.8613810079e+02 +8.9852053580e+01 +3.3211523154e+02 3.9117938484e+02 0.0000000000e+00 0.0000e+00 -1.0000e+00
<mgrwt>
<rscale>  0 0.59908094E+03</rscale>
<asrwt>0</asrwt>
<pdfrwt beam="1">  1        2 0.64553288E-01 0.59908094E+03</pdfrwt>
<pdfrwt beam="2">  1       -2 0.32897731E-01 0.59908094E+03</pdfrwt>
<totfact> 0.76309800E+02</totfact>
</mgrwt>
<rwgt>
<wgt id='morphing_basis_vector_1'> +2.6635743e-04 </wgt>
<wgt id='morphing_basis_vector_2'> +1.5185853e-04 </wgt>
<wgt id='morphing_basis_vector_3'> +2.1089968e-04 </wgt>
<wgt id='morphing_basis_vector_4'> +9.1024866e-05 </wgt>
<wgt id='morphing_basis_vector_5'> +1.3753536e-04 </wgt>
</rwgt>
</event>
<event>
 4      1 +1.0153100e-05 5.77022100e+02 7.81860800e-03 9.24225300e-02
        2 -1    0    0  501    0 +0.0000000000e+00 +0.0000000000e+00 +7.5575782827e+02 7.5575782827e+02 0.0000000000e+00 0.0000e+00 -1.0000e+00
       -2 -1    0    0    0  501 -0.0000000000e+00 -0.0000000000e+00 -1.1013929793e+02 1.1013929793e+02 0.0000000000e+00 0.0000e+00 1.0000e+00
      -13  1    1    2    0    0 +2.5295373255e+02 +6.5187341133e+01 +1.3899789270e+02 2.9589760801e+02 0.0000000000e+00 0.0000e+00 1.0000e+00
       13  1    1    2    0    0 -2.5295373255e+02 -6.5187341133e+01 +5.0662063764e+02 5.6999951819e+02 0.0000000000e+00 0.0000e+00 -1.0000e+00
<mgrwt>
<rscale>  0 0.57702214E+03</rscale>
<asrwt>0</asrwt>
<pdfrwt beam="1">  1        2 0.11627043E+00 0.57702214E+03</pdfrwt>
<pdfrwt beam="2">  1       -2 0.16944508E-01 0.57702214E+03</pdfrwt>
<totfact> 0.11868631E+03</totfact>
</mgrwt>
<rwgt>
<wgt id='morphing_basis_vector_1'> +2.3715923e-04 </wgt>
<wgt id='morphing_basis_vector_2'> +1.3719433e-04 </wgt>
<wgt id='morphing_basis_vector_3'> +1.8321722e-04 </wgt>
<wgt id='morphing_basis_vector_4'> +7.4892518e-05 </wgt>
<wgt id='morphing_basis_vector_5'> +1.1322827e-04 </wgt>
</rwgt>
</event>
<event>
 4      1 +1.0153100e-05 5.28932100e+02 7.81860800e-03 9.33725800e-02
        2 -1    0    0  501    0 +0.0000000000e+00 +0.0000000000e+00 +1.5698741126e+03 1.5698741126e+03 0.0000000000e+00 0.0000e+00 -1.0000e+00
       -2 -1    0    0    0  501 -0.0000000000e+00 -0.0000000000e+00 -4.4552798881e+01 4.4552798881e+01 0.0000000000e+00 0.0000e+00 1.0000e+00
      -13  1    1    2    0    0 +3.3317383339e+00 -2.6442156732e+02 +7.5190401064e+02 7.9705050465e+02 0.0000000000e+00 0.0000e+00 1.0000e+00
       13  1    1    2    0    0 -3.3317383339e+00 +2.6442156732e+02 +7.7341730303e+02 8.1737640679e+02 0.0000000000e+00 0.0000e+00 -1.0000e+00
<mgrwt>
<rscale>  0 0.52893208E+03</rscale>
<asrwt>0</asrwt>
<pdfrwt beam="1">  1        2 0.24151905E+00 0.52893208E+03</pdfrwt>
<pdfrwt beam="2">  1       -2 0.68542780E-02 0.52893208E+03</pdfrwt>
<totfact> 0.16239372E+03</totfact>
</mgrwt>
<rwgt>
<wgt id='morphing_basis_vector_1'> +1.8496120e-04 </wgt>
<wgt id='morphing_basis_vector_2'> +1.1700053e-04 </wgt>
<wgt id='morphing_basis_vector_3'> +1.3157370e-04 </wgt>
<wgt id='morphing_basis_vector_4'> +4.6097739e-05 </wgt>
<wgt id='morphing_basis_vector_5'> +7.0908830e-05 </wgt>
</rwgt>
</event>
<event>
 4      1 +1.0153100e-05 6.09286500e+02 7.81860800e-03 9.18385900e-02
        2 -1    0    0  501    0 +0.0000000000e+00 +0.0000000000e+00 +1.4287776106e+02 1.4287776106e+02 0.0000000000e+00 0.0000e+00 1.0000e+00
       -2 -1    0    0    0  501 -0.0000000000e+00 -0.0000000000e+00 -6.4955871850e+02 6.4955871850e+02 0.0000000000e+00 0.0000e+00 -1.0000e+00
      -13  1    1    2    0    0 -2.0603441723e+01 +2.9848646246e+02 -3.2792751319e+02 4.4390891407e+02 0.0000000000e+00 0.0000e+00 -1.0000e+00
       13  1    1    2    0    0 +2.0603441723e+01 -2.9848646246e+02 -1.7875344425e+02 3.4852756550e+02 0.0000000000e+00 0.0000e+00 1.0000e+00
<mgrwt>
<rscale>  0 0.60928645E+03</rscale>
<asrwt>0</asrwt>
<pdfrwt beam="1">  1        2 0.21981194E-01 0.60928645E+03</pdfrwt>
<pdfrwt beam="2">  1       -2 0.99932112E-01 0.60928645E+03</pdfrwt>
<totfact> 0.26877059E+02</totfact>
</mgrwt>
<rwgt>
<wgt id='morphing_basis_vector_1'> +2.8588988e-04 </wgt>
<wgt id='morphing_basis_vector_2'> +1.7479431e-04 </wgt>
<wgt id='morphing_basis_vector_3'> +2.2497411e-04 </wgt>
<wgt id='morphing_basis_vector_4'> +9.5265114e-05 </wgt>
<wgt id='morphing_basis_vector_5'> +1.4993383e-04 </wgt>
</rwgt>
</event>
<event>
 4      1 +1.0153100e-05 5.50681200e+02 7.81860800e-03 9.29301200e-02
        2 -1    0    0  501    0 +0.0000000000e+00 +0.0000000000e+00 +2.0391649814e+02 2.0391649814e+02 0.0000000000e+00 0.0000e+00 -1.0000e+00
       -2 -1    0    0    0  501 -0.0000000000e+00 -0.0000000000e+00 -3.7178186629e+02 3.7178186629e+02 0.0000000000e+00 0.0000e+00 1.0000e+00
      -13  1    1    2    0    0 +2.6581830786e+02 -4.0903299696e+01 -1.4560419068e+02 3.0583170709e+02 0.0000000000e+00 0.0000e+00 1.0000e+00
       13  1    1    2    0    0 -2.6581830786e+02 +4.0903299696e+01 -2.2261177479e+01 2.6986665734e+02 0.0000000000e+00 0.0000e+00 -1.0000e+00
<mgrwt>
<rscale>  0 0.55068124E+03</rscale>
<asrwt>0</asrwt>
<pdfrwt beam="1">  1        2 0.31371770E-01 0.55068124E+03</pdfrwt>
<pdfrwt beam="2">  1       -2 0.57197209E-01 0.55068124E+03</pdfrwt>
<totfact> 0.60580311E+02</totfact>
</mgrwt>
<rwgt>
<wgt id='morphing_basis_vector_1'> +2.0627075e-04 </wgt>
<wgt id='morphing_basis_vector_2'> +1.2283517e-04 </wgt>
<wgt id='morphing_basis_vector_3'> +1.5369695e-04 </wgt>
<wgt id='morphing_basis_vector_4'> +5.8306772e-05 </wgt>
<wgt id='morphing_basis_vector_5'> +8.8330729e-05 </wgt>
</rwgt>
</event>
<event>
 4      1 +1.0153100e-05 5.20392500e+02 7.81860800e-03 9.35525600e-02
        2 -1    0    0  501    0 +0.0000000000e+00 +0.0000000000e+00 +6.7023566790e+02 6.7023566790e+02 0.0000000000e+00 0.0000e+00 1.0000e+00
       -2 -1    0    0    0  501 -0.0000000000e+00 -0.0000000000e+00 -1.0101237447e+02 1.0101237447e+02 0.0000000000e+00 0.0000e+00 -1.0000e+00
      -13  1    1    2    0    0 -1.8528607388e+02 -1.2227016186e+02 +4.8576240804e+02 5.3408429927e+02 0.0000000000e+00 0.0000e+00 -1.0000e+00
       13  1    1    2    0    0 +1.8528607388e+02 +1.2227016186e+02 +8.3460885392e+01 2.3716374311e+02 0.0000000000e+00 0.0000e+00 1.0000e+00
<mgrwt>
<rscale>  0 0.52039253E+03</rscale>
<asrwt>0</asrwt>
<pdfrwt beam="1">  1        2 0.10311318E+00 0.52039253E+03</pdfrwt>
<pdfrwt beam="2">  1       -2 0.15540366E-01 0.52039253E+03</pdfrwt>
<totfact> 0.15810729E+03</totfact>
</mgrwt>
<rwgt>
<wgt id='morphing_basis_vector_1'> +2.0161449e-04 </wgt>
<wgt id='morphing_basis_vector_2'> +1.9079295e-04 </wgt>
<wgt id='morphing_basis_vector_3'> +1.1572403e-04 </wgt>
<wgt id='morphing_basis_vector_4'> +3.0101914e-05 </wgt>
<wgt id='morphing_basis_vector_5'> +6.5590471e-05 </wgt>
</rwgt>
</event>
<event>
 4      1 +1.0153100e-05 5.72879200e+02 7.81860800e-03 9.25004400e-02
        2 -1    0    0  501    0 +0.0000000000e+00 +0.0000000000e+00 +9.6059402563e+02 9.6059402563e+02 0.0000000000e+00 0.0000e+00 1.0000e+00
       -2 -1    0    0    0  501 -0.0000000000e+00 -0.0000000000e+00 -8.5413452102e+01 8.5413452102e+01 0.0000000000e+00 0.0000e+00 -1.0000e+00
      -13  1    1    2    0    0 +1.8959904838e+02 -1.8246823870e+02 +6.4420669400e+02 6.9587694449e+02 0.0000000000e+00 0.0000e+00 -1.0000e+00
       13  1    1    2    0    0 -1.8959904838e+02 +1.8246823870e+02 +2.3097387952e+02 3.5013053324e+02 0.0000000000e+00 0.0000e+00 1.0000e+00
<mgrwt>
<rscale>  0 0.57287923E+03</rscale>
<asrwt>0</asrwt>
<pdfrwt beam="1">  1        2 0.14778369E+00 0.57287923E+03</pdfrwt>
<pdfrwt beam="2">  1       -2 0.13140532E-01 0.57287923E+03</pdfrwt>
<totfact> 0.13072820E+03</totfact>
</mgrwt>
<rwgt>
<wgt id='morphing_basis_vector_1'> +2.5985099e-04 </wgt>
<wgt id='morphing_basis_vector_2'> +2.2109566e-04 </wgt>
<wgt id='morphing_basis_vector_3'> +1.7591124e-04 </wgt>
<wgt id='morphing_basis_vector_4'> +5.3184754e-05 </wgt>
<wgt id='morphing_basis_vector_5'> +1.0942744e-04 </wgt>
</rwgt>
</event>
<event>
 4      1 +1.0153100e-05 6.00551000e+02 7.81860800e-03 9.19928400e-02
        2 -1    0    0  501    0 +0.0000000000e+00 +0.0000000000e+00 +9.2885912143e+02 9.2885912143e+02 0.0000000000e+00 0.0000e+00 1.0000e+00
       -2 -1    0    0    0  501 -0.0000000000e+00 -0.0000000000e+00 -9.7071101473e+01 9.7071101473e+01 0.0000000000e+00 0.0000e+00 -1.0000e+00
      -13  1    1    2    0    0 -2.0130392238e+02 -1.4657484128e+02 +7.0255476899e+02 7.4537953868e+02 0.0000000000e+00 0.0000e+00 1.0000e+00
       13  1    1    2    0    0 +2.0130392238e+02 +1.4657484128e+02 +1.2923325097e+02 2.8055068422e+02 0.0000000000e+00 0.0000e+00 -1.0000e+00
<mgrwt>
<rscale>  0 0.60055101E+03</rscale>
<asrwt>0</asrwt>
<pdfrwt beam="1">  1        2 0.14290140E+00 0.60055101E+03</pdfrwt>
<pdfrwt beam="2">  1       -2 0.14934016E-01 0.60055101E+03</pdfrwt>
<totfact> 0.11142743E+03</totfact>
</mgrwt>
<rwgt>
<wgt id='morphing_basis_vector_1'> +3.2296941e-04 </wgt>
<wgt id='morphing_basis_vector_2'> +3.2207013e-04 </wgt>
<wgt id='morphing_basis_vector_3'> +2.1401799e-04 </wgt>
<wgt id='morphing_basis_vector_4'> +5.0048786e-05 </wgt>
<wgt id='morphing_basis_vector_5'> +1.3953525e-04 </wgt>
</rwgt>
</event>
<event>
 4      1 +1.0153100e-05 5.47898700e+02 7.81860800e-03 9.29855000e-02
        2 -1    0    0  501    0 +0.0000000000e+00 +0.0000000000e+00 +2.0591460561e+02 2.0591460561e+02 0.0000000000e+00 0.0000e+00 1.0000e+00
       -2 -1    0    0    0  501 -0.0000000000e+00 -0.0000000000e+00 -3.6446300475e+02 3.6446300475e+02 0.0000000000e+00 0.0000e+00 -1.0000e+00
      -13  1    1    2    0    0 +2.4440283797e+02 -2.9437033629e+01 -2.0440972237e+02 3.1997284378e+02 0.0000000000e+00 0.0000e+00 -1.0000e+00
       13  1    1    2    0    0 -2.4440283797e+02 +2.9437033629e+01 +4.5861323231e+01 2.5040476658e+02 0.0000000000e+00 0.0000e+00 1.0000e+00
<mgrwt>
<rscale>  0 0.54789873E+03</rscale>
<asrwt>0</asrwt>
<pdfrwt beam="1">  1        2 0.31679170E-01 0.54789873E+03</pdfrwt>
<pdfrwt beam="2">  1       -2 0.56071231E-01 0.54789873E+03</pdfrwt>
<totfact> 0.62350143E+02</totfact>
</mgrwt>
<rwgt>
<wgt id='morphing_basis_vector_1'> +2.0114923e-04 </wgt>
<wgt id='morphing_basis_vector_2'> +1.1499180e-04 </wgt>
<wgt id='morphing_basis_vector_3'> +1.5118732e-04 </wgt>
<wgt id='morphing_basis_vector_4'> +5.7955590e-05 </wgt>
<wgt id='morphing_basis_vector_5'> +8.5897714e-05 </wgt>
</rwgt>
</event>
<event>
 4      1 +1.0153100e-05 5.73254500e+02 7.81860800e-03 9.24933500e-02
        2 -1    0    0  501    0 +0.0000000000e+00 +0.0000000000e+00 +4.1700456928e+02 4.1700456928e+02 0.0000000000e+00 0.0000e+00 -1.0000e+00
       -2 -1    0    0    0  501 -0.0000000000e+00 -0.0000000000e+00 -1.9701267614e+02 1.9701267614e+02 0.0000000000e+00 0.0000e+00 1.0000e+00
      -13  1    1    2    0    0 +2.7231289580e+02 -8.0166973785e+01 +6.7499435532e+01 2.9178284854e+02 0.0000000000e+00 0.0000e+00 1.0000e+00
       13  1    1    2    0    0 -2.7231289580e+02 +8.0166973785e+01 +1.5249245761e+02 3.2223439688e+02 0.0000000000e+00 0.0000e+00 -1.0000e+00
<mgrwt>
<rscale>  0 0.57325452E+03</rscale>
<asrwt>0</asrwt>
<pdfrwt beam="1">  1        2 0.64154549E-01 0.57325452E+03</pdfrwt>
<pdfrwt beam="2">  1       -2 0.30309642E-01 0.57325452E+03</pdfrwt>
<totfact> 0.88871869E+02</totfact>
</mgrwt>
<rwgt>
<wgt id='morphing_basis_vector_1'> +2.3551235e-04 </wgt>
<wgt id='morphing_basis_vector_2'> +1.4433893e-04 </wgt>
<wgt id='morphing_basis_vector_3'> +1.7851018e-04 </wgt>
<wgt id='morphing_basis_vector_4'> +7.0282550e-05 </wgt>
<wgt id='morphing_basis_vector_5'> +1.0944395e-04 </wgt>
</rwgt>
</event>
<event>
 4      1 +1.0153100e-05 5.24064600e+02 7.81860800e-03 9.34747200e-02
        2 -1    0    0  501    0 +0.0000000000e+00 +0.0000000000e+00 +1.5082303929e+03 1.5082303929e+03 0.0000000000e+00 0.0000e+00 -1.0000e+00
       -2 -1    0    0    0  501 -0.0000000000e+00 -0.0000000000e+00 -4.5524158719e+01 4.5524158719e+01 0.0000000000e+00 0.0000e+00 1.0000e+00
      -13  1    1    2    0    0 -1.9669869122e+02 +1.2555865037e+02 +3.7798534234e+02 4.4421646619e+02 0.0000000000e+00 0.0000e+00 1.0000e+00
       13  1    1    2    0    0 +1.9669869122e+02 -1.2555865037e+02 +1.0847208918e+03 1.1095380854e+03 0.0000000000e+00 0.0000e+00 -1.0000e+00
<mgrwt>
<rscale>  0 0.52406458E+03</rscale>
<asrwt>0</asrwt>
<pdfrwt beam="1">  1        2 0.23203541E+00 0.52406458E+03</pdfrwt>
<pdfrwt beam="2">  1       -2 0.70037179E-02 0.52406458E+03</pdfrwt>
<totfact> 0.16976138E+03</totfact>
</mgrwt>
<rwgt>
<wgt id='morphing_basis_vector_1'> +1.7511367e-04 </wgt>
<wgt id='morphing_basis_vector_2'> +9.9101379e-05 </wgt>
<wgt id='morphing_basis_vector_3'> +1.2850076e-04 </wgt>
<wgt id='morphing_basis_vector_4'> +4.6347089e-05 </wgt>
<wgt id='morphing_basis_vector_5'> +6.7197309e-05 </wgt>
</rwgt>
</event>
<event>
 4      1 +1.0153100e-05 5.37095100e+02 7.81860800e-03 9.32039000e-02
        2 -1    0    0  501    0 +0.0000000000e+00 +0.0000000000e+00 +5.0012190876e+02 5.0012190876e+02 0.0000000000e+00 0.0000e+00 -1.0000e+00
       -2 -1    0    0    0  501 -0.0000000000e+00 -0.0000000000e+00 -1.4420043532e+02 1.4420043532e+02 0.0000000000e+00 0.0000e+00 1.0000e+00
      -13  1    1    2    0    0 +1.3155895806e+02 -1.4090378233e+02 -4.6331292575e+01 1.9826301721e+02 0.0000000000e+00 0.0000e+00 1.0000e+00
       13  1    1    2    0    0 -1.3155895806e+02 +1.4090378233e+02 +4.0225276602e+02 4.4605932687e+02 0.0000000000e+00 0.0000e+00 -1.0000e+00
<mgrwt>
<rscale>  0 0.53709514E+03</rscale>
<asrwt>0</asrwt>
<pdfrwt beam="1">  1        2 0.76941831E-01 0.53709514E+03</pdfrwt>
<pdfrwt beam="2">  1       -2 0.22184683E-01 0.53709514E+03</pdfrwt>
<totfact> 0.12369633E+03</totfact>
</mgrwt>
<rwgt>
<wgt id='morphing_basis_vector_1'> +1.8819804e-04 </wgt>
<wgt id='morphing_basis_vector_2'> +1.0511252e-04 </wgt>
<wgt id='morphing_basis_vector_3'> +1.4071696e-04 </wgt>
<wgt id='morphing_basis_vector_4'> +5.2885737e-05 </wgt>
<wgt id='morphing_basis_vector_5'> +7.7012436e-05 </wgt>
</rwgt>
</event>
<event>
 4      1 +1.0153100e-05 5.60406600e+02 7.81860800e-03 9.27392700e-02
        2 -1    0    0  501    0 +0.0000000000e+00 +0.0000000000e+00 +1.0671104967e+03 1.0671104967e+03 0.0000000000e+00 0.0000e+00 -1.0000e+00
       -2 -1    0    0    0  501 -0.0000000000e+00 -0.0000000000e+00 -7.3576169631e+01 7.3576169631e+01 0.0000000000e+00 0.0000e+00 1.0000e+00
      -13  1    1    2    0    0 +2.6428952294e+02 -3.2669000738e+01 +3.1934666475e+02 4.1581066344e+02 0.0000000000e+00 0.0000e+00 1.0000e+00
       13  1    1    2    0    0 -2.6428952294e+02 +3.2669000738e+01 +6.7418766231e+02 7.2487600289e+02 0.0000000000e+00 0.0000e+00 -1.0000e+00
<mgrwt>
<rscale>  0 0.56040665E+03</rscale>
<asrwt>0</asrwt>
<pdfrwt beam="1">  1        2 0.16417083E+00 0.56040665E+03</pdfrwt>
<pdfrwt beam="2">  1       -2 0.11319411E-01 0.56040665E+03</pdfrwt>
<totfact> 0.14266378E+03</totfact>
</mgrwt>
<rwgt>
<wgt id='morphing_basis_vector_1'> +2.1693404e-04 </wgt>
<wgt id='morphing_basis_vector_2'> +1.2695444e-04 </wgt>
<wgt id='morphing_basis_vector_3'> +1.6421177e-04 </wgt>
<wgt id='morphing_basis_vector_4'> +6.4264007e-05 </wgt>
<wgt id='morphing_basis_vector_5'> +9.7019836e-05 </wgt>
</rwgt>
</event>
<event>
 4      1 +1.0153100e-05 5.78215900e+02 7.81860800e-03 9.24002100e-02
        2 -1    0    0  501    0 +0.0000000000e+00 +0.0000000000e+00 +1.1006609282e+03 1.1006609282e+03 0.0000000000e+00 0.0000e+00 1.0000e+00
       -2 -1    0    0    0  501 -0.0000000000e+00 -0.0000000000e+00 -7.5939285177e+01 7.5939285177e+01 0.0000000000e+00 0.0000e+00 -1.0000e+00
      -13  1    1    2    0    0 -1.8555977639e+02 -1.1451795119e+02 +1.2607312235e+02 2.5187541352e+02 0.0000000000e+00 0.0000e+00 -1.0000e+00
       13  1    1    2    0    0 +1.8555977639e+02 +1.1451795119e+02 +8.9864852066e+02 9.2472479985e+02 0.0000000000e+00 0.0000e+00 1.0000e+00
<mgrwt>
<rscale>  0 0.57821589E+03</rscale>
<asrwt>0</asrwt>
<pdfrwt beam="1">  1        2 0.16933244E+00 0.57821589E+03</pdfrwt>
<pdfrwt beam="2">  1       -2 0.11682968E-01 0.57821589E+03</pdfrwt>
<totfact> 0.12959063E+03</totfact>
</mgrwt>
<rwgt>
<wgt id='morphing_basis_vector_1'> +2.3769282e-04 </wgt>
<wgt id='morphing_basis_vector_2'> +1.3492489e-04 </wgt>
<wgt id='morphing_basis_vector_3'> +1.8470632e-04 </wgt>
<wgt id='morphing_basis_vector_4'> +7.6386759e-05 </wgt>
<wgt id='morphing_basis_vector_5'> +1.1444813e-04 </wgt>
</rwgt>
</event>
<event>
 4      1 +1.0153100e-05 5.22832000e+02 7.81860800e-03 9.35007700e-02
        2 -1    0    0  501    0 +0.0000000000e+00 +0.0000000000e+00 +5.6250278739e+02 5.6250278739e+02 0.0000000000e+00 0.0000e+00 1.0000e+00
       -2 -1    0    0    0  501 -0.0000000000e+00 -0.0000000000e+00 -1.2148976764e+02 1.2148976764e+02 0.0000000000e+00 0.0000e+00 -1.0000e+00
      -13  1    1    2    0    0 -1.0349328828e+02 -1.4202899061e+02 -3.2682860980e+01 1.7874916586e+02 0.0000000000e+00 0.0000e+00 -1.0000e+00
       13  1    1    2    0    0 +1.0349328828e+02 +1.4202899061e+02 +4.7369588073e+02 5.0524338918e+02 0.0000000000e+00 0.0000e+00 1.0000e+00
<mgrwt>
<rscale>  0 0.52283203E+03</rscale>
<asrwt>0</asrwt>
<pdfrwt beam="1">  1        2 0.86538889E-01 0.52283203E+03</pdfrwt>
<pdfrwt beam="2">  1       -2 0.18690734E-01 0.52283203E+03</pdfrwt>
<totfact> 0.14375296E+03</totfact>
</mgrwt>
<rwgt>
<wgt id='morphing_basis_vector_1'> +1.7311299e-04 </wgt>
<wgt id='morphing_basis_vector_2'> +9.6054059e-05 </wgt>
<wgt id='morphing_basis_vector_3'> +1.2763141e-04 </wgt>
<wgt id='morphing_basis_vector_4'> +4.6159571e-05 </wgt>
<wgt id='morphing_basis_vector_5'> +6.6289942e-05 </wgt>
</rwgt>
</event>
<event>
 4      1 +1.0153100e-05 6.06898900e+02 7.81860800e-03 9.18804800e-02
        2 -1    0    0  501    0 +0.0000000000e+00 +0.0000000000e+00 +3.5183078719e+02 3.5183078719e+02 0.0000000000e+00 0.0000e+00 -1.0000e+00
       -2 -1    0    0    0  501 -0.0000000000e+00 -0.0000000000e+00 -2.6172116758e+02 2.6172116758e+02 0.0000000000e+00 0.0000e+00 1.0000e+00
      -13  1    1    2    0    0 -1.4057768920e+02 +2.0302308017e+02 -1.3323352347e+02 2.8059157072e+02 0.0000000000e+00 0.0000e+00 1.0000e+00
       13  1    1    2    0    0 +1.4057768920e+02 -2.0302308017e+02 +2.2334314308e+02 3.3296038404e+02 0.0000000000e+00 0.0000e+00 -1.0000e+00
<mgrwt>
<rscale>  0 0.60689889E+03</rscale>
<asrwt>0</asrwt>
<pdfrwt beam="1">  1        2 0.54127813E-01 0.60689889E+03</pdfrwt>
<pdfrwt beam="2">  1       -2 0.40264795E-01 0.60689889E+03</pdfrwt>
<totfact> 0.64402067E+02</totfact>
</mgrwt>
<rwgt>
<wgt id='morphing_basis_vector_1'> +2.7831646e-04 </wgt>
<wgt id='morphing_basis_vector_2'> +1.6026628e-04 </wgt>
<wgt id='morphing_basis_vector_3'> +2.2145603e-04 </wgt>
<wgt id='morphing_basis_vector_4'> +9.6589654e-05 </wgt>
<wgt id='morphing_basis_vector_5'> +1.4696154e-04 </wgt>
</rwgt>
</event>
<event>
 4      1 +1.0153100e-05 5.88763700e+02 7.81860800e-03 9.22054500e-02
        2 -1    0    0  501    0 +0.0000000000e+00 +0.0000000000e+00 +9.3607830936e+02 9.3607830936e+02 0.0000000000e+00 0.0000e+00 1.0000e+00
       -2 -1    0    0    0  501 -0.0000000000e+00 -0.0000000000e+00 -9.2578444967e+01 9.2578444967e+01 0.0000000000e+00 0.0000e+00 -1.0000e+00
      -13  1    1    2    0    0 -7.8648621885e+01 -2.8033261215e+02 +3.4582046013e+02 4.5206611220e+02 0.0000000000e+00 0.0000e+00 -1.0000e+00
       13  1    1    2    0    0 +7.8648621885e+01 +2.8033261215e+02 +4.9767940427e+02 5.7659064213e+02 0.0000000000e+00 0.0000e+00 1.0000e+00
<mgrwt>
<rscale>  0 0.58876370E+03</rscale>
<asrwt>0</asrwt>
<pdfrwt beam="1">  1        2 0.14401204E+00 0.58876370E+03</pdfrwt>
<pdfrwt beam="2">  1       -2 0.14242838E-01 0.58876370E+03</pdfrwt>
<totfact> 0.11902087E+03</totfact>
</mgrwt>
<rwgt>
<wgt id='morphing_basis_vector_1'> +2.5645141e-04 </wgt>
<wgt id='morphing_basis_vector_2'> +1.5754253e-04 </wgt>
<wgt id='morphing_basis_vector_3'> +1.9749703e-04 </wgt>
<wgt id='morphing_basis_vector_4'> +8.0178065e-05 </wgt>
<wgt id='morphing_basis_vector_5'> +1.2579270e-04 </wgt>
</rwgt>
</event>
<event>
 4      1 +1.0153100e-05 5.25317900e+02 7.81860800e-03 9.34483100e-02
        2 -1    0    0  501    0 +0.0000000000e+00 +0.0000000000e+00 +1.6059761053e+03 1.6059761053e+03 0.0000000000e+00 0.0000e+00 -1.0000e+00
       -2 -1    0    0    0  501 -0.0000000000e+00 -0.0000000000e+00 -4.2958127207e+01 4.2958127207e+01 0.0000000000e+00 0.0000e+00 1.0000e+00
      -13  1    1    2    0    0 +1.6704584654e+02 +1.9553483121e+02 +9.4912709188e+02 9.8335162663e+02 0.0000000000e+00 0.0000e+00 -1.0000e+00
       13  1    1    2    0    0 -1.6704584654e+02 -1.9553483121e+02 +6.1389088623e+02 6.6558260588e+02 0.0000000000e+00 0.0000e+00 1.0000e+00
<mgrwt>
<rscale>  0 0.52531791E+03</rscale>
<asrwt>0</asrwt>
<pdfrwt beam="1">  1        2 0.24707320E+00 0.52531791E+03</pdfrwt>
<pdfrwt beam="2">  1       -2 0.66089439E-02 0.52531791E+03</pdfrwt>
<totfact> 0.16416567E+03</totfact>
</mgrwt>
<rwgt>
<wgt id='morphing_basis_vector_1'> +1.8743771e-04 </wgt>
<wgt id='morphing_basis_vector_2'> +1.3414206e-04 </wgt>
<wgt id='morphing_basis_vector_3'> +1.2639146e-04 </wgt>
<wgt id='morphing_basis_vector_4'> +4.1364500e-05 </wgt>
<wgt id='morphing_basis_vector_5'> +6.8450390e-05 </wgt>
</rwgt>
</event>
<event>
 4      1 +1.0153100e-05 5.70849000e+02 7.81860800e-03 9.25388700e-02
        2 -1    0    0  501    0 +0.0000000000e+00 +0.0000000000e+00 +1.0477749735e+03 1.0477749735e+03 0.0000000000e+00 0.0000e+00 1.0000e+00
       -2 -1    0    0    0  501 -0.0000000000e+00 -0.0000000000e+00 -7.7752531820e+01 7.7752531820e+01 0.0000000000e+00 0.0000e+00 -1.0000e+00
      -13  1    1    2    0    0 +1.7830662463e+02 +1.8652794695e+02 +2.4448953171e+02 3.5547300671e+02 0.0000000000e+00 0.0000e+00 -1.0000e+00
       13  1    1    2    0    0 -1.7830662463e+02 -1.8652794695e+02 +7.2553290996e+02 7.7005449860e+02 0.0000000000e+00 0.0000e+00 1.0000e+00
<mgrwt>
<rscale>  0 0.57084904E+03</rscale>
<asrwt>0</asrwt>
<pdfrwt beam="1">  1        2 0.16119614E+00 0.57084904E+03</pdfrwt>
<pdfrwt beam="2">  1       -2 0.11961929E-01 0.57084904E+03</pdfrwt>
<totfact> 0.13425455E+03</totfact>
</mgrwt>
<rwgt>
<wgt id='morphing_basis_vector_1'> +2.2911928e-04 </wgt>
<wgt id='morphing_basis_vector_2'> +1.3221383e-04 </wgt>
<wgt id='morphing_basis_vector_3'> +1.7600994e-04 </wgt>
<wgt id='morphing_basis_vector_4'> +7.1034681e-05 </wgt>
<wgt id='morphing_basis_vector_5'> +1.0699781e-04 </wgt>
</rwgt>
</event>
<event>
 4      1 +1.0153100e-05 6.06086200e+02 7.81860800e-03 9.18947800e-02
        2 -1    0    0  501    0 +0.0000000000e+00 +0.0000000000e+00 +8.5312687221e+01 8.5312687221e+01 0.0000000000e+00 0.0000e+00 -1.0000e+00
       -2 -1    0    0    0  501 -0.0000000000e+00 -0.0000000000e+00 -1.0764532953e+03 1.0764532953e+03 0.0000000000e+00 0.0000e+00 1.0000e+00
      -13  1    1    2    0    0 -2.6305173461e+02 -3.8967591042e+01 -7.7414116312e+02 8.1854091448e+02 0.0000000000e+00 0.0000e+00 1.0000e+00
       13  1    1    2    0    0 +2.6305173461e+02 +3.8967591042e+01 -2.1699944500e+02 3.4322506809e+02 0.0000000000e+00 0.0000e+00 -1.0000e+00
<mgrwt>
<rscale>  0 0.60608621E+03</rscale>
<asrwt>0</asrwt>
<pdfrwt beam="1">  1        2 0.13125029E-01 0.60608621E+03</pdfrwt>
<pdfrwt beam="2">  1       -2 0.16560820E+00 0.60608621E+03</pdfrwt>
<totfact> 0.13086000E+02</totfact>
</mgrwt>
<rwgt>
<wgt id='morphing_basis_vector_1'> +2.7764699e-04 </wgt>
<wgt id='morphing_basis_vector_2'> +1.6121539e-04 </wgt>
<wgt id='morphing_basis_vector_3'> +2.2036342e-04 </wgt>
<wgt id='morphing_basis_vector_4'> +9.5531903e-05 </wgt>
<wgt id='morphing_basis_vector_5'> +1.4596319e-04 </wgt>
</rwgt>
</event>
<event>
 4      1 +1.0153100e-05 5.45788200e+02 7.81860800e-03 9.30277400e-02
        2 -1    0    0  501    0 +0.0000000000e+00 +0.0000000000e+00 +1.0579371156e+02 1.0579371156e+02 0.0000000000e+00 0.0000e+00 -1.0000e+00
       -2 -1    0    0    0  501 -0.0000000000e+00 -0.0000000000e+00 -7.0392832341e+02 7.0392832341e+02 0.0000000000e+00 0.0000e+00 1.0000e+00
      -13  1    1    2    0    0 +1.3087249708e+02 +9.1309772615e+01 -6.2749283502e+02 6.4746609415e+02 0.0000000000e+00 0.0000e+00 1.0000e+00
       13  1    1    2    0    0 -1.3087249708e+02 -9.1309772615e+01 +2.9358223175e+01 1.6225594083e+02 0.0000000000e+00 0.0000e+00 -1.0000e+00
<mgrwt>
<rscale>  0 0.54578820E+03</rscale>
<asrwt>0</asrwt>
<pdfrwt beam="1">  1        2 0.16275955E-01 0.54578820E+03</pdfrwt>
<pdfrwt beam="2">  1       -2 0.10829667E+00 0.54578820E+03</pdfrwt>
<totfact> 0.31777727E+02</totfact>
</mgrwt>
<rwgt>
<wgt id='morphing_basis_vector_1'> +1.9771396e-04 </wgt>
<wgt id='morphing_basis_vector_2'> +1.1036986e-04 </wgt>
<wgt id='morphing_basis_vector_3'> +1.4925806e-04 </wgt>
<wgt id='morphing_basis_vector_4'> +5.7436332e-05 </wgt>
<wgt id='morphing_basis_vector_5'> +8.4089746e-05 </wgt>
</rwgt>
</event>
<event>
 4      1 +1.0153100e-05 5.47550600e+02 7.81860800e-03 9.29924600e-02
        2 -1    0    0  501    0 +0.0000000000e+00 +0.0000000000e+00 +6.0439120930e+02 6.0439120930e+02 0.0000000000e+00 0.0000e+00 -1.0000e+00
       -2 -1    0    0    0  501 -0.0000000000e+00 -0.0000000000e+00 -1.2401392893e+02 1.2401392893e+02 0.0000000000e+00 0.0000e+00 1.0000e+00
      -13  1    1    2    0    0 -2.2676178268e+02 -1.2766395578e+01 +3.6826945479e+01 2.3008718098e+02 0.0000000000e+00 0.0000e+00 1.0000e+00
       13  1    1    2    0    0 +2.2676178268e+02 +1.2766395578e+01 +4.4355033489e+02 4.9831795725e+02 0.0000000000e+00 0.0000e+00 -1.0000e+00
<mgrwt>
<rscale>  0 0.54755065E+03</rscale>
<asrwt>0</asrwt>
<pdfrwt beam="1">  1        2 0.92983261E-01 0.54755065E+03</pdfrwt>
<pdfrwt beam="2">  1       -2 0.19079066E-01 0.54755065E+03</pdfrwt>
<totfact> 0.12785824E+03</totfact>
</mgrwt>
<rwgt>
<wgt id='morphing_basis_vector_1'> +2.0023012e-04 </wgt>
<wgt id='morphing_basis_vector_2'> +1.1313861e-04 </wgt>
<wgt id='morphing_basis_vector_3'> +1.5093401e-04 </wgt>
<wgt id='morphing_basis_vector_4'> +5.8076368e-05 </wgt>
<wgt id='morphing_basis_vector_5'> +8.5589623e-05 </wgt>
</rwgt>
</event>
<event>
 4      1 +1.0153100e-05 5.37250100e+02 7.81860800e-03 9.32007300e-02
        2 -1    0    0  501    0 +0.0000000000e+00 +0.0000000000e+00 +5.2361799786e+01 5.2361799786e+01 0.0000000000e+00 0.0000e+00 -1.0000e+00
       -2 -1    0    0    0  501 -0.0000000000e+00 -0.0000000000e+00 -1.3780926373e+03 1.3780926373e+03 0.0000000000e+00 0.0000e+00 1.0000e+00
      -13  1    1    2    0    0 -2.4852564773e+02 +1.2529932390e+01 -9.3226237044e+02 9.6490161371e+02 0.0000000000e+00 0.0000e+00 1.0000e+00
       13  1    1    2    0    0 +2.4852564773e+02 -1.2529932390e+01 -3.9346846711e+02 4.6555282342e+02 0.0000000000e+00 0.0000e+00 -1.0000e+00
<mgrwt>
<rscale>  0 0.53725007E+03</rscale>
<asrwt>0</asrwt>
<pdfrwt beam="1">  1        2 0.80556625E-02 0.53725007E+03</pdfrwt>
<pdfrwt beam="2">  1       -2 0.21201423E+00 0.53725007E+03</pdfrwt>
<totfact> 0.11097945E+02</totfact>
</mgrwt>
<rwgt>
<wgt id='morphing_basis_vector_1'> +1.8953862e-04 </wgt>
<wgt id='morphing_basis_vector_2'> +1.0885198e-04 </wgt>
<wgt id='morphing_basis_vector_3'> +1.4058540e-04 </wgt>
<wgt id='morphing_basis_vector_4'> +5.2319298e-05 </wgt>
<wgt id='morphing_basis_vector_5'> +7.7166786e-05 </wgt>
</rwgt>
</event>
<event>
 4      1 +1.0153100e-05 5.62432000e+02 7.81860800e-03 9.27000400e-02
        2 -1    0    0  501    0 +0.0000000000e+00 +0.0000000000e+00 +1.5881771711e+03 1.5881771711e+03 0.0000000000e+00 0.0000e+00 -1.0000e+00
       -2 -1    0    0    0  501 -0.0000000000e+00 -0.0000000000e+00 -4.9794462116e+01 4.9794462116e+01 0.0000000000e+00 0.0000e+00 1.0000e+00
      -13  1    1    2    0    0 +2.4545902179e+02 -1.3618197221e+02 +8.1850884897e+02 8.6530479992e+02 0.0000000000e+00 0.0000e+00 1.0000e+00
       13  1    1    2    0    0 -2.4545902179e+02 +1.3618197221e+02 +7.1987386001e+02 7.7266683328e+02 0.0000000000e+00 0.0000e+00 -1.0000e+00
<mgrwt>
<rscale>  0 0.56243196E+03</rscale>
<asrwt>0</asrwt>
<pdfrwt beam="1">  1        2 0.24433491E+00 0.56243196E+03</pdfrwt>
<pdfrwt beam="2">  1       -2 0.76606877E-02 0.56243196E+03</pdfrwt>
<totfact> 0.13359100E+03</totfact>
</mgrwt>
<rwgt>
<wgt id='morphing_basis_vector_1'> +2.2635027e-04 </wgt>
<wgt id='morphing_basis_vector_2'> +1.4999196e-04 </wgt>
<wgt id='morphing_basis_vector_3'> +1.6553303e-04 </wgt>
<wgt id='morphing_basis_vector_4'> +6.0976072e-05 </wgt>
<wgt id='morphing_basis_vector_5'> +9.9031336e-05 </wgt>
</rwgt>
</event>
<event>
 4      1 +1.0153100e-05 5.55699700e+02 7.81860800e-03 9.28311200e-02
        2 -1    0    0  501    0 +0.0000000000e+00 +0.0000000000e+00 +7.8894287194e+02 7.8894287194e+02 0.0000000000e+00 0.0000e+00 1.0000e+00
       -2 -1    0    0    0  501 -0.0000000000e+00 -0.0000000000e+00 -9.7853131997e+01 9.7853131997e+01 0.0000000000e+00 0.0000e+00 -1.0000e+00
      -13  1    1    2    0    0 +1.5079490553e+02 +8.5800016314e+01 -7.8747128859e-01 1.7349745371e+02 0.0000000000e+00 0.0000e+00 -1.0000e+00
       13  1    1    2    0    0 -1.5079490553e+02 -8.5800016314e+01 +6.9187721123e+02 7.1329855023e+02 0.0000000000e+00 0.0000e+00 1.0000e+00
<mgrwt>
<rscale>  0 0.55569967E+03</rscale>
<asrwt>0</asrwt>
<pdfrwt beam="1">  1        2 0.12137582E+00 0.55569967E+03</pdfrwt>
<pdfrwt beam="2">  1       -2 0.15054328E-01 0.55569967E+03</pdfrwt>
<totfact> 0.13625224E+03</totfact>
</mgrwt>
<rwgt>
<wgt id='morphing_basis_vector_1'> +2.0925590e-04 </wgt>
<wgt id='morphing_basis_vector_2'> +1.1730355e-04 </wgt>
<wgt id='morphing_basis_vector_3'> +1.5945389e-04 </wgt>
<wgt id='morphing_basis_vector_4'> +6.2844631e-05 </wgt>
<wgt id='morphing_basis_vector_5'> +9.2692838e-05 </wgt>
</rwgt>
</event>
<event>
 4      1 +1.0153100e-05 5.63024700e+02 7.81860800e-03 9.26885900e-02
        2 -1    0    0  501    0 +0.0000000000e+00 +0.0000000000e+00 +1.5636042313e+03 1.5636042313e+03 0.0000000000e+00 0.0000e+00 1.0000e+00
       -2 -1    0    0    0  501 -0.0000000000e+00 -0.0000000000e+00 -5.0683679002e+01 5.0683679002e+01 0.0000000000e+00 0.0000e+00 -1.0000e+00
      -13  1    1    2    0    0 +2.4241969068e+02 +9.8133552773e+01 +1.0551379020e+03 1.0870664620e+03 0.0000000000e+00 0.0000e+00 -1.0000e+00
       13  1    1    2    0    0 -2.4241969068e+02 -9.8133552773e+01 +4.5778265026e+02 5.2722144825e+02 0.0000000000e+00 0.0000e+00 1.0000e+00
<mgrwt>
<rscale>  0 0.56302474E+03</rscale>
<asrwt>0</asrwt>
<pdfrwt beam="1">  1        2 0.24055446E+00 0.56302474E+03</pdfrwt>
<pdfrwt beam="2">  1       -2 0.77974903E-02 0.56302474E+03</pdfrwt>
<totfact> 0.13405580E+03</totfact>
</mgrwt>
<rwgt>
<wgt id='morphing_basis_vector_1'> +2.4375407e-04 </wgt>
<wgt id='morphing_basis_vector_2'> +2.0220331e-04 </wgt>
<wgt id='morphing_basis_vector_3'> +1.6407939e-04 </wgt>
<wgt id='morphing_basis_vector_4'> +5.0556644e-05 </wgt>
<wgt id='morphing_basis_vector_5'> +9.9886373e-05 </wgt>
</rwgt>
</event>
<event>
 4      1 +1.0153100e-05 5.27022500e+02 7.81860800e-03 9.34125100e-02
        2 -1    0    0  501    0 +0.0000000000e+00 +0.0000000000e+00 +2.7991046706e+02 2.7991046706e+02 0.0000000000e+00 0.0000e+00 -1.0000e+00
       -2 -1    0    0    0  501 -0.0000000000e+00 -0.0000000000e+00 -2.4807280640e+02 2.4807280640e+02 0.0000000000e+00 0.0000e+00 1.0000e+00
      -13  1    1    2    0    0 -1.7682692082e+02 -1.8827948073e+02 -3.6341894002e+01 2.6084028840e+02 0.0000000000e+00 0.0000e+00 1.0000e+00
       13  1    1    2    0    0 +1.7682692082e+02 +1.8827948073e+02 +6.8179554661e+01 2.6714298506e+02 0.0000000000e+00 0.0000e+00 -1.0000e+00
<mgrwt>
<rscale>  0 0.52702249E+03</rscale>
<asrwt>0</asrwt>
<pdfrwt beam="1">  1        2 0.43063149E-01 0.52702249E+03</pdfrwt>
<pdfrwt beam="2">  1       -2 0.38165047E-01 0.52702249E+03</pdfrwt>
<totfact> 0.91897155E+02</totfact>
</mgrwt>
<rwgt>
<wgt id='morphing_basis_vector_1'> +1.8006627e-04 </wgt>
<wgt id='morphing_basis_vector_2'> +1.0680878e-04 </wgt>
<wgt id='morphing_basis_vector_3'> +1.3061827e-04 </wgt>
<wgt id='morphing_basis_vector_4'> +4.6726590e-05 </wgt>
<wgt id='morphing_basis_vector_5'> +6.9408433e-05 </wgt>
</rwgt>
</event>
<event>
 4      1 +1.0153100e-05 5.35939700e+02 7.81860800e-03 9.32275800e-02
        2 -1    0    0  501    0 +0.0000000000e+00 +0.0000000000e+00 +2.0630863620e+03 2.0630863620e+03 0.0000000000e+00 0.0000e+00 1.0000e+00
       -2 -1    0    0    0  501 -0.0000000000e+00 -0.0000000000e+00 -3.4806031186e+01 3.4806031186e+01 0.0000000000e+00 0.0000e+00 -1.0000e+00
      -13  1    1    2    0    0 +6.1832806105e+01 -2.6061113812e+02 +1.0460341581e+03 1.0797818859e+03 0.0000000000e+00 0.0000e+00 -1.0000e+00
       13  1    1    2    0    0 -6.1832806105e+01 +2.6061113812e+02 +9.8224617270e+02 1.0181105073e+03 0.0000000000e+00 0.0000e+00 1.0000e+00
<mgrwt>
<rscale>  0 0.53593973E+03</rscale>
<asrwt>0</asrwt>
<pdfrwt beam="1">  1        2 0.31739781E+00 0.53593973E+03</pdfrwt>
<pdfrwt beam="2">  1       -2 0.53547757E-02 0.53593973E+03</pdfrwt>
<totfact> 0.12760138E+03</totfact>
</mgrwt>
<rwgt>
<wgt id='morphing_basis_vector_1'> +1.9369039e-04 </wgt>
<wgt id='morphing_basis_vector_2'> +1.2532957e-04 </wgt>
<wgt id='morphing_basis_vector_3'> +1.3796582e-04 </wgt>
<wgt id='morphing_basis_vector_4'> +4.8639926e-05 </wgt>
<wgt id='morphing_basis_vector_5'> +7.6289580e-05 </wgt>
</rwgt>
</event>
<event>
 4      1 +1.0153100e-05 5.28313900e+02 7.81860800e-03 9.33854900e-02
        2 -1    0    0  501    0 +0.0000000000e+00 +0.0000000000e+00 +1.1546677120e+03 1.1546677120e+03 0.0000000000e+00 0.0000e+00 -1.0000e+00
       -2 -1    0    0    0  501 -0.0000000000e+00 -0.0000000000e+00 -6.0432016896e+01 6.0432016896e+01 0.0000000000e+00 0.0000e+00 1.0000e+00
      -13  1    1    2    0    0 -1.7174658090e+02 +2.0039724426e+02 +5.2161473480e+02 5.8458350569e+02 0.0000000000e+00 0.0000e+00 1.0000e+00
       13  1    1    2    0    0 +1.7174658090e+02 -2.0039724426e+02 +5.7262096034e+02 6.3051622325e+02 0.0000000000e+00 0.0000e+00 -1.0000e+00
<mgrwt>
<rscale>  0 0.52831392E+03</rscale>
<asrwt>0</asrwt>
<pdfrwt beam="1">  1        2 0.17764117E+00 0.52831392E+03</pdfrwt>
<pdfrwt beam="2">  1       -2 0.92972342E-02 0.52831392E+03</pdfrwt>
<totfact> 0.17262387E+03</totfact>
</mgrwt>
<rwgt>
<wgt id='morphing_basis_vector_1'> +1.8372735e-04 </wgt>
<wgt id='morphing_basis_vector_2'> +1.1479559e-04 </wgt>
<wgt id='morphing_basis_vector_3'> +1.3115845e-04 </wgt>
<wgt id='morphing_basis_vector_4'> +4.6123176e-05 </wgt>
<wgt id='morphing_basis_vector_5'> +7.0432141e-05 </wgt>
</rwgt>
</event>
<event>
 4      1 +1.0153100e-05 5.22890700e+02 7.81860800e-03 9.34995300e-02
        2 -1    0    0  501    0 +0.0000000000e+00 +0.0000000000e+00 +4.5755501389e+02 4.5755501389e+02 0.0000000000e+00 0.0000e+00 -1.0000e+00
       -2 -1    0    0    0  501 -0.0000000000e+00 -0.0000000000e+00 -1.4938896169e+02 1.4938896169e+02 0.0000000000e+00 0.0000e+00 1.0000e+00
      -13  1    1    2    0    0 +6.9155042140e+01 +4.1048552638e+01 -1.3467551016e+02 1.5685948031e+02 0.0000000000e+00 0.0000e+00 1.0000e+00
       13  1    1    2    0    0 -6.9155042140e+01 -4.1048552638e+01 +4.4284156236e+02 4.5008449527e+02 0.0000000000e+00 0.0000e+00 -1.0000e+00
<mgrwt>
<rscale>  0 0.52289069E+03</rscale>
<asrwt>0</asrwt>
<pdfrwt beam="1">  1        2 0.70393079E-01 0.52289069E+03</pdfrwt>
<pdfrwt beam="2">  1       -2 0.22982917E-01 0.52289069E+03</pdfrwt>
<totfact> 0.12887456E+03</totfact>
</mgrwt>
<rwgt>
<wgt id='morphing_basis_vector_1'> +1.7303553e-04 </wgt>
<wgt id='morphing_basis_vector_2'> +9.5663175e-05 </wgt>
<wgt id='morphing_basis_vector_3'> +1.2772484e-04 </wgt>
<wgt id='morphing_basis_vector_4'> +4.6253644e-05 </wgt>
<wgt id='morphing_basis_vector_5'> +6.6327396e-05 </wgt>
</rwgt>
</event>
<event>
 4      1 +1.0153100e-05 5.29718600e+02 7.81860800e-03 9.33561900e-02
        2 -1    0    0  501    0 +0.0000000000e+00 +0.0000000000e+00 +4.1758215524e+02 4.1758215524e+02 0.0000000000e+00 0.0000e+00 1.0000e+00
       -2 -1    0    0    0  501 -0.0000000000e+00 -0.0000000000e+00 -1.6799195438e+02 1.6799195438e+02 0.0000000000e+00 0.0000e+00 -1.0000e+00
      -13  1    1    2    0    0 +4.9160205068e+01 -1.8741603801e+02 +3.2441555500e+02 3.7787160438e+02 0.0000000000e+00 0.0000e+00 1.0000e+00
       13  1    1    2    0    0 -4.9160205068e+01 +1.8741603801e+02 -7.4825354141e+01 2.0770250525e+02 0.0000000000e+00 0.0000e+00 -1.0000e+00
<mgrwt>
<rscale>  0 0.52971858E+03</rscale>
<asrwt>0</asrwt>
<pdfrwt beam="1">  1        2 0.64243408E-01 0.52971858E+03</pdfrwt>
<pdfrwt beam="2">  1       -2 0.25844916E-01 0.52971858E+03</pdfrwt>
<totfact> 0.11701333E+03</totfact>
</mgrwt>
<rwgt>
<wgt id='morphing_basis_vector_1'> +2.2802737e-04 </wgt>
<wgt id='morphing_basis_vector_2'> +2.4869509e-04 </wgt>
<wgt id='morphing_basis_vector_3'> +1.2079742e-04 </wgt>
<wgt id='morphing_basis_vector_4'> +2.4478392e-05 </wgt>
<wgt id='morphing_basis_vector_5'> +7.2756547e-05 </wgt>
</rwgt>
</event>
<event>
 4      1 +1.0153100e-05 6.01394500e+02 7.81860800e-03 9.19778300e-02
        2 -1    0    0  501    0 +0.0000000000e+00 +0.0000000000e+00 +2.7237815252e+03 2.7237815252e+03 0.0000000000e+00 0.0000e+00 -1.0000e+00
       -2 -1    0    0    0  501 -0.0000000000e+00 -0.0000000000e+00 -3.3196073093e+01 3.3196073093e+01 0.0000000000e+00 0.0000e+00 1.0000e+00
      -13  1    1    2    0    0 -2.8609826061e+02 +7.7318932800e+01 +1.1120591890e+03 1.1508718747e+03 0.0000000000e+00 0.0000e+00 1.0000e+00
       13  1    1    2    0    0 +2.8609826061e+02 -7.7318932800e+01 +1.5785262631e+03 1.6061057236e+03 0.0000000000e+00 0.0000e+00 -1.0000e+00
<mgrwt>
<rscale>  0 0.60139455E+03</rscale>
<asrwt>0</asrwt>
<pdfrwt beam="1">  1        2 0.41904313E+00 0.60139455E+03</pdfrwt>
<pdfrwt beam="2">  1       -2 0.51070903E-02 0.60139455E+03</pdfrwt>
<totfact> 0.57055271E+02</totfact>
</mgrwt>
<rwgt>
<wgt id='morphing_basis_vector_1'> +2.7432067e-04 </wgt>
<wgt id='morphing_basis_vector_2'> +1.6816338e-04 </wgt>
<wgt id='morphing_basis_vector_3'> +2.1408856e-04 </wgt>
<wgt id='morphing_basis_vector_4'> +8.9185742e-05 </wgt>
<wgt id='morphing_basis_vector_5'> +1.4030005e-04 </wgt>
</rwgt>
</event>
<event>
 4      1 +1.0153100e-05 6.17756700e+02 7.81860800e-03 9.16915900e-02
        2 -1    0    0  501    0 +0.0000000000e+00 +0.0000000000e+00 +1.3046897275e+03 1.3046897275e+03 0.0000000000e+00 0.0000e+00 1.0000e+00
       -2 -1    0    0    0  501 -0.0000000000e+00 -0.0000000000e+00 -7.3125310650e+01 7.3125310650e+01 0.0000000000e+00 0.0000e+00 -1.0000e+00
      -13  1    1    2    0    0 +2.1721391261e+02 +1.6159376596e+02 +2.8413092244e+02 3.9245994715e+02 0.0000000000e+00 0.0000e+00 -1.0000e+00
       13  1    1    2    0    0 -2.1721391261e+02 -1.6159376596e+02 +9.4743349438e+02 9.8535509098e+02 0.0000000000e+00 0.0000e+00 1.0000e+00
<mgrwt>
<rscale>  0 0.61775672E+03</rscale>
<asrwt>0</asrwt>
<pdfrwt beam="1">  1        2 0.20072148E+00 0.61775672E+03</pdfrwt>
<pdfrwt beam="2">  1       -2 0.11250049E-01 0.61775672E+03</pdfrwt>
<totfact> 0.10488953E+03</totfact>
</mgrwt>
<rwgt>
<wgt id='morphing_basis_vector_1'> +2.9554563e-04 </wgt>
<wgt id='morphing_basis_vector_2'> +1.7224910e-04 </wgt>
<wgt id='morphing_basis_vector_3'> +2.3684190e-04 </wgt>
<wgt id='morphing_basis_vector_4'> +1.0477385e-04 </wgt>
<wgt id='morphing_basis_vector_5'> +1.6078236e-04 </wgt>
</rwgt>
</event>
<event>
 4      1 +1.0153100e-05 5.36772300e+02 7.81860800e-03 9.32105100e-02
        2 -1    0    0  501    0 +0.0000000000e+00 +0.0000000000e+00 +4.7952272928e+02 4.7952272928e+02 0.0000000000e+00 0.0000e+00 1.0000e+00
       -2 -1    0    0    0  501 -0.0000000000e+00 -0.0000000000e+00 -1.5021422019e+02 1.5021422019e+02 0.0000000000e+00 0.0000e+00 -1.0000e+00
      -13  1    1    2    0    0 -1.0901823697e+02 +2.2918756851e+02 +2.6705996633e+02 3.6841952061e+02 0.0000000000e+00 0.0000e+00 -1.0000e+00
       13  1    1    2    0    0 +1.0901823697e+02 -2.2918756851e+02 +6.2248542751e+01 2.6131742886e+02 0.0000000000e+00 0.0000e+00 1.0000e+00
<mgrwt>
<rscale>  0 0.53677233E+03</rscale>
<asrwt>0</asrwt>
<pdfrwt beam="1">  1        2 0.73772727E-01 0.53677233E+03</pdfrwt>
<pdfrwt beam="2">  1       -2 0.23109880E-01 0.53677233E+03</pdfrwt>
<totfact> 0.12112303E+03</totfact>
</mgrwt>
<rwgt>
<wgt id='morphing_basis_vector_1'> +2.0674856e-04 </wgt>
<wgt id='morphing_basis_vector_2'> +1.6361746e-04 </wgt>
<wgt id='morphing_basis_vector_3'> +1.3585606e-04 </wgt>
<wgt id='morphing_basis_vector_4'> +4.2376606e-05 </wgt>
<wgt id='morphing_basis_vector_5'> +7.7274549e-05 </wgt>
</rwgt>
</event>
<event>
 4      1 +1.0153100e-05 5.80463700e+02 7.81860800e-03 9.23583400e-02
        2 -1    0    0  501    0 +0.0000000000e+00 +0.0000000000e+00 +8.3292866832e+02 8.3292866832e+02 0.0000000000e+00 0.0000e+00 1.0000e+00
       -2 -1    0    0    0  501 -0.0000000000e+00 -0.0000000000e+00 -1.0113055550e+02 1.0113055550e+02 0.0000000000e+00 0.0000e+00 -1.0000e+00
      -13  1    1    2    0    0 +1.2228681332e+01 -2.5823836115e+02 +1.5364875320e+02 3.0073997269e+02 0.0000000000e+00 0.0000e+00 -1.0000e+00
       13  1    1    2    0    0 -1.2228681332e+01 +2.5823836115e+02 +5.7814935962e+02 6.3331925113e+02 0.0000000000e+00 0.0000e+00 1.0000e+00
<mgrwt>
<rscale>  0 0.58046374E+03</rscale>
<asrwt>0</asrwt>
<pdfrwt beam="1">  1        2 0.12814287E+00 0.58046374E+03</pdfrwt>
<pdfrwt beam="2">  1       -2 0.15558548E-01 0.58046374E+03</pdfrwt>
<totfact> 0.12051936E+03</totfact>
</mgrwt>
<rwgt>
<wgt id='morphing_basis_vector_1'> +2.4153355e-04 </wgt>
<wgt id='morphing_basis_vector_2'> +1.3939649e-04 </wgt>
<wgt id='morphing_basis_vector_3'> +1.8734849e-04 </wgt>
<wgt id='morphing_basis_vector_4'> +7.7254255e-05 </wgt>
<wgt id='morphing_basis_vector_5'> +1.1680588e-04 </wgt>
</rwgt>
</event>
<event>
 4      1 +1.0153100e-05 5.80294800e+02 7.81860800e-03 9.23614800e-02
        2 -1    0    0  501    0 +0.0000000000e+00 +0.0000000000e+00 +2.0496817170e+02 2.0496817170e+02 0.0000000000e+00 0.0000e+00 -1.0000e+00
       -2 -1    0    0    0  501 -0.0000000000e+00 -0.0000000000e+00 -4.1072474182e+02 4.1072474182e+02 0.0000000000e+00 0.0000e+00 1.0000e+00
      -13  1    1    2    0    0 -1.1152711909e+02 -1.3378097738e+02 -3.4908946352e+02 3.9012703283e+02 0.0000000000e+00 0.0000e+00 1.0000e+00
       13  1    1    2    0    0 +1.1152711909e+02 +1.3378097738e+02 +1.4333289341e+02 2.2556588069e+02 0.0000000000e+00 0.0000e+00 -1.0000e+00
<mgrwt>
<rscale>  0 0.58029475E+03</rscale>
<asrwt>0</asrwt>
<pdfrwt beam="1">  1        2 0.31533565E-01 0.58029475E+03</pdfrwt>
<pdfrwt beam="2">  1       -2 0.63188421E-01 0.58029475E+03</pdfrwt>
<totfact> 0.49132062E+02</totfact>
</mgrwt>
<rwgt>
<wgt id='morphing_basis_vector_1'> +2.4017403e-04 </wgt>
<wgt id='morphing_basis_vector_2'> +1.3574007e-04 </wgt>
<wgt id='morphing_basis_vector_3'> +1.8720929e-04 </wgt>
<wgt id='morphing_basis_vector_4'> +7.7942989e-05 </wgt>
<wgt id='morphing_basis_vector_5'> +1.1661483e-04 </wgt>
</rwgt>
</event>
<event>
 4      1 +1.0153100e-05 5.73190700e+02 7.81860800e-03 9.24945500e-02
        2 -1    0    0  501    0 +0.0000000000e+00 +0.0000000000e+00 +2.1065329707e+02 2.1065329707e+02 0.0000000000e+00 0.0000e+00 -1.0000e+00
       -2 -1    0    0    0  501 -0.0000000000e+00 -0.0000000000e+00 -3.8991511066e+02 3.8991511066e+02 0.0000000000e+00 0.0000e+00 1.0000e+00
      -13  1    1    2    0    0 -2.1965823768e+00 +7.4279881107e+01 -3.7964495158e+02 3.8684960252e+02 0.0000000000e+00 0.0000e+00 1.0000e+00
       13  1    1    2    0    0 +2.1965823768e+00 -7.4279881107e+01 +2.0038313799e+02 2.1371880521e+02 0.0000000000e+00 0.0000e+00 -1.0000e+00
<mgrwt>
<rscale>  0 0.57319073E+03</rscale>
<asrwt>0</asrwt>
<pdfrwt beam="1">  1        2 0.32408199E-01 0.57319073E+03</pdfrwt>
<pdfrwt beam="2">  1       -2 0.59986940E-01 0.57319073E+03</pdfrwt>
<totfact> 0.52981437E+02</totfact>
</mgrwt>
<rwgt>
<wgt id='morphing_basis_vector_1'> +2.3077509e-04 </wgt>
<wgt id='morphing_basis_vector_2'> +1.2984041e-04 </wgt>
<wgt id='morphing_basis_vector_3'> +1.7883380e-04 </wgt>
<wgt id='morphing_basis_vector_4'> +7.3411326e-05 </wgt>
<wgt id='morphing_basis_vector_5'> +1.0931300e-04 </wgt>
</rwgt>
</event>
<event>
 4      1 +1.0153100e-05 5.46875400e+02 7.81860800e-03 9.30059600e-02
        2 -1    0    0  501    0 +0.0000000000e+00 +0.0000000000e+00 +1.6160739800e+03 1.6160739800e+03 0.0000000000e+00 0.0000e+00 -1.0000e+00
       -2 -1    0    0    0  501 -0.0000000000e+00 -0.0000000000e+00 -4.6265311697e+01 4.6265311697e+01 0.0000000000e+00 0.0000e+00 1.0000e+00
      -13  1    1    2    0    0 -2.0092151625e+02 -1.8205943867e+02 +6.7730260823e+02 7.2955734388e+02 0.0000000000e+00 0.0000e+00 1.0000e+00
       13  1    1    2    0    0 +2.0092151625e+02 +1.8205943867e+02 +8.9250606003e+02 9.3278194778e+02 0.0000000000e+00 0.0000e+00 -1.0000e+00
<mgrwt>
<rscale>  0 0.54687537E+03</rscale>
<asrwt>0</asrwt>
<pdfrwt beam="1">  1        2 0.24862672E+00 0.54687537E+03</pdfrwt>
<pdfrwt beam="2">  1       -2 0.71177415E-02 0.54687537E+03</pdfrwt>
<totfact> 0.14455422E+03</totfact>
</mgrwt>
<rwgt>
<wgt id='morphing_basis_vector_1'> +2.0299107e-04 </wgt>
<wgt id='morphing_basis_vector_2'> +1.2365211e-04 </wgt>
<wgt id='morphing_basis_vector_3'> +1.4955725e-04 </wgt>
<wgt id='morphing_basis_vector_4'> +5.5647665e-05 </wgt>
<wgt id='morphing_basis_vector_5'> +8.5101423e-05 </wgt>
</rwgt>
</event>
<event>
 4      1 +1.0153100e-05 6.11919300e+02 7.81860800e-03 9.17926300e-02
        2 -1    0    0  501    0 +0.0000000000e+00 +0.0000000000e+00 +6.8948713112e+02 6.8948713112e+02 0.0000000000e+00 0.0000e+00 1.0000e+00
       -2 -1    0    0    0  501 -0.0000000000e+00 -0.0000000000e+00 -1.3576948499e+02 1.3576948499e+02 0.0000000000e+00 0.0000e+00 -1.0000e+00
      -13  1    1    2    0    0 -1.6706558144e+02 -1.4515191081e+02 -8.0558075518e+00 2.2146079055e+02 0.0000000000e+00 0.0000e+00 -1.0000e+00
       13  1    1    2    0    0 +1.6706558144e+02 +1.4515191081e+02 +5.6177345368e+02 6.0379582557e+02 0.0000000000e+00 0.0000e+00 1.0000e+00
<mgrwt>
<rscale>  0 0.61191932E+03</rscale>
<asrwt>0</asrwt>
<pdfrwt beam="1">  1        2 0.10607494E+00 0.61191932E+03</pdfrwt>
<pdfrwt beam="2">  1       -2 0.20887613E-01 0.61191932E+03</pdfrwt>
<totfact> 0.94007947E+02</totfact>
</mgrwt>
<rwgt>
<wgt id='morphing_basis_vector_1'> +2.8553255e-04 </wgt>
<wgt id='morphing_basis_vector_2'> +1.6371826e-04 </wgt>
<wgt id='morphing_basis_vector_3'> +2.2842240e-04 </wgt>
<wgt id='morphing_basis_vector_4'> +1.0083969e-04 </wgt>
<wgt id='morphing_basis_vector_5'> +1.5324436e-04 </wgt>
</rwgt>
</event>
<event>
 4      1 +1.0153100e-05 6.12066400e+02 7.81860800e-03 9.17900700e-02
        2 -1    0    0  501    0 +0.0000000000e+00 +0.0000000000e+00 +8.7109143435e+02 8.7109143435e+02 0.0000000000e+00 0.0000e+00 -1.0000e+00
       -2 -1    0    0    0  501 -0.0000000000e+00 -0.0000000000e+00 -1.0751605458e+02 1.0751605458e+02 0.0000000000e+00 0.0000e+00 1.0000e+00
      -13  1    1    2    0    0 -2.7310550531e+02 -1.1438749057e+01 +6.0182019100e+02 6.6098790027e+02 0.0000000000e+00 0.0000e+00 1.0000e+00
       13  1    1    2    0    0 +2.7310550531e+02 +1.1438749057e+01 +1.6175518877e+02 3.1761958866e+02 0.0000000000e+00 0.0000e+00 -1.0000e+00
<mgrwt>
<rscale>  0 0.61206638E+03</rscale>
<asrwt>0</asrwt>
<pdfrwt beam="1">  1        2 0.13401406E+00 0.61206638E+03</pdfrwt>
<pdfrwt beam="2">  1       -2 0.16540932E-01 0.61206638E+03</pdfrwt>
<totfact> 0.10287659E+03</totfact>
</mgrwt>
<rwgt>
<wgt id='morphing_basis_vector_1'> +3.2870791e-04 </wgt>
<wgt id='morphing_basis_vector_2'> +2.9695224e-04 </wgt>
<wgt id='morphing_basis_vector_3'> +2.3138556e-04 </wgt>
<wgt id='morphing_basis_vector_4'> +6.6221382e-05 </wgt>
<wgt id='morphing_basis_vector_5'> +1.5346659e-04 </wgt>
</rwgt>
</event>
<event>
 4      1 +1.0153100e-05 5.49293500e+02 7.81860800e-03 9.29577000e-02
        2 -1    0    0  501    0 +0.0000000000e+00 +0.0000000000e+00 +4.9520520655e+02 4.9520520655e+02 0.0000000000e+00 0.0000e+00 1.0000e+00
       -2 -1    0    0    0  501 -0.0000000000e+00 -0.0000000000e+00 -1.5232239932e+02 1.5232239932e+02 0.0000000000e+00 0.0000e+00 -1.0000e+00
      -13  1    1    2    0    0 +1.2722146416e+02 +2.3155445411e+02 +8.3004424328e+01 2.7693410881e+02 0.0000000000e+00 0.0000e+00 -1.0000e+00
       13  1    1    2    0    0 -1.2722146416e+02 -2.3155445411e+02 +2.5987838290e+02 3.7059349706e+02 0.0000000000e+00 0.0000e+00 1.0000e+00
<mgrwt>
<rscale>  0 0.54929353E+03</rscale>
<asrwt>0</asrwt>
<pdfrwt beam="1">  1        2 0.76185415E-01 0.54929353E+03</pdfrwt>
<pdfrwt beam="2">  1       -2 0.23434216E-01 0.54929353E+03</pdfrwt>
<totfact> 0.11407818E+03</totfact>
</mgrwt>
<rwgt>
<wgt id='morphing_basis_vector_1'> +2.0399765e-04 </wgt>
<wgt id='morphing_basis_vector_2'> +1.1980952e-04 </wgt>
<wgt id='morphing_basis_vector_3'> +1.5238105e-04 </wgt>
<wgt id='morphing_basis_vector_4'> +5.7962718e-05 </wgt>
<wgt id='morphing_basis_vector_5'> +8.7118730e-05 </wgt>
</rwgt>
</event>
<event>
 4      1 +1.0153100e-05 6.18753300e+02 7.81860800e-03 9.16744600e-02
        2 -1    0    0  501    0 +0.0000000000e+00 +0.0000000000e+00 +3.9944602269e+02 3.9944602269e+02 0.0000000000e+00 0.0000e+00 -1.0000e+00
       -2 -1    0    0    0  501 -0.0000000000e+00 -0.0000000000e+00 -2.3961661824e+02 2.3961661824e+02 0.0000000000e+00 0.0000e+00 1.0000e+00
      -13  1    1    2    0    0 +1.4444890838e+02 -7.6763340597e+01 -1.9129882109e+02 2.5170088705e+02 0.0000000000e+00 0.0000e+00 1.0000e+00
       13  1    1    2    0    0 -1.4444890838e+02 +7.6763340597e+01 +3.5112822555e+02 3.8736175388e+02 0.0000000000e+00 0.0000e+00 -1.0000e+00
<mgrwt>
<rscale>  0 0.61875328E+03</rscale>
<asrwt>0</asrwt>
<pdfrwt beam="1">  1        2 0.61453234E-01 0.61875328E+03</pdfrwt>
<pdfrwt beam="2">  1       -2 0.36864095E-01 0.61875328E+03</pdfrwt>
<totfact> 0.65660874E+02</totfact>
</mgrwt>
<rwgt>
<wgt id='morphing_basis_vector_1'> +2.9584030e-04 </wgt>
<wgt id='morphing_basis_vector_2'> +1.6926716e-04 </wgt>
<wgt id='morphing_basis_vector_3'> +2.3817996e-04 </wgt>
<wgt id='morphing_basis_vector_4'> +1.0665015e-04 </wgt>
<wgt id='morphing_basis_vector_5'> +1.6209630e-04 </wgt>
</rwgt>
</event>
<event>
 4      1 +1.0153100e-05 5.30470800e+02 7.81860800e-03 9.33405300e-02
        2 -1    0    0  501    0 +0.0000000000e+00 +0.0000000000e+00 +4.5308911758e+02 4.5308911758e+02 0.0000000000e+00 0.0000e+00 1.0000e+00
       -2 -1    0    0    0  501 -0.0000000000e+00 -0.0000000000e+00 -1.5526707280e+02 1.5526707280e+02 0.0000000000e+00 0.0000e+00 -1.0000e+00
      -13  1    1    2    0    0 -1.2974595523e+02 -1.2564545700e+01 +4.1381956656e+02 4.3386462678e+02 0.0000000000e+00 0.0000e+00 1.0000e+00
       13  1    1    2    0    0 +1.2974595523e+02 +1.2564545700e+01 -1.1599752178e+02 1.7449156360e+02 0.0000000000e+00 0.0000e+00 -1.0000e+00
<mgrwt>
<rscale>  0 0.53047081E+03</rscale>
<asrwt>0</asrwt>
<pdfrwt beam="1">  1        2 0.69706018E-01 0.53047081E+03</pdfrwt>
<pdfrwt beam="2">  1       -2 0.23887242E-01 0.53047081E+03</pdfrwt>
<totfact> 0.12209519E+03</totfact>
</mgrwt>
<rwgt>
<wgt id='morphing_basis_vector_1'> +2.4297923e-04 </wgt>
<wgt id='morphing_basis_vector_2'> +2.9314444e-04 </wgt>
<wgt id='morphing_basis_vector_3'> +1.1784010e-04 </wgt>
<wgt id='morphing_basis_vector_4'> +1.7287886e-05 </wgt>
<wgt id='morphing_basis_vector_5'> +7.3728514e-05 </wgt>
</rwgt>
</event>
<event>
 4      1 +1.0153100e-05 5.40669300e+02 7.81860800e-03 9.31310400e-02
        2 -1    0    0  501    0 +0.0000000000e+00 +0.0000000000e+00 +4.4582027136e+02 4.4582027136e+02 0.0000000000e+00 0.0000e+00 1.0000e+00
       -2 -1    0    0    0  501 -0.0000000000e+00 -0.0000000000e+00 -1.6392443494e+02 1.6392443494e+02 0.0000000000e+00 0.0000e+00 -1.0000e+00
      -13  1    1    2    0    0 -1.5356095578e+02 -4.6977827099e+01 -1.0430518095e+02 1.9148747779e+02 0.0000000000e+00 0.0000e+00 -1.0000e+00
       13  1    1    2    0    0 +1.5356095578e+02 +4.6977827099e+01 +3.8620101737e+02 4.1825722851e+02 0.0000000000e+00 0.0000e+00 1.0000e+00
<mgrwt>
<rscale>  0 0.54066935E+03</rscale>
<asrwt>0</asrwt>
<pdfrwt beam="1">  1        2 0.68587734E-01 0.54066935E+03</pdfrwt>
<pdfrwt beam="2">  1       -2 0.25219144E-01 0.54066935E+03</pdfrwt>
<totfact> 0.11338518E+03</totfact>
</mgrwt>
<rwgt>
<wgt id='morphing_basis_vector_1'> +1.9198253e-04 </wgt>
<wgt id='morphing_basis_vector_2'> +1.0699452e-04 </wgt>
<wgt id='morphing_basis_vector_3'> +1.4419896e-04 </wgt>
<wgt id='morphing_basis_vector_4'> +5.4768296e-05 </wgt>
<wgt id='morphing_basis_vector_5'> +7.9868736e-05 </wgt>
</rwgt>
</event>
<event>
 4      1 +1.0153100e-05 5.77163500e+02 7.81860800e-03 9.24198800e-02
        2 -1    0    0  501    0 +0.0000000000e+00 +0.0000000000e+00 +2.1231624969e+02 2.1231624969e+02 0.0000000000e+00 0.0000e+00 1.0000e+00
       -2 -1    0    0    0  501 -0.0000000000e+00 -0.0000000000e+00 -3.9224238097e+02 3.9224238097e+02 0.0000000000e+00 0.0000e+00 -1.0000e+00
      -13  1    1    2    0    0 +1.6995506490e+02 +9.5486035912e+01 +1.3292097455e+02 2.3594552892e+02 0.0000000000e+00 0.0000e+00 1.0000e+00
       13  1    1    2    0    0 -1.6995506490e+02 -9.5486035912e+01 -3.1284710584e+02 3.6861310174e+02 0.0000000000e+00 0.0000e+00 -1.0000e+00
<mgrwt>
<rscale>  0 0.57716352E+03</rscale>
<asrwt>0</asrwt>
<pdfrwt beam="1">  1        2 0.32664039E-01 0.57716352E+03</pdfrwt>
<pdfrwt beam="2">  1       -2 0.60344981E-01 0.57716352E+03</pdfrwt>
<totfact> 0.51869899E+02</totfact>
</mgrwt>
<rwgt>
<wgt id='morphing_basis_vector_1'> +3.0561088e-04 </wgt>
<wgt id='morphing_basis_vector_2'> +3.4917316e-04 </wgt>
<wgt id='morphing_basis_vector_3'> +1.7863351e-04 </wgt>
<wgt id='morphing_basis_vector_4'> +2.7584831e-05 </wgt>
<wgt id='morphing_basis_vector_5'> +1.1425953e-04 </wgt>
</rwgt>
</event>
<event>
 4      1 +1.0153100e-05 5.42327300e+02 7.81860800e-03 9.30974500e-02
        2 -1    0    0  501    0 +0.0000000000e+00 +0.0000000000e+00 +2.4824958820e+02 2.4824958820e+02 0.0000000000e+00 0.0000e+00 1.0000e+00
       -2 -1    0    0    0  501 -0.0000000000e+00 -0.0000000000e+00 -2.9619272295e+02 2.9619272295e+02 0.0000000000e+00 0.0000e+00 -1.0000e+00
      -13  1    1    2    0    0 -1.8568251022e+02 -1.8335961813e+02 -9.7954136421e+01 2.7873599876e+02 0.0000000000e+00 0.0000e+00 -1.0000e+00
       13  1    1    2    0    0 +1.8568251022e+02 +1.8335961813e+02 +5.0011001671e+01 2.6570631240e+02 0.0000000000e+00 0.0000e+00 1.0000e+00
<mgrwt>
<rscale>  0 0.54232729E+03</rscale>
<asrwt>0</asrwt>
<pdfrwt beam="1">  1        2 0.38192244E-01 0.54232729E+03</pdfrwt>
<pdfrwt beam="2">  1       -2 0.45568111E-01 0.54232729E+03</pdfrwt>
<totfact> 0.75565145E+02</totfact>
</mgrwt>
<rwgt>
<wgt id='morphing_basis_vector_1'> +1.9601264e-04 </wgt>
<wgt id='morphing_basis_vector_2'> +1.1487687e-04 </wgt>
<wgt id='morphing_basis_vector_3'> +1.4534881e-04 </wgt>
<wgt id='morphing_basis_vector_4'> +5.4377541e-05 </wgt>
<wgt id='morphing_basis_vector_5'> +8.1275172e-05 </wgt>
</rwgt>
</event>
<event>
 4      1 +1.0153100e-05 5.84771100e+02 7.81860800e-03 9.22786600e-02
        2 -1    0    0  501    0 +0.0000000000e+00 +0.0000000000e+00 +4.7663459909e+02 4.7663459909e+02 0.0000000000e+00 0.0000e+00 -1.0000e+00
       -2 -1    0    0    0  501 -0.0000000000e+00 -0.0000000000e+00 -1.7936026722e+02 1.7936026722e+02 0.0000000000e+00 0.0000e+00 1.0000e+00
      -13  1    1    2    0    0 -2.2652418516e+02 -6.1353076529e+01 -4.6993231367e+01 2.3934445942e+02 0.0000000000e+00 0.0000e+00 1.0000e+00
       13  1    1    2    0    0 +2.2652418516e+02 +6.1353076529e+01 +3.4426756324e+02 4.1665040689e+02 0.0000000000e+00 0.0000e+00 -1.0000e+00
<mgrwt>
<rscale>  0 0.58477110E+03</rscale>
<asrwt>0</asrwt>
<pdfrwt beam="1">  1        2 0.73328399E-01 0.58477110E+03</pdfrwt>
<pdfrwt beam="2">  1       -2 0.27593887E-01 0.58477110E+03</pdfrwt>
<totfact> 0.90063969E+02</totfact>
</mgrwt>
<rwgt>
<wgt id='morphing_basis_vector_1'> +2.4665633e-04 </wgt>
<wgt id='morphing_basis_vector_2'> +1.4081620e-04 </wgt>
<wgt id='morphing_basis_vector_3'> +1.9263285e-04 </wgt>
<wgt id='morphing_basis_vector_4'> +8.0609848e-05 </wgt>
<wgt id='morphing_basis_vector_5'> +1.2138875e-04 </wgt>
</rwgt>
</event>
<event>
 4      1 +1.0153100e-05 5.39418500e+02 7.81860800e-03 9.31564700e-02
        2 -1    0    0  501    0 +0.0000000000e+00 +0.0000000000e+00 +6.6468682492e+01 6.6468682492e+01 0.0000000000e+00 0.0000e+00 1.0000e+00
       -2 -1    0    0    0  501 -0.0000000000e+00 -0.0000000000e+00 -1.0943961108e+03 1.0943961108e+03 0.0000000000e+00 0.0000e+00 -1.0000e+00
      -13  1    1    2    0    0 -1.4023147261e+02 +9.7759609967e+01 -9.6292259905e+02 9.7797839394e+02 0.0000000000e+00 0.0000e+00 -1.0000e+00
       13  1    1    2    0    0 +1.4023147261e+02 -9.7759609967e+01 -6.5004829302e+01 1.8288639940e+02 0.0000000000e+00 0.0000e+00 1.0000e+00
<mgrwt>
<rscale>  0 0.53941846E+03</rscale>
<asrwt>0</asrwt>
<pdfrwt beam="1">  1        2 0.10225952E-01 0.53941846E+03</pdfrwt>
<pdfrwt beam="2">  1       -2 0.16836862E+00 0.53941846E+03</pdfrwt>
<totfact> 0.17124180E+02</totfact>
</mgrwt>
<rwgt>
<wgt id='morphing_basis_vector_1'> +1.9063338e-04 </wgt>
<wgt id='morphing_basis_vector_2'> +1.0627789e-04 </wgt>
<wgt id='morphing_basis_vector_3'> +1.4297704e-04 </wgt>
<wgt id='morphing_basis_vector_4'> +5.4113454e-05 </wgt>
<wgt id='morphing_basis_vector_5'> +7.8860510e-05 </wgt>
</rwgt>
</event>
<event>
 4      1 +1.0153100e-05 5.88517800e+02 7.81860800e-03 9.22099400e-02
        2 -1    0    0  501    0 +0.0000000000e+00 +0.0000000000e+00 +1.2089090340e+03 1.2089090340e+03 0.0000000000e+00 0.0000e+00 1.0000e+00
       -2 -1    0    0    0  501 -0.0000000000e+00 -0.0000000000e+00 -7.1625149124e+01 7.1625149124e+01 0.0000000000e+00 0.0000e+00 -1.0000e+00
      -13  1    1    2    0    0 -1.4100542744e+02 +1.3021200460e+02 +1.0539647830e+03 1.0712980260e+03 0.0000000000e+00 0.0000e+00 1.0000e+00
       13  1    1    2    0    0 +1.4100542744e+02 -1.3021200460e+02 +8.3319101875e+01 2.0923615712e+02 0.0000000000e+00 0.0000e+00 -1.0000e+00
<mgrwt>
<rscale>  0 0.58851776E+03</rscale>
<asrwt>0</asrwt>
<pdfrwt beam="1">  1        2 0.18598599E+00 0.58851776E+03</pdfrwt>
<pdfrwt beam="2">  1       -2 0.11019255E-01 0.58851776E+03</pdfrwt>
<totfact> 0.12293037E+03</totfact>
</mgrwt>
<rwgt>
<wgt id='morphing_basis_vector_1'> +3.2783216e-04 </wgt>
<wgt id='morphing_basis_vector_2'> +3.7982884e-04 </wgt>
<wgt id='morphing_basis_vector_3'> +1.9541418e-04 </wgt>
<wgt id='morphing_basis_vector_4'> +2.7455849e-05 </wgt>
<wgt id='morphing_basis_vector_5'> +1.2616498e-04 </wgt>
</rwgt>
</event>
<event>
 4      1 +1.0153100e-05 6.02377500e+02 7.81860800e-03 9.19603600e-02
        2 -1    0    0  501    0 +0.0000000000e+00 +0.0000000000e+00 +4.9224169402e+02 4.9224169402e+02 0.0000000000e+00 0.0000e+00 -1.0000e+00
       -2 -1    0    0    0  501 -0.0000000000e+00 -0.0000000000e+00 -1.8428887720e+02 1.8428887720e+02 0.0000000000e+00 0.0000e+00 1.0000e+00
      -13  1    1    2    0    0 -1.1337279584e+02 +2.6326589589e+01 -1.5801154436e+02 1.9625016766e+02 0.0000000000e+00 0.0000e+00 1.0000e+00
       13  1    1    2    0    0 +1.1337279584e+02 -2.6326589589e+01 +4.6596436118e+02 4.8028040356e+02 0.0000000000e+00 0.0000e+00 -1.0000e+00
<mgrwt>
<rscale>  0 0.60237752E+03</rscale>
<asrwt>0</asrwt>
<pdfrwt beam="1">  1        2 0.75729491E-01 0.60237752E+03</pdfrwt>
<pdfrwt beam="2">  1       -2 0.28352135E-01 0.60237752E+03</pdfrwt>
<totfact> 0.82820557E+02</totfact>
</mgrwt>
<rwgt>
<wgt id='morphing_basis_vector_1'> +2.7091395e-04 </wgt>
<wgt id='morphing_basis_vector_2'> +1.5401334e-04 </wgt>
<wgt id='morphing_basis_vector_3'> +2.1528578e-04 </wgt>
<wgt id='morphing_basis_vector_4'> +9.3682140e-05 </wgt>
<wgt id='morphing_basis_vector_5'> +1.4145562e-04 </wgt>
</rwgt>
</event>
<event>
 4      1 +1.0153100e-05 5.77052300e+02 7.81860800e-03 9.24219700e-02
        2 -1    0    0  501    0 +0.0000000000e+00 +0.0000000000e+00 +1.1201795306e+02 1.1201795306e+02 0.0000000000e+00 0.0000e+00 -1.0000e+00
       -2 -1    0    0    0  501 -0.0000000000e+00 -0.0000000000e+00 -7.4316063131e+02 7.4316063131e+02 0.0000000000e+00 0.0000e+00 1.0000e+00
      -13  1    1    2    0    0 +1.6139595581e+02 +2.2905938772e+02 -4.1749946422e+02 5.0281473753e+02 0.0000000000e+00 0.0000e+00 1.0000e+00
       13  1    1    2    0    0 -1.6139595581e+02 -2.2905938772e+02 -2.1364321403e+02 3.5236384683e+02 0.0000000000e+00 0.0000e+00 -1.0000e+00
<mgrwt>
<rscale>  0 0.57705228E+03</rscale>
<asrwt>0</asrwt>
<pdfrwt beam="1">  1        2 0.17233532E-01 0.57705228E+03</pdfrwt>
<pdfrwt beam="2">  1       -2 0.11433240E+00 0.57705228E+03</pdfrwt>
<totfact> 0.25851016E+02</totfact>
</mgrwt>
<rwgt>
<wgt id='morphing_basis_vector_1'> +2.3899152e-04 </wgt>
<wgt id='morphing_basis_vector_2'> +1.4278208e-04 </wgt>
<wgt id='morphing_basis_vector_3'> +1.8312741e-04 </wgt>
<wgt id='morphing_basis_vector_4'> +7.3667848e-05 </wgt>
<wgt id='morphing_basis_vector_5'> +1.1328262e-04 </wgt>
</rwgt>
</event>
<event>
 4      1 +1.0153100e-05 5.68691500e+02 7.81860800e-03 9.25799000e-02
        2 -1    0    0  501    0 +0.0000000000e+00 +0.0000000000e+00 +6.7527081281e+01 6.7527081281e+01 0.0000000000e+00 0.0000e+00 -1.0000e+00
       -2 -1    0    0    0  501 -0.0000000000e+00 -0.0000000000e+00 -1.1973344920e+03 1.1973344920e+03 0.0000000000e+00 0.0000e+00 1.0000e+00
      -13  1    1    2    0    0 -4.2239189148e+00 +2.3347410579e+02 -9.2577003761e+02 9.5476602480e+02 0.0000000000e+00 0.0000e+00 1.0000e+00
       13  1    1    2    0    0 +4.2239189148e+00 -2.3347410579e+02 -2.0403737312e+02 3.1009554850e+02 0.0000000000e+00 0.0000e+00 -1.0000e+00
<mgrwt>
<rscale>  0 0.56869149E+03</rscale>
<asrwt>0</asrwt>
<pdfrwt beam="1">  1        2 0.10388783E-01 0.56869149E+03</pdfrwt>
<pdfrwt beam="2">  1       -2 0.18420529E+00 0.56869149E+03</pdfrwt>
<totfact> 0.12701544E+02</totfact>
</mgrwt>
<rwgt>
<wgt id='morphing_basis_vector_1'> +2.2566312e-04 </wgt>
<wgt id='morphing_basis_vector_2'> +1.2833893e-04 </wgt>
<wgt id='morphing_basis_vector_3'> +1.7361800e-04 </wgt>
<wgt id='morphing_basis_vector_4'> +7.0185901e-05 </wgt>
<wgt id='morphing_basis_vector_5'> +1.0486602e-04 </wgt>
</rwgt>
</event>
<event>
 4      1 +1.0153100e-05 5.57617400e+02 7.81860800e-03 9.27935800e-02
        2 -1    0    0  501    0 +0.0000000000e+00 +0.0000000000e+00 +9.7651226737e+02 9.7651226737e+02 0.0000000000e+00 0.0000e+00 -1.0000e+00
       -2 -1    0    0    0  501 -0.0000000000e+00 -0.0000000000e+00 -7.9604017438e+01 7.9604017438e+01 0.0000000000e+00 0.0000e+00 1.0000e+00
      -13  1    1    2    0    0 -2.0100275848e+02 -1.7459356115e+02 +6.0520061659e+02 6.6117532231e+02 0.0000000000e+00 0.0000e+00 1.0000e+00
       13  1    1    2    0    0 +2.0100275848e+02 +1.7459356115e+02 +2.9170763334e+02 3.9494096250e+02 0.0000000000e+00 0.0000e+00 -1.0000e+00
<mgrwt>
<rscale>  0 0.55761743E+03</rscale>
<asrwt>0</asrwt>
<pdfrwt beam="1">  1        2 0.15023265E+00 0.55761743E+03</pdfrwt>
<pdfrwt beam="2">  1       -2 0.12246773E-01 0.55761743E+03</pdfrwt>
<totfact> 0.14297915E+03</totfact>
</mgrwt>
<rwgt>
<wgt id='morphing_basis_vector_1'> +2.3119670e-04 </wgt>
<wgt id='morphing_basis_vector_2'> +1.7969052e-04 </wgt>
<wgt id='morphing_basis_vector_3'> +1.5853920e-04 </wgt>
<wgt id='morphing_basis_vector_4'> +5.1649324e-05 </wgt>
<wgt id='morphing_basis_vector_5'> +9.4815543e-05 </wgt>
</rwgt>
</event>
<event>
 4      1 +1.0153100e-05 5.21452300e+02 7.81860800e-03 9.35300200e-02
        2 -1    0    0  501    0 +0.0000000000e+00 +0.0000000000e+00 +4.9984087740e+02 4.9984087740e+02 0.0000000000e+00 0.0000e+00 -1.0000e+00
       -2 -1    0    0    0  501 -0.0000000000e+00 -0.0000000000e+00 -1.3599955066e+02 1.3599955066e+02 0.0000000000e+00 0.0000e+00 1.0000e+00
      -13  1    1    2    0    0 -1.5270898573e+02 +1.7942587999e+02 +4.5785552378e+01 2.4002082730e+02 0.0000000000e+00 0.0000e+00 1.0000e+00
       13  1    1    2    0    0 +1.5270898573e+02 -1.7942587999e+02 +3.1805577437e+02 3.9581960076e+02 0.0000000000e+00 0.0000e+00 -1.0000e+00
<mgrwt>
<rscale>  0 0.52145234E+03</rscale>
<asrwt>0</asrwt>
<pdfrwt beam="1">  1        2 0.76898596E-01 0.52145234E+03</pdfrwt>
<pdfrwt beam="2">  1       -2 0.20923008E-01 0.52145234E+03</pdfrwt>
<totfact> 0.13647738E+03</totfact>
</mgrwt>
<rwgt>
<wgt id='morphing_basis_vector_1'> +1.7256701e-04 </wgt>
<wgt id='morphing_basis_vector_2'> +9.7881393e-05 </wgt>
<wgt id='morphing_basis_vector_3'> +1.2615412e-04 </wgt>
<wgt id='morphing_basis_vector_4'> +4.5125490e-05 </wgt>
<wgt id='morphing_basis_vector_5'> +6.5338067e-05 </wgt>
</rwgt>
</event>
<event>
 4      1 +1.0153100e-05 6.05217600e+02 7.81860800e-03 9.19101000e-02
        2 -1    0    0  501    0 +0.0000000000e+00 +0.0000000000e+00 +7.7389124796e+02 7.7389124796e+02 0.0000000000e+00 0.0000e+00 -1.0000e+00
       -2 -1    0    0    0  501 -0.0000000000e+00 -0.0000000000e+00 -1.1832679683e+02 1.1832679683e+02 0.0000000000e+00 0.0000e+00 1.0000e+00
      -13  1    1    2    0    0 -1.9308652426e+01 -1.9087610240e+02 -1.7213138544e+01 1.9262087806e+02 0.0000000000e+00 0.0000e+00 1.0000e+00
       13  1    1    2    0    0 +1.9308652426e+01 +1.9087610240e+02 +6.7277758967e+02 6.9959716673e+02 0.0000000000e+00 0.0000e+00 -1.0000e+00
<mgrwt>
<rscale>  0 0.60521756E+03</rscale>
<asrwt>0</asrwt>
<pdfrwt beam="1">  1        2 0.11906019E+00 0.60521756E+03</pdfrwt>
<pdfrwt beam="2">  1       -2 0.18204123E-01 0.60521756E+03</pdfrwt>
<totfact> 0.10241882E+03</totfact>
</mgrwt>
<rwgt>
<wgt id='morphing_basis_vector_1'> +2.7525367e-04 </wgt>
<wgt id='morphing_basis_vector_2'> +1.5701763e-04 </wgt>
<wgt id='morphing_basis_vector_3'> +2.1913134e-04 </wgt>
<wgt id='morphing_basis_vector_4'> +9.5732071e-05 </wgt>
<wgt id='morphing_basis_vector_5'> +1.4489633e-04 </wgt>
</rwgt>
</event>
<event>
 4      1 +1.0153100e-05 5.56024600e+02 7.81860800e-03 9.28247500e-02
        2 -1    0    0  501    0 +0.0000000000e+00 +0.0000000000e+00 +5.7312495224e+01 5.7312495224e+01 0.0000000000e+00 0.0000e+00 1.0000e+00
       -2 -1    0    0    0  501 -0.0000000000e+00 -0.0000000000e+00 -1.3485862889e+03 1.3485862889e+03 0.0000000000e+00 0.0000e+00 -1.0000e+00
      -13  1    1    2    0    0 +2.1325303155e+02 -2.3572694299e+01 -1.0926732410e+03 1.1135382073e+03 0.0000000000e+00 0.0000e+00 -1.0000e+00
       13  1    1    2    0    0 -2.1325303155e+02 +2.3572694299e+01 -1.9860055261e+02 2.9236057682e+02 0.0000000000e+00 0.0000e+00 1.0000e+00
<mgrwt>
<rscale>  0 0.55602462E+03</rscale>
<asrwt>0</asrwt>
<pdfrwt beam="1">  1        2 0.88173068E-02 0.55602462E+03</pdfrwt>
<pdfrwt beam="2">  1       -2 0.20747482E+00 0.55602462E+03</pdfrwt>
<totfact> 0.10620716E+02</totfact>
</mgrwt>
<rwgt>
<wgt id='morphing_basis_vector_1'> +2.0990826e-04 </wgt>
<wgt id='morphing_basis_vector_2'> +1.1835929e-04 </wgt>
<wgt id='morphing_basis_vector_3'> +1.5975591e-04 </wgt>
<wgt id='morphing_basis_vector_4'> +6.2863964e-05 </wgt>
<wgt id='morphing_basis_vector_5'> +9.2990095e-05 </wgt>
</rwgt>
</event>
<event>
 4      1 +1.0153100e-05 5.27597700e+02 7.81860800e-03 9.34004600e-02
        2 -1    0    0  501    0 +0.0000000000e+00 +0.0000000000e+00 +7.3302236355e+02 7.3302236355e+02 0.0000000000e+00 0.0000e+00 1.0000e+00
       -2 -1    0    0    0  501 -0.0000000000e+00 -0.0000000000e+00 -9.4935474076e+01 9.4935474076e+01 0.0000000000e+00 0.0000e+00 -1.0000e+00
      -13  1    1    2    0    0 +1.7301919063e+02 +1.9746596802e+02 +2.7868542857e+02 3.8287598117e+02 0.0000000000e+00 0.0000e+00 -1.0000e+00
       13  1    1    2    0    0 -1.7301919063e+02 -1.9746596802e+02 +3.5940146090e+02 4.4508185646e+02 0.0000000000e+00 0.0000e+00 1.0000e+00
<mgrwt>
<rscale>  0 0.52759767E+03</rscale>
<asrwt>0</asrwt>
<pdfrwt beam="1">  1        2 0.11277267E+00 0.52759767E+03</pdfrwt>
<pdfrwt beam="2">  1       -2 0.14605458E-01 0.52759767E+03</pdfrwt>
<totfact> 0.15675621E+03</totfact>
</mgrwt>
<rwgt>
<wgt id='morphing_basis_vector_1'> +1.8200685e-04 </wgt>
<wgt id='morphing_basis_vector_2'> +1.1133140e-04 </wgt>
<wgt id='morphing_basis_vector_3'> +1.3076665e-04 </wgt>
<wgt id='morphing_basis_vector_4'> +4.6300836e-05 </wgt>
<wgt id='morphing_basis_vector_5'> +6.9873063e-05 </wgt>
</rwgt>
</event>
<event>
 4      1 +1.0153100e-05 5.84138200e+02 7.81860800e-03 9.22903200e-02
        2 -1    0    0  501    0 +0.0000000000e+00 +0.0000000000e+00 +4.4960843861e+02 4.4960843861e+02 0.0000000000e+00 0.0000e+00 -1.0000e+00
       -2 -1    0    0    0  501 -0.0000000000e+00 -0.0000000000e+00 -1.8973034426e+02 1.8973034426e+02 0.0000000000e+00 0.0000e+00 1.0000e+00
      -13  1    1    2    0    0 -1.6067947962e+02 -2.4103177058e+02 +1.7074719878e+02 3.3625706758e+02 0.0000000000e+00 0.0000e+00 1.0000e+00
       13  1    1    2    0    0 +1.6067947962e+02 +2.4103177058e+02 +8.9130895563e+01 3.0308171530e+02 0.0000000000e+00 0.0000e+00 -1.0000e+00
<mgrwt>
<rscale>  0 0.58413822E+03</rscale>
<asrwt>0</asrwt>
<pdfrwt beam="1">  1        2 0.69170529E-01 0.58413822E+03</pdfrwt>
<pdfrwt beam="2">  1       -2 0.29189284E-01 0.58413822E+03</pdfrwt>
<totfact> 0.87227514E+02</totfact>
</mgrwt>
<rwgt>
<wgt id='morphing_basis_vector_1'> +2.5828533e-04 </wgt>
<wgt id='morphing_basis_vector_2'> +1.7904201e-04 </wgt>
<wgt id='morphing_basis_vector_3'> +1.9133225e-04 </wgt>
<wgt id='morphing_basis_vector_4'> +7.1214611e-05 </wgt>
<wgt id='morphing_basis_vector_5'> +1.2083784e-04 </wgt>
</rwgt>
</event>
<event>
 4      1 +1.0153100e-05 6.08713200e+02 7.81860800e-03 9.18486300e-02
        2 -1    0    0  501    0 +0.0000000000e+00 +0.0000000000e+00 +7.1674495196e+02 7.1674495196e+02 0.0000000000e+00 0.0000e+00 -1.0000e+00
       -2 -1    0    0    0  501 -0.0000000000e+00 -0.0000000000e+00 -1.2924113733e+02 1.2924113733e+02 0.0000000000e+00 0.0000e+00 1.0000e+00
      -13  1    1    2    0    0 -1.7081370223e+02 +2.2081931132e+02 +4.6222365963e+02 5.3999000050e+02 0.0000000000e+00 0.0000e+00 1.0000e+00
       13  1    1    2    0    0 +1.7081370223e+02 -2.2081931132e+02 +1.2528015500e+02 3.0599608879e+02 0.0000000000e+00 0.0000e+00 -1.0000e+00
<mgrwt>
<rscale>  0 0.60871318E+03</rscale>
<asrwt>0</asrwt>
<pdfrwt beam="1">  1        2 0.11026845E+00 0.60871318E+03</pdfrwt>
<pdfrwt beam="2">  1       -2 0.19883252E-01 0.60871318E+03</pdfrwt>
<totfact> 0.97347418E+02</totfact>
</mgrwt>
<rwgt>
<wgt id='morphing_basis_vector_1'> +3.1679161e-04 </wgt>
<wgt id='morphing_basis_vector_2'> +2.7272647e-04 </wgt>
<wgt id='morphing_basis_vector_3'> +2.2581673e-04 </wgt>
<wgt id='morphing_basis_vector_4'> +6.9465345e-05 </wgt>
<wgt id='morphing_basis_vector_5'> +1.4928152e-04 </wgt>
</rwgt>
</event>
<event>
 4      1 +1.0153100e-05 5.58923200e+02 7.81860800e-03 9.27681100e-02
        2 -1    0    0  501    0 +0.0000000000e+00 +0.0000000000e+00 +4.6300738720e+02 4.6300738720e+02 0.0000000000e+00 0.0000e+00 -1.0000e+00
       -2 -1    0    0    0  501 -0.0000000000e+00 -0.0000000000e+00 -1.6867720441e+02 1.6867720441e+02 0.0000000000e+00 0.0000e+00 1.0000e+00
      -13  1    1    2    0    0 -2.1406221740e+02 -1.4609428110e+02 +2.8994270335e+01 2.6078121022e+02 0.0000000000e+00 0.0000e+00 1.0000e+00
       13  1    1    2    0    0 +2.1406221740e+02 +1.4609428110e+02 +2.6533591245e+02 3.7090338139e+02 0.0000000000e+00 0.0000e+00 -1.0000e+00
<mgrwt>
<rscale>  0 0.55892322E+03</rscale>
<asrwt>0</asrwt>
<pdfrwt beam="1">  1        2 0.71231905E-01 0.55892322E+03</pdfrwt>
<pdfrwt beam="2">  1       -2 0.25950339E-01 0.55892322E+03</pdfrwt>
<totfact> 0.10347259E+03</totfact>
</mgrwt>
<rwgt>
<wgt id='morphing_basis_vector_1'> +2.1460332e-04 </wgt>
<wgt id='morphing_basis_vector_2'> +1.2422234e-04 </wgt>
<wgt id='morphing_basis_vector_3'> +1.6267521e-04 </wgt>
<wgt id='morphing_basis_vector_4'> +6.3750578e-05 </wgt>
<wgt id='morphing_basis_vector_5'> +9.5644501e-05 </wgt>
</rwgt>
</event>
<event>
 4      1 +1.0153100e-05 5.90849400e+02 7.81860800e-03 9.21674500e-02
        2 -1    0    0  501    0 +0.0000000000e+00 +0.0000000000e+00 +1.1149329473e+02 1.1149329473e+02 0.0000000000e+00 0.0000e+00 1.0000e+00
       -2 -1    0    0    0  501 -0.0000000000e+00 -0.0000000000e+00 -7.8278926933e+02 7.8278926933e+02 0.0000000000e+00 0.0000e+00 -1.0000e+00
      -13  1    1    2    0    0 -1.9430369162e+02 -5.4211533421e+01 -6.6231960828e+02 6.9235834540e+02 0.0000000000e+00 0.0000e+00 -1.0000e+00
       13  1    1    2    0    0 +1.9430369162e+02 +5.4211533421e+01 -8.9763663159e+00 2.0192421867e+02 0.0000000000e+00 0.0000e+00 1.0000e+00
<mgrwt>
<rscale>  0 0.59084940E+03</rscale>
<asrwt>0</asrwt>
<pdfrwt beam="1">  1        2 0.17152815E-01 0.59084940E+03</pdfrwt>
<pdfrwt beam="2">  1       -2 0.12042912E+00 0.59084940E+03</pdfrwt>
<totfact> 0.22747588E+02</totfact>
</mgrwt>
<rwgt>
<wgt id='morphing_basis_vector_1'> +2.5465540e-04 </wgt>
<wgt id='morphing_basis_vector_2'> +1.4474026e-04 </wgt>
<wgt id='morphing_basis_vector_3'> +2.0024004e-04 </wgt>
<wgt id='morphing_basis_vector_4'> +8.5081520e-05 </wgt>
<wgt id='morphing_basis_vector_5'> +1.2807444e-04 </wgt>
</rwgt>
</event>
<event>
 4      1 +1.0153100e-05 5.69979200e+02 7.81860800e-03 9.25553900e-02
        2 -1    0    0  501    0 +0.0000000000e+00 +0.0000000000e+00 +9.9837819601e+02 9.9837819601e+02 0.0000000000e+00 0.0000e+00 -1.0000e+00
       -2 -1    0    0    0  501 -0.0000000000e+00 -0.0000000000e+00 -8.1351010472e+01 8.1351010472e+01 0.0000000000e+00 0.0000e+00 1.0000e+00
      -13  1    1    2    0    0 +1.9551737821e+02 -6.5283938888e+01 +8.5710255954e+01 2.2323818185e+02 0.0000000000e+00 0.0000e+00 1.0000e+00
       13  1    1    2    0    0 -1.9551737821e+02 +6.5283938888e+01 +8.3131692958e+02 8.5649102463e+02 0.0000000000e+00 0.0000e+00 -1.0000e+00
<mgrwt>
<rscale>  0 0.56997921E+03</rscale>
<asrwt>0</asrwt>
<pdfrwt beam="1">  1        2 0.15359664E+00 0.56997921E+03</pdfrwt>
<pdfrwt beam="2">  1       -2 0.12515541E-01 0.56997921E+03</pdfrwt>
<totfact> 0.13388997E+03</totfact>
</mgrwt>
<rwgt>
<wgt id='morphing_basis_vector_1'> +2.2695166e-04 </wgt>
<wgt id='morphing_basis_vector_2'> +1.2825614e-04 </wgt>
<wgt id='morphing_basis_vector_3'> +1.7511690e-04 </wgt>
<wgt id='morphing_basis_vector_4'> +7.1207674e-05 </wgt>
<wgt id='morphing_basis_vector_5'> +1.0612301e-04 </wgt>
</rwgt>
</event>
<event>
 4      1 +1.0153100e-05 5.23526600e+02 7.81860800e-03 9.34860800e-02
        2 -1    0    0  501    0 +0.0000000000e+00 +0.0000000000e+00 +1.1605019643e+03 1.1605019643e+03 0.0000000000e+00 0.0000e+00 -1.0000e+00
       -2 -1    0    0    0  501 -0.0000000000e+00 -0.0000000000e+00 -5.9043440732e+01 5.9043440732e+01 0.0000000000e+00 0.0000e+00 1.0000e+00
      -13  1    1    2    0    0 -1.0654983536e+02 +2.3559283311e+02 +4.5572815973e+02 5.2397042473e+02 0.0000000000e+00 0.0000e+00 1.0000e+00
       13  1    1    2    0    0 +1.0654983536e+02 -2.3559283311e+02 +6.4573036386e+02 6.9557498032e+02 0.0000000000e+00 0.0000e+00 -1.0000e+00
<mgrwt>
<rscale>  0 0.52352661E+03</rscale>
<asrwt>0</asrwt>
<pdfrwt beam="1">  1        2 0.17853875E+00 0.52352661E+03</pdfrwt>
<pdfrwt beam="2">  1       -2 0.90836071E-02 0.52352661E+03</pdfrwt>
<totfact> 0.17760888E+03</totfact>
</mgrwt>
<rwgt>
<wgt id='morphing_basis_vector_1'> +1.7690420e-04 </wgt>
<wgt id='morphing_basis_vector_2'> +1.0604746e-04 </wgt>
<wgt id='morphing_basis_vector_3'> +1.2731735e-04 </wgt>
<wgt id='morphing_basis_vector_4'> +4.4944295e-05 </wgt>
<wgt id='morphing_basis_vector_5'> +6.6885752e-05 </wgt>
</rwgt>
</event>
<event>
 4      1 +1.0153100e-05 6.16373300e+02 7.81860800e-03 9.17154300e-02
        2 -1    0    0  501    0 +0.0000000000e+00 +0.0000000000e+00 +8.7687519201e+02 8.7687519201e+02 0.0000000000e+00 0.0000e+00 -1.0000e+00
       -2 -1    0    0    0  501 -0.0000000000e+00 -0.0000000000e+00 -1.0831530303e+02 1.0831530303e+02 0.0000000000e+00 0.0000e+00 1.0000e+00
      -13  1    1    2    0    0 -5.3139833529e+01 +1.8906706784e+02 +4.6592647460e+00 1.9644822931e+02 0.0000000000e+00 0.0000e+00 1.0000e+00
       13  1    1    2    0    0 +5.3139833529e+01 -1.8906706784e+02 +7.6390062423e+02 7.8874226573e+02 0.0000000000e+00 0.0000e+00 -1.0000e+00
<mgrwt>
<rscale>  0 0.61637327E+03</rscale>
<asrwt>0</asrwt>
<pdfrwt beam="1">  1        2 0.13490387E+00 0.61637327E+03</pdfrwt>
<pdfrwt beam="2">  1       -2 0.16663893E-01 0.61637327E+03</pdfrwt>
<totfact> 0.10075237E+03</totfact>
</mgrwt>
<rwgt>
<wgt id='morphing_basis_vector_1'> +2.9222604e-04 </wgt>
<wgt id='morphing_basis_vector_2'> +1.6734517e-04 </wgt>
<wgt id='morphing_basis_vector_3'> +2.3474759e-04 </wgt>
<wgt id='morphing_basis_vector_4'> +1.0459154e-04 </wgt>
<wgt id='morphing_basis_vector_5'> +1.5897394e-04 </wgt>
</rwgt>
</event>
<event>
 4      1 +1.0153100e-05 5.92707200e+02 7.81860800e-03 9.21337400e-02
        2 -1    0    0  501    0 +0.0000000000e+00 +0.0000000000e+00 +7.6683271095e+02 7.6683271095e+02 0.0000000000e+00 0.0000e+00 -1.0000e+00
       -2 -1    0    0    0  501 -0.0000000000e+00 -0.0000000000e+00 -1.1453014498e+02 1.1453014498e+02 0.0000000000e+00 0.0000e+00 1.0000e+00
      -13  1    1    2    0    0 -2.1246243083e+02 +2.1994991337e+01 +6.3162787969e+02 6.6676670775e+02 0.0000000000e+00 0.0000e+00 1.0000e+00
       13  1    1    2    0    0 +2.1246243083e+02 -2.1994991337e+01 +2.0674686275e+01 2.1459614818e+02 0.0000000000e+00 0.0000e+00 -1.0000e+00
<mgrwt>
<rscale>  0 0.59270722E+03</rscale>
<asrwt>0</asrwt>
<pdfrwt beam="1">  1        2 0.11797426E+00 0.59270722E+03</pdfrwt>
<pdfrwt beam="2">  1       -2 0.17620023E-01 0.59270722E+03</pdfrwt>
<totfact> 0.10931803E+03</totfact>
</mgrwt>
<rwgt>
<wgt id='morphing_basis_vector_1'> +3.2751021e-04 </wgt>
<wgt id='morphing_basis_vector_2'> +3.6421661e-04 </wgt>
<wgt id='morphing_basis_vector_3'> +2.0201413e-04 </wgt>
<wgt id='morphing_basis_vector_4'> +3.3944090e-05 </wgt>
<wgt id='morphing_basis_vector_5'> +1.3069673e-04 </wgt>
</rwgt>
</event>
<event>
 4      1 +1.0153100e-05 5.51287500e+02 7.81860800e-03 9.29181000e-02
        2 -1    0    0  501    0 +0.0000000000e+00 +0.0000000000e+00 +7.7013788528e+02 7.7013788528e+02 0.0000000000e+00 0.0000e+00 -1.0000e+00
       -2 -1    0    0    0  501 -0.0000000000e+00 -0.0000000000e+00 -9.8656991009e+01 9.8656991009e+01 0.0000000000e+00 0.0000e+00 1.0000e+00
      -13  1    1    2    0    0 +5.8458144395e+01 +1.3308693409e+02 -3.3345401113e+01 1.4913551705e+02 0.0000000000e+00 0.0000e+00 1.0000e+00
       13  1    1    2    0    0 -5.8458144395e+01 -1.3308693409e+02 +7.0482629538e+02 7.1965935923e+02 0.0000000000e+00 0.0000e+00 -1.0000e+00
<mgrwt>
<rscale>  0 0.55128753E+03</rscale>
<asrwt>0</asrwt>
<pdfrwt beam="1">  1        2 0.11848275E+00 0.55128753E+03</pdfrwt>
<pdfrwt beam="2">  1       -2 0.15177999E-01 0.55128753E+03</pdfrwt>
<totfact> 0.13860565E+03</totfact>
</mgrwt>
<rwgt>
<wgt id='morphing_basis_vector_1'> +2.0400178e-04 </wgt>
<wgt id='morphing_basis_vector_2'> +1.1401796e-04 </wgt>
<wgt id='morphing_basis_vector_3'> +1.5485644e-04 </wgt>
<wgt id='morphing_basis_vector_4'> +6.0423220e-05 </wgt>
<wgt id='morphing_basis_vector_5'> +8.8791163e-05 </wgt>
</rwgt>
</event>
<event>
 4      1 +1.0153100e-05 5.88850300e+02 7.81860800e-03 9.22038700e-02
        2 -1    0    0  501    0 +0.0000000000e+00 +0.0000000000e+00 +1.7041912549e+03 1.7041912549e+03 0.0000000000e+00 0.0000e+00 -1.0000e+00
       -2 -1    0    0    0  501 -0.0000000000e+00 -0.0000000000e+00 -5.0866451005e+01 5.0866451005e+01 0.0000000000e+00 0.0000e+00 1.0000e+00
      -13  1    1    2    0    0 +2.2269941779e+01 -2.8539180026e+02 +6.2142572390e+02 6.8418883380e+02 0.0000000000e+00 0.0000e+00 1.0000e+00
       13  1    1    2    0    0 -2.2269941779e+01 +2.8539180026e+02 +1.0318990800e+03 1.0708688721e+03 0.0000000000e+00 0.0000e+00 -1.0000e+00
<mgrwt>
<rscale>  0 0.58885027E+03</rscale>
<asrwt>0</asrwt>
<pdfrwt beam="1">  1        2 0.26218323E+00 0.58885027E+03</pdfrwt>
<pdfrwt beam="2">  1       -2 0.78256092E-02 0.58885027E+03</pdfrwt>
<totfact> 0.11165972E+03</totfact>
</mgrwt>
<rwgt>
<wgt id='morphing_basis_vector_1'> +2.5514855e-04 </wgt>
<wgt id='morphing_basis_vector_2'> +1.5320198e-04 </wgt>
<wgt id='morphing_basis_vector_3'> +1.9764056e-04 </wgt>
<wgt id='morphing_basis_vector_4'> +8.1280975e-05 </wgt>
<wgt id='morphing_basis_vector_5'> +1.2587581e-04 </wgt>
</rwgt>
</event>
<event>
 4      1 +1.0153100e-05 5.70373000e+02 7.81860800e-03 9.25479000e-02
        2 -1    0    0  501    0 +0.0000000000e+00 +0.0000000000e+00 +3.9394835481e+02 3.9394835481e+02 0.0000000000e+00 0.0000e+00 1.0000e+00
       -2 -1    0    0    0  501 -0.0000000000e+00 -0.0000000000e+00 -2.0645176924e+02 2.0645176924e+02 0.0000000000e+00 0.0000e+00 -1.0000e+00
      -13  1    1    2    0    0 -1.9877217463e+02 +1.9882254343e+02 +4.3369000506e+01 2.8446731163e+02 0.0000000000e+00 0.0000e+00 -1.0000e+00
       13  1    1    2    0    0 +1.9877217463e+02 -1.9882254343e+02 +1.4412758506e+02 3.1593281241e+02 0.0000000000e+00 0.0000e+00 1.0000e+00
<mgrwt>
<rscale>  0 0.57037298E+03</rscale>
<asrwt>0</asrwt>
<pdfrwt beam="1">  1        2 0.60607439E-01 0.57037298E+03</pdfrwt>
<pdfrwt beam="2">  1       -2 0.31761811E-01 0.57037298E+03</pdfrwt>
<totfact> 0.87221628E+02</totfact>
</mgrwt>
<rwgt>
<wgt id='morphing_basis_vector_1'> +2.3125541e-04 </wgt>
<wgt id='morphing_basis_vector_2'> +1.4036287e-04 </wgt>
<wgt id='morphing_basis_vector_3'> +1.7519690e-04 </wgt>
<wgt id='morphing_basis_vector_4'> +6.8900905e-05 </wgt>
<wgt id='morphing_basis_vector_5'> +1.0656963e-04 </wgt>
</rwgt>
</event>
<event>
 4      1 +1.0153100e-05 5.21840400e+02 7.81860800e-03 9.35217900e-02
        2 -1    0    0  501    0 +0.0000000000e+00 +0.0000000000e+00 +2.4283189256e+03 2.4283189256e+03 0.0000000000e+00 0.0000e+00 1.0000e+00
       -2 -1    0    0    0  501 -0.0000000000e+00 -0.0000000000e+00 -2.8035591210e+01 2.8035591210e+01 0.0000000000e+00 0.0000e+00 -1.0000e+00
      -13  1    1    2    0    0 +2.4618312338e+02 +8.6415971956e+01 +1.2111870887e+03 1.2389705462e+03 0.0000000000e+00 0.0000e+00 -1.0000e+00
       13  1    1    2    0    0 -2.4618312338e+02 -8.6415971956e+01 +1.1890962457e+03 1.2173839706e+03 0.0000000000e+00 0.0000e+00 1.0000e+00
<mgrwt>
<rscale>  0 0.52184042E+03</rscale>
<asrwt>0</asrwt>
<pdfrwt beam="1">  1        2 0.37358736E+00 0.52184042E+03</pdfrwt>
<pdfrwt beam="2">  1       -2 0.43131698E-02 0.52184042E+03</pdfrwt>
<totfact> 0.11059207E+03</totfact>
</mgrwt>
<rwgt>
<wgt id='morphing_basis_vector_1'> +1.7787973e-04 </wgt>
<wgt id='morphing_basis_vector_2'> +1.1339422e-04 </wgt>
<wgt id='morphing_basis_vector_3'> +1.2497654e-04 </wgt>
<wgt id='morphing_basis_vector_4'> +4.2890834e-05 </wgt>
<wgt id='morphing_basis_vector_5'> +6.5773114e-05 </wgt>
</rwgt>
</event>
<event>
 4      1 +1.0153100e-05 5.94214500e+02 7.81860800e-03 9.21064900e-02
        2 -1    0    0  501    0 +0.0000000000e+00 +0.0000000000e+00 +2.2662250415e+02 2.2662250415e+02 0.0000000000e+00 0.0000e+00 -1.0000e+00
       -2 -1    0    0    0  501 -0.0000000000e+00 -0.0000000000e+00 -3.8951435331e+02 3.8951435331e+02 0.0000000000e+00 0.0000e+00 1.0000e+00
      -13  1    1    2    0    0 -9.6858557222e+01 -7.1910193576e+01 -3.6297729203e+02 3.8249858899e+02 0.0000000000e+00 0.0000e+00 1.0000e+00
       13  1    1    2    0    0 +9.6858557222e+01 +7.1910193576e+01 +2.0008544287e+02 2.3363826848e+02 0.0000000000e+00 0.0000e+00 -1.0000e+00
<mgrwt>
<rscale>  0 0.59421450E+03</rscale>
<asrwt>0</asrwt>
<pdfrwt beam="1">  1        2 0.34865001E-01 0.59421450E+03</pdfrwt>
<pdfrwt beam="2">  1       -2 0.59925285E-01 0.59421450E+03</pdfrwt>
<totfact> 0.48821932E+02</totfact>
</mgrwt>
<rwgt>
<wgt id='morphing_basis_vector_1'> +2.5916675e-04 </wgt>
<wgt id='morphing_basis_vector_2'> +1.4693040e-04 </wgt>
<wgt id='morphing_basis_vector_3'> +2.0454531e-04 </wgt>
<wgt id='morphing_basis_vector_4'> +8.7642221e-05 </wgt>
<wgt id='morphing_basis_vector_5'> +1.3188408e-04 </wgt>
</rwgt>
</event>
<event>
 4      1 +1.0153100e-05 5.34353700e+02 7.81860800e-03 9.32601900e-02
        2 -1    0    0  501    0 +0.0000000000e+00 +0.0000000000e+00 +2.8290388416e+02 2.8290388416e+02 0.0000000000e+00 0.0000e+00 -1.0000e+00
       -2 -1    0    0    0  501 -0.0000000000e+00 -0.0000000000e+00 -2.5232406697e+02 2.5232406697e+02 0.0000000000e+00 0.0000e+00 1.0000e+00
      -13  1    1    2    0    0 +1.5896854101e+02 +5.0588501853e+01 -1.9374573980e+02 2.5567089244e+02 0.0000000000e+00 0.0000e+00 1.0000e+00
       13  1    1    2    0    0 -1.5896854101e+02 -5.0588501853e+01 +2.2432555699e+02 2.7955705870e+02 0.0000000000e+00 0.0000e+00 -1.0000e+00
<mgrwt>
<rscale>  0 0.53435366E+03</rscale>
<asrwt>0</asrwt>
<pdfrwt beam="1">  1        2 0.43523674E-01 0.53435366E+03</pdfrwt>
<pdfrwt beam="2">  1       -2 0.38819087E-01 0.53435366E+03</pdfrwt>
<totfact> 0.88017984E+02</totfact>
</mgrwt>
<rwgt>
<wgt id='morphing_basis_vector_1'> +1.8511502e-04 </wgt>
<wgt id='morphing_basis_vector_2'> +1.0299866e-04 </wgt>
<wgt id='morphing_basis_vector_3'> +1.3814554e-04 </wgt>
<wgt id='morphing_basis_vector_4'> +5.1595627e-05 </wgt>
<wgt id='morphing_basis_vector_5'> +7.4863385e-05 </wgt>
</rwgt>
</event>
<event>
 4      1 +1.0153100e-05 6.18627500e+02 7.81860800e-03 9.16766200e-02
        2 -1    0    0  501    0 +0.0000000000e+00 +0.0000000000e+00 +5.7016051420e+02 5.7016051420e+02 0.0000000000e+00 0.0000e+00 1.0000e+00
       -2 -1    0    0    0  501 -0.0000000000e+00 -0.0000000000e+00 -1.6780364230e+02 1.6780364230e+02 0.0000000000e+00 0.0000e+00 -1.0000e+00
      -13  1    1    2    0    0 +5.8196322205e+01 +2.8682935533e+02 +3.2057104702e+02 4.3407797362e+02 0.0000000000e+00 0.0000e+00 1.0000e+00
       13  1    1    2    0    0 -5.8196322205e+01 -2.8682935533e+02 +8.1785824892e+01 3.0388618288e+02 0.0000000000e+00 0.0000e+00 -1.0000e+00
<mgrwt>
<rscale>  0 0.61862755E+03</rscale>
<asrwt>0</asrwt>
<pdfrwt beam="1">  1        2 0.87717001E-01 0.61862755E+03</pdfrwt>
<pdfrwt beam="2">  1       -2 0.25815945E-01 0.61862755E+03</pdfrwt>
<totfact> 0.82266219E+02</totfact>
</mgrwt>
<rwgt>
<wgt id='morphing_basis_vector_1'> +3.2609328e-04 </wgt>
<wgt id='morphing_basis_vector_2'> +2.6347712e-04 </wgt>
<wgt id='morphing_basis_vector_3'> +2.4067399e-04 </wgt>
<wgt id='morphing_basis_vector_4'> +8.1301188e-05 </wgt>
<wgt id='morphing_basis_vector_5'> +1.6188741e-04 </wgt>
</rwgt>
</event>
<event>
 4      1 +1.0153100e-05 5.76532600e+02 7.81860800e-03 9.24317000e-02
        2 -1    0    0  501    0 +0.0000000000e+00 +0.0000000000e+00 +4.2362348785e+02 4.2362348785e+02 0.0000000000e+00 0.0000e+00 1.0000e+00
       -2 -1    0    0    0  501 -0.0000000000e+00 -0.0000000000e+00 -1.9615876833e+02 1.9615876833e+02 0.0000000000e+00 0.0000e+00 -1.0000e+00
      -13  1    1    2    0    0 +2.1630418911e+02 -1.0607622918e+02 +2.8390379928e+02 3.7234531805e+02 0.0000000000e+00 0.0000e+00 -1.0000e+00
       13  1    1    2    0    0 -2.1630418911e+02 +1.0607622918e+02 -5.6439079764e+01 2.4743693813e+02 0.0000000000e+00 0.0000e+00 1.0000e+00
<mgrwt>
<rscale>  0 0.57653261E+03</rscale>
<asrwt>0</asrwt>
<pdfrwt beam="1">  1        2 0.65172844E-01 0.57653261E+03</pdfrwt>
<pdfrwt beam="2">  1       -2 0.30178272E-01 0.57653261E+03</pdfrwt>
<totfact> 0.87981309E+02</totfact>
</mgrwt>
<rwgt>
<wgt id='morphing_basis_vector_1'> +2.8173388e-04 </wgt>
<wgt id='morphing_basis_vector_2'> +2.7714056e-04 </wgt>
<wgt id='morphing_basis_vector_3'> +1.7937494e-04 </wgt>
<wgt id='morphing_basis_vector_4'> +4.3281808e-05 </wgt>
<wgt id='morphing_basis_vector_5'> +1.1332209e-04 </wgt>
</rwgt>
</event>
<event>
 4      1 +1.0153100e-05 5.73100400e+02 7.81860800e-03 9.24962600e-02
        2 -1    0    0  501    0 +0.0000000000e+00 +0.0000000000e+00 +1.8892970412e+03 1.8892970412e+03 0.0000000000e+00 0.0000e+00 -1.0000e+00
       -2 -1    0    0    0  501 -0.0000000000e+00 -0.0000000000e+00 -4.3461153276e+01 4.3461153276e+01 0.0000000000e+00 0.0000e+00 1.0000e+00
      -13  1    1    2    0    0 +1.5662344264e+02 +1.9187316850e+02 +4.3694645432e+02 5.0226329701e+02 0.0000000000e+00 0.0000e+00 1.0000e+00
       13  1    1    2    0    0 -1.5662344264e+02 -1.9187316850e+02 +1.4088894336e+03 1.4304948974e+03 0.0000000000e+00 0.0000e+00 -1.0000e+00
<mgrwt>
<rscale>  0 0.57310044E+03</rscale>
<asrwt>0</asrwt>
<pdfrwt beam="1">  1        2 0.29066102E+00 0.57310044E+03</pdfrwt>
<pdfrwt beam="2">  1       -2 0.66863327E-02 0.57310044E+03</pdfrwt>
<totfact> 0.11292515E+03</totfact>
</mgrwt>
<rwgt>
<wgt id='morphing_basis_vector_1'> +2.3158743e-04 </wgt>
<wgt id='morphing_basis_vector_2'> +1.3265303e-04 </wgt>
<wgt id='morphing_basis_vector_3'> +1.7864936e-04 </wgt>
<wgt id='morphing_basis_vector_4'> +7.2722430e-05 </wgt>
<wgt id='morphing_basis_vector_5'> +1.0923568e-04 </wgt>
</rwgt>
</event>
<event>
 4      1 +1.0153100e-05 5.48292100e+02 7.81860800e-03 9.29776500e-02
        2 -1    0    0  501    0 +0.0000000000e+00 +0.0000000000e+00 +3.8629459396e+02 3.8629459396e+02 0.0000000000e+00 0.0000e+00 -1.0000e+00
       -2 -1    0    0    0  501 -0.0000000000e+00 -0.0000000000e+00 -1.9455631185e+02 1.9455631185e+02 0.0000000000e+00 0.0000e+00 1.0000e+00
      -13  1    1    2    0    0 -1.4300982598e+02 -1.2963342607e+02 -1.1036898630e+02 2.2234646078e+02 0.0000000000e+00 0.0000e+00 1.0000e+00
       13  1    1    2    0    0 +1.4300982598e+02 +1.2963342607e+02 +3.0210726841e+02 3.5850444503e+02 0.0000000000e+00 0.0000e+00 -1.0000e+00
<mgrwt>
<rscale>  0 0.54829208E+03</rscale>
<asrwt>0</asrwt>
<pdfrwt beam="1">  1        2 0.59429937E-01 0.54829208E+03</pdfrwt>
<pdfrwt beam="2">  1       -2 0.29931740E-01 0.54829208E+03</pdfrwt>
<totfact> 0.99013443E+02</totfact>
</mgrwt>
<rwgt>
<wgt id='morphing_basis_vector_1'> +2.0070338e-04 </wgt>
<wgt id='morphing_basis_vector_2'> +1.1247348e-04 </wgt>
<wgt id='morphing_basis_vector_3'> +1.5175870e-04 </wgt>
<wgt id='morphing_basis_vector_4'> +5.8695789e-05 </wgt>
<wgt id='morphing_basis_vector_5'> +8.6212029e-05 </wgt>
</rwgt>
</event>
<event>
 4      1 +1.0153100e-05 5.94138600e+02 7.81860800e-03 9.21078600e-02
        2 -1    0    0  501    0 +0.0000000000e+00 +0.0000000000e+00 +4.9560503167e+02 4.9560503167e+02 0.0000000000e+00 0.0000e+00 1.0000e+00
       -2 -1    0    0    0  501 -0.0000000000e+00 -0.0000000000e+00 -1.7806552596e+02 1.7806552596e+02 0.0000000000e+00 0.0000e+00 -1.0000e+00
      -13  1    1    2    0    0 -3.2947179771e+01 -8.1421641154e+01 -1.6300545936e+02 1.8516419763e+02 0.0000000000e+00 0.0000e+00 -1.0000e+00
       13  1    1    2    0    0 +3.2947179771e+01 +8.1421641154e+01 +4.8054496507e+02 4.8850636000e+02 0.0000000000e+00 0.0000e+00 1.0000e+00
<mgrwt>
<rscale>  0 0.59413861E+03</rscale>
<asrwt>0</asrwt>
<pdfrwt beam="1">  1        2 0.76246927E-01 0.59413861E+03</pdfrwt>
<pdfrwt beam="2">  1       -2 0.27394697E-01 0.59413861E+03</pdfrwt>
<totfact> 0.87243040E+02</totfact>
</mgrwt>
<rwgt>
<wgt id='morphing_basis_vector_1'> +2.5904485e-04 </wgt>
<wgt id='morphing_basis_vector_2'> +1.4682041e-04 </wgt>
<wgt id='morphing_basis_vector_3'> +2.0444752e-04 </wgt>
<wgt id='morphing_basis_vector_4'> +8.7598436e-05 </wgt>
<wgt id='morphing_basis_vector_5'> +1.3179717e-04 </wgt>
</rwgt>
</event>
<event>
 4      1 +1.0153100e-05 5.64305300e+02 7.81860800e-03 9.26639100e-02
        2 -1    0    0  501    0 +0.0000000000e+00 +0.0000000000e+00 +1.3200617632e+03 1.3200617632e+03 0.0000000000e+00 0.0000e+00 -1.0000e+00
       -2 -1    0    0    0  501 -0.0000000000e+00 -0.0000000000e+00 -6.0307875976e+01 6.0307875976e+01 0.0000000000e+00 0.0000e+00 1.0000e+00
      -13  1    1    2    0    0 +6.6479261680e+01 -2.5657059927e+02 +8.6656111127e+02 9.0618768707e+02 0.0000000000e+00 0.0000e+00 1.0000e+00
       13  1    1    2    0    0 -6.6479261680e+01 +2.5657059927e+02 +3.9319277599e+02 4.7418195214e+02 0.0000000000e+00 0.0000e+00 -1.0000e+00
<mgrwt>
<rscale>  0 0.56430531E+03</rscale>
<asrwt>0</asrwt>
<pdfrwt beam="1">  1        2 0.20308640E+00 0.56430531E+03</pdfrwt>
<pdfrwt beam="2">  1       -2 0.92781358E-02 0.56430531E+03</pdfrwt>
<totfact> 0.13938555E+03</totfact>
</mgrwt>
<rwgt>
<wgt id='morphing_basis_vector_1'> +2.4340721e-04 </wgt>
<wgt id='morphing_basis_vector_2'> +1.9716467e-04 </wgt>
<wgt id='morphing_basis_vector_3'> +1.6586334e-04 </wgt>
<wgt id='morphing_basis_vector_4'> +5.2452955e-05 </wgt>
<wgt id='morphing_basis_vector_5'> +1.0105133e-04 </wgt>
</rwgt>
</event>
<event>
 4      1 +1.0153100e-05 5.23950000e+02 7.81860800e-03 9.34771400e-02
        2 -1    0    0  501    0 +0.0000000000e+00 +0.0000000000e+00 +2.0159292015e+03 2.0159292015e+03 0.0000000000e+00 0.0000e+00 1.0000e+00
       -2 -1    0    0    0  501 -0.0000000000e+00 -0.0000000000e+00 -3.4044299589e+01 3.4044299589e+01 0.0000000000e+00 0.0000e+00 -1.0000e+00
      -13  1    1    2    0    0 -8.9742406776e+01 +2.4461175686e+02 +1.0975392584e+03 1.1280430111e+03 0.0000000000e+00 0.0000e+00 -1.0000e+00
       13  1    1    2    0    0 +8.9742406776e+01 -2.4461175686e+02 +8.8434564351e+02 9.2193048999e+02 0.0000000000e+00 0.0000e+00 1.0000e+00
<mgrwt>
<rscale>  0 0.52394999E+03</rscale>
<asrwt>0</asrwt>
<pdfrwt beam="1">  1        2 0.31014286E+00 0.52394999E+03</pdfrwt>
<pdfrwt beam="2">  1       -2 0.52375861E-02 0.52394999E+03</pdfrwt>
<totfact> 0.14014616E+03</totfact>
</mgrwt>
<rwgt>
<wgt id='morphing_basis_vector_1'> +1.8251139e-04 </wgt>
<wgt id='morphing_basis_vector_2'> +1.2237465e-04 </wgt>
<wgt id='morphing_basis_vector_3'> +1.2615148e-04 </wgt>
<wgt id='morphing_basis_vector_4'> +4.2556627e-05 </wgt>
<wgt id='morphing_basis_vector_5'> +6.7354494e-05 </wgt>
</rwgt>
</event>
<event>
 4      1 +1.0153100e-05 5.66322500e+02 7.81860800e-03 9.26251700e-02
        2 -1    0    0  501    0 +0.0000000000e+00 +0.0000000000e+00 +9.4711630645e+02 9.4711630645e+02 0.0000000000e+00 0.0000e+00 -1.0000e+00
       -2 -1    0    0    0  501 -0.0000000000e+00 -0.0000000000e+00 -8.4657290907e+01 8.4657290907e+01 0.0000000000e+00 0.0000e+00 1.0000e+00
      -13  1    1    2    0    0 -2.7100107050e+02 -7.7691923460e+01 +3.8293463023e+02 4.7551713556e+02 0.0000000000e+00 0.0000e+00 1.0000e+00
       13  1    1    2    0    0 +2.7100107050e+02 +7.7691923460e+01 +4.7952438532e+02 5.5625646180e+02 0.0000000000e+00 0.0000e+00 -1.0000e+00
<mgrwt>
<rscale>  0 0.56632253E+03</rscale>
<asrwt>0</asrwt>
<pdfrwt beam="1">  1        2 0.14571019E+00 0.56632253E+03</pdfrwt>
<pdfrwt beam="2">  1       -2 0.13024199E-01 0.56632253E+03</pdfrwt>
<totfact> 0.13521389E+03</totfact>
</mgrwt>
<rwgt>
<wgt id='morphing_basis_vector_1'> +2.2737392e-04 </wgt>
<wgt id='morphing_basis_vector_2'> +1.4110111e-04 </wgt>
<wgt id='morphing_basis_vector_3'> +1.7041502e-04 </wgt>
<wgt id='morphing_basis_vector_4'> +6.5668394e-05 </wgt>
<wgt id='morphing_basis_vector_5'> +1.0264971e-04 </wgt>
</rwgt>
</event>
<event>
 4      1 +1.0153100e-05 5.99709400e+02 7.81860800e-03 9.20078500e-02
        2 -1    0    0  501    0 +0.0000000000e+00 +0.0000000000e+00 +1.9945344403e+02 1.9945344403e+02 0.0000000000e+00 0.0000e+00 1.0000e+00
       -2 -1    0    0    0  501 -0.0000000000e+00 -0.0000000000e+00 -4.5079606725e+02 4.5079606725e+02 0.0000000000e+00 0.0000e+00 -1.0000e+00
      -13  1    1    2    0    0 -2.0373778455e+02 +2.0164569521e+02 -2.2107980152e+02 3.6200324569e+02 0.0000000000e+00 0.0000e+00 -1.0000e+00
       13  1    1    2    0    0 +2.0373778455e+02 -2.0164569521e+02 -3.0262821697e+01 2.8824626559e+02 0.0000000000e+00 0.0000e+00 1.0000e+00
<mgrwt>
<rscale>  0 0.59970936E+03</rscale>
<asrwt>0</asrwt>
<pdfrwt beam="1">  1        2 0.30685146E-01 0.59970936E+03</pdfrwt>
<pdfrwt beam="2">  1       -2 0.69353240E-01 0.59970936E+03</pdfrwt>
<totfact> 0.41692932E+02</totfact>
</mgrwt>
<rwgt>
<wgt id='morphing_basis_vector_1'> +2.6991474e-04 </wgt>
<wgt id='morphing_basis_vector_2'> +1.6061923e-04 </wgt>
<wgt id='morphing_basis_vector_3'> +2.1177994e-04 </wgt>
<wgt id='morphing_basis_vector_4'> +8.9454225e-05 </wgt>
<wgt id='morphing_basis_vector_5'> +1.3829040e-04 </wgt>
</rwgt>
</event>
<event>
 4      1 +1.0153100e-05 5.28763500e+02 7.81860800e-03 9.33761000e-02
        2 -1    0    0  501    0 +0.0000000000e+00 +0.0000000000e+00 +1.0048628302e+03 1.0048628302e+03 0.0000000000e+00 0.0000e+00 -1.0000e+00
       -2 -1    0    0    0  501 -0.0000000000e+00 -0.0000000000e+00 -6.9559453542e+01 6.9559453542e+01 0.0000000000e+00 0.0000e+00 1.0000e+00
      -13  1    1    2    0    0 +7.0130662218e+01 +2.5288248445e+02 +5.3285959176e+02 5.9397576150e+02 0.0000000000e+00 0.0000e+00 1.0000e+00
       13  1    1    2    0    0 -7.0130662218e+01 -2.5288248445e+02 +4.0244378492e+02 4.8044652226e+02 0.0000000000e+00 0.0000e+00 -1.0000e+00
<mgrwt>
<rscale>  0 0.52876350E+03</rscale>
<asrwt>0</asrwt>
<pdfrwt beam="1">  1        2 0.15459427E+00 0.52876350E+03</pdfrwt>
<pdfrwt beam="2">  1       -2 0.10701455E-01 0.52876350E+03</pdfrwt>
<totfact> 0.16996131E+03</totfact>
</mgrwt>
<rwgt>
<wgt id='morphing_basis_vector_1'> +1.8828221e-04 </wgt>
<wgt id='morphing_basis_vector_2'> +1.2776059e-04 </wgt>
<wgt id='morphing_basis_vector_3'> +1.3044687e-04 </wgt>
<wgt id='morphing_basis_vector_4'> +4.4215769e-05 </wgt>
<wgt id='morphing_basis_vector_5'> +7.0889079e-05 </wgt>
</rwgt>
</event>
<event>
 4      1 +1.0153100e-05 6.17167500e+02 7.81860800e-03 9.17017400e-02
        2 -1    0    0  501    0 +0.0000000000e+00 +0.0000000000e+00 +4.6690318254e+02 4.6690318254e+02 0.0000000000e+00 0.0000e+00 -1.0000e+00
       -2 -1    0    0    0  501 -0.0000000000e+00 -0.0000000000e+00 -2.0394793982e+02 2.0394793982e+02 0.0000000000e+00 0.0000e+00 1.0000e+00
      -13  1    1    2    0    0 +3.0716314521e+02 -2.7272139470e+01 +1.4391752334e+02 3.4030166161e+02 0.0000000000e+00 0.0000e+00 1.0000e+00
       13  1    1    2    0    0 -3.0716314521e+02 +2.7272139470e+01 +1.1903771938e+02 3.3054946075e+02 0.0000000000e+00 0.0000e+00 -1.0000e+00
<mgrwt>
<rscale>  0 0.61716754E+03</rscale>
<asrwt>0</asrwt>
<pdfrwt beam="1">  1        2 0.71831259E-01 0.61716754E+03</pdfrwt>
<pdfrwt beam="2">  1       -2 0.31376606E-01 0.61716754E+03</pdfrwt>
<totfact> 0.73573560E+02</totfact>
</mgrwt>
<rwgt>
<wgt id='morphing_basis_vector_1'> +3.0473535e-04 </wgt>
<wgt id='morphing_basis_vector_2'> +2.0301445e-04 </wgt>
<wgt id='morphing_basis_vector_3'> +2.3682356e-04 </wgt>
<wgt id='morphing_basis_vector_4'> +9.5952007e-05 </wgt>
<wgt id='morphing_basis_vector_5'> +1.6000089e-04 </wgt>
</rwgt>
</event>
<event>
 4      1 +1.0153100e-05 6.05426700e+02 7.81860800e-03 9.19064100e-02
        2 -1    0    0  501    0 +0.0000000000e+00 +0.0000000000e+00 +3.2119306029e+02 3.2119306029e+02 0.0000000000e+00 0.0000e+00 -1.0000e+00
       -2 -1    0    0    0  501 -0.0000000000e+00 -0.0000000000e+00 -2.8529690564e+02 2.8529690564e+02 0.0000000000e+00 0.0000e+00 1.0000e+00
      -13  1    1    2    0    0 -1.1631279446e+02 +6.2866124637e+01 -2.5484351373e+02 2.8709934217e+02 0.0000000000e+00 0.0000e+00 1.0000e+00
       13  1    1    2    0    0 +1.1631279446e+02 -6.2866124637e+01 +2.9073966838e+02 3.1939062377e+02 0.0000000000e+00 0.0000e+00 -1.0000e+00
<mgrwt>
<rscale>  0 0.60542675E+03</rscale>
<asrwt>0</asrwt>
<pdfrwt beam="1">  1        2 0.49414317E-01 0.60542675E+03</pdfrwt>
<pdfrwt beam="2">  1       -2 0.43891831E-01 0.60542675E+03</pdfrwt>
<totfact> 0.60679228E+02</totfact>
</mgrwt>
<rwgt>
<wgt id='morphing_basis_vector_1'> +2.7542427e-04 </wgt>
<wgt id='morphing_basis_vector_2'> +1.5677183e-04 </wgt>
<wgt id='morphing_basis_vector_3'> +2.1941085e-04 </wgt>
<wgt id='morphing_basis_vector_4'> +9.6003436e-05 </wgt>
<wgt id='morphing_basis_vector_5'> +1.4515156e-04 </wgt>
</rwgt>
</event>
<event>
 4      1 +1.0153100e-05 5.79113600e+02 7.81860800e-03 9.23834600e-02
        2 -1    0    0  501    0 +0.0000000000e+00 +0.0000000000e+00 +1.9483457582e+02 1.9483457582e+02 0.0000000000e+00 0.0000e+00 -1.0000e+00
       -2 -1    0    0    0  501 -0.0000000000e+00 -0.0000000000e+00 -4.3032991339e+02 4.3032991339e+02 0.0000000000e+00 0.0000e+00 1.0000e+00
      -13  1    1    2    0    0 +1.3078611649e+02 +4.5592210762e+01 -3.9225038966e+02 4.1598560809e+02 0.0000000000e+00 0.0000e+00 1.0000e+00
       13  1    1    2    0    0 -1.3078611649e+02 -4.5592210762e+01 +1.5675505209e+02 2.0917888112e+02 0.0000000000e+00 0.0000e+00 -1.0000e+00
<mgrwt>
<rscale>  0 0.57911362E+03</rscale>
<asrwt>0</asrwt>
<pdfrwt beam="1">  1        2 0.29974550E-01 0.57911362E+03</pdfrwt>
<pdfrwt beam="2">  1       -2 0.66204602E-01 0.57911362E+03</pdfrwt>
<totfact> 0.47271446E+02</totfact>
</mgrwt>
<rwgt>
<wgt id='morphing_basis_vector_1'> +2.3853521e-04 </wgt>
<wgt id='morphing_basis_vector_2'> +1.3457370e-04 </wgt>
<wgt id='morphing_basis_vector_3'> +1.8579846e-04 </wgt>
<wgt id='morphing_basis_vector_4'> +7.7214541e-05 </wgt>
<wgt id='morphing_basis_vector_5'> +1.1537751e-04 </wgt>
</rwgt>
</event>
<event>
 4      1 +1.0153100e-05 5.72723400e+02 7.81860800e-03 9.25033800e-02
        2 -1    0    0  501    0 +0.0000000000e+00 +0.0000000000e+00 +2.3492435403e+02 2.3492435403e+02 0.0000000000e+00 0.0000e+00 -1.0000e+00
       -2 -1    0    0    0  501 -0.0000000000e+00 -0.0000000000e+00 -3.4906133634e+02 3.4906133634e+02 0.0000000000e+00 0.0000e+00 1.0000e+00
      -13  1    1    2    0    0 +1.2590219800e+02 -1.4468105591e+02 -2.7389779377e+02 3.3437101075e+02 0.0000000000e+00 0.0000e+00 1.0000e+00
       13  1    1    2    0    0 -1.2590219800e+02 +1.4468105591e+02 +1.5976081146e+02 2.4961467961e+02 0.0000000000e+00 0.0000e+00 -1.0000e+00
<mgrwt>
<rscale>  0 0.57272335E+03</rscale>
<asrwt>0</asrwt>
<pdfrwt beam="1">  1        2 0.36142208E-01 0.57272335E+03</pdfrwt>
<pdfrwt beam="2">  1       -2 0.53701744E-01 0.57272335E+03</pdfrwt>
<totfact> 0.58450543E+02</totfact>
</mgrwt>
<rwgt>
<wgt id='morphing_basis_vector_1'> +2.3035860e-04 </wgt>
<wgt id='morphing_basis_vector_2'> +1.3005339e-04 </wgt>
<wgt id='morphing_basis_vector_3'> +1.7827691e-04 </wgt>
<wgt id='morphing_basis_vector_4'> +7.2990127e-05 </wgt>
<wgt id='morphing_basis_vector_5'> +1.0884673e-04 </wgt>
</rwgt>
</event>
<event>
 4      1 +1.0153100e-05 5.81312500e+02 7.81860800e-03 9.23425800e-02
        2 -1    0    0  501    0 +0.0000000000e+00 +0.0000000000e+00 +1.2405167645e+02 1.2405167645e+02 0.0000000000e+00 0.0000e+00 -1.0000e+00
       -2 -1    0    0    0  501 -0.0000000000e+00 -0.0000000000e+00 -6.8101499587e+02 6.8101499587e+02 0.0000000000e+00 0.0000e+00 1.0000e+00
      -13  1    1    2    0    0 -2.9013987626e+02 +1.7217507163e+01 -2.8105833179e+02 4.0431593614e+02 0.0000000000e+00 0.0000e+00 1.0000e+00
       13  1    1    2    0    0 +2.9013987626e+02 -1.7217507163e+01 -2.7590498763e+02 4.0075073618e+02 0.0000000000e+00 0.0000e+00 -1.0000e+00
<mgrwt>
<rscale>  0 0.58131249E+03</rscale>
<asrwt>0</asrwt>
<pdfrwt beam="1">  1        2 0.19084873E-01 0.58131249E+03</pdfrwt>
<pdfrwt beam="2">  1       -2 0.10477154E+00 0.58131249E+03</pdfrwt>
<totfact> 0.28395395E+02</totfact>
</mgrwt>
<rwgt>
<wgt id='morphing_basis_vector_1'> +2.4941153e-04 </wgt>
<wgt id='morphing_basis_vector_2'> +1.6101148e-04 </wgt>
<wgt id='morphing_basis_vector_3'> +1.8801778e-04 </wgt>
<wgt id='morphing_basis_vector_4'> +7.3035134e-05 </wgt>
<wgt id='morphing_basis_vector_5'> +1.1777824e-04 </wgt>
</rwgt>
</event>
<event>
 4      1 +1.0153100e-05 5.49640300e+02 7.81860800e-03 9.29508000e-02
        2 -1    0    0  501    0 +0.0000000000e+00 +0.0000000000e+00 +5.3302026213e+02 5.3302026213e+02 0.0000000000e+00 0.0000e+00 -1.0000e+00
       -2 -1    0    0    0  501 -0.0000000000e+00 -0.0000000000e+00 -1.4169462276e+02 1.4169462276e+02 0.0000000000e+00 0.0000e+00 1.0000e+00
      -13  1    1    2    0    0 +1.0186956361e+02 +1.0741325628e+02 -8.8566625709e+01 1.7250815286e+02 0.0000000000e+00 0.0000e+00 1.0000e+00
       13  1    1    2    0    0 -1.0186956361e+02 -1.0741325628e+02 +4.7989226508e+02 5.0220673203e+02 0.0000000000e+00 0.0000e+00 -1.0000e+00
<mgrwt>
<rscale>  0 0.54964026E+03</rscale>
<asrwt>0</asrwt>
<pdfrwt beam="1">  1        2 0.82003116E-01 0.54964026E+03</pdfrwt>
<pdfrwt beam="2">  1       -2 0.21799173E-01 0.54964026E+03</pdfrwt>
<totfact> 0.11846765E+03</totfact>
</mgrwt>
<rwgt>
<wgt id='morphing_basis_vector_1'> +2.0209713e-04 </wgt>
<wgt id='morphing_basis_vector_2'> +1.1290143e-04 </wgt>
<wgt id='morphing_basis_vector_3'> +1.5316294e-04 </wgt>
<wgt id='morphing_basis_vector_4'> +5.9519286e-05 </wgt>
<wgt id='morphing_basis_vector_5'> +8.7364407e-05 </wgt>
</rwgt>
</event>
<event>
 4      1 +1.0153100e-05 5.52969600e+02 7.81860800e-03 9.28848400e-02
        2 -1    0    0  501    0 +0.0000000000e+00 +0.0000000000e+00 +4.5151598065e+02 4.5151598065e+02 0.0000000000e+00 0.0000e+00 -1.0000e+00
       -2 -1    0    0    0  501 -0.0000000000e+00 -0.0000000000e+00 -1.6930483189e+02 1.6930483189e+02 0.0000000000e+00 0.0000e+00 1.0000e+00
      -13  1    1    2    0    0 -2.4749419951e+02 +1.3170839787e-01 +2.7329350627e+00 2.4750932320e+02 0.0000000000e+00 0.0000e+00 1.0000e+00
       13  1    1    2    0    0 +2.4749419951e+02 -1.3170839787e-01 +2.7947821370e+02 3.7331148934e+02 0.0000000000e+00 0.0000e+00 -1.0000e+00
<mgrwt>
<rscale>  0 0.55296957E+03</rscale>
<asrwt>0</asrwt>
<pdfrwt beam="1">  1        2 0.69463997E-01 0.55296957E+03</pdfrwt>
<pdfrwt beam="2">  1       -2 0.26046897E-01 0.55296957E+03</pdfrwt>
<totfact> 0.10576713E+03</totfact>
</mgrwt>
<rwgt>
<wgt id='morphing_basis_vector_1'> +2.0702211e-04 </wgt>
<wgt id='morphing_basis_vector_2'> +1.1846070e-04 </wgt>
<wgt id='morphing_basis_vector_3'> +1.5642090e-04 </wgt>
<wgt id='morphing_basis_vector_4'> +6.0711636e-05 </wgt>
<wgt id='morphing_basis_vector_5'> +9.0287300e-05 </wgt>
</rwgt>
</event>
<event>
 4      1 +1.0153100e-05 5.93770000e+02 7.81860800e-03 9.21145100e-02
        2 -1    0    0  501    0 +0.0000000000e+00 +0.0000000000e+00 +8.7092050081e+02 8.7092050081e+02 0.0000000000e+00 0.0000e+00 -1.0000e+00
       -2 -1    0    0    0  501 -0.0000000000e+00 -0.0000000000e+00 -1.0120406814e+02 1.0120406814e+02 0.0000000000e+00 0.0000e+00 1.0000e+00
      -13  1    1    2    0    0 -2.6491588859e+02 +9.7641227975e+01 +2.3456953610e+02 3.6706553188e+02 0.0000000000e+00 0.0000e+00 1.0000e+00
       13  1    1    2    0    0 +2.6491588859e+02 -9.7641227975e+01 +5.3514689657e+02 6.0505903706e+02 0.0000000000e+00 0.0000e+00 -1.0000e+00
<mgrwt>
<rscale>  0 0.59376998E+03</rscale>
<asrwt>0</asrwt>
<pdfrwt beam="1">  1        2 0.13398776E+00 0.59376998E+03</pdfrwt>
<pdfrwt beam="2">  1       -2 0.15569857E-01 0.59376998E+03</pdfrwt>
<totfact> 0.11355625E+03</totfact>
</mgrwt>
<rwgt>
<wgt id='morphing_basis_vector_1'> +2.6114442e-04 </wgt>
<wgt id='morphing_basis_vector_2'> +1.5463306e-04 </wgt>
<wgt id='morphing_basis_vector_3'> +2.0396150e-04 </wgt>
<wgt id='morphing_basis_vector_4'> +8.5367264e-05 </wgt>
<wgt id='morphing_basis_vector_5'> +1.3139477e-04 </wgt>
</rwgt>
</event>
<event>
 4      1 +1.0153100e-05 5.86910800e+02 7.81860800e-03 9.22393500e-02
        2 -1    0    0  501    0 +0.0000000000e+00 +0.0000000000e+00 +1.1614933105e+02 1.1614933105e+02 0.0000000000e+00 0.0000e+00 -1.0000e+00
       -2 -1    0    0    0  501 -0.0000000000e+00 -0.0000000000e+00 -7.4142556972e+02 7.4142556972e+02 0.0000000000e+00 0.0000e+00 1.0000e+00
      -13  1    1    2    0    0 +2.4440306457e+02 +1.3271053295e+02 -1.7579342566e+02 3.2901105153e+02 0.0000000000e+00 0.0000e+00 1.0000e+00
       13  1    1    2    0    0 -2.4440306457e+02 -1.3271053295e+02 -4.4948281301e+02 5.2856384923e+02 0.0000000000e+00 0.0000e+00 -1.0000e+00
<mgrwt>
<rscale>  0 0.58691084E+03</rscale>
<asrwt>0</asrwt>
<pdfrwt beam="1">  1        2 0.17869128E-01 0.58691084E+03</pdfrwt>
<pdfrwt beam="2">  1       -2 0.11406547E+00 0.58691084E+03</pdfrwt>
<totfact> 0.24877795E+02</totfact>
</mgrwt>
<rwgt>
<wgt id='morphing_basis_vector_1'> +2.7417750e-04 </wgt>
<wgt id='morphing_basis_vector_2'> +2.1890642e-04 </wgt>
<wgt id='morphing_basis_vector_3'> +1.9452073e-04 </wgt>
<wgt id='morphing_basis_vector_4'> +6.4175088e-05 </wgt>
<wgt id='morphing_basis_vector_5'> +1.2394978e-04 </wgt>
</rwgt>
</event>
<event>
 4      1 +1.0153100e-05 5.35575800e+02 7.81860800e-03 9.32350500e-02
        2 -1    0    0  501    0 +0.0000000000e+00 +0.0000000000e+00 +6.4900734144e+02 6.4900734144e+02 0.0000000000e+00 0.0000e+00 1.0000e+00
       -2 -1    0    0    0  501 -0.0000000000e+00 -0.0000000000e+00 -1.1049236981e+02 1.1049236981e+02 0.0000000000e+00 0.0000e+00 -1.0000e+00
      -13  1    1    2    0    0 -1.8911670583e+01 -1.6596075036e+02 -2.7561715880e+01 1.6929344383e+02 0.0000000000e+00 0.0000e+00 -1.0000e+00
       13  1    1    2    0    0 +1.8911670583e+01 +1.6596075036e+02 +5.6607668751e+02 5.9020626741e+02 0.0000000000e+00 0.0000e+00 1.0000e+00
<mgrwt>
<rscale>  0 0.53557580E+03</rscale>
<asrwt>0</asrwt>
<pdfrwt beam="1">  1        2 0.99847281E-01 0.53557580E+03</pdfrwt>
<pdfrwt beam="2">  1       -2 0.16998826E-01 0.53557580E+03</pdfrwt>
<totfact> 0.14206352E+03</totfact>
</mgrwt>
<rwgt>
<wgt id='morphing_basis_vector_1'> +1.8643188e-04 </wgt>
<wgt id='morphing_basis_vector_2'> +1.0377406e-04 </wgt>
<wgt id='morphing_basis_vector_3'> +1.3929963e-04 </wgt>
<wgt id='morphing_basis_vector_4'> +5.2196494e-05 </wgt>
<wgt id='morphing_basis_vector_5'> +7.5814886e-05 </wgt>
</rwgt>
</event>
<event>
 4      1 +1.0153100e-05 5.27819600e+02 7.81860800e-03 9.33958200e-02
        2 -1    0    0  501    0 +0.0000000000e+00 +0.0000000000e+00 +4.5648265963e+02 4.5648265963e+02 0.0000000000e+00 0.0000e+00 -1.0000e+00
       -2 -1    0    0    0  501 -0.0000000000e+00 -0.0000000000e+00 -1.5257620453e+02 1.5257620453e+02 0.0000000000e+00 0.0000e+00 1.0000e+00
      -13  1    1    2    0    0 -2.4140525316e+02 -2.7383592840e+01 +3.3027018613e+01 2.4518797150e+02 0.0000000000e+00 0.0000e+00 1.0000e+00
       13  1    1    2    0    0 +2.4140525316e+02 +2.7383592840e+01 +2.7087943649e+02 3.6387089266e+02 0.0000000000e+00 0.0000e+00 -1.0000e+00
<mgrwt>
<rscale>  0 0.52781963E+03</rscale>
<asrwt>0</asrwt>
<pdfrwt beam="1">  1        2 0.70228101E-01 0.52781963E+03</pdfrwt>
<pdfrwt beam="2">  1       -2 0.23473262E-01 0.52781963E+03</pdfrwt>
<totfact> 0.12470359E+03</totfact>
</mgrwt>
<rwgt>
<wgt id='morphing_basis_vector_1'> +1.7933586e-04 </wgt>
<wgt id='morphing_basis_vector_2'> +1.0245288e-04 </wgt>
<wgt id='morphing_basis_vector_3'> +1.3178828e-04 </wgt>
<wgt id='morphing_basis_vector_4'> +4.7889022e-05 </wgt>
<wgt id='morphing_basis_vector_5'> +6.9948288e-05 </wgt>
</rwgt>
</event>
<event>
 4      1 +1.0153100e-05 6.08131100e+02 7.81860800e-03 9.18588300e-02
        2 -1    0    0  501    0 +0.0000000000e+00 +0.0000000000e+00 +1.4320094363e+02 1.4320094363e+02 0.0000000000e+00 0.0000e+00 -1.0000e+00
       -2 -1    0    0    0  501 -0.0000000000e+00 -0.0000000000e+00 -6.4563730010e+02 6.4563730010e+02 0.0000000000e+00 0.0000e+00 1.0000e+00
      -13  1    1    2    0    0 +2.2787336077e+02 +1.1086342501e+02 -4.6919716368e+02 5.3325692303e+02 0.0000000000e+00 0.0000e+00 1.0000e+00
       13  1    1    2    0    0 -2.2787336077e+02 -1.1086342501e+02 -3.3239192793e+01 2.5558132070e+02 0.0000000000e+00 0.0000e+00 -1.0000e+00
<mgrwt>
<rscale>  0 0.60813114E+03</rscale>
<asrwt>0</asrwt>
<pdfrwt beam="1">  1        2 0.22030915E-01 0.60813114E+03</pdfrwt>
<pdfrwt beam="2">  1       -2 0.99328814E-01 0.60813114E+03</pdfrwt>
<totfact> 0.27198675E+02</totfact>
</mgrwt>
<rwgt>
<wgt id='morphing_basis_vector_1'> +2.8030108e-04 </wgt>
<wgt id='morphing_basis_vector_2'> +1.6181235e-04 </wgt>
<wgt id='morphing_basis_vector_3'> +2.2316276e-04 </wgt>
<wgt id='morphing_basis_vector_4'> +9.7438956e-05 </wgt>
<wgt id='morphing_basis_vector_5'> +1.4848707e-04 </wgt>
</rwgt>
</event>
<event>
 4      1 +1.0153100e-05 5.82031400e+02 7.81860800e-03 9.23292500e-02
        2 -1    0    0  501    0 +0.0000000000e+00 +0.0000000000e+00 +3.1811485700e+02 3.1811485700e+02 0.0000000000e+00 0.0000e+00 -1.0000e+00
       -2 -1    0    0    0  501 -0.0000000000e+00 -0.0000000000e+00 -2.6622503554e+02 2.6622503554e+02 0.0000000000e+00 0.0000e+00 1.0000e+00
      -13  1    1    2    0    0 -1.4626922904e+02 -2.4956349800e+02 -6.0170645005e+00 2.8933169886e+02 0.0000000000e+00 0.0000e+00 1.0000e+00
       13  1    1    2    0    0 +1.4626922904e+02 +2.4956349800e+02 +5.7906885958e+01 2.9500819369e+02 0.0000000000e+00 0.0000e+00 -1.0000e+00
<mgrwt>
<rscale>  0 0.58203141E+03</rscale>
<asrwt>0</asrwt>
<pdfrwt beam="1">  1        2 0.48940747E-01 0.58203141E+03</pdfrwt>
<pdfrwt beam="2">  1       -2 0.40957698E-01 0.58203141E+03</pdfrwt>
<totfact> 0.69870039E+02</totfact>
</mgrwt>
<rwgt>
<wgt id='morphing_basis_vector_1'> +2.4785705e-04 </wgt>
<wgt id='morphing_basis_vector_2'> +1.5378124e-04 </wgt>
<wgt id='morphing_basis_vector_3'> +1.8903669e-04 </wgt>
<wgt id='morphing_basis_vector_4'> +7.5284999e-05 </wgt>
<wgt id='morphing_basis_vector_5'> +1.1850976e-04 </wgt>
</rwgt>
</event>
<event>
 4      1 +1.0153100e-05 5.95470300e+02 7.81860800e-03 9.20838400e-02
        2 -1    0    0  501    0 +0.0000000000e+00 +0.0000000000e+00 +2.0475910033e+03 2.0475910033e+03 0.0000000000e+00 0.0000e+00 -1.0000e+00
       -2 -1    0    0    0  501 -0.0000000000e+00 -0.0000000000e+00 -4.3292939142e+01 4.3292939142e+01 0.0000000000e+00 0.0000e+00 1.0000e+00
      -13  1    1    2    0    0 +1.2847575114e+02 +2.4809185902e+02 +6.4079661378e+02 6.9905356688e+02 0.0000000000e+00 0.0000e+00 1.0000e+00
       13  1    1    2    0    0 -1.2847575114e+02 -2.4809185902e+02 +1.3635014504e+03 1.3918303756e+03 0.0000000000e+00 0.0000e+00 -1.0000e+00
<mgrwt>
<rscale>  0 0.59547034E+03</rscale>
<asrwt>0</asrwt>
<pdfrwt beam="1">  1        2 0.31501393E+00 0.59547034E+03</pdfrwt>
<pdfrwt beam="2">  1       -2 0.66604538E-02 0.59547034E+03</pdfrwt>
<totfact> 0.92915631E+02</totfact>
</mgrwt>
<rwgt>
<wgt id='morphing_basis_vector_1'> +2.6318842e-04 </wgt>
<wgt id='morphing_basis_vector_2'> +1.5495454e-04 </wgt>
<wgt id='morphing_basis_vector_3'> +2.0617428e-04 </wgt>
<wgt id='morphing_basis_vector_4'> +8.6858301e-05 </wgt>
<wgt id='morphing_basis_vector_5'> +1.3334109e-04 </wgt>
</rwgt>
</event>
<event>
 4      1 +1.0153100e-05 5.97078000e+02 7.81860800e-03 9.20549500e-02
        2 -1    0    0  501    0 +0.0000000000e+00 +0.0000000000e+00 +3.8856483408e+02 3.8856483408e+02 0.0000000000e+00 0.0000e+00 -1.0000e+00
       -2 -1    0    0    0  501 -0.0000000000e+00 -0.0000000000e+00 -2.2937108983e+02 2.2937108983e+02 0.0000000000e+00 0.0000e+00 1.0000e+00
      -13  1    1    2    0    0 -1.3964235787e+02 -1.6863149038e+02 -1.3044352840e+02 2.5485698295e+02 0.0000000000e+00 0.0000e+00 1.0000e+00
       13  1    1    2    0    0 +1.3964235787e+02 +1.6863149038e+02 +2.8963727266e+02 3.6307894096e+02 0.0000000000e+00 0.0000e+00 -1.0000e+00
<mgrwt>
<rscale>  0 0.59707802E+03</rscale>
<asrwt>0</asrwt>
<pdfrwt beam="1">  1        2 0.59779205E-01 0.59707802E+03</pdfrwt>
<pdfrwt beam="2">  1       -2 0.35287860E-01 0.59707802E+03</pdfrwt>
<totfact> 0.73354120E+02</totfact>
</mgrwt>
<rwgt>
<wgt id='morphing_basis_vector_1'> +2.6357893e-04 </wgt>
<wgt id='morphing_basis_vector_2'> +1.5043582e-04 </wgt>
<wgt id='morphing_basis_vector_3'> +2.0826630e-04 </wgt>
<wgt id='morphing_basis_vector_4'> +8.9469534e-05 </wgt>
<wgt id='morphing_basis_vector_5'> +1.3519077e-04 </wgt>
</rwgt>
</event>
<event>
 4      1 +1.0153100e-05 5.70728600e+02 7.81860800e-03 9.25411500e-02
        2 -1    0    0  501    0 +0.0000000000e+00 +0.0000000000e+00 +1.1901354214e+03 1.1901354214e+03 0.0000000000e+00 0.0000e+00 1.0000e+00
       -2 -1    0    0    0  501 -0.0000000000e+00 -0.0000000000e+00 -6.8423131483e+01 6.8423131483e+01 0.0000000000e+00 0.0000e+00 -1.0000e+00
      -13  1    1    2    0    0 -2.3487141501e+02 -3.6026033728e+01 +2.1239371828e+02 3.1870605306e+02 0.0000000000e+00 0.0000e+00 -1.0000e+00
       13  1    1    2    0    0 +2.3487141501e+02 +3.6026033728e+01 +9.0931857168e+02 9.3985249986e+02 0.0000000000e+00 0.0000e+00 1.0000e+00
<mgrwt>
<rscale>  0 0.57072863E+03</rscale>
<asrwt>0</asrwt>
<pdfrwt beam="1">  1        2 0.18309774E+00 0.57072863E+03</pdfrwt>
<pdfrwt beam="2">  1       -2 0.10526636E-01 0.57072863E+03</pdfrwt>
<totfact> 0.13546381E+03</totfact>
</mgrwt>
<rwgt>
<wgt id='morphing_basis_vector_1'> +2.2831579e-04 </wgt>
<wgt id='morphing_basis_vector_2'> +1.3010388e-04 </wgt>
<wgt id='morphing_basis_vector_3'> +1.7593374e-04 </wgt>
<wgt id='morphing_basis_vector_4'> +7.1396956e-05 </wgt>
<wgt id='morphing_basis_vector_5'> +1.0686880e-04 </wgt>
</rwgt>
</event>
<event>
 4      1 +1.0153100e-05 5.30764500e+02 7.81860800e-03 9.33344300e-02
        2 -1    0    0  501    0 +0.0000000000e+00 +0.0000000000e+00 +1.3235095250e+03 1.3235095250e+03 0.0000000000e+00 0.0000e+00 -1.0000e+00
       -2 -1    0    0    0  501 -0.0000000000e+00 -0.0000000000e+00 -5.3212878591e+01 5.3212878591e+01 0.0000000000e+00 0.0000e+00 1.0000e+00
      -13  1    1    2    0    0 +2.3206437402e+01 -1.8941265576e+02 +1.5678163151e+02 2.4697403280e+02 0.0000000000e+00 0.0000e+00 1.0000e+00
       13  1    1    2    0    0 -2.3206437402e+01 +1.8941265576e+02 +1.1135150149e+03 1.1297483708e+03 0.0000000000e+00 0.0000e+00 -1.0000e+00
<mgrwt>
<rscale>  0 0.53076455E+03</rscale>
<asrwt>0</asrwt>
<pdfrwt beam="1">  1        2 0.20361683E+00 0.53076455E+03</pdfrwt>
<pdfrwt beam="2">  1       -2 0.81865976E-02 0.53076455E+03</pdfrwt>
<totfact> 0.16868028E+03</totfact>
</mgrwt>
<rwgt>
<wgt id='morphing_basis_vector_1'> +1.8140509e-04 </wgt>
<wgt id='morphing_basis_vector_2'> +1.0110158e-04 </wgt>
<wgt id='morphing_basis_vector_3'> +1.3477088e-04 </wgt>
<wgt id='morphing_basis_vector_4'> +4.9801236e-05 </wgt>
<wgt id='morphing_basis_vector_5'> +7.2119427e-05 </wgt>
</rwgt>
</event>
<event>
 4      1 +1.0153100e-05 5.97808200e+02 7.81860800e-03 9.20418500e-02
        2 -1    0    0  501    0 +0.0000000000e+00 +0.0000000000e+00 +1.0233233808e+03 1.0233233808e+03 0.0000000000e+00 0.0000e+00 1.0000e+00
       -2 -1    0    0    0  501 -0.0000000000e+00 -0.0000000000e+00 -8.7307369281e+01 8.7307369281e+01 0.0000000000e+00 0.0000e+00 -1.0000e+00
      -13  1    1    2    0    0 +1.4264644197e+02 -9.1521930221e+01 +9.2542639399e+02 9.4081787919e+02 0.0000000000e+00 0.0000e+00 1.0000e+00
       13  1    1    2    0    0 -1.4264644197e+02 +9.1521930221e+01 +1.0589617522e+01 1.6981287088e+02 0.0000000000e+00 0.0000e+00 -1.0000e+00
<mgrwt>
<rscale>  0 0.59780824E+03</rscale>
<asrwt>0</asrwt>
<pdfrwt beam="1">  1        2 0.15743436E+00 0.59780824E+03</pdfrwt>
<pdfrwt beam="2">  1       -2 0.13431904E-01 0.59780824E+03</pdfrwt>
<totfact> 0.11542407E+03</totfact>
</mgrwt>
<rwgt>
<wgt id='morphing_basis_vector_1'> +3.5180181e-04 </wgt>
<wgt id='morphing_basis_vector_2'> +4.2139675e-04 </wgt>
<wgt id='morphing_basis_vector_3'> +2.1018841e-04 </wgt>
<wgt id='morphing_basis_vector_4'> +2.3460747e-05 </wgt>
<wgt id='morphing_basis_vector_5'> +1.3654260e-04 </wgt>
</rwgt>
</event>
<event>
 4      1 +1.0153100e-05 5.57320000e+02 7.81860800e-03 9.27993900e-02
        2 -1    0    0  501    0 +0.0000000000e+00 +0.0000000000e+00 +8.0648932780e+01 8.0648932780e+01 0.0000000000e+00 0.0000e+00 -1.0000e+00
       -2 -1    0    0    0  501 -0.0000000000e+00 -0.0000000000e+00 -9.6283225015e+02 9.6283225015e+02 0.0000000000e+00 0.0000e+00 1.0000e+00
      -13  1    1    2    0    0 +1.3735575868e+02 -1.1246800960e+02 -8.4325152251e+02 8.6173591537e+02 0.0000000000e+00 0.0000e+00 1.0000e+00
       13  1    1    2    0    0 -1.3735575868e+02 +1.1246800960e+02 -3.8931794854e+01 1.8174526755e+02 0.0000000000e+00 0.0000e+00 -1.0000e+00
<mgrwt>
<rscale>  0 0.55731999E+03</rscale>
<asrwt>0</asrwt>
<pdfrwt beam="1">  1        2 0.12407529E-01 0.55731999E+03</pdfrwt>
<pdfrwt beam="2">  1       -2 0.14812803E+00 0.55731999E+03</pdfrwt>
<totfact> 0.19447938E+02</totfact>
</mgrwt>
<rwgt>
<wgt id='morphing_basis_vector_1'> +2.1120162e-04 </wgt>
<wgt id='morphing_basis_vector_2'> +1.1849439e-04 </wgt>
<wgt id='morphing_basis_vector_3'> +1.6117198e-04 </wgt>
<wgt id='morphing_basis_vector_4'> +6.3758214e-05 </wgt>
<wgt id='morphing_basis_vector_5'> +9.4154423e-05 </wgt>
</rwgt>
</event>
<event>
 4      1 +1.0153100e-05 5.76257600e+02 7.81860800e-03 9.24368500e-02
        2 -1    0    0  501    0 +0.0000000000e+00 +0.0000000000e+00 +8.7201739823e+02 8.7201739823e+02 0.0000000000e+00 0.0000e+00 -1.0000e+00
       -2 -1    0    0    0  501 -0.0000000000e+00 -0.0000000000e+00 -9.5202469917e+01 9.5202469917e+01 0.0000000000e+00 0.0000e+00 1.0000e+00
      -13  1    1    2    0    0 +2.7629383394e+02 +8.1730301604e+01 +3.8791739662e+02 4.8321634024e+02 0.0000000000e+00 0.0000e+00 1.0000e+00
       13  1    1    2    0    0 -2.7629383394e+02 -8.1730301604e+01 +3.8889753170e+02 4.8400352791e+02 0.0000000000e+00 0.0000e+00 -1.0000e+00
<mgrwt>
<rscale>  0 0.57625762E+03</rscale>
<asrwt>0</asrwt>
<pdfrwt beam="1">  1        2 0.13415652E+00 0.57625762E+03</pdfrwt>
<pdfrwt beam="2">  1       -2 0.14646534E-01 0.57625762E+03</pdfrwt>
<totfact> 0.12514972E+03</totfact>
</mgrwt>
<rwgt>
<wgt id='morphing_basis_vector_1'> +2.4266172e-04 </wgt>
<wgt id='morphing_basis_vector_2'> +1.5677538e-04 </wgt>
<wgt id='morphing_basis_vector_3'> +1.8183512e-04 </wgt>
<wgt id='morphing_basis_vector_4'> +6.9906591e-05 </wgt>
<wgt id='morphing_basis_vector_5'> +1.1252997e-04 </wgt>
</rwgt>
</event>
<event>
 4      1 +1.0153100e-05 5.71140900e+02 7.81860800e-03 9.25333300e-02
        2 -1    0    0  501    0 +0.0000000000e+00 +0.0000000000e+00 +3.0823172655e+02 3.0823172655e+02 0.0000000000e+00 0.0000e+00 -1.0000e+00
       -2 -1    0    0    0  501 -0.0000000000e+00 -0.0000000000e+00 -2.6457523626e+02 2.6457523626e+02 0.0000000000e+00 0.0000e+00 1.0000e+00
      -13  1    1    2    0    0 +2.6314693008e+00 -2.1062091472e+02 -1.7156159902e+02 2.7166427186e+02 0.0000000000e+00 0.0000e+00 1.0000e+00
       13  1    1    2    0    0 -2.6314693008e+00 +2.1062091472e+02 +2.1521808931e+02 3.0114269095e+02 0.0000000000e+00 0.0000e+00 -1.0000e+00
<mgrwt>
<rscale>  0 0.57114090E+03</rscale>
<asrwt>0</asrwt>
<pdfrwt beam="1">  1        2 0.47420266E-01 0.57114090E+03</pdfrwt>
<pdfrwt beam="2">  1       -2 0.40703882E-01 0.57114090E+03</pdfrwt>
<totfact> 0.73230814E+02</totfact>
</mgrwt>
<rwgt>
<wgt id='morphing_basis_vector_1'> +2.2846526e-04 </wgt>
<wgt id='morphing_basis_vector_2'> +1.2925146e-04 </wgt>
<wgt id='morphing_basis_vector_3'> +1.7644222e-04 </wgt>
<wgt id='morphing_basis_vector_4'> +7.1906749e-05 </wgt>
<wgt id='morphing_basis_vector_5'> +1.0727138e-04 </wgt>
</rwgt>
</event>
<event>
 4      1 +1.0153100e-05 5.60885700e+02 7.81860800e-03 9.27299700e-02
        2 -1    0    0  501    0 +0.0000000000e+00 +0.0000000000e+00 +6.1692529395e+02 6.1692529395e+02 0.0000000000e+00 0.0000e+00 -1.0000e+00
       -2 -1    0    0    0  501 -0.0000000000e+00 -0.0000000000e+00 -1.2748415673e+02 1.2748415673e+02 0.0000000000e+00 0.0000e+00 1.0000e+00
      -13  1    1    2    0    0 +6.8901505740e+01 -9.6786026494e+01 -9.2434155920e+01 1.5052915199e+02 0.0000000000e+00 0.0000e+00 1.0000e+00
       13  1    1    2    0    0 -6.8901505740e+01 +9.6786026494e+01 +5.8187529314e+02 5.9388029870e+02 0.0000000000e+00 0.0000e+00 -1.0000e+00
<mgrwt>
<rscale>  0 0.56088573E+03</rscale>
<asrwt>0</asrwt>
<pdfrwt beam="1">  1        2 0.94911582E-01 0.56088573E+03</pdfrwt>
<pdfrwt beam="2">  1       -2 0.19612948E-01 0.56088573E+03</pdfrwt>
<totfact> 0.11924570E+03</totfact>
</mgrwt>
<rwgt>
<wgt id='morphing_basis_vector_1'> +2.1539243e-04 </wgt>
<wgt id='morphing_basis_vector_2'> +1.2070630e-04 </wgt>
<wgt id='morphing_basis_vector_3'> +1.6502555e-04 </wgt>
<wgt id='morphing_basis_vector_4'> +6.5893688e-05 </wgt>
<wgt id='morphing_basis_vector_5'> +9.7423660e-05 </wgt>
</rwgt>
</event>
<event>
 4      1 +1.0153100e-05 5.20342700e+02 7.81860800e-03 9.35536200e-02
        2 -1    0    0  501    0 +0.0000000000e+00 +0.0000000000e+00 +7.8143823439e+02 7.8143823439e+02 0.0000000000e+00 0.0000e+00 1.0000e+00
       -2 -1    0    0    0  501 -0.0000000000e+00 -0.0000000000e+00 -8.6621210307e+01 8.6621210307e+01 0.0000000000e+00 0.0000e+00 -1.0000e+00
      -13  1    1    2    0    0 +2.2901229826e+02 -1.8224532539e+01 +5.5111463043e+02 5.9708131960e+02 0.0000000000e+00 0.0000e+00 1.0000e+00
       13  1    1    2    0    0 -2.2901229826e+02 +1.8224532539e+01 +1.4370239365e+02 2.7097812510e+02 0.0000000000e+00 0.0000e+00 -1.0000e+00
<mgrwt>
<rscale>  0 0.52034268E+03</rscale>
<asrwt>0</asrwt>
<pdfrwt beam="1">  1        2 0.12022126E+00 0.52034268E+03</pdfrwt>
<pdfrwt beam="2">  1       -2 0.13326341E-01 0.52034268E+03</pdfrwt>
<totfact> 0.16767958E+03</totfact>
</mgrwt>
<rwgt>
<wgt id='morphing_basis_vector_1'> +1.9732973e-04 </wgt>
<wgt id='morphing_basis_vector_2'> +1.7761075e-04 </wgt>
<wgt id='morphing_basis_vector_3'> +1.1701043e-04 </wgt>
<wgt id='morphing_basis_vector_4'> +3.2132018e-05 </wgt>
<wgt id='morphing_basis_vector_5'> +6.5415656e-05 </wgt>
</rwgt>
</event>
<event>
 4      1 +1.0153100e-05 6.07582200e+02 7.81860800e-03 9.18684700e-02
        2 -1    0    0  501    0 +0.0000000000e+00 +0.0000000000e+00 +9.9845827474e+02 9.9845827474e+02 0.0000000000e+00 0.0000e+00 -1.0000e+00
       -2 -1    0    0    0  501 -0.0000000000e+00 -0.0000000000e+00 -9.2431524609e+01 9.2431524609e+01 0.0000000000e+00 0.0000e+00 1.0000e+00
      -13  1    1    2    0    0 -3.1935301586e+01 -2.5924286679e+02 +1.7450107938e+02 3.1412951815e+02 0.0000000000e+00 0.0000e+00 1.0000e+00
       13  1    1    2    0    0 +3.1935301586e+01 +2.5924286679e+02 +7.3152567076e+02 7.7676028120e+02 0.0000000000e+00 0.0000e+00 -1.0000e+00
<mgrwt>
<rscale>  0 0.60758216E+03</rscale>
<asrwt>0</asrwt>
<pdfrwt beam="1">  1        2 0.15360896E+00 0.60758216E+03</pdfrwt>
<pdfrwt beam="2">  1       -2 0.14220235E-01 0.60758216E+03</pdfrwt>
<totfact> 0.10906083E+03</totfact>
</mgrwt>
<rwgt>
<wgt id='morphing_basis_vector_1'> +2.7970038e-04 </wgt>
<wgt id='morphing_basis_vector_2'> +1.6200515e-04 </wgt>
<wgt id='morphing_basis_vector_3'> +2.2241456e-04 </wgt>
<wgt id='morphing_basis_vector_4'> +9.6833643e-05 </wgt>
<wgt id='morphing_basis_vector_5'> +1.4780676e-04 </wgt>
</rwgt>
</event>
<event>
 4      1 +1.0153100e-05 5.86686500e+02 7.81860800e-03 9.22434600e-02
        2 -1    0    0  501    0 +0.0000000000e+00 +0.0000000000e+00 +7.8622668140e+02 7.8622668140e+02 0.0000000000e+00 0.0000e+00 1.0000e+00
       -2 -1    0    0    0  501 -0.0000000000e+00 -0.0000000000e+00 -1.0944712716e+02 1.0944712716e+02 0.0000000000e+00 0.0000e+00 -1.0000e+00
      -13  1    1    2    0    0 +1.3663039500e+02 -3.6202946988e+01 -5.4030696052e+01 1.5132030375e+02 0.0000000000e+00 0.0000e+00 -1.0000e+00
       13  1    1    2    0    0 -1.3663039500e+02 +3.6202946988e+01 +7.3081025029e+02 7.4435350482e+02 0.0000000000e+00 0.0000e+00 1.0000e+00
<mgrwt>
<rscale>  0 0.58668646E+03</rscale>
<asrwt>0</asrwt>
<pdfrwt beam="1">  1        2 0.12095795E+00 0.58668646E+03</pdfrwt>
<pdfrwt beam="2">  1       -2 0.16838020E-01 0.58668646E+03</pdfrwt>
<totfact> 0.11410899E+03</totfact>
</mgrwt>
<rwgt>
<wgt id='morphing_basis_vector_1'> +2.4871990e-04 </wgt>
<wgt id='morphing_basis_vector_2'> +1.4069438e-04 </wgt>
<wgt id='morphing_basis_vector_3'> +1.9502048e-04 </wgt>
<wgt id='morphing_basis_vector_4'> +8.2314973e-05 </wgt>
<wgt id='morphing_basis_vector_5'> +1.2346440e-04 </wgt>
</rwgt>
</event>
<event>
 4      1 +1.0153100e-05 5.91430200e+02 7.81860800e-03 9.21569000e-02
        2 -1    0    0  501    0 +0.0000000000e+00 +0.0000000000e+00 +2.2404929207e+02 2.2404929207e+02 0.0000000000e+00 0.0000e+00 -1.0000e+00
       -2 -1    0    0    0  501 -0.0000000000e+00 -0.0000000000e+00 -3.9030439479e+02 3.9030439479e+02 0.0000000000e+00 0.0000e+00 1.0000e+00
      -13  1    1    2    0    0 -1.6221867795e+02 +1.8029028554e+02 -2.5888348236e+02 3.5473954385e+02 0.0000000000e+00 0.0000e+00 1.0000e+00
       13  1    1    2    0    0 +1.6221867795e+02 -1.8029028554e+02 +9.2628379639e+01 2.5961414301e+02 0.0000000000e+00 0.0000e+00 -1.0000e+00
<mgrwt>
<rscale>  0 0.59143021E+03</rscale>
<asrwt>0</asrwt>
<pdfrwt beam="1">  1        2 0.34469122E-01 0.59143021E+03</pdfrwt>
<pdfrwt beam="2">  1       -2 0.60046830E-01 0.59143021E+03</pdfrwt>
<totfact> 0.49260602E+02</totfact>
</mgrwt>
<rwgt>
<wgt id='morphing_basis_vector_1'> +2.5593827e-04 </wgt>
<wgt id='morphing_basis_vector_2'> +1.4669458e-04 </wgt>
<wgt id='morphing_basis_vector_3'> +2.0097152e-04 </wgt>
<wgt id='morphing_basis_vector_4'> +8.5141597e-05 </wgt>
<wgt id='morphing_basis_vector_5'> +1.2873046e-04 </wgt>
</rwgt>
</event>
<event>
 4      1 +1.0153100e-05 5.38102100e+02 7.81860800e-03 9.31833100e-02
        2 -1    0    0  501    0 +0.0000000000e+00 +0.0000000000e+00 +4.0892455811e+02 4.0892455811e+02 0.0000000000e+00 0.0000e+00 -1.0000e+00
       -2 -1    0    0    0  501 -0.0000000000e+00 -0.0000000000e+00 -1.7702158992e+02 1.7702158992e+02 0.0000000000e+00 0.0000e+00 1.0000e+00
      -13  1    1    2    0    0 -2.2481393958e+02 +1.3481038043e+01 +2.7623049200e+02 3.5640753432e+02 0.0000000000e+00 0.0000e+00 1.0000e+00
       13  1    1    2    0    0 +2.2481393958e+02 -1.3481038043e+01 -4.4327523817e+01 2.2953861371e+02 0.0000000000e+00 0.0000e+00 -1.0000e+00
<mgrwt>
<rscale>  0 0.53810213E+03</rscale>
<asrwt>0</asrwt>
<pdfrwt beam="1">  1        2 0.62911470E-01 0.53810213E+03</pdfrwt>
<pdfrwt beam="2">  1       -2 0.27234091E-01 0.53810213E+03</pdfrwt>
<totfact> 0.10948257E+03</totfact>
</mgrwt>
<rwgt>
<wgt id='morphing_basis_vector_1'> +2.2611504e-04 </wgt>
<wgt id='morphing_basis_vector_2'> +2.2012365e-04 </wgt>
<wgt id='morphing_basis_vector_3'> +1.3303269e-04 </wgt>
<wgt id='morphing_basis_vector_4'> +3.3044695e-05 </wgt>
<wgt id='morphing_basis_vector_5'> +7.8800485e-05 </wgt>
</rwgt>
</event>
<event>
 4      1 +1.0153100e-05 5.60205000e+02 7.81860800e-03 9.27431800e-02
        2 -1    0    0  501    0 +0.0000000000e+00 +0.0000000000e+00 +1.2658669404e+03 1.2658669404e+03 0.0000000000e+00 0.0000e+00 -1.0000e+00
       -2 -1    0    0    0  501 -0.0000000000e+00 -0.0000000000e+00 -6.1979191431e+01 6.1979191431e+01 0.0000000000e+00 0.0000e+00 1.0000e+00
      -13  1    1    2    0    0 -8.9536706148e+00 +2.0938875056e+02 +1.6146847911e+02 2.6456735783e+02 0.0000000000e+00 0.0000e+00 1.0000e+00
       13  1    1    2    0    0 +8.9536706148e+00 -2.0938875056e+02 +1.0424192699e+03 1.0632787740e+03 0.0000000000e+00 0.0000e+00 -1.0000e+00
<mgrwt>
<rscale>  0 0.56020500E+03</rscale>
<asrwt>0</asrwt>
<pdfrwt beam="1">  1        2 0.19474874E+00 0.56020500E+03</pdfrwt>
<pdfrwt beam="2">  1       -2 0.95352612E-02 0.56020500E+03</pdfrwt>
<totfact> 0.14327875E+03</totfact>
</mgrwt>
<rwgt>
<wgt id='morphing_basis_vector_1'> +2.1487110e-04 </wgt>
<wgt id='morphing_basis_vector_2'> +1.2116300e-04 </wgt>
<wgt id='morphing_basis_vector_3'> +1.6424491e-04 </wgt>
<wgt id='morphing_basis_vector_4'> +6.5301687e-05 </wgt>
<wgt id='morphing_basis_vector_5'> +9.6798973e-05 </wgt>
</rwgt>
</event>
<event>
 4      1 +1.0153100e-05 5.67163100e+02 7.81860800e-03 9.26090800e-02
        2 -1    0    0  501    0 +0.0000000000e+00 +0.0000000000e+00 +8.5514463082e+01 8.5514463082e+01 0.0000000000e+00 0.0000e+00 -1.0000e+00
       -2 -1    0    0    0  501 -0.0000000000e+00 -0.0000000000e+00 -9.4040796633e+02 9.4040796633e+02 0.0000000000e+00 0.0000e+00 1.0000e+00
      -13  1    1    2    0    0 -8.2565611665e+01 -1.2641381606e+02 -8.6165372788e+02 8.7478264723e+02 0.0000000000e+00 0.0000e+00 1.0000e+00
       13  1    1    2    0    0 +8.2565611665e+01 +1.2641381606e+02 +6.7602246379e+00 1.5113978218e+02 0.0000000000e+00 0.0000e+00 -1.0000e+00
<mgrwt>
<rscale>  0 0.56716305E+03</rscale>
<asrwt>0</asrwt>
<pdfrwt beam="1">  1        2 0.13156072E-01 0.56716305E+03</pdfrwt>
<pdfrwt beam="2">  1       -2 0.14467815E+00 0.56716305E+03</pdfrwt>
<totfact> 0.19296709E+02</totfact>
</mgrwt>
<rwgt>
<wgt id='morphing_basis_vector_1'> +2.2317809e-04 </wgt>
<wgt id='morphing_basis_vector_2'> +1.2544018e-04 </wgt>
<wgt id='morphing_basis_vector_3'> +1.7195372e-04 </wgt>
<wgt id='morphing_basis_vector_4'> +6.9623932e-05 </wgt>
<wgt id='morphing_basis_vector_5'> +1.0337194e-04 </wgt>
</rwgt>
</event>
<event>
 4      1 +1.0153100e-05 5.65132300e+02 7.81860800e-03 9.26480100e-02
        2 -1    0    0  501    0 +0.0000000000e+00 +0.0000000000e+00 +3.5395517893e+02 3.5395517893e+02 0.0000000000e+00 0.0000e+00 1.0000e+00
       -2 -1    0    0    0  501 -0.0000000000e+00 -0.0000000000e+00 -2.2557552177e+02 2.2557552177e+02 0.0000000000e+00 0.0000e+00 -1.0000e+00
      -13  1    1    2    0    0 +2.0392869573e+02 +1.9137155606e+02 +1.0563790173e+02 2.9894707172e+02 0.0000000000e+00 0.0000e+00 1.0000e+00
       13  1    1    2    0    0 -2.0392869573e+02 -1.9137155606e+02 +2.2741755427e+01 2.8058362898e+02 0.0000000000e+00 0.0000e+00 -1.0000e+00
<mgrwt>
<rscale>  0 0.56513228E+03</rscale>
<asrwt>0</asrwt>
<pdfrwt beam="1">  1        2 0.54454643E-01 0.56513228E+03</pdfrwt>
<pdfrwt beam="2">  1       -2 0.34703926E-01 0.56513228E+03</pdfrwt>
<totfact> 0.83982664E+02</totfact>
</mgrwt>
<rwgt>
<wgt id='morphing_basis_vector_1'> +2.3292953e-04 </wgt>
<wgt id='morphing_basis_vector_2'> +1.6206411e-04 </wgt>
<wgt id='morphing_basis_vector_3'> +1.6822734e-04 </wgt>
<wgt id='morphing_basis_vector_4'> +6.0381585e-05 </wgt>
<wgt id='morphing_basis_vector_5'> +1.0163306e-04 </wgt>
</rwgt>
</event>
<event>
 4      1 +1.0153100e-05 5.46025400e+02 7.81860800e-03 9.30229900e-02
        2 -1    0    0  501    0 +0.0000000000e+00 +0.0000000000e+00 +1.8388024005e+02 1.8388024005e+02 0.0000000000e+00 0.0000e+00 -1.0000e+00
       -2 -1    0    0    0  501 -0.0000000000e+00 -0.0000000000e+00 -4.0535036256e+02 4.0535036256e+02 0.0000000000e+00 0.0000e+00 1.0000e+00
      -13  1    1    2    0    0 -3.5444447628e+01 +2.7003580878e+02 -9.0252248394e+01 2.8691656493e+02 0.0000000000e+00 0.0000e+00 1.0000e+00
       13  1    1    2    0    0 +3.5444447628e+01 -2.7003580878e+02 -1.3121787412e+02 3.0231403768e+02 0.0000000000e+00 0.0000e+00 -1.0000e+00
<mgrwt>
<rscale>  0 0.54602535E+03</rscale>
<asrwt>0</asrwt>
<pdfrwt beam="1">  1        2 0.28289268E-01 0.54602535E+03</pdfrwt>
<pdfrwt beam="2">  1       -2 0.62361594E-01 0.54602535E+03</pdfrwt>
<totfact> 0.57248972E+02</totfact>
</mgrwt>
<rwgt>
<wgt id='morphing_basis_vector_1'> +2.0642025e-04 </wgt>
<wgt id='morphing_basis_vector_2'> +1.3673431e-04 </wgt>
<wgt id='morphing_basis_vector_3'> +1.4780818e-04 </wgt>
<wgt id='morphing_basis_vector_4'> +5.2647147e-05 </wgt>
<wgt id='morphing_basis_vector_5'> +8.4491853e-05 </wgt>
</rwgt>
</event>
<event>
 4      1 +1.0153100e-05 5.80796900e+02 7.81860800e-03 9.23521500e-02
        2 -1    0    0  501    0 +0.0000000000e+00 +0.0000000000e+00 +8.3642421786e+02 8.3642421786e+02 0.0000000000e+00 0.0000e+00 -1.0000e+00
       -2 -1    0    0    0  501 -0.0000000000e+00 -0.0000000000e+00 -1.0082355795e+02 1.0082355795e+02 0.0000000000e+00 0.0000e+00 1.0000e+00
      -13  1    1    2    0    0 +1.4890095246e+02 -1.5731826835e+02 +5.5675563286e+01 2.2365218431e+02 0.0000000000e+00 0.0000e+00 1.0000e+00
       13  1    1    2    0    0 -1.4890095246e+02 +1.5731826835e+02 +6.7992509663e+02 7.1359559151e+02 0.0000000000e+00 0.0000e+00 -1.0000e+00
<mgrwt>
<rscale>  0 0.58079692E+03</rscale>
<asrwt>0</asrwt>
<pdfrwt beam="1">  1        2 0.12868064E+00 0.58079692E+03</pdfrwt>
<pdfrwt beam="2">  1       -2 0.15511317E-01 0.58079692E+03</pdfrwt>
<totfact> 0.12045797E+03</totfact>
</mgrwt>
<rwgt>
<wgt id='morphing_basis_vector_1'> +2.4109136e-04 </wgt>
<wgt id='morphing_basis_vector_2'> +1.3691421e-04 </wgt>
<wgt id='morphing_basis_vector_3'> +1.8779992e-04 </wgt>
<wgt id='morphing_basis_vector_4'> +7.8100152e-05 </wgt>
<wgt id='morphing_basis_vector_5'> +1.1714618e-04 </wgt>
</rwgt>
</event>
<event>
 4      1 +1.0153100e-05 5.52584800e+02 7.81860800e-03 9.28924400e-02
        2 -1    0    0  501    0 +0.0000000000e+00 +0.0000000000e+00 +1.8684566867e+03 1.8684566867e+03 0.0000000000e+00 0.0000e+00 -1.0000e+00
       -2 -1    0    0    0  501 -0.0000000000e+00 -0.0000000000e+00 -4.0855908626e+01 4.0855908626e+01 0.0000000000e+00 0.0000e+00 1.0000e+00
      -13  1    1    2    0    0 +1.1928534969e+02 +2.3450466040e+02 +6.2232757832e+02 6.7565749100e+02 0.0000000000e+00 0.0000e+00 1.0000e+00
       13  1    1    2    0    0 -1.1928534969e+02 -2.3450466040e+02 +1.2052731998e+03 1.2336551044e+03 0.0000000000e+00 0.0000e+00 -1.0000e+00
<mgrwt>
<rscale>  0 0.55258482E+03</rscale>
<asrwt>0</asrwt>
<pdfrwt beam="1">  1        2 0.28745481E+00 0.55258482E+03</pdfrwt>
<pdfrwt beam="2">  1       -2 0.62855259E-02 0.55258482E+03</pdfrwt>
<totfact> 0.12757096E+03</totfact>
</mgrwt>
<rwgt>
<wgt id='morphing_basis_vector_1'> +2.0756247e-04 </wgt>
<wgt id='morphing_basis_vector_2'> +1.2127157e-04 </wgt>
<wgt id='morphing_basis_vector_3'> +1.5584872e-04 </wgt>
<wgt id='morphing_basis_vector_4'> +5.9897866e-05 </wgt>
<wgt id='morphing_basis_vector_5'> +8.9970479e-05 </wgt>
</rwgt>
</event>
<event>
 4      1 +1.0153100e-05 5.22488000e+02 7.81860800e-03 9.35080500e-02
        2 -1    0    0  501    0 +0.0000000000e+00 +0.0000000000e+00 +9.6889727956e+02 9.6889727956e+02 0.0000000000e+00 0.0000e+00 1.0000e+00
       -2 -1    0    0    0  501 -0.0000000000e+00 -0.0000000000e+00 -7.0439292696e+01 7.0439292696e+01 0.0000000000e+00 0.0000e+00 -1.0000e+00
      -13  1    1    2    0    0 -1.1830531890e+02 +1.1077890460e+02 +4.1658486073e+01 1.6734259364e+02 0.0000000000e+00 0.0000e+00 -1.0000e+00
       13  1    1    2    0    0 +1.1830531890e+02 -1.1077890460e+02 +8.5679950079e+02 8.7199397861e+02 0.0000000000e+00 0.0000e+00 1.0000e+00
<mgrwt>
<rscale>  0 0.52248804E+03</rscale>
<asrwt>0</asrwt>
<pdfrwt beam="1">  1        2 0.14906111E+00 0.52248804E+03</pdfrwt>
<pdfrwt beam="2">  1       -2 0.10836815E-01 0.52248804E+03</pdfrwt>
<totfact> 0.17535683E+03</totfact>
</mgrwt>
<rwgt>
<wgt id='morphing_basis_vector_1'> +1.7271515e-04 </wgt>
<wgt id='morphing_basis_vector_2'> +9.5698914e-05 </wgt>
<wgt id='morphing_basis_vector_3'> +1.2734298e-04 </wgt>
<wgt id='morphing_basis_vector_4'> +4.6028552e-05 </wgt>
<wgt id='morphing_basis_vector_5'> +6.6043165e-05 </wgt>
</rwgt>
</event>
<event>
 4      1 +1.0153100e-05 5.79974900e+02 7.81860800e-03 9.23674300e-02
        2 -1    0    0  501    0 +0.0000000000e+00 +0.0000000000e+00 +1.6338975329e+02 1.6338975329e+02 0.0000000000e+00 0.0000e+00 -1.0000e+00
       -2 -1    0    0    0  501 -0.0000000000e+00 -0.0000000000e+00 -5.1467553293e+02 5.1467553293e+02 0.0000000000e+00 0.0000e+00 1.0000e+00
      -13  1    1    2    0    0 +6.8630260324e+00 +2.1327255866e+02 -4.0522246075e+02 4.5797109963e+02 0.0000000000e+00 0.0000e+00 1.0000e+00
       13  1    1    2    0    0 -6.8630260324e+00 -2.1327255866e+02 +5.3936681106e+01 2.2009418659e+02 0.0000000000e+00 0.0000e+00 -1.0000e+00
<mgrwt>
<rscale>  0 0.57997486E+03</rscale>
<asrwt>0</asrwt>
<pdfrwt beam="1">  1        2 0.25136885E-01 0.57997486E+03</pdfrwt>
<pdfrwt beam="2">  1       -2 0.79180850E-01 0.57997486E+03</pdfrwt>
<totfact> 0.39390185E+02</totfact>
</mgrwt>
<rwgt>
<wgt id='morphing_basis_vector_1'> +2.3996901e-04 </wgt>
<wgt id='morphing_basis_vector_2'> +1.3616735e-04 </wgt>
<wgt id='morphing_basis_vector_3'> +1.8681229e-04 </wgt>
<wgt id='morphing_basis_vector_4'> +7.7576484e-05 </wgt>
<wgt id='morphing_basis_vector_5'> +1.1628169e-04 </wgt>
</rwgt>
</event>
<event>
 4      1 +1.0153100e-05 6.19242700e+02 7.81860800e-03 9.16660600e-02
        2 -1    0    0  501    0 +0.0000000000e+00 +0.0000000000e+00 +2.5862990417e+02 2.5862990417e+02 0.0000000000e+00 0.0000e+00 -1.0000e+00
       -2 -1    0    0    0  501 -0.0000000000e+00 -0.0000000000e+00 -3.7066623275e+02 3.7066623275e+02 0.0000000000e+00 0.0000e+00 1.0000e+00
      -13  1    1    2    0    0 +2.1724960095e+02 +4.4095726919e+00 -2.8016318148e+02 3.5455358086e+02 0.0000000000e+00 0.0000e+00 1.0000e+00
       13  1    1    2    0    0 -2.1724960095e+02 -4.4095726919e+00 +1.6812685290e+02 2.7474255606e+02 0.0000000000e+00 0.0000e+00 -1.0000e+00
<mgrwt>
<rscale>  0 0.61924267E+03</rscale>
<asrwt>0</asrwt>
<pdfrwt beam="1">  1        2 0.39789216E-01 0.61924267E+03</pdfrwt>
<pdfrwt beam="2">  1       -2 0.57025574E-01 0.61924267E+03</pdfrwt>
<totfact> 0.46426699E+02</totfact>
</mgrwt>
<rwgt>
<wgt id='morphing_basis_vector_1'> +2.9685122e-04 </wgt>
<wgt id='morphing_basis_vector_2'> +1.7048023e-04 </wgt>
<wgt id='morphing_basis_vector_3'> +2.3891411e-04 </wgt>
<wgt id='morphing_basis_vector_4'> +1.0685842e-04 </wgt>
<wgt id='morphing_basis_vector_5'> +1.6274321e-04 </wgt>
</rwgt>
</event>
<event>
 4      1 +1.0153100e-05 5.55592900e+02 7.81860800e-03 9.28332100e-02
        2 -1    0    0  501    0 +0.0000000000e+00 +0.0000000000e+00 +9.0136730630e+02 9.0136730630e+02 0.0000000000e+00 0.0000e+00 -1.0000e+00
       -2 -1    0    0    0  501 -0.0000000000e+00 -0.0000000000e+00 -8.5615343391e+01 8.5615343391e+01 0.0000000000e+00 0.0000e+00 1.0000e+00
      -13  1    1    2    0    0 +5.5967233137e+01 +1.6242893454e+02 +2.0075096743e+01 1.7296964899e+02 0.0000000000e+00 0.0000e+00 1.0000e+00
       13  1    1    2    0    0 -5.5967233137e+01 -1.6242893454e+02 +7.9567686617e+02 8.1401300071e+02 0.0000000000e+00 0.0000e+00 -1.0000e+00
<mgrwt>
<rscale>  0 0.55559291E+03</rscale>
<asrwt>0</asrwt>
<pdfrwt beam="1">  1        2 0.13867189E+00 0.55559291E+03</pdfrwt>
<pdfrwt beam="2">  1       -2 0.13171592E-01 0.55559291E+03</pdfrwt>
<totfact> 0.14202795E+03</totfact>
</mgrwt>
<rwgt>
<wgt id='morphing_basis_vector_1'> +2.0912346e-04 </wgt>
<wgt id='morphing_basis_vector_2'> +1.1721065e-04 </wgt>
<wgt id='morphing_basis_vector_3'> +1.5934197e-04 </wgt>
<wgt id='morphing_basis_vector_4'> +6.2787717e-05 </wgt>
<wgt id='morphing_basis_vector_5'> +9.2596991e-05 </wgt>
</rwgt>
</event>
<event>
 4      1 +1.0153100e-05 5.93311200e+02 7.81860800e-03 9.21228100e-02
        2 -1    0    0  501    0 +0.0000000000e+00 +0.0000000000e+00 +2.4481709902e+02 2.4481709902e+02 0.0000000000e+00 0.0000e+00 -1.0000e+00
       -2 -1    0    0    0  501 -0.0000000000e+00 -0.0000000000e+00 -3.5947062336e+02 3.5947062336e+02 0.0000000000e+00 0.0000e+00 1.0000e+00
      -13  1    1    2    0    0 -7.2627510793e+01 +2.4863757430e+02 -2.0460190601e+02 3.3008686526e+02 0.0000000000e+00 0.0000e+00 1.0000e+00
       13  1    1    2    0    0 +7.2627510793e+01 -2.4863757430e+02 +8.9948381667e+01 2.7420085711e+02 0.0000000000e+00 0.0000e+00 -1.0000e+00
<mgrwt>
<rscale>  0 0.59331123E+03</rscale>
<asrwt>0</asrwt>
<pdfrwt beam="1">  1        2 0.37664169E-01 0.59331123E+03</pdfrwt>
<pdfrwt beam="2">  1       -2 0.55303173E-01 0.59331123E+03</pdfrwt>
<totfact> 0.52582984E+02</totfact>
</mgrwt>
<rwgt>
<wgt id='morphing_basis_vector_1'> +2.5900762e-04 </wgt>
<wgt id='morphing_basis_vector_2'> +1.4962171e-04 </wgt>
<wgt id='morphing_basis_vector_3'> +2.0337660e-04 </wgt>
<wgt id='morphing_basis_vector_4'> +8.6157018e-05 </wgt>
<wgt id='morphing_basis_vector_5'> +1.3086155e-04 </wgt>
</rwgt>
</event>
<event>
 4      1 +1.0153100e-05 6.04618300e+02 7.81860800e-03 9.19206800e-02
        2 -1    0    0  501    0 +0.0000000000e+00 +0.0000000000e+00 +1.4374296323e+03 1.4374296323e+03 0.0000000000e+00 0.0000e+00 1.0000e+00
       -2 -1    0    0    0  501 -0.0000000000e+00 -0.0000000000e+00 -6.3579335594e+01 6.3579335594e+01 0.0000000000e+00 0.0000e+00 -1.0000e+00
      -13  1    1    2    0    0 +2.8523092306e+02 +8.9215230380e+01 +8.0000584259e+02 8.5400549470e+02 0.0000000000e+00 0.0000e+00 -1.0000e+00
       13  1    1    2    0    0 -2.8523092306e+02 -8.9215230380e+01 +5.7384445407e+02 6.4700347315e+02 0.0000000000e+00 0.0000e+00 1.0000e+00
<mgrwt>
<rscale>  0 0.60461830E+03</rscale>
<asrwt>0</asrwt>
<pdfrwt beam="1">  1        2 0.22114300E+00 0.60461830E+03</pdfrwt>
<pdfrwt beam="2">  1       -2 0.97814373E-02 0.60461830E+03</pdfrwt>
<totfact> 0.11030830E+03</totfact>
</mgrwt>
<rwgt>
<wgt id='morphing_basis_vector_1'> +2.9009674e-04 </wgt>
<wgt id='morphing_basis_vector_2'> +2.0524626e-04 </wgt>
<wgt id='morphing_basis_vector_3'> +2.1889350e-04 </wgt>
<wgt id='morphing_basis_vector_4'> +8.2918688e-05 </wgt>
<wgt id='morphing_basis_vector_5'> +1.4421884e-04 </wgt>
</rwgt>
</event>
<event>
 4      1 +1.0153100e-05 5.74109000e+02 7.81860800e-03 9.24772400e-02
        2 -1    0    0  501    0 +0.0000000000e+00 +0.0000000000e+00 +3.5857985229e+02 3.5857985229e+02 0.0000000000e+00 0.0000e+00 -1.0000e+00
       -2 -1    0    0    0  501 -0.0000000000e+00 -0.0000000000e+00 -2.2979618816e+02 2.2979618816e+02 0.0000000000e+00 0.0000e+00 1.0000e+00
      -13  1    1    2    0    0 -2.8204950908e+01 +1.9324956893e+02 -1.5121535612e+02 2.4699594951e+02 0.0000000000e+00 0.0000e+00 1.0000e+00
       13  1    1    2    0    0 +2.8204950908e+01 -1.9324956893e+02 +2.7999902025e+02 3.4138009094e+02 0.0000000000e+00 0.0000e+00 -1.0000e+00
<mgrwt>
<rscale>  0 0.57410899E+03</rscale>
<asrwt>0</asrwt>
<pdfrwt beam="1">  1        2 0.55166131E-01 0.57410899E+03</pdfrwt>
<pdfrwt beam="2">  1       -2 0.35353260E-01 0.57410899E+03</pdfrwt>
<totfact> 0.80042149E+02</totfact>
</mgrwt>
<rwgt>
<wgt id='morphing_basis_vector_1'> +2.3216186e-04 </wgt>
<wgt id='morphing_basis_vector_2'> +1.3117749e-04 </wgt>
<wgt id='morphing_basis_vector_3'> +1.7988341e-04 </wgt>
<wgt id='morphing_basis_vector_4'> +7.3856951e-05 </wgt>
<wgt id='morphing_basis_vector_5'> +1.1024123e-04 </wgt>
</rwgt>
</event>
<event>
 4      1 +1.0153100e-05 6.17388600e+02 7.81860800e-03 9.16979300e-02
        2 -1    0    0  501    0 +0.0000000000e+00 +0.0000000000e+00 +4.5301212530e+02 4.5301212530e+02 0.0000000000e+00 0.0000e+00 -1.0000e+00
       -2 -1    0    0    0  501 -0.0000000000e+00 -0.0000000000e+00 -2.1035235522e+02 2.1035235522e+02 0.0000000000e+00 0.0000e+00 1.0000e+00
      -13  1    1    2    0    0 +1.2069438566e+02 -1.6588782178e+01 -1.8342889150e+02 2.2020100059e+02 0.0000000000e+00 0.0000e+00 1.0000e+00
       13  1    1    2    0    0 -1.2069438566e+02 +1.6588782178e+01 +4.2608866157e+02 4.4316347993e+02 0.0000000000e+00 0.0000e+00 -1.0000e+00
<mgrwt>
<rscale>  0 0.61738859E+03</rscale>
<asrwt>0</asrwt>
<pdfrwt beam="1">  1        2 0.69694173E-01 0.61738859E+03</pdfrwt>
<pdfrwt beam="2">  1       -2 0.32361901E-01 0.61738859E+03</pdfrwt>
<totfact> 0.72058795E+02</totfact>
</mgrwt>
<rwgt>
<wgt id='morphing_basis_vector_1'> +2.9364538e-04 </wgt>
<wgt id='morphing_basis_vector_2'> +1.6779687e-04 </wgt>
<wgt id='morphing_basis_vector_3'> +2.3619742e-04 </wgt>
<wgt id='morphing_basis_vector_4'> +1.0556357e-04 </wgt>
<wgt id='morphing_basis_vector_5'> +1.6030086e-04 </wgt>
</rwgt>
</event>
<event>
 4      1 +1.0153100e-05 5.27656300e+02 7.81860800e-03 9.33992400e-02
        2 -1    0    0  501    0 +0.0000000000e+00 +0.0000000000e+00 +4.6076560786e+02 4.6076560786e+02 0.0000000000e+00 0.0000e+00 1.0000e+00
       -2 -1    0    0    0  501 -0.0000000000e+00 -0.0000000000e+00 -1.5106443399e+02 1.5106443399e+02 0.0000000000e+00 0.0000e+00 -1.0000e+00
      -13  1    1    2    0    0 +1.4665819881e+02 +9.5631975871e+01 -7.3993684885e+01 1.9007674106e+02 0.0000000000e+00 0.0000e+00 -1.0000e+00
       13  1    1    2    0    0 -1.4665819881e+02 -9.5631975871e+01 +3.8369485876e+02 4.2175330079e+02 0.0000000000e+00 0.0000e+00 1.0000e+00
<mgrwt>
<rscale>  0 0.52765631E+03</rscale>
<asrwt>0</asrwt>
<pdfrwt beam="1">  1        2 0.70887016E-01 0.52765631E+03</pdfrwt>
<pdfrwt beam="2">  1       -2 0.23240682E-01 0.52765631E+03</pdfrwt>
<totfact> 0.12549054E+03</totfact>
</mgrwt>
<rwgt>
<wgt id='morphing_basis_vector_1'> +1.7806783e-04 </wgt>
<wgt id='morphing_basis_vector_2'> +9.8942422e-05 </wgt>
<wgt id='morphing_basis_vector_3'> +1.3194896e-04 </wgt>
<wgt id='morphing_basis_vector_4'> +4.8375782e-05 </wgt>
<wgt id='morphing_basis_vector_5'> +6.9793988e-05 </wgt>
</rwgt>
</event>
<event>
 4      1 +1.0153100e-05 6.01325600e+02 7.81860800e-03 9.19790500e-02
        2 -1    0    0  501    0 +0.0000000000e+00 +0.0000000000e+00 +6.3194306532e+02 6.3194306532e+02 0.0000000000e+00 0.0000e+00 -1.0000e+00
       -2 -1    0    0    0  501 -0.0000000000e+00 -0.0000000000e+00 -1.4304788228e+02 1.4304788228e+02 0.0000000000e+00 0.0000e+00 1.0000e+00
      -13  1    1    2    0    0 +1.4612133497e+02 -2.0033966399e+02 +2.5310353911e+01 2.4925496889e+02 0.0000000000e+00 0.0000e+00 1.0000e+00
       13  1    1    2    0    0 -1.4612133497e+02 +2.0033966399e+02 +4.6358482913e+02 5.2573597871e+02 0.0000000000e+00 0.0000e+00 -1.0000e+00
<mgrwt>
<rscale>  0 0.60132559E+03</rscale>
<asrwt>0</asrwt>
<pdfrwt beam="1">  1        2 0.97222008E-01 0.60132559E+03</pdfrwt>
<pdfrwt beam="2">  1       -2 0.22007367E-01 0.60132559E+03</pdfrwt>
<totfact> 0.95626220E+02</totfact>
</mgrwt>
<rwgt>
<wgt id='morphing_basis_vector_1'> +2.7013336e-04 </wgt>
<wgt id='morphing_basis_vector_2'> +1.5543191e-04 </wgt>
<wgt id='morphing_basis_vector_3'> +2.1389564e-04 </wgt>
<wgt id='morphing_basis_vector_4'> +9.2300926e-05 </wgt>
<wgt id='morphing_basis_vector_5'> +1.4019937e-04 </wgt>
</rwgt>
</event>
<event>
 4      1 +1.0153100e-05 5.48679800e+02 7.81860800e-03 9.29699200e-02
        2 -1    0    0  501    0 +0.0000000000e+00 +0.0000000000e+00 +1.1789994880e+03 1.1789994880e+03 0.0000000000e+00 0.0000e+00 -1.0000e+00
       -2 -1    0    0    0  501 -0.0000000000e+00 -0.0000000000e+00 -6.3835809915e+01 6.3835809915e+01 0.0000000000e+00 0.0000e+00 1.0000e+00
      -13  1    1    2    0    0 -6.9180581836e+01 +2.6028278484e+02 +4.3924479378e+02 5.1523690653e+02 0.0000000000e+00 0.0000e+00 1.0000e+00
       13  1    1    2    0    0 +6.9180581836e+01 -2.6028278484e+02 +6.7591888433e+02 7.2759839141e+02 0.0000000000e+00 0.0000e+00 -1.0000e+00
<mgrwt>
<rscale>  0 0.54867982E+03</rscale>
<asrwt>0</asrwt>
<pdfrwt beam="1">  1        2 0.18138452E+00 0.54867982E+03</pdfrwt>
<pdfrwt beam="2">  1       -2 0.98208947E-02 0.54867982E+03</pdfrwt>
<totfact> 0.15336657E+03</totfact>
</mgrwt>
<rwgt>
<wgt id='morphing_basis_vector_1'> +2.0422092e-04 </wgt>
<wgt id='morphing_basis_vector_2'> +1.2227886e-04 </wgt>
<wgt id='morphing_basis_vector_3'> +1.5157408e-04 </wgt>
<wgt id='morphing_basis_vector_4'> +5.7084767e-05 </wgt>
<wgt id='morphing_basis_vector_5'> +8.6614399e-05 </wgt>
</rwgt>
</event>
<event>
 4      1 +1.0153100e-05 5.32801700e+02 7.81860800e-03 9.32922100e-02
        2 -1    0    0  501    0 +0.0000000000e+00 +0.0000000000e+00 +2.9788582224e+02 2.9788582224e+02 0.0000000000e+00 0.0000e+00 1.0000e+00
       -2 -1    0    0    0  501 -0.0000000000e+00 -0.0000000000e+00 -2.3824365400e+02 2.3824365400e+02 0.0000000000e+00 0.0000e+00 -1.0000e+00
      -13  1    1    2    0    0 -7.5549757886e+01 -1.6454382812e+02 -1.6681431280e+02 2.4618987031e+02 0.0000000000e+00 0.0000e+00 -1.0000e+00
       13  1    1    2    0    0 +7.5549757886e+01 +1.6454382812e+02 +2.2645648103e+02 2.8993960593e+02 0.0000000000e+00 0.0000e+00 1.0000e+00
<mgrwt>
<rscale>  0 0.53280168E+03</rscale>
<asrwt>0</asrwt>
<pdfrwt beam="1">  1        2 0.45828588E-01 0.53280168E+03</pdfrwt>
<pdfrwt beam="2">  1       -2 0.36652870E-01 0.53280168E+03</pdfrwt>
<totfact> 0.92269219E+02</totfact>
</mgrwt>
<rwgt>
<wgt id='morphing_basis_vector_1'> +1.8351044e-04 </wgt>
<wgt id='morphing_basis_vector_2'> +1.0219708e-04 </wgt>
<wgt id='morphing_basis_vector_3'> +1.3667655e-04 </wgt>
<wgt id='morphing_basis_vector_4'> +5.0809829e-05 </wgt>
<wgt id='morphing_basis_vector_5'> +7.3668468e-05 </wgt>
</rwgt>
</event>
<event>
 4      1 +1.0153100e-05 5.78364700e+02 7.81860800e-03 9.23974300e-02
        2 -1    0    0  501    0 +0.0000000000e+00 +0.0000000000e+00 +1.4695465158e+02 1.4695465158e+02 0.0000000000e+00 0.0000e+00 -1.0000e+00
       -2 -1    0    0    0  501 -0.0000000000e+00 -0.0000000000e+00 -5.6906286206e+02 5.6906286206e+02 0.0000000000e+00 0.0000e+00 1.0000e+00
      -13  1    1    2    0    0 +9.1694696256e+01 +2.6029654740e+02 -3.1801233630e+02 4.2106300710e+02 0.0000000000e+00 0.0000e+00 1.0000e+00
       13  1    1    2    0    0 -9.1694696256e+01 -2.6029654740e+02 -1.0409587417e+02 2.9495450654e+02 0.0000000000e+00 0.0000e+00 -1.0000e+00
<mgrwt>
<rscale>  0 0.57836471E+03</rscale>
<asrwt>0</asrwt>
<pdfrwt beam="1">  1        2 0.22608408E-01 0.57836471E+03</pdfrwt>
<pdfrwt beam="2">  1       -2 0.87548133E-01 0.57836471E+03</pdfrwt>
<totfact> 0.35502079E+02</totfact>
</mgrwt>
<rwgt>
<wgt id='morphing_basis_vector_1'> +2.4002107e-04 </wgt>
<wgt id='morphing_basis_vector_2'> +1.4165963e-04 </wgt>
<wgt id='morphing_basis_vector_3'> +1.8474539e-04 </wgt>
<wgt id='morphing_basis_vector_4'> +7.4994753e-05 </wgt>
<wgt id='morphing_basis_vector_5'> +1.1462929e-04 </wgt>
</rwgt>
</event>
<event>
 4      1 +1.0153100e-05 5.25748600e+02 7.81860800e-03 9.34392500e-02
        2 -1    0    0  501    0 +0.0000000000e+00 +0.0000000000e+00 +5.7145430047e+01 5.7145430047e+01 0.0000000000e+00 0.0000e+00 -1.0000e+00
       -2 -1    0    0    0  501 -0.0000000000e+00 -0.0000000000e+00 -1.2092463047e+03 1.2092463047e+03 0.0000000000e+00 0.0000e+00 1.0000e+00
      -13  1    1    2    0    0 +1.1963389704e+02 +2.3406014360e+02 -5.6991879914e+02 6.2761760472e+02 0.0000000000e+00 0.0000e+00 1.0000e+00
       13  1    1    2    0    0 -1.1963389704e+02 -2.3406014360e+02 -5.8218207551e+02 6.3877413002e+02 0.0000000000e+00 0.0000e+00 -1.0000e+00
<mgrwt>
<rscale>  0 0.52574861E+03</rscale>
<asrwt>0</asrwt>
<pdfrwt beam="1">  1        2 0.87916057E-02 0.52574861E+03</pdfrwt>
<pdfrwt beam="2">  1       -2 0.18603787E+00 0.52574861E+03</pdfrwt>
<totfact> 0.15288955E+02</totfact>
</mgrwt>
<rwgt>
<wgt id='morphing_basis_vector_1'> +1.8203044e-04 </wgt>
<wgt id='morphing_basis_vector_2'> +1.1622873e-04 </wgt>
<wgt id='morphing_basis_vector_3'> +1.2850180e-04 </wgt>
<wgt id='morphing_basis_vector_4'> +4.4494875e-05 </wgt>
<wgt id='morphing_basis_vector_5'> +6.8579232e-05 </wgt>
</rwgt>
</event>
<event>
 4      1 +1.0153100e-05 5.49148900e+02 7.81860800e-03 9.29605800e-02
        2 -1    0    0  501    0 +0.0000000000e+00 +0.0000000000e+00 +1.2887856643e+03 1.2887856643e+03 0.0000000000e+00 0.0000e+00 -1.0000e+00
       -2 -1    0    0    0  501 -0.0000000000e+00 -0.0000000000e+00 -5.8497812369e+01 5.8497812369e+01 0.0000000000e+00 0.0000e+00 1.0000e+00
      -13  1    1    2    0    0 +1.8927766952e+02 -1.3620853995e+02 +9.7078018310e+02 9.9839519552e+02 0.0000000000e+00 0.0000e+00 -1.0000e+00
       13  1    1    2    0    0 -1.8927766952e+02 +1.3620853995e+02 +2.5950766879e+02 3.4888828111e+02 0.0000000000e+00 0.0000e+00 1.0000e+00
<mgrwt>
<rscale>  0 0.54914895E+03</rscale>
<asrwt>0</asrwt>
<pdfrwt beam="1">  1        2 0.19827470E+00 0.54914895E+03</pdfrwt>
<pdfrwt beam="2">  1       -2 0.89996644E-02 0.54914895E+03</pdfrwt>
<totfact> 0.15224026E+03</totfact>
</mgrwt>
<rwgt>
<wgt id='morphing_basis_vector_1'> +2.3908628e-04 </wgt>
<wgt id='morphing_basis_vector_2'> +2.2920621e-04 </wgt>
<wgt id='morphing_basis_vector_3'> +1.4565841e-04 </wgt>
<wgt id='morphing_basis_vector_4'> +3.6937730e-05 </wgt>
<wgt id='morphing_basis_vector_5'> +8.7803353e-05 </wgt>
</rwgt>
</event>
<event>
 4      1 +1.0153100e-05 5.29992400e+02 7.81860800e-03 9.33504900e-02
        2 -1    0    0  501    0 +0.0000000000e+00 +0.0000000000e+00 +7.2312738978e+02 7.2312738978e+02 0.0000000000e+00 0.0000e+00 1.0000e+00
       -2 -1    0    0    0  501 -0.0000000000e+00 -0.0000000000e+00 -9.7110105085e+01 9.7110105085e+01 0.0000000000e+00 0.0000e+00 -1.0000e+00
      -13  1    1    2    0    0 +6.9897428971e+01 +1.8958857228e+02 +5.7834432107e+02 6.1262682853e+02 0.0000000000e+00 0.0000e+00 1.0000e+00
       13  1    1    2    0    0 -6.9897428971e+01 -1.8958857228e+02 +4.7672963626e+01 2.0761066634e+02 0.0000000000e+00 0.0000e+00 -1.0000e+00
<mgrwt>
<rscale>  0 0.52999237E+03</rscale>
<asrwt>0</asrwt>
<pdfrwt beam="1">  1        2 0.11125036E+00 0.52999237E+03</pdfrwt>
<pdfrwt beam="2">  1       -2 0.14940017E-01 0.52999237E+03</pdfrwt>
<totfact> 0.15369449E+03</totfact>
</mgrwt>
<rwgt>
<wgt id='morphing_basis_vector_1'> +2.2510971e-04 </wgt>
<wgt id='morphing_basis_vector_2'> +2.3890721e-04 </wgt>
<wgt id='morphing_basis_vector_3'> +1.2197813e-04 </wgt>
<wgt id='morphing_basis_vector_4'> +2.6228059e-05 </wgt>
<wgt id='morphing_basis_vector_5'> +7.2862108e-05 </wgt>
</rwgt>
</event>
<event>
 4      1 +1.0153100e-05 5.58039200e+02 7.81860800e-03 9.27853500e-02
        2 -1    0    0  501    0 +0.0000000000e+00 +0.0000000000e+00 +1.7211614953e+03 1.7211614953e+03 0.0000000000e+00 0.0000e+00 1.0000e+00
       -2 -1    0    0    0  501 -0.0000000000e+00 -0.0000000000e+00 -4.5232202310e+01 4.5232202310e+01 0.0000000000e+00 0.0000e+00 -1.0000e+00
      -13  1    1    2    0    0 -1.8971363706e+02 +1.3701233047e+02 +3.5699392067e+02 4.2685864426e+02 0.0000000000e+00 0.0000e+00 -1.0000e+00
       13  1    1    2    0    0 +1.8971363706e+02 -1.3701233047e+02 +1.3189353723e+03 1.3395350533e+03 0.0000000000e+00 0.0000e+00 1.0000e+00
<mgrwt>
<rscale>  0 0.55803916E+03</rscale>
<asrwt>0</asrwt>
<pdfrwt beam="1">  1        2 0.26479403E+00 0.55803916E+03</pdfrwt>
<pdfrwt beam="2">  1       -2 0.69588017E-02 0.55803916E+03</pdfrwt>
<totfact> 0.13117789E+03</totfact>
</mgrwt>
<rwgt>
<wgt id='morphing_basis_vector_1'> +2.1261083e-04 </wgt>
<wgt id='morphing_basis_vector_2'> +1.2070581e-04 </wgt>
<wgt id='morphing_basis_vector_3'> +1.6185907e-04 </wgt>
<wgt id='morphing_basis_vector_4'> +6.3827741e-05 </wgt>
<wgt id='morphing_basis_vector_5'> +9.4818857e-05 </wgt>
</rwgt>
</event>
<event>
 4      1 +1.0153100e-05 6.15197500e+02 7.81860800e-03 9.17357400e-02
        2 -1    0    0  501    0 +0.0000000000e+00 +0.0000000000e+00 +1.3479562107e+03 1.3479562107e+03 0.0000000000e+00 0.0000e+00 1.0000e+00
       -2 -1    0    0    0  501 -0.0000000000e+00 -0.0000000000e+00 -7.0192935477e+01 7.0192935477e+01 0.0000000000e+00 0.0000e+00 -1.0000e+00
      -13  1    1    2    0    0 -2.0499516423e+02 +1.5176283310e+02 +2.4253568015e+02 3.5196382061e+02 0.0000000000e+00 0.0000e+00 -1.0000e+00
       13  1    1    2    0    0 +2.0499516423e+02 -1.5176283310e+02 +1.0352275951e+03 1.0661853256e+03 0.0000000000e+00 0.0000e+00 1.0000e+00
<mgrwt>
<rscale>  0 0.61519754E+03</rscale>
<asrwt>0</asrwt>
<pdfrwt beam="1">  1        2 0.20737786E+00 0.61519754E+03</pdfrwt>
<pdfrwt beam="2">  1       -2 0.10798914E-01 0.61519754E+03</pdfrwt>
<totfact> 0.10581248E+03</totfact>
</mgrwt>
<rwgt>
<wgt id='morphing_basis_vector_1'> +2.9108484e-04 </wgt>
<wgt id='morphing_basis_vector_2'> +1.6835770e-04 </wgt>
<wgt id='morphing_basis_vector_3'> +2.3311341e-04 </wgt>
<wgt id='morphing_basis_vector_4'> +1.0306911e-04 </wgt>
<wgt id='morphing_basis_vector_5'> +1.5744700e-04 </wgt>
</rwgt>
</event>
<event>
 4      1 +1.0153100e-05 6.18414200e+02 7.81860800e-03 9.16802900e-02
        2 -1    0    0  501    0 +0.0000000000e+00 +0.0000000000e+00 +5.2511344603e+02 5.2511344603e+02 0.0000000000e+00 0.0000e+00 -1.0000e+00
       -2 -1    0    0    0  501 -0.0000000000e+00 -0.0000000000e+00 -1.8207307352e+02 1.8207307352e+02 0.0000000000e+00 0.0000e+00 1.0000e+00
      -13  1    1    2    0    0 +7.4568866900e+01 -2.5711047098e+02 -5.4259928090e+00 2.6776062369e+02 0.0000000000e+00 0.0000e+00 1.0000e+00
       13  1    1    2    0    0 -7.4568866900e+01 +2.5711047098e+02 +3.4846636532e+02 4.3942589587e+02 0.0000000000e+00 0.0000e+00 -1.0000e+00
<mgrwt>
<rscale>  0 0.61841416E+03</rscale>
<asrwt>0</asrwt>
<pdfrwt beam="1">  1        2 0.80786684E-01 0.61841416E+03</pdfrwt>
<pdfrwt beam="2">  1       -2 0.28011242E-01 0.61841416E+03</pdfrwt>
<totfact> 0.78553272E+02</totfact>
</mgrwt>
<rwgt>
<wgt id='morphing_basis_vector_1'> +2.9645449e-04 </wgt>
<wgt id='morphing_basis_vector_2'> +1.7249694e-04 </wgt>
<wgt id='morphing_basis_vector_3'> +2.3778720e-04 </wgt>
<wgt id='morphing_basis_vector_4'> +1.0541781e-04 </wgt>
<wgt id='morphing_basis_vector_5'> +1.6164730e-04 </wgt>
</rwgt>
</event>
<event>
 4      1 +1.0153100e-05 5.92585300e+02 7.81860800e-03 9.21359500e-02
        2 -1    0    0  501    0 +0.0000000000e+00 +0.0000000000e+00 +2.5038657522e+02 2.5038657522e+02 0.0000000000e+00 0.0000e+00 -1.0000e+00
       -2 -1    0    0    0  501 -0.0000000000e+00 -0.0000000000e+00 -3.5061521960e+02 3.5061521960e+02 0.0000000000e+00 0.0000e+00 1.0000e+00
      -13  1    1    2    0    0 +2.2670999552e+02 +1.8543006228e+02 -9.5557111182e+01 3.0807935920e+02 0.0000000000e+00 0.0000e+00 1.0000e+00
       13  1    1    2    0    0 -2.2670999552e+02 -1.8543006228e+02 -4.6715331950e+00 2.9292243562e+02 0.0000000000e+00 0.0000e+00 -1.0000e+00
<mgrwt>
<rscale>  0 0.59258533E+03</rscale>
<asrwt>0</asrwt>
<pdfrwt beam="1">  1        2 0.38521012E-01 0.59258533E+03</pdfrwt>
<pdfrwt beam="2">  1       -2 0.53940803E-01 0.59258533E+03</pdfrwt>
<totfact> 0.53869008E+02</totfact>
</mgrwt>
<rwgt>
<wgt id='morphing_basis_vector_1'> +2.6181000e-04 </wgt>
<wgt id='morphing_basis_vector_2'> +1.6086447e-04 </wgt>
<wgt id='morphing_basis_vector_3'> +2.0240946e-04 </wgt>
<wgt id='morphing_basis_vector_4'> +8.2786820e-05 </wgt>
<wgt id='morphing_basis_vector_5'> +1.3006649e-04 </wgt>
</rwgt>
</event>
<event>
 4      1 +1.0153100e-05 5.62727900e+02 7.81860800e-03 9.26943200e-02
        2 -1    0    0  501    0 +0.0000000000e+00 +0.0000000000e+00 +1.1577128450e+03 1.1577128450e+03 0.0000000000e+00 0.0000e+00 1.0000e+00
       -2 -1    0    0    0  501 -0.0000000000e+00 -0.0000000000e+00 -6.8381097648e+01 6.8381097648e+01 0.0000000000e+00 0.0000e+00 -1.0000e+00
      -13  1    1    2    0    0 +3.1737177885e+01 -2.0923697463e+02 +1.4067869212e+02 2.5412173152e+02 0.0000000000e+00 0.0000e+00 -1.0000e+00
       13  1    1    2    0    0 -3.1737177885e+01 +2.0923697463e+02 +9.4865305525e+02 9.7197221115e+02 0.0000000000e+00 0.0000e+00 1.0000e+00
<mgrwt>
<rscale>  0 0.56272791E+03</rscale>
<asrwt>0</asrwt>
<pdfrwt beam="1">  1        2 0.17810965E+00 0.56272791E+03</pdfrwt>
<pdfrwt beam="2">  1       -2 0.10520170E-01 0.56272791E+03</pdfrwt>
<totfact> 0.14159243E+03</totfact>
</mgrwt>
<rwgt>
<wgt id='morphing_basis_vector_1'> +2.1796405e-04 </wgt>
<wgt id='morphing_basis_vector_2'> +1.2304276e-04 </wgt>
<wgt id='morphing_basis_vector_3'> +1.6699493e-04 </wgt>
<wgt id='morphing_basis_vector_4'> +6.6773328e-05 </wgt>
<wgt id='morphing_basis_vector_5'> +9.9149818e-05 </wgt>
</rwgt>
</event>
<event>
 4      1 +1.0153100e-05 5.77307700e+02 7.81860800e-03 9.24171800e-02
        2 -1    0    0  501    0 +0.0000000000e+00 +0.0000000000e+00 +2.1851354576e+02 2.1851354576e+02 0.0000000000e+00 0.0000e+00 -1.0000e+00
       -2 -1    0    0    0  501 -0.0000000000e+00 -0.0000000000e+00 -3.8130839087e+02 3.8130839087e+02 0.0000000000e+00 0.0000e+00 1.0000e+00
      -13  1    1    2    0    0 +1.6644026764e+02 -1.2293364332e+01 -3.2609772878e+02 3.6632392526e+02 0.0000000000e+00 0.0000e+00 1.0000e+00
       13  1    1    2    0    0 -1.6644026764e+02 +1.2293364332e+01 +1.6330288368e+02 2.3349801137e+02 0.0000000000e+00 0.0000e+00 -1.0000e+00
<mgrwt>
<rscale>  0 0.57730771E+03</rscale>
<asrwt>0</asrwt>
<pdfrwt beam="1">  1        2 0.33617469E-01 0.57730771E+03</pdfrwt>
<pdfrwt beam="2">  1       -2 0.58662829E-01 0.57730771E+03</pdfrwt>
<totfact> 0.53162977E+02</totfact>
</mgrwt>
<rwgt>
<wgt id='morphing_basis_vector_1'> +2.3621091e-04 </wgt>
<wgt id='morphing_basis_vector_2'> +1.3331398e-04 </wgt>
<wgt id='morphing_basis_vector_3'> +1.8364778e-04 </wgt>
<wgt id='morphing_basis_vector_4'> +7.5995746e-05 </wgt>
<wgt id='morphing_basis_vector_5'> +1.1350528e-04 </wgt>
</rwgt>
</event>
<event>
 4      1 +1.0153100e-05 6.11294600e+02 7.81860800e-03 9.18035100e-02
        2 -1    0    0  501    0 +0.0000000000e+00 +0.0000000000e+00 +9.2289550547e+01 9.2289550547e+01 0.0000000000e+00 0.0000e+00 -1.0000e+00
       -2 -1    0    0    0  501 -0.0000000000e+00 -0.0000000000e+00 -1.0122517902e+03 1.0122517902e+03 0.0000000000e+00 0.0000e+00 1.0000e+00
      -13  1    1    2    0    0 +4.3935117679e+01 -2.2470223739e+02 -8.2584319652e+02 8.5699380120e+02 0.0000000000e+00 0.0000e+00 1.0000e+00
       13  1    1    2    0    0 -4.3935117679e+01 +2.2470223739e+02 -9.4119043118e+01 2.4754753954e+02 0.0000000000e+00 0.0000e+00 -1.0000e+00
<mgrwt>
<rscale>  0 0.61129457E+03</rscale>
<asrwt>0</asrwt>
<pdfrwt beam="1">  1        2 0.14198393E-01 0.61129457E+03</pdfrwt>
<pdfrwt beam="2">  1       -2 0.15573104E+00 0.61129457E+03</pdfrwt>
<totfact> 0.14210657E+02</totfact>
</mgrwt>
<rwgt>
<wgt id='morphing_basis_vector_1'> +2.8466026e-04 </wgt>
<wgt id='morphing_basis_vector_2'> +1.6339028e-04 </wgt>
<wgt id='morphing_basis_vector_3'> +2.2754905e-04 </wgt>
<wgt id='morphing_basis_vector_4'> +1.0027592e-04 </wgt>
<wgt id='morphing_basis_vector_5'> +1.5245248e-04 </wgt>
</rwgt>
</event>
<event>
 4      1 +1.0153100e-05 5.87995600e+02 7.81860800e-03 9.22194800e-02
        2 -1    0    0  501    0 +0.0000000000e+00 +0.0000000000e+00 +5.4361162505e+02 5.4361162505e+02 0.0000000000e+00 0.0000e+00 1.0000e+00
       -2 -1    0    0    0  501 -0.0000000000e+00 -0.0000000000e+00 -1.5900086313e+02 1.5900086313e+02 0.0000000000e+00 0.0000e+00 -1.0000e+00
      -13  1    1    2    0    0 +1.6227281800e+02 +1.5068805111e+02 +4.2337913903e+02 4.7779624483e+02 0.0000000000e+00 0.0000e+00 1.0000e+00
       13  1    1    2    0    0 -1.6227281800e+02 -1.5068805111e+02 -3.8768377107e+01 2.2481624335e+02 0.0000000000e+00 0.0000e+00 -1.0000e+00
<mgrwt>
<rscale>  0 0.58799564E+03</rscale>
<asrwt>0</asrwt>
<pdfrwt beam="1">  1        2 0.83632557E-01 0.58799564E+03</pdfrwt>
<pdfrwt beam="2">  1       -2 0.24461672E-01 0.58799564E+03</pdfrwt>
<totfact> 0.95346916E+02</totfact>
</mgrwt>
<rwgt>
<wgt id='morphing_basis_vector_1'> +3.1454173e-04 </wgt>
<wgt id='morphing_basis_vector_2'> +3.4040134e-04 </wgt>
<wgt id='morphing_basis_vector_3'> +1.9494074e-04 </wgt>
<wgt id='morphing_basis_vector_4'> +3.6415920e-05 </wgt>
<wgt id='morphing_basis_vector_5'> +1.2548763e-04 </wgt>
</rwgt>
</event>
<event>
 4      1 +1.0153100e-05 6.08951300e+02 7.81860800e-03 9.18444500e-02
        2 -1    0    0  501    0 +0.0000000000e+00 +0.0000000000e+00 +2.4283560027e+02 2.4283560027e+02 0.0000000000e+00 0.0000e+00 1.0000e+00
       -2 -1    0    0    0  501 -0.0000000000e+00 -0.0000000000e+00 -3.8176201993e+02 3.8176201993e+02 0.0000000000e+00 0.0000e+00 -1.0000e+00
      -13  1    1    2    0    0 +1.1489028295e+02 +2.3539890731e+02 +8.9744139309e+01 2.7688704054e+02 0.0000000000e+00 0.0000e+00 -1.0000e+00
       13  1    1    2    0    0 -1.1489028295e+02 -2.3539890731e+02 -2.2867055897e+02 3.4771057967e+02 0.0000000000e+00 0.0000e+00 1.0000e+00
<mgrwt>
<rscale>  0 0.60895126E+03</rscale>
<asrwt>0</asrwt>
<pdfrwt beam="1">  1        2 0.37359323E-01 0.60895126E+03</pdfrwt>
<pdfrwt beam="2">  1       -2 0.58732618E-01 0.60895126E+03</pdfrwt>
<totfact> 0.46996983E+02</totfact>
</mgrwt>
<rwgt>
<wgt id='morphing_basis_vector_1'> +3.3109089e-04 </wgt>
<wgt id='morphing_basis_vector_2'> +3.1614865e-04 </wgt>
<wgt id='morphing_basis_vector_3'> +2.2691390e-04 </wgt>
<wgt id='morphing_basis_vector_4'> +5.8487180e-05 </wgt>
<wgt id='morphing_basis_vector_5'> +1.4960191e-04 </wgt>
</rwgt>
</event>
<event>
 4      1 +1.0153100e-05 5.32456100e+02 7.81860800e-03 9.32993600e-02
        2 -1    0    0  501    0 +0.0000000000e+00 +0.0000000000e+00 +3.4819854654e+02 3.4819854654e+02 0.0000000000e+00 0.0000e+00 -1.0000e+00
       -2 -1    0    0    0  501 -0.0000000000e+00 -0.0000000000e+00 -2.0355448534e+02 2.0355448534e+02 0.0000000000e+00 0.0000e+00 1.0000e+00
      -13  1    1    2    0    0 +6.9744148694e+01 +1.6771644373e+02 -1.2937090608e+02 2.2300198007e+02 0.0000000000e+00 0.0000e+00 1.0000e+00
       13  1    1    2    0    0 -6.9744148694e+01 -1.6771644373e+02 +2.7401496727e+02 3.2875105181e+02 0.0000000000e+00 0.0000e+00 -1.0000e+00
<mgrwt>
<rscale>  0 0.53245610E+03</rscale>
<asrwt>0</asrwt>
<pdfrwt beam="1">  1        2 0.53569007E-01 0.53245610E+03</pdfrwt>
<pdfrwt beam="2">  1       -2 0.31316075E-01 0.53245610E+03</pdfrwt>
<totfact> 0.10273244E+03</totfact>
</mgrwt>
<rwgt>
<wgt id='morphing_basis_vector_1'> +1.8314531e-04 </wgt>
<wgt id='morphing_basis_vector_2'> +1.0199011e-04 </wgt>
<wgt id='morphing_basis_vector_3'> +1.3635353e-04 </wgt>
<wgt id='morphing_basis_vector_4'> +5.0641125e-05 </wgt>
<wgt id='morphing_basis_vector_5'> +7.3403919e-05 </wgt>
</rwgt>
</event>
<event>
 4      1 +1.0153100e-05 5.44539600e+02 7.81860800e-03 9.30528300e-02
        2 -1    0    0  501    0 +0.0000000000e+00 +0.0000000000e+00 +7.5866933054e+02 7.5866933054e+02 0.0000000000e+00 0.0000e+00 -1.0000e+00
       -2 -1    0    0    0  501 -0.0000000000e+00 -0.0000000000e+00 -9.7711675774e+01 9.7711675774e+01 0.0000000000e+00 0.0000e+00 1.0000e+00
      -13  1    1    2    0    0 -1.0524015772e+02 +1.6015642917e+02 +2.6317506485e+01 1.9343780331e+02 0.0000000000e+00 0.0000e+00 1.0000e+00
       13  1    1    2    0    0 +1.0524015772e+02 -1.6015642917e+02 +6.3464014828e+02 6.6294320300e+02 0.0000000000e+00 0.0000e+00 -1.0000e+00
<mgrwt>
<rscale>  0 0.54453963E+03</rscale>
<asrwt>0</asrwt>
<pdfrwt beam="1">  1        2 0.11671835E+00 0.54453963E+03</pdfrwt>
<pdfrwt beam="2">  1       -2 0.15032566E-01 0.54453963E+03</pdfrwt>
<totfact> 0.14343230E+03</totfact>
</mgrwt>
<rwgt>
<wgt id='morphing_basis_vector_1'> +1.9643042e-04 </wgt>
<wgt id='morphing_basis_vector_2'> +1.0993349e-04 </wgt>
<wgt id='morphing_basis_vector_3'> +1.4798475e-04 </wgt>
<wgt id='morphing_basis_vector_4'> +5.6703511e-05 </wgt>
<wgt id='morphing_basis_vector_5'> +8.3049586e-05 </wgt>
</rwgt>
</event>
<event>
 4      1 +1.0153100e-05 5.30847400e+02 7.81860800e-03 9.33327100e-02
        2 -1    0    0  501    0 +0.0000000000e+00 +0.0000000000e+00 +8.5180243149e+02 8.5180243149e+02 0.0000000000e+00 0.0000e+00 -1.0000e+00
       -2 -1    0    0    0  501 -0.0000000000e+00 -0.0000000000e+00 -8.2706667620e+01 8.2706667620e+01 0.0000000000e+00 0.0000e+00 1.0000e+00
      -13  1    1    2    0    0 +2.1931629585e+02 +1.2256175916e+02 +2.3384281671e+02 3.4322512344e+02 0.0000000000e+00 0.0000e+00 1.0000e+00
       13  1    1    2    0    0 -2.1931629585e+02 -1.2256175916e+02 +5.3525294716e+02 5.9128397567e+02 0.0000000000e+00 0.0000e+00 -1.0000e+00
<mgrwt>
<rscale>  0 0.53084740E+03</rscale>
<asrwt>0</asrwt>
<pdfrwt beam="1">  1        2 0.13104652E+00 0.53084740E+03</pdfrwt>
<pdfrwt beam="2">  1       -2 0.12724103E-01 0.53084740E+03</pdfrwt>
<totfact> 0.16168529E+03</totfact>
</mgrwt>
<rwgt>
<wgt id='morphing_basis_vector_1'> +1.8298213e-04 </wgt>
<wgt id='morphing_basis_vector_2'> +1.0577979e-04 </wgt>
<wgt id='morphing_basis_vector_3'> +1.3444892e-04 </wgt>
<wgt id='morphing_basis_vector_4'> +4.9059359e-05 </wgt>
<wgt id='morphing_basis_vector_5'> +7.2225924e-05 </wgt>
</rwgt>
</event>
<event>
 4      1 +1.0153100e-05 5.33766500e+02 7.81860800e-03 9.32722900e-02
        2 -1    0    0  501    0 +0.0000000000e+00 +0.0000000000e+00 +8.9967038393e+01 8.9967038393e+01 0.0000000000e+00 0.0000e+00 -1.0000e+00
       -2 -1    0    0    0  501 -0.0000000000e+00 -0.0000000000e+00 -7.9169732352e+02 7.9169732352e+02 0.0000000000e+00 0.0000e+00 1.0000e+00
      -13  1    1    2    0    0 +2.9554634601e+01 -1.5149808323e+02 -7.1048868481e+02 7.2706211351e+02 0.0000000000e+00 0.0000e+00 1.0000e+00
       13  1    1    2    0    0 -2.9554634601e+01 +1.5149808323e+02 +8.7583996830e+00 1.5460224841e+02 0.0000000000e+00 0.0000e+00 -1.0000e+00
<mgrwt>
<rscale>  0 0.53376648E+03</rscale>
<asrwt>0</asrwt>
<pdfrwt beam="1">  1        2 0.13841083E-01 0.53376648E+03</pdfrwt>
<pdfrwt beam="2">  1       -2 0.12179959E+00 0.53376648E+03</pdfrwt>
<totfact> 0.28800652E+02</totfact>
</mgrwt>
<rwgt>
<wgt id='morphing_basis_vector_1'> +1.8445220e-04 </wgt>
<wgt id='morphing_basis_vector_2'> +1.0252583e-04 </wgt>
<wgt id='morphing_basis_vector_3'> +1.3760219e-04 </wgt>
<wgt id='morphing_basis_vector_4'> +5.1326369e-05 </wgt>
<wgt id='morphing_basis_vector_5'> +7.4408204e-05 </wgt>
</rwgt>
</event>
<event>
 4      1 +1.0153100e-05 5.38133500e+02 7.81860800e-03 9.31826700e-02
        2 -1    0    0  501    0 +0.0000000000e+00 +0.0000000000e+00 +4.6631927640e+02 4.6631927640e+02 0.0000000000e+00 0.0000e+00 -1.0000e+00
       -2 -1    0    0    0  501 -0.0000000000e+00 -0.0000000000e+00 -1.5525182781e+02 1.5525182781e+02 0.0000000000e+00 0.0000e+00 1.0000e+00
      -13  1    1    2    0    0 +8.3736509849e+00 +1.4783547029e+02 -1.0395815857e+02 1.8092192526e+02 0.0000000000e+00 0.0000e+00 1.0000e+00
       13  1    1    2    0    0 -8.3736509849e+00 -1.4783547029e+02 +4.1502560717e+02 4.4064917895e+02 0.0000000000e+00 0.0000e+00 -1.0000e+00
<mgrwt>
<rscale>  0 0.53813352E+03</rscale>
<asrwt>0</asrwt>
<pdfrwt beam="1">  1        2 0.71741426E-01 0.53813352E+03</pdfrwt>
<pdfrwt beam="2">  1       -2 0.23884897E-01 0.53813352E+03</pdfrwt>
<totfact> 0.11822849E+03</totfact>
</mgrwt>
<rwgt>
<wgt id='morphing_basis_vector_1'> +1.8916563e-04 </wgt>
<wgt id='morphing_basis_vector_2'> +1.0526651e-04 </wgt>
<wgt id='morphing_basis_vector_3'> +1.4175138e-04 </wgt>
<wgt id='morphing_basis_vector_4'> +5.3496764e-05 </wgt>
<wgt id='morphing_basis_vector_5'> +7.7831530e-05 </wgt>
</rwgt>
</event>
<event>
 4      1 +1.0153100e-05 6.11408500e+02 7.81860800e-03 9.18015200e-02
        2 -1    0    0  501    0 +0.0000000000e+00 +0.0000000000e+00 +9.5429710137e+02 9.5429710137e+02 0.0000000000e+00 0.0000e+00 -1.0000e+00
       -2 -1    0    0    0  501 -0.0000000000e+00 -0.0000000000e+00 -9.7930817488e+01 9.7930817488e+01 0.0000000000e+00 0.0000e+00 1.0000e+00
      -13  1    1    2    0    0 +3.7619574243e-01 +2.9912847555e+02 +5.3671620799e+02 6.1444468776e+02 0.0000000000e+00 0.0000e+00 1.0000e+00
       13  1    1    2    0    0 -3.7619574243e-01 -2.9912847555e+02 +3.1965007589e+02 4.3778323109e+02 0.0000000000e+00 0.0000e+00 -1.0000e+00
<mgrwt>
<rscale>  0 0.61140852E+03</rscale>
<asrwt>0</asrwt>
<pdfrwt beam="1">  1        2 0.14681493E+00 0.61140852E+03</pdfrwt>
<pdfrwt beam="2">  1       -2 0.15066280E-01 0.61140852E+03</pdfrwt>
<totfact> 0.10583819E+03</totfact>
</mgrwt>
<rwgt>
<wgt id='morphing_basis_vector_1'> +3.0434913e-04 </wgt>
<wgt id='morphing_basis_vector_2'> +2.2397238e-04 </wgt>
<wgt id='morphing_basis_vector_3'> +2.2891440e-04 </wgt>
<wgt id='morphing_basis_vector_4'> +8.4624038e-05 </wgt>
<wgt id='morphing_basis_vector_5'> +1.5261718e-04 </wgt>
</rwgt>
</event>
<event>
 4      1 +1.0153100e-05 5.73259200e+02 7.81860800e-03 9.24932600e-02
        2 -1    0    0  501    0 +0.0000000000e+00 +0.0000000000e+00 +4.4079129985e+02 4.4079129985e+02 0.0000000000e+00 0.0000e+00 1.0000e+00
       -2 -1    0    0    0  501 -0.0000000000e+00 -0.0000000000e+00 -1.8638421321e+02 1.8638421321e+02 0.0000000000e+00 0.0000e+00 -1.0000e+00
      -13  1    1    2    0    0 -1.6627234941e+02 -2.3346578079e+02 +1.2932911266e+02 3.1444997116e+02 0.0000000000e+00 0.0000e+00 -1.0000e+00
       13  1    1    2    0    0 +1.6627234941e+02 +2.3346578079e+02 +1.2507797398e+02 3.1272554190e+02 0.0000000000e+00 0.0000e+00 1.0000e+00
<mgrwt>
<rscale>  0 0.57325924E+03</rscale>
<asrwt>0</asrwt>
<pdfrwt beam="1">  1        2 0.67814046E-01 0.57325924E+03</pdfrwt>
<pdfrwt beam="2">  1       -2 0.28674494E-01 0.57325924E+03</pdfrwt>
<totfact> 0.92018243E+02</totfact>
</mgrwt>
<rwgt>
<wgt id='morphing_basis_vector_1'> +2.3886076e-04 </wgt>
<wgt id='morphing_basis_vector_2'> +1.5471699e-04 </wgt>
<wgt id='morphing_basis_vector_3'> +1.7823040e-04 </wgt>
<wgt id='morphing_basis_vector_4'> +6.8009951e-05 </wgt>
<wgt id='morphing_basis_vector_5'> +1.0949667e-04 </wgt>
</rwgt>
</event>
<event>
 4      1 +1.0153100e-05 5.35206400e+02 7.81860800e-03 9.32426400e-02
        2 -1    0    0  501    0 +0.0000000000e+00 +0.0000000000e+00 +4.9797092780e+02 4.9797092780e+02 0.0000000000e+00 0.0000e+00 1.0000e+00
       -2 -1    0    0    0  501 -0.0000000000e+00 -0.0000000000e+00 -1.4380651720e+02 1.4380651720e+02 0.0000000000e+00 0.0000e+00 -1.0000e+00
      -13  1    1    2    0    0 -1.7523015592e+02 +1.8406776564e+02 +7.6578121340e+01 2.6542561775e+02 0.0000000000e+00 0.0000e+00 -1.0000e+00
       13  1    1    2    0    0 +1.7523015592e+02 -1.8406776564e+02 +2.7758628926e+02 3.7635182725e+02 0.0000000000e+00 0.0000e+00 1.0000e+00
<mgrwt>
<rscale>  0 0.53520637E+03</rscale>
<asrwt>0</asrwt>
<pdfrwt beam="1">  1        2 0.76610911E-01 0.53520637E+03</pdfrwt>
<pdfrwt beam="2">  1       -2 0.22124080E-01 0.53520637E+03</pdfrwt>
<totfact> 0.12487272E+03</totfact>
</mgrwt>
<rwgt>
<wgt id='morphing_basis_vector_1'> +1.8775348e-04 </wgt>
<wgt id='morphing_basis_vector_2'> +1.0888328e-04 </wgt>
<wgt id='morphing_basis_vector_3'> +1.3852351e-04 </wgt>
<wgt id='morphing_basis_vector_4'> +5.1082737e-05 </wgt>
<wgt id='morphing_basis_vector_5'> +7.5574412e-05 </wgt>
</rwgt>
</event>
<event>
 4      1 +1.0153100e-05 5.83685000e+02 7.81860800e-03 9.22986800e-02
        2 -1    0    0  501    0 +0.0000000000e+00 +0.0000000000e+00 +6.0348082053e+02 6.0348082053e+02 0.0000000000e+00 0.0000e+00 -1.0000e+00
       -2 -1    0    0    0  501 -0.0000000000e+00 -0.0000000000e+00 -1.4113461261e+02 1.4113461261e+02 0.0000000000e+00 0.0000e+00 1.0000e+00
      -13  1    1    2    0    0 -8.0372507631e+01 -1.9620874893e+02 -2.4652749334e+01 2.1346046751e+02 0.0000000000e+00 0.0000e+00 1.0000e+00
       13  1    1    2    0    0 +8.0372507631e+01 +1.9620874893e+02 +4.8699895726e+02 5.3115496563e+02 0.0000000000e+00 0.0000e+00 -1.0000e+00
<mgrwt>
<rscale>  0 0.58368496E+03</rscale>
<asrwt>0</asrwt>
<pdfrwt beam="1">  1        2 0.92843202E-01 0.58368496E+03</pdfrwt>
<pdfrwt beam="2">  1       -2 0.21713018E-01 0.58368496E+03</pdfrwt>
<totfact> 0.10328322E+03</totfact>
</mgrwt>
<rwgt>
<wgt id='morphing_basis_vector_1'> +2.4491625e-04 </wgt>
<wgt id='morphing_basis_vector_2'> +1.3909292e-04 </wgt>
<wgt id='morphing_basis_vector_3'> +1.9131074e-04 </wgt>
<wgt id='morphing_basis_vector_4'> +8.0068310e-05 </wgt>
<wgt id='morphing_basis_vector_5'> +1.2021671e-04 </wgt>
</rwgt>
</event>
<event>
 4      1 +1.0153100e-05 5.22072700e+02 7.81860800e-03 9.35168600e-02
        2 -1    0    0  501    0 +0.0000000000e+00 +0.0000000000e+00 +6.7894102230e+02 6.7894102230e+02 0.0000000000e+00 0.0000e+00 1.0000e+00
       -2 -1    0    0    0  501 -0.0000000000e+00 -0.0000000000e+00 -1.0036215399e+02 1.0036215399e+02 0.0000000000e+00 0.0000e+00 -1.0000e+00
      -13  1    1    2    0    0 +2.3906595704e+02 +1.1008132686e+01 +4.4489163570e+02 5.0517549259e+02 0.0000000000e+00 0.0000e+00 1.0000e+00
       13  1    1    2    0    0 -2.3906595704e+02 -1.1008132686e+01 +1.3368723261e+02 2.7412768369e+02 0.0000000000e+00 0.0000e+00 -1.0000e+00
<mgrwt>
<rscale>  0 0.52207273E+03</rscale>
<asrwt>0</asrwt>
<pdfrwt beam="1">  1        2 0.10445246E+00 0.52207273E+03</pdfrwt>
<pdfrwt beam="2">  1       -2 0.15440332E-01 0.52207273E+03</pdfrwt>
<totfact> 0.15731511E+03</totfact>
</mgrwt>
<rwgt>
<wgt id='morphing_basis_vector_1'> +1.9425748e-04 </wgt>
<wgt id='morphing_basis_vector_2'> +1.6367161e-04 </wgt>
<wgt id='morphing_basis_vector_3'> +1.2021979e-04 </wgt>
<wgt id='morphing_basis_vector_4'> +3.5078774e-05 </wgt>
<wgt id='morphing_basis_vector_5'> +6.6462830e-05 </wgt>
</rwgt>
</event>
<event>
 4      1 +1.0153100e-05 5.77689500e+02 7.81860800e-03 9.24100400e-02
        2 -1    0    0  501    0 +0.0000000000e+00 +0.0000000000e+00 +4.7104708083e+02 4.7104708083e+02 0.0000000000e+00 0.0000e+00 -1.0000e+00
       -2 -1    0    0    0  501 -0.0000000000e+00 -0.0000000000e+00 -1.7711880439e+02 1.7711880439e+02 0.0000000000e+00 0.0000e+00 1.0000e+00
      -13  1    1    2    0    0 -6.6377399412e+01 -8.4574537458e+01 -1.5383252018e+02 1.8767859709e+02 0.0000000000e+00 0.0000e+00 1.0000e+00
       13  1    1    2    0    0 +6.6377399412e+01 +8.4574537458e+01 +4.4776079663e+02 4.6048728814e+02 0.0000000000e+00 0.0000e+00 -1.0000e+00
<mgrwt>
<rscale>  0 0.57768952E+03</rscale>
<asrwt>0</asrwt>
<pdfrwt beam="1">  1        2 0.72468781E-01 0.57768952E+03</pdfrwt>
<pdfrwt beam="2">  1       -2 0.27249047E-01 0.57768952E+03</pdfrwt>
<totfact> 0.93287031E+02</totfact>
</mgrwt>
<rwgt>
<wgt id='morphing_basis_vector_1'> +2.3663364e-04 </wgt>
<wgt id='morphing_basis_vector_2'> +1.3337113e-04 </wgt>
<wgt id='morphing_basis_vector_3'> +1.8410541e-04 </wgt>
<wgt id='morphing_basis_vector_4'> +7.6298948e-05 </wgt>
<wgt id='morphing_basis_vector_5'> +1.1389848e-04 </wgt>
</rwgt>
</event>
<event>
 4      1 +1.0153100e-05 5.26244300e+02 7.81860800e-03 9.34288300e-02
        2 -1    0    0  501    0 +0.0000000000e+00 +0.0000000000e+00 +1.6541575861e+03 1.6541575861e+03 0.0000000000e+00 0.0000e+00 -1.0000e+00
       -2 -1    0    0    0  501 -0.0000000000e+00 -0.0000000000e+00 -4.1854096876e+01 4.1854096876e+01 0.0000000000e+00 0.0000e+00 1.0000e+00
      -13  1    1    2    0    0 +1.8149116217e+02 +1.4324454196e+02 +4.0136220508e+02 4.6319505655e+02 0.0000000000e+00 0.0000e+00 1.0000e+00
       13  1    1    2    0    0 -1.8149116217e+02 -1.4324454196e+02 +1.2109412841e+03 1.2328166264e+03 0.0000000000e+00 0.0000e+00 -1.0000e+00
<mgrwt>
<rscale>  0 0.52624432E+03</rscale>
<asrwt>0</asrwt>
<pdfrwt beam="1">  1        2 0.25448573E+00 0.52624432E+03</pdfrwt>
<pdfrwt beam="2">  1       -2 0.64390931E-02 0.52624432E+03</pdfrwt>
<totfact> 0.16086308E+03</totfact>
</mgrwt>
<rwgt>
<wgt id='morphing_basis_vector_1'> +1.7726976e-04 </wgt>
<wgt id='morphing_basis_vector_2'> +1.0015218e-04 </wgt>
<wgt id='morphing_basis_vector_3'> +1.3048157e-04 </wgt>
<wgt id='morphing_basis_vector_4'> +4.7382709e-05 </wgt>
<wgt id='morphing_basis_vector_5'> +6.8776360e-05 </wgt>
</rwgt>
</event>
<event>
 4      1 +1.0153100e-05 5.76286000e+02 7.81860800e-03 9.24363200e-02
        2 -1    0    0  501    0 +0.0000000000e+00 +0.0000000000e+00 +1.3189778153e+03 1.3189778153e+03 0.0000000000e+00 0.0000e+00 -1.0000e+00
       -2 -1    0    0    0  501 -0.0000000000e+00 -0.0000000000e+00 -6.2947531941e+01 6.2947531941e+01 0.0000000000e+00 0.0000e+00 1.0000e+00
      -13  1    1    2    0    0 +6.2059501164e+01 -1.8479524402e+02 +1.1918024287e+02 2.2848324706e+02 0.0000000000e+00 0.0000e+00 1.0000e+00
       13  1    1    2    0    0 -6.2059501164e+01 +1.8479524402e+02 +1.1368500405e+03 1.1534421002e+03 0.0000000000e+00 0.0000e+00 -1.0000e+00
<mgrwt>
<rscale>  0 0.57628603E+03</rscale>
<asrwt>0</asrwt>
<pdfrwt beam="1">  1        2 0.20291964E+00 0.57628603E+03</pdfrwt>
<pdfrwt beam="2">  1       -2 0.96842367E-02 0.57628603E+03</pdfrwt>
<totfact> 0.13049726E+03</totfact>
</mgrwt>
<rwgt>
<wgt id='morphing_basis_vector_1'> +2.3498548e-04 </wgt>
<wgt id='morphing_basis_vector_2'> +1.3285822e-04 </wgt>
<wgt id='morphing_basis_vector_3'> +1.8243358e-04 </wgt>
<wgt id='morphing_basis_vector_4'> +7.5256407e-05 </wgt>
<wgt id='morphing_basis_vector_5'> +1.1245654e-04 </wgt>
</rwgt>
</event>
</LesHouchesEvents>
