<LesHouchesEvents version="3.0">
<header>
<!--
#*********************************************************************
#                                                                    *
#                        MadGraph5_aMC@NLO                           *
#                                                                    *
#                           Going Beyond                             *
#                                                                    *
#                   http://madgraph.hep.uiuc.edu                     *
#                   http://madgraph.phys.ucl.ac.be                   *
#                   http://amcatnlo.cern.ch                          *
#                                                                    *
#                     The MadGraph5_aMC@NLO team                     *
#                                                                    *
#....................................................................*
#                                                                    *
# This file contains all the information necessary to reproduce      *
# the events generated:                                              *
#                                                                    *
# 1. software version                                                *
# 2. proc_card          : code generation info including model       *
# 3. param_card         : model primary parameters in the LH format  *
# 4. run_card           : running parameters (collider and cuts)     *
# 5. pythia_card        : present only if pythia has been run        *
# 6. pgs_card           : present only if pgs has been run           *
# 7. delphes_cards      : present only if delphes has been run       *
#                                                                    *
#                                                                    *
#*********************************************************************
-->
<MGVersion>
2.6.4
</MGVersion>
<MG5ProcCard>
<![CDATA[
#************************************************************
#*                     MadGraph5_aMC@NLO                    *
#*                                                          *
#*                *                       *                 *
#*                  *        * *        *                   *
#*                    * * * * 5 * * * *                     *
#*                  *        * *        *                   *
#*                *                       *                 *
#*                                                          *
#*                                                          *
#*         VERSION 2.6.4                 2018-11-09         *
#*                                                          *
#*    The MadGraph5_aMC@NLO Development Team - Find us at   *
#*    https://server06.fynu.ucl.ac.be/projects/madgraph     *
#*                                                          *
#************************************************************
#*                                                          *
#*               Command File for MadGraph5_aMC@NLO         *
#*                                                          *
#*     run as ./bin/mg5_aMC  filename                       *
#*                                                          *
#************************************************************
set default_unset_couplings 99
set group_subprocesses Auto
set ignore_six_quark_processes False
set loop_optimized_output True
set loop_color_flows False
set gauge unitary
set complex_mass_scheme False
set max_npoint_for_channel 0
import model SM4fLL_UFO
define p = g u c d s u~ c~ d~ s~
define j = g u c d s u~ c~ d~ s~
define l+ = e+ mu+
define l- = e- mu-
define vl = ve vm vt
define vl~ = ve~ vm~ vt~
generate u u~ > mu+ mu- NP=2 QED=99 QCD=0
output /Users/dpappadopulo/Projects/~Physics/madminer/examples/example\
4_systematics_DY/data/mg_processes/DY_sys/
]]>
</MG5ProcCard>
<MGProcCard>
#*********************************************************************
#                        MadGraph/MadEvent                           *
#                   http://madgraph.hep.uiuc.edu                     *
#                                                                    *
#                          proc_card.dat                             *
#*********************************************************************
#                                                                    *
#            This Files is generated by MADGRAPH 5                   *
#                                                                    *
# WARNING: This Files is generated for MADEVENT (compatibility issue)*
#          This files is NOT a valid MG4 proc_card.dat               *
#          Running this in MG4 will NEVER reproduce the result of MG5*
#                                                                    *
#*********************************************************************
#*********************************************************************
# Process(es) requested : mg2 input                                  *
#*********************************************************************
# Begin PROCESS # This is TAG. Do not modify this line
u u~ > mu+ mu-           #Process
# Be carefull the coupling are here in MG5 convention
NP=2
QED=99
QCD=0
          
end_coup           # End the couplings input

done               # this tells MG there are no more procs
# End PROCESS  # This is TAG. Do not modify this line
#*********************************************************************
# Model information                                                  *
#*********************************************************************
# Begin MODEL  # This is TAG. Do not modify this line
SM4fLL_UFO
# End   MODEL  # This is TAG. Do not modify this line
#*********************************************************************
# Start multiparticle definitions                                    *
#*********************************************************************
# Begin MULTIPARTICLES # This is TAG. Do not modify this line

# End  MULTIPARTICLES # This is TAG. Do not modify this line
</MGProcCard>
<MGRunCard>
<![CDATA[
#*********************************************************************
#                       MadGraph5_aMC@NLO                            *
#                                                                    *
#                     run_card.dat MadEvent                          *
#                                                                    *
#  This file is used to set the parameters of the run.               *
#                                                                    *
#  Some notation/conventions:                                        *
#                                                                    *
#   Lines starting with a '# ' are info or comments                  *
#                                                                    *
#   mind the format:   value    = variable     ! comment             *
#*********************************************************************
#
#*******************                                                 
# Running parameters
#*******************                                                 
#                                                                    
#*********************************************************************
# Tag name for the run (one word)                                    *
#*********************************************************************
  tag_1     = run_tag ! name of the run 
#*********************************************************************
# Run to generate the grid pack                                      *
#*********************************************************************
  False     = gridpack  !True = setting up the grid pack
#*********************************************************************
# Number of events and rnd seed                                      *
# Warning: Do not generate more than 1M events in a single run       *
# If you want to run Pythia, avoid more than 50k events in a run.    *
#*********************************************************************
  1000 = nevents ! Number of unweighted events requested
 111 = iseed   ! rnd seed (0=assigned automatically=default))
#*********************************************************************
# Collider type and energy                                           *
# lpp: 0=No PDF, 1=proton, -1=antiproton, 2=photon from proton,      *
#                                         3=photon from electron     *
#*********************************************************************
     1        = lpp1    ! beam 1 type 
     1        = lpp2    ! beam 2 type
     6500.0     = ebeam1  ! beam 1 total energy in GeV
     6500.0     = ebeam2  ! beam 2 total energy in GeV
#*********************************************************************
# Beam polarization from -100 (left-handed) to 100 (right-handed)    *
#*********************************************************************
     0.0     = polbeam1 ! beam polarization for beam 1
     0.0     = polbeam2 ! beam polarization for beam 2
#*********************************************************************
# PDF CHOICE: this automatically fixes also alpha_s and its evol.    *
#*********************************************************************
     lhapdf    = pdlabel     ! PDF set
     90900   = lhaid     ! if pdlabel=lhapdf, this is the lhapdf number
#*********************************************************************
# Renormalization and factorization scales                           *
#*********************************************************************
 False = fixed_ren_scale  ! if .true. use fixed ren scale
 False        = fixed_fac_scale  ! if .true. use fixed fac scale
 91.188  = scale            ! fixed ren scale
 91.188  = dsqrt_q2fact1    ! fixed fact scale for pdf1
 91.188  = dsqrt_q2fact2    ! fixed fact scale for pdf2
 -1 = dynamical_scale_choice ! Choose one of the preselected dynamical choices
 1.0  = scalefact        ! scale factor for event-by-event scales
#*********************************************************************
# Type and output format
#*********************************************************************
  False     = gridpack  !True = setting up the grid pack
  -1.0 = time_of_flight ! threshold (in mm) below which the invariant livetime is not written (-1 means not written)
  3.0 = lhe_version       ! Change the way clustering information pass to shower.        
  True = clusinfo         ! include clustering tag in output
  sum =  event_norm       ! average/sum. Normalization of the weight in the LHEF
#*********************************************************************
# Matching - Warning! ickkw > 1 is still beta
#*********************************************************************
 0 = ickkw            ! 0 no matching, 1 MLM, 2 CKKW matching
 1 = highestmult      ! for ickkw=2, highest mult group
 1 = ktscheme         ! for ickkw=1, 1 Durham kT, 2 Pythia pTE
 1.0 = alpsfact         ! scale factor for QCD emission vx
 False = chcluster        ! cluster only according to channel diag
 True = pdfwgt           ! for ickkw=1, perform pdf reweighting
 4 = asrwgtflavor     ! highest quark flavor for a_s reweight    
#*********************************************************************
#**********************************************************
#
#**********************************************************
# Automatic ptj and mjj cuts if xqcut > 0
# (turn off for VBF and single top processes)
#**********************************************************
   False  = auto_ptj_mjj  ! Automatic setting of ptj and mjj
#**********************************************************
#                                                                    
#**********************************
# BW cutoff (M+/-bwcutoff*Gamma)
#**********************************
  15.0  = bwcutoff      ! (M+/-bwcutoff*Gamma)
#**********************************************************
# Apply pt/E/eta/dr/mij/kt_durham cuts on decay products or not
# (note that etmiss/ptll/ptheavy/ht/sorted cuts always apply)
#*************************************************************
   False  = cut_decays    ! Cut decay products 
#*************************************************************
# Number of helicities to sum per event (0 = all helicities)
# 0 gives more stable result, but longer run time (needed for
# long decay chains e.g.).
# Use >=2 if most helicities contribute, e.g. pure QCD.
#*************************************************************
   0  = nhel          ! Number of helicities used per event
#*******************                                                 
# Standard Cuts
#*******************                                                 
#                                                                    
#*********************************************************************
# Minimum and maximum pt's (for max, -1 means no cut)                *
#*********************************************************************
 15.0  = ptj       ! minimum pt for the jets
 0.0  = ptb       ! minimum pt for the b 
 0.0 = pta       ! minimum pt for the photons
 25.0  = ptl       ! minimum pt for the charged leptons
 0.0  = misset    ! minimum missing Et (sum of neutrino's momenta)
 0.0  = ptheavy   ! minimum pt for one heavy final state
 -1.0  = ptjmax    ! maximum pt for the jets
 -1.0  = ptbmax    ! maximum pt for the b
 -1.0 = ptamax       ! maximum pt for the photons
 -1.0  = ptlmax    ! maximum pt for the charged leptons
 -1.0  = missetmax ! maximum missing Et (sum of neutrino's momenta)
#*********************************************************************
# Minimum and maximum E's (in the center of mass frame)              *
#*********************************************************************
  0.0  = ej     ! minimum E for the jets 
  0.0  = eb     ! minimum E for the b 
  0.0  = ea     ! minimum E for the photons 
  0.0  = el     ! minimum E for the charged leptons 
  -1.0   = ejmax ! maximum E for the jets
 -1.0   = ebmax ! maximum E for the b
 -1.0   = eamax ! maximum E for the photons
 -1.0   = elmax ! maximum E for the charged leptons
#*********************************************************************
# Maximum and minimum absolute rapidity (for max, -1 means no cut)   *
#*********************************************************************
 2.5 = etaj    ! max rap for the jets
  -1.0  = etab    ! max rap for the b
 3.0  = etaa    ! max rap for the photons
 2.5  = etal    ! max rap for the charged leptons
 0.0  = etajmin ! min rap for the jets
 0.0  = etabmin ! min rap for the b
 0.0  = etaamin ! min rap for the photons
 0.0  = etalmin ! main rap for the charged leptons
#*********************************************************************
# Minimum and maximum DeltaR distance                                *
#*********************************************************************
 0.0 = drjj    ! min distance between jets
 0.0 = drbb    ! min distance between b's
 0.0 = drll    ! min distance between leptons
 0.0 = draa    ! min distance between gammas
 0.0 = drbj    ! min distance between b and jet
 0.0 = draj    ! min distance between gamma and jet
 0.0 = drjl    ! min distance between jet and lepton
 0.0 = drab    ! min distance between gamma and b
 0.0 = drbl    ! min distance between b and lepton
 0.0 = dral    ! min distance between gamma and lepton
 -1.0  = drjjmax ! max distance between jets
 -1.0  = drbbmax ! max distance between b's
 -1.0  = drllmax ! max distance between leptons
 -1.0  = draamax ! max distance between gammas
 -1.0  = drbjmax ! max distance between b and jet
 -1.0  = drajmax ! max distance between gamma and jet
 -1.0  = drjlmax ! max distance between jet and lepton
 -1.0  = drabmax ! max distance between gamma and b
 -1.0  = drblmax ! max distance between b and lepton
 -1.0  = dralmax ! maxdistance between gamma and lepton
#*********************************************************************
# Minimum and maximum invariant mass for pairs                       *
# WARNING: for four lepton final state mmll cut require to have      *
#          different lepton masses for each flavor!                  *           
#*********************************************************************
 0.0   = mmjj    ! min invariant mass of a jet pair 
 0.0   = mmbb    ! min invariant mass of a b pair 
 0.0   = mmaa    ! min invariant mass of gamma gamma pair
 1860   = mmll    ! min invariant mass of l+l- (same flavour) lepton pair
 -1.0  = mmjjmax ! max invariant mass of a jet pair
 -1.0  = mmbbmax ! max invariant mass of a b pair
 -1.0  = mmaamax ! max invariant mass of gamma gamma pair
 2230  = mmllmax ! max invariant mass of l+l- (same flavour) lepton pair
#*********************************************************************
# Minimum and maximum invariant mass for all letpons                 *
#*********************************************************************
 0.0   = mmnl    ! min invariant mass for all letpons (l+- and vl) 
 -1.0  = mmnlmax ! max invariant mass for all letpons (l+- and vl) 
#*********************************************************************
# Minimum and maximum pt for 4-momenta sum of leptons                *
#*********************************************************************
 0.0   = ptllmin  ! Minimum pt for 4-momenta sum of leptons(l and vl)
 -1.0  = ptllmax  ! Maximum pt for 4-momenta sum of leptons(l and vl)
#*********************************************************************
# Inclusive cuts                                                     *
#*********************************************************************
 0.0  = xptj ! minimum pt for at least one jet  
 0.0  = xptb ! minimum pt for at least one b 
 0.0  = xpta ! minimum pt for at least one photon 
 0.0  = xptl ! minimum pt for at least one charged lepton 
#*********************************************************************
# Control the pt's of the jets sorted by pt                          *
#*********************************************************************
 0.0   = ptj1min ! minimum pt for the leading jet in pt
 0.0   = ptj2min ! minimum pt for the second jet in pt
 0.0   = ptj3min ! minimum pt for the third jet in pt
 0.0   = ptj4min ! minimum pt for the fourth jet in pt
 -1.0  = ptj1max ! maximum pt for the leading jet in pt 
 -1.0  = ptj2max ! maximum pt for the second jet in pt
 -1.0  = ptj3max ! maximum pt for the third jet in pt
 -1.0  = ptj4max ! maximum pt for the fourth jet in pt
 0   = cutuse  ! reject event if fails any (0) / all (1) jet pt cuts
#*********************************************************************
# Control the pt's of leptons sorted by pt                           *
#*********************************************************************
 0.0   = ptl1min ! minimum pt for the leading lepton in pt
 0.0   = ptl2min ! minimum pt for the second lepton in pt
 0.0   = ptl3min ! minimum pt for the third lepton in pt
 0.0   = ptl4min ! minimum pt for the fourth lepton in pt
 -1.0  = ptl1max ! maximum pt for the leading lepton in pt 
 -1.0  = ptl2max ! maximum pt for the second lepton in pt
 -1.0  = ptl3max ! maximum pt for the third lepton in pt
 -1.0  = ptl4max ! maximum pt for the fourth lepton in pt
#*********************************************************************
# Control the Ht(k)=Sum of k leading jets                            *
#*********************************************************************
 0.0   = htjmin ! minimum jet HT=Sum(jet pt)
 -1.0  = htjmax ! maximum jet HT=Sum(jet pt)
 0.0   = ihtmin  !inclusive Ht for all partons (including b)
 -1.0  = ihtmax  !inclusive Ht for all partons (including b)
 0.0   = ht2min ! minimum Ht for the two leading jets
 0.0   = ht3min ! minimum Ht for the three leading jets
 0.0   = ht4min ! minimum Ht for the four leading jets
 -1.0  = ht2max ! maximum Ht for the two leading jets
 -1.0  = ht3max ! maximum Ht for the three leading jets
 -1.0  = ht4max ! maximum Ht for the four leading jets
#***********************************************************************
# Photon-isolation cuts, according to hep-ph/9801442                   *
# When ptgmin=0, all the other parameters are ignored                  *
# When ptgmin>0, pta and draj are not going to be used                 *
#***********************************************************************
 0.0 = ptgmin ! Min photon transverse momentum
 0.4 = R0gamma ! Radius of isolation code
 1.0 = xn ! n parameter of eq.(3.4) in hep-ph/9801442
 1.0 = epsgamma ! epsilon_gamma parameter of eq.(3.4) in hep-ph/9801442
 True = isoEM ! isolate photons from EM energy (photons and leptons)
#*********************************************************************
# WBF cuts                                                           *
#*********************************************************************
 0.0   = xetamin ! minimum rapidity for two jets in the WBF case  
 0.0   = deltaeta ! minimum rapidity for two jets in the WBF case 
#*********************************************************************
# KT DURHAM CUT                                                      *
#*********************************************************************
 -1.0    =  ktdurham        
 0.4  =  dparameter 
#*********************************************************************
# maximal pdg code for quark to be considered as a light jet         *
# (otherwise b cuts are applied)                                     *
#*********************************************************************
 4 = maxjetflavor    ! Maximum jet pdg code
#*********************************************************************
# Jet measure cuts                                                   *
#*********************************************************************
 0.0   = xqcut   ! minimum kt jet measure between partons
#*********************************************************************
#
#*********************************************************************
# Store info for systematics studies                                 *
# WARNING: If use_syst is T, matched Pythia output is                *
#          meaningful ONLY if plotted taking matchscale              *
#          reweighting into account!                                 *
#*********************************************************************
#    False  = use_syst      ! Enable systematics studies # Commented out by MadMiner
#
#**************************************
# Parameter of the systematics study
#  will be used by SysCalc (if installed)
#**************************************                                  
#
0.5 1 2 = sys_scalefact  # factorization/renormalization scale factor
None = sys_alpsfact  # \alpha_s emission scale factors
30 50 = sys_matchscale # variation of merging scale
# PDF sets and number of members (0 or none for all members).
NNPDF23_lo_as_0130_qed = sys_pdf # matching scales
# MSTW2008nlo68cl.LHgrid 1  = sys_pdf


#*********************************************************************
# MadMiner systematics setup                                         *
#*********************************************************************
True = use_syst
systematics = systematics_program
['--pdf=90900'] = systematics_arguments
]]>
</MGRunCard>
<slha>
######################################################################
## PARAM_CARD AUTOMATICALY GENERATED BY MG5 FOLLOWING UFO MODEL   ####
######################################################################
##                                                                  ##
##  Width set on Auto will be computed following the information    ##
##        present in the decay.py files of the model.               ##
##        See  arXiv:1402.1178 for more details.                    ##
##                                                                  ##
######################################################################

###################################
## INFORMATION FOR CKMBLOCK
###################################
Block ckmblock 
    1 2.277360e-01 # cabi 

###################################
## INFORMATION FOR MASS
###################################
Block mass 
    5 4.700000e+00 # MB 
    6 1.720000e+02 # MT 
   15 1.777000e+00 # MTA 
   23 9.118760e+01 # MZ 
   25 1.250000e+02 # MH 
## Dependent parameters, given by model restrictions.
## Those values should be edited following the 
## analytical expression. MG5 ignores those values 
## but they are important for interfacing the output of MG5
## to external program such as Pythia.
  1 0.000000 # d : 0.0 
  2 0.000000 # u : 0.0 
  3 0.000000 # s : 0.0 
  4 0.000000 # c : 0.0 
  11 0.000000 # e- : 0.0 
  12 0.000000 # ve : 0.0 
  13 0.000000 # mu- : 0.0 
  14 0.000000 # vm : 0.0 
  16 0.000000 # vt : 0.0 
  21 0.000000 # g : 0.0 
  22 0.000000 # a : 0.0 
  24 79.824360 # w+ : cmath.sqrt(MZ__exp__2/2. + cmath.sqrt(MZ__exp__4/4. - (aEW*cmath.pi*MZ__exp__2)/(Gf*sqrt__2))) 

###################################
## INFORMATION FOR OBLIQUE
###################################
Block oblique 
    1    0.0    # MadMiner
    2    0.0    # MadMiner

###################################
## INFORMATION FOR SMINPUTS
###################################
Block sminputs 
    1 1.279000e+02 # aEWM1 
    2 1.166370e-05 # Gf 
    3 1.184000e-01 # aS 

###################################
## INFORMATION FOR YUKAWA
###################################
Block yukawa 
    5 4.700000e+00 # ymb 
    6 1.720000e+02 # ymt 
   15 1.777000e+00 # ymtau 

###################################
## INFORMATION FOR DECAY
###################################
DECAY   6 1.508336e+00 # WT 
DECAY  23 2.495200e+00 # WZ 
DECAY  24 2.085000e+00 # WW 
DECAY  25 4.070000e-03 # WH 
## Dependent parameters, given by model restrictions.
## Those values should be edited following the 
## analytical expression. MG5 ignores those values 
## but they are important for interfacing the output of MG5
## to external program such as Pythia.
DECAY  1 0.000000 # d : 0.0 
DECAY  2 0.000000 # u : 0.0 
DECAY  3 0.000000 # s : 0.0 
DECAY  4 0.000000 # c : 0.0 
DECAY  5 0.000000 # b : 0.0 
DECAY  11 0.000000 # e- : 0.0 
DECAY  12 0.000000 # ve : 0.0 
DECAY  13 0.000000 # mu- : 0.0 
DECAY  14 0.000000 # vm : 0.0 
DECAY  15 0.000000 # ta- : 0.0 
DECAY  16 0.000000 # vt : 0.0 
DECAY  21 0.000000 # g : 0.0 
DECAY  22 0.000000 # a : 0.0
</slha>
<initrwgt>
<weightgroup name='mg_reweighting' weight_name_strategy='includeIdInWeightName'>
<weight id='morphing_basis_vector_1'>set param_card oblique 1 -0.06391685 # orig: 0.0
set param_card oblique 2 -0.08653588 # orig: 0.0
</weight>
<weight id='morphing_basis_vector_2'>set param_card oblique 1 0.0342439 # orig: 0.0
set param_card oblique 2 -0.09831893 # orig: 0.0
</weight>
<weight id='morphing_basis_vector_3'>set param_card oblique 1 -0.08145691 # orig: 0.0
set param_card oblique 2 0.09700122 # orig: 0.0
</weight>
<weight id='morphing_basis_vector_4'>set param_card oblique 1 0.09132942 # orig: 0.0
set param_card oblique 2 -0.005442744 # orig: 0.0
</weight>
<weight id='morphing_basis_vector_5'>set param_card oblique 1 0.08535809 # orig: 0.0
set param_card oblique 2 0.08156918 # orig: 0.0
</weight>
</weightgroup>
</initrwgt>
<MGGenerationInfo>
#  Number of Events        :       1000
#  Integrated weight (pb)  :       6.0853e-05
</MGGenerationInfo>
</header>
<init>
2212 2212 6.500000e+03 6.500000e+03 0 0 90900 90900 -3 1
6.085300e-05 2.854037e-07 6.085300e-08 1
<generator name='MadGraph5_aMC@NLO' version='2.6.4'>please cite 1405.0301 </generator>
</init>
<event>
 4      1 +6.0853000e-08 1.93047700e+03 7.81860800e-03 8.10070900e-02
        2 -1    0    0  501    0 +0.0000000000e+00 +0.0000000000e+00 +1.4511237310e+03 1.4511237310e+03 0.0000000000e+00 0.0000e+00 -1.0000e+00
       -2 -1    0    0    0  501 -0.0000000000e+00 -0.0000000000e+00 -6.4204424560e+02 6.4204424560e+02 0.0000000000e+00 0.0000e+00 1.0000e+00
      -13  1    1    2    0    0 +7.8000476421e+02 +5.6776657451e+02 +3.7166410999e+02 1.0338764559e+03 0.0000000000e+00 0.0000e+00 -1.0000e+00
       13  1    1    2    0    0 -7.8000476421e+02 -5.6776657451e+02 +4.3741537544e+02 1.0592915208e+03 0.0000000000e+00 0.0000e+00 1.0000e+00
<mgrwt>
<rscale>  0 0.19304773E+04</rscale>
<asrwt>0</asrwt>
<pdfrwt beam="1">  1        2 0.22324980E+00 0.19304773E+04</pdfrwt>
<pdfrwt beam="2">  1       -2 0.98776038E-01 0.19304773E+04</pdfrwt>
<totfact> 0.13727178E+01</totfact>
</mgrwt>
<rwgt>
<wgt id='morphing_basis_vector_1'> +1.2264091e-04 </wgt>
<wgt id='morphing_basis_vector_2'> +9.0367635e-05 </wgt>
<wgt id='morphing_basis_vector_3'> +1.3199411e-04 </wgt>
<wgt id='morphing_basis_vector_4'> +8.0293463e-05 </wgt>
<wgt id='morphing_basis_vector_5'> +1.3948197e-04 </wgt>
</rwgt>
</event>
<event>
 4      1 +6.0853000e-08 2.01640400e+03 7.81860800e-03 8.06485900e-02
        2 -1    0    0  501    0 +0.0000000000e+00 +0.0000000000e+00 +1.6706733876e+03 1.6706733876e+03 0.0000000000e+00 0.0000e+00 1.0000e+00
       -2 -1    0    0    0  501 -0.0000000000e+00 -0.0000000000e+00 -6.0842033338e+02 6.0842033338e+02 0.0000000000e+00 0.0000e+00 -1.0000e+00
      -13  1    1    2    0    0 +1.0071511628e+03 -3.4079311063e+01 +4.9616470382e+02 1.1232516537e+03 0.0000000000e+00 0.0000e+00 -1.0000e+00
       13  1    1    2    0    0 -1.0071511628e+03 +3.4079311063e+01 +5.6608835039e+02 1.1558420673e+03 0.0000000000e+00 0.0000e+00 1.0000e+00
<mgrwt>
<rscale>  0 0.20164044E+04</rscale>
<asrwt>0</asrwt>
<pdfrwt beam="1">  1        2 0.25702667E+00 0.20164044E+04</pdfrwt>
<pdfrwt beam="2">  1       -2 0.93603128E-01 0.20164044E+04</pdfrwt>
<totfact> 0.11673363E+01</totfact>
</mgrwt>
<rwgt>
<wgt id='morphing_basis_vector_1'> +1.4546671e-04 </wgt>
<wgt id='morphing_basis_vector_2'> +1.0740579e-04 </wgt>
<wgt id='morphing_basis_vector_3'> +1.5714201e-04 </wgt>
<wgt id='morphing_basis_vector_4'> +9.5873437e-05 </wgt>
<wgt id='morphing_basis_vector_5'> +1.6661689e-04 </wgt>
</rwgt>
</event>
<event>
 4      1 +6.0853000e-08 2.02664500e+03 7.81860800e-03 8.06071100e-02
        2 -1    0    0  501    0 +0.0000000000e+00 +0.0000000000e+00 +1.8670415890e+03 1.8670415890e+03 0.0000000000e+00 0.0000e+00 1.0000e+00
       -2 -1    0    0    0  501 -0.0000000000e+00 -0.0000000000e+00 -5.4997301879e+02 5.4997301879e+02 0.0000000000e+00 0.0000e+00 -1.0000e+00
      -13  1    1    2    0    0 -8.0651379763e+02 +4.3793886422e+01 -7.1247066041e+01 8.1083818033e+02 0.0000000000e+00 0.0000e+00 -1.0000e+00
       13  1    1    2    0    0 +8.0651379763e+02 -4.3793886422e+01 +1.3883156362e+03 1.6061764275e+03 0.0000000000e+00 0.0000e+00 1.0000e+00
<mgrwt>
<rscale>  0 0.20266450E+04</rscale>
<asrwt>0</asrwt>
<pdfrwt beam="1">  1        2 0.28723716E+00 0.20266450E+04</pdfrwt>
<pdfrwt beam="2">  1       -2 0.84611235E-01 0.20266450E+04</pdfrwt>
<totfact> 0.11472455E+01</totfact>
</mgrwt>
<rwgt>
<wgt id='morphing_basis_vector_1'> +1.4403685e-04 </wgt>
<wgt id='morphing_basis_vector_2'> +9.6710789e-05 </wgt>
<wgt id='morphing_basis_vector_3'> +1.5400792e-04 </wgt>
<wgt id='morphing_basis_vector_4'> +1.0654350e-04 </wgt>
<wgt id='morphing_basis_vector_5'> +1.7078042e-04 </wgt>
</rwgt>
</event>
<event>
 4      1 +6.0853000e-08 1.90151600e+03 7.81860800e-03 8.11323200e-02
        2 -1    0    0  501    0 +0.0000000000e+00 +0.0000000000e+00 +1.2000237336e+03 1.2000237336e+03 0.0000000000e+00 0.0000e+00 -1.0000e+00
       -2 -1    0    0    0  501 -0.0000000000e+00 -0.0000000000e+00 -7.5326878418e+02 7.5326878418e+02 0.0000000000e+00 0.0000e+00 1.0000e+00
      -13  1    1    2    0    0 +4.1642774273e+02 -8.5304916947e+02 +1.6867842377e+02 9.6413555120e+02 0.0000000000e+00 0.0000e+00 1.0000e+00
       13  1    1    2    0    0 -4.1642774273e+02 +8.5304916947e+02 +2.7807652570e+02 9.8915696661e+02 0.0000000000e+00 0.0000e+00 -1.0000e+00
<mgrwt>
<rscale>  0 0.19015156E+04</rscale>
<asrwt>0</asrwt>
<pdfrwt beam="1">  1        2 0.18461903E+00 0.19015156E+04</pdfrwt>
<pdfrwt beam="2">  1       -2 0.11588751E+00 0.19015156E+04</pdfrwt>
<totfact> 0.12882631E+01</totfact>
</mgrwt>
<rwgt>
<wgt id='morphing_basis_vector_1'> +1.1528280e-04 </wgt>
<wgt id='morphing_basis_vector_2'> +8.4188627e-05 </wgt>
<wgt id='morphing_basis_vector_3'> +1.2379394e-04 </wgt>
<wgt id='morphing_basis_vector_4'> +7.6109221e-05 </wgt>
<wgt id='morphing_basis_vector_5'> +1.3117386e-04 </wgt>
</rwgt>
</event>
<event>
 4      1 +6.0853000e-08 1.90533600e+03 7.81860800e-03 8.11156700e-02
        2 -1    0    0  501    0 +0.0000000000e+00 +0.0000000000e+00 +2.0876788747e+03 2.0876788747e+03 0.0000000000e+00 0.0000e+00 -1.0000e+00
       -2 -1    0    0    0  501 -0.0000000000e+00 -0.0000000000e+00 -4.3472974364e+02 4.3472974364e+02 0.0000000000e+00 0.0000e+00 1.0000e+00
      -13  1    1    2    0    0 -4.8635773995e+01 -3.8150685943e+02 -3.2738899560e+02 5.0507076409e+02 0.0000000000e+00 0.0000e+00 1.0000e+00
       13  1    1    2    0    0 +4.8635773995e+01 +3.8150685943e+02 +1.9803381266e+03 2.0173378542e+03 0.0000000000e+00 0.0000e+00 -1.0000e+00
<mgrwt>
<rscale>  0 0.19053358E+04</rscale>
<asrwt>0</asrwt>
<pdfrwt beam="1">  1        2 0.32118136E+00 0.19053358E+04</pdfrwt>
<pdfrwt beam="2">  1       -2 0.66881500E-01 0.19053358E+04</pdfrwt>
<totfact> 0.14648880E+01</totfact>
</mgrwt>
<rwgt>
<wgt id='morphing_basis_vector_1'> +1.1283922e-04 </wgt>
<wgt id='morphing_basis_vector_2'> +7.4925503e-05 </wgt>
<wgt id='morphing_basis_vector_3'> +1.1997782e-04 </wgt>
<wgt id='morphing_basis_vector_4'> +8.3349873e-05 </wgt>
<wgt id='morphing_basis_vector_5'> +1.3277253e-04 </wgt>
</rwgt>
</event>
<event>
 4      1 +6.0853000e-08 1.87804400e+03 7.81860800e-03 8.12355300e-02
        2 -1    0    0  501    0 +0.0000000000e+00 +0.0000000000e+00 +1.8553152720e+03 1.8553152720e+03 0.0000000000e+00 0.0000e+00 -1.0000e+00
       -2 -1    0    0    0  501 -0.0000000000e+00 -0.0000000000e+00 -4.7526293277e+02 4.7526293277e+02 0.0000000000e+00 0.0000e+00 1.0000e+00
      -13  1    1    2    0    0 -8.4095340583e+02 -1.4515046446e+02 +2.0384322409e+02 8.7739577622e+02 0.0000000000e+00 0.0000e+00 1.0000e+00
       13  1    1    2    0    0 +8.4095340583e+02 +1.4515046446e+02 +1.1762091152e+03 1.4531824286e+03 0.0000000000e+00 0.0000e+00 -1.0000e+00
<mgrwt>
<rscale>  0 0.18780443E+04</rscale>
<asrwt>0</asrwt>
<pdfrwt beam="1">  1        2 0.28543311E+00 0.18780443E+04</pdfrwt>
<pdfrwt beam="2">  1       -2 0.73117375E-01 0.18780443E+04</pdfrwt>
<totfact> 0.16378348E+01</totfact>
</mgrwt>
<rwgt>
<wgt id='morphing_basis_vector_1'> +1.0735934e-04 </wgt>
<wgt id='morphing_basis_vector_2'> +7.2865137e-05 </wgt>
<wgt id='morphing_basis_vector_3'> +1.1427692e-04 </wgt>
<wgt id='morphing_basis_vector_4'> +7.7181589e-05 </wgt>
<wgt id='morphing_basis_vector_5'> +1.2505497e-04 </wgt>
</rwgt>
</event>
<event>
 4      1 +6.0853000e-08 1.90195500e+03 7.81860800e-03 8.11304000e-02
        2 -1    0    0  501    0 +0.0000000000e+00 +0.0000000000e+00 +1.9759200263e+03 1.9759200263e+03 0.0000000000e+00 0.0000e+00 1.0000e+00
       -2 -1    0    0    0  501 -0.0000000000e+00 -0.0000000000e+00 -4.5768985428e+02 4.5768985428e+02 0.0000000000e+00 0.0000e+00 -1.0000e+00
      -13  1    1    2    0    0 -3.9072334158e+02 -1.1377660265e+02 -3.4064766523e+02 5.3070771315e+02 0.0000000000e+00 0.0000e+00 -1.0000e+00
       13  1    1    2    0    0 +3.9072334158e+02 +1.1377660265e+02 +1.8588778372e+03 1.9029021674e+03 0.0000000000e+00 0.0000e+00 1.0000e+00
<mgrwt>
<rscale>  0 0.19019554E+04</rscale>
<asrwt>0</asrwt>
<pdfrwt beam="1">  1        2 0.30398769E+00 0.19019554E+04</pdfrwt>
<pdfrwt beam="2">  1       -2 0.70413825E-01 0.19019554E+04</pdfrwt>
<totfact> 0.15179870E+01</totfact>
</mgrwt>
<rwgt>
<wgt id='morphing_basis_vector_1'> +1.1206089e-04 </wgt>
<wgt id='morphing_basis_vector_2'> +7.4407950e-05 </wgt>
<wgt id='morphing_basis_vector_3'> +1.1913405e-04 </wgt>
<wgt id='morphing_basis_vector_4'> +8.2742108e-05 </wgt>
<wgt id='morphing_basis_vector_5'> +1.3181150e-04 </wgt>
</rwgt>
</event>
<event>
 4      1 +6.0853000e-08 2.04974500e+03 7.81860800e-03 8.05144600e-02
        2 -1    0    0  501    0 +0.0000000000e+00 +0.0000000000e+00 +1.0469925687e+03 1.0469925687e+03 0.0000000000e+00 0.0000e+00 -1.0000e+00
       -2 -1    0    0    0  501 -0.0000000000e+00 -0.0000000000e+00 -1.0032202216e+03 1.0032202216e+03 0.0000000000e+00 0.0000e+00 1.0000e+00
      -13  1    1    2    0    0 -1.7336743061e+01 +1.7539435360e+02 -9.8794807683e+02 1.0035462842e+03 0.0000000000e+00 0.0000e+00 1.0000e+00
       13  1    1    2    0    0 +1.7336743061e+01 -1.7539435360e+02 +1.0317204240e+03 1.0466665062e+03 0.0000000000e+00 0.0000e+00 -1.0000e+00
<mgrwt>
<rscale>  0 0.20497455E+04</rscale>
<asrwt>0</asrwt>
<pdfrwt beam="1">  1        2 0.16107578E+00 0.20497455E+04</pdfrwt>
<pdfrwt beam="2">  1       -2 0.15434157E+00 0.20497455E+04</pdfrwt>
<totfact> 0.72036202E+00</totfact>
</mgrwt>
<rwgt>
<wgt id='morphing_basis_vector_1'> +1.5021510e-04 </wgt>
<wgt id='morphing_basis_vector_2'> +1.0006556e-04 </wgt>
<wgt id='morphing_basis_vector_3'> +1.6059898e-04 </wgt>
<wgt id='morphing_basis_vector_4'> +1.1231701e-04 </wgt>
<wgt id='morphing_basis_vector_5'> +1.7891654e-04 </wgt>
</rwgt>
</event>
<event>
 4      1 +6.0853000e-08 1.95373900e+03 7.81860800e-03 8.09081500e-02
        2 -1    0    0  501    0 +0.0000000000e+00 +0.0000000000e+00 +3.5528313114e+03 3.5528313114e+03 0.0000000000e+00 0.0000e+00 -1.0000e+00
       -2 -1    0    0    0  501 -0.0000000000e+00 -0.0000000000e+00 -2.6859548053e+02 2.6859548053e+02 0.0000000000e+00 0.0000e+00 1.0000e+00
      -13  1    1    2    0    0 -5.2789193496e+02 +3.0756005094e+02 +1.5120865024e+02 6.2938631685e+02 0.0000000000e+00 0.0000e+00 1.0000e+00
       13  1    1    2    0    0 +5.2789193496e+02 -3.0756005094e+02 +3.1330271806e+03 3.1920404750e+03 0.0000000000e+00 0.0000e+00 -1.0000e+00
<mgrwt>
<rscale>  0 0.19537394E+04</rscale>
<asrwt>0</asrwt>
<pdfrwt beam="1">  1        2 0.54658940E+00 0.19537394E+04</pdfrwt>
<pdfrwt beam="2">  1       -2 0.41322384E-01 0.19537394E+04</pdfrwt>
<totfact> 0.44648171E+00</totfact>
</mgrwt>
<rwgt>
<wgt id='morphing_basis_vector_1'> +1.2454579e-04 </wgt>
<wgt id='morphing_basis_vector_2'> +8.2955861e-05 </wgt>
<wgt id='morphing_basis_vector_3'> +1.3271367e-04 </wgt>
<wgt id='morphing_basis_vector_4'> +9.2209522e-05 </wgt>
<wgt id='morphing_basis_vector_5'> +1.4709690e-04 </wgt>
</rwgt>
</event>
<event>
 4      1 +6.0853000e-08 2.00151200e+03 7.81860800e-03 8.07093800e-02
        2 -1    0    0  501    0 +0.0000000000e+00 +0.0000000000e+00 +2.4289834316e+03 2.4289834316e+03 0.0000000000e+00 0.0000e+00 -1.0000e+00
       -2 -1    0    0    0  501 -0.0000000000e+00 -0.0000000000e+00 -4.1231749235e+02 4.1231749235e+02 0.0000000000e+00 0.0000e+00 1.0000e+00
      -13  1    1    2    0    0 -4.1484448070e+02 -7.0731589424e+01 -2.8060381094e+02 5.0580371650e+02 0.0000000000e+00 0.0000e+00 1.0000e+00
       13  1    1    2    0    0 +4.1484448070e+02 +7.0731589424e+01 +2.2972697502e+03 2.3354972075e+03 0.0000000000e+00 0.0000e+00 -1.0000e+00
<mgrwt>
<rscale>  0 0.20015118E+04</rscale>
<asrwt>0</asrwt>
<pdfrwt beam="1">  1        2 0.37368975E+00 0.20015118E+04</pdfrwt>
<pdfrwt beam="2">  1       -2 0.63433462E-01 0.20015118E+04</pdfrwt>
<totfact> 0.10316190E+01</totfact>
</mgrwt>
<rwgt>
<wgt id='morphing_basis_vector_1'> +1.3683658e-04 </wgt>
<wgt id='morphing_basis_vector_2'> +9.1083714e-05 </wgt>
<wgt id='morphing_basis_vector_3'> +1.4604960e-04 </wgt>
<wgt id='morphing_basis_vector_4'> +1.0190222e-04 </wgt>
<wgt id='morphing_basis_vector_5'> +1.6235484e-04 </wgt>
</rwgt>
</event>
<event>
 4      1 +6.0853000e-08 2.16991900e+03 7.81860800e-03 8.00521000e-02
        2 -1    0    0  501    0 +0.0000000000e+00 +0.0000000000e+00 +2.2859765000e+03 2.2859765000e+03 0.0000000000e+00 0.0000e+00 1.0000e+00
       -2 -1    0    0    0  501 -0.0000000000e+00 -0.0000000000e+00 -5.1493848313e+02 5.1493848313e+02 0.0000000000e+00 0.0000e+00 -1.0000e+00
      -13  1    1    2    0    0 +9.1610290064e+02 -3.1607382010e+02 +2.5581593991e+02 1.0022918634e+03 0.0000000000e+00 0.0000e+00 -1.0000e+00
       13  1    1    2    0    0 -9.1610290064e+02 +3.1607382010e+02 +1.5152220769e+03 1.7986231197e+03 0.0000000000e+00 0.0000e+00 1.0000e+00
<mgrwt>
<rscale>  0 0.21699191E+04</rscale>
<asrwt>0</asrwt>
<pdfrwt beam="1">  1        2 0.35168869E+00 0.21699191E+04</pdfrwt>
<pdfrwt beam="2">  1       -2 0.79221306E-01 0.21699191E+04</pdfrwt>
<totfact> 0.76211474E+00</totfact>
</mgrwt>
<rwgt>
<wgt id='morphing_basis_vector_1'> +1.8896491e-04 </wgt>
<wgt id='morphing_basis_vector_2'> +1.2866141e-04 </wgt>
<wgt id='morphing_basis_vector_3'> +2.0324332e-04 </wgt>
<wgt id='morphing_basis_vector_4'> +1.3944893e-04 </wgt>
<wgt id='morphing_basis_vector_5'> +2.2546627e-04 </wgt>
</rwgt>
</event>
<event>
 4      1 +6.0853000e-08 1.90160600e+03 7.81860800e-03 8.11319300e-02
        2 -1    0    0  501    0 +0.0000000000e+00 +0.0000000000e+00 +1.2702526696e+03 1.2702526696e+03 0.0000000000e+00 0.0000e+00 -1.0000e+00
       -2 -1    0    0    0  501 -0.0000000000e+00 -0.0000000000e+00 -7.1169008465e+02 7.1169008465e+02 0.0000000000e+00 0.0000e+00 1.0000e+00
      -13  1    1    2    0    0 +7.9936686008e+01 +8.5958583214e+02 -1.3598385508e+02 8.7393894834e+02 0.0000000000e+00 0.0000e+00 1.0000e+00
       13  1    1    2    0    0 -7.9936686008e+01 -8.5958583214e+02 +6.9454644006e+02 1.1080038059e+03 0.0000000000e+00 0.0000e+00 -1.0000e+00
<mgrwt>
<rscale>  0 0.19016059E+04</rscale>
<asrwt>0</asrwt>
<pdfrwt beam="1">  1        2 0.19542349E+00 0.19016059E+04</pdfrwt>
<pdfrwt beam="2">  1       -2 0.10949078E+00 0.19016059E+04</pdfrwt>
<totfact> 0.13542061E+01</totfact>
</mgrwt>
<rwgt>
<wgt id='morphing_basis_vector_1'> +1.1271592e-04 </wgt>
<wgt id='morphing_basis_vector_2'> +7.6533666e-05 </wgt>
<wgt id='morphing_basis_vector_3'> +1.2010242e-04 </wgt>
<wgt id='morphing_basis_vector_4'> +8.1229200e-05 </wgt>
<wgt id='morphing_basis_vector_5'> +1.3159892e-04 </wgt>
</rwgt>
</event>
<event>
 4      1 +6.0853000e-08 2.21500500e+03 7.81860800e-03 7.98865700e-02
        2 -1    0    0  501    0 +0.0000000000e+00 +0.0000000000e+00 +1.3954759967e+03 1.3954759967e+03 0.0000000000e+00 0.0000e+00 -1.0000e+00
       -2 -1    0    0    0  501 -0.0000000000e+00 -0.0000000000e+00 -8.7895564870e+02 8.7895564870e+02 0.0000000000e+00 0.0000e+00 1.0000e+00
      -13  1    1    2    0    0 +6.2451204675e+02 -3.4994893278e+02 -6.0944514096e+02 9.4016112020e+02 0.0000000000e+00 0.0000e+00 1.0000e+00
       13  1    1    2    0    0 -6.2451204675e+02 +3.4994893278e+02 +1.1259654889e+03 1.3342705252e+03 0.0000000000e+00 0.0000e+00 -1.0000e+00
<mgrwt>
<rscale>  0 0.22150047E+04</rscale>
<asrwt>0</asrwt>
<pdfrwt beam="1">  1        2 0.21468861E+00 0.22150047E+04</pdfrwt>
<pdfrwt beam="2">  1       -2 0.13522395E+00 0.22150047E+04</pdfrwt>
<totfact> 0.64457606E+00</totfact>
</mgrwt>
<rwgt>
<wgt id='morphing_basis_vector_1'> +2.0385661e-04 </wgt>
<wgt id='morphing_basis_vector_2'> +1.3657827e-04 </wgt>
<wgt id='morphing_basis_vector_3'> +2.1912022e-04 </wgt>
<wgt id='morphing_basis_vector_4'> +1.5367719e-04 </wgt>
<wgt id='morphing_basis_vector_5'> +2.4529909e-04 </wgt>
</rwgt>
</event>
<event>
 4      1 +6.0853000e-08 2.21937000e+03 7.81860800e-03 7.98707500e-02
        2 -1    0    0  501    0 +0.0000000000e+00 +0.0000000000e+00 +1.7515009595e+03 1.7515009595e+03 0.0000000000e+00 0.0000e+00 1.0000e+00
       -2 -1    0    0    0  501 -0.0000000000e+00 -0.0000000000e+00 -7.0305490470e+02 7.0305490470e+02 0.0000000000e+00 0.0000e+00 -1.0000e+00
      -13  1    1    2    0    0 +7.6615838006e+02 +1.9234785954e+02 -3.3772739645e+02 8.5910194780e+02 0.0000000000e+00 0.0000e+00 -1.0000e+00
       13  1    1    2    0    0 -7.6615838006e+02 -1.9234785954e+02 +1.3861734513e+03 1.5954539164e+03 0.0000000000e+00 0.0000e+00 1.0000e+00
<mgrwt>
<rscale>  0 0.22193705E+04</rscale>
<asrwt>0</asrwt>
<pdfrwt beam="1">  1        2 0.26946168E+00 0.22193705E+04</pdfrwt>
<pdfrwt beam="2">  1       -2 0.10816229E+00 0.22193705E+04</pdfrwt>
<totfact> 0.72887320E+00</totfact>
</mgrwt>
<rwgt>
<wgt id='morphing_basis_vector_1'> +2.0554566e-04 </wgt>
<wgt id='morphing_basis_vector_2'> +1.3795756e-04 </wgt>
<wgt id='morphing_basis_vector_3'> +2.2100550e-04 </wgt>
<wgt id='morphing_basis_vector_4'> +1.5470195e-04 </wgt>
<wgt id='morphing_basis_vector_5'> +2.4725377e-04 </wgt>
</rwgt>
</event>
<event>
 4      1 +6.0853000e-08 2.15379800e+03 7.81860800e-03 8.01123000e-02
        2 -1    0    0  501    0 +0.0000000000e+00 +0.0000000000e+00 +2.4030989113e+03 2.4030989113e+03 0.0000000000e+00 0.0000e+00 -1.0000e+00
       -2 -1    0    0    0  501 -0.0000000000e+00 -0.0000000000e+00 -4.8259006336e+02 4.8259006336e+02 0.0000000000e+00 0.0000e+00 1.0000e+00
      -13  1    1    2    0    0 +1.9063784293e+02 +7.0909561587e+02 -9.5185941767e+01 7.4041862693e+02 0.0000000000e+00 0.0000e+00 1.0000e+00
       13  1    1    2    0    0 -1.9063784293e+02 -7.0909561587e+02 +2.0156947897e+03 2.1452703477e+03 0.0000000000e+00 0.0000e+00 -1.0000e+00
<mgrwt>
<rscale>  0 0.21537982E+04</rscale>
<asrwt>0</asrwt>
<pdfrwt beam="1">  1        2 0.36970752E+00 0.21537982E+04</pdfrwt>
<pdfrwt beam="2">  1       -2 0.74244626E-01 0.21537982E+04</pdfrwt>
<totfact> 0.75361479E+00</totfact>
</mgrwt>
<rwgt>
<wgt id='morphing_basis_vector_1'> +1.8263250e-04 </wgt>
<wgt id='morphing_basis_vector_2'> +1.2232396e-04 </wgt>
<wgt id='morphing_basis_vector_3'> +1.9598119e-04 </wgt>
<wgt id='morphing_basis_vector_4'> +1.3704251e-04 </wgt>
<wgt id='morphing_basis_vector_5'> +2.1886848e-04 </wgt>
</rwgt>
</event>
<event>
 4      1 +6.0853000e-08 2.01620900e+03 7.81860800e-03 8.06493900e-02
        2 -1    0    0  501    0 +0.0000000000e+00 +0.0000000000e+00 +8.2921024879e+02 8.2921024879e+02 0.0000000000e+00 0.0000e+00 -1.0000e+00
       -2 -1    0    0    0  501 -0.0000000000e+00 -0.0000000000e+00 -1.2255938072e+03 1.2255938072e+03 0.0000000000e+00 0.0000e+00 1.0000e+00
      -13  1    1    2    0    0 +3.9694030227e+02 -3.7239236582e+02 +6.6660148217e+02 8.6057841811e+02 0.0000000000e+00 0.0000e+00 1.0000e+00
       13  1    1    2    0    0 -3.9694030227e+02 +3.7239236582e+02 -1.0629850406e+03 1.1942256379e+03 0.0000000000e+00 0.0000e+00 -1.0000e+00
<mgrwt>
<rscale>  0 0.20162093E+04</rscale>
<asrwt>0</asrwt>
<pdfrwt beam="1">  1        2 0.12757081E+00 0.20162093E+04</pdfrwt>
<pdfrwt beam="2">  1       -2 0.18855289E+00 0.20162093E+04</pdfrwt>
<totfact> 0.54039585E+00</totfact>
</mgrwt>
<rwgt>
<wgt id='morphing_basis_vector_1'> +1.8961504e-04 </wgt>
<wgt id='morphing_basis_vector_2'> +2.3822249e-04 </wgt>
<wgt id='morphing_basis_vector_3'> +2.2156868e-04 </wgt>
<wgt id='morphing_basis_vector_4'> +7.7679499e-06 </wgt>
<wgt id='morphing_basis_vector_5'> +1.5959339e-04 </wgt>
</rwgt>
</event>
<event>
 4      1 +6.0853000e-08 2.08921600e+03 7.81860800e-03 8.03590500e-02
        2 -1    0    0  501    0 +0.0000000000e+00 +0.0000000000e+00 +2.7464849062e+03 2.7464849062e+03 0.0000000000e+00 0.0000e+00 -1.0000e+00
       -2 -1    0    0    0  501 -0.0000000000e+00 -0.0000000000e+00 -3.9731015913e+02 3.9731015913e+02 0.0000000000e+00 0.0000e+00 1.0000e+00
      -13  1    1    2    0    0 +4.2274229368e+02 -9.0390222598e+02 +7.0967342805e+02 1.2244944489e+03 0.0000000000e+00 0.0000e+00 1.0000e+00
       13  1    1    2    0    0 -4.2274229368e+02 +9.0390222598e+02 +1.6395013190e+03 1.9193006164e+03 0.0000000000e+00 0.0000e+00 -1.0000e+00
<mgrwt>
<rscale>  0 0.20892165E+04</rscale>
<asrwt>0</asrwt>
<pdfrwt beam="1">  1        2 0.42253613E+00 0.20892165E+04</pdfrwt>
<pdfrwt beam="2">  1       -2 0.61124641E-01 0.20892165E+04</pdfrwt>
<totfact> 0.71065716E+00</totfact>
</mgrwt>
<rwgt>
<wgt id='morphing_basis_vector_1'> +1.6377103e-04 </wgt>
<wgt id='morphing_basis_vector_2'> +1.1349681e-04 </wgt>
<wgt id='morphing_basis_vector_3'> +1.7607817e-04 </wgt>
<wgt id='morphing_basis_vector_4'> +1.1762270e-04 </wgt>
<wgt id='morphing_basis_vector_5'> +1.9307911e-04 </wgt>
</rwgt>
</event>
<event>
 4      1 +6.0853000e-08 2.20946300e+03 7.81860800e-03 7.99066900e-02
        2 -1    0    0  501    0 +0.0000000000e+00 +0.0000000000e+00 +2.0881486757e+03 2.0881486757e+03 0.0000000000e+00 0.0000e+00 -1.0000e+00
       -2 -1    0    0    0  501 -0.0000000000e+00 -0.0000000000e+00 -5.8445631874e+02 5.8445631874e+02 0.0000000000e+00 0.0000e+00 1.0000e+00
      -13  1    1    2    0    0 -4.1818793454e+01 -1.0881445141e+03 +5.2676502780e+02 1.2096647013e+03 0.0000000000e+00 0.0000e+00 1.0000e+00
       13  1    1    2    0    0 +4.1818793454e+01 +1.0881445141e+03 +9.7692732915e+02 1.4629402932e+03 0.0000000000e+00 0.0000e+00 -1.0000e+00
<mgrwt>
<rscale>  0 0.22094630E+04</rscale>
<asrwt>0</asrwt>
<pdfrwt beam="1">  1        2 0.32125364E+00 0.22094630E+04</pdfrwt>
<pdfrwt beam="2">  1       -2 0.89916358E-01 0.22094630E+04</pdfrwt>
<totfact> 0.73653218E+00</totfact>
</mgrwt>
<rwgt>
<wgt id='morphing_basis_vector_1'> +2.0564302e-04 </wgt>
<wgt id='morphing_basis_vector_2'> +1.4641484e-04 </wgt>
<wgt id='morphing_basis_vector_3'> +2.2258208e-04 </wgt>
<wgt id='morphing_basis_vector_4'> +1.4447667e-04 </wgt>
<wgt id='morphing_basis_vector_5'> +2.4220208e-04 </wgt>
</rwgt>
</event>
<event>
 4      1 +6.0853000e-08 2.01842300e+03 7.81860800e-03 8.06403900e-02
        2 -1    0    0  501    0 +0.0000000000e+00 +0.0000000000e+00 +1.6484246622e+03 1.6484246622e+03 0.0000000000e+00 0.0000e+00 -1.0000e+00
       -2 -1    0    0    0  501 -0.0000000000e+00 -0.0000000000e+00 -6.1786762899e+02 6.1786762899e+02 0.0000000000e+00 0.0000e+00 1.0000e+00
      -13  1    1    2    0    0 +2.8040934957e+02 +5.1327266091e+02 -4.0817509967e+02 7.1322166242e+02 0.0000000000e+00 0.0000e+00 1.0000e+00
       13  1    1    2    0    0 -2.8040934957e+02 -5.1327266091e+02 +1.4387321329e+03 1.5530706288e+03 0.0000000000e+00 0.0000e+00 -1.0000e+00
<mgrwt>
<rscale>  0 0.20184234E+04</rscale>
<asrwt>0</asrwt>
<pdfrwt beam="1">  1        2 0.25360379E+00 0.20184234E+04</pdfrwt>
<pdfrwt beam="2">  1       -2 0.95056559E-01 0.20184234E+04</pdfrwt>
<totfact> 0.11580357E+01</totfact>
</mgrwt>
<rwgt>
<wgt id='morphing_basis_vector_1'> +1.4147108e-04 </wgt>
<wgt id='morphing_basis_vector_2'> +9.4310966e-05 </wgt>
<wgt id='morphing_basis_vector_3'> +1.5110718e-04 </wgt>
<wgt id='morphing_basis_vector_4'> +1.0536691e-04 </wgt>
<wgt id='morphing_basis_vector_5'> +1.6801756e-04 </wgt>
</rwgt>
</event>
<event>
 4      1 +6.0853000e-08 2.19114800e+03 7.81860800e-03 7.99736400e-02
        2 -1    0    0  501    0 +0.0000000000e+00 +0.0000000000e+00 +1.6506600335e+03 1.6506600335e+03 0.0000000000e+00 0.0000e+00 -1.0000e+00
       -2 -1    0    0    0  501 -0.0000000000e+00 -0.0000000000e+00 -7.2715304237e+02 7.2715304237e+02 0.0000000000e+00 0.0000e+00 1.0000e+00
      -13  1    1    2    0    0 -6.4139659862e+02 +8.8480364236e+02 +5.4591967753e+02 1.2215954226e+03 0.0000000000e+00 0.0000e+00 1.0000e+00
       13  1    1    2    0    0 +6.4139659862e+02 -8.8480364236e+02 +3.7758731358e+02 1.1562176532e+03 0.0000000000e+00 0.0000e+00 -1.0000e+00
<mgrwt>
<rscale>  0 0.21911481E+04</rscale>
<asrwt>0</asrwt>
<pdfrwt beam="1">  1        2 0.25394770E+00 0.21911481E+04</pdfrwt>
<pdfrwt beam="2">  1       -2 0.11186970E+00 0.21911481E+04</pdfrwt>
<totfact> 0.76409950E+00</totfact>
</mgrwt>
<rwgt>
<wgt id='morphing_basis_vector_1'> +2.0440683e-04 </wgt>
<wgt id='morphing_basis_vector_2'> +1.5758344e-04 </wgt>
<wgt id='morphing_basis_vector_3'> +2.2331280e-04 </wgt>
<wgt id='morphing_basis_vector_4'> +1.2880455e-04 </wgt>
<wgt id='morphing_basis_vector_5'> +2.3327360e-04 </wgt>
</rwgt>
</event>
<event>
 4      1 +6.0853000e-08 2.12956000e+03 7.81860800e-03 8.02038400e-02
        2 -1    0    0  501    0 +0.0000000000e+00 +0.0000000000e+00 +1.3562914607e+03 1.3562914607e+03 0.0000000000e+00 0.0000e+00 -1.0000e+00
       -2 -1    0    0    0  501 -0.0000000000e+00 -0.0000000000e+00 -8.3592407008e+02 8.3592407008e+02 0.0000000000e+00 0.0000e+00 1.0000e+00
      -13  1    1    2    0    0 +2.4445161307e+02 -5.5421421682e+02 -6.4127866683e+02 8.8212715511e+02 0.0000000000e+00 0.0000e+00 1.0000e+00
       13  1    1    2    0    0 -2.4445161307e+02 +5.5421421682e+02 +1.1616460574e+03 1.3100883757e+03 0.0000000000e+00 0.0000e+00 -1.0000e+00
<mgrwt>
<rscale>  0 0.21295602E+04</rscale>
<asrwt>0</asrwt>
<pdfrwt beam="1">  1        2 0.20866023E+00 0.21295602E+04</pdfrwt>
<pdfrwt beam="2">  1       -2 0.12860370E+00 0.21295602E+04</pdfrwt>
<totfact> 0.78245552E+00</totfact>
</mgrwt>
<rwgt>
<wgt id='morphing_basis_vector_1'> +1.7458595e-04 </wgt>
<wgt id='morphing_basis_vector_2'> +1.1664512e-04 </wgt>
<wgt id='morphing_basis_vector_3'> +1.8716693e-04 </wgt>
<wgt id='morphing_basis_vector_4'> +1.3108285e-04 </wgt>
<wgt id='morphing_basis_vector_5'> +2.0903181e-04 </wgt>
</rwgt>
</event>
<event>
 4      1 +6.0853000e-08 2.06872500e+03 7.81860800e-03 8.04392900e-02
        2 -1    0    0  501    0 +0.0000000000e+00 +0.0000000000e+00 +1.5776710125e+03 1.5776710125e+03 0.0000000000e+00 0.0000e+00 1.0000e+00
       -2 -1    0    0    0  501 -0.0000000000e+00 -0.0000000000e+00 -6.7815502241e+02 6.7815502241e+02 0.0000000000e+00 0.0000e+00 -1.0000e+00
      -13  1    1    2    0    0 -5.7607920670e+02 +8.4719788586e+02 +6.0509925977e+02 1.1898557158e+03 0.0000000000e+00 0.0000e+00 1.0000e+00
       13  1    1    2    0    0 +5.7607920670e+02 -8.4719788586e+02 +2.9441673034e+02 1.0659703191e+03 0.0000000000e+00 0.0000e+00 -1.0000e+00
<mgrwt>
<rscale>  0 0.20687247E+04</rscale>
<asrwt>0</asrwt>
<pdfrwt beam="1">  1        2 0.24271862E+00 0.20687247E+04</pdfrwt>
<pdfrwt beam="2">  1       -2 0.10433154E+00 0.20687247E+04</pdfrwt>
<totfact> 0.10088687E+01</totfact>
</mgrwt>
<rwgt>
<wgt id='morphing_basis_vector_1'> +1.6498953e-04 </wgt>
<wgt id='morphing_basis_vector_2'> +1.3114201e-04 </wgt>
<wgt id='morphing_basis_vector_3'> +1.8019269e-04 </wgt>
<wgt id='morphing_basis_vector_4'> +9.8125054e-05 </wgt>
<wgt id='morphing_basis_vector_5'> +1.8429964e-04 </wgt>
</rwgt>
</event>
<event>
 4      1 +6.0853000e-08 1.95197500e+03 7.81860800e-03 8.09156000e-02
        2 -1    0    0  501    0 +0.0000000000e+00 +0.0000000000e+00 +1.0325883419e+03 1.0325883419e+03 0.0000000000e+00 0.0000e+00 -1.0000e+00
       -2 -1    0    0    0  501 -0.0000000000e+00 -0.0000000000e+00 -9.2248912865e+02 9.2248912865e+02 0.0000000000e+00 0.0000e+00 1.0000e+00
      -13  1    1    2    0    0 -6.3903399333e+02 -7.3295231894e+02 +1.3865667143e+02 9.8224702545e+02 0.0000000000e+00 0.0000e+00 1.0000e+00
       13  1    1    2    0    0 +6.3903399333e+02 +7.3295231894e+02 -2.8557458184e+01 9.7283044509e+02 0.0000000000e+00 0.0000e+00 -1.0000e+00
<mgrwt>
<rscale>  0 0.19519749E+04</rscale>
<asrwt>0</asrwt>
<pdfrwt beam="1">  1        2 0.15885974E+00 0.19519749E+04</pdfrwt>
<pdfrwt beam="2">  1       -2 0.14192140E+00 0.19519749E+04</pdfrwt>
<totfact> 0.94068965E+00</totfact>
</mgrwt>
<rwgt>
<wgt id='morphing_basis_vector_1'> +1.3016970e-04 </wgt>
<wgt id='morphing_basis_vector_2'> +1.0062091e-04 </wgt>
<wgt id='morphing_basis_vector_3'> +1.4100492e-04 </wgt>
<wgt id='morphing_basis_vector_4'> +7.9854213e-05 </wgt>
<wgt id='morphing_basis_vector_5'> +1.4561043e-04 </wgt>
</rwgt>
</event>
<event>
 4      1 +6.0853000e-08 2.11644200e+03 7.81860800e-03 8.02539200e-02
        2 -1    0    0  501    0 +0.0000000000e+00 +0.0000000000e+00 +2.2766951247e+03 2.2766951247e+03 0.0000000000e+00 0.0000e+00 1.0000e+00
       -2 -1    0    0    0  501 -0.0000000000e+00 -0.0000000000e+00 -4.9186707281e+02 4.9186707281e+02 0.0000000000e+00 0.0000e+00 -1.0000e+00
      -13  1    1    2    0    0 -2.2574205302e+02 -6.7114606169e+02 -1.3630069487e+02 7.2109249756e+02 0.0000000000e+00 0.0000e+00 -1.0000e+00
       13  1    1    2    0    0 +2.2574205302e+02 +6.7114606169e+02 +1.9211287468e+03 2.0474697000e+03 0.0000000000e+00 0.0000e+00 1.0000e+00
<mgrwt>
<rscale>  0 0.21164417E+04</rscale>
<asrwt>0</asrwt>
<pdfrwt beam="1">  1        2 0.35026078E+00 0.21164417E+04</pdfrwt>
<pdfrwt beam="2">  1       -2 0.75671858E-01 0.21164417E+04</pdfrwt>
<totfact> 0.85898595E+00</totfact>
</mgrwt>
<rwgt>
<wgt id='morphing_basis_vector_1'> +1.7048348e-04 </wgt>
<wgt id='morphing_basis_vector_2'> +1.1406765e-04 </wgt>
<wgt id='morphing_basis_vector_3'> +1.8272844e-04 </wgt>
<wgt id='morphing_basis_vector_4'> +1.2765888e-04 </wgt>
<wgt id='morphing_basis_vector_5'> +2.0382510e-04 </wgt>
</rwgt>
</event>
<event>
 4      1 +6.0853000e-08 2.03459100e+03 7.81860800e-03 8.05751000e-02
        2 -1    0    0  501    0 +0.0000000000e+00 +0.0000000000e+00 +1.8103652192e+03 1.8103652192e+03 0.0000000000e+00 0.0000e+00 -1.0000e+00
       -2 -1    0    0    0  501 -0.0000000000e+00 -0.0000000000e+00 -5.7164709615e+02 5.7164709615e+02 0.0000000000e+00 0.0000e+00 1.0000e+00
      -13  1    1    2    0    0 -3.8508358592e+02 +3.0937915253e+02 -4.2181569381e+02 6.4956393658e+02 0.0000000000e+00 0.0000e+00 1.0000e+00
       13  1    1    2    0    0 +3.8508358592e+02 -3.0937915253e+02 +1.6605338168e+03 1.7324483788e+03 0.0000000000e+00 0.0000e+00 -1.0000e+00
<mgrwt>
<rscale>  0 0.20345909E+04</rscale>
<asrwt>0</asrwt>
<pdfrwt beam="1">  1        2 0.27851772E+00 0.20345909E+04</pdfrwt>
<pdfrwt beam="2">  1       -2 0.87945708E-01 0.20345909E+04</pdfrwt>
<totfact> 0.11274692E+01</totfact>
</mgrwt>
<rwgt>
<wgt id='morphing_basis_vector_1'> +1.4593201e-04 </wgt>
<wgt id='morphing_basis_vector_2'> +9.7240334e-05 </wgt>
<wgt id='morphing_basis_vector_3'> +1.5594801e-04 </wgt>
<wgt id='morphing_basis_vector_4'> +1.0891902e-04 </wgt>
<wgt id='morphing_basis_vector_5'> +1.7358000e-04 </wgt>
</rwgt>
</event>
<event>
 4      1 +6.0853000e-08 1.92982900e+03 7.81860800e-03 8.10098700e-02
        2 -1    0    0  501    0 +0.0000000000e+00 +0.0000000000e+00 +2.1669425795e+03 2.1669425795e+03 0.0000000000e+00 0.0000e+00 1.0000e+00
       -2 -1    0    0    0  501 -0.0000000000e+00 -0.0000000000e+00 -4.2966513756e+02 4.2966513756e+02 0.0000000000e+00 0.0000e+00 -1.0000e+00
      -13  1    1    2    0    0 -3.2948145536e+02 -6.8093796476e+02 +6.2649898099e+01 7.5905174462e+02 0.0000000000e+00 0.0000e+00 -1.0000e+00
       13  1    1    2    0    0 +3.2948145536e+02 +6.8093796476e+02 +1.6746275439e+03 1.8375559725e+03 0.0000000000e+00 0.0000e+00 1.0000e+00
<mgrwt>
<rscale>  0 0.19298287E+04</rscale>
<asrwt>0</asrwt>
<pdfrwt beam="1">  1        2 0.33337578E+00 0.19298287E+04</pdfrwt>
<pdfrwt beam="2">  1       -2 0.66102330E-01 0.19298287E+04</pdfrwt>
<totfact> 0.13507812E+01</totfact>
</mgrwt>
<rwgt>
<wgt id='morphing_basis_vector_1'> +1.1887342e-04 </wgt>
<wgt id='morphing_basis_vector_2'> +7.9562872e-05 </wgt>
<wgt id='morphing_basis_vector_3'> +1.2661825e-04 </wgt>
<wgt id='morphing_basis_vector_4'> +8.7315396e-05 </wgt>
<wgt id='morphing_basis_vector_5'> +1.3985021e-04 </wgt>
</rwgt>
</event>
<event>
 4      1 +6.0853000e-08 2.14981500e+03 7.81860800e-03 8.01272600e-02
        2 -1    0    0  501    0 +0.0000000000e+00 +0.0000000000e+00 +1.4572141117e+03 1.4572141117e+03 0.0000000000e+00 0.0000e+00 1.0000e+00
       -2 -1    0    0    0  501 -0.0000000000e+00 -0.0000000000e+00 -7.9290082673e+02 7.9290082673e+02 0.0000000000e+00 0.0000e+00 -1.0000e+00
      -13  1    1    2    0    0 +5.5152762346e+01 -7.6232523560e+02 -4.5891291635e+02 8.9150583667e+02 0.0000000000e+00 0.0000e+00 -1.0000e+00
       13  1    1    2    0    0 -5.5152762346e+01 +7.6232523560e+02 +1.1232262013e+03 1.3586091017e+03 0.0000000000e+00 0.0000e+00 1.0000e+00
<mgrwt>
<rscale>  0 0.21498151E+04</rscale>
<asrwt>0</asrwt>
<pdfrwt beam="1">  1        2 0.22418679E+00 0.21498151E+04</pdfrwt>
<pdfrwt beam="2">  1       -2 0.12198474E+00 0.21498151E+04</pdfrwt>
<totfact> 0.78729391E+00</totfact>
</mgrwt>
<rwgt>
<wgt id='morphing_basis_vector_1'> +1.8135508e-04 </wgt>
<wgt id='morphing_basis_vector_2'> +1.2156523e-04 </wgt>
<wgt id='morphing_basis_vector_3'> +1.9460615e-04 </wgt>
<wgt id='morphing_basis_vector_4'> +1.3592142e-04 </wgt>
<wgt id='morphing_basis_vector_5'> +2.1721858e-04 </wgt>
</rwgt>
</event>
<event>
 4      1 +6.0853000e-08 2.06612400e+03 7.81860800e-03 8.04495400e-02
        2 -1    0    0  501    0 +0.0000000000e+00 +0.0000000000e+00 +1.2132051859e+03 1.2132051859e+03 0.0000000000e+00 0.0000e+00 -1.0000e+00
       -2 -1    0    0    0  501 -0.0000000000e+00 -0.0000000000e+00 -8.7966754228e+02 8.7966754228e+02 0.0000000000e+00 0.0000e+00 1.0000e+00
      -13  1    1    2    0    0 +8.3708821598e+02 -3.9766418590e+02 -2.9560951696e+02 9.7274789776e+02 0.0000000000e+00 0.0000e+00 1.0000e+00
       13  1    1    2    0    0 -8.3708821598e+02 +3.9766418590e+02 +6.2914716058e+02 1.1201248304e+03 0.0000000000e+00 0.0000e+00 -1.0000e+00
<mgrwt>
<rscale>  0 0.20661241E+04</rscale>
<asrwt>0</asrwt>
<pdfrwt beam="1">  1        2 0.18664695E+00 0.20661241E+04</pdfrwt>
<pdfrwt beam="2">  1       -2 0.13533347E+00 0.20661241E+04</pdfrwt>
<totfact> 0.82848730E+00</totfact>
</mgrwt>
<rwgt>
<wgt id='morphing_basis_vector_1'> +1.5590715e-04 </wgt>
<wgt id='morphing_basis_vector_2'> +1.0601983e-04 </wgt>
<wgt id='morphing_basis_vector_3'> +1.6714660e-04 </wgt>
<wgt id='morphing_basis_vector_4'> +1.1416367e-04 </wgt>
<wgt id='morphing_basis_vector_5'> +1.8466888e-04 </wgt>
</rwgt>
</event>
<event>
 4      1 +6.0853000e-08 1.91773600e+03 7.81860800e-03 8.10619000e-02
        2 -1    0    0  501    0 +0.0000000000e+00 +0.0000000000e+00 +1.1604241665e+03 1.1604241665e+03 0.0000000000e+00 0.0000e+00 -1.0000e+00
       -2 -1    0    0    0  501 -0.0000000000e+00 -0.0000000000e+00 -7.9232023544e+02 7.9232023544e+02 0.0000000000e+00 0.0000e+00 1.0000e+00
      -13  1    1    2    0    0 -8.9124169003e+02 +3.5216531872e+02 +2.1775278416e+02 9.8272500567e+02 0.0000000000e+00 0.0000e+00 1.0000e+00
       13  1    1    2    0    0 +8.9124169003e+02 -3.5216531872e+02 +1.5035114690e+02 9.7001939627e+02 0.0000000000e+00 0.0000e+00 -1.0000e+00
<mgrwt>
<rscale>  0 0.19177357E+04</rscale>
<asrwt>0</asrwt>
<pdfrwt beam="1">  1        2 0.17852680E+00 0.19177357E+04</pdfrwt>
<pdfrwt beam="2">  1       -2 0.12189542E+00 0.19177357E+04</pdfrwt>
<totfact> 0.11907672E+01</totfact>
</mgrwt>
<rwgt>
<wgt id='morphing_basis_vector_1'> +1.2051536e-04 </wgt>
<wgt id='morphing_basis_vector_2'> +9.1029038e-05 </wgt>
<wgt id='morphing_basis_vector_3'> +1.2999796e-04 </wgt>
<wgt id='morphing_basis_vector_4'> +7.6153201e-05 </wgt>
<wgt id='morphing_basis_vector_5'> +1.3560138e-04 </wgt>
</rwgt>
</event>
<event>
 4      1 +6.0853000e-08 2.01519900e+03 7.81860800e-03 8.06534900e-02
        2 -1    0    0  501    0 +0.0000000000e+00 +0.0000000000e+00 +2.0985514133e+03 2.0985514133e+03 0.0000000000e+00 0.0000e+00 -1.0000e+00
       -2 -1    0    0    0  501 -0.0000000000e+00 -0.0000000000e+00 -4.8378954236e+02 4.8378954236e+02 0.0000000000e+00 0.0000e+00 1.0000e+00
      -13  1    1    2    0    0 -7.5764387091e+02 -5.9446246844e+01 -4.0399494930e+01 7.6104547209e+02 0.0000000000e+00 0.0000e+00 1.0000e+00
       13  1    1    2    0    0 +7.5764387091e+02 +5.9446246844e+01 +1.6551613658e+03 1.8212954835e+03 0.0000000000e+00 0.0000e+00 -1.0000e+00
<mgrwt>
<rscale>  0 0.20151995E+04</rscale>
<asrwt>0</asrwt>
<pdfrwt beam="1">  1        2 0.32285406E+00 0.20151995E+04</pdfrwt>
<pdfrwt beam="2">  1       -2 0.74429161E-01 0.20151995E+04</pdfrwt>
<totfact> 0.11365185E+01</totfact>
</mgrwt>
<rwgt>
<wgt id='morphing_basis_vector_1'> +1.4077194e-04 </wgt>
<wgt id='morphing_basis_vector_2'> +9.4261638e-05 </wgt>
<wgt id='morphing_basis_vector_3'> +1.5041508e-04 </wgt>
<wgt id='morphing_basis_vector_4'> +1.0431457e-04 </wgt>
<wgt id='morphing_basis_vector_5'> +1.6689645e-04 </wgt>
</rwgt>
</event>
<event>
 4      1 +6.0853000e-08 2.17520600e+03 7.81860800e-03 8.00324700e-02
        2 -1    0    0  501    0 +0.0000000000e+00 +0.0000000000e+00 +1.3505869855e+03 1.3505869855e+03 0.0000000000e+00 0.0000e+00 -1.0000e+00
       -2 -1    0    0    0  501 -0.0000000000e+00 -0.0000000000e+00 -8.7582655743e+02 8.7582655743e+02 0.0000000000e+00 0.0000e+00 1.0000e+00
      -13  1    1    2    0    0 -3.0856386243e+02 +1.3004939094e+02 -8.2175315395e+02 8.8735717009e+02 0.0000000000e+00 0.0000e+00 1.0000e+00
       13  1    1    2    0    0 +3.0856386243e+02 -1.3004939094e+02 +1.2965135820e+03 1.3390563728e+03 0.0000000000e+00 0.0000e+00 -1.0000e+00
<mgrwt>
<rscale>  0 0.21752057E+04</rscale>
<asrwt>0</asrwt>
<pdfrwt beam="1">  1        2 0.20778261E+00 0.21752057E+04</pdfrwt>
<pdfrwt beam="2">  1       -2 0.13474255E+00 0.21752057E+04</pdfrwt>
<totfact> 0.69255234E+00</totfact>
</mgrwt>
<rwgt>
<wgt id='morphing_basis_vector_1'> +1.8969252e-04 </wgt>
<wgt id='morphing_basis_vector_2'> +1.2669145e-04 </wgt>
<wgt id='morphing_basis_vector_3'> +2.0361134e-04 </wgt>
<wgt id='morphing_basis_vector_4'> +1.4302935e-04 </wgt>
<wgt id='morphing_basis_vector_5'> +2.2788435e-04 </wgt>
</rwgt>
</event>
<event>
 4      1 +6.0853000e-08 1.88878100e+03 7.81860800e-03 8.11881200e-02
        2 -1    0    0  501    0 +0.0000000000e+00 +0.0000000000e+00 +1.8821188959e+03 1.8821188959e+03 0.0000000000e+00 0.0000e+00 -1.0000e+00
       -2 -1    0    0    0  501 -0.0000000000e+00 -0.0000000000e+00 -4.7386674921e+02 4.7386674921e+02 0.0000000000e+00 0.0000e+00 1.0000e+00
      -13  1    1    2    0    0 +6.6222111954e+02 +3.8569001037e+02 +1.5724796702e+01 7.6651214243e+02 0.0000000000e+00 0.0000e+00 1.0000e+00
       13  1    1    2    0    0 -6.6222111954e+02 -3.8569001037e+02 +1.3925273500e+03 1.5894735027e+03 0.0000000000e+00 0.0000e+00 -1.0000e+00
<mgrwt>
<rscale>  0 0.18887812E+04</rscale>
<asrwt>0</asrwt>
<pdfrwt beam="1">  1        2 0.28955675E+00 0.18887812E+04</pdfrwt>
<pdfrwt beam="2">  1       -2 0.72902578E-01 0.18887812E+04</pdfrwt>
<totfact> 0.15910708E+01</totfact>
</mgrwt>
<rwgt>
<wgt id='morphing_basis_vector_1'> +1.0934680e-04 </wgt>
<wgt id='morphing_basis_vector_2'> +7.3248280e-05 </wgt>
<wgt id='morphing_basis_vector_3'> +1.1629002e-04 </wgt>
<wgt id='morphing_basis_vector_4'> +7.9852203e-05 </wgt>
<wgt id='morphing_basis_vector_5'> +1.2807229e-04 </wgt>
</rwgt>
</event>
<event>
 4      1 +6.0853000e-08 1.99485600e+03 7.81860800e-03 8.07367200e-02
        2 -1    0    0  501    0 +0.0000000000e+00 +0.0000000000e+00 +4.8884334257e+02 4.8884334257e+02 0.0000000000e+00 0.0000e+00 -1.0000e+00
       -2 -1    0    0    0  501 -0.0000000000e+00 -0.0000000000e+00 -2.0351368753e+03 2.0351368753e+03 0.0000000000e+00 0.0000e+00 1.0000e+00
      -13  1    1    2    0    0 +5.5858588466e+02 +7.5402419344e+02 -1.2008898884e+03 1.5240430437e+03 0.0000000000e+00 0.0000e+00 1.0000e+00
       13  1    1    2    0    0 -5.5858588466e+02 -7.5402419344e+02 -3.4540364431e+02 9.9993717420e+02 0.0000000000e+00 0.0000e+00 -1.0000e+00
<mgrwt>
<rscale>  0 0.19948565E+04</rscale>
<asrwt>0</asrwt>
<pdfrwt beam="1">  1        2 0.75206668E-01 0.19948565E+04</pdfrwt>
<pdfrwt beam="2">  1       -2 0.31309798E+00 0.19948565E+04</pdfrwt>
<totfact> 0.13851680E+00</totfact>
</mgrwt>
<rwgt>
<wgt id='morphing_basis_vector_1'> +1.3635006e-04 </wgt>
<wgt id='morphing_basis_vector_2'> +9.3702191e-05 </wgt>
<wgt id='morphing_basis_vector_3'> +1.4599381e-04 </wgt>
<wgt id='morphing_basis_vector_4'> +9.7965776e-05 </wgt>
<wgt id='morphing_basis_vector_5'> +1.5996102e-04 </wgt>
</rwgt>
</event>
<event>
 4      1 +6.0853000e-08 1.98169300e+03 7.81860800e-03 8.07911300e-02
        2 -1    0    0  501    0 +0.0000000000e+00 +0.0000000000e+00 +3.5766303335e+03 3.5766303335e+03 0.0000000000e+00 0.0000e+00 -1.0000e+00
       -2 -1    0    0    0  501 -0.0000000000e+00 -0.0000000000e+00 -2.7449761303e+02 2.7449761303e+02 0.0000000000e+00 0.0000e+00 1.0000e+00
      -13  1    1    2    0    0 +6.3874243945e+02 -5.6647545447e+02 +6.7378955692e+02 1.0876022763e+03 0.0000000000e+00 0.0000e+00 1.0000e+00
       13  1    1    2    0    0 -6.3874243945e+02 +5.6647545447e+02 +2.6283431635e+03 2.7635256702e+03 0.0000000000e+00 0.0000e+00 -1.0000e+00
<mgrwt>
<rscale>  0 0.19816927E+04</rscale>
<asrwt>0</asrwt>
<pdfrwt beam="1">  1        2 0.55025079E+00 0.19816927E+04</pdfrwt>
<pdfrwt beam="2">  1       -2 0.42230405E-01 0.19816927E+04</pdfrwt>
<totfact> 0.41021338E+00</totfact>
</mgrwt>
<rwgt>
<wgt id='morphing_basis_vector_1'> +1.3215389e-04 </wgt>
<wgt id='morphing_basis_vector_2'> +8.9189529e-05 </wgt>
<wgt id='morphing_basis_vector_3'> +1.4115941e-04 </wgt>
<wgt id='morphing_basis_vector_4'> +9.6755240e-05 </wgt>
<wgt id='morphing_basis_vector_5'> +1.5580672e-04 </wgt>
</rwgt>
</event>
<event>
 4      1 +6.0853000e-08 1.96811400e+03 7.81860800e-03 8.08477200e-02
        2 -1    0    0  501    0 +0.0000000000e+00 +0.0000000000e+00 +1.1064744287e+03 1.1064744287e+03 0.0000000000e+00 0.0000e+00 1.0000e+00
       -2 -1    0    0    0  501 -0.0000000000e+00 -0.0000000000e+00 -8.7518351484e+02 8.7518351484e+02 0.0000000000e+00 0.0000e+00 -1.0000e+00
      -13  1    1    2    0    0 +3.1790410630e+02 -3.7277032367e+02 -7.4366034118e+02 8.9053435535e+02 0.0000000000e+00 0.0000e+00 -1.0000e+00
       13  1    1    2    0    0 -3.1790410630e+02 +3.7277032367e+02 +9.7495125505e+02 1.0911235882e+03 0.0000000000e+00 0.0000e+00 1.0000e+00
<mgrwt>
<rscale>  0 0.19681140E+04</rscale>
<asrwt>0</asrwt>
<pdfrwt beam="1">  1        2 0.17022684E+00 0.19681140E+04</pdfrwt>
<pdfrwt beam="2">  1       -2 0.13464362E+00 0.19681140E+04</pdfrwt>
<totfact> 0.97968241E+00</totfact>
</mgrwt>
<rwgt>
<wgt id='morphing_basis_vector_1'> +1.2812012e-04 </wgt>
<wgt id='morphing_basis_vector_2'> +8.5245748e-05 </wgt>
<wgt id='morphing_basis_vector_3'> +1.3657916e-04 </wgt>
<wgt id='morphing_basis_vector_4'> +9.5114513e-05 </wgt>
<wgt id='morphing_basis_vector_5'> +1.5157543e-04 </wgt>
</rwgt>
</event>
<event>
 4      1 +6.0853000e-08 2.14529500e+03 7.81860800e-03 8.01442700e-02
        2 -1    0    0  501    0 +0.0000000000e+00 +0.0000000000e+00 +4.9848904805e+03 4.9848904805e+03 0.0000000000e+00 0.0000e+00 1.0000e+00
       -2 -1    0    0    0  501 -0.0000000000e+00 -0.0000000000e+00 -2.3081199006e+02 2.3081199006e+02 0.0000000000e+00 0.0000e+00 -1.0000e+00
      -13  1    1    2    0    0 +1.0272622392e+02 -1.0626742876e+03 +2.6290343557e+03 2.8375431208e+03 0.0000000000e+00 0.0000e+00 -1.0000e+00
       13  1    1    2    0    0 -1.0272622392e+02 +1.0626742876e+03 +2.1250441347e+03 2.3781593498e+03 0.0000000000e+00 0.0000e+00 1.0000e+00
<mgrwt>
<rscale>  0 0.21452948E+04</rscale>
<asrwt>0</asrwt>
<pdfrwt beam="1">  1        2 0.76690615E+00 0.21452948E+04</pdfrwt>
<pdfrwt beam="2">  1       -2 0.35509541E-01 0.21452948E+04</pdfrwt>
<totfact> 0.24353760E-01</totfact>
</mgrwt>
<rwgt>
<wgt id='morphing_basis_vector_1'> +1.8889673e-04 </wgt>
<wgt id='morphing_basis_vector_2'> +1.4727339e-04 </wgt>
<wgt id='morphing_basis_vector_3'> +2.0636017e-04 </wgt>
<wgt id='morphing_basis_vector_4'> +1.1659074e-04 </wgt>
<wgt id='morphing_basis_vector_5'> +2.1391770e-04 </wgt>
</rwgt>
</event>
<event>
 4      1 +6.0853000e-08 1.92230600e+03 7.81860800e-03 8.10421900e-02
        2 -1    0    0  501    0 +0.0000000000e+00 +0.0000000000e+00 +2.5838695439e+03 2.5838695439e+03 0.0000000000e+00 0.0000e+00 -1.0000e+00
       -2 -1    0    0    0  501 -0.0000000000e+00 -0.0000000000e+00 -3.5753163657e+02 3.5753163657e+02 0.0000000000e+00 0.0000e+00 1.0000e+00
      -13  1    1    2    0    0 +5.5480002332e+01 -6.7238987235e+02 +6.5687632800e+01 6.7786505752e+02 0.0000000000e+00 0.0000e+00 1.0000e+00
       13  1    1    2    0    0 -5.5480002332e+01 +6.7238987235e+02 +2.1606502745e+03 2.2635361229e+03 0.0000000000e+00 0.0000e+00 -1.0000e+00
<mgrwt>
<rscale>  0 0.19223060E+04</rscale>
<asrwt>0</asrwt>
<pdfrwt beam="1">  1        2 0.39751838E+00 0.19223060E+04</pdfrwt>
<pdfrwt beam="2">  1       -2 0.55004869E-01 0.19223060E+04</pdfrwt>
<totfact> 0.11244517E+01</totfact>
</mgrwt>
<rwgt>
<wgt id='morphing_basis_vector_1'> +1.1694611e-04 </wgt>
<wgt id='morphing_basis_vector_2'> +7.7972517e-05 </wgt>
<wgt id='morphing_basis_vector_3'> +1.2447980e-04 </wgt>
<wgt id='morphing_basis_vector_4'> +8.6179431e-05 </wgt>
<wgt id='morphing_basis_vector_5'> +1.3765481e-04 </wgt>
</rwgt>
</event>
<event>
 4      1 +6.0853000e-08 1.97034000e+03 7.81860800e-03 8.08384100e-02
        2 -1    0    0  501    0 +0.0000000000e+00 +0.0000000000e+00 +1.6164532643e+03 1.6164532643e+03 0.0000000000e+00 0.0000e+00 -1.0000e+00
       -2 -1    0    0    0  501 -0.0000000000e+00 -0.0000000000e+00 -6.0042537154e+02 6.0042537154e+02 0.0000000000e+00 0.0000e+00 1.0000e+00
      -13  1    1    2    0    0 -2.8493607111e+02 +3.4454730913e+02 -4.7970119875e+02 6.5575502509e+02 0.0000000000e+00 0.0000e+00 1.0000e+00
       13  1    1    2    0    0 +2.8493607111e+02 -3.4454730913e+02 +1.4957290916e+03 1.5611236108e+03 0.0000000000e+00 0.0000e+00 -1.0000e+00
<mgrwt>
<rscale>  0 0.19703396E+04</rscale>
<asrwt>0</asrwt>
<pdfrwt beam="1">  1        2 0.24868512E+00 0.19703396E+04</pdfrwt>
<pdfrwt beam="2">  1       -2 0.92373135E-01 0.19703396E+04</pdfrwt>
<totfact> 0.12959891E+01</totfact>
</mgrwt>
<rwgt>
<wgt id='morphing_basis_vector_1'> +1.2867946e-04 </wgt>
<wgt id='morphing_basis_vector_2'> +8.5601773e-05 </wgt>
<wgt id='morphing_basis_vector_3'> +1.3718377e-04 </wgt>
<wgt id='morphing_basis_vector_4'> +9.5572140e-05 </wgt>
<wgt id='morphing_basis_vector_5'> +1.5227796e-04 </wgt>
</rwgt>
</event>
<event>
 4      1 +6.0853000e-08 1.86840700e+03 7.81860800e-03 8.12783700e-02
        2 -1    0    0  501    0 +0.0000000000e+00 +0.0000000000e+00 +1.5509671731e+03 1.5509671731e+03 0.0000000000e+00 0.0000e+00 -1.0000e+00
       -2 -1    0    0    0  501 -0.0000000000e+00 -0.0000000000e+00 -5.6270443093e+02 5.6270443093e+02 0.0000000000e+00 0.0000e+00 1.0000e+00
      -13  1    1    2    0    0 +4.5851169452e+02 +8.1380418222e+02 +5.1113354596e+02 1.0647852942e+03 0.0000000000e+00 0.0000e+00 -1.0000e+00
       13  1    1    2    0    0 -4.5851169452e+02 -8.1380418222e+02 +4.7712919622e+02 1.0488863098e+03 0.0000000000e+00 0.0000e+00 1.0000e+00
<mgrwt>
<rscale>  0 0.18684069E+04</rscale>
<asrwt>0</asrwt>
<pdfrwt beam="1">  1        2 0.23861033E+00 0.18684069E+04</pdfrwt>
<pdfrwt beam="2">  1       -2 0.86569913E-01 0.18684069E+04</pdfrwt>
<totfact> 0.16545262E+01</totfact>
</mgrwt>
<rwgt>
<wgt id='morphing_basis_vector_1'> +1.0856384e-04 </wgt>
<wgt id='morphing_basis_vector_2'> +8.1302948e-05 </wgt>
<wgt id='morphing_basis_vector_3'> +1.1672363e-04 </wgt>
<wgt id='morphing_basis_vector_4'> +6.9005309e-05 </wgt>
<wgt id='morphing_basis_vector_5'> +1.2193709e-04 </wgt>
</rwgt>
</event>
<event>
 4      1 +6.0853000e-08 2.01743300e+03 7.81860800e-03 8.06444100e-02
        2 -1    0    0  501    0 +0.0000000000e+00 +0.0000000000e+00 +1.7919436380e+03 1.7919436380e+03 0.0000000000e+00 0.0000e+00 -1.0000e+00
       -2 -1    0    0    0  501 -0.0000000000e+00 -0.0000000000e+00 -5.6782445814e+02 5.6782445814e+02 0.0000000000e+00 0.0000e+00 1.0000e+00
      -13  1    1    2    0    0 -4.7681857081e+02 -1.3736274042e+02 +1.6393128746e+03 1.7127671099e+03 0.0000000000e+00 0.0000e+00 1.0000e+00
       13  1    1    2    0    0 +4.7681857081e+02 +1.3736274042e+02 -4.1519369479e+02 6.4700098618e+02 0.0000000000e+00 0.0000e+00 -1.0000e+00
<mgrwt>
<rscale>  0 0.20174334E+04</rscale>
<asrwt>0</asrwt>
<pdfrwt beam="1">  1        2 0.27568363E+00 0.20174334E+04</pdfrwt>
<pdfrwt beam="2">  1       -2 0.87357610E-01 0.20174334E+04</pdfrwt>
<totfact> 0.11743321E+01</totfact>
</mgrwt>
<rwgt>
<wgt id='morphing_basis_vector_1'> +1.9117957e-04 </wgt>
<wgt id='morphing_basis_vector_2'> +2.4208523e-04 </wgt>
<wgt id='morphing_basis_vector_3'> +2.2373818e-04 </wgt>
<wgt id='morphing_basis_vector_4'> +5.5696901e-06 </wgt>
<wgt id='morphing_basis_vector_5'> +1.5981315e-04 </wgt>
</rwgt>
</event>
<event>
 4      1 +6.0853000e-08 2.04324800e+03 7.81860800e-03 8.05403900e-02
        2 -1    0    0  501    0 +0.0000000000e+00 +0.0000000000e+00 +3.4257952881e+03 3.4257952881e+03 0.0000000000e+00 0.0000e+00 -1.0000e+00
       -2 -1    0    0    0  501 -0.0000000000e+00 -0.0000000000e+00 -3.0466377540e+02 3.0466377540e+02 0.0000000000e+00 0.0000e+00 1.0000e+00
      -13  1    1    2    0    0 -6.1308646969e+02 -2.9201754413e+02 +1.6704350329e+02 6.9932309943e+02 0.0000000000e+00 0.0000e+00 1.0000e+00
       13  1    1    2    0    0 +6.1308646969e+02 +2.9201754413e+02 +2.9540880094e+03 3.0311359641e+03 0.0000000000e+00 0.0000e+00 -1.0000e+00
<mgrwt>
<rscale>  0 0.20432481E+04</rscale>
<asrwt>0</asrwt>
<pdfrwt beam="1">  1        2 0.52704540E+00 0.20432481E+04</pdfrwt>
<pdfrwt beam="2">  1       -2 0.46871353E-01 0.20432481E+04</pdfrwt>
<totfact> 0.43021120E+00</totfact>
</mgrwt>
<rwgt>
<wgt id='morphing_basis_vector_1'> +1.4848144e-04 </wgt>
<wgt id='morphing_basis_vector_2'> +9.9184569e-05 </wgt>
<wgt id='morphing_basis_vector_3'> +1.5875944e-04 </wgt>
<wgt id='morphing_basis_vector_4'> +1.1062278e-04 </wgt>
<wgt id='morphing_basis_vector_5'> +1.7659578e-04 </wgt>
</rwgt>
</event>
<event>
 4      1 +6.0853000e-08 2.16464700e+03 7.81860800e-03 8.00717300e-02
        2 -1    0    0  501    0 +0.0000000000e+00 +0.0000000000e+00 +2.5120028267e+03 2.5120028267e+03 0.0000000000e+00 0.0000e+00 -1.0000e+00
       -2 -1    0    0    0  501 -0.0000000000e+00 -0.0000000000e+00 -4.6633079784e+02 4.6633079784e+02 0.0000000000e+00 0.0000e+00 1.0000e+00
      -13  1    1    2    0    0 -1.0306693500e+03 -3.2792192402e+02 +9.6759092614e+02 1.4512216570e+03 0.0000000000e+00 0.0000e+00 1.0000e+00
       13  1    1    2    0    0 +1.0306693500e+03 +3.2792192402e+02 +1.0780811027e+03 1.5271119675e+03 0.0000000000e+00 0.0000e+00 -1.0000e+00
<mgrwt>
<rscale>  0 0.21646471E+04</rscale>
<asrwt>0</asrwt>
<pdfrwt beam="1">  1        2 0.38646197E+00 0.21646471E+04</pdfrwt>
<pdfrwt beam="2">  1       -2 0.71743201E-01 0.21646471E+04</pdfrwt>
<totfact> 0.69925523E+00</totfact>
</mgrwt>
<rwgt>
<wgt id='morphing_basis_vector_1'> +1.9204782e-04 </wgt>
<wgt id='morphing_basis_vector_2'> +1.4185761e-04 </wgt>
<wgt id='morphing_basis_vector_3'> +2.0852226e-04 </wgt>
<wgt id='morphing_basis_vector_4'> +1.2824697e-04 </wgt>
<wgt id='morphing_basis_vector_5'> +2.2246176e-04 </wgt>
</rwgt>
</event>
<event>
 4      1 +6.0853000e-08 2.14403200e+03 7.81860800e-03 8.01490300e-02
        2 -1    0    0  501    0 +0.0000000000e+00 +0.0000000000e+00 +1.6915351906e+03 1.6915351906e+03 0.0000000000e+00 0.0000e+00 1.0000e+00
       -2 -1    0    0    0  501 -0.0000000000e+00 -0.0000000000e+00 -6.7939392327e+02 6.7939392327e+02 0.0000000000e+00 0.0000e+00 -1.0000e+00
      -13  1    1    2    0    0 +6.0911131521e+02 +8.8192798327e+02 +4.8381169109e+02 1.1759622929e+03 0.0000000000e+00 0.0000e+00 -1.0000e+00
       13  1    1    2    0    0 -6.0911131521e+02 -8.8192798327e+02 +5.2832957622e+02 1.1949668209e+03 0.0000000000e+00 0.0000e+00 1.0000e+00
<mgrwt>
<rscale>  0 0.21440324E+04</rscale>
<asrwt>0</asrwt>
<pdfrwt beam="1">  1        2 0.26023618E+00 0.21440324E+04</pdfrwt>
<pdfrwt beam="2">  1       -2 0.10452214E+00 0.21440324E+04</pdfrwt>
<totfact> 0.86228339E+00</totfact>
</mgrwt>
<rwgt>
<wgt id='morphing_basis_vector_1'> +1.8535472e-04 </wgt>
<wgt id='morphing_basis_vector_2'> +1.3774661e-04 </wgt>
<wgt id='morphing_basis_vector_3'> +2.0127490e-04 </wgt>
<wgt id='morphing_basis_vector_4'> +1.2255723e-04 </wgt>
<wgt id='morphing_basis_vector_5'> +2.1390357e-04 </wgt>
</rwgt>
</event>
<event>
 4      1 +6.0853000e-08 1.89438200e+03 7.81860800e-03 8.11635200e-02
        2 -1    0    0  501    0 +0.0000000000e+00 +0.0000000000e+00 +1.4426552249e+03 1.4426552249e+03 0.0000000000e+00 0.0000e+00 1.0000e+00
       -2 -1    0    0    0  501 -0.0000000000e+00 -0.0000000000e+00 -6.2188872199e+02 6.2188872199e+02 0.0000000000e+00 0.0000e+00 -1.0000e+00
      -13  1    1    2    0    0 +3.0011205729e+02 +6.7171530972e+02 -2.3977925741e+02 7.7379764572e+02 0.0000000000e+00 0.0000e+00 -1.0000e+00
       13  1    1    2    0    0 -3.0011205729e+02 -6.7171530972e+02 +1.0605457604e+03 1.2907463012e+03 0.0000000000e+00 0.0000e+00 1.0000e+00
<mgrwt>
<rscale>  0 0.18943822E+04</rscale>
<asrwt>0</asrwt>
<pdfrwt beam="1">  1        2 0.22194696E+00 0.18943822E+04</pdfrwt>
<pdfrwt beam="2">  1       -2 0.95675188E-01 0.18943822E+04</pdfrwt>
<totfact> 0.15020879E+01</totfact>
</mgrwt>
<rwgt>
<wgt id='morphing_basis_vector_1'> +1.1054408e-04 </wgt>
<wgt id='morphing_basis_vector_2'> +7.3887072e-05 </wgt>
<wgt id='morphing_basis_vector_3'> +1.1756408e-04 </wgt>
<wgt id='morphing_basis_vector_4'> +8.0974340e-05 </wgt>
<wgt id='morphing_basis_vector_5'> +1.2964461e-04 </wgt>
</rwgt>
</event>
<event>
 4      1 +6.0853000e-08 1.95681300e+03 7.81860800e-03 8.08951800e-02
        2 -1    0    0  501    0 +0.0000000000e+00 +0.0000000000e+00 +2.3128938551e+03 2.3128938551e+03 0.0000000000e+00 0.0000e+00 -1.0000e+00
       -2 -1    0    0    0  501 -0.0000000000e+00 -0.0000000000e+00 -4.1388812906e+02 4.1388812906e+02 0.0000000000e+00 0.0000e+00 1.0000e+00
      -13  1    1    2    0    0 -1.3790374389e+02 +5.4647626611e+02 -1.6495586175e+02 5.8725138427e+02 0.0000000000e+00 0.0000e+00 1.0000e+00
       13  1    1    2    0    0 +1.3790374389e+02 -5.4647626611e+02 +2.0639615878e+03 2.1395305999e+03 0.0000000000e+00 0.0000e+00 -1.0000e+00
<mgrwt>
<rscale>  0 0.19568130E+04</rscale>
<asrwt>0</asrwt>
<pdfrwt beam="1">  1        2 0.35582982E+00 0.19568130E+04</pdfrwt>
<pdfrwt beam="2">  1       -2 0.63675098E-01 0.19568130E+04</pdfrwt>
<totfact> 0.12013384E+01</totfact>
</mgrwt>
<rwgt>
<wgt id='morphing_basis_vector_1'> +1.2528871e-04 </wgt>
<wgt id='morphing_basis_vector_2'> +8.3397320e-05 </wgt>
<wgt id='morphing_basis_vector_3'> +1.3351161e-04 </wgt>
<wgt id='morphing_basis_vector_4'> +9.2854645e-05 </wgt>
<wgt id='morphing_basis_vector_5'> +1.4804844e-04 </wgt>
</rwgt>
</event>
<event>
 4      1 +6.0853000e-08 1.90737600e+03 7.81860800e-03 8.11067900e-02
        2 -1    0    0  501    0 +0.0000000000e+00 +0.0000000000e+00 +1.0540464670e+03 1.0540464670e+03 0.0000000000e+00 0.0000e+00 1.0000e+00
       -2 -1    0    0    0  501 -0.0000000000e+00 -0.0000000000e+00 -8.6288523959e+02 8.6288523959e+02 0.0000000000e+00 0.0000e+00 -1.0000e+00
      -13  1    1    2    0    0 +2.6358116646e+02 -6.7498054671e+01 -8.2304998192e+02 8.6685771118e+02 0.0000000000e+00 0.0000e+00 -1.0000e+00
       13  1    1    2    0    0 -2.6358116646e+02 +6.7498054671e+01 +1.0142112093e+03 1.0500739954e+03 0.0000000000e+00 0.0000e+00 1.0000e+00
<mgrwt>
<rscale>  0 0.19073764E+04</rscale>
<asrwt>0</asrwt>
<pdfrwt beam="1">  1        2 0.16216100E+00 0.19073764E+04</pdfrwt>
<pdfrwt beam="2">  1       -2 0.13275158E+00 0.19073764E+04</pdfrwt>
<totfact> 0.11010439E+01</totfact>
</mgrwt>
<rwgt>
<wgt id='morphing_basis_vector_1'> +1.1330563e-04 </wgt>
<wgt id='morphing_basis_vector_2'> +7.5223203e-05 </wgt>
<wgt id='morphing_basis_vector_3'> +1.2048156e-04 </wgt>
<wgt id='morphing_basis_vector_4'> +8.3729031e-05 </wgt>
<wgt id='morphing_basis_vector_5'> +1.3335601e-04 </wgt>
</rwgt>
</event>
<event>
 4      1 +6.0853000e-08 1.87082900e+03 7.81860800e-03 8.12675800e-02
        2 -1    0    0  501    0 +0.0000000000e+00 +0.0000000000e+00 +1.3268180936e+03 1.3268180936e+03 0.0000000000e+00 0.0000e+00 -1.0000e+00
       -2 -1    0    0    0  501 -0.0000000000e+00 -0.0000000000e+00 -6.5947237208e+02 6.5947237208e+02 0.0000000000e+00 0.0000e+00 1.0000e+00
      -13  1    1    2    0    0 -3.9709025610e+02 -6.6747630386e+02 -2.1984185165e+02 8.0717763066e+02 0.0000000000e+00 0.0000e+00 1.0000e+00
       13  1    1    2    0    0 +3.9709025610e+02 +6.6747630386e+02 +8.8718757317e+02 1.1791128350e+03 0.0000000000e+00 0.0000e+00 -1.0000e+00
<mgrwt>
<rscale>  0 0.18708286E+04</rscale>
<asrwt>0</asrwt>
<pdfrwt beam="1">  1        2 0.20412586E+00 0.18708286E+04</pdfrwt>
<pdfrwt beam="2">  1       -2 0.10145729E+00 0.18708286E+04</pdfrwt>
<totfact> 0.15207427E+01</totfact>
</mgrwt>
<rwgt>
<wgt id='morphing_basis_vector_1'> +1.0539027e-04 </wgt>
<wgt id='morphing_basis_vector_2'> +7.0678267e-05 </wgt>
<wgt id='morphing_basis_vector_3'> +1.1201075e-04 </wgt>
<wgt id='morphing_basis_vector_4'> +7.6695877e-05 </wgt>
<wgt id='morphing_basis_vector_5'> +1.2315671e-04 </wgt>
</rwgt>
</event>
<event>
 4      1 +6.0853000e-08 2.16853400e+03 7.81860800e-03 8.00572500e-02
        2 -1    0    0  501    0 +0.0000000000e+00 +0.0000000000e+00 +2.0244839035e+03 2.0244839035e+03 0.0000000000e+00 0.0000e+00 1.0000e+00
       -2 -1    0    0    0  501 -0.0000000000e+00 -0.0000000000e+00 -5.8070823242e+02 5.8070823242e+02 0.0000000000e+00 0.0000e+00 -1.0000e+00
      -13  1    1    2    0    0 +9.2829969004e+02 -3.8455423299e+02 +2.3239808184e+02 1.0313249445e+03 0.0000000000e+00 0.0000e+00 -1.0000e+00
       13  1    1    2    0    0 -9.2829969004e+02 +3.8455423299e+02 +1.2113775893e+03 1.5738671915e+03 0.0000000000e+00 0.0000e+00 1.0000e+00
<mgrwt>
<rscale>  0 0.21685336E+04</rscale>
<asrwt>0</asrwt>
<pdfrwt beam="1">  1        2 0.31145906E+00 0.21685336E+04</pdfrwt>
<pdfrwt beam="2">  1       -2 0.89339729E-01 0.21685336E+04</pdfrwt>
<totfact> 0.81514017E+00</totfact>
</mgrwt>
<rwgt>
<wgt id='morphing_basis_vector_1'> +1.8894347e-04 </wgt>
<wgt id='morphing_basis_vector_2'> +1.2967331e-04 </wgt>
<wgt id='morphing_basis_vector_3'> +2.0339707e-04 </wgt>
<wgt id='morphing_basis_vector_4'> +1.3817591e-04 </wgt>
<wgt id='morphing_basis_vector_5'> +2.2480843e-04 </wgt>
</rwgt>
</event>
<event>
 4      1 +6.0853000e-08 2.15848400e+03 7.81860800e-03 8.00947500e-02
        2 -1    0    0  501    0 +0.0000000000e+00 +0.0000000000e+00 +1.4214893230e+03 1.4214893230e+03 0.0000000000e+00 0.0000e+00 -1.0000e+00
       -2 -1    0    0    0  501 -0.0000000000e+00 -0.0000000000e+00 -8.1939614688e+02 8.1939614688e+02 0.0000000000e+00 0.0000e+00 1.0000e+00
      -13  1    1    2    0    0 +1.3672680339e+02 +6.6798029221e+02 -5.6747356382e+02 8.8708406320e+02 0.0000000000e+00 0.0000e+00 1.0000e+00
       13  1    1    2    0    0 -1.3672680339e+02 -6.6798029221e+02 +1.1695667399e+03 1.3538014066e+03 0.0000000000e+00 0.0000e+00 -1.0000e+00
<mgrwt>
<rscale>  0 0.21584836E+04</rscale>
<asrwt>0</asrwt>
<pdfrwt beam="1">  1        2 0.21869067E+00 0.21584836E+04</pdfrwt>
<pdfrwt beam="2">  1       -2 0.12606095E+00 0.21584836E+04</pdfrwt>
<totfact> 0.75582812E+00</totfact>
</mgrwt>
<rwgt>
<wgt id='morphing_basis_vector_1'> +1.8413943e-04 </wgt>
<wgt id='morphing_basis_vector_2'> +1.2320789e-04 </wgt>
<wgt id='morphing_basis_vector_3'> +1.9760141e-04 </wgt>
<wgt id='morphing_basis_vector_4'> +1.3837894e-04 </wgt>
<wgt id='morphing_basis_vector_5'> +2.2082198e-04 </wgt>
</rwgt>
</event>
<event>
 4      1 +6.0853000e-08 1.98156400e+03 7.81860800e-03 8.07916700e-02
        2 -1    0    0  501    0 +0.0000000000e+00 +0.0000000000e+00 +1.1949261499e+03 1.1949261499e+03 0.0000000000e+00 0.0000e+00 -1.0000e+00
       -2 -1    0    0    0  501 -0.0000000000e+00 -0.0000000000e+00 -8.2151455185e+02 8.2151455185e+02 0.0000000000e+00 0.0000e+00 1.0000e+00
      -13  1    1    2    0    0 +7.9224907224e+02 +3.5480295832e+02 -2.9930415504e+02 9.1821931418e+02 0.0000000000e+00 0.0000e+00 1.0000e+00
       13  1    1    2    0    0 -7.9224907224e+02 -3.5480295832e+02 +6.7271575314e+02 1.0982213876e+03 0.0000000000e+00 0.0000e+00 -1.0000e+00
<mgrwt>
<rscale>  0 0.19815643E+04</rscale>
<asrwt>0</asrwt>
<pdfrwt beam="1">  1        2 0.18383479E+00 0.19815643E+04</pdfrwt>
<pdfrwt beam="2">  1       -2 0.12638685E+00 0.19815643E+04</pdfrwt>
<totfact> 0.10277039E+01</totfact>
</mgrwt>
<rwgt>
<wgt id='morphing_basis_vector_1'> +1.3220062e-04 </wgt>
<wgt id='morphing_basis_vector_2'> +8.9404378e-05 </wgt>
<wgt id='morphing_basis_vector_3'> +1.4123946e-04 </wgt>
<wgt id='morphing_basis_vector_4'> +9.6570150e-05 </wgt>
<wgt id='morphing_basis_vector_5'> +1.5575293e-04 </wgt>
</rwgt>
</event>
<event>
 4      1 +6.0853000e-08 1.96835000e+03 7.81860800e-03 8.08467300e-02
        2 -1    0    0  501    0 +0.0000000000e+00 +0.0000000000e+00 +1.5051254784e+03 1.5051254784e+03 0.0000000000e+00 0.0000e+00 1.0000e+00
       -2 -1    0    0    0  501 -0.0000000000e+00 -0.0000000000e+00 -6.4353470177e+02 6.4353470177e+02 0.0000000000e+00 0.0000e+00 -1.0000e+00
      -13  1    1    2    0    0 -2.6482886691e+02 +4.9843094820e+02 -4.4930662659e+02 7.2141817524e+02 0.0000000000e+00 0.0000e+00 -1.0000e+00
       13  1    1    2    0    0 +2.6482886691e+02 -4.9843094820e+02 +1.3108974032e+03 1.4272420049e+03 0.0000000000e+00 0.0000e+00 1.0000e+00
<mgrwt>
<rscale>  0 0.19683500E+04</rscale>
<asrwt>0</asrwt>
<pdfrwt beam="1">  1        2 0.23155777E+00 0.19683500E+04</pdfrwt>
<pdfrwt beam="2">  1       -2 0.99005339E-01 0.19683500E+04</pdfrwt>
<totfact> 0.12690293E+01</totfact>
</mgrwt>
<rwgt>
<wgt id='morphing_basis_vector_1'> +1.2820534e-04 </wgt>
<wgt id='morphing_basis_vector_2'> +8.5360423e-05 </wgt>
<wgt id='morphing_basis_vector_3'> +1.3668086e-04 </wgt>
<wgt id='morphing_basis_vector_4'> +9.5111399e-05 </wgt>
<wgt id='morphing_basis_vector_5'> +1.5164577e-04 </wgt>
</rwgt>
</event>
<event>
 4      1 +6.0853000e-08 1.89160900e+03 7.81860800e-03 8.11756900e-02
        2 -1    0    0  501    0 +0.0000000000e+00 +0.0000000000e+00 +2.0493097961e+03 2.0493097961e+03 0.0000000000e+00 0.0000e+00 -1.0000e+00
       -2 -1    0    0    0  501 -0.0000000000e+00 -0.0000000000e+00 -4.3651072765e+02 4.3651072765e+02 0.0000000000e+00 0.0000e+00 1.0000e+00
      -13  1    1    2    0    0 +4.4543843955e+02 +5.2551317924e+02 -4.5220122434e+01 6.9037986967e+02 0.0000000000e+00 0.0000e+00 1.0000e+00
       13  1    1    2    0    0 -4.4543843955e+02 -5.2551317924e+02 +1.6580191908e+03 1.7954406540e+03 0.0000000000e+00 0.0000e+00 -1.0000e+00
<mgrwt>
<rscale>  0 0.18916085E+04</rscale>
<asrwt>0</asrwt>
<pdfrwt beam="1">  1        2 0.31527843E+00 0.18916085E+04</pdfrwt>
<pdfrwt beam="2">  1       -2 0.67155497E-01 0.18916085E+04</pdfrwt>
<totfact> 0.15284362E+01</totfact>
</mgrwt>
<rwgt>
<wgt id='morphing_basis_vector_1'> +1.0983909e-04 </wgt>
<wgt id='morphing_basis_vector_2'> +7.3241665e-05 </wgt>
<wgt id='morphing_basis_vector_3'> +1.1677300e-04 </wgt>
<wgt id='morphing_basis_vector_4'> +8.0635673e-05 </wgt>
<wgt id='morphing_basis_vector_5'> +1.2888128e-04 </wgt>
</rwgt>
</event>
<event>
 4      1 +6.0853000e-08 2.06820200e+03 7.81860800e-03 8.04413400e-02
        2 -1    0    0  501    0 +0.0000000000e+00 +0.0000000000e+00 +1.0452892688e+03 1.0452892688e+03 0.0000000000e+00 0.0000e+00 -1.0000e+00
       -2 -1    0    0    0  501 -0.0000000000e+00 -0.0000000000e+00 -1.0230325170e+03 1.0230325170e+03 0.0000000000e+00 0.0000e+00 1.0000e+00
      -13  1    1    2    0    0 +6.0062286384e+02 -8.2049937222e+02 -1.7702572745e+02 1.0321362083e+03 0.0000000000e+00 0.0000e+00 1.0000e+00
       13  1    1    2    0    0 -6.0062286384e+02 +8.2049937222e+02 +1.9928247919e+02 1.0361855774e+03 0.0000000000e+00 0.0000e+00 -1.0000e+00
<mgrwt>
<rscale>  0 0.20682020E+04</rscale>
<asrwt>0</asrwt>
<pdfrwt beam="1">  1        2 0.16081373E+00 0.20682020E+04</pdfrwt>
<pdfrwt beam="2">  1       -2 0.15738962E+00 0.20682020E+04</pdfrwt>
<totfact> 0.68096066E+00</totfact>
</mgrwt>
<rwgt>
<wgt id='morphing_basis_vector_1'> +1.5846719e-04 </wgt>
<wgt id='morphing_basis_vector_2'> +1.1219521e-04 </wgt>
<wgt id='morphing_basis_vector_3'> +1.7067340e-04 </wgt>
<wgt id='morphing_basis_vector_4'> +1.1074376e-04 </wgt>
<wgt id='morphing_basis_vector_5'> +1.8511860e-04 </wgt>
</rwgt>
</event>
<event>
 4      1 +6.0853000e-08 2.20716400e+03 7.81860800e-03 7.99150600e-02
        2 -1    0    0  501    0 +0.0000000000e+00 +0.0000000000e+00 +2.1525696687e+03 2.1525696687e+03 0.0000000000e+00 0.0000e+00 -1.0000e+00
       -2 -1    0    0    0  501 -0.0000000000e+00 -0.0000000000e+00 -5.6578594588e+02 5.6578594588e+02 0.0000000000e+00 0.0000e+00 1.0000e+00
      -13  1    1    2    0    0 +8.5414130959e+02 -2.5368358984e+02 -8.5534417023e+00 8.9105886554e+02 0.0000000000e+00 0.0000e+00 1.0000e+00
       13  1    1    2    0    0 -8.5414130959e+02 +2.5368358984e+02 +1.5953371645e+03 1.8272967490e+03 0.0000000000e+00 0.0000e+00 -1.0000e+00
<mgrwt>
<rscale>  0 0.22071644E+04</rscale>
<asrwt>0</asrwt>
<pdfrwt beam="1">  1        2 0.33116456E+00 0.22071644E+04</pdfrwt>
<pdfrwt beam="2">  1       -2 0.87043993E-01 0.22071644E+04</pdfrwt>
<totfact> 0.73031730E+00</totfact>
</mgrwt>
<rwgt>
<wgt id='morphing_basis_vector_1'> +2.0142444e-04 </wgt>
<wgt id='morphing_basis_vector_2'> +1.3582545e-04 </wgt>
<wgt id='morphing_basis_vector_3'> +2.1662192e-04 </wgt>
<wgt id='morphing_basis_vector_4'> +1.5068799e-04 </wgt>
<wgt id='morphing_basis_vector_5'> +2.4172480e-04 </wgt>
</rwgt>
</event>
<event>
 4      1 +6.0853000e-08 2.01904100e+03 7.81860800e-03 8.06378900e-02
        2 -1    0    0  501    0 +0.0000000000e+00 +0.0000000000e+00 +5.4726195483e+02 5.4726195483e+02 0.0000000000e+00 0.0000e+00 -1.0000e+00
       -2 -1    0    0    0  501 -0.0000000000e+00 -0.0000000000e+00 -1.8622381306e+03 1.8622381306e+03 0.0000000000e+00 0.0000e+00 1.0000e+00
      -13  1    1    2    0    0 +3.6554171198e+02 -3.7852257643e+02 -1.6856264172e+03 1.7658529107e+03 0.0000000000e+00 0.0000e+00 1.0000e+00
       13  1    1    2    0    0 -3.6554171198e+02 +3.7852257643e+02 +3.7065024139e+02 6.4364717470e+02 0.0000000000e+00 0.0000e+00 -1.0000e+00
<mgrwt>
<rscale>  0 0.20190414E+04</rscale>
<asrwt>0</asrwt>
<pdfrwt beam="1">  1        2 0.84194146E-01 0.20190414E+04</pdfrwt>
<pdfrwt beam="2">  1       -2 0.28649818E+00 0.20190414E+04</pdfrwt>
<totfact> 0.18351657E+00</totfact>
</mgrwt>
<rwgt>
<wgt id='morphing_basis_vector_1'> +1.4161726e-04 </wgt>
<wgt id='morphing_basis_vector_2'> +9.4355277e-05 </wgt>
<wgt id='morphing_basis_vector_3'> +1.5125739e-04 </wgt>
<wgt id='morphing_basis_vector_4'> +1.0554581e-04 </wgt>
<wgt id='morphing_basis_vector_5'> +1.6823126e-04 </wgt>
</rwgt>
</event>
<event>
 4      1 +6.0853000e-08 2.03656100e+03 7.81860800e-03 8.05671800e-02
        2 -1    0    0  501    0 +0.0000000000e+00 +0.0000000000e+00 +5.9221350514e+02 5.9221350514e+02 0.0000000000e+00 0.0000e+00 -1.0000e+00
       -2 -1    0    0    0  501 -0.0000000000e+00 -0.0000000000e+00 -1.7508810319e+03 1.7508810319e+03 0.0000000000e+00 0.0000e+00 1.0000e+00
      -13  1    1    2    0    0 -7.0090090947e+02 -6.8031836555e+02 -9.1039483296e+02 1.3352579958e+03 0.0000000000e+00 0.0000e+00 1.0000e+00
       13  1    1    2    0    0 +7.0090090947e+02 +6.8031836555e+02 -2.4827269379e+02 1.0078365413e+03 0.0000000000e+00 0.0000e+00 -1.0000e+00
<mgrwt>
<rscale>  0 0.20365612E+04</rscale>
<asrwt>0</asrwt>
<pdfrwt beam="1">  1        2 0.91109771E-01 0.20365612E+04</pdfrwt>
<pdfrwt beam="2">  1       -2 0.26936631E+00 0.20365612E+04</pdfrwt>
<totfact> 0.21873500E+00</totfact>
</mgrwt>
<rwgt>
<wgt id='morphing_basis_vector_1'> +1.4825856e-04 </wgt>
<wgt id='morphing_basis_vector_2'> +1.0285777e-04 </wgt>
<wgt id='morphing_basis_vector_3'> +1.5914309e-04 </wgt>
<wgt id='morphing_basis_vector_4'> +1.0581445e-04 </wgt>
<wgt id='morphing_basis_vector_5'> +1.7398679e-04 </wgt>
</rwgt>
</event>
<event>
 4      1 +6.0853000e-08 1.99228400e+03 7.81860800e-03 8.07473200e-02
        2 -1    0    0  501    0 +0.0000000000e+00 +0.0000000000e+00 +2.0479726420e+03 2.0479726420e+03 0.0000000000e+00 0.0000e+00 -1.0000e+00
       -2 -1    0    0    0  501 -0.0000000000e+00 -0.0000000000e+00 -4.8452757208e+02 4.8452757208e+02 0.0000000000e+00 0.0000e+00 1.0000e+00
      -13  1    1    2    0    0 -4.1622891468e+02 +7.5840432584e+02 +1.5397888184e+02 8.7871105997e+02 0.0000000000e+00 0.0000e+00 1.0000e+00
       13  1    1    2    0    0 +4.1622891468e+02 -7.5840432584e+02 +1.4094661880e+03 1.6537891541e+03 0.0000000000e+00 0.0000e+00 -1.0000e+00
<mgrwt>
<rscale>  0 0.19922843E+04</rscale>
<asrwt>0</asrwt>
<pdfrwt beam="1">  1        2 0.31507271E+00 0.19922843E+04</pdfrwt>
<pdfrwt beam="2">  1       -2 0.74542704E-01 0.19922843E+04</pdfrwt>
<totfact> 0.12122466E+01</totfact>
</mgrwt>
<rwgt>
<wgt id='morphing_basis_vector_1'> +1.3498002e-04 </wgt>
<wgt id='morphing_basis_vector_2'> +9.1203740e-05 </wgt>
<wgt id='morphing_basis_vector_3'> +1.4425074e-04 </wgt>
<wgt id='morphing_basis_vector_4'> +9.8808521e-05 </wgt>
<wgt id='morphing_basis_vector_5'> +1.5922799e-04 </wgt>
</rwgt>
</event>
<event>
 4      1 +6.0853000e-08 1.86868400e+03 7.81860800e-03 8.12771300e-02
        2 -1    0    0  501    0 +0.0000000000e+00 +0.0000000000e+00 +3.6620150490e+03 3.6620150490e+03 0.0000000000e+00 0.0000e+00 -1.0000e+00
       -2 -1    0    0    0  501 -0.0000000000e+00 -0.0000000000e+00 -2.3839198606e+02 2.3839198606e+02 0.0000000000e+00 0.0000e+00 1.0000e+00
      -13  1    1    2    0    0 +7.1910973455e+02 +4.5403905849e+02 +9.0416586875e+02 1.2412840912e+03 0.0000000000e+00 0.0000e+00 1.0000e+00
       13  1    1    2    0    0 -7.1910973455e+02 -4.5403905849e+02 +2.5194571942e+03 2.6591229438e+03 0.0000000000e+00 0.0000e+00 -1.0000e+00
<mgrwt>
<rscale>  0 0.18686841E+04</rscale>
<asrwt>0</asrwt>
<pdfrwt beam="1">  1        2 0.56338689E+00 0.18686841E+04</pdfrwt>
<pdfrwt beam="2">  1       -2 0.36675693E-01 0.18686841E+04</pdfrwt>
<totfact> 0.46552269E+00</totfact>
</mgrwt>
<rwgt>
<wgt id='morphing_basis_vector_1'> +1.0529358e-04 </wgt>
<wgt id='morphing_basis_vector_2'> +7.1468630e-05 </wgt>
<wgt id='morphing_basis_vector_3'> +1.1203384e-04 </wgt>
<wgt id='morphing_basis_vector_4'> +7.5600488e-05 </wgt>
<wgt id='morphing_basis_vector_5'> +1.2252252e-04 </wgt>
</rwgt>
</event>
<event>
 4      1 +6.0853000e-08 2.17895900e+03 7.81860800e-03 8.00185800e-02
        2 -1    0    0  501    0 +0.0000000000e+00 +0.0000000000e+00 +1.6621271726e+03 1.6621271726e+03 0.0000000000e+00 0.0000e+00 1.0000e+00
       -2 -1    0    0    0  501 -0.0000000000e+00 -0.0000000000e+00 -7.1412468107e+02 7.1412468107e+02 0.0000000000e+00 0.0000e+00 -1.0000e+00
      -13  1    1    2    0    0 +8.1927481821e+02 +5.6227534004e+02 +9.6122107634e+02 1.3825016251e+03 0.0000000000e+00 0.0000e+00 1.0000e+00
       13  1    1    2    0    0 -8.1927481821e+02 -5.6227534004e+02 -1.3218584840e+01 9.9375022855e+02 0.0000000000e+00 0.0000e+00 -1.0000e+00
<mgrwt>
<rscale>  0 0.21789594E+04</rscale>
<asrwt>0</asrwt>
<pdfrwt beam="1">  1        2 0.25571187E+00 0.21789594E+04</pdfrwt>
<pdfrwt beam="2">  1       -2 0.10986534E+00 0.21789594E+04</pdfrwt>
<totfact> 0.78878169E+00</totfact>
</mgrwt>
<rwgt>
<wgt id='morphing_basis_vector_1'> +2.1822443e-04 </wgt>
<wgt id='morphing_basis_vector_2'> +2.0810071e-04 </wgt>
<wgt id='morphing_basis_vector_3'> +2.4551026e-04 </wgt>
<wgt id='morphing_basis_vector_4'> +8.9128553e-05 </wgt>
<wgt id='morphing_basis_vector_5'> +2.2510418e-04 </wgt>
</rwgt>
</event>
<event>
 4      1 +6.0853000e-08 2.07041800e+03 7.81860800e-03 8.04326200e-02
        2 -1    0    0  501    0 +0.0000000000e+00 +0.0000000000e+00 +1.6162317831e+03 1.6162317831e+03 0.0000000000e+00 0.0000e+00 1.0000e+00
       -2 -1    0    0    0  501 -0.0000000000e+00 -0.0000000000e+00 -6.6305947790e+02 6.6305947790e+02 0.0000000000e+00 0.0000e+00 -1.0000e+00
      -13  1    1    2    0    0 +6.2065091914e+02 -2.5893849035e+02 +1.3430047181e+03 1.5019714971e+03 0.0000000000e+00 0.0000e+00 1.0000e+00
       13  1    1    2    0    0 -6.2065091914e+02 +2.5893849035e+02 -3.8983241290e+02 7.7731976391e+02 0.0000000000e+00 0.0000e+00 -1.0000e+00
<mgrwt>
<rscale>  0 0.20704181E+04</rscale>
<asrwt>0</asrwt>
<pdfrwt beam="1">  1        2 0.24865104E+00 0.20704181E+04</pdfrwt>
<pdfrwt beam="2">  1       -2 0.10200915E+00 0.20704181E+04</pdfrwt>
<totfact> 0.10143842E+01</totfact>
</mgrwt>
<rwgt>
<wgt id='morphing_basis_vector_1'> +2.0570549e-04 </wgt>
<wgt id='morphing_basis_vector_2'> +2.5047380e-04 </wgt>
<wgt id='morphing_basis_vector_3'> +2.3980606e-04 </wgt>
<wgt id='morphing_basis_vector_4'> +1.8055929e-05 </wgt>
<wgt id='morphing_basis_vector_5'> +1.7853896e-04 </wgt>
</rwgt>
</event>
<event>
 4      1 +6.0853000e-08 1.99043300e+03 7.81860800e-03 8.07549600e-02
        2 -1    0    0  501    0 +0.0000000000e+00 +0.0000000000e+00 +4.3020137925e+03 4.3020137925e+03 0.0000000000e+00 0.0000e+00 -1.0000e+00
       -2 -1    0    0    0  501 -0.0000000000e+00 -0.0000000000e+00 -2.3023080254e+02 2.3023080254e+02 0.0000000000e+00 0.0000e+00 1.0000e+00
      -13  1    1    2    0    0 -6.8536254629e+02 -7.0028766162e+02 +2.4324546696e+03 2.6223959176e+03 0.0000000000e+00 0.0000e+00 1.0000e+00
       13  1    1    2    0    0 +6.8536254629e+02 +7.0028766162e+02 +1.6393283203e+03 1.9098486774e+03 0.0000000000e+00 0.0000e+00 -1.0000e+00
<mgrwt>
<rscale>  0 0.19904332E+04</rscale>
<asrwt>0</asrwt>
<pdfrwt beam="1">  1        2 0.66184822E+00 0.19904332E+04</pdfrwt>
<pdfrwt beam="2">  1       -2 0.35420127E-01 0.19904332E+04</pdfrwt>
<totfact> 0.14135170E+00</totfact>
</mgrwt>
<rwgt>
<wgt id='morphing_basis_vector_1'> +1.4289307e-04 </wgt>
<wgt id='morphing_basis_vector_2'> +1.1575240e-04 </wgt>
<wgt id='morphing_basis_vector_3'> +1.5593462e-04 </wgt>
<wgt id='morphing_basis_vector_4'> +8.1726657e-05 </wgt>
<wgt id='morphing_basis_vector_5'> +1.5730760e-04 </wgt>
</rwgt>
</event>
<event>
 4      1 +6.0853000e-08 2.04020900e+03 7.81860800e-03 8.05525500e-02
        2 -1    0    0  501    0 +0.0000000000e+00 +0.0000000000e+00 +1.7568155848e+03 1.7568155848e+03 0.0000000000e+00 0.0000e+00 -1.0000e+00
       -2 -1    0    0    0  501 -0.0000000000e+00 -0.0000000000e+00 -5.9232921140e+02 5.9232921140e+02 0.0000000000e+00 0.0000e+00 1.0000e+00
      -13  1    1    2    0    0 +8.4492089779e+02 +5.1011890034e+02 +8.7916891089e+02 1.3217604132e+03 0.0000000000e+00 0.0000e+00 1.0000e+00
       13  1    1    2    0    0 -8.4492089779e+02 -5.1011890034e+02 +2.8531746250e+02 1.0273843830e+03 0.0000000000e+00 0.0000e+00 -1.0000e+00
<mgrwt>
<rscale>  0 0.20402090E+04</rscale>
<asrwt>0</asrwt>
<pdfrwt beam="1">  1        2 0.27027932E+00 0.20402090E+04</pdfrwt>
<pdfrwt beam="2">  1       -2 0.91127572E-01 0.20402090E+04</pdfrwt>
<totfact> 0.11109313E+01</totfact>
</mgrwt>
<rwgt>
<wgt id='morphing_basis_vector_1'> +1.6035507e-04 </wgt>
<wgt id='morphing_basis_vector_2'> +1.3630157e-04 </wgt>
<wgt id='morphing_basis_vector_3'> +1.7645847e-04 </wgt>
<wgt id='morphing_basis_vector_4'> +8.4527660e-05 </wgt>
<wgt id='morphing_basis_vector_5'> +1.7351497e-04 </wgt>
</rwgt>
</event>
<event>
 4      1 +6.0853000e-08 2.05749200e+03 7.81860800e-03 8.04836800e-02
        2 -1    0    0  501    0 +0.0000000000e+00 +0.0000000000e+00 +2.2570279272e+03 2.2570279272e+03 0.0000000000e+00 0.0000e+00 1.0000e+00
       -2 -1    0    0    0  501 -0.0000000000e+00 -0.0000000000e+00 -4.6889897771e+02 4.6889897771e+02 0.0000000000e+00 0.0000e+00 -1.0000e+00
      -13  1    1    2    0    0 +7.8693426221e+02 -1.5250794163e+02 +3.9755145925e+01 8.0256132285e+02 0.0000000000e+00 0.0000e+00 -1.0000e+00
       13  1    1    2    0    0 -7.8693426221e+02 +1.5250794163e+02 +1.7483738036e+03 1.9233655821e+03 0.0000000000e+00 0.0000e+00 1.0000e+00
<mgrwt>
<rscale>  0 0.20574918E+04</rscale>
<asrwt>0</asrwt>
<pdfrwt beam="1">  1        2 0.34723506E+00 0.20574918E+04</pdfrwt>
<pdfrwt beam="2">  1       -2 0.72138305E-01 0.20574918E+04</pdfrwt>
<totfact> 0.98412845E+00</totfact>
</mgrwt>
<rwgt>
<wgt id='morphing_basis_vector_1'> +1.5277813e-04 </wgt>
<wgt id='morphing_basis_vector_2'> +1.0253180e-04 </wgt>
<wgt id='morphing_basis_vector_3'> +1.6351090e-04 </wgt>
<wgt id='morphing_basis_vector_4'> +1.1340973e-04 </wgt>
<wgt id='morphing_basis_vector_5'> +1.8163764e-04 </wgt>
</rwgt>
</event>
<event>
 4      1 +6.0853000e-08 1.93266800e+03 7.81860800e-03 8.09977100e-02
        2 -1    0    0  501    0 +0.0000000000e+00 +0.0000000000e+00 +3.2658301025e+02 3.2658301025e+02 0.0000000000e+00 0.0000e+00 -1.0000e+00
       -2 -1    0    0    0  501 -0.0000000000e+00 -0.0000000000e+00 -2.8593073976e+03 2.8593073976e+03 0.0000000000e+00 0.0000e+00 1.0000e+00
      -13  1    1    2    0    0 -7.0054613228e+02 +6.0590818446e+02 -1.7205418818e+03 1.9540097181e+03 0.0000000000e+00 0.0000e+00 1.0000e+00
       13  1    1    2    0    0 +7.0054613228e+02 -6.0590818446e+02 -8.1218250554e+02 1.2318806897e+03 0.0000000000e+00 0.0000e+00 -1.0000e+00
<mgrwt>
<rscale>  0 0.19326678E+04</rscale>
<asrwt>0</asrwt>
<pdfrwt beam="1">  1        2 0.50243541E-01 0.19326678E+04</pdfrwt>
<pdfrwt beam="2">  1       -2 0.43989344E+00 0.19326678E+04</pdfrwt>
<totfact> 0.32417888E-01</totfact>
</mgrwt>
<rwgt>
<wgt id='morphing_basis_vector_1'> +1.2074403e-04 </wgt>
<wgt id='morphing_basis_vector_2'> +8.3537743e-05 </wgt>
<wgt id='morphing_basis_vector_3'> +1.2907223e-04 </wgt>
<wgt id='morphing_basis_vector_4'> +8.5497561e-05 </wgt>
<wgt id='morphing_basis_vector_5'> +1.4050897e-04 </wgt>
</rwgt>
</event>
<event>
 4      1 +6.0853000e-08 2.12006300e+03 7.81860800e-03 8.02400600e-02
        2 -1    0    0  501    0 +0.0000000000e+00 +0.0000000000e+00 +3.8682435333e+03 3.8682435333e+03 0.0000000000e+00 0.0000e+00 1.0000e+00
       -2 -1    0    0    0  501 -0.0000000000e+00 -0.0000000000e+00 -2.9048509541e+02 2.9048509541e+02 0.0000000000e+00 0.0000e+00 -1.0000e+00
      -13  1    1    2    0    0 -6.7208247870e+02 +5.6617171491e+02 +6.2602273454e+02 1.0789577068e+03 0.0000000000e+00 0.0000e+00 -1.0000e+00
       13  1    1    2    0    0 +6.7208247870e+02 -5.6617171491e+02 +2.9517357033e+03 3.0797709219e+03 0.0000000000e+00 0.0000e+00 1.0000e+00
<mgrwt>
<rscale>  0 0.21200633E+04</rscale>
<asrwt>0</asrwt>
<pdfrwt beam="1">  1        2 0.59511435E+00 0.21200633E+04</pdfrwt>
<pdfrwt beam="2">  1       -2 0.44690018E-01 0.21200633E+04</pdfrwt>
<totfact> 0.21585174E+00</totfact>
</mgrwt>
<rwgt>
<wgt id='morphing_basis_vector_1'> +1.7203304e-04 </wgt>
<wgt id='morphing_basis_vector_2'> +1.1603002e-04 </wgt>
<wgt id='morphing_basis_vector_3'> +1.8457263e-04 </wgt>
<wgt id='morphing_basis_vector_4'> +1.2774541e-04 </wgt>
<wgt id='morphing_basis_vector_5'> +2.0518494e-04 </wgt>
</rwgt>
</event>
<event>
 4      1 +6.0853000e-08 2.11015800e+03 7.81860800e-03 8.02780400e-02
        2 -1    0    0  501    0 +0.0000000000e+00 +0.0000000000e+00 +2.8689852364e+03 2.8689852364e+03 0.0000000000e+00 0.0000e+00 -1.0000e+00
       -2 -1    0    0    0  501 -0.0000000000e+00 -0.0000000000e+00 -3.8800899974e+02 3.8800899974e+02 0.0000000000e+00 0.0000e+00 1.0000e+00
      -13  1    1    2    0    0 -7.3641636537e+02 +6.9551893294e+02 +7.8486909271e+02 1.2814347982e+03 0.0000000000e+00 0.0000e+00 1.0000e+00
       13  1    1    2    0    0 +7.3641636537e+02 -6.9551893294e+02 +1.6961071440e+03 1.9755594380e+03 0.0000000000e+00 0.0000e+00 -1.0000e+00
<mgrwt>
<rscale>  0 0.21101584E+04</rscale>
<asrwt>0</asrwt>
<pdfrwt beam="1">  1        2 0.44138233E+00 0.21101584E+04</pdfrwt>
<pdfrwt beam="2">  1       -2 0.59693694E-01 0.21101584E+04</pdfrwt>
<totfact> 0.62406735E+00</totfact>
</mgrwt>
<rwgt>
<wgt id='morphing_basis_vector_1'> +1.7044887e-04 </wgt>
<wgt id='morphing_basis_vector_2'> +1.1848145e-04 </wgt>
<wgt id='morphing_basis_vector_3'> +1.8344054e-04 </wgt>
<wgt id='morphing_basis_vector_4'> +1.2222189e-04 </wgt>
<wgt id='morphing_basis_vector_5'> +2.0106200e-04 </wgt>
</rwgt>
</event>
<event>
 4      1 +6.0853000e-08 2.02212400e+03 7.81860800e-03 8.06253900e-02
        2 -1    0    0  501    0 +0.0000000000e+00 +0.0000000000e+00 +8.1068214720e+02 8.1068214720e+02 0.0000000000e+00 0.0000e+00 -1.0000e+00
       -2 -1    0    0    0  501 -0.0000000000e+00 -0.0000000000e+00 -1.2609708343e+03 1.2609708343e+03 0.0000000000e+00 0.0000e+00 1.0000e+00
      -13  1    1    2    0    0 +9.1650202002e+02 +2.5454432262e+02 -5.7628979828e+02 1.1121504828e+03 0.0000000000e+00 0.0000e+00 1.0000e+00
       13  1    1    2    0    0 -9.1650202002e+02 -2.5454432262e+02 +1.2600111121e+02 9.5950249864e+02 0.0000000000e+00 0.0000e+00 -1.0000e+00
<mgrwt>
<rscale>  0 0.20221242E+04</rscale>
<asrwt>0</asrwt>
<pdfrwt beam="1">  1        2 0.12472033E+00 0.20221242E+04</pdfrwt>
<pdfrwt beam="2">  1       -2 0.19399551E+00 0.20221242E+04</pdfrwt>
<totfact> 0.50672294E+00</totfact>
</mgrwt>
<rwgt>
<wgt id='morphing_basis_vector_1'> +1.4380281e-04 </wgt>
<wgt id='morphing_basis_vector_2'> +9.8882491e-05 </wgt>
<wgt id='morphing_basis_vector_3'> +1.5413211e-04 </wgt>
<wgt id='morphing_basis_vector_4'> +1.0354151e-04 </wgt>
<wgt id='morphing_basis_vector_5'> +1.6907099e-04 </wgt>
</rwgt>
</event>
<event>
 4      1 +6.0853000e-08 2.08204500e+03 7.81860800e-03 8.03870200e-02
        2 -1    0    0  501    0 +0.0000000000e+00 +0.0000000000e+00 +2.4235102282e+03 2.4235102282e+03 0.0000000000e+00 0.0000e+00 1.0000e+00
       -2 -1    0    0    0  501 -0.0000000000e+00 -0.0000000000e+00 -4.4717278314e+02 4.4717278314e+02 0.0000000000e+00 0.0000e+00 -1.0000e+00
      -13  1    1    2    0    0 -7.1236603096e+02 +4.1118813072e+02 +1.8679849433e+03 2.0410558026e+03 0.0000000000e+00 0.0000e+00 1.0000e+00
       13  1    1    2    0    0 +7.1236603096e+02 -4.1118813072e+02 +1.0835250180e+02 8.2962720879e+02 0.0000000000e+00 0.0000e+00 -1.0000e+00
<mgrwt>
<rscale>  0 0.20820450E+04</rscale>
<asrwt>0</asrwt>
<pdfrwt beam="1">  1        2 0.37284772E+00 0.20820450E+04</pdfrwt>
<pdfrwt beam="2">  1       -2 0.68795814E-01 0.20820450E+04</pdfrwt>
<totfact> 0.86976890E+00</totfact>
</mgrwt>
<rwgt>
<wgt id='morphing_basis_vector_1'> +1.9848475e-04 </wgt>
<wgt id='morphing_basis_vector_2'> +2.2116266e-04 </wgt>
<wgt id='morphing_basis_vector_3'> +2.2795984e-04 </wgt>
<wgt id='morphing_basis_vector_4'> +4.2081703e-05 </wgt>
<wgt id='morphing_basis_vector_5'> +1.8452747e-04 </wgt>
</rwgt>
</event>
<event>
 4      1 +6.0853000e-08 2.00445600e+03 7.81860800e-03 8.06973200e-02
        2 -1    0    0  501    0 +0.0000000000e+00 +0.0000000000e+00 +1.1122468681e+03 1.1122468681e+03 0.0000000000e+00 0.0000e+00 -1.0000e+00
       -2 -1    0    0    0  501 -0.0000000000e+00 -0.0000000000e+00 -9.0309168136e+02 9.0309168136e+02 0.0000000000e+00 0.0000e+00 1.0000e+00
      -13  1    1    2    0    0 -7.0666233306e+00 -7.0546670912e+02 -6.1113525499e+02 9.3339140489e+02 0.0000000000e+00 0.0000e+00 1.0000e+00
       13  1    1    2    0    0 +7.0666233306e+00 +7.0546670912e+02 +8.2029044173e+02 1.0819471446e+03 0.0000000000e+00 0.0000e+00 -1.0000e+00
<mgrwt>
<rscale>  0 0.20044559E+04</rscale>
<asrwt>0</asrwt>
<pdfrwt beam="1">  1        2 0.17111490E+00 0.20044559E+04</pdfrwt>
<pdfrwt beam="2">  1       -2 0.13893718E+00 0.20044559E+04</pdfrwt>
<totfact> 0.88872490E+00</totfact>
</mgrwt>
<rwgt>
<wgt id='morphing_basis_vector_1'> +1.3777376e-04 </wgt>
<wgt id='morphing_basis_vector_2'> +9.2050204e-05 </wgt>
<wgt id='morphing_basis_vector_3'> +1.4712285e-04 </wgt>
<wgt id='morphing_basis_vector_4'> +1.0222309e-04 </wgt>
<wgt id='morphing_basis_vector_5'> +1.6330849e-04 </wgt>
</rwgt>
</event>
<event>
 4      1 +6.0853000e-08 1.96764100e+03 7.81860800e-03 8.08497000e-02
        2 -1    0    0  501    0 +0.0000000000e+00 +0.0000000000e+00 +1.0218553380e+03 1.0218553380e+03 0.0000000000e+00 0.0000e+00 1.0000e+00
       -2 -1    0    0    0  501 -0.0000000000e+00 -0.0000000000e+00 -9.4720112766e+02 9.4720112766e+02 0.0000000000e+00 0.0000e+00 -1.0000e+00
      -13  1    1    2    0    0 +1.3025653923e+02 -3.1201713402e+02 -8.8723214958e+02 9.4947477333e+02 0.0000000000e+00 0.0000e+00 -1.0000e+00
       13  1    1    2    0    0 -1.3025653923e+02 +3.1201713402e+02 +9.6188635996e+02 1.0195816924e+03 0.0000000000e+00 0.0000e+00 1.0000e+00
<mgrwt>
<rscale>  0 0.19676407E+04</rscale>
<asrwt>0</asrwt>
<pdfrwt beam="1">  1        2 0.15720851E+00 0.19676407E+04</pdfrwt>
<pdfrwt beam="2">  1       -2 0.14572325E+00 0.19676407E+04</pdfrwt>
<totfact> 0.88583097E+00</totfact>
</mgrwt>
<rwgt>
<wgt id='morphing_basis_vector_1'> +1.2797840e-04 </wgt>
<wgt id='morphing_basis_vector_2'> +8.5102018e-05 </wgt>
<wgt id='morphing_basis_vector_3'> +1.3641749e-04 </wgt>
<wgt id='morphing_basis_vector_4'> +9.5063087e-05 </wgt>
<wgt id='morphing_basis_vector_5'> +1.5142995e-04 </wgt>
</rwgt>
</event>
<event>
 4      1 +6.0853000e-08 2.06505400e+03 7.81860800e-03 8.04537600e-02
        2 -1    0    0  501    0 +0.0000000000e+00 +0.0000000000e+00 +1.7502770437e+03 1.7502770437e+03 0.0000000000e+00 0.0000e+00 -1.0000e+00
       -2 -1    0    0    0  501 -0.0000000000e+00 -0.0000000000e+00 -6.0911044739e+02 6.0911044739e+02 0.0000000000e+00 0.0000e+00 1.0000e+00
      -13  1    1    2    0    0 +7.0864427450e+02 +7.4595936796e+02 +4.7176961080e+02 1.1319004603e+03 0.0000000000e+00 0.0000e+00 1.0000e+00
       13  1    1    2    0    0 -7.0864427450e+02 -7.4595936796e+02 +6.6939698546e+02 1.2274870307e+03 0.0000000000e+00 0.0000e+00 -1.0000e+00
<mgrwt>
<rscale>  0 0.20650540E+04</rscale>
<asrwt>0</asrwt>
<pdfrwt beam="1">  1        2 0.26927339E+00 0.20650540E+04</pdfrwt>
<pdfrwt beam="2">  1       -2 0.93709301E-01 0.20650540E+04</pdfrwt>
<totfact> 0.10469286E+01</totfact>
</mgrwt>
<rwgt>
<wgt id='morphing_basis_vector_1'> +1.5882651e-04 </wgt>
<wgt id='morphing_basis_vector_2'> +1.1537778e-04 </wgt>
<wgt id='morphing_basis_vector_3'> +1.7155078e-04 </wgt>
<wgt id='morphing_basis_vector_4'> +1.0745154e-04 </wgt>
<wgt id='morphing_basis_vector_5'> +1.8376635e-04 </wgt>
</rwgt>
</event>
<event>
 4      1 +6.0853000e-08 2.03976300e+03 7.81860800e-03 8.05543400e-02
        2 -1    0    0  501    0 +0.0000000000e+00 +0.0000000000e+00 +1.5054893064e+03 1.5054893064e+03 0.0000000000e+00 0.0000e+00 -1.0000e+00
       -2 -1    0    0    0  501 -0.0000000000e+00 -0.0000000000e+00 -6.9091023679e+02 6.9091023679e+02 0.0000000000e+00 0.0000e+00 1.0000e+00
      -13  1    1    2    0    0 -5.6451123736e+02 +3.7830597933e+02 -4.1161718517e+02 7.9449169803e+02 0.0000000000e+00 0.0000e+00 1.0000e+00
       13  1    1    2    0    0 +5.6451123736e+02 -3.7830597933e+02 +1.2261962548e+03 1.4019078452e+03 0.0000000000e+00 0.0000e+00 -1.0000e+00
<mgrwt>
<rscale>  0 0.20397627E+04</rscale>
<asrwt>0</asrwt>
<pdfrwt beam="1">  1        2 0.23161374E+00 0.20397627E+04</pdfrwt>
<pdfrwt beam="2">  1       -2 0.10629388E+00 0.20397627E+04</pdfrwt>
<totfact> 0.10599844E+01</totfact>
</mgrwt>
<rwgt>
<wgt id='morphing_basis_vector_1'> +1.4749205e-04 </wgt>
<wgt id='morphing_basis_vector_2'> +9.8519818e-05 </wgt>
<wgt id='morphing_basis_vector_3'> +1.5768301e-04 </wgt>
<wgt id='morphing_basis_vector_4'> +1.0985265e-04 </wgt>
<wgt id='morphing_basis_vector_5'> +1.7537049e-04 </wgt>
</rwgt>
</event>
<event>
 4      1 +6.0853000e-08 1.95507900e+03 7.81860800e-03 8.09024900e-02
        2 -1    0    0  501    0 +0.0000000000e+00 +0.0000000000e+00 +5.5514823368e+02 5.5514823368e+02 0.0000000000e+00 0.0000e+00 -1.0000e+00
       -2 -1    0    0    0  501 -0.0000000000e+00 -0.0000000000e+00 -1.7213127347e+03 1.7213127347e+03 0.0000000000e+00 0.0000e+00 1.0000e+00
      -13  1    1    2    0    0 +6.3384092877e+02 +7.3977338268e+02 -6.7742417343e+02 1.1865590973e+03 0.0000000000e+00 0.0000e+00 1.0000e+00
       13  1    1    2    0    0 -6.3384092877e+02 -7.3977338268e+02 -4.8874032757e+02 1.0899018710e+03 0.0000000000e+00 0.0000e+00 -1.0000e+00
<mgrwt>
<rscale>  0 0.19550793E+04</rscale>
<asrwt>0</asrwt>
<pdfrwt beam="1">  1        2 0.85407420E-01 0.19550793E+04</pdfrwt>
<pdfrwt beam="2">  1       -2 0.26481734E+00 0.19550793E+04</pdfrwt>
<totfact> 0.25523133E+00</totfact>
</mgrwt>
<rwgt>
<wgt id='morphing_basis_vector_1'> +1.2816991e-04 </wgt>
<wgt id='morphing_basis_vector_2'> +9.2924854e-05 </wgt>
<wgt id='morphing_basis_vector_3'> +1.3783652e-04 </wgt>
<wgt id='morphing_basis_vector_4'> +8.5947947e-05 </wgt>
<wgt id='morphing_basis_vector_5'> +1.4699669e-04 </wgt>
</rwgt>
</event>
<event>
 4      1 +6.0853000e-08 2.09679800e+03 7.81860800e-03 8.03296100e-02
        2 -1    0    0  501    0 +0.0000000000e+00 +0.0000000000e+00 +9.9669717094e+02 9.9669717094e+02 0.0000000000e+00 0.0000e+00 -1.0000e+00
       -2 -1    0    0    0  501 -0.0000000000e+00 -0.0000000000e+00 -1.1027824840e+03 1.1027824840e+03 0.0000000000e+00 0.0000e+00 1.0000e+00
      -13  1    1    2    0    0 +1.3827239036e+02 -9.3734960979e+02 -5.0238902842e+02 1.0724450013e+03 0.0000000000e+00 0.0000e+00 1.0000e+00
       13  1    1    2    0    0 -1.3827239036e+02 +9.3734960979e+02 +3.9630371539e+02 1.0270346536e+03 0.0000000000e+00 0.0000e+00 -1.0000e+00
<mgrwt>
<rscale>  0 0.20967977E+04</rscale>
<asrwt>0</asrwt>
<pdfrwt beam="1">  1        2 0.15333803E+00 0.20967977E+04</pdfrwt>
<pdfrwt beam="2">  1       -2 0.16965884E+00 0.20967977E+04</pdfrwt>
<totfact> 0.58182201E+00</totfact>
</mgrwt>
<rwgt>
<wgt id='morphing_basis_vector_1'> +1.6526007e-04 </wgt>
<wgt id='morphing_basis_vector_2'> +1.1260497e-04 </wgt>
<wgt id='morphing_basis_vector_3'> +1.7738365e-04 </wgt>
<wgt id='morphing_basis_vector_4'> +1.2108706e-04 </wgt>
<wgt id='morphing_basis_vector_5'> +1.9608538e-04 </wgt>
</rwgt>
</event>
<event>
 4      1 +6.0853000e-08 2.03662400e+03 7.81860800e-03 8.05669300e-02
        2 -1    0    0  501    0 +0.0000000000e+00 +0.0000000000e+00 +2.0473345064e+03 2.0473345064e+03 0.0000000000e+00 0.0000e+00 -1.0000e+00
       -2 -1    0    0    0  501 -0.0000000000e+00 -0.0000000000e+00 -5.0649234668e+02 5.0649234668e+02 0.0000000000e+00 0.0000e+00 1.0000e+00
      -13  1    1    2    0    0 +5.0512157086e+02 +3.7147640031e+02 -2.3572662183e+02 6.6985786371e+02 0.0000000000e+00 0.0000e+00 1.0000e+00
       13  1    1    2    0    0 -5.0512157086e+02 -3.7147640031e+02 +1.7765687815e+03 1.8839689894e+03 0.0000000000e+00 0.0000e+00 -1.0000e+00
<mgrwt>
<rscale>  0 0.20366239E+04</rscale>
<asrwt>0</asrwt>
<pdfrwt beam="1">  1        2 0.31497453E+00 0.20366239E+04</pdfrwt>
<pdfrwt beam="2">  1       -2 0.77921901E-01 0.20366239E+04</pdfrwt>
<totfact> 0.10951836E+01</totfact>
</mgrwt>
<rwgt>
<wgt id='morphing_basis_vector_1'> +1.4656148e-04 </wgt>
<wgt id='morphing_basis_vector_2'> +9.7794274e-05 </wgt>
<wgt id='morphing_basis_vector_3'> +1.5665420e-04 </wgt>
<wgt id='morphing_basis_vector_4'> +1.0925004e-04 </wgt>
<wgt id='morphing_basis_vector_5'> +1.7427942e-04 </wgt>
</rwgt>
</event>
<event>
 4      1 +6.0853000e-08 2.05539500e+03 7.81860800e-03 8.04920000e-02
        2 -1    0    0  501    0 +0.0000000000e+00 +0.0000000000e+00 +2.0209265154e+03 2.0209265154e+03 0.0000000000e+00 0.0000e+00 -1.0000e+00
       -2 -1    0    0    0  501 -0.0000000000e+00 -0.0000000000e+00 -5.2261274545e+02 5.2261274545e+02 0.0000000000e+00 0.0000e+00 1.0000e+00
      -13  1    1    2    0    0 +2.4348589206e+02 -8.6529006085e+02 +1.3270376504e+02 9.0863774867e+02 0.0000000000e+00 0.0000e+00 1.0000e+00
       13  1    1    2    0    0 -2.4348589206e+02 +8.6529006085e+02 +1.3656100049e+03 1.6349015122e+03 0.0000000000e+00 0.0000e+00 -1.0000e+00
<mgrwt>
<rscale>  0 0.20553948E+04</rscale>
<asrwt>0</asrwt>
<pdfrwt beam="1">  1        2 0.31091177E+00 0.20553948E+04</pdfrwt>
<pdfrwt beam="2">  1       -2 0.80401962E-01 0.20553948E+04</pdfrwt>
<totfact> 0.10542456E+01</totfact>
</mgrwt>
<rwgt>
<wgt id='morphing_basis_vector_1'> +1.5257836e-04 </wgt>
<wgt id='morphing_basis_vector_2'> +1.0333189e-04 </wgt>
<wgt id='morphing_basis_vector_3'> +1.6344776e-04 </wgt>
<wgt id='morphing_basis_vector_4'> +1.1211979e-04 </wgt>
<wgt id='morphing_basis_vector_5'> +1.8081929e-04 </wgt>
</rwgt>
</event>
<event>
 4      1 +6.0853000e-08 2.03921800e+03 7.81860800e-03 8.05565300e-02
        2 -1    0    0  501    0 +0.0000000000e+00 +0.0000000000e+00 +2.5563522918e+03 2.5563522918e+03 0.0000000000e+00 0.0000e+00 -1.0000e+00
       -2 -1    0    0    0  501 -0.0000000000e+00 -0.0000000000e+00 -4.0667417303e+02 4.0667417303e+02 0.0000000000e+00 0.0000e+00 1.0000e+00
      -13  1    1    2    0    0 +9.6743842731e+02 -2.8715340332e+02 +1.2864433519e+03 1.6350323194e+03 0.0000000000e+00 0.0000e+00 1.0000e+00
       13  1    1    2    0    0 -9.6743842731e+02 +2.8715340332e+02 +8.6323476683e+02 1.3279941454e+03 0.0000000000e+00 0.0000e+00 -1.0000e+00
<mgrwt>
<rscale>  0 0.20392179E+04</rscale>
<asrwt>0</asrwt>
<pdfrwt beam="1">  1        2 0.39328496E+00 0.20392179E+04</pdfrwt>
<pdfrwt beam="2">  1       -2 0.62565259E-01 0.20392179E+04</pdfrwt>
<totfact> 0.88857322E+00</totfact>
</mgrwt>
<rwgt>
<wgt id='morphing_basis_vector_1'> +1.5609966e-04 </wgt>
<wgt id='morphing_basis_vector_2'> +1.2434892e-04 </wgt>
<wgt id='morphing_basis_vector_3'> +1.7033512e-04 </wgt>
<wgt id='morphing_basis_vector_4'> +9.2244680e-05 </wgt>
<wgt id='morphing_basis_vector_5'> +1.7379562e-04 </wgt>
</rwgt>
</event>
<event>
 4      1 +6.0853000e-08 1.91137000e+03 7.81860800e-03 8.10894500e-02
        2 -1    0    0  501    0 +0.0000000000e+00 +0.0000000000e+00 +1.2863737257e+03 1.2863737257e+03 0.0000000000e+00 0.0000e+00 -1.0000e+00
       -2 -1    0    0    0  501 -0.0000000000e+00 -0.0000000000e+00 -7.1000683888e+02 7.1000683888e+02 0.0000000000e+00 0.0000e+00 1.0000e+00
      -13  1    1    2    0    0 -2.3190147577e+01 +3.2861292161e+02 -6.4882854648e+02 7.2766937404e+02 0.0000000000e+00 0.0000e+00 1.0000e+00
       13  1    1    2    0    0 +2.3190147577e+01 -3.2861292161e+02 +1.2251954333e+03 1.2687111905e+03 0.0000000000e+00 0.0000e+00 -1.0000e+00
<mgrwt>
<rscale>  0 0.19113703E+04</rscale>
<asrwt>0</asrwt>
<pdfrwt beam="1">  1        2 0.19790365E+00 0.19113703E+04</pdfrwt>
<pdfrwt beam="2">  1       -2 0.10923182E+00 0.19113703E+04</pdfrwt>
<totfact> 0.13323563E+01</totfact>
</mgrwt>
<rwgt>
<wgt id='morphing_basis_vector_1'> +1.1423905e-04 </wgt>
<wgt id='morphing_basis_vector_2'> +7.5856825e-05 </wgt>
<wgt id='morphing_basis_vector_3'> +1.2149556e-04 </wgt>
<wgt id='morphing_basis_vector_4'> +8.4442642e-05 </wgt>
<wgt id='morphing_basis_vector_5'> +1.3450104e-04 </wgt>
</rwgt>
</event>
<event>
 4      1 +6.0853000e-08 2.12934200e+03 7.81860800e-03 8.02046700e-02
        2 -1    0    0  501    0 +0.0000000000e+00 +0.0000000000e+00 +2.4931515973e+03 2.4931515973e+03 0.0000000000e+00 0.0000e+00 1.0000e+00
       -2 -1    0    0    0  501 -0.0000000000e+00 -0.0000000000e+00 -4.5465517106e+02 4.5465517106e+02 0.0000000000e+00 0.0000e+00 -1.0000e+00
      -13  1    1    2    0    0 +4.7942106184e+02 +6.8194797418e+02 +1.0239222984e+02 8.3987008683e+02 0.0000000000e+00 0.0000e+00 -1.0000e+00
       13  1    1    2    0    0 -4.7942106184e+02 -6.8194797418e+02 +1.9361041964e+03 2.1079366816e+03 0.0000000000e+00 0.0000e+00 1.0000e+00
<mgrwt>
<rscale>  0 0.21293419E+04</rscale>
<asrwt>0</asrwt>
<pdfrwt beam="1">  1        2 0.38356178E+00 0.21293419E+04</pdfrwt>
<pdfrwt beam="2">  1       -2 0.69946951E-01 0.21293419E+04</pdfrwt>
<totfact> 0.76021938E+00</totfact>
</mgrwt>
<rwgt>
<wgt id='morphing_basis_vector_1'> +1.7483085e-04 </wgt>
<wgt id='morphing_basis_vector_2'> +1.1752986e-04 </wgt>
<wgt id='morphing_basis_vector_3'> +1.8755637e-04 </wgt>
<wgt id='morphing_basis_vector_4'> +1.3039497e-04 </wgt>
<wgt id='morphing_basis_vector_5'> +2.0889419e-04 </wgt>
</rwgt>
</event>
<event>
 4      1 +6.0853000e-08 2.19481200e+03 7.81860800e-03 7.99602000e-02
        2 -1    0    0  501    0 +0.0000000000e+00 +0.0000000000e+00 +3.3833457917e+03 3.3833457917e+03 0.0000000000e+00 0.0000e+00 -1.0000e+00
       -2 -1    0    0    0  501 -0.0000000000e+00 -0.0000000000e+00 -3.5594931300e+02 3.5594931300e+02 0.0000000000e+00 0.0000e+00 1.0000e+00
      -13  1    1    2    0    0 -1.0417586108e+03 -1.7300145286e+02 +2.0222714874e+03 2.2813970445e+03 0.0000000000e+00 0.0000e+00 1.0000e+00
       13  1    1    2    0    0 +1.0417586108e+03 +1.7300145286e+02 +1.0051249913e+03 1.4578980602e+03 0.0000000000e+00 0.0000e+00 -1.0000e+00
<mgrwt>
<rscale>  0 0.21948117E+04</rscale>
<asrwt>0</asrwt>
<pdfrwt beam="1">  1        2 0.52051472E+00 0.21948117E+04</pdfrwt>
<pdfrwt beam="2">  1       -2 0.54761435E-01 0.21948117E+04</pdfrwt>
<totfact> 0.33451096E+00</totfact>
</mgrwt>
<rwgt>
<wgt id='morphing_basis_vector_1'> +2.1475888e-04 </wgt>
<wgt id='morphing_basis_vector_2'> +1.8524907e-04 </wgt>
<wgt id='morphing_basis_vector_3'> +2.3821749e-04 </wgt>
<wgt id='morphing_basis_vector_4'> +1.1151459e-04 </wgt>
<wgt id='morphing_basis_vector_5'> +2.3341167e-04 </wgt>
</rwgt>
</event>
<event>
 4      1 +6.0853000e-08 1.98756300e+03 7.81860800e-03 8.07668100e-02
        2 -1    0    0  501    0 +0.0000000000e+00 +0.0000000000e+00 +8.9998422107e+02 8.9998422107e+02 0.0000000000e+00 0.0000e+00 -1.0000e+00
       -2 -1    0    0    0  501 -0.0000000000e+00 -0.0000000000e+00 -1.0973547263e+03 1.0973547263e+03 0.0000000000e+00 0.0000e+00 1.0000e+00
      -13  1    1    2    0    0 -6.0597203133e+02 +7.2725247324e+02 +2.0529829487e+02 9.6863081329e+02 0.0000000000e+00 0.0000e+00 1.0000e+00
       13  1    1    2    0    0 +6.0597203133e+02 -7.2725247324e+02 -4.0266880013e+02 1.0287081341e+03 0.0000000000e+00 0.0000e+00 -1.0000e+00
<mgrwt>
<rscale>  0 0.19875633E+04</rscale>
<asrwt>0</asrwt>
<pdfrwt beam="1">  1        2 0.13845911E+00 0.19875633E+04</pdfrwt>
<pdfrwt beam="2">  1       -2 0.16882380E+00 0.19875633E+04</pdfrwt>
<totfact> 0.68721025E+00</totfact>
</mgrwt>
<rwgt>
<wgt id='morphing_basis_vector_1'> +1.4683161e-04 </wgt>
<wgt id='morphing_basis_vector_2'> +1.2914251e-04 </wgt>
<wgt id='morphing_basis_vector_3'> +1.6193007e-04 </wgt>
<wgt id='morphing_basis_vector_4'> +7.1817461e-05 </wgt>
<wgt id='morphing_basis_vector_5'> +1.5564082e-04 </wgt>
</rwgt>
</event>
<event>
 4      1 +6.0853000e-08 2.09331300e+03 7.81860800e-03 8.03431300e-02
        2 -1    0    0  501    0 +0.0000000000e+00 +0.0000000000e+00 +1.4980871977e+03 1.4980871977e+03 0.0000000000e+00 0.0000e+00 -1.0000e+00
       -2 -1    0    0    0  501 -0.0000000000e+00 -0.0000000000e+00 -7.3125888716e+02 7.3125888716e+02 0.0000000000e+00 0.0000e+00 1.0000e+00
      -13  1    1    2    0    0 +4.9954846361e+02 -2.2512532333e+02 -5.6631070348e+02 7.8799612409e+02 0.0000000000e+00 0.0000e+00 1.0000e+00
       13  1    1    2    0    0 -4.9954846361e+02 +2.2512532333e+02 +1.3331390140e+03 1.4413499608e+03 0.0000000000e+00 0.0000e+00 -1.0000e+00
<mgrwt>
<rscale>  0 0.20933128E+04</rscale>
<asrwt>0</asrwt>
<pdfrwt beam="1">  1        2 0.23047495E+00 0.20933128E+04</pdfrwt>
<pdfrwt beam="2">  1       -2 0.11250137E+00 0.20933128E+04</pdfrwt>
<totfact> 0.92425036E+00</totfact>
</mgrwt>
<rwgt>
<wgt id='morphing_basis_vector_1'> +1.6318225e-04 </wgt>
<wgt id='morphing_basis_vector_2'> +1.0889989e-04 </wgt>
<wgt id='morphing_basis_vector_3'> +1.7473302e-04 </wgt>
<wgt id='morphing_basis_vector_4'> +1.2227789e-04 </wgt>
<wgt id='morphing_basis_vector_5'> +1.9492078e-04 </wgt>
</rwgt>
</event>
<event>
 4      1 +6.0853000e-08 1.90989700e+03 7.81860800e-03 8.10958400e-02
        2 -1    0    0  501    0 +0.0000000000e+00 +0.0000000000e+00 +9.2813526127e+02 9.2813526127e+02 0.0000000000e+00 0.0000e+00 1.0000e+00
       -2 -1    0    0    0  501 -0.0000000000e+00 -0.0000000000e+00 -9.8253593985e+02 9.8253593985e+02 0.0000000000e+00 0.0000e+00 -1.0000e+00
      -13  1    1    2    0    0 -9.0047193155e+02 -6.4054536303e+01 -3.3873243094e+02 9.6420555013e+02 0.0000000000e+00 0.0000e+00 -1.0000e+00
       13  1    1    2    0    0 +9.0047193155e+02 +6.4054536303e+01 +2.8433175236e+02 9.4646565100e+02 0.0000000000e+00 0.0000e+00 1.0000e+00
<mgrwt>
<rscale>  0 0.19098966E+04</rscale>
<asrwt>0</asrwt>
<pdfrwt beam="1">  1        2 0.14279004E+00 0.19098966E+04</pdfrwt>
<pdfrwt beam="2">  1       -2 0.15115938E+00 0.19098966E+04</pdfrwt>
<totfact> 0.91911813E+00</totfact>
</mgrwt>
<rwgt>
<wgt id='morphing_basis_vector_1'> +1.1505000e-04 </wgt>
<wgt id='morphing_basis_vector_2'> +7.9048384e-05 </wgt>
<wgt id='morphing_basis_vector_3'> +1.2278210e-04 </wgt>
<wgt id='morphing_basis_vector_4'> +8.1896774e-05 </wgt>
<wgt id='morphing_basis_vector_5'> +1.3389893e-04 </wgt>
</rwgt>
</event>
<event>
 4      1 +6.0853000e-08 2.19438500e+03 7.81860800e-03 7.99617600e-02
        2 -1    0    0  501    0 +0.0000000000e+00 +0.0000000000e+00 +1.5406460739e+03 1.5406460739e+03 0.0000000000e+00 0.0000e+00 -1.0000e+00
       -2 -1    0    0    0  501 -0.0000000000e+00 -0.0000000000e+00 -7.8138072348e+02 7.8138072348e+02 0.0000000000e+00 0.0000e+00 1.0000e+00
      -13  1    1    2    0    0 +3.7197798081e+01 +4.1044383952e+02 -6.9636469863e+02 8.0917959384e+02 0.0000000000e+00 0.0000e+00 1.0000e+00
       13  1    1    2    0    0 -3.7197798081e+01 -4.1044383952e+02 +1.4556300490e+03 1.5128472035e+03 0.0000000000e+00 0.0000e+00 -1.0000e+00
<mgrwt>
<rscale>  0 0.21943848E+04</rscale>
<asrwt>0</asrwt>
<pdfrwt beam="1">  1        2 0.23702247E+00 0.21943848E+04</pdfrwt>
<pdfrwt beam="2">  1       -2 0.12021242E+00 0.21943848E+04</pdfrwt>
<totfact> 0.73167671E+00</totfact>
</mgrwt>
<rwgt>
<wgt id='morphing_basis_vector_1'> +1.9636117e-04 </wgt>
<wgt id='morphing_basis_vector_2'> +1.3120605e-04 </wgt>
<wgt id='morphing_basis_vector_3'> +2.1088746e-04 </wgt>
<wgt id='morphing_basis_vector_4'> +1.4821253e-04 </wgt>
<wgt id='morphing_basis_vector_5'> +2.3616696e-04 </wgt>
</rwgt>
</event>
<event>
 4      1 +6.0853000e-08 2.11618300e+03 7.81860800e-03 8.02549100e-02
        2 -1    0    0  501    0 +0.0000000000e+00 +0.0000000000e+00 +1.5298731976e+03 1.5298731976e+03 0.0000000000e+00 0.0000e+00 -1.0000e+00
       -2 -1    0    0    0  501 -0.0000000000e+00 -0.0000000000e+00 -7.3179799034e+02 7.3179799034e+02 0.0000000000e+00 0.0000e+00 1.0000e+00
      -13  1    1    2    0    0 -9.1516049921e+02 +4.8264376177e+02 +1.6223193960e+02 1.0472740531e+03 0.0000000000e+00 0.0000e+00 1.0000e+00
       13  1    1    2    0    0 +9.1516049921e+02 -4.8264376177e+02 +6.3584326769e+02 1.2143971349e+03 0.0000000000e+00 0.0000e+00 -1.0000e+00
<mgrwt>
<rscale>  0 0.21161835E+04</rscale>
<asrwt>0</asrwt>
<pdfrwt beam="1">  1        2 0.23536511E+00 0.21161835E+04</pdfrwt>
<pdfrwt beam="2">  1       -2 0.11258431E+00 0.21161835E+04</pdfrwt>
<totfact> 0.88375088E+00</totfact>
</mgrwt>
<rwgt>
<wgt id='morphing_basis_vector_1'> +1.7307446e-04 </wgt>
<wgt id='morphing_basis_vector_2'> +1.2191777e-04 </wgt>
<wgt id='morphing_basis_vector_3'> +1.8658559e-04 </wgt>
<wgt id='morphing_basis_vector_4'> +1.2223094e-04 </wgt>
<wgt id='morphing_basis_vector_5'> +2.0329714e-04 </wgt>
</rwgt>
</event>
<event>
 4      1 +6.0853000e-08 2.11457100e+03 7.81860800e-03 8.02610900e-02
        2 -1    0    0  501    0 +0.0000000000e+00 +0.0000000000e+00 +1.4037003838e+03 1.4037003838e+03 0.0000000000e+00 0.0000e+00 -1.0000e+00
       -2 -1    0    0    0  501 -0.0000000000e+00 -0.0000000000e+00 -7.9636131829e+02 7.9636131829e+02 0.0000000000e+00 0.0000e+00 1.0000e+00
      -13  1    1    2    0    0 +1.8049966660e+02 -8.9191732966e+02 -2.5638307414e+02 9.4542526585e+02 0.0000000000e+00 0.0000e+00 1.0000e+00
       13  1    1    2    0    0 -1.8049966660e+02 +8.9191732966e+02 +8.6372213964e+02 1.2546364362e+03 0.0000000000e+00 0.0000e+00 -1.0000e+00
<mgrwt>
<rscale>  0 0.21145711E+04</rscale>
<asrwt>0</asrwt>
<pdfrwt beam="1">  1        2 0.21595391E+00 0.21145711E+04</pdfrwt>
<pdfrwt beam="2">  1       -2 0.12251713E+00 0.21145711E+04</pdfrwt>
<totfact> 0.83686232E+00</totfact>
</mgrwt>
<rwgt>
<wgt id='morphing_basis_vector_1'> +1.7046409e-04 </wgt>
<wgt id='morphing_basis_vector_2'> +1.1535892e-04 </wgt>
<wgt id='morphing_basis_vector_3'> +1.8292813e-04 </wgt>
<wgt id='morphing_basis_vector_4'> +1.2605298e-04 </wgt>
<wgt id='morphing_basis_vector_5'> +2.0300127e-04 </wgt>
</rwgt>
</event>
<event>
 4      1 +6.0853000e-08 1.96795500e+03 7.81860800e-03 8.08483900e-02
        2 -1    0    0  501    0 +0.0000000000e+00 +0.0000000000e+00 +1.0264048897e+03 1.0264048897e+03 0.0000000000e+00 0.0000e+00 -1.0000e+00
       -2 -1    0    0    0  501 -0.0000000000e+00 -0.0000000000e+00 -9.4330357458e+02 9.4330357458e+02 0.0000000000e+00 0.0000e+00 1.0000e+00
      -13  1    1    2    0    0 -4.0351994994e+02 -6.0348429065e+02 -6.2326244833e+02 9.5680599839e+02 0.0000000000e+00 0.0000e+00 1.0000e+00
       13  1    1    2    0    0 +4.0351994994e+02 +6.0348429065e+02 +7.0636376343e+02 1.0129024659e+03 0.0000000000e+00 0.0000e+00 -1.0000e+00
<mgrwt>
<rscale>  0 0.19679547E+04</rscale>
<asrwt>0</asrwt>
<pdfrwt beam="1">  1        2 0.15790844E+00 0.19679547E+04</pdfrwt>
<pdfrwt beam="2">  1       -2 0.14512363E+00 0.19679547E+04</pdfrwt>
<totfact> 0.89036381E+00</totfact>
</mgrwt>
<rwgt>
<wgt id='morphing_basis_vector_1'> +1.2824798e-04 </wgt>
<wgt id='morphing_basis_vector_2'> +8.5717364e-05 </wgt>
<wgt id='morphing_basis_vector_3'> +1.3677921e-04 </wgt>
<wgt id='morphing_basis_vector_4'> +9.4748780e-05 </wgt>
<wgt id='morphing_basis_vector_5'> +1.5149902e-04 </wgt>
</rwgt>
</event>
<event>
 4      1 +6.0853000e-08 2.18171400e+03 7.81860800e-03 8.00083900e-02
        2 -1    0    0  501    0 +0.0000000000e+00 +0.0000000000e+00 +2.1753842746e+03 2.1753842746e+03 0.0000000000e+00 0.0000e+00 -1.0000e+00
       -2 -1    0    0    0  501 -0.0000000000e+00 -0.0000000000e+00 -5.4701574204e+02 5.4701574204e+02 0.0000000000e+00 0.0000e+00 1.0000e+00
      -13  1    1    2    0    0 +2.7336714660e+02 -7.2141839840e+02 -1.4817629620e+02 7.8557642349e+02 0.0000000000e+00 0.0000e+00 1.0000e+00
       13  1    1    2    0    0 -2.7336714660e+02 +7.2141839840e+02 +1.7765448287e+03 1.9368235931e+03 0.0000000000e+00 0.0000e+00 -1.0000e+00
<mgrwt>
<rscale>  0 0.21817144E+04</rscale>
<asrwt>0</asrwt>
<pdfrwt beam="1">  1        2 0.33467450E+00 0.21817144E+04</pdfrwt>
<pdfrwt beam="2">  1       -2 0.84156269E-01 0.21817144E+04</pdfrwt>
<totfact> 0.76792351E+00</totfact>
</mgrwt>
<rwgt>
<wgt id='morphing_basis_vector_1'> +1.9215817e-04 </wgt>
<wgt id='morphing_basis_vector_2'> +1.2886657e-04 </wgt>
<wgt id='morphing_basis_vector_3'> +2.0638921e-04 </wgt>
<wgt id='morphing_basis_vector_4'> +1.4432539e-04 </wgt>
<wgt id='morphing_basis_vector_5'> +2.3063474e-04 </wgt>
</rwgt>
</event>
<event>
 4      1 +6.0853000e-08 2.03688400e+03 7.81860800e-03 8.05658900e-02
        2 -1    0    0  501    0 +0.0000000000e+00 +0.0000000000e+00 +1.4499731757e+03 1.4499731757e+03 0.0000000000e+00 0.0000e+00 -1.0000e+00
       -2 -1    0    0    0  501 -0.0000000000e+00 -0.0000000000e+00 -7.1534008720e+02 7.1534008720e+02 0.0000000000e+00 0.0000e+00 1.0000e+00
      -13  1    1    2    0    0 -2.1720194734e+02 -2.2182401117e+02 -6.6381168157e+02 7.3282230210e+02 0.0000000000e+00 0.0000e+00 1.0000e+00
       13  1    1    2    0    0 +2.1720194734e+02 +2.2182401117e+02 +1.3984447701e+03 1.4324909608e+03 0.0000000000e+00 0.0000e+00 -1.0000e+00
<mgrwt>
<rscale>  0 0.20368838E+04</rscale>
<asrwt>0</asrwt>
<pdfrwt beam="1">  1        2 0.22307280E+00 0.20368838E+04</pdfrwt>
<pdfrwt beam="2">  1       -2 0.11005232E+00 0.20368838E+04</pdfrwt>
<totfact> 0.10445848E+01</totfact>
</mgrwt>
<rwgt>
<wgt id='morphing_basis_vector_1'> +1.4655484e-04 </wgt>
<wgt id='morphing_basis_vector_2'> +9.7606993e-05 </wgt>
<wgt id='morphing_basis_vector_3'> +1.5661703e-04 </wgt>
<wgt id='morphing_basis_vector_4'> +1.0946653e-04 </wgt>
<wgt id='morphing_basis_vector_5'> +1.7438276e-04 </wgt>
</rwgt>
</event>
<event>
 4      1 +6.0853000e-08 1.94644700e+03 7.81860800e-03 8.09390100e-02
        2 -1    0    0  501    0 +0.0000000000e+00 +0.0000000000e+00 +8.2966988430e+02 8.2966988430e+02 0.0000000000e+00 0.0000e+00 1.0000e+00
       -2 -1    0    0    0  501 -0.0000000000e+00 -0.0000000000e+00 -1.1416150425e+03 1.1416150425e+03 0.0000000000e+00 0.0000e+00 -1.0000e+00
      -13  1    1    2    0    0 +8.0231895301e+02 +3.1344183112e+02 +3.0280040974e+02 9.1304412380e+02 0.0000000000e+00 0.0000e+00 1.0000e+00
       13  1    1    2    0    0 -8.0231895301e+02 -3.1344183112e+02 -6.1474556796e+02 1.0582408030e+03 0.0000000000e+00 0.0000e+00 -1.0000e+00
<mgrwt>
<rscale>  0 0.19464466E+04</rscale>
<asrwt>0</asrwt>
<pdfrwt beam="1">  1        2 0.12764152E+00 0.19464466E+04</pdfrwt>
<pdfrwt beam="2">  1       -2 0.17563308E+00 0.19464466E+04</pdfrwt>
<totfact> 0.68029693E+00</totfact>
</mgrwt>
<rwgt>
<wgt id='morphing_basis_vector_1'> +1.4315873e-04 </wgt>
<wgt id='morphing_basis_vector_2'> +1.4223476e-04 </wgt>
<wgt id='morphing_basis_vector_3'> +1.6025853e-04 </wgt>
<wgt id='morphing_basis_vector_4'> +5.0362027e-05 </wgt>
<wgt id='morphing_basis_vector_5'> +1.4168845e-04 </wgt>
</rwgt>
</event>
<event>
 4      1 +6.0853000e-08 2.22063500e+03 7.81860800e-03 7.98661800e-02
        2 -1    0    0  501    0 +0.0000000000e+00 +0.0000000000e+00 +3.3363108749e+03 3.3363108749e+03 0.0000000000e+00 0.0000e+00 1.0000e+00
       -2 -1    0    0    0  501 -0.0000000000e+00 -0.0000000000e+00 -3.6951142872e+02 3.6951142872e+02 0.0000000000e+00 0.0000e+00 -1.0000e+00
      -13  1    1    2    0    0 +2.0294655202e+02 -4.7705637827e+02 -1.5512795447e+02 5.4114210083e+02 0.0000000000e+00 0.0000e+00 -1.0000e+00
       13  1    1    2    0    0 -2.0294655202e+02 +4.7705637827e+02 +3.1219274006e+03 3.1646802028e+03 0.0000000000e+00 0.0000e+00 1.0000e+00
<mgrwt>
<rscale>  0 0.22206350E+04</rscale>
<asrwt>0</asrwt>
<pdfrwt beam="1">  1        2 0.51327857E+00 0.22206350E+04</pdfrwt>
<pdfrwt beam="2">  1       -2 0.56847915E-01 0.22206350E+04</pdfrwt>
<totfact> 0.33391108E+00</totfact>
</mgrwt>
<rwgt>
<wgt id='morphing_basis_vector_1'> +2.0578349e-04 </wgt>
<wgt id='morphing_basis_vector_2'> +1.3761005e-04 </wgt>
<wgt id='morphing_basis_vector_3'> +2.2117569e-04 </wgt>
<wgt id='morphing_basis_vector_4'> +1.5551167e-04 </wgt>
<wgt id='morphing_basis_vector_5'> +2.4786309e-04 </wgt>
</rwgt>
</event>
<event>
 4      1 +6.0853000e-08 1.86213000e+03 7.81860800e-03 8.13064100e-02
        2 -1    0    0  501    0 +0.0000000000e+00 +0.0000000000e+00 +1.5629258379e+03 1.5629258379e+03 0.0000000000e+00 0.0000e+00 -1.0000e+00
       -2 -1    0    0    0  501 -0.0000000000e+00 -0.0000000000e+00 -5.5465349556e+02 5.5465349556e+02 0.0000000000e+00 0.0000e+00 1.0000e+00
      -13  1    1    2    0    0 -6.7611508253e+02 +4.1916309673e+02 +1.0542932589e+03 1.3207435717e+03 0.0000000000e+00 0.0000e+00 -1.0000e+00
       13  1    1    2    0    0 +6.7611508253e+02 -4.1916309673e+02 -4.6020916515e+01 7.9683576178e+02 0.0000000000e+00 0.0000e+00 1.0000e+00
<mgrwt>
<rscale>  0 0.18621303E+04</rscale>
<asrwt>0</asrwt>
<pdfrwt beam="1">  1        2 0.24045013E+00 0.18621303E+04</pdfrwt>
<pdfrwt beam="2">  1       -2 0.85331308E-01 0.18621303E+04</pdfrwt>
<totfact> 0.16854188E+01</totfact>
</mgrwt>
<rwgt>
<wgt id='morphing_basis_vector_1'> +1.2310558e-04 </wgt>
<wgt id='morphing_basis_vector_2'> +1.2754924e-04 </wgt>
<wgt id='morphing_basis_vector_3'> +1.3792459e-04 </wgt>
<wgt id='morphing_basis_vector_4'> +3.6704949e-05 </wgt>
<wgt id='morphing_basis_vector_5'> +1.1782402e-04 </wgt>
</rwgt>
</event>
<event>
 4      1 +6.0853000e-08 1.87027600e+03 7.81860800e-03 8.12700400e-02
        2 -1    0    0  501    0 +0.0000000000e+00 +0.0000000000e+00 +1.7329287106e+03 1.7329287106e+03 0.0000000000e+00 0.0000e+00 -1.0000e+00
       -2 -1    0    0    0  501 -0.0000000000e+00 -0.0000000000e+00 -5.0462715169e+02 5.0462715169e+02 0.0000000000e+00 0.0000e+00 1.0000e+00
      -13  1    1    2    0    0 +6.3114236863e+02 -6.2715356813e+02 +9.5845107859e+02 1.3077808523e+03 0.0000000000e+00 0.0000e+00 1.0000e+00
       13  1    1    2    0    0 -6.3114236863e+02 +6.2715356813e+02 +2.6985048030e+02 9.2977501000e+02 0.0000000000e+00 0.0000e+00 -1.0000e+00
<mgrwt>
<rscale>  0 0.18702758E+04</rscale>
<asrwt>0</asrwt>
<pdfrwt beam="1">  1        2 0.26660441E+00 0.18702758E+04</pdfrwt>
<pdfrwt beam="2">  1       -2 0.77634947E-01 0.18702758E+04</pdfrwt>
<totfact> 0.16795359E+01</totfact>
</mgrwt>
<rwgt>
<wgt id='morphing_basis_vector_1'> +1.1583799e-04 </wgt>
<wgt id='morphing_basis_vector_2'> +1.0193012e-04 </wgt>
<wgt id='morphing_basis_vector_3'> +1.2697344e-04 </wgt>
<wgt id='morphing_basis_vector_4'> +5.5819784e-05 </wgt>
<wgt id='morphing_basis_vector_5'> +1.2138573e-04 </wgt>
</rwgt>
</event>
<event>
 4      1 +6.0853000e-08 2.17612700e+03 7.81860800e-03 8.00290600e-02
        2 -1    0    0  501    0 +0.0000000000e+00 +0.0000000000e+00 +1.8646636257e+03 1.8646636257e+03 0.0000000000e+00 0.0000e+00 1.0000e+00
       -2 -1    0    0    0  501 -0.0000000000e+00 -0.0000000000e+00 -6.3490383263e+02 6.3490383263e+02 0.0000000000e+00 0.0000e+00 -1.0000e+00
      -13  1    1    2    0    0 -6.5593515038e+02 -3.8768256944e+02 -2.7731415135e+02 8.1083403647e+02 0.0000000000e+00 0.0000e+00 -1.0000e+00
       13  1    1    2    0    0 +6.5593515038e+02 +3.8768256944e+02 +1.5070739444e+03 1.6887334219e+03 0.0000000000e+00 0.0000e+00 1.0000e+00
<mgrwt>
<rscale>  0 0.21761269E+04</rscale>
<asrwt>0</asrwt>
<pdfrwt beam="1">  1        2 0.28687133E+00 0.21761269E+04</pdfrwt>
<pdfrwt beam="2">  1       -2 0.97677513E-01 0.21761269E+04</pdfrwt>
<totfact> 0.81156001E+00</totfact>
</mgrwt>
<rwgt>
<wgt id='morphing_basis_vector_1'> +1.9021827e-04 </wgt>
<wgt id='morphing_basis_vector_2'> +1.2752471e-04 </wgt>
<wgt id='morphing_basis_vector_3'> +2.0426763e-04 </wgt>
<wgt id='morphing_basis_vector_4'> +1.4285318e-04 </wgt>
<wgt id='morphing_basis_vector_5'> +2.2824346e-04 </wgt>
</rwgt>
</event>
<event>
 4      1 +6.0853000e-08 1.95031900e+03 7.81860800e-03 8.09226100e-02
        2 -1    0    0  501    0 +0.0000000000e+00 +0.0000000000e+00 +2.9133445994e+03 2.9133445994e+03 0.0000000000e+00 0.0000e+00 1.0000e+00
       -2 -1    0    0    0  501 -0.0000000000e+00 -0.0000000000e+00 -3.2640686914e+02 3.2640686914e+02 0.0000000000e+00 0.0000e+00 -1.0000e+00
      -13  1    1    2    0    0 +4.7219904137e+01 +9.2067744887e+02 +7.6539626308e+02 1.1982103838e+03 0.0000000000e+00 0.0000e+00 -1.0000e+00
       13  1    1    2    0    0 -4.7219904137e+01 -9.2067744887e+02 +1.8215414672e+03 2.0415410848e+03 0.0000000000e+00 0.0000e+00 1.0000e+00
<mgrwt>
<rscale>  0 0.19503186E+04</rscale>
<asrwt>0</asrwt>
<pdfrwt beam="1">  1        2 0.44820684E+00 0.19503186E+04</pdfrwt>
<pdfrwt beam="2">  1       -2 0.50216443E-01 0.19503186E+04</pdfrwt>
<totfact> 0.83993170E+00</totfact>
</mgrwt>
<rwgt>
<wgt id='morphing_basis_vector_1'> +1.2487772e-04 </wgt>
<wgt id='morphing_basis_vector_2'> +8.5887491e-05 </wgt>
<wgt id='morphing_basis_vector_3'> +1.3349950e-04 </wgt>
<wgt id='morphing_basis_vector_4'> +8.9207312e-05 </wgt>
<wgt id='morphing_basis_vector_5'> +1.4586340e-04 </wgt>
</rwgt>
</event>
<event>
 4      1 +6.0853000e-08 2.17205800e+03 7.81860800e-03 8.00441500e-02
        2 -1    0    0  501    0 +0.0000000000e+00 +0.0000000000e+00 +6.1159722209e+02 6.1159722209e+02 0.0000000000e+00 0.0000e+00 -1.0000e+00
       -2 -1    0    0    0  501 -0.0000000000e+00 -0.0000000000e+00 -1.9284900749e+03 1.9284900749e+03 0.0000000000e+00 0.0000e+00 1.0000e+00
      -13  1    1    2    0    0 -8.6038440938e+02 +1.4992225014e+02 -1.4133647508e+03 1.6614264750e+03 0.0000000000e+00 0.0000e+00 1.0000e+00
       13  1    1    2    0    0 +8.6038440938e+02 -1.4992225014e+02 +9.6471898008e+01 8.7866082199e+02 0.0000000000e+00 0.0000e+00 -1.0000e+00
<mgrwt>
<rscale>  0 0.21720582E+04</rscale>
<asrwt>0</asrwt>
<pdfrwt beam="1">  1        2 0.94091879E-01 0.21720582E+04</pdfrwt>
<pdfrwt beam="2">  1       -2 0.29669079E+00 0.21720582E+04</pdfrwt>
<totfact> 0.13566489E+00</totfact>
</mgrwt>
<rwgt>
<wgt id='morphing_basis_vector_1'> +1.8910335e-04 </wgt>
<wgt id='morphing_basis_vector_2'> +1.2740677e-04 </wgt>
<wgt id='morphing_basis_vector_3'> +2.0316139e-04 </wgt>
<wgt id='morphing_basis_vector_4'> +1.4120725e-04 </wgt>
<wgt id='morphing_basis_vector_5'> +2.2646747e-04 </wgt>
</rwgt>
</event>
<event>
 4      1 +6.0853000e-08 1.86834600e+03 7.81860800e-03 8.12786400e-02
        2 -1    0    0  501    0 +0.0000000000e+00 +0.0000000000e+00 +2.7642787901e+03 2.7642787901e+03 0.0000000000e+00 0.0000e+00 -1.0000e+00
       -2 -1    0    0    0  501 -0.0000000000e+00 -0.0000000000e+00 -3.1569864668e+02 3.1569864668e+02 0.0000000000e+00 0.0000e+00 1.0000e+00
      -13  1    1    2    0    0 +6.2287728441e+02 -3.0296935549e+02 +1.9096206948e+02 7.1849360037e+02 0.0000000000e+00 0.0000e+00 1.0000e+00
       13  1    1    2    0    0 -6.2287728441e+02 +3.0296935549e+02 +2.2576180739e+03 2.3614838364e+03 0.0000000000e+00 0.0000e+00 -1.0000e+00
<mgrwt>
<rscale>  0 0.18683459E+04</rscale>
<asrwt>0</asrwt>
<pdfrwt beam="1">  1        2 0.42527364E+00 0.18683459E+04</pdfrwt>
<pdfrwt beam="2">  1       -2 0.48569024E-01 0.18683459E+04</pdfrwt>
<totfact> 0.11212901E+01</totfact>
</mgrwt>
<rwgt>
<wgt id='morphing_basis_vector_1'> +1.0466906e-04 </wgt>
<wgt id='morphing_basis_vector_2'> +6.9786643e-05 </wgt>
<wgt id='morphing_basis_vector_3'> +1.1116755e-04 </wgt>
<wgt id='morphing_basis_vector_4'> +7.6625990e-05 </wgt>
<wgt id='morphing_basis_vector_5'> +1.2251618e-04 </wgt>
</rwgt>
</event>
<event>
 4      1 +6.0853000e-08 2.17202700e+03 7.81860800e-03 8.00442700e-02
        2 -1    0    0  501    0 +0.0000000000e+00 +0.0000000000e+00 +1.0438459075e+03 1.0438459075e+03 0.0000000000e+00 0.0000e+00 1.0000e+00
       -2 -1    0    0    0  501 -0.0000000000e+00 -0.0000000000e+00 -1.1298848162e+03 1.1298848162e+03 0.0000000000e+00 0.0000e+00 -1.0000e+00
      -13  1    1    2    0    0 -8.3898029575e+02 -6.2799169969e+02 -3.2813607416e+02 1.0981506248e+03 0.0000000000e+00 0.0000e+00 -1.0000e+00
       13  1    1    2    0    0 +8.3898029575e+02 +6.2799169969e+02 +2.4209716545e+02 1.0755800989e+03 0.0000000000e+00 0.0000e+00 1.0000e+00
<mgrwt>
<rscale>  0 0.21720273E+04</rscale>
<asrwt>0</asrwt>
<pdfrwt beam="1">  1        2 0.16059168E+00 0.21720273E+04</pdfrwt>
<pdfrwt beam="2">  1       -2 0.17382843E+00 0.21720273E+04</pdfrwt>
<totfact> 0.50173664E+00</totfact>
</mgrwt>
<rwgt>
<wgt id='morphing_basis_vector_1'> +1.9112261e-04 </wgt>
<wgt id='morphing_basis_vector_2'> +1.3340096e-04 </wgt>
<wgt id='morphing_basis_vector_3'> +2.0616483e-04 </wgt>
<wgt id='morphing_basis_vector_4'> +1.3710968e-04 </wgt>
<wgt id='morphing_basis_vector_5'> +2.2612798e-04 </wgt>
</rwgt>
</event>
<event>
 4      1 +6.0853000e-08 2.11957200e+03 7.81860800e-03 8.02419400e-02
        2 -1    0    0  501    0 +0.0000000000e+00 +0.0000000000e+00 +1.1007431383e+03 1.1007431383e+03 0.0000000000e+00 0.0000e+00 -1.0000e+00
       -2 -1    0    0    0  501 -0.0000000000e+00 -0.0000000000e+00 -1.0203526230e+03 1.0203526230e+03 0.0000000000e+00 0.0000e+00 1.0000e+00
      -13  1    1    2    0    0 +7.3613645640e+02 -2.5926843681e+02 -6.7727849130e+02 1.0333552920e+03 0.0000000000e+00 0.0000e+00 1.0000e+00
       13  1    1    2    0    0 -7.3613645640e+02 +2.5926843681e+02 +7.5766900667e+02 1.0877404692e+03 0.0000000000e+00 0.0000e+00 -1.0000e+00
<mgrwt>
<rscale>  0 0.21195718E+04</rscale>
<asrwt>0</asrwt>
<pdfrwt beam="1">  1        2 0.16934510E+00 0.21195718E+04</pdfrwt>
<pdfrwt beam="2">  1       -2 0.15697733E+00 0.21195718E+04</pdfrwt>
<totfact> 0.63230734E+00</totfact>
</mgrwt>
<rwgt>
<wgt id='morphing_basis_vector_1'> +1.7158325e-04 </wgt>
<wgt id='morphing_basis_vector_2'> +1.1505612e-04 </wgt>
<wgt id='morphing_basis_vector_3'> +1.8396871e-04 </wgt>
<wgt id='morphing_basis_vector_4'> +1.2821355e-04 </wgt>
<wgt id='morphing_basis_vector_5'> +2.0503816e-04 </wgt>
</rwgt>
</event>
<event>
 4      1 +6.0853000e-08 1.87832400e+03 7.81860800e-03 8.12342900e-02
        2 -1    0    0  501    0 +0.0000000000e+00 +0.0000000000e+00 +1.0619996893e+03 1.0619996893e+03 0.0000000000e+00 0.0000e+00 1.0000e+00
       -2 -1    0    0    0  501 -0.0000000000e+00 -0.0000000000e+00 -8.3053208949e+02 8.3053208949e+02 0.0000000000e+00 0.0000e+00 -1.0000e+00
      -13  1    1    2    0    0 +4.2062896261e+02 -8.3438400541e+02 +2.1078417511e+02 9.5789110088e+02 0.0000000000e+00 0.0000e+00 1.0000e+00
       13  1    1    2    0    0 -4.2062896261e+02 +8.3438400541e+02 +2.0683424651e+01 9.3464067787e+02 0.0000000000e+00 0.0000e+00 -1.0000e+00
<mgrwt>
<rscale>  0 0.18783235E+04</rscale>
<asrwt>0</asrwt>
<pdfrwt beam="1">  1        2 0.16338457E+00 0.18783235E+04</pdfrwt>
<pdfrwt beam="2">  1       -2 0.12777417E+00 0.18783235E+04</pdfrwt>
<totfact> 0.12089643E+01</totfact>
</mgrwt>
<rwgt>
<wgt id='morphing_basis_vector_1'> +1.1226428e-04 </wgt>
<wgt id='morphing_basis_vector_2'> +8.7263210e-05 </wgt>
<wgt id='morphing_basis_vector_3'> +1.2126980e-04 </wgt>
<wgt id='morphing_basis_vector_4'> +6.7698565e-05 </wgt>
<wgt id='morphing_basis_vector_5'> +1.2438671e-04 </wgt>
</rwgt>
</event>
<event>
 4      1 +6.0853000e-08 2.02886300e+03 7.81860800e-03 8.05981600e-02
        2 -1    0    0  501    0 +0.0000000000e+00 +0.0000000000e+00 +3.5743673696e+03 3.5743673696e+03 0.0000000000e+00 0.0000e+00 -1.0000e+00
       -2 -1    0    0    0  501 -0.0000000000e+00 -0.0000000000e+00 -2.8790301317e+02 2.8790301317e+02 0.0000000000e+00 0.0000e+00 1.0000e+00
      -13  1    1    2    0    0 +2.1166553778e+02 -7.8140595234e+02 +4.7954520584e+02 9.4093632445e+02 0.0000000000e+00 0.0000e+00 1.0000e+00
       13  1    1    2    0    0 -2.1166553778e+02 +7.8140595234e+02 +2.8069191506e+03 2.9213340583e+03 0.0000000000e+00 0.0000e+00 -1.0000e+00
<mgrwt>
<rscale>  0 0.20288629E+04</rscale>
<asrwt>0</asrwt>
<pdfrwt beam="1">  1        2 0.54990264E+00 0.20288629E+04</pdfrwt>
<pdfrwt beam="2">  1       -2 0.44292774E-01 0.20288629E+04</pdfrwt>
<totfact> 0.37437297E+00</totfact>
</mgrwt>
<rwgt>
<wgt id='morphing_basis_vector_1'> +1.4465880e-04 </wgt>
<wgt id='morphing_basis_vector_2'> +9.7139682e-05 </wgt>
<wgt id='morphing_basis_vector_3'> +1.5468632e-04 </wgt>
<wgt id='morphing_basis_vector_4'> +1.0701384e-04 </wgt>
<wgt id='morphing_basis_vector_5'> +1.7154347e-04 </wgt>
</rwgt>
</event>
<event>
 4      1 +6.0853000e-08 1.91301300e+03 7.81860800e-03 8.10823300e-02
        2 -1    0    0  501    0 +0.0000000000e+00 +0.0000000000e+00 +9.6151127038e+02 9.6151127038e+02 0.0000000000e+00 0.0000e+00 -1.0000e+00
       -2 -1    0    0    0  501 -0.0000000000e+00 -0.0000000000e+00 -9.5152795395e+02 9.5152795395e+02 0.0000000000e+00 0.0000e+00 1.0000e+00
      -13  1    1    2    0    0 +3.8139415059e+02 +8.7374029810e+02 -7.2606081127e+01 9.5611466344e+02 0.0000000000e+00 0.0000e+00 1.0000e+00
       13  1    1    2    0    0 -3.8139415059e+02 -8.7374029810e+02 +8.2589397553e+01 9.5692456088e+02 0.0000000000e+00 0.0000e+00 -1.0000e+00
<mgrwt>
<rscale>  0 0.19130132E+04</rscale>
<asrwt>0</asrwt>
<pdfrwt beam="1">  1        2 0.14792481E+00 0.19130132E+04</pdfrwt>
<pdfrwt beam="2">  1       -2 0.14638892E+00 0.19130132E+04</pdfrwt>
<totfact> 0.95837594E+00</totfact>
</mgrwt>
<rwgt>
<wgt id='morphing_basis_vector_1'> +1.1772984e-04 </wgt>
<wgt id='morphing_basis_vector_2'> +8.5320180e-05 </wgt>
<wgt id='morphing_basis_vector_3'> +1.2637929e-04 </wgt>
<wgt id='morphing_basis_vector_4'> +7.8606092e-05 </wgt>
<wgt id='morphing_basis_vector_5'> +1.3449373e-04 </wgt>
</rwgt>
</event>
<event>
 4      1 +6.0853000e-08 2.15306200e+03 7.81860800e-03 8.01150600e-02
        2 -1    0    0  501    0 +0.0000000000e+00 +0.0000000000e+00 +1.2512200613e+03 1.2512200613e+03 0.0000000000e+00 0.0000e+00 1.0000e+00
       -2 -1    0    0    0  501 -0.0000000000e+00 -0.0000000000e+00 -9.2623150723e+02 9.2623150723e+02 0.0000000000e+00 0.0000e+00 -1.0000e+00
      -13  1    1    2    0    0 -3.4989602376e+01 +5.1884900574e+02 -7.9078109052e+02 9.4644772500e+02 0.0000000000e+00 0.0000e+00 -1.0000e+00
       13  1    1    2    0    0 +3.4989602376e+01 -5.1884900574e+02 +1.1157696446e+03 1.2310038435e+03 0.0000000000e+00 0.0000e+00 1.0000e+00
<mgrwt>
<rscale>  0 0.21530624E+04</rscale>
<asrwt>0</asrwt>
<pdfrwt beam="1">  1        2 0.19249539E+00 0.21530624E+04</pdfrwt>
<pdfrwt beam="2">  1       -2 0.14249716E+00 0.21530624E+04</pdfrwt>
<totfact> 0.67781117E+00</totfact>
</mgrwt>
<rwgt>
<wgt id='morphing_basis_vector_1'> +1.8224245e-04 </wgt>
<wgt id='morphing_basis_vector_2'> +1.2172943e-04 </wgt>
<wgt id='morphing_basis_vector_3'> +1.9549899e-04 </wgt>
<wgt id='morphing_basis_vector_4'> +1.3714391e-04 </wgt>
<wgt id='morphing_basis_vector_5'> +2.1858764e-04 </wgt>
</rwgt>
</event>
<event>
 4      1 +6.0853000e-08 2.21320500e+03 7.81860800e-03 7.98931000e-02
        2 -1    0    0  501    0 +0.0000000000e+00 +0.0000000000e+00 +8.8371201866e+02 8.8371201866e+02 0.0000000000e+00 0.0000e+00 -1.0000e+00
       -2 -1    0    0    0  501 -0.0000000000e+00 -0.0000000000e+00 -1.3857105947e+03 1.3857105947e+03 0.0000000000e+00 0.0000e+00 1.0000e+00
      -13  1    1    2    0    0 -9.7071342224e+02 -4.0655914407e+02 -6.0173172938e+02 1.2122936772e+03 0.0000000000e+00 0.0000e+00 1.0000e+00
       13  1    1    2    0    0 +9.7071342224e+02 +4.0655914407e+02 +9.9733153324e+01 1.0571289361e+03 0.0000000000e+00 0.0000e+00 -1.0000e+00
<mgrwt>
<rscale>  0 0.22132050E+04</rscale>
<asrwt>0</asrwt>
<pdfrwt beam="1">  1        2 0.13595570E+00 0.22132050E+04</pdfrwt>
<pdfrwt beam="2">  1       -2 0.21318625E+00 0.22132050E+04</pdfrwt>
<totfact> 0.32274135E+00</totfact>
</mgrwt>
<rwgt>
<wgt id='morphing_basis_vector_1'> +2.0528737e-04 </wgt>
<wgt id='morphing_basis_vector_2'> +1.4229058e-04 </wgt>
<wgt id='morphing_basis_vector_3'> +2.2151443e-04 </wgt>
<wgt id='morphing_basis_vector_4'> +1.4896600e-04 </wgt>
<wgt id='morphing_basis_vector_5'> +2.4415344e-04 </wgt>
</rwgt>
</event>
<event>
 4      1 +6.0853000e-08 1.97732900e+03 7.81860800e-03 8.08092700e-02
        2 -1    0    0  501    0 +0.0000000000e+00 +0.0000000000e+00 +1.4345160352e+03 1.4345160352e+03 0.0000000000e+00 0.0000e+00 -1.0000e+00
       -2 -1    0    0    0  501 -0.0000000000e+00 -0.0000000000e+00 -6.8138476132e+02 6.8138476132e+02 0.0000000000e+00 0.0000e+00 1.0000e+00
      -13  1    1    2    0    0 +4.4950765992e+02 -3.6271003512e+02 -4.8206411277e+02 7.5233072164e+02 0.0000000000e+00 0.0000e+00 1.0000e+00
       13  1    1    2    0    0 -4.4950765992e+02 +3.6271003512e+02 +1.2351953867e+03 1.3635700749e+03 0.0000000000e+00 0.0000e+00 -1.0000e+00
<mgrwt>
<rscale>  0 0.19773289E+04</rscale>
<asrwt>0</asrwt>
<pdfrwt beam="1">  1        2 0.22069477E+00 0.19773289E+04</pdfrwt>
<pdfrwt beam="2">  1       -2 0.10482843E+00 0.19773289E+04</pdfrwt>
<totfact> 0.12087807E+01</totfact>
</mgrwt>
<rwgt>
<wgt id='morphing_basis_vector_1'> +1.3051635e-04 </wgt>
<wgt id='morphing_basis_vector_2'> +8.6929442e-05 </wgt>
<wgt id='morphing_basis_vector_3'> +1.3919465e-04 </wgt>
<wgt id='morphing_basis_vector_4'> +9.6884227e-05 </wgt>
<wgt id='morphing_basis_vector_5'> +1.5448925e-04 </wgt>
</rwgt>
</event>
<event>
 4      1 +6.0853000e-08 1.90182900e+03 7.81860800e-03 8.11309500e-02
        2 -1    0    0  501    0 +0.0000000000e+00 +0.0000000000e+00 +1.2776048094e+03 1.2776048094e+03 0.0000000000e+00 0.0000e+00 1.0000e+00
       -2 -1    0    0    0  501 -0.0000000000e+00 -0.0000000000e+00 -7.0776044104e+02 7.0776044104e+02 0.0000000000e+00 0.0000e+00 -1.0000e+00
      -13  1    1    2    0    0 +4.2235015514e+02 -4.5364161262e+02 -4.6791139533e+02 7.7660249815e+02 0.0000000000e+00 0.0000e+00 -1.0000e+00
       13  1    1    2    0    0 -4.2235015514e+02 +4.5364161262e+02 +1.0377557637e+03 1.2087627523e+03 0.0000000000e+00 0.0000e+00 1.0000e+00
<mgrwt>
<rscale>  0 0.19018287E+04</rscale>
<asrwt>0</asrwt>
<pdfrwt beam="1">  1        2 0.19655459E+00 0.19018287E+04</pdfrwt>
<pdfrwt beam="2">  1       -2 0.10888622E+00 0.19018287E+04</pdfrwt>
<totfact> 0.13597394E+01</totfact>
</mgrwt>
<rwgt>
<wgt id='morphing_basis_vector_1'> +1.1210570e-04 </wgt>
<wgt id='morphing_basis_vector_2'> +7.4607588e-05 </wgt>
<wgt id='morphing_basis_vector_3'> +1.1920859e-04 </wgt>
<wgt id='morphing_basis_vector_4'> +8.2573670e-05 </wgt>
<wgt id='morphing_basis_vector_5'> +1.3176420e-04 </wgt>
</rwgt>
</event>
<event>
 4      1 +6.0853000e-08 1.87118000e+03 7.81860800e-03 8.12660100e-02
        2 -1    0    0  501    0 +0.0000000000e+00 +0.0000000000e+00 +2.5703775126e+03 2.5703775126e+03 0.0000000000e+00 0.0000e+00 -1.0000e+00
       -2 -1    0    0    0  501 -0.0000000000e+00 -0.0000000000e+00 -3.4054495821e+02 3.4054495821e+02 0.0000000000e+00 0.0000e+00 1.0000e+00
      -13  1    1    2    0    0 -7.5929068931e+02 +1.2298883162e+02 +2.8634533214e+02 8.2075712170e+02 0.0000000000e+00 0.0000e+00 1.0000e+00
       13  1    1    2    0    0 +7.5929068931e+02 -1.2298883162e+02 +1.9434872222e+03 2.0901653491e+03 0.0000000000e+00 0.0000e+00 -1.0000e+00
<mgrwt>
<rscale>  0 0.18711805E+04</rscale>
<asrwt>0</asrwt>
<pdfrwt beam="1">  1        2 0.39544268E+00 0.18711805E+04</pdfrwt>
<pdfrwt beam="2">  1       -2 0.52391534E-01 0.18711805E+04</pdfrwt>
<totfact> 0.12686253E+01</totfact>
</mgrwt>
<rwgt>
<wgt id='morphing_basis_vector_1'> +1.0544488e-04 </wgt>
<wgt id='morphing_basis_vector_2'> +7.0663084e-05 </wgt>
<wgt id='morphing_basis_vector_3'> +1.1206222e-04 </wgt>
<wgt id='morphing_basis_vector_4'> +7.6799893e-05 </wgt>
<wgt id='morphing_basis_vector_5'> +1.2325506e-04 </wgt>
</rwgt>
</event>
<event>
 4      1 +6.0853000e-08 1.95708200e+03 7.81860800e-03 8.08940500e-02
        2 -1    0    0  501    0 +0.0000000000e+00 +0.0000000000e+00 +1.3925169529e+03 1.3925169529e+03 0.0000000000e+00 0.0000e+00 1.0000e+00
       -2 -1    0    0    0  501 -0.0000000000e+00 -0.0000000000e+00 -6.8763465492e+02 6.8763465492e+02 0.0000000000e+00 0.0000e+00 -1.0000e+00
      -13  1    1    2    0    0 -2.9309131043e+02 -9.3336557131e+02 +3.7546205827e+02 1.0478766927e+03 0.0000000000e+00 0.0000e+00 -1.0000e+00
       13  1    1    2    0    0 +2.9309131043e+02 +9.3336557131e+02 +3.2942023968e+02 1.0322749151e+03 0.0000000000e+00 0.0000e+00 1.0000e+00
<mgrwt>
<rscale>  0 0.19570824E+04</rscale>
<asrwt>0</asrwt>
<pdfrwt beam="1">  1        2 0.21423338E+00 0.19570824E+04</pdfrwt>
<pdfrwt beam="2">  1       -2 0.10578995E+00 0.19570824E+04</pdfrwt>
<totfact> 0.12503356E+01</totfact>
</mgrwt>
<rwgt>
<wgt id='morphing_basis_vector_1'> +1.3026430e-04 </wgt>
<wgt id='morphing_basis_vector_2'> +9.7980378e-05 </wgt>
<wgt id='morphing_basis_vector_3'> +1.4068803e-04 </wgt>
<wgt id='morphing_basis_vector_4'> +8.3176757e-05 </wgt>
<wgt id='morphing_basis_vector_5'> +1.4736649e-04 </wgt>
</rwgt>
</event>
<event>
 4      1 +6.0853000e-08 1.94628400e+03 7.81860800e-03 8.09397000e-02
        2 -1    0    0  501    0 +0.0000000000e+00 +0.0000000000e+00 +4.5652301420e+03 4.5652301420e+03 0.0000000000e+00 0.0000e+00 1.0000e+00
       -2 -1    0    0    0  501 -0.0000000000e+00 -0.0000000000e+00 -2.0743861776e+02 2.0743861776e+02 0.0000000000e+00 0.0000e+00 -1.0000e+00
      -13  1    1    2    0    0 -8.6728353962e+02 -1.2541175988e+02 +1.1411324336e+03 1.4387814562e+03 0.0000000000e+00 0.0000e+00 -1.0000e+00
       13  1    1    2    0    0 +8.6728353962e+02 +1.2541175988e+02 +3.2166590907e+03 3.3338873036e+03 0.0000000000e+00 0.0000e+00 1.0000e+00
<mgrwt>
<rscale>  0 0.19462837E+04</rscale>
<asrwt>0</asrwt>
<pdfrwt beam="1">  1        2 0.70234302E+00 0.19462837E+04</pdfrwt>
<pdfrwt beam="2">  1       -2 0.31913637E-01 0.19462837E+04</pdfrwt>
<totfact> 0.93751328E-01</totfact>
</mgrwt>
<rwgt>
<wgt id='morphing_basis_vector_1'> +1.2337825e-04 </wgt>
<wgt id='morphing_basis_vector_2'> +8.3731102e-05 </wgt>
<wgt id='morphing_basis_vector_3'> +1.3168982e-04 </wgt>
<wgt id='morphing_basis_vector_4'> +8.9428942e-05 </wgt>
<wgt id='morphing_basis_vector_5'> +1.4471105e-04 </wgt>
</rwgt>
</event>
<event>
 4      1 +6.0853000e-08 2.14250600e+03 7.81860800e-03 8.01547900e-02
        2 -1    0    0  501    0 +0.0000000000e+00 +0.0000000000e+00 +1.3319808395e+03 1.3319808395e+03 0.0000000000e+00 0.0000e+00 -1.0000e+00
       -2 -1    0    0    0  501 -0.0000000000e+00 -0.0000000000e+00 -8.6156111816e+02 8.6156111816e+02 0.0000000000e+00 0.0000e+00 1.0000e+00
      -13  1    1    2    0    0 -2.0994008349e+02 -7.3951593450e+02 -5.2863467395e+02 9.3295941741e+02 0.0000000000e+00 0.0000e+00 1.0000e+00
       13  1    1    2    0    0 +2.0994008349e+02 +7.3951593450e+02 +9.9905439529e+02 1.2605825403e+03 0.0000000000e+00 0.0000e+00 -1.0000e+00
<mgrwt>
<rscale>  0 0.21425059E+04</rscale>
<asrwt>0</asrwt>
<pdfrwt beam="1">  1        2 0.20492013E+00 0.21425059E+04</pdfrwt>
<pdfrwt beam="2">  1       -2 0.13254786E+00 0.21425059E+04</pdfrwt>
<totfact> 0.74420435E+00</totfact>
</mgrwt>
<rwgt>
<wgt id='morphing_basis_vector_1'> +1.7895590e-04 </wgt>
<wgt id='morphing_basis_vector_2'> +1.1996733e-04 </wgt>
<wgt id='morphing_basis_vector_3'> +1.9199409e-04 </wgt>
<wgt id='morphing_basis_vector_4'> +1.3402776e-04 </wgt>
<wgt id='morphing_basis_vector_5'> +2.1422667e-04 </wgt>
</rwgt>
</event>
<event>
 4      1 +6.0853000e-08 2.00077400e+03 7.81860800e-03 8.07124000e-02
        2 -1    0    0  501    0 +0.0000000000e+00 +0.0000000000e+00 +1.8454844744e+03 1.8454844744e+03 0.0000000000e+00 0.0000e+00 -1.0000e+00
       -2 -1    0    0    0  501 -0.0000000000e+00 -0.0000000000e+00 -5.4228282811e+02 5.4228282811e+02 0.0000000000e+00 0.0000e+00 1.0000e+00
      -13  1    1    2    0    0 +9.0072517339e+02 -3.5628547710e+02 +3.5317536052e+02 1.0310082514e+03 0.0000000000e+00 0.0000e+00 1.0000e+00
       13  1    1    2    0    0 -9.0072517339e+02 +3.5628547710e+02 +9.5002628581e+02 1.3567590512e+03 0.0000000000e+00 0.0000e+00 -1.0000e+00
<mgrwt>
<rscale>  0 0.20007744E+04</rscale>
<asrwt>0</asrwt>
<pdfrwt beam="1">  1        2 0.28392069E+00 0.20007744E+04</pdfrwt>
<pdfrwt beam="2">  1       -2 0.83428128E-01 0.20007744E+04</pdfrwt>
<totfact> 0.12209863E+01</totfact>
</mgrwt>
<rwgt>
<wgt id='morphing_basis_vector_1'> +1.3854637e-04 </wgt>
<wgt id='morphing_basis_vector_2'> +9.6597654e-05 </wgt>
<wgt id='morphing_basis_vector_3'> +1.4861169e-04 </wgt>
<wgt id='morphing_basis_vector_4'> +9.7954075e-05 </wgt>
<wgt id='morphing_basis_vector_5'> +1.6181142e-04 </wgt>
</rwgt>
</event>
<event>
 4      1 +6.0853000e-08 2.18588600e+03 7.81860800e-03 7.99930000e-02
        2 -1    0    0  501    0 +0.0000000000e+00 +0.0000000000e+00 +3.2363650962e+03 3.2363650962e+03 0.0000000000e+00 0.0000e+00 -1.0000e+00
       -2 -1    0    0    0  501 -0.0000000000e+00 -0.0000000000e+00 -3.6909452109e+02 3.6909452109e+02 0.0000000000e+00 0.0000e+00 1.0000e+00
      -13  1    1    2    0    0 +6.5438439195e+02 -2.7447146566e+02 +6.2554547151e+01 7.1236689231e+02 0.0000000000e+00 0.0000e+00 1.0000e+00
       13  1    1    2    0    0 -6.5438439195e+02 +2.7447146566e+02 +2.8047160280e+03 2.8930927250e+03 0.0000000000e+00 0.0000e+00 -1.0000e+00
<mgrwt>
<rscale>  0 0.21858862E+04</rscale>
<asrwt>0</asrwt>
<pdfrwt beam="1">  1        2 0.49790230E+00 0.21858862E+04</pdfrwt>
<pdfrwt beam="2">  1       -2 0.56783775E-01 0.21858862E+04</pdfrwt>
<totfact> 0.39365993E+00</totfact>
</mgrwt>
<rwgt>
<wgt id='morphing_basis_vector_1'> +1.9352128e-04 </wgt>
<wgt id='morphing_basis_vector_2'> +1.2959458e-04 </wgt>
<wgt id='morphing_basis_vector_3'> +2.0784274e-04 </wgt>
<wgt id='morphing_basis_vector_4'> +1.4562344e-04 </wgt>
<wgt id='morphing_basis_vector_5'> +2.3244758e-04 </wgt>
</rwgt>
</event>
<event>
 4      1 +6.0853000e-08 2.05338500e+03 7.81860800e-03 8.04999800e-02
        2 -1    0    0  501    0 +0.0000000000e+00 +0.0000000000e+00 +1.2655662099e+03 1.2655662099e+03 0.0000000000e+00 0.0000e+00 1.0000e+00
       -2 -1    0    0    0  501 -0.0000000000e+00 -0.0000000000e+00 -8.3290551551e+02 8.3290551551e+02 0.0000000000e+00 0.0000e+00 -1.0000e+00
      -13  1    1    2    0    0 +6.5288861137e+02 +3.6029407877e+02 +9.3753241190e+02 1.1979325463e+03 0.0000000000e+00 0.0000e+00 1.0000e+00
       13  1    1    2    0    0 -6.5288861137e+02 -3.6029407877e+02 -5.0487171749e+02 9.0053917915e+02 0.0000000000e+00 0.0000e+00 -1.0000e+00
<mgrwt>
<rscale>  0 0.20533846E+04</rscale>
<asrwt>0</asrwt>
<pdfrwt beam="1">  1        2 0.19470249E+00 0.20533846E+04</pdfrwt>
<pdfrwt beam="2">  1       -2 0.12813931E+00 0.20533846E+04</pdfrwt>
<totfact> 0.89613269E+00</totfact>
</mgrwt>
<rwgt>
<wgt id='morphing_basis_vector_1'> +1.9389624e-04 </wgt>
<wgt id='morphing_basis_vector_2'> +2.2693725e-04 </wgt>
<wgt id='morphing_basis_vector_3'> +2.2422740e-04 </wgt>
<wgt id='morphing_basis_vector_4'> +2.7948376e-05 </wgt>
<wgt id='morphing_basis_vector_5'> +1.7346720e-04 </wgt>
</rwgt>
</event>
<event>
 4      1 +6.0853000e-08 2.03489600e+03 7.81860800e-03 8.05738700e-02
        2 -1    0    0  501    0 +0.0000000000e+00 +0.0000000000e+00 +4.5243800400e+03 4.5243800400e+03 0.0000000000e+00 0.0000e+00 -1.0000e+00
       -2 -1    0    0    0  501 -0.0000000000e+00 -0.0000000000e+00 -2.2880491176e+02 2.2880491176e+02 0.0000000000e+00 0.0000e+00 1.0000e+00
      -13  1    1    2    0    0 +5.3435236287e+01 +9.8157433463e+02 +1.5348500991e+03 1.8226651710e+03 0.0000000000e+00 0.0000e+00 1.0000e+00
       13  1    1    2    0    0 -5.3435236287e+01 -9.8157433463e+02 +2.7607250292e+03 2.9305197808e+03 0.0000000000e+00 0.0000e+00 -1.0000e+00
<mgrwt>
<rscale>  0 0.20348959E+04</rscale>
<asrwt>0</asrwt>
<pdfrwt beam="1">  1        2 0.69605840E+00 0.20348959E+04</pdfrwt>
<pdfrwt beam="2">  1       -2 0.35200759E-01 0.20348959E+04</pdfrwt>
<totfact> 0.85769195E-01</totfact>
</mgrwt>
<rwgt>
<wgt id='morphing_basis_vector_1'> +1.4797767e-04 </wgt>
<wgt id='morphing_basis_vector_2'> +1.0309900e-04 </wgt>
<wgt id='morphing_basis_vector_3'> +1.5890738e-04 </wgt>
<wgt id='morphing_basis_vector_4'> +1.0507521e-04 </wgt>
<wgt id='morphing_basis_vector_5'> +1.7337680e-04 </wgt>
</rwgt>
</event>
<event>
 4      1 +6.0853000e-08 1.88568300e+03 7.81860800e-03 8.12017700e-02
        2 -1    0    0  501    0 +0.0000000000e+00 +0.0000000000e+00 +4.2255683620e+02 4.2255683620e+02 0.0000000000e+00 0.0000e+00 1.0000e+00
       -2 -1    0    0    0  501 -0.0000000000e+00 -0.0000000000e+00 -2.1037408735e+03 2.1037408735e+03 0.0000000000e+00 0.0000e+00 -1.0000e+00
      -13  1    1    2    0    0 -7.0374618915e+02 +2.6880390448e+02 -1.6001536179e+03 1.7686169282e+03 0.0000000000e+00 0.0000e+00 -1.0000e+00
       13  1    1    2    0    0 +7.0374618915e+02 -2.6880390448e+02 -8.1030419417e+01 7.5768078152e+02 0.0000000000e+00 0.0000e+00 1.0000e+00
<mgrwt>
<rscale>  0 0.18856830E+04</rscale>
<asrwt>0</asrwt>
<pdfrwt beam="1">  1        2 0.65008745E-01 0.18856830E+04</pdfrwt>
<pdfrwt beam="2">  1       -2 0.32365244E+00 0.18856830E+04</pdfrwt>
<totfact> 0.14025364E+00</totfact>
</mgrwt>
<rwgt>
<wgt id='morphing_basis_vector_1'> +1.0861769e-04 </wgt>
<wgt id='morphing_basis_vector_2'> +7.2685920e-05 </wgt>
<wgt id='morphing_basis_vector_3'> +1.1548792e-04 </wgt>
<wgt id='morphing_basis_vector_4'> +7.9376391e-05 </wgt>
<wgt id='morphing_basis_vector_5'> +1.2721965e-04 </wgt>
</rwgt>
</event>
<event>
 4      1 +6.0853000e-08 2.18135800e+03 7.81860800e-03 8.00097100e-02
        2 -1    0    0  501    0 +0.0000000000e+00 +0.0000000000e+00 +2.8874711045e+03 2.8874711045e+03 0.0000000000e+00 0.0000e+00 -1.0000e+00
       -2 -1    0    0    0  501 -0.0000000000e+00 -0.0000000000e+00 -4.1198015594e+02 4.1198015594e+02 0.0000000000e+00 0.0000e+00 1.0000e+00
      -13  1    1    2    0    0 +9.0990185780e+02 +3.0581231608e+02 +4.5450680568e+02 1.0620823885e+03 0.0000000000e+00 0.0000e+00 1.0000e+00
       13  1    1    2    0    0 -9.0990185780e+02 -3.0581231608e+02 +2.0209841429e+03 2.2373688719e+03 0.0000000000e+00 0.0000e+00 -1.0000e+00
<mgrwt>
<rscale>  0 0.21813581E+04</rscale>
<asrwt>0</asrwt>
<pdfrwt beam="1">  1        2 0.44422631E+00 0.21813581E+04</pdfrwt>
<pdfrwt beam="2">  1       -2 0.63381564E-01 0.21813581E+04</pdfrwt>
<totfact> 0.53324909E+00</totfact>
</mgrwt>
<rwgt>
<wgt id='morphing_basis_vector_1'> +1.9278085e-04 </wgt>
<wgt id='morphing_basis_vector_2'> +1.3098863e-04 </wgt>
<wgt id='morphing_basis_vector_3'> +2.0736378e-04 </wgt>
<wgt id='morphing_basis_vector_4'> +1.4272566e-04 </wgt>
<wgt id='morphing_basis_vector_5'> +2.3036147e-04 </wgt>
</rwgt>
</event>
<event>
 4      1 +6.0853000e-08 1.90965200e+03 7.81860800e-03 8.10969000e-02
        2 -1    0    0  501    0 +0.0000000000e+00 +0.0000000000e+00 +1.9110196675e+03 1.9110196675e+03 0.0000000000e+00 0.0000e+00 -1.0000e+00
       -2 -1    0    0    0  501 -0.0000000000e+00 -0.0000000000e+00 -4.7707126586e+02 4.7707126586e+02 0.0000000000e+00 0.0000e+00 1.0000e+00
      -13  1    1    2    0    0 -3.7890303399e+02 +7.6798782534e+02 +1.2450501579e+03 1.5111329209e+03 0.0000000000e+00 0.0000e+00 1.0000e+00
       13  1    1    2    0    0 +3.7890303399e+02 -7.6798782534e+02 +1.8889824372e+02 8.7695801240e+02 0.0000000000e+00 0.0000e+00 -1.0000e+00
<mgrwt>
<rscale>  0 0.19096519E+04</rscale>
<asrwt>0</asrwt>
<pdfrwt beam="1">  1        2 0.29400302E+00 0.19096519E+04</pdfrwt>
<pdfrwt beam="2">  1       -2 0.73395580E-01 0.19096519E+04</pdfrwt>
<totfact> 0.15079177E+01</totfact>
</mgrwt>
<rwgt>
<wgt id='morphing_basis_vector_1'> +1.3164174e-04 </wgt>
<wgt id='morphing_basis_vector_2'> +1.2834719e-04 </wgt>
<wgt id='morphing_basis_vector_3'> +1.4664634e-04 </wgt>
<wgt id='morphing_basis_vector_4'> +4.8988890e-05 </wgt>
<wgt id='morphing_basis_vector_5'> +1.3125451e-04 </wgt>
</rwgt>
</event>
<event>
 4      1 +6.0853000e-08 2.09542100e+03 7.81860800e-03 8.03349500e-02
        2 -1    0    0  501    0 +0.0000000000e+00 +0.0000000000e+00 +1.3177337899e+03 1.3177337899e+03 0.0000000000e+00 0.0000e+00 -1.0000e+00
       -2 -1    0    0    0  501 -0.0000000000e+00 -0.0000000000e+00 -8.3301924976e+02 8.3301924976e+02 0.0000000000e+00 0.0000e+00 1.0000e+00
      -13  1    1    2    0    0 -8.2530915226e+02 +2.2807029558e+02 -3.7736281353e+02 9.3571039834e+02 0.0000000000e+00 0.0000e+00 1.0000e+00
       13  1    1    2    0    0 +8.2530915226e+02 -2.2807029558e+02 +8.6207735371e+02 1.2150426414e+03 0.0000000000e+00 0.0000e+00 -1.0000e+00
<mgrwt>
<rscale>  0 0.20954213E+04</rscale>
<asrwt>0</asrwt>
<pdfrwt beam="1">  1        2 0.20272828E+00 0.20954213E+04</pdfrwt>
<pdfrwt beam="2">  1       -2 0.12815681E+00 0.20954213E+04</pdfrwt>
<totfact> 0.83311656E+00</totfact>
</mgrwt>
<rwgt>
<wgt id='morphing_basis_vector_1'> +1.6426293e-04 </wgt>
<wgt id='morphing_basis_vector_2'> +1.1062097e-04 </wgt>
<wgt id='morphing_basis_vector_3'> +1.7607688e-04 </wgt>
<wgt id='morphing_basis_vector_4'> +1.2190947e-04 </wgt>
<wgt id='morphing_basis_vector_5'> +1.9565263e-04 </wgt>
</rwgt>
</event>
<event>
 4      1 +6.0853000e-08 1.88875400e+03 7.81860800e-03 8.11882400e-02
        2 -1    0    0  501    0 +0.0000000000e+00 +0.0000000000e+00 +2.5007181776e+03 2.5007181776e+03 0.0000000000e+00 0.0000e+00 -1.0000e+00
       -2 -1    0    0    0  501 -0.0000000000e+00 -0.0000000000e+00 -3.5663686285e+02 3.5663686285e+02 0.0000000000e+00 0.0000e+00 1.0000e+00
      -13  1    1    2    0    0 +4.9606485725e+02 -7.6544827898e+02 +1.4421633742e+03 1.7064075153e+03 0.0000000000e+00 0.0000e+00 -1.0000e+00
       13  1    1    2    0    0 -4.9606485725e+02 +7.6544827898e+02 +7.0191794054e+02 1.1509475252e+03 0.0000000000e+00 0.0000e+00 1.0000e+00
<mgrwt>
<rscale>  0 0.18887544E+04</rscale>
<asrwt>0</asrwt>
<pdfrwt beam="1">  1        2 0.38472586E+00 0.18887544E+04</pdfrwt>
<pdfrwt beam="2">  1       -2 0.54867211E-01 0.18887544E+04</pdfrwt>
<totfact> 0.12713466E+01</totfact>
</mgrwt>
<rwgt>
<wgt id='morphing_basis_vector_1'> +1.1873405e-04 </wgt>
<wgt id='morphing_basis_vector_2'> +1.0108649e-04 </wgt>
<wgt id='morphing_basis_vector_3'> +1.2973869e-04 </wgt>
<wgt id='morphing_basis_vector_4'> +6.1342844e-05 </wgt>
<wgt id='morphing_basis_vector_5'> +1.2661812e-04 </wgt>
</rwgt>
</event>
<event>
 4      1 +6.0853000e-08 1.87204600e+03 7.81860800e-03 8.12621600e-02
        2 -1    0    0  501    0 +0.0000000000e+00 +0.0000000000e+00 +1.3140763735e+03 1.3140763735e+03 0.0000000000e+00 0.0000e+00 -1.0000e+00
       -2 -1    0    0    0  501 -0.0000000000e+00 -0.0000000000e+00 -6.6673342880e+02 6.6673342880e+02 0.0000000000e+00 0.0000e+00 1.0000e+00
      -13  1    1    2    0    0 -2.3616480700e+02 +4.2215155530e+02 -5.2423038072e+02 7.1330445378e+02 0.0000000000e+00 0.0000e+00 1.0000e+00
       13  1    1    2    0    0 +2.3616480700e+02 -4.2215155530e+02 +1.1715733254e+03 1.2675053485e+03 0.0000000000e+00 0.0000e+00 -1.0000e+00
<mgrwt>
<rscale>  0 0.18720456E+04</rscale>
<asrwt>0</asrwt>
<pdfrwt beam="1">  1        2 0.20216560E+00 0.18720456E+04</pdfrwt>
<pdfrwt beam="2">  1       -2 0.10257437E+00 0.18720456E+04</pdfrwt>
<totfact> 0.15055717E+01</totfact>
</mgrwt>
<rwgt>
<wgt id='morphing_basis_vector_1'> +1.0534223e-04 </wgt>
<wgt id='morphing_basis_vector_2'> +6.9923042e-05 </wgt>
<wgt id='morphing_basis_vector_3'> +1.1185023e-04 </wgt>
<wgt id='morphing_basis_vector_4'> +7.7522012e-05 </wgt>
<wgt id='morphing_basis_vector_5'> +1.2353344e-04 </wgt>
</rwgt>
</event>
<event>
 4      1 +6.0853000e-08 1.91009000e+03 7.81860800e-03 8.10950000e-02
        2 -1    0    0  501    0 +0.0000000000e+00 +0.0000000000e+00 +1.0406522499e+03 1.0406522499e+03 0.0000000000e+00 0.0000e+00 -1.0000e+00
       -2 -1    0    0    0  501 -0.0000000000e+00 -0.0000000000e+00 -8.7647976033e+02 8.7647976033e+02 0.0000000000e+00 0.0000e+00 1.0000e+00
      -13  1    1    2    0    0 +5.3661505863e+02 +3.8914817557e+02 -6.0799402993e+02 8.9947138038e+02 0.0000000000e+00 0.0000e+00 1.0000e+00
       13  1    1    2    0    0 -5.3661505863e+02 -3.8914817557e+02 +7.7216651948e+02 1.0176606298e+03 0.0000000000e+00 0.0000e+00 -1.0000e+00
<mgrwt>
<rscale>  0 0.19100897E+04</rscale>
<asrwt>0</asrwt>
<pdfrwt beam="1">  1        2 0.16010035E+00 0.19100897E+04</pdfrwt>
<pdfrwt beam="2">  1       -2 0.13484304E+00 0.19100897E+04</pdfrwt>
<totfact> 0.10749356E+01</totfact>
</mgrwt>
<rwgt>
<wgt id='morphing_basis_vector_1'> +1.1405747e-04 </wgt>
<wgt id='morphing_basis_vector_2'> +7.6003958e-05 </wgt>
<wgt id='morphing_basis_vector_3'> +1.2133983e-04 </wgt>
<wgt id='morphing_basis_vector_4'> +8.3979691e-05 </wgt>
<wgt id='morphing_basis_vector_5'> +1.3411479e-04 </wgt>
</rwgt>
</event>
<event>
 4      1 +6.0853000e-08 2.18710700e+03 7.81860800e-03 7.99885100e-02
        2 -1    0    0  501    0 +0.0000000000e+00 +0.0000000000e+00 +3.1797070927e+03 3.1797070927e+03 0.0000000000e+00 0.0000e+00 1.0000e+00
       -2 -1    0    0    0  501 -0.0000000000e+00 -0.0000000000e+00 -3.7609093914e+02 3.7609093914e+02 0.0000000000e+00 0.0000e+00 -1.0000e+00
      -13  1    1    2    0    0 +9.8873307601e+02 -4.6670488883e+02 +1.3672248311e+03 1.7506313968e+03 0.0000000000e+00 0.0000e+00 -1.0000e+00
       13  1    1    2    0    0 -9.8873307601e+02 +4.6670488883e+02 +1.4363913225e+03 1.8051666350e+03 0.0000000000e+00 0.0000e+00 1.0000e+00
<mgrwt>
<rscale>  0 0.21871068E+04</rscale>
<asrwt>0</asrwt>
<pdfrwt beam="1">  1        2 0.48918569E+00 0.21871068E+04</pdfrwt>
<pdfrwt beam="2">  1       -2 0.57860147E-01 0.21871068E+04</pdfrwt>
<totfact> 0.41396091E+00</totfact>
</mgrwt>
<rwgt>
<wgt id='morphing_basis_vector_1'> +2.0041475e-04 </wgt>
<wgt id='morphing_basis_vector_2'> +1.4900409e-04 </wgt>
<wgt id='morphing_basis_vector_3'> +2.1792895e-04 </wgt>
<wgt id='morphing_basis_vector_4'> +1.3291057e-04 </wgt>
<wgt id='morphing_basis_vector_5'> +2.3193397e-04 </wgt>
</rwgt>
</event>
<event>
 4      1 +6.0853000e-08 1.87718900e+03 7.81860800e-03 8.12393200e-02
        2 -1    0    0  501    0 +0.0000000000e+00 +0.0000000000e+00 +1.7732506002e+03 1.7732506002e+03 0.0000000000e+00 0.0000e+00 -1.0000e+00
       -2 -1    0    0    0  501 -0.0000000000e+00 -0.0000000000e+00 -4.9680486708e+02 4.9680486708e+02 0.0000000000e+00 0.0000e+00 1.0000e+00
      -13  1    1    2    0    0 +5.4651424480e+02 -6.4822279810e+02 +1.5136168412e+02 8.6126707540e+02 0.0000000000e+00 0.0000e+00 1.0000e+00
       13  1    1    2    0    0 -5.4651424480e+02 +6.4822279810e+02 +1.1250840489e+03 1.4087883918e+03 0.0000000000e+00 0.0000e+00 -1.0000e+00
<mgrwt>
<rscale>  0 0.18771889E+04</rscale>
<asrwt>0</asrwt>
<pdfrwt beam="1">  1        2 0.27280778E+00 0.18771889E+04</pdfrwt>
<pdfrwt beam="2">  1       -2 0.76431519E-01 0.18771889E+04</pdfrwt>
<totfact> 0.16506535E+01</totfact>
</mgrwt>
<rwgt>
<wgt id='morphing_basis_vector_1'> +1.0712925e-04 </wgt>
<wgt id='morphing_basis_vector_2'> +7.2617971e-05 </wgt>
<wgt id='morphing_basis_vector_3'> +1.1401330e-04 </wgt>
<wgt id='morphing_basis_vector_4'> +7.7114876e-05 </wgt>
<wgt id='morphing_basis_vector_5'> +1.2482809e-04 </wgt>
</rwgt>
</event>
<event>
 4      1 +6.0853000e-08 1.90674100e+03 7.81860800e-03 8.11095500e-02
        2 -1    0    0  501    0 +0.0000000000e+00 +0.0000000000e+00 +2.9134675240e+03 2.9134675240e+03 0.0000000000e+00 0.0000e+00 1.0000e+00
       -2 -1    0    0    0  501 -0.0000000000e+00 -0.0000000000e+00 -3.1197035629e+02 3.1197035629e+02 0.0000000000e+00 0.0000e+00 -1.0000e+00
      -13  1    1    2    0    0 -5.2162439107e+02 +7.9139707329e+02 +1.1272945524e+03 1.4728185023e+03 0.0000000000e+00 0.0000e+00 1.0000e+00
       13  1    1    2    0    0 +5.2162439107e+02 -7.9139707329e+02 +1.4742026153e+03 1.7526193779e+03 0.0000000000e+00 0.0000e+00 -1.0000e+00
<mgrwt>
<rscale>  0 0.19067412E+04</rscale>
<asrwt>0</asrwt>
<pdfrwt beam="1">  1        2 0.44822575E+00 0.19067412E+04</pdfrwt>
<pdfrwt beam="2">  1       -2 0.47995441E-01 0.19067412E+04</pdfrwt>
<totfact> 0.92114548E+00</totfact>
</mgrwt>
<rwgt>
<wgt id='morphing_basis_vector_1'> +1.1593697e-04 </wgt>
<wgt id='morphing_basis_vector_2'> +8.3359103e-05 </wgt>
<wgt id='morphing_basis_vector_3'> +1.2431321e-04 </wgt>
<wgt id='morphing_basis_vector_4'> +7.8131380e-05 </wgt>
<wgt id='morphing_basis_vector_5'> +1.3274510e-04 </wgt>
</rwgt>
</event>
<event>
 4      1 +6.0853000e-08 2.22126800e+03 7.81860800e-03 7.98638900e-02
        2 -1    0    0  501    0 +0.0000000000e+00 +0.0000000000e+00 +7.8761056181e+02 7.8761056181e+02 0.0000000000e+00 0.0000e+00 1.0000e+00
       -2 -1    0    0    0  501 -0.0000000000e+00 -0.0000000000e+00 -1.5661398849e+03 1.5661398849e+03 0.0000000000e+00 0.0000e+00 -1.0000e+00
      -13  1    1    2    0    0 +1.1578984333e+02 -5.2249130436e+02 -1.4205009409e+03 1.5179681730e+03 0.0000000000e+00 0.0000e+00 -1.0000e+00
       13  1    1    2    0    0 -1.1578984333e+02 +5.2249130436e+02 +6.4197161785e+02 8.3578227373e+02 0.0000000000e+00 0.0000e+00 1.0000e+00
<mgrwt>
<rscale>  0 0.22212684E+04</rscale>
<asrwt>0</asrwt>
<pdfrwt beam="1">  1        2 0.12117086E+00 0.22212684E+04</pdfrwt>
<pdfrwt beam="2">  1       -2 0.24094460E+00 0.22212684E+04</pdfrwt>
<totfact> 0.23889741E+00</totfact>
</mgrwt>
<rwgt>
<wgt id='morphing_basis_vector_1'> +2.0601934e-04 </wgt>
<wgt id='morphing_basis_vector_2'> +1.3778038e-04 </wgt>
<wgt id='morphing_basis_vector_3'> +2.2143502e-04 </wgt>
<wgt id='morphing_basis_vector_4'> +1.5568216e-04 </wgt>
<wgt id='morphing_basis_vector_5'> +2.4814981e-04 </wgt>
</rwgt>
</event>
<event>
 4      1 +6.0853000e-08 1.87880000e+03 7.81860800e-03 8.12321800e-02
        2 -1    0    0  501    0 +0.0000000000e+00 +0.0000000000e+00 +6.6031929505e+02 6.6031929505e+02 0.0000000000e+00 0.0000e+00 1.0000e+00
       -2 -1    0    0    0  501 -0.0000000000e+00 -0.0000000000e+00 -1.3364332954e+03 1.3364332954e+03 0.0000000000e+00 0.0000e+00 -1.0000e+00
      -13  1    1    2    0    0 -6.0723535393e+02 +3.5110564031e+02 -1.0021569164e+03 1.2232450412e+03 0.0000000000e+00 0.0000e+00 -1.0000e+00
       13  1    1    2    0    0 +6.0723535393e+02 -3.5110564031e+02 +3.2604291601e+02 7.7350754929e+02 0.0000000000e+00 0.0000e+00 1.0000e+00
<mgrwt>
<rscale>  0 0.18788004E+04</rscale>
<asrwt>0</asrwt>
<pdfrwt beam="1">  1        2 0.10158758E+00 0.18788004E+04</pdfrwt>
<pdfrwt beam="2">  1       -2 0.20560512E+00 0.18788004E+04</pdfrwt>
<totfact> 0.54466626E+00</totfact>
</mgrwt>
<rwgt>
<wgt id='morphing_basis_vector_1'> +1.0698388e-04 </wgt>
<wgt id='morphing_basis_vector_2'> +7.1367254e-05 </wgt>
<wgt id='morphing_basis_vector_3'> +1.1368207e-04 </wgt>
<wgt id='morphing_basis_vector_4'> +7.8380303e-05 </wgt>
<wgt id='morphing_basis_vector_5'> +1.2534479e-04 </wgt>
</rwgt>
</event>
<event>
 4      1 +6.0853000e-08 1.87887900e+03 7.81860800e-03 8.12318300e-02
        2 -1    0    0  501    0 +0.0000000000e+00 +0.0000000000e+00 +2.1750689066e+03 2.1750689066e+03 0.0000000000e+00 0.0000e+00 -1.0000e+00
       -2 -1    0    0    0  501 -0.0000000000e+00 -0.0000000000e+00 -4.0575589548e+02 4.0575589548e+02 0.0000000000e+00 0.0000e+00 1.0000e+00
      -13  1    1    2    0    0 +5.9069664693e+01 -7.1525163113e+02 +5.1987760367e+01 7.1956712567e+02 0.0000000000e+00 0.0000e+00 1.0000e+00
       13  1    1    2    0    0 -5.9069664693e+01 +7.1525163113e+02 +1.7173252507e+03 1.8612576764e+03 0.0000000000e+00 0.0000e+00 -1.0000e+00
<mgrwt>
<rscale>  0 0.18788795E+04</rscale>
<asrwt>0</asrwt>
<pdfrwt beam="1">  1        2 0.33462598E+00 0.18788795E+04</pdfrwt>
<pdfrwt beam="2">  1       -2 0.62423985E-01 0.18788795E+04</pdfrwt>
<totfact> 0.15128839E+01</totfact>
</mgrwt>
<rwgt>
<wgt id='morphing_basis_vector_1'> +1.0702747e-04 </wgt>
<wgt id='morphing_basis_vector_2'> +7.1456150e-05 </wgt>
<wgt id='morphing_basis_vector_3'> +1.1373833e-04 </wgt>
<wgt id='morphing_basis_vector_4'> +7.8342686e-05 </wgt>
<wgt id='morphing_basis_vector_5'> +1.2536240e-04 </wgt>
</rwgt>
</event>
<event>
 4      1 +6.0853000e-08 1.89167900e+03 7.81860800e-03 8.11753800e-02
        2 -1    0    0  501    0 +0.0000000000e+00 +0.0000000000e+00 +1.3623870944e+03 1.3623870944e+03 0.0000000000e+00 0.0000e+00 1.0000e+00
       -2 -1    0    0    0  501 -0.0000000000e+00 -0.0000000000e+00 -6.5665091295e+02 6.5665091295e+02 0.0000000000e+00 0.0000e+00 -1.0000e+00
      -13  1    1    2    0    0 +1.8131854374e+01 -9.3087259799e+02 +1.7503685987e+02 9.4735973112e+02 0.0000000000e+00 0.0000e+00 -1.0000e+00
       13  1    1    2    0    0 -1.8131854374e+01 +9.3087259799e+02 +5.3069932156e+02 1.0716782762e+03 0.0000000000e+00 0.0000e+00 1.0000e+00
<mgrwt>
<rscale>  0 0.18916794E+04</rscale>
<asrwt>0</asrwt>
<pdfrwt beam="1">  1        2 0.20959801E+00 0.18916794E+04</pdfrwt>
<pdfrwt beam="2">  1       -2 0.10102322E+00 0.18916794E+04</pdfrwt>
<totfact> 0.14640844E+01</totfact>
</mgrwt>
<rwgt>
<wgt id='morphing_basis_vector_1'> +1.1177116e-04 </wgt>
<wgt id='morphing_basis_vector_2'> +7.8931440e-05 </wgt>
<wgt id='morphing_basis_vector_3'> +1.1953625e-04 </wgt>
<wgt id='morphing_basis_vector_4'> +7.6872477e-05 </wgt>
<wgt id='morphing_basis_vector_5'> +1.2860577e-04 </wgt>
</rwgt>
</event>
<event>
 4      1 +6.0853000e-08 2.04564900e+03 7.81860800e-03 8.05308000e-02
        2 -1    0    0  501    0 +0.0000000000e+00 +0.0000000000e+00 +2.0428636469e+03 2.0428636469e+03 0.0000000000e+00 0.0000e+00 1.0000e+00
       -2 -1    0    0    0  501 -0.0000000000e+00 -0.0000000000e+00 -5.1210977869e+02 5.1210977869e+02 0.0000000000e+00 0.0000e+00 -1.0000e+00
      -13  1    1    2    0    0 -6.2786092084e+01 -7.5297939287e+02 -9.5649348791e+01 7.6162251633e+02 0.0000000000e+00 0.0000e+00 -1.0000e+00
       13  1    1    2    0    0 +6.2786092084e+01 +7.5297939287e+02 +1.6264032170e+03 1.7933509092e+03 0.0000000000e+00 0.0000e+00 1.0000e+00
<mgrwt>
<rscale>  0 0.20456495E+04</rscale>
<asrwt>0</asrwt>
<pdfrwt beam="1">  1        2 0.31428671E+00 0.20456495E+04</pdfrwt>
<pdfrwt beam="2">  1       -2 0.78786121E-01 0.20456495E+04</pdfrwt>
<totfact> 0.10737232E+01</totfact>
</mgrwt>
<rwgt>
<wgt id='morphing_basis_vector_1'> +1.4926916e-04 </wgt>
<wgt id='morphing_basis_vector_2'> +9.9949783e-05 </wgt>
<wgt id='morphing_basis_vector_3'> +1.5965530e-04 </wgt>
<wgt id='morphing_basis_vector_4'> +1.1094975e-04 </wgt>
<wgt id='morphing_basis_vector_5'> +1.7742736e-04 </wgt>
</rwgt>
</event>
<event>
 4      1 +6.0853000e-08 1.92707400e+03 7.81860800e-03 8.10216800e-02
        2 -1    0    0  501    0 +0.0000000000e+00 +0.0000000000e+00 +2.8833438334e+03 2.8833438334e+03 0.0000000000e+00 0.0000e+00 -1.0000e+00
       -2 -1    0    0    0  501 -0.0000000000e+00 -0.0000000000e+00 -3.2198862697e+02 3.2198862697e+02 0.0000000000e+00 0.0000e+00 1.0000e+00
      -13  1    1    2    0    0 -2.1808234621e+02 +3.9746621432e+02 -1.3349717565e+02 4.7261061897e+02 0.0000000000e+00 0.0000e+00 1.0000e+00
       13  1    1    2    0    0 +2.1808234621e+02 -3.9746621432e+02 +2.6948523820e+03 2.7327218414e+03 0.0000000000e+00 0.0000e+00 -1.0000e+00
<mgrwt>
<rscale>  0 0.19270744E+04</rscale>
<asrwt>0</asrwt>
<pdfrwt beam="1">  1        2 0.44359134E+00 0.19270744E+04</pdfrwt>
<pdfrwt beam="2">  1       -2 0.49536714E-01 0.19270744E+04</pdfrwt>
<totfact> 0.90340085E+00</totfact>
</mgrwt>
<rwgt>
<wgt id='morphing_basis_vector_1'> +1.1796929e-04 </wgt>
<wgt id='morphing_basis_vector_2'> +7.8398042e-05 </wgt>
<wgt id='morphing_basis_vector_3'> +1.2555008e-04 </wgt>
<wgt id='morphing_basis_vector_4'> +8.7285257e-05 </wgt>
<wgt id='morphing_basis_vector_5'> +1.3907376e-04 </wgt>
</rwgt>
</event>
<event>
 4      1 +6.0853000e-08 2.17043600e+03 7.81860800e-03 8.00501800e-02
        2 -1    0    0  501    0 +0.0000000000e+00 +0.0000000000e+00 +9.1214707797e+02 9.1214707797e+02 0.0000000000e+00 0.0000e+00 -1.0000e+00
       -2 -1    0    0    0  501 -0.0000000000e+00 -0.0000000000e+00 -1.2911269533e+03 1.2911269533e+03 0.0000000000e+00 0.0000e+00 1.0000e+00
      -13  1    1    2    0    0 -7.0539034861e+02 -4.0823929343e+02 -9.1689464732e+02 1.2267561530e+03 0.0000000000e+00 0.0000e+00 1.0000e+00
       13  1    1    2    0    0 +7.0539034861e+02 +4.0823929343e+02 +5.3791477201e+02 9.7651787826e+02 0.0000000000e+00 0.0000e+00 -1.0000e+00
<mgrwt>
<rscale>  0 0.21704356E+04</rscale>
<asrwt>0</asrwt>
<pdfrwt beam="1">  1        2 0.14033032E+00 0.21704356E+04</pdfrwt>
<pdfrwt beam="2">  1       -2 0.19863492E+00 0.21704356E+04</pdfrwt>
<totfact> 0.39555653E+00</totfact>
</mgrwt>
<rwgt>
<wgt id='morphing_basis_vector_1'> +1.8837606e-04 </wgt>
<wgt id='morphing_basis_vector_2'> +1.2651906e-04 </wgt>
<wgt id='morphing_basis_vector_3'> +2.0229950e-04 </wgt>
<wgt id='morphing_basis_vector_4'> +1.4112646e-04 </wgt>
<wgt id='morphing_basis_vector_5'> +2.2580777e-04 </wgt>
</rwgt>
</event>
<event>
 4      1 +6.0853000e-08 1.94742600e+03 7.81860800e-03 8.09348600e-02
        2 -1    0    0  501    0 +0.0000000000e+00 +0.0000000000e+00 +1.8370476612e+03 1.8370476612e+03 0.0000000000e+00 0.0000e+00 1.0000e+00
       -2 -1    0    0    0  501 -0.0000000000e+00 -0.0000000000e+00 -5.1610912677e+02 5.1610912677e+02 0.0000000000e+00 0.0000e+00 -1.0000e+00
      -13  1    1    2    0    0 +9.3728443854e+02 +2.6134787667e+02 +7.0424116240e+02 1.2011496352e+03 0.0000000000e+00 0.0000e+00 -1.0000e+00
       13  1    1    2    0    0 -9.3728443854e+02 -2.6134787667e+02 +6.1669737208e+02 1.1520071528e+03 0.0000000000e+00 0.0000e+00 1.0000e+00
<mgrwt>
<rscale>  0 0.19474261E+04</rscale>
<asrwt>0</asrwt>
<pdfrwt beam="1">  1        2 0.28262271E+00 0.19474261E+04</pdfrwt>
<pdfrwt beam="2">  1       -2 0.79401405E-01 0.19474261E+04</pdfrwt>
<totfact> 0.13878105E+01</totfact>
</mgrwt>
<rwgt>
<wgt id='morphing_basis_vector_1'> +1.2803378e-04 </wgt>
<wgt id='morphing_basis_vector_2'> +9.6876416e-05 </wgt>
<wgt id='morphing_basis_vector_3'> +1.3831704e-04 </wgt>
<wgt id='morphing_basis_vector_4'> +8.0983815e-05 </wgt>
<wgt id='morphing_basis_vector_5'> +1.4437786e-04 </wgt>
</rwgt>
</event>
<event>
 4      1 +6.0853000e-08 1.88825400e+03 7.81860800e-03 8.11904400e-02
        2 -1    0    0  501    0 +0.0000000000e+00 +0.0000000000e+00 +2.0961735437e+03 2.0961735437e+03 0.0000000000e+00 0.0000e+00 1.0000e+00
       -2 -1    0    0    0  501 -0.0000000000e+00 -0.0000000000e+00 -4.2523944710e+02 4.2523944710e+02 0.0000000000e+00 0.0000e+00 -1.0000e+00
      -13  1    1    2    0    0 +6.7012520906e+02 -4.8166030368e+02 +2.2309573627e+02 8.5488955515e+02 0.0000000000e+00 0.0000e+00 -1.0000e+00
       13  1    1    2    0    0 -6.7012520906e+02 +4.8166030368e+02 +1.4478383603e+03 1.6665234356e+03 0.0000000000e+00 0.0000e+00 1.0000e+00
<mgrwt>
<rscale>  0 0.18882539E+04</rscale>
<asrwt>0</asrwt>
<pdfrwt beam="1">  1        2 0.32248823E+00 0.18882539E+04</pdfrwt>
<pdfrwt beam="2">  1       -2 0.65421455E-01 0.18882539E+04</pdfrwt>
<totfact> 0.15199853E+01</totfact>
</mgrwt>
<rwgt>
<wgt id='morphing_basis_vector_1'> +1.0944811e-04 </wgt>
<wgt id='morphing_basis_vector_2'> +7.3821195e-05 </wgt>
<wgt id='morphing_basis_vector_3'> +1.1647641e-04 </wgt>
<wgt id='morphing_basis_vector_4'> +7.9326570e-05 </wgt>
<wgt id='morphing_basis_vector_5'> +1.2789213e-04 </wgt>
</rwgt>
</event>
<event>
 4      1 +6.0853000e-08 2.10262600e+03 7.81860800e-03 8.03070600e-02
        2 -1    0    0  501    0 +0.0000000000e+00 +0.0000000000e+00 +1.3481125653e+03 1.3481125653e+03 0.0000000000e+00 0.0000e+00 1.0000e+00
       -2 -1    0    0    0  501 -0.0000000000e+00 -0.0000000000e+00 -8.1985688994e+02 8.1985688994e+02 0.0000000000e+00 0.0000e+00 -1.0000e+00
      -13  1    1    2    0    0 -9.6102911825e+01 +4.6655165367e+02 -7.0220256547e+02 8.4852498970e+02 0.0000000000e+00 0.0000e+00 -1.0000e+00
       13  1    1    2    0    0 +9.6102911825e+01 -4.6655165367e+02 +1.2304582408e+03 1.3194444655e+03 0.0000000000e+00 0.0000e+00 1.0000e+00
<mgrwt>
<rscale>  0 0.21026263E+04</rscale>
<asrwt>0</asrwt>
<pdfrwt beam="1">  1        2 0.20740193E+00 0.21026263E+04</pdfrwt>
<pdfrwt beam="2">  1       -2 0.12613183E+00 0.21026263E+04</pdfrwt>
<totfact> 0.83444086E+00</totfact>
</mgrwt>
<rwgt>
<wgt id='morphing_basis_vector_1'> +1.6603077e-04 </wgt>
<wgt id='morphing_basis_vector_2'> +1.1077420e-04 </wgt>
<wgt id='morphing_basis_vector_3'> +1.7782804e-04 </wgt>
<wgt id='morphing_basis_vector_4'> +1.2454949e-04 </wgt>
<wgt id='morphing_basis_vector_5'> +1.9848072e-04 </wgt>
</rwgt>
</event>
<event>
 4      1 +6.0853000e-08 2.14079900e+03 7.81860800e-03 8.01612400e-02
        2 -1    0    0  501    0 +0.0000000000e+00 +0.0000000000e+00 +2.5581755229e+03 2.5581755229e+03 0.0000000000e+00 0.0000e+00 1.0000e+00
       -2 -1    0    0    0  501 -0.0000000000e+00 -0.0000000000e+00 -4.4787966983e+02 4.4787966983e+02 0.0000000000e+00 0.0000e+00 -1.0000e+00
      -13  1    1    2    0    0 -6.0246858170e+02 +6.7822618963e+02 +2.5736461259e+02 9.4297173873e+02 0.0000000000e+00 0.0000e+00 -1.0000e+00
       13  1    1    2    0    0 +6.0246858170e+02 -6.7822618963e+02 +1.8529312405e+03 2.0630834540e+03 0.0000000000e+00 0.0000e+00 1.0000e+00
<mgrwt>
<rscale>  0 0.21407987E+04</rscale>
<asrwt>0</asrwt>
<pdfrwt beam="1">  1        2 0.39356546E+00 0.21407987E+04</pdfrwt>
<pdfrwt beam="2">  1       -2 0.68904566E-01 0.21407987E+04</pdfrwt>
<totfact> 0.71702166E+00</totfact>
</mgrwt>
<rwgt>
<wgt id='morphing_basis_vector_1'> +1.7883837e-04 </wgt>
<wgt id='morphing_basis_vector_2'> +1.2089574e-04 </wgt>
<wgt id='morphing_basis_vector_3'> +1.9203829e-04 </wgt>
<wgt id='morphing_basis_vector_4'> +1.3270494e-04 </wgt>
<wgt id='morphing_basis_vector_5'> +2.1346193e-04 </wgt>
</rwgt>
</event>
<event>
 4      1 +6.0853000e-08 2.12907700e+03 7.81860800e-03 8.02056800e-02
        2 -1    0    0  501    0 +0.0000000000e+00 +0.0000000000e+00 +7.9610422314e+02 7.9610422314e+02 0.0000000000e+00 0.0000e+00 -1.0000e+00
       -2 -1    0    0    0  501 -0.0000000000e+00 -0.0000000000e+00 -1.4234851480e+03 1.4234851480e+03 0.0000000000e+00 0.0000e+00 1.0000e+00
      -13  1    1    2    0    0 +6.1803866222e+02 +2.3040689798e+02 -1.1847863626e+03 1.3560154319e+03 0.0000000000e+00 0.0000e+00 1.0000e+00
       13  1    1    2    0    0 -6.1803866222e+02 -2.3040689798e+02 +5.5740543768e+02 8.6357393927e+02 0.0000000000e+00 0.0000e+00 -1.0000e+00
<mgrwt>
<rscale>  0 0.21290773E+04</rscale>
<asrwt>0</asrwt>
<pdfrwt beam="1">  1        2 0.12247757E+00 0.21290773E+04</pdfrwt>
<pdfrwt beam="2">  1       -2 0.21899772E+00 0.21290773E+04</pdfrwt>
<totfact> 0.33879378E+00</totfact>
</mgrwt>
<rwgt>
<wgt id='morphing_basis_vector_1'> +1.7446597e-04 </wgt>
<wgt id='morphing_basis_vector_2'> +1.1664513e-04 </wgt>
<wgt id='morphing_basis_vector_3'> +1.8704996e-04 </wgt>
<wgt id='morphing_basis_vector_4'> +1.3089063e-04 </wgt>
<wgt id='morphing_basis_vector_5'> +2.0883323e-04 </wgt>
</rwgt>
</event>
<event>
 4      1 +6.0853000e-08 2.04167300e+03 7.81860800e-03 8.05466900e-02
        2 -1    0    0  501    0 +0.0000000000e+00 +0.0000000000e+00 +2.3550741382e+03 2.3550741382e+03 0.0000000000e+00 0.0000e+00 -1.0000e+00
       -2 -1    0    0    0  501 -0.0000000000e+00 -0.0000000000e+00 -4.4249420424e+02 4.4249420424e+02 0.0000000000e+00 0.0000e+00 1.0000e+00
      -13  1    1    2    0    0 -6.5337627494e+02 +6.1743824265e+02 +1.6190867447e+03 1.8519104803e+03 0.0000000000e+00 0.0000e+00 1.0000e+00
       13  1    1    2    0    0 +6.5337627494e+02 -6.1743824265e+02 +2.9349318930e+02 9.4565786219e+02 0.0000000000e+00 0.0000e+00 -1.0000e+00
<mgrwt>
<rscale>  0 0.20416725E+04</rscale>
<asrwt>0</asrwt>
<pdfrwt beam="1">  1        2 0.36231909E+00 0.20416725E+04</pdfrwt>
<pdfrwt beam="2">  1       -2 0.68076033E-01 0.20416725E+04</pdfrwt>
<totfact> 0.97903395E+00</totfact>
</mgrwt>
<rwgt>
<wgt id='morphing_basis_vector_1'> +1.7322388e-04 </wgt>
<wgt id='morphing_basis_vector_2'> +1.7343903e-04 </wgt>
<wgt id='morphing_basis_vector_3'> +1.9514075e-04 </wgt>
<wgt id='morphing_basis_vector_4'> +5.9986393e-05 </wgt>
<wgt id='morphing_basis_vector_5'> +1.7206081e-04 </wgt>
</rwgt>
</event>
<event>
 4      1 +6.0853000e-08 1.86434000e+03 7.81860800e-03 8.12965200e-02
        2 -1    0    0  501    0 +0.0000000000e+00 +0.0000000000e+00 +2.3180579745e+03 2.3180579745e+03 0.0000000000e+00 0.0000e+00 1.0000e+00
       -2 -1    0    0    0  501 -0.0000000000e+00 -0.0000000000e+00 -3.7485736784e+02 3.7485736784e+02 0.0000000000e+00 0.0000e+00 -1.0000e+00
      -13  1    1    2    0    0 +3.0555020861e+02 +6.9608546658e+02 +1.9234860729e+02 7.8415170311e+02 0.0000000000e+00 0.0000e+00 -1.0000e+00
       13  1    1    2    0    0 -3.0555020861e+02 -6.9608546658e+02 +1.7508519994e+03 1.9087636393e+03 0.0000000000e+00 0.0000e+00 1.0000e+00
<mgrwt>
<rscale>  0 0.18643402E+04</rscale>
<asrwt>0</asrwt>
<pdfrwt beam="1">  1        2 0.35662429E+00 0.18643402E+04</pdfrwt>
<pdfrwt beam="2">  1       -2 0.57670366E-01 0.18643402E+04</pdfrwt>
<totfact> 0.14748297E+01</totfact>
</mgrwt>
<rwgt>
<wgt id='morphing_basis_vector_1'> +1.0392951e-04 </wgt>
<wgt id='morphing_basis_vector_2'> +6.9595045e-05 </wgt>
<wgt id='morphing_basis_vector_3'> +1.1041111e-04 </wgt>
<wgt id='morphing_basis_vector_4'> +7.5691865e-05 </wgt>
<wgt id='morphing_basis_vector_5'> +1.2142405e-04 </wgt>
</rwgt>
</event>
<event>
 4      1 +6.0853000e-08 2.11627900e+03 7.81860800e-03 8.02545400e-02
        2 -1    0    0  501    0 +0.0000000000e+00 +0.0000000000e+00 +8.3765148516e+02 8.3765148516e+02 0.0000000000e+00 0.0000e+00 -1.0000e+00
       -2 -1    0    0    0  501 -0.0000000000e+00 -0.0000000000e+00 -1.3366649508e+03 1.3366649508e+03 0.0000000000e+00 0.0000e+00 1.0000e+00
      -13  1    1    2    0    0 -2.4200613907e+02 +3.0032641290e+02 -1.2618696983e+03 1.3194991706e+03 0.0000000000e+00 0.0000e+00 1.0000e+00
       13  1    1    2    0    0 +2.4200613907e+02 -3.0032641290e+02 +7.6285623262e+02 8.5481726543e+02 0.0000000000e+00 0.0000e+00 -1.0000e+00
<mgrwt>
<rscale>  0 0.21162792E+04</rscale>
<asrwt>0</asrwt>
<pdfrwt beam="1">  1        2 0.12886946E+00 0.21162792E+04</pdfrwt>
<pdfrwt beam="2">  1       -2 0.20564076E+00 0.21162792E+04</pdfrwt>
<totfact> 0.39594273E+00</totfact>
</mgrwt>
<rwgt>
<wgt id='morphing_basis_vector_1'> +1.7029103e-04 </wgt>
<wgt id='morphing_basis_vector_2'> +1.1361572e-04 </wgt>
<wgt id='morphing_basis_vector_3'> +1.8246416e-04 </wgt>
<wgt id='morphing_basis_vector_4'> +1.2790208e-04 </wgt>
<wgt id='morphing_basis_vector_5'> +2.0378389e-04 </wgt>
</rwgt>
</event>
<event>
 4      1 +6.0853000e-08 1.96452800e+03 7.81860800e-03 8.08627400e-02
        2 -1    0    0  501    0 +0.0000000000e+00 +0.0000000000e+00 +2.0801484740e+03 2.0801484740e+03 0.0000000000e+00 0.0000e+00 -1.0000e+00
       -2 -1    0    0    0  501 -0.0000000000e+00 -0.0000000000e+00 -4.6383359030e+02 4.6383359030e+02 0.0000000000e+00 0.0000e+00 1.0000e+00
      -13  1    1    2    0    0 +3.1717830433e+02 -5.0431028544e+02 -2.0316419695e+02 6.2944946712e+02 0.0000000000e+00 0.0000e+00 1.0000e+00
       13  1    1    2    0    0 -3.1717830433e+02 +5.0431028544e+02 +1.8194790807e+03 1.9145325972e+03 0.0000000000e+00 0.0000e+00 -1.0000e+00
<mgrwt>
<rscale>  0 0.19645282E+04</rscale>
<asrwt>0</asrwt>
<pdfrwt beam="1">  1        2 0.32002284E+00 0.19645282E+04</pdfrwt>
<pdfrwt beam="2">  1       -2 0.71359015E-01 0.19645282E+04</pdfrwt>
<totfact> 0.12814906E+01</totfact>
</mgrwt>
<rwgt>
<wgt id='morphing_basis_vector_1'> +1.2724941e-04 </wgt>
<wgt id='morphing_basis_vector_2'> +8.4753326e-05 </wgt>
<wgt id='morphing_basis_vector_3'> +1.3564780e-04 </wgt>
<wgt id='morphing_basis_vector_4'> +9.4327826e-05 </wgt>
<wgt id='morphing_basis_vector_5'> +1.5044447e-04 </wgt>
</rwgt>
</event>
<event>
 4      1 +6.0853000e-08 1.87506500e+03 7.81860800e-03 8.12487400e-02
        2 -1    0    0  501    0 +0.0000000000e+00 +0.0000000000e+00 +1.8212206504e+03 1.8212206504e+03 0.0000000000e+00 0.0000e+00 -1.0000e+00
       -2 -1    0    0    0  501 -0.0000000000e+00 -0.0000000000e+00 -4.8262538130e+02 4.8262538130e+02 0.0000000000e+00 0.0000e+00 1.0000e+00
      -13  1    1    2    0    0 +4.6360159764e+02 +4.6171703018e+02 -1.5570836356e+02 6.7257278548e+02 0.0000000000e+00 0.0000e+00 1.0000e+00
       13  1    1    2    0    0 -4.6360159764e+02 -4.6171703018e+02 +1.4943036327e+03 1.6312732463e+03 0.0000000000e+00 0.0000e+00 -1.0000e+00
<mgrwt>
<rscale>  0 0.18750651E+04</rscale>
<asrwt>0</asrwt>
<pdfrwt beam="1">  1        2 0.28018779E+00 0.18750651E+04</pdfrwt>
<pdfrwt beam="2">  1       -2 0.74250060E-01 0.18750651E+04</pdfrwt>
<totfact> 0.16550088E+01</totfact>
</mgrwt>
<rwgt>
<wgt id='morphing_basis_vector_1'> +1.0609917e-04 </wgt>
<wgt id='morphing_basis_vector_2'> +7.0641560e-05 </wgt>
<wgt id='morphing_basis_vector_3'> +1.1270268e-04 </wgt>
<wgt id='morphing_basis_vector_4'> +7.7854910e-05 </wgt>
<wgt id='morphing_basis_vector_5'> +1.2433684e-04 </wgt>
</rwgt>
</event>
<event>
 4      1 +6.0853000e-08 2.02473800e+03 7.81860800e-03 8.06148100e-02
        2 -1    0    0  501    0 +0.0000000000e+00 +0.0000000000e+00 +1.0798013158e+03 1.0798013158e+03 0.0000000000e+00 0.0000e+00 -1.0000e+00
       -2 -1    0    0    0  501 -0.0000000000e+00 -0.0000000000e+00 -9.4914791821e+02 9.4914791821e+02 0.0000000000e+00 0.0000e+00 1.0000e+00
      -13  1    1    2    0    0 +2.2785665299e+02 -1.8379744467e+02 -9.0580755759e+02 9.5193880390e+02 0.0000000000e+00 0.0000e+00 1.0000e+00
       13  1    1    2    0    0 -2.2785665299e+02 +1.8379744467e+02 +1.0364609552e+03 1.0770104301e+03 0.0000000000e+00 0.0000e+00 -1.0000e+00
<mgrwt>
<rscale>  0 0.20247382E+04</rscale>
<asrwt>0</asrwt>
<pdfrwt beam="1">  1        2 0.16612328E+00 0.20247382E+04</pdfrwt>
<pdfrwt beam="2">  1       -2 0.14602276E+00 0.20247382E+04</pdfrwt>
<totfact> 0.80781219E+00</totfact>
</mgrwt>
<rwgt>
<wgt id='morphing_basis_vector_1'> +1.4315687e-04 </wgt>
<wgt id='morphing_basis_vector_2'> +9.5316410e-05 </wgt>
<wgt id='morphing_basis_vector_3'> +1.5291985e-04 </wgt>
<wgt id='morphing_basis_vector_4'> +1.0683190e-04 </wgt>
<wgt id='morphing_basis_vector_5'> +1.7018107e-04 </wgt>
</rwgt>
</event>
<event>
 4      1 +6.0853000e-08 1.95199200e+03 7.81860800e-03 8.09155300e-02
        2 -1    0    0  501    0 +0.0000000000e+00 +0.0000000000e+00 +7.2684789896e+02 7.2684789896e+02 0.0000000000e+00 0.0000e+00 -1.0000e+00
       -2 -1    0    0    0  501 -0.0000000000e+00 -0.0000000000e+00 -1.3105469475e+03 1.3105469475e+03 0.0000000000e+00 0.0000e+00 1.0000e+00
      -13  1    1    2    0    0 -4.9010469891e+02 +7.5762921759e+02 -6.8009655978e+02 1.1299274215e+03 0.0000000000e+00 0.0000e+00 1.0000e+00
       13  1    1    2    0    0 +4.9010469891e+02 -7.5762921759e+02 +9.6397511194e+01 9.0746742499e+02 0.0000000000e+00 0.0000e+00 -1.0000e+00
<mgrwt>
<rscale>  0 0.19519921E+04</rscale>
<asrwt>0</asrwt>
<pdfrwt beam="1">  1        2 0.11182275E+00 0.19519921E+04</pdfrwt>
<pdfrwt beam="2">  1       -2 0.20162261E+00 0.19519921E+04</pdfrwt>
<totfact> 0.51450172E+00</totfact>
</mgrwt>
<rwgt>
<wgt id='morphing_basis_vector_1'> +1.2502217e-04 </wgt>
<wgt id='morphing_basis_vector_2'> +8.5363415e-05 </wgt>
<wgt id='morphing_basis_vector_3'> +1.3355919e-04 </wgt>
<wgt id='morphing_basis_vector_4'> +9.0066296e-05 </wgt>
<wgt id='morphing_basis_vector_5'> +1.4641823e-04 </wgt>
</rwgt>
</event>
<event>
 4      1 +6.0853000e-08 1.95109400e+03 7.81860800e-03 8.09193300e-02
        2 -1    0    0  501    0 +0.0000000000e+00 +0.0000000000e+00 +1.4050961434e+03 1.4050961434e+03 0.0000000000e+00 0.0000e+00 1.0000e+00
       -2 -1    0    0    0  501 -0.0000000000e+00 -0.0000000000e+00 -6.7731436097e+02 6.7731436097e+02 0.0000000000e+00 0.0000e+00 -1.0000e+00
      -13  1    1    2    0    0 -6.3073573452e+02 +5.6233513907e+02 -1.5640582530e+02 8.5936671894e+02 0.0000000000e+00 0.0000e+00 -1.0000e+00
       13  1    1    2    0    0 +6.3073573452e+02 -5.6233513907e+02 +8.8418760775e+02 1.2230437855e+03 0.0000000000e+00 0.0000e+00 1.0000e+00
<mgrwt>
<rscale>  0 0.19510938E+04</rscale>
<asrwt>0</asrwt>
<pdfrwt beam="1">  1        2 0.21616864E+00 0.19510938E+04</pdfrwt>
<pdfrwt beam="2">  1       -2 0.10420221E+00 0.19510938E+04</pdfrwt>
<totfact> 0.12773941E+01</totfact>
</mgrwt>
<rwgt>
<wgt id='morphing_basis_vector_1'> +1.2436254e-04 </wgt>
<wgt id='morphing_basis_vector_2'> +8.3920769e-05 </wgt>
<wgt id='morphing_basis_vector_3'> +1.3268552e-04 </wgt>
<wgt id='morphing_basis_vector_4'> +9.0758216e-05 </wgt>
<wgt id='morphing_basis_vector_5'> +1.4621089e-04 </wgt>
</rwgt>
</event>
<event>
 4      1 +6.0853000e-08 2.04881800e+03 7.81860800e-03 8.05181600e-02
        2 -1    0    0  501    0 +0.0000000000e+00 +0.0000000000e+00 +1.1250927505e+03 1.1250927505e+03 0.0000000000e+00 0.0000e+00 -1.0000e+00
       -2 -1    0    0    0  501 -0.0000000000e+00 -0.0000000000e+00 -9.3273575471e+02 9.3273575471e+02 0.0000000000e+00 0.0000e+00 1.0000e+00
      -13  1    1    2    0    0 -4.3467976732e+02 +1.1296759864e+02 -8.2858004224e+02 9.4247178465e+02 0.0000000000e+00 0.0000e+00 1.0000e+00
       13  1    1    2    0    0 +4.3467976732e+02 -1.1296759864e+02 +1.0209370381e+03 1.1153567206e+03 0.0000000000e+00 0.0000e+00 -1.0000e+00
<mgrwt>
<rscale>  0 0.20488184E+04</rscale>
<asrwt>0</asrwt>
<pdfrwt beam="1">  1        2 0.17309119E+00 0.20488184E+04</pdfrwt>
<pdfrwt beam="2">  1       -2 0.14349781E+00 0.20488184E+04</pdfrwt>
<totfact> 0.79521596E+00</totfact>
</mgrwt>
<rwgt>
<wgt id='morphing_basis_vector_1'> +1.4996571e-04 </wgt>
<wgt id='morphing_basis_vector_2'> +9.9936289e-05 </wgt>
<wgt id='morphing_basis_vector_3'> +1.6033394e-04 </wgt>
<wgt id='morphing_basis_vector_4'> +1.1207633e-04 </wgt>
<wgt id='morphing_basis_vector_5'> +1.7858421e-04 </wgt>
</rwgt>
</event>
<event>
 4      1 +6.0853000e-08 1.91086800e+03 7.81860800e-03 8.10916300e-02
        2 -1    0    0  501    0 +0.0000000000e+00 +0.0000000000e+00 +4.8181323594e+03 4.8181323594e+03 0.0000000000e+00 0.0000e+00 -1.0000e+00
       -2 -1    0    0    0  501 -0.0000000000e+00 -0.0000000000e+00 -1.8946226561e+02 1.8946226561e+02 0.0000000000e+00 0.0000e+00 1.0000e+00
      -13  1    1    2    0    0 -5.8474000071e+02 +4.5104442365e+02 +7.2570569081e+02 1.0353794909e+03 0.0000000000e+00 0.0000e+00 1.0000e+00
       13  1    1    2    0    0 +5.8474000071e+02 -4.5104442365e+02 +3.9029644030e+03 3.9722151341e+03 0.0000000000e+00 0.0000e+00 -1.0000e+00
<mgrwt>
<rscale>  0 0.19108682E+04</rscale>
<asrwt>0</asrwt>
<pdfrwt beam="1">  1        2 0.74125104E+00 0.19108682E+04</pdfrwt>
<pdfrwt beam="2">  1       -2 0.29148044E-01 0.19108682E+04</pdfrwt>
<totfact> 0.57654824E-01</totfact>
</mgrwt>
<rwgt>
<wgt id='morphing_basis_vector_1'> +1.1434719e-04 </wgt>
<wgt id='morphing_basis_vector_2'> +7.6446132e-05 </wgt>
<wgt id='morphing_basis_vector_3'> +1.2169231e-04 </wgt>
<wgt id='morphing_basis_vector_4'> +8.3906854e-05 </wgt>
<wgt id='morphing_basis_vector_5'> +1.3432174e-04 </wgt>
</rwgt>
</event>
<event>
 4      1 +6.0853000e-08 2.21640700e+03 7.81860800e-03 7.98814800e-02
        2 -1    0    0  501    0 +0.0000000000e+00 +0.0000000000e+00 +1.4176395401e+03 1.4176395401e+03 0.0000000000e+00 0.0000e+00 -1.0000e+00
       -2 -1    0    0    0  501 -0.0000000000e+00 -0.0000000000e+00 -8.6630992973e+02 8.6630992973e+02 0.0000000000e+00 0.0000e+00 1.0000e+00
      -13  1    1    2    0    0 -4.2960458914e+02 -6.5860978522e+02 -5.2902123899e+02 9.4772908760e+02 0.0000000000e+00 0.0000e+00 1.0000e+00
       13  1    1    2    0    0 +4.2960458914e+02 +6.5860978522e+02 +1.0803508494e+03 1.3362203822e+03 0.0000000000e+00 0.0000e+00 -1.0000e+00
<mgrwt>
<rscale>  0 0.22164072E+04</rscale>
<asrwt>0</asrwt>
<pdfrwt beam="1">  1        2 0.21809839E+00 0.22164072E+04</pdfrwt>
<pdfrwt beam="2">  1       -2 0.13327845E+00 0.22164072E+04</pdfrwt>
<totfact> 0.65151183E+00</totfact>
</mgrwt>
<rwgt>
<wgt id='morphing_basis_vector_1'> +2.0446351e-04 </wgt>
<wgt id='morphing_basis_vector_2'> +1.3721374e-04 </wgt>
<wgt id='morphing_basis_vector_3'> +2.1982217e-04 </wgt>
<wgt id='morphing_basis_vector_4'> +1.5387363e-04 </wgt>
<wgt id='morphing_basis_vector_5'> +2.4591517e-04 </wgt>
</rwgt>
</event>
<event>
 4      1 +6.0853000e-08 1.96853800e+03 7.81860800e-03 8.08459500e-02
        2 -1    0    0  501    0 +0.0000000000e+00 +0.0000000000e+00 +1.9020099575e+03 1.9020099575e+03 0.0000000000e+00 0.0000e+00 1.0000e+00
       -2 -1    0    0    0  501 -0.0000000000e+00 -0.0000000000e+00 -5.0934828028e+02 5.0934828028e+02 0.0000000000e+00 0.0000e+00 -1.0000e+00
      -13  1    1    2    0    0 -1.5392219828e+02 -5.7121128922e+02 -2.6726957825e+02 6.4915900018e+02 0.0000000000e+00 0.0000e+00 -1.0000e+00
       13  1    1    2    0    0 +1.5392219828e+02 +5.7121128922e+02 +1.6599312554e+03 1.7621992375e+03 0.0000000000e+00 0.0000e+00 1.0000e+00
<mgrwt>
<rscale>  0 0.19685380E+04</rscale>
<asrwt>0</asrwt>
<pdfrwt beam="1">  1        2 0.29261691E+00 0.19685380E+04</pdfrwt>
<pdfrwt beam="2">  1       -2 0.78361275E-01 0.19685380E+04</pdfrwt>
<totfact> 0.13127612E+01</totfact>
</mgrwt>
<rwgt>
<wgt id='morphing_basis_vector_1'> +1.2826668e-04 </wgt>
<wgt id='morphing_basis_vector_2'> +8.5432350e-05 </wgt>
<wgt id='morphing_basis_vector_3'> +1.3675237e-04 </wgt>
<wgt id='morphing_basis_vector_4'> +9.5121937e-05 </wgt>
<wgt id='morphing_basis_vector_5'> +1.5170282e-04 </wgt>
</rwgt>
</event>
<event>
 4      1 +6.0853000e-08 1.86033000e+03 7.81860800e-03 8.13144800e-02
        2 -1    0    0  501    0 +0.0000000000e+00 +0.0000000000e+00 +7.9516435142e+02 7.9516435142e+02 0.0000000000e+00 0.0000e+00 -1.0000e+00
       -2 -1    0    0    0  501 -0.0000000000e+00 -0.0000000000e+00 -1.0880851716e+03 1.0880851716e+03 0.0000000000e+00 0.0000e+00 1.0000e+00
      -13  1    1    2    0    0 +3.1742712086e+02 +7.5215382712e+02 -5.9772278866e+02 1.0118141572e+03 0.0000000000e+00 0.0000e+00 1.0000e+00
       13  1    1    2    0    0 -3.1742712086e+02 -7.5215382712e+02 +3.0480196849e+02 8.7143536577e+02 0.0000000000e+00 0.0000e+00 -1.0000e+00
<mgrwt>
<rscale>  0 0.18603296E+04</rscale>
<asrwt>0</asrwt>
<pdfrwt beam="1">  1        2 0.12233298E+00 0.18603296E+04</pdfrwt>
<pdfrwt beam="2">  1       -2 0.16739772E+00 0.18603296E+04</pdfrwt>
<totfact> 0.83899287E+00</totfact>
</mgrwt>
<rwgt>
<wgt id='morphing_basis_vector_1'> +1.0327371e-04 </wgt>
<wgt id='morphing_basis_vector_2'> +6.9641622e-05 </wgt>
<wgt id='morphing_basis_vector_3'> +1.0977240e-04 </wgt>
<wgt id='morphing_basis_vector_4'> +7.4605742e-05 </wgt>
<wgt id='morphing_basis_vector_5'> +1.2032547e-04 </wgt>
</rwgt>
</event>
<event>
 4      1 +6.0853000e-08 1.99565300e+03 7.81860800e-03 8.07334400e-02
        2 -1    0    0  501    0 +0.0000000000e+00 +0.0000000000e+00 +3.7515877042e+03 3.7515877042e+03 0.0000000000e+00 0.0000e+00 -1.0000e+00
       -2 -1    0    0    0  501 -0.0000000000e+00 -0.0000000000e+00 -2.6539636208e+02 2.6539636208e+02 0.0000000000e+00 0.0000e+00 1.0000e+00
      -13  1    1    2    0    0 +5.5759391362e+02 +7.5264494856e+02 +1.0508557056e+03 1.4077226663e+03 0.0000000000e+00 0.0000e+00 1.0000e+00
       13  1    1    2    0    0 -5.5759391362e+02 -7.5264494856e+02 +2.4353356365e+03 2.6092614000e+03 0.0000000000e+00 0.0000e+00 -1.0000e+00
<mgrwt>
<rscale>  0 0.19956530E+04</rscale>
<asrwt>0</asrwt>
<pdfrwt beam="1">  1        2 0.57716730E+00 0.19956530E+04</pdfrwt>
<pdfrwt beam="2">  1       -2 0.40830212E-01 0.19956530E+04</pdfrwt>
<totfact> 0.32117662E+00</totfact>
</mgrwt>
<rwgt>
<wgt id='morphing_basis_vector_1'> +1.3653110e-04 </wgt>
<wgt id='morphing_basis_vector_2'> +9.3754529e-05 </wgt>
<wgt id='morphing_basis_vector_3'> +1.4617968e-04 </wgt>
<wgt id='morphing_basis_vector_4'> +9.8189901e-05 </wgt>
<wgt id='morphing_basis_vector_5'> +1.6022691e-04 </wgt>
</rwgt>
</event>
<event>
 4      1 +6.0853000e-08 1.86643500e+03 7.81860800e-03 8.12871600e-02
        2 -1    0    0  501    0 +0.0000000000e+00 +0.0000000000e+00 +1.9426806856e+03 1.9426806856e+03 0.0000000000e+00 0.0000e+00 1.0000e+00
       -2 -1    0    0    0  501 -0.0000000000e+00 -0.0000000000e+00 -4.4829559771e+02 4.4829559771e+02 0.0000000000e+00 0.0000e+00 -1.0000e+00
      -13  1    1    2    0    0 +5.3881590088e+02 -6.0300121489e+02 +1.5049490248e+02 8.2254589895e+02 0.0000000000e+00 0.0000e+00 -1.0000e+00
       13  1    1    2    0    0 -5.3881590088e+02 +6.0300121489e+02 +1.3438901854e+03 1.5684303844e+03 0.0000000000e+00 0.0000e+00 1.0000e+00
<mgrwt>
<rscale>  0 0.18664353E+04</rscale>
<asrwt>0</asrwt>
<pdfrwt beam="1">  1        2 0.29887395E+00 0.18664353E+04</pdfrwt>
<pdfrwt beam="2">  1       -2 0.68968555E-01 0.18664353E+04</pdfrwt>
<totfact> 0.16615994E+01</totfact>
</mgrwt>
<rwgt>
<wgt id='morphing_basis_vector_1'> +1.0455382e-04 </wgt>
<wgt id='morphing_basis_vector_2'> +7.0400968e-05 </wgt>
<wgt id='morphing_basis_vector_3'> +1.1114599e-04 </wgt>
<wgt id='morphing_basis_vector_4'> +7.5711677e-05 </wgt>
<wgt id='morphing_basis_vector_5'> +1.2195787e-04 </wgt>
</rwgt>
</event>
<event>
 4      1 +6.0853000e-08 2.20849800e+03 7.81860800e-03 7.99102000e-02
        2 -1    0    0  501    0 +0.0000000000e+00 +0.0000000000e+00 +1.9056638113e+03 1.9056638113e+03 0.0000000000e+00 0.0000e+00 1.0000e+00
       -2 -1    0    0    0  501 -0.0000000000e+00 -0.0000000000e+00 -6.3986434943e+02 6.3986434943e+02 0.0000000000e+00 0.0000e+00 -1.0000e+00
      -13  1    1    2    0    0 +6.0634288217e+02 +3.8103460720e+02 -3.3592513119e+02 7.9100237446e+02 0.0000000000e+00 0.0000e+00 -1.0000e+00
       13  1    1    2    0    0 -6.0634288217e+02 -3.8103460720e+02 +1.6017245931e+03 1.7545257863e+03 0.0000000000e+00 0.0000e+00 1.0000e+00
<mgrwt>
<rscale>  0 0.22084984E+04</rscale>
<asrwt>0</asrwt>
<pdfrwt beam="1">  1        2 0.29317904E+00 0.22084984E+04</pdfrwt>
<pdfrwt beam="2">  1       -2 0.98440670E-01 0.22084984E+04</pdfrwt>
<totfact> 0.75354489E+00</totfact>
</mgrwt>
<rwgt>
<wgt id='morphing_basis_vector_1'> +2.0151378e-04 </wgt>
<wgt id='morphing_basis_vector_2'> +1.3499916e-04 </wgt>
<wgt id='morphing_basis_vector_3'> +2.1656415e-04 </wgt>
<wgt id='morphing_basis_vector_4'> +1.5184588e-04 </wgt>
<wgt id='morphing_basis_vector_5'> +2.4238236e-04 </wgt>
</rwgt>
</event>
<event>
 4      1 +6.0853000e-08 2.02630900e+03 7.81860800e-03 8.06084700e-02
        2 -1    0    0  501    0 +0.0000000000e+00 +0.0000000000e+00 +1.0718897090e+03 1.0718897090e+03 0.0000000000e+00 0.0000e+00 -1.0000e+00
       -2 -1    0    0    0  501 -0.0000000000e+00 -0.0000000000e+00 -9.5763789777e+02 9.5763789777e+02 0.0000000000e+00 0.0000e+00 1.0000e+00
      -13  1    1    2    0    0 -6.1283495019e+02 +3.0967003217e+02 -6.8905403894e+02 9.7275776716e+02 0.0000000000e+00 0.0000e+00 1.0000e+00
       13  1    1    2    0    0 +6.1283495019e+02 -3.0967003217e+02 +8.0330585015e+02 1.0567698396e+03 0.0000000000e+00 0.0000e+00 -1.0000e+00
<mgrwt>
<rscale>  0 0.20263092E+04</rscale>
<asrwt>0</asrwt>
<pdfrwt beam="1">  1        2 0.16490611E+00 0.20263092E+04</pdfrwt>
<pdfrwt beam="2">  1       -2 0.14732891E+00 0.20263092E+04</pdfrwt>
<totfact> 0.79639994E+00</totfact>
</mgrwt>
<rwgt>
<wgt id='morphing_basis_vector_1'> +1.4372536e-04 </wgt>
<wgt id='morphing_basis_vector_2'> +9.6002195e-05 </wgt>
<wgt id='morphing_basis_vector_3'> +1.5358769e-04 </wgt>
<wgt id='morphing_basis_vector_4'> +1.0690606e-04 </wgt>
<wgt id='morphing_basis_vector_5'> +1.7069938e-04 </wgt>
</rwgt>
</event>
<event>
 4      1 +6.0853000e-08 2.03699500e+03 7.81860800e-03 8.05654400e-02
        2 -1    0    0  501    0 +0.0000000000e+00 +0.0000000000e+00 +9.6251255946e+02 9.6251255946e+02 0.0000000000e+00 0.0000e+00 1.0000e+00
       -2 -1    0    0    0  501 -0.0000000000e+00 -0.0000000000e+00 -1.0777391064e+03 1.0777391064e+03 0.0000000000e+00 0.0000e+00 -1.0000e+00
      -13  1    1    2    0    0 -9.7097862939e+02 +2.9145517110e+02 +4.0481080362e+01 1.0145857940e+03 0.0000000000e+00 0.0000e+00 1.0000e+00
       13  1    1    2    0    0 +9.7097862939e+02 -2.9145517110e+02 -1.5570762728e+02 1.0256658719e+03 0.0000000000e+00 0.0000e+00 -1.0000e+00
<mgrwt>
<rscale>  0 0.20369953E+04</rscale>
<asrwt>0</asrwt>
<pdfrwt beam="1">  1        2 0.14807886E+00 0.20369953E+04</pdfrwt>
<pdfrwt beam="2">  1       -2 0.16580602E+00 0.20369953E+04</pdfrwt>
<totfact> 0.65866745E+00</totfact>
</mgrwt>
<rwgt>
<wgt id='morphing_basis_vector_1'> +1.5411816e-04 </wgt>
<wgt id='morphing_basis_vector_2'> +1.1992104e-04 </wgt>
<wgt id='morphing_basis_vector_3'> +1.6766846e-04 </wgt>
<wgt id='morphing_basis_vector_4'> +9.4460409e-05 </wgt>
<wgt id='morphing_basis_vector_5'> +1.7323239e-04 </wgt>
</rwgt>
</event>
<event>
 4      1 +6.0853000e-08 2.01088800e+03 7.81860800e-03 8.06710500e-02
        2 -1    0    0  501    0 +0.0000000000e+00 +0.0000000000e+00 +6.5123670512e+02 6.5123670512e+02 0.0000000000e+00 0.0000e+00 -1.0000e+00
       -2 -1    0    0    0  501 -0.0000000000e+00 -0.0000000000e+00 -1.5523044805e+03 1.5523044805e+03 0.0000000000e+00 0.0000e+00 1.0000e+00
      -13  1    1    2    0    0 -2.8780245848e-01 -6.1966315208e+02 -1.3181839371e+03 1.4565683633e+03 0.0000000000e+00 0.0000e+00 1.0000e+00
       13  1    1    2    0    0 +2.8780245848e-01 +6.1966315208e+02 +4.1711616174e+02 7.4697282231e+02 0.0000000000e+00 0.0000e+00 -1.0000e+00
<mgrwt>
<rscale>  0 0.20108880E+04</rscale>
<asrwt>0</asrwt>
<pdfrwt beam="1">  1        2 0.10019026E+00 0.20108880E+04</pdfrwt>
<pdfrwt beam="2">  1       -2 0.23881607E+00 0.20108880E+04</pdfrwt>
<totfact> 0.31834365E+00</totfact>
</mgrwt>
<rwgt>
<wgt id='morphing_basis_vector_1'> +1.3943286e-04 </wgt>
<wgt id='morphing_basis_vector_2'> +9.2984520e-05 </wgt>
<wgt id='morphing_basis_vector_3'> +1.4889771e-04 </wgt>
<wgt id='morphing_basis_vector_4'> +1.0373045e-04 </wgt>
<wgt id='morphing_basis_vector_5'> +1.6547005e-04 </wgt>
</rwgt>
</event>
<event>
 4      1 +6.0853000e-08 1.96259800e+03 7.81860800e-03 8.08708400e-02
        2 -1    0    0  501    0 +0.0000000000e+00 +0.0000000000e+00 +1.3430648135e+03 1.3430648135e+03 0.0000000000e+00 0.0000e+00 1.0000e+00
       -2 -1    0    0    0  501 -0.0000000000e+00 -0.0000000000e+00 -7.1697772994e+02 7.1697772994e+02 0.0000000000e+00 0.0000e+00 -1.0000e+00
      -13  1    1    2    0    0 +1.4824506857e+02 -9.4179042434e+02 +6.9122749706e+01 9.5588898846e+02 0.0000000000e+00 0.0000e+00 -1.0000e+00
       13  1    1    2    0    0 -1.4824506857e+02 +9.4179042434e+02 +5.5696433382e+02 1.1041535549e+03 0.0000000000e+00 0.0000e+00 1.0000e+00
<mgrwt>
<rscale>  0 0.19625978E+04</rscale>
<asrwt>0</asrwt>
<pdfrwt beam="1">  1        2 0.20662535E+00 0.19625978E+04</pdfrwt>
<pdfrwt beam="2">  1       -2 0.11030427E+00 0.19625978E+04</pdfrwt>
<totfact> 0.12013551E+01</totfact>
</mgrwt>
<rwgt>
<wgt id='morphing_basis_vector_1'> +1.2857202e-04 </wgt>
<wgt id='morphing_basis_vector_2'> +8.9789231e-05 </wgt>
<wgt id='morphing_basis_vector_3'> +1.3774017e-04 </wgt>
<wgt id='morphing_basis_vector_4'> +9.0357010e-05 </wgt>
<wgt id='morphing_basis_vector_5'> +1.4955900e-04 </wgt>
</rwgt>
</event>
<event>
 4      1 +6.0853000e-08 1.96099800e+03 7.81860800e-03 8.08775700e-02
        2 -1    0    0  501    0 +0.0000000000e+00 +0.0000000000e+00 +1.3702058748e+03 1.3702058748e+03 0.0000000000e+00 0.0000e+00 -1.0000e+00
       -2 -1    0    0    0  501 -0.0000000000e+00 -0.0000000000e+00 -7.0163058214e+02 7.0163058214e+02 0.0000000000e+00 0.0000e+00 1.0000e+00
      -13  1    1    2    0    0 +5.9069508961e+02 -1.4900350916e+02 -4.7741763070e+02 7.7398341632e+02 0.0000000000e+00 0.0000e+00 1.0000e+00
       13  1    1    2    0    0 -5.9069508961e+02 +1.4900350916e+02 +1.1459929233e+03 1.2978530406e+03 0.0000000000e+00 0.0000e+00 -1.0000e+00
<mgrwt>
<rscale>  0 0.19609981E+04</rscale>
<asrwt>0</asrwt>
<pdfrwt beam="1">  1        2 0.21080090E+00 0.19609981E+04</pdfrwt>
<pdfrwt beam="2">  1       -2 0.10794317E+00 0.19609981E+04</pdfrwt>
<totfact> 0.12240591E+01</totfact>
</mgrwt>
<rwgt>
<wgt id='morphing_basis_vector_1'> +1.2636493e-04 </wgt>
<wgt id='morphing_basis_vector_2'> +8.4176771e-05 </wgt>
<wgt id='morphing_basis_vector_3'> +1.3468967e-04 </wgt>
<wgt id='morphing_basis_vector_4'> +9.3620866e-05 </wgt>
<wgt id='morphing_basis_vector_5'> +1.4934217e-04 </wgt>
</rwgt>
</event>
<event>
 4      1 +6.0853000e-08 1.87475500e+03 7.81860800e-03 8.12501200e-02
        2 -1    0    0  501    0 +0.0000000000e+00 +0.0000000000e+00 +1.1692597113e+03 1.1692597113e+03 0.0000000000e+00 0.0000e+00 -1.0000e+00
       -2 -1    0    0    0  501 -0.0000000000e+00 -0.0000000000e+00 -7.5148093148e+02 7.5148093148e+02 0.0000000000e+00 0.0000e+00 1.0000e+00
      -13  1    1    2    0    0 -2.9781589872e+02 +8.5677774509e+02 -3.3372104785e+01 9.0767621506e+02 0.0000000000e+00 0.0000e+00 1.0000e+00
       13  1    1    2    0    0 +2.9781589872e+02 -8.5677774509e+02 +4.5115088460e+02 1.0130644277e+03 0.0000000000e+00 0.0000e+00 -1.0000e+00
<mgrwt>
<rscale>  0 0.18747548E+04</rscale>
<asrwt>0</asrwt>
<pdfrwt beam="1">  1        2 0.17988611E+00 0.18747548E+04</pdfrwt>
<pdfrwt beam="2">  1       -2 0.11561245E+00 0.18747548E+04</pdfrwt>
<totfact> 0.13542559E+01</totfact>
</mgrwt>
<rwgt>
<wgt id='morphing_basis_vector_1'> +1.0738657e-04 </wgt>
<wgt id='morphing_basis_vector_2'> +7.4615181e-05 </wgt>
<wgt id='morphing_basis_vector_3'> +1.1456626e-04 </wgt>
<wgt id='morphing_basis_vector_4'> +7.5134589e-05 </wgt>
<wgt id='morphing_basis_vector_5'> +1.2404435e-04 </wgt>
</rwgt>
</event>
<event>
 4      1 +6.0853000e-08 1.86923600e+03 7.81860800e-03 8.12746700e-02
        2 -1    0    0  501    0 +0.0000000000e+00 +0.0000000000e+00 +3.4058260245e+03 3.4058260245e+03 0.0000000000e+00 0.0000e+00 -1.0000e+00
       -2 -1    0    0    0  501 -0.0000000000e+00 -0.0000000000e+00 -2.5647536129e+02 2.5647536129e+02 0.0000000000e+00 0.0000e+00 1.0000e+00
      -13  1    1    2    0    0 -8.4006015455e+02 -6.9955745936e+01 +7.8386678537e+02 1.1511046898e+03 0.0000000000e+00 0.0000e+00 1.0000e+00
       13  1    1    2    0    0 +8.4006015455e+02 +6.9955745936e+01 +2.3654838779e+03 2.5111966960e+03 0.0000000000e+00 0.0000e+00 -1.0000e+00
<mgrwt>
<rscale>  0 0.18692356E+04</rscale>
<asrwt>0</asrwt>
<pdfrwt beam="1">  1        2 0.52397320E+00 0.18692356E+04</pdfrwt>
<pdfrwt beam="2">  1       -2 0.39457750E-01 0.18692356E+04</pdfrwt>
<totfact> 0.62703572E+00</totfact>
</mgrwt>
<rwgt>
<wgt id='morphing_basis_vector_1'> +1.0535692e-04 </wgt>
<wgt id='morphing_basis_vector_2'> +7.1379760e-05 </wgt>
<wgt id='morphing_basis_vector_3'> +1.1208293e-04 </wgt>
<wgt id='morphing_basis_vector_4'> +7.5806120e-05 </wgt>
<wgt id='morphing_basis_vector_5'> +1.2267951e-04 </wgt>
</rwgt>
</event>
<event>
 4      1 +6.0853000e-08 2.18717400e+03 7.81860800e-03 7.99882600e-02
        2 -1    0    0  501    0 +0.0000000000e+00 +0.0000000000e+00 +3.3865432706e+03 3.3865432706e+03 0.0000000000e+00 0.0000e+00 -1.0000e+00
       -2 -1    0    0    0  501 -0.0000000000e+00 -0.0000000000e+00 -3.5314269849e+02 3.5314269849e+02 0.0000000000e+00 0.0000e+00 1.0000e+00
      -13  1    1    2    0    0 +4.0527982879e+02 +3.3941784395e+02 -1.2016316210e+02 5.4212120226e+02 0.0000000000e+00 0.0000e+00 1.0000e+00
       13  1    1    2    0    0 -4.0527982879e+02 -3.3941784395e+02 +3.1535637342e+03 3.1975647668e+03 0.0000000000e+00 0.0000e+00 -1.0000e+00
<mgrwt>
<rscale>  0 0.21871745E+04</rscale>
<asrwt>0</asrwt>
<pdfrwt beam="1">  1        2 0.52100664E+00 0.21871745E+04</pdfrwt>
<pdfrwt beam="2">  1       -2 0.54329648E-01 0.21871745E+04</pdfrwt>
<totfact> 0.33834773E+00</totfact>
</mgrwt>
<rwgt>
<wgt id='morphing_basis_vector_1'> +1.9385951e-04 </wgt>
<wgt id='morphing_basis_vector_2'> +1.2957113e-04 </wgt>
<wgt id='morphing_basis_vector_3'> +2.0816790e-04 </wgt>
<wgt id='morphing_basis_vector_4'> +1.4619574e-04 </wgt>
<wgt id='morphing_basis_vector_5'> +2.3302309e-04 </wgt>
</rwgt>
</event>
<event>
 4      1 +6.0853000e-08 2.15147100e+03 7.81860800e-03 8.01210400e-02
        2 -1    0    0  501    0 +0.0000000000e+00 +0.0000000000e+00 +2.5849838302e+03 2.5849838302e+03 0.0000000000e+00 0.0000e+00 -1.0000e+00
       -2 -1    0    0    0  501 -0.0000000000e+00 -0.0000000000e+00 -4.4766484757e+02 4.4766484757e+02 0.0000000000e+00 0.0000e+00 1.0000e+00
      -13  1    1    2    0    0 -6.3195083974e+02 -7.6119169719e+02 +4.7324042769e+02 1.0966910076e+03 0.0000000000e+00 0.0000e+00 1.0000e+00
       13  1    1    2    0    0 +6.3195083974e+02 +7.6119169719e+02 +1.6640785549e+03 1.9359576702e+03 0.0000000000e+00 0.0000e+00 -1.0000e+00
<mgrwt>
<rscale>  0 0.21514706E+04</rscale>
<asrwt>0</asrwt>
<pdfrwt beam="1">  1        2 0.39768981E+00 0.21514706E+04</pdfrwt>
<pdfrwt beam="2">  1       -2 0.68871517E-01 0.21514706E+04</pdfrwt>
<totfact> 0.69089675E+00</totfact>
</mgrwt>
<rwgt>
<wgt id='morphing_basis_vector_1'> +1.8305591e-04 </wgt>
<wgt id='morphing_basis_vector_2'> +1.2534207e-04 </wgt>
<wgt id='morphing_basis_vector_3'> +1.9691198e-04 </wgt>
<wgt id='morphing_basis_vector_4'> +1.3403104e-04 </wgt>
<wgt id='morphing_basis_vector_5'> +2.1771540e-04 </wgt>
</rwgt>
</event>
<event>
 4      1 +6.0853000e-08 2.16531600e+03 7.81860800e-03 8.00692300e-02
        2 -1    0    0  501    0 +0.0000000000e+00 +0.0000000000e+00 +2.2703953051e+03 2.2703953051e+03 0.0000000000e+00 0.0000e+00 -1.0000e+00
       -2 -1    0    0    0  501 -0.0000000000e+00 -0.0000000000e+00 -5.1627511682e+02 5.1627511682e+02 0.0000000000e+00 0.0000e+00 1.0000e+00
      -13  1    1    2    0    0 +2.2014914044e+02 +7.3890946033e+02 -1.0110884488e+02 7.7760904902e+02 0.0000000000e+00 0.0000e+00 1.0000e+00
       13  1    1    2    0    0 -2.2014914044e+02 -7.3890946033e+02 +1.8552290332e+03 2.0090613729e+03 0.0000000000e+00 0.0000e+00 -1.0000e+00
<mgrwt>
<rscale>  0 0.21653162E+04</rscale>
<asrwt>0</asrwt>
<pdfrwt beam="1">  1        2 0.34929158E+00 0.21653162E+04</pdfrwt>
<pdfrwt beam="2">  1       -2 0.79426942E-01 0.21653162E+04</pdfrwt>
<totfact> 0.77385614E+00</totfact>
</mgrwt>
<rwgt>
<wgt id='morphing_basis_vector_1'> +1.8655121e-04 </wgt>
<wgt id='morphing_basis_vector_2'> +1.2508914e-04 </wgt>
<wgt id='morphing_basis_vector_3'> +2.0027507e-04 </wgt>
<wgt id='morphing_basis_vector_4'> +1.3994743e-04 </wgt>
<wgt id='morphing_basis_vector_5'> +2.2366227e-04 </wgt>
</rwgt>
</event>
<event>
 4      1 +6.0853000e-08 1.87504700e+03 7.81860800e-03 8.12488200e-02
        2 -1    0    0  501    0 +0.0000000000e+00 +0.0000000000e+00 +8.9088320233e+02 8.9088320233e+02 0.0000000000e+00 0.0000e+00 -1.0000e+00
       -2 -1    0    0    0  501 -0.0000000000e+00 -0.0000000000e+00 -9.8660565331e+02 9.8660565331e+02 0.0000000000e+00 0.0000e+00 1.0000e+00
      -13  1    1    2    0    0 +5.6226794985e+02 +3.1310474719e+02 -7.3048985534e+02 9.7354776919e+02 0.0000000000e+00 0.0000e+00 1.0000e+00
       13  1    1    2    0    0 -5.6226794985e+02 -3.1310474719e+02 +6.3476740436e+02 9.0394108646e+02 0.0000000000e+00 0.0000e+00 -1.0000e+00
<mgrwt>
<rscale>  0 0.18750471E+04</rscale>
<asrwt>0</asrwt>
<pdfrwt beam="1">  1        2 0.13705896E+00 0.18750471E+04</pdfrwt>
<pdfrwt beam="2">  1       -2 0.15178548E+00 0.18750471E+04</pdfrwt>
<totfact> 0.96329322E+00</totfact>
</mgrwt>
<rwgt>
<wgt id='morphing_basis_vector_1'> +1.0608496e-04 </wgt>
<wgt id='morphing_basis_vector_2'> +7.0608559e-05 </wgt>
<wgt id='morphing_basis_vector_3'> +1.1268374e-04 </wgt>
<wgt id='morphing_basis_vector_4'> +7.7871963e-05 </wgt>
<wgt id='morphing_basis_vector_5'> +1.2433351e-04 </wgt>
</rwgt>
</event>
<event>
 4      1 +6.0853000e-08 2.01078700e+03 7.81860800e-03 8.06714600e-02
        2 -1    0    0  501    0 +0.0000000000e+00 +0.0000000000e+00 +2.4364841848e+03 2.4364841848e+03 0.0000000000e+00 0.0000e+00 -1.0000e+00
       -2 -1    0    0    0  501 -0.0000000000e+00 -0.0000000000e+00 -4.1486658865e+02 4.1486658865e+02 0.0000000000e+00 0.0000e+00 1.0000e+00
      -13  1    1    2    0    0 -7.8575131028e+02 -2.2466952267e+02 +1.8040346870e+02 8.3691512565e+02 0.0000000000e+00 0.0000e+00 1.0000e+00
       13  1    1    2    0    0 +7.8575131028e+02 +2.2466952267e+02 +1.8412141274e+03 2.0144356478e+03 0.0000000000e+00 0.0000e+00 -1.0000e+00
<mgrwt>
<rscale>  0 0.20107868E+04</rscale>
<asrwt>0</asrwt>
<pdfrwt beam="1">  1        2 0.37484371E+00 0.20107868E+04</pdfrwt>
<pdfrwt beam="2">  1       -2 0.63825630E-01 0.20107868E+04</pdfrwt>
<totfact> 0.10073150E+01</totfact>
</mgrwt>
<rwgt>
<wgt id='morphing_basis_vector_1'> +1.3971621e-04 </wgt>
<wgt id='morphing_basis_vector_2'> +9.3886261e-05 </wgt>
<wgt id='morphing_basis_vector_3'> +1.4932097e-04 </wgt>
<wgt id='morphing_basis_vector_4'> +1.0309010e-04 </wgt>
<wgt id='morphing_basis_vector_5'> +1.6538718e-04 </wgt>
</rwgt>
</event>
<event>
 4      1 +6.0853000e-08 1.90137000e+03 7.81860800e-03 8.11329600e-02
        2 -1    0    0  501    0 +0.0000000000e+00 +0.0000000000e+00 +1.7607748698e+03 1.7607748698e+03 0.0000000000e+00 0.0000e+00 1.0000e+00
       -2 -1    0    0    0  501 -0.0000000000e+00 -0.0000000000e+00 -5.1329787092e+02 5.1329787092e+02 0.0000000000e+00 0.0000e+00 -1.0000e+00
      -13  1    1    2    0    0 +2.6014180467e+02 +9.1328537256e+02 +5.6974439316e+02 1.1074170867e+03 0.0000000000e+00 0.0000e+00 -1.0000e+00
       13  1    1    2    0    0 -2.6014180467e+02 -9.1328537256e+02 +6.7773260568e+02 1.1666556540e+03 0.0000000000e+00 0.0000e+00 1.0000e+00
<mgrwt>
<rscale>  0 0.19013700E+04</rscale>
<asrwt>0</asrwt>
<pdfrwt beam="1">  1        2 0.27088844E+00 0.19013700E+04</pdfrwt>
<pdfrwt beam="2">  1       -2 0.78968904E-01 0.19013700E+04</pdfrwt>
<totfact> 0.15556142E+01</totfact>
</mgrwt>
<rwgt>
<wgt id='morphing_basis_vector_1'> +1.1535454e-04 </wgt>
<wgt id='morphing_basis_vector_2'> +8.4478054e-05 </wgt>
<wgt id='morphing_basis_vector_3'> +1.2390853e-04 </wgt>
<wgt id='morphing_basis_vector_4'> +7.5875830e-05 </wgt>
<wgt id='morphing_basis_vector_5'> +1.3111640e-04 </wgt>
</rwgt>
</event>
<event>
 4      1 +6.0853000e-08 1.87554400e+03 7.81860800e-03 8.12466200e-02
        2 -1    0    0  501    0 +0.0000000000e+00 +0.0000000000e+00 +1.9537355532e+03 1.9537355532e+03 0.0000000000e+00 0.0000e+00 -1.0000e+00
       -2 -1    0    0    0  501 -0.0000000000e+00 -0.0000000000e+00 -4.5012026243e+02 4.5012026243e+02 0.0000000000e+00 0.0000e+00 1.0000e+00
      -13  1    1    2    0    0 -7.4707895448e+02 -5.3677409854e+02 +9.8521003109e+02 1.3479214378e+03 0.0000000000e+00 0.0000e+00 1.0000e+00
       13  1    1    2    0    0 +7.4707895448e+02 +5.3677409854e+02 +5.1840525973e+02 1.0559343779e+03 0.0000000000e+00 0.0000e+00 -1.0000e+00
<mgrwt>
<rscale>  0 0.18755436E+04</rscale>
<asrwt>0</asrwt>
<pdfrwt beam="1">  1        2 0.30057469E+00 0.18755436E+04</pdfrwt>
<pdfrwt beam="2">  1       -2 0.69249272E-01 0.18755436E+04</pdfrwt>
<totfact> 0.16226342E+01</totfact>
</mgrwt>
<rwgt>
<wgt id='morphing_basis_vector_1'> +1.1369947e-04 </wgt>
<wgt id='morphing_basis_vector_2'> +9.2930130e-05 </wgt>
<wgt id='morphing_basis_vector_3'> +1.2353004e-04 </wgt>
<wgt id='morphing_basis_vector_4'> +6.3191420e-05 </wgt>
<wgt id='morphing_basis_vector_5'> +1.2331534e-04 </wgt>
</rwgt>
</event>
<event>
 4      1 +6.0853000e-08 1.95315000e+03 7.81860800e-03 8.09106400e-02
        2 -1    0    0  501    0 +0.0000000000e+00 +0.0000000000e+00 +1.0742131265e+03 1.0742131265e+03 0.0000000000e+00 0.0000e+00 -1.0000e+00
       -2 -1    0    0    0  501 -0.0000000000e+00 -0.0000000000e+00 -8.8781107882e+02 8.8781107882e+02 0.0000000000e+00 0.0000e+00 1.0000e+00
      -13  1    1    2    0    0 +1.6372161805e+02 -8.7255721953e+02 -3.1551059287e+02 9.4218246842e+02 0.0000000000e+00 0.0000e+00 1.0000e+00
       13  1    1    2    0    0 -1.6372161805e+02 +8.7255721953e+02 +5.0191264054e+02 1.0198417369e+03 0.0000000000e+00 0.0000e+00 -1.0000e+00
<mgrwt>
<rscale>  0 0.19531496E+04</rscale>
<asrwt>0</asrwt>
<pdfrwt beam="1">  1        2 0.16526356E+00 0.19531496E+04</pdfrwt>
<pdfrwt beam="2">  1       -2 0.13658632E+00 0.19531496E+04</pdfrwt>
<totfact> 0.98619391E+00</totfact>
</mgrwt>
<rwgt>
<wgt id='morphing_basis_vector_1'> +1.2516152e-04 </wgt>
<wgt id='morphing_basis_vector_2'> +8.5116398e-05 </wgt>
<wgt id='morphing_basis_vector_3'> +1.3365722e-04 </wgt>
<wgt id='morphing_basis_vector_4'> +9.0584042e-05 </wgt>
<wgt id='morphing_basis_vector_5'> +1.4679673e-04 </wgt>
</rwgt>
</event>
<event>
 4      1 +6.0853000e-08 1.87977500e+03 7.81860800e-03 8.12278700e-02
        2 -1    0    0  501    0 +0.0000000000e+00 +0.0000000000e+00 +3.7826311760e+03 3.7826311760e+03 0.0000000000e+00 0.0000e+00 -1.0000e+00
       -2 -1    0    0    0  501 -0.0000000000e+00 -0.0000000000e+00 -2.3353811837e+02 2.3353811837e+02 0.0000000000e+00 0.0000e+00 1.0000e+00
      -13  1    1    2    0    0 -6.2253776005e+02 +6.9520687422e+02 +1.5354599305e+03 1.7968035671e+03 0.0000000000e+00 0.0000e+00 1.0000e+00
       13  1    1    2    0    0 +6.2253776005e+02 -6.9520687422e+02 +2.0136331271e+03 2.2193657272e+03 0.0000000000e+00 0.0000e+00 -1.0000e+00
<mgrwt>
<rscale>  0 0.18797751E+04</rscale>
<asrwt>0</asrwt>
<pdfrwt beam="1">  1        2 0.58194321E+00 0.18797751E+04</pdfrwt>
<pdfrwt beam="2">  1       -2 0.35928944E-01 0.18797751E+04</pdfrwt>
<totfact> 0.38948844E+00</totfact>
</mgrwt>
<rwgt>
<wgt id='morphing_basis_vector_1'> +1.0954379e-04 </wgt>
<wgt id='morphing_basis_vector_2'> +7.8458901e-05 </wgt>
<wgt id='morphing_basis_vector_3'> +1.1726880e-04 </wgt>
<wgt id='morphing_basis_vector_4'> +7.3935444e-05 </wgt>
<wgt id='morphing_basis_vector_5'> +1.2525085e-04 </wgt>
</rwgt>
</event>
<event>
 4      1 +6.0853000e-08 2.06771900e+03 7.81860800e-03 8.04432500e-02
        2 -1    0    0  501    0 +0.0000000000e+00 +0.0000000000e+00 +1.2286848523e+03 1.2286848523e+03 0.0000000000e+00 0.0000e+00 1.0000e+00
       -2 -1    0    0    0  501 -0.0000000000e+00 -0.0000000000e+00 -8.6992652460e+02 8.6992652460e+02 0.0000000000e+00 0.0000e+00 -1.0000e+00
      -13  1    1    2    0    0 +8.2002345952e+02 -1.2109781278e+02 -4.4772120835e+02 9.4210266682e+02 0.0000000000e+00 0.0000e+00 -1.0000e+00
       13  1    1    2    0    0 -8.2002345952e+02 +1.2109781278e+02 +8.0647953599e+02 1.1565087100e+03 0.0000000000e+00 0.0000e+00 1.0000e+00
<mgrwt>
<rscale>  0 0.20677191E+04</rscale>
<asrwt>0</asrwt>
<pdfrwt beam="1">  1        2 0.18902844E+00 0.20677191E+04</pdfrwt>
<pdfrwt beam="2">  1       -2 0.13383485E+00 0.20677191E+04</pdfrwt>
<totfact> 0.83653083E+00</totfact>
</mgrwt>
<rwgt>
<wgt id='morphing_basis_vector_1'> +1.5584714e-04 </wgt>
<wgt id='morphing_basis_vector_2'> +1.0476815e-04 </wgt>
<wgt id='morphing_basis_vector_3'> +1.6688033e-04 </wgt>
<wgt id='morphing_basis_vector_4'> +1.1558886e-04 </wgt>
<wgt id='morphing_basis_vector_5'> +1.8533504e-04 </wgt>
</rwgt>
</event>
<event>
 4      1 +6.0853000e-08 2.10936600e+03 7.81860800e-03 8.02810800e-02
        2 -1    0    0  501    0 +0.0000000000e+00 +0.0000000000e+00 +9.1435501369e+02 9.1435501369e+02 0.0000000000e+00 0.0000e+00 -1.0000e+00
       -2 -1    0    0    0  501 -0.0000000000e+00 -0.0000000000e+00 -1.2165476921e+03 1.2165476921e+03 0.0000000000e+00 0.0000e+00 1.0000e+00
      -13  1    1    2    0    0 -3.5752346263e+02 -1.2171236530e+02 -1.1458938896e+03 1.2065279658e+03 0.0000000000e+00 0.0000e+00 1.0000e+00
       13  1    1    2    0    0 +3.5752346263e+02 +1.2171236530e+02 +8.4370121114e+02 9.2437473996e+02 0.0000000000e+00 0.0000e+00 -1.0000e+00
<mgrwt>
<rscale>  0 0.21093662E+04</rscale>
<asrwt>0</asrwt>
<pdfrwt beam="1">  1        2 0.14067000E+00 0.21093662E+04</pdfrwt>
<pdfrwt beam="2">  1       -2 0.18716118E+00 0.21093662E+04</pdfrwt>
<totfact> 0.48200705E+00</totfact>
</mgrwt>
<rwgt>
<wgt id='morphing_basis_vector_1'> +1.6811612e-04 </wgt>
<wgt id='morphing_basis_vector_2'> +1.1214769e-04 </wgt>
<wgt id='morphing_basis_vector_3'> +1.8009432e-04 </wgt>
<wgt id='morphing_basis_vector_4'> +1.2621149e-04 </wgt>
<wgt id='morphing_basis_vector_5'> +2.0108689e-04 </wgt>
</rwgt>
</event>
<event>
 4      1 +6.0853000e-08 2.02144300e+03 7.81860800e-03 8.06281500e-02
        2 -1    0    0  501    0 +0.0000000000e+00 +0.0000000000e+00 +1.3272327154e+03 1.3272327154e+03 0.0000000000e+00 0.0000e+00 1.0000e+00
       -2 -1    0    0    0  501 -0.0000000000e+00 -0.0000000000e+00 -7.6969024973e+02 7.6969024973e+02 0.0000000000e+00 0.0000e+00 -1.0000e+00
      -13  1    1    2    0    0 -2.1471242050e+01 -9.9374152797e+02 +4.6884751748e+02 1.0990001061e+03 0.0000000000e+00 0.0000e+00 -1.0000e+00
       13  1    1    2    0    0 +2.1471242050e+01 +9.9374152797e+02 +8.8694948177e+01 9.9792285898e+02 0.0000000000e+00 0.0000e+00 1.0000e+00
<mgrwt>
<rscale>  0 0.20214431E+04</rscale>
<asrwt>0</asrwt>
<pdfrwt beam="1">  1        2 0.20418965E+00 0.20214431E+04</pdfrwt>
<pdfrwt beam="2">  1       -2 0.11841388E+00 0.20214431E+04</pdfrwt>
<totfact> 0.10186623E+01</totfact>
</mgrwt>
<rwgt>
<wgt id='morphing_basis_vector_1'> +1.5202706e-04 </wgt>
<wgt id='morphing_basis_vector_2'> +1.2365792e-04 </wgt>
<wgt id='morphing_basis_vector_3'> +1.6620816e-04 </wgt>
<wgt id='morphing_basis_vector_4'> +8.6628915e-05 </wgt>
<wgt id='morphing_basis_vector_5'> +1.6751340e-04 </wgt>
</rwgt>
</event>
<event>
 4      1 +6.0853000e-08 2.15991000e+03 7.81860800e-03 8.00894100e-02
        2 -1    0    0  501    0 +0.0000000000e+00 +0.0000000000e+00 +2.3075626186e+03 2.3075626186e+03 0.0000000000e+00 0.0000e+00 -1.0000e+00
       -2 -1    0    0    0  501 -0.0000000000e+00 -0.0000000000e+00 -5.0542625675e+02 5.0542625675e+02 0.0000000000e+00 0.0000e+00 1.0000e+00
      -13  1    1    2    0    0 +8.8400311353e+02 +3.1834886431e+02 +2.0763398993e+02 9.6224704619e+02 0.0000000000e+00 0.0000e+00 1.0000e+00
       13  1    1    2    0    0 -8.8400311353e+02 -3.1834886431e+02 +1.5945023719e+03 1.8507418291e+03 0.0000000000e+00 0.0000e+00 -1.0000e+00
<mgrwt>
<rscale>  0 0.21599099E+04</rscale>
<asrwt>0</asrwt>
<pdfrwt beam="1">  1        2 0.35500963E+00 0.21599099E+04</pdfrwt>
<pdfrwt beam="2">  1       -2 0.77757887E-01 0.21599099E+04</pdfrwt>
<totfact> 0.77290137E+00</totfact>
</mgrwt>
<rwgt>
<wgt id='morphing_basis_vector_1'> +1.8535157e-04 </wgt>
<wgt id='morphing_basis_vector_2'> +1.2570011e-04 </wgt>
<wgt id='morphing_basis_vector_3'> +1.9921150e-04 </wgt>
<wgt id='morphing_basis_vector_4'> +1.3727476e-04 </wgt>
<wgt id='morphing_basis_vector_5'> +2.2129857e-04 </wgt>
</rwgt>
</event>
<event>
 4      1 +6.0853000e-08 2.16713800e+03 7.81860800e-03 8.00624500e-02
        2 -1    0    0  501    0 +0.0000000000e+00 +0.0000000000e+00 +1.1394288462e+03 1.1394288462e+03 0.0000000000e+00 0.0000e+00 -1.0000e+00
       -2 -1    0    0    0  501 -0.0000000000e+00 -0.0000000000e+00 -1.0304474406e+03 1.0304474406e+03 0.0000000000e+00 0.0000e+00 1.0000e+00
      -13  1    1    2    0    0 +1.0271156484e+03 +2.3283448328e+02 -2.0067065994e+02 1.0721227381e+03 0.0000000000e+00 0.0000e+00 1.0000e+00
       13  1    1    2    0    0 -1.0271156484e+03 -2.3283448328e+02 +3.0965206562e+02 1.0977535487e+03 0.0000000000e+00 0.0000e+00 -1.0000e+00
<mgrwt>
<rscale>  0 0.21671378E+04</rscale>
<asrwt>0</asrwt>
<pdfrwt beam="1">  1        2 0.17529674E+00 0.21671378E+04</pdfrwt>
<pdfrwt beam="2">  1       -2 0.15853038E+00 0.21671378E+04</pdfrwt>
<totfact> 0.58011802E+00</totfact>
</mgrwt>
<rwgt>
<wgt id='morphing_basis_vector_1'> +1.8973114e-04 </wgt>
<wgt id='morphing_basis_vector_2'> +1.3308343e-04 </wgt>
<wgt id='morphing_basis_vector_3'> +2.0475285e-04 </wgt>
<wgt id='morphing_basis_vector_4'> +1.3526628e-04 </wgt>
<wgt id='morphing_basis_vector_5'> +2.2401699e-04 </wgt>
</rwgt>
</event>
<event>
 4      1 +6.0853000e-08 1.88573900e+03 7.81860800e-03 8.12015200e-02
        2 -1    0    0  501    0 +0.0000000000e+00 +0.0000000000e+00 +1.1135999665e+03 1.1135999665e+03 0.0000000000e+00 0.0000e+00 -1.0000e+00
       -2 -1    0    0    0  501 -0.0000000000e+00 -0.0000000000e+00 -7.9831469362e+02 7.9831469362e+02 0.0000000000e+00 0.0000e+00 1.0000e+00
      -13  1    1    2    0    0 -7.8096688157e+02 +1.8616318862e+02 -3.4362596657e+02 8.7329537260e+02 0.0000000000e+00 0.0000e+00 1.0000e+00
       13  1    1    2    0    0 +7.8096688157e+02 -1.8616318862e+02 +6.5891123940e+02 1.0386192875e+03 0.0000000000e+00 0.0000e+00 -1.0000e+00
<mgrwt>
<rscale>  0 0.18857393E+04</rscale>
<asrwt>0</asrwt>
<pdfrwt beam="1">  1        2 0.17132307E+00 0.18857393E+04</pdfrwt>
<pdfrwt beam="2">  1       -2 0.12281765E+00 0.18857393E+04</pdfrwt>
<totfact> 0.12481117E+01</totfact>
</mgrwt>
<rwgt>
<wgt id='morphing_basis_vector_1'> +1.0878309e-04 </wgt>
<wgt id='morphing_basis_vector_2'> +7.3147166e-05 </wgt>
<wgt id='morphing_basis_vector_3'> +1.1572033e-04 </wgt>
<wgt id='morphing_basis_vector_4'> +7.9085347e-05 </wgt>
<wgt id='morphing_basis_vector_5'> +1.2721170e-04 </wgt>
</rwgt>
</event>
<event>
 4      1 +6.0853000e-08 1.90666900e+03 7.81860800e-03 8.11098700e-02
        2 -1    0    0  501    0 +0.0000000000e+00 +0.0000000000e+00 +2.1678093868e+03 2.1678093868e+03 0.0000000000e+00 0.0000e+00 1.0000e+00
       -2 -1    0    0    0  501 -0.0000000000e+00 -0.0000000000e+00 -4.1924664406e+02 4.1924664406e+02 0.0000000000e+00 0.0000e+00 -1.0000e+00
      -13  1    1    2    0    0 +6.3930224067e+02 +1.0542032483e+02 -7.4566254086e+01 6.5221233204e+02 0.0000000000e+00 0.0000e+00 -1.0000e+00
       13  1    1    2    0    0 -6.3930224067e+02 -1.0542032483e+02 +1.8231289968e+03 1.9348436988e+03 0.0000000000e+00 0.0000e+00 1.0000e+00
<mgrwt>
<rscale>  0 0.19066691E+04</rscale>
<asrwt>0</asrwt>
<pdfrwt beam="1">  1        2 0.33350913E+00 0.19066691E+04</pdfrwt>
<pdfrwt beam="2">  1       -2 0.64499485E-01 0.19066691E+04</pdfrwt>
<totfact> 0.14234333E+01</totfact>
</mgrwt>
<rwgt>
<wgt id='morphing_basis_vector_1'> +1.1324744e-04 </wgt>
<wgt id='morphing_basis_vector_2'> +7.5426995e-05 </wgt>
<wgt id='morphing_basis_vector_3'> +1.2045564e-04 </wgt>
<wgt id='morphing_basis_vector_4'> +8.3393006e-05 </wgt>
<wgt id='morphing_basis_vector_5'> +1.3313756e-04 </wgt>
</rwgt>
</event>
<event>
 4      1 +6.0853000e-08 1.95767900e+03 7.81860800e-03 8.08915300e-02
        2 -1    0    0  501    0 +0.0000000000e+00 +0.0000000000e+00 +9.9069243659e+02 9.9069243659e+02 0.0000000000e+00 0.0000e+00 1.0000e+00
       -2 -1    0    0    0  501 -0.0000000000e+00 -0.0000000000e+00 -9.6712789845e+02 9.6712789845e+02 0.0000000000e+00 0.0000e+00 -1.0000e+00
      -13  1    1    2    0    0 +4.7619171299e+02 +7.0370030587e+02 -4.7422991714e+02 9.7306047207e+02 0.0000000000e+00 0.0000e+00 -1.0000e+00
       13  1    1    2    0    0 -4.7619171299e+02 -7.0370030587e+02 +4.9779445529e+02 9.8475986297e+02 0.0000000000e+00 0.0000e+00 1.0000e+00
<mgrwt>
<rscale>  0 0.19576785E+04</rscale>
<asrwt>0</asrwt>
<pdfrwt beam="1">  1        2 0.15241422E+00 0.19576785E+04</pdfrwt>
<pdfrwt beam="2">  1       -2 0.14878891E+00 0.19576785E+04</pdfrwt>
<totfact> 0.87400818E+00</totfact>
</mgrwt>
<rwgt>
<wgt id='morphing_basis_vector_1'> +1.2602358e-04 </wgt>
<wgt id='morphing_basis_vector_2'> +8.5077193e-05 </wgt>
<wgt id='morphing_basis_vector_3'> +1.3449691e-04 </wgt>
<wgt id='morphing_basis_vector_4'> +9.1995904e-05 </wgt>
<wgt id='morphing_basis_vector_5'> +1.4823533e-04 </wgt>
</rwgt>
</event>
<event>
 4      1 +6.0853000e-08 2.02955100e+03 7.81860800e-03 8.05953900e-02
        2 -1    0    0  501    0 +0.0000000000e+00 +0.0000000000e+00 +1.3051309434e+03 1.3051309434e+03 0.0000000000e+00 0.0000e+00 -1.0000e+00
       -2 -1    0    0    0  501 -0.0000000000e+00 -0.0000000000e+00 -7.8901578030e+02 7.8901578030e+02 0.0000000000e+00 0.0000e+00 1.0000e+00
      -13  1    1    2    0    0 -3.6584440211e+02 -7.6591750595e+02 -3.1578819205e+02 9.0564559002e+02 0.0000000000e+00 0.0000e+00 1.0000e+00
       13  1    1    2    0    0 +3.6584440211e+02 +7.6591750595e+02 +8.3190335519e+02 1.1885011337e+03 0.0000000000e+00 0.0000e+00 -1.0000e+00
<mgrwt>
<rscale>  0 0.20295506E+04</rscale>
<asrwt>0</asrwt>
<pdfrwt beam="1">  1        2 0.20078938E+00 0.20295506E+04</pdfrwt>
<pdfrwt beam="2">  1       -2 0.12138704E+00 0.20295506E+04</pdfrwt>
<totfact> 0.98258889E+00</totfact>
</mgrwt>
<rwgt>
<wgt id='morphing_basis_vector_1'> +1.4498821e-04 </wgt>
<wgt id='morphing_basis_vector_2'> +9.7675944e-05 </wgt>
<wgt id='morphing_basis_vector_3'> +1.5509609e-04 </wgt>
<wgt id='morphing_basis_vector_4'> +1.0688847e-04 </wgt>
<wgt id='morphing_basis_vector_5'> +1.7175913e-04 </wgt>
</rwgt>
</event>
<event>
 4      1 +6.0853000e-08 1.90236600e+03 7.81860800e-03 8.11286100e-02
        2 -1    0    0  501    0 +0.0000000000e+00 +0.0000000000e+00 +2.6982877850e+03 2.6982877850e+03 0.0000000000e+00 0.0000e+00 -1.0000e+00
       -2 -1    0    0    0  501 -0.0000000000e+00 -0.0000000000e+00 -3.3530492070e+02 3.3530492070e+02 0.0000000000e+00 0.0000e+00 1.0000e+00
      -13  1    1    2    0    0 +7.6370394323e+02 +1.7733486043e+01 +2.7774863195e+02 8.1283607941e+02 0.0000000000e+00 0.0000e+00 1.0000e+00
       13  1    1    2    0    0 -7.6370394323e+02 -1.7733486043e+01 +2.0852342324e+03 2.2207566263e+03 0.0000000000e+00 0.0000e+00 -1.0000e+00
<mgrwt>
<rscale>  0 0.19023661E+04</rscale>
<asrwt>0</asrwt>
<pdfrwt beam="1">  1        2 0.41512118E+00 0.19023661E+04</pdfrwt>
<pdfrwt beam="2">  1       -2 0.51585374E-01 0.19023661E+04</pdfrwt>
<totfact> 0.10907110E+01</totfact>
</mgrwt>
<rwgt>
<wgt id='morphing_basis_vector_1'> +1.1243357e-04 </wgt>
<wgt id='morphing_basis_vector_2'> +7.5295564e-05 </wgt>
<wgt id='morphing_basis_vector_3'> +1.1963587e-04 </wgt>
<wgt id='morphing_basis_vector_4'> +8.2266739e-05 </wgt>
<wgt id='morphing_basis_vector_5'> +1.3188501e-04 </wgt>
</rwgt>
</event>
<event>
 4      1 +6.0853000e-08 2.07329800e+03 7.81860800e-03 8.04213000e-02
        2 -1    0    0  501    0 +0.0000000000e+00 +0.0000000000e+00 +1.8976520364e+03 1.8976520364e+03 0.0000000000e+00 0.0000e+00 -1.0000e+00
       -2 -1    0    0    0  501 -0.0000000000e+00 -0.0000000000e+00 -5.6630039121e+02 5.6630039121e+02 0.0000000000e+00 0.0000e+00 1.0000e+00
      -13  1    1    2    0    0 -1.4819003685e+02 +5.0334048078e+02 -3.9683516771e+02 6.5786782635e+02 0.0000000000e+00 0.0000e+00 1.0000e+00
       13  1    1    2    0    0 +1.4819003685e+02 -5.0334048078e+02 +1.7281868129e+03 1.8060846012e+03 0.0000000000e+00 0.0000e+00 -1.0000e+00
<mgrwt>
<rscale>  0 0.20732979E+04</rscale>
<asrwt>0</asrwt>
<pdfrwt beam="1">  1        2 0.29194646E+00 0.20732979E+04</pdfrwt>
<pdfrwt beam="2">  1       -2 0.87123138E-01 0.20732979E+04</pdfrwt>
<totfact> 0.10266406E+01</totfact>
</mgrwt>
<rwgt>
<wgt id='morphing_basis_vector_1'> +1.5713687e-04 </wgt>
<wgt id='morphing_basis_vector_2'> +1.0480829e-04 </wgt>
<wgt id='morphing_basis_vector_3'> +1.6814684e-04 </wgt>
<wgt id='morphing_basis_vector_4'> +1.1759867e-04 </wgt>
<wgt id='morphing_basis_vector_5'> +1.8743950e-04 </wgt>
</rwgt>
</event>
<event>
 4      1 +6.0853000e-08 2.10946400e+03 7.81860800e-03 8.02807100e-02
        2 -1    0    0  501    0 +0.0000000000e+00 +0.0000000000e+00 +8.3497866329e+02 8.3497866329e+02 0.0000000000e+00 0.0000e+00 -1.0000e+00
       -2 -1    0    0    0  501 -0.0000000000e+00 -0.0000000000e+00 -1.3323206965e+03 1.3323206965e+03 0.0000000000e+00 0.0000e+00 1.0000e+00
      -13  1    1    2    0    0 +5.3459651075e+02 +8.1034500071e+02 -6.7229458207e+02 1.1808608955e+03 0.0000000000e+00 0.0000e+00 1.0000e+00
       13  1    1    2    0    0 -5.3459651075e+02 -8.1034500071e+02 +1.7495254885e+02 9.8643846429e+02 0.0000000000e+00 0.0000e+00 -1.0000e+00
<mgrwt>
<rscale>  0 0.21094638E+04</rscale>
<asrwt>0</asrwt>
<pdfrwt beam="1">  1        2 0.12845826E+00 0.21094638E+04</pdfrwt>
<pdfrwt beam="2">  1       -2 0.20497241E+00 0.21094638E+04</pdfrwt>
<totfact> 0.40229678E+00</totfact>
</mgrwt>
<rwgt>
<wgt id='morphing_basis_vector_1'> +1.6942100e-04 </wgt>
<wgt id='morphing_basis_vector_2'> +1.1593783e-04 </wgt>
<wgt id='morphing_basis_vector_3'> +1.8200774e-04 </wgt>
<wgt id='morphing_basis_vector_4'> +1.2367856e-04 </wgt>
<wgt id='morphing_basis_vector_5'> +2.0092147e-04 </wgt>
</rwgt>
</event>
<event>
 4      1 +6.0853000e-08 2.08626400e+03 7.81860800e-03 8.03705600e-02
        2 -1    0    0  501    0 +0.0000000000e+00 +0.0000000000e+00 +1.2563386145e+03 1.2563386145e+03 0.0000000000e+00 0.0000e+00 1.0000e+00
       -2 -1    0    0    0  501 -0.0000000000e+00 -0.0000000000e+00 -8.6610719255e+02 8.6610719255e+02 0.0000000000e+00 0.0000e+00 -1.0000e+00
      -13  1    1    2    0    0 -9.2435807758e+01 -8.2486964612e+02 -4.4764032895e+02 9.4304622143e+02 0.0000000000e+00 0.0000e+00 -1.0000e+00
       13  1    1    2    0    0 +9.2435807758e+01 +8.2486964612e+02 +8.3787175091e+02 1.1793995856e+03 0.0000000000e+00 0.0000e+00 1.0000e+00
<mgrwt>
<rscale>  0 0.20862636E+04</rscale>
<asrwt>0</asrwt>
<pdfrwt beam="1">  1        2 0.19328286E+00 0.20862636E+04</pdfrwt>
<pdfrwt beam="2">  1       -2 0.13324726E+00 0.20862636E+04</pdfrwt>
<totfact> 0.81468065E+00</totfact>
</mgrwt>
<rwgt>
<wgt id='morphing_basis_vector_1'> +1.6138549e-04 </wgt>
<wgt id='morphing_basis_vector_2'> +1.0848706e-04 </wgt>
<wgt id='morphing_basis_vector_3'> +1.7290978e-04 </wgt>
<wgt id='morphing_basis_vector_4'> +1.1990911e-04 </wgt>
<wgt id='morphing_basis_vector_5'> +1.9220497e-04 </wgt>
</rwgt>
</event>
<event>
 4      1 +6.0853000e-08 2.06966100e+03 7.81860800e-03 8.04356000e-02
        2 -1    0    0  501    0 +0.0000000000e+00 +0.0000000000e+00 +5.2261690220e+02 5.2261690220e+02 0.0000000000e+00 0.0000e+00 -1.0000e+00
       -2 -1    0    0    0  501 -0.0000000000e+00 -0.0000000000e+00 -2.0490621189e+03 2.0490621189e+03 0.0000000000e+00 0.0000e+00 1.0000e+00
      -13  1    1    2    0    0 +8.3245009519e+02 -2.2986245381e+02 -1.4716613599e+03 1.7063402553e+03 0.0000000000e+00 0.0000e+00 1.0000e+00
       13  1    1    2    0    0 -8.3245009519e+02 +2.2986245381e+02 -5.4783856822e+01 8.6533876581e+02 0.0000000000e+00 0.0000e+00 -1.0000e+00
<mgrwt>
<rscale>  0 0.20696613E+04</rscale>
<asrwt>0</asrwt>
<pdfrwt beam="1">  1        2 0.80402601E-01 0.20696613E+04</pdfrwt>
<pdfrwt beam="2">  1       -2 0.31524032E+00 0.20696613E+04</pdfrwt>
<totfact> 0.12335934E+00</totfact>
</mgrwt>
<rwgt>
<wgt id='morphing_basis_vector_1'> +1.5654957e-04 </wgt>
<wgt id='morphing_basis_vector_2'> +1.0553540e-04 </wgt>
<wgt id='morphing_basis_vector_3'> +1.6769406e-04 </wgt>
<wgt id='morphing_basis_vector_4'> +1.1577733e-04 </wgt>
<wgt id='morphing_basis_vector_5'> +1.8602534e-04 </wgt>
</rwgt>
</event>
<event>
 4      1 +6.0853000e-08 1.93485200e+03 7.81860800e-03 8.09883700e-02
        2 -1    0    0  501    0 +0.0000000000e+00 +0.0000000000e+00 +1.5259875786e+03 1.5259875786e+03 0.0000000000e+00 0.0000e+00 -1.0000e+00
       -2 -1    0    0    0  501 -0.0000000000e+00 -0.0000000000e+00 -6.1331641161e+02 6.1331641161e+02 0.0000000000e+00 0.0000e+00 1.0000e+00
      -13  1    1    2    0    0 +3.7967254989e+02 +8.8416287429e+02 +3.4566936679e+02 1.0224395065e+03 0.0000000000e+00 0.0000e+00 1.0000e+00
       13  1    1    2    0    0 -3.7967254989e+02 -8.8416287429e+02 +5.6700180019e+02 1.1168644836e+03 0.0000000000e+00 0.0000e+00 -1.0000e+00
<mgrwt>
<rscale>  0 0.19348522E+04</rscale>
<asrwt>0</asrwt>
<pdfrwt beam="1">  1        2 0.23476732E+00 0.19348522E+04</pdfrwt>
<pdfrwt beam="2">  1       -2 0.94356371E-01 0.19348522E+04</pdfrwt>
<totfact> 0.13890313E+01</totfact>
</mgrwt>
<rwgt>
<wgt id='morphing_basis_vector_1'> +1.2281603e-04 </wgt>
<wgt id='morphing_basis_vector_2'> +8.8465900e-05 </wgt>
<wgt id='morphing_basis_vector_3'> +1.3187340e-04 </wgt>
<wgt id='morphing_basis_vector_4'> +8.2851734e-05 </wgt>
<wgt id='morphing_basis_vector_5'> +1.4092029e-04 </wgt>
</rwgt>
</event>
<event>
 4      1 +6.0853000e-08 1.98226600e+03 7.81860800e-03 8.07887500e-02
        2 -1    0    0  501    0 +0.0000000000e+00 +0.0000000000e+00 +4.2084468515e+03 4.2084468515e+03 0.0000000000e+00 0.0000e+00 -1.0000e+00
       -2 -1    0    0    0  501 -0.0000000000e+00 -0.0000000000e+00 -2.3342217161e+02 2.3342217161e+02 0.0000000000e+00 0.0000e+00 1.0000e+00
      -13  1    1    2    0    0 +9.8774028736e+02 +1.8883266306e+01 +2.1661783106e+03 2.3808225315e+03 0.0000000000e+00 0.0000e+00 -1.0000e+00
       13  1    1    2    0    0 -9.8774028736e+02 -1.8883266306e+01 +1.8088463693e+03 2.0610464916e+03 0.0000000000e+00 0.0000e+00 1.0000e+00
<mgrwt>
<rscale>  0 0.19822662E+04</rscale>
<asrwt>0</asrwt>
<pdfrwt beam="1">  1        2 0.64745330E+00 0.19822662E+04</pdfrwt>
<pdfrwt beam="2">  1       -2 0.35911106E-01 0.19822662E+04</pdfrwt>
<totfact> 0.16845762E+00</totfact>
</mgrwt>
<rwgt>
<wgt id='morphing_basis_vector_1'> +1.3814872e-04 </wgt>
<wgt id='morphing_basis_vector_2'> +1.0660035e-04 </wgt>
<wgt id='morphing_basis_vector_3'> +1.4981128e-04 </wgt>
<wgt id='morphing_basis_vector_4'> +8.5256930e-05 </wgt>
<wgt id='morphing_basis_vector_5'> +1.5507577e-04 </wgt>
</rwgt>
</event>
<event>
 4      1 +6.0853000e-08 1.97506700e+03 7.81860800e-03 8.08186800e-02
        2 -1    0    0  501    0 +0.0000000000e+00 +0.0000000000e+00 +8.7113803016e+02 8.7113803016e+02 0.0000000000e+00 0.0000e+00 1.0000e+00
       -2 -1    0    0    0  501 -0.0000000000e+00 -0.0000000000e+00 -1.1194813254e+03 1.1194813254e+03 0.0000000000e+00 0.0000e+00 -1.0000e+00
      -13  1    1    2    0    0 +8.2694865207e+02 +3.5287764423e+02 +2.8752496601e+02 9.4394772685e+02 0.0000000000e+00 0.0000e+00 -1.0000e+00
       13  1    1    2    0    0 -8.2694865207e+02 -3.5287764423e+02 -5.3586826127e+02 1.0466716287e+03 0.0000000000e+00 0.0000e+00 1.0000e+00
<mgrwt>
<rscale>  0 0.19750673E+04</rscale>
<asrwt>0</asrwt>
<pdfrwt beam="1">  1        2 0.13402124E+00 0.19750673E+04</pdfrwt>
<pdfrwt beam="2">  1       -2 0.17222790E+00 0.19750673E+04</pdfrwt>
<totfact> 0.67614017E+00</totfact>
</mgrwt>
<rwgt>
<wgt id='morphing_basis_vector_1'> +1.4857906e-04 </wgt>
<wgt id='morphing_basis_vector_2'> +1.4175705e-04 </wgt>
<wgt id='morphing_basis_vector_3'> +1.6561374e-04 </wgt>
<wgt id='morphing_basis_vector_4'> +5.9409123e-05 </wgt>
<wgt id='morphing_basis_vector_5'> +1.5085326e-04 </wgt>
</rwgt>
</event>
<event>
 4      1 +6.0853000e-08 1.96847900e+03 7.81860800e-03 8.08461900e-02
        2 -1    0    0  501    0 +0.0000000000e+00 +0.0000000000e+00 +9.4922315632e+02 9.4922315632e+02 0.0000000000e+00 0.0000e+00 1.0000e+00
       -2 -1    0    0    0  501 -0.0000000000e+00 -0.0000000000e+00 -1.0205478482e+03 1.0205478482e+03 0.0000000000e+00 0.0000e+00 -1.0000e+00
      -13  1    1    2    0    0 +1.1405968762e+02 +9.6814386562e+02 -1.7145509134e+02 9.8980250819e+02 0.0000000000e+00 0.0000e+00 -1.0000e+00
       13  1    1    2    0    0 -1.1405968762e+02 -9.6814386562e+02 +1.0013039946e+02 9.7996849632e+02 0.0000000000e+00 0.0000e+00 1.0000e+00
<mgrwt>
<rscale>  0 0.19684793E+04</rscale>
<asrwt>0</asrwt>
<pdfrwt beam="1">  1        2 0.14603433E+00 0.19684793E+04</pdfrwt>
<pdfrwt beam="2">  1       -2 0.15700736E+00 0.19684793E+04</pdfrwt>
<totfact> 0.79409106E+00</totfact>
</mgrwt>
<rwgt>
<wgt id='morphing_basis_vector_1'> +1.3099540e-04 </wgt>
<wgt id='morphing_basis_vector_2'> +9.3548219e-05 </wgt>
<wgt id='morphing_basis_vector_3'> +1.4071322e-04 </wgt>
<wgt id='morphing_basis_vector_4'> +8.9665583e-05 </wgt>
<wgt id='morphing_basis_vector_5'> +1.5125574e-04 </wgt>
</rwgt>
</event>
<event>
 4      1 +6.0853000e-08 1.99366400e+03 7.81860800e-03 8.07416300e-02
        2 -1    0    0  501    0 +0.0000000000e+00 +0.0000000000e+00 +9.2844871025e+02 9.2844871025e+02 0.0000000000e+00 0.0000e+00 -1.0000e+00
       -2 -1    0    0    0  501 -0.0000000000e+00 -0.0000000000e+00 -1.0702520107e+03 1.0702520107e+03 0.0000000000e+00 0.0000e+00 1.0000e+00
      -13  1    1    2    0    0 +1.8020873959e+02 -6.4559032227e+01 -1.0516527428e+03 1.0689324346e+03 0.0000000000e+00 0.0000e+00 1.0000e+00
       13  1    1    2    0    0 -1.8020873959e+02 +6.4559032227e+01 +9.0984944233e+02 9.2976828628e+02 0.0000000000e+00 0.0000e+00 -1.0000e+00
<mgrwt>
<rscale>  0 0.19936641E+04</rscale>
<asrwt>0</asrwt>
<pdfrwt beam="1">  1        2 0.14283826E+00 0.19936641E+04</pdfrwt>
<pdfrwt beam="2">  1       -2 0.16465415E+00 0.19936641E+04</pdfrwt>
<totfact> 0.70977044E+00</totfact>
</mgrwt>
<rwgt>
<wgt id='morphing_basis_vector_1'> +1.3473351e-04 </wgt>
<wgt id='morphing_basis_vector_2'> +8.9638780e-05 </wgt>
<wgt id='morphing_basis_vector_3'> +1.4375827e-04 </wgt>
<wgt id='morphing_basis_vector_4'> +1.0030733e-04 </wgt>
<wgt id='morphing_basis_vector_5'> +1.5977468e-04 </wgt>
</rwgt>
</event>
<event>
 4      1 +6.0853000e-08 2.02519900e+03 7.81860800e-03 8.06129500e-02
        2 -1    0    0  501    0 +0.0000000000e+00 +0.0000000000e+00 +2.8330818506e+03 2.8330818506e+03 0.0000000000e+00 0.0000e+00 -1.0000e+00
       -2 -1    0    0    0  501 -0.0000000000e+00 -0.0000000000e+00 -3.6192295026e+02 3.6192295026e+02 0.0000000000e+00 0.0000e+00 1.0000e+00
      -13  1    1    2    0    0 -1.1326798989e+02 -5.5805772046e+02 -8.5392691504e+01 5.7580375881e+02 0.0000000000e+00 0.0000e+00 1.0000e+00
       13  1    1    2    0    0 +1.1326798989e+02 +5.5805772046e+02 +2.5565515918e+03 2.6192010420e+03 0.0000000000e+00 0.0000e+00 -1.0000e+00
<mgrwt>
<rscale>  0 0.20251986E+04</rscale>
<asrwt>0</asrwt>
<pdfrwt beam="1">  1        2 0.43585873E+00 0.20251986E+04</pdfrwt>
<pdfrwt beam="2">  1       -2 0.55680456E-01 0.20251986E+04</pdfrwt>
<totfact> 0.76344488E+00</totfact>
</mgrwt>
<rwgt>
<wgt id='morphing_basis_vector_1'> +1.4333394e-04 </wgt>
<wgt id='morphing_basis_vector_2'> +9.5548612e-05 </wgt>
<wgt id='morphing_basis_vector_3'> +1.5313089e-04 </wgt>
<wgt id='morphing_basis_vector_4'> +1.0683249e-04 </wgt>
<wgt id='morphing_basis_vector_5'> +1.7033117e-04 </wgt>
</rwgt>
</event>
<event>
 4      1 +6.0853000e-08 2.14720600e+03 7.81860800e-03 8.01370700e-02
        2 -1    0    0  501    0 +0.0000000000e+00 +0.0000000000e+00 +1.4769797488e+03 1.4769797488e+03 0.0000000000e+00 0.0000e+00 1.0000e+00
       -2 -1    0    0    0  501 -0.0000000000e+00 -0.0000000000e+00 -7.8039194096e+02 7.8039194096e+02 0.0000000000e+00 0.0000e+00 -1.0000e+00
      -13  1    1    2    0    0 -5.1544873825e+02 -5.0149439705e+02 -4.8974923356e+02 8.7007950430e+02 0.0000000000e+00 0.0000e+00 -1.0000e+00
       13  1    1    2    0    0 +5.1544873825e+02 +5.0149439705e+02 +1.1863370414e+03 1.3872921854e+03 0.0000000000e+00 0.0000e+00 1.0000e+00
<mgrwt>
<rscale>  0 0.21472057E+04</rscale>
<asrwt>0</asrwt>
<pdfrwt beam="1">  1        2 0.22722765E+00 0.21472057E+04</pdfrwt>
<pdfrwt beam="2">  1       -2 0.12006030E+00 0.21472057E+04</pdfrwt>
<totfact> 0.80012738E+00</totfact>
</mgrwt>
<rwgt>
<wgt id='morphing_basis_vector_1'> +1.8042936e-04 </wgt>
<wgt id='morphing_basis_vector_2'> +1.2079647e-04 </wgt>
<wgt id='morphing_basis_vector_3'> +1.9357217e-04 </wgt>
<wgt id='morphing_basis_vector_4'> +1.3537673e-04 </wgt>
<wgt id='morphing_basis_vector_5'> +2.1615755e-04 </wgt>
</rwgt>
</event>
<event>
 4      1 +6.0853000e-08 2.03804100e+03 7.81860800e-03 8.05612500e-02
        2 -1    0    0  501    0 +0.0000000000e+00 +0.0000000000e+00 +1.7318106143e+03 1.7318106143e+03 0.0000000000e+00 0.0000e+00 1.0000e+00
       -2 -1    0    0    0  501 -0.0000000000e+00 -0.0000000000e+00 -5.9960512954e+02 5.9960512954e+02 0.0000000000e+00 0.0000e+00 -1.0000e+00
      -13  1    1    2    0    0 -1.4622675943e+00 -4.2198370396e+02 +1.6271614912e+03 1.6809898581e+03 0.0000000000e+00 0.0000e+00 1.0000e+00
       13  1    1    2    0    0 +1.4622675943e+00 +4.2198370396e+02 -4.9495600639e+02 6.5042588578e+02 0.0000000000e+00 0.0000e+00 -1.0000e+00
<mgrwt>
<rscale>  0 0.20380408E+04</rscale>
<asrwt>0</asrwt>
<pdfrwt beam="1">  1        2 0.26643240E+00 0.20380408E+04</pdfrwt>
<pdfrwt beam="2">  1       -2 0.92246944E-01 0.20380408E+04</pdfrwt>
<totfact> 0.11149486E+01</totfact>
</mgrwt>
<rwgt>
<wgt id='morphing_basis_vector_1'> +2.0015347e-04 </wgt>
<wgt id='morphing_basis_vector_2'> +2.5550001e-04 </wgt>
<wgt id='morphing_basis_vector_3'> +2.3490605e-04 </wgt>
<wgt id='morphing_basis_vector_4'> +3.4026670e-06 </wgt>
<wgt id='morphing_basis_vector_5'> +1.6637413e-04 </wgt>
</rwgt>
</event>
<event>
 4      1 +6.0853000e-08 2.13078000e+03 7.81860800e-03 8.01992100e-02
        2 -1    0    0  501    0 +0.0000000000e+00 +0.0000000000e+00 +1.4310185371e+03 1.4310185371e+03 0.0000000000e+00 0.0000e+00 1.0000e+00
       -2 -1    0    0    0  501 -0.0000000000e+00 -0.0000000000e+00 -7.9318026110e+02 7.9318026110e+02 0.0000000000e+00 0.0000e+00 -1.0000e+00
      -13  1    1    2    0    0 -4.6139660228e+02 -1.1006887656e+02 -6.7687262873e+02 8.2653405114e+02 0.0000000000e+00 0.0000e+00 -1.0000e+00
       13  1    1    2    0    0 +4.6139660228e+02 +1.1006887656e+02 +1.3147109048e+03 1.3976647471e+03 0.0000000000e+00 0.0000e+00 1.0000e+00
<mgrwt>
<rscale>  0 0.21307798E+04</rscale>
<asrwt>0</asrwt>
<pdfrwt beam="1">  1        2 0.22015670E+00 0.21307798E+04</pdfrwt>
<pdfrwt beam="2">  1       -2 0.12202773E+00 0.21307798E+04</pdfrwt>
<totfact> 0.81505285E+00</totfact>
</mgrwt>
<rwgt>
<wgt id='morphing_basis_vector_1'> +1.7493332e-04 </wgt>
<wgt id='morphing_basis_vector_2'> +1.1677522e-04 </wgt>
<wgt id='morphing_basis_vector_3'> +1.8752776e-04 </wgt>
<wgt id='morphing_basis_vector_4'> +1.3148050e-04 </wgt>
<wgt id='morphing_basis_vector_5'> +2.0952690e-04 </wgt>
</rwgt>
</event>
<event>
 4      1 +6.0853000e-08 2.08414100e+03 7.81860800e-03 8.03788300e-02
        2 -1    0    0  501    0 +0.0000000000e+00 +0.0000000000e+00 +2.0099861563e+03 2.0099861563e+03 0.0000000000e+00 0.0000e+00 1.0000e+00
       -2 -1    0    0    0  501 -0.0000000000e+00 -0.0000000000e+00 -5.4025800486e+02 5.4025800486e+02 0.0000000000e+00 0.0000e+00 -1.0000e+00
      -13  1    1    2    0    0 +5.9620536776e+02 +1.4927265235e+02 -2.9486448919e+02 6.8168044733e+02 0.0000000000e+00 0.0000e+00 -1.0000e+00
       13  1    1    2    0    0 -5.9620536776e+02 -1.4927265235e+02 +1.7645926406e+03 1.8685637138e+03 0.0000000000e+00 0.0000e+00 1.0000e+00
<mgrwt>
<rscale>  0 0.20841412E+04</rscale>
<asrwt>0</asrwt>
<pdfrwt beam="1">  1        2 0.30922863E+00 0.20841412E+04</pdfrwt>
<pdfrwt beam="2">  1       -2 0.83116617E-01 0.20841412E+04</pdfrwt>
<totfact> 0.98887893E+00</totfact>
</mgrwt>
<rwgt>
<wgt id='morphing_basis_vector_1'> +1.6042556e-04 </wgt>
<wgt id='morphing_basis_vector_2'> +1.0711367e-04 </wgt>
<wgt id='morphing_basis_vector_3'> +1.7174277e-04 </wgt>
<wgt id='morphing_basis_vector_4'> +1.2004683e-04 </wgt>
<wgt id='morphing_basis_vector_5'> +1.9145991e-04 </wgt>
</rwgt>
</event>
<event>
 4      1 +6.0853000e-08 1.92680400e+03 7.81860800e-03 8.10228400e-02
        2 -1    0    0  501    0 +0.0000000000e+00 +0.0000000000e+00 +3.4924747047e+02 3.4924747047e+02 0.0000000000e+00 0.0000e+00 -1.0000e+00
       -2 -1    0    0    0  501 -0.0000000000e+00 -0.0000000000e+00 -2.6575533843e+03 2.6575533843e+03 0.0000000000e+00 0.0000e+00 1.0000e+00
      -13  1    1    2    0    0 +4.4297688318e+02 +7.8853661775e+02 -1.6720107903e+03 1.9009572850e+03 0.0000000000e+00 0.0000e+00 1.0000e+00
       13  1    1    2    0    0 -4.4297688318e+02 -7.8853661775e+02 -6.3629512358e+02 1.1058435698e+03 0.0000000000e+00 0.0000e+00 -1.0000e+00
<mgrwt>
<rscale>  0 0.19268044E+04</rscale>
<asrwt>0</asrwt>
<pdfrwt beam="1">  1        2 0.53730379E-01 0.19268044E+04</pdfrwt>
<pdfrwt beam="2">  1       -2 0.40885438E+00 0.19268044E+04</pdfrwt>
<totfact> 0.48458283E-01</totfact>
</mgrwt>
<rwgt>
<wgt id='morphing_basis_vector_1'> +1.1899365e-04 </wgt>
<wgt id='morphing_basis_vector_2'> +8.1581159e-05 </wgt>
<wgt id='morphing_basis_vector_3'> +1.2704898e-04 </wgt>
<wgt id='morphing_basis_vector_4'> +8.5082220e-05 </wgt>
<wgt id='morphing_basis_vector_5'> +1.3882524e-04 </wgt>
</rwgt>
</event>
<event>
 4      1 +6.0853000e-08 2.00085000e+03 7.81860800e-03 8.07120900e-02
        2 -1    0    0  501    0 +0.0000000000e+00 +0.0000000000e+00 +2.9263802270e+03 2.9263802270e+03 0.0000000000e+00 0.0000e+00 -1.0000e+00
       -2 -1    0    0    0  501 -0.0000000000e+00 -0.0000000000e+00 -3.4200965321e+02 3.4200965321e+02 0.0000000000e+00 0.0000e+00 1.0000e+00
      -13  1    1    2    0    0 -5.9224559888e+01 +5.6446010083e+02 -5.3572916738e+01 5.7008140763e+02 0.0000000000e+00 0.0000e+00 1.0000e+00
       13  1    1    2    0    0 +5.9224559888e+01 -5.6446010083e+02 +2.6379434905e+03 2.6983084726e+03 0.0000000000e+00 0.0000e+00 -1.0000e+00
<mgrwt>
<rscale>  0 0.20008501E+04</rscale>
<asrwt>0</asrwt>
<pdfrwt beam="1">  1        2 0.45021233E+00 0.20008501E+04</pdfrwt>
<pdfrwt beam="2">  1       -2 0.52616872E-01 0.20008501E+04</pdfrwt>
<totfact> 0.74781825E+00</totfact>
</mgrwt>
<rwgt>
<wgt id='morphing_basis_vector_1'> +1.3669817e-04 </wgt>
<wgt id='morphing_basis_vector_2'> +9.1079218e-05 </wgt>
<wgt id='morphing_basis_vector_3'> +1.4591338e-04 </wgt>
<wgt id='morphing_basis_vector_4'> +1.0168771e-04 </wgt>
<wgt id='morphing_basis_vector_5'> +1.6212985e-04 </wgt>
</rwgt>
</event>
<event>
 4      1 +6.0853000e-08 2.05715700e+03 7.81860800e-03 8.04850000e-02
        2 -1    0    0  501    0 +0.0000000000e+00 +0.0000000000e+00 +1.2073943684e+03 1.2073943684e+03 0.0000000000e+00 0.0000e+00 -1.0000e+00
       -2 -1    0    0    0  501 -0.0000000000e+00 -0.0000000000e+00 -8.7624540453e+02 8.7624540453e+02 0.0000000000e+00 0.0000e+00 1.0000e+00
      -13  1    1    2    0    0 -4.9181280177e+02 +8.9504975506e+02 +2.8954237699e+02 1.0615218717e+03 0.0000000000e+00 0.0000e+00 1.0000e+00
       13  1    1    2    0    0 +4.9181280177e+02 -8.9504975506e+02 +4.1606586910e+01 1.0221179013e+03 0.0000000000e+00 0.0000e+00 -1.0000e+00
<mgrwt>
<rscale>  0 0.20571570E+04</rscale>
<asrwt>0</asrwt>
<pdfrwt beam="1">  1        2 0.18575298E+00 0.20571570E+04</pdfrwt>
<pdfrwt beam="2">  1       -2 0.13480698E+00 0.20571570E+04</pdfrwt>
<totfact> 0.84463549E+00</totfact>
</mgrwt>
<rwgt>
<wgt id='morphing_basis_vector_1'> +1.6083464e-04 </wgt>
<wgt id='morphing_basis_vector_2'> +1.2659573e-04 </wgt>
<wgt id='morphing_basis_vector_3'> +1.7536166e-04 </wgt>
<wgt id='morphing_basis_vector_4'> +9.7037422e-05 </wgt>
<wgt id='morphing_basis_vector_5'> +1.8022591e-04 </wgt>
</rwgt>
</event>
<event>
 4      1 +6.0853000e-08 1.86275700e+03 7.81860800e-03 8.13036100e-02
        2 -1    0    0  501    0 +0.0000000000e+00 +0.0000000000e+00 +1.1224815435e+03 1.1224815435e+03 0.0000000000e+00 0.0000e+00 1.0000e+00
       -2 -1    0    0    0  501 -0.0000000000e+00 -0.0000000000e+00 -7.7281049863e+02 7.7281049863e+02 0.0000000000e+00 0.0000e+00 -1.0000e+00
      -13  1    1    2    0    0 +7.8967907717e+01 -9.2259860248e+02 +7.2878446124e+01 9.2883549655e+02 0.0000000000e+00 0.0000e+00 -1.0000e+00
       13  1    1    2    0    0 -7.8967907717e+01 +9.2259860248e+02 +2.7679259874e+02 9.6645654556e+02 0.0000000000e+00 0.0000e+00 1.0000e+00
<mgrwt>
<rscale>  0 0.18627566E+04</rscale>
<asrwt>0</asrwt>
<pdfrwt beam="1">  1        2 0.17268947E+00 0.18627566E+04</pdfrwt>
<pdfrwt beam="2">  1       -2 0.11889392E+00 0.18627566E+04</pdfrwt>
<totfact> 0.13445279E+01</totfact>
</mgrwt>
<rwgt>
<wgt id='morphing_basis_vector_1'> +1.0582630e-04 </wgt>
<wgt id='morphing_basis_vector_2'> +7.6006485e-05 </wgt>
<wgt id='morphing_basis_vector_3'> +1.1323410e-04 </wgt>
<wgt id='morphing_basis_vector_4'> +7.1025348e-05 </wgt>
<wgt id='morphing_basis_vector_5'> +1.2065896e-04 </wgt>
</rwgt>
</event>
<event>
 4      1 +6.0853000e-08 2.05208300e+03 7.81860800e-03 8.05051600e-02
        2 -1    0    0  501    0 +0.0000000000e+00 +0.0000000000e+00 +1.1392585057e+03 1.1392585057e+03 0.0000000000e+00 0.0000e+00 1.0000e+00
       -2 -1    0    0    0  501 -0.0000000000e+00 -0.0000000000e+00 -9.2407540078e+02 9.2407540078e+02 0.0000000000e+00 0.0000e+00 -1.0000e+00
      -13  1    1    2    0    0 -2.3270121612e+02 +5.8577353617e+02 +9.2164793607e+02 1.1165641091e+03 0.0000000000e+00 0.0000e+00 1.0000e+00
       13  1    1    2    0    0 +2.3270121612e+02 -5.8577353617e+02 -7.0646483112e+02 9.4676979740e+02 0.0000000000e+00 0.0000e+00 -1.0000e+00
<mgrwt>
<rscale>  0 0.20520826E+04</rscale>
<asrwt>0</asrwt>
<pdfrwt beam="1">  1        2 0.17527054E+00 0.20520826E+04</pdfrwt>
<pdfrwt beam="2">  1       -2 0.14216545E+00 0.20520826E+04</pdfrwt>
<totfact> 0.80028136E+00</totfact>
</mgrwt>
<rwgt>
<wgt id='morphing_basis_vector_1'> +2.0044295e-04 </wgt>
<wgt id='morphing_basis_vector_2'> +2.4717237e-04 </wgt>
<wgt id='morphing_basis_vector_3'> +2.3395332e-04 </wgt>
<wgt id='morphing_basis_vector_4'> +1.3834054e-05 </wgt>
<wgt id='morphing_basis_vector_5'> +1.7190761e-04 </wgt>
</rwgt>
</event>
<event>
 4      1 +6.0853000e-08 1.89654400e+03 7.81860800e-03 8.11540500e-02
        2 -1    0    0  501    0 +0.0000000000e+00 +0.0000000000e+00 +9.2946574849e+02 9.2946574849e+02 0.0000000000e+00 0.0000e+00 -1.0000e+00
       -2 -1    0    0    0  501 -0.0000000000e+00 -0.0000000000e+00 -9.6745861318e+02 9.6745861318e+02 0.0000000000e+00 0.0000e+00 1.0000e+00
      -13  1    1    2    0    0 -3.1808518494e+02 -2.1967869583e+02 -8.8507011507e+02 9.6580848146e+02 0.0000000000e+00 0.0000e+00 1.0000e+00
       13  1    1    2    0    0 +3.1808518494e+02 +2.1967869583e+02 +8.4707725038e+02 9.3111588022e+02 0.0000000000e+00 0.0000e+00 -1.0000e+00
<mgrwt>
<rscale>  0 0.18965439E+04</rscale>
<asrwt>0</asrwt>
<pdfrwt beam="1">  1        2 0.14299473E+00 0.18965439E+04</pdfrwt>
<pdfrwt beam="2">  1       -2 0.14883979E+00 0.18965439E+04</pdfrwt>
<totfact> 0.95985307E+00</totfact>
</mgrwt>
<rwgt>
<wgt id='morphing_basis_vector_1'> +1.1081698e-04 </wgt>
<wgt id='morphing_basis_vector_2'> +7.3566150e-05 </wgt>
<wgt id='morphing_basis_vector_3'> +1.1778343e-04 </wgt>
<wgt id='morphing_basis_vector_4'> +8.1788617e-05 </wgt>
<wgt id='morphing_basis_vector_5'> +1.3028482e-04 </wgt>
</rwgt>
</event>
<event>
 4      1 +6.0853000e-08 2.15754300e+03 7.81860800e-03 8.00982700e-02
        2 -1    0    0  501    0 +0.0000000000e+00 +0.0000000000e+00 +2.4698339111e+03 2.4698339111e+03 0.0000000000e+00 0.0000e+00 -1.0000e+00
       -2 -1    0    0    0  501 -0.0000000000e+00 -0.0000000000e+00 -4.7118449258e+02 4.7118449258e+02 0.0000000000e+00 0.0000e+00 1.0000e+00
      -13  1    1    2    0    0 -4.7415709588e+02 -9.2634252203e+02 +6.1182056219e+02 1.2071701703e+03 0.0000000000e+00 0.0000e+00 -1.0000e+00
       13  1    1    2    0    0 +4.7415709588e+02 +9.2634252203e+02 +1.3868288563e+03 1.7338482334e+03 0.0000000000e+00 0.0000e+00 1.0000e+00
<mgrwt>
<rscale>  0 0.21575425E+04</rscale>
<asrwt>0</asrwt>
<pdfrwt beam="1">  1        2 0.37997444E+00 0.21575425E+04</pdfrwt>
<pdfrwt beam="2">  1       -2 0.72489923E-01 0.21575425E+04</pdfrwt>
<totfact> 0.72488405E+00</totfact>
</mgrwt>
<rwgt>
<wgt id='morphing_basis_vector_1'> +1.8614901e-04 </wgt>
<wgt id='morphing_basis_vector_2'> +1.2986934e-04 </wgt>
<wgt id='morphing_basis_vector_3'> +2.0070562e-04 </wgt>
<wgt id='morphing_basis_vector_4'> +1.3345417e-04 </wgt>
<wgt id='morphing_basis_vector_5'> +2.2005731e-04 </wgt>
</rwgt>
</event>
<event>
 4      1 +6.0853000e-08 1.98523000e+03 7.81860800e-03 8.07764700e-02
        2 -1    0    0  501    0 +0.0000000000e+00 +0.0000000000e+00 +6.9193164276e+02 6.9193164276e+02 0.0000000000e+00 0.0000e+00 -1.0000e+00
       -2 -1    0    0    0  501 -0.0000000000e+00 -0.0000000000e+00 -1.4239615447e+03 1.4239615447e+03 0.0000000000e+00 0.0000e+00 1.0000e+00
      -13  1    1    2    0    0 +2.8759003742e+02 +9.3230458836e+02 -5.6075413551e+02 1.1253199881e+03 0.0000000000e+00 0.0000e+00 1.0000e+00
       13  1    1    2    0    0 -2.8759003742e+02 -9.3230458836e+02 -1.7127576640e+02 9.9057319934e+02 0.0000000000e+00 0.0000e+00 -1.0000e+00
<mgrwt>
<rscale>  0 0.19852295E+04</rscale>
<asrwt>0</asrwt>
<pdfrwt beam="1">  1        2 0.10645102E+00 0.19852295E+04</pdfrwt>
<pdfrwt beam="2">  1       -2 0.21907101E+00 0.19852295E+04</pdfrwt>
<totfact> 0.40821587E+00</totfact>
</mgrwt>
<rwgt>
<wgt id='morphing_basis_vector_1'> +1.3493987e-04 </wgt>
<wgt id='morphing_basis_vector_2'> +9.5328537e-05 </wgt>
<wgt id='morphing_basis_vector_3'> +1.4486999e-04 </wgt>
<wgt id='morphing_basis_vector_4'> +9.3766270e-05 </wgt>
<wgt id='morphing_basis_vector_5'> +1.5665367e-04 </wgt>
</rwgt>
</event>
<event>
 4      1 +6.0853000e-08 1.91058800e+03 7.81860800e-03 8.10928400e-02
        2 -1    0    0  501    0 +0.0000000000e+00 +0.0000000000e+00 +2.5127226279e+03 2.5127226279e+03 0.0000000000e+00 0.0000e+00 1.0000e+00
       -2 -1    0    0    0  501 -0.0000000000e+00 -0.0000000000e+00 -3.6318651640e+02 3.6318651640e+02 0.0000000000e+00 0.0000e+00 -1.0000e+00
      -13  1    1    2    0    0 -2.7886168781e+02 -8.3151732727e+02 +5.0475376400e+02 1.0119097137e+03 0.0000000000e+00 0.0000e+00 -1.0000e+00
       13  1    1    2    0    0 +2.7886168781e+02 +8.3151732727e+02 +1.6447823475e+03 1.8639994305e+03 0.0000000000e+00 0.0000e+00 1.0000e+00
<mgrwt>
<rscale>  0 0.19105884E+04</rscale>
<asrwt>0</asrwt>
<pdfrwt beam="1">  1        2 0.38657270E+00 0.19105884E+04</pdfrwt>
<pdfrwt beam="2">  1       -2 0.55874850E-01 0.19105884E+04</pdfrwt>
<totfact> 0.12031820E+01</totfact>
</mgrwt>
<rwgt>
<wgt id='morphing_basis_vector_1'> +1.1489838e-04 </wgt>
<wgt id='morphing_basis_vector_2'> +7.8229234e-05 </wgt>
<wgt id='morphing_basis_vector_3'> +1.2250754e-04 </wgt>
<wgt id='morphing_basis_vector_4'> +8.2639285e-05 </wgt>
<wgt id='morphing_basis_vector_5'> +1.3414599e-04 </wgt>
</rwgt>
</event>
<event>
 4      1 +6.0853000e-08 1.94835900e+03 7.81860800e-03 8.09309000e-02
        2 -1    0    0  501    0 +0.0000000000e+00 +0.0000000000e+00 +2.5318032027e+03 2.5318032027e+03 0.0000000000e+00 0.0000e+00 -1.0000e+00
       -2 -1    0    0    0  501 -0.0000000000e+00 -0.0000000000e+00 -3.7484177975e+02 3.7484177975e+02 0.0000000000e+00 0.0000e+00 1.0000e+00
      -13  1    1    2    0    0 +7.3934421914e+02 -2.4381928400e+02 +2.0483147638e+02 8.0500537349e+02 0.0000000000e+00 0.0000e+00 1.0000e+00
       13  1    1    2    0    0 -7.3934421914e+02 +2.4381928400e+02 +1.9521299466e+03 2.1016396089e+03 0.0000000000e+00 0.0000e+00 -1.0000e+00
<mgrwt>
<rscale>  0 0.19483589E+04</rscale>
<asrwt>0</asrwt>
<pdfrwt beam="1">  1        2 0.38950817E+00 0.19483589E+04</pdfrwt>
<pdfrwt beam="2">  1       -2 0.57667968E-01 0.19483589E+04</pdfrwt>
<totfact> 0.10955795E+01</totfact>
</mgrwt>
<rwgt>
<wgt id='morphing_basis_vector_1'> +1.2344017e-04 </wgt>
<wgt id='morphing_basis_vector_2'> +8.2740865e-05 </wgt>
<wgt id='morphing_basis_vector_3'> +1.3159552e-04 </wgt>
<wgt id='morphing_basis_vector_4'> +9.0717977e-05 </wgt>
<wgt id='morphing_basis_vector_5'> +1.4541307e-04 </wgt>
</rwgt>
</event>
<event>
 4      1 +6.0853000e-08 1.91008000e+03 7.81860800e-03 8.10950500e-02
        2 -1    0    0  501    0 +0.0000000000e+00 +0.0000000000e+00 +1.7011697085e+03 1.7011697085e+03 0.0000000000e+00 0.0000e+00 1.0000e+00
       -2 -1    0    0    0  501 -0.0000000000e+00 -0.0000000000e+00 -5.3616125341e+02 5.3616125341e+02 0.0000000000e+00 0.0000e+00 -1.0000e+00
      -13  1    1    2    0    0 +1.4044040816e+01 -5.2659567802e+02 +1.5156061700e+03 1.6045442673e+03 0.0000000000e+00 0.0000e+00 1.0000e+00
       13  1    1    2    0    0 -1.4044040816e+01 +5.2659567802e+02 -3.5059771491e+02 6.3278669462e+02 0.0000000000e+00 0.0000e+00 -1.0000e+00
<mgrwt>
<rscale>  0 0.19100799E+04</rscale>
<asrwt>0</asrwt>
<pdfrwt beam="1">  1        2 0.26171841E+00 0.19100799E+04</pdfrwt>
<pdfrwt beam="2">  1       -2 0.82486348E-01 0.19100799E+04</pdfrwt>
<totfact> 0.15196609E+01</totfact>
</mgrwt>
<rwgt>
<wgt id='morphing_basis_vector_1'> +1.5314685e-04 </wgt>
<wgt id='morphing_basis_vector_2'> +1.9184633e-04 </wgt>
<wgt id='morphing_basis_vector_3'> +1.7752024e-04 </wgt>
<wgt id='morphing_basis_vector_4'> +6.8099419e-06 </wgt>
<wgt id='morphing_basis_vector_5'> +1.2806724e-04 </wgt>
</rwgt>
</event>
<event>
 4      1 +6.0853000e-08 2.07943600e+03 7.81860800e-03 8.03972300e-02
        2 -1    0    0  501    0 +0.0000000000e+00 +0.0000000000e+00 +1.4662650678e+03 1.4662650678e+03 0.0000000000e+00 0.0000e+00 1.0000e+00
       -2 -1    0    0    0  501 -0.0000000000e+00 -0.0000000000e+00 -7.3725649275e+02 7.3725649275e+02 0.0000000000e+00 0.0000e+00 -1.0000e+00
      -13  1    1    2    0    0 -7.5954014799e+02 +4.7433052610e+02 +9.2435132524e+02 1.2869794314e+03 0.0000000000e+00 0.0000e+00 1.0000e+00
       13  1    1    2    0    0 +7.5954014799e+02 -4.7433052610e+02 -1.9534275020e+02 9.1654212912e+02 0.0000000000e+00 0.0000e+00 -1.0000e+00
<mgrwt>
<rscale>  0 0.20794359E+04</rscale>
<asrwt>0</asrwt>
<pdfrwt beam="1">  1        2 0.22557924E+00 0.20794359E+04</pdfrwt>
<pdfrwt beam="2">  1       -2 0.11342408E+00 0.20794359E+04</pdfrwt>
<totfact> 0.94439923E+00</totfact>
</mgrwt>
<rwgt>
<wgt id='morphing_basis_vector_1'> +1.8880017e-04 </wgt>
<wgt id='morphing_basis_vector_2'> +1.9430271e-04 </wgt>
<wgt id='morphing_basis_vector_3'> +2.1400219e-04 </wgt>
<wgt id='morphing_basis_vector_4'> +5.9305123e-05 </wgt>
<wgt id='morphing_basis_vector_5'> +1.8497197e-04 </wgt>
</rwgt>
</event>
<event>
 4      1 +6.0853000e-08 2.17006400e+03 7.81860800e-03 8.00515600e-02
        2 -1    0    0  501    0 +0.0000000000e+00 +0.0000000000e+00 +1.7368606110e+03 1.7368606110e+03 0.0000000000e+00 0.0000e+00 -1.0000e+00
       -2 -1    0    0    0  501 -0.0000000000e+00 -0.0000000000e+00 -6.7782912592e+02 6.7782912592e+02 0.0000000000e+00 0.0000e+00 1.0000e+00
      -13  1    1    2    0    0 -4.2489931686e+02 +6.0561834492e+02 -3.5367134632e+02 8.1999782340e+02 0.0000000000e+00 0.0000e+00 1.0000e+00
       13  1    1    2    0    0 +4.2489931686e+02 -6.0561834492e+02 +1.4127028314e+03 1.5946919135e+03 0.0000000000e+00 0.0000e+00 -1.0000e+00
<mgrwt>
<rscale>  0 0.21700642E+04</rscale>
<asrwt>0</asrwt>
<pdfrwt beam="1">  1        2 0.26720932E+00 0.21700642E+04</pdfrwt>
<pdfrwt beam="2">  1       -2 0.10428140E+00 0.21700642E+04</pdfrwt>
<totfact> 0.81642210E+00</totfact>
</mgrwt>
<rwgt>
<wgt id='morphing_basis_vector_1'> +1.8811430e-04 </wgt>
<wgt id='morphing_basis_vector_2'> +1.2603373e-04 </wgt>
<wgt id='morphing_basis_vector_3'> +2.0196066e-04 </wgt>
<wgt id='morphing_basis_vector_4'> +1.4130041e-04 </wgt>
<wgt id='morphing_basis_vector_5'> +2.2567235e-04 </wgt>
</rwgt>
</event>
<event>
 4      1 +6.0853000e-08 2.21063100e+03 7.81860800e-03 7.99024500e-02
        2 -1    0    0  501    0 +0.0000000000e+00 +0.0000000000e+00 +5.3058082636e+02 5.3058082636e+02 0.0000000000e+00 0.0000e+00 -1.0000e+00
       -2 -1    0    0    0  501 -0.0000000000e+00 -0.0000000000e+00 -2.3026128194e+03 2.3026128194e+03 0.0000000000e+00 0.0000e+00 1.0000e+00
      -13  1    1    2    0    0 +5.8806522691e+02 -4.1170195691e+02 -1.9631910723e+03 2.0903201666e+03 0.0000000000e+00 0.0000e+00 1.0000e+00
       13  1    1    2    0    0 -5.8806522691e+02 +4.1170195691e+02 +1.9115907931e+02 7.4287347915e+02 0.0000000000e+00 0.0000e+00 -1.0000e+00
<mgrwt>
<rscale>  0 0.22106309E+04</rscale>
<asrwt>0</asrwt>
<pdfrwt beam="1">  1        2 0.81627819E-01 0.22106309E+04</pdfrwt>
<pdfrwt beam="2">  1       -2 0.35424813E+00 0.22106309E+04</pdfrwt>
<totfact> 0.66292987E-01</totfact>
</mgrwt>
<rwgt>
<wgt id='morphing_basis_vector_1'> +2.0228139e-04 </wgt>
<wgt id='morphing_basis_vector_2'> +1.3552109e-04 </wgt>
<wgt id='morphing_basis_vector_3'> +2.1740239e-04 </wgt>
<wgt id='morphing_basis_vector_4'> +1.5244025e-04 </wgt>
<wgt id='morphing_basis_vector_5'> +2.4333513e-04 </wgt>
</rwgt>
</event>
<event>
 4      1 +6.0853000e-08 1.95557200e+03 7.81860800e-03 8.09004100e-02
        2 -1    0    0  501    0 +0.0000000000e+00 +0.0000000000e+00 +1.7185947669e+03 1.7185947669e+03 0.0000000000e+00 0.0000e+00 -1.0000e+00
       -2 -1    0    0    0  501 -0.0000000000e+00 -0.0000000000e+00 -5.5630632389e+02 5.5630632389e+02 0.0000000000e+00 0.0000e+00 1.0000e+00
      -13  1    1    2    0    0 -1.6207379869e+02 -7.3391613635e+02 -1.4641508839e+02 7.6572722920e+02 0.0000000000e+00 0.0000e+00 1.0000e+00
       13  1    1    2    0    0 +1.6207379869e+02 +7.3391613635e+02 +1.3087035314e+03 1.5091738616e+03 0.0000000000e+00 0.0000e+00 -1.0000e+00
<mgrwt>
<rscale>  0 0.19555717E+04</rscale>
<asrwt>0</asrwt>
<pdfrwt beam="1">  1        2 0.26439919E+00 0.19555717E+04</pdfrwt>
<pdfrwt beam="2">  1       -2 0.85585589E-01 0.19555717E+04</pdfrwt>
<totfact> 0.13600297E+01</totfact>
</mgrwt>
<rwgt>
<wgt id='morphing_basis_vector_1'> +1.2517017e-04 </wgt>
<wgt id='morphing_basis_vector_2'> +8.3757662e-05 </wgt>
<wgt id='morphing_basis_vector_3'> +1.3345213e-04 </wgt>
<wgt id='morphing_basis_vector_4'> +9.2233092e-05 </wgt>
<wgt id='morphing_basis_vector_5'> +1.4763523e-04 </wgt>
</rwgt>
</event>
<event>
 4      1 +6.0853000e-08 1.90061500e+03 7.81860800e-03 8.11362500e-02
        2 -1    0    0  501    0 +0.0000000000e+00 +0.0000000000e+00 +2.2682647693e+03 2.2682647693e+03 0.0000000000e+00 0.0000e+00 -1.0000e+00
       -2 -1    0    0    0  501 -0.0000000000e+00 -0.0000000000e+00 -3.9813869009e+02 3.9813869009e+02 0.0000000000e+00 0.0000e+00 1.0000e+00
      -13  1    1    2    0    0 +3.3562415738e+02 -7.7878927697e+02 +3.3339725417e+02 9.1121349970e+02 0.0000000000e+00 0.0000e+00 1.0000e+00
       13  1    1    2    0    0 -3.3562415738e+02 +7.7878927697e+02 +1.5367288251e+03 1.7551899597e+03 0.0000000000e+00 0.0000e+00 -1.0000e+00
<mgrwt>
<rscale>  0 0.19006146E+04</rscale>
<asrwt>0</asrwt>
<pdfrwt beam="1">  1        2 0.34896380E+00 0.19006146E+04</pdfrwt>
<pdfrwt beam="2">  1       -2 0.61252108E-01 0.19006146E+04</pdfrwt>
<totfact> 0.13884902E+01</totfact>
</mgrwt>
<rwgt>
<wgt id='morphing_basis_vector_1'> +1.1237829e-04 </wgt>
<wgt id='morphing_basis_vector_2'> +7.6055684e-05 </wgt>
<wgt id='morphing_basis_vector_3'> +1.1969754e-04 </wgt>
<wgt id='morphing_basis_vector_4'> +8.1269340e-05 </wgt>
<wgt id='morphing_basis_vector_5'> +1.3133530e-04 </wgt>
</rwgt>
</event>
<event>
 4      1 +6.0853000e-08 1.88789300e+03 7.81860800e-03 8.11920300e-02
        2 -1    0    0  501    0 +0.0000000000e+00 +0.0000000000e+00 +1.5793267840e+03 1.5793267840e+03 0.0000000000e+00 0.0000e+00 -1.0000e+00
       -2 -1    0    0    0  501 -0.0000000000e+00 -0.0000000000e+00 -5.6418639956e+02 5.6418639956e+02 0.0000000000e+00 0.0000e+00 1.0000e+00
      -13  1    1    2    0    0 -4.4918778640e+02 -4.6949322265e+02 -2.6986055431e+02 7.0357534944e+02 0.0000000000e+00 0.0000e+00 1.0000e+00
       13  1    1    2    0    0 +4.4918778640e+02 +4.6949322265e+02 +1.2850009388e+03 1.4399378342e+03 0.0000000000e+00 0.0000e+00 -1.0000e+00
<mgrwt>
<rscale>  0 0.18878927E+04</rscale>
<asrwt>0</asrwt>
<pdfrwt beam="1">  1        2 0.24297335E+00 0.18878927E+04</pdfrwt>
<pdfrwt beam="2">  1       -2 0.86797909E-01 0.18878927E+04</pdfrwt>
<totfact> 0.15829716E+01</totfact>
</mgrwt>
<rwgt>
<wgt id='morphing_basis_vector_1'> +1.0895597e-04 </wgt>
<wgt id='morphing_basis_vector_2'> +7.2549095e-05 </wgt>
<wgt id='morphing_basis_vector_3'> +1.1579980e-04 </wgt>
<wgt id='morphing_basis_vector_4'> +8.0072804e-05 </wgt>
<wgt id='morphing_basis_vector_5'> +1.2785527e-04 </wgt>
</rwgt>
</event>
<event>
 4      1 +6.0853000e-08 1.90707300e+03 7.81860800e-03 8.11081100e-02
        2 -1    0    0  501    0 +0.0000000000e+00 +0.0000000000e+00 +2.3176282551e+03 2.3176282551e+03 0.0000000000e+00 0.0000e+00 -1.0000e+00
       -2 -1    0    0    0  501 -0.0000000000e+00 -0.0000000000e+00 -3.9231135598e+02 3.9231135598e+02 0.0000000000e+00 0.0000e+00 1.0000e+00
      -13  1    1    2    0    0 +3.0112736309e+02 +8.7174709081e+02 +6.1863930499e+02 1.1105562880e+03 0.0000000000e+00 0.0000e+00 1.0000e+00
       13  1    1    2    0    0 -3.0112736309e+02 -8.7174709081e+02 +1.3066775942e+03 1.5993833231e+03 0.0000000000e+00 0.0000e+00 -1.0000e+00
<mgrwt>
<rscale>  0 0.19070730E+04</rscale>
<asrwt>0</asrwt>
<pdfrwt beam="1">  1        2 0.35655819E+00 0.19070730E+04</pdfrwt>
<pdfrwt beam="2">  1       -2 0.60355595E-01 0.19070730E+04</pdfrwt>
<totfact> 0.13394296E+01</totfact>
</mgrwt>
<rwgt>
<wgt id='morphing_basis_vector_1'> +1.1479788e-04 </wgt>
<wgt id='morphing_basis_vector_2'> +7.9806880e-05 </wgt>
<wgt id='morphing_basis_vector_3'> +1.2264999e-04 </wgt>
<wgt id='morphing_basis_vector_4'> +8.0590688e-05 </wgt>
<wgt id='morphing_basis_vector_5'> +1.3302781e-04 </wgt>
</rwgt>
</event>
<event>
 4      1 +6.0853000e-08 1.87022500e+03 7.81860800e-03 8.12702700e-02
        2 -1    0    0  501    0 +0.0000000000e+00 +0.0000000000e+00 +6.3210434378e+02 6.3210434378e+02 0.0000000000e+00 0.0000e+00 -1.0000e+00
       -2 -1    0    0    0  501 -0.0000000000e+00 -0.0000000000e+00 -1.3833714717e+03 1.3833714717e+03 0.0000000000e+00 0.0000e+00 1.0000e+00
      -13  1    1    2    0    0 -3.5130155805e+02 +6.9866428732e+02 +1.7691605550e+02 8.0177544347e+02 0.0000000000e+00 0.0000e+00 -1.0000e+00
       13  1    1    2    0    0 +3.5130155805e+02 -6.9866428732e+02 -9.2818318346e+02 1.2137003721e+03 0.0000000000e+00 0.0000e+00 1.0000e+00
<mgrwt>
<rscale>  0 0.18702247E+04</rscale>
<asrwt>0</asrwt>
<pdfrwt beam="1">  1        2 0.97246823E-01 0.18702247E+04</pdfrwt>
<pdfrwt beam="2">  1       -2 0.21282638E+00 0.18702247E+04</pdfrwt>
<totfact> 0.50944234E+00</totfact>
</mgrwt>
<rwgt>
<wgt id='morphing_basis_vector_1'> +1.2675648e-04 </wgt>
<wgt id='morphing_basis_vector_2'> +1.3432537e-04 </wgt>
<wgt id='morphing_basis_vector_3'> +1.4257041e-04 </wgt>
<wgt id='morphing_basis_vector_4'> +3.4319381e-05 </wgt>
<wgt id='morphing_basis_vector_5'> +1.1969459e-04 </wgt>
</rwgt>
</event>
<event>
 4      1 +6.0853000e-08 2.05507000e+03 7.81860800e-03 8.04932900e-02
        2 -1    0    0  501    0 +0.0000000000e+00 +0.0000000000e+00 +1.2106501817e+03 1.2106501817e+03 0.0000000000e+00 0.0000e+00 -1.0000e+00
       -2 -1    0    0    0  501 -0.0000000000e+00 -0.0000000000e+00 -8.7211675518e+02 8.7211675518e+02 0.0000000000e+00 0.0000e+00 1.0000e+00
      -13  1    1    2    0    0 +1.1083265513e+02 -9.2711443695e+02 -2.6547045971e+02 9.7072118635e+02 0.0000000000e+00 0.0000e+00 1.0000e+00
       13  1    1    2    0    0 -1.1083265513e+02 +9.2711443695e+02 +6.0400388618e+02 1.1120457505e+03 0.0000000000e+00 0.0000e+00 -1.0000e+00
<mgrwt>
<rscale>  0 0.20550701E+04</rscale>
<asrwt>0</asrwt>
<pdfrwt beam="1">  1        2 0.18625387E+00 0.20550701E+04</pdfrwt>
<pdfrwt beam="2">  1       -2 0.13417181E+00 0.20550701E+04</pdfrwt>
<totfact> 0.85205603E+00</totfact>
</mgrwt>
<rwgt>
<wgt id='morphing_basis_vector_1'> +1.5277305e-04 </wgt>
<wgt id='morphing_basis_vector_2'> +1.0412310e-04 </wgt>
<wgt id='morphing_basis_vector_3'> +1.6376867e-04 </wgt>
<wgt id='morphing_basis_vector_4'> +1.1146966e-04 </wgt>
<wgt id='morphing_basis_vector_5'> +1.8065710e-04 </wgt>
</rwgt>
</event>
<event>
 4      1 +6.0853000e-08 2.14464100e+03 7.81860800e-03 8.01467400e-02
        2 -1    0    0  501    0 +0.0000000000e+00 +0.0000000000e+00 +2.9408859263e+03 2.9408859263e+03 0.0000000000e+00 0.0000e+00 -1.0000e+00
       -2 -1    0    0    0  501 -0.0000000000e+00 -0.0000000000e+00 -3.9099475716e+02 3.9099475716e+02 0.0000000000e+00 0.0000e+00 1.0000e+00
      -13  1    1    2    0    0 +9.7084788762e+02 -4.3425217255e+02 +1.0622099448e+03 1.5031335726e+03 0.0000000000e+00 0.0000e+00 1.0000e+00
       13  1    1    2    0    0 -9.7084788762e+02 +4.3425217255e+02 +1.4876812243e+03 1.8287471109e+03 0.0000000000e+00 0.0000e+00 -1.0000e+00
<mgrwt>
<rscale>  0 0.21446407E+04</rscale>
<asrwt>0</asrwt>
<pdfrwt beam="1">  1        2 0.45244397E+00 0.21446407E+04</pdfrwt>
<pdfrwt beam="2">  1       -2 0.60153042E-01 0.21446407E+04</pdfrwt>
<totfact> 0.55103907E+00</totfact>
</mgrwt>
<rwgt>
<wgt id='morphing_basis_vector_1'> +1.8351740e-04 </wgt>
<wgt id='morphing_basis_vector_2'> +1.3185684e-04 </wgt>
<wgt id='morphing_basis_vector_3'> +1.9847609e-04 </wgt>
<wgt id='morphing_basis_vector_4'> +1.2680950e-04 </wgt>
<wgt id='morphing_basis_vector_5'> +2.1447823e-04 </wgt>
</rwgt>
</event>
<event>
 4      1 +6.0853000e-08 2.15172800e+03 7.81860800e-03 8.01200700e-02
        2 -1    0    0  501    0 +0.0000000000e+00 +0.0000000000e+00 +1.2217907238e+03 1.2217907238e+03 0.0000000000e+00 0.0000e+00 1.0000e+00
       -2 -1    0    0    0  501 -0.0000000000e+00 -0.0000000000e+00 -9.4736660172e+02 9.4736660172e+02 0.0000000000e+00 0.0000e+00 -1.0000e+00
      -13  1    1    2    0    0 +4.8856467426e+02 +9.3111728355e+02 +3.6667140649e+02 1.1136079907e+03 0.0000000000e+00 0.0000e+00 1.0000e+00
       13  1    1    2    0    0 -4.8856467426e+02 -9.3111728355e+02 -9.2247284444e+01 1.0555493348e+03 0.0000000000e+00 0.0000e+00 -1.0000e+00
<mgrwt>
<rscale>  0 0.21517284E+04</rscale>
<asrwt>0</asrwt>
<pdfrwt beam="1">  1        2 0.18796780E+00 0.21517284E+04</pdfrwt>
<pdfrwt beam="2">  1       -2 0.14574871E+00 0.21517284E+04</pdfrwt>
<totfact> 0.66187591E+00</totfact>
</mgrwt>
<rwgt>
<wgt id='morphing_basis_vector_1'> +1.9561417e-04 </wgt>
<wgt id='morphing_basis_vector_2'> +1.6228219e-04 </wgt>
<wgt id='morphing_basis_vector_3'> +2.1549239e-04 </wgt>
<wgt id='morphing_basis_vector_4'> +1.0900240e-04 </wgt>
<wgt id='morphing_basis_vector_5'> +2.1582111e-04 </wgt>
</rwgt>
</event>
<event>
 4      1 +6.0853000e-08 1.96989900e+03 7.81860800e-03 8.08402500e-02
        2 -1    0    0  501    0 +0.0000000000e+00 +0.0000000000e+00 +1.1512841482e+03 1.1512841482e+03 0.0000000000e+00 0.0000e+00 -1.0000e+00
       -2 -1    0    0    0  501 -0.0000000000e+00 -0.0000000000e+00 -8.4264660343e+02 8.4264660343e+02 0.0000000000e+00 0.0000e+00 1.0000e+00
      -13  1    1    2    0    0 -6.2250467172e+02 +4.5423257917e+02 -4.6658646390e+02 9.0085638733e+02 0.0000000000e+00 0.0000e+00 1.0000e+00
       13  1    1    2    0    0 +6.2250467172e+02 -4.5423257917e+02 +7.7522400871e+02 1.0930743643e+03 0.0000000000e+00 0.0000e+00 -1.0000e+00
<mgrwt>
<rscale>  0 0.19698992E+04</rscale>
<asrwt>0</asrwt>
<pdfrwt beam="1">  1        2 0.17712064E+00 0.19698992E+04</pdfrwt>
<pdfrwt beam="2">  1       -2 0.12963794E+00 0.19698992E+04</pdfrwt>
<totfact> 0.10204000E+01</totfact>
</mgrwt>
<rwgt>
<wgt id='morphing_basis_vector_1'> +1.2882964e-04 </wgt>
<wgt id='morphing_basis_vector_2'> +8.6304272e-05 </wgt>
<wgt id='morphing_basis_vector_3'> +1.3744239e-04 </wgt>
<wgt id='morphing_basis_vector_4'> +9.4963399e-05 </wgt>
<wgt id='morphing_basis_vector_5'> +1.5209795e-04 </wgt>
</rwgt>
</event>
<event>
 4      1 +6.0853000e-08 1.92700200e+03 7.81860800e-03 8.10219900e-02
        2 -1    0    0  501    0 +0.0000000000e+00 +0.0000000000e+00 +8.9990210953e+02 8.9990210953e+02 0.0000000000e+00 0.0000e+00 -1.0000e+00
       -2 -1    0    0    0  501 -0.0000000000e+00 -0.0000000000e+00 -1.0315950033e+03 1.0315950033e+03 0.0000000000e+00 0.0000e+00 1.0000e+00
      -13  1    1    2    0    0 +1.6645087534e+02 -8.2883441396e+02 -5.2916064011e+02 9.9733813860e+02 0.0000000000e+00 0.0000e+00 1.0000e+00
       13  1    1    2    0    0 -1.6645087534e+02 +8.2883441396e+02 +3.9746774638e+02 9.3415897420e+02 0.0000000000e+00 0.0000e+00 -1.0000e+00
<mgrwt>
<rscale>  0 0.19270024E+04</rscale>
<asrwt>0</asrwt>
<pdfrwt beam="1">  1        2 0.13844648E+00 0.19270024E+04</pdfrwt>
<pdfrwt beam="2">  1       -2 0.15870692E+00 0.19270024E+04</pdfrwt>
<totfact> 0.83085167E+00</totfact>
</mgrwt>
<rwgt>
<wgt id='morphing_basis_vector_1'> +1.1851664e-04 </wgt>
<wgt id='morphing_basis_vector_2'> +8.0059276e-05 </wgt>
<wgt id='morphing_basis_vector_3'> +1.2634488e-04 </wgt>
<wgt id='morphing_basis_vector_4'> +8.6155636e-05 </wgt>
<wgt id='morphing_basis_vector_5'> +1.3896495e-04 </wgt>
</rwgt>
</event>
<event>
 4      1 +6.0853000e-08 2.14139300e+03 7.81860800e-03 8.01590000e-02
        2 -1    0    0  501    0 +0.0000000000e+00 +0.0000000000e+00 +2.2241534701e+03 2.2241534701e+03 0.0000000000e+00 0.0000e+00 1.0000e+00
       -2 -1    0    0    0  501 -0.0000000000e+00 -0.0000000000e+00 -5.1542782527e+02 5.1542782527e+02 0.0000000000e+00 0.0000e+00 -1.0000e+00
      -13  1    1    2    0    0 -7.8759271401e+02 -8.2889981056e+01 -6.7492090703e+01 7.9481332049e+02 0.0000000000e+00 0.0000e+00 -1.0000e+00
       13  1    1    2    0    0 +7.8759271401e+02 +8.2889981056e+01 +1.7762177356e+03 1.9447679749e+03 0.0000000000e+00 0.0000e+00 1.0000e+00
<mgrwt>
<rscale>  0 0.21413926E+04</rscale>
<asrwt>0</asrwt>
<pdfrwt beam="1">  1        2 0.34217745E+00 0.21413926E+04</pdfrwt>
<pdfrwt beam="2">  1       -2 0.79296590E-01 0.21413926E+04</pdfrwt>
<totfact> 0.82757273E+00</totfact>
</mgrwt>
<rwgt>
<wgt id='morphing_basis_vector_1'> +1.7863528e-04 </wgt>
<wgt id='morphing_basis_vector_2'> +1.1985161e-04 </wgt>
<wgt id='morphing_basis_vector_3'> +1.9166178e-04 </wgt>
<wgt id='morphing_basis_vector_4'> +1.3365521e-04 </wgt>
<wgt id='morphing_basis_vector_5'> +2.1376683e-04 </wgt>
</rwgt>
</event>
<event>
 4      1 +6.0853000e-08 1.97458900e+03 7.81860800e-03 8.08206800e-02
        2 -1    0    0  501    0 +0.0000000000e+00 +0.0000000000e+00 +1.6699246775e+03 1.6699246775e+03 0.0000000000e+00 0.0000e+00 -1.0000e+00
       -2 -1    0    0    0  501 -0.0000000000e+00 -0.0000000000e+00 -5.8370913449e+02 5.8370913449e+02 0.0000000000e+00 0.0000e+00 1.0000e+00
      -13  1    1    2    0    0 -4.5516698715e+02 +7.9061264979e+02 +1.1226220547e+02 9.1915621685e+02 0.0000000000e+00 0.0000e+00 1.0000e+00
       13  1    1    2    0    0 +4.5516698715e+02 -7.9061264979e+02 +9.7395333751e+02 1.3344775951e+03 0.0000000000e+00 0.0000e+00 -1.0000e+00
<mgrwt>
<rscale>  0 0.19745889E+04</rscale>
<asrwt>0</asrwt>
<pdfrwt beam="1">  1        2 0.25691149E+00 0.19745889E+04</pdfrwt>
<pdfrwt beam="2">  1       -2 0.89801406E-01 0.19745889E+04</pdfrwt>
<totfact> 0.12923638E+01</totfact>
</mgrwt>
<rwgt>
<wgt id='morphing_basis_vector_1'> +1.3078080e-04 </wgt>
<wgt id='morphing_basis_vector_2'> +8.9329886e-05 </wgt>
<wgt id='morphing_basis_vector_3'> +1.3983549e-04 </wgt>
<wgt id='morphing_basis_vector_4'> +9.4408759e-05 </wgt>
<wgt id='morphing_basis_vector_5'> +1.5346521e-04 </wgt>
</rwgt>
</event>
<event>
 4      1 +6.0853000e-08 1.86866000e+03 7.81860800e-03 8.12772400e-02
        2 -1    0    0  501    0 +0.0000000000e+00 +0.0000000000e+00 +1.3875918197e+03 1.3875918197e+03 0.0000000000e+00 0.0000e+00 -1.0000e+00
       -2 -1    0    0    0  501 -0.0000000000e+00 -0.0000000000e+00 -6.2912795614e+02 6.2912795614e+02 0.0000000000e+00 0.0000e+00 1.0000e+00
      -13  1    1    2    0    0 -9.3351858839e+02 -3.5777768564e+01 +3.6265940127e+02 1.0021271601e+03 0.0000000000e+00 0.0000e+00 1.0000e+00
       13  1    1    2    0    0 +9.3351858839e+02 +3.5777768564e+01 +3.9580446225e+02 1.0145926158e+03 0.0000000000e+00 0.0000e+00 -1.0000e+00
<mgrwt>
<rscale>  0 0.18686603E+04</rscale>
<asrwt>0</asrwt>
<pdfrwt beam="1">  1        2 0.21347566E+00 0.18686603E+04</pdfrwt>
<pdfrwt beam="2">  1       -2 0.96788917E-01 0.18686603E+04</pdfrwt>
<totfact> 0.15732492E+01</totfact>
</mgrwt>
<rwgt>
<wgt id='morphing_basis_vector_1'> +1.0817361e-04 </wgt>
<wgt id='morphing_basis_vector_2'> +8.0019016e-05 </wgt>
<wgt id='morphing_basis_vector_3'> +1.1614769e-04 </wgt>
<wgt id='morphing_basis_vector_4'> +6.9923909e-05 </wgt>
<wgt id='morphing_basis_vector_5'> +1.2207346e-04 </wgt>
</rwgt>
</event>
<event>
 4      1 +6.0853000e-08 1.97293200e+03 7.81860800e-03 8.08275900e-02
        2 -1    0    0  501    0 +0.0000000000e+00 +0.0000000000e+00 +1.0374453950e+03 1.0374453950e+03 0.0000000000e+00 0.0000e+00 1.0000e+00
       -2 -1    0    0    0  501 -0.0000000000e+00 -0.0000000000e+00 -9.3799201936e+02 9.3799201936e+02 0.0000000000e+00 0.0000e+00 -1.0000e+00
      -13  1    1    2    0    0 -3.3176509245e+02 +3.9541699609e+02 -7.9199094388e+02 9.4534244195e+02 0.0000000000e+00 0.0000e+00 -1.0000e+00
       13  1    1    2    0    0 +3.3176509245e+02 -3.9541699609e+02 +8.9144431947e+02 1.0300949724e+03 0.0000000000e+00 0.0000e+00 1.0000e+00
<mgrwt>
<rscale>  0 0.19729323E+04</rscale>
<asrwt>0</asrwt>
<pdfrwt beam="1">  1        2 0.15960698E+00 0.19729323E+04</pdfrwt>
<pdfrwt beam="2">  1       -2 0.14430646E+00 0.19729323E+04</pdfrwt>
<totfact> 0.89017207E+00</totfact>
</mgrwt>
<rwgt>
<wgt id='morphing_basis_vector_1'> +1.2935997e-04 </wgt>
<wgt id='morphing_basis_vector_2'> +8.6096632e-05 </wgt>
<wgt id='morphing_basis_vector_3'> +1.3792917e-04 </wgt>
<wgt id='morphing_basis_vector_4'> +9.6054560e-05 </wgt>
<wgt id='morphing_basis_vector_5'> +1.5309527e-04 </wgt>
</rwgt>
</event>
<event>
 4      1 +6.0853000e-08 1.88105300e+03 7.81860800e-03 8.12222100e-02
        2 -1    0    0  501    0 +0.0000000000e+00 +0.0000000000e+00 +1.0495852095e+03 1.0495852095e+03 0.0000000000e+00 0.0000e+00 -1.0000e+00
       -2 -1    0    0    0  501 -0.0000000000e+00 -0.0000000000e+00 -8.4279967869e+02 8.4279967869e+02 0.0000000000e+00 0.0000e+00 1.0000e+00
      -13  1    1    2    0    0 -6.5202716954e+02 +5.8605165780e+02 -2.3923803217e+02 9.0875233780e+02 0.0000000000e+00 0.0000e+00 1.0000e+00
       13  1    1    2    0    0 +6.5202716954e+02 -5.8605165780e+02 +4.4602356294e+02 9.8363255035e+02 0.0000000000e+00 0.0000e+00 -1.0000e+00
<mgrwt>
<rscale>  0 0.18810530E+04</rscale>
<asrwt>0</asrwt>
<pdfrwt beam="1">  1        2 0.16147465E+00 0.18810530E+04</pdfrwt>
<pdfrwt beam="2">  1       -2 0.12966149E+00 0.18810530E+04</pdfrwt>
<totfact> 0.11829727E+01</totfact>
</mgrwt>
<rwgt>
<wgt id='morphing_basis_vector_1'> +1.0824262e-04 </wgt>
<wgt id='morphing_basis_vector_2'> +7.3949209e-05 </wgt>
<wgt id='morphing_basis_vector_3'> +1.1530949e-04 </wgt>
<wgt id='morphing_basis_vector_4'> +7.7276077e-05 </wgt>
<wgt id='morphing_basis_vector_5'> +1.2584448e-04 </wgt>
</rwgt>
</event>
<event>
 4      1 +6.0853000e-08 1.98945900e+03 7.81860800e-03 8.07589800e-02
        2 -1    0    0  501    0 +0.0000000000e+00 +0.0000000000e+00 +3.4942002587e+03 3.4942002587e+03 0.0000000000e+00 0.0000e+00 -1.0000e+00
       -2 -1    0    0    0  501 -0.0000000000e+00 -0.0000000000e+00 -2.8317962415e+02 2.8317962415e+02 0.0000000000e+00 0.0000e+00 1.0000e+00
      -13  1    1    2    0    0 -8.7178184151e+02 -4.7098706254e+02 +1.7716211041e+03 2.0298950044e+03 0.0000000000e+00 0.0000e+00 1.0000e+00
       13  1    1    2    0    0 +8.7178184151e+02 +4.7098706254e+02 +1.4393995304e+03 1.7474848785e+03 0.0000000000e+00 0.0000e+00 -1.0000e+00
<mgrwt>
<rscale>  0 0.19894585E+04</rscale>
<asrwt>0</asrwt>
<pdfrwt beam="1">  1        2 0.53756924E+00 0.19894585E+04</pdfrwt>
<pdfrwt beam="2">  1       -2 0.43566099E-01 0.19894585E+04</pdfrwt>
<totfact> 0.44435267E+00</totfact>
</mgrwt>
<rwgt>
<wgt id='morphing_basis_vector_1'> +1.4029603e-04 </wgt>
<wgt id='morphing_basis_vector_2'> +1.0864991e-04 </wgt>
<wgt id='morphing_basis_vector_3'> +1.5225162e-04 </wgt>
<wgt id='morphing_basis_vector_4'> +8.6181765e-05 </wgt>
<wgt id='morphing_basis_vector_5'> +1.5735767e-04 </wgt>
</rwgt>
</event>
<event>
 4      1 +6.0853000e-08 2.20137000e+03 7.81860800e-03 7.99361900e-02
        2 -1    0    0  501    0 +0.0000000000e+00 +0.0000000000e+00 +1.1411311382e+03 1.1411311382e+03 0.0000000000e+00 0.0000e+00 1.0000e+00
       -2 -1    0    0    0  501 -0.0000000000e+00 -0.0000000000e+00 -1.0616728313e+03 1.0616728313e+03 0.0000000000e+00 0.0000e+00 -1.0000e+00
      -13  1    1    2    0    0 -6.2647799360e+02 +7.1266156671e+02 +5.9789769155e+02 1.1215359266e+03 0.0000000000e+00 0.0000e+00 1.0000e+00
       13  1    1    2    0    0 +6.2647799360e+02 -7.1266156671e+02 -5.1843938463e+02 1.0812680429e+03 0.0000000000e+00 0.0000e+00 -1.0000e+00
<mgrwt>
<rscale>  0 0.22013704E+04</rscale>
<asrwt>0</asrwt>
<pdfrwt beam="1">  1        2 0.17555864E+00 0.22013704E+04</pdfrwt>
<pdfrwt beam="2">  1       -2 0.16333428E+00 0.22013704E+04</pdfrwt>
<totfact> 0.52826943E+00</totfact>
</mgrwt>
<rwgt>
<wgt id='morphing_basis_vector_1'> +2.3606503e-04 </wgt>
<wgt id='morphing_basis_vector_2'> +2.4293584e-04 </wgt>
<wgt id='morphing_basis_vector_3'> +2.6905042e-04 </wgt>
<wgt id='morphing_basis_vector_4'> +7.4987783e-05 </wgt>
<wgt id='morphing_basis_vector_5'> +2.3323101e-04 </wgt>
</rwgt>
</event>
<event>
 4      1 +6.0853000e-08 1.99039100e+03 7.81860800e-03 8.07551300e-02
        2 -1    0    0  501    0 +0.0000000000e+00 +0.0000000000e+00 +6.2571512635e+02 6.2571512635e+02 0.0000000000e+00 0.0000e+00 1.0000e+00
       -2 -1    0    0    0  501 -0.0000000000e+00 -0.0000000000e+00 -1.5828521869e+03 1.5828521869e+03 0.0000000000e+00 0.0000e+00 -1.0000e+00
      -13  1    1    2    0    0 +9.2578188709e+02 -3.1319068292e+02 -6.8691044157e+02 1.1945737571e+03 0.0000000000e+00 0.0000e+00 -1.0000e+00
       13  1    1    2    0    0 -9.2578188709e+02 +3.1319068292e+02 -2.7022661894e+02 1.0139935562e+03 0.0000000000e+00 0.0000e+00 1.0000e+00
<mgrwt>
<rscale>  0 0.19903915E+04</rscale>
<asrwt>0</asrwt>
<pdfrwt beam="1">  1        2 0.96263866E-01 0.19903915E+04</pdfrwt>
<pdfrwt beam="2">  1       -2 0.24351572E+00 0.19903915E+04</pdfrwt>
<totfact> 0.31025162E+00</totfact>
</mgrwt>
<rwgt>
<wgt id='morphing_basis_vector_1'> +1.3627600e-04 </wgt>
<wgt id='morphing_basis_vector_2'> +9.6184105e-05 </wgt>
<wgt id='morphing_basis_vector_3'> +1.4631796e-04 </wgt>
<wgt id='morphing_basis_vector_4'> +9.4851917e-05 </wgt>
<wgt id='morphing_basis_vector_5'> +1.5832964e-04 </wgt>
</rwgt>
</event>
<event>
 4      1 +6.0853000e-08 2.13165700e+03 7.81860800e-03 8.01958700e-02
        2 -1    0    0  501    0 +0.0000000000e+00 +0.0000000000e+00 +1.6640140025e+03 1.6640140025e+03 0.0000000000e+00 0.0000e+00 -1.0000e+00
       -2 -1    0    0    0  501 -0.0000000000e+00 -0.0000000000e+00 -6.8268105402e+02 6.8268105402e+02 0.0000000000e+00 0.0000e+00 1.0000e+00
      -13  1    1    2    0    0 +7.9652117900e+02 +3.7275066871e+02 -1.7224298682e+02 8.9613430697e+02 0.0000000000e+00 0.0000e+00 1.0000e+00
       13  1    1    2    0    0 -7.9652117900e+02 -3.7275066871e+02 +1.1535759353e+03 1.4505607495e+03 0.0000000000e+00 0.0000e+00 -1.0000e+00
<mgrwt>
<rscale>  0 0.21316574E+04</rscale>
<asrwt>0</asrwt>
<pdfrwt beam="1">  1        2 0.25600215E+00 0.21316574E+04</pdfrwt>
<pdfrwt beam="2">  1       -2 0.10502785E+00 0.21316574E+04</pdfrwt>
<totfact> 0.88363504E+00</totfact>
</mgrwt>
<rwgt>
<wgt id='morphing_basis_vector_1'> +1.7574014e-04 </wgt>
<wgt id='morphing_basis_vector_2'> +1.1851481e-04 </wgt>
<wgt id='morphing_basis_vector_3'> +1.8861084e-04 </wgt>
<wgt id='morphing_basis_vector_4'> +1.3064890e-04 </wgt>
<wgt id='morphing_basis_vector_5'> +2.0979465e-04 </wgt>
</rwgt>
</event>
<event>
 4      1 +6.0853000e-08 2.06634500e+03 7.81860800e-03 8.04486700e-02
        2 -1    0    0  501    0 +0.0000000000e+00 +0.0000000000e+00 +1.7529018827e+03 1.7529018827e+03 0.0000000000e+00 0.0000e+00 -1.0000e+00
       -2 -1    0    0    0  501 -0.0000000000e+00 -0.0000000000e+00 -6.0895873584e+02 6.0895873584e+02 0.0000000000e+00 0.0000e+00 1.0000e+00
      -13  1    1    2    0    0 +3.0207242486e+02 +7.3817481417e+02 -1.7868069126e+02 8.1735952650e+02 0.0000000000e+00 0.0000e+00 1.0000e+00
       13  1    1    2    0    0 -3.0207242486e+02 -7.3817481417e+02 +1.3226238381e+03 1.5445010920e+03 0.0000000000e+00 0.0000e+00 -1.0000e+00
<mgrwt>
<rscale>  0 0.20663445E+04</rscale>
<asrwt>0</asrwt>
<pdfrwt beam="1">  1        2 0.26967721E+00 0.20663445E+04</pdfrwt>
<pdfrwt beam="2">  1       -2 0.93685960E-01 0.20663445E+04</pdfrwt>
<totfact> 0.10439095E+01</totfact>
</mgrwt>
<rwgt>
<wgt id='morphing_basis_vector_1'> +1.5535512e-04 </wgt>
<wgt id='morphing_basis_vector_2'> +1.0423806e-04 </wgt>
<wgt id='morphing_basis_vector_3'> +1.6631163e-04 </wgt>
<wgt id='morphing_basis_vector_4'> +1.1544792e-04 </wgt>
<wgt id='morphing_basis_vector_5'> +1.8484706e-04 </wgt>
</rwgt>
</event>
<event>
 4      1 +6.0853000e-08 2.21604000e+03 7.81860800e-03 7.98828100e-02
        2 -1    0    0  501    0 +0.0000000000e+00 +0.0000000000e+00 +2.1599871181e+03 2.1599871181e+03 0.0000000000e+00 0.0000e+00 -1.0000e+00
       -2 -1    0    0    0  501 -0.0000000000e+00 -0.0000000000e+00 -5.6838685253e+02 5.6838685253e+02 0.0000000000e+00 0.0000e+00 1.0000e+00
      -13  1    1    2    0    0 +2.6444697186e+01 +3.6046350331e+02 -4.9376853557e+02 6.1191553825e+02 0.0000000000e+00 0.0000e+00 1.0000e+00
       13  1    1    2    0    0 -2.6444697186e+01 -3.6046350331e+02 +2.0853688011e+03 2.1164584324e+03 0.0000000000e+00 0.0000e+00 -1.0000e+00
<mgrwt>
<rscale>  0 0.22160400E+04</rscale>
<asrwt>0</asrwt>
<pdfrwt beam="1">  1        2 0.33230571E+00 0.22160400E+04</pdfrwt>
<pdfrwt beam="2">  1       -2 0.87444132E-01 0.22160400E+04</pdfrwt>
<totfact> 0.71502437E+00</totfact>
</mgrwt>
<rwgt>
<wgt id='morphing_basis_vector_1'> +2.0408865e-04 </wgt>
<wgt id='morphing_basis_vector_2'> +1.3640931e-04 </wgt>
<wgt id='morphing_basis_vector_3'> +2.1931625e-04 </wgt>
<wgt id='morphing_basis_vector_4'> +1.5425817e-04 </wgt>
<wgt id='morphing_basis_vector_5'> +2.4578862e-04 </wgt>
</rwgt>
</event>
<event>
 4      1 +6.0853000e-08 2.08903400e+03 7.81860800e-03 8.03597600e-02
        2 -1    0    0  501    0 +0.0000000000e+00 +0.0000000000e+00 +2.2077355936e+03 2.2077355936e+03 0.0000000000e+00 0.0000e+00 1.0000e+00
       -2 -1    0    0    0  501 -0.0000000000e+00 -0.0000000000e+00 -4.9417854318e+02 4.9417854318e+02 0.0000000000e+00 0.0000e+00 -1.0000e+00
      -13  1    1    2    0    0 -7.7054820951e+02 +5.4047505339e+02 +1.4426063852e+03 1.7224897704e+03 0.0000000000e+00 0.0000e+00 1.0000e+00
       13  1    1    2    0    0 +7.7054820951e+02 -5.4047505339e+02 +2.7095066526e+02 9.7942436641e+02 0.0000000000e+00 0.0000e+00 -1.0000e+00
<mgrwt>
<rscale>  0 0.20890338E+04</rscale>
<asrwt>0</asrwt>
<pdfrwt beam="1">  1        2 0.33965162E+00 0.20890338E+04</pdfrwt>
<pdfrwt beam="2">  1       -2 0.76027469E-01 0.20890338E+04</pdfrwt>
<totfact> 0.93365693E+00</totfact>
</mgrwt>
<rwgt>
<wgt id='morphing_basis_vector_1'> +1.8655912e-04 </wgt>
<wgt id='morphing_basis_vector_2'> +1.8104236e-04 </wgt>
<wgt id='morphing_basis_vector_3'> +2.0964237e-04 </wgt>
<wgt id='morphing_basis_vector_4'> +7.1815444e-05 </wgt>
<wgt id='morphing_basis_vector_5'> +1.8937630e-04 </wgt>
</rwgt>
</event>
<event>
 4      1 +6.0853000e-08 2.13607100e+03 7.81860800e-03 8.01791300e-02
        2 -1    0    0  501    0 +0.0000000000e+00 +0.0000000000e+00 +2.5687457419e+03 2.5687457419e+03 0.0000000000e+00 0.0000e+00 1.0000e+00
       -2 -1    0    0    0  501 -0.0000000000e+00 -0.0000000000e+00 -4.4406882624e+02 4.4406882624e+02 0.0000000000e+00 0.0000e+00 -1.0000e+00
      -13  1    1    2    0    0 -5.7966633738e+02 +4.0976369626e+02 +2.1878542715e+03 2.3001360096e+03 0.0000000000e+00 0.0000e+00 1.0000e+00
       13  1    1    2    0    0 +5.7966633738e+02 -4.0976369626e+02 -6.3177355842e+01 7.1267855851e+02 0.0000000000e+00 0.0000e+00 -1.0000e+00
<mgrwt>
<rscale>  0 0.21360711E+04</rscale>
<asrwt>0</asrwt>
<pdfrwt beam="1">  1        2 0.39519164E+00 0.21360711E+04</pdfrwt>
<pdfrwt beam="2">  1       -2 0.68318283E-01 0.21360711E+04</pdfrwt>
<totfact> 0.71988956E+00</totfact>
</mgrwt>
<rwgt>
<wgt id='morphing_basis_vector_1'> +2.3152092e-04 </wgt>
<wgt id='morphing_basis_vector_2'> +2.8021739e-04 </wgt>
<wgt id='morphing_basis_vector_3'> +2.7059410e-04 </wgt>
<wgt id='morphing_basis_vector_4'> +2.2519964e-05 </wgt>
<wgt id='morphing_basis_vector_5'> +2.0286880e-04 </wgt>
</rwgt>
</event>
<event>
 4      1 +6.0853000e-08 2.02841400e+03 7.81860800e-03 8.05999700e-02
        2 -1    0    0  501    0 +0.0000000000e+00 +0.0000000000e+00 +2.0085318613e+03 2.0085318613e+03 0.0000000000e+00 0.0000e+00 1.0000e+00
       -2 -1    0    0    0  501 -0.0000000000e+00 -0.0000000000e+00 -5.1212342979e+02 5.1212342979e+02 0.0000000000e+00 0.0000e+00 -1.0000e+00
      -13  1    1    2    0    0 -1.6457052997e+02 +6.2745445986e+02 -2.2062929712e+02 6.8517139846e+02 0.0000000000e+00 0.0000e+00 -1.0000e+00
       13  1    1    2    0    0 +1.6457052997e+02 -6.2745445986e+02 +1.7170377286e+03 1.8354838926e+03 0.0000000000e+00 0.0000e+00 1.0000e+00
<mgrwt>
<rscale>  0 0.20284144E+04</rscale>
<asrwt>0</asrwt>
<pdfrwt beam="1">  1        2 0.30900490E+00 0.20284144E+04</pdfrwt>
<pdfrwt beam="2">  1       -2 0.78788221E-01 0.20284144E+04</pdfrwt>
<totfact> 0.11242391E+01</totfact>
</mgrwt>
<rwgt>
<wgt id='morphing_basis_vector_1'> +1.4427588e-04 </wgt>
<wgt id='morphing_basis_vector_2'> +9.6292156e-05 </wgt>
<wgt id='morphing_basis_vector_3'> +1.5417346e-04 </wgt>
<wgt id='morphing_basis_vector_4'> +1.0743110e-04 </wgt>
<wgt id='morphing_basis_vector_5'> +1.7142949e-04 </wgt>
</rwgt>
</event>
<event>
 4      1 +6.0853000e-08 2.19270300e+03 7.81860800e-03 7.99679300e-02
        2 -1    0    0  501    0 +0.0000000000e+00 +0.0000000000e+00 +4.0344680139e+03 4.0344680139e+03 0.0000000000e+00 0.0000e+00 -1.0000e+00
       -2 -1    0    0    0  501 -0.0000000000e+00 -0.0000000000e+00 -2.9792931948e+02 2.9792931948e+02 0.0000000000e+00 0.0000e+00 1.0000e+00
      -13  1    1    2    0    0 -5.0100197803e+02 +6.1607956035e+02 +3.7468491835e+02 8.7803518990e+02 0.0000000000e+00 0.0000e+00 1.0000e+00
       13  1    1    2    0    0 +5.0100197803e+02 -6.1607956035e+02 +3.3618537761e+03 3.4543621435e+03 0.0000000000e+00 0.0000e+00 -1.0000e+00
<mgrwt>
<rscale>  0 0.21927027E+04</rscale>
<asrwt>0</asrwt>
<pdfrwt beam="1">  1        2 0.62068735E+00 0.21927027E+04</pdfrwt>
<pdfrwt beam="2">  1       -2 0.45835283E-01 0.21927027E+04</pdfrwt>
<totfact> 0.14843228E+00</totfact>
</mgrwt>
<rwgt>
<wgt id='morphing_basis_vector_1'> +1.9602611e-04 </wgt>
<wgt id='morphing_basis_vector_2'> +1.3156440e-04 </wgt>
<wgt id='morphing_basis_vector_3'> +2.1062383e-04 </wgt>
<wgt id='morphing_basis_vector_4'> +1.4723445e-04 </wgt>
<wgt id='morphing_basis_vector_5'> +2.3539031e-04 </wgt>
</rwgt>
</event>
<event>
 4      1 +6.0853000e-08 1.97306800e+03 7.81860800e-03 8.08270200e-02
        2 -1    0    0  501    0 +0.0000000000e+00 +0.0000000000e+00 +9.3851793806e+02 9.3851793806e+02 0.0000000000e+00 0.0000e+00 1.0000e+00
       -2 -1    0    0    0  501 -0.0000000000e+00 -0.0000000000e+00 -1.0370066621e+03 1.0370066621e+03 0.0000000000e+00 0.0000e+00 -1.0000e+00
      -13  1    1    2    0    0 -2.2310789268e+02 +1.2497340673e+02 -1.0032443274e+03 1.0353234590e+03 0.0000000000e+00 0.0000e+00 -1.0000e+00
       13  1    1    2    0    0 +2.2310789268e+02 -1.2497340673e+02 +9.0475560336e+02 9.4020114123e+02 0.0000000000e+00 0.0000e+00 1.0000e+00
<mgrwt>
<rscale>  0 0.19730680E+04</rscale>
<asrwt>0</asrwt>
<pdfrwt beam="1">  1        2 0.14438737E+00 0.19730680E+04</pdfrwt>
<pdfrwt beam="2">  1       -2 0.15953949E+00 0.19730680E+04</pdfrwt>
<totfact> 0.76932011E+00</totfact>
</mgrwt>
<rwgt>
<wgt id='morphing_basis_vector_1'> +1.2936301e-04 </wgt>
<wgt id='morphing_basis_vector_2'> +8.6025888e-05 </wgt>
<wgt id='morphing_basis_vector_3'> +1.3792090e-04 </wgt>
<wgt id='morphing_basis_vector_4'> +9.6144677e-05 </wgt>
<wgt id='morphing_basis_vector_5'> +1.5314324e-04 </wgt>
</rwgt>
</event>
<event>
 4      1 +6.0853000e-08 1.89621700e+03 7.81860800e-03 8.11554800e-02
        2 -1    0    0  501    0 +0.0000000000e+00 +0.0000000000e+00 +2.1661286336e+03 2.1661286336e+03 0.0000000000e+00 0.0000e+00 1.0000e+00
       -2 -1    0    0    0  501 -0.0000000000e+00 -0.0000000000e+00 -4.1498437911e+02 4.1498437911e+02 0.0000000000e+00 0.0000e+00 -1.0000e+00
      -13  1    1    2    0    0 +1.5283551608e+02 +6.0115172374e+02 -1.0047619849e+02 6.2836100802e+02 0.0000000000e+00 0.0000e+00 -1.0000e+00
       13  1    1    2    0    0 -1.5283551608e+02 -6.0115172374e+02 +1.8516204530e+03 1.9527520047e+03 0.0000000000e+00 0.0000e+00 1.0000e+00
<mgrwt>
<rscale>  0 0.18962168E+04</rscale>
<asrwt>0</asrwt>
<pdfrwt beam="1">  1        2 0.33325055E+00 0.18962168E+04</pdfrwt>
<pdfrwt beam="2">  1       -2 0.63843752E-01 0.18962168E+04</pdfrwt>
<totfact> 0.14586584E+01</totfact>
</mgrwt>
<rwgt>
<wgt id='morphing_basis_vector_1'> +1.1081928e-04 </wgt>
<wgt id='morphing_basis_vector_2'> +7.3744114e-05 </wgt>
<wgt id='morphing_basis_vector_3'> +1.1781280e-04 </wgt>
<wgt id='morphing_basis_vector_4'> +8.1579197e-05 </wgt>
<wgt id='morphing_basis_vector_5'> +1.3018108e-04 </wgt>
</rwgt>
</event>
<event>
 4      1 +6.0853000e-08 1.98755600e+03 7.81860800e-03 8.07668400e-02
        2 -1    0    0  501    0 +0.0000000000e+00 +0.0000000000e+00 +2.1590519237e+03 2.1590519237e+03 0.0000000000e+00 0.0000e+00 -1.0000e+00
       -2 -1    0    0    0  501 -0.0000000000e+00 -0.0000000000e+00 -4.5742061818e+02 4.5742061818e+02 0.0000000000e+00 0.0000e+00 1.0000e+00
      -13  1    1    2    0    0 -9.5421738953e+02 +3.3170987566e+01 +4.8798840058e+02 1.0722704043e+03 0.0000000000e+00 0.0000e+00 1.0000e+00
       13  1    1    2    0    0 +9.5421738953e+02 -3.3170987566e+01 +1.2136429050e+03 1.5442021376e+03 0.0000000000e+00 0.0000e+00 -1.0000e+00
<mgrwt>
<rscale>  0 0.19875562E+04</rscale>
<asrwt>0</asrwt>
<pdfrwt beam="1">  1        2 0.33216183E+00 0.19875562E+04</pdfrwt>
<pdfrwt beam="2">  1       -2 0.70372404E-01 0.19875562E+04</pdfrwt>
<totfact> 0.11886411E+01</totfact>
</mgrwt>
<rwgt>
<wgt id='morphing_basis_vector_1'> +1.3479301e-04 </wgt>
<wgt id='morphing_basis_vector_2'> +9.3498957e-05 </wgt>
<wgt id='morphing_basis_vector_3'> +1.4443440e-04 </wgt>
<wgt id='morphing_basis_vector_4'> +9.5740942e-05 </wgt>
<wgt id='morphing_basis_vector_5'> +1.5752461e-04 </wgt>
</rwgt>
</event>
<event>
 4      1 +6.0853000e-08 1.86041200e+03 7.81860800e-03 8.13141100e-02
        2 -1    0    0  501    0 +0.0000000000e+00 +0.0000000000e+00 +1.6372679657e+03 1.6372679657e+03 0.0000000000e+00 0.0000e+00 1.0000e+00
       -2 -1    0    0    0  501 -0.0000000000e+00 -0.0000000000e+00 -5.2849219392e+02 5.2849219392e+02 0.0000000000e+00 0.0000e+00 -1.0000e+00
      -13  1    1    2    0    0 +4.6379795125e+02 +5.6350231969e+02 -1.1702301439e+02 7.3914666324e+02 0.0000000000e+00 0.0000e+00 -1.0000e+00
       13  1    1    2    0    0 -4.6379795125e+02 -5.6350231969e+02 +1.2257987862e+03 1.4266134964e+03 0.0000000000e+00 0.0000e+00 1.0000e+00
<mgrwt>
<rscale>  0 0.18604121E+04</rscale>
<asrwt>0</asrwt>
<pdfrwt beam="1">  1        2 0.25188738E+00 0.18604121E+04</pdfrwt>
<pdfrwt beam="2">  1       -2 0.81306492E-01 0.18604121E+04</pdfrwt>
<totfact> 0.17116906E+01</totfact>
</mgrwt>
<rwgt>
<wgt id='morphing_basis_vector_1'> +1.0301007e-04 </wgt>
<wgt id='morphing_basis_vector_2'> +6.8819069e-05 </wgt>
<wgt id='morphing_basis_vector_3'> +1.0939041e-04 </wgt>
<wgt id='morphing_basis_vector_4'> +7.5172369e-05 </wgt>
<wgt id='morphing_basis_vector_5'> +1.2039046e-04 </wgt>
</rwgt>
</event>
<event>
 4      1 +6.0853000e-08 1.98945300e+03 7.81860800e-03 8.07590000e-02
        2 -1    0    0  501    0 +0.0000000000e+00 +0.0000000000e+00 +9.1667040399e+02 9.1667040399e+02 0.0000000000e+00 0.0000e+00 -1.0000e+00
       -2 -1    0    0    0  501 -0.0000000000e+00 -0.0000000000e+00 -1.0794296744e+03 1.0794296744e+03 0.0000000000e+00 0.0000e+00 1.0000e+00
      -13  1    1    2    0    0 +3.2136594959e+02 -8.3721126209e+02 -5.1326222250e+02 1.0332651547e+03 0.0000000000e+00 0.0000e+00 1.0000e+00
       13  1    1    2    0    0 -3.2136594959e+02 +8.3721126209e+02 +3.5050295205e+02 9.6283492371e+02 0.0000000000e+00 0.0000e+00 -1.0000e+00
<mgrwt>
<rscale>  0 0.19894534E+04</rscale>
<asrwt>0</asrwt>
<pdfrwt beam="1">  1        2 0.14102622E+00 0.19894534E+04</pdfrwt>
<pdfrwt beam="2">  1       -2 0.16606610E+00 0.19894534E+04</pdfrwt>
<totfact> 0.70430240E+00</totfact>
</mgrwt>
<rwgt>
<wgt id='morphing_basis_vector_1'> +1.3445699e-04 </wgt>
<wgt id='morphing_basis_vector_2'> +9.1363147e-05 </wgt>
<wgt id='morphing_basis_vector_3'> +1.4376374e-04 </wgt>
<wgt id='morphing_basis_vector_4'> +9.7785916e-05 </wgt>
<wgt id='morphing_basis_vector_5'> +1.5827103e-04 </wgt>
</rwgt>
</event>
<event>
 4      1 +6.0853000e-08 1.87695000e+03 7.81860800e-03 8.12403800e-02
        2 -1    0    0  501    0 +0.0000000000e+00 +0.0000000000e+00 +2.3960935117e+03 2.3960935117e+03 0.0000000000e+00 0.0000e+00 1.0000e+00
       -2 -1    0    0    0  501 -0.0000000000e+00 -0.0000000000e+00 -3.6757121268e+02 3.6757121268e+02 0.0000000000e+00 0.0000e+00 -1.0000e+00
      -13  1    1    2    0    0 +5.2846093530e+02 +1.2738610244e+02 -1.1215418154e+02 5.5504661035e+02 0.0000000000e+00 0.0000e+00 -1.0000e+00
       13  1    1    2    0    0 -5.2846093530e+02 -1.2738610244e+02 +2.1406764806e+03 2.2086181141e+03 0.0000000000e+00 0.0000e+00 1.0000e+00
<mgrwt>
<rscale>  0 0.18769497E+04</rscale>
<asrwt>0</asrwt>
<pdfrwt beam="1">  1        2 0.36862976E+00 0.18769497E+04</pdfrwt>
<pdfrwt beam="2">  1       -2 0.56549419E-01 0.18769497E+04</pdfrwt>
<totfact> 0.13805605E+01</totfact>
</mgrwt>
<rwgt>
<wgt id='morphing_basis_vector_1'> +1.0644364e-04 </wgt>
<wgt id='morphing_basis_vector_2'> +7.0707040e-05 </wgt>
<wgt id='morphing_basis_vector_3'> +1.1305133e-04 </wgt>
<wgt id='morphing_basis_vector_4'> +7.8318803e-05 </wgt>
<wgt id='morphing_basis_vector_5'> +1.2486017e-04 </wgt>
</rwgt>
</event>
<event>
 4      1 +6.0853000e-08 2.15492000e+03 7.81860800e-03 8.01080900e-02
        2 -1    0    0  501    0 +0.0000000000e+00 +0.0000000000e+00 +1.4438890251e+03 1.4438890251e+03 0.0000000000e+00 0.0000e+00 -1.0000e+00
       -2 -1    0    0    0  501 -0.0000000000e+00 -0.0000000000e+00 -8.0402279114e+02 8.0402279114e+02 0.0000000000e+00 0.0000e+00 1.0000e+00
      -13  1    1    2    0    0 +7.0967029174e+02 +7.6332463482e+02 +6.0489403714e+02 1.2050697977e+03 0.0000000000e+00 0.0000e+00 -1.0000e+00
       13  1    1    2    0    0 -7.0967029174e+02 -7.6332463482e+02 +3.4972196815e+01 1.0428420186e+03 0.0000000000e+00 0.0000e+00 1.0000e+00
<mgrwt>
<rscale>  0 0.21549197E+04</rscale>
<asrwt>0</asrwt>
<pdfrwt beam="1">  1        2 0.22213677E+00 0.21549197E+04</pdfrwt>
<pdfrwt beam="2">  1       -2 0.12369581E+00 0.21549197E+04</pdfrwt>
<totfact> 0.77191318E+00</totfact>
</mgrwt>
<rwgt>
<wgt id='morphing_basis_vector_1'> +1.9882312e-04 </wgt>
<wgt id='morphing_basis_vector_2'> +1.6934643e-04 </wgt>
<wgt id='morphing_basis_vector_3'> +2.1984043e-04 </wgt>
<wgt id='morphing_basis_vector_4'> +1.0550305e-04 </wgt>
<wgt id='morphing_basis_vector_5'> +2.1679467e-04 </wgt>
</rwgt>
</event>
<event>
 4      1 +6.0853000e-08 2.07868400e+03 7.81860800e-03 8.04001700e-02
        2 -1    0    0  501    0 +0.0000000000e+00 +0.0000000000e+00 +6.2343973934e+02 6.2343973934e+02 0.0000000000e+00 0.0000e+00 1.0000e+00
       -2 -1    0    0    0  501 -0.0000000000e+00 -0.0000000000e+00 -1.7326967657e+03 1.7326967657e+03 0.0000000000e+00 0.0000e+00 -1.0000e+00
      -13  1    1    2    0    0 -3.8832706936e+02 +9.5408316869e+02 -3.9773570195e+02 1.1042039187e+03 0.0000000000e+00 0.0000e+00 1.0000e+00
       13  1    1    2    0    0 +3.8832706936e+02 -9.5408316869e+02 -7.1152132446e+02 1.2519325863e+03 0.0000000000e+00 0.0000e+00 -1.0000e+00
<mgrwt>
<rscale>  0 0.20786842E+04</rscale>
<asrwt>0</asrwt>
<pdfrwt beam="1">  1        2 0.95913807E-01 0.20786842E+04</pdfrwt>
<pdfrwt beam="2">  1       -2 0.26656873E+00 0.20786842E+04</pdfrwt>
<totfact> 0.21437783E+00</totfact>
</mgrwt>
<rwgt>
<wgt id='morphing_basis_vector_1'> +1.6798404e-04 </wgt>
<wgt id='morphing_basis_vector_2'> +1.3322840e-04 </wgt>
<wgt id='morphing_basis_vector_3'> +1.8348090e-04 </wgt>
<wgt id='morphing_basis_vector_4'> +1.0035298e-04 </wgt>
<wgt id='morphing_basis_vector_5'> +1.8796405e-04 </wgt>
</rwgt>
</event>
<event>
 4      1 +6.0853000e-08 2.18841400e+03 7.81860800e-03 7.99837000e-02
        2 -1    0    0  501    0 +0.0000000000e+00 +0.0000000000e+00 +1.4401687792e+03 1.4401687792e+03 0.0000000000e+00 0.0000e+00 -1.0000e+00
       -2 -1    0    0    0  501 -0.0000000000e+00 -0.0000000000e+00 -8.3135345556e+02 8.3135345556e+02 0.0000000000e+00 0.0000e+00 1.0000e+00
      -13  1    1    2    0    0 -6.5408081243e+02 +2.9459376229e+00 -6.0609278272e+02 8.9172801291e+02 0.0000000000e+00 0.0000e+00 1.0000e+00
       13  1    1    2    0    0 +6.5408081243e+02 -2.9459376229e+00 +1.2149081064e+03 1.3797942219e+03 0.0000000000e+00 0.0000e+00 -1.0000e+00
<mgrwt>
<rscale>  0 0.21884143E+04</rscale>
<asrwt>0</asrwt>
<pdfrwt beam="1">  1        2 0.22156443E+00 0.21884143E+04</pdfrwt>
<pdfrwt beam="2">  1       -2 0.12790053E+00 0.21884143E+04</pdfrwt>
<totfact> 0.70821297E+00</totfact>
</mgrwt>
<rwgt>
<wgt id='morphing_basis_vector_1'> +1.9435270e-04 </wgt>
<wgt id='morphing_basis_vector_2'> +1.3004256e-04 </wgt>
<wgt id='morphing_basis_vector_3'> +2.0872998e-04 </wgt>
<wgt id='morphing_basis_vector_4'> +1.4641050e-04 </wgt>
<wgt id='morphing_basis_vector_5'> +2.3355102e-04 </wgt>
</rwgt>
</event>
<event>
 4      1 +6.0853000e-08 1.89371200e+03 7.81860800e-03 8.11664600e-02
        2 -1    0    0  501    0 +0.0000000000e+00 +0.0000000000e+00 +2.0893836179e+03 2.0893836179e+03 0.0000000000e+00 0.0000e+00 -1.0000e+00
       -2 -1    0    0    0  501 -0.0000000000e+00 -0.0000000000e+00 -4.2909119504e+02 4.2909119504e+02 0.0000000000e+00 0.0000e+00 1.0000e+00
      -13  1    1    2    0    0 +4.5711897747e+02 +6.2876176978e+02 +1.1120841573e+02 7.8528111810e+02 0.0000000000e+00 0.0000e+00 1.0000e+00
       13  1    1    2    0    0 -4.5711897747e+02 -6.2876176978e+02 +1.5490840072e+03 1.7331936949e+03 0.0000000000e+00 0.0000e+00 -1.0000e+00
<mgrwt>
<rscale>  0 0.18937118E+04</rscale>
<asrwt>0</asrwt>
<pdfrwt beam="1">  1        2 0.32144363E+00 0.18937118E+04</pdfrwt>
<pdfrwt beam="2">  1       -2 0.66014031E-01 0.18937118E+04</pdfrwt>
<totfact> 0.15039861E+01</totfact>
</mgrwt>
<rwgt>
<wgt id='morphing_basis_vector_1'> +1.1049258e-04 </wgt>
<wgt id='morphing_basis_vector_2'> +7.4084055e-05 </wgt>
<wgt id='morphing_basis_vector_3'> +1.1754340e-04 </wgt>
<wgt id='morphing_basis_vector_4'> +8.0657453e-05 </wgt>
<wgt id='morphing_basis_vector_5'> +1.2944142e-04 </wgt>
</rwgt>
</event>
<event>
 4      1 +6.0853000e-08 2.13744800e+03 7.81860800e-03 8.01739100e-02
        2 -1    0    0  501    0 +0.0000000000e+00 +0.0000000000e+00 +1.3316616074e+03 1.3316616074e+03 0.0000000000e+00 0.0000e+00 1.0000e+00
       -2 -1    0    0    0  501 -0.0000000000e+00 -0.0000000000e+00 -8.5770399783e+02 8.5770399783e+02 0.0000000000e+00 0.0000e+00 -1.0000e+00
      -13  1    1    2    0    0 -1.0336406984e+03 +3.7008440609e+01 -3.8607877464e+01 1.0350233265e+03 0.0000000000e+00 0.0000e+00 -1.0000e+00
       13  1    1    2    0    0 +1.0336406984e+03 -3.7008440609e+01 +5.1256548703e+02 1.1543422788e+03 0.0000000000e+00 0.0000e+00 1.0000e+00
<mgrwt>
<rscale>  0 0.21374485E+04</rscale>
<asrwt>0</asrwt>
<pdfrwt beam="1">  1        2 0.20487102E+00 0.21374485E+04</pdfrwt>
<pdfrwt beam="2">  1       -2 0.13195446E+00 0.21374485E+04</pdfrwt>
<totfact> 0.75391758E+00</totfact>
</mgrwt>
<rwgt>
<wgt id='morphing_basis_vector_1'> +1.7954540e-04 </wgt>
<wgt id='morphing_basis_vector_2'> +1.2548215e-04 </wgt>
<wgt id='morphing_basis_vector_3'> +1.9351059e-04 </wgt>
<wgt id='morphing_basis_vector_4'> +1.2823547e-04 </wgt>
<wgt id='morphing_basis_vector_5'> +2.1181663e-04 </wgt>
</rwgt>
</event>
<event>
 4      1 +6.0853000e-08 1.99413500e+03 7.81860800e-03 8.07396900e-02
        2 -1    0    0  501    0 +0.0000000000e+00 +0.0000000000e+00 +7.6208564724e+02 7.6208564724e+02 0.0000000000e+00 0.0000e+00 -1.0000e+00
       -2 -1    0    0    0  501 -0.0000000000e+00 -0.0000000000e+00 -1.3045032528e+03 1.3045032528e+03 0.0000000000e+00 0.0000e+00 1.0000e+00
      -13  1    1    2    0    0 +1.9905686373e+02 +9.5713081243e+02 -6.8076350219e+01 9.7997827351e+02 0.0000000000e+00 0.0000e+00 1.0000e+00
       13  1    1    2    0    0 -1.9905686373e+02 -9.5713081243e+02 -4.7434125529e+02 1.0866106265e+03 0.0000000000e+00 0.0000e+00 -1.0000e+00
<mgrwt>
<rscale>  0 0.19941346E+04</rscale>
<asrwt>0</asrwt>
<pdfrwt beam="1">  1        2 0.11724395E+00 0.19941346E+04</pdfrwt>
<pdfrwt beam="2">  1       -2 0.20069281E+00 0.19941346E+04</pdfrwt>
<totfact> 0.49078160E+00</totfact>
</mgrwt>
<rwgt>
<wgt id='morphing_basis_vector_1'> +1.4462081e-04 </wgt>
<wgt id='morphing_basis_vector_2'> +1.1862936e-04 </wgt>
<wgt id='morphing_basis_vector_3'> +1.5809494e-04 </wgt>
<wgt id='morphing_basis_vector_4'> +8.0988502e-05 </wgt>
<wgt id='morphing_basis_vector_5'> +1.5839726e-04 </wgt>
</rwgt>
</event>
<event>
 4      1 +6.0853000e-08 2.19064200e+03 7.81860800e-03 7.99755000e-02
        2 -1    0    0  501    0 +0.0000000000e+00 +0.0000000000e+00 +2.1886118448e+03 2.1886118448e+03 0.0000000000e+00 0.0000e+00 -1.0000e+00
       -2 -1    0    0    0  501 -0.0000000000e+00 -0.0000000000e+00 -5.4816870729e+02 5.4816870729e+02 0.0000000000e+00 0.0000e+00 1.0000e+00
      -13  1    1    2    0    0 +7.1476315997e+02 +8.0614275034e+02 +5.7357946589e+02 1.2205514788e+03 0.0000000000e+00 0.0000e+00 1.0000e+00
       13  1    1    2    0    0 -7.1476315997e+02 -8.0614275034e+02 +1.0668636716e+03 1.5162290732e+03 0.0000000000e+00 0.0000e+00 -1.0000e+00
<mgrwt>
<rscale>  0 0.21906424E+04</rscale>
<asrwt>0</asrwt>
<pdfrwt beam="1">  1        2 0.33670951E+00 0.21906424E+04</pdfrwt>
<pdfrwt beam="2">  1       -2 0.84333648E-01 0.21906424E+04</pdfrwt>
<totfact> 0.75044168E+00</totfact>
</mgrwt>
<rwgt>
<wgt id='morphing_basis_vector_1'> +1.9866704e-04 </wgt>
<wgt id='morphing_basis_vector_2'> +1.4101958e-04 </wgt>
<wgt id='morphing_basis_vector_3'> +2.1484085e-04 </wgt>
<wgt id='morphing_basis_vector_4'> +1.3988707e-04 </wgt>
<wgt id='morphing_basis_vector_5'> +2.3394991e-04 </wgt>
</rwgt>
</event>
<event>
 4      1 +6.0853000e-08 2.05279100e+03 7.81860800e-03 8.05023400e-02
        2 -1    0    0  501    0 +0.0000000000e+00 +0.0000000000e+00 +2.1229775235e+03 2.1229775235e+03 0.0000000000e+00 0.0000e+00 -1.0000e+00
       -2 -1    0    0    0  501 -0.0000000000e+00 -0.0000000000e+00 -4.9623125323e+02 4.9623125323e+02 0.0000000000e+00 0.0000e+00 1.0000e+00
      -13  1    1    2    0    0 -6.0423208150e+02 -8.2969237888e+02 +8.1159359939e+02 1.3084991488e+03 0.0000000000e+00 0.0000e+00 1.0000e+00
       13  1    1    2    0    0 +6.0423208150e+02 +8.2969237888e+02 +8.1515267091e+02 1.3107096279e+03 0.0000000000e+00 0.0000e+00 -1.0000e+00
<mgrwt>
<rscale>  0 0.20527911E+04</rscale>
<asrwt>0</asrwt>
<pdfrwt beam="1">  1        2 0.32661192E+00 0.20527911E+04</pdfrwt>
<pdfrwt beam="2">  1       -2 0.76343271E-01 0.20527911E+04</pdfrwt>
<totfact> 0.10373193E+01</totfact>
</mgrwt>
<rwgt>
<wgt id='morphing_basis_vector_1'> +1.5659253e-04 </wgt>
<wgt id='morphing_basis_vector_2'> +1.1693320e-04 </wgt>
<wgt id='morphing_basis_vector_3'> +1.6961477e-04 </wgt>
<wgt id='morphing_basis_vector_4'> +1.0200962e-04 </wgt>
<wgt id='morphing_basis_vector_5'> +1.7913231e-04 </wgt>
</rwgt>
</event>
<event>
 4      1 +6.0853000e-08 2.20188100e+03 7.81860800e-03 7.99343300e-02
        2 -1    0    0  501    0 +0.0000000000e+00 +0.0000000000e+00 +9.1308155852e+02 9.1308155852e+02 0.0000000000e+00 0.0000e+00 -1.0000e+00
       -2 -1    0    0    0  501 -0.0000000000e+00 -0.0000000000e+00 -1.3274497405e+03 1.3274497405e+03 0.0000000000e+00 0.0000e+00 1.0000e+00
      -13  1    1    2    0    0 +2.8322786688e+02 +5.0034599076e+02 -1.1625500513e+03 1.2969528738e+03 0.0000000000e+00 0.0000e+00 1.0000e+00
       13  1    1    2    0    0 -2.8322786688e+02 -5.0034599076e+02 +7.4818186930e+02 9.4357842525e+02 0.0000000000e+00 0.0000e+00 -1.0000e+00
<mgrwt>
<rscale>  0 0.22018809E+04</rscale>
<asrwt>0</asrwt>
<pdfrwt beam="1">  1        2 0.14047409E+00 0.22018809E+04</pdfrwt>
<pdfrwt beam="2">  1       -2 0.20422304E+00 0.22018809E+04</pdfrwt>
<totfact> 0.35869390E+00</totfact>
</mgrwt>
<rwgt>
<wgt id='morphing_basis_vector_1'> +1.9905184e-04 </wgt>
<wgt id='morphing_basis_vector_2'> +1.3311169e-04 </wgt>
<wgt id='morphing_basis_vector_3'> +2.1383846e-04 </wgt>
<wgt id='morphing_basis_vector_4'> +1.5020179e-04 </wgt>
<wgt id='morphing_basis_vector_5'> +2.3945853e-04 </wgt>
</rwgt>
</event>
<event>
 4      1 +6.0853000e-08 1.96293400e+03 7.81860800e-03 8.08694300e-02
        2 -1    0    0  501    0 +0.0000000000e+00 +0.0000000000e+00 +7.2268224255e+02 7.2268224255e+02 0.0000000000e+00 0.0000e+00 -1.0000e+00
       -2 -1    0    0    0  501 -0.0000000000e+00 -0.0000000000e+00 -1.3329202620e+03 1.3329202620e+03 0.0000000000e+00 0.0000e+00 1.0000e+00
      -13  1    1    2    0    0 -8.8910293275e+02 -3.1121235311e+02 -1.6574160849e+01 9.4214216366e+02 0.0000000000e+00 0.0000e+00 1.0000e+00
       13  1    1    2    0    0 +8.8910293275e+02 +3.1121235311e+02 -5.9366385864e+02 1.1134603409e+03 0.0000000000e+00 0.0000e+00 -1.0000e+00
<mgrwt>
<rscale>  0 0.19629343E+04</rscale>
<asrwt>0</asrwt>
<pdfrwt beam="1">  1        2 0.11118188E+00 0.19629343E+04</pdfrwt>
<pdfrwt beam="2">  1       -2 0.20506465E+00 0.19629343E+04</pdfrwt>
<totfact> 0.48873031E+00</totfact>
</mgrwt>
<rwgt>
<wgt id='morphing_basis_vector_1'> +1.3887810e-04 </wgt>
<wgt id='morphing_basis_vector_2'> +1.2011922e-04 </wgt>
<wgt id='morphing_basis_vector_3'> +1.5263704e-04 </wgt>
<wgt id='morphing_basis_vector_4'> +7.0149494e-05 </wgt>
<wgt id='morphing_basis_vector_5'> +1.4806881e-04 </wgt>
</rwgt>
</event>
<event>
 4      1 +6.0853000e-08 1.92885700e+03 7.81860800e-03 8.10140300e-02
        2 -1    0    0  501    0 +0.0000000000e+00 +0.0000000000e+00 +8.0271762055e+02 8.0271762055e+02 0.0000000000e+00 0.0000e+00 -1.0000e+00
       -2 -1    0    0    0  501 -0.0000000000e+00 -0.0000000000e+00 -1.1587161787e+03 1.1587161787e+03 0.0000000000e+00 0.0000e+00 1.0000e+00
      -13  1    1    2    0    0 +7.9380887979e+02 -4.9078159460e+02 -4.2525773820e+02 1.0255940986e+03 0.0000000000e+00 0.0000e+00 1.0000e+00
       13  1    1    2    0    0 -7.9380887979e+02 +4.9078159460e+02 +6.9259180062e+01 9.3583970062e+02 0.0000000000e+00 0.0000e+00 -1.0000e+00
<mgrwt>
<rscale>  0 0.19288565E+04</rscale>
<asrwt>0</asrwt>
<pdfrwt beam="1">  1        2 0.12349502E+00 0.19288565E+04</pdfrwt>
<pdfrwt beam="2">  1       -2 0.17826403E+00 0.19288565E+04</pdfrwt>
<totfact> 0.67889526E+00</totfact>
</mgrwt>
<rwgt>
<wgt id='morphing_basis_vector_1'> +1.2002624e-04 </wgt>
<wgt id='morphing_basis_vector_2'> +8.3513552e-05 </wgt>
<wgt id='morphing_basis_vector_3'> +1.2836280e-04 </wgt>
<wgt id='morphing_basis_vector_4'> +8.4393190e-05 </wgt>
<wgt id='morphing_basis_vector_5'> +1.3934734e-04 </wgt>
</rwgt>
</event>
<event>
 4      1 +6.0853000e-08 1.93942600e+03 7.81860800e-03 8.09688500e-02
        2 -1    0    0  501    0 +0.0000000000e+00 +0.0000000000e+00 +2.4271396770e+03 2.4271396770e+03 0.0000000000e+00 0.0000e+00 1.0000e+00
       -2 -1    0    0    0  501 -0.0000000000e+00 -0.0000000000e+00 -3.8742861197e+02 3.8742861197e+02 0.0000000000e+00 0.0000e+00 -1.0000e+00
      -13  1    1    2    0    0 -8.0891949588e+01 -8.4515962054e+02 +1.6997802614e+03 1.9000240074e+03 0.0000000000e+00 0.0000e+00 1.0000e+00
       13  1    1    2    0    0 +8.0891949588e+01 +8.4515962054e+02 +3.3993080364e+02 9.1454428157e+02 0.0000000000e+00 0.0000e+00 -1.0000e+00
<mgrwt>
<rscale>  0 0.19394261E+04</rscale>
<asrwt>0</asrwt>
<pdfrwt beam="1">  1        2 0.37340610E+00 0.19394261E+04</pdfrwt>
<pdfrwt beam="2">  1       -2 0.59604403E-01 0.19394261E+04</pdfrwt>
<totfact> 0.11825705E+01</totfact>
</mgrwt>
<rwgt>
<wgt id='morphing_basis_vector_1'> +1.4216260e-04 </wgt>
<wgt id='morphing_basis_vector_2'> +1.4323249e-04 </wgt>
<wgt id='morphing_basis_vector_3'> +1.5940609e-04 </wgt>
<wgt id='morphing_basis_vector_4'> +4.7617230e-05 </wgt>
<wgt id='morphing_basis_vector_5'> +1.3945629e-04 </wgt>
</rwgt>
</event>
<event>
 4      1 +6.0853000e-08 1.91390900e+03 7.81860800e-03 8.10784500e-02
        2 -1    0    0  501    0 +0.0000000000e+00 +0.0000000000e+00 +1.6074330734e+03 1.6074330734e+03 0.0000000000e+00 0.0000e+00 -1.0000e+00
       -2 -1    0    0    0  501 -0.0000000000e+00 -0.0000000000e+00 -5.6970434608e+02 5.6970434608e+02 0.0000000000e+00 0.0000e+00 1.0000e+00
      -13  1    1    2    0    0 -1.6674161873e+02 -3.7884475352e+02 -4.6260820532e+02 6.2075153348e+02 0.0000000000e+00 0.0000e+00 1.0000e+00
       13  1    1    2    0    0 +1.6674161873e+02 +3.7884475352e+02 +1.5003369327e+03 1.5563858860e+03 0.0000000000e+00 0.0000e+00 -1.0000e+00
<mgrwt>
<rscale>  0 0.19139087E+04</rscale>
<asrwt>0</asrwt>
<pdfrwt beam="1">  1        2 0.24729739E+00 0.19139087E+04</pdfrwt>
<pdfrwt beam="2">  1       -2 0.87646823E-01 0.19139087E+04</pdfrwt>
<totfact> 0.14894348E+01</totfact>
</mgrwt>
<rwgt>
<wgt id='morphing_basis_vector_1'> +1.1484147e-04 </wgt>
<wgt id='morphing_basis_vector_2'> +7.6279933e-05 </wgt>
<wgt id='morphing_basis_vector_3'> +1.2215222e-04 </wgt>
<wgt id='morphing_basis_vector_4'> +8.4886301e-05 </wgt>
<wgt id='morphing_basis_vector_5'> +1.3523159e-04 </wgt>
</rwgt>
</event>
<event>
 4      1 +6.0853000e-08 2.09798900e+03 7.81860800e-03 8.03250000e-02
        2 -1    0    0  501    0 +0.0000000000e+00 +0.0000000000e+00 +7.9768024430e+02 7.9768024430e+02 0.0000000000e+00 0.0000e+00 -1.0000e+00
       -2 -1    0    0    0  501 -0.0000000000e+00 -0.0000000000e+00 -1.3794865648e+03 1.3794865648e+03 0.0000000000e+00 0.0000e+00 1.0000e+00
      -13  1    1    2    0    0 +6.1295549059e+02 -2.6963156663e+02 -1.1288250713e+03 1.3125020597e+03 0.0000000000e+00 0.0000e+00 1.0000e+00
       13  1    1    2    0    0 -6.1295549059e+02 +2.6963156663e+02 +5.4701875078e+02 8.6466474941e+02 0.0000000000e+00 0.0000e+00 -1.0000e+00
<mgrwt>
<rscale>  0 0.20979887E+04</rscale>
<asrwt>0</asrwt>
<pdfrwt beam="1">  1        2 0.12272004E+00 0.20979887E+04</pdfrwt>
<pdfrwt beam="2">  1       -2 0.21222870E+00 0.20979887E+04</pdfrwt>
<totfact> 0.37873907E+00</totfact>
</mgrwt>
<rwgt>
<wgt id='morphing_basis_vector_1'> +1.6468840e-04 </wgt>
<wgt id='morphing_basis_vector_2'> +1.1007657e-04 </wgt>
<wgt id='morphing_basis_vector_3'> +1.7640069e-04 </wgt>
<wgt id='morphing_basis_vector_4'> +1.2325274e-04 </wgt>
<wgt id='morphing_basis_vector_5'> +1.9668923e-04 </wgt>
</rwgt>
</event>
<event>
 4      1 +6.0853000e-08 1.86577200e+03 7.81860800e-03 8.12901200e-02
        2 -1    0    0  501    0 +0.0000000000e+00 +0.0000000000e+00 +1.7815907962e+03 1.7815907962e+03 0.0000000000e+00 0.0000e+00 -1.0000e+00
       -2 -1    0    0    0  501 -0.0000000000e+00 -0.0000000000e+00 -4.8848280442e+02 4.8848280442e+02 0.0000000000e+00 0.0000e+00 1.0000e+00
      -13  1    1    2    0    0 -3.4140617992e+02 -3.8674746867e+02 -2.9914254702e+02 5.9633719291e+02 0.0000000000e+00 0.0000e+00 1.0000e+00
       13  1    1    2    0    0 +3.4140617992e+02 +3.8674746867e+02 +1.5922505388e+03 1.6737364077e+03 0.0000000000e+00 0.0000e+00 -1.0000e+00
<mgrwt>
<rscale>  0 0.18657722E+04</rscale>
<asrwt>0</asrwt>
<pdfrwt beam="1">  1        2 0.27409089E+00 0.18657722E+04</pdfrwt>
<pdfrwt beam="2">  1       -2 0.75151202E-01 0.18657722E+04</pdfrwt>
<totfact> 0.16970763E+01</totfact>
</mgrwt>
<rwgt>
<wgt id='morphing_basis_vector_1'> +1.0397901e-04 </wgt>
<wgt id='morphing_basis_vector_2'> +6.9027907e-05 </wgt>
<wgt id='morphing_basis_vector_3'> +1.1037511e-04 </wgt>
<wgt id='morphing_basis_vector_4'> +7.6446375e-05 </wgt>
<wgt id='morphing_basis_vector_5'> +1.2184652e-04 </wgt>
</rwgt>
</event>
<event>
 4      1 +6.0853000e-08 2.03707200e+03 7.81860800e-03 8.05651300e-02
        2 -1    0    0  501    0 +0.0000000000e+00 +0.0000000000e+00 +1.3430945239e+03 1.3430945239e+03 0.0000000000e+00 0.0000e+00 -1.0000e+00
       -2 -1    0    0    0  501 -0.0000000000e+00 -0.0000000000e+00 -7.7240661285e+02 7.7240661285e+02 0.0000000000e+00 0.0000e+00 1.0000e+00
      -13  1    1    2    0    0 -8.1508437141e+01 +1.0111965485e+03 +3.7968769653e+02 1.0832011964e+03 0.0000000000e+00 0.0000e+00 1.0000e+00
       13  1    1    2    0    0 +8.1508437141e+01 -1.0111965485e+03 +1.9100021455e+02 1.0322999404e+03 0.0000000000e+00 0.0000e+00 -1.0000e+00
<mgrwt>
<rscale>  0 0.20370715E+04</rscale>
<asrwt>0</asrwt>
<pdfrwt beam="1">  1        2 0.20662993E+00 0.20370715E+04</pdfrwt>
<pdfrwt beam="2">  1       -2 0.11883179E+00 0.20370715E+04</pdfrwt>
<totfact> 0.98730209E+00</totfact>
</mgrwt>
<rwgt>
<wgt id='morphing_basis_vector_1'> +1.5396024e-04 </wgt>
<wgt id='morphing_basis_vector_2'> +1.1940441e-04 </wgt>
<wgt id='morphing_basis_vector_3'> +1.6742951e-04 </wgt>
<wgt id='morphing_basis_vector_4'> +9.4835120e-05 </wgt>
<wgt id='morphing_basis_vector_5'> +1.7328734e-04 </wgt>
</rwgt>
</event>
<event>
 4      1 +6.0853000e-08 2.15178700e+03 7.81860800e-03 8.01198500e-02
        2 -1    0    0  501    0 +0.0000000000e+00 +0.0000000000e+00 +1.2197269618e+03 1.2197269618e+03 0.0000000000e+00 0.0000e+00 1.0000e+00
       -2 -1    0    0    0  501 -0.0000000000e+00 -0.0000000000e+00 -9.4902094827e+02 9.4902094827e+02 0.0000000000e+00 0.0000e+00 -1.0000e+00
      -13  1    1    2    0    0 +7.5939040467e+01 -9.7230621285e+02 -3.2254110480e+02 1.0272189999e+03 0.0000000000e+00 0.0000e+00 -1.0000e+00
       13  1    1    2    0    0 -7.5939040467e+01 +9.7230621285e+02 +5.9324711835e+02 1.1415289102e+03 0.0000000000e+00 0.0000e+00 1.0000e+00
<mgrwt>
<rscale>  0 0.21517866E+04</rscale>
<asrwt>0</asrwt>
<pdfrwt beam="1">  1        2 0.18765030E+00 0.21517866E+04</pdfrwt>
<pdfrwt beam="2">  1       -2 0.14600322E+00 0.21517866E+04</pdfrwt>
<totfact> 0.66045403E+00</totfact>
</mgrwt>
<rwgt>
<wgt id='morphing_basis_vector_1'> +1.8298280e-04 </wgt>
<wgt id='morphing_basis_vector_2'> +1.2488639e-04 </wgt>
<wgt id='morphing_basis_vector_3'> +1.9676255e-04 </wgt>
<wgt id='morphing_basis_vector_4'> +1.3447094e-04 </wgt>
<wgt id='morphing_basis_vector_5'> +2.1787427e-04 </wgt>
</rwgt>
</event>
<event>
 4      1 +6.0853000e-08 2.19025700e+03 7.81860800e-03 7.99769200e-02
        2 -1    0    0  501    0 +0.0000000000e+00 +0.0000000000e+00 +2.4398772706e+03 2.4398772706e+03 0.0000000000e+00 0.0000e+00 -1.0000e+00
       -2 -1    0    0    0  501 -0.0000000000e+00 -0.0000000000e+00 -4.9154395494e+02 4.9154395494e+02 0.0000000000e+00 0.0000e+00 1.0000e+00
      -13  1    1    2    0    0 +7.3547656507e+02 -7.5225673328e+02 +5.6713078284e+02 1.1951791897e+03 0.0000000000e+00 0.0000e+00 1.0000e+00
       13  1    1    2    0    0 -7.3547656507e+02 +7.5225673328e+02 +1.3812025328e+03 1.7362420359e+03 0.0000000000e+00 0.0000e+00 -1.0000e+00
<mgrwt>
<rscale>  0 0.21902574E+04</rscale>
<asrwt>0</asrwt>
<pdfrwt beam="1">  1        2 0.37536573E+00 0.21902574E+04</pdfrwt>
<pdfrwt beam="2">  1       -2 0.75622148E-01 0.21902574E+04</pdfrwt>
<totfact> 0.68626178E+00</totfact>
</mgrwt>
<rwgt>
<wgt id='morphing_basis_vector_1'> +1.9734643e-04 </wgt>
<wgt id='morphing_basis_vector_2'> +1.3742302e-04 </wgt>
<wgt id='morphing_basis_vector_3'> +2.1292900e-04 </wgt>
<wgt id='morphing_basis_vector_4'> +1.4217400e-04 </wgt>
<wgt id='morphing_basis_vector_5'> +2.3397347e-04 </wgt>
</rwgt>
</event>
<event>
 4      1 +6.0853000e-08 2.12339700e+03 7.81860800e-03 8.02273200e-02
        2 -1    0    0  501    0 +0.0000000000e+00 +0.0000000000e+00 +1.4352256801e+03 1.4352256801e+03 0.0000000000e+00 0.0000e+00 -1.0000e+00
       -2 -1    0    0    0  501 -0.0000000000e+00 -0.0000000000e+00 -7.8538450095e+02 7.8538450095e+02 0.0000000000e+00 0.0000e+00 1.0000e+00
      -13  1    1    2    0    0 +3.7615674678e+02 -3.8011096538e+02 -6.3425330702e+02 8.2961165712e+02 0.0000000000e+00 0.0000e+00 1.0000e+00
       13  1    1    2    0    0 -3.7615674678e+02 +3.8011096538e+02 +1.2840944862e+03 1.3909985240e+03 0.0000000000e+00 0.0000e+00 -1.0000e+00
<mgrwt>
<rscale>  0 0.21233973E+04</rscale>
<asrwt>0</asrwt>
<pdfrwt beam="1">  1        2 0.22080395E+00 0.21233973E+04</pdfrwt>
<pdfrwt beam="2">  1       -2 0.12082838E+00 0.21233973E+04</pdfrwt>
<totfact> 0.83233032E+00</totfact>
</mgrwt>
<rwgt>
<wgt id='morphing_basis_vector_1'> +1.7258041e-04 </wgt>
<wgt id='morphing_basis_vector_2'> +1.1522458e-04 </wgt>
<wgt id='morphing_basis_vector_3'> +1.8496979e-04 </wgt>
<wgt id='morphing_basis_vector_4'> +1.2960461e-04 </wgt>
<wgt id='morphing_basis_vector_5'> +2.0658459e-04 </wgt>
</rwgt>
</event>
<event>
 4      1 +6.0853000e-08 1.86124900e+03 7.81860800e-03 8.13103600e-02
        2 -1    0    0  501    0 +0.0000000000e+00 +0.0000000000e+00 +2.3183450489e+03 2.3183450489e+03 0.0000000000e+00 0.0000e+00 -1.0000e+00
       -2 -1    0    0    0  501 -0.0000000000e+00 -0.0000000000e+00 -3.7356910137e+02 3.7356910137e+02 0.0000000000e+00 0.0000e+00 1.0000e+00
      -13  1    1    2    0    0 -8.1342924314e+02 -3.4863953739e+01 +3.2046454873e+02 8.7497437440e+02 0.0000000000e+00 0.0000e+00 1.0000e+00
       13  1    1    2    0    0 +8.1342924314e+02 +3.4863953739e+01 +1.6243113988e+03 1.8169397758e+03 0.0000000000e+00 0.0000e+00 -1.0000e+00
<mgrwt>
<rscale>  0 0.18612491E+04</rscale>
<asrwt>0</asrwt>
<pdfrwt beam="1">  1        2 0.35666846E+00 0.18612491E+04</pdfrwt>
<pdfrwt beam="2">  1       -2 0.57472171E-01 0.18612491E+04</pdfrwt>
<totfact> 0.14850307E+01</totfact>
</mgrwt>
<rwgt>
<wgt id='morphing_basis_vector_1'> +1.0346005e-04 </wgt>
<wgt id='morphing_basis_vector_2'> +6.9738722e-05 </wgt>
<wgt id='morphing_basis_vector_3'> +1.0997034e-04 </wgt>
<wgt id='morphing_basis_vector_4'> +7.4782709e-05 </wgt>
<wgt id='morphing_basis_vector_5'> +1.2057114e-04 </wgt>
</rwgt>
</event>
<event>
 4      1 +6.0853000e-08 1.92322100e+03 7.81860800e-03 8.10382500e-02
        2 -1    0    0  501    0 +0.0000000000e+00 +0.0000000000e+00 +1.7151270728e+03 1.7151270728e+03 0.0000000000e+00 0.0000e+00 -1.0000e+00
       -2 -1    0    0    0  501 -0.0000000000e+00 -0.0000000000e+00 -5.3914066450e+02 5.3914066450e+02 0.0000000000e+00 0.0000e+00 1.0000e+00
      -13  1    1    2    0    0 -2.4310314432e+02 -6.0841963598e+02 -2.3702509002e+02 6.9674563904e+02 0.0000000000e+00 0.0000e+00 1.0000e+00
       13  1    1    2    0    0 +2.4310314432e+02 +6.0841963598e+02 +1.4130114983e+03 1.5575220983e+03 0.0000000000e+00 0.0000e+00 -1.0000e+00
<mgrwt>
<rscale>  0 0.19232210E+04</rscale>
<asrwt>0</asrwt>
<pdfrwt beam="1">  1        2 0.26386570E+00 0.19232210E+04</pdfrwt>
<pdfrwt beam="2">  1       -2 0.82944718E-01 0.19232210E+04</pdfrwt>
<totfact> 0.14722772E+01</totfact>
</mgrwt>
<rwgt>
<wgt id='morphing_basis_vector_1'> +1.1714379e-04 </wgt>
<wgt id='morphing_basis_vector_2'> +7.8059639e-05 </wgt>
<wgt id='morphing_basis_vector_3'> +1.2468735e-04 </wgt>
<wgt id='morphing_basis_vector_4'> +8.6387150e-05 </wgt>
<wgt id='morphing_basis_vector_5'> +1.3792595e-04 </wgt>
</rwgt>
</event>
<event>
 4      1 +6.0853000e-08 1.89039800e+03 7.81860800e-03 8.11810100e-02
        2 -1    0    0  501    0 +0.0000000000e+00 +0.0000000000e+00 +6.0271269850e+02 6.0271269850e+02 0.0000000000e+00 0.0000e+00 -1.0000e+00
       -2 -1    0    0    0  501 -0.0000000000e+00 -0.0000000000e+00 -1.4822995975e+03 1.4822995975e+03 0.0000000000e+00 0.0000e+00 1.0000e+00
      -13  1    1    2    0    0 -2.0134261028e+02 +4.4748901562e+02 -1.3308066926e+03 1.4183905382e+03 0.0000000000e+00 0.0000e+00 1.0000e+00
       13  1    1    2    0    0 +2.0134261028e+02 -4.4748901562e+02 +4.5121979360e+02 6.6662175779e+02 0.0000000000e+00 0.0000e+00 -1.0000e+00
<mgrwt>
<rscale>  0 0.18903976E+04</rscale>
<asrwt>0</asrwt>
<pdfrwt beam="1">  1        2 0.92725031E-01 0.18903976E+04</pdfrwt>
<pdfrwt beam="2">  1       -2 0.22804609E+00 0.18903976E+04</pdfrwt>
<totfact> 0.41953831E+00</totfact>
</mgrwt>
<rwgt>
<wgt id='morphing_basis_vector_1'> +1.0943743e-04 </wgt>
<wgt id='morphing_basis_vector_2'> +7.2679700e-05 </wgt>
<wgt id='morphing_basis_vector_3'> +1.1629288e-04 </wgt>
<wgt id='morphing_basis_vector_4'> +8.0675121e-05 </wgt>
<wgt id='morphing_basis_vector_5'> +1.2856371e-04 </wgt>
</rwgt>
</event>
<event>
 4      1 +6.0853000e-08 1.94602800e+03 7.81860800e-03 8.09407800e-02
        2 -1    0    0  501    0 +0.0000000000e+00 +0.0000000000e+00 +3.0333332106e+03 3.0333332106e+03 0.0000000000e+00 0.0000e+00 1.0000e+00
       -2 -1    0    0    0  501 -0.0000000000e+00 -0.0000000000e+00 -3.1211759763e+02 3.1211759763e+02 0.0000000000e+00 0.0000e+00 -1.0000e+00
      -13  1    1    2    0    0 -2.2548932811e+02 +6.8074065650e+02 +2.3003059882e+02 7.5310514199e+02 0.0000000000e+00 0.0000e+00 -1.0000e+00
       13  1    1    2    0    0 +2.2548932811e+02 -6.8074065650e+02 +2.4911850141e+03 2.5923456662e+03 0.0000000000e+00 0.0000e+00 1.0000e+00
<mgrwt>
<rscale>  0 0.19460284E+04</rscale>
<asrwt>0</asrwt>
<pdfrwt beam="1">  1        2 0.46666663E+00 0.19460284E+04</pdfrwt>
<pdfrwt beam="2">  1       -2 0.48018094E-01 0.19460284E+04</pdfrwt>
<totfact> 0.76734774E+00</totfact>
</mgrwt>
<rwgt>
<wgt id='morphing_basis_vector_1'> +1.2274192e-04 </wgt>
<wgt id='morphing_basis_vector_2'> +8.1990197e-05 </wgt>
<wgt id='morphing_basis_vector_3'> +1.3079291e-04 </wgt>
<wgt id='morphing_basis_vector_4'> +9.0515933e-05 </wgt>
<wgt id='morphing_basis_vector_5'> +1.4472271e-04 </wgt>
</rwgt>
</event>
<event>
 4      1 +6.0853000e-08 1.96527500e+03 7.81860800e-03 8.08596100e-02
        2 -1    0    0  501    0 +0.0000000000e+00 +0.0000000000e+00 +6.8012097110e+02 6.8012097110e+02 0.0000000000e+00 0.0000e+00 -1.0000e+00
       -2 -1    0    0    0  501 -0.0000000000e+00 -0.0000000000e+00 -1.4197123360e+03 1.4197123360e+03 0.0000000000e+00 0.0000e+00 1.0000e+00
      -13  1    1    2    0    0 +8.7677711779e+02 +2.4042154441e+02 +2.8608981498e+01 9.0959282490e+02 0.0000000000e+00 0.0000e+00 1.0000e+00
       13  1    1    2    0    0 -8.7677711779e+02 -2.4042154441e+02 -7.6820034642e+02 1.1902404822e+03 0.0000000000e+00 0.0000e+00 -1.0000e+00
<mgrwt>
<rscale>  0 0.19652747E+04</rscale>
<asrwt>0</asrwt>
<pdfrwt beam="1">  1        2 0.10463400E+00 0.19652747E+04</pdfrwt>
<pdfrwt beam="2">  1       -2 0.21841728E+00 0.19652747E+04</pdfrwt>
<totfact> 0.42206341E+00</totfact>
</mgrwt>
<rwgt>
<wgt id='morphing_basis_vector_1'> +1.4393185e-04 </wgt>
<wgt id='morphing_basis_vector_2'> +1.3372918e-04 </wgt>
<wgt id='morphing_basis_vector_3'> +1.5975032e-04 </wgt>
<wgt id='morphing_basis_vector_4'> +6.1753864e-05 </wgt>
<wgt id='morphing_basis_vector_5'> +1.4810310e-04 </wgt>
</rwgt>
</event>
<event>
 4      1 +6.0853000e-08 2.14958700e+03 7.81860800e-03 8.01281100e-02
        2 -1    0    0  501    0 +0.0000000000e+00 +0.0000000000e+00 +3.2962008162e+03 3.2962008162e+03 0.0000000000e+00 0.0000e+00 1.0000e+00
       -2 -1    0    0    0  501 -0.0000000000e+00 -0.0000000000e+00 -3.5045848023e+02 3.5045848023e+02 0.0000000000e+00 0.0000e+00 -1.0000e+00
      -13  1    1    2    0    0 -1.7271977141e+02 +1.0445282388e+03 +1.1586383823e+03 1.5694949067e+03 0.0000000000e+00 0.0000e+00 -1.0000e+00
       13  1    1    2    0    0 +1.7271977141e+02 -1.0445282388e+03 +1.7871039537e+03 2.0771643898e+03 0.0000000000e+00 0.0000e+00 1.0000e+00
<mgrwt>
<rscale>  0 0.21495874E+04</rscale>
<asrwt>0</asrwt>
<pdfrwt beam="1">  1        2 0.50710780E+00 0.21495874E+04</pdfrwt>
<pdfrwt beam="2">  1       -2 0.53916691E-01 0.21495874E+04</pdfrwt>
<totfact> 0.39881268E+00</totfact>
</mgrwt>
<rwgt>
<wgt id='morphing_basis_vector_1'> +1.8453269e-04 </wgt>
<wgt id='morphing_basis_vector_2'> +1.3113382e-04 </wgt>
<wgt id='morphing_basis_vector_3'> +1.9934447e-04 </wgt>
<wgt id='morphing_basis_vector_4'> +1.2931852e-04 </wgt>
<wgt id='morphing_basis_vector_5'> +2.1660332e-04 </wgt>
</rwgt>
</event>
<event>
 4      1 +6.0853000e-08 1.97427100e+03 7.81860800e-03 8.08220000e-02
        2 -1    0    0  501    0 +0.0000000000e+00 +0.0000000000e+00 +2.8959207484e+03 2.8959207484e+03 0.0000000000e+00 0.0000e+00 1.0000e+00
       -2 -1    0    0    0  501 -0.0000000000e+00 -0.0000000000e+00 -3.3648576474e+02 3.3648576474e+02 0.0000000000e+00 0.0000e+00 -1.0000e+00
      -13  1    1    2    0    0 -8.5882972938e+02 -3.3069554147e+02 +1.8643110881e+03 2.0790872705e+03 0.0000000000e+00 0.0000e+00 -1.0000e+00
       13  1    1    2    0    0 +8.5882972938e+02 +3.3069554147e+02 +6.9512389555e+02 1.1533192426e+03 0.0000000000e+00 0.0000e+00 1.0000e+00
<mgrwt>
<rscale>  0 0.19742706E+04</rscale>
<asrwt>0</asrwt>
<pdfrwt beam="1">  1        2 0.44552625E+00 0.19742706E+04</pdfrwt>
<pdfrwt beam="2">  1       -2 0.51767043E-01 0.19742706E+04</pdfrwt>
<totfact> 0.80969815E+00</totfact>
</mgrwt>
<rwgt>
<wgt id='morphing_basis_vector_1'> +1.4564180e-04 </wgt>
<wgt id='morphing_basis_vector_2'> +1.3352813e-04 </wgt>
<wgt id='morphing_basis_vector_3'> +1.6142426e-04 </wgt>
<wgt id='morphing_basis_vector_4'> +6.4677347e-05 </wgt>
<wgt id='morphing_basis_vector_5'> +1.5102772e-04 </wgt>
</rwgt>
</event>
<event>
 4      1 +6.0853000e-08 2.15846600e+03 7.81860800e-03 8.00948100e-02
        2 -1    0    0  501    0 +0.0000000000e+00 +0.0000000000e+00 +8.8021526197e+02 8.8021526197e+02 0.0000000000e+00 0.0000e+00 -1.0000e+00
       -2 -1    0    0    0  501 -0.0000000000e+00 -0.0000000000e+00 -1.3232492535e+03 1.3232492535e+03 0.0000000000e+00 0.0000e+00 1.0000e+00
      -13  1    1    2    0    0 -2.7283919462e+02 +1.3224980151e+02 -1.2788767922e+03 1.3143276173e+03 0.0000000000e+00 0.0000e+00 1.0000e+00
       13  1    1    2    0    0 +2.7283919462e+02 -1.3224980151e+02 +8.3584280068e+02 8.8913689810e+02 0.0000000000e+00 0.0000e+00 -1.0000e+00
<mgrwt>
<rscale>  0 0.21584663E+04</rscale>
<asrwt>0</asrwt>
<pdfrwt beam="1">  1        2 0.13541773E+00 0.21584663E+04</pdfrwt>
<pdfrwt beam="2">  1       -2 0.20357681E+00 0.21584663E+04</pdfrwt>
<totfact> 0.38243490E+00</totfact>
</mgrwt>
<rwgt>
<wgt id='morphing_basis_vector_1'> +1.8401707e-04 </wgt>
<wgt id='morphing_basis_vector_2'> +1.2285930e-04 </wgt>
<wgt id='morphing_basis_vector_3'> +1.9742219e-04 </wgt>
<wgt id='morphing_basis_vector_4'> +1.3860905e-04 </wgt>
<wgt id='morphing_basis_vector_5'> +2.2083348e-04 </wgt>
</rwgt>
</event>
<event>
 4      1 +6.0853000e-08 1.91052700e+03 7.81860800e-03 8.10931100e-02
        2 -1    0    0  501    0 +0.0000000000e+00 +0.0000000000e+00 +7.4438597717e+02 7.4438597717e+02 0.0000000000e+00 0.0000e+00 1.0000e+00
       -2 -1    0    0    0  501 -0.0000000000e+00 -0.0000000000e+00 -1.2258801955e+03 1.2258801955e+03 0.0000000000e+00 0.0000e+00 -1.0000e+00
      -13  1    1    2    0    0 -1.3139026995e+02 -3.0371790981e+02 -1.1648812081e+03 1.2109732452e+03 0.0000000000e+00 0.0000e+00 -1.0000e+00
       13  1    1    2    0    0 +1.3139026995e+02 +3.0371790981e+02 +6.8338698978e+02 7.5929292739e+02 0.0000000000e+00 0.0000e+00 1.0000e+00
<mgrwt>
<rscale>  0 0.19105267E+04</rscale>
<asrwt>0</asrwt>
<pdfrwt beam="1">  1        2 0.11452092E+00 0.19105267E+04</pdfrwt>
<pdfrwt beam="2">  1       -2 0.18859695E+00 0.19105267E+04</pdfrwt>
<totfact> 0.62535106E+00</totfact>
</mgrwt>
<rwgt>
<wgt id='morphing_basis_vector_1'> +1.1404202e-04 </wgt>
<wgt id='morphing_basis_vector_2'> +7.5724525e-05 </wgt>
<wgt id='morphing_basis_vector_3'> +1.2128174e-04 </wgt>
<wgt id='morphing_basis_vector_4'> +8.4290273e-05 </wgt>
<wgt id='morphing_basis_vector_5'> +1.3425846e-04 </wgt>
</rwgt>
</event>
<event>
 4      1 +6.0853000e-08 1.92657100e+03 7.81860800e-03 8.10238400e-02
        2 -1    0    0  501    0 +0.0000000000e+00 +0.0000000000e+00 +2.2183176857e+03 2.2183176857e+03 0.0000000000e+00 0.0000e+00 -1.0000e+00
       -2 -1    0    0    0  501 -0.0000000000e+00 -0.0000000000e+00 -4.1829845900e+02 4.1829845900e+02 0.0000000000e+00 0.0000e+00 1.0000e+00
      -13  1    1    2    0    0 -7.6244395808e+02 +1.9820954943e+02 +1.4134295216e+02 8.0036594432e+02 0.0000000000e+00 0.0000e+00 1.0000e+00
       13  1    1    2    0    0 +7.6244395808e+02 -1.9820954943e+02 +1.6586762746e+03 1.8362502004e+03 0.0000000000e+00 0.0000e+00 -1.0000e+00
<mgrwt>
<rscale>  0 0.19265709E+04</rscale>
<asrwt>0</asrwt>
<pdfrwt beam="1">  1        2 0.34127964E+00 0.19265709E+04</pdfrwt>
<pdfrwt beam="2">  1       -2 0.64353610E-01 0.19265709E+04</pdfrwt>
<totfact> 0.13358603E+01</totfact>
</mgrwt>
<rwgt>
<wgt id='morphing_basis_vector_1'> +1.1817427e-04 </wgt>
<wgt id='morphing_basis_vector_2'> +7.9281425e-05 </wgt>
<wgt id='morphing_basis_vector_3'> +1.2588820e-04 </wgt>
<wgt id='morphing_basis_vector_4'> +8.6548556e-05 </wgt>
<wgt id='morphing_basis_vector_5'> +1.3887483e-04 </wgt>
</rwgt>
</event>
<event>
 4      1 +6.0853000e-08 2.06823300e+03 7.81860800e-03 8.04412200e-02
        2 -1    0    0  501    0 +0.0000000000e+00 +0.0000000000e+00 +1.6500972538e+03 1.6500972538e+03 0.0000000000e+00 0.0000e+00 -1.0000e+00
       -2 -1    0    0    0  501 -0.0000000000e+00 -0.0000000000e+00 -6.4808095056e+02 6.4808095056e+02 0.0000000000e+00 0.0000e+00 1.0000e+00
      -13  1    1    2    0    0 -2.6595228245e+01 +5.2641329183e+02 -4.8761609408e+02 7.1804436854e+02 0.0000000000e+00 0.0000e+00 1.0000e+00
       13  1    1    2    0    0 +2.6595228245e+01 -5.2641329183e+02 +1.4896323973e+03 1.5801338358e+03 0.0000000000e+00 0.0000e+00 -1.0000e+00
<mgrwt>
<rscale>  0 0.20682327E+04</rscale>
<asrwt>0</asrwt>
<pdfrwt beam="1">  1        2 0.25386111E+00 0.20682327E+04</pdfrwt>
<pdfrwt beam="2">  1       -2 0.99704762E-01 0.20682327E+04</pdfrwt>
<totfact> 0.10267955E+01</totfact>
</mgrwt>
<rwgt>
<wgt id='morphing_basis_vector_1'> +1.5563674e-04 </wgt>
<wgt id='morphing_basis_vector_2'> +1.0379920e-04 </wgt>
<wgt id='morphing_basis_vector_3'> +1.6651388e-04 </wgt>
<wgt id='morphing_basis_vector_4'> +1.1643069e-04 </wgt>
<wgt id='morphing_basis_vector_5'> +1.8558019e-04 </wgt>
</rwgt>
</event>
<event>
 4      1 +6.0853000e-08 2.04169200e+03 7.81860800e-03 8.05466100e-02
        2 -1    0    0  501    0 +0.0000000000e+00 +0.0000000000e+00 +2.4412751786e+03 2.4412751786e+03 0.0000000000e+00 0.0000e+00 -1.0000e+00
       -2 -1    0    0    0  501 -0.0000000000e+00 -0.0000000000e+00 -4.2687815557e+02 4.2687815557e+02 0.0000000000e+00 0.0000e+00 1.0000e+00
      -13  1    1    2    0    0 +8.9115052387e+02 -2.2078577831e+02 +3.8016469744e+02 9.9369050175e+02 0.0000000000e+00 0.0000e+00 1.0000e+00
       13  1    1    2    0    0 -8.9115052387e+02 +2.2078577831e+02 +1.6342323256e+03 1.8744628325e+03 0.0000000000e+00 0.0000e+00 -1.0000e+00
<mgrwt>
<rscale>  0 0.20416925E+04</rscale>
<asrwt>0</asrwt>
<pdfrwt beam="1">  1        2 0.37558079E+00 0.20416925E+04</pdfrwt>
<pdfrwt beam="2">  1       -2 0.65673564E-01 0.20416925E+04</pdfrwt>
<totfact> 0.94017193E+00</totfact>
</mgrwt>
<rwgt>
<wgt id='morphing_basis_vector_1'> +1.4881829e-04 </wgt>
<wgt id='morphing_basis_vector_2'> +1.0119323e-04 </wgt>
<wgt id='morphing_basis_vector_3'> +1.5941856e-04 </wgt>
<wgt id='morphing_basis_vector_4'> +1.0872330e-04 </wgt>
<wgt id='morphing_basis_vector_5'> +1.7592501e-04 </wgt>
</rwgt>
</event>
<event>
 4      1 +6.0853000e-08 2.11307900e+03 7.81860800e-03 8.02668100e-02
        2 -1    0    0  501    0 +0.0000000000e+00 +0.0000000000e+00 +8.7141864671e+02 8.7141864671e+02 0.0000000000e+00 0.0000e+00 -1.0000e+00
       -2 -1    0    0    0  501 -0.0000000000e+00 -0.0000000000e+00 -1.2809871520e+03 1.2809871520e+03 0.0000000000e+00 0.0000e+00 1.0000e+00
      -13  1    1    2    0    0 +5.0263431519e+02 -3.4868693084e+02 -1.0822407465e+03 1.2431688799e+03 0.0000000000e+00 0.0000e+00 1.0000e+00
       13  1    1    2    0    0 -5.0263431519e+02 +3.4868693084e+02 +6.7267224118e+02 9.0923691885e+02 0.0000000000e+00 0.0000e+00 -1.0000e+00
<mgrwt>
<rscale>  0 0.21130794E+04</rscale>
<asrwt>0</asrwt>
<pdfrwt beam="1">  1        2 0.13406441E+00 0.21130794E+04</pdfrwt>
<pdfrwt beam="2">  1       -2 0.19707494E+00 0.21130794E+04</pdfrwt>
<totfact> 0.43401446E+00</totfact>
</mgrwt>
<rwgt>
<wgt id='morphing_basis_vector_1'> +1.6934434e-04 </wgt>
<wgt id='morphing_basis_vector_2'> +1.1311970e-04 </wgt>
<wgt id='morphing_basis_vector_3'> +1.8145678e-04 </wgt>
<wgt id='morphing_basis_vector_4'> +1.2699176e-04 </wgt>
<wgt id='morphing_basis_vector_5'> +2.0252219e-04 </wgt>
</rwgt>
</event>
<event>
 4      1 +6.0853000e-08 2.00796800e+03 7.81860800e-03 8.06829600e-02
        2 -1    0    0  501    0 +0.0000000000e+00 +0.0000000000e+00 +1.7478182662e+03 1.7478182662e+03 0.0000000000e+00 0.0000e+00 -1.0000e+00
       -2 -1    0    0    0  501 -0.0000000000e+00 -0.0000000000e+00 -5.7670997419e+02 5.7670997419e+02 0.0000000000e+00 0.0000e+00 1.0000e+00
      -13  1    1    2    0    0 -8.1780860531e+02 +1.0604712592e+01 -8.8534151444e+01 8.2265525636e+02 0.0000000000e+00 0.0000e+00 1.0000e+00
       13  1    1    2    0    0 +8.1780860531e+02 -1.0604712592e+01 +1.2596424435e+03 1.5018729841e+03 0.0000000000e+00 0.0000e+00 -1.0000e+00
<mgrwt>
<rscale>  0 0.20079684E+04</rscale>
<asrwt>0</asrwt>
<pdfrwt beam="1">  1        2 0.26889512E+00 0.20079684E+04</pdfrwt>
<pdfrwt beam="2">  1       -2 0.88724612E-01 0.20079684E+04</pdfrwt>
<totfact> 0.11995455E+01</totfact>
</mgrwt>
<rwgt>
<wgt id='morphing_basis_vector_1'> +1.3895594e-04 </wgt>
<wgt id='morphing_basis_vector_2'> +9.3382736e-05 </wgt>
<wgt id='morphing_basis_vector_3'> +1.4849530e-04 </wgt>
<wgt id='morphing_basis_vector_4'> +1.0249063e-04 </wgt>
<wgt id='morphing_basis_vector_5'> +1.6444254e-04 </wgt>
</rwgt>
</event>
<event>
 4      1 +6.0853000e-08 2.02706600e+03 7.81860800e-03 8.06054100e-02
        2 -1    0    0  501    0 +0.0000000000e+00 +0.0000000000e+00 +2.3345101415e+03 2.3345101415e+03 0.0000000000e+00 0.0000e+00 -1.0000e+00
       -2 -1    0    0    0  501 -0.0000000000e+00 -0.0000000000e+00 -4.4002759580e+02 4.4002759580e+02 0.0000000000e+00 0.0000e+00 1.0000e+00
      -13  1    1    2    0    0 +5.7408194919e+02 -6.7961276291e+01 -1.9224274665e+02 6.0921760735e+02 0.0000000000e+00 0.0000e+00 1.0000e+00
       13  1    1    2    0    0 -5.7408194919e+02 +6.7961276291e+01 +2.0867252923e+03 2.1653201299e+03 0.0000000000e+00 0.0000e+00 -1.0000e+00
<mgrwt>
<rscale>  0 0.20270657E+04</rscale>
<asrwt>0</asrwt>
<pdfrwt beam="1">  1        2 0.35915540E+00 0.20270657E+04</pdfrwt>
<pdfrwt beam="2">  1       -2 0.67696555E-01 0.20270657E+04</pdfrwt>
<totfact> 0.10197693E+01</totfact>
</mgrwt>
<rwgt>
<wgt id='morphing_basis_vector_1'> +1.4385655e-04 </wgt>
<wgt id='morphing_basis_vector_2'> +9.5909550e-05 </wgt>
<wgt id='morphing_basis_vector_3'> +1.5370089e-04 </wgt>
<wgt id='morphing_basis_vector_4'> +1.0722710e-04 </wgt>
<wgt id='morphing_basis_vector_5'> +1.7097198e-04 </wgt>
</rwgt>
</event>
<event>
 4      1 +6.0853000e-08 2.21237500e+03 7.81860800e-03 7.98961100e-02
        2 -1    0    0  501    0 +0.0000000000e+00 +0.0000000000e+00 +2.6807424207e+03 2.6807424207e+03 0.0000000000e+00 0.0000e+00 1.0000e+00
       -2 -1    0    0    0  501 -0.0000000000e+00 -0.0000000000e+00 -4.5645957906e+02 4.5645957906e+02 0.0000000000e+00 0.0000e+00 -1.0000e+00
      -13  1    1    2    0    0 -5.1310556676e+02 -9.5021707718e+02 +7.7222715593e+02 1.3276010684e+03 0.0000000000e+00 0.0000e+00 -1.0000e+00
       13  1    1    2    0    0 +5.1310556676e+02 +9.5021707718e+02 +1.4520556857e+03 1.8096009313e+03 0.0000000000e+00 0.0000e+00 1.0000e+00
<mgrwt>
<rscale>  0 0.22123748E+04</rscale>
<asrwt>0</asrwt>
<pdfrwt beam="1">  1        2 0.41242190E+00 0.22123748E+04</pdfrwt>
<pdfrwt beam="2">  1       -2 0.70224552E-01 0.22123748E+04</pdfrwt>
<totfact> 0.57637281E+00</totfact>
</mgrwt>
<rwgt>
<wgt id='morphing_basis_vector_1'> +2.0602406e-04 </wgt>
<wgt id='morphing_basis_vector_2'> +1.4515117e-04 </wgt>
<wgt id='morphing_basis_vector_3'> +2.2273267e-04 </wgt>
<wgt id='morphing_basis_vector_4'> +1.4663965e-04 </wgt>
<wgt id='morphing_basis_vector_5'> +2.4361337e-04 </wgt>
</rwgt>
</event>
<event>
 4      1 +6.0853000e-08 2.00738400e+03 7.81860800e-03 8.06853500e-02
        2 -1    0    0  501    0 +0.0000000000e+00 +0.0000000000e+00 +1.2660183541e+03 1.2660183541e+03 0.0000000000e+00 0.0000e+00 1.0000e+00
       -2 -1    0    0    0  501 -0.0000000000e+00 -0.0000000000e+00 -7.9572130813e+02 7.9572130813e+02 0.0000000000e+00 0.0000e+00 -1.0000e+00
      -13  1    1    2    0    0 -4.2840700145e+02 +3.5569829966e+02 -6.2253457392e+02 8.3522639745e+02 0.0000000000e+00 0.0000e+00 -1.0000e+00
       13  1    1    2    0    0 +4.2840700145e+02 -3.5569829966e+02 +1.0928316199e+03 1.2265132648e+03 0.0000000000e+00 0.0000e+00 1.0000e+00
<mgrwt>
<rscale>  0 0.20073841E+04</rscale>
<asrwt>0</asrwt>
<pdfrwt beam="1">  1        2 0.19477205E+00 0.20073841E+04</pdfrwt>
<pdfrwt beam="2">  1       -2 0.12241866E+00 0.20073841E+04</pdfrwt>
<totfact> 0.10140398E+01</totfact>
</mgrwt>
<rwgt>
<wgt id='morphing_basis_vector_1'> +1.3845086e-04 </wgt>
<wgt id='morphing_basis_vector_2'> +9.2248654e-05 </wgt>
<wgt id='morphing_basis_vector_3'> +1.4781764e-04 </wgt>
<wgt id='morphing_basis_vector_4'> +1.0305932e-04 </wgt>
<wgt id='morphing_basis_vector_5'> +1.6430192e-04 </wgt>
</rwgt>
</event>
<event>
 4      1 +6.0853000e-08 1.86598700e+03 7.81860800e-03 8.12891600e-02
        2 -1    0    0  501    0 +0.0000000000e+00 +0.0000000000e+00 +1.3870440339e+03 1.3870440339e+03 0.0000000000e+00 0.0000e+00 -1.0000e+00
       -2 -1    0    0    0  501 -0.0000000000e+00 -0.0000000000e+00 -6.2757712912e+02 6.2757712912e+02 0.0000000000e+00 0.0000e+00 1.0000e+00
      -13  1    1    2    0    0 +3.9093113389e+02 -5.1021350685e+02 -3.5039719568e+02 7.3206773509e+02 0.0000000000e+00 0.0000e+00 1.0000e+00
       13  1    1    2    0    0 -3.9093113389e+02 +5.1021350685e+02 +1.1098641005e+03 1.2825534280e+03 0.0000000000e+00 0.0000e+00 -1.0000e+00
<mgrwt>
<rscale>  0 0.18659873E+04</rscale>
<asrwt>0</asrwt>
<pdfrwt beam="1">  1        2 0.21339139E+00 0.18659873E+04</pdfrwt>
<pdfrwt beam="2">  1       -2 0.96550328E-01 0.18659873E+04</pdfrwt>
<totfact> 0.15839983E+01</totfact>
</mgrwt>
<rwgt>
<wgt id='morphing_basis_vector_1'> +1.0409795e-04 </wgt>
<wgt id='morphing_basis_vector_2'> +6.9273188e-05 </wgt>
<wgt id='morphing_basis_vector_3'> +1.1052880e-04 </wgt>
<wgt id='morphing_basis_vector_4'> +7.6340703e-05 </wgt>
<wgt id='morphing_basis_vector_5'> +1.2189296e-04 </wgt>
</rwgt>
</event>
<event>
 4      1 +6.0853000e-08 1.90912600e+03 7.81860800e-03 8.10991900e-02
        2 -1    0    0  501    0 +0.0000000000e+00 +0.0000000000e+00 +3.8144862921e+02 3.8144862921e+02 0.0000000000e+00 0.0000e+00 1.0000e+00
       -2 -1    0    0    0  501 -0.0000000000e+00 -0.0000000000e+00 -2.3887629996e+03 2.3887629996e+03 0.0000000000e+00 0.0000e+00 -1.0000e+00
      -13  1    1    2    0    0 +4.0495089937e+02 -6.8450653808e+02 -2.3768580305e+02 8.3007769066e+02 0.0000000000e+00 0.0000e+00 1.0000e+00
       13  1    1    2    0    0 -4.0495089937e+02 +6.8450653808e+02 -1.7696285673e+03 1.9401339381e+03 0.0000000000e+00 0.0000e+00 -1.0000e+00
<mgrwt>
<rscale>  0 0.19091258E+04</rscale>
<asrwt>0</asrwt>
<pdfrwt beam="1">  1        2 0.58684404E-01 0.19091258E+04</pdfrwt>
<pdfrwt beam="2">  1       -2 0.36750200E+00 0.19091258E+04</pdfrwt>
<totfact> 0.81353281E-01</totfact>
</mgrwt>
<rwgt>
<wgt id='morphing_basis_vector_1'> +1.3766525e-04 </wgt>
<wgt id='morphing_basis_vector_2'> +1.4647855e-04 </wgt>
<wgt id='morphing_basis_vector_3'> +1.5534317e-04 </wgt>
<wgt id='morphing_basis_vector_4'> +3.6764476e-05 </wgt>
<wgt id='morphing_basis_vector_5'> +1.3015371e-04 </wgt>
</rwgt>
</event>
<event>
 4      1 +6.0853000e-08 1.95029900e+03 7.81860800e-03 8.09226900e-02
        2 -1    0    0  501    0 +0.0000000000e+00 +0.0000000000e+00 +1.3221181399e+03 1.3221181399e+03 0.0000000000e+00 0.0000e+00 -1.0000e+00
       -2 -1    0    0    0  501 -0.0000000000e+00 -0.0000000000e+00 -7.1923748383e+02 7.1923748383e+02 0.0000000000e+00 0.0000e+00 1.0000e+00
      -13  1    1    2    0    0 +3.5167147313e+02 +2.7195485459e+02 -6.0700113094e+02 7.5238463628e+02 0.0000000000e+00 0.0000e+00 1.0000e+00
       13  1    1    2    0    0 -3.5167147313e+02 -2.7195485459e+02 +1.2098817870e+03 1.2889709875e+03 0.0000000000e+00 0.0000e+00 -1.0000e+00
<mgrwt>
<rscale>  0 0.19502994E+04</rscale>
<asrwt>0</asrwt>
<pdfrwt beam="1">  1        2 0.20340279E+00 0.19502994E+04</pdfrwt>
<pdfrwt beam="2">  1       -2 0.11065192E+00 0.19502994E+04</pdfrwt>
<totfact> 0.12264233E+01</totfact>
</mgrwt>
<rwgt>
<wgt id='morphing_basis_vector_1'> +1.2363012e-04 </wgt>
<wgt id='morphing_basis_vector_2'> +8.2202788e-05 </wgt>
<wgt id='morphing_basis_vector_3'> +1.3169740e-04 </wgt>
<wgt id='morphing_basis_vector_4'> +9.1666036e-05 </wgt>
<wgt id='morphing_basis_vector_5'> +1.4605106e-04 </wgt>
</rwgt>
</event>
<event>
 4      1 +6.0853000e-08 1.95055300e+03 7.81860800e-03 8.09216100e-02
        2 -1    0    0  501    0 +0.0000000000e+00 +0.0000000000e+00 +2.4701691821e+03 2.4701691821e+03 0.0000000000e+00 0.0000e+00 -1.0000e+00
       -2 -1    0    0    0  501 -0.0000000000e+00 -0.0000000000e+00 -3.8506052832e+02 3.8506052832e+02 0.0000000000e+00 0.0000e+00 1.0000e+00
      -13  1    1    2    0    0 -4.1276749481e+02 +7.7923455888e+02 +4.3268823786e+02 9.8224366310e+02 0.0000000000e+00 0.0000e+00 1.0000e+00
       13  1    1    2    0    0 +4.1276749481e+02 -7.7923455888e+02 +1.6524204159e+03 1.8729860473e+03 0.0000000000e+00 0.0000e+00 -1.0000e+00
<mgrwt>
<rscale>  0 0.19505534E+04</rscale>
<asrwt>0</asrwt>
<pdfrwt beam="1">  1        2 0.38002602E+00 0.19505534E+04</pdfrwt>
<pdfrwt beam="2">  1       -2 0.59240083E-01 0.19505534E+04</pdfrwt>
<totfact> 0.11283053E+01</totfact>
</mgrwt>
<rwgt>
<wgt id='morphing_basis_vector_1'> +1.2447025e-04 </wgt>
<wgt id='morphing_basis_vector_2'> +8.4547064e-05 </wgt>
<wgt id='morphing_basis_vector_3'> +1.3288945e-04 </wgt>
<wgt id='morphing_basis_vector_4'> +9.0175138e-05 </wgt>
<wgt id='morphing_basis_vector_5'> +1.4600776e-04 </wgt>
</rwgt>
</event>
<event>
 4      1 +6.0853000e-08 1.87588800e+03 7.81860800e-03 8.12450900e-02
        2 -1    0    0  501    0 +0.0000000000e+00 +0.0000000000e+00 +1.2777717903e+03 1.2777717903e+03 0.0000000000e+00 0.0000e+00 -1.0000e+00
       -2 -1    0    0    0  501 -0.0000000000e+00 -0.0000000000e+00 -6.8849458864e+02 6.8849458864e+02 0.0000000000e+00 0.0000e+00 1.0000e+00
      -13  1    1    2    0    0 -8.9169334641e+02 -1.9430787461e+02 +5.2155516045e+02 1.0511386015e+03 0.0000000000e+00 0.0000e+00 1.0000e+00
       13  1    1    2    0    0 +8.9169334641e+02 +1.9430787461e+02 +6.7722041204e+01 9.1512777743e+02 0.0000000000e+00 0.0000e+00 -1.0000e+00
<mgrwt>
<rscale>  0 0.18758880E+04</rscale>
<asrwt>0</asrwt>
<pdfrwt beam="1">  1        2 0.19658028E+00 0.18758880E+04</pdfrwt>
<pdfrwt beam="2">  1       -2 0.10592224E+00 0.18758880E+04</pdfrwt>
<totfact> 0.14591800E+01</totfact>
</mgrwt>
<rwgt>
<wgt id='morphing_basis_vector_1'> +1.1476742e-04 </wgt>
<wgt id='morphing_basis_vector_2'> +9.5921394e-05 </wgt>
<wgt id='morphing_basis_vector_3'> +1.2503099e-04 </wgt>
<wgt id='morphing_basis_vector_4'> +6.1298258e-05 </wgt>
<wgt id='morphing_basis_vector_5'> +1.2325644e-04 </wgt>
</rwgt>
</event>
<event>
 4      1 +6.0853000e-08 2.05176200e+03 7.81860800e-03 8.05064400e-02
        2 -1    0    0  501    0 +0.0000000000e+00 +0.0000000000e+00 +5.3494401417e+02 5.3494401417e+02 0.0000000000e+00 0.0000e+00 -1.0000e+00
       -2 -1    0    0    0  501 -0.0000000000e+00 -0.0000000000e+00 -1.9673676715e+03 1.9673676715e+03 0.0000000000e+00 0.0000e+00 1.0000e+00
      -13  1    1    2    0    0 -1.2536990971e+02 +3.6443030038e+02 -1.8757251741e+03 1.9149078273e+03 0.0000000000e+00 0.0000e+00 1.0000e+00
       13  1    1    2    0    0 +1.2536990971e+02 -3.6443030038e+02 +4.4330151678e+02 5.8740385841e+02 0.0000000000e+00 0.0000e+00 -1.0000e+00
<mgrwt>
<rscale>  0 0.20517617E+04</rscale>
<asrwt>0</asrwt>
<pdfrwt beam="1">  1        2 0.82299080E-01 0.20517617E+04</pdfrwt>
<pdfrwt beam="2">  1       -2 0.30267195E+00 0.20517617E+04</pdfrwt>
<totfact> 0.14605955E+00</totfact>
</mgrwt>
<rwgt>
<wgt id='morphing_basis_vector_1'> +1.5080412e-04 </wgt>
<wgt id='morphing_basis_vector_2'> +1.0048184e-04 </wgt>
<wgt id='morphing_basis_vector_3'> +1.6124324e-04 </wgt>
<wgt id='morphing_basis_vector_4'> +1.1275083e-04 </wgt>
<wgt id='morphing_basis_vector_5'> +1.7963375e-04 </wgt>
</rwgt>
</event>
<event>
 4      1 +6.0853000e-08 2.20595800e+03 7.81860800e-03 7.99194500e-02
        2 -1    0    0  501    0 +0.0000000000e+00 +0.0000000000e+00 +1.5537983931e+03 1.5537983931e+03 0.0000000000e+00 0.0000e+00 -1.0000e+00
       -2 -1    0    0    0  501 -0.0000000000e+00 -0.0000000000e+00 -7.8296033945e+02 7.8296033945e+02 0.0000000000e+00 0.0000e+00 1.0000e+00
      -13  1    1    2    0    0 -1.8496021377e+02 +9.2929274671e+02 +9.8349106120e+02 1.3656683189e+03 0.0000000000e+00 0.0000e+00 -1.0000e+00
       13  1    1    2    0    0 +1.8496021377e+02 -9.2929274671e+02 -2.1265300760e+02 9.7109041361e+02 0.0000000000e+00 0.0000e+00 1.0000e+00
<mgrwt>
<rscale>  0 0.22059579E+04</rscale>
<asrwt>0</asrwt>
<pdfrwt beam="1">  1        2 0.23904591E+00 0.22059579E+04</pdfrwt>
<pdfrwt beam="2">  1       -2 0.12045544E+00 0.22059579E+04</pdfrwt>
<totfact> 0.71491763E+00</totfact>
</mgrwt>
<rwgt>
<wgt id='morphing_basis_vector_1'> +2.3851757e-04 </wgt>
<wgt id='morphing_basis_vector_2'> +2.4645307e-04 </wgt>
<wgt id='morphing_basis_vector_3'> +2.7207780e-04 </wgt>
<wgt id='morphing_basis_vector_4'> +7.4591147e-05 </wgt>
<wgt id='morphing_basis_vector_5'> +2.3512944e-04 </wgt>
</rwgt>
</event>
<event>
 4      1 +6.0853000e-08 1.89745500e+03 7.81860800e-03 8.11500700e-02
        2 -1    0    0  501    0 +0.0000000000e+00 +0.0000000000e+00 +8.6663313050e+02 8.6663313050e+02 0.0000000000e+00 0.0000e+00 -1.0000e+00
       -2 -1    0    0    0  501 -0.0000000000e+00 -0.0000000000e+00 -1.0385979915e+03 1.0385979915e+03 0.0000000000e+00 0.0000e+00 1.0000e+00
      -13  1    1    2    0    0 -6.6090116005e+02 -5.9385748668e+02 -4.1995101914e+02 9.8275933795e+02 0.0000000000e+00 0.0000e+00 1.0000e+00
       13  1    1    2    0    0 +6.6090116005e+02 +5.9385748668e+02 +2.4798615809e+02 9.2247178409e+02 0.0000000000e+00 0.0000e+00 -1.0000e+00
<mgrwt>
<rscale>  0 0.18974545E+04</rscale>
<asrwt>0</asrwt>
<pdfrwt beam="1">  1        2 0.13332817E+00 0.18974545E+04</pdfrwt>
<pdfrwt beam="2">  1       -2 0.15978431E+00 0.18974545E+04</pdfrwt>
<totfact> 0.85876930E+00</totfact>
</mgrwt>
<rwgt>
<wgt id='morphing_basis_vector_1'> +1.1203083e-04 </wgt>
<wgt id='morphing_basis_vector_2'> +7.6686653e-05 </wgt>
<wgt id='morphing_basis_vector_3'> +1.1945184e-04 </wgt>
<wgt id='morphing_basis_vector_4'> +7.9966498e-05 </wgt>
<wgt id='morphing_basis_vector_5'> +1.3038573e-04 </wgt>
</rwgt>
</event>
<event>
 4      1 +6.0853000e-08 1.90871100e+03 7.81860800e-03 8.11009900e-02
        2 -1    0    0  501    0 +0.0000000000e+00 +0.0000000000e+00 +1.1951022036e+03 1.1951022036e+03 0.0000000000e+00 0.0000e+00 1.0000e+00
       -2 -1    0    0    0  501 -0.0000000000e+00 -0.0000000000e+00 -7.6210571284e+02 7.6210571284e+02 0.0000000000e+00 0.0000e+00 -1.0000e+00
      -13  1    1    2    0    0 -9.3172620751e+02 -1.2172203192e+02 +4.5331094796e+01 9.4073635359e+02 0.0000000000e+00 0.0000e+00 1.0000e+00
       13  1    1    2    0    0 +9.3172620751e+02 +1.2172203192e+02 +3.8766539594e+02 1.0164715628e+03 0.0000000000e+00 0.0000e+00 -1.0000e+00
<mgrwt>
<rscale>  0 0.19087108E+04</rscale>
<asrwt>0</asrwt>
<pdfrwt beam="1">  1        2 0.18386188E+00 0.19087108E+04</pdfrwt>
<pdfrwt beam="2">  1       -2 0.11724703E+00 0.19087108E+04</pdfrwt>
<totfact> 0.12577811E+01</totfact>
</mgrwt>
<rwgt>
<wgt id='morphing_basis_vector_1'> +1.1576921e-04 </wgt>
<wgt id='morphing_basis_vector_2'> +8.1812835e-05 </wgt>
<wgt id='morphing_basis_vector_3'> +1.2391238e-04 </wgt>
<wgt id='morphing_basis_vector_4'> +7.9718688e-05 </wgt>
<wgt id='morphing_basis_vector_5'> +1.3340503e-04 </wgt>
</rwgt>
</event>
<event>
 4      1 +6.0853000e-08 1.86475700e+03 7.81860800e-03 8.12946600e-02
        2 -1    0    0  501    0 +0.0000000000e+00 +0.0000000000e+00 +8.3808406674e+02 8.3808406674e+02 0.0000000000e+00 0.0000e+00 -1.0000e+00
       -2 -1    0    0    0  501 -0.0000000000e+00 -0.0000000000e+00 -1.0372822036e+03 1.0372822036e+03 0.0000000000e+00 0.0000e+00 1.0000e+00
      -13  1    1    2    0    0 +7.2890679907e+02 -4.1478640158e+02 -5.0931943450e+02 9.8120291837e+02 0.0000000000e+00 0.0000e+00 1.0000e+00
       13  1    1    2    0    0 -7.2890679907e+02 +4.1478640158e+02 +3.1012129767e+02 8.9416335193e+02 0.0000000000e+00 0.0000e+00 -1.0000e+00
<mgrwt>
<rscale>  0 0.18647570E+04</rscale>
<asrwt>0</asrwt>
<pdfrwt beam="1">  1        2 0.12893601E+00 0.18647570E+04</pdfrwt>
<pdfrwt beam="2">  1       -2 0.15958188E+00 0.18647570E+04</pdfrwt>
<totfact> 0.90347398E+00</totfact>
</mgrwt>
<rwgt>
<wgt id='morphing_basis_vector_1'> +1.0435809e-04 </wgt>
<wgt id='morphing_basis_vector_2'> +7.0658082e-05 </wgt>
<wgt id='morphing_basis_vector_3'> +1.1099164e-04 </wgt>
<wgt id='morphing_basis_vector_4'> +7.5097297e-05 </wgt>
<wgt id='morphing_basis_vector_5'> +1.2148341e-04 </wgt>
</rwgt>
</event>
<event>
 4      1 +6.0853000e-08 1.90441800e+03 7.81860800e-03 8.11196700e-02
        2 -1    0    0  501    0 +0.0000000000e+00 +0.0000000000e+00 +1.4843708189e+03 1.4843708189e+03 0.0000000000e+00 0.0000e+00 -1.0000e+00
       -2 -1    0    0    0  501 -0.0000000000e+00 -0.0000000000e+00 -6.1083228007e+02 6.1083228007e+02 0.0000000000e+00 0.0000e+00 1.0000e+00
      -13  1    1    2    0    0 -2.6136289252e+01 +7.6343993197e+02 -1.8866952636e+02 7.8684167754e+02 0.0000000000e+00 0.0000e+00 1.0000e+00
       13  1    1    2    0    0 +2.6136289252e+01 -7.6343993197e+02 +1.0622080652e+03 1.3083614215e+03 0.0000000000e+00 0.0000e+00 -1.0000e+00
<mgrwt>
<rscale>  0 0.19044176E+04</rscale>
<asrwt>0</asrwt>
<pdfrwt beam="1">  1        2 0.22836474E+00 0.19044176E+04</pdfrwt>
<pdfrwt beam="2">  1       -2 0.93974197E-01 0.19044176E+04</pdfrwt>
<totfact> 0.14835610E+01</totfact>
</mgrwt>
<rwgt>
<wgt id='morphing_basis_vector_1'> +1.1290639e-04 </wgt>
<wgt id='morphing_basis_vector_2'> +7.5611426e-05 </wgt>
<wgt id='morphing_basis_vector_3'> +1.2014880e-04 </wgt>
<wgt id='morphing_basis_vector_4'> +8.2634059e-05 </wgt>
<wgt id='morphing_basis_vector_5'> +1.3246790e-04 </wgt>
</rwgt>
</event>
<event>
 4      1 +6.0853000e-08 2.12183400e+03 7.81860800e-03 8.02332900e-02
        2 -1    0    0  501    0 +0.0000000000e+00 +0.0000000000e+00 +1.8483760017e+03 1.8483760017e+03 0.0000000000e+00 0.0000e+00 -1.0000e+00
       -2 -1    0    0    0  501 -0.0000000000e+00 -0.0000000000e+00 -6.0893693905e+02 6.0893693905e+02 0.0000000000e+00 0.0000e+00 1.0000e+00
      -13  1    1    2    0    0 -6.9403017082e+02 +6.2997900897e+02 +4.4158383973e+01 9.3835035708e+02 0.0000000000e+00 0.0000e+00 1.0000e+00
       13  1    1    2    0    0 +6.9403017082e+02 -6.2997900897e+02 +1.1952806786e+03 1.5189625836e+03 0.0000000000e+00 0.0000e+00 -1.0000e+00
<mgrwt>
<rscale>  0 0.21218336E+04</rscale>
<asrwt>0</asrwt>
<pdfrwt beam="1">  1        2 0.28436554E+00 0.21218336E+04</pdfrwt>
<pdfrwt beam="2">  1       -2 0.93682607E-01 0.21218336E+04</pdfrwt>
<totfact> 0.91920267E+00</totfact>
</mgrwt>
<rwgt>
<wgt id='morphing_basis_vector_1'> +1.7294710e-04 </wgt>
<wgt id='morphing_basis_vector_2'> +1.1744765e-04 </wgt>
<wgt id='morphing_basis_vector_3'> +1.8570487e-04 </wgt>
<wgt id='morphing_basis_vector_4'> +1.2747900e-04 </wgt>
<wgt id='morphing_basis_vector_5'> +2.0582762e-04 </wgt>
</rwgt>
</event>
<event>
 4      1 +6.0853000e-08 1.99749100e+03 7.81860800e-03 8.07258900e-02
        2 -1    0    0  501    0 +0.0000000000e+00 +0.0000000000e+00 +1.3737516106e+03 1.3737516106e+03 0.0000000000e+00 0.0000e+00 1.0000e+00
       -2 -1    0    0    0  501 -0.0000000000e+00 -0.0000000000e+00 -7.2610813517e+02 7.2610813517e+02 0.0000000000e+00 0.0000e+00 -1.0000e+00
      -13  1    1    2    0    0 +5.4358877986e+02 -4.9648677642e+02 +1.0333207470e+03 1.2687551564e+03 0.0000000000e+00 0.0000e+00 1.0000e+00
       13  1    1    2    0    0 -5.4358877986e+02 +4.9648677642e+02 -3.8567727153e+02 8.3110458940e+02 0.0000000000e+00 0.0000e+00 -1.0000e+00
<mgrwt>
<rscale>  0 0.19974906E+04</rscale>
<asrwt>0</asrwt>
<pdfrwt beam="1">  1        2 0.21134640E+00 0.19974906E+04</pdfrwt>
<pdfrwt beam="2">  1       -2 0.11170894E+00 0.19974906E+04</pdfrwt>
<totfact> 0.11146276E+01</totfact>
</mgrwt>
<rwgt>
<wgt id='morphing_basis_vector_1'> +1.7319200e-04 </wgt>
<wgt id='morphing_basis_vector_2'> +2.0118399e-04 </wgt>
<wgt id='morphing_basis_vector_3'> +1.9935265e-04 </wgt>
<wgt id='morphing_basis_vector_4'> +2.6611132e-05 </wgt>
<wgt id='morphing_basis_vector_5'> +1.5515358e-04 </wgt>
</rwgt>
</event>
<event>
 4      1 +6.0853000e-08 2.10042200e+03 7.81860800e-03 8.03155800e-02
        2 -1    0    0  501    0 +0.0000000000e+00 +0.0000000000e+00 +2.9108869961e+03 2.9108869961e+03 0.0000000000e+00 0.0000e+00 1.0000e+00
       -2 -1    0    0    0  501 -0.0000000000e+00 -0.0000000000e+00 -3.7890292861e+02 3.7890292861e+02 0.0000000000e+00 0.0000e+00 -1.0000e+00
      -13  1    1    2    0    0 +7.7641341614e+02 -1.6985242466e+02 +1.9076750323e+02 8.1734930061e+02 0.0000000000e+00 0.0000e+00 -1.0000e+00
       13  1    1    2    0    0 -7.7641341614e+02 +1.6985242466e+02 +2.3412165642e+03 2.4724406241e+03 0.0000000000e+00 0.0000e+00 1.0000e+00
<mgrwt>
<rscale>  0 0.21004224E+04</rscale>
<asrwt>0</asrwt>
<pdfrwt beam="1">  1        2 0.44782875E+00 0.21004224E+04</pdfrwt>
<pdfrwt beam="2">  1       -2 0.58292760E-01 0.21004224E+04</pdfrwt>
<totfact> 0.61669031E+00</totfact>
</mgrwt>
<rwgt>
<wgt id='morphing_basis_vector_1'> +1.6561942e-04 </wgt>
<wgt id='morphing_basis_vector_2'> +1.1111560e-04 </wgt>
<wgt id='morphing_basis_vector_3'> +1.7748413e-04 </wgt>
<wgt id='morphing_basis_vector_4'> +1.2347566e-04 </wgt>
<wgt id='morphing_basis_vector_5'> +1.9759159e-04 </wgt>
</rwgt>
</event>
<event>
 4      1 +6.0853000e-08 2.20168400e+03 7.81860800e-03 7.99350500e-02
        2 -1    0    0  501    0 +0.0000000000e+00 +0.0000000000e+00 +3.9886313872e+03 3.9886313872e+03 0.0000000000e+00 0.0000e+00 -1.0000e+00
       -2 -1    0    0    0  501 -0.0000000000e+00 -0.0000000000e+00 -3.0382693384e+02 3.0382693384e+02 0.0000000000e+00 0.0000e+00 1.0000e+00
      -13  1    1    2    0    0 -7.7964485971e+02 -1.7197076476e+01 +3.2756546429e+02 8.4583744308e+02 0.0000000000e+00 0.0000e+00 1.0000e+00
       13  1    1    2    0    0 +7.7964485971e+02 +1.7197076476e+01 +3.3572389891e+03 3.4466208780e+03 0.0000000000e+00 0.0000e+00 -1.0000e+00
<mgrwt>
<rscale>  0 0.22016845E+04</rscale>
<asrwt>0</asrwt>
<pdfrwt beam="1">  1        2 0.61363556E+00 0.22016845E+04</pdfrwt>
<pdfrwt beam="2">  1       -2 0.46742608E-01 0.22016845E+04</pdfrwt>
<totfact> 0.15618060E+00</totfact>
</mgrwt>
<rwgt>
<wgt id='morphing_basis_vector_1'> +1.9917068e-04 </wgt>
<wgt id='morphing_basis_vector_2'> +1.3362223e-04 </wgt>
<wgt id='morphing_basis_vector_3'> +2.1404335e-04 </wgt>
<wgt id='morphing_basis_vector_4'> +1.4976653e-04 </wgt>
<wgt id='morphing_basis_vector_5'> +2.3934124e-04 </wgt>
</rwgt>
</event>
<event>
 4      1 +6.0853000e-08 1.92006600e+03 7.81860800e-03 8.10518400e-02
        2 -1    0    0  501    0 +0.0000000000e+00 +0.0000000000e+00 +1.6215990995e+03 1.6215990995e+03 0.0000000000e+00 0.0000e+00 -1.0000e+00
       -2 -1    0    0    0  501 -0.0000000000e+00 -0.0000000000e+00 -5.6836711437e+02 5.6836711437e+02 0.0000000000e+00 0.0000e+00 1.0000e+00
      -13  1    1    2    0    0 +4.1572289809e+02 -8.2011369156e+02 +2.1166303002e+02 9.4351111989e+02 0.0000000000e+00 0.0000e+00 1.0000e+00
       13  1    1    2    0    0 -4.1572289809e+02 +8.2011369156e+02 +8.4156895511e+02 1.2464550940e+03 0.0000000000e+00 0.0000e+00 -1.0000e+00
<mgrwt>
<rscale>  0 0.19200662E+04</rscale>
<asrwt>0</asrwt>
<pdfrwt beam="1">  1        2 0.24947678E+00 0.19200662E+04</pdfrwt>
<pdfrwt beam="2">  1       -2 0.87441095E-01 0.19200662E+04</pdfrwt>
<totfact> 0.14698505E+01</totfact>
</mgrwt>
<rwgt>
<wgt id='morphing_basis_vector_1'> +1.1767745e-04 </wgt>
<wgt id='morphing_basis_vector_2'> +8.1357173e-05 </wgt>
<wgt id='morphing_basis_vector_3'> +1.2572049e-04 </wgt>
<wgt id='morphing_basis_vector_4'> +8.3273399e-05 </wgt>
<wgt id='morphing_basis_vector_5'> +1.3680466e-04 </wgt>
</rwgt>
</event>
<event>
 4      1 +6.0853000e-08 2.10474000e+03 7.81860800e-03 8.02989000e-02
        2 -1    0    0  501    0 +0.0000000000e+00 +0.0000000000e+00 +7.2369118033e+02 7.2369118033e+02 0.0000000000e+00 0.0000e+00 -1.0000e+00
       -2 -1    0    0    0  501 -0.0000000000e+00 -0.0000000000e+00 -1.5303250613e+03 1.5303250613e+03 0.0000000000e+00 0.0000e+00 1.0000e+00
      -13  1    1    2    0    0 +9.1695980549e+02 -2.7930460460e+02 -8.6846834321e+02 1.2934696016e+03 0.0000000000e+00 0.0000e+00 1.0000e+00
       13  1    1    2    0    0 -9.1695980549e+02 +2.7930460460e+02 +6.1834462228e+01 9.6054664007e+02 0.0000000000e+00 0.0000e+00 -1.0000e+00
<mgrwt>
<rscale>  0 0.21047401E+04</rscale>
<asrwt>0</asrwt>
<pdfrwt beam="1">  1        2 0.11133710E+00 0.21047401E+04</pdfrwt>
<pdfrwt beam="2">  1       -2 0.23543462E+00 0.21047401E+04</pdfrwt>
<totfact> 0.29319144E+00</totfact>
</mgrwt>
<rwgt>
<wgt id='morphing_basis_vector_1'> +1.6781273e-04 </wgt>
<wgt id='morphing_basis_vector_2'> +1.1454646e-04 </wgt>
<wgt id='morphing_basis_vector_3'> +1.8020288e-04 </wgt>
<wgt id='morphing_basis_vector_4'> +1.2280251e-04 </wgt>
<wgt id='morphing_basis_vector_5'> +1.9911520e-04 </wgt>
</rwgt>
</event>
<event>
 4      1 +6.0853000e-08 2.11868400e+03 7.81860800e-03 8.02453300e-02
        2 -1    0    0  501    0 +0.0000000000e+00 +0.0000000000e+00 +2.7591603181e+03 2.7591603181e+03 0.0000000000e+00 0.0000e+00 1.0000e+00
       -2 -1    0    0    0  501 -0.0000000000e+00 -0.0000000000e+00 -4.0672006479e+02 4.0672006479e+02 0.0000000000e+00 0.0000e+00 -1.0000e+00
      -13  1    1    2    0    0 +5.2158966705e+02 +6.9584329863e+02 +2.7227844532e+02 9.1125694994e+02 0.0000000000e+00 0.0000e+00 -1.0000e+00
       13  1    1    2    0    0 -5.2158966705e+02 -6.9584329863e+02 +2.0801618080e+03 2.2546234329e+03 0.0000000000e+00 0.0000e+00 1.0000e+00
<mgrwt>
<rscale>  0 0.21186844E+04</rscale>
<asrwt>0</asrwt>
<pdfrwt beam="1">  1        2 0.42448619E+00 0.21186844E+04</pdfrwt>
<pdfrwt beam="2">  1       -2 0.62572319E-01 0.21186844E+04</pdfrwt>
<totfact> 0.66317529E+00</totfact>
</mgrwt>
<rwgt>
<wgt id='morphing_basis_vector_1'> +1.7155733e-04 </wgt>
<wgt id='morphing_basis_vector_2'> +1.1562244e-04 </wgt>
<wgt id='morphing_basis_vector_3'> +1.8403944e-04 </wgt>
<wgt id='morphing_basis_vector_4'> +1.2748116e-04 </wgt>
<wgt id='morphing_basis_vector_5'> +2.0464795e-04 </wgt>
</rwgt>
</event>
<event>
 4      1 +6.0853000e-08 1.86244600e+03 7.81860800e-03 8.13050000e-02
        2 -1    0    0  501    0 +0.0000000000e+00 +0.0000000000e+00 +2.0875614102e+03 2.0875614102e+03 0.0000000000e+00 0.0000e+00 -1.0000e+00
       -2 -1    0    0    0  501 -0.0000000000e+00 -0.0000000000e+00 -4.1540157430e+02 4.1540157430e+02 0.0000000000e+00 0.0000e+00 1.0000e+00
      -13  1    1    2    0    0 +8.2989016433e+02 -1.1325547752e+02 +2.8913624366e+02 8.8608366164e+02 0.0000000000e+00 0.0000e+00 1.0000e+00
       13  1    1    2    0    0 -8.2989016433e+02 +1.1325547752e+02 +1.3830235923e+03 1.6168793229e+03 0.0000000000e+00 0.0000e+00 -1.0000e+00
<mgrwt>
<rscale>  0 0.18624460E+04</rscale>
<asrwt>0</asrwt>
<pdfrwt beam="1">  1        2 0.32116329E+00 0.18624460E+04</pdfrwt>
<pdfrwt beam="2">  1       -2 0.63907936E-01 0.18624460E+04</pdfrwt>
<totfact> 0.16179041E+01</totfact>
</mgrwt>
<rwgt>
<wgt id='morphing_basis_vector_1'> +1.0385339e-04 </wgt>
<wgt id='morphing_basis_vector_2'> +7.0311245e-05 </wgt>
<wgt id='morphing_basis_vector_3'> +1.1044293e-04 </wgt>
<wgt id='morphing_basis_vector_4'> +7.4717950e-05 </wgt>
<wgt id='morphing_basis_vector_5'> +1.2086841e-04 </wgt>
</rwgt>
</event>
<event>
 4      1 +6.0853000e-08 1.94997300e+03 7.81860800e-03 8.09240700e-02
        2 -1    0    0  501    0 +0.0000000000e+00 +0.0000000000e+00 +1.2078937978e+03 1.2078937978e+03 0.0000000000e+00 0.0000e+00 -1.0000e+00
       -2 -1    0    0    0  501 -0.0000000000e+00 -0.0000000000e+00 -7.8698839799e+02 7.8698839799e+02 0.0000000000e+00 0.0000e+00 1.0000e+00
      -13  1    1    2    0    0 -5.3918125802e+02 +4.3224613597e+01 -6.1940983020e+02 8.2234623728e+02 0.0000000000e+00 0.0000e+00 1.0000e+00
       13  1    1    2    0    0 +5.3918125802e+02 -4.3224613597e+01 +1.0403152300e+03 1.1725359585e+03 0.0000000000e+00 0.0000e+00 -1.0000e+00
<mgrwt>
<rscale>  0 0.19499727E+04</rscale>
<asrwt>0</asrwt>
<pdfrwt beam="1">  1        2 0.18582981E+00 0.19499727E+04</pdfrwt>
<pdfrwt beam="2">  1       -2 0.12107514E+00 0.19499727E+04</pdfrwt>
<totfact> 0.11334959E+01</totfact>
</mgrwt>
<rwgt>
<wgt id='morphing_basis_vector_1'> +1.2357421e-04 </wgt>
<wgt id='morphing_basis_vector_2'> +8.2222715e-05 </wgt>
<wgt id='morphing_basis_vector_3'> +1.3164571e-04 </wgt>
<wgt id='morphing_basis_vector_4'> +9.1553554e-05 </wgt>
<wgt id='morphing_basis_vector_5'> +1.4594724e-04 </wgt>
</rwgt>
</event>
<event>
 4      1 +6.0853000e-08 2.01129600e+03 7.81860800e-03 8.06693800e-02
        2 -1    0    0  501    0 +0.0000000000e+00 +0.0000000000e+00 +1.6578049008e+03 1.6578049008e+03 0.0000000000e+00 0.0000e+00 -1.0000e+00
       -2 -1    0    0    0  501 -0.0000000000e+00 -0.0000000000e+00 -6.1004025424e+02 6.1004025424e+02 0.0000000000e+00 0.0000e+00 1.0000e+00
      -13  1    1    2    0    0 -4.7718124729e+02 -4.6503594312e+02 -3.2543428577e+02 7.4153074482e+02 0.0000000000e+00 0.0000e+00 1.0000e+00
       13  1    1    2    0    0 +4.7718124729e+02 +4.6503594312e+02 +1.3731989324e+03 1.5263144103e+03 0.0000000000e+00 0.0000e+00 -1.0000e+00
<mgrwt>
<rscale>  0 0.20112958E+04</rscale>
<asrwt>0</asrwt>
<pdfrwt beam="1">  1        2 0.25504691E+00 0.20112958E+04</pdfrwt>
<pdfrwt beam="2">  1       -2 0.93852348E-01 0.20112958E+04</pdfrwt>
<totfact> 0.11798601E+01</totfact>
</mgrwt>
<rwgt>
<wgt id='morphing_basis_vector_1'> +1.3958018e-04 </wgt>
<wgt id='morphing_basis_vector_2'> +9.3167197e-05 </wgt>
<wgt id='morphing_basis_vector_3'> +1.4907145e-04 </wgt>
<wgt id='morphing_basis_vector_4'> +1.0374369e-04 </wgt>
<wgt id='morphing_basis_vector_5'> +1.6560127e-04 </wgt>
</rwgt>
</event>
<event>
 4      1 +6.0853000e-08 1.98254600e+03 7.81860800e-03 8.07875900e-02
        2 -1    0    0  501    0 +0.0000000000e+00 +0.0000000000e+00 +9.0506417243e+02 9.0506417243e+02 0.0000000000e+00 0.0000e+00 -1.0000e+00
       -2 -1    0    0    0  501 -0.0000000000e+00 -0.0000000000e+00 -1.0856928680e+03 1.0856928680e+03 0.0000000000e+00 0.0000e+00 1.0000e+00
      -13  1    1    2    0    0 +6.9183485023e+02 -2.8705047307e+02 +5.6167327555e+02 9.3622128931e+02 0.0000000000e+00 0.0000e+00 1.0000e+00
       13  1    1    2    0    0 -6.9183485023e+02 +2.8705047307e+02 -7.4230197112e+02 1.0545357511e+03 0.0000000000e+00 0.0000e+00 -1.0000e+00
<mgrwt>
<rscale>  0 0.19825456E+04</rscale>
<asrwt>0</asrwt>
<pdfrwt beam="1">  1        2 0.13924064E+00 0.19825456E+04</pdfrwt>
<pdfrwt beam="2">  1       -2 0.16702967E+00 0.19825456E+04</pdfrwt>
<totfact> 0.70468539E+00</totfact>
</mgrwt>
<rwgt>
<wgt id='morphing_basis_vector_1'> +1.6673963e-04 </wgt>
<wgt id='morphing_basis_vector_2'> +1.9109913e-04 </wgt>
<wgt id='morphing_basis_vector_3'> +1.9130943e-04 </wgt>
<wgt id='morphing_basis_vector_4'> +2.8652468e-05 </wgt>
<wgt id='morphing_basis_vector_5'> +1.5070050e-04 </wgt>
</rwgt>
</event>
<event>
 4      1 +6.0853000e-08 1.87779400e+03 7.81860800e-03 8.12366400e-02
        2 -1    0    0  501    0 +0.0000000000e+00 +0.0000000000e+00 +5.5029927610e+02 5.5029927610e+02 0.0000000000e+00 0.0000e+00 -1.0000e+00
       -2 -1    0    0    0  501 -0.0000000000e+00 -0.0000000000e+00 -1.6019063551e+03 1.6019063551e+03 0.0000000000e+00 0.0000e+00 1.0000e+00
      -13  1    1    2    0    0 -6.0109290387e+02 -3.8391938989e+02 -1.2256229665e+03 1.4180474015e+03 0.0000000000e+00 0.0000e+00 1.0000e+00
       13  1    1    2    0    0 +6.0109290387e+02 +3.8391938989e+02 +1.7401588753e+02 7.3415822963e+02 0.0000000000e+00 0.0000e+00 -1.0000e+00
<mgrwt>
<rscale>  0 0.18777944E+04</rscale>
<asrwt>0</asrwt>
<pdfrwt beam="1">  1        2 0.84661427E-01 0.18777944E+04</pdfrwt>
<pdfrwt beam="2">  1       -2 0.24644713E+00 0.18777944E+04</pdfrwt>
<totfact> 0.34753226E+00</totfact>
</mgrwt>
<rwgt>
<wgt id='morphing_basis_vector_1'> +1.0677925e-04 </wgt>
<wgt id='morphing_basis_vector_2'> +7.1272656e-05 </wgt>
<wgt id='morphing_basis_vector_3'> +1.1346656e-04 </wgt>
<wgt id='morphing_basis_vector_4'> +7.8171264e-05 </wgt>
<wgt id='morphing_basis_vector_5'> +1.2506747e-04 </wgt>
</rwgt>
</event>
<event>
 4      1 +6.0853000e-08 1.97907200e+03 7.81860800e-03 8.08020200e-02
        2 -1    0    0  501    0 +0.0000000000e+00 +0.0000000000e+00 +1.8129298965e+03 1.8129298965e+03 0.0000000000e+00 0.0000e+00 -1.0000e+00
       -2 -1    0    0    0  501 -0.0000000000e+00 -0.0000000000e+00 -5.4011007175e+02 5.4011007175e+02 0.0000000000e+00 0.0000e+00 1.0000e+00
      -13  1    1    2    0    0 -9.7581197858e+02 +3.6362173117e+01 +4.4598869406e+02 1.0735162507e+03 0.0000000000e+00 0.0000e+00 1.0000e+00
       13  1    1    2    0    0 +9.7581197858e+02 -3.6362173117e+01 +8.2683113065e+02 1.2795237176e+03 0.0000000000e+00 0.0000e+00 -1.0000e+00
<mgrwt>
<rscale>  0 0.19790722E+04</rscale>
<asrwt>0</asrwt>
<pdfrwt beam="1">  1        2 0.27891229E+00 0.19790722E+04</pdfrwt>
<pdfrwt beam="2">  1       -2 0.83093858E-01 0.19790722E+04</pdfrwt>
<totfact> 0.12872772E+01</totfact>
</mgrwt>
<rwgt>
<wgt id='morphing_basis_vector_1'> +1.3352508e-04 </wgt>
<wgt id='morphing_basis_vector_2'> +9.4807028e-05 </wgt>
<wgt id='morphing_basis_vector_3'> +1.4339779e-04 </wgt>
<wgt id='morphing_basis_vector_4'> +9.2153638e-05 </wgt>
<wgt id='morphing_basis_vector_5'> +1.5464589e-04 </wgt>
</rwgt>
</event>
<event>
 4      1 +6.0853000e-08 1.90426600e+03 7.81860800e-03 8.11203300e-02
        2 -1    0    0  501    0 +0.0000000000e+00 +0.0000000000e+00 +3.0017736917e+03 3.0017736917e+03 0.0000000000e+00 0.0000e+00 -1.0000e+00
       -2 -1    0    0    0  501 -0.0000000000e+00 -0.0000000000e+00 -3.0200720128e+02 3.0200720128e+02 0.0000000000e+00 0.0000e+00 1.0000e+00
      -13  1    1    2    0    0 +3.9599569281e+02 -5.7360602435e+02 +2.2455138058e+02 7.3229760509e+02 0.0000000000e+00 0.0000e+00 1.0000e+00
       13  1    1    2    0    0 -3.9599569281e+02 +5.7360602435e+02 +2.4752151099e+03 2.5714832879e+03 0.0000000000e+00 0.0000e+00 -1.0000e+00
<mgrwt>
<rscale>  0 0.19042660E+04</rscale>
<asrwt>0</asrwt>
<pdfrwt beam="1">  1        2 0.46181132E+00 0.19042660E+04</pdfrwt>
<pdfrwt beam="2">  1       -2 0.46462648E-01 0.19042660E+04</pdfrwt>
<totfact> 0.86090042E+00</totfact>
</mgrwt>
<rwgt>
<wgt id='morphing_basis_vector_1'> +1.1274607e-04 </wgt>
<wgt id='morphing_basis_vector_2'> +7.5216614e-05 </wgt>
<wgt id='morphing_basis_vector_3'> +1.1993087e-04 </wgt>
<wgt id='morphing_basis_vector_4'> +8.2854153e-05 </wgt>
<wgt id='morphing_basis_vector_5'> +1.3244412e-04 </wgt>
</rwgt>
</event>
<event>
 4      1 +6.0853000e-08 1.86060300e+03 7.81860800e-03 8.13132500e-02
        2 -1    0    0  501    0 +0.0000000000e+00 +0.0000000000e+00 +1.6302497537e+03 1.6302497537e+03 0.0000000000e+00 0.0000e+00 -1.0000e+00
       -2 -1    0    0    0  501 -0.0000000000e+00 -0.0000000000e+00 -5.3087628386e+02 5.3087628386e+02 0.0000000000e+00 0.0000e+00 1.0000e+00
      -13  1    1    2    0    0 +1.3835253709e+02 -4.5893854129e+02 -3.7639802527e+02 6.0945999264e+02 0.0000000000e+00 0.0000e+00 1.0000e+00
       13  1    1    2    0    0 -1.3835253709e+02 +4.5893854129e+02 +1.4757714951e+03 1.5516660449e+03 0.0000000000e+00 0.0000e+00 -1.0000e+00
<mgrwt>
<rscale>  0 0.18606031E+04</rscale>
<asrwt>0</asrwt>
<pdfrwt beam="1">  1        2 0.25080765E+00 0.18606031E+04</pdfrwt>
<pdfrwt beam="2">  1       -2 0.81673275E-01 0.18606031E+04</pdfrwt>
<totfact> 0.17095147E+01</totfact>
</mgrwt>
<rwgt>
<wgt id='morphing_basis_vector_1'> +1.0284818e-04 </wgt>
<wgt id='morphing_basis_vector_2'> +6.8244575e-05 </wgt>
<wgt id='morphing_basis_vector_3'> +1.0914550e-04 </wgt>
<wgt id='morphing_basis_vector_4'> +7.5603089e-05 </wgt>
<wgt id='morphing_basis_vector_5'> +1.2047216e-04 </wgt>
</rwgt>
</event>
<event>
 4      1 +6.0853000e-08 1.97182100e+03 7.81860800e-03 8.08322300e-02
        2 -1    0    0  501    0 +0.0000000000e+00 +0.0000000000e+00 +9.3502901986e+02 9.3502901986e+02 0.0000000000e+00 0.0000e+00 1.0000e+00
       -2 -1    0    0    0  501 -0.0000000000e+00 -0.0000000000e+00 -1.0395603716e+03 1.0395603716e+03 0.0000000000e+00 0.0000e+00 -1.0000e+00
      -13  1    1    2    0    0 +8.8445030387e+02 -4.3402978022e+02 -1.4998837212e+01 9.8532185364e+02 0.0000000000e+00 0.0000e+00 1.0000e+00
       13  1    1    2    0    0 -8.8445030387e+02 +4.3402978022e+02 -8.9532514486e+01 9.8926753778e+02 0.0000000000e+00 0.0000e+00 -1.0000e+00
<mgrwt>
<rscale>  0 0.19718206E+04</rscale>
<asrwt>0</asrwt>
<pdfrwt beam="1">  1        2 0.14385062E+00 0.19718206E+04</pdfrwt>
<pdfrwt beam="2">  1       -2 0.15993237E+00 0.19718206E+04</pdfrwt>
<totfact> 0.76778237E+00</totfact>
</mgrwt>
<rwgt>
<wgt id='morphing_basis_vector_1'> +1.3444132e-04 </wgt>
<wgt id='morphing_basis_vector_2'> +1.0179809e-04 </wgt>
<wgt id='morphing_basis_vector_3'> +1.4540189e-04 </wgt>
<wgt id='morphing_basis_vector_4'> +8.5181064e-05 </wgt>
<wgt id='morphing_basis_vector_5'> +1.5190457e-04 </wgt>
</rwgt>
</event>
<event>
 4      1 +6.0853000e-08 1.97125500e+03 7.81860800e-03 8.08345900e-02
        2 -1    0    0  501    0 +0.0000000000e+00 +0.0000000000e+00 +1.6889973321e+03 1.6889973321e+03 0.0000000000e+00 0.0000e+00 -1.0000e+00
       -2 -1    0    0    0  501 -0.0000000000e+00 -0.0000000000e+00 -5.7517062860e+02 5.7517062860e+02 0.0000000000e+00 0.0000e+00 1.0000e+00
      -13  1    1    2    0    0 -7.6071699311e+01 +7.9950626931e+02 +1.2131852081e+03 1.4549280145e+03 0.0000000000e+00 0.0000e+00 1.0000e+00
       13  1    1    2    0    0 +7.6071699311e+01 -7.9950626931e+02 -9.9358504629e+01 8.0923994621e+02 0.0000000000e+00 0.0000e+00 -1.0000e+00
<mgrwt>
<rscale>  0 0.19712551E+04</rscale>
<asrwt>0</asrwt>
<pdfrwt beam="1">  1        2 0.25984574E+00 0.19712551E+04</pdfrwt>
<pdfrwt beam="2">  1       -2 0.88487790E-01 0.19712551E+04</pdfrwt>
<totfact> 0.13056392E+01</totfact>
</mgrwt>
<rwgt>
<wgt id='morphing_basis_vector_1'> +1.5787477e-04 </wgt>
<wgt id='morphing_basis_vector_2'> +1.7152990e-04 </wgt>
<wgt id='morphing_basis_vector_3'> +1.7943493e-04 </wgt>
<wgt id='morphing_basis_vector_4'> +3.8268338e-05 </wgt>
<wgt id='morphing_basis_vector_5'> +1.4804106e-04 </wgt>
</rwgt>
</event>
<event>
 4      1 +6.0853000e-08 2.01891200e+03 7.81860800e-03 8.06384100e-02
        2 -1    0    0  501    0 +0.0000000000e+00 +0.0000000000e+00 +1.1717689668e+03 1.1717689668e+03 0.0000000000e+00 0.0000e+00 -1.0000e+00
       -2 -1    0    0    0  501 -0.0000000000e+00 -0.0000000000e+00 -8.6962623755e+02 8.6962623755e+02 0.0000000000e+00 0.0000e+00 1.0000e+00
      -13  1    1    2    0    0 +2.0658982170e+02 +2.4233658045e+02 -8.1750802025e+02 8.7734014831e+02 0.0000000000e+00 0.0000e+00 1.0000e+00
       13  1    1    2    0    0 -2.0658982170e+02 -2.4233658045e+02 +1.1196507495e+03 1.1640550561e+03 0.0000000000e+00 0.0000e+00 -1.0000e+00
<mgrwt>
<rscale>  0 0.20189116E+04</rscale>
<asrwt>0</asrwt>
<pdfrwt beam="1">  1        2 0.18027215E+00 0.20189116E+04</pdfrwt>
<pdfrwt beam="2">  1       -2 0.13378865E+00 0.20189116E+04</pdfrwt>
<totfact> 0.90780294E+00</totfact>
</mgrwt>
<rwgt>
<wgt id='morphing_basis_vector_1'> +1.4154959e-04 </wgt>
<wgt id='morphing_basis_vector_2'> +9.4236573e-05 </wgt>
<wgt id='morphing_basis_vector_3'> +1.5117190e-04 </wgt>
<wgt id='morphing_basis_vector_4'> +1.0558186e-04 </wgt>
<wgt id='morphing_basis_vector_5'> +1.6819217e-04 </wgt>
</rwgt>
</event>
<event>
 4      1 +6.0853000e-08 2.03503000e+03 7.81860800e-03 8.05733300e-02
        2 -1    0    0  501    0 +0.0000000000e+00 +0.0000000000e+00 +2.9859973695e+03 2.9859973695e+03 0.0000000000e+00 0.0000e+00 1.0000e+00
       -2 -1    0    0    0  501 -0.0000000000e+00 -0.0000000000e+00 -3.4673080583e+02 3.4673080583e+02 0.0000000000e+00 0.0000e+00 -1.0000e+00
      -13  1    1    2    0    0 -5.7780761250e+02 +6.9178482136e+02 +2.0928356260e+03 2.2786813805e+03 0.0000000000e+00 0.0000e+00 1.0000e+00
       13  1    1    2    0    0 +5.7780761250e+02 -6.9178482136e+02 +5.4643093764e+02 1.0540467949e+03 0.0000000000e+00 0.0000e+00 -1.0000e+00
<mgrwt>
<rscale>  0 0.20350305E+04</rscale>
<asrwt>0</asrwt>
<pdfrwt beam="1">  1        2 0.45938419E+00 0.20350305E+04</pdfrwt>
<pdfrwt beam="2">  1       -2 0.53343203E-01 0.20350305E+04</pdfrwt>
<totfact> 0.66404557E+00</totfact>
</mgrwt>
<rwgt>
<wgt id='morphing_basis_vector_1'> +1.7034737e-04 </wgt>
<wgt id='morphing_basis_vector_2'> +1.6922350e-04 </wgt>
<wgt id='morphing_basis_vector_3'> +1.9160639e-04 </wgt>
<wgt id='morphing_basis_vector_4'> +6.0546166e-05 </wgt>
<wgt id='morphing_basis_vector_5'> +1.6989850e-04 </wgt>
</rwgt>
</event>
<event>
 4      1 +6.0853000e-08 1.92206500e+03 7.81860800e-03 8.10432200e-02
        2 -1    0    0  501    0 +0.0000000000e+00 +0.0000000000e+00 +3.4662343281e+03 3.4662343281e+03 0.0000000000e+00 0.0000e+00 -1.0000e+00
       -2 -1    0    0    0  501 -0.0000000000e+00 -0.0000000000e+00 -2.6645157892e+02 2.6645157892e+02 0.0000000000e+00 0.0000e+00 1.0000e+00
      -13  1    1    2    0    0 +4.1092094776e+02 +8.6439174667e+02 +1.7686849815e+03 2.0110384583e+03 0.0000000000e+00 0.0000e+00 1.0000e+00
       13  1    1    2    0    0 -4.1092094776e+02 -8.6439174667e+02 +1.4310977677e+03 1.7216474487e+03 0.0000000000e+00 0.0000e+00 -1.0000e+00
<mgrwt>
<rscale>  0 0.19220651E+04</rscale>
<asrwt>0</asrwt>
<pdfrwt beam="1">  1        2 0.53326679E+00 0.19220651E+04</pdfrwt>
<pdfrwt beam="2">  1       -2 0.40992553E-01 0.19220651E+04</pdfrwt>
<totfact> 0.52577267E+00</totfact>
</mgrwt>
<rwgt>
<wgt id='morphing_basis_vector_1'> +1.2263402e-04 </wgt>
<wgt id='morphing_basis_vector_2'> +9.4957066e-05 </wgt>
<wgt id='morphing_basis_vector_3'> +1.3268968e-04 </wgt>
<wgt id='morphing_basis_vector_4'> +7.4781390e-05 </wgt>
<wgt id='morphing_basis_vector_5'> +1.3669401e-04 </wgt>
</rwgt>
</event>
<event>
 4      1 +6.0853000e-08 1.97964700e+03 7.81860800e-03 8.07996300e-02
        2 -1    0    0  501    0 +0.0000000000e+00 +0.0000000000e+00 +1.4461020642e+03 1.4461020642e+03 0.0000000000e+00 0.0000e+00 -1.0000e+00
       -2 -1    0    0    0  501 -0.0000000000e+00 -0.0000000000e+00 -6.7751109608e+02 6.7751109608e+02 0.0000000000e+00 0.0000e+00 1.0000e+00
      -13  1    1    2    0    0 +6.8231299568e+02 -3.3957649928e+02 -2.9320975677e+02 8.1659977002e+02 0.0000000000e+00 0.0000e+00 1.0000e+00
       13  1    1    2    0    0 -6.8231299568e+02 +3.3957649928e+02 +1.0618007249e+03 1.3070133902e+03 0.0000000000e+00 0.0000e+00 -1.0000e+00
<mgrwt>
<rscale>  0 0.19796466E+04</rscale>
<asrwt>0</asrwt>
<pdfrwt beam="1">  1        2 0.22247724E+00 0.19796466E+04</pdfrwt>
<pdfrwt beam="2">  1       -2 0.10423248E+00 0.19796466E+04</pdfrwt>
<totfact> 0.12073406E+01</totfact>
</mgrwt>
<rwgt>
<wgt id='morphing_basis_vector_1'> +1.3131746e-04 </wgt>
<wgt id='morphing_basis_vector_2'> +8.7928692e-05 </wgt>
<wgt id='morphing_basis_vector_3'> +1.4013876e-04 </wgt>
<wgt id='morphing_basis_vector_4'> +9.6949592e-05 </wgt>
<wgt id='morphing_basis_vector_5'> +1.5519845e-04 </wgt>
</rwgt>
</event>
<event>
 4      1 +6.0853000e-08 1.93685500e+03 7.81860800e-03 8.09798200e-02
        2 -1    0    0  501    0 +0.0000000000e+00 +0.0000000000e+00 +5.8467766923e+02 5.8467766923e+02 0.0000000000e+00 0.0000e+00 1.0000e+00
       -2 -1    0    0    0  501 -0.0000000000e+00 -0.0000000000e+00 -1.6040499306e+03 1.6040499306e+03 0.0000000000e+00 0.0000e+00 -1.0000e+00
      -13  1    1    2    0    0 +5.5304979326e+02 +5.0327153961e+02 +1.8573124146e+02 7.7048193390e+02 0.0000000000e+00 0.0000e+00 1.0000e+00
       13  1    1    2    0    0 -5.5304979326e+02 -5.0327153961e+02 -1.2051035028e+03 1.4182456659e+03 0.0000000000e+00 0.0000e+00 -1.0000e+00
<mgrwt>
<rscale>  0 0.19368554E+04</rscale>
<asrwt>0</asrwt>
<pdfrwt beam="1">  1        2 0.89950412E-01 0.19368554E+04</pdfrwt>
<pdfrwt beam="2">  1       -2 0.24677691E+00 0.19368554E+04</pdfrwt>
<totfact> 0.32052688E+00</totfact>
</mgrwt>
<rwgt>
<wgt id='morphing_basis_vector_1'> +1.5093577e-04 </wgt>
<wgt id='morphing_basis_vector_2'> +1.7065923e-04 </wgt>
<wgt id='morphing_basis_vector_3'> +1.7227775e-04 </wgt>
<wgt id='morphing_basis_vector_4'> +2.8542294e-05 </wgt>
<wgt id='morphing_basis_vector_5'> +1.3722581e-04 </wgt>
</rwgt>
</event>
<event>
 4      1 +6.0853000e-08 2.12230500e+03 7.81860800e-03 8.02314900e-02
        2 -1    0    0  501    0 +0.0000000000e+00 +0.0000000000e+00 +2.5058447978e+03 2.5058447978e+03 0.0000000000e+00 0.0000e+00 1.0000e+00
       -2 -1    0    0    0  501 -0.0000000000e+00 -0.0000000000e+00 -4.4936735999e+02 4.4936735999e+02 0.0000000000e+00 0.0000e+00 -1.0000e+00
      -13  1    1    2    0    0 -1.6678495794e+01 -4.3080012576e+02 -3.2192318938e+02 5.3805339925e+02 0.0000000000e+00 0.0000e+00 -1.0000e+00
       13  1    1    2    0    0 +1.6678495794e+01 +4.3080012576e+02 +2.3784006272e+03 2.4171587586e+03 0.0000000000e+00 0.0000e+00 1.0000e+00
<mgrwt>
<rscale>  0 0.21223052E+04</rscale>
<asrwt>0</asrwt>
<pdfrwt beam="1">  1        2 0.38551458E+00 0.21223052E+04</pdfrwt>
<pdfrwt beam="2">  1       -2 0.69133442E-01 0.21223052E+04</pdfrwt>
<totfact> 0.76650250E+00</totfact>
</mgrwt>
<rwgt>
<wgt id='morphing_basis_vector_1'> +1.7220895e-04 </wgt>
<wgt id='morphing_basis_vector_2'> +1.1492125e-04 </wgt>
<wgt id='morphing_basis_vector_3'> +1.8455603e-04 </wgt>
<wgt id='morphing_basis_vector_4'> +1.2937993e-04 </wgt>
<wgt id='morphing_basis_vector_5'> +2.0615605e-04 </wgt>
</rwgt>
</event>
<event>
 4      1 +6.0853000e-08 1.93753300e+03 7.81860800e-03 8.09769200e-02
        2 -1    0    0  501    0 +0.0000000000e+00 +0.0000000000e+00 +1.8253478368e+03 1.8253478368e+03 0.0000000000e+00 0.0000e+00 -1.0000e+00
       -2 -1    0    0    0  501 -0.0000000000e+00 -0.0000000000e+00 -5.1415329917e+02 5.1415329917e+02 0.0000000000e+00 0.0000e+00 1.0000e+00
      -13  1    1    2    0    0 +3.5405231928e+02 +1.2654541489e+02 -4.2246024789e+02 5.6554349776e+02 0.0000000000e+00 0.0000e+00 1.0000e+00
       13  1    1    2    0    0 -3.5405231928e+02 -1.2654541489e+02 +1.7336547856e+03 1.7739576383e+03 0.0000000000e+00 0.0000e+00 -1.0000e+00
<mgrwt>
<rscale>  0 0.19375331E+04</rscale>
<asrwt>0</asrwt>
<pdfrwt beam="1">  1        2 0.28082274E+00 0.19375331E+04</pdfrwt>
<pdfrwt beam="2">  1       -2 0.79100509E-01 0.19375331E+04</pdfrwt>
<totfact> 0.14221602E+01</totfact>
</mgrwt>
<rwgt>
<wgt id='morphing_basis_vector_1'> +1.2048389e-04 </wgt>
<wgt id='morphing_basis_vector_2'> +8.0065609e-05 </wgt>
<wgt id='morphing_basis_vector_3'> +1.2827693e-04 </wgt>
<wgt id='morphing_basis_vector_4'> +8.9257610e-05 </wgt>
<wgt id='morphing_basis_vector_5'> +1.4218583e-04 </wgt>
</rwgt>
</event>
<event>
 4      1 +6.0853000e-08 2.09431300e+03 7.81860800e-03 8.03392400e-02
        2 -1    0    0  501    0 +0.0000000000e+00 +0.0000000000e+00 +6.9655633405e+02 6.9655633405e+02 0.0000000000e+00 0.0000e+00 1.0000e+00
       -2 -1    0    0    0  501 -0.0000000000e+00 -0.0000000000e+00 -1.5742260429e+03 1.5742260429e+03 0.0000000000e+00 0.0000e+00 -1.0000e+00
      -13  1    1    2    0    0 +5.2049087584e+00 +3.4477504147e+02 -1.5109054291e+03 1.5497522822e+03 0.0000000000e+00 0.0000e+00 -1.0000e+00
       13  1    1    2    0    0 -5.2049087584e+00 -3.4477504147e+02 +6.3323572022e+02 7.2103009484e+02 0.0000000000e+00 0.0000e+00 1.0000e+00
<mgrwt>
<rscale>  0 0.20943134E+04</rscale>
<asrwt>0</asrwt>
<pdfrwt beam="1">  1        2 0.10716251E+00 0.20943134E+04</pdfrwt>
<pdfrwt beam="2">  1       -2 0.24218862E+00 0.20943134E+04</pdfrwt>
<totfact> 0.27600737E+00</totfact>
</mgrwt>
<rwgt>
<wgt id='morphing_basis_vector_1'> +1.6345183e-04 </wgt>
<wgt id='morphing_basis_vector_2'> +1.0899753e-04 </wgt>
<wgt id='morphing_basis_vector_3'> +1.7501252e-04 </wgt>
<wgt id='morphing_basis_vector_4'> +1.2258993e-04 </wgt>
<wgt id='morphing_basis_vector_5'> +1.9530646e-04 </wgt>
</rwgt>
</event>
<event>
 4      1 +6.0853000e-08 1.95018700e+03 7.81860800e-03 8.09231600e-02
        2 -1    0    0  501    0 +0.0000000000e+00 +0.0000000000e+00 +8.8885031812e+02 8.8885031812e+02 0.0000000000e+00 0.0000e+00 -1.0000e+00
       -2 -1    0    0    0  501 -0.0000000000e+00 -0.0000000000e+00 -1.0697045365e+03 1.0697045365e+03 0.0000000000e+00 0.0000e+00 1.0000e+00
      -13  1    1    2    0    0 +1.4924651554e+02 +5.0049905754e+02 -9.1738814894e+02 1.0556395430e+03 0.0000000000e+00 0.0000e+00 1.0000e+00
       13  1    1    2    0    0 -1.4924651554e+02 -5.0049905754e+02 +7.3653393057e+02 9.0291531158e+02 0.0000000000e+00 0.0000e+00 -1.0000e+00
<mgrwt>
<rscale>  0 0.19501869E+04</rscale>
<asrwt>0</asrwt>
<pdfrwt beam="1">  1        2 0.13674620E+00 0.19501869E+04</pdfrwt>
<pdfrwt beam="2">  1       -2 0.16456993E+00 0.19501869E+04</pdfrwt>
<totfact> 0.75716267E+00</totfact>
</mgrwt>
<rwgt>
<wgt id='morphing_basis_vector_1'> +1.2362086e-04 </wgt>
<wgt id='morphing_basis_vector_2'> +8.2239259e-05 </wgt>
<wgt id='morphing_basis_vector_3'> +1.3169404e-04 </wgt>
<wgt id='morphing_basis_vector_4'> +9.1607487e-05 </wgt>
<wgt id='morphing_basis_vector_5'> +1.4601374e-04 </wgt>
</rwgt>
</event>
<event>
 4      1 +6.0853000e-08 1.86621900e+03 7.81860800e-03 8.12881300e-02
        2 -1    0    0  501    0 +0.0000000000e+00 +0.0000000000e+00 +3.2484843109e+03 3.2484843109e+03 0.0000000000e+00 0.0000e+00 -1.0000e+00
       -2 -1    0    0    0  501 -0.0000000000e+00 -0.0000000000e+00 -2.6803076078e+02 2.6803076078e+02 0.0000000000e+00 0.0000e+00 1.0000e+00
      -13  1    1    2    0    0 -3.5287854035e+02 +8.1471386387e+02 +9.4929259954e+02 1.2997839758e+03 0.0000000000e+00 0.0000e+00 1.0000e+00
       13  1    1    2    0    0 +3.5287854035e+02 -8.1471386387e+02 +2.0311609506e+03 2.2167310958e+03 0.0000000000e+00 0.0000e+00 -1.0000e+00
<mgrwt>
<rscale>  0 0.18662194E+04</rscale>
<asrwt>0</asrwt>
<pdfrwt beam="1">  1        2 0.49976679E+00 0.18662194E+04</pdfrwt>
<pdfrwt beam="2">  1       -2 0.41235504E-01 0.18662194E+04</pdfrwt>
<totfact> 0.74327692E+00</totfact>
</mgrwt>
<rwgt>
<wgt id='morphing_basis_vector_1'> +1.0518836e-04 </wgt>
<wgt id='morphing_basis_vector_2'> +7.2390079e-05 </wgt>
<wgt id='morphing_basis_vector_3'> +1.1206771e-04 </wgt>
<wgt id='morphing_basis_vector_4'> +7.4335760e-05 </wgt>
<wgt id='morphing_basis_vector_5'> +1.2179558e-04 </wgt>
</rwgt>
</event>
<event>
 4      1 +6.0853000e-08 2.12940100e+03 7.81860800e-03 8.02044500e-02
        2 -1    0    0  501    0 +0.0000000000e+00 +0.0000000000e+00 +2.5399088263e+03 2.5399088263e+03 0.0000000000e+00 0.0000e+00 -1.0000e+00
       -2 -1    0    0    0  501 -0.0000000000e+00 -0.0000000000e+00 -4.4631008783e+02 4.4631008783e+02 0.0000000000e+00 0.0000e+00 1.0000e+00
      -13  1    1    2    0    0 +8.6222718568e+02 +2.1047399412e+02 +2.2207406491e+02 9.1490541163e+02 0.0000000000e+00 0.0000e+00 1.0000e+00
       13  1    1    2    0    0 -8.6222718568e+02 -2.1047399412e+02 +1.8715246735e+03 2.0713135025e+03 0.0000000000e+00 0.0000e+00 -1.0000e+00
<mgrwt>
<rscale>  0 0.21294008E+04</rscale>
<asrwt>0</asrwt>
<pdfrwt beam="1">  1        2 0.39075519E+00 0.21294008E+04</pdfrwt>
<pdfrwt beam="2">  1       -2 0.68663092E-01 0.21294008E+04</pdfrwt>
<totfact> 0.74163218E+00</totfact>
</mgrwt>
<rwgt>
<wgt id='morphing_basis_vector_1'> +1.7505134e-04 </wgt>
<wgt id='morphing_basis_vector_2'> +1.1813872e-04 </wgt>
<wgt id='morphing_basis_vector_3'> +1.8787504e-04 </wgt>
<wgt id='morphing_basis_vector_4'> +1.3000480e-04 </wgt>
<wgt id='morphing_basis_vector_5'> +2.0888547e-04 </wgt>
</rwgt>
</event>
<event>
 4      1 +6.0853000e-08 2.07365400e+03 7.81860800e-03 8.04199000e-02
        2 -1    0    0  501    0 +0.0000000000e+00 +0.0000000000e+00 +6.9377873160e+02 6.9377873160e+02 0.0000000000e+00 0.0000e+00 1.0000e+00
       -2 -1    0    0    0  501 -0.0000000000e+00 -0.0000000000e+00 -1.5494999506e+03 1.5494999506e+03 0.0000000000e+00 0.0000e+00 -1.0000e+00
      -13  1    1    2    0    0 +8.2368995264e+02 -9.0560923257e+01 -1.1020083551e+03 1.3787997801e+03 0.0000000000e+00 0.0000e+00 -1.0000e+00
       13  1    1    2    0    0 -8.2368995264e+02 +9.0560923257e+01 +2.4628713604e+02 8.6447890216e+02 0.0000000000e+00 0.0000e+00 1.0000e+00
<mgrwt>
<rscale>  0 0.20736539E+04</rscale>
<asrwt>0</asrwt>
<pdfrwt beam="1">  1        2 0.10673519E+00 0.20736539E+04</pdfrwt>
<pdfrwt beam="2">  1       -2 0.23838460E+00 0.20736539E+04</pdfrwt>
<totfact> 0.29531940E+00</totfact>
</mgrwt>
<rwgt>
<wgt id='morphing_basis_vector_1'> +1.5760164e-04 </wgt>
<wgt id='morphing_basis_vector_2'> +1.0594157e-04 </wgt>
<wgt id='morphing_basis_vector_3'> +1.6878944e-04 </wgt>
<wgt id='morphing_basis_vector_4'> +1.1696277e-04 </wgt>
<wgt id='morphing_basis_vector_5'> +1.8751370e-04 </wgt>
</rwgt>
</event>
<event>
 4      1 +6.0853000e-08 1.86307100e+03 7.81860800e-03 8.13022000e-02
        2 -1    0    0  501    0 +0.0000000000e+00 +0.0000000000e+00 +2.0931863276e+03 2.0931863276e+03 0.0000000000e+00 0.0000e+00 -1.0000e+00
       -2 -1    0    0    0  501 -0.0000000000e+00 -0.0000000000e+00 -4.1456359712e+02 4.1456359712e+02 0.0000000000e+00 0.0000e+00 1.0000e+00
      -13  1    1    2    0    0 +3.1651016098e+02 +2.7260931921e+02 -2.8142672272e+02 5.0368196631e+02 0.0000000000e+00 0.0000e+00 1.0000e+00
       13  1    1    2    0    0 -3.1651016098e+02 -2.7260931921e+02 +1.9600494532e+03 2.0040679584e+03 0.0000000000e+00 0.0000e+00 -1.0000e+00
<mgrwt>
<rscale>  0 0.18630715E+04</rscale>
<asrwt>0</asrwt>
<pdfrwt beam="1">  1        2 0.32202866E+00 0.18630715E+04</pdfrwt>
<pdfrwt beam="2">  1       -2 0.63779016E-01 0.18630715E+04</pdfrwt>
<totfact> 0.16127733E+01</totfact>
</mgrwt>
<rwgt>
<wgt id='morphing_basis_vector_1'> +1.0337067e-04 </wgt>
<wgt id='morphing_basis_vector_2'> +6.8569319e-05 </wgt>
<wgt id='morphing_basis_vector_3'> +1.0970806e-04 </wgt>
<wgt id='morphing_basis_vector_4'> +7.6037055e-05 </wgt>
<wgt id='morphing_basis_vector_5'> +1.2112952e-04 </wgt>
</rwgt>
</event>
<event>
 4      1 +6.0853000e-08 1.89631800e+03 7.81860800e-03 8.11550400e-02
        2 -1    0    0  501    0 +0.0000000000e+00 +0.0000000000e+00 +3.3001003633e+03 3.3001003633e+03 0.0000000000e+00 0.0000e+00 1.0000e+00
       -2 -1    0    0    0  501 -0.0000000000e+00 -0.0000000000e+00 -2.7241774209e+02 2.7241774209e+02 0.0000000000e+00 0.0000e+00 -1.0000e+00
      -13  1    1    2    0    0 +5.8485333217e+02 -2.6397042163e+02 +1.9877109782e+02 6.7174679231e+02 0.0000000000e+00 0.0000e+00 -1.0000e+00
       13  1    1    2    0    0 -5.8485333217e+02 +2.6397042163e+02 +2.8289115234e+03 2.9007713131e+03 0.0000000000e+00 0.0000e+00 1.0000e+00
<mgrwt>
<rscale>  0 0.18963184E+04</rscale>
<asrwt>0</asrwt>
<pdfrwt beam="1">  1        2 0.50770772E+00 0.18963184E+04</pdfrwt>
<pdfrwt beam="2">  1       -2 0.41910424E-01 0.18963184E+04</pdfrwt>
<totfact> 0.66234375E+00</totfact>
</mgrwt>
<rwgt>
<wgt id='morphing_basis_vector_1'> +1.1085961e-04 </wgt>
<wgt id='morphing_basis_vector_2'> +7.3810498e-05 </wgt>
<wgt id='morphing_basis_vector_3'> +1.1786255e-04 </wgt>
<wgt id='morphing_basis_vector_4'> +8.1563322e-05 </wgt>
<wgt id='morphing_basis_vector_5'> +1.3020698e-04 </wgt>
</rwgt>
</event>
<event>
 4      1 +6.0853000e-08 2.21762300e+03 7.81860800e-03 7.98770800e-02
        2 -1    0    0  501    0 +0.0000000000e+00 +0.0000000000e+00 +2.5355521857e+03 2.5355521857e+03 0.0000000000e+00 0.0000e+00 -1.0000e+00
       -2 -1    0    0    0  501 -0.0000000000e+00 -0.0000000000e+00 -4.8488963916e+02 4.8488963916e+02 0.0000000000e+00 0.0000e+00 1.0000e+00
      -13  1    1    2    0    0 -4.1898969339e+02 +1.0134842321e+03 +8.0252444134e+02 1.3589511142e+03 0.0000000000e+00 0.0000e+00 1.0000e+00
       13  1    1    2    0    0 +4.1898969339e+02 -1.0134842321e+03 +1.2481381052e+03 1.6614907107e+03 0.0000000000e+00 0.0000e+00 -1.0000e+00
<mgrwt>
<rscale>  0 0.22176230E+04</rscale>
<asrwt>0</asrwt>
<pdfrwt beam="1">  1        2 0.39008495E+00 0.22176230E+04</pdfrwt>
<pdfrwt beam="2">  1       -2 0.74598407E-01 0.22176230E+04</pdfrwt>
<totfact> 0.61882838E+00</totfact>
</mgrwt>
<rwgt>
<wgt id='morphing_basis_vector_1'> +2.0898404e-04 </wgt>
<wgt id='morphing_basis_vector_2'> +1.4956885e-04 </wgt>
<wgt id='morphing_basis_vector_3'> +2.2639041e-04 </wgt>
<wgt id='morphing_basis_vector_4'> +1.4597600e-04 </wgt>
<wgt id='morphing_basis_vector_5'> +2.4580462e-04 </wgt>
</rwgt>
</event>
<event>
 4      1 +6.0853000e-08 1.98507900e+03 7.81860800e-03 8.07770900e-02
        2 -1    0    0  501    0 +0.0000000000e+00 +0.0000000000e+00 +2.0360191588e+03 2.0360191588e+03 0.0000000000e+00 0.0000e+00 1.0000e+00
       -2 -1    0    0    0  501 -0.0000000000e+00 -0.0000000000e+00 -4.8385322512e+02 4.8385322512e+02 0.0000000000e+00 0.0000e+00 -1.0000e+00
      -13  1    1    2    0    0 +8.6950951637e+02 +3.3773308865e+02 +1.2066046511e+03 1.5251246580e+03 0.0000000000e+00 0.0000e+00 -1.0000e+00
       13  1    1    2    0    0 -8.6950951637e+02 -3.3773308865e+02 +3.4556128252e+02 9.9474772591e+02 0.0000000000e+00 0.0000e+00 1.0000e+00
<mgrwt>
<rscale>  0 0.19850788E+04</rscale>
<asrwt>0</asrwt>
<pdfrwt beam="1">  1        2 0.31323371E+00 0.19850788E+04</pdfrwt>
<pdfrwt beam="2">  1       -2 0.74438959E-01 0.19850788E+04</pdfrwt>
<totfact> 0.12357602E+01</totfact>
</mgrwt>
<rwgt>
<wgt id='morphing_basis_vector_1'> +1.4781309e-04 </wgt>
<wgt id='morphing_basis_vector_2'> +1.3353886e-04 </wgt>
<wgt id='morphing_basis_vector_3'> +1.6358737e-04 </wgt>
<wgt id='morphing_basis_vector_4'> +6.8075219e-05 </wgt>
<wgt id='morphing_basis_vector_5'> +1.5458248e-04 </wgt>
</rwgt>
</event>
<event>
 4      1 +6.0853000e-08 2.12861300e+03 7.81860800e-03 8.02074500e-02
        2 -1    0    0  501    0 +0.0000000000e+00 +0.0000000000e+00 +5.7596785344e+02 5.7596785344e+02 0.0000000000e+00 0.0000e+00 1.0000e+00
       -2 -1    0    0    0  501 -0.0000000000e+00 -0.0000000000e+00 -1.9666858201e+03 1.9666858201e+03 0.0000000000e+00 0.0000e+00 -1.0000e+00
      -13  1    1    2    0    0 +2.2226583059e+01 +7.1380551969e+02 -1.6379914641e+03 1.7869046917e+03 0.0000000000e+00 0.0000e+00 -1.0000e+00
       13  1    1    2    0    0 -2.2226583059e+01 -7.1380551969e+02 +2.4727349744e+02 7.5574898179e+02 0.0000000000e+00 0.0000e+00 1.0000e+00
<mgrwt>
<rscale>  0 0.21286125E+04</rscale>
<asrwt>0</asrwt>
<pdfrwt beam="1">  1        2 0.88610439E-01 0.21286125E+04</pdfrwt>
<pdfrwt beam="2">  1       -2 0.30256705E+00 0.21286125E+04</pdfrwt>
<totfact> 0.13339567E+00</totfact>
</mgrwt>
<rwgt>
<wgt id='morphing_basis_vector_1'> +1.7436940e-04 </wgt>
<wgt id='morphing_basis_vector_2'> +1.1670085e-04 </wgt>
<wgt id='morphing_basis_vector_3'> +1.8696528e-04 </wgt>
<wgt id='morphing_basis_vector_4'> +1.3066792e-04 </wgt>
<wgt id='morphing_basis_vector_5'> +2.0863922e-04 </wgt>
</rwgt>
</event>
<event>
 4      1 +6.0853000e-08 1.89028400e+03 7.81860800e-03 8.11815100e-02
        2 -1    0    0  501    0 +0.0000000000e+00 +0.0000000000e+00 +1.6256883731e+03 1.6256883731e+03 0.0000000000e+00 0.0000e+00 -1.0000e+00
       -2 -1    0    0    0  501 -0.0000000000e+00 -0.0000000000e+00 -5.4948619031e+02 5.4948619031e+02 0.0000000000e+00 0.0000e+00 1.0000e+00
      -13  1    1    2    0    0 -5.8870794721e+02 +3.9109818563e+02 -1.8397345376e+02 7.3032942540e+02 0.0000000000e+00 0.0000e+00 1.0000e+00
       13  1    1    2    0    0 +5.8870794721e+02 -3.9109818563e+02 +1.2601756366e+03 1.4448451381e+03 0.0000000000e+00 0.0000e+00 -1.0000e+00
<mgrwt>
<rscale>  0 0.18902839E+04</rscale>
<asrwt>0</asrwt>
<pdfrwt beam="1">  1        2 0.25010590E+00 0.18902839E+04</pdfrwt>
<pdfrwt beam="2">  1       -2 0.84536338E-01 0.18902839E+04</pdfrwt>
<totfact> 0.15850626E+01</totfact>
</mgrwt>
<rwgt>
<wgt id='morphing_basis_vector_1'> +1.0956459e-04 </wgt>
<wgt id='morphing_basis_vector_2'> +7.3115548e-05 </wgt>
<wgt id='morphing_basis_vector_3'> +1.1648401e-04 </wgt>
<wgt id='morphing_basis_vector_4'> +8.0354052e-05 </wgt>
<wgt id='morphing_basis_vector_5'> +1.2850852e-04 </wgt>
</rwgt>
</event>
<event>
 4      1 +6.0853000e-08 1.90579200e+03 7.81860800e-03 8.11136800e-02
        2 -1    0    0  501    0 +0.0000000000e+00 +0.0000000000e+00 +1.1817330042e+03 1.1817330042e+03 0.0000000000e+00 0.0000e+00 -1.0000e+00
       -2 -1    0    0    0  501 -0.0000000000e+00 -0.0000000000e+00 -7.6837228947e+02 7.6837228947e+02 0.0000000000e+00 0.0000e+00 1.0000e+00
      -13  1    1    2    0    0 +3.4506728267e+02 +7.1021177145e+02 -3.3914437519e+02 8.5935504717e+02 0.0000000000e+00 0.0000e+00 1.0000e+00
       13  1    1    2    0    0 -3.4506728267e+02 -7.1021177145e+02 +7.5250508988e+02 1.0907502465e+03 0.0000000000e+00 0.0000e+00 -1.0000e+00
<mgrwt>
<rscale>  0 0.19057921E+04</rscale>
<asrwt>0</asrwt>
<pdfrwt beam="1">  1        2 0.18180508E+00 0.19057921E+04</pdfrwt>
<pdfrwt beam="2">  1       -2 0.11821112E+00 0.19057921E+04</pdfrwt>
<totfact> 0.12542347E+01</totfact>
</mgrwt>
<rwgt>
<wgt id='morphing_basis_vector_1'> +1.1329748e-04 </wgt>
<wgt id='morphing_basis_vector_2'> +7.6041314e-05 </wgt>
<wgt id='morphing_basis_vector_3'> +1.2059889e-04 </wgt>
<wgt id='morphing_basis_vector_4'> +8.2735883e-05 </wgt>
<wgt id='morphing_basis_vector_5'> +1.3284814e-04 </wgt>
</rwgt>
</event>
<event>
 4      1 +6.0853000e-08 2.03335100e+03 7.81860800e-03 8.05800800e-02
        2 -1    0    0  501    0 +0.0000000000e+00 +0.0000000000e+00 +2.2602207367e+03 2.2602207367e+03 0.0000000000e+00 0.0000e+00 -1.0000e+00
       -2 -1    0    0    0  501 -0.0000000000e+00 -0.0000000000e+00 -4.5731321676e+02 4.5731321676e+02 0.0000000000e+00 0.0000e+00 1.0000e+00
      -13  1    1    2    0    0 +6.1231207185e+02 -2.9182625263e+02 -1.1069559717e+02 6.8727152588e+02 0.0000000000e+00 0.0000e+00 1.0000e+00
       13  1    1    2    0    0 -6.1231207185e+02 +2.9182625263e+02 +1.9136031171e+03 2.0302624276e+03 0.0000000000e+00 0.0000e+00 -1.0000e+00
<mgrwt>
<rscale>  0 0.20333507E+04</rscale>
<asrwt>0</asrwt>
<pdfrwt beam="1">  1        2 0.34772626E+00 0.20333507E+04</pdfrwt>
<pdfrwt beam="2">  1       -2 0.70355881E-01 0.20333507E+04</pdfrwt>
<totfact> 0.10364853E+01</totfact>
</mgrwt>
<rwgt>
<wgt id='morphing_basis_vector_1'> +1.4568285e-04 </wgt>
<wgt id='morphing_basis_vector_2'> +9.7299542e-05 </wgt>
<wgt id='morphing_basis_vector_3'> +1.5571405e-04 </wgt>
<wgt id='morphing_basis_vector_4'> +1.0845046e-04 </wgt>
<wgt id='morphing_basis_vector_5'> +1.7313327e-04 </wgt>
</rwgt>
</event>
<event>
 4      1 +6.0853000e-08 2.04792500e+03 7.81860800e-03 8.05217200e-02
        2 -1    0    0  501    0 +0.0000000000e+00 +0.0000000000e+00 +1.6666863581e+03 1.6666863581e+03 0.0000000000e+00 0.0000e+00 -1.0000e+00
       -2 -1    0    0    0  501 -0.0000000000e+00 -0.0000000000e+00 -6.2909225005e+02 6.2909225005e+02 0.0000000000e+00 0.0000e+00 1.0000e+00
      -13  1    1    2    0    0 -8.8077195905e+02 -2.7215690184e+02 +1.9127400576e+01 9.2205991157e+02 0.0000000000e+00 0.0000e+00 1.0000e+00
       13  1    1    2    0    0 +8.8077195905e+02 +2.7215690184e+02 +1.0184667074e+03 1.3737186965e+03 0.0000000000e+00 0.0000e+00 -1.0000e+00
<mgrwt>
<rscale>  0 0.20479253E+04</rscale>
<asrwt>0</asrwt>
<pdfrwt beam="1">  1        2 0.25641328E+00 0.20479253E+04</pdfrwt>
<pdfrwt beam="2">  1       -2 0.96783424E-01 0.20479253E+04</pdfrwt>
<totfact> 0.10812353E+01</totfact>
</mgrwt>
<rwgt>
<wgt id='morphing_basis_vector_1'> +1.5061707e-04 </wgt>
<wgt id='morphing_basis_vector_2'> +1.0244979e-04 </wgt>
<wgt id='morphing_basis_vector_3'> +1.6138448e-04 </wgt>
<wgt id='morphing_basis_vector_4'> +1.1006455e-04 </wgt>
<wgt id='morphing_basis_vector_5'> +1.7812348e-04 </wgt>
</rwgt>
</event>
<event>
 4      1 +6.0853000e-08 1.91577200e+03 7.81860800e-03 8.10703800e-02
        2 -1    0    0  501    0 +0.0000000000e+00 +0.0000000000e+00 +8.3122424351e+02 8.3122424351e+02 0.0000000000e+00 0.0000e+00 -1.0000e+00
       -2 -1    0    0    0  501 -0.0000000000e+00 -0.0000000000e+00 -1.1038490159e+03 1.1038490159e+03 0.0000000000e+00 0.0000e+00 1.0000e+00
      -13  1    1    2    0    0 +3.6940689590e+02 -2.5197279019e+02 -9.9195612046e+02 1.0880848711e+03 0.0000000000e+00 0.0000e+00 1.0000e+00
       13  1    1    2    0    0 -3.6940689590e+02 +2.5197279019e+02 +7.1933134805e+02 8.4698838836e+02 0.0000000000e+00 0.0000e+00 -1.0000e+00
<mgrwt>
<rscale>  0 0.19157725E+04</rscale>
<asrwt>0</asrwt>
<pdfrwt beam="1">  1        2 0.12788065E+00 0.19157725E+04</pdfrwt>
<pdfrwt beam="2">  1       -2 0.16982292E+00 0.19157725E+04</pdfrwt>
<totfact> 0.75476340E+00</totfact>
</mgrwt>
<rwgt>
<wgt id='morphing_basis_vector_1'> +1.1528469e-04 </wgt>
<wgt id='morphing_basis_vector_2'> +7.6589804e-05 </wgt>
<wgt id='morphing_basis_vector_3'> +1.2263514e-04 </wgt>
<wgt id='morphing_basis_vector_4'> +8.5214448e-05 </wgt>
<wgt id='morphing_basis_vector_5'> +1.3576999e-04 </wgt>
</rwgt>
</event>
<event>
 4      1 +6.0853000e-08 2.11588200e+03 7.81860800e-03 8.02560600e-02
        2 -1    0    0  501    0 +0.0000000000e+00 +0.0000000000e+00 +3.2476099517e+03 3.2476099517e+03 0.0000000000e+00 0.0000e+00 1.0000e+00
       -2 -1    0    0    0  501 -0.0000000000e+00 -0.0000000000e+00 -3.4463482349e+02 3.4463482349e+02 0.0000000000e+00 0.0000e+00 -1.0000e+00
      -13  1    1    2    0    0 +8.8054027486e+02 +1.7125164619e+02 +4.9929019296e+02 1.0266299230e+03 0.0000000000e+00 0.0000e+00 -1.0000e+00
       13  1    1    2    0    0 -8.8054027486e+02 -1.7125164619e+02 +2.4036849353e+03 2.5656148523e+03 0.0000000000e+00 0.0000e+00 1.0000e+00
<mgrwt>
<rscale>  0 0.21158823E+04</rscale>
<asrwt>0</asrwt>
<pdfrwt beam="1">  1        2 0.49963228E+00 0.21158823E+04</pdfrwt>
<pdfrwt beam="2">  1       -2 0.53020744E-01 0.21158823E+04</pdfrwt>
<totfact> 0.44683765E+00</totfact>
</mgrwt>
<rwgt>
<wgt id='morphing_basis_vector_1'> +1.7080182e-04 </wgt>
<wgt id='morphing_basis_vector_2'> +1.1541290e-04 </wgt>
<wgt id='morphing_basis_vector_3'> +1.8326682e-04 </wgt>
<wgt id='morphing_basis_vector_4'> +1.2652758e-04 </wgt>
<wgt id='morphing_basis_vector_5'> +2.0352676e-04 </wgt>
</rwgt>
</event>
<event>
 4      1 +6.0853000e-08 1.90129900e+03 7.81860800e-03 8.11332600e-02
        2 -1    0    0  501    0 +0.0000000000e+00 +0.0000000000e+00 +1.2799845454e+03 1.2799845454e+03 0.0000000000e+00 0.0000e+00 -1.0000e+00
       -2 -1    0    0    0  501 -0.0000000000e+00 -0.0000000000e+00 -7.0605124638e+02 7.0605124638e+02 0.0000000000e+00 0.0000e+00 1.0000e+00
      -13  1    1    2    0    0 +4.6145532104e+02 +6.1444914907e+01 -5.7883960565e+02 7.4281342203e+02 0.0000000000e+00 0.0000e+00 1.0000e+00
       13  1    1    2    0    0 -4.6145532104e+02 -6.1444914907e+01 +1.1527729046e+03 1.2432223697e+03 0.0000000000e+00 0.0000e+00 -1.0000e+00
<mgrwt>
<rscale>  0 0.19012992E+04</rscale>
<asrwt>0</asrwt>
<pdfrwt beam="1">  1        2 0.19692070E+00 0.19012992E+04</pdfrwt>
<pdfrwt beam="2">  1       -2 0.10862327E+00 0.19012992E+04</pdfrwt>
<totfact> 0.13637281E+01</totfact>
</mgrwt>
<rwgt>
<wgt id='morphing_basis_vector_1'> +1.1191944e-04 </wgt>
<wgt id='morphing_basis_vector_2'> +7.4334924e-05 </wgt>
<wgt id='morphing_basis_vector_3'> +1.1898392e-04 </wgt>
<wgt id='morphing_basis_vector_4'> +8.2606477e-05 </wgt>
<wgt id='morphing_basis_vector_5'> +1.3162415e-04 </wgt>
</rwgt>
</event>
<event>
 4      1 +6.0853000e-08 2.06350600e+03 7.81860800e-03 8.04598700e-02
        2 -1    0    0  501    0 +0.0000000000e+00 +0.0000000000e+00 +1.7128986811e+03 1.7128986811e+03 0.0000000000e+00 0.0000e+00 1.0000e+00
       -2 -1    0    0    0  501 -0.0000000000e+00 -0.0000000000e+00 -6.2146940071e+02 6.2146940071e+02 0.0000000000e+00 0.0000e+00 -1.0000e+00
      -13  1    1    2    0    0 +6.8940501103e+02 +5.1675278924e+02 +1.1878511177e+03 1.4674137087e+03 0.0000000000e+00 0.0000e+00 1.0000e+00
       13  1    1    2    0    0 -6.8940501103e+02 -5.1675278924e+02 -9.6421837349e+01 8.6695437316e+02 0.0000000000e+00 0.0000e+00 -1.0000e+00
<mgrwt>
<rscale>  0 0.20635059E+04</rscale>
<asrwt>0</asrwt>
<pdfrwt beam="1">  1        2 0.26352287E+00 0.20635059E+04</pdfrwt>
<pdfrwt beam="2">  1       -2 0.95610678E-01 0.20635059E+04</pdfrwt>
<totfact> 0.10475569E+01</totfact>
</mgrwt>
<rwgt>
<wgt id='morphing_basis_vector_1'> +1.8649509e-04 </wgt>
<wgt id='morphing_basis_vector_2'> +1.9829155e-04 </wgt>
<wgt id='morphing_basis_vector_3'> +2.1232606e-04 </wgt>
<wgt id='morphing_basis_vector_4'> +5.0863888e-05 </wgt>
<wgt id='morphing_basis_vector_5'> +1.7874583e-04 </wgt>
</rwgt>
</event>
<event>
 4      1 +6.0853000e-08 2.09367200e+03 7.81860800e-03 8.03417300e-02
        2 -1    0    0  501    0 +0.0000000000e+00 +0.0000000000e+00 +8.6249461680e+02 8.6249461680e+02 0.0000000000e+00 0.0000e+00 1.0000e+00
       -2 -1    0    0    0  501 -0.0000000000e+00 -0.0000000000e+00 -1.2705769750e+03 1.2705769750e+03 0.0000000000e+00 0.0000e+00 -1.0000e+00
      -13  1    1    2    0    0 +8.9705665244e+02 -4.1646492582e+02 +1.4550725147e+02 9.9966295938e+02 0.0000000000e+00 0.0000e+00 1.0000e+00
       13  1    1    2    0    0 -8.9705665244e+02 +4.1646492582e+02 -5.5358960967e+02 1.1334086324e+03 0.0000000000e+00 0.0000e+00 -1.0000e+00
<mgrwt>
<rscale>  0 0.20936722E+04</rscale>
<asrwt>0</asrwt>
<pdfrwt beam="1">  1        2 0.13269148E+00 0.20936722E+04</pdfrwt>
<pdfrwt beam="2">  1       -2 0.19547338E+00 0.20936722E+04</pdfrwt>
<totfact> 0.45283718E+00</totfact>
</mgrwt>
<rwgt>
<wgt id='morphing_basis_vector_1'> +1.8135840e-04 </wgt>
<wgt id='morphing_basis_vector_2'> +1.6242080e-04 </wgt>
<wgt id='morphing_basis_vector_3'> +2.0145961e-04 </wgt>
<wgt id='morphing_basis_vector_4'> +8.6158356e-05 </wgt>
<wgt id='morphing_basis_vector_5'> +1.9218137e-04 </wgt>
</rwgt>
</event>
<event>
 4      1 +6.0853000e-08 2.00054700e+03 7.81860800e-03 8.07133400e-02
        2 -1    0    0  501    0 +0.0000000000e+00 +0.0000000000e+00 +1.0864762357e+03 1.0864762357e+03 0.0000000000e+00 0.0000e+00 -1.0000e+00
       -2 -1    0    0    0  501 -0.0000000000e+00 -0.0000000000e+00 -9.2091050452e+02 9.2091050452e+02 0.0000000000e+00 0.0000e+00 1.0000e+00
      -13  1    1    2    0    0 -5.0959221376e-01 +6.7381777845e+02 -6.5901222189e+02 9.4251141470e+02 0.0000000000e+00 0.0000e+00 1.0000e+00
       13  1    1    2    0    0 +5.0959221376e-01 -6.7381777845e+02 +8.2457795307e+02 1.0648753255e+03 0.0000000000e+00 0.0000e+00 -1.0000e+00
<mgrwt>
<rscale>  0 0.20005473E+04</rscale>
<asrwt>0</asrwt>
<pdfrwt beam="1">  1        2 0.16715019E+00 0.20005473E+04</pdfrwt>
<pdfrwt beam="2">  1       -2 0.14167854E+00 0.20005473E+04</pdfrwt>
<totfact> 0.87273313E+00</totfact>
</mgrwt>
<rwgt>
<wgt id='morphing_basis_vector_1'> +1.3668969e-04 </wgt>
<wgt id='morphing_basis_vector_2'> +9.1239475e-05 </wgt>
<wgt id='morphing_basis_vector_3'> +1.4593090e-04 </wgt>
<wgt id='morphing_basis_vector_4'> +1.0148054e-04 </wgt>
<wgt id='morphing_basis_vector_5'> +1.6201835e-04 </wgt>
</rwgt>
</event>
<event>
 4      1 +6.0853000e-08 1.96175500e+03 7.81860800e-03 8.08743900e-02
        2 -1    0    0  501    0 +0.0000000000e+00 +0.0000000000e+00 +6.5039499613e+02 6.5039499613e+02 0.0000000000e+00 0.0000e+00 1.0000e+00
       -2 -1    0    0    0  501 -0.0000000000e+00 -0.0000000000e+00 -1.4792866292e+03 1.4792866292e+03 0.0000000000e+00 0.0000e+00 -1.0000e+00
      -13  1    1    2    0    0 -3.3793650202e+02 +9.0979362836e+02 -2.6017176451e+02 1.0047959358e+03 0.0000000000e+00 0.0000e+00 -1.0000e+00
       13  1    1    2    0    0 +3.3793650202e+02 -9.0979362836e+02 -5.6871986861e+02 1.1248856895e+03 0.0000000000e+00 0.0000e+00 1.0000e+00
<mgrwt>
<rscale>  0 0.19617550E+04</rscale>
<asrwt>0</asrwt>
<pdfrwt beam="1">  1        2 0.10006077E+00 0.19617550E+04</pdfrwt>
<pdfrwt beam="2">  1       -2 0.22758256E+00 0.19617550E+04</pdfrwt>
<totfact> 0.38376105E+00</totfact>
</mgrwt>
<rwgt>
<wgt id='morphing_basis_vector_1'> +1.3416674e-04 </wgt>
<wgt id='morphing_basis_vector_2'> +1.0684743e-04 </wgt>
<wgt id='morphing_basis_vector_3'> +1.4591902e-04 </wgt>
<wgt id='morphing_basis_vector_4'> +7.8674202e-05 </wgt>
<wgt id='morphing_basis_vector_5'> +1.4839020e-04 </wgt>
</rwgt>
</event>
<event>
 4      1 +6.0853000e-08 1.88457600e+03 7.81860800e-03 8.12066500e-02
        2 -1    0    0  501    0 +0.0000000000e+00 +0.0000000000e+00 +3.9946331152e+03 3.9946331152e+03 0.0000000000e+00 0.0000e+00 1.0000e+00
       -2 -1    0    0    0  501 -0.0000000000e+00 -0.0000000000e+00 -2.2227478458e+02 2.2227478458e+02 0.0000000000e+00 0.0000e+00 -1.0000e+00
      -13  1    1    2    0    0 +2.9519342975e+02 +8.8574010278e+02 +2.1712548843e+03 2.3634767744e+03 0.0000000000e+00 0.0000e+00 -1.0000e+00
       13  1    1    2    0    0 -2.9519342975e+02 -8.8574010278e+02 +1.6011034464e+03 1.8534311254e+03 0.0000000000e+00 0.0000e+00 1.0000e+00
<mgrwt>
<rscale>  0 0.18845755E+04</rscale>
<asrwt>0</asrwt>
<pdfrwt beam="1">  1        2 0.61455889E+00 0.18845755E+04</pdfrwt>
<pdfrwt beam="2">  1       -2 0.34196124E-01 0.18845755E+04</pdfrwt>
<totfact> 0.28627995E+00</totfact>
</mgrwt>
<rwgt>
<wgt id='morphing_basis_vector_1'> +1.1444991e-04 </wgt>
<wgt id='morphing_basis_vector_2'> +9.0543387e-05 </wgt>
<wgt id='morphing_basis_vector_3'> +1.2392269e-04 </wgt>
<wgt id='morphing_basis_vector_4'> +6.7210623e-05 </wgt>
<wgt id='morphing_basis_vector_5'> +1.2597836e-04 </wgt>
</rwgt>
</event>
<event>
 4      1 +6.0853000e-08 1.92411100e+03 7.81860800e-03 8.10344200e-02
        2 -1    0    0  501    0 +0.0000000000e+00 +0.0000000000e+00 +7.4645724488e+02 7.4645724488e+02 0.0000000000e+00 0.0000e+00 1.0000e+00
       -2 -1    0    0    0  501 -0.0000000000e+00 -0.0000000000e+00 -1.2399245965e+03 1.2399245965e+03 0.0000000000e+00 0.0000e+00 -1.0000e+00
      -13  1    1    2    0    0 +5.3392195986e+02 +1.9257221623e+02 -1.0486575093e+03 1.1924090277e+03 0.0000000000e+00 0.0000e+00 -1.0000e+00
       13  1    1    2    0    0 -5.3392195986e+02 -1.9257221623e+02 +5.5519015764e+02 7.9397281365e+02 0.0000000000e+00 0.0000e+00 1.0000e+00
<mgrwt>
<rscale>  0 0.19241109E+04</rscale>
<asrwt>0</asrwt>
<pdfrwt beam="1">  1        2 0.11483958E+00 0.19241109E+04</pdfrwt>
<pdfrwt beam="2">  1       -2 0.19075763E+00 0.19241109E+04</pdfrwt>
<totfact> 0.59979553E+00</totfact>
</mgrwt>
<rwgt>
<wgt id='morphing_basis_vector_1'> +1.1729637e-04 </wgt>
<wgt id='morphing_basis_vector_2'> +7.8026089e-05 </wgt>
<wgt id='morphing_basis_vector_3'> +1.2483194e-04 </wgt>
<wgt id='morphing_basis_vector_4'> +8.6668462e-05 </wgt>
<wgt id='morphing_basis_vector_5'> +1.3819624e-04 </wgt>
</rwgt>
</event>
<event>
 4      1 +6.0853000e-08 2.02172800e+03 7.81860800e-03 8.06270000e-02
        2 -1    0    0  501    0 +0.0000000000e+00 +0.0000000000e+00 +1.5161662856e+03 1.5161662856e+03 0.0000000000e+00 0.0000e+00 -1.0000e+00
       -2 -1    0    0    0  501 -0.0000000000e+00 -0.0000000000e+00 -6.7396669220e+02 6.7396669220e+02 0.0000000000e+00 0.0000e+00 1.0000e+00
      -13  1    1    2    0    0 +6.3763963395e+02 +5.8485135744e+02 -1.4513464184e+02 8.7732518335e+02 0.0000000000e+00 0.0000e+00 1.0000e+00
       13  1    1    2    0    0 -6.3763963395e+02 -5.8485135744e+02 +9.8733423524e+02 1.3128077944e+03 0.0000000000e+00 0.0000e+00 -1.0000e+00
<mgrwt>
<rscale>  0 0.20217276E+04</rscale>
<asrwt>0</asrwt>
<pdfrwt beam="1">  1        2 0.23325635E+00 0.20217276E+04</pdfrwt>
<pdfrwt beam="2">  1       -2 0.10368718E+00 0.20217276E+04</pdfrwt>
<totfact> 0.11131775E+01</totfact>
</mgrwt>
<rwgt>
<wgt id='morphing_basis_vector_1'> +1.4290015e-04 </wgt>
<wgt id='morphing_basis_vector_2'> +9.6460859e-05 </wgt>
<wgt id='morphing_basis_vector_3'> +1.5285495e-04 </wgt>
<wgt id='morphing_basis_vector_4'> +1.0503756e-04 </wgt>
<wgt id='morphing_basis_vector_5'> +1.6906056e-04 </wgt>
</rwgt>
</event>
<event>
 4      1 +6.0853000e-08 1.88255200e+03 7.81860800e-03 8.12155900e-02
        2 -1    0    0  501    0 +0.0000000000e+00 +0.0000000000e+00 +2.0663644184e+03 2.0663644184e+03 0.0000000000e+00 0.0000e+00 -1.0000e+00
       -2 -1    0    0    0  501 -0.0000000000e+00 -0.0000000000e+00 -4.2877253466e+02 4.2877253466e+02 0.0000000000e+00 0.0000e+00 1.0000e+00
      -13  1    1    2    0    0 +3.1243845886e+02 +5.5870966832e+02 -9.5852120015e+01 6.4727267281e+02 0.0000000000e+00 0.0000e+00 1.0000e+00
       13  1    1    2    0    0 -3.1243845886e+02 -5.5870966832e+02 +1.7334440037e+03 1.8478642802e+03 0.0000000000e+00 0.0000e+00 -1.0000e+00
<mgrwt>
<rscale>  0 0.18825518E+04</rscale>
<asrwt>0</asrwt>
<pdfrwt beam="1">  1        2 0.31790221E+00 0.18825518E+04</pdfrwt>
<pdfrwt beam="2">  1       -2 0.65965006E-01 0.18825518E+04</pdfrwt>
<totfact> 0.15536812E+01</totfact>
</mgrwt>
<rwgt>
<wgt id='morphing_basis_vector_1'> +1.0774886e-04 </wgt>
<wgt id='morphing_basis_vector_2'> +7.1718565e-05 </wgt>
<wgt id='morphing_basis_vector_3'> +1.1448735e-04 </wgt>
<wgt id='morphing_basis_vector_4'> +7.9164742e-05 </wgt>
<wgt id='morphing_basis_vector_5'> +1.2638309e-04 </wgt>
</rwgt>
</event>
<event>
 4      1 +6.0853000e-08 2.03015500e+03 7.81860800e-03 8.05929500e-02
        2 -1    0    0  501    0 +0.0000000000e+00 +0.0000000000e+00 +2.1540188019e+03 2.1540188019e+03 0.0000000000e+00 0.0000e+00 1.0000e+00
       -2 -1    0    0    0  501 -0.0000000000e+00 -0.0000000000e+00 -4.7835353378e+02 4.7835353378e+02 0.0000000000e+00 0.0000e+00 -1.0000e+00
      -13  1    1    2    0    0 -5.8958643812e+02 +1.0381410923e+02 -2.2508704693e+02 6.3957307322e+02 0.0000000000e+00 0.0000e+00 -1.0000e+00
       13  1    1    2    0    0 +5.8958643812e+02 -1.0381410923e+02 +1.9007523150e+03 1.9927992625e+03 0.0000000000e+00 0.0000e+00 1.0000e+00
<mgrwt>
<rscale>  0 0.20301552E+04</rscale>
<asrwt>0</asrwt>
<pdfrwt beam="1">  1        2 0.33138750E+00 0.20301552E+04</pdfrwt>
<pdfrwt beam="2">  1       -2 0.73592853E-01 0.20301552E+04</pdfrwt>
<totfact> 0.10820107E+01</totfact>
</mgrwt>
<rwgt>
<wgt id='morphing_basis_vector_1'> +1.4472829e-04 </wgt>
<wgt id='morphing_basis_vector_2'> +9.6520478e-05 </wgt>
<wgt id='morphing_basis_vector_3'> +1.5465320e-04 </wgt>
<wgt id='morphing_basis_vector_4'> +1.0787468e-04 </wgt>
<wgt id='morphing_basis_vector_5'> +1.7203561e-04 </wgt>
</rwgt>
</event>
<event>
 4      1 +6.0853000e-08 2.06862200e+03 7.81860800e-03 8.04396900e-02
        2 -1    0    0  501    0 +0.0000000000e+00 +0.0000000000e+00 +2.9986533598e+03 2.9986533598e+03 0.0000000000e+00 0.0000e+00 1.0000e+00
       -2 -1    0    0    0  501 -0.0000000000e+00 -0.0000000000e+00 -3.5675973876e+02 3.5675973876e+02 0.0000000000e+00 0.0000e+00 -1.0000e+00
      -13  1    1    2    0    0 -7.4654615935e+02 -4.2986841078e+02 +3.9242859723e+02 9.4663521092e+02 0.0000000000e+00 0.0000e+00 -1.0000e+00
       13  1    1    2    0    0 +7.4654615935e+02 +4.2986841078e+02 +2.2494650238e+03 2.4087778876e+03 0.0000000000e+00 0.0000e+00 1.0000e+00
<mgrwt>
<rscale>  0 0.20686216E+04</rscale>
<asrwt>0</asrwt>
<pdfrwt beam="1">  1        2 0.46133127E+00 0.20686216E+04</pdfrwt>
<pdfrwt beam="2">  1       -2 0.54886116E-01 0.20686216E+04</pdfrwt>
<totfact> 0.61353075E+00</totfact>
</mgrwt>
<rwgt>
<wgt id='morphing_basis_vector_1'> +1.5623374e-04 </wgt>
<wgt id='morphing_basis_vector_2'> +1.0530328e-04 </wgt>
<wgt id='morphing_basis_vector_3'> +1.6734691e-04 </wgt>
<wgt id='morphing_basis_vector_4'> +1.1555544e-04 </wgt>
<wgt id='morphing_basis_vector_5'> +1.8564596e-04 </wgt>
</rwgt>
</event>
<event>
 4      1 +6.0853000e-08 2.12886800e+03 7.81860800e-03 8.02064800e-02
        2 -1    0    0  501    0 +0.0000000000e+00 +0.0000000000e+00 +2.2831504367e+03 2.2831504367e+03 0.0000000000e+00 0.0000e+00 -1.0000e+00
       -2 -1    0    0    0  501 -0.0000000000e+00 -0.0000000000e+00 -4.9625290814e+02 4.9625290814e+02 0.0000000000e+00 0.0000e+00 1.0000e+00
      -13  1    1    2    0    0 +1.5983885927e+02 +1.0128501662e+03 +5.2048713038e+02 1.1499220726e+03 0.0000000000e+00 0.0000e+00 1.0000e+00
       13  1    1    2    0    0 -1.5983885927e+02 -1.0128501662e+03 +1.2664103981e+03 1.6294812722e+03 0.0000000000e+00 0.0000e+00 -1.0000e+00
<mgrwt>
<rscale>  0 0.21288683E+04</rscale>
<asrwt>0</asrwt>
<pdfrwt beam="1">  1        2 0.35125391E+00 0.21288683E+04</pdfrwt>
<pdfrwt beam="2">  1       -2 0.76346603E-01 0.21288683E+04</pdfrwt>
<totfact> 0.83410515E+00</totfact>
</mgrwt>
<rwgt>
<wgt id='morphing_basis_vector_1'> +1.7656857e-04 </wgt>
<wgt id='morphing_basis_vector_2'> +1.2301726e-04 </wgt>
<wgt id='morphing_basis_vector_3'> +1.9018494e-04 </wgt>
<wgt id='morphing_basis_vector_4'> +1.2647917e-04 </wgt>
<wgt id='morphing_basis_vector_5'> +2.0840275e-04 </wgt>
</rwgt>
</event>
<event>
 4      1 +6.0853000e-08 1.88986900e+03 7.81860800e-03 8.11833400e-02
        2 -1    0    0  501    0 +0.0000000000e+00 +0.0000000000e+00 +1.2046099765e+03 1.2046099765e+03 0.0000000000e+00 0.0000e+00 -1.0000e+00
       -2 -1    0    0    0  501 -0.0000000000e+00 -0.0000000000e+00 -7.4123682295e+02 7.4123682295e+02 0.0000000000e+00 0.0000e+00 1.0000e+00
      -13  1    1    2    0    0 +1.9388060504e+02 -8.5904902267e+02 -1.2101852228e+02 8.8893216563e+02 0.0000000000e+00 0.0000e+00 1.0000e+00
       13  1    1    2    0    0 -1.9388060504e+02 +8.5904902267e+02 +5.8439167580e+02 1.0569146338e+03 0.0000000000e+00 0.0000e+00 -1.0000e+00
<mgrwt>
<rscale>  0 0.18898691E+04</rscale>
<asrwt>0</asrwt>
<pdfrwt beam="1">  1        2 0.18532461E+00 0.18898691E+04</pdfrwt>
<pdfrwt beam="2">  1       -2 0.11403643E+00 0.18898691E+04</pdfrwt>
<totfact> 0.13354076E+01</totfact>
</mgrwt>
<rwgt>
<wgt id='morphing_basis_vector_1'> +1.1023777e-04 </wgt>
<wgt id='morphing_basis_vector_2'> +7.5325904e-05 </wgt>
<wgt id='morphing_basis_vector_3'> +1.1748109e-04 </wgt>
<wgt id='morphing_basis_vector_4'> +7.8770526e-05 </wgt>
<wgt id='morphing_basis_vector_5'> +1.2827502e-04 </wgt>
</rwgt>
</event>
<event>
 4      1 +6.0853000e-08 1.86717500e+03 7.81860800e-03 8.12838600e-02
        2 -1    0    0  501    0 +0.0000000000e+00 +0.0000000000e+00 +1.5919625903e+03 1.5919625903e+03 0.0000000000e+00 0.0000e+00 1.0000e+00
       -2 -1    0    0    0  501 -0.0000000000e+00 -0.0000000000e+00 -5.4749134227e+02 5.4749134227e+02 0.0000000000e+00 0.0000e+00 -1.0000e+00
      -13  1    1    2    0    0 -1.1664852190e+01 -9.3195141336e+02 +5.8411255344e+02 1.0999349893e+03 0.0000000000e+00 0.0000e+00 -1.0000e+00
       13  1    1    2    0    0 +1.1664852190e+01 +9.3195141336e+02 +4.6035869456e+02 1.0395189432e+03 0.0000000000e+00 0.0000e+00 1.0000e+00
<mgrwt>
<rscale>  0 0.18671751E+04</rscale>
<asrwt>0</asrwt>
<pdfrwt beam="1">  1        2 0.24491732E+00 0.18671751E+04</pdfrwt>
<pdfrwt beam="2">  1       -2 0.84229438E-01 0.18671751E+04</pdfrwt>
<totfact> 0.16723575E+01</totfact>
</mgrwt>
<rwgt>
<wgt id='morphing_basis_vector_1'> +1.0892980e-04 </wgt>
<wgt id='morphing_basis_vector_2'> +8.3004834e-05 </wgt>
<wgt id='morphing_basis_vector_3'> +1.1733715e-04 </wgt>
<wgt id='morphing_basis_vector_4'> +6.7550818e-05 </wgt>
<wgt id='morphing_basis_vector_5'> +1.2150949e-04 </wgt>
</rwgt>
</event>
<event>
 4      1 +6.0853000e-08 2.05230200e+03 7.81860800e-03 8.05042900e-02
        2 -1    0    0  501    0 +0.0000000000e+00 +0.0000000000e+00 +1.0203172565e+03 1.0203172565e+03 0.0000000000e+00 0.0000e+00 1.0000e+00
       -2 -1    0    0    0  501 -0.0000000000e+00 -0.0000000000e+00 -1.0320179879e+03 1.0320179879e+03 0.0000000000e+00 0.0000e+00 -1.0000e+00
      -13  1    1    2    0    0 -1.2127353927e+02 -9.5040093344e+02 +3.6160159737e+02 1.0240727127e+03 0.0000000000e+00 0.0000e+00 -1.0000e+00
       13  1    1    2    0    0 +1.2127353927e+02 +9.5040093344e+02 -3.7330232876e+02 1.0282625318e+03 0.0000000000e+00 0.0000e+00 1.0000e+00
<mgrwt>
<rscale>  0 0.20523019E+04</rscale>
<asrwt>0</asrwt>
<pdfrwt beam="1">  1        2 0.15697189E+00 0.20523019E+04</pdfrwt>
<pdfrwt beam="2">  1       -2 0.15877200E+00 0.20523019E+04</pdfrwt>
<totfact> 0.68849647E+00</totfact>
</mgrwt>
<rwgt>
<wgt id='morphing_basis_vector_1'> +1.6934659e-04 </wgt>
<wgt id='morphing_basis_vector_2'> +1.5500054e-04 </wgt>
<wgt id='morphing_basis_vector_3'> +1.8835893e-04 </wgt>
<wgt id='morphing_basis_vector_4'> +7.6136458e-05 </wgt>
<wgt id='morphing_basis_vector_5'> +1.7691683e-04 </wgt>
</rwgt>
</event>
<event>
 4      1 +6.0853000e-08 2.07355800e+03 7.81860800e-03 8.04202700e-02
        2 -1    0    0  501    0 +0.0000000000e+00 +0.0000000000e+00 +1.8160579295e+03 1.8160579295e+03 0.0000000000e+00 0.0000e+00 -1.0000e+00
       -2 -1    0    0    0  501 -0.0000000000e+00 -0.0000000000e+00 -5.9189232612e+02 5.9189232612e+02 0.0000000000e+00 0.0000e+00 1.0000e+00
      -13  1    1    2    0    0 +5.5036390242e+02 +2.4653187379e+02 -3.6726525620e+02 7.0608934158e+02 0.0000000000e+00 0.0000e+00 1.0000e+00
       13  1    1    2    0    0 -5.5036390242e+02 -2.4653187379e+02 +1.5914308596e+03 1.7018609140e+03 0.0000000000e+00 0.0000e+00 -1.0000e+00
<mgrwt>
<rscale>  0 0.20735581E+04</rscale>
<asrwt>0</asrwt>
<pdfrwt beam="1">  1        2 0.27939353E+00 0.20735581E+04</pdfrwt>
<pdfrwt beam="2">  1       -2 0.91060359E-01 0.20735581E+04</pdfrwt>
<totfact> 0.10284538E+01</totfact>
</mgrwt>
<rwgt>
<wgt id='morphing_basis_vector_1'> +1.5724694e-04 </wgt>
<wgt id='morphing_basis_vector_2'> +1.0495718e-04 </wgt>
<wgt id='morphing_basis_vector_3'> +1.6827912e-04 </wgt>
<wgt id='morphing_basis_vector_4'> +1.1759337e-04 </wgt>
<wgt id='morphing_basis_vector_5'> +1.8753016e-04 </wgt>
</rwgt>
</event>
<event>
 4      1 +6.0853000e-08 2.10847900e+03 7.81860800e-03 8.02845000e-02
        2 -1    0    0  501    0 +0.0000000000e+00 +0.0000000000e+00 +1.1776043589e+03 1.1776043589e+03 0.0000000000e+00 0.0000e+00 1.0000e+00
       -2 -1    0    0    0  501 -0.0000000000e+00 -0.0000000000e+00 -9.4379809807e+02 9.4379809807e+02 0.0000000000e+00 0.0000e+00 -1.0000e+00
      -13  1    1    2    0    0 -9.4277890337e+01 +9.5724092714e+02 -3.1727665033e+02 1.0128489453e+03 0.0000000000e+00 0.0000e+00 -1.0000e+00
       13  1    1    2    0    0 +9.4277890337e+01 -9.5724092714e+02 +5.5108291118e+02 1.1085535117e+03 0.0000000000e+00 0.0000e+00 1.0000e+00
<mgrwt>
<rscale>  0 0.21084788E+04</rscale>
<asrwt>0</asrwt>
<pdfrwt beam="1">  1        2 0.18116990E+00 0.21084788E+04</pdfrwt>
<pdfrwt beam="2">  1       -2 0.14519971E+00 0.21084788E+04</pdfrwt>
<totfact> 0.71258330E+00</totfact>
</mgrwt>
<rwgt>
<wgt id='morphing_basis_vector_1'> +1.6900512e-04 </wgt>
<wgt id='morphing_basis_vector_2'> +1.1541133e-04 </wgt>
<wgt id='morphing_basis_vector_3'> +1.8151288e-04 </wgt>
<wgt id='morphing_basis_vector_4'> +1.2365521e-04 </wgt>
<wgt id='morphing_basis_vector_5'> +2.0055653e-04 </wgt>
</rwgt>
</event>
<event>
 4      1 +6.0853000e-08 2.01052400e+03 7.81860800e-03 8.06725300e-02
        2 -1    0    0  501    0 +0.0000000000e+00 +0.0000000000e+00 +2.5248409575e+03 2.5248409575e+03 0.0000000000e+00 0.0000e+00 -1.0000e+00
       -2 -1    0    0    0  501 -0.0000000000e+00 -0.0000000000e+00 -4.0024358712e+02 4.0024358712e+02 0.0000000000e+00 0.0000e+00 1.0000e+00
      -13  1    1    2    0    0 -8.1935951577e+02 -1.3080290038e+01 +2.1517178130e+02 8.4724258954e+02 0.0000000000e+00 0.0000e+00 1.0000e+00
       13  1    1    2    0    0 +8.1935951577e+02 +1.3080290038e+01 +1.9094255891e+03 2.0778419551e+03 0.0000000000e+00 0.0000e+00 -1.0000e+00
<mgrwt>
<rscale>  0 0.20105237E+04</rscale>
<asrwt>0</asrwt>
<pdfrwt beam="1">  1        2 0.38843706E+00 0.20105237E+04</pdfrwt>
<pdfrwt beam="2">  1       -2 0.61575938E-01 0.20105237E+04</pdfrwt>
<totfact> 0.96164127E+00</totfact>
</mgrwt>
<rwgt>
<wgt id='morphing_basis_vector_1'> +1.3965224e-04 </wgt>
<wgt id='morphing_basis_vector_2'> +9.3860276e-05 </wgt>
<wgt id='morphing_basis_vector_3'> +1.4925415e-04 </wgt>
<wgt id='morphing_basis_vector_4'> +1.0301984e-04 </wgt>
<wgt id='morphing_basis_vector_5'> +1.6529772e-04 </wgt>
</rwgt>
</event>
<event>
 4      1 +6.0853000e-08 2.13861400e+03 7.81860800e-03 8.01695000e-02
        2 -1    0    0  501    0 +0.0000000000e+00 +0.0000000000e+00 +1.7031261213e+03 1.7031261213e+03 0.0000000000e+00 0.0000e+00 1.0000e+00
       -2 -1    0    0    0  501 -0.0000000000e+00 -0.0000000000e+00 -6.7136389050e+02 6.7136389050e+02 0.0000000000e+00 0.0000e+00 -1.0000e+00
      -13  1    1    2    0    0 +8.1170530061e+02 -6.7661793450e+02 +3.3432156409e+02 1.1083538391e+03 0.0000000000e+00 0.0000e+00 -1.0000e+00
       13  1    1    2    0    0 -8.1170530061e+02 +6.7661793450e+02 +6.9744066670e+02 1.2661361727e+03 0.0000000000e+00 0.0000e+00 1.0000e+00
<mgrwt>
<rscale>  0 0.21386139E+04</rscale>
<asrwt>0</asrwt>
<pdfrwt beam="1">  1        2 0.26201940E+00 0.21386139E+04</pdfrwt>
<pdfrwt beam="2">  1       -2 0.10328675E+00 0.21386139E+04</pdfrwt>
<totfact> 0.87513161E+00</totfact>
</mgrwt>
<rwgt>
<wgt id='morphing_basis_vector_1'> +1.8112537e-04 </wgt>
<wgt id='morphing_basis_vector_2'> +1.2928783e-04 </wgt>
<wgt id='morphing_basis_vector_3'> +1.9570146e-04 </wgt>
<wgt id='morphing_basis_vector_4'> +1.2611788e-04 </wgt>
<wgt id='morphing_basis_vector_5'> +2.1209574e-04 </wgt>
</rwgt>
</event>
<event>
 4      1 +6.0853000e-08 2.20477800e+03 7.81860800e-03 7.99237500e-02
        2 -1    0    0  501    0 +0.0000000000e+00 +0.0000000000e+00 +2.1065518901e+03 2.1065518901e+03 0.0000000000e+00 0.0000e+00 1.0000e+00
       -2 -1    0    0    0  501 -0.0000000000e+00 -0.0000000000e+00 -5.7689621864e+02 5.7689621864e+02 0.0000000000e+00 0.0000e+00 -1.0000e+00
      -13  1    1    2    0    0 -8.1150979012e+02 +3.9887418026e+02 +1.5322928806e+03 1.7792049412e+03 0.0000000000e+00 0.0000e+00 1.0000e+00
       13  1    1    2    0    0 +8.1150979012e+02 -3.9887418026e+02 -2.6372090695e+00 9.0424316752e+02 0.0000000000e+00 0.0000e+00 -1.0000e+00
<mgrwt>
<rscale>  0 0.22047783E+04</rscale>
<asrwt>0</asrwt>
<pdfrwt beam="1">  1        2 0.32408490E+00 0.22047783E+04</pdfrwt>
<pdfrwt beam="2">  1       -2 0.88753266E-01 0.22047783E+04</pdfrwt>
<totfact> 0.74153566E+00</totfact>
</mgrwt>
<rwgt>
<wgt id='morphing_basis_vector_1'> +2.4423437e-04 </wgt>
<wgt id='morphing_basis_vector_2'> +2.6431330e-04 </wgt>
<wgt id='morphing_basis_vector_3'> +2.8075875e-04 </wgt>
<wgt id='morphing_basis_vector_4'> +6.1876379e-05 </wgt>
<wgt id='morphing_basis_vector_5'> +2.3361528e-04 </wgt>
</rwgt>
</event>
<event>
 4      1 +6.0853000e-08 1.87734100e+03 7.81860800e-03 8.12386500e-02
        2 -1    0    0  501    0 +0.0000000000e+00 +0.0000000000e+00 +3.1554719166e+03 3.1554719166e+03 0.0000000000e+00 0.0000e+00 -1.0000e+00
       -2 -1    0    0    0  501 -0.0000000000e+00 -0.0000000000e+00 -2.7922984445e+02 2.7922984445e+02 0.0000000000e+00 0.0000e+00 1.0000e+00
      -13  1    1    2    0    0 -8.8358220739e+01 -8.8934403991e+02 +9.1306067439e+02 1.2776618456e+03 0.0000000000e+00 0.0000e+00 1.0000e+00
       13  1    1    2    0    0 +8.8358220739e+01 +8.8934403991e+02 +1.9631813977e+03 2.1570399155e+03 0.0000000000e+00 0.0000e+00 -1.0000e+00
<mgrwt>
<rscale>  0 0.18773406E+04</rscale>
<asrwt>0</asrwt>
<pdfrwt beam="1">  1        2 0.48545719E+00 0.18773406E+04</pdfrwt>
<pdfrwt beam="2">  1       -2 0.42958440E-01 0.18773406E+04</pdfrwt>
<totfact> 0.79437852E+00</totfact>
</mgrwt>
<rwgt>
<wgt id='morphing_basis_vector_1'> +1.0766916e-04 </wgt>
<wgt id='morphing_basis_vector_2'> +7.4141396e-05 </wgt>
<wgt id='morphing_basis_vector_3'> +1.1477368e-04 </wgt>
<wgt id='morphing_basis_vector_4'> +7.6144540e-05 </wgt>
<wgt id='morphing_basis_vector_5'> +1.2479160e-04 </wgt>
</rwgt>
</event>
<event>
 4      1 +6.0853000e-08 1.90152500e+03 7.81860800e-03 8.11322800e-02
        2 -1    0    0  501    0 +0.0000000000e+00 +0.0000000000e+00 +1.0209330741e+03 1.0209330741e+03 0.0000000000e+00 0.0000e+00 -1.0000e+00
       -2 -1    0    0    0  501 -0.0000000000e+00 -0.0000000000e+00 -8.8541460565e+02 8.8541460565e+02 0.0000000000e+00 0.0000e+00 1.0000e+00
      -13  1    1    2    0    0 +7.0067515243e+02 -6.4150406522e+02 +1.0627438383e+02 9.5591180534e+02 0.0000000000e+00 0.0000e+00 1.0000e+00
       13  1    1    2    0    0 -7.0067515243e+02 +6.4150406522e+02 +2.9244084649e+01 9.5043587444e+02 0.0000000000e+00 0.0000e+00 -1.0000e+00
<mgrwt>
<rscale>  0 0.19015247E+04</rscale>
<asrwt>0</asrwt>
<pdfrwt beam="1">  1        2 0.15706663E+00 0.19015247E+04</pdfrwt>
<pdfrwt beam="2">  1       -2 0.13621763E+00 0.19015247E+04</pdfrwt>
<totfact> 0.10757305E+01</totfact>
</mgrwt>
<rwgt>
<wgt id='morphing_basis_vector_1'> +1.1667653e-04 </wgt>
<wgt id='morphing_basis_vector_2'> +8.8314369e-05 </wgt>
<wgt id='morphing_basis_vector_3'> +1.2579365e-04 </wgt>
<wgt id='morphing_basis_vector_4'> +7.3365931e-05 </wgt>
<wgt id='morphing_basis_vector_5'> +1.3096158e-04 </wgt>
</rwgt>
</event>
<event>
 4      1 +6.0853000e-08 2.11851500e+03 7.81860800e-03 8.02459800e-02
        2 -1    0    0  501    0 +0.0000000000e+00 +0.0000000000e+00 +1.2565855440e+03 1.2565855440e+03 0.0000000000e+00 0.0000e+00 -1.0000e+00
       -2 -1    0    0    0  501 -0.0000000000e+00 -0.0000000000e+00 -8.9291693125e+02 8.9291693125e+02 0.0000000000e+00 0.0000e+00 1.0000e+00
      -13  1    1    2    0    0 +3.7349211608e+02 -5.3139949201e+02 -6.6715125921e+02 9.3111362547e+02 0.0000000000e+00 0.0000e+00 1.0000e+00
       13  1    1    2    0    0 -3.7349211608e+02 +5.3139949201e+02 +1.0308198720e+03 1.2183888498e+03 0.0000000000e+00 0.0000e+00 -1.0000e+00
<mgrwt>
<rscale>  0 0.21185151E+04</rscale>
<asrwt>0</asrwt>
<pdfrwt beam="1">  1        2 0.19332085E+00 0.21185151E+04</pdfrwt>
<pdfrwt beam="2">  1       -2 0.13737184E+00 0.21185151E+04</pdfrwt>
<totfact> 0.74699187E+00</totfact>
</mgrwt>
<rwgt>
<wgt id='morphing_basis_vector_1'> +1.7108548e-04 </wgt>
<wgt id='morphing_basis_vector_2'> +1.1434941e-04 </wgt>
<wgt id='morphing_basis_vector_3'> +1.8336336e-04 </wgt>
<wgt id='morphing_basis_vector_4'> +1.2827885e-04 </wgt>
<wgt id='morphing_basis_vector_5'> +2.0464813e-04 </wgt>
</rwgt>
</event>
<event>
 4      1 +6.0853000e-08 1.92804800e+03 7.81860800e-03 8.10175100e-02
        2 -1    0    0  501    0 +0.0000000000e+00 +0.0000000000e+00 +1.4227720703e+03 1.4227720703e+03 0.0000000000e+00 0.0000e+00 1.0000e+00
       -2 -1    0    0    0  501 -0.0000000000e+00 -0.0000000000e+00 -6.5319092927e+02 6.5319092927e+02 0.0000000000e+00 0.0000e+00 -1.0000e+00
      -13  1    1    2    0    0 -4.3353679980e+02 -2.1191074044e+02 -5.1378925742e+02 7.0486858331e+02 0.0000000000e+00 0.0000e+00 -1.0000e+00
       13  1    1    2    0    0 +4.3353679980e+02 +2.1191074044e+02 +1.2833703984e+03 1.3710944163e+03 0.0000000000e+00 0.0000e+00 1.0000e+00
<mgrwt>
<rscale>  0 0.19280475E+04</rscale>
<asrwt>0</asrwt>
<pdfrwt beam="1">  1        2 0.21888801E+00 0.19280475E+04</pdfrwt>
<pdfrwt beam="2">  1       -2 0.10049091E+00 0.19280475E+04</pdfrwt>
<totfact> 0.13665530E+01</totfact>
</mgrwt>
<rwgt>
<wgt id='morphing_basis_vector_1'> +1.1820870e-04 </wgt>
<wgt id='morphing_basis_vector_2'> +7.8573190e-05 </wgt>
<wgt id='morphing_basis_vector_3'> +1.2581221e-04 </wgt>
<wgt id='morphing_basis_vector_4'> +8.7453309e-05 </wgt>
<wgt id='morphing_basis_vector_5'> +1.3936006e-04 </wgt>
</rwgt>
</event>
<event>
 4      1 +6.0853000e-08 1.91958600e+03 7.81860800e-03 8.10539100e-02
        2 -1    0    0  501    0 +0.0000000000e+00 +0.0000000000e+00 +2.4262578237e+03 2.4262578237e+03 0.0000000000e+00 0.0000e+00 -1.0000e+00
       -2 -1    0    0    0  501 -0.0000000000e+00 -0.0000000000e+00 -3.7968045857e+02 3.7968045857e+02 0.0000000000e+00 0.0000e+00 1.0000e+00
      -13  1    1    2    0    0 -5.9682125516e+02 -2.5357911173e+02 -1.1046645534e+01 6.4855223760e+02 0.0000000000e+00 0.0000e+00 1.0000e+00
       13  1    1    2    0    0 +5.9682125516e+02 +2.5357911173e+02 +2.0576240107e+03 2.1573860447e+03 0.0000000000e+00 0.0000e+00 -1.0000e+00
<mgrwt>
<rscale>  0 0.19195861E+04</rscale>
<asrwt>0</asrwt>
<pdfrwt beam="1">  1        2 0.37327042E+00 0.19195861E+04</pdfrwt>
<pdfrwt beam="2">  1       -2 0.58412380E-01 0.19195861E+04</pdfrwt>
<totfact> 0.12361237E+01</totfact>
</mgrwt>
<rwgt>
<wgt id='morphing_basis_vector_1'> +1.1627487e-04 </wgt>
<wgt id='morphing_basis_vector_2'> +7.7461704e-05 </wgt>
<wgt id='morphing_basis_vector_3'> +1.2374185e-04 </wgt>
<wgt id='morphing_basis_vector_4'> +8.5732164e-05 </wgt>
<wgt id='morphing_basis_vector_5'> +1.3686430e-04 </wgt>
</rwgt>
</event>
<event>
 4      1 +6.0853000e-08 2.06156000e+03 7.81860800e-03 8.04675600e-02
        2 -1    0    0  501    0 +0.0000000000e+00 +0.0000000000e+00 +5.1517777318e+02 5.1517777318e+02 0.0000000000e+00 0.0000e+00 -1.0000e+00
       -2 -1    0    0    0  501 -0.0000000000e+00 -0.0000000000e+00 -2.0624098584e+03 2.0624098584e+03 0.0000000000e+00 0.0000e+00 1.0000e+00
      -13  1    1    2    0    0 -4.0783806193e+02 -2.6261858309e+02 -1.9107839098e+03 1.9713943175e+03 0.0000000000e+00 0.0000e+00 1.0000e+00
       13  1    1    2    0    0 +4.0783806193e+02 +2.6261858309e+02 +3.6355182457e+02 6.0619331413e+02 0.0000000000e+00 0.0000e+00 -1.0000e+00
<mgrwt>
<rscale>  0 0.20615603E+04</rscale>
<asrwt>0</asrwt>
<pdfrwt beam="1">  1        2 0.79258119E-01 0.20615603E+04</pdfrwt>
<pdfrwt beam="2">  1       -2 0.31729382E+00 0.20615603E+04</pdfrwt>
<totfact> 0.12159061E+00</totfact>
</mgrwt>
<rwgt>
<wgt id='morphing_basis_vector_1'> +1.5366494e-04 </wgt>
<wgt id='morphing_basis_vector_2'> +1.0244487e-04 </wgt>
<wgt id='morphing_basis_vector_3'> +1.6436304e-04 </wgt>
<wgt id='morphing_basis_vector_4'> +1.1492984e-04 </wgt>
<wgt id='morphing_basis_vector_5'> +1.8315393e-04 </wgt>
</rwgt>
</event>
<event>
 4      1 +6.0853000e-08 2.11954100e+03 7.81860800e-03 8.02420500e-02
        2 -1    0    0  501    0 +0.0000000000e+00 +0.0000000000e+00 +1.6716109472e+03 1.6716109472e+03 0.0000000000e+00 0.0000e+00 1.0000e+00
       -2 -1    0    0    0  501 -0.0000000000e+00 -0.0000000000e+00 -6.7187507895e+02 6.7187507895e+02 0.0000000000e+00 0.0000e+00 -1.0000e+00
      -13  1    1    2    0    0 +1.0127939082e+03 -1.5153047292e+02 +1.9828333037e+02 1.0430864125e+03 0.0000000000e+00 0.0000e+00 -1.0000e+00
       13  1    1    2    0    0 -1.0127939082e+03 +1.5153047292e+02 +8.0145253793e+02 1.3003996137e+03 0.0000000000e+00 0.0000e+00 1.0000e+00
<mgrwt>
<rscale>  0 0.21195412E+04</rscale>
<asrwt>0</asrwt>
<pdfrwt beam="1">  1        2 0.25717091E+00 0.21195412E+04</pdfrwt>
<pdfrwt beam="2">  1       -2 0.10336540E+00 0.21195412E+04</pdfrwt>
<totfact> 0.91100718E+00</totfact>
</mgrwt>
<rwgt>
<wgt id='morphing_basis_vector_1'> +1.7365311e-04 </wgt>
<wgt id='morphing_basis_vector_2'> +1.2120048e-04 </wgt>
<wgt id='morphing_basis_vector_3'> +1.8702975e-04 </wgt>
<wgt id='morphing_basis_vector_4'> +1.2403092e-04 </wgt>
<wgt id='morphing_basis_vector_5'> +2.0469393e-04 </wgt>
</rwgt>
</event>
<event>
 4      1 +6.0853000e-08 2.11414000e+03 7.81860800e-03 8.02627400e-02
        2 -1    0    0  501    0 +0.0000000000e+00 +0.0000000000e+00 +1.5042565568e+03 1.5042565568e+03 0.0000000000e+00 0.0000e+00 1.0000e+00
       -2 -1    0    0    0  501 -0.0000000000e+00 -0.0000000000e+00 -7.4282334012e+02 7.4282334012e+02 0.0000000000e+00 0.0000e+00 -1.0000e+00
      -13  1    1    2    0    0 -2.8885914701e+02 +5.9810184310e+02 -4.9332574311e+02 8.2736673268e+02 0.0000000000e+00 0.0000e+00 -1.0000e+00
       13  1    1    2    0    0 +2.8885914701e+02 -5.9810184310e+02 +1.2547589598e+03 1.4197131642e+03 0.0000000000e+00 0.0000e+00 1.0000e+00
<mgrwt>
<rscale>  0 0.21141399E+04</rscale>
<asrwt>0</asrwt>
<pdfrwt beam="1">  1        2 0.23142408E+00 0.21141399E+04</pdfrwt>
<pdfrwt beam="2">  1       -2 0.11428051E+00 0.21141399E+04</pdfrwt>
<totfact> 0.87955093E+00</totfact>
</mgrwt>
<rwgt>
<wgt id='morphing_basis_vector_1'> +1.6971446e-04 </wgt>
<wgt id='morphing_basis_vector_2'> +1.1345193e-04 </wgt>
<wgt id='morphing_basis_vector_3'> +1.8187405e-04 </wgt>
<wgt id='morphing_basis_vector_4'> +1.2717897e-04 </wgt>
<wgt id='morphing_basis_vector_5'> +2.0293066e-04 </wgt>
</rwgt>
</event>
<event>
 4      1 +6.0853000e-08 1.86809300e+03 7.81860800e-03 8.12797700e-02
        2 -1    0    0  501    0 +0.0000000000e+00 +0.0000000000e+00 +2.4940941007e+03 2.4940941007e+03 0.0000000000e+00 0.0000e+00 1.0000e+00
       -2 -1    0    0    0  501 -0.0000000000e+00 -0.0000000000e+00 -3.4980358225e+02 3.4980358225e+02 0.0000000000e+00 0.0000e+00 -1.0000e+00
      -13  1    1    2    0    0 +6.6425655072e+02 -2.6488394123e+02 +1.5741138483e+02 7.3224218095e+02 0.0000000000e+00 0.0000e+00 -1.0000e+00
       13  1    1    2    0    0 -6.6425655072e+02 +2.6488394123e+02 +1.9868791336e+03 2.1116555020e+03 0.0000000000e+00 0.0000e+00 1.0000e+00
<mgrwt>
<rscale>  0 0.18680932E+04</rscale>
<asrwt>0</asrwt>
<pdfrwt beam="1">  1        2 0.38370677E+00 0.18680932E+04</pdfrwt>
<pdfrwt beam="2">  1       -2 0.53815937E-01 0.18680932E+04</pdfrwt>
<totfact> 0.13361658E+01</totfact>
</mgrwt>
<rwgt>
<wgt id='morphing_basis_vector_1'> +1.0464879e-04 </wgt>
<wgt id='morphing_basis_vector_2'> +6.9853118e-05 </wgt>
<wgt id='morphing_basis_vector_3'> +1.1115754e-04 </wgt>
<wgt id='morphing_basis_vector_4'> +7.6514761e-05 </wgt>
<wgt id='morphing_basis_vector_5'> +1.2244301e-04 </wgt>
</rwgt>
</event>
<event>
 4      1 +6.0853000e-08 1.92920900e+03 7.81860800e-03 8.10125200e-02
        2 -1    0    0  501    0 +0.0000000000e+00 +0.0000000000e+00 +2.6647711202e+03 2.6647711202e+03 0.0000000000e+00 0.0000e+00 -1.0000e+00
       -2 -1    0    0    0  501 -0.0000000000e+00 -0.0000000000e+00 -3.4917123929e+02 3.4917123929e+02 0.0000000000e+00 0.0000e+00 1.0000e+00
      -13  1    1    2    0    0 -2.4010256074e+02 -3.9888435510e+02 -1.6201992513e+02 4.9295884671e+02 0.0000000000e+00 0.0000e+00 1.0000e+00
       13  1    1    2    0    0 +2.4010256074e+02 +3.9888435510e+02 +2.4776198061e+03 2.5209835128e+03 0.0000000000e+00 0.0000e+00 -1.0000e+00
<mgrwt>
<rscale>  0 0.19292086E+04</rscale>
<asrwt>0</asrwt>
<pdfrwt beam="1">  1        2 0.40996477E+00 0.19292086E+04</pdfrwt>
<pdfrwt beam="2">  1       -2 0.53718654E-01 0.19292086E+04</pdfrwt>
<totfact> 0.10523844E+01</totfact>
</mgrwt>
<rwgt>
<wgt id='morphing_basis_vector_1'> +1.1848368e-04 </wgt>
<wgt id='morphing_basis_vector_2'> +7.8749529e-05 </wgt>
<wgt id='morphing_basis_vector_3'> +1.2610945e-04 </wgt>
<wgt id='morphing_basis_vector_4'> +8.7676159e-05 </wgt>
<wgt id='morphing_basis_vector_5'> +1.3970395e-04 </wgt>
</rwgt>
</event>
<event>
 4      1 +6.0853000e-08 2.21389000e+03 7.81860800e-03 7.98906100e-02
        2 -1    0    0  501    0 +0.0000000000e+00 +0.0000000000e+00 +5.9084807354e+02 5.9084807354e+02 0.0000000000e+00 0.0000e+00 -1.0000e+00
       -2 -1    0    0    0  501 -0.0000000000e+00 -0.0000000000e+00 -2.0738448848e+03 2.0738448848e+03 0.0000000000e+00 0.0000e+00 1.0000e+00
      -13  1    1    2    0    0 +5.7377251883e+02 -8.2713618586e+02 -1.2956340949e+03 1.6407427834e+03 0.0000000000e+00 0.0000e+00 1.0000e+00
       13  1    1    2    0    0 -5.7377251883e+02 +8.2713618586e+02 -1.8736271636e+02 1.0239501750e+03 0.0000000000e+00 0.0000e+00 -1.0000e+00
<mgrwt>
<rscale>  0 0.22138900E+04</rscale>
<asrwt>0</asrwt>
<pdfrwt beam="1">  1        2 0.90899705E-01 0.22138900E+04</pdfrwt>
<pdfrwt beam="2">  1       -2 0.31905305E+00 0.22138900E+04</pdfrwt>
<totfact> 0.99655435E-01</totfact>
</mgrwt>
<rwgt>
<wgt id='morphing_basis_vector_1'> +2.0468454e-04 </wgt>
<wgt id='morphing_basis_vector_2'> +1.3994458e-04 </wgt>
<wgt id='morphing_basis_vector_3'> +2.2051645e-04 </wgt>
<wgt id='morphing_basis_vector_4'> +1.5087621e-04 </wgt>
<wgt id='morphing_basis_vector_5'> +2.4459863e-04 </wgt>
</rwgt>
</event>
<event>
 4      1 +6.0853000e-08 1.88022500e+03 7.81860800e-03 8.12258700e-02
        2 -1    0    0  501    0 +0.0000000000e+00 +0.0000000000e+00 +1.2440009534e+03 1.2440009534e+03 0.0000000000e+00 0.0000e+00 1.0000e+00
       -2 -1    0    0    0  501 -0.0000000000e+00 -0.0000000000e+00 -7.1045915050e+02 7.1045915050e+02 0.0000000000e+00 0.0000e+00 -1.0000e+00
      -13  1    1    2    0    0 +5.6292447353e+02 +7.5159467123e+02 +3.1364390048e+02 9.9002576181e+02 0.0000000000e+00 0.0000e+00 -1.0000e+00
       13  1    1    2    0    0 -5.6292447353e+02 -7.5159467123e+02 +2.1989790243e+02 9.6443434210e+02 0.0000000000e+00 0.0000e+00 1.0000e+00
<mgrwt>
<rscale>  0 0.18802254E+04</rscale>
<asrwt>0</asrwt>
<pdfrwt beam="1">  1        2 0.19138476E+00 0.18802254E+04</pdfrwt>
<pdfrwt beam="2">  1       -2 0.10930141E+00 0.18802254E+04</pdfrwt>
<totfact> 0.14109440E+01</totfact>
</mgrwt>
<rwgt>
<wgt id='morphing_basis_vector_1'> +1.1177129e-04 </wgt>
<wgt id='morphing_basis_vector_2'> +8.4832115e-05 </wgt>
<wgt id='morphing_basis_vector_3'> +1.2042077e-04 </wgt>
<wgt id='morphing_basis_vector_4'> +6.9825377e-05 </wgt>
<wgt id='morphing_basis_vector_5'> +1.2504690e-04 </wgt>
</rwgt>
</event>
<event>
 4      1 +6.0853000e-08 1.91864400e+03 7.81860800e-03 8.10579800e-02
        2 -1    0    0  501    0 +0.0000000000e+00 +0.0000000000e+00 +3.0989940174e+03 3.0989940174e+03 0.0000000000e+00 0.0000e+00 -1.0000e+00
       -2 -1    0    0    0  501 -0.0000000000e+00 -0.0000000000e+00 -2.9696697340e+02 2.9696697340e+02 0.0000000000e+00 0.0000e+00 1.0000e+00
      -13  1    1    2    0    0 +7.1580754357e+01 -5.7715217309e+02 +5.0633439546e+01 5.8377408344e+02 0.0000000000e+00 0.0000e+00 1.0000e+00
       13  1    1    2    0    0 -7.1580754357e+01 +5.7715217309e+02 +2.7513936045e+03 2.8121869074e+03 0.0000000000e+00 0.0000e+00 -1.0000e+00
<mgrwt>
<rscale>  0 0.19186442E+04</rscale>
<asrwt>0</asrwt>
<pdfrwt beam="1">  1        2 0.47676829E+00 0.19186442E+04</pdfrwt>
<pdfrwt beam="2">  1       -2 0.45687229E-01 0.19186442E+04</pdfrwt>
<totfact> 0.76694719E+00</totfact>
</mgrwt>
<rwgt>
<wgt id='morphing_basis_vector_1'> +1.1600557e-04 </wgt>
<wgt id='morphing_basis_vector_2'> +7.7174195e-05 </wgt>
<wgt id='morphing_basis_vector_3'> +1.2343306e-04 </wgt>
<wgt id='morphing_basis_vector_4'> +8.5651807e-05 </wgt>
<wgt id='morphing_basis_vector_5'> +1.3659715e-04 </wgt>
</rwgt>
</event>
<event>
 4      1 +6.0853000e-08 1.88262400e+03 7.81860800e-03 8.12152700e-02
        2 -1    0    0  501    0 +0.0000000000e+00 +0.0000000000e+00 +2.7821570290e+03 2.7821570290e+03 0.0000000000e+00 0.0000e+00 1.0000e+00
       -2 -1    0    0    0  501 -0.0000000000e+00 -0.0000000000e+00 -3.1848243048e+02 3.1848243048e+02 0.0000000000e+00 0.0000e+00 -1.0000e+00
      -13  1    1    2    0    0 -4.4105304667e+02 -2.6727908035e+02 +2.5287757433e+03 2.5808279015e+03 0.0000000000e+00 0.0000e+00 1.0000e+00
       13  1    1    2    0    0 +4.4105304667e+02 +2.6727908035e+02 -6.5101144846e+01 5.1981155800e+02 0.0000000000e+00 0.0000e+00 -1.0000e+00
<mgrwt>
<rscale>  0 0.18826238E+04</rscale>
<asrwt>0</asrwt>
<pdfrwt beam="1">  1        2 0.42802414E+00 0.18826238E+04</pdfrwt>
<pdfrwt beam="2">  1       -2 0.48997299E-01 0.18826238E+04</pdfrwt>
<totfact> 0.10729637E+01</totfact>
</mgrwt>
<rwgt>
<wgt id='morphing_basis_vector_1'> +1.4479494e-04 </wgt>
<wgt id='morphing_basis_vector_2'> +1.8149570e-04 </wgt>
<wgt id='morphing_basis_vector_3'> +1.6749575e-04 </wgt>
<wgt id='morphing_basis_vector_4'> +6.2722781e-06 </wgt>
<wgt id='morphing_basis_vector_5'> +1.2070619e-04 </wgt>
</rwgt>
</event>
<event>
 4      1 +6.0853000e-08 2.12061200e+03 7.81860800e-03 8.02379600e-02
        2 -1    0    0  501    0 +0.0000000000e+00 +0.0000000000e+00 +1.4187226742e+03 1.4187226742e+03 0.0000000000e+00 0.0000e+00 1.0000e+00
       -2 -1    0    0    0  501 -0.0000000000e+00 -0.0000000000e+00 -7.9243711864e+02 7.9243711864e+02 0.0000000000e+00 0.0000e+00 -1.0000e+00
      -13  1    1    2    0    0 +6.6460030975e+01 -4.0060773441e+02 +1.3344264408e+03 1.3948467365e+03 0.0000000000e+00 0.0000e+00 1.0000e+00
       13  1    1    2    0    0 -6.6460030975e+01 +4.0060773441e+02 -7.0814088521e+02 8.1631305631e+02 0.0000000000e+00 0.0000e+00 -1.0000e+00
<mgrwt>
<rscale>  0 0.21206117E+04</rscale>
<asrwt>0</asrwt>
<pdfrwt beam="1">  1        2 0.21826503E+00 0.21206117E+04</pdfrwt>
<pdfrwt beam="2">  1       -2 0.12191340E+00 0.21206117E+04</pdfrwt>
<totfact> 0.83093104E+00</totfact>
</mgrwt>
<rwgt>
<wgt id='morphing_basis_vector_1'> +2.3429035e-04 </wgt>
<wgt id='morphing_basis_vector_2'> +2.9977403e-04 </wgt>
<wgt id='morphing_basis_vector_3'> +2.7647318e-04 </wgt>
<wgt id='morphing_basis_vector_4'> +3.2299432e-06 </wgt>
<wgt id='morphing_basis_vector_5'> +1.9548307e-04 </wgt>
</rwgt>
</event>
<event>
 4      1 +6.0853000e-08 2.06470300e+03 7.81860800e-03 8.04551500e-02
        2 -1    0    0  501    0 +0.0000000000e+00 +0.0000000000e+00 +1.2449494637e+03 1.2449494637e+03 0.0000000000e+00 0.0000e+00 1.0000e+00
       -2 -1    0    0    0  501 -0.0000000000e+00 -0.0000000000e+00 -8.5605857849e+02 8.5605857849e+02 0.0000000000e+00 0.0000e+00 -1.0000e+00
      -13  1    1    2    0    0 -7.6497386817e+02 +5.7533877637e+01 -5.0853805967e+02 9.2038368314e+02 0.0000000000e+00 0.0000e+00 -1.0000e+00
       13  1    1    2    0    0 +7.6497386817e+02 -5.7533877637e+01 +8.9742894484e+02 1.1806243590e+03 0.0000000000e+00 0.0000e+00 1.0000e+00
<mgrwt>
<rscale>  0 0.20647030E+04</rscale>
<asrwt>0</asrwt>
<pdfrwt beam="1">  1        2 0.19153069E+00 0.20647030E+04</pdfrwt>
<pdfrwt beam="2">  1       -2 0.13170132E+00 0.20647030E+04</pdfrwt>
<totfact> 0.85521124E+00</totfact>
</mgrwt>
<rwgt>
<wgt id='morphing_basis_vector_1'> +1.5480712e-04 </wgt>
<wgt id='morphing_basis_vector_2'> +1.0371969e-04 </wgt>
<wgt id='morphing_basis_vector_3'> +1.6569023e-04 </wgt>
<wgt id='morphing_basis_vector_4'> +1.1520338e-04 </wgt>
<wgt id='morphing_basis_vector_5'> +1.8425954e-04 </wgt>
</rwgt>
</event>
<event>
 4      1 +6.0853000e-08 1.92795600e+03 7.81860800e-03 8.10179000e-02
        2 -1    0    0  501    0 +0.0000000000e+00 +0.0000000000e+00 +9.2676788327e+02 9.2676788327e+02 0.0000000000e+00 0.0000e+00 -1.0000e+00
       -2 -1    0    0    0  501 -0.0000000000e+00 -0.0000000000e+00 -1.0026816072e+03 1.0026816072e+03 0.0000000000e+00 0.0000e+00 1.0000e+00
      -13  1    1    2    0    0 -5.6545034389e+02 +4.6728460917e+02 -6.6387265356e+02 9.8935125083e+02 0.0000000000e+00 0.0000e+00 1.0000e+00
       13  1    1    2    0    0 +5.6545034389e+02 -4.6728460917e+02 +5.8795892959e+02 9.4009823969e+02 0.0000000000e+00 0.0000e+00 -1.0000e+00
<mgrwt>
<rscale>  0 0.19279555E+04</rscale>
<asrwt>0</asrwt>
<pdfrwt beam="1">  1        2 0.14257967E+00 0.19279555E+04</pdfrwt>
<pdfrwt beam="2">  1       -2 0.15425871E+00 0.19279555E+04</pdfrwt>
<totfact> 0.86724236E+00</totfact>
</mgrwt>
<rwgt>
<wgt id='morphing_basis_vector_1'> +1.1837814e-04 </wgt>
<wgt id='morphing_basis_vector_2'> +7.9125748e-05 </wgt>
<wgt id='morphing_basis_vector_3'> +1.2606423e-04 </wgt>
<wgt id='morphing_basis_vector_4'> +8.7057589e-05 </wgt>
<wgt id='morphing_basis_vector_5'> +1.3930317e-04 </wgt>
</rwgt>
</event>
<event>
 4      1 +6.0853000e-08 1.99547100e+03 7.81860800e-03 8.07341900e-02
        2 -1    0    0  501    0 +0.0000000000e+00 +0.0000000000e+00 +2.0512207754e+03 2.0512207754e+03 0.0000000000e+00 0.0000e+00 1.0000e+00
       -2 -1    0    0    0  501 -0.0000000000e+00 -0.0000000000e+00 -4.8530913871e+02 4.8530913871e+02 0.0000000000e+00 0.0000e+00 -1.0000e+00
      -13  1    1    2    0    0 -4.5075522093e+02 -7.2954513890e+02 +1.4311888754e+03 1.6684477744e+03 0.0000000000e+00 0.0000e+00 1.0000e+00
       13  1    1    2    0    0 +4.5075522093e+02 +7.2954513890e+02 +1.3472276133e+02 8.6808213973e+02 0.0000000000e+00 0.0000e+00 -1.0000e+00
<mgrwt>
<rscale>  0 0.19954711E+04</rscale>
<asrwt>0</asrwt>
<pdfrwt beam="1">  1        2 0.31557242E+00 0.19954711E+04</pdfrwt>
<pdfrwt beam="2">  1       -2 0.74662945E-01 0.19954711E+04</pdfrwt>
<totfact> 0.12025363E+01</totfact>
</mgrwt>
<rwgt>
<wgt id='morphing_basis_vector_1'> +1.6080899e-04 </wgt>
<wgt id='morphing_basis_vector_2'> +1.6574971e-04 </wgt>
<wgt id='morphing_basis_vector_3'> +1.8151934e-04 </wgt>
<wgt id='morphing_basis_vector_4'> +4.9768487e-05 </wgt>
<wgt id='morphing_basis_vector_5'> +1.5635062e-04 </wgt>
</rwgt>
</event>
<event>
 4      1 +6.0853000e-08 1.86389300e+03 7.81860800e-03 8.12985200e-02
        2 -1    0    0  501    0 +0.0000000000e+00 +0.0000000000e+00 +1.2105748129e+03 1.2105748129e+03 0.0000000000e+00 0.0000e+00 -1.0000e+00
       -2 -1    0    0    0  501 -0.0000000000e+00 -0.0000000000e+00 -7.1744756273e+02 7.1744756273e+02 0.0000000000e+00 0.0000e+00 1.0000e+00
      -13  1    1    2    0    0 +5.4322813601e+02 -3.7200660117e+02 -4.3570419309e+02 7.8950862120e+02 0.0000000000e+00 0.0000e+00 1.0000e+00
       13  1    1    2    0    0 -5.4322813601e+02 +3.7200660117e+02 +9.2883144330e+02 1.1385137545e+03 0.0000000000e+00 0.0000e+00 -1.0000e+00
<mgrwt>
<rscale>  0 0.18638926E+04</rscale>
<asrwt>0</asrwt>
<pdfrwt beam="1">  1        2 0.18624228E+00 0.18638926E+04</pdfrwt>
<pdfrwt beam="2">  1       -2 0.11037655E+00 0.18638926E+04</pdfrwt>
<totfact> 0.14417424E+01</totfact>
</mgrwt>
<rwgt>
<wgt id='morphing_basis_vector_1'> +1.0365812e-04 </wgt>
<wgt id='morphing_basis_vector_2'> +6.9013205e-05 </wgt>
<wgt id='morphing_basis_vector_3'> +1.1005717e-04 </wgt>
<wgt id='morphing_basis_vector_4'> +7.5959389e-05 </wgt>
<wgt id='morphing_basis_vector_5'> +1.2133144e-04 </wgt>
</rwgt>
</event>
<event>
 4      1 +6.0853000e-08 1.86290600e+03 7.81860800e-03 8.13029400e-02
        2 -1    0    0  501    0 +0.0000000000e+00 +0.0000000000e+00 +9.7882473320e+02 9.7882473320e+02 0.0000000000e+00 0.0000e+00 -1.0000e+00
       -2 -1    0    0    0  501 -0.0000000000e+00 -0.0000000000e+00 -8.8637348729e+02 8.8637348729e+02 0.0000000000e+00 0.0000e+00 1.0000e+00
      -13  1    1    2    0    0 +6.6500601643e+02 +3.0821958612e+02 -5.2926168769e+02 9.0407424983e+02 0.0000000000e+00 0.0000e+00 1.0000e+00
       13  1    1    2    0    0 -6.6500601643e+02 -3.0821958612e+02 +6.2171293359e+02 9.6112397065e+02 0.0000000000e+00 0.0000e+00 -1.0000e+00
<mgrwt>
<rscale>  0 0.18629056E+04</rscale>
<asrwt>0</asrwt>
<pdfrwt beam="1">  1        2 0.15058842E+00 0.18629056E+04</pdfrwt>
<pdfrwt beam="2">  1       -2 0.13636515E+00 0.18629056E+04</pdfrwt>
<totfact> 0.11430814E+01</totfact>
</mgrwt>
<rwgt>
<wgt id='morphing_basis_vector_1'> +1.0355491e-04 </wgt>
<wgt id='morphing_basis_vector_2'> +6.9198026e-05 </wgt>
<wgt id='morphing_basis_vector_3'> +1.0998317e-04 </wgt>
<wgt id='morphing_basis_vector_4'> +7.5576672e-05 </wgt>
<wgt id='morphing_basis_vector_5'> +1.2105162e-04 </wgt>
</rwgt>
</event>
<event>
 4      1 +6.0853000e-08 1.86276200e+03 7.81860800e-03 8.13035800e-02
        2 -1    0    0  501    0 +0.0000000000e+00 +0.0000000000e+00 +1.6155515002e+03 1.6155515002e+03 0.0000000000e+00 0.0000e+00 -1.0000e+00
       -2 -1    0    0    0  501 -0.0000000000e+00 -0.0000000000e+00 -5.3695023796e+02 5.3695023796e+02 0.0000000000e+00 0.0000e+00 1.0000e+00
      -13  1    1    2    0    0 +7.7419487263e+02 +1.5101292769e+02 -3.3000207702e+01 7.8947553404e+02 0.0000000000e+00 0.0000e+00 1.0000e+00
       13  1    1    2    0    0 -7.7419487263e+02 -1.5101292769e+02 +1.1116014699e+03 1.3630262041e+03 0.0000000000e+00 0.0000e+00 -1.0000e+00
<mgrwt>
<rscale>  0 0.18627622E+04</rscale>
<asrwt>0</asrwt>
<pdfrwt beam="1">  1        2 0.24854638E+00 0.18627622E+04</pdfrwt>
<pdfrwt beam="2">  1       -2 0.82607729E-01 0.18627622E+04</pdfrwt>
<totfact> 0.16970866E+01</totfact>
</mgrwt>
<rwgt>
<wgt id='morphing_basis_vector_1'> +1.0367770e-04 </wgt>
<wgt id='morphing_basis_vector_2'> +6.9633306e-05 </wgt>
<wgt id='morphing_basis_vector_3'> +1.1016894e-04 </wgt>
<wgt id='morphing_basis_vector_4'> +7.5250448e-05 </wgt>
<wgt id='morphing_basis_vector_5'> +1.2098991e-04 </wgt>
</rwgt>
</event>
<event>
 4      1 +6.0853000e-08 2.00730000e+03 7.81860800e-03 8.06856900e-02
        2 -1    0    0  501    0 +0.0000000000e+00 +0.0000000000e+00 +2.0134491708e+03 2.0134491708e+03 0.0000000000e+00 0.0000e+00 1.0000e+00
       -2 -1    0    0    0  501 -0.0000000000e+00 -0.0000000000e+00 -5.0029237360e+02 5.0029237360e+02 0.0000000000e+00 0.0000e+00 -1.0000e+00
      -13  1    1    2    0    0 -5.0403355383e+01 -9.9770438675e+02 +8.7772651130e+02 1.3297963642e+03 0.0000000000e+00 0.0000e+00 -1.0000e+00
       13  1    1    2    0    0 +5.0403355383e+01 +9.9770438675e+02 +6.3543028594e+02 1.1839451803e+03 0.0000000000e+00 0.0000e+00 1.0000e+00
<mgrwt>
<rscale>  0 0.20072999E+04</rscale>
<asrwt>0</asrwt>
<pdfrwt beam="1">  1        2 0.30976141E+00 0.20072999E+04</pdfrwt>
<pdfrwt beam="2">  1       -2 0.76968059E-01 0.20072999E+04</pdfrwt>
<totfact> 0.11794145E+01</totfact>
</mgrwt>
<rwgt>
<wgt id='morphing_basis_vector_1'> +1.4549882e-04 </wgt>
<wgt id='morphing_basis_vector_2'> +1.1316683e-04 </wgt>
<wgt id='morphing_basis_vector_3'> +1.5809623e-04 </wgt>
<wgt id='morphing_basis_vector_4'> +8.8964622e-05 </wgt>
<wgt id='morphing_basis_vector_5'> +1.6316238e-04 </wgt>
</rwgt>
</event>
<event>
 4      1 +6.0853000e-08 1.97596600e+03 7.81860800e-03 8.08149400e-02
        2 -1    0    0  501    0 +0.0000000000e+00 +0.0000000000e+00 +5.8708341368e+02 5.8708341368e+02 0.0000000000e+00 0.0000e+00 1.0000e+00
       -2 -1    0    0    0  501 -0.0000000000e+00 -0.0000000000e+00 -1.6626439385e+03 1.6626439385e+03 0.0000000000e+00 0.0000e+00 -1.0000e+00
      -13  1    1    2    0    0 +8.6458792021e+02 +6.3359922646e+01 -1.0773402016e+03 1.3828190993e+03 0.0000000000e+00 0.0000e+00 -1.0000e+00
       13  1    1    2    0    0 -8.6458792021e+02 -6.3359922646e+01 +1.7796767700e+00 8.6690825283e+02 0.0000000000e+00 0.0000e+00 1.0000e+00
<mgrwt>
<rscale>  0 0.19759663E+04</rscale>
<asrwt>0</asrwt>
<pdfrwt beam="1">  1        2 0.90320524E-01 0.19759663E+04</pdfrwt>
<pdfrwt beam="2">  1       -2 0.25579138E+00 0.19759663E+04</pdfrwt>
<totfact> 0.27538425E+00</totfact>
</mgrwt>
<rwgt>
<wgt id='morphing_basis_vector_1'> +1.3075136e-04 </wgt>
<wgt id='morphing_basis_vector_2'> +8.8430501e-05 </wgt>
<wgt id='morphing_basis_vector_3'> +1.3966379e-04 </wgt>
<wgt id='morphing_basis_vector_4'> +9.5446538e-05 </wgt>
<wgt id='morphing_basis_vector_5'> +1.5396328e-04 </wgt>
</rwgt>
</event>
<event>
 4      1 +6.0853000e-08 2.21917400e+03 7.81860800e-03 7.98714700e-02
        2 -1    0    0  501    0 +0.0000000000e+00 +0.0000000000e+00 +1.3577398096e+03 1.3577398096e+03 0.0000000000e+00 0.0000e+00 -1.0000e+00
       -2 -1    0    0    0  501 -0.0000000000e+00 -0.0000000000e+00 -9.0678858283e+02 9.0678858283e+02 0.0000000000e+00 0.0000e+00 1.0000e+00
      -13  1    1    2    0    0 +6.6141308033e+02 -4.6175424335e+02 -5.5200059453e+02 9.7743997281e+02 0.0000000000e+00 0.0000e+00 1.0000e+00
       13  1    1    2    0    0 -6.6141308033e+02 +4.6175424335e+02 +1.0029518213e+03 1.2870884196e+03 0.0000000000e+00 0.0000e+00 -1.0000e+00
<mgrwt>
<rscale>  0 0.22191737E+04</rscale>
<asrwt>0</asrwt>
<pdfrwt beam="1">  1        2 0.20888305E+00 0.22191737E+04</pdfrwt>
<pdfrwt beam="2">  1       -2 0.13950594E+00 0.22191737E+04</pdfrwt>
<totfact> 0.62118923E+00</totfact>
</mgrwt>
<rwgt>
<wgt id='morphing_basis_vector_1'> +2.0550656e-04 </wgt>
<wgt id='morphing_basis_vector_2'> +1.3800532e-04 </wgt>
<wgt id='morphing_basis_vector_3'> +2.2097587e-04 </wgt>
<wgt id='morphing_basis_vector_4'> +1.5458035e-04 </wgt>
<wgt id='morphing_basis_vector_5'> +2.4715938e-04 </wgt>
</rwgt>
</event>
<event>
 4      1 +6.0853000e-08 2.16472800e+03 7.81860800e-03 8.00714200e-02
        2 -1    0    0  501    0 +0.0000000000e+00 +0.0000000000e+00 +3.4428061101e+03 3.4428061101e+03 0.0000000000e+00 0.0000e+00 -1.0000e+00
       -2 -1    0    0    0  501 -0.0000000000e+00 -0.0000000000e+00 -3.4027832073e+02 3.4027832073e+02 0.0000000000e+00 0.0000e+00 1.0000e+00
      -13  1    1    2    0    0 -4.9294899326e+02 -7.7543204396e+02 +5.5158232819e+02 1.0716980123e+03 0.0000000000e+00 0.0000e+00 1.0000e+00
       13  1    1    2    0    0 +4.9294899326e+02 +7.7543204396e+02 +2.5509454612e+03 2.7113864185e+03 0.0000000000e+00 0.0000e+00 -1.0000e+00
<mgrwt>
<rscale>  0 0.21647284E+04</rscale>
<asrwt>0</asrwt>
<pdfrwt beam="1">  1        2 0.52966245E+00 0.21647284E+04</pdfrwt>
<pdfrwt beam="2">  1       -2 0.52350513E-01 0.21647284E+04</pdfrwt>
<totfact> 0.33292182E+00</totfact>
</mgrwt>
<rwgt>
<wgt id='morphing_basis_vector_1'> +1.8683334e-04 </wgt>
<wgt id='morphing_basis_vector_2'> +1.2637690e-04 </wgt>
<wgt id='morphing_basis_vector_3'> +2.0077206e-04 </wgt>
<wgt id='morphing_basis_vector_4'> +1.3882417e-04 </wgt>
<wgt id='morphing_basis_vector_5'> +2.2333804e-04 </wgt>
</rwgt>
</event>
<event>
 4      1 +6.0853000e-08 1.98144500e+03 7.81860800e-03 8.07921600e-02
        2 -1    0    0  501    0 +0.0000000000e+00 +0.0000000000e+00 +7.0803229687e+02 7.0803229687e+02 0.0000000000e+00 0.0000e+00 -1.0000e+00
       -2 -1    0    0    0  501 -0.0000000000e+00 -0.0000000000e+00 -1.3862795573e+03 1.3862795573e+03 0.0000000000e+00 0.0000e+00 1.0000e+00
      -13  1    1    2    0    0 -4.5006887477e+02 +1.5424506081e+02 -1.2576335206e+03 1.3446172701e+03 0.0000000000e+00 0.0000e+00 1.0000e+00
       13  1    1    2    0    0 +4.5006887477e+02 -1.5424506081e+02 +5.7938626023e+02 7.4969458406e+02 0.0000000000e+00 0.0000e+00 -1.0000e+00
<mgrwt>
<rscale>  0 0.19814446E+04</rscale>
<asrwt>0</asrwt>
<pdfrwt beam="1">  1        2 0.10892805E+00 0.19814446E+04</pdfrwt>
<pdfrwt beam="2">  1       -2 0.21327378E+00 0.19814446E+04</pdfrwt>
<totfact> 0.43667406E+00</totfact>
</mgrwt>
<rwgt>
<wgt id='morphing_basis_vector_1'> +1.3154905e-04 </wgt>
<wgt id='morphing_basis_vector_2'> +8.7546061e-05 </wgt>
<wgt id='morphing_basis_vector_3'> +1.4030463e-04 </wgt>
<wgt id='morphing_basis_vector_4'> +9.7778702e-05 </wgt>
<wgt id='morphing_basis_vector_5'> +1.5581166e-04 </wgt>
</rwgt>
</event>
<event>
 4      1 +6.0853000e-08 1.99004600e+03 7.81860800e-03 8.07565500e-02
        2 -1    0    0  501    0 +0.0000000000e+00 +0.0000000000e+00 +1.1309143862e+03 1.1309143862e+03 0.0000000000e+00 0.0000e+00 -1.0000e+00
       -2 -1    0    0    0  501 -0.0000000000e+00 -0.0000000000e+00 -8.7546060073e+02 8.7546060073e+02 0.0000000000e+00 0.0000e+00 1.0000e+00
      -13  1    1    2    0    0 -3.3141822273e+02 +6.6214058285e+02 -5.4240945286e+02 9.1786502514e+02 0.0000000000e+00 0.0000e+00 1.0000e+00
       13  1    1    2    0    0 +3.3141822273e+02 -6.6214058285e+02 +7.9786323830e+02 1.0885099618e+03 0.0000000000e+00 0.0000e+00 -1.0000e+00
<mgrwt>
<rscale>  0 0.19900462E+04</rscale>
<asrwt>0</asrwt>
<pdfrwt beam="1">  1        2 0.17398683E+00 0.19900462E+04</pdfrwt>
<pdfrwt beam="2">  1       -2 0.13468625E+00 0.19900462E+04</pdfrwt>
<totfact> 0.94471710E+00</totfact>
</mgrwt>
<rwgt>
<wgt id='morphing_basis_vector_1'> +1.3399159e-04 </wgt>
<wgt id='morphing_basis_vector_2'> +8.9627984e-05 </wgt>
<wgt id='morphing_basis_vector_3'> +1.4302999e-04 </wgt>
<wgt id='morphing_basis_vector_4'> +9.9142291e-05 </wgt>
<wgt id='morphing_basis_vector_5'> +1.5856116e-04 </wgt>
</rwgt>
</event>
<event>
 4      1 +6.0853000e-08 1.89633700e+03 7.81860800e-03 8.11549600e-02
        2 -1    0    0  501    0 +0.0000000000e+00 +0.0000000000e+00 +2.4232052639e+03 2.4232052639e+03 0.0000000000e+00 0.0000e+00 1.0000e+00
       -2 -1    0    0    0  501 -0.0000000000e+00 -0.0000000000e+00 -3.7100580832e+02 3.7100580832e+02 0.0000000000e+00 0.0000e+00 -1.0000e+00
      -13  1    1    2    0    0 -8.5192342953e+02 +6.8271937426e+01 +1.6311032618e+03 1.8414484619e+03 0.0000000000e+00 0.0000e+00 -1.0000e+00
       13  1    1    2    0    0 +8.5192342953e+02 -6.8271937426e+01 +4.2109619381e+02 9.5276261034e+02 0.0000000000e+00 0.0000e+00 1.0000e+00
<mgrwt>
<rscale>  0 0.18963367E+04</rscale>
<asrwt>0</asrwt>
<pdfrwt beam="1">  1        2 0.37280080E+00 0.18963367E+04</pdfrwt>
<pdfrwt beam="2">  1       -2 0.57077818E-01 0.18963367E+04</pdfrwt>
<totfact> 0.13037417E+01</totfact>
</mgrwt>
<rwgt>
<wgt id='morphing_basis_vector_1'> +1.2763233e-04 </wgt>
<wgt id='morphing_basis_vector_2'> +1.2351222e-04 </wgt>
<wgt id='morphing_basis_vector_3'> +1.4191563e-04 </wgt>
<wgt id='morphing_basis_vector_4'> +4.8508366e-05 </wgt>
<wgt id='morphing_basis_vector_5'> +1.2762576e-04 </wgt>
</rwgt>
</event>
<event>
 4      1 +6.0853000e-08 2.13857300e+03 7.81860800e-03 8.01696600e-02
        2 -1    0    0  501    0 +0.0000000000e+00 +0.0000000000e+00 +1.5495446435e+03 1.5495446435e+03 0.0000000000e+00 0.0000e+00 1.0000e+00
       -2 -1    0    0    0  501 -0.0000000000e+00 -0.0000000000e+00 -7.3787702555e+02 7.3787702555e+02 0.0000000000e+00 0.0000e+00 -1.0000e+00
      -13  1    1    2    0    0 +4.6709484244e+02 +6.2936741469e+02 -3.7218120848e+02 8.6764035548e+02 0.0000000000e+00 0.0000e+00 -1.0000e+00
       13  1    1    2    0    0 -4.6709484244e+02 -6.2936741469e+02 +1.1838488264e+03 1.4197813136e+03 0.0000000000e+00 0.0000e+00 1.0000e+00
<mgrwt>
<rscale>  0 0.21385728E+04</rscale>
<asrwt>0</asrwt>
<pdfrwt beam="1">  1        2 0.23839148E+00 0.21385728E+04</pdfrwt>
<pdfrwt beam="2">  1       -2 0.11351954E+00 0.21385728E+04</pdfrwt>
<totfact> 0.84214997E+00</totfact>
</mgrwt>
<rwgt>
<wgt id='morphing_basis_vector_1'> +1.7769852e-04 </wgt>
<wgt id='morphing_basis_vector_2'> +1.1918408e-04 </wgt>
<wgt id='morphing_basis_vector_3'> +1.9063451e-04 </wgt>
<wgt id='morphing_basis_vector_4'> +1.3296935e-04 </wgt>
<wgt id='morphing_basis_vector_5'> +2.1262569e-04 </wgt>
</rwgt>
</event>
<event>
 4      1 +6.0853000e-08 1.91651700e+03 7.81860800e-03 8.10671600e-02
        2 -1    0    0  501    0 +0.0000000000e+00 +0.0000000000e+00 +8.4340237521e+02 8.4340237521e+02 0.0000000000e+00 0.0000e+00 -1.0000e+00
       -2 -1    0    0    0  501 -0.0000000000e+00 -0.0000000000e+00 -1.0887561791e+03 1.0887561791e+03 0.0000000000e+00 0.0000e+00 1.0000e+00
      -13  1    1    2    0    0 +5.8636295991e+02 +7.3756637341e+02 -2.9855373701e+02 9.8841287417e+02 0.0000000000e+00 0.0000e+00 1.0000e+00
       13  1    1    2    0    0 -5.8636295991e+02 -7.3756637341e+02 +5.3199933104e+01 9.4374568016e+02 0.0000000000e+00 0.0000e+00 -1.0000e+00
<mgrwt>
<rscale>  0 0.19165172E+04</rscale>
<asrwt>0</asrwt>
<pdfrwt beam="1">  1        2 0.12975421E+00 0.19165172E+04</pdfrwt>
<pdfrwt beam="2">  1       -2 0.16750095E+00 0.19165172E+04</pdfrwt>
<totfact> 0.77204398E+00</totfact>
</mgrwt>
<rwgt>
<wgt id='morphing_basis_vector_1'> +1.1757209e-04 </wgt>
<wgt id='morphing_basis_vector_2'> +8.2966082e-05 </wgt>
<wgt id='morphing_basis_vector_3'> +1.2586392e-04 </wgt>
<wgt id='morphing_basis_vector_4'> +8.1178204e-05 </wgt>
<wgt id='morphing_basis_vector_5'> +1.3565891e-04 </wgt>
</rwgt>
</event>
<event>
 4      1 +6.0853000e-08 2.11823600e+03 7.81860800e-03 8.02470500e-02
        2 -1    0    0  501    0 +0.0000000000e+00 +0.0000000000e+00 +7.9997147078e+02 7.9997147078e+02 0.0000000000e+00 0.0000e+00 -1.0000e+00
       -2 -1    0    0    0  501 -0.0000000000e+00 -0.0000000000e+00 -1.4022140685e+03 1.4022140685e+03 0.0000000000e+00 0.0000e+00 1.0000e+00
      -13  1    1    2    0    0 +7.3427304772e+02 +6.7482168991e+02 -6.7189253458e+02 1.2024894178e+03 0.0000000000e+00 0.0000e+00 1.0000e+00
       13  1    1    2    0    0 -7.3427304772e+02 -6.7482168991e+02 +6.9649936820e+01 9.9969612157e+02 0.0000000000e+00 0.0000e+00 -1.0000e+00
<mgrwt>
<rscale>  0 0.21182363E+04</rscale>
<asrwt>0</asrwt>
<pdfrwt beam="1">  1        2 0.12307253E+00 0.21182363E+04</pdfrwt>
<pdfrwt beam="2">  1       -2 0.21572524E+00 0.21182363E+04</pdfrwt>
<totfact> 0.35557712E+00</totfact>
</mgrwt>
<rwgt>
<wgt id='morphing_basis_vector_1'> +1.7256558e-04 </wgt>
<wgt id='morphing_basis_vector_2'> +1.1892904e-04 </wgt>
<wgt id='morphing_basis_vector_3'> +1.8558344e-04 </wgt>
<wgt id='morphing_basis_vector_4'> +1.2506142e-04 </wgt>
<wgt id='morphing_basis_vector_5'> +2.0428801e-04 </wgt>
</rwgt>
</event>
<event>
 4      1 +6.0853000e-08 1.99187800e+03 7.81860800e-03 8.07490000e-02
        2 -1    0    0  501    0 +0.0000000000e+00 +0.0000000000e+00 +3.9906079113e+03 3.9906079113e+03 0.0000000000e+00 0.0000e+00 -1.0000e+00
       -2 -1    0    0    0  501 -0.0000000000e+00 -0.0000000000e+00 -2.4855717438e+02 2.4855717438e+02 0.0000000000e+00 0.0000e+00 1.0000e+00
      -13  1    1    2    0    0 +3.3614157233e+02 +8.7909697064e+02 +2.5642246817e+03 2.7314924233e+03 0.0000000000e+00 0.0000e+00 -1.0000e+00
       13  1    1    2    0    0 -3.3614157233e+02 -8.7909697064e+02 +1.1778260552e+03 1.5076726623e+03 0.0000000000e+00 0.0000e+00 1.0000e+00
<mgrwt>
<rscale>  0 0.19918777E+04</rscale>
<asrwt>0</asrwt>
<pdfrwt beam="1">  1        2 0.61393963E+00 0.19918777E+04</pdfrwt>
<pdfrwt beam="2">  1       -2 0.38239568E-01 0.19918777E+04</pdfrwt>
<totfact> 0.23244533E+00</totfact>
</mgrwt>
<rwgt>
<wgt id='morphing_basis_vector_1'> +1.4911128e-04 </wgt>
<wgt id='morphing_basis_vector_2'> +1.3329229e-04 </wgt>
<wgt id='morphing_basis_vector_3'> +1.6483981e-04 </wgt>
<wgt id='morphing_basis_vector_4'> +7.0413488e-05 </wgt>
<wgt id='morphing_basis_vector_5'> +1.5686265e-04 </wgt>
</rwgt>
</event>
<event>
 4      1 +6.0853000e-08 1.92633100e+03 7.81860800e-03 8.10248800e-02
        2 -1    0    0  501    0 +0.0000000000e+00 +0.0000000000e+00 +1.7091721825e+03 1.7091721825e+03 0.0000000000e+00 0.0000e+00 -1.0000e+00
       -2 -1    0    0    0  501 -0.0000000000e+00 -0.0000000000e+00 -5.4277018182e+02 5.4277018182e+02 0.0000000000e+00 0.0000e+00 1.0000e+00
      -13  1    1    2    0    0 -5.3001586849e+02 +6.0800429229e+01 -3.5426799750e+02 6.4040559577e+02 0.0000000000e+00 0.0000e+00 1.0000e+00
       13  1    1    2    0    0 +5.3001586849e+02 -6.0800429229e+01 +1.5206699982e+03 1.6115367686e+03 0.0000000000e+00 0.0000e+00 -1.0000e+00
<mgrwt>
<rscale>  0 0.19263309E+04</rscale>
<asrwt>0</asrwt>
<pdfrwt beam="1">  1        2 0.26294957E+00 0.19263309E+04</pdfrwt>
<pdfrwt beam="2">  1       -2 0.83503105E-01 0.19263309E+04</pdfrwt>
<totfact> 0.14605330E+01</totfact>
</mgrwt>
<rwgt>
<wgt id='morphing_basis_vector_1'> +1.1781248e-04 </wgt>
<wgt id='morphing_basis_vector_2'> +7.8341009e-05 </wgt>
<wgt id='morphing_basis_vector_3'> +1.2538733e-04 </wgt>
<wgt id='morphing_basis_vector_4'> +8.7105925e-05 </wgt>
<wgt id='morphing_basis_vector_5'> +1.3885132e-04 </wgt>
</rwgt>
</event>
<event>
 4      1 +6.0853000e-08 1.92806700e+03 7.81860800e-03 8.10174200e-02
        2 -1    0    0  501    0 +0.0000000000e+00 +0.0000000000e+00 +2.8187759322e+03 2.8187759322e+03 0.0000000000e+00 0.0000e+00 1.0000e+00
       -2 -1    0    0    0  501 -0.0000000000e+00 -0.0000000000e+00 -3.2970368300e+02 3.2970368300e+02 0.0000000000e+00 0.0000e+00 -1.0000e+00
      -13  1    1    2    0    0 -1.1014885869e+02 -8.8506764494e+02 +6.4703061190e+02 1.1018739129e+03 0.0000000000e+00 0.0000e+00 -1.0000e+00
       13  1    1    2    0    0 +1.1014885869e+02 +8.8506764494e+02 +1.8420416373e+03 2.0466057023e+03 0.0000000000e+00 0.0000e+00 1.0000e+00
<mgrwt>
<rscale>  0 0.19280672E+04</rscale>
<asrwt>0</asrwt>
<pdfrwt beam="1">  1        2 0.43365782E+00 0.19280672E+04</pdfrwt>
<pdfrwt beam="2">  1       -2 0.50723645E-01 0.19280672E+04</pdfrwt>
<totfact> 0.94705786E+00</totfact>
</mgrwt>
<rwgt>
<wgt id='morphing_basis_vector_1'> +1.1913704e-04 </wgt>
<wgt id='morphing_basis_vector_2'> +8.1312895e-05 </wgt>
<wgt id='morphing_basis_vector_3'> +1.2714839e-04 </wgt>
<wgt id='morphing_basis_vector_4'> +8.5630669e-05 </wgt>
<wgt id='morphing_basis_vector_5'> +1.3922260e-04 </wgt>
</rwgt>
</event>
<event>
 4      1 +6.0853000e-08 1.97792800e+03 7.81860800e-03 8.08067700e-02
        2 -1    0    0  501    0 +0.0000000000e+00 +0.0000000000e+00 +9.1411990251e+02 9.1411990251e+02 0.0000000000e+00 0.0000e+00 1.0000e+00
       -2 -1    0    0    0  501 -0.0000000000e+00 -0.0000000000e+00 -1.0699359321e+03 1.0699359321e+03 0.0000000000e+00 0.0000e+00 -1.0000e+00
      -13  1    1    2    0    0 -3.7603079854e+02 -4.6298100549e+02 -8.6921141468e+02 1.0541722138e+03 0.0000000000e+00 0.0000e+00 -1.0000e+00
       13  1    1    2    0    0 +3.7603079854e+02 +4.6298100549e+02 +7.1339538507e+02 9.2988362085e+02 0.0000000000e+00 0.0000e+00 1.0000e+00
<mgrwt>
<rscale>  0 0.19779279E+04</rscale>
<asrwt>0</asrwt>
<pdfrwt beam="1">  1        2 0.14063383E+00 0.19779279E+04</pdfrwt>
<pdfrwt beam="2">  1       -2 0.16460553E+00 0.19779279E+04</pdfrwt>
<totfact> 0.72669403E+00</totfact>
</mgrwt>
<rwgt>
<wgt id='morphing_basis_vector_1'> +1.3068111e-04 </wgt>
<wgt id='morphing_basis_vector_2'> +8.7062924e-05 </wgt>
<wgt id='morphing_basis_vector_3'> +1.3937734e-04 </wgt>
<wgt id='morphing_basis_vector_4'> +9.6984580e-05 </wgt>
<wgt id='morphing_basis_vector_5'> +1.5467889e-04 </wgt>
</rwgt>
</event>
<event>
 4      1 +6.0853000e-08 1.99918000e+03 7.81860800e-03 8.07189500e-02
        2 -1    0    0  501    0 +0.0000000000e+00 +0.0000000000e+00 +1.7280287766e+03 1.7280287766e+03 0.0000000000e+00 0.0000e+00 -1.0000e+00
       -2 -1    0    0    0  501 -0.0000000000e+00 -0.0000000000e+00 -5.7821988830e+02 5.7821988830e+02 0.0000000000e+00 0.0000e+00 1.0000e+00
      -13  1    1    2    0    0 +7.3340921247e+01 -4.6743591274e+02 +1.5906631146e+03 1.6595434213e+03 0.0000000000e+00 0.0000e+00 -1.0000e+00
       13  1    1    2    0    0 -7.3340921247e+01 +4.6743591274e+02 -4.4085422626e+02 6.4670524357e+02 0.0000000000e+00 0.0000e+00 1.0000e+00
<mgrwt>
<rscale>  0 0.19991804E+04</rscale>
<asrwt>0</asrwt>
<pdfrwt beam="1">  1        2 0.26585058E+00 0.19991804E+04</pdfrwt>
<pdfrwt beam="2">  1       -2 0.88956907E-01 0.19991804E+04</pdfrwt>
<totfact> 0.12237919E+01</totfact>
</mgrwt>
<rwgt>
<wgt id='morphing_basis_vector_1'> +1.8481278e-04 </wgt>
<wgt id='morphing_basis_vector_2'> +2.3455838e-04 </wgt>
<wgt id='morphing_basis_vector_3'> +2.1611440e-04 </wgt>
<wgt id='morphing_basis_vector_4'> +4.7261425e-06 </wgt>
<wgt id='morphing_basis_vector_5'> +1.5395508e-04 </wgt>
</rwgt>
</event>
<event>
 4      1 +6.0853000e-08 1.87748800e+03 7.81860800e-03 8.12380000e-02
        2 -1    0    0  501    0 +0.0000000000e+00 +0.0000000000e+00 +1.0072110088e+03 1.0072110088e+03 0.0000000000e+00 0.0000e+00 -1.0000e+00
       -2 -1    0    0    0  501 -0.0000000000e+00 -0.0000000000e+00 -8.7493081628e+02 8.7493081628e+02 0.0000000000e+00 0.0000e+00 1.0000e+00
      -13  1    1    2    0    0 +8.5398565034e+02 +3.8023747327e+02 +1.5218948748e+02 9.4711861304e+02 0.0000000000e+00 0.0000e+00 1.0000e+00
       13  1    1    2    0    0 -8.5398565034e+02 -3.8023747327e+02 -1.9909294947e+01 9.3502321206e+02 0.0000000000e+00 0.0000e+00 -1.0000e+00
<mgrwt>
<rscale>  0 0.18774876E+04</rscale>
<asrwt>0</asrwt>
<pdfrwt beam="1">  1        2 0.15495554E+00 0.18774876E+04</pdfrwt>
<pdfrwt beam="2">  1       -2 0.13460474E+00 0.18774876E+04</pdfrwt>
<totfact> 0.11358840E+01</totfact>
</mgrwt>
<rwgt>
<wgt id='morphing_basis_vector_1'> +1.1189788e-04 </wgt>
<wgt id='morphing_basis_vector_2'> +8.6602360e-05 </wgt>
<wgt id='morphing_basis_vector_3'> +1.2080886e-04 </wgt>
<wgt id='morphing_basis_vector_4'> +6.7912492e-05 </wgt>
<wgt id='morphing_basis_vector_5'> +1.2418675e-04 </wgt>
</rwgt>
</event>
<event>
 4      1 +6.0853000e-08 2.19659300e+03 7.81860800e-03 7.99536700e-02
        2 -1    0    0  501    0 +0.0000000000e+00 +0.0000000000e+00 +1.8957746639e+03 1.8957746639e+03 0.0000000000e+00 0.0000e+00 -1.0000e+00
       -2 -1    0    0    0  501 -0.0000000000e+00 -0.0000000000e+00 -6.3628612380e+02 6.3628612380e+02 0.0000000000e+00 0.0000e+00 1.0000e+00
      -13  1    1    2    0    0 +3.9500240559e+02 -6.9030561456e+02 -2.4336657903e+02 8.3173074591e+02 0.0000000000e+00 0.0000e+00 1.0000e+00
       13  1    1    2    0    0 -3.9500240559e+02 +6.9030561456e+02 +1.5028551192e+03 1.7003300418e+03 0.0000000000e+00 0.0000e+00 -1.0000e+00
<mgrwt>
<rscale>  0 0.21965929E+04</rscale>
<asrwt>0</asrwt>
<pdfrwt beam="1">  1        2 0.29165764E+00 0.21965929E+04</pdfrwt>
<pdfrwt beam="2">  1       -2 0.97890174E-01 0.21965929E+04</pdfrwt>
<totfact> 0.77430804E+00</totfact>
</mgrwt>
<rwgt>
<wgt id='morphing_basis_vector_1'> +1.9739708e-04 </wgt>
<wgt id='morphing_basis_vector_2'> +1.3249303e-04 </wgt>
<wgt id='morphing_basis_vector_3'> +2.1212012e-04 </wgt>
<wgt id='morphing_basis_vector_4'> +1.4829970e-04 </wgt>
<wgt id='morphing_basis_vector_5'> +2.3709333e-04 </wgt>
</rwgt>
</event>
<event>
 4      1 +6.0853000e-08 1.94300500e+03 7.81860800e-03 8.09536200e-02
        2 -1    0    0  501    0 +0.0000000000e+00 +0.0000000000e+00 +1.6065744281e+03 1.6065744281e+03 0.0000000000e+00 0.0000e+00 1.0000e+00
       -2 -1    0    0    0  501 -0.0000000000e+00 -0.0000000000e+00 -5.8747197540e+02 5.8747197540e+02 0.0000000000e+00 0.0000e+00 -1.0000e+00
      -13  1    1    2    0    0 +1.6990105757e+02 +5.5848394687e+02 -3.6734319422e+02 6.8971857349e+02 0.0000000000e+00 0.0000e+00 -1.0000e+00
       13  1    1    2    0    0 -1.6990105757e+02 -5.5848394687e+02 +1.3864456469e+03 1.5043278300e+03 0.0000000000e+00 0.0000e+00 1.0000e+00
<mgrwt>
<rscale>  0 0.19430054E+04</rscale>
<asrwt>0</asrwt>
<pdfrwt beam="1">  1        2 0.24716530E+00 0.19430054E+04</pdfrwt>
<pdfrwt beam="2">  1       -2 0.90380304E-01 0.19430054E+04</pdfrwt>
<totfact> 0.13845581E+01</totfact>
</mgrwt>
<rwgt>
<wgt id='morphing_basis_vector_1'> +1.2187450e-04 </wgt>
<wgt id='morphing_basis_vector_2'> +8.1123116e-05 </wgt>
<wgt id='morphing_basis_vector_3'> +1.2980631e-04 </wgt>
<wgt id='morphing_basis_vector_4'> +9.0186157e-05 </wgt>
<wgt id='morphing_basis_vector_5'> +1.4382551e-04 </wgt>
</rwgt>
</event>
<event>
 4      1 +6.0853000e-08 1.92916600e+03 7.81860800e-03 8.10127100e-02
        2 -1    0    0  501    0 +0.0000000000e+00 +0.0000000000e+00 +5.9259373523e+02 5.9259373523e+02 0.0000000000e+00 0.0000e+00 -1.0000e+00
       -2 -1    0    0    0  501 -0.0000000000e+00 -0.0000000000e+00 -1.5700813574e+03 1.5700813574e+03 0.0000000000e+00 0.0000e+00 1.0000e+00
      -13  1    1    2    0    0 +2.2445101530e+02 +8.6941610480e+02 -8.8375427592e+02 1.2598746929e+03 0.0000000000e+00 0.0000e+00 1.0000e+00
       13  1    1    2    0    0 -2.2445101530e+02 -8.6941610480e+02 -9.3733346219e+01 9.0280039972e+02 0.0000000000e+00 0.0000e+00 -1.0000e+00
<mgrwt>
<rscale>  0 0.19291660E+04</rscale>
<asrwt>0</asrwt>
<pdfrwt beam="1">  1        2 0.91168267E-01 0.19291660E+04</pdfrwt>
<pdfrwt beam="2">  1       -2 0.24155098E+00 0.19291660E+04</pdfrwt>
<totfact> 0.34321336E+00</totfact>
</mgrwt>
<rwgt>
<wgt id='morphing_basis_vector_1'> +1.1946651e-04 </wgt>
<wgt id='morphing_basis_vector_2'> +8.1684908e-05 </wgt>
<wgt id='morphing_basis_vector_3'> +1.2752970e-04 </wgt>
<wgt id='morphing_basis_vector_4'> +8.5704442e-05 </wgt>
<wgt id='morphing_basis_vector_5'> +1.3953727e-04 </wgt>
</rwgt>
</event>
<event>
 4      1 +6.0853000e-08 1.86817800e+03 7.81860800e-03 8.12793900e-02
        2 -1    0    0  501    0 +0.0000000000e+00 +0.0000000000e+00 +9.6827400406e+02 9.6827400406e+02 0.0000000000e+00 0.0000e+00 -1.0000e+00
       -2 -1    0    0    0  501 -0.0000000000e+00 -0.0000000000e+00 -9.0111069252e+02 9.0111069252e+02 0.0000000000e+00 0.0000e+00 1.0000e+00
      -13  1    1    2    0    0 +7.6029298988e+02 -5.3403063390e+02 -6.2854408437e+01 9.3122759037e+02 0.0000000000e+00 0.0000e+00 1.0000e+00
       13  1    1    2    0    0 -7.6029298988e+02 +5.3403063390e+02 +1.3001771998e+02 9.3815710620e+02 0.0000000000e+00 0.0000e+00 -1.0000e+00
<mgrwt>
<rscale>  0 0.18681778E+04</rscale>
<asrwt>0</asrwt>
<pdfrwt beam="1">  1        2 0.14896523E+00 0.18681778E+04</pdfrwt>
<pdfrwt beam="2">  1       -2 0.13863241E+00 0.18681778E+04</pdfrwt>
<totfact> 0.11087586E+01</totfact>
</mgrwt>
<rwgt>
<wgt id='morphing_basis_vector_1'> +1.0707809e-04 </wgt>
<wgt id='morphing_basis_vector_2'> +7.7012968e-05 </wgt>
<wgt id='morphing_basis_vector_3'> +1.1461945e-04 </wgt>
<wgt id='morphing_basis_vector_4'> +7.1789384e-05 </wgt>
<wgt id='morphing_basis_vector_5'> +1.2209586e-04 </wgt>
</rwgt>
</event>
<event>
 4      1 +6.0853000e-08 1.89807200e+03 7.81860800e-03 8.11473600e-02
        2 -1    0    0  501    0 +0.0000000000e+00 +0.0000000000e+00 +1.3401434535e+03 1.3401434535e+03 0.0000000000e+00 0.0000e+00 -1.0000e+00
       -2 -1    0    0    0  501 -0.0000000000e+00 -0.0000000000e+00 -6.7206953749e+02 6.7206953749e+02 0.0000000000e+00 0.0000e+00 1.0000e+00
      -13  1    1    2    0    0 -6.1310040219e+02 -2.4522639749e+02 -3.8860005487e+02 7.6618411093e+02 0.0000000000e+00 0.0000e+00 1.0000e+00
       13  1    1    2    0    0 +6.1310040219e+02 +2.4522639749e+02 +1.0566739709e+03 1.2460288801e+03 0.0000000000e+00 0.0000e+00 -1.0000e+00
<mgrwt>
<rscale>  0 0.18980723E+04</rscale>
<asrwt>0</asrwt>
<pdfrwt beam="1">  1        2 0.20617592E+00 0.18980723E+04</pdfrwt>
<pdfrwt beam="2">  1       -2 0.10339531E+00 0.18980723E+04</pdfrwt>
<totfact> 0.14236190E+01</totfact>
</mgrwt>
<rwgt>
<wgt id='morphing_basis_vector_1'> +1.1127815e-04 </wgt>
<wgt id='morphing_basis_vector_2'> +7.4131854e-05 </wgt>
<wgt id='morphing_basis_vector_3'> +1.1832282e-04 </wgt>
<wgt id='morphing_basis_vector_4'> +8.1838422e-05 </wgt>
<wgt id='morphing_basis_vector_5'> +1.3069757e-04 </wgt>
</rwgt>
</event>
<event>
 4      1 +6.0853000e-08 2.12820800e+03 7.81860800e-03 8.02089900e-02
        2 -1    0    0  501    0 +0.0000000000e+00 +0.0000000000e+00 +1.2402129198e+03 1.2402129198e+03 0.0000000000e+00 0.0000e+00 -1.0000e+00
       -2 -1    0    0    0  501 -0.0000000000e+00 -0.0000000000e+00 -9.1300235505e+02 9.1300235505e+02 0.0000000000e+00 0.0000e+00 1.0000e+00
      -13  1    1    2    0    0 +7.0227089475e+02 +1.1461134747e+02 -6.3689144073e+02 9.5496119181e+02 0.0000000000e+00 0.0000e+00 1.0000e+00
       13  1    1    2    0    0 -7.0227089475e+02 -1.1461134747e+02 +9.6410200551e+02 1.1982540831e+03 0.0000000000e+00 0.0000e+00 -1.0000e+00
<mgrwt>
<rscale>  0 0.21282080E+04</rscale>
<asrwt>0</asrwt>
<pdfrwt beam="1">  1        2 0.19080199E+00 0.21282080E+04</pdfrwt>
<pdfrwt beam="2">  1       -2 0.14046190E+00 0.21282080E+04</pdfrwt>
<totfact> 0.71740949E+00</totfact>
</mgrwt>
<rwgt>
<wgt id='morphing_basis_vector_1'> +1.7423640e-04 </wgt>
<wgt id='morphing_basis_vector_2'> +1.1660440e-04 </wgt>
<wgt id='morphing_basis_vector_3'> +1.8681919e-04 </wgt>
<wgt id='morphing_basis_vector_4'> +1.3057264e-04 </wgt>
<wgt id='morphing_basis_vector_5'> +2.0847831e-04 </wgt>
</rwgt>
</event>
<event>
 4      1 +6.0853000e-08 1.92087700e+03 7.81860800e-03 8.10483400e-02
        2 -1    0    0  501    0 +0.0000000000e+00 +0.0000000000e+00 +1.9889426755e+03 1.9889426755e+03 0.0000000000e+00 0.0000e+00 1.0000e+00
       -2 -1    0    0    0  501 -0.0000000000e+00 -0.0000000000e+00 -4.6378524734e+02 4.6378524734e+02 0.0000000000e+00 0.0000e+00 -1.0000e+00
      -13  1    1    2    0    0 +3.1247148827e+02 +7.3351807623e+02 +7.8816125141e+01 8.0118610867e+02 0.0000000000e+00 0.0000e+00 -1.0000e+00
       13  1    1    2    0    0 -3.1247148827e+02 -7.3351807623e+02 +1.4463413031e+03 1.6515418142e+03 0.0000000000e+00 0.0000e+00 1.0000e+00
<mgrwt>
<rscale>  0 0.19208772E+04</rscale>
<asrwt>0</asrwt>
<pdfrwt beam="1">  1        2 0.30599117E+00 0.19208772E+04</pdfrwt>
<pdfrwt beam="2">  1       -2 0.71351578E-01 0.19208772E+04</pdfrwt>
<totfact> 0.14483498E+01</totfact>
</mgrwt>
<rwgt>
<wgt id='morphing_basis_vector_1'> +1.1685115e-04 </wgt>
<wgt id='morphing_basis_vector_2'> +7.8468401e-05 </wgt>
<wgt id='morphing_basis_vector_3'> +1.2446316e-04 </wgt>
<wgt id='morphing_basis_vector_4'> +8.5434401e-05 </wgt>
<wgt id='morphing_basis_vector_5'> +1.3719914e-04 </wgt>
</rwgt>
</event>
<event>
 4      1 +6.0853000e-08 2.04085300e+03 7.81860800e-03 8.05499800e-02
        2 -1    0    0  501    0 +0.0000000000e+00 +0.0000000000e+00 +2.2680072274e+03 2.2680072274e+03 0.0000000000e+00 0.0000e+00 1.0000e+00
       -2 -1    0    0    0  501 -0.0000000000e+00 -0.0000000000e+00 -4.5911233945e+02 4.5911233945e+02 0.0000000000e+00 0.0000e+00 -1.0000e+00
      -13  1    1    2    0    0 -7.6850366254e+02 +1.5040450323e+02 +3.0188478008e+01 7.8366493997e+02 0.0000000000e+00 0.0000e+00 -1.0000e+00
       13  1    1    2    0    0 +7.6850366254e+02 -1.5040450323e+02 +1.7787064099e+03 1.9434546268e+03 0.0000000000e+00 0.0000e+00 1.0000e+00
<mgrwt>
<rscale>  0 0.20408529E+04</rscale>
<asrwt>0</asrwt>
<pdfrwt beam="1">  1        2 0.34892418E+00 0.20408529E+04</pdfrwt>
<pdfrwt beam="2">  1       -2 0.70632669E-01 0.20408529E+04</pdfrwt>
<totfact> 0.10165320E+01</totfact>
</mgrwt>
<rwgt>
<wgt id='morphing_basis_vector_1'> +1.4795963e-04 </wgt>
<wgt id='morphing_basis_vector_2'> +9.9196966e-05 </wgt>
<wgt id='morphing_basis_vector_3'> +1.5825129e-04 </wgt>
<wgt id='morphing_basis_vector_4'> +1.0977638e-04 </wgt>
<wgt id='morphing_basis_vector_5'> +1.7572798e-04 </wgt>
</rwgt>
</event>
<event>
 4      1 +6.0853000e-08 1.97192500e+03 7.81860800e-03 8.08317900e-02
        2 -1    0    0  501    0 +0.0000000000e+00 +0.0000000000e+00 +7.3534768408e+02 7.3534768408e+02 0.0000000000e+00 0.0000e+00 -1.0000e+00
       -2 -1    0    0    0  501 -0.0000000000e+00 -0.0000000000e+00 -1.3219902662e+03 1.3219902662e+03 0.0000000000e+00 0.0000e+00 1.0000e+00
      -13  1    1    2    0    0 +2.0883210480e+02 +6.9217111802e+02 -9.9273942687e+02 1.2281055632e+03 0.0000000000e+00 0.0000e+00 1.0000e+00
       13  1    1    2    0    0 -2.0883210480e+02 -6.9217111802e+02 +4.0609684471e+02 8.2923238715e+02 0.0000000000e+00 0.0000e+00 -1.0000e+00
<mgrwt>
<rscale>  0 0.19719254E+04</rscale>
<asrwt>0</asrwt>
<pdfrwt beam="1">  1        2 0.11313041E+00 0.19719254E+04</pdfrwt>
<pdfrwt beam="2">  1       -2 0.20338312E+00 0.19719254E+04</pdfrwt>
<totfact> 0.49154187E+00</totfact>
</mgrwt>
<rwgt>
<wgt id='morphing_basis_vector_1'> +1.2925756e-04 </wgt>
<wgt id='morphing_basis_vector_2'> +8.6384546e-05 </wgt>
<wgt id='morphing_basis_vector_3'> +1.3787455e-04 </wgt>
<wgt id='morphing_basis_vector_4'> +9.5545035e-05 </wgt>
<wgt id='morphing_basis_vector_5'> +1.5275212e-04 </wgt>
</rwgt>
</event>
<event>
 4      1 +6.0853000e-08 1.93347200e+03 7.81860800e-03 8.09942700e-02
        2 -1    0    0  501    0 +0.0000000000e+00 +0.0000000000e+00 +2.9739088414e+03 2.9739088414e+03 0.0000000000e+00 0.0000e+00 -1.0000e+00
       -2 -1    0    0    0  501 -0.0000000000e+00 -0.0000000000e+00 -3.1425914763e+02 3.1425914763e+02 0.0000000000e+00 0.0000e+00 1.0000e+00
      -13  1    1    2    0    0 -5.2768365051e+02 -7.0505323218e+02 +6.5163238471e+02 1.0955249244e+03 0.0000000000e+00 0.0000e+00 1.0000e+00
       13  1    1    2    0    0 +5.2768365051e+02 +7.0505323218e+02 +2.0080173090e+03 2.1926430646e+03 0.0000000000e+00 0.0000e+00 -1.0000e+00
<mgrwt>
<rscale>  0 0.19334715E+04</rscale>
<asrwt>0</asrwt>
<pdfrwt beam="1">  1        2 0.45752442E+00 0.19334715E+04</pdfrwt>
<pdfrwt beam="2">  1       -2 0.48347563E-01 0.19334715E+04</pdfrwt>
<totfact> 0.82850799E+00</totfact>
</mgrwt>
<rwgt>
<wgt id='morphing_basis_vector_1'> +1.2031306e-04 </wgt>
<wgt id='morphing_basis_vector_2'> +8.1815983e-05 </wgt>
<wgt id='morphing_basis_vector_3'> +1.2838165e-04 </wgt>
<wgt id='morphing_basis_vector_4'> +8.6884449e-05 </wgt>
<wgt id='morphing_basis_vector_5'> +1.4084535e-04 </wgt>
</rwgt>
</event>
<event>
 4      1 +6.0853000e-08 1.91996900e+03 7.81860800e-03 8.10522600e-02
        2 -1    0    0  501    0 +0.0000000000e+00 +0.0000000000e+00 +4.4674813326e+03 4.4674813326e+03 0.0000000000e+00 0.0000e+00 -1.0000e+00
       -2 -1    0    0    0  501 -0.0000000000e+00 -0.0000000000e+00 -2.0628410906e+02 2.0628410906e+02 0.0000000000e+00 0.0000e+00 1.0000e+00
      -13  1    1    2    0    0 +1.5357931928e+01 -7.8587540183e+02 +7.8900913479e+02 1.1137196362e+03 0.0000000000e+00 0.0000e+00 1.0000e+00
       13  1    1    2    0    0 -1.5357931928e+01 +7.8587540183e+02 +3.4721880887e+03 3.5600458054e+03 0.0000000000e+00 0.0000e+00 -1.0000e+00
<mgrwt>
<rscale>  0 0.19199692E+04</rscale>
<asrwt>0</asrwt>
<pdfrwt beam="1">  1        2 0.68730475E+00 0.19199692E+04</pdfrwt>
<pdfrwt beam="2">  1       -2 0.31736020E-01 0.19199692E+04</pdfrwt>
<totfact> 0.11977295E+00</totfact>
</mgrwt>
<rwgt>
<wgt id='morphing_basis_vector_1'> +1.1660049e-04 </wgt>
<wgt id='morphing_basis_vector_2'> +7.8218741e-05 </wgt>
<wgt id='morphing_basis_vector_3'> +1.2417845e-04 </wgt>
<wgt id='morphing_basis_vector_4'> +8.5338123e-05 </wgt>
<wgt id='morphing_basis_vector_5'> +1.3693961e-04 </wgt>
</rwgt>
</event>
<event>
 4      1 +6.0853000e-08 1.87067900e+03 7.81860800e-03 8.12682400e-02
        2 -1    0    0  501    0 +0.0000000000e+00 +0.0000000000e+00 +9.4967262885e+02 9.4967262885e+02 0.0000000000e+00 0.0000e+00 1.0000e+00
       -2 -1    0    0    0  501 -0.0000000000e+00 -0.0000000000e+00 -9.2122247165e+02 9.2122247165e+02 0.0000000000e+00 0.0000e+00 -1.0000e+00
      -13  1    1    2    0    0 -6.6134759101e+02 -2.6592980264e+02 +6.1990263399e+02 9.4465791253e+02 0.0000000000e+00 0.0000e+00 1.0000e+00
       13  1    1    2    0    0 +6.6134759101e+02 +2.6592980264e+02 -5.9145247680e+02 9.2623718797e+02 0.0000000000e+00 0.0000e+00 -1.0000e+00
<mgrwt>
<rscale>  0 0.18706788E+04</rscale>
<asrwt>0</asrwt>
<pdfrwt beam="1">  1        2 0.14610348E+00 0.18706788E+04</pdfrwt>
<pdfrwt beam="2">  1       -2 0.14172653E+00 0.18706788E+04</pdfrwt>
<totfact> 0.10715069E+01</totfact>
</mgrwt>
<rwgt>
<wgt id='morphing_basis_vector_1'> +1.3240870e-04 </wgt>
<wgt id='morphing_basis_vector_2'> +1.5085359e-04 </wgt>
<wgt id='morphing_basis_vector_3'> +1.5061133e-04 </wgt>
<wgt id='morphing_basis_vector_4'> +2.3475053e-05 </wgt>
<wgt id='morphing_basis_vector_5'> +1.1896434e-04 </wgt>
</rwgt>
</event>
<event>
 4      1 +6.0853000e-08 2.06606400e+03 7.81860800e-03 8.04497700e-02
        2 -1    0    0  501    0 +0.0000000000e+00 +0.0000000000e+00 +9.6287436841e+02 9.6287436841e+02 0.0000000000e+00 0.0000e+00 -1.0000e+00
       -2 -1    0    0    0  501 -0.0000000000e+00 -0.0000000000e+00 -1.1083019896e+03 1.1083019896e+03 0.0000000000e+00 0.0000e+00 1.0000e+00
      -13  1    1    2    0    0 -2.7333925838e+02 -9.5544463457e+02 +2.1005994629e+02 1.0157332233e+03 0.0000000000e+00 0.0000e+00 1.0000e+00
       13  1    1    2    0    0 +2.7333925838e+02 +9.5544463457e+02 -3.5548756746e+02 1.0554431347e+03 0.0000000000e+00 0.0000e+00 -1.0000e+00
<mgrwt>
<rscale>  0 0.20660645E+04</rscale>
<asrwt>0</asrwt>
<pdfrwt beam="1">  1        2 0.14813452E+00 0.20660645E+04</pdfrwt>
<pdfrwt beam="2">  1       -2 0.17050800E+00 0.20660645E+04</pdfrwt>
<totfact> 0.60335172E+00</totfact>
</mgrwt>
<rwgt>
<wgt id='morphing_basis_vector_1'> +1.6939902e-04 </wgt>
<wgt id='morphing_basis_vector_2'> +1.4598332e-04 </wgt>
<wgt id='morphing_basis_vector_3'> +1.8695894e-04 </wgt>
<wgt id='morphing_basis_vector_4'> +8.7131144e-05 </wgt>
<wgt id='morphing_basis_vector_5'> +1.8250496e-04 </wgt>
</rwgt>
</event>
<event>
 4      1 +6.0853000e-08 2.22423800e+03 7.81860800e-03 7.98531700e-02
        2 -1    0    0  501    0 +0.0000000000e+00 +0.0000000000e+00 +1.3912253038e+03 1.3912253038e+03 0.0000000000e+00 0.0000e+00 -1.0000e+00
       -2 -1    0    0    0  501 -0.0000000000e+00 -0.0000000000e+00 -8.8900684937e+02 8.8900684937e+02 0.0000000000e+00 0.0000e+00 1.0000e+00
      -13  1    1    2    0    0 -6.9247944039e+02 -6.1901998815e+02 +8.7814007882e+02 1.2782188855e+03 0.0000000000e+00 0.0000e+00 1.0000e+00
       13  1    1    2    0    0 +6.9247944039e+02 +6.1901998815e+02 -3.7592162435e+02 1.0020132678e+03 0.0000000000e+00 0.0000e+00 -1.0000e+00
<mgrwt>
<rscale>  0 0.22242381E+04</rscale>
<asrwt>0</asrwt>
<pdfrwt beam="1">  1        2 0.21403466E+00 0.22242381E+04</pdfrwt>
<pdfrwt beam="2">  1       -2 0.13677028E+00 0.22242381E+04</pdfrwt>
<totfact> 0.62768166E+00</totfact>
</mgrwt>
<rwgt>
<wgt id='morphing_basis_vector_1'> +2.5042985e-04 </wgt>
<wgt id='morphing_basis_vector_2'> +2.6656033e-04 </wgt>
<wgt id='morphing_basis_vector_3'> +2.8730526e-04 </wgt>
<wgt id='morphing_basis_vector_4'> +6.8963442e-05 </wgt>
<wgt id='morphing_basis_vector_5'> +2.4249177e-04 </wgt>
</rwgt>
</event>
<event>
 4      1 +6.0853000e-08 2.17807100e+03 7.81860800e-03 8.00218600e-02
        2 -1    0    0  501    0 +0.0000000000e+00 +0.0000000000e+00 +1.5762892054e+03 1.5762892054e+03 0.0000000000e+00 0.0000e+00 -1.0000e+00
       -2 -1    0    0    0  501 -0.0000000000e+00 -0.0000000000e+00 -7.5239875968e+02 7.5239875968e+02 0.0000000000e+00 0.0000e+00 1.0000e+00
      -13  1    1    2    0    0 +2.9772692271e+02 +3.0134610911e+02 -6.6070073146e+02 7.8484154740e+02 0.0000000000e+00 0.0000e+00 1.0000e+00
       13  1    1    2    0    0 -2.9772692271e+02 -3.0134610911e+02 +1.4845911772e+03 1.5438464177e+03 0.0000000000e+00 0.0000e+00 -1.0000e+00
<mgrwt>
<rscale>  0 0.21780707E+04</rscale>
<asrwt>0</asrwt>
<pdfrwt beam="1">  1        2 0.24250603E+00 0.21780707E+04</pdfrwt>
<pdfrwt beam="2">  1       -2 0.11575366E+00 0.21780707E+04</pdfrwt>
<totfact> 0.77161215E+00</totfact>
</mgrwt>
<rwgt>
<wgt id='morphing_basis_vector_1'> +1.9068494e-04 </wgt>
<wgt id='morphing_basis_vector_2'> +1.2737977e-04 </wgt>
<wgt id='morphing_basis_vector_3'> +2.0469690e-04 </wgt>
<wgt id='morphing_basis_vector_4'> +1.4378029e-04 </wgt>
<wgt id='morphing_basis_vector_5'> +2.2910649e-04 </wgt>
</rwgt>
</event>
<event>
 4      1 +6.0853000e-08 1.89620100e+03 7.81860800e-03 8.11555500e-02
        2 -1    0    0  501    0 +0.0000000000e+00 +0.0000000000e+00 +1.5301020777e+03 1.5301020777e+03 0.0000000000e+00 0.0000e+00 -1.0000e+00
       -2 -1    0    0    0  501 -0.0000000000e+00 -0.0000000000e+00 -5.8747353292e+02 5.8747353292e+02 0.0000000000e+00 0.0000e+00 1.0000e+00
      -13  1    1    2    0    0 +3.2629506374e+02 -8.3001635623e+02 +1.1204312239e+02 8.9885998993e+02 0.0000000000e+00 0.0000e+00 1.0000e+00
       13  1    1    2    0    0 -3.2629506374e+02 +8.3001635623e+02 +8.3058542241e+02 1.2187156207e+03 0.0000000000e+00 0.0000e+00 -1.0000e+00
<mgrwt>
<rscale>  0 0.18962009E+04</rscale>
<asrwt>0</asrwt>
<pdfrwt beam="1">  1        2 0.23540032E+00 0.18962009E+04</pdfrwt>
<pdfrwt beam="2">  1       -2 0.90380544E-01 0.18962009E+04</pdfrwt>
<totfact> 0.15336758E+01</totfact>
</mgrwt>
<rwgt>
<wgt id='morphing_basis_vector_1'> +1.1179337e-04 </wgt>
<wgt id='morphing_basis_vector_2'> +7.6639468e-05 </wgt>
<wgt id='morphing_basis_vector_3'> +1.1921102e-04 </wgt>
<wgt id='morphing_basis_vector_4'> +7.9648901e-05 </wgt>
<wgt id='morphing_basis_vector_5'> +1.3002582e-04 </wgt>
</rwgt>
</event>
<event>
 4      1 +6.0853000e-08 2.20726500e+03 7.81860800e-03 7.99146900e-02
        2 -1    0    0  501    0 +0.0000000000e+00 +0.0000000000e+00 +1.2584099995e+03 1.2584099995e+03 0.0000000000e+00 0.0000e+00 1.0000e+00
       -2 -1    0    0    0  501 -0.0000000000e+00 -0.0000000000e+00 -9.6789183116e+02 9.6789183116e+02 0.0000000000e+00 0.0000e+00 -1.0000e+00
      -13  1    1    2    0    0 +6.6738037526e+01 -1.0373756306e+03 -2.2861642836e+02 1.0643625491e+03 0.0000000000e+00 0.0000e+00 -1.0000e+00
       13  1    1    2    0    0 -6.6738037526e+01 +1.0373756306e+03 +5.1913459667e+02 1.1619392816e+03 0.0000000000e+00 0.0000e+00 1.0000e+00
<mgrwt>
<rscale>  0 0.22072651E+04</rscale>
<asrwt>0</asrwt>
<pdfrwt beam="1">  1        2 0.19360154E+00 0.22072651E+04</pdfrwt>
<pdfrwt beam="2">  1       -2 0.14890644E+00 0.22072651E+04</pdfrwt>
<totfact> 0.59044132E+00</totfact>
</mgrwt>
<rwgt>
<wgt id='morphing_basis_vector_1'> +2.0288642e-04 </wgt>
<wgt id='morphing_basis_vector_2'> +1.4006466e-04 </wgt>
<wgt id='morphing_basis_vector_3'> +2.1878675e-04 </wgt>
<wgt id='morphing_basis_vector_4'> +1.4783700e-04 </wgt>
<wgt id='morphing_basis_vector_5'> +2.4153939e-04 </wgt>
</rwgt>
</event>
<event>
 4      1 +6.0853000e-08 1.97866400e+03 7.81860800e-03 8.08037100e-02
        2 -1    0    0  501    0 +0.0000000000e+00 +0.0000000000e+00 +1.6695522116e+03 1.6695522116e+03 0.0000000000e+00 0.0000e+00 1.0000e+00
       -2 -1    0    0    0  501 -0.0000000000e+00 -0.0000000000e+00 -5.8625161148e+02 5.8625161148e+02 0.0000000000e+00 0.0000e+00 -1.0000e+00
      -13  1    1    2    0    0 -3.3648827708e+02 -2.1808454310e+02 -4.8945721427e+02 6.3273501022e+02 0.0000000000e+00 0.0000e+00 -1.0000e+00
       13  1    1    2    0    0 +3.3648827708e+02 +2.1808454310e+02 +1.5727578144e+03 1.6230688129e+03 0.0000000000e+00 0.0000e+00 1.0000e+00
<mgrwt>
<rscale>  0 0.19786639E+04</rscale>
<asrwt>0</asrwt>
<pdfrwt beam="1">  1        2 0.25685418E+00 0.19786639E+04</pdfrwt>
<pdfrwt beam="2">  1       -2 0.90192556E-01 0.19786639E+04</pdfrwt>
<totfact> 0.12794661E+01</totfact>
</mgrwt>
<rwgt>
<wgt id='morphing_basis_vector_1'> +1.3081522e-04 </wgt>
<wgt id='morphing_basis_vector_2'> +8.7024197e-05 </wgt>
<wgt id='morphing_basis_vector_3'> +1.3950255e-04 </wgt>
<wgt id='morphing_basis_vector_4'> +9.7244048e-05 </wgt>
<wgt id='morphing_basis_vector_5'> +1.5492281e-04 </wgt>
</rwgt>
</event>
<event>
 4      1 +6.0853000e-08 2.22481300e+03 7.81860800e-03 7.98510900e-02
        2 -1    0    0  501    0 +0.0000000000e+00 +0.0000000000e+00 +2.1291439232e+03 2.1291439232e+03 0.0000000000e+00 0.0000e+00 -1.0000e+00
       -2 -1    0    0    0  501 -0.0000000000e+00 -0.0000000000e+00 -5.8119514886e+02 5.8119514886e+02 0.0000000000e+00 0.0000e+00 1.0000e+00
      -13  1    1    2    0    0 +1.0913885899e+03 +1.0955330748e+02 +9.9965053547e+02 1.4840593568e+03 0.0000000000e+00 0.0000e+00 1.0000e+00
       13  1    1    2    0    0 -1.0913885899e+03 -1.0955330748e+02 +5.4829823891e+02 1.2262797153e+03 0.0000000000e+00 0.0000e+00 -1.0000e+00
<mgrwt>
<rscale>  0 0.22248129E+04</rscale>
<asrwt>0</asrwt>
<pdfrwt beam="1">  1        2 0.32756060E+00 0.22248129E+04</pdfrwt>
<pdfrwt beam="2">  1       -2 0.89414639E-01 0.22248129E+04</pdfrwt>
<totfact> 0.70634276E+00</totfact>
</mgrwt>
<rwgt>
<wgt id='morphing_basis_vector_1'> +2.2086078e-04 </wgt>
<wgt id='morphing_basis_vector_2'> +1.7868812e-04 </wgt>
<wgt id='morphing_basis_vector_3'> +2.4307415e-04 </wgt>
<wgt id='morphing_basis_vector_4'> +1.2931646e-04 </wgt>
<wgt id='morphing_basis_vector_5'> +2.4757183e-04 </wgt>
</rwgt>
</event>
<event>
 4      1 +6.0853000e-08 1.86561700e+03 7.81860800e-03 8.12908200e-02
        2 -1    0    0  501    0 +0.0000000000e+00 +0.0000000000e+00 +4.2457700066e+03 4.2457700066e+03 0.0000000000e+00 0.0000e+00 -1.0000e+00
       -2 -1    0    0    0  501 -0.0000000000e+00 -0.0000000000e+00 -2.0494083181e+02 2.0494083181e+02 0.0000000000e+00 0.0000e+00 1.0000e+00
      -13  1    1    2    0    0 -7.1660958501e+02 +5.3281760828e+02 +1.3771387866e+03 1.6413211564e+03 0.0000000000e+00 0.0000e+00 1.0000e+00
       13  1    1    2    0    0 +7.1660958501e+02 -5.3281760828e+02 +2.6636903882e+03 2.8093896820e+03 0.0000000000e+00 0.0000e+00 -1.0000e+00
<mgrwt>
<rscale>  0 0.18656169E+04</rscale>
<asrwt>0</asrwt>
<pdfrwt beam="1">  1        2 0.65319532E+00 0.18656169E+04</pdfrwt>
<pdfrwt beam="2">  1       -2 0.31529362E-01 0.18656169E+04</pdfrwt>
<totfact> 0.19950494E+00</totfact>
</mgrwt>
<rwgt>
<wgt id='morphing_basis_vector_1'> +1.0514998e-04 </wgt>
<wgt id='morphing_basis_vector_2'> +7.2577085e-05 </wgt>
<wgt id='morphing_basis_vector_3'> +1.1205774e-04 </wgt>
<wgt id='morphing_basis_vector_4'> +7.4052422e-05 </wgt>
<wgt id='morphing_basis_vector_5'> +1.2162029e-04 </wgt>
</rwgt>
</event>
<event>
 4      1 +6.0853000e-08 2.02496200e+03 7.81860800e-03 8.06139100e-02
        2 -1    0    0  501    0 +0.0000000000e+00 +0.0000000000e+00 +2.2238362959e+03 2.2238362959e+03 0.0000000000e+00 0.0000e+00 -1.0000e+00
       -2 -1    0    0    0  501 -0.0000000000e+00 -0.0000000000e+00 -4.6096813402e+02 4.6096813402e+02 0.0000000000e+00 0.0000e+00 1.0000e+00
      -13  1    1    2    0    0 -7.6285964223e+02 +1.2406091212e+02 +1.4268887234e+01 7.7301328889e+02 0.0000000000e+00 0.0000e+00 1.0000e+00
       13  1    1    2    0    0 +7.6285964223e+02 -1.2406091212e+02 +1.7485992747e+03 1.9117911411e+03 0.0000000000e+00 0.0000e+00 -1.0000e+00
<mgrwt>
<rscale>  0 0.20249619E+04</rscale>
<asrwt>0</asrwt>
<pdfrwt beam="1">  1        2 0.34212866E+00 0.20249619E+04</pdfrwt>
<pdfrwt beam="2">  1       -2 0.70918176E-01 0.20249619E+04</pdfrwt>
<totfact> 0.10699759E+01</totfact>
</mgrwt>
<rwgt>
<wgt id='morphing_basis_vector_1'> +1.4348367e-04 </wgt>
<wgt id='morphing_basis_vector_2'> +9.6141934e-05 </wgt>
<wgt id='morphing_basis_vector_3'> +1.5337403e-04 </wgt>
<wgt id='morphing_basis_vector_4'> +1.0635215e-04 </wgt>
<wgt id='morphing_basis_vector_5'> +1.7021604e-04 </wgt>
</rwgt>
</event>
<event>
 4      1 +6.0853000e-08 1.98143800e+03 7.81860800e-03 8.07921900e-02
        2 -1    0    0  501    0 +0.0000000000e+00 +0.0000000000e+00 +1.6110183980e+03 1.6110183980e+03 0.0000000000e+00 0.0000e+00 -1.0000e+00
       -2 -1    0    0    0  501 -0.0000000000e+00 -0.0000000000e+00 -6.0925708219e+02 6.0925708219e+02 0.0000000000e+00 0.0000e+00 1.0000e+00
      -13  1    1    2    0    0 -1.5400107149e+02 -9.6859182354e+02 +6.5790755293e+02 1.1809863669e+03 0.0000000000e+00 0.0000e+00 1.0000e+00
       13  1    1    2    0    0 +1.5400107149e+02 +9.6859182354e+02 +3.4385376284e+02 1.0392891132e+03 0.0000000000e+00 0.0000e+00 -1.0000e+00
<mgrwt>
<rscale>  0 0.19814382E+04</rscale>
<asrwt>0</asrwt>
<pdfrwt beam="1">  1        2 0.24784898E+00 0.19814382E+04</pdfrwt>
<pdfrwt beam="2">  1       -2 0.93731859E-01 0.19814382E+04</pdfrwt>
<totfact> 0.12598230E+01</totfact>
</mgrwt>
<rwgt>
<wgt id='morphing_basis_vector_1'> +1.3942522e-04 </wgt>
<wgt id='morphing_basis_vector_2'> +1.1087355e-04 </wgt>
<wgt id='morphing_basis_vector_3'> +1.5174256e-04 </wgt>
<wgt id='morphing_basis_vector_4'> +8.2127018e-05 </wgt>
<wgt id='morphing_basis_vector_5'> +1.5457641e-04 </wgt>
</rwgt>
</event>
<event>
 4      1 +6.0853000e-08 2.02800400e+03 7.81860800e-03 8.06016200e-02
        2 -1    0    0  501    0 +0.0000000000e+00 +0.0000000000e+00 +1.3741469880e+03 1.3741469880e+03 0.0000000000e+00 0.0000e+00 -1.0000e+00
       -2 -1    0    0    0  501 -0.0000000000e+00 -0.0000000000e+00 -7.4824628039e+02 7.4824628039e+02 0.0000000000e+00 0.0000e+00 1.0000e+00
      -13  1    1    2    0    0 -1.4835227367e+00 -1.0004677169e+03 +1.4015185047e+02 1.0102377911e+03 0.0000000000e+00 0.0000e+00 1.0000e+00
       13  1    1    2    0    0 +1.4835227367e+00 +1.0004677169e+03 +4.8574885716e+02 1.1121554773e+03 0.0000000000e+00 0.0000e+00 -1.0000e+00
<mgrwt>
<rscale>  0 0.20280043E+04</rscale>
<asrwt>0</asrwt>
<pdfrwt beam="1">  1        2 0.21140723E+00 0.20280043E+04</pdfrwt>
<pdfrwt beam="2">  1       -2 0.11511481E+00 0.20280043E+04</pdfrwt>
<totfact> 0.10295820E+01</totfact>
</mgrwt>
<rwgt>
<wgt id='morphing_basis_vector_1'> +1.4692931e-04 </wgt>
<wgt id='morphing_basis_vector_2'> +1.0440767e-04 </wgt>
<wgt id='morphing_basis_vector_3'> +1.5809298e-04 </wgt>
<wgt id='morphing_basis_vector_4'> +1.0182314e-04 </wgt>
<wgt id='morphing_basis_vector_5'> +1.7085175e-04 </wgt>
</rwgt>
</event>
<event>
 4      1 +6.0853000e-08 2.14721300e+03 7.81860800e-03 8.01370400e-02
        2 -1    0    0  501    0 +0.0000000000e+00 +0.0000000000e+00 +1.8154301228e+03 1.8154301228e+03 0.0000000000e+00 0.0000e+00 -1.0000e+00
       -2 -1    0    0    0  501 -0.0000000000e+00 -0.0000000000e+00 -6.3490816039e+02 6.3490816039e+02 0.0000000000e+00 0.0000e+00 1.0000e+00
      -13  1    1    2    0    0 +6.2884442844e+02 -7.4517171966e+02 +7.7488664472e+01 9.7812611665e+02 0.0000000000e+00 0.0000e+00 1.0000e+00
       13  1    1    2    0    0 -6.2884442844e+02 +7.4517171966e+02 +1.1030332980e+03 1.4722121666e+03 0.0000000000e+00 0.0000e+00 -1.0000e+00
<mgrwt>
<rscale>  0 0.21472134E+04</rscale>
<asrwt>0</asrwt>
<pdfrwt beam="1">  1        2 0.27929694E+00 0.21472134E+04</pdfrwt>
<pdfrwt beam="2">  1       -2 0.97678179E-01 0.21472134E+04</pdfrwt>
<totfact> 0.86669635E+00</totfact>
</mgrwt>
<rwgt>
<wgt id='morphing_basis_vector_1'> +1.8148055e-04 </wgt>
<wgt id='morphing_basis_vector_2'> +1.2389919e-04 </wgt>
<wgt id='morphing_basis_vector_3'> +1.9512851e-04 </wgt>
<wgt id='morphing_basis_vector_4'> +1.3326946e-04 </wgt>
<wgt id='morphing_basis_vector_5'> +2.1599262e-04 </wgt>
</rwgt>
</event>
<event>
 4      1 +6.0853000e-08 2.02158400e+03 7.81860800e-03 8.06275800e-02
        2 -1    0    0  501    0 +0.0000000000e+00 +0.0000000000e+00 +7.7637301037e+02 7.7637301037e+02 0.0000000000e+00 0.0000e+00 -1.0000e+00
       -2 -1    0    0    0  501 -0.0000000000e+00 -0.0000000000e+00 -1.3159912737e+03 1.3159912737e+03 0.0000000000e+00 0.0000e+00 1.0000e+00
      -13  1    1    2    0    0 +3.9393943256e+02 -8.3749547803e+02 -6.9037732085e+02 1.1546461784e+03 0.0000000000e+00 0.0000e+00 1.0000e+00
       13  1    1    2    0    0 -3.9393943256e+02 +8.3749547803e+02 +1.5075905749e+02 9.3771810565e+02 0.0000000000e+00 0.0000e+00 -1.0000e+00
<mgrwt>
<rscale>  0 0.20215836E+04</rscale>
<asrwt>0</asrwt>
<pdfrwt beam="1">  1        2 0.11944200E+00 0.20215836E+04</pdfrwt>
<pdfrwt beam="2">  1       -2 0.20246019E+00 0.20215836E+04</pdfrwt>
<totfact> 0.46429496E+00</totfact>
</mgrwt>
<rwgt>
<wgt id='morphing_basis_vector_1'> +1.4331157e-04 </wgt>
<wgt id='morphing_basis_vector_2'> +9.7769561e-05 </wgt>
<wgt id='morphing_basis_vector_3'> +1.5347034e-04 </wgt>
<wgt id='morphing_basis_vector_4'> +1.0410757e-04 </wgt>
<wgt id='morphing_basis_vector_5'> +1.6894038e-04 </wgt>
</rwgt>
</event>
<event>
 4      1 +6.0853000e-08 1.96826300e+03 7.81860800e-03 8.08471000e-02
        2 -1    0    0  501    0 +0.0000000000e+00 +0.0000000000e+00 +9.3681302173e+02 9.3681302173e+02 0.0000000000e+00 0.0000e+00 -1.0000e+00
       -2 -1    0    0    0  501 -0.0000000000e+00 -0.0000000000e+00 -1.0338403577e+03 1.0338403577e+03 0.0000000000e+00 0.0000e+00 1.0000e+00
      -13  1    1    2    0    0 +1.7990875637e+02 +7.2202991524e+02 -6.9336155777e+02 1.0170765010e+03 0.0000000000e+00 0.0000e+00 1.0000e+00
       13  1    1    2    0    0 -1.7990875637e+02 -7.2202991524e+02 +5.9633422175e+02 9.5357687847e+02 0.0000000000e+00 0.0000e+00 -1.0000e+00
<mgrwt>
<rscale>  0 0.19682633E+04</rscale>
<asrwt>0</asrwt>
<pdfrwt beam="1">  1        2 0.14412508E+00 0.19682633E+04</pdfrwt>
<pdfrwt beam="2">  1       -2 0.15905236E+00 0.19682633E+04</pdfrwt>
<totfact> 0.77856738E+00</totfact>
</mgrwt>
<rwgt>
<wgt id='morphing_basis_vector_1'> +1.2835761e-04 </wgt>
<wgt id='morphing_basis_vector_2'> +8.5861996e-05 </wgt>
<wgt id='morphing_basis_vector_3'> +1.3690959e-04 </wgt>
<wgt id='morphing_basis_vector_4'> +9.4748236e-05 </wgt>
<wgt id='morphing_basis_vector_5'> +1.5159124e-04 </wgt>
</rwgt>
</event>
<event>
 4      1 +6.0853000e-08 1.87143500e+03 7.81860800e-03 8.12648800e-02
        2 -1    0    0  501    0 +0.0000000000e+00 +0.0000000000e+00 +2.0708528291e+03 2.0708528291e+03 0.0000000000e+00 0.0000e+00 1.0000e+00
       -2 -1    0    0    0  501 -0.0000000000e+00 -0.0000000000e+00 -4.2280501657e+02 4.2280501657e+02 0.0000000000e+00 0.0000e+00 -1.0000e+00
      -13  1    1    2    0    0 +9.2450099720e+02 +1.9905834312e+01 +6.3338718584e+02 1.1208379291e+03 0.0000000000e+00 0.0000e+00 -1.0000e+00
       13  1    1    2    0    0 -9.2450099720e+02 -1.9905834312e+01 +1.0146606267e+03 1.3728199166e+03 0.0000000000e+00 0.0000e+00 1.0000e+00
<mgrwt>
<rscale>  0 0.18714347E+04</rscale>
<asrwt>0</asrwt>
<pdfrwt beam="1">  1        2 0.31859274E+00 0.18714347E+04</pdfrwt>
<pdfrwt beam="2">  1       -2 0.65046927E-01 0.18714347E+04</pdfrwt>
<totfact> 0.15923136E+01</totfact>
</mgrwt>
<rwgt>
<wgt id='morphing_basis_vector_1'> +1.0735534e-04 </wgt>
<wgt id='morphing_basis_vector_2'> +7.6198868e-05 </wgt>
<wgt id='morphing_basis_vector_3'> +1.1477199e-04 </wgt>
<wgt id='morphing_basis_vector_4'> +7.3195558e-05 </wgt>
<wgt id='morphing_basis_vector_5'> +1.2303893e-04 </wgt>
</rwgt>
</event>
<event>
 4      1 +6.0853000e-08 2.00852900e+03 7.81860800e-03 8.06806700e-02
        2 -1    0    0  501    0 +0.0000000000e+00 +0.0000000000e+00 +7.1425219745e+02 7.1425219745e+02 0.0000000000e+00 0.0000e+00 -1.0000e+00
       -2 -1    0    0    0  501 -0.0000000000e+00 -0.0000000000e+00 -1.4120323382e+03 1.4120323382e+03 0.0000000000e+00 0.0000e+00 1.0000e+00
      -13  1    1    2    0    0 +9.3220295935e+02 -3.3822443008e+02 -5.1677213603e+02 1.1182359157e+03 0.0000000000e+00 0.0000e+00 1.0000e+00
       13  1    1    2    0    0 -9.3220295935e+02 +3.3822443008e+02 -1.8100800475e+02 1.0080486200e+03 0.0000000000e+00 0.0000e+00 -1.0000e+00
<mgrwt>
<rscale>  0 0.20085290E+04</rscale>
<asrwt>0</asrwt>
<pdfrwt beam="1">  1        2 0.10988495E+00 0.20085290E+04</pdfrwt>
<pdfrwt beam="2">  1       -2 0.21723574E+00 0.20085290E+04</pdfrwt>
<totfact> 0.40378340E+00</totfact>
</mgrwt>
<rwgt>
<wgt id='morphing_basis_vector_1'> +1.4152730e-04 </wgt>
<wgt id='morphing_basis_vector_2'> +1.0064836e-04 </wgt>
<wgt id='morphing_basis_vector_3'> +1.5218676e-04 </wgt>
<wgt id='morphing_basis_vector_4'> +9.7790501e-05 </wgt>
<wgt id='morphing_basis_vector_5'> +1.6424961e-04 </wgt>
</rwgt>
</event>
<event>
 4      1 +6.0853000e-08 1.86159900e+03 7.81860800e-03 8.13087900e-02
        2 -1    0    0  501    0 +0.0000000000e+00 +0.0000000000e+00 +2.7140806549e+03 2.7140806549e+03 0.0000000000e+00 0.0000e+00 1.0000e+00
       -2 -1    0    0    0  501 -0.0000000000e+00 -0.0000000000e+00 -3.1921961982e+02 3.1921961982e+02 0.0000000000e+00 0.0000e+00 -1.0000e+00
      -13  1    1    2    0    0 +1.7553523346e+01 +7.3310797338e+02 +2.1315112505e+03 2.2541285762e+03 0.0000000000e+00 0.0000e+00 -1.0000e+00
       13  1    1    2    0    0 -1.7553523346e+01 -7.3310797338e+02 +2.6334978459e+02 7.7917169857e+02 0.0000000000e+00 0.0000e+00 1.0000e+00
<mgrwt>
<rscale>  0 0.18615991E+04</rscale>
<asrwt>0</asrwt>
<pdfrwt beam="1">  1        2 0.41755085E+00 0.18615991E+04</pdfrwt>
<pdfrwt beam="2">  1       -2 0.49110713E-01 0.18615991E+04</pdfrwt>
<totfact> 0.11792439E+01</totfact>
</mgrwt>
<rwgt>
<wgt id='morphing_basis_vector_1'> +1.2817929e-04 </wgt>
<wgt id='morphing_basis_vector_2'> +1.4285631e-04 </wgt>
<wgt id='morphing_basis_vector_3'> +1.4519707e-04 </wgt>
<wgt id='morphing_basis_vector_4'> +2.6424673e-05 </wgt>
<wgt id='morphing_basis_vector_5'> +1.1688829e-04 </wgt>
</rwgt>
</event>
<event>
 4      1 +6.0853000e-08 1.92751600e+03 7.81860800e-03 8.10197900e-02
        2 -1    0    0  501    0 +0.0000000000e+00 +0.0000000000e+00 +2.4493883806e+03 2.4493883806e+03 0.0000000000e+00 0.0000e+00 -1.0000e+00
       -2 -1    0    0    0  501 -0.0000000000e+00 -0.0000000000e+00 -3.7920881094e+02 3.7920881094e+02 0.0000000000e+00 0.0000e+00 1.0000e+00
      -13  1    1    2    0    0 -5.7503963210e+02 -7.0999087702e+02 +5.8499566956e+02 1.0848859651e+03 0.0000000000e+00 0.0000e+00 1.0000e+00
       13  1    1    2    0    0 +5.7503963210e+02 +7.0999087702e+02 +1.4851839001e+03 1.7437112264e+03 0.0000000000e+00 0.0000e+00 -1.0000e+00
<mgrwt>
<rscale>  0 0.19275162E+04</rscale>
<asrwt>0</asrwt>
<pdfrwt beam="1">  1        2 0.37682897E+00 0.19275162E+04</pdfrwt>
<pdfrwt beam="2">  1       -2 0.58339819E-01 0.19275162E+04</pdfrwt>
<totfact> 0.12000822E+01</totfact>
</mgrwt>
<rwgt>
<wgt id='morphing_basis_vector_1'> +1.1930048e-04 </wgt>
<wgt id='morphing_basis_vector_2'> +8.2099759e-05 </wgt>
<wgt id='morphing_basis_vector_3'> +1.2743073e-04 </wgt>
<wgt id='morphing_basis_vector_4'> +8.4944262e-05 </wgt>
<wgt id='morphing_basis_vector_5'> +1.3901405e-04 </wgt>
</rwgt>
</event>
<event>
 4      1 +6.0853000e-08 1.90913600e+03 7.81860800e-03 8.10991500e-02
        2 -1    0    0  501    0 +0.0000000000e+00 +0.0000000000e+00 +1.1645940768e+03 1.1645940768e+03 0.0000000000e+00 0.0000e+00 1.0000e+00
       -2 -1    0    0    0  501 -0.0000000000e+00 -0.0000000000e+00 -7.8241839844e+02 7.8241839844e+02 0.0000000000e+00 0.0000e+00 -1.0000e+00
      -13  1    1    2    0    0 -4.7009071380e+02 +3.7117871336e+02 -5.6692199713e+02 8.2471781069e+02 0.0000000000e+00 0.0000e+00 -1.0000e+00
       13  1    1    2    0    0 +4.7009071380e+02 -3.7117871336e+02 +9.4909767550e+02 1.1222946646e+03 0.0000000000e+00 0.0000e+00 1.0000e+00
<mgrwt>
<rscale>  0 0.19091358E+04</rscale>
<asrwt>0</asrwt>
<pdfrwt beam="1">  1        2 0.17916832E+00 0.19091358E+04</pdfrwt>
<pdfrwt beam="2">  1       -2 0.12037206E+00 0.19091358E+04</pdfrwt>
<totfact> 0.12244447E+01</totfact>
</mgrwt>
<rwgt>
<wgt id='morphing_basis_vector_1'> +1.1378420e-04 </wgt>
<wgt id='morphing_basis_vector_2'> +7.5703639e-05 </wgt>
<wgt id='morphing_basis_vector_3'> +1.2102532e-04 </wgt>
<wgt id='morphing_basis_vector_4'> +8.3908410e-05 </wgt>
<wgt id='morphing_basis_vector_5'> +1.3384898e-04 </wgt>
</rwgt>
</event>
<event>
 4      1 +6.0853000e-08 1.98680500e+03 7.81860800e-03 8.07699500e-02
        2 -1    0    0  501    0 +0.0000000000e+00 +0.0000000000e+00 +1.0537152885e+03 1.0537152885e+03 0.0000000000e+00 0.0000e+00 -1.0000e+00
       -2 -1    0    0    0  501 -0.0000000000e+00 -0.0000000000e+00 -9.3654224587e+02 9.3654224587e+02 0.0000000000e+00 0.0000e+00 1.0000e+00
      -13  1    1    2    0    0 +7.0146262886e+02 -6.9695693327e+02 +1.5388381202e+02 1.0007392338e+03 0.0000000000e+00 0.0000e+00 1.0000e+00
       13  1    1    2    0    0 -7.0146262886e+02 +6.9695693327e+02 -3.6710769384e+01 9.8951830054e+02 0.0000000000e+00 0.0000e+00 -1.0000e+00
<mgrwt>
<rscale>  0 0.19868054E+04</rscale>
<asrwt>0</asrwt>
<pdfrwt beam="1">  1        2 0.16211004E+00 0.19868054E+04</pdfrwt>
<pdfrwt beam="2">  1       -2 0.14408342E+00 0.19868054E+04</pdfrwt>
<totfact> 0.87273178E+00</totfact>
</mgrwt>
<rwgt>
<wgt id='morphing_basis_vector_1'> +1.3974730e-04 </wgt>
<wgt id='morphing_basis_vector_2'> +1.0861992e-04 </wgt>
<wgt id='morphing_basis_vector_3'> +1.5170585e-04 </wgt>
<wgt id='morphing_basis_vector_4'> +8.5350393e-05 </wgt>
<wgt id='morphing_basis_vector_5'> +1.5647443e-04 </wgt>
</rwgt>
</event>
<event>
 4      1 +6.0853000e-08 1.91427200e+03 7.81860800e-03 8.10768700e-02
        2 -1    0    0  501    0 +0.0000000000e+00 +0.0000000000e+00 +1.0911024900e+03 1.0911024900e+03 0.0000000000e+00 0.0000e+00 -1.0000e+00
       -2 -1    0    0    0  501 -0.0000000000e+00 -0.0000000000e+00 -8.3961832890e+02 8.3961832890e+02 0.0000000000e+00 0.0000e+00 1.0000e+00
      -13  1    1    2    0    0 +8.3759611222e+02 +1.8602457447e+02 -3.0209291576e+02 9.0963317841e+02 0.0000000000e+00 0.0000e+00 1.0000e+00
       13  1    1    2    0    0 -8.3759611222e+02 -1.8602457447e+02 +5.5357707681e+02 1.0210876405e+03 0.0000000000e+00 0.0000e+00 -1.0000e+00
<mgrwt>
<rscale>  0 0.19142723E+04</rscale>
<asrwt>0</asrwt>
<pdfrwt beam="1">  1        2 0.16786192E+00 0.19142723E+04</pdfrwt>
<pdfrwt beam="2">  1       -2 0.12917205E+00 0.19142723E+04</pdfrwt>
<totfact> 0.11243860E+01</totfact>
</mgrwt>
<rwgt>
<wgt id='morphing_basis_vector_1'> +1.1559686e-04 </wgt>
<wgt id='morphing_basis_vector_2'> +7.8322784e-05 </wgt>
<wgt id='morphing_basis_vector_3'> +1.2320846e-04 </wgt>
<wgt id='morphing_basis_vector_4'> +8.3629082e-05 </wgt>
<wgt id='morphing_basis_vector_5'> +1.3523299e-04 </wgt>
</rwgt>
</event>
<event>
 4      1 +6.0853000e-08 1.91000900e+03 7.81860800e-03 8.10953500e-02
        2 -1    0    0  501    0 +0.0000000000e+00 +0.0000000000e+00 +1.4907014057e+03 1.4907014057e+03 0.0000000000e+00 0.0000e+00 -1.0000e+00
       -2 -1    0    0    0  501 -0.0000000000e+00 -0.0000000000e+00 -6.1181534556e+02 6.1181534556e+02 0.0000000000e+00 0.0000e+00 1.0000e+00
      -13  1    1    2    0    0 +3.8629960217e+02 +2.4124473328e+02 -4.8456897685e+02 6.6500638892e+02 0.0000000000e+00 0.0000e+00 1.0000e+00
       13  1    1    2    0    0 -3.8629960217e+02 -2.4124473328e+02 +1.3634550370e+03 1.4375103624e+03 0.0000000000e+00 0.0000e+00 -1.0000e+00
<mgrwt>
<rscale>  0 0.19100094E+04</rscale>
<asrwt>0</asrwt>
<pdfrwt beam="1">  1        2 0.22933868E+00 0.19100094E+04</pdfrwt>
<pdfrwt beam="2">  1       -2 0.94125438E-01 0.19100094E+04</pdfrwt>
<totfact> 0.14652261E+01</totfact>
</mgrwt>
<rwgt>
<wgt id='morphing_basis_vector_1'> +1.1393575e-04 </wgt>
<wgt id='morphing_basis_vector_2'> +7.5686129e-05 </wgt>
<wgt id='morphing_basis_vector_3'> +1.2117147e-04 </wgt>
<wgt id='morphing_basis_vector_4'> +8.4168566e-05 </wgt>
<wgt id='morphing_basis_vector_5'> +1.3410768e-04 </wgt>
</rwgt>
</event>
<event>
 4      1 +6.0853000e-08 1.90286900e+03 7.81860800e-03 8.11264100e-02
        2 -1    0    0  501    0 +0.0000000000e+00 +0.0000000000e+00 +2.2694868827e+03 2.2694868827e+03 0.0000000000e+00 0.0000e+00 -1.0000e+00
       -2 -1    0    0    0  501 -0.0000000000e+00 -0.0000000000e+00 -3.9886901318e+02 3.9886901318e+02 0.0000000000e+00 0.0000e+00 1.0000e+00
      -13  1    1    2    0    0 +8.6518074054e+00 +9.1756868122e+02 +1.2878948440e+03 1.5813539350e+03 0.0000000000e+00 0.0000e+00 1.0000e+00
       13  1    1    2    0    0 -8.6518074054e+00 -9.1756868122e+02 +5.8272302560e+02 1.0870019609e+03 0.0000000000e+00 0.0000e+00 -1.0000e+00
<mgrwt>
<rscale>  0 0.19028694E+04</rscale>
<asrwt>0</asrwt>
<pdfrwt beam="1">  1        2 0.34915182E+00 0.19028694E+04</pdfrwt>
<pdfrwt beam="2">  1       -2 0.61364465E-01 0.19028694E+04</pdfrwt>
<totfact> 0.13807333E+01</totfact>
</mgrwt>
<rwgt>
<wgt id='morphing_basis_vector_1'> +1.2241327e-04 </wgt>
<wgt id='morphing_basis_vector_2'> +1.0460557e-04 </wgt>
<wgt id='morphing_basis_vector_3'> +1.3392218e-04 </wgt>
<wgt id='morphing_basis_vector_4'> +6.2898593e-05 </wgt>
<wgt id='morphing_basis_vector_5'> +1.3050461e-04 </wgt>
</rwgt>
</event>
<event>
 4      1 +6.0853000e-08 2.07380000e+03 7.81860800e-03 8.04193200e-02
        2 -1    0    0  501    0 +0.0000000000e+00 +0.0000000000e+00 +1.3881463795e+03 1.3881463795e+03 0.0000000000e+00 0.0000e+00 -1.0000e+00
       -2 -1    0    0    0  501 -0.0000000000e+00 -0.0000000000e+00 -7.7453070687e+02 7.7453070687e+02 0.0000000000e+00 0.0000e+00 1.0000e+00
      -13  1    1    2    0    0 -4.4134507748e+02 +4.7274059847e+02 -5.3841650696e+02 8.4152331270e+02 0.0000000000e+00 0.0000e+00 1.0000e+00
       13  1    1    2    0    0 +4.4134507748e+02 -4.7274059847e+02 +1.1520321796e+03 1.3211537737e+03 0.0000000000e+00 0.0000e+00 -1.0000e+00
<mgrwt>
<rscale>  0 0.20738004E+04</rscale>
<asrwt>0</asrwt>
<pdfrwt beam="1">  1        2 0.21356098E+00 0.20738004E+04</pdfrwt>
<pdfrwt beam="2">  1       -2 0.11915857E+00 0.20738004E+04</pdfrwt>
<totfact> 0.92137613E+00</totfact>
</mgrwt>
<rwgt>
<wgt id='morphing_basis_vector_1'> +1.5734731e-04 </wgt>
<wgt id='morphing_basis_vector_2'> +1.0508942e-04 </wgt>
<wgt id='morphing_basis_vector_3'> +1.6839917e-04 </wgt>
<wgt id='morphing_basis_vector_4'> +1.1759284e-04 </wgt>
<wgt id='morphing_basis_vector_5'> +1.8761499e-04 </wgt>
</rwgt>
</event>
<event>
 4      1 +6.0853000e-08 2.11253100e+03 7.81860800e-03 8.02689200e-02
        2 -1    0    0  501    0 +0.0000000000e+00 +0.0000000000e+00 +9.3074282357e+02 9.3074282357e+02 0.0000000000e+00 0.0000e+00 -1.0000e+00
       -2 -1    0    0    0  501 -0.0000000000e+00 -0.0000000000e+00 -1.1987170316e+03 1.1987170316e+03 0.0000000000e+00 0.0000e+00 1.0000e+00
      -13  1    1    2    0    0 -1.5478877014e+02 +9.6820570145e+02 +2.6199080081e+02 1.0148995139e+03 0.0000000000e+00 0.0000e+00 1.0000e+00
       13  1    1    2    0    0 +1.5478877014e+02 -9.6820570145e+02 -5.2996500888e+02 1.1145603413e+03 0.0000000000e+00 0.0000e+00 -1.0000e+00
<mgrwt>
<rscale>  0 0.21125314E+04</rscale>
<asrwt>0</asrwt>
<pdfrwt beam="1">  1        2 0.14319120E+00 0.21125314E+04</pdfrwt>
<pdfrwt beam="2">  1       -2 0.18441800E+00 0.21125314E+04</pdfrwt>
<totfact> 0.49307270E+00</totfact>
</mgrwt>
<rwgt>
<wgt id='morphing_basis_vector_1'> +1.9060678e-04 </wgt>
<wgt id='morphing_basis_vector_2'> +1.7640639e-04 </wgt>
<wgt id='morphing_basis_vector_3'> +2.1290455e-04 </wgt>
<wgt id='morphing_basis_vector_4'> +8.3844667e-05 </wgt>
<wgt id='morphing_basis_vector_5'> +1.9888774e-04 </wgt>
</rwgt>
</event>
<event>
 4      1 +6.0853000e-08 1.89673800e+03 7.81860800e-03 8.11532000e-02
        2 -1    0    0  501    0 +0.0000000000e+00 +0.0000000000e+00 +7.8202309169e+02 7.8202309169e+02 0.0000000000e+00 0.0000e+00 1.0000e+00
       -2 -1    0    0    0  501 -0.0000000000e+00 -0.0000000000e+00 -1.1500992332e+03 1.1500992332e+03 0.0000000000e+00 0.0000e+00 -1.0000e+00
      -13  1    1    2    0    0 -8.0896355518e+02 -2.3785065431e+02 -6.2619681637e+02 1.0502939685e+03 0.0000000000e+00 0.0000e+00 -1.0000e+00
       13  1    1    2    0    0 +8.0896355518e+02 +2.3785065431e+02 +2.5812067489e+02 8.8182835641e+02 0.0000000000e+00 0.0000e+00 1.0000e+00
<mgrwt>
<rscale>  0 0.18967384E+04</rscale>
<asrwt>0</asrwt>
<pdfrwt beam="1">  1        2 0.12031125E+00 0.18967384E+04</pdfrwt>
<pdfrwt beam="2">  1       -2 0.17693834E+00 0.18967384E+04</pdfrwt>
<totfact> 0.72051261E+00</totfact>
</mgrwt>
<rwgt>
<wgt id='morphing_basis_vector_1'> +1.1146490e-04 </wgt>
<wgt id='morphing_basis_vector_2'> +7.5384576e-05 </wgt>
<wgt id='morphing_basis_vector_3'> +1.1869718e-04 </wgt>
<wgt id='morphing_basis_vector_4'> +8.0633195e-05 </wgt>
<wgt id='morphing_basis_vector_5'> +1.3024641e-04 </wgt>
</rwgt>
</event>
<event>
 4      1 +6.0853000e-08 1.97763700e+03 7.81860800e-03 8.08079800e-02
        2 -1    0    0  501    0 +0.0000000000e+00 +0.0000000000e+00 +8.4504510467e+02 8.4504510467e+02 0.0000000000e+00 0.0000e+00 -1.0000e+00
       -2 -1    0    0    0  501 -0.0000000000e+00 -0.0000000000e+00 -1.1570535608e+03 1.1570535608e+03 0.0000000000e+00 0.0000e+00 1.0000e+00
      -13  1    1    2    0    0 -2.7589793948e+02 +4.5395883681e+02 -1.0003248532e+03 1.1326288494e+03 0.0000000000e+00 0.0000e+00 1.0000e+00
       13  1    1    2    0    0 +2.7589793948e+02 -4.5395883681e+02 +6.8831639710e+02 8.6946981606e+02 0.0000000000e+00 0.0000e+00 -1.0000e+00
<mgrwt>
<rscale>  0 0.19776374E+04</rscale>
<asrwt>0</asrwt>
<pdfrwt beam="1">  1        2 0.13000694E+00 0.19776374E+04</pdfrwt>
<pdfrwt beam="2">  1       -2 0.17800824E+00 0.19776374E+04</pdfrwt>
<totfact> 0.63515750E+00</totfact>
</mgrwt>
<rwgt>
<wgt id='morphing_basis_vector_1'> +1.3057711e-04 </wgt>
<wgt id='morphing_basis_vector_2'> +8.6926854e-05 </wgt>
<wgt id='morphing_basis_vector_3'> +1.3925377e-04 </wgt>
<wgt id='morphing_basis_vector_4'> +9.6983736e-05 </wgt>
<wgt id='morphing_basis_vector_5'> +1.5459068e-04 </wgt>
</rwgt>
</event>
<event>
 4      1 +6.0853000e-08 1.90213100e+03 7.81860800e-03 8.11296300e-02
        2 -1    0    0  501    0 +0.0000000000e+00 +0.0000000000e+00 +1.6610335523e+03 1.6610335523e+03 0.0000000000e+00 0.0000e+00 1.0000e+00
       -2 -1    0    0    0  501 -0.0000000000e+00 -0.0000000000e+00 -5.4455603966e+02 5.4455603966e+02 0.0000000000e+00 0.0000e+00 -1.0000e+00
      -13  1    1    2    0    0 -3.3508382872e+02 -8.7395110446e+02 +7.5383342212e+02 1.2018055307e+03 0.0000000000e+00 0.0000e+00 1.0000e+00
       13  1    1    2    0    0 +3.3508382872e+02 +8.7395110446e+02 +3.6264409050e+02 1.0037840613e+03 0.0000000000e+00 0.0000e+00 -1.0000e+00
<mgrwt>
<rscale>  0 0.19021313E+04</rscale>
<asrwt>0</asrwt>
<pdfrwt beam="1">  1        2 0.25554362E+00 0.19021313E+04</pdfrwt>
<pdfrwt beam="2">  1       -2 0.83777853E-01 0.19021313E+04</pdfrwt>
<totfact> 0.15450099E+01</totfact>
</mgrwt>
<rwgt>
<wgt id='morphing_basis_vector_1'> +1.1969160e-04 </wgt>
<wgt id='morphing_basis_vector_2'> +9.6929748e-05 </wgt>
<wgt id='morphing_basis_vector_3'> +1.3007333e-04 </wgt>
<wgt id='morphing_basis_vector_4'> +6.7801484e-05 </wgt>
<wgt id='morphing_basis_vector_5'> +1.3068941e-04 </wgt>
</rwgt>
</event>
<event>
 4      1 +6.0853000e-08 2.21844600e+03 7.81860800e-03 7.98741000e-02
        2 -1    0    0  501    0 +0.0000000000e+00 +0.0000000000e+00 +3.9550062665e+02 3.9550062665e+02 0.0000000000e+00 0.0000e+00 1.0000e+00
       -2 -1    0    0    0  501 -0.0000000000e+00 -0.0000000000e+00 -3.1109318736e+03 3.1109318736e+03 0.0000000000e+00 0.0000e+00 -1.0000e+00
      -13  1    1    2    0    0 +5.4550351702e+02 +9.6302565499e+02 -1.2417500476e+03 1.6634108573e+03 0.0000000000e+00 0.0000e+00 1.0000e+00
       13  1    1    2    0    0 -5.4550351702e+02 -9.6302565499e+02 -1.4736811993e+03 1.8430216430e+03 0.0000000000e+00 0.0000e+00 -1.0000e+00
<mgrwt>
<rscale>  0 0.22184459E+04</rscale>
<asrwt>0</asrwt>
<pdfrwt beam="1">  1        2 0.60846250E-01 0.22184459E+04</pdfrwt>
<pdfrwt beam="2">  1       -2 0.47860491E+00 0.22184459E+04</pdfrwt>
<totfact> 0.13523798E-01</totfact>
</mgrwt>
<rwgt>
<wgt id='morphing_basis_vector_1'> +2.1445278e-04 </wgt>
<wgt id='morphing_basis_vector_2'> +1.6505064e-04 </wgt>
<wgt id='morphing_basis_vector_3'> +2.3443155e-04 </wgt>
<wgt id='morphing_basis_vector_4'> +1.3576349e-04 </wgt>
<wgt id='morphing_basis_vector_5'> +2.4534072e-04 </wgt>
</rwgt>
</event>
<event>
 4      1 +6.0853000e-08 2.02633800e+03 7.81860800e-03 8.06083500e-02
        2 -1    0    0  501    0 +0.0000000000e+00 +0.0000000000e+00 +1.1169626189e+03 1.1169626189e+03 0.0000000000e+00 0.0000e+00 1.0000e+00
       -2 -1    0    0    0  501 -0.0000000000e+00 -0.0000000000e+00 -9.1902067737e+02 9.1902067737e+02 0.0000000000e+00 0.0000e+00 -1.0000e+00
      -13  1    1    2    0    0 +6.3187731566e+02 +1.9682359850e+02 -6.7182013535e+02 9.4305395669e+02 0.0000000000e+00 0.0000e+00 -1.0000e+00
       13  1    1    2    0    0 -6.3187731566e+02 -1.9682359850e+02 +8.6976207689e+02 1.0929293396e+03 0.0000000000e+00 0.0000e+00 1.0000e+00
<mgrwt>
<rscale>  0 0.20263383E+04</rscale>
<asrwt>0</asrwt>
<pdfrwt beam="1">  1        2 0.17184040E+00 0.20263383E+04</pdfrwt>
<pdfrwt beam="2">  1       -2 0.14138780E+00 0.20263383E+04</pdfrwt>
<totfact> 0.83965145E+00</totfact>
</mgrwt>
<rwgt>
<wgt id='morphing_basis_vector_1'> +1.4370930e-04 </wgt>
<wgt id='morphing_basis_vector_2'> +9.5936146e-05 </wgt>
<wgt id='morphing_basis_vector_3'> +1.5356121e-04 </wgt>
<wgt id='morphing_basis_vector_4'> +1.0696051e-04 </wgt>
<wgt id='morphing_basis_vector_5'> +1.7071320e-04 </wgt>
</rwgt>
</event>
<event>
 4      1 +6.0853000e-08 2.00345800e+03 7.81860800e-03 8.07014100e-02
        2 -1    0    0  501    0 +0.0000000000e+00 +0.0000000000e+00 +4.6716110626e+02 4.6716110626e+02 0.0000000000e+00 0.0000e+00 -1.0000e+00
       -2 -1    0    0    0  501 -0.0000000000e+00 -0.0000000000e+00 -2.1479967529e+03 2.1479967529e+03 0.0000000000e+00 0.0000e+00 1.0000e+00
      -13  1    1    2    0    0 +7.4851412064e+01 +6.8588802866e+02 -1.7883869093e+03 1.9168653732e+03 0.0000000000e+00 0.0000e+00 1.0000e+00
       13  1    1    2    0    0 -7.4851412064e+01 -6.8588802866e+02 +1.0755126269e+02 6.9829248589e+02 0.0000000000e+00 0.0000e+00 -1.0000e+00
<mgrwt>
<rscale>  0 0.20034576E+04</rscale>
<asrwt>0</asrwt>
<pdfrwt beam="1">  1        2 0.71870939E-01 0.20034576E+04</pdfrwt>
<pdfrwt beam="2">  1       -2 0.33046104E+00 0.20034576E+04</pdfrwt>
<totfact> 0.11170989E+00</totfact>
</mgrwt>
<rwgt>
<wgt id='morphing_basis_vector_1'> +1.3748681e-04 </wgt>
<wgt id='morphing_basis_vector_2'> +9.1814698e-05 </wgt>
<wgt id='morphing_basis_vector_3'> +1.4680396e-04 </wgt>
<wgt id='morphing_basis_vector_4'> +1.0205181e-04 </wgt>
<wgt id='morphing_basis_vector_5'> +1.6297971e-04 </wgt>
</rwgt>
</event>
<event>
 4      1 +6.0853000e-08 2.12895400e+03 7.81860800e-03 8.02061500e-02
        2 -1    0    0  501    0 +0.0000000000e+00 +0.0000000000e+00 +8.9485515398e+02 8.9485515398e+02 0.0000000000e+00 0.0000e+00 -1.0000e+00
       -2 -1    0    0    0  501 -0.0000000000e+00 -0.0000000000e+00 -1.2662515370e+03 1.2662515370e+03 0.0000000000e+00 0.0000e+00 1.0000e+00
      -13  1    1    2    0    0 +3.5352708493e+02 +5.7195607327e+02 -1.0233862185e+03 1.2245139859e+03 0.0000000000e+00 0.0000e+00 1.0000e+00
       13  1    1    2    0    0 -3.5352708493e+02 -5.7195607327e+02 +6.5198983550e+02 9.3659270503e+02 0.0000000000e+00 0.0000e+00 -1.0000e+00
<mgrwt>
<rscale>  0 0.21289544E+04</rscale>
<asrwt>0</asrwt>
<pdfrwt beam="1">  1        2 0.13767002E+00 0.21289544E+04</pdfrwt>
<pdfrwt beam="2">  1       -2 0.19480793E+00 0.21289544E+04</pdfrwt>
<totfact> 0.43468628E+00</totfact>
</mgrwt>
<rwgt>
<wgt id='morphing_basis_vector_1'> +1.7443706e-04 </wgt>
<wgt id='morphing_basis_vector_2'> +1.1664991e-04 </wgt>
<wgt id='morphing_basis_vector_3'> +1.8702258e-04 </wgt>
<wgt id='morphing_basis_vector_4'> +1.3083849e-04 </wgt>
<wgt id='morphing_basis_vector_5'> +2.0878246e-04 </wgt>
</rwgt>
</event>
<event>
 4      1 +6.0853000e-08 2.10233100e+03 7.81860800e-03 8.03082000e-02
        2 -1    0    0  501    0 +0.0000000000e+00 +0.0000000000e+00 +1.6399747153e+03 1.6399747153e+03 0.0000000000e+00 0.0000e+00 1.0000e+00
       -2 -1    0    0    0  501 -0.0000000000e+00 -0.0000000000e+00 -6.7376000235e+02 6.7376000235e+02 0.0000000000e+00 0.0000e+00 -1.0000e+00
      -13  1    1    2    0    0 +9.1008897880e+02 -2.3409106685e+02 -3.5310629703e+01 9.4037621061e+02 0.0000000000e+00 0.0000e+00 -1.0000e+00
       13  1    1    2    0    0 -9.1008897880e+02 +2.3409106685e+02 +1.0015253426e+03 1.3733585070e+03 0.0000000000e+00 0.0000e+00 1.0000e+00
<mgrwt>
<rscale>  0 0.21023314E+04</rscale>
<asrwt>0</asrwt>
<pdfrwt beam="1">  1        2 0.25230380E+00 0.21023314E+04</pdfrwt>
<pdfrwt beam="2">  1       -2 0.10365539E+00 0.21023314E+04</pdfrwt>
<totfact> 0.94361131E+00</totfact>
</mgrwt>
<rwgt>
<wgt id='morphing_basis_vector_1'> +1.6688040e-04 </wgt>
<wgt id='morphing_basis_vector_2'> +1.1349637e-04 </wgt>
<wgt id='morphing_basis_vector_3'> +1.7911576e-04 </wgt>
<wgt id='morphing_basis_vector_4'> +1.2259133e-04 </wgt>
<wgt id='morphing_basis_vector_5'> +1.9821740e-04 </wgt>
</rwgt>
</event>
<event>
 4      1 +6.0853000e-08 2.08169200e+03 7.81860800e-03 8.03884000e-02
        2 -1    0    0  501    0 +0.0000000000e+00 +0.0000000000e+00 +2.9040243243e+03 2.9040243243e+03 0.0000000000e+00 0.0000e+00 -1.0000e+00
       -2 -1    0    0    0  501 -0.0000000000e+00 -0.0000000000e+00 -3.7305495655e+02 3.7305495655e+02 0.0000000000e+00 0.0000e+00 1.0000e+00
      -13  1    1    2    0    0 +4.2791353264e+02 +5.3577439878e+02 +3.2748216874e+01 6.8646678252e+02 0.0000000000e+00 0.0000e+00 1.0000e+00
       13  1    1    2    0    0 -4.2791353264e+02 -5.3577439878e+02 +2.4982211509e+03 2.5906124983e+03 0.0000000000e+00 0.0000e+00 -1.0000e+00
<mgrwt>
<rscale>  0 0.20816923E+04</rscale>
<asrwt>0</asrwt>
<pdfrwt beam="1">  1        2 0.44677296E+00 0.20816923E+04</pdfrwt>
<pdfrwt beam="2">  1       -2 0.57393072E-01 0.20816923E+04</pdfrwt>
<totfact> 0.64408973E+00</totfact>
</mgrwt>
<rwgt>
<wgt id='morphing_basis_vector_1'> +1.5974268e-04 </wgt>
<wgt id='morphing_basis_vector_2'> +1.0678013e-04 </wgt>
<wgt id='morphing_basis_vector_3'> +1.7102028e-04 </wgt>
<wgt id='morphing_basis_vector_4'> +1.1936178e-04 </wgt>
<wgt id='morphing_basis_vector_5'> +1.9053612e-04 </wgt>
</rwgt>
</event>
<event>
 4      1 +6.0853000e-08 1.99207600e+03 7.81860800e-03 8.07481800e-02
        2 -1    0    0  501    0 +0.0000000000e+00 +0.0000000000e+00 +1.1887177036e+03 1.1887177036e+03 0.0000000000e+00 0.0000e+00 -1.0000e+00
       -2 -1    0    0    0  501 -0.0000000000e+00 -0.0000000000e+00 -8.3458981494e+02 8.3458981494e+02 0.0000000000e+00 0.0000e+00 1.0000e+00
      -13  1    1    2    0    0 +6.2528580644e+02 +3.6183034363e+02 -5.1938908913e+02 8.8975758677e+02 0.0000000000e+00 0.0000e+00 1.0000e+00
       13  1    1    2    0    0 -6.2528580644e+02 -3.6183034363e+02 +8.7351697774e+02 1.1335499317e+03 0.0000000000e+00 0.0000e+00 -1.0000e+00
<mgrwt>
<rscale>  0 0.19920760E+04</rscale>
<asrwt>0</asrwt>
<pdfrwt beam="1">  1        2 0.18287965E+00 0.19920760E+04</pdfrwt>
<pdfrwt beam="2">  1       -2 0.12839843E+00 0.19920760E+04</pdfrwt>
<totfact> 0.99307359E+00</totfact>
</mgrwt>
<rwgt>
<wgt id='morphing_basis_vector_1'> +1.3449785e-04 </wgt>
<wgt id='morphing_basis_vector_2'> +8.9901981e-05 </wgt>
<wgt id='morphing_basis_vector_3'> +1.4356973e-04 </wgt>
<wgt id='morphing_basis_vector_4'> +9.9615172e-05 </wgt>
<wgt id='morphing_basis_vector_5'> +1.5922698e-04 </wgt>
</rwgt>
</event>
<event>
 4      1 +6.0853000e-08 1.93080000e+03 7.81860800e-03 8.10057000e-02
        2 -1    0    0  501    0 +0.0000000000e+00 +0.0000000000e+00 +1.6562017548e+03 1.6562017548e+03 0.0000000000e+00 0.0000e+00 1.0000e+00
       -2 -1    0    0    0  501 -0.0000000000e+00 -0.0000000000e+00 -5.6273193906e+02 5.6273193906e+02 0.0000000000e+00 0.0000e+00 -1.0000e+00
      -13  1    1    2    0    0 -4.9584354193e+02 -8.2734597517e+02 +5.0025932973e+02 1.0865641158e+03 0.0000000000e+00 0.0000e+00 -1.0000e+00
       13  1    1    2    0    0 +4.9584354193e+02 +8.2734597517e+02 +5.9321048606e+02 1.1323695781e+03 0.0000000000e+00 0.0000e+00 1.0000e+00
<mgrwt>
<rscale>  0 0.19308005E+04</rscale>
<asrwt>0</asrwt>
<pdfrwt beam="1">  1        2 0.25480027E+00 0.19308005E+04</pdfrwt>
<pdfrwt beam="2">  1       -2 0.86574145E-01 0.19308005E+04</pdfrwt>
<totfact> 0.14376501E+01</totfact>
</mgrwt>
<rwgt>
<wgt id='morphing_basis_vector_1'> +1.2257552e-04 </wgt>
<wgt id='morphing_basis_vector_2'> +8.9995623e-05 </wgt>
<wgt id='morphing_basis_vector_3'> +1.3187240e-04 </wgt>
<wgt id='morphing_basis_vector_4'> +8.0636654e-05 </wgt>
<wgt id='morphing_basis_vector_5'> +1.3960003e-04 </wgt>
</rwgt>
</event>
<event>
 4      1 +6.0853000e-08 2.17658500e+03 7.81860800e-03 8.00273600e-02
        2 -1    0    0  501    0 +0.0000000000e+00 +0.0000000000e+00 +3.1568102847e+03 3.1568102847e+03 0.0000000000e+00 0.0000e+00 1.0000e+00
       -2 -1    0    0    0  501 -0.0000000000e+00 -0.0000000000e+00 -3.7518261545e+02 3.7518261545e+02 0.0000000000e+00 0.0000e+00 -1.0000e+00
      -13  1    1    2    0    0 -8.3651513456e+02 -4.0781119017e+02 +4.7528656569e+02 1.0449712229e+03 0.0000000000e+00 0.0000e+00 -1.0000e+00
       13  1    1    2    0    0 +8.3651513456e+02 +4.0781119017e+02 +2.3063411036e+03 2.4870216773e+03 0.0000000000e+00 0.0000e+00 1.0000e+00
<mgrwt>
<rscale>  0 0.21765848E+04</rscale>
<asrwt>0</asrwt>
<pdfrwt beam="1">  1        2 0.48566310E+00 0.21765848E+04</pdfrwt>
<pdfrwt beam="2">  1       -2 0.57720405E-01 0.21765848E+04</pdfrwt>
<totfact> 0.43144616E+00</totfact>
</mgrwt>
<rwgt>
<wgt id='morphing_basis_vector_1'> +1.9092970e-04 </wgt>
<wgt id='morphing_basis_vector_2'> +1.2926928e-04 </wgt>
<wgt id='morphing_basis_vector_3'> +2.0526268e-04 </wgt>
<wgt id='morphing_basis_vector_4'> +1.4185893e-04 </wgt>
<wgt id='morphing_basis_vector_5'> +2.2834975e-04 </wgt>
</rwgt>
</event>
<event>
 4      1 +6.0853000e-08 1.86443900e+03 7.81860800e-03 8.12960800e-02
        2 -1    0    0  501    0 +0.0000000000e+00 +0.0000000000e+00 +4.3144489467e+02 4.3144489467e+02 0.0000000000e+00 0.0000e+00 -1.0000e+00
       -2 -1    0    0    0  501 -0.0000000000e+00 -0.0000000000e+00 -2.0142386573e+03 2.0142386573e+03 0.0000000000e+00 0.0000e+00 1.0000e+00
      -13  1    1    2    0    0 -9.0115475032e+02 +2.2859322794e+02 -8.8130928697e+02 1.2810311500e+03 0.0000000000e+00 0.0000e+00 1.0000e+00
       13  1    1    2    0    0 +9.0115475032e+02 -2.2859322794e+02 -7.0148447564e+02 1.1646524020e+03 0.0000000000e+00 0.0000e+00 -1.0000e+00
<mgrwt>
<rscale>  0 0.18644388E+04</rscale>
<asrwt>0</asrwt>
<pdfrwt beam="1">  1        2 0.66376138E-01 0.18644388E+04</pdfrwt>
<pdfrwt beam="2">  1       -2 0.30988287E+00 0.18644388E+04</pdfrwt>
<totfact> 0.16961898E+00</totfact>
</mgrwt>
<rwgt>
<wgt id='morphing_basis_vector_1'> +1.0654691e-04 </wgt>
<wgt id='morphing_basis_vector_2'> +7.7306141e-05 </wgt>
<wgt id='morphing_basis_vector_3'> +1.1413826e-04 </wgt>
<wgt id='morphing_basis_vector_4'> +7.0606640e-05 </wgt>
<wgt id='morphing_basis_vector_5'> +1.2105237e-04 </wgt>
</rwgt>
</event>
<event>
 4      1 +6.0853000e-08 2.16817400e+03 7.81860800e-03 8.00585900e-02
        2 -1    0    0  501    0 +0.0000000000e+00 +0.0000000000e+00 +1.4127286374e+03 1.4127286374e+03 0.0000000000e+00 0.0000e+00 -1.0000e+00
       -2 -1    0    0    0  501 -0.0000000000e+00 -0.0000000000e+00 -8.3189729902e+02 8.3189729902e+02 0.0000000000e+00 0.0000e+00 1.0000e+00
      -13  1    1    2    0    0 +2.1344549628e+02 -5.0498377580e+02 -6.7780363672e+02 8.7177139415e+02 0.0000000000e+00 0.0000e+00 1.0000e+00
       13  1    1    2    0    0 -2.1344549628e+02 +5.0498377580e+02 +1.2586349751e+03 1.3728545422e+03 0.0000000000e+00 0.0000e+00 -1.0000e+00
<mgrwt>
<rscale>  0 0.21681745E+04</rscale>
<asrwt>0</asrwt>
<pdfrwt beam="1">  1        2 0.21734287E+00 0.21681745E+04</pdfrwt>
<pdfrwt beam="2">  1       -2 0.12798420E+00 0.21681745E+04</pdfrwt>
<totfact> 0.73390330E+00</totfact>
</mgrwt>
<rwgt>
<wgt id='morphing_basis_vector_1'> +1.8732998e-04 </wgt>
<wgt id='morphing_basis_vector_2'> +1.2518109e-04 </wgt>
<wgt id='morphing_basis_vector_3'> +2.0104946e-04 </wgt>
<wgt id='morphing_basis_vector_4'> +1.4108505e-04 </wgt>
<wgt id='morphing_basis_vector_5'> +2.2489658e-04 </wgt>
</rwgt>
</event>
<event>
 4      1 +6.0853000e-08 1.93941500e+03 7.81860800e-03 8.09689000e-02
        2 -1    0    0  501    0 +0.0000000000e+00 +0.0000000000e+00 +2.5033807559e+03 2.5033807559e+03 0.0000000000e+00 0.0000e+00 -1.0000e+00
       -2 -1    0    0    0  501 -0.0000000000e+00 -0.0000000000e+00 -3.7562498751e+02 3.7562498751e+02 0.0000000000e+00 0.0000e+00 1.0000e+00
      -13  1    1    2    0    0 +2.2111211782e+02 -8.2698389220e+02 +1.7401510610e+03 1.9393088052e+03 0.0000000000e+00 0.0000e+00 1.0000e+00
       13  1    1    2    0    0 -2.2111211782e+02 +8.2698389220e+02 +3.8760470738e+02 9.3969693827e+02 0.0000000000e+00 0.0000e+00 -1.0000e+00
<mgrwt>
<rscale>  0 0.19394147E+04</rscale>
<asrwt>0</asrwt>
<pdfrwt beam="1">  1        2 0.38513549E+00 0.19394147E+04</pdfrwt>
<pdfrwt beam="2">  1       -2 0.57788461E-01 0.19394147E+04</pdfrwt>
<totfact> 0.11353317E+01</totfact>
</mgrwt>
<rwgt>
<wgt id='morphing_basis_vector_1'> +1.4139037e-04 </wgt>
<wgt id='morphing_basis_vector_2'> +1.4095110e-04 </wgt>
<wgt id='morphing_basis_vector_3'> +1.5829228e-04 </wgt>
<wgt id='morphing_basis_vector_4'> +4.9138188e-05 </wgt>
<wgt id='morphing_basis_vector_5'> +1.3957249e-04 </wgt>
</rwgt>
</event>
<event>
 4      1 +6.0853000e-08 1.92017200e+03 7.81860800e-03 8.10513800e-02
        2 -1    0    0  501    0 +0.0000000000e+00 +0.0000000000e+00 +6.7057694112e+02 6.7057694112e+02 0.0000000000e+00 0.0000e+00 -1.0000e+00
       -2 -1    0    0    0  501 -0.0000000000e+00 -0.0000000000e+00 -1.3745856196e+03 1.3745856196e+03 0.0000000000e+00 0.0000e+00 1.0000e+00
      -13  1    1    2    0    0 +7.0637959988e+02 -1.2179036596e+02 -1.0322983231e+03 1.2567596668e+03 0.0000000000e+00 0.0000e+00 1.0000e+00
       13  1    1    2    0    0 -7.0637959988e+02 +1.2179036596e+02 +3.2828964459e+02 7.8840289390e+02 0.0000000000e+00 0.0000e+00 -1.0000e+00
<mgrwt>
<rscale>  0 0.19201723E+04</rscale>
<asrwt>0</asrwt>
<pdfrwt beam="1">  1        2 0.10316568E+00 0.19201723E+04</pdfrwt>
<pdfrwt beam="2">  1       -2 0.21147471E+00 0.19201723E+04</pdfrwt>
<totfact> 0.48321941E+00</totfact>
</mgrwt>
<rwgt>
<wgt id='morphing_basis_vector_1'> +1.1649595e-04 </wgt>
<wgt id='morphing_basis_vector_2'> +7.7798739e-05 </wgt>
<wgt id='morphing_basis_vector_3'> +1.2401096e-04 </wgt>
<wgt id='morphing_basis_vector_4'> +8.5676947e-05 </wgt>
<wgt id='morphing_basis_vector_5'> +1.3702252e-04 </wgt>
</rwgt>
</event>
<event>
 4      1 +6.0853000e-08 1.96025600e+03 7.81860800e-03 8.08806900e-02
        2 -1    0    0  501    0 +0.0000000000e+00 +0.0000000000e+00 +1.6875283666e+03 1.6875283666e+03 0.0000000000e+00 0.0000e+00 -1.0000e+00
       -2 -1    0    0    0  501 -0.0000000000e+00 -0.0000000000e+00 -5.6926484362e+02 5.6926484362e+02 0.0000000000e+00 0.0000e+00 1.0000e+00
      -13  1    1    2    0    0 +1.9349293687e+02 -2.3488079122e+02 -5.1349699222e+02 5.9689836968e+02 0.0000000000e+00 0.0000e+00 1.0000e+00
       13  1    1    2    0    0 -1.9349293687e+02 +2.3488079122e+02 +1.6317605152e+03 1.6598948405e+03 0.0000000000e+00 0.0000e+00 -1.0000e+00
<mgrwt>
<rscale>  0 0.19602557E+04</rscale>
<asrwt>0</asrwt>
<pdfrwt beam="1">  1        2 0.25961975E+00 0.19602557E+04</pdfrwt>
<pdfrwt beam="2">  1       -2 0.87579208E-01 0.19602557E+04</pdfrwt>
<totfact> 0.13411660E+01</totfact>
</mgrwt>
<rwgt>
<wgt id='morphing_basis_vector_1'> +1.2610577e-04 </wgt>
<wgt id='morphing_basis_vector_2'> +8.3837474e-05 </wgt>
<wgt id='morphing_basis_vector_3'> +1.3438204e-04 </wgt>
<wgt id='morphing_basis_vector_4'> +9.3618932e-05 </wgt>
<wgt id='morphing_basis_vector_5'> +1.4912263e-04 </wgt>
</rwgt>
</event>
<event>
 4      1 +6.0853000e-08 2.20271500e+03 7.81860800e-03 7.99312800e-02
        2 -1    0    0  501    0 +0.0000000000e+00 +0.0000000000e+00 +1.7654473305e+03 1.7654473305e+03 0.0000000000e+00 0.0000e+00 -1.0000e+00
       -2 -1    0    0    0  501 -0.0000000000e+00 -0.0000000000e+00 -6.8707132611e+02 6.8707132611e+02 0.0000000000e+00 0.0000e+00 1.0000e+00
      -13  1    1    2    0    0 +8.4996890282e+02 +5.4416686813e+02 +1.0301280186e+03 1.4421263644e+03 0.0000000000e+00 0.0000e+00 1.0000e+00
       13  1    1    2    0    0 -8.4996890282e+02 -5.4416686813e+02 +4.8247985832e+01 1.0103922923e+03 0.0000000000e+00 0.0000e+00 -1.0000e+00
<mgrwt>
<rscale>  0 0.22027149E+04</rscale>
<asrwt>0</asrwt>
<pdfrwt beam="1">  1        2 0.27160728E+00 0.22027149E+04</pdfrwt>
<pdfrwt beam="2">  1       -2 0.10570328E+00 0.22027149E+04</pdfrwt>
<totfact> 0.75908648E+00</totfact>
</mgrwt>
<rwgt>
<wgt id='morphing_basis_vector_1'> +2.2692568e-04 </wgt>
<wgt id='morphing_basis_vector_2'> +2.1482886e-04 </wgt>
<wgt id='morphing_basis_vector_3'> +2.5525010e-04 </wgt>
<wgt id='morphing_basis_vector_4'> +9.4767682e-05 </wgt>
<wgt id='morphing_basis_vector_5'> +2.3537691e-04 </wgt>
</rwgt>
</event>
<event>
 4      1 +6.0853000e-08 2.14183800e+03 7.81860800e-03 8.01573200e-02
        2 -1    0    0  501    0 +0.0000000000e+00 +0.0000000000e+00 +2.0151627075e+03 2.0151627075e+03 0.0000000000e+00 0.0000e+00 -1.0000e+00
       -2 -1    0    0    0  501 -0.0000000000e+00 -0.0000000000e+00 -5.6911887030e+02 5.6911887030e+02 0.0000000000e+00 0.0000e+00 1.0000e+00
      -13  1    1    2    0    0 +4.4509869833e+02 -6.5973760903e+02 -1.4159503091e+02 8.0834133681e+02 0.0000000000e+00 0.0000e+00 1.0000e+00
       13  1    1    2    0    0 -4.4509869833e+02 +6.5973760903e+02 +1.5876388681e+03 1.7759402410e+03 0.0000000000e+00 0.0000e+00 -1.0000e+00
<mgrwt>
<rscale>  0 0.21418376E+04</rscale>
<asrwt>0</asrwt>
<pdfrwt beam="1">  1        2 0.31002503E+00 0.21418376E+04</pdfrwt>
<pdfrwt beam="2">  1       -2 0.87556750E-01 0.21418376E+04</pdfrwt>
<totfact> 0.86672896E+00</totfact>
</mgrwt>
<rwgt>
<wgt id='morphing_basis_vector_1'> +1.7878902e-04 </wgt>
<wgt id='morphing_basis_vector_2'> +1.1997364e-04 </wgt>
<wgt id='morphing_basis_vector_3'> +1.9183250e-04 </wgt>
<wgt id='morphing_basis_vector_4'> +1.3375252e-04 </wgt>
<wgt id='morphing_basis_vector_5'> +2.1394645e-04 </wgt>
</rwgt>
</event>
<event>
 4      1 +6.0853000e-08 2.20185200e+03 7.81860800e-03 7.99344300e-02
        2 -1    0    0  501    0 +0.0000000000e+00 +0.0000000000e+00 +1.2527189869e+03 1.2527189869e+03 0.0000000000e+00 0.0000e+00 1.0000e+00
       -2 -1    0    0    0  501 -0.0000000000e+00 -0.0000000000e+00 -9.6752589871e+02 9.6752589871e+02 0.0000000000e+00 0.0000e+00 -1.0000e+00
      -13  1    1    2    0    0 -1.6182068409e+02 -1.0870810708e+03 +2.0721677661e+02 1.1184229883e+03 0.0000000000e+00 0.0000e+00 1.0000e+00
       13  1    1    2    0    0 +1.6182068409e+02 +1.0870810708e+03 +7.7976311547e+01 1.1018218973e+03 0.0000000000e+00 0.0000e+00 -1.0000e+00
<mgrwt>
<rscale>  0 0.22018520E+04</rscale>
<asrwt>0</asrwt>
<pdfrwt beam="1">  1        2 0.19272600E+00 0.22018520E+04</pdfrwt>
<pdfrwt beam="2">  1       -2 0.14885014E+00 0.22018520E+04</pdfrwt>
<totfact> 0.59584022E+00</totfact>
</mgrwt>
<rwgt>
<wgt id='morphing_basis_vector_1'> +2.0795699e-04 </wgt>
<wgt id='morphing_basis_vector_2'> +1.5945852e-04 </wgt>
<wgt id='morphing_basis_vector_3'> +2.2710946e-04 </wgt>
<wgt id='morphing_basis_vector_4'> +1.3219861e-04 </wgt>
<wgt id='morphing_basis_vector_5'> +2.3800705e-04 </wgt>
</rwgt>
</event>
<event>
 4      1 +6.0853000e-08 1.87085500e+03 7.81860800e-03 8.12674600e-02
        2 -1    0    0  501    0 +0.0000000000e+00 +0.0000000000e+00 +6.1700822308e+02 6.1700822308e+02 0.0000000000e+00 0.0000e+00 1.0000e+00
       -2 -1    0    0    0  501 -0.0000000000e+00 -0.0000000000e+00 -1.4181735535e+03 1.4181735535e+03 0.0000000000e+00 0.0000e+00 -1.0000e+00
      -13  1    1    2    0    0 +2.5543890414e+02 -5.0736680726e+02 -1.2090678074e+03 1.3358574302e+03 0.0000000000e+00 0.0000e+00 -1.0000e+00
       13  1    1    2    0    0 -2.5543890414e+02 +5.0736680726e+02 +4.0790247693e+02 6.9932434646e+02 0.0000000000e+00 0.0000e+00 1.0000e+00
<mgrwt>
<rscale>  0 0.18708551E+04</rscale>
<asrwt>0</asrwt>
<pdfrwt beam="1">  1        2 0.94924343E-01 0.18708551E+04</pdfrwt>
<pdfrwt beam="2">  1       -2 0.21818054E+00 0.18708551E+04</pdfrwt>
<totfact> 0.48005649E+00</totfact>
</mgrwt>
<rwgt>
<wgt id='morphing_basis_vector_1'> +1.0511087e-04 </wgt>
<wgt id='morphing_basis_vector_2'> +6.9836581e-05 </wgt>
<wgt id='morphing_basis_vector_3'> +1.1160968e-04 </wgt>
<wgt id='morphing_basis_vector_4'> +7.7261278e-05 </wgt>
<wgt id='morphing_basis_vector_5'> +1.2320766e-04 </wgt>
</rwgt>
</event>
<event>
 4      1 +6.0853000e-08 1.90784300e+03 7.81860800e-03 8.11047600e-02
        2 -1    0    0  501    0 +0.0000000000e+00 +0.0000000000e+00 +1.3793361546e+03 1.3793361546e+03 0.0000000000e+00 0.0000e+00 -1.0000e+00
       -2 -1    0    0    0  501 -0.0000000000e+00 -0.0000000000e+00 -6.5971318147e+02 6.5971318147e+02 0.0000000000e+00 0.0000e+00 1.0000e+00
      -13  1    1    2    0    0 +3.2854000091e+02 +8.7574785747e+02 +5.6002704641e+02 1.0901849085e+03 0.0000000000e+00 0.0000e+00 1.0000e+00
       13  1    1    2    0    0 -3.2854000091e+02 -8.7574785747e+02 +1.5959592673e+02 9.4886442756e+02 0.0000000000e+00 0.0000e+00 -1.0000e+00
<mgrwt>
<rscale>  0 0.19078430E+04</rscale>
<asrwt>0</asrwt>
<pdfrwt beam="1">  1        2 0.21220556E+00 0.19078430E+04</pdfrwt>
<pdfrwt beam="2">  1       -2 0.10149434E+00 0.19078430E+04</pdfrwt>
<totfact> 0.14140062E+01</totfact>
</mgrwt>
<rwgt>
<wgt id='morphing_basis_vector_1'> +1.2161140e-04 </wgt>
<wgt id='morphing_basis_vector_2'> +9.9588539e-05 </wgt>
<wgt id='morphing_basis_vector_3'> +1.3237647e-04 </wgt>
<wgt id='morphing_basis_vector_4'> +6.7634487e-05 </wgt>
<wgt id='morphing_basis_vector_5'> +1.3222244e-04 </wgt>
</rwgt>
</event>
<event>
 4      1 +6.0853000e-08 2.16572700e+03 7.81860800e-03 8.00677000e-02
        2 -1    0    0  501    0 +0.0000000000e+00 +0.0000000000e+00 +2.2789469583e+03 2.2789469583e+03 0.0000000000e+00 0.0000e+00 -1.0000e+00
       -2 -1    0    0    0  501 -0.0000000000e+00 -0.0000000000e+00 -5.1453302752e+02 5.1453302752e+02 0.0000000000e+00 0.0000e+00 1.0000e+00
      -13  1    1    2    0    0 +4.1857979757e+02 +8.0982528093e+02 +1.2836542213e+02 9.2059964923e+02 0.0000000000e+00 0.0000e+00 1.0000e+00
       13  1    1    2    0    0 -4.1857979757e+02 -8.0982528093e+02 +1.6360485087e+03 1.8728803366e+03 0.0000000000e+00 0.0000e+00 -1.0000e+00
<mgrwt>
<rscale>  0 0.21657271E+04</rscale>
<asrwt>0</asrwt>
<pdfrwt beam="1">  1        2 0.35060722E+00 0.21657271E+04</pdfrwt>
<pdfrwt beam="2">  1       -2 0.79158928E-01 0.21657271E+04</pdfrwt>
<totfact> 0.77093783E+00</totfact>
</mgrwt>
<rwgt>
<wgt id='morphing_basis_vector_1'> +1.8712942e-04 </wgt>
<wgt id='morphing_basis_vector_2'> +1.2648148e-04 </wgt>
<wgt id='morphing_basis_vector_3'> +2.0107859e-04 </wgt>
<wgt id='morphing_basis_vector_4'> +1.3917133e-04 </wgt>
<wgt id='morphing_basis_vector_5'> +2.2376445e-04 </wgt>
</rwgt>
</event>
<event>
 4      1 +6.0853000e-08 2.17041600e+03 7.81860800e-03 8.00502500e-02
        2 -1    0    0  501    0 +0.0000000000e+00 +0.0000000000e+00 +2.0508645001e+03 2.0508645001e+03 0.0000000000e+00 0.0000e+00 -1.0000e+00
       -2 -1    0    0    0  501 -0.0000000000e+00 -0.0000000000e+00 -5.7423428489e+02 5.7423428489e+02 0.0000000000e+00 0.0000e+00 1.0000e+00
      -13  1    1    2    0    0 +1.3009135936e+02 -5.3456803397e+02 -3.9305356298e+02 6.7614927944e+02 0.0000000000e+00 0.0000e+00 1.0000e+00
       13  1    1    2    0    0 -1.3009135936e+02 +5.3456803397e+02 +1.8696837782e+03 1.9489495056e+03 0.0000000000e+00 0.0000e+00 -1.0000e+00
<mgrwt>
<rscale>  0 0.21704163E+04</rscale>
<asrwt>0</asrwt>
<pdfrwt beam="1">  1        2 0.31551761E+00 0.21704163E+04</pdfrwt>
<pdfrwt beam="2">  1       -2 0.88343738E-01 0.21704163E+04</pdfrwt>
<totfact> 0.80841048E+00</totfact>
</mgrwt>
<rwgt>
<wgt id='morphing_basis_vector_1'> +1.8809304e-04 </wgt>
<wgt id='morphing_basis_vector_2'> +1.2569731e-04 </wgt>
<wgt id='morphing_basis_vector_3'> +2.0188180e-04 </wgt>
<wgt id='morphing_basis_vector_4'> +1.4167818e-04 </wgt>
<wgt id='morphing_basis_vector_5'> +2.2584403e-04 </wgt>
</rwgt>
</event>
<event>
 4      1 +6.0853000e-08 2.11426900e+03 7.81860800e-03 8.02622500e-02
        2 -1    0    0  501    0 +0.0000000000e+00 +0.0000000000e+00 +1.2537384552e+03 1.2537384552e+03 0.0000000000e+00 0.0000e+00 1.0000e+00
       -2 -1    0    0    0  501 -0.0000000000e+00 -0.0000000000e+00 -8.9136053573e+02 8.9136053573e+02 0.0000000000e+00 0.0000e+00 -1.0000e+00
      -13  1    1    2    0    0 +5.5324243004e+02 +8.9856630276e+02 +1.1674587274e+02 1.0616629341e+03 0.0000000000e+00 0.0000e+00 -1.0000e+00
       13  1    1    2    0    0 -5.5324243004e+02 -8.9856630276e+02 +2.4563204672e+02 1.0834360568e+03 0.0000000000e+00 0.0000e+00 1.0000e+00
<mgrwt>
<rscale>  0 0.21142686E+04</rscale>
<asrwt>0</asrwt>
<pdfrwt beam="1">  1        2 0.19288284E+00 0.21142686E+04</pdfrwt>
<pdfrwt beam="2">  1       -2 0.13713239E+00 0.21142686E+04</pdfrwt>
<totfact> 0.75370191E+00</totfact>
</mgrwt>
<rwgt>
<wgt id='morphing_basis_vector_1'> +1.7463406e-04 </wgt>
<wgt id='morphing_basis_vector_2'> +1.2791099e-04 </wgt>
<wgt id='morphing_basis_vector_3'> +1.8912060e-04 </wgt>
<wgt id='morphing_basis_vector_4'> +1.1741865e-04 </wgt>
<wgt id='morphing_basis_vector_5'> +2.0220218e-04 </wgt>
</rwgt>
</event>
<event>
 4      1 +6.0853000e-08 2.18194700e+03 7.81860800e-03 8.00075300e-02
        2 -1    0    0  501    0 +0.0000000000e+00 +0.0000000000e+00 +1.9010649890e+03 1.9010649890e+03 0.0000000000e+00 0.0000e+00 1.0000e+00
       -2 -1    0    0    0  501 -0.0000000000e+00 -0.0000000000e+00 -6.2608226083e+02 6.2608226083e+02 0.0000000000e+00 0.0000e+00 -1.0000e+00
      -13  1    1    2    0    0 -8.4235328340e+02 -6.7249089562e+02 +4.4223802688e+02 1.1650654622e+03 0.0000000000e+00 0.0000e+00 -1.0000e+00
       13  1    1    2    0    0 +8.4235328340e+02 +6.7249089562e+02 +8.3274470133e+02 1.3620817877e+03 0.0000000000e+00 0.0000e+00 1.0000e+00
<mgrwt>
<rscale>  0 0.21819469E+04</rscale>
<asrwt>0</asrwt>
<pdfrwt beam="1">  1        2 0.29247153E+00 0.21819469E+04</pdfrwt>
<pdfrwt beam="2">  1       -2 0.96320349E-01 0.21819469E+04</pdfrwt>
<totfact> 0.80024497E+00</totfact>
</mgrwt>
<rwgt>
<wgt id='morphing_basis_vector_1'> +1.9596089e-04 </wgt>
<wgt id='morphing_basis_vector_2'> +1.3992540e-04 </wgt>
<wgt id='morphing_basis_vector_3'> +2.1201140e-04 </wgt>
<wgt id='morphing_basis_vector_4'> +1.3688422e-04 </wgt>
<wgt id='morphing_basis_vector_5'> +2.3013548e-04 </wgt>
</rwgt>
</event>
<event>
 4      1 +6.0853000e-08 2.19274900e+03 7.81860800e-03 7.99677700e-02
        2 -1    0    0  501    0 +0.0000000000e+00 +0.0000000000e+00 +1.1361864136e+03 1.1361864136e+03 0.0000000000e+00 0.0000e+00 -1.0000e+00
       -2 -1    0    0    0  501 -0.0000000000e+00 -0.0000000000e+00 -1.0579572715e+03 1.0579572715e+03 0.0000000000e+00 0.0000e+00 1.0000e+00
      -13  1    1    2    0    0 -6.4226572953e+01 -9.8308931523e+02 -4.4228090972e+02 1.0799083561e+03 0.0000000000e+00 0.0000e+00 1.0000e+00
       13  1    1    2    0    0 +6.4226572953e+01 +9.8308931523e+02 +5.2051005178e+02 1.1142353290e+03 0.0000000000e+00 0.0000e+00 -1.0000e+00
<mgrwt>
<rscale>  0 0.21927487E+04</rscale>
<asrwt>0</asrwt>
<pdfrwt beam="1">  1        2 0.17479791E+00 0.21927487E+04</pdfrwt>
<pdfrwt beam="2">  1       -2 0.16276266E+00 0.21927487E+04</pdfrwt>
<totfact> 0.53782622E+00</totfact>
</mgrwt>
<rwgt>
<wgt id='morphing_basis_vector_1'> +1.9696495e-04 </wgt>
<wgt id='morphing_basis_vector_2'> +1.3430297e-04 </wgt>
<wgt id='morphing_basis_vector_3'> +2.1201483e-04 </wgt>
<wgt id='morphing_basis_vector_4'> +1.4538566e-04 </wgt>
<wgt id='morphing_basis_vector_5'> +2.3526163e-04 </wgt>
</rwgt>
</event>
<event>
 4      1 +6.0853000e-08 1.96848900e+03 7.81860800e-03 8.08461500e-02
        2 -1    0    0  501    0 +0.0000000000e+00 +0.0000000000e+00 +2.8267821304e+03 2.8267821304e+03 0.0000000000e+00 0.0000e+00 -1.0000e+00
       -2 -1    0    0    0  501 -0.0000000000e+00 -0.0000000000e+00 -3.4269969580e+02 3.4269969580e+02 0.0000000000e+00 0.0000e+00 1.0000e+00
      -13  1    1    2    0    0 +8.3170985072e+02 +5.2558105041e+02 +1.2864481208e+03 1.6195448385e+03 0.0000000000e+00 0.0000e+00 1.0000e+00
       13  1    1    2    0    0 -8.3170985072e+02 -5.2558105041e+02 +1.1976343138e+03 1.5499369878e+03 0.0000000000e+00 0.0000e+00 -1.0000e+00
<mgrwt>
<rscale>  0 0.19684891E+04</rscale>
<asrwt>0</asrwt>
<pdfrwt beam="1">  1        2 0.43488954E+00 0.19684891E+04</pdfrwt>
<pdfrwt beam="2">  1       -2 0.52723032E-01 0.19684891E+04</pdfrwt>
<totfact> 0.86395825E+00</totfact>
</mgrwt>
<rwgt>
<wgt id='morphing_basis_vector_1'> +1.3337120e-04 </wgt>
<wgt id='morphing_basis_vector_2'> +1.0057877e-04 </wgt>
<wgt id='morphing_basis_vector_3'> +1.4415615e-04 </wgt>
<wgt id='morphing_basis_vector_4'> +8.4957883e-05 </wgt>
<wgt id='morphing_basis_vector_5'> +1.5088812e-04 </wgt>
</rwgt>
</event>
<event>
 4      1 +6.0853000e-08 2.12871600e+03 7.81860800e-03 8.02070600e-02
        2 -1    0    0  501    0 +0.0000000000e+00 +0.0000000000e+00 +1.4253778831e+03 1.4253778831e+03 0.0000000000e+00 0.0000e+00 -1.0000e+00
       -2 -1    0    0    0  501 -0.0000000000e+00 -0.0000000000e+00 -7.9477696018e+02 7.9477696018e+02 0.0000000000e+00 0.0000e+00 1.0000e+00
      -13  1    1    2    0    0 -1.4894507915e+01 +2.4110654030e+02 -7.6580858666e+02 8.0300498226e+02 0.0000000000e+00 0.0000e+00 1.0000e+00
       13  1    1    2    0    0 +1.4894507915e+01 -2.4110654030e+02 +1.3964095096e+03 1.4171498611e+03 0.0000000000e+00 0.0000e+00 -1.0000e+00
<mgrwt>
<rscale>  0 0.21287156E+04</rscale>
<asrwt>0</asrwt>
<pdfrwt beam="1">  1        2 0.21928891E+00 0.21287156E+04</pdfrwt>
<pdfrwt beam="2">  1       -2 0.12227338E+00 0.21287156E+04</pdfrwt>
<totfact> 0.81687608E+00</totfact>
</mgrwt>
<rwgt>
<wgt id='morphing_basis_vector_1'> +1.7424818e-04 </wgt>
<wgt id='morphing_basis_vector_2'> +1.1626668e-04 </wgt>
<wgt id='morphing_basis_vector_3'> +1.8677318e-04 </wgt>
<wgt id='morphing_basis_vector_4'> +1.3100381e-04 </wgt>
<wgt id='morphing_basis_vector_5'> +2.0870504e-04 </wgt>
</rwgt>
</event>
<event>
 4      1 +6.0853000e-08 1.94240800e+03 7.81860800e-03 8.09561600e-02
        2 -1    0    0  501    0 +0.0000000000e+00 +0.0000000000e+00 +3.8461645571e+02 3.8461645571e+02 0.0000000000e+00 0.0000e+00 1.0000e+00
       -2 -1    0    0    0  501 -0.0000000000e+00 -0.0000000000e+00 -2.4524102368e+03 2.4524102368e+03 0.0000000000e+00 0.0000e+00 -1.0000e+00
      -13  1    1    2    0    0 +7.4840291380e+02 +6.1896534677e+02 -1.0287721091e+03 1.4147781007e+03 0.0000000000e+00 0.0000e+00 1.0000e+00
       13  1    1    2    0    0 -7.4840291380e+02 -6.1896534677e+02 -1.0390216721e+03 1.4222485918e+03 0.0000000000e+00 0.0000e+00 -1.0000e+00
<mgrwt>
<rscale>  0 0.19424081E+04</rscale>
<asrwt>0</asrwt>
<pdfrwt beam="1">  1        2 0.59171762E-01 0.19424081E+04</pdfrwt>
<pdfrwt beam="2">  1       -2 0.37729389E+00 0.19424081E+04</pdfrwt>
<totfact> 0.69535463E-01</totfact>
</mgrwt>
<rwgt>
<wgt id='morphing_basis_vector_1'> +1.2617189e-04 </wgt>
<wgt id='morphing_basis_vector_2'> +9.4189194e-05 </wgt>
<wgt id='morphing_basis_vector_3'> +1.3606491e-04 </wgt>
<wgt id='morphing_basis_vector_4'> +8.1274417e-05 </wgt>
<wgt id='morphing_basis_vector_5'> +1.4295386e-04 </wgt>
</rwgt>
</event>
<event>
 4      1 +6.0853000e-08 1.87694300e+03 7.81860800e-03 8.12404100e-02
        2 -1    0    0  501    0 +0.0000000000e+00 +0.0000000000e+00 +2.2138462802e+03 2.2138462802e+03 0.0000000000e+00 0.0000e+00 -1.0000e+00
       -2 -1    0    0    0  501 -0.0000000000e+00 -0.0000000000e+00 -3.9782733036e+02 3.9782733036e+02 0.0000000000e+00 0.0000e+00 1.0000e+00
      -13  1    1    2    0    0 -2.9994742326e+02 -2.8775888630e+02 +2.0787770047e+03 2.1199262885e+03 0.0000000000e+00 0.0000e+00 -1.0000e+00
       13  1    1    2    0    0 +2.9994742326e+02 +2.8775888630e+02 -2.6275805486e+02 4.9174732207e+02 0.0000000000e+00 0.0000e+00 1.0000e+00
<mgrwt>
<rscale>  0 0.18769428E+04</rscale>
<asrwt>0</asrwt>
<pdfrwt beam="1">  1        2 0.34059173E+00 0.18769428E+04</pdfrwt>
<pdfrwt beam="2">  1       -2 0.61204206E-01 0.18769428E+04</pdfrwt>
<totfact> 0.14976944E+01</totfact>
</mgrwt>
<rwgt>
<wgt id='morphing_basis_vector_1'> +1.4470556e-04 </wgt>
<wgt id='morphing_basis_vector_2'> +1.8413562e-04 </wgt>
<wgt id='morphing_basis_vector_3'> +1.6775555e-04 </wgt>
<wgt id='morphing_basis_vector_4'> +3.0266746e-06 </wgt>
<wgt id='morphing_basis_vector_5'> +1.1897826e-04 </wgt>
</rwgt>
</event>
<event>
 4      1 +6.0853000e-08 1.97078500e+03 7.81860800e-03 8.08365500e-02
        2 -1    0    0  501    0 +0.0000000000e+00 +0.0000000000e+00 +1.8049289035e+03 1.8049289035e+03 0.0000000000e+00 0.0000e+00 -1.0000e+00
       -2 -1    0    0    0  501 -0.0000000000e+00 -0.0000000000e+00 -5.3797066223e+02 5.3797066223e+02 0.0000000000e+00 0.0000e+00 1.0000e+00
      -13  1    1    2    0    0 +1.8249333155e+02 -4.8449771530e+02 -3.6325354903e+02 6.3245157370e+02 0.0000000000e+00 0.0000e+00 1.0000e+00
       13  1    1    2    0    0 -1.8249333155e+02 +4.8449771530e+02 +1.6302117903e+03 1.7104479920e+03 0.0000000000e+00 0.0000e+00 -1.0000e+00
<mgrwt>
<rscale>  0 0.19707854E+04</rscale>
<asrwt>0</asrwt>
<pdfrwt beam="1">  1        2 0.27768137E+00 0.19707854E+04</pdfrwt>
<pdfrwt beam="2">  1       -2 0.82764718E-01 0.19707854E+04</pdfrwt>
<totfact> 0.13133689E+01</totfact>
</mgrwt>
<rwgt>
<wgt id='morphing_basis_vector_1'> +1.2881012e-04 </wgt>
<wgt id='morphing_basis_vector_2'> +8.5727686e-05 </wgt>
<wgt id='morphing_basis_vector_3'> +1.3733178e-04 </wgt>
<wgt id='morphing_basis_vector_4'> +9.5627501e-05 </wgt>
<wgt id='morphing_basis_vector_5'> +1.5241610e-04 </wgt>
</rwgt>
</event>
<event>
 4      1 +6.0853000e-08 2.02798300e+03 7.81860800e-03 8.06017100e-02
        2 -1    0    0  501    0 +0.0000000000e+00 +0.0000000000e+00 +1.3663026959e+03 1.3663026959e+03 0.0000000000e+00 0.0000e+00 1.0000e+00
       -2 -1    0    0    0  501 -0.0000000000e+00 -0.0000000000e+00 -7.5252667731e+02 7.5252667731e+02 0.0000000000e+00 0.0000e+00 -1.0000e+00
      -13  1    1    2    0    0 +1.1332888395e+02 +6.9722813169e+02 +1.0669431032e+03 1.2795851238e+03 0.0000000000e+00 0.0000e+00 1.0000e+00
       13  1    1    2    0    0 -1.1332888395e+02 -6.9722813169e+02 -4.5316708463e+02 8.3924424940e+02 0.0000000000e+00 0.0000e+00 -1.0000e+00
<mgrwt>
<rscale>  0 0.20279835E+04</rscale>
<asrwt>0</asrwt>
<pdfrwt beam="1">  1        2 0.21020041E+00 0.20279835E+04</pdfrwt>
<pdfrwt beam="2">  1       -2 0.11577333E+00 0.20279835E+04</pdfrwt>
<totfact> 0.10251093E+01</totfact>
</mgrwt>
<rwgt>
<wgt id='morphing_basis_vector_1'> +1.8680763e-04 </wgt>
<wgt id='morphing_basis_vector_2'> +2.2246233e-04 </wgt>
<wgt id='morphing_basis_vector_3'> +2.1636069e-04 </wgt>
<wgt id='morphing_basis_vector_4'> +2.2282286e-05 </wgt>
<wgt id='morphing_basis_vector_5'> +1.6455543e-04 </wgt>
</rwgt>
</event>
<event>
 4      1 +6.0853000e-08 1.92743200e+03 7.81860800e-03 8.10201500e-02
        2 -1    0    0  501    0 +0.0000000000e+00 +0.0000000000e+00 +3.4074390481e+03 3.4074390481e+03 0.0000000000e+00 0.0000e+00 1.0000e+00
       -2 -1    0    0    0  501 -0.0000000000e+00 -0.0000000000e+00 -2.7256493985e+02 2.7256493985e+02 0.0000000000e+00 0.0000e+00 -1.0000e+00
      -13  1    1    2    0    0 -5.0129828490e+02 -4.8666758870e+02 +3.0009738941e+02 7.6039710380e+02 0.0000000000e+00 0.0000e+00 -1.0000e+00
       13  1    1    2    0    0 +5.0129828490e+02 +4.8666758870e+02 +2.8347767189e+03 2.9196068842e+03 0.0000000000e+00 0.0000e+00 1.0000e+00
<mgrwt>
<rscale>  0 0.19274319E+04</rscale>
<asrwt>0</asrwt>
<pdfrwt beam="1">  1        2 0.52422136E+00 0.19274319E+04</pdfrwt>
<pdfrwt beam="2">  1       -2 0.41933070E-01 0.19274319E+04</pdfrwt>
<totfact> 0.55474385E+00</totfact>
</mgrwt>
<rwgt>
<wgt id='morphing_basis_vector_1'> +1.1819825e-04 </wgt>
<wgt id='morphing_basis_vector_2'> +7.8880260e-05 </wgt>
<wgt id='morphing_basis_vector_3'> +1.2584958e-04 </wgt>
<wgt id='morphing_basis_vector_4'> +8.7068083e-05 </wgt>
<wgt id='morphing_basis_vector_5'> +1.3915701e-04 </wgt>
</rwgt>
</event>
<event>
 4      1 +6.0853000e-08 1.86102500e+03 7.81860800e-03 8.13113600e-02
        2 -1    0    0  501    0 +0.0000000000e+00 +0.0000000000e+00 +2.0990992723e+03 2.0990992723e+03 0.0000000000e+00 0.0000e+00 -1.0000e+00
       -2 -1    0    0    0  501 -0.0000000000e+00 -0.0000000000e+00 -4.1248821585e+02 4.1248821585e+02 0.0000000000e+00 0.0000e+00 1.0000e+00
      -13  1    1    2    0    0 +3.5881739004e+02 -8.1256294955e+02 +4.6919101214e+02 1.0045639214e+03 0.0000000000e+00 0.0000e+00 1.0000e+00
       13  1    1    2    0    0 -3.5881739004e+02 +8.1256294955e+02 +1.2174200443e+03 1.5070235667e+03 0.0000000000e+00 0.0000e+00 -1.0000e+00
<mgrwt>
<rscale>  0 0.18610252E+04</rscale>
<asrwt>0</asrwt>
<pdfrwt beam="1">  1        2 0.32293834E+00 0.18610252E+04</pdfrwt>
<pdfrwt beam="2">  1       -2 0.63459727E-01 0.18610252E+04</pdfrwt>
<totfact> 0.16174840E+01</totfact>
</mgrwt>
<rwgt>
<wgt id='morphing_basis_vector_1'> +1.0409719e-04 </wgt>
<wgt id='morphing_basis_vector_2'> +7.1738776e-05 </wgt>
<wgt id='morphing_basis_vector_3'> +1.1089541e-04 </wgt>
<wgt id='morphing_basis_vector_4'> +7.3398706e-05 </wgt>
<wgt id='morphing_basis_vector_5'> +1.2040672e-04 </wgt>
</rwgt>
</event>
<event>
 4      1 +6.0853000e-08 1.88320700e+03 7.81860800e-03 8.12126900e-02
        2 -1    0    0  501    0 +0.0000000000e+00 +0.0000000000e+00 +1.9708213641e+03 1.9708213641e+03 0.0000000000e+00 0.0000e+00 1.0000e+00
       -2 -1    0    0    0  501 -0.0000000000e+00 -0.0000000000e+00 -4.4987206224e+02 4.4987206224e+02 0.0000000000e+00 0.0000e+00 -1.0000e+00
      -13  1    1    2    0    0 +8.7427118589e+02 +3.2681955185e+02 +9.2028137915e+02 1.3107551040e+03 0.0000000000e+00 0.0000e+00 1.0000e+00
       13  1    1    2    0    0 -8.7427118589e+02 -3.2681955185e+02 +6.0066792272e+02 1.1099383223e+03 0.0000000000e+00 0.0000e+00 -1.0000e+00
<mgrwt>
<rscale>  0 0.18832073E+04</rscale>
<asrwt>0</asrwt>
<pdfrwt beam="1">  1        2 0.30320328E+00 0.18832073E+04</pdfrwt>
<pdfrwt beam="2">  1       -2 0.69211088E-01 0.18832073E+04</pdfrwt>
<totfact> 0.15880412E+01</totfact>
</mgrwt>
<rwgt>
<wgt id='morphing_basis_vector_1'> +1.1405685e-04 </wgt>
<wgt id='morphing_basis_vector_2'> +9.0080928e-05 </wgt>
<wgt id='morphing_basis_vector_3'> +1.2346433e-04 </wgt>
<wgt id='morphing_basis_vector_4'> +6.7146498e-05 </wgt>
<wgt id='morphing_basis_vector_5'> +1.2561529e-04 </wgt>
</rwgt>
</event>
<event>
 4      1 +6.0853000e-08 1.91813200e+03 7.81860800e-03 8.10601900e-02
        2 -1    0    0  501    0 +0.0000000000e+00 +0.0000000000e+00 +1.6642673635e+03 1.6642673635e+03 0.0000000000e+00 0.0000e+00 -1.0000e+00
       -2 -1    0    0    0  501 -0.0000000000e+00 -0.0000000000e+00 -5.5268022163e+02 5.5268022163e+02 0.0000000000e+00 0.0000e+00 1.0000e+00
      -13  1    1    2    0    0 +2.1710070547e+02 -7.2758038880e+02 -1.2140324491e+02 7.6892436973e+02 0.0000000000e+00 0.0000e+00 1.0000e+00
       13  1    1    2    0    0 -2.1710070547e+02 +7.2758038880e+02 +1.2329903868e+03 1.4480232154e+03 0.0000000000e+00 0.0000e+00 -1.0000e+00
<mgrwt>
<rscale>  0 0.19181321E+04</rscale>
<asrwt>0</asrwt>
<pdfrwt beam="1">  1        2 0.25604113E+00 0.19181321E+04</pdfrwt>
<pdfrwt beam="2">  1       -2 0.85027727E-01 0.19181321E+04</pdfrwt>
<totfact> 0.14850338E+01</totfact>
</mgrwt>
<rwgt>
<wgt id='morphing_basis_vector_1'> +1.1609572e-04 </wgt>
<wgt id='morphing_basis_vector_2'> +7.7718534e-05 </wgt>
<wgt id='morphing_basis_vector_3'> +1.2360555e-04 </wgt>
<wgt id='morphing_basis_vector_4'> +8.5141152e-05 </wgt>
<wgt id='morphing_basis_vector_5'> +1.3641546e-04 </wgt>
</rwgt>
</event>
<event>
 4      1 +6.0853000e-08 2.05506100e+03 7.81860800e-03 8.04933200e-02
        2 -1    0    0  501    0 +0.0000000000e+00 +0.0000000000e+00 +1.0753913522e+03 1.0753913522e+03 0.0000000000e+00 0.0000e+00 1.0000e+00
       -2 -1    0    0    0  501 -0.0000000000e+00 -0.0000000000e+00 -9.8179959603e+02 9.8179959603e+02 0.0000000000e+00 0.0000e+00 -1.0000e+00
      -13  1    1    2    0    0 -5.3463020213e+02 -8.7633159780e+02 +1.6684150242e+00 1.0265424034e+03 0.0000000000e+00 0.0000e+00 -1.0000e+00
       13  1    1    2    0    0 +5.3463020213e+02 +8.7633159780e+02 +9.1923341121e+01 1.0306485448e+03 0.0000000000e+00 0.0000e+00 1.0000e+00
<mgrwt>
<rscale>  0 0.20550609E+04</rscale>
<asrwt>0</asrwt>
<pdfrwt beam="1">  1        2 0.16544482E+00 0.20550609E+04</pdfrwt>
<pdfrwt beam="2">  1       -2 0.15104609E+00 0.20550609E+04</pdfrwt>
<totfact> 0.73640103E+00</totfact>
</mgrwt>
<rwgt>
<wgt id='morphing_basis_vector_1'> +1.5648146e-04 </wgt>
<wgt id='morphing_basis_vector_2'> +1.1510369e-04 </wgt>
<wgt id='morphing_basis_vector_3'> +1.6920628e-04 </wgt>
<wgt id='morphing_basis_vector_4'> +1.0405150e-04 </wgt>
<wgt id='morphing_basis_vector_5'> +1.8006625e-04 </wgt>
</rwgt>
</event>
<event>
 4      1 +6.0853000e-08 1.97825100e+03 7.81860800e-03 8.08054300e-02
        2 -1    0    0  501    0 +0.0000000000e+00 +0.0000000000e+00 +2.3661895774e+03 2.3661895774e+03 0.0000000000e+00 0.0000e+00 -1.0000e+00
       -2 -1    0    0    0  501 -0.0000000000e+00 -0.0000000000e+00 -4.1347866757e+02 4.1347866757e+02 0.0000000000e+00 0.0000e+00 1.0000e+00
      -13  1    1    2    0    0 +5.8881972526e+02 +7.8753435369e+02 +8.2600240584e+02 1.2842114318e+03 0.0000000000e+00 0.0000e+00 1.0000e+00
       13  1    1    2    0    0 -5.8881972526e+02 -7.8753435369e+02 +1.1267085040e+03 1.4954568132e+03 0.0000000000e+00 0.0000e+00 -1.0000e+00
<mgrwt>
<rscale>  0 0.19782507E+04</rscale>
<asrwt>0</asrwt>
<pdfrwt beam="1">  1        2 0.36402916E+00 0.19782507E+04</pdfrwt>
<pdfrwt beam="2">  1       -2 0.63612104E-01 0.19782507E+04</pdfrwt>
<totfact> 0.11186934E+01</totfact>
</mgrwt>
<rwgt>
<wgt id='morphing_basis_vector_1'> +1.3390397e-04 </wgt>
<wgt id='morphing_basis_vector_2'> +9.6415959e-05 </wgt>
<wgt id='morphing_basis_vector_3'> +1.4402489e-04 </wgt>
<wgt id='morphing_basis_vector_4'> +9.0814174e-05 </wgt>
<wgt id='morphing_basis_vector_5'> +1.5429078e-04 </wgt>
</rwgt>
</event>
<event>
 4      1 +6.0853000e-08 1.91711700e+03 7.81860800e-03 8.10645700e-02
        2 -1    0    0  501    0 +0.0000000000e+00 +0.0000000000e+00 +6.6951369997e+02 6.6951369997e+02 0.0000000000e+00 0.0000e+00 -1.0000e+00
       -2 -1    0    0    0  501 -0.0000000000e+00 -0.0000000000e+00 -1.3723904763e+03 1.3723904763e+03 0.0000000000e+00 0.0000e+00 1.0000e+00
      -13  1    1    2    0    0 +5.1472658142e+02 -7.2670810671e+02 -7.2918719835e+02 1.1509830999e+03 0.0000000000e+00 0.0000e+00 1.0000e+00
       13  1    1    2    0    0 -5.1472658142e+02 +7.2670810671e+02 +2.6310422054e+01 8.9092107635e+02 0.0000000000e+00 0.0000e+00 -1.0000e+00
<mgrwt>
<rscale>  0 0.19171168E+04</rscale>
<asrwt>0</asrwt>
<pdfrwt beam="1">  1        2 0.10300211E+00 0.19171168E+04</pdfrwt>
<pdfrwt beam="2">  1       -2 0.21113699E+00 0.19171168E+04</pdfrwt>
<totfact> 0.48699178E+00</totfact>
</mgrwt>
<rwgt>
<wgt id='morphing_basis_vector_1'> +1.1655250e-04 </wgt>
<wgt id='morphing_basis_vector_2'> +7.9621007e-05 </wgt>
<wgt id='morphing_basis_vector_3'> +1.2434733e-04 </wgt>
<wgt id='morphing_basis_vector_4'> +8.3580421e-05 </wgt>
<wgt id='morphing_basis_vector_5'> +1.3601264e-04 </wgt>
</rwgt>
</event>
<event>
 4      1 +6.0853000e-08 2.19066600e+03 7.81860800e-03 7.99754200e-02
        2 -1    0    0  501    0 +0.0000000000e+00 +0.0000000000e+00 +3.5267788400e+03 3.5267788400e+03 0.0000000000e+00 0.0000e+00 -1.0000e+00
       -2 -1    0    0    0  501 -0.0000000000e+00 -0.0000000000e+00 -3.4018418741e+02 3.4018418741e+02 0.0000000000e+00 0.0000e+00 1.0000e+00
      -13  1    1    2    0    0 +7.7721744493e+02 +5.5354881495e+02 +6.4390348954e+02 1.1511276867e+03 0.0000000000e+00 0.0000e+00 1.0000e+00
       13  1    1    2    0    0 -7.7721744493e+02 -5.5354881495e+02 +2.5426911630e+03 2.7158353407e+03 0.0000000000e+00 0.0000e+00 -1.0000e+00
<mgrwt>
<rscale>  0 0.21906660E+04</rscale>
<asrwt>0</asrwt>
<pdfrwt beam="1">  1        2 0.54258134E+00 0.21906660E+04</pdfrwt>
<pdfrwt beam="2">  1       -2 0.52336031E-01 0.21906660E+04</pdfrwt>
<totfact> 0.28886681E+00</totfact>
</mgrwt>
<rwgt>
<wgt id='morphing_basis_vector_1'> +1.9595618e-04 </wgt>
<wgt id='morphing_basis_vector_2'> +1.3298685e-04 </wgt>
<wgt id='morphing_basis_vector_3'> +2.1080342e-04 </wgt>
<wgt id='morphing_basis_vector_4'> +1.4537809e-04 </wgt>
<wgt id='morphing_basis_vector_5'> +2.3439841e-04 </wgt>
</rwgt>
</event>
<event>
 4      1 +6.0853000e-08 2.12256400e+03 7.81860800e-03 8.02305000e-02
        2 -1    0    0  501    0 +0.0000000000e+00 +0.0000000000e+00 +2.4586184649e+03 2.4586184649e+03 0.0000000000e+00 0.0000e+00 -1.0000e+00
       -2 -1    0    0    0  501 -0.0000000000e+00 -0.0000000000e+00 -4.5811053610e+02 4.5811053610e+02 0.0000000000e+00 0.0000e+00 1.0000e+00
      -13  1    1    2    0    0 -6.6216965066e+02 -5.4677392090e+02 +1.4331870609e+02 8.7061508047e+02 0.0000000000e+00 0.0000e+00 1.0000e+00
       13  1    1    2    0    0 +6.6216965066e+02 +5.4677392090e+02 +1.8571892227e+03 2.0461139206e+03 0.0000000000e+00 0.0000e+00 -1.0000e+00
<mgrwt>
<rscale>  0 0.21225636E+04</rscale>
<asrwt>0</asrwt>
<pdfrwt beam="1">  1        2 0.37824899E+00 0.21225636E+04</pdfrwt>
<pdfrwt beam="2">  1       -2 0.70478546E-01 0.21225636E+04</pdfrwt>
<totfact> 0.78459456E+00</totfact>
</mgrwt>
<rwgt>
<wgt id='morphing_basis_vector_1'> +1.7274577e-04 </wgt>
<wgt id='morphing_basis_vector_2'> +1.1632098e-04 </wgt>
<wgt id='morphing_basis_vector_3'> +1.8531727e-04 </wgt>
<wgt id='morphing_basis_vector_4'> +1.2853142e-04 </wgt>
<wgt id='morphing_basis_vector_5'> +2.0618562e-04 </wgt>
</rwgt>
</event>
<event>
 4      1 +6.0853000e-08 1.98291700e+03 7.81860800e-03 8.07860500e-02
        2 -1    0    0  501    0 +0.0000000000e+00 +0.0000000000e+00 +2.9019155093e+03 2.9019155093e+03 0.0000000000e+00 0.0000e+00 -1.0000e+00
       -2 -1    0    0    0  501 -0.0000000000e+00 -0.0000000000e+00 -3.3873832409e+02 3.3873832409e+02 0.0000000000e+00 0.0000e+00 1.0000e+00
      -13  1    1    2    0    0 +3.1019683729e+02 +6.2961459457e+02 +1.3717585125e+02 7.1516000289e+02 0.0000000000e+00 0.0000e+00 1.0000e+00
       13  1    1    2    0    0 -3.1019683729e+02 -6.2961459457e+02 +2.4260013339e+03 2.5254938305e+03 0.0000000000e+00 0.0000e+00 -1.0000e+00
<mgrwt>
<rscale>  0 0.19829170E+04</rscale>
<asrwt>0</asrwt>
<pdfrwt beam="1">  1        2 0.44644852E+00 0.19829170E+04</pdfrwt>
<pdfrwt beam="2">  1       -2 0.52113590E-01 0.19829170E+04</pdfrwt>
<totfact> 0.79143719E+00</totfact>
</mgrwt>
<rwgt>
<wgt id='morphing_basis_vector_1'> +1.3206760e-04 </wgt>
<wgt id='morphing_basis_vector_2'> +8.8204544e-05 </wgt>
<wgt id='morphing_basis_vector_3'> +1.4091771e-04 </wgt>
<wgt id='morphing_basis_vector_4'> +9.7806907e-05 </wgt>
<wgt id='morphing_basis_vector_5'> +1.5626368e-04 </wgt>
</rwgt>
</event>
<event>
 4      1 +6.0853000e-08 1.92451000e+03 7.81860800e-03 8.10327000e-02
        2 -1    0    0  501    0 +0.0000000000e+00 +0.0000000000e+00 +2.2223939954e+03 2.2223939954e+03 0.0000000000e+00 0.0000e+00 -1.0000e+00
       -2 -1    0    0    0  501 -0.0000000000e+00 -0.0000000000e+00 -4.1663835540e+02 4.1663835540e+02 0.0000000000e+00 0.0000e+00 1.0000e+00
      -13  1    1    2    0    0 +6.6230536455e+02 +4.5808045287e+02 +1.8058093261e+02 8.2528514493e+02 0.0000000000e+00 0.0000e+00 1.0000e+00
       13  1    1    2    0    0 -6.6230536455e+02 -4.5808045287e+02 +1.6251747074e+03 1.8137472058e+03 0.0000000000e+00 0.0000e+00 -1.0000e+00
<mgrwt>
<rscale>  0 0.19245099E+04</rscale>
<asrwt>0</asrwt>
<pdfrwt beam="1">  1        2 0.34190676E+00 0.19245099E+04</pdfrwt>
<pdfrwt beam="2">  1       -2 0.64098210E-01 0.19245099E+04</pdfrwt>
<totfact> 0.13400082E+01</totfact>
</mgrwt>
<rwgt>
<wgt id='morphing_basis_vector_1'> +1.1774091e-04 </wgt>
<wgt id='morphing_basis_vector_2'> +7.9125327e-05 </wgt>
<wgt id='morphing_basis_vector_3'> +1.2543850e-04 </wgt>
<wgt id='morphing_basis_vector_4'> +8.6051336e-05 </wgt>
<wgt id='morphing_basis_vector_5'> +1.3825924e-04 </wgt>
</rwgt>
</event>
<event>
 4      1 +6.0853000e-08 2.10216300e+03 7.81860800e-03 8.03088500e-02
        2 -1    0    0  501    0 +0.0000000000e+00 +0.0000000000e+00 +2.3739214047e+03 2.3739214047e+03 0.0000000000e+00 0.0000e+00 1.0000e+00
       -2 -1    0    0    0  501 -0.0000000000e+00 -0.0000000000e+00 -4.6537849184e+02 4.6537849184e+02 0.0000000000e+00 0.0000e+00 -1.0000e+00
      -13  1    1    2    0    0 +4.2668631338e+02 -7.7867604268e+02 +1.7139775292e+03 1.9303151453e+03 0.0000000000e+00 0.0000e+00 1.0000e+00
       13  1    1    2    0    0 -4.2668631338e+02 +7.7867604268e+02 +1.9456538363e+02 9.0898475124e+02 0.0000000000e+00 0.0000e+00 -1.0000e+00
<mgrwt>
<rscale>  0 0.21021627E+04</rscale>
<asrwt>0</asrwt>
<pdfrwt beam="1">  1        2 0.36521867E+00 0.21021627E+04</pdfrwt>
<pdfrwt beam="2">  1       -2 0.71596692E-01 0.21021627E+04</pdfrwt>
<totfact> 0.85221289E+00</totfact>
</mgrwt>
<rwgt>
<wgt id='morphing_basis_vector_1'> +1.9930504e-04 </wgt>
<wgt id='morphing_basis_vector_2'> +2.0953405e-04 </wgt>
<wgt id='morphing_basis_vector_3'> +2.2693537e-04 </wgt>
<wgt id='morphing_basis_vector_4'> +5.7426726e-05 </wgt>
<wgt id='morphing_basis_vector_5'> +1.9297688e-04 </wgt>
</rwgt>
</event>
<event>
 4      1 +6.0853000e-08 2.04312000e+03 7.81860800e-03 8.05409000e-02
        2 -1    0    0  501    0 +0.0000000000e+00 +0.0000000000e+00 +7.3069961414e+02 7.3069961414e+02 0.0000000000e+00 0.0000e+00 -1.0000e+00
       -2 -1    0    0    0  501 -0.0000000000e+00 -0.0000000000e+00 -1.4281995445e+03 1.4281995445e+03 0.0000000000e+00 0.0000e+00 1.0000e+00
      -13  1    1    2    0    0 +5.6832303650e+02 -1.1071156052e+02 -1.2380705793e+03 1.3667724327e+03 0.0000000000e+00 0.0000e+00 1.0000e+00
       13  1    1    2    0    0 -5.6832303650e+02 +1.1071156052e+02 +5.4057064894e+02 7.9212672594e+02 0.0000000000e+00 0.0000e+00 -1.0000e+00
<mgrwt>
<rscale>  0 0.20431200E+04</rscale>
<asrwt>0</asrwt>
<pdfrwt beam="1">  1        2 0.11241533E+00 0.20431200E+04</pdfrwt>
<pdfrwt beam="2">  1       -2 0.21972300E+00 0.20431200E+04</pdfrwt>
<totfact> 0.37578279E+00</totfact>
</mgrwt>
<rwgt>
<wgt id='morphing_basis_vector_1'> +1.4837516e-04 </wgt>
<wgt id='morphing_basis_vector_2'> +9.8953414e-05 </wgt>
<wgt id='morphing_basis_vector_3'> +1.5861756e-04 </wgt>
<wgt id='morphing_basis_vector_4'> +1.1073382e-04 </wgt>
<wgt id='morphing_basis_vector_5'> +1.7656166e-04 </wgt>
</rwgt>
</event>
<event>
 4      1 +6.0853000e-08 2.01230700e+03 7.81860800e-03 8.06652600e-02
        2 -1    0    0  501    0 +0.0000000000e+00 +0.0000000000e+00 +3.6937623458e+03 3.6937623458e+03 0.0000000000e+00 0.0000e+00 -1.0000e+00
       -2 -1    0    0    0  501 -0.0000000000e+00 -0.0000000000e+00 -2.7406881450e+02 2.7406881450e+02 0.0000000000e+00 0.0000e+00 1.0000e+00
      -13  1    1    2    0    0 -2.0583924819e+02 +9.2321254423e+02 +2.3861819948e+03 2.5668182075e+03 0.0000000000e+00 0.0000e+00 1.0000e+00
       13  1    1    2    0    0 +2.0583924819e+02 -9.2321254423e+02 +1.0335115365e+03 1.4010129528e+03 0.0000000000e+00 0.0000e+00 -1.0000e+00
<mgrwt>
<rscale>  0 0.20123072E+04</rscale>
<asrwt>0</asrwt>
<pdfrwt beam="1">  1        2 0.56827109E+00 0.20123072E+04</pdfrwt>
<pdfrwt beam="2">  1       -2 0.42164436E-01 0.20123072E+04</pdfrwt>
<totfact> 0.33457939E+00</totfact>
</mgrwt>
<rwgt>
<wgt id='morphing_basis_vector_1'> +1.5588258e-04 </wgt>
<wgt id='morphing_basis_vector_2'> +1.4080051e-04 </wgt>
<wgt id='morphing_basis_vector_3'> +1.7274069e-04 </wgt>
<wgt id='morphing_basis_vector_4'> +7.2035465e-05 </wgt>
<wgt id='morphing_basis_vector_5'> +1.6342007e-04 </wgt>
</rwgt>
</event>
<event>
 4      1 +6.0853000e-08 1.89842000e+03 7.81860800e-03 8.11458400e-02
        2 -1    0    0  501    0 +0.0000000000e+00 +0.0000000000e+00 +1.5612566388e+03 1.5612566388e+03 0.0000000000e+00 0.0000e+00 1.0000e+00
       -2 -1    0    0    0  501 -0.0000000000e+00 -0.0000000000e+00 -5.7709920293e+02 5.7709920293e+02 0.0000000000e+00 0.0000e+00 -1.0000e+00
      -13  1    1    2    0    0 -5.1288660801e+02 -5.6964183722e+02 -1.3855257811e+02 7.7893601296e+02 0.0000000000e+00 0.0000e+00 -1.0000e+00
       13  1    1    2    0    0 +5.1288660801e+02 +5.6964183722e+02 +1.1227100140e+03 1.3594198288e+03 0.0000000000e+00 0.0000e+00 1.0000e+00
<mgrwt>
<rscale>  0 0.18984204E+04</rscale>
<asrwt>0</asrwt>
<pdfrwt beam="1">  1        2 0.24019333E+00 0.18984204E+04</pdfrwt>
<pdfrwt beam="2">  1       -2 0.88784493E-01 0.18984204E+04</pdfrwt>
<totfact> 0.15357148E+01</totfact>
</mgrwt>
<rwgt>
<wgt id='morphing_basis_vector_1'> +1.1153508e-04 </wgt>
<wgt id='morphing_basis_vector_2'> +7.4710628e-05 </wgt>
<wgt id='morphing_basis_vector_3'> +1.1866355e-04 </wgt>
<wgt id='morphing_basis_vector_4'> +8.1550545e-05 </wgt>
<wgt id='morphing_basis_vector_5'> +1.3076829e-04 </wgt>
</rwgt>
</event>
<event>
 4      1 +6.0853000e-08 2.05680300e+03 7.81860800e-03 8.04864100e-02
        2 -1    0    0  501    0 +0.0000000000e+00 +0.0000000000e+00 +2.1006160421e+03 2.1006160421e+03 0.0000000000e+00 0.0000e+00 1.0000e+00
       -2 -1    0    0    0  501 -0.0000000000e+00 -0.0000000000e+00 -5.0347576727e+02 5.0347576727e+02 0.0000000000e+00 0.0000e+00 -1.0000e+00
      -13  1    1    2    0    0 +4.1583388430e+00 +9.0836735515e+02 +1.8813648273e+02 9.2765504355e+02 0.0000000000e+00 0.0000e+00 -1.0000e+00
       13  1    1    2    0    0 -4.1583388430e+00 -9.0836735515e+02 +1.4090037921e+03 1.6764367658e+03 0.0000000000e+00 0.0000e+00 1.0000e+00
<mgrwt>
<rscale>  0 0.20568026E+04</rscale>
<asrwt>0</asrwt>
<pdfrwt beam="1">  1        2 0.32317169E+00 0.20568026E+04</pdfrwt>
<pdfrwt beam="2">  1       -2 0.77457811E-01 0.20568026E+04</pdfrwt>
<totfact> 0.10337224E+01</totfact>
</mgrwt>
<rwgt>
<wgt id='morphing_basis_vector_1'> +1.5305094e-04 </wgt>
<wgt id='morphing_basis_vector_2'> +1.0379679e-04 </wgt>
<wgt id='morphing_basis_vector_3'> +1.6398654e-04 </wgt>
<wgt id='morphing_basis_vector_4'> +1.1230878e-04 </wgt>
<wgt id='morphing_basis_vector_5'> +1.8131482e-04 </wgt>
</rwgt>
</event>
<event>
 4      1 +6.0853000e-08 1.90462900e+03 7.81860800e-03 8.11187500e-02
        2 -1    0    0  501    0 +0.0000000000e+00 +0.0000000000e+00 +2.4292789497e+03 2.4292789497e+03 0.0000000000e+00 0.0000e+00 1.0000e+00
       -2 -1    0    0    0  501 -0.0000000000e+00 -0.0000000000e+00 -3.7332194254e+02 3.7332194254e+02 0.0000000000e+00 0.0000e+00 -1.0000e+00
      -13  1    1    2    0    0 -4.9301457108e+02 -7.7402945898e+02 +6.5364050979e+02 1.1266902355e+03 0.0000000000e+00 0.0000e+00 -1.0000e+00
       13  1    1    2    0    0 +4.9301457108e+02 +7.7402945898e+02 +1.4023164974e+03 1.6759106568e+03 0.0000000000e+00 0.0000e+00 1.0000e+00
<mgrwt>
<rscale>  0 0.19046292E+04</rscale>
<asrwt>0</asrwt>
<pdfrwt beam="1">  1        2 0.37373521E+00 0.19046292E+04</pdfrwt>
<pdfrwt beam="2">  1       -2 0.57434146E-01 0.19046292E+04</pdfrwt>
<totfact> 0.12758597E+01</totfact>
</mgrwt>
<rwgt>
<wgt id='morphing_basis_vector_1'> +1.1414059e-04 </wgt>
<wgt id='morphing_basis_vector_2'> +7.9156883e-05 </wgt>
<wgt id='morphing_basis_vector_3'> +1.2190395e-04 </wgt>
<wgt id='morphing_basis_vector_4'> +8.0333341e-05 </wgt>
<wgt id='morphing_basis_vector_5'> +1.3234503e-04 </wgt>
</rwgt>
</event>
<event>
 4      1 +6.0853000e-08 1.93059100e+03 7.81860800e-03 8.10066000e-02
        2 -1    0    0  501    0 +0.0000000000e+00 +0.0000000000e+00 +1.3435441981e+03 1.3435441981e+03 0.0000000000e+00 0.0000e+00 -1.0000e+00
       -2 -1    0    0    0  501 -0.0000000000e+00 -0.0000000000e+00 -6.9353521738e+02 6.9353521738e+02 0.0000000000e+00 0.0000e+00 1.0000e+00
      -13  1    1    2    0    0 -1.6231381228e+02 -9.5153905427e+02 +3.1995822314e+02 1.0169295010e+03 0.0000000000e+00 0.0000e+00 1.0000e+00
       13  1    1    2    0    0 +1.6231381228e+02 +9.5153905427e+02 +3.3005075759e+02 1.0201499145e+03 0.0000000000e+00 0.0000e+00 -1.0000e+00
<mgrwt>
<rscale>  0 0.19305908E+04</rscale>
<asrwt>0</asrwt>
<pdfrwt beam="1">  1        2 0.20669911E+00 0.19305908E+04</pdfrwt>
<pdfrwt beam="2">  1       -2 0.10669773E+00 0.19305908E+04</pdfrwt>
<totfact> 0.13079671E+01</totfact>
</mgrwt>
<rwgt>
<wgt id='morphing_basis_vector_1'> +1.2305980e-04 </wgt>
<wgt id='morphing_basis_vector_2'> +9.1546101e-05 </wgt>
<wgt id='morphing_basis_vector_3'> +1.3258837e-04 </wgt>
<wgt id='morphing_basis_vector_4'> +7.9540091e-05 </wgt>
<wgt id='morphing_basis_vector_5'> +1.3945486e-04 </wgt>
</rwgt>
</event>
<event>
 4      1 +6.0853000e-08 1.88506600e+03 7.81860800e-03 8.12044900e-02
        2 -1    0    0  501    0 +0.0000000000e+00 +0.0000000000e+00 +1.4310313587e+03 1.4310313587e+03 0.0000000000e+00 0.0000e+00 -1.0000e+00
       -2 -1    0    0    0  501 -0.0000000000e+00 -0.0000000000e+00 -6.2078877087e+02 6.2078877087e+02 0.0000000000e+00 0.0000e+00 1.0000e+00
      -13  1    1    2    0    0 -4.7065860549e+01 +2.8708425966e+02 -5.7069799773e+02 6.4056910008e+02 0.0000000000e+00 0.0000e+00 1.0000e+00
       13  1    1    2    0    0 +4.7065860549e+01 -2.8708425966e+02 +1.3809405855e+03 1.4112510294e+03 0.0000000000e+00 0.0000e+00 -1.0000e+00
<mgrwt>
<rscale>  0 0.18850657E+04</rscale>
<asrwt>0</asrwt>
<pdfrwt beam="1">  1        2 0.22015867E+00 0.18850657E+04</pdfrwt>
<pdfrwt beam="2">  1       -2 0.95505965E-01 0.18850657E+04</pdfrwt>
<totfact> 0.15325291E+01</totfact>
</mgrwt>
<rwgt>
<wgt id='morphing_basis_vector_1'> +1.0821146e-04 </wgt>
<wgt id='morphing_basis_vector_2'> +7.1799380e-05 </wgt>
<wgt id='morphing_basis_vector_3'> +1.1495437e-04 </wgt>
<wgt id='morphing_basis_vector_4'> +7.9796635e-05 </wgt>
<wgt id='morphing_basis_vector_5'> +1.2709052e-04 </wgt>
</rwgt>
</event>
<event>
 4      1 +6.0853000e-08 1.90958500e+03 7.81860800e-03 8.10972000e-02
        2 -1    0    0  501    0 +0.0000000000e+00 +0.0000000000e+00 +9.8953181351e+02 9.8953181351e+02 0.0000000000e+00 0.0000e+00 -1.0000e+00
       -2 -1    0    0    0  501 -0.0000000000e+00 -0.0000000000e+00 -9.2127264679e+02 9.2127264679e+02 0.0000000000e+00 0.0000e+00 1.0000e+00
      -13  1    1    2    0    0 +5.1105232587e+02 +7.8712478659e+02 -1.4173443037e+02 9.4911988610e+02 0.0000000000e+00 0.0000e+00 1.0000e+00
       13  1    1    2    0    0 -5.1105232587e+02 -7.8712478659e+02 +2.0999359710e+02 9.6168457420e+02 0.0000000000e+00 0.0000e+00 -1.0000e+00
<mgrwt>
<rscale>  0 0.19095849E+04</rscale>
<asrwt>0</asrwt>
<pdfrwt beam="1">  1        2 0.15223566E+00 0.19095849E+04</pdfrwt>
<pdfrwt beam="2">  1       -2 0.14173425E+00 0.19095849E+04</pdfrwt>
<totfact> 0.10076655E+01</totfact>
</mgrwt>
<rwgt>
<wgt id='morphing_basis_vector_1'> +1.1590046e-04 </wgt>
<wgt id='morphing_basis_vector_2'> +8.1735189e-05 </wgt>
<wgt id='morphing_basis_vector_3'> +1.2402978e-04 </wgt>
<wgt id='morphing_basis_vector_4'> +8.0018471e-05 </wgt>
<wgt id='morphing_basis_vector_5'> +1.3366676e-04 </wgt>
</rwgt>
</event>
<event>
 4      1 +6.0853000e-08 2.05735000e+03 7.81860800e-03 8.04842400e-02
        2 -1    0    0  501    0 +0.0000000000e+00 +0.0000000000e+00 +1.0824715645e+03 1.0824715645e+03 0.0000000000e+00 0.0000e+00 -1.0000e+00
       -2 -1    0    0    0  501 -0.0000000000e+00 -0.0000000000e+00 -9.7755242157e+02 9.7755242157e+02 0.0000000000e+00 0.0000e+00 1.0000e+00
      -13  1    1    2    0    0 +6.3656976760e+01 -2.1060049451e+02 -9.5371836495e+02 9.7876631461e+02 0.0000000000e+00 0.0000e+00 1.0000e+00
       13  1    1    2    0    0 -6.3656976760e+01 +2.1060049451e+02 +1.0586375079e+03 1.0812576715e+03 0.0000000000e+00 0.0000e+00 -1.0000e+00
<mgrwt>
<rscale>  0 0.20573504E+04</rscale>
<asrwt>0</asrwt>
<pdfrwt beam="1">  1        2 0.16653409E+00 0.20573504E+04</pdfrwt>
<pdfrwt beam="2">  1       -2 0.15039268E+00 0.20573504E+04</pdfrwt>
<totfact> 0.73814435E+00</totfact>
</mgrwt>
<rwgt>
<wgt id='morphing_basis_vector_1'> +1.5241405e-04 </wgt>
<wgt id='morphing_basis_vector_2'> +1.0154828e-04 </wgt>
<wgt id='morphing_basis_vector_3'> +1.6299252e-04 </wgt>
<wgt id='morphing_basis_vector_4'> +1.1402340e-04 </wgt>
<wgt id='morphing_basis_vector_5'> +1.8163793e-04 </wgt>
</rwgt>
</event>
<event>
 4      1 +6.0853000e-08 1.98544600e+03 7.81860800e-03 8.07755700e-02
        2 -1    0    0  501    0 +0.0000000000e+00 +0.0000000000e+00 +1.4314952043e+03 1.4314952043e+03 0.0000000000e+00 0.0000e+00 -1.0000e+00
       -2 -1    0    0    0  501 -0.0000000000e+00 -0.0000000000e+00 -6.8844034559e+02 6.8844034559e+02 0.0000000000e+00 0.0000e+00 1.0000e+00
      -13  1    1    2    0    0 -5.1521762988e+02 -6.9759447726e+02 -1.4432556180e+02 8.7915705573e+02 0.0000000000e+00 0.0000e+00 1.0000e+00
       13  1    1    2    0    0 +5.1521762988e+02 +6.9759447726e+02 +8.8738042048e+02 1.2407784941e+03 0.0000000000e+00 0.0000e+00 -1.0000e+00
<mgrwt>
<rscale>  0 0.19854461E+04</rscale>
<asrwt>0</asrwt>
<pdfrwt beam="1">  1        2 0.22023003E+00 0.19854461E+04</pdfrwt>
<pdfrwt beam="2">  1       -2 0.10591390E+00 0.19854461E+04</pdfrwt>
<totfact> 0.11822449E+01</totfact>
</mgrwt>
<rwgt>
<wgt id='morphing_basis_vector_1'> +1.3320293e-04 </wgt>
<wgt id='morphing_basis_vector_2'> +9.0055500e-05 </wgt>
<wgt id='morphing_basis_vector_3'> +1.4232570e-04 </wgt>
<wgt id='morphing_basis_vector_4'> +9.7374486e-05 </wgt>
<wgt id='morphing_basis_vector_5'> +1.5700455e-04 </wgt>
</rwgt>
</event>
<event>
 4      1 +6.0853000e-08 2.04060100e+03 7.81860800e-03 8.05509800e-02
        2 -1    0    0  501    0 +0.0000000000e+00 +0.0000000000e+00 +9.0758186422e+02 9.0758186422e+02 0.0000000000e+00 0.0000e+00 -1.0000e+00
       -2 -1    0    0    0  501 -0.0000000000e+00 -0.0000000000e+00 -1.1470188345e+03 1.1470188345e+03 0.0000000000e+00 0.0000e+00 1.0000e+00
      -13  1    1    2    0    0 +8.0418719762e+02 -6.2591746340e+02 -1.7030029284e+02 1.0331950007e+03 0.0000000000e+00 0.0000e+00 1.0000e+00
       13  1    1    2    0    0 -8.0418719762e+02 +6.2591746340e+02 -6.9136677494e+01 1.0214056980e+03 0.0000000000e+00 0.0000e+00 -1.0000e+00
<mgrwt>
<rscale>  0 0.20406014E+04</rscale>
<asrwt>0</asrwt>
<pdfrwt beam="1">  1        2 0.13962798E+00 0.20406014E+04</pdfrwt>
<pdfrwt beam="2">  1       -2 0.17646443E+00 0.20406014E+04</pdfrwt>
<totfact> 0.59011429E+00</totfact>
</mgrwt>
<rwgt>
<wgt id='morphing_basis_vector_1'> +1.5211624e-04 </wgt>
<wgt id='morphing_basis_vector_2'> +1.1166246e-04 </wgt>
<wgt id='morphing_basis_vector_3'> +1.6436087e-04 </wgt>
<wgt id='morphing_basis_vector_4'> +1.0128134e-04 </wgt>
<wgt id='morphing_basis_vector_5'> +1.7497173e-04 </wgt>
</rwgt>
</event>
<event>
 4      1 +6.0853000e-08 1.99530000e+03 7.81860800e-03 8.07349000e-02
        2 -1    0    0  501    0 +0.0000000000e+00 +0.0000000000e+00 +3.0748620441e+03 3.0748620441e+03 0.0000000000e+00 0.0000e+00 1.0000e+00
       -2 -1    0    0    0  501 -0.0000000000e+00 -0.0000000000e+00 -3.2369120167e+02 3.2369120167e+02 0.0000000000e+00 0.0000e+00 -1.0000e+00
      -13  1    1    2    0    0 -7.5581421787e+02 +4.4282440035e+02 +5.6235712280e+02 1.0409582677e+03 0.0000000000e+00 0.0000e+00 -1.0000e+00
       13  1    1    2    0    0 +7.5581421787e+02 -4.4282440035e+02 +2.1888137196e+03 2.3575949780e+03 0.0000000000e+00 0.0000e+00 1.0000e+00
<mgrwt>
<rscale>  0 0.19953003E+04</rscale>
<asrwt>0</asrwt>
<pdfrwt beam="1">  1        2 0.47305568E+00 0.19953003E+04</pdfrwt>
<pdfrwt beam="2">  1       -2 0.49798649E-01 0.19953003E+04</pdfrwt>
<totfact> 0.66813271E+00</totfact>
</mgrwt>
<rwgt>
<wgt id='morphing_basis_vector_1'> +1.3583979e-04 </wgt>
<wgt id='morphing_basis_vector_2'> +9.1921917e-05 </wgt>
<wgt id='morphing_basis_vector_3'> +1.4520826e-04 </wgt>
<wgt id='morphing_basis_vector_4'> +9.9306059e-05 </wgt>
<wgt id='morphing_basis_vector_5'> +1.6020500e-04 </wgt>
</rwgt>
</event>
<event>
 4      1 +6.0853000e-08 1.93813200e+03 7.81860800e-03 8.09743700e-02
        2 -1    0    0  501    0 +0.0000000000e+00 +0.0000000000e+00 +1.5446358215e+03 1.5446358215e+03 0.0000000000e+00 0.0000e+00 -1.0000e+00
       -2 -1    0    0    0  501 -0.0000000000e+00 -0.0000000000e+00 -6.0796763126e+02 6.0796763126e+02 0.0000000000e+00 0.0000e+00 1.0000e+00
      -13  1    1    2    0    0 -6.4518962167e+02 -3.5677795243e+02 -2.3017104701e+02 7.7235928565e+02 0.0000000000e+00 0.0000e+00 1.0000e+00
       13  1    1    2    0    0 +6.4518962167e+02 +3.5677795243e+02 +1.1668392372e+03 1.3802441671e+03 0.0000000000e+00 0.0000e+00 -1.0000e+00
<mgrwt>
<rscale>  0 0.19381317E+04</rscale>
<asrwt>0</asrwt>
<pdfrwt beam="1">  1        2 0.23763628E+00 0.19381317E+04</pdfrwt>
<pdfrwt beam="2">  1       -2 0.93533483E-01 0.19381317E+04</pdfrwt>
<totfact> 0.13839590E+01</totfact>
</mgrwt>
<rwgt>
<wgt id='morphing_basis_vector_1'> +1.2084208e-04 </wgt>
<wgt id='morphing_basis_vector_2'> +8.0793035e-05 </wgt>
<wgt id='morphing_basis_vector_3'> +1.2874182e-04 </wgt>
<wgt id='morphing_basis_vector_4'> +8.8949821e-05 </wgt>
<wgt id='morphing_basis_vector_5'> +1.4233239e-04 </wgt>
</rwgt>
</event>
<event>
 4      1 +6.0853000e-08 1.92588800e+03 7.81860800e-03 8.10267800e-02
        2 -1    0    0  501    0 +0.0000000000e+00 +0.0000000000e+00 +1.6334772737e+03 1.6334772737e+03 0.0000000000e+00 0.0000e+00 -1.0000e+00
       -2 -1    0    0    0  501 -0.0000000000e+00 -0.0000000000e+00 -5.6766076502e+02 5.6766076502e+02 0.0000000000e+00 0.0000e+00 1.0000e+00
      -13  1    1    2    0    0 +7.0932748524e+02 +3.1783740186e+02 -1.1674455809e+02 7.8599961016e+02 0.0000000000e+00 0.0000e+00 1.0000e+00
       13  1    1    2    0    0 -7.0932748524e+02 -3.1783740186e+02 +1.1825610668e+03 1.4151384285e+03 0.0000000000e+00 0.0000e+00 -1.0000e+00
<mgrwt>
<rscale>  0 0.19258878E+04</rscale>
<asrwt>0</asrwt>
<pdfrwt beam="1">  1        2 0.25130419E+00 0.19258878E+04</pdfrwt>
<pdfrwt beam="2">  1       -2 0.87332426E-01 0.19258878E+04</pdfrwt>
<totfact> 0.14510981E+01</totfact>
</mgrwt>
<rwgt>
<wgt id='morphing_basis_vector_1'> +1.1798112e-04 </wgt>
<wgt id='morphing_basis_vector_2'> +7.9083365e-05 </wgt>
<wgt id='morphing_basis_vector_3'> +1.2566788e-04 </wgt>
<wgt id='morphing_basis_vector_4'> +8.6481166e-05 </wgt>
<wgt id='morphing_basis_vector_5'> +1.3867823e-04 </wgt>
</rwgt>
</event>
<event>
 4      1 +6.0853000e-08 2.13197200e+03 7.81860800e-03 8.01946800e-02
        2 -1    0    0  501    0 +0.0000000000e+00 +0.0000000000e+00 +8.8590918606e+02 8.8590918606e+02 0.0000000000e+00 0.0000e+00 -1.0000e+00
       -2 -1    0    0    0  501 -0.0000000000e+00 -0.0000000000e+00 -1.2826663640e+03 1.2826663640e+03 0.0000000000e+00 0.0000e+00 1.0000e+00
      -13  1    1    2    0    0 -6.3535320141e+02 +6.5873877027e+02 -7.5431094740e+02 1.1859997738e+03 0.0000000000e+00 0.0000e+00 1.0000e+00
       13  1    1    2    0    0 +6.3535320141e+02 -6.5873877027e+02 +3.5755376951e+02 9.8257577626e+02 0.0000000000e+00 0.0000e+00 -1.0000e+00
<mgrwt>
<rscale>  0 0.21319718E+04</rscale>
<asrwt>0</asrwt>
<pdfrwt beam="1">  1        2 0.13629372E+00 0.21319718E+04</pdfrwt>
<pdfrwt beam="2">  1       -2 0.19733329E+00 0.21319718E+04</pdfrwt>
<totfact> 0.42203995E+00</totfact>
</mgrwt>
<rwgt>
<wgt id='morphing_basis_vector_1'> +1.7602693e-04 </wgt>
<wgt id='morphing_basis_vector_2'> +1.1913118e-04 </wgt>
<wgt id='morphing_basis_vector_3'> +1.8899553e-04 </wgt>
<wgt id='morphing_basis_vector_4'> +1.3035569e-04 </wgt>
<wgt id='morphing_basis_vector_5'> +2.0989104e-04 </wgt>
</rwgt>
</event>
<event>
 4      1 +6.0853000e-08 2.13051800e+03 7.81860800e-03 8.02002000e-02
        2 -1    0    0  501    0 +0.0000000000e+00 +0.0000000000e+00 +1.2560438520e+03 1.2560438520e+03 0.0000000000e+00 0.0000e+00 -1.0000e+00
       -2 -1    0    0    0  501 -0.0000000000e+00 -0.0000000000e+00 -9.0345335784e+02 9.0345335784e+02 0.0000000000e+00 0.0000e+00 1.0000e+00
      -13  1    1    2    0    0 -4.0810199124e+01 +7.9864934523e+02 -5.3703187724e+02 9.6328058537e+02 0.0000000000e+00 0.0000e+00 1.0000e+00
       13  1    1    2    0    0 +4.0810199124e+01 -7.9864934523e+02 +8.8962237142e+02 1.1962166245e+03 0.0000000000e+00 0.0000e+00 -1.0000e+00
<mgrwt>
<rscale>  0 0.21305183E+04</rscale>
<asrwt>0</asrwt>
<pdfrwt beam="1">  1        2 0.19323752E+00 0.21305183E+04</pdfrwt>
<pdfrwt beam="2">  1       -2 0.13899282E+00 0.21305183E+04</pdfrwt>
<totfact> 0.72304116E+00</totfact>
</mgrwt>
<rwgt>
<wgt id='morphing_basis_vector_1'> +1.7512256e-04 </wgt>
<wgt id='morphing_basis_vector_2'> +1.1752745e-04 </wgt>
<wgt id='morphing_basis_vector_3'> +1.8784043e-04 </wgt>
<wgt id='morphing_basis_vector_4'> +1.3086518e-04 </wgt>
<wgt id='morphing_basis_vector_5'> +2.0937846e-04 </wgt>
</rwgt>
</event>
<event>
 4      1 +6.0853000e-08 2.06343300e+03 7.81860800e-03 8.04601600e-02
        2 -1    0    0  501    0 +0.0000000000e+00 +0.0000000000e+00 +1.8346273333e+03 1.8346273333e+03 0.0000000000e+00 0.0000e+00 1.0000e+00
       -2 -1    0    0    0  501 -0.0000000000e+00 -0.0000000000e+00 -5.8019355022e+02 5.8019355022e+02 0.0000000000e+00 0.0000e+00 -1.0000e+00
      -13  1    1    2    0    0 +1.3275749650e+01 +7.8986687219e+02 -1.4939655043e+02 8.0398087701e+02 0.0000000000e+00 0.0000e+00 -1.0000e+00
       13  1    1    2    0    0 -1.3275749650e+01 -7.8986687219e+02 +1.4038303336e+03 1.6108400066e+03 0.0000000000e+00 0.0000e+00 1.0000e+00
<mgrwt>
<rscale>  0 0.20634330E+04</rscale>
<asrwt>0</asrwt>
<pdfrwt beam="1">  1        2 0.28225036E+00 0.20634330E+04</pdfrwt>
<pdfrwt beam="2">  1       -2 0.89260547E-01 0.20634330E+04</pdfrwt>
<totfact> 0.10531136E+01</totfact>
</mgrwt>
<rwgt>
<wgt id='morphing_basis_vector_1'> +1.5448257e-04 </wgt>
<wgt id='morphing_basis_vector_2'> +1.0361115e-04 </wgt>
<wgt id='morphing_basis_vector_3'> +1.6535513e-04 </wgt>
<wgt id='morphing_basis_vector_4'> +1.1481746e-04 </wgt>
<wgt id='morphing_basis_vector_5'> +1.8379031e-04 </wgt>
</rwgt>
</event>
<event>
 4      1 +6.0853000e-08 1.97637400e+03 7.81860800e-03 8.08132400e-02
        2 -1    0    0  501    0 +0.0000000000e+00 +0.0000000000e+00 +1.6220450426e+03 1.6220450426e+03 0.0000000000e+00 0.0000e+00 1.0000e+00
       -2 -1    0    0    0  501 -0.0000000000e+00 -0.0000000000e+00 -6.0202627429e+02 6.0202627429e+02 0.0000000000e+00 0.0000e+00 -1.0000e+00
      -13  1    1    2    0    0 -3.0276087601e+02 +9.2319649836e+02 +7.1306132050e+02 1.2051607235e+03 0.0000000000e+00 0.0000e+00 1.0000e+00
       13  1    1    2    0    0 +3.0276087601e+02 -9.2319649836e+02 +3.0695744782e+02 1.0189105934e+03 0.0000000000e+00 0.0000e+00 -1.0000e+00
<mgrwt>
<rscale>  0 0.19763742E+04</rscale>
<asrwt>0</asrwt>
<pdfrwt beam="1">  1        2 0.24954539E+00 0.19763742E+04</pdfrwt>
<pdfrwt beam="2">  1       -2 0.92619428E-01 0.19763742E+04</pdfrwt>
<totfact> 0.12780476E+01</totfact>
</mgrwt>
<rwgt>
<wgt id='morphing_basis_vector_1'> +1.3920581e-04 </wgt>
<wgt id='morphing_basis_vector_2'> +1.1322698e-04 </wgt>
<wgt id='morphing_basis_vector_3'> +1.5189403e-04 </wgt>
<wgt id='morphing_basis_vector_4'> +7.8948276e-05 </wgt>
<wgt id='morphing_basis_vector_5'> +1.5278725e-04 </wgt>
</rwgt>
</event>
<event>
 4      1 +6.0853000e-08 2.17455300e+03 7.81860800e-03 8.00348900e-02
        2 -1    0    0  501    0 +0.0000000000e+00 +0.0000000000e+00 +7.9442437238e+02 7.9442437238e+02 0.0000000000e+00 0.0000e+00 -1.0000e+00
       -2 -1    0    0    0  501 -0.0000000000e+00 -0.0000000000e+00 -1.4880843613e+03 1.4880843613e+03 0.0000000000e+00 0.0000e+00 1.0000e+00
      -13  1    1    2    0    0 +4.9858196165e+02 -8.6121422202e+02 -8.0663745042e+02 1.2809909778e+03 0.0000000000e+00 0.0000e+00 1.0000e+00
       13  1    1    2    0    0 -4.9858196165e+02 +8.6121422202e+02 +1.1297746146e+02 1.0015177560e+03 0.0000000000e+00 0.0000e+00 -1.0000e+00
<mgrwt>
<rscale>  0 0.21745533E+04</rscale>
<asrwt>0</asrwt>
<pdfrwt beam="1">  1        2 0.12221913E+00 0.21745533E+04</pdfrwt>
<pdfrwt beam="2">  1       -2 0.22893605E+00 0.21745533E+04</pdfrwt>
<totfact> 0.28782401E+00</totfact>
</mgrwt>
<rwgt>
<wgt id='morphing_basis_vector_1'> +1.9083148e-04 </wgt>
<wgt id='morphing_basis_vector_2'> +1.3056905e-04 </wgt>
<wgt id='morphing_basis_vector_3'> +2.0539189e-04 </wgt>
<wgt id='morphing_basis_vector_4'> +1.4010949e-04 </wgt>
<wgt id='morphing_basis_vector_5'> +2.2738726e-04 </wgt>
</rwgt>
</event>
<event>
 4      1 +6.0853000e-08 2.01284900e+03 7.81860800e-03 8.06630500e-02
        2 -1    0    0  501    0 +0.0000000000e+00 +0.0000000000e+00 +2.1823598108e+03 2.1823598108e+03 0.0000000000e+00 0.0000e+00 -1.0000e+00
       -2 -1    0    0    0  501 -0.0000000000e+00 -0.0000000000e+00 -4.6412618474e+02 4.6412618474e+02 0.0000000000e+00 0.0000e+00 1.0000e+00
      -13  1    1    2    0    0 +6.0695636135e+02 +6.4858542175e+02 +1.4811574538e+03 1.7271034933e+03 0.0000000000e+00 0.0000e+00 1.0000e+00
       13  1    1    2    0    0 -6.0695636135e+02 -6.4858542175e+02 +2.3707617230e+02 9.1938250220e+02 0.0000000000e+00 0.0000e+00 -1.0000e+00
<mgrwt>
<rscale>  0 0.20128491E+04</rscale>
<asrwt>0</asrwt>
<pdfrwt beam="1">  1        2 0.33574766E+00 0.20128491E+04</pdfrwt>
<pdfrwt beam="2">  1       -2 0.71404029E-01 0.20128491E+04</pdfrwt>
<totfact> 0.11147782E+01</totfact>
</mgrwt>
<rwgt>
<wgt id='morphing_basis_vector_1'> +1.6357824e-04 </wgt>
<wgt id='morphing_basis_vector_2'> +1.6324532e-04 </wgt>
<wgt id='morphing_basis_vector_3'> +1.8390979e-04 </wgt>
<wgt id='morphing_basis_vector_4'> +5.7114307e-05 </wgt>
<wgt id='morphing_basis_vector_5'> +1.6241477e-04 </wgt>
</rwgt>
</event>
<event>
 4      1 +6.0853000e-08 2.22292100e+03 7.81860800e-03 7.98579200e-02
        2 -1    0    0  501    0 +0.0000000000e+00 +0.0000000000e+00 +3.4751147039e+03 3.4751147039e+03 0.0000000000e+00 0.0000e+00 1.0000e+00
       -2 -1    0    0    0  501 -0.0000000000e+00 -0.0000000000e+00 -3.5548310873e+02 3.5548310873e+02 0.0000000000e+00 0.0000e+00 -1.0000e+00
      -13  1    1    2    0    0 +8.2648257627e+02 -1.8762896399e+02 +3.2068912590e+02 9.0615649448e+02 0.0000000000e+00 0.0000e+00 -1.0000e+00
       13  1    1    2    0    0 -8.2648257627e+02 +1.8762896399e+02 +2.7989424692e+03 2.9244413181e+03 0.0000000000e+00 0.0000e+00 1.0000e+00
<mgrwt>
<rscale>  0 0.22229211E+04</rscale>
<asrwt>0</asrwt>
<pdfrwt beam="1">  1        2 0.53463301E+00 0.22229211E+04</pdfrwt>
<pdfrwt beam="2">  1       -2 0.54689711E-01 0.22229211E+04</pdfrwt>
<totfact> 0.28756985E+00</totfact>
</mgrwt>
<rwgt>
<wgt id='morphing_basis_vector_1'> +2.0697043e-04 </wgt>
<wgt id='morphing_basis_vector_2'> +1.3921469e-04 </wgt>
<wgt id='morphing_basis_vector_3'> +2.2261245e-04 </wgt>
<wgt id='morphing_basis_vector_4'> +1.5545136e-04 </wgt>
<wgt id='morphing_basis_vector_5'> +2.4884503e-04 </wgt>
</rwgt>
</event>
<event>
 4      1 +6.0853000e-08 2.02972700e+03 7.81860800e-03 8.05946800e-02
        2 -1    0    0  501    0 +0.0000000000e+00 +0.0000000000e+00 +1.9926111390e+03 1.9926111390e+03 0.0000000000e+00 0.0000e+00 1.0000e+00
       -2 -1    0    0    0  501 -0.0000000000e+00 -0.0000000000e+00 -5.1688342636e+02 5.1688342636e+02 0.0000000000e+00 0.0000e+00 -1.0000e+00
      -13  1    1    2    0    0 -4.5212330599e+02 -4.9863666825e+02 -2.0120311820e+02 7.0252167619e+02 0.0000000000e+00 0.0000e+00 -1.0000e+00
       13  1    1    2    0    0 +4.5212330599e+02 +4.9863666825e+02 +1.6769308308e+03 1.8069728891e+03 0.0000000000e+00 0.0000e+00 1.0000e+00
<mgrwt>
<rscale>  0 0.20297268E+04</rscale>
<asrwt>0</asrwt>
<pdfrwt beam="1">  1        2 0.30655556E+00 0.20297268E+04</pdfrwt>
<pdfrwt beam="2">  1       -2 0.79520528E-01 0.20297268E+04</pdfrwt>
<totfact> 0.11238059E+01</totfact>
</mgrwt>
<rwgt>
<wgt id='morphing_basis_vector_1'> +1.4466335e-04 </wgt>
<wgt id='morphing_basis_vector_2'> +9.6601904e-05 </wgt>
<wgt id='morphing_basis_vector_3'> +1.5460299e-04 </wgt>
<wgt id='morphing_basis_vector_4'> +1.0767264e-04 </wgt>
<wgt id='morphing_basis_vector_5'> +1.7187895e-04 </wgt>
</rwgt>
</event>
<event>
 4      1 +6.0853000e-08 1.97713300e+03 7.81860800e-03 8.08100800e-02
        2 -1    0    0  501    0 +0.0000000000e+00 +0.0000000000e+00 +1.0583004148e+03 1.0583004148e+03 0.0000000000e+00 0.0000e+00 -1.0000e+00
       -2 -1    0    0    0  501 -0.0000000000e+00 -0.0000000000e+00 -9.2342737738e+02 9.2342737738e+02 0.0000000000e+00 0.0000e+00 1.0000e+00
      -13  1    1    2    0    0 +4.0410245789e+02 -7.7698201403e+02 -3.9217439239e+02 9.5958355584e+02 0.0000000000e+00 0.0000e+00 1.0000e+00
       13  1    1    2    0    0 -4.0410245789e+02 +7.7698201403e+02 +5.2704742981e+02 1.0221442363e+03 0.0000000000e+00 0.0000e+00 -1.0000e+00
<mgrwt>
<rscale>  0 0.19771328E+04</rscale>
<asrwt>0</asrwt>
<pdfrwt beam="1">  1        2 0.16281545E+00 0.19771328E+04</pdfrwt>
<pdfrwt beam="2">  1       -2 0.14206575E+00 0.19771328E+04</pdfrwt>
<totfact> 0.90269734E+00</totfact>
</mgrwt>
<rwgt>
<wgt id='morphing_basis_vector_1'> +1.3110796e-04 </wgt>
<wgt id='morphing_basis_vector_2'> +8.8797382e-05 </wgt>
<wgt id='morphing_basis_vector_3'> +1.4007171e-04 </wgt>
<wgt id='morphing_basis_vector_4'> +9.5569506e-05 </wgt>
<wgt id='morphing_basis_vector_5'> +1.5432626e-04 </wgt>
</rwgt>
</event>
<event>
 4      1 +6.0853000e-08 2.12511800e+03 7.81860800e-03 8.02207600e-02
        2 -1    0    0  501    0 +0.0000000000e+00 +0.0000000000e+00 +1.1918239626e+03 1.1918239626e+03 0.0000000000e+00 0.0000e+00 -1.0000e+00
       -2 -1    0    0    0  501 -0.0000000000e+00 -0.0000000000e+00 -9.4731419939e+02 9.4731419939e+02 0.0000000000e+00 0.0000e+00 1.0000e+00
      -13  1    1    2    0    0 -9.8042579482e+02 +2.6424414367e+02 -1.9281498684e+02 1.0335556713e+03 0.0000000000e+00 0.0000e+00 1.0000e+00
       13  1    1    2    0    0 +9.8042579482e+02 -2.6424414367e+02 +4.3732475005e+02 1.1055824906e+03 0.0000000000e+00 0.0000e+00 -1.0000e+00
<mgrwt>
<rscale>  0 0.21251181E+04</rscale>
<asrwt>0</asrwt>
<pdfrwt beam="1">  1        2 0.18335753E+00 0.21251181E+04</pdfrwt>
<pdfrwt beam="2">  1       -2 0.14574065E+00 0.21251181E+04</pdfrwt>
<totfact> 0.69076495E+00</totfact>
</mgrwt>
<rwgt>
<wgt id='morphing_basis_vector_1'> +1.7511463e-04 </wgt>
<wgt id='morphing_basis_vector_2'> +1.2146419e-04 </wgt>
<wgt id='morphing_basis_vector_3'> +1.8850174e-04 </wgt>
<wgt id='morphing_basis_vector_4'> +1.2604749e-04 </wgt>
<wgt id='morphing_basis_vector_5'> +2.0694989e-04 </wgt>
</rwgt>
</event>
<event>
 4      1 +6.0853000e-08 1.90549600e+03 7.81860800e-03 8.11149700e-02
        2 -1    0    0  501    0 +0.0000000000e+00 +0.0000000000e+00 +2.4844734287e+03 2.4844734287e+03 0.0000000000e+00 0.0000e+00 -1.0000e+00
       -2 -1    0    0    0  501 -0.0000000000e+00 -0.0000000000e+00 -3.6536076091e+02 3.6536076091e+02 0.0000000000e+00 0.0000e+00 1.0000e+00
      -13  1    1    2    0    0 -1.0944150948e+02 +8.7148052111e+02 +5.0745734899e+02 1.0143809461e+03 0.0000000000e+00 0.0000e+00 1.0000e+00
       13  1    1    2    0    0 +1.0944150948e+02 -8.7148052111e+02 +1.6116553188e+03 1.8354532436e+03 0.0000000000e+00 0.0000e+00 -1.0000e+00
<mgrwt>
<rscale>  0 0.19054964E+04</rscale>
<asrwt>0</asrwt>
<pdfrwt beam="1">  1        2 0.38222667E+00 0.19054964E+04</pdfrwt>
<pdfrwt beam="2">  1       -2 0.56209349E-01 0.19054964E+04</pdfrwt>
<totfact> 0.12362589E+01</totfact>
</mgrwt>
<rwgt>
<wgt id='morphing_basis_vector_1'> +1.1374065e-04 </wgt>
<wgt id='morphing_basis_vector_2'> +7.7511691e-05 </wgt>
<wgt id='morphing_basis_vector_3'> +1.2125940e-04 </wgt>
<wgt id='morphing_basis_vector_4'> +8.1673318e-05 </wgt>
<wgt id='morphing_basis_vector_5'> +1.3268477e-04 </wgt>
</rwgt>
</event>
<event>
 4      1 +6.0853000e-08 1.86233800e+03 7.81860800e-03 8.13054800e-02
        2 -1    0    0  501    0 +0.0000000000e+00 +0.0000000000e+00 +1.2585225796e+03 1.2585225796e+03 0.0000000000e+00 0.0000e+00 1.0000e+00
       -2 -1    0    0    0  501 -0.0000000000e+00 -0.0000000000e+00 -6.8896337174e+02 6.8896337174e+02 0.0000000000e+00 0.0000e+00 -1.0000e+00
      -13  1    1    2    0    0 -1.3489230486e+02 +8.1427779585e+02 -1.6601183709e+02 8.4190509725e+02 0.0000000000e+00 0.0000e+00 -1.0000e+00
       13  1    1    2    0    0 +1.3489230486e+02 -8.1427779585e+02 +7.3557104490e+02 1.1055808540e+03 0.0000000000e+00 0.0000e+00 1.0000e+00
<mgrwt>
<rscale>  0 0.18623383E+04</rscale>
<asrwt>0</asrwt>
<pdfrwt beam="1">  1        2 0.19361886E+00 0.18623383E+04</pdfrwt>
<pdfrwt beam="2">  1       -2 0.10599437E+00 0.18623383E+04</pdfrwt>
<totfact> 0.14961317E+01</totfact>
</mgrwt>
<rwgt>
<wgt id='morphing_basis_vector_1'> +1.0375410e-04 </wgt>
<wgt id='morphing_basis_vector_2'> +7.0070348e-05 </wgt>
<wgt id='morphing_basis_vector_3'> +1.1030928e-04 </wgt>
<wgt id='morphing_basis_vector_4'> +7.4849241e-05 </wgt>
<wgt id='morphing_basis_vector_5'> +1.2085141e-04 </wgt>
</rwgt>
</event>
<event>
 4      1 +6.0853000e-08 2.07425300e+03 7.81860800e-03 8.04175500e-02
        2 -1    0    0  501    0 +0.0000000000e+00 +0.0000000000e+00 +3.3370663745e+03 3.3370663745e+03 0.0000000000e+00 0.0000e+00 1.0000e+00
       -2 -1    0    0    0  501 -0.0000000000e+00 -0.0000000000e+00 -3.2232840794e+02 3.2232840794e+02 0.0000000000e+00 0.0000e+00 -1.0000e+00
      -13  1    1    2    0    0 -5.4475831610e+02 +6.2286846435e+02 +2.6103877835e+03 2.7384030249e+03 0.0000000000e+00 0.0000e+00 1.0000e+00
       13  1    1    2    0    0 +5.4475831610e+02 -6.2286846435e+02 +4.0435018310e+02 9.2099175752e+02 0.0000000000e+00 0.0000e+00 -1.0000e+00
<mgrwt>
<rscale>  0 0.20742529E+04</rscale>
<asrwt>0</asrwt>
<pdfrwt beam="1">  1        2 0.51339480E+00 0.20742529E+04</pdfrwt>
<pdfrwt beam="2">  1       -2 0.49588988E-01 0.20742529E+04</pdfrwt>
<totfact> 0.44402168E+00</totfact>
</mgrwt>
<rwgt>
<wgt id='morphing_basis_vector_1'> +1.9473098e-04 </wgt>
<wgt id='morphing_basis_vector_2'> +2.1539478e-04 </wgt>
<wgt id='morphing_basis_vector_3'> +2.2327966e-04 </wgt>
<wgt id='morphing_basis_vector_4'> +4.3154505e-05 </wgt>
<wgt id='morphing_basis_vector_5'> +1.8186853e-04 </wgt>
</rwgt>
</event>
<event>
 4      1 +6.0853000e-08 1.96797000e+03 7.81860800e-03 8.08483200e-02
        2 -1    0    0  501    0 +0.0000000000e+00 +0.0000000000e+00 +2.3430431757e+03 2.3430431757e+03 0.0000000000e+00 0.0000e+00 1.0000e+00
       -2 -1    0    0    0  501 -0.0000000000e+00 -0.0000000000e+00 -4.1323472824e+02 4.1323472824e+02 0.0000000000e+00 0.0000e+00 -1.0000e+00
      -13  1    1    2    0    0 -5.4307116514e+02 -8.1898021519e+02 +8.9387554278e+02 1.3284082088e+03 0.0000000000e+00 0.0000e+00 -1.0000e+00
       13  1    1    2    0    0 +5.4307116514e+02 +8.1898021519e+02 +1.0359329047e+03 1.4278696952e+03 0.0000000000e+00 0.0000e+00 1.0000e+00
<mgrwt>
<rscale>  0 0.19679703E+04</rscale>
<asrwt>0</asrwt>
<pdfrwt beam="1">  1        2 0.36046817E+00 0.19679703E+04</pdfrwt>
<pdfrwt beam="2">  1       -2 0.63574575E-01 0.19679703E+04</pdfrwt>
<totfact> 0.11564929E+01</totfact>
</mgrwt>
<rwgt>
<wgt id='morphing_basis_vector_1'> +1.3193746e-04 </wgt>
<wgt id='morphing_basis_vector_2'> +9.6635287e-05 </wgt>
<wgt id='morphing_basis_vector_3'> +1.4212546e-04 </wgt>
<wgt id='morphing_basis_vector_4'> +8.7438537e-05 </wgt>
<wgt id='morphing_basis_vector_5'> +1.5092829e-04 </wgt>
</rwgt>
</event>
<event>
 4      1 +6.0853000e-08 2.15950500e+03 7.81860800e-03 8.00909300e-02
        2 -1    0    0  501    0 +0.0000000000e+00 +0.0000000000e+00 +3.2879794879e+03 3.2879794879e+03 0.0000000000e+00 0.0000e+00 1.0000e+00
       -2 -1    0    0    0  501 -0.0000000000e+00 -0.0000000000e+00 -3.5458418267e+02 3.5458418267e+02 0.0000000000e+00 0.0000e+00 -1.0000e+00
      -13  1    1    2    0    0 +1.1618685776e+02 +5.2605191677e+02 -1.1169340156e+02 5.5018671468e+02 0.0000000000e+00 0.0000e+00 -1.0000e+00
       13  1    1    2    0    0 -1.1618685776e+02 -5.2605191677e+02 +3.0450887068e+03 3.0923769559e+03 0.0000000000e+00 0.0000e+00 1.0000e+00
<mgrwt>
<rscale>  0 0.21595051E+04</rscale>
<asrwt>0</asrwt>
<pdfrwt beam="1">  1        2 0.50584298E+00 0.21595051E+04</pdfrwt>
<pdfrwt beam="2">  1       -2 0.54551415E-01 0.21595051E+04</pdfrwt>
<totfact> 0.39433410E+00</totfact>
</mgrwt>
<rwgt>
<wgt id='morphing_basis_vector_1'> +1.8440043e-04 </wgt>
<wgt id='morphing_basis_vector_2'> +1.2319789e-04 </wgt>
<wgt id='morphing_basis_vector_3'> +1.9785394e-04 </wgt>
<wgt id='morphing_basis_vector_4'> +1.3880998e-04 </wgt>
<wgt id='morphing_basis_vector_5'> +2.2126061e-04 </wgt>
</rwgt>
</event>
<event>
 4      1 +6.0853000e-08 1.97847600e+03 7.81860800e-03 8.08045000e-02
        2 -1    0    0  501    0 +0.0000000000e+00 +0.0000000000e+00 +7.6769461761e+02 7.6769461761e+02 0.0000000000e+00 0.0000e+00 -1.0000e+00
       -2 -1    0    0    0  501 -0.0000000000e+00 -0.0000000000e+00 -1.2747147072e+03 1.2747147072e+03 0.0000000000e+00 0.0000e+00 1.0000e+00
      -13  1    1    2    0    0 -7.9217471072e+02 +3.7498384713e+02 -7.2706903536e+02 1.1387638210e+03 0.0000000000e+00 0.0000e+00 1.0000e+00
       13  1    1    2    0    0 +7.9217471072e+02 -3.7498384713e+02 +2.2004894580e+02 9.0364550376e+02 0.0000000000e+00 0.0000e+00 -1.0000e+00
<mgrwt>
<rscale>  0 0.19784758E+04</rscale>
<asrwt>0</asrwt>
<pdfrwt beam="1">  1        2 0.11810687E+00 0.19784758E+04</pdfrwt>
<pdfrwt beam="2">  1       -2 0.19610995E+00 0.19784758E+04</pdfrwt>
<totfact> 0.52603324E+00</totfact>
</mgrwt>
<rwgt>
<wgt id='morphing_basis_vector_1'> +1.3145761e-04 </wgt>
<wgt id='morphing_basis_vector_2'> +8.9037993e-05 </wgt>
<wgt id='morphing_basis_vector_3'> +1.4045277e-04 </wgt>
<wgt id='morphing_basis_vector_4'> +9.5833738e-05 </wgt>
<wgt id='morphing_basis_vector_5'> +1.5475458e-04 </wgt>
</rwgt>
</event>
<event>
 4      1 +6.0853000e-08 1.86739400e+03 7.81860800e-03 8.12828800e-02
        2 -1    0    0  501    0 +0.0000000000e+00 +0.0000000000e+00 +2.1991296706e+03 2.1991296706e+03 0.0000000000e+00 0.0000e+00 1.0000e+00
       -2 -1    0    0    0  501 -0.0000000000e+00 -0.0000000000e+00 -3.9642518543e+02 3.9642518543e+02 0.0000000000e+00 0.0000e+00 -1.0000e+00
      -13  1    1    2    0    0 -5.5198523136e+02 +3.0869922435e+02 -5.3369008270e+01 6.3468981227e+02 0.0000000000e+00 0.0000e+00 -1.0000e+00
       13  1    1    2    0    0 +5.5198523136e+02 -3.0869922435e+02 +1.8560734934e+03 1.9608650437e+03 0.0000000000e+00 0.0000e+00 1.0000e+00
<mgrwt>
<rscale>  0 0.18673943E+04</rscale>
<asrwt>0</asrwt>
<pdfrwt beam="1">  1        2 0.33832764E+00 0.18673943E+04</pdfrwt>
<pdfrwt beam="2">  1       -2 0.60988491E-01 0.18673943E+04</pdfrwt>
<totfact> 0.15394680E+01</totfact>
</mgrwt>
<rwgt>
<wgt id='morphing_basis_vector_1'> +1.0439553e-04 </wgt>
<wgt id='morphing_basis_vector_2'> +6.9452176e-05 </wgt>
<wgt id='morphing_basis_vector_3'> +1.1084837e-04 </wgt>
<wgt id='morphing_basis_vector_4'> +7.6595036e-05 </wgt>
<wgt id='morphing_basis_vector_5'> +1.2227104e-04 </wgt>
</rwgt>
</event>
<event>
 4      1 +6.0853000e-08 2.15733500e+03 7.81860800e-03 8.00990400e-02
        2 -1    0    0  501    0 +0.0000000000e+00 +0.0000000000e+00 +1.3216334986e+03 1.3216334986e+03 0.0000000000e+00 0.0000e+00 -1.0000e+00
       -2 -1    0    0    0  501 -0.0000000000e+00 -0.0000000000e+00 -8.8036775402e+02 8.8036775402e+02 0.0000000000e+00 0.0000e+00 1.0000e+00
      -13  1    1    2    0    0 -8.1703230021e+02 -6.0108469446e+02 -1.5395162947e+02 1.0259364959e+03 0.0000000000e+00 0.0000e+00 1.0000e+00
       13  1    1    2    0    0 +8.1703230021e+02 +6.0108469446e+02 +5.9521737401e+02 1.1760647566e+03 0.0000000000e+00 0.0000e+00 -1.0000e+00
<mgrwt>
<rscale>  0 0.21573349E+04</rscale>
<asrwt>0</asrwt>
<pdfrwt beam="1">  1        2 0.20332823E+00 0.21573349E+04</pdfrwt>
<pdfrwt beam="2">  1       -2 0.13544119E+00 0.21573349E+04</pdfrwt>
<totfact> 0.71028280E+00</totfact>
</mgrwt>
<rwgt>
<wgt id='morphing_basis_vector_1'> +1.8539625e-04 </wgt>
<wgt id='morphing_basis_vector_2'> +1.2780202e-04 </wgt>
<wgt id='morphing_basis_vector_3'> +1.9961642e-04 </wgt>
<wgt id='morphing_basis_vector_4'> +1.3477542e-04 </wgt>
<wgt id='morphing_basis_vector_5'> +2.2008070e-04 </wgt>
</rwgt>
</event>
<event>
 4      1 +6.0853000e-08 1.88364600e+03 7.81860800e-03 8.12107600e-02
        2 -1    0    0  501    0 +0.0000000000e+00 +0.0000000000e+00 +1.1891994381e+03 1.1891994381e+03 0.0000000000e+00 0.0000e+00 -1.0000e+00
       -2 -1    0    0    0  501 -0.0000000000e+00 -0.0000000000e+00 -7.4590568315e+02 7.4590568315e+02 0.0000000000e+00 0.0000e+00 1.0000e+00
      -13  1    1    2    0    0 -3.9195356635e+02 +7.5597539016e+02 -1.9171874856e+02 8.7285878998e+02 0.0000000000e+00 0.0000e+00 1.0000e+00
       13  1    1    2    0    0 +3.9195356635e+02 -7.5597539016e+02 +6.3501250354e+02 1.0622463313e+03 0.0000000000e+00 0.0000e+00 -1.0000e+00
<mgrwt>
<rscale>  0 0.18836461E+04</rscale>
<asrwt>0</asrwt>
<pdfrwt beam="1">  1        2 0.18295376E+00 0.18836461E+04</pdfrwt>
<pdfrwt beam="2">  1       -2 0.11475472E+00 0.18836461E+04</pdfrwt>
<totfact> 0.13425028E+01</totfact>
</mgrwt>
<rwgt>
<wgt id='morphing_basis_vector_1'> +1.0858263e-04 </wgt>
<wgt id='morphing_basis_vector_2'> +7.3628981e-05 </wgt>
<wgt id='morphing_basis_vector_3'> +1.1559589e-04 </wgt>
<wgt id='morphing_basis_vector_4'> +7.8193800e-05 </wgt>
<wgt id='morphing_basis_vector_5'> +1.2659332e-04 </wgt>
</rwgt>
</event>
<event>
 4      1 +6.0853000e-08 2.10372100e+03 7.81860800e-03 8.03028400e-02
        2 -1    0    0  501    0 +0.0000000000e+00 +0.0000000000e+00 +9.6724864900e+02 9.6724864900e+02 0.0000000000e+00 0.0000e+00 -1.0000e+00
       -2 -1    0    0    0  501 -0.0000000000e+00 -0.0000000000e+00 -1.1438741018e+03 1.1438741018e+03 0.0000000000e+00 0.0000e+00 1.0000e+00
      -13  1    1    2    0    0 +2.3270007857e+02 +3.8456280251e+02 -1.0426437841e+03 1.1354047455e+03 0.0000000000e+00 0.0000e+00 1.0000e+00
       13  1    1    2    0    0 -2.3270007857e+02 -3.8456280251e+02 +8.6601833131e+02 9.7571800527e+02 0.0000000000e+00 0.0000e+00 -1.0000e+00
<mgrwt>
<rscale>  0 0.21037212E+04</rscale>
<asrwt>0</asrwt>
<pdfrwt beam="1">  1        2 0.14880749E+00 0.21037212E+04</pdfrwt>
<pdfrwt beam="2">  1       -2 0.17598063E+00 0.21037212E+04</pdfrwt>
<totfact> 0.54204070E+00</totfact>
</mgrwt>
<rwgt>
<wgt id='morphing_basis_vector_1'> +1.6636540e-04 </wgt>
<wgt id='morphing_basis_vector_2'> +1.1098823e-04 </wgt>
<wgt id='morphing_basis_vector_3'> +1.7819062e-04 </wgt>
<wgt id='morphing_basis_vector_4'> +1.2482391e-04 </wgt>
<wgt id='morphing_basis_vector_5'> +1.9890279e-04 </wgt>
</rwgt>
</event>
<event>
 4      1 +6.0853000e-08 1.93607700e+03 7.81860800e-03 8.09831400e-02
        2 -1    0    0  501    0 +0.0000000000e+00 +0.0000000000e+00 +7.1728787598e+02 7.1728787598e+02 0.0000000000e+00 0.0000e+00 1.0000e+00
       -2 -1    0    0    0  501 -0.0000000000e+00 -0.0000000000e+00 -1.3064470337e+03 1.3064470337e+03 0.0000000000e+00 0.0000e+00 -1.0000e+00
      -13  1    1    2    0    0 -1.4562693312e+01 -8.5210235857e+02 -7.7450598164e+02 1.1515858705e+03 0.0000000000e+00 0.0000e+00 -1.0000e+00
       13  1    1    2    0    0 +1.4562693312e+01 +8.5210235857e+02 +1.8534682387e+02 8.7214903924e+02 0.0000000000e+00 0.0000e+00 1.0000e+00
<mgrwt>
<rscale>  0 0.19360771E+04</rscale>
<asrwt>0</asrwt>
<pdfrwt beam="1">  1        2 0.11035198E+00 0.19360771E+04</pdfrwt>
<pdfrwt beam="2">  1       -2 0.20099185E+00 0.19360771E+04</pdfrwt>
<totfact> 0.52929704E+00</totfact>
</mgrwt>
<rwgt>
<wgt id='morphing_basis_vector_1'> +1.2073271e-04 </wgt>
<wgt id='morphing_basis_vector_2'> +8.1613253e-05 </wgt>
<wgt id='morphing_basis_vector_3'> +1.2876223e-04 </wgt>
<wgt id='morphing_basis_vector_4'> +8.7791246e-05 </wgt>
<wgt id='morphing_basis_vector_5'> +1.4165610e-04 </wgt>
</rwgt>
</event>
<event>
 4      1 +6.0853000e-08 2.09876000e+03 7.81860800e-03 8.03220100e-02
        2 -1    0    0  501    0 +0.0000000000e+00 +0.0000000000e+00 +2.7106267274e+03 2.7106267274e+03 0.0000000000e+00 0.0000e+00 1.0000e+00
       -2 -1    0    0    0  501 -0.0000000000e+00 -0.0000000000e+00 -4.0625227631e+02 4.0625227631e+02 0.0000000000e+00 0.0000e+00 -1.0000e+00
      -13  1    1    2    0    0 -5.9527790953e+02 -5.7366217240e+02 +1.9230577599e+02 8.4877888115e+02 0.0000000000e+00 0.0000e+00 -1.0000e+00
       13  1    1    2    0    0 +5.9527790953e+02 +5.7366217240e+02 +2.1120686751e+03 2.2681001226e+03 0.0000000000e+00 0.0000e+00 1.0000e+00
<mgrwt>
<rscale>  0 0.20987599E+04</rscale>
<asrwt>0</asrwt>
<pdfrwt beam="1">  1        2 0.41701949E+00 0.20987599E+04</pdfrwt>
<pdfrwt beam="2">  1       -2 0.62500352E-01 0.20987599E+04</pdfrwt>
<totfact> 0.71360114E+00</totfact>
</mgrwt>
<rwgt>
<wgt id='morphing_basis_vector_1'> +1.6518890e-04 </wgt>
<wgt id='morphing_basis_vector_2'> +1.1101431e-04 </wgt>
<wgt id='morphing_basis_vector_3'> +1.7704689e-04 </wgt>
<wgt id='morphing_basis_vector_4'> +1.2291067e-04 </wgt>
<wgt id='morphing_basis_vector_5'> +1.9694203e-04 </wgt>
</rwgt>
</event>
<event>
 4      1 +6.0853000e-08 1.90821700e+03 7.81860800e-03 8.11031400e-02
        2 -1    0    0  501    0 +0.0000000000e+00 +0.0000000000e+00 +2.1661990242e+03 2.1661990242e+03 0.0000000000e+00 0.0000e+00 -1.0000e+00
       -2 -1    0    0    0  501 -0.0000000000e+00 -0.0000000000e+00 -4.2023968461e+02 4.2023968461e+02 0.0000000000e+00 0.0000e+00 1.0000e+00
      -13  1    1    2    0    0 +2.4964598615e+02 -3.1519604975e+02 -2.9979405688e+02 5.0154575536e+02 0.0000000000e+00 0.0000e+00 1.0000e+00
       13  1    1    2    0    0 -2.4964598615e+02 +3.1519604975e+02 +2.0457533965e+03 2.0848929535e+03 0.0000000000e+00 0.0000e+00 -1.0000e+00
<mgrwt>
<rscale>  0 0.19082168E+04</rscale>
<asrwt>0</asrwt>
<pdfrwt beam="1">  1        2 0.33326138E+00 0.19082168E+04</pdfrwt>
<pdfrwt beam="2">  1       -2 0.64652260E-01 0.19082168E+04</pdfrwt>
<totfact> 0.14192145E+01</totfact>
</mgrwt>
<rwgt>
<wgt id='morphing_basis_vector_1'> +1.1350992e-04 </wgt>
<wgt id='morphing_basis_vector_2'> +7.5381001e-05 </wgt>
<wgt id='morphing_basis_vector_3'> +1.2070642e-04 </wgt>
<wgt id='morphing_basis_vector_4'> +8.3862291e-05 </wgt>
<wgt id='morphing_basis_vector_5'> +1.3359504e-04 </wgt>
</rwgt>
</event>
<event>
 4      1 +6.0853000e-08 2.13865400e+03 7.81860800e-03 8.01693500e-02
        2 -1    0    0  501    0 +0.0000000000e+00 +0.0000000000e+00 +9.2850708541e+02 9.2850708541e+02 0.0000000000e+00 0.0000e+00 -1.0000e+00
       -2 -1    0    0    0  501 -0.0000000000e+00 -0.0000000000e+00 -1.2315041287e+03 1.2315041287e+03 0.0000000000e+00 0.0000e+00 1.0000e+00
      -13  1    1    2    0    0 -1.0292628025e+03 +2.3834223715e+02 +1.5291070159e+01 1.0566090836e+03 0.0000000000e+00 0.0000e+00 1.0000e+00
       13  1    1    2    0    0 +1.0292628025e+03 -2.3834223715e+02 -3.1828811350e+02 1.1034021306e+03 0.0000000000e+00 0.0000e+00 -1.0000e+00
<mgrwt>
<rscale>  0 0.21386541E+04</rscale>
<asrwt>0</asrwt>
<pdfrwt beam="1">  1        2 0.14284724E+00 0.21386541E+04</pdfrwt>
<pdfrwt beam="2">  1       -2 0.18946217E+00 0.21386541E+04</pdfrwt>
<totfact> 0.45251944E+00</totfact>
</mgrwt>
<rwgt>
<wgt id='morphing_basis_vector_1'> +1.8862000e-04 </wgt>
<wgt id='morphing_basis_vector_2'> +1.5142215e-04 </wgt>
<wgt id='morphing_basis_vector_3'> +2.0678945e-04 </wgt>
<wgt id='morphing_basis_vector_4'> +1.1108812e-04 </wgt>
<wgt id='morphing_basis_vector_5'> +2.1091397e-04 </wgt>
</rwgt>
</event>
<event>
 4      1 +6.0853000e-08 1.90102400e+03 7.81860800e-03 8.11344600e-02
        2 -1    0    0  501    0 +0.0000000000e+00 +0.0000000000e+00 +1.3514300529e+03 1.3514300529e+03 0.0000000000e+00 0.0000e+00 -1.0000e+00
       -2 -1    0    0    0  501 -0.0000000000e+00 -0.0000000000e+00 -6.6853137521e+02 6.6853137521e+02 0.0000000000e+00 0.0000e+00 1.0000e+00
      -13  1    1    2    0    0 -5.1890969172e+01 -2.1683672186e+02 -6.4035274419e+02 6.7805786893e+02 0.0000000000e+00 0.0000e+00 1.0000e+00
       13  1    1    2    0    0 +5.1890969172e+01 +2.1683672186e+02 +1.3232514219e+03 1.3419035592e+03 0.0000000000e+00 0.0000e+00 -1.0000e+00
<mgrwt>
<rscale>  0 0.19010243E+04</rscale>
<asrwt>0</asrwt>
<pdfrwt beam="1">  1        2 0.20791232E+00 0.19010243E+04</pdfrwt>
<pdfrwt beam="2">  1       -2 0.10285098E+00 0.19010243E+04</pdfrwt>
<totfact> 0.14206046E+01</totfact>
</mgrwt>
<rwgt>
<wgt id='morphing_basis_vector_1'> +1.1183585e-04 </wgt>
<wgt id='morphing_basis_vector_2'> +7.4232140e-05 </wgt>
<wgt id='morphing_basis_vector_3'> +1.1888610e-04 </wgt>
<wgt id='morphing_basis_vector_4'> +8.2597758e-05 </wgt>
<wgt id='morphing_basis_vector_5'> +1.3154949e-04 </wgt>
</rwgt>
</event>
<event>
 4      1 +6.0853000e-08 2.01446100e+03 7.81860800e-03 8.06565000e-02
        2 -1    0    0  501    0 +0.0000000000e+00 +0.0000000000e+00 +7.7225392862e+02 7.7225392862e+02 0.0000000000e+00 0.0000e+00 1.0000e+00
       -2 -1    0    0    0  501 -0.0000000000e+00 -0.0000000000e+00 -1.3137037319e+03 1.3137037319e+03 0.0000000000e+00 0.0000e+00 -1.0000e+00
      -13  1    1    2    0    0 +8.8381775854e+02 -4.2447246352e+02 -5.0956726936e+02 1.1049748887e+03 0.0000000000e+00 0.0000e+00 -1.0000e+00
       13  1    1    2    0    0 -8.8381775854e+02 +4.2447246352e+02 -3.1882533876e+01 9.8098277180e+02 0.0000000000e+00 0.0000e+00 1.0000e+00
<mgrwt>
<rscale>  0 0.20144606E+04</rscale>
<asrwt>0</asrwt>
<pdfrwt beam="1">  1        2 0.11880830E+00 0.20144606E+04</pdfrwt>
<pdfrwt beam="2">  1       -2 0.20210826E+00 0.20144606E+04</pdfrwt>
<totfact> 0.47048773E+00</totfact>
</mgrwt>
<rwgt>
<wgt id='morphing_basis_vector_1'> +1.4247463e-04 </wgt>
<wgt id='morphing_basis_vector_2'> +9.9763987e-05 </wgt>
<wgt id='morphing_basis_vector_3'> +1.5297338e-04 </wgt>
<wgt id='morphing_basis_vector_4'> +1.0036402e-04 </wgt>
<wgt id='morphing_basis_vector_5'> +1.6634720e-04 </wgt>
</rwgt>
</event>
<event>
 4      1 +6.0853000e-08 1.96607400e+03 7.81860800e-03 8.08562600e-02
        2 -1    0    0  501    0 +0.0000000000e+00 +0.0000000000e+00 +3.8760096552e+03 3.8760096552e+03 0.0000000000e+00 0.0000e+00 1.0000e+00
       -2 -1    0    0    0  501 -0.0000000000e+00 -0.0000000000e+00 -2.4931862833e+02 2.4931862833e+02 0.0000000000e+00 0.0000e+00 -1.0000e+00
      -13  1    1    2    0    0 -5.8377824633e+02 -1.2830572067e+02 +1.7576091125e+02 6.2301789442e+02 0.0000000000e+00 0.0000e+00 -1.0000e+00
       13  1    1    2    0    0 +5.8377824633e+02 +1.2830572067e+02 +3.4509301156e+03 3.5023103891e+03 0.0000000000e+00 0.0000e+00 1.0000e+00
<mgrwt>
<rscale>  0 0.19660737E+04</rscale>
<asrwt>0</asrwt>
<pdfrwt beam="1">  1        2 0.59630913E+00 0.19660737E+04</pdfrwt>
<pdfrwt beam="2">  1       -2 0.38356715E-01 0.19660737E+04</pdfrwt>
<totfact> 0.28819528E+00</totfact>
</mgrwt>
<rwgt>
<wgt id='morphing_basis_vector_1'> +1.2764276e-04 </wgt>
<wgt id='morphing_basis_vector_2'> +8.5020480e-05 </wgt>
<wgt id='morphing_basis_vector_3'> +1.3607563e-04 </wgt>
<wgt id='morphing_basis_vector_4'> +9.4629336e-05 </wgt>
<wgt id='morphing_basis_vector_5'> +1.5092823e-04 </wgt>
</rwgt>
</event>
<event>
 4      1 +6.0853000e-08 2.06907700e+03 7.81860800e-03 8.04379000e-02
        2 -1    0    0  501    0 +0.0000000000e+00 +0.0000000000e+00 +2.6271823288e+03 2.6271823288e+03 0.0000000000e+00 0.0000e+00 1.0000e+00
       -2 -1    0    0    0  501 -0.0000000000e+00 -0.0000000000e+00 -4.0738303462e+02 4.0738303462e+02 0.0000000000e+00 0.0000e+00 -1.0000e+00
      -13  1    1    2    0    0 -5.7992696580e+02 +1.9936821435e+02 -1.1208084917e+02 6.2339801677e+02 0.0000000000e+00 0.0000e+00 -1.0000e+00
       13  1    1    2    0    0 +5.7992696580e+02 -1.9936821435e+02 +2.3318801433e+03 2.4111673466e+03 0.0000000000e+00 0.0000e+00 1.0000e+00
<mgrwt>
<rscale>  0 0.20690766E+04</rscale>
<asrwt>0</asrwt>
<pdfrwt beam="1">  1        2 0.40418189E+00 0.20690766E+04</pdfrwt>
<pdfrwt beam="2">  1       -2 0.62674314E-01 0.20690766E+04</pdfrwt>
<totfact> 0.80013319E+00</totfact>
</mgrwt>
<rwgt>
<wgt id='morphing_basis_vector_1'> +1.5592393e-04 </wgt>
<wgt id='morphing_basis_vector_2'> +1.0407926e-04 </wgt>
<wgt id='morphing_basis_vector_3'> +1.6684093e-04 </wgt>
<wgt id='morphing_basis_vector_4'> +1.1654867e-04 </wgt>
<wgt id='morphing_basis_vector_5'> +1.8588299e-04 </wgt>
</rwgt>
</event>
<event>
 4      1 +6.0853000e-08 1.88148600e+03 7.81860800e-03 8.12203000e-02
        2 -1    0    0  501    0 +0.0000000000e+00 +0.0000000000e+00 +9.3888718309e+02 9.3888718309e+02 0.0000000000e+00 0.0000e+00 -1.0000e+00
       -2 -1    0    0    0  501 -0.0000000000e+00 -0.0000000000e+00 -9.4260292665e+02 9.4260292665e+02 0.0000000000e+00 0.0000e+00 1.0000e+00
      -13  1    1    2    0    0 -1.8360838649e+02 -6.3955214133e+01 -9.2229190082e+02 9.4256281452e+02 0.0000000000e+00 0.0000e+00 1.0000e+00
       13  1    1    2    0    0 +1.8360838649e+02 +6.3955214133e+01 +9.1857615726e+02 9.3892729521e+02 0.0000000000e+00 0.0000e+00 -1.0000e+00
<mgrwt>
<rscale>  0 0.18814864E+04</rscale>
<asrwt>0</asrwt>
<pdfrwt beam="1">  1        2 0.14444418E+00 0.18814864E+04</pdfrwt>
<pdfrwt beam="2">  1       -2 0.14501583E+00 0.18814864E+04</pdfrwt>
<totfact> 0.10200992E+01</totfact>
</mgrwt>
<rwgt>
<wgt id='morphing_basis_vector_1'> +1.0740827e-04 </wgt>
<wgt id='morphing_basis_vector_2'> +7.1254302e-05 </wgt>
<wgt id='morphing_basis_vector_3'> +1.1408236e-04 </wgt>
<wgt id='morphing_basis_vector_4'> +7.9183400e-05 </wgt>
<wgt id='morphing_basis_vector_5'> +1.2610649e-04 </wgt>
</rwgt>
</event>
<event>
 4      1 +6.0853000e-08 1.86639500e+03 7.81860800e-03 8.12873400e-02
        2 -1    0    0  501    0 +0.0000000000e+00 +0.0000000000e+00 +9.3017827335e+02 9.3017827335e+02 0.0000000000e+00 0.0000e+00 1.0000e+00
       -2 -1    0    0    0  501 -0.0000000000e+00 -0.0000000000e+00 -9.3622645577e+02 9.3622645577e+02 0.0000000000e+00 0.0000e+00 -1.0000e+00
      -13  1    1    2    0    0 -3.6448908504e+02 +7.6176718802e+02 -4.0016087176e+02 9.3448930713e+02 0.0000000000e+00 0.0000e+00 -1.0000e+00
       13  1    1    2    0    0 +3.6448908504e+02 -7.6176718802e+02 +3.9411268934e+02 9.3191542199e+02 0.0000000000e+00 0.0000e+00 1.0000e+00
<mgrwt>
<rscale>  0 0.18663949E+04</rscale>
<asrwt>0</asrwt>
<pdfrwt beam="1">  1        2 0.14310435E+00 0.18663949E+04</pdfrwt>
<pdfrwt beam="2">  1       -2 0.14403484E+00 0.18663949E+04</pdfrwt>
<totfact> 0.10545429E+01</totfact>
</mgrwt>
<rwgt>
<wgt id='morphing_basis_vector_1'> +1.0475274e-04 </wgt>
<wgt id='morphing_basis_vector_2'> +7.1010884e-05 </wgt>
<wgt id='morphing_basis_vector_3'> +1.1143290e-04 </wgt>
<wgt id='morphing_basis_vector_4'> +7.5296611e-05 </wgt>
<wgt id='morphing_basis_vector_5'> +1.2191521e-04 </wgt>
</rwgt>
</event>
<event>
 4      1 +6.0853000e-08 1.91139700e+03 7.81860800e-03 8.10893300e-02
        2 -1    0    0  501    0 +0.0000000000e+00 +0.0000000000e+00 +6.9819185500e+02 6.9819185500e+02 0.0000000000e+00 0.0000e+00 -1.0000e+00
       -2 -1    0    0    0  501 -0.0000000000e+00 -0.0000000000e+00 -1.3081785970e+03 1.3081785970e+03 0.0000000000e+00 0.0000e+00 1.0000e+00
      -13  1    1    2    0    0 +7.3814800985e+02 -1.0100339224e+02 -9.3331336318e+02 1.1942102007e+03 0.0000000000e+00 0.0000e+00 1.0000e+00
       13  1    1    2    0    0 -7.3814800985e+02 +1.0100339224e+02 +3.2332662120e+02 8.1216025122e+02 0.0000000000e+00 0.0000e+00 -1.0000e+00
<mgrwt>
<rscale>  0 0.19113970E+04</rscale>
<asrwt>0</asrwt>
<pdfrwt beam="1">  1        2 0.10741413E+00 0.19113970E+04</pdfrwt>
<pdfrwt beam="2">  1       -2 0.20125824E+00 0.19113970E+04</pdfrwt>
<totfact> 0.54587264E+00</totfact>
</mgrwt>
<rwgt>
<wgt id='morphing_basis_vector_1'> +1.1448379e-04 </wgt>
<wgt id='morphing_basis_vector_2'> +7.6567792e-05 </wgt>
<wgt id='morphing_basis_vector_3'> +1.2184518e-04 </wgt>
<wgt id='morphing_basis_vector_4'> +8.3976587e-05 </wgt>
<wgt id='morphing_basis_vector_5'> +1.3447183e-04 </wgt>
</rwgt>
</event>
<event>
 4      1 +6.0853000e-08 2.16845800e+03 7.81860800e-03 8.00575300e-02
        2 -1    0    0  501    0 +0.0000000000e+00 +0.0000000000e+00 +2.5789906429e+03 2.5789906429e+03 0.0000000000e+00 0.0000e+00 -1.0000e+00
       -2 -1    0    0    0  501 -0.0000000000e+00 -0.0000000000e+00 -4.5581864369e+02 4.5581864369e+02 0.0000000000e+00 0.0000e+00 1.0000e+00
      -13  1    1    2    0    0 +3.9761216557e+02 +8.5745235093e+02 +3.1808142109e+02 9.9724408184e+02 0.0000000000e+00 0.0000e+00 1.0000e+00
       13  1    1    2    0    0 -3.9761216557e+02 -8.5745235093e+02 +1.8050905781e+03 2.0375652047e+03 0.0000000000e+00 0.0000e+00 -1.0000e+00
<mgrwt>
<rscale>  0 0.21684575E+04</rscale>
<asrwt>0</asrwt>
<pdfrwt beam="1">  1        2 0.39676778E+00 0.21684575E+04</pdfrwt>
<pdfrwt beam="2">  1       -2 0.70125946E-01 0.21684575E+04</pdfrwt>
<totfact> 0.66927695E+00</totfact>
</mgrwt>
<rwgt>
<wgt id='morphing_basis_vector_1'> +1.8826548e-04 </wgt>
<wgt id='morphing_basis_vector_2'> +1.2772766e-04 </wgt>
<wgt id='morphing_basis_vector_3'> +2.0240056e-04 </wgt>
<wgt id='morphing_basis_vector_4'> +1.3946936e-04 </wgt>
<wgt id='morphing_basis_vector_5'> +2.2488115e-04 </wgt>
</rwgt>
</event>
<event>
 4      1 +6.0853000e-08 2.00184500e+03 7.81860800e-03 8.07080200e-02
        2 -1    0    0  501    0 +0.0000000000e+00 +0.0000000000e+00 +8.9519714440e+02 8.9519714440e+02 0.0000000000e+00 0.0000e+00 -1.0000e+00
       -2 -1    0    0    0  501 -0.0000000000e+00 -0.0000000000e+00 -1.1191338796e+03 1.1191338796e+03 0.0000000000e+00 0.0000e+00 1.0000e+00
      -13  1    1    2    0    0 -9.6448248212e+02 +2.1109027699e+02 +5.3556592761e+01 9.8876381001e+02 0.0000000000e+00 0.0000e+00 1.0000e+00
       13  1    1    2    0    0 +9.6448248212e+02 -2.1109027699e+02 -2.7749332797e+02 1.0255672140e+03 0.0000000000e+00 0.0000e+00 -1.0000e+00
<mgrwt>
<rscale>  0 0.20018446E+04</rscale>
<asrwt>0</asrwt>
<pdfrwt beam="1">  1        2 0.13772264E+00 0.20018446E+04</pdfrwt>
<pdfrwt beam="2">  1       -2 0.17217444E+00 0.20018446E+04</pdfrwt>
<totfact> 0.65104667E+00</totfact>
</mgrwt>
<rwgt>
<wgt id='morphing_basis_vector_1'> +1.4580512e-04 </wgt>
<wgt id='morphing_basis_vector_2'> +1.1743317e-04 </wgt>
<wgt id='morphing_basis_vector_3'> +1.5907612e-04 </wgt>
<wgt id='morphing_basis_vector_4'> +8.4301378e-05 </wgt>
<wgt id='morphing_basis_vector_5'> +1.6107052e-04 </wgt>
</rwgt>
</event>
<event>
 4      1 +6.0853000e-08 1.93675000e+03 7.81860800e-03 8.09802700e-02
        2 -1    0    0  501    0 +0.0000000000e+00 +0.0000000000e+00 +1.1204989997e+03 1.1204989997e+03 0.0000000000e+00 0.0000e+00 1.0000e+00
       -2 -1    0    0    0  501 -0.0000000000e+00 -0.0000000000e+00 -8.3690368824e+02 8.3690368824e+02 0.0000000000e+00 0.0000e+00 -1.0000e+00
      -13  1    1    2    0    0 -6.9126458397e+01 +7.2426923658e+02 -5.0408321064e+02 8.8512387695e+02 0.0000000000e+00 0.0000e+00 -1.0000e+00
       13  1    1    2    0    0 +6.9126458397e+01 -7.2426923658e+02 +7.8767852205e+02 1.0722788109e+03 0.0000000000e+00 0.0000e+00 1.0000e+00
<mgrwt>
<rscale>  0 0.19367496E+04</rscale>
<asrwt>0</asrwt>
<pdfrwt beam="1">  1        2 0.17238446E+00 0.19367496E+04</pdfrwt>
<pdfrwt beam="2">  1       -2 0.12875441E+00 0.19367496E+04</pdfrwt>
<totfact> 0.10869077E+01</totfact>
</mgrwt>
<rwgt>
<wgt id='morphing_basis_vector_1'> +1.2048900e-04 </wgt>
<wgt id='morphing_basis_vector_2'> +8.0517099e-05 </wgt>
<wgt id='morphing_basis_vector_3'> +1.2835233e-04 </wgt>
<wgt id='morphing_basis_vector_4'> +8.8723081e-05 </wgt>
<wgt id='morphing_basis_vector_5'> +1.4192064e-04 </wgt>
</rwgt>
</event>
<event>
 4      1 +6.0853000e-08 2.13038500e+03 7.81860800e-03 8.02007100e-02
        2 -1    0    0  501    0 +0.0000000000e+00 +0.0000000000e+00 +1.1323864261e+03 1.1323864261e+03 0.0000000000e+00 0.0000e+00 -1.0000e+00
       -2 -1    0    0    0  501 -0.0000000000e+00 -0.0000000000e+00 -1.0019860878e+03 1.0019860878e+03 0.0000000000e+00 0.0000e+00 1.0000e+00
      -13  1    1    2    0    0 +3.9564970727e+02 +9.6369931078e+02 -1.5743271838e+02 1.0535844120e+03 0.0000000000e+00 0.0000e+00 1.0000e+00
       13  1    1    2    0    0 -3.9564970727e+02 -9.6369931078e+02 +2.8783305670e+02 1.0807881018e+03 0.0000000000e+00 0.0000e+00 -1.0000e+00
<mgrwt>
<rscale>  0 0.21303854E+04</rscale>
<asrwt>0</asrwt>
<pdfrwt beam="1">  1        2 0.17421330E+00 0.21303854E+04</pdfrwt>
<pdfrwt beam="2">  1       -2 0.15415171E+00 0.21303854E+04</pdfrwt>
<totfact> 0.63770220E+00</totfact>
</mgrwt>
<rwgt>
<wgt id='morphing_basis_vector_1'> +1.7769155e-04 </wgt>
<wgt id='morphing_basis_vector_2'> +1.2522315e-04 </wgt>
<wgt id='morphing_basis_vector_3'> +1.9165614e-04 </wgt>
<wgt id='morphing_basis_vector_4'> +1.2558424e-04 </wgt>
<wgt id='morphing_basis_vector_5'> +2.0890749e-04 </wgt>
</rwgt>
</event>
<event>
 4      1 +6.0853000e-08 1.89296900e+03 7.81860800e-03 8.11697200e-02
        2 -1    0    0  501    0 +0.0000000000e+00 +0.0000000000e+00 +2.7536620760e+03 2.7536620760e+03 0.0000000000e+00 0.0000e+00 -1.0000e+00
       -2 -1    0    0    0  501 -0.0000000000e+00 -0.0000000000e+00 -3.2532407004e+02 3.2532407004e+02 0.0000000000e+00 0.0000e+00 1.0000e+00
      -13  1    1    2    0    0 -9.3510908956e+02 +1.2156156994e+02 +1.3465729191e+03 1.6439175317e+03 0.0000000000e+00 0.0000e+00 1.0000e+00
       13  1    1    2    0    0 +9.3510908956e+02 -1.2156156994e+02 +1.0817650869e+03 1.4350686144e+03 0.0000000000e+00 0.0000e+00 -1.0000e+00
<mgrwt>
<rscale>  0 0.18929686E+04</rscale>
<asrwt>0</asrwt>
<pdfrwt beam="1">  1        2 0.42364030E+00 0.18929686E+04</pdfrwt>
<pdfrwt beam="2">  1       -2 0.50049859E-01 0.18929686E+04</pdfrwt>
<totfact> 0.10710267E+01</totfact>
</mgrwt>
<rwgt>
<wgt id='morphing_basis_vector_1'> +1.1544487e-04 </wgt>
<wgt id='morphing_basis_vector_2'> +8.9149423e-05 </wgt>
<wgt id='morphing_basis_vector_3'> +1.2470074e-04 </wgt>
<wgt id='morphing_basis_vector_4'> +7.0434237e-05 </wgt>
<wgt id='morphing_basis_vector_5'> +1.2844430e-04 </wgt>
</rwgt>
</event>
<event>
 4      1 +6.0853000e-08 1.91267400e+03 7.81860800e-03 8.10838000e-02
        2 -1    0    0  501    0 +0.0000000000e+00 +0.0000000000e+00 +1.4643789947e+03 1.4643789947e+03 0.0000000000e+00 0.0000e+00 -1.0000e+00
       -2 -1    0    0    0  501 -0.0000000000e+00 -0.0000000000e+00 -6.2455157854e+02 6.2455157854e+02 0.0000000000e+00 0.0000e+00 1.0000e+00
      -13  1    1    2    0    0 -1.0953653217e+02 -8.3279268468e+02 -7.9425936545e+01 8.4371226548e+02 0.0000000000e+00 0.0000e+00 1.0000e+00
       13  1    1    2    0    0 +1.0953653217e+02 +8.3279268468e+02 +9.1925335270e+02 1.2452183078e+03 0.0000000000e+00 0.0000e+00 -1.0000e+00
<mgrwt>
<rscale>  0 0.19126737E+04</rscale>
<asrwt>0</asrwt>
<pdfrwt beam="1">  1        2 0.22528907E+00 0.19126737E+04</pdfrwt>
<pdfrwt beam="2">  1       -2 0.96084859E-01 0.19126737E+04</pdfrwt>
<totfact> 0.14434748E+01</totfact>
</mgrwt>
<rwgt>
<wgt id='morphing_basis_vector_1'> +1.1511069e-04 </wgt>
<wgt id='morphing_basis_vector_2'> +7.7741056e-05 </wgt>
<wgt id='morphing_basis_vector_3'> +1.2264132e-04 </wgt>
<wgt id='morphing_basis_vector_4'> +8.3559360e-05 </wgt>
<wgt id='morphing_basis_vector_5'> +1.3478876e-04 </wgt>
</rwgt>
</event>
<event>
 4      1 +6.0853000e-08 1.86518200e+03 7.81860800e-03 8.12927600e-02
        2 -1    0    0  501    0 +0.0000000000e+00 +0.0000000000e+00 +3.3246290647e+03 3.3246290647e+03 0.0000000000e+00 0.0000e+00 -1.0000e+00
       -2 -1    0    0    0  501 -0.0000000000e+00 -0.0000000000e+00 -2.6160092748e+02 2.6160092748e+02 0.0000000000e+00 0.0000e+00 1.0000e+00
      -13  1    1    2    0    0 -8.7162920667e+02 +1.0391273985e+02 +9.2596071218e+02 1.2759069605e+03 0.0000000000e+00 0.0000e+00 1.0000e+00
       13  1    1    2    0    0 +8.7162920667e+02 -1.0391273985e+02 +2.1370674250e+03 2.3103230316e+03 0.0000000000e+00 0.0000e+00 -1.0000e+00
<mgrwt>
<rscale>  0 0.18651821E+04</rscale>
<asrwt>0</asrwt>
<pdfrwt beam="1">  1        2 0.51148137E+00 0.18651821E+04</pdfrwt>
<pdfrwt beam="2">  1       -2 0.40246299E-01 0.18651821E+04</pdfrwt>
<totfact> 0.68937095E+00</totfact>
</mgrwt>
<rwgt>
<wgt id='morphing_basis_vector_1'> +1.0482010e-04 </wgt>
<wgt id='morphing_basis_vector_2'> +7.1815980e-05 </wgt>
<wgt id='morphing_basis_vector_3'> +1.1161931e-04 </wgt>
<wgt id='morphing_basis_vector_4'> +7.4442037e-05 </wgt>
<wgt id='morphing_basis_vector_5'> +1.2154021e-04 </wgt>
</rwgt>
</event>
<event>
 4      1 +6.0853000e-08 1.99618000e+03 7.81860800e-03 8.07312800e-02
        2 -1    0    0  501    0 +0.0000000000e+00 +0.0000000000e+00 +9.1154924036e+02 9.1154924036e+02 0.0000000000e+00 0.0000e+00 -1.0000e+00
       -2 -1    0    0    0  501 -0.0000000000e+00 -0.0000000000e+00 -1.0928466224e+03 1.0928466224e+03 0.0000000000e+00 0.0000e+00 1.0000e+00
      -13  1    1    2    0    0 -8.7564604323e+02 -4.7880584849e+02 -7.7461668402e+01 1.0010051666e+03 0.0000000000e+00 0.0000e+00 1.0000e+00
       13  1    1    2    0    0 +8.7564604323e+02 +4.7880584849e+02 -1.0383571360e+02 1.0033906961e+03 0.0000000000e+00 0.0000e+00 -1.0000e+00
<mgrwt>
<rscale>  0 0.19961799E+04</rscale>
<asrwt>0</asrwt>
<pdfrwt beam="1">  1        2 0.14023834E+00 0.19961799E+04</pdfrwt>
<pdfrwt beam="2">  1       -2 0.16813025E+00 0.19961799E+04</pdfrwt>
<totfact> 0.68335172E+00</totfact>
</mgrwt>
<rwgt>
<wgt id='morphing_basis_vector_1'> +1.4059152e-04 </wgt>
<wgt id='morphing_basis_vector_2'> +1.0545673e-04 </wgt>
<wgt id='morphing_basis_vector_3'> +1.5203640e-04 </wgt>
<wgt id='morphing_basis_vector_4'> +9.0500219e-05 </wgt>
<wgt id='morphing_basis_vector_5'> +1.5978465e-04 </wgt>
</rwgt>
</event>
<event>
 4      1 +6.0853000e-08 2.17391000e+03 7.81860800e-03 8.00372800e-02
        2 -1    0    0  501    0 +0.0000000000e+00 +0.0000000000e+00 +1.8970390656e+03 1.8970390656e+03 0.0000000000e+00 0.0000e+00 -1.0000e+00
       -2 -1    0    0    0  501 -0.0000000000e+00 -0.0000000000e+00 -6.2279742357e+02 6.2279742357e+02 0.0000000000e+00 0.0000e+00 1.0000e+00
      -13  1    1    2    0    0 +2.9157718484e+01 -9.0968132553e+02 -5.1658575733e+01 9.1161334732e+02 0.0000000000e+00 0.0000e+00 1.0000e+00
       13  1    1    2    0    0 -2.9157718484e+01 +9.0968132553e+02 +1.3259002178e+03 1.6082231419e+03 0.0000000000e+00 0.0000e+00 -1.0000e+00
<mgrwt>
<rscale>  0 0.21739099E+04</rscale>
<asrwt>0</asrwt>
<pdfrwt beam="1">  1        2 0.29185216E+00 0.21739099E+04</pdfrwt>
<pdfrwt beam="2">  1       -2 0.95814989E-01 0.21739099E+04</pdfrwt>
<totfact> 0.81506932E+00</totfact>
</mgrwt>
<rwgt>
<wgt id='morphing_basis_vector_1'> +1.8989819e-04 </wgt>
<wgt id='morphing_basis_vector_2'> +1.2831241e-04 </wgt>
<wgt id='morphing_basis_vector_3'> +2.0409226e-04 </wgt>
<wgt id='morphing_basis_vector_4'> +1.4137446e-04 </wgt>
<wgt id='morphing_basis_vector_5'> +2.2722813e-04 </wgt>
</rwgt>
</event>
<event>
 4      1 +6.0853000e-08 1.91441000e+03 7.81860800e-03 8.10762800e-02
        2 -1    0    0  501    0 +0.0000000000e+00 +0.0000000000e+00 +1.7591664169e+03 1.7591664169e+03 0.0000000000e+00 0.0000e+00 -1.0000e+00
       -2 -1    0    0    0  501 -0.0000000000e+00 -0.0000000000e+00 -5.2083835796e+02 5.2083835796e+02 0.0000000000e+00 0.0000e+00 1.0000e+00
      -13  1    1    2    0    0 -2.5329484498e+02 +7.6641770017e+02 +6.4369060248e+00 8.0721484339e+02 0.0000000000e+00 0.0000e+00 1.0000e+00
       13  1    1    2    0    0 +2.5329484498e+02 -7.6641770017e+02 +1.2318911529e+03 1.4727899314e+03 0.0000000000e+00 0.0000e+00 -1.0000e+00
<mgrwt>
<rscale>  0 0.19144099E+04</rscale>
<asrwt>0</asrwt>
<pdfrwt beam="1">  1        2 0.27064098E+00 0.19144099E+04</pdfrwt>
<pdfrwt beam="2">  1       -2 0.80128979E-01 0.19144099E+04</pdfrwt>
<totfact> 0.15065536E+01</totfact>
</mgrwt>
<rwgt>
<wgt id='morphing_basis_vector_1'> +1.1536436e-04 </wgt>
<wgt id='morphing_basis_vector_2'> +7.7559803e-05 </wgt>
<wgt id='morphing_basis_vector_3'> +1.2286271e-04 </wgt>
<wgt id='morphing_basis_vector_4'> +8.4176982e-05 </wgt>
<wgt id='morphing_basis_vector_5'> +1.3531374e-04 </wgt>
</rwgt>
</event>
<event>
 4      1 +6.0853000e-08 1.86624300e+03 7.81860800e-03 8.12880200e-02
        2 -1    0    0  501    0 +0.0000000000e+00 +0.0000000000e+00 +1.1540998078e+03 1.1540998078e+03 0.0000000000e+00 0.0000e+00 -1.0000e+00
       -2 -1    0    0    0  501 -0.0000000000e+00 -0.0000000000e+00 -7.5445448703e+02 7.5445448703e+02 0.0000000000e+00 0.0000e+00 1.0000e+00
      -13  1    1    2    0    0 +2.4017809230e+02 -7.5327393547e+02 -3.0700246571e+02 8.4814954568e+02 0.0000000000e+00 0.0000e+00 1.0000e+00
       13  1    1    2    0    0 -2.4017809230e+02 +7.5327393547e+02 +7.0664778647e+02 1.0604047491e+03 0.0000000000e+00 0.0000e+00 -1.0000e+00
<mgrwt>
<rscale>  0 0.18662430E+04</rscale>
<asrwt>0</asrwt>
<pdfrwt beam="1">  1        2 0.17755382E+00 0.18662430E+04</pdfrwt>
<pdfrwt beam="2">  1       -2 0.11606992E+00 0.18662430E+04</pdfrwt>
<totfact> 0.13695380E+01</totfact>
</mgrwt>
<rwgt>
<wgt id='morphing_basis_vector_1'> +1.0443816e-04 </wgt>
<wgt id='morphing_basis_vector_2'> +7.0154081e-05 </wgt>
<wgt id='morphing_basis_vector_3'> +1.1099525e-04 </wgt>
<wgt id='morphing_basis_vector_4'> +7.5824434e-05 </wgt>
<wgt id='morphing_basis_vector_5'> +1.2191774e-04 </wgt>
</rwgt>
</event>
<event>
 4      1 +6.0853000e-08 2.12749500e+03 7.81860800e-03 8.02117000e-02
        2 -1    0    0  501    0 +0.0000000000e+00 +0.0000000000e+00 +1.4653064745e+03 1.4653064745e+03 0.0000000000e+00 0.0000e+00 1.0000e+00
       -2 -1    0    0    0  501 -0.0000000000e+00 -0.0000000000e+00 -7.7223354824e+02 7.7223354824e+02 0.0000000000e+00 0.0000e+00 -1.0000e+00
      -13  1    1    2    0    0 +7.9910575796e+02 +1.9010364643e+02 -3.6433124063e+02 8.9858035906e+02 0.0000000000e+00 0.0000e+00 -1.0000e+00
       13  1    1    2    0    0 -7.9910575796e+02 -1.9010364643e+02 +1.0574041669e+03 1.3389596637e+03 0.0000000000e+00 0.0000e+00 1.0000e+00
<mgrwt>
<rscale>  0 0.21274951E+04</rscale>
<asrwt>0</asrwt>
<pdfrwt beam="1">  1        2 0.22543177E+00 0.21274951E+04</pdfrwt>
<pdfrwt beam="2">  1       -2 0.11880516E+00 0.21274951E+04</pdfrwt>
<totfact> 0.83615216E+00</totfact>
</mgrwt>
<rwgt>
<wgt id='morphing_basis_vector_1'> +1.7420387e-04 </wgt>
<wgt id='morphing_basis_vector_2'> +1.1703101e-04 </wgt>
<wgt id='morphing_basis_vector_3'> +1.8686006e-04 </wgt>
<wgt id='morphing_basis_vector_4'> +1.2999974e-04 </wgt>
<wgt id='morphing_basis_vector_5'> +2.0816270e-04 </wgt>
</rwgt>
</event>
<event>
 4      1 +6.0853000e-08 1.96013300e+03 7.81860800e-03 8.08812000e-02
        2 -1    0    0  501    0 +0.0000000000e+00 +0.0000000000e+00 +2.5970128055e+03 2.5970128055e+03 0.0000000000e+00 0.0000e+00 -1.0000e+00
       -2 -1    0    0    0  501 -0.0000000000e+00 -0.0000000000e+00 -3.6985959361e+02 3.6985959361e+02 0.0000000000e+00 0.0000e+00 1.0000e+00
      -13  1    1    2    0    0 +7.7100322173e+02 +1.0021297692e+02 +2.1041869712e+02 8.0545927070e+02 0.0000000000e+00 0.0000e+00 1.0000e+00
       13  1    1    2    0    0 -7.7100322173e+02 -1.0021297692e+02 +2.0167345147e+03 2.1614131284e+03 0.0000000000e+00 0.0000e+00 -1.0000e+00
<mgrwt>
<rscale>  0 0.19601328E+04</rscale>
<asrwt>0</asrwt>
<pdfrwt beam="1">  1        2 0.39954042E+00 0.19601328E+04</pdfrwt>
<pdfrwt beam="2">  1       -2 0.56901478E-01 0.19601328E+04</pdfrwt>
<totfact> 0.10274962E+01</totfact>
</mgrwt>
<rwgt>
<wgt id='morphing_basis_vector_1'> +1.2637191e-04 </wgt>
<wgt id='morphing_basis_vector_2'> +8.4696612e-05 </wgt>
<wgt id='morphing_basis_vector_3'> +1.3477856e-04 </wgt>
<wgt id='morphing_basis_vector_4'> +9.3005827e-05 </wgt>
<wgt id='morphing_basis_vector_5'> +1.4903810e-04 </wgt>
</rwgt>
</event>
<event>
 4      1 +6.0853000e-08 2.03751200e+03 7.81860800e-03 8.05633700e-02
        2 -1    0    0  501    0 +0.0000000000e+00 +0.0000000000e+00 +3.0248835915e+03 3.0248835915e+03 0.0000000000e+00 0.0000e+00 1.0000e+00
       -2 -1    0    0    0  501 -0.0000000000e+00 -0.0000000000e+00 -3.4310866562e+02 3.4310866562e+02 0.0000000000e+00 0.0000e+00 -1.0000e+00
      -13  1    1    2    0    0 -2.0787068994e+01 +1.0185407257e+03 +1.3450890190e+03 1.6873416314e+03 0.0000000000e+00 0.0000e+00 -1.0000e+00
       13  1    1    2    0    0 +2.0787068994e+01 -1.0185407257e+03 +1.3366859069e+03 1.6806506258e+03 0.0000000000e+00 0.0000e+00 1.0000e+00
<mgrwt>
<rscale>  0 0.20375120E+04</rscale>
<asrwt>0</asrwt>
<pdfrwt beam="1">  1        2 0.46536669E+00 0.20375120E+04</pdfrwt>
<pdfrwt beam="2">  1       -2 0.52785951E-01 0.20375120E+04</pdfrwt>
<totfact> 0.63962136E+00</totfact>
</mgrwt>
<rwgt>
<wgt id='morphing_basis_vector_1'> +1.5214414e-04 </wgt>
<wgt id='morphing_basis_vector_2'> +1.1374473e-04 </wgt>
<wgt id='morphing_basis_vector_3'> +1.6472683e-04 </wgt>
<wgt id='morphing_basis_vector_4'> +9.8803681e-05 </wgt>
<wgt id='morphing_basis_vector_5'> +1.7374754e-04 </wgt>
</rwgt>
</event>
<event>
 4      1 +6.0853000e-08 1.93532300e+03 7.81860800e-03 8.09863600e-02
        2 -1    0    0  501    0 +0.0000000000e+00 +0.0000000000e+00 +1.5666066796e+03 1.5666066796e+03 0.0000000000e+00 0.0000e+00 -1.0000e+00
       -2 -1    0    0    0  501 -0.0000000000e+00 -0.0000000000e+00 -5.9770516787e+02 5.9770516787e+02 0.0000000000e+00 0.0000e+00 1.0000e+00
      -13  1    1    2    0    0 +4.8123658487e+02 +4.0903726735e+02 -3.3541541420e+02 7.1512490992e+02 0.0000000000e+00 0.0000e+00 1.0000e+00
       13  1    1    2    0    0 -4.8123658487e+02 -4.0903726735e+02 +1.3043169260e+03 1.4491869376e+03 0.0000000000e+00 0.0000e+00 -1.0000e+00
<mgrwt>
<rscale>  0 0.19353231E+04</rscale>
<asrwt>0</asrwt>
<pdfrwt beam="1">  1        2 0.24101641E+00 0.19353231E+04</pdfrwt>
<pdfrwt beam="2">  1       -2 0.91954642E-01 0.19353231E+04</pdfrwt>
<totfact> 0.14006343E+01</totfact>
</mgrwt>
<rwgt>
<wgt id='morphing_basis_vector_1'> +1.2003113e-04 </wgt>
<wgt id='morphing_basis_vector_2'> +7.9953754e-05 </wgt>
<wgt id='morphing_basis_vector_3'> +1.2781526e-04 </wgt>
<wgt id='morphing_basis_vector_4'> +8.8676008e-05 </wgt>
<wgt id='morphing_basis_vector_5'> +1.4151124e-04 </wgt>
</rwgt>
</event>
<event>
 4      1 +6.0853000e-08 2.07246400e+03 7.81860800e-03 8.04245700e-02
        2 -1    0    0  501    0 +0.0000000000e+00 +0.0000000000e+00 +2.5954055014e+03 2.5954055014e+03 0.0000000000e+00 0.0000e+00 1.0000e+00
       -2 -1    0    0    0  501 -0.0000000000e+00 -0.0000000000e+00 -4.1372227065e+02 4.1372227065e+02 0.0000000000e+00 0.0000e+00 -1.0000e+00
      -13  1    1    2    0    0 -5.6856573353e+02 -1.1707540418e+02 -1.5547787783e+02 6.0095508493e+02 0.0000000000e+00 0.0000e+00 -1.0000e+00
       13  1    1    2    0    0 +5.6856573353e+02 +1.1707540418e+02 +2.3371611086e+03 2.4081726871e+03 0.0000000000e+00 0.0000e+00 1.0000e+00
<mgrwt>
<rscale>  0 0.20724643E+04</rscale>
<asrwt>0</asrwt>
<pdfrwt beam="1">  1        2 0.39929315E+00 0.20724643E+04</pdfrwt>
<pdfrwt beam="2">  1       -2 0.63649581E-01 0.20724643E+04</pdfrwt>
<totfact> 0.80977203E+00</totfact>
</mgrwt>
<rwgt>
<wgt id='morphing_basis_vector_1'> +1.5691039e-04 </wgt>
<wgt id='morphing_basis_vector_2'> +1.0470433e-04 </wgt>
<wgt id='morphing_basis_vector_3'> +1.6790835e-04 </wgt>
<wgt id='morphing_basis_vector_4'> +1.1736350e-04 </wgt>
<wgt id='morphing_basis_vector_5'> +1.8712918e-04 </wgt>
</rwgt>
</event>
<event>
 4      1 +6.0853000e-08 2.15417700e+03 7.81860800e-03 8.01108800e-02
        2 -1    0    0  501    0 +0.0000000000e+00 +0.0000000000e+00 +1.1961793420e+03 1.1961793420e+03 0.0000000000e+00 0.0000e+00 1.0000e+00
       -2 -1    0    0    0  501 -0.0000000000e+00 -0.0000000000e+00 -9.6985416814e+02 9.6985416814e+02 0.0000000000e+00 0.0000e+00 -1.0000e+00
      -13  1    1    2    0    0 -5.8871654208e+02 +3.9221409554e+02 -7.0352734327e+02 9.9768220712e+02 0.0000000000e+00 0.0000e+00 -1.0000e+00
       13  1    1    2    0    0 +5.8871654208e+02 -3.9221409554e+02 +9.2985251715e+02 1.1683513030e+03 0.0000000000e+00 0.0000e+00 1.0000e+00
<mgrwt>
<rscale>  0 0.21541769E+04</rscale>
<asrwt>0</asrwt>
<pdfrwt beam="1">  1        2 0.18402759E+00 0.21541769E+04</pdfrwt>
<pdfrwt beam="2">  1       -2 0.14920833E+00 0.21541769E+04</pdfrwt>
<totfact> 0.64091515E+00</totfact>
</mgrwt>
<rwgt>
<wgt id='morphing_basis_vector_1'> +1.8272632e-04 </wgt>
<wgt id='morphing_basis_vector_2'> +1.2231352e-04 </wgt>
<wgt id='morphing_basis_vector_3'> +1.9607081e-04 </wgt>
<wgt id='morphing_basis_vector_4'> +1.3720578e-04 </wgt>
<wgt id='morphing_basis_vector_5'> +2.1903033e-04 </wgt>
</rwgt>
</event>
<event>
 4      1 +6.0853000e-08 2.20526000e+03 7.81860800e-03 7.99220000e-02
        2 -1    0    0  501    0 +0.0000000000e+00 +0.0000000000e+00 +3.0035765351e+03 3.0035765351e+03 0.0000000000e+00 0.0000e+00 1.0000e+00
       -2 -1    0    0    0  501 -0.0000000000e+00 -0.0000000000e+00 -4.0478169398e+02 4.0478169398e+02 0.0000000000e+00 0.0000e+00 -1.0000e+00
      -13  1    1    2    0    0 +2.7339553914e+02 +1.0009615374e+03 +1.8758797239e+03 2.1437336259e+03 0.0000000000e+00 0.0000e+00 1.0000e+00
       13  1    1    2    0    0 -2.7339553914e+02 -1.0009615374e+03 +7.2291511722e+02 1.2646246032e+03 0.0000000000e+00 0.0000e+00 -1.0000e+00
<mgrwt>
<rscale>  0 0.22052599E+04</rscale>
<asrwt>0</asrwt>
<pdfrwt beam="1">  1        2 0.46208868E+00 0.22052599E+04</pdfrwt>
<pdfrwt beam="2">  1       -2 0.62274109E-01 0.22052599E+04</pdfrwt>
<totfact> 0.46477015E+00</totfact>
</mgrwt>
<rwgt>
<wgt id='morphing_basis_vector_1'> +2.2317001e-04 </wgt>
<wgt id='morphing_basis_vector_2'> +2.0165652e-04 </wgt>
<wgt id='morphing_basis_vector_3'> +2.4930104e-04 </wgt>
<wgt id='morphing_basis_vector_4'> +1.0488082e-04 </wgt>
<wgt id='morphing_basis_vector_5'> +2.3725710e-04 </wgt>
</rwgt>
</event>
<event>
 4      1 +6.0853000e-08 1.86727400e+03 7.81860800e-03 8.12834200e-02
        2 -1    0    0  501    0 +0.0000000000e+00 +0.0000000000e+00 +4.4047522586e+02 4.4047522586e+02 0.0000000000e+00 0.0000e+00 1.0000e+00
       -2 -1    0    0    0  501 -0.0000000000e+00 -0.0000000000e+00 -1.9789494707e+03 1.9789494707e+03 0.0000000000e+00 0.0000e+00 -1.0000e+00
      -13  1    1    2    0    0 +7.6726602236e+01 -3.4496787692e+02 -1.8889400185e+03 1.9217138708e+03 0.0000000000e+00 0.0000e+00 -1.0000e+00
       13  1    1    2    0    0 -7.6726602236e+01 +3.4496787692e+02 +3.5046577366e+02 4.9771082579e+02 0.0000000000e+00 0.0000e+00 1.0000e+00
<mgrwt>
<rscale>  0 0.18672742E+04</rscale>
<asrwt>0</asrwt>
<pdfrwt beam="1">  1        2 0.67765419E-01 0.18672742E+04</pdfrwt>
<pdfrwt beam="2">  1       -2 0.30445377E+00 0.18672742E+04</pdfrwt>
<totfact> 0.18016183E+00</totfact>
</mgrwt>
<rwgt>
<wgt id='morphing_basis_vector_1'> +1.0427782e-04 </wgt>
<wgt id='morphing_basis_vector_2'> +6.9163303e-05 </wgt>
<wgt id='morphing_basis_vector_3'> +1.1068933e-04 </wgt>
<wgt id='morphing_basis_vector_4'> +7.6754692e-05 </wgt>
<wgt id='morphing_basis_vector_5'> +1.2225288e-04 </wgt>
</rwgt>
</event>
<event>
 4      1 +6.0853000e-08 2.00947600e+03 7.81860800e-03 8.06768000e-02
        2 -1    0    0  501    0 +0.0000000000e+00 +0.0000000000e+00 +1.4052621630e+03 1.4052621630e+03 0.0000000000e+00 0.0000e+00 1.0000e+00
       -2 -1    0    0    0  501 -0.0000000000e+00 -0.0000000000e+00 -7.1837034028e+02 7.1837034028e+02 0.0000000000e+00 0.0000e+00 -1.0000e+00
      -13  1    1    2    0    0 -5.6473697473e+02 +4.9512281379e+02 +1.0487613705e+03 1.2899514966e+03 0.0000000000e+00 0.0000e+00 1.0000e+00
       13  1    1    2    0    0 +5.6473697473e+02 -4.9512281379e+02 -3.6186954774e+02 8.3368100670e+02 0.0000000000e+00 0.0000e+00 -1.0000e+00
<mgrwt>
<rscale>  0 0.20094762E+04</rscale>
<asrwt>0</asrwt>
<pdfrwt beam="1">  1        2 0.21619418E+00 0.20094762E+04</pdfrwt>
<pdfrwt beam="2">  1       -2 0.11051851E+00 0.20094762E+04</pdfrwt>
<totfact> 0.10979077E+01</totfact>
</mgrwt>
<rwgt>
<wgt id='morphing_basis_vector_1'> +1.7647182e-04 </wgt>
<wgt id='morphing_basis_vector_2'> +2.0351571e-04 </wgt>
<wgt id='morphing_basis_vector_3'> +2.0302743e-04 </wgt>
<wgt id='morphing_basis_vector_4'> +2.8916898e-05 </wgt>
<wgt id='morphing_basis_vector_5'> +1.5911236e-04 </wgt>
</rwgt>
</event>
<event>
 4      1 +6.0853000e-08 1.91276300e+03 7.81860800e-03 8.10834100e-02
        2 -1    0    0  501    0 +0.0000000000e+00 +0.0000000000e+00 +2.2015545785e+03 2.2015545785e+03 0.0000000000e+00 0.0000e+00 -1.0000e+00
       -2 -1    0    0    0  501 -0.0000000000e+00 -0.0000000000e+00 -4.1546338294e+02 4.1546338294e+02 0.0000000000e+00 0.0000e+00 1.0000e+00
      -13  1    1    2    0    0 -5.0216307084e+02 +6.4388458536e+01 -2.1708629644e+02 5.5085395833e+02 0.0000000000e+00 0.0000e+00 1.0000e+00
       13  1    1    2    0    0 +5.0216307084e+02 -6.4388458536e+01 +2.0031774920e+03 2.0661640031e+03 0.0000000000e+00 0.0000e+00 -1.0000e+00
<mgrwt>
<rscale>  0 0.19127627E+04</rscale>
<asrwt>0</asrwt>
<pdfrwt beam="1">  1        2 0.33870070E+00 0.19127627E+04</pdfrwt>
<pdfrwt beam="2">  1       -2 0.63917445E-01 0.19127627E+04</pdfrwt>
<totfact> 0.13869154E+01</totfact>
</mgrwt>
<rwgt>
<wgt id='morphing_basis_vector_1'> +1.1459151e-04 </wgt>
<wgt id='morphing_basis_vector_2'> +7.6154810e-05 </wgt>
<wgt id='morphing_basis_vector_3'> +1.2188751e-04 </wgt>
<wgt id='morphing_basis_vector_4'> +8.4641743e-05 </wgt>
<wgt id='morphing_basis_vector_5'> +1.3489796e-04 </wgt>
</rwgt>
</event>
<event>
 4      1 +6.0853000e-08 2.08835600e+03 7.81860800e-03 8.03624000e-02
        2 -1    0    0  501    0 +0.0000000000e+00 +0.0000000000e+00 +1.3432829531e+03 1.3432829531e+03 0.0000000000e+00 0.0000e+00 -1.0000e+00
       -2 -1    0    0    0  501 -0.0000000000e+00 -0.0000000000e+00 -8.1167372408e+02 8.1167372408e+02 0.0000000000e+00 0.0000e+00 1.0000e+00
      -13  1    1    2    0    0 +8.7661116243e+02 +5.1759441589e+02 +2.6111584670e+01 1.0183481351e+03 0.0000000000e+00 0.0000e+00 1.0000e+00
       13  1    1    2    0    0 -8.7661116243e+02 -5.1759441589e+02 +5.0549764438e+02 1.1366085421e+03 0.0000000000e+00 0.0000e+00 -1.0000e+00
<mgrwt>
<rscale>  0 0.20883558E+04</rscale>
<asrwt>0</asrwt>
<pdfrwt beam="1">  1        2 0.20665892E+00 0.20883558E+04</pdfrwt>
<pdfrwt beam="2">  1       -2 0.12487288E+00 0.20883558E+04</pdfrwt>
<totfact> 0.86326391E+00</totfact>
</mgrwt>
<rwgt>
<wgt id='morphing_basis_vector_1'> +1.6417087e-04 </wgt>
<wgt id='morphing_basis_vector_2'> +1.1527754e-04 </wgt>
<wgt id='morphing_basis_vector_3'> +1.7676655e-04 </wgt>
<wgt id='morphing_basis_vector_4'> +1.1609429e-04 </wgt>
<wgt id='morphing_basis_vector_5'> +1.9264960e-04 </wgt>
</rwgt>
</event>
<event>
 4      1 +6.0853000e-08 2.07028600e+03 7.81860800e-03 8.04331400e-02
        2 -1    0    0  501    0 +0.0000000000e+00 +0.0000000000e+00 +1.3500477704e+03 1.3500477704e+03 0.0000000000e+00 0.0000e+00 1.0000e+00
       -2 -1    0    0    0  501 -0.0000000000e+00 -0.0000000000e+00 -7.9369103809e+02 7.9369103809e+02 0.0000000000e+00 0.0000e+00 -1.0000e+00
      -13  1    1    2    0    0 +1.8777461171e+02 +1.3142180346e+02 -7.6708683252e+02 8.0059553075e+02 0.0000000000e+00 0.0000e+00 -1.0000e+00
       13  1    1    2    0    0 -1.8777461171e+02 -1.3142180346e+02 +1.3234435648e+03 1.3431432777e+03 0.0000000000e+00 0.0000e+00 1.0000e+00
<mgrwt>
<rscale>  0 0.20702858E+04</rscale>
<asrwt>0</asrwt>
<pdfrwt beam="1">  1        2 0.20769966E+00 0.20702858E+04</pdfrwt>
<pdfrwt beam="2">  1       -2 0.12210631E+00 0.20702858E+04</pdfrwt>
<totfact> 0.90890118E+00</totfact>
</mgrwt>
<rwgt>
<wgt id='morphing_basis_vector_1'> +1.5620924e-04 </wgt>
<wgt id='morphing_basis_vector_2'> +1.0410599e-04 </wgt>
<wgt id='morphing_basis_vector_3'> +1.6712403e-04 </wgt>
<wgt id='morphing_basis_vector_4'> +1.1697158e-04 </wgt>
<wgt id='morphing_basis_vector_5'> +1.8633760e-04 </wgt>
</rwgt>
</event>
<event>
 4      1 +6.0853000e-08 1.98794400e+03 7.81860800e-03 8.07652400e-02
        2 -1    0    0  501    0 +0.0000000000e+00 +0.0000000000e+00 +1.0032798640e+03 1.0032798640e+03 0.0000000000e+00 0.0000e+00 -1.0000e+00
       -2 -1    0    0    0  501 -0.0000000000e+00 -0.0000000000e+00 -9.8475000784e+02 9.8475000784e+02 0.0000000000e+00 0.0000e+00 1.0000e+00
      -13  1    1    2    0    0 -1.6769726684e+02 +9.7902644685e+02 +4.6208338170e+01 9.9435927484e+02 0.0000000000e+00 0.0000e+00 1.0000e+00
       13  1    1    2    0    0 +1.6769726684e+02 -9.7902644685e+02 -2.7678482026e+01 9.9367059698e+02 0.0000000000e+00 0.0000e+00 -1.0000e+00
<mgrwt>
<rscale>  0 0.19879435E+04</rscale>
<asrwt>0</asrwt>
<pdfrwt beam="1">  1        2 0.15435075E+00 0.19879435E+04</pdfrwt>
<pdfrwt beam="2">  1       -2 0.15150000E+00 0.19879435E+04</pdfrwt>
<totfact> 0.81304741E+00</totfact>
</mgrwt>
<rwgt>
<wgt id='morphing_basis_vector_1'> +1.3878871e-04 </wgt>
<wgt id='morphing_basis_vector_2'> +1.0509802e-04 </wgt>
<wgt id='morphing_basis_vector_3'> +1.5020474e-04 </wgt>
<wgt id='morphing_basis_vector_4'> +8.8079391e-05 </wgt>
<wgt id='morphing_basis_vector_5'> +1.5703994e-04 </wgt>
</rwgt>
</event>
<event>
 4      1 +6.0853000e-08 1.97723800e+03 7.81860800e-03 8.08096500e-02
        2 -1    0    0  501    0 +0.0000000000e+00 +0.0000000000e+00 +5.0522575786e+02 5.0522575786e+02 0.0000000000e+00 0.0000e+00 1.0000e+00
       -2 -1    0    0    0  501 -0.0000000000e+00 -0.0000000000e+00 -1.9345155015e+03 1.9345155015e+03 0.0000000000e+00 0.0000e+00 -1.0000e+00
      -13  1    1    2    0    0 -3.9117800474e+02 +4.7625401381e+02 -1.6684604238e+03 1.7786506972e+03 0.0000000000e+00 0.0000e+00 -1.0000e+00
       13  1    1    2    0    0 +3.9117800474e+02 -4.7625401381e+02 +2.3917068016e+02 6.6109056211e+02 0.0000000000e+00 0.0000e+00 1.0000e+00
<mgrwt>
<rscale>  0 0.19772375E+04</rscale>
<asrwt>0</asrwt>
<pdfrwt beam="1">  1        2 0.77727037E-01 0.19772375E+04</pdfrwt>
<pdfrwt beam="2">  1       -2 0.29761778E+00 0.19772375E+04</pdfrwt>
<totfact> 0.16977398E+00</totfact>
</mgrwt>
<rwgt>
<wgt id='morphing_basis_vector_1'> +1.3051471e-04 </wgt>
<wgt id='morphing_basis_vector_2'> +8.6978618e-05 </wgt>
<wgt id='morphing_basis_vector_3'> +1.3920088e-04 </wgt>
<wgt id='morphing_basis_vector_4'> +9.6822314e-05 </wgt>
<wgt id='morphing_basis_vector_5'> +1.5445668e-04 </wgt>
</rwgt>
</event>
<event>
 4      1 +6.0853000e-08 1.93150400e+03 7.81860800e-03 8.10026900e-02
        2 -1    0    0  501    0 +0.0000000000e+00 +0.0000000000e+00 +5.1854553458e+03 5.1854553458e+03 0.0000000000e+00 0.0000e+00 -1.0000e+00
       -2 -1    0    0    0  501 -0.0000000000e+00 -0.0000000000e+00 -1.7986398194e+02 1.7986398194e+02 0.0000000000e+00 0.0000e+00 1.0000e+00
      -13  1    1    2    0    0 -3.8716892010e+02 +6.3970951700e+02 +8.0504626841e+02 1.0987390651e+03 0.0000000000e+00 0.0000e+00 1.0000e+00
       13  1    1    2    0    0 +3.8716892010e+02 -6.3970951700e+02 +4.2005450954e+03 4.2665802626e+03 0.0000000000e+00 0.0000e+00 -1.0000e+00
<mgrwt>
<rscale>  0 0.19315037E+04</rscale>
<asrwt>0</asrwt>
<pdfrwt beam="1">  1        2 0.79776225E+00 0.19315037E+04</pdfrwt>
<pdfrwt beam="2">  1       -2 0.27671386E-01 0.19315037E+04</pdfrwt>
<totfact> 0.20573820E-01</totfact>
</mgrwt>
<rwgt>
<wgt id='morphing_basis_vector_1'> +1.1925777e-04 </wgt>
<wgt id='morphing_basis_vector_2'> +7.9777785e-05 </wgt>
<wgt id='morphing_basis_vector_3'> +1.2702890e-04 </wgt>
<wgt id='morphing_basis_vector_4'> +8.7664752e-05 </wgt>
<wgt id='morphing_basis_vector_5'> +1.4035003e-04 </wgt>
</rwgt>
</event>
<event>
 4      1 +6.0853000e-08 2.10642900e+03 7.81860800e-03 8.02923900e-02
        2 -1    0    0  501    0 +0.0000000000e+00 +0.0000000000e+00 +2.0806875883e+03 2.0806875883e+03 0.0000000000e+00 0.0000e+00 1.0000e+00
       -2 -1    0    0    0  501 -0.0000000000e+00 -0.0000000000e+00 -5.3312238358e+02 5.3312238358e+02 0.0000000000e+00 0.0000e+00 -1.0000e+00
      -13  1    1    2    0    0 -7.8065075493e+02 -6.7811187359e+02 +1.0219875160e+03 1.4538603087e+03 0.0000000000e+00 0.0000e+00 -1.0000e+00
       13  1    1    2    0    0 +7.8065075493e+02 +6.7811187359e+02 +5.2557768871e+02 1.1599496632e+03 0.0000000000e+00 0.0000e+00 1.0000e+00
<mgrwt>
<rscale>  0 0.21064293E+04</rscale>
<asrwt>0</asrwt>
<pdfrwt beam="1">  1        2 0.32010578E+00 0.21064293E+04</pdfrwt>
<pdfrwt beam="2">  1       -2 0.82018829E-01 0.21064293E+04</pdfrwt>
<totfact> 0.92809719E+00</totfact>
</mgrwt>
<rwgt>
<wgt id='morphing_basis_vector_1'> +1.7903615e-04 </wgt>
<wgt id='morphing_basis_vector_2'> +1.4654520e-04 </wgt>
<wgt id='morphing_basis_vector_3'> +1.9655372e-04 </wgt>
<wgt id='morphing_basis_vector_4'> +1.0175389e-04 </wgt>
<wgt id='morphing_basis_vector_5'> +1.9806159e-04 </wgt>
</rwgt>
</event>
<event>
 4      1 +6.0853000e-08 2.09481600e+03 7.81860800e-03 8.03372900e-02
        2 -1    0    0  501    0 +0.0000000000e+00 +0.0000000000e+00 +2.6821457827e+03 2.6821457827e+03 0.0000000000e+00 0.0000e+00 1.0000e+00
       -2 -1    0    0    0  501 -0.0000000000e+00 -0.0000000000e+00 -4.0902469140e+02 4.0902469140e+02 0.0000000000e+00 0.0000e+00 -1.0000e+00
      -13  1    1    2    0    0 +7.0159042914e+02 +4.4016490408e+01 -9.2126728862e+00 7.0303019497e+02 0.0000000000e+00 0.0000e+00 -1.0000e+00
       13  1    1    2    0    0 -7.0159042914e+02 -4.4016490408e+01 +2.2823337642e+03 2.3881402792e+03 0.0000000000e+00 0.0000e+00 1.0000e+00
<mgrwt>
<rscale>  0 0.20948163E+04</rscale>
<asrwt>0</asrwt>
<pdfrwt beam="1">  1        2 0.41263780E+00 0.20948163E+04</pdfrwt>
<pdfrwt beam="2">  1       -2 0.62926877E-01 0.20948163E+04</pdfrwt>
<totfact> 0.73280615E+00</totfact>
</mgrwt>
<rwgt>
<wgt id='morphing_basis_vector_1'> +1.6374679e-04 </wgt>
<wgt id='morphing_basis_vector_2'> +1.0951797e-04 </wgt>
<wgt id='morphing_basis_vector_3'> +1.7538781e-04 </wgt>
<wgt id='morphing_basis_vector_4'> +1.2242766e-04 </wgt>
<wgt id='morphing_basis_vector_5'> +1.9547517e-04 </wgt>
</rwgt>
</event>
<event>
 4      1 +6.0853000e-08 2.03077000e+03 7.81860800e-03 8.05904700e-02
        2 -1    0    0  501    0 +0.0000000000e+00 +0.0000000000e+00 +2.1786798128e+03 2.1786798128e+03 0.0000000000e+00 0.0000e+00 1.0000e+00
       -2 -1    0    0    0  501 -0.0000000000e+00 -0.0000000000e+00 -4.7322550251e+02 4.7322550251e+02 0.0000000000e+00 0.0000e+00 -1.0000e+00
      -13  1    1    2    0    0 +4.8690155394e+02 +5.0339999483e+02 -1.0734527660e+02 7.0852500763e+02 0.0000000000e+00 0.0000e+00 -1.0000e+00
       13  1    1    2    0    0 -4.8690155394e+02 -5.0339999483e+02 +1.8127995869e+03 1.9433803077e+03 0.0000000000e+00 0.0000e+00 1.0000e+00
<mgrwt>
<rscale>  0 0.20307701E+04</rscale>
<asrwt>0</asrwt>
<pdfrwt beam="1">  1        2 0.33518150E+00 0.20307701E+04</pdfrwt>
<pdfrwt beam="2">  1       -2 0.72803925E-01 0.20307701E+04</pdfrwt>
<totfact> 0.10723712E+01</totfact>
</mgrwt>
<rwgt>
<wgt id='morphing_basis_vector_1'> +1.4498392e-04 </wgt>
<wgt id='morphing_basis_vector_2'> +9.6884054e-05 </wgt>
<wgt id='morphing_basis_vector_3'> +1.5496260e-04 </wgt>
<wgt id='morphing_basis_vector_4'> +1.0784112e-04 </wgt>
<wgt id='morphing_basis_vector_5'> +1.7223504e-04 </wgt>
</rwgt>
</event>
<event>
 4      1 +6.0853000e-08 2.17207100e+03 7.81860800e-03 8.00441000e-02
        2 -1    0    0  501    0 +0.0000000000e+00 +0.0000000000e+00 +9.2516906829e+02 9.2516906829e+02 0.0000000000e+00 0.0000e+00 -1.0000e+00
       -2 -1    0    0    0  501 -0.0000000000e+00 -0.0000000000e+00 -1.2748729709e+03 1.2748729709e+03 0.0000000000e+00 0.0000e+00 1.0000e+00
      -13  1    1    2    0    0 -8.3094674358e+02 -4.5889858140e+02 -7.0929502016e+02 1.1849724994e+03 0.0000000000e+00 0.0000e+00 1.0000e+00
       13  1    1    2    0    0 +8.3094674358e+02 +4.5889858140e+02 +3.5959111760e+02 1.0150695398e+03 0.0000000000e+00 0.0000e+00 -1.0000e+00
<mgrwt>
<rscale>  0 0.21720709E+04</rscale>
<asrwt>0</asrwt>
<pdfrwt beam="1">  1        2 0.14233370E+00 0.21720709E+04</pdfrwt>
<pdfrwt beam="2">  1       -2 0.19613430E+00 0.21720709E+04</pdfrwt>
<totfact> 0.40463746E+00</totfact>
</mgrwt>
<rwgt>
<wgt id='morphing_basis_vector_1'> +1.8952099e-04 </wgt>
<wgt id='morphing_basis_vector_2'> +1.2863162e-04 </wgt>
<wgt id='morphing_basis_vector_3'> +2.0378001e-04 </wgt>
<wgt id='morphing_basis_vector_4'> +1.4037802e-04 </wgt>
<wgt id='morphing_basis_vector_5'> +2.2640643e-04 </wgt>
</rwgt>
</event>
<event>
 4      1 +6.0853000e-08 2.00303600e+03 7.81860800e-03 8.07031300e-02
        2 -1    0    0  501    0 +0.0000000000e+00 +0.0000000000e+00 +3.0489778577e+03 3.0489778577e+03 0.0000000000e+00 0.0000e+00 -1.0000e+00
       -2 -1    0    0    0  501 -0.0000000000e+00 -0.0000000000e+00 -3.2897534700e+02 3.2897534700e+02 0.0000000000e+00 0.0000e+00 1.0000e+00
      -13  1    1    2    0    0 +2.3539063608e+01 -8.1214537563e+02 +3.7246893457e+02 8.9379377146e+02 0.0000000000e+00 0.0000e+00 1.0000e+00
       13  1    1    2    0    0 -2.3539063608e+01 +8.1214537563e+02 +2.3475335762e+03 2.4841594333e+03 0.0000000000e+00 0.0000e+00 -1.0000e+00
<mgrwt>
<rscale>  0 0.20030362E+04</rscale>
<asrwt>0</asrwt>
<pdfrwt beam="1">  1        2 0.46907350E+00 0.20030362E+04</pdfrwt>
<pdfrwt beam="2">  1       -2 0.50611594E-01 0.20030362E+04</pdfrwt>
<totfact> 0.67256823E+00</totfact>
</mgrwt>
<rwgt>
<wgt id='morphing_basis_vector_1'> +1.3761199e-04 </wgt>
<wgt id='morphing_basis_vector_2'> +9.2444165e-05 </wgt>
<wgt id='morphing_basis_vector_3'> +1.4702800e-04 </wgt>
<wgt id='morphing_basis_vector_4'> +1.0148974e-04 </wgt>
<wgt id='morphing_basis_vector_5'> +1.6280245e-04 </wgt>
</rwgt>
</event>
<event>
 4      1 +6.0853000e-08 1.87463100e+03 7.81860800e-03 8.12506700e-02
        2 -1    0    0  501    0 +0.0000000000e+00 +0.0000000000e+00 +3.7637933826e+03 3.7637933826e+03 0.0000000000e+00 0.0000e+00 -1.0000e+00
       -2 -1    0    0    0  501 -0.0000000000e+00 -0.0000000000e+00 -2.3342416631e+02 2.3342416631e+02 0.0000000000e+00 0.0000e+00 1.0000e+00
      -13  1    1    2    0    0 -4.5740354521e+02 +8.1574647437e+02 +1.8983450870e+03 2.1162169981e+03 0.0000000000e+00 0.0000e+00 1.0000e+00
       13  1    1    2    0    0 +4.5740354521e+02 -8.1574647437e+02 +1.6320241293e+03 1.8810005508e+03 0.0000000000e+00 0.0000e+00 -1.0000e+00
<mgrwt>
<rscale>  0 0.18746310E+04</rscale>
<asrwt>0</asrwt>
<pdfrwt beam="1">  1        2 0.57904509E+00 0.18746310E+04</pdfrwt>
<pdfrwt beam="2">  1       -2 0.35911413E-01 0.18746310E+04</pdfrwt>
<totfact> 0.40356108E+00</totfact>
</mgrwt>
<rwgt>
<wgt id='morphing_basis_vector_1'> +1.1078914e-04 </wgt>
<wgt id='morphing_basis_vector_2'> +8.4764812e-05 </wgt>
<wgt id='morphing_basis_vector_3'> +1.1943853e-04 </wgt>
<wgt id='morphing_basis_vector_4'> +6.8366089e-05 </wgt>
<wgt id='morphing_basis_vector_5'> +1.2348393e-04 </wgt>
</rwgt>
</event>
<event>
 4      1 +6.0853000e-08 1.92904200e+03 7.81860800e-03 8.10132400e-02
        2 -1    0    0  501    0 +0.0000000000e+00 +0.0000000000e+00 +1.6001038416e+03 1.6001038416e+03 0.0000000000e+00 0.0000e+00 -1.0000e+00
       -2 -1    0    0    0  501 -0.0000000000e+00 -0.0000000000e+00 -5.8139997374e+02 5.8139997374e+02 0.0000000000e+00 0.0000e+00 1.0000e+00
      -13  1    1    2    0    0 +2.4736037585e+02 -1.9066652605e+02 -5.2263495244e+02 6.0884166514e+02 0.0000000000e+00 0.0000e+00 1.0000e+00
       13  1    1    2    0    0 -2.4736037585e+02 +1.9066652605e+02 +1.5413388203e+03 1.5726621502e+03 0.0000000000e+00 0.0000e+00 -1.0000e+00
<mgrwt>
<rscale>  0 0.19290416E+04</rscale>
<asrwt>0</asrwt>
<pdfrwt beam="1">  1        2 0.24616982E+00 0.19290416E+04</pdfrwt>
<pdfrwt beam="2">  1       -2 0.89446150E-01 0.19290416E+04</pdfrwt>
<totfact> 0.14321223E+01</totfact>
</mgrwt>
<rwgt>
<wgt id='morphing_basis_vector_1'> +1.1842618e-04 </wgt>
<wgt id='morphing_basis_vector_2'> +7.8671077e-05 </wgt>
<wgt id='morphing_basis_vector_3'> +1.2604084e-04 </wgt>
<wgt id='morphing_basis_vector_4'> +8.7679494e-05 </wgt>
<wgt id='morphing_basis_vector_5'> +1.3965722e-04 </wgt>
</rwgt>
</event>
<event>
 4      1 +6.0853000e-08 2.12815100e+03 7.81860800e-03 8.02092000e-02
        2 -1    0    0  501    0 +0.0000000000e+00 +0.0000000000e+00 +1.0573231671e+03 1.0573231671e+03 0.0000000000e+00 0.0000e+00 -1.0000e+00
       -2 -1    0    0    0  501 -0.0000000000e+00 -0.0000000000e+00 -1.0708714089e+03 1.0708714089e+03 0.0000000000e+00 0.0000e+00 1.0000e+00
      -13  1    1    2    0    0 -9.2695862744e+02 -5.2089016237e+02 +3.4193663253e+01 1.0638364841e+03 0.0000000000e+00 0.0000e+00 1.0000e+00
       13  1    1    2    0    0 +9.2695862744e+02 +5.2089016237e+02 -4.7741905006e+01 1.0643580919e+03 0.0000000000e+00 0.0000e+00 -1.0000e+00
<mgrwt>
<rscale>  0 0.21281515E+04</rscale>
<asrwt>0</asrwt>
<pdfrwt beam="1">  1        2 0.16266510E+00 0.21281515E+04</pdfrwt>
<pdfrwt beam="2">  1       -2 0.16474945E+00 0.21281515E+04</pdfrwt>
<totfact> 0.58177675E+00</totfact>
</mgrwt>
<rwgt>
<wgt id='morphing_basis_vector_1'> +1.8137735e-04 </wgt>
<wgt id='morphing_basis_vector_2'> +1.3776583e-04 </wgt>
<wgt id='morphing_basis_vector_3'> +1.9738379e-04 </wgt>
<wgt id='morphing_basis_vector_4'> +1.1617691e-04 </wgt>
<wgt id='morphing_basis_vector_5'> +2.0731092e-04 </wgt>
</rwgt>
</event>
<event>
 4      1 +6.0853000e-08 1.99123100e+03 7.81860800e-03 8.07516600e-02
        2 -1    0    0  501    0 +0.0000000000e+00 +0.0000000000e+00 +1.6439035528e+03 1.6439035528e+03 0.0000000000e+00 0.0000e+00 -1.0000e+00
       -2 -1    0    0    0  501 -0.0000000000e+00 -0.0000000000e+00 -6.0298549800e+02 6.0298549800e+02 0.0000000000e+00 0.0000e+00 1.0000e+00
      -13  1    1    2    0    0 -1.9128440217e+02 +6.6393912571e+02 -2.8840616799e+02 7.4872091122e+02 0.0000000000e+00 0.0000e+00 1.0000e+00
       13  1    1    2    0    0 +1.9128440217e+02 -6.6393912571e+02 +1.3293242228e+03 1.4981681396e+03 0.0000000000e+00 0.0000e+00 -1.0000e+00
<mgrwt>
<rscale>  0 0.19912308E+04</rscale>
<asrwt>0</asrwt>
<pdfrwt beam="1">  1        2 0.25290824E+00 0.19912308E+04</pdfrwt>
<pdfrwt beam="2">  1       -2 0.92767000E-01 0.19912308E+04</pdfrwt>
<totfact> 0.12365108E+01</totfact>
</mgrwt>
<rwgt>
<wgt id='morphing_basis_vector_1'> +1.3423357e-04 </wgt>
<wgt id='morphing_basis_vector_2'> +8.9630016e-05 </wgt>
<wgt id='morphing_basis_vector_3'> +1.4326731e-04 </wgt>
<wgt id='morphing_basis_vector_4'> +9.9524019e-05 </wgt>
<wgt id='morphing_basis_vector_5'> +1.5895783e-04 </wgt>
</rwgt>
</event>
<event>
 4      1 +6.0853000e-08 1.86620100e+03 7.81860800e-03 8.12882100e-02
        2 -1    0    0  501    0 +0.0000000000e+00 +0.0000000000e+00 +9.2362984711e+02 9.2362984711e+02 0.0000000000e+00 0.0000e+00 1.0000e+00
       -2 -1    0    0    0  501 -0.0000000000e+00 -0.0000000000e+00 -9.4266867662e+02 9.4266867662e+02 0.0000000000e+00 0.0000e+00 -1.0000e+00
      -13  1    1    2    0    0 -5.0889046832e+02 -3.8964984859e+02 -6.8769953562e+02 9.4006763829e+02 0.0000000000e+00 0.0000e+00 -1.0000e+00
       13  1    1    2    0    0 +5.0889046832e+02 +3.8964984859e+02 +6.6866070611e+02 9.2623088544e+02 0.0000000000e+00 0.0000e+00 1.0000e+00
<mgrwt>
<rscale>  0 0.18662014E+04</rscale>
<asrwt>0</asrwt>
<pdfrwt beam="1">  1        2 0.14209690E+00 0.18662014E+04</pdfrwt>
<pdfrwt beam="2">  1       -2 0.14502595E+00 0.18662014E+04</pdfrwt>
<totfact> 0.10445784E+01</totfact>
</mgrwt>
<rwgt>
<wgt id='morphing_basis_vector_1'> +1.0414291e-04 </wgt>
<wgt id='morphing_basis_vector_2'> +6.9299550e-05 </wgt>
<wgt id='morphing_basis_vector_3'> +1.1057698e-04 </wgt>
<wgt id='morphing_basis_vector_4'> +7.6379939e-05 </wgt>
<wgt id='morphing_basis_vector_5'> +1.2195049e-04 </wgt>
</rwgt>
</event>
<event>
 4      1 +6.0853000e-08 2.09634500e+03 7.81860800e-03 8.03313700e-02
        2 -1    0    0  501    0 +0.0000000000e+00 +0.0000000000e+00 +1.2232033945e+03 1.2232033945e+03 0.0000000000e+00 0.0000e+00 1.0000e+00
       -2 -1    0    0    0  501 -0.0000000000e+00 -0.0000000000e+00 -8.9818676654e+02 8.9818676654e+02 0.0000000000e+00 0.0000e+00 -1.0000e+00
      -13  1    1    2    0    0 +7.8295243993e+02 -6.5543285775e+02 +4.0210347114e+02 1.0974032785e+03 0.0000000000e+00 0.0000e+00 -1.0000e+00
       13  1    1    2    0    0 -7.8295243993e+02 +6.5543285775e+02 -7.7086843165e+01 1.0239868825e+03 0.0000000000e+00 0.0000e+00 1.0000e+00
<mgrwt>
<rscale>  0 0.20963445E+04</rscale>
<asrwt>0</asrwt>
<pdfrwt beam="1">  1        2 0.18818514E+00 0.20963445E+04</pdfrwt>
<pdfrwt beam="2">  1       -2 0.13818258E+00 0.20963445E+04</pdfrwt>
<totfact> 0.76992636E+00</totfact>
</mgrwt>
<rwgt>
<wgt id='morphing_basis_vector_1'> +1.7717240e-04 </wgt>
<wgt id='morphing_basis_vector_2'> +1.4816380e-04 </wgt>
<wgt id='morphing_basis_vector_3'> +1.9498625e-04 </wgt>
<wgt id='morphing_basis_vector_4'> +9.6822327e-05 </wgt>
<wgt id='morphing_basis_vector_5'> +1.9399358e-04 </wgt>
</rwgt>
</event>
<event>
 4      1 +6.0853000e-08 1.87566600e+03 7.81860800e-03 8.12460800e-02
        2 -1    0    0  501    0 +0.0000000000e+00 +0.0000000000e+00 +5.3202145265e+02 5.3202145265e+02 0.0000000000e+00 0.0000e+00 -1.0000e+00
       -2 -1    0    0    0  501 -0.0000000000e+00 -0.0000000000e+00 -1.6531870573e+03 1.6531870573e+03 0.0000000000e+00 0.0000e+00 1.0000e+00
      -13  1    1    2    0    0 -5.0722328434e+02 -5.2943457318e+02 -1.2418563267e+03 1.4421454724e+03 0.0000000000e+00 0.0000e+00 1.0000e+00
       13  1    1    2    0    0 +5.0722328434e+02 +5.2943457318e+02 +1.2069072198e+02 7.4306303759e+02 0.0000000000e+00 0.0000e+00 -1.0000e+00
<mgrwt>
<rscale>  0 0.18756663E+04</rscale>
<asrwt>0</asrwt>
<pdfrwt beam="1">  1        2 0.81849455E-01 0.18756663E+04</pdfrwt>
<pdfrwt beam="2">  1       -2 0.25433647E+00 0.18756663E+04</pdfrwt>
<totfact> 0.31871897E+00</totfact>
</mgrwt>
<rwgt>
<wgt id='morphing_basis_vector_1'> +1.0634482e-04 </wgt>
<wgt id='morphing_basis_vector_2'> +7.1065241e-05 </wgt>
<wgt id='morphing_basis_vector_3'> +1.1300802e-04 </wgt>
<wgt id='morphing_basis_vector_4'> +7.7735386e-05 </wgt>
<wgt id='morphing_basis_vector_5'> +1.2448272e-04 </wgt>
</rwgt>
</event>
<event>
 4      1 +6.0853000e-08 1.90391700e+03 7.81860800e-03 8.11218500e-02
        2 -1    0    0  501    0 +0.0000000000e+00 +0.0000000000e+00 +1.6185310641e+03 1.6185310641e+03 0.0000000000e+00 0.0000e+00 -1.0000e+00
       -2 -1    0    0    0  501 -0.0000000000e+00 -0.0000000000e+00 -5.5990566109e+02 5.5990566109e+02 0.0000000000e+00 0.0000e+00 1.0000e+00
      -13  1    1    2    0    0 -9.4186732994e+02 +1.2733674814e+02 +4.6773895297e+02 1.0592962016e+03 0.0000000000e+00 0.0000e+00 1.0000e+00
       13  1    1    2    0    0 +9.4186732994e+02 -1.2733674814e+02 +5.9088645002e+02 1.1191405235e+03 0.0000000000e+00 0.0000e+00 -1.0000e+00
<mgrwt>
<rscale>  0 0.19039167E+04</rscale>
<asrwt>0</asrwt>
<pdfrwt beam="1">  1        2 0.24900478E+00 0.19039167E+04</pdfrwt>
<pdfrwt beam="2">  1       -2 0.86139334E-01 0.19039167E+04</pdfrwt>
<totfact> 0.15299983E+01</totfact>
</mgrwt>
<rwgt>
<wgt id='morphing_basis_vector_1'> +1.1584676e-04 </wgt>
<wgt id='morphing_basis_vector_2'> +8.4590790e-05 </wgt>
<wgt id='morphing_basis_vector_3'> +1.2441129e-04 </wgt>
<wgt id='morphing_basis_vector_4'> +7.6515246e-05 </wgt>
<wgt id='morphing_basis_vector_5'> +1.3185339e-04 </wgt>
</rwgt>
</event>
<event>
 4      1 +6.0853000e-08 1.93607400e+03 7.81860800e-03 8.09831500e-02
        2 -1    0    0  501    0 +0.0000000000e+00 +0.0000000000e+00 +1.1485793032e+03 1.1485793032e+03 0.0000000000e+00 0.0000e+00 -1.0000e+00
       -2 -1    0    0    0  501 -0.0000000000e+00 -0.0000000000e+00 -8.1587404999e+02 8.1587404999e+02 0.0000000000e+00 0.0000e+00 1.0000e+00
      -13  1    1    2    0    0 +7.6179583045e+02 +3.4885669552e+02 -3.2558613021e+02 8.9891056812e+02 0.0000000000e+00 0.0000e+00 1.0000e+00
       13  1    1    2    0    0 -7.6179583045e+02 -3.4885669552e+02 +6.5829138342e+02 1.0655427851e+03 0.0000000000e+00 0.0000e+00 -1.0000e+00
<mgrwt>
<rscale>  0 0.19360744E+04</rscale>
<asrwt>0</asrwt>
<pdfrwt beam="1">  1        2 0.17670451E+00 0.19360744E+04</pdfrwt>
<pdfrwt beam="2">  1       -2 0.12551908E+00 0.19360744E+04</pdfrwt>
<totfact> 0.11187648E+01</totfact>
</mgrwt>
<rwgt>
<wgt id='morphing_basis_vector_1'> +1.2065357e-04 </wgt>
<wgt id='morphing_basis_vector_2'> +8.1380280e-05 </wgt>
<wgt id='morphing_basis_vector_3'> +1.2864828e-04 </wgt>
<wgt id='morphing_basis_vector_4'> +8.7946064e-05 </wgt>
<wgt id='morphing_basis_vector_5'> +1.4166750e-04 </wgt>
</rwgt>
</event>
<event>
 4      1 +6.0853000e-08 1.95447500e+03 7.81860800e-03 8.09050400e-02
        2 -1    0    0  501    0 +0.0000000000e+00 +0.0000000000e+00 +6.5976579088e+02 6.5976579088e+02 0.0000000000e+00 0.0000e+00 1.0000e+00
       -2 -1    0    0    0  501 -0.0000000000e+00 -0.0000000000e+00 -1.4474731580e+03 1.4474731580e+03 0.0000000000e+00 0.0000e+00 -1.0000e+00
      -13  1    1    2    0    0 +8.3109080308e+02 -5.1267629520e+02 -3.5287836913e+02 1.0383024848e+03 0.0000000000e+00 0.0000e+00 -1.0000e+00
       13  1    1    2    0    0 -8.3109080308e+02 +5.1267629520e+02 -4.3482899795e+02 1.0689364640e+03 0.0000000000e+00 0.0000e+00 1.0000e+00
<mgrwt>
<rscale>  0 0.19544751E+04</rscale>
<asrwt>0</asrwt>
<pdfrwt beam="1">  1        2 0.10150243E+00 0.19544751E+04</pdfrwt>
<pdfrwt beam="2">  1       -2 0.22268818E+00 0.19544751E+04</pdfrwt>
<totfact> 0.40875156E+00</totfact>
</mgrwt>
<rwgt>
<wgt id='morphing_basis_vector_1'> +1.2988944e-04 </wgt>
<wgt id='morphing_basis_vector_2'> +9.8363768e-05 </wgt>
<wgt id='morphing_basis_vector_3'> +1.4037809e-04 </wgt>
<wgt id='morphing_basis_vector_4'> +8.2124241e-05 </wgt>
<wgt id='morphing_basis_vector_5'> +1.4651916e-04 </wgt>
</rwgt>
</event>
<event>
 4      1 +6.0853000e-08 2.15652900e+03 7.81860800e-03 8.01020600e-02
        2 -1    0    0  501    0 +0.0000000000e+00 +0.0000000000e+00 +2.1607749757e+03 2.1607749757e+03 0.0000000000e+00 0.0000e+00 -1.0000e+00
       -2 -1    0    0    0  501 -0.0000000000e+00 -0.0000000000e+00 -5.3807290900e+02 5.3807290900e+02 0.0000000000e+00 0.0000e+00 1.0000e+00
      -13  1    1    2    0    0 +5.9528345062e+02 -4.5143169542e+01 -3.1237144449e+02 6.7377756839e+02 0.0000000000e+00 0.0000e+00 1.0000e+00
       13  1    1    2    0    0 -5.9528345062e+02 +4.5143169542e+01 +1.9350735112e+03 2.0250703163e+03 0.0000000000e+00 0.0000e+00 -1.0000e+00
<mgrwt>
<rscale>  0 0.21565291E+04</rscale>
<asrwt>0</asrwt>
<pdfrwt beam="1">  1        2 0.33242691E+00 0.21565291E+04</pdfrwt>
<pdfrwt beam="2">  1       -2 0.82780449E-01 0.21565291E+04</pdfrwt>
<totfact> 0.81474995E+00</totfact>
</mgrwt>
<rwgt>
<wgt id='morphing_basis_vector_1'> +1.8342765e-04 </wgt>
<wgt id='morphing_basis_vector_2'> +1.2259601e-04 </wgt>
<wgt id='morphing_basis_vector_3'> +1.9680268e-04 </wgt>
<wgt id='morphing_basis_vector_4'> +1.3798541e-04 </wgt>
<wgt id='morphing_basis_vector_5'> +2.2001869e-04 </wgt>
</rwgt>
</event>
<event>
 4      1 +6.0853000e-08 1.89049900e+03 7.81860800e-03 8.11805700e-02
        2 -1    0    0  501    0 +0.0000000000e+00 +0.0000000000e+00 +2.7739877774e+03 2.7739877774e+03 0.0000000000e+00 0.0000e+00 -1.0000e+00
       -2 -1    0    0    0  501 -0.0000000000e+00 -0.0000000000e+00 -3.2209829289e+02 3.2209829289e+02 0.0000000000e+00 0.0000e+00 1.0000e+00
      -13  1    1    2    0    0 +1.4374446858e+02 -5.9070205669e+02 +4.0550107168e+01 6.0929114815e+02 0.0000000000e+00 0.0000e+00 1.0000e+00
       13  1    1    2    0    0 -1.4374446858e+02 +5.9070205669e+02 +2.4113393773e+03 2.4867949221e+03 0.0000000000e+00 0.0000e+00 -1.0000e+00
<mgrwt>
<rscale>  0 0.18904991E+04</rscale>
<asrwt>0</asrwt>
<pdfrwt beam="1">  1        2 0.42676733E+00 0.18904991E+04</pdfrwt>
<pdfrwt beam="2">  1       -2 0.49553585E-01 0.18904991E+04</pdfrwt>
<totfact> 0.10611203E+01</totfact>
</mgrwt>
<rwgt>
<wgt id='morphing_basis_vector_1'> +1.0951113e-04 </wgt>
<wgt id='morphing_basis_vector_2'> +7.2845494e-05 </wgt>
<wgt id='morphing_basis_vector_3'> +1.1639048e-04 </wgt>
<wgt id='morphing_basis_vector_4'> +8.0592892e-05 </wgt>
<wgt id='morphing_basis_vector_5'> +1.2858413e-04 </wgt>
</rwgt>
</event>
<event>
 4      1 +6.0853000e-08 2.11975300e+03 7.81860800e-03 8.02412400e-02
        2 -1    0    0  501    0 +0.0000000000e+00 +0.0000000000e+00 +2.1584711696e+03 2.1584711696e+03 0.0000000000e+00 0.0000e+00 -1.0000e+00
       -2 -1    0    0    0  501 -0.0000000000e+00 -0.0000000000e+00 -5.2043244064e+02 5.2043244064e+02 0.0000000000e+00 0.0000e+00 1.0000e+00
      -13  1    1    2    0    0 +4.5393971824e+02 -2.4069399415e+02 -3.5251544473e+02 6.2310673676e+02 0.0000000000e+00 0.0000e+00 1.0000e+00
       13  1    1    2    0    0 -4.5393971824e+02 +2.4069399415e+02 +1.9905541737e+03 2.0557968735e+03 0.0000000000e+00 0.0000e+00 -1.0000e+00
<mgrwt>
<rscale>  0 0.21197532E+04</rscale>
<asrwt>0</asrwt>
<pdfrwt beam="1">  1        2 0.33207248E+00 0.21197532E+04</pdfrwt>
<pdfrwt beam="2">  1       -2 0.80066531E-01 0.21197532E+04</pdfrwt>
<totfact> 0.88449961E+00</totfact>
</mgrwt>
<rwgt>
<wgt id='morphing_basis_vector_1'> +1.7141396e-04 </wgt>
<wgt id='morphing_basis_vector_2'> +1.1442384e-04 </wgt>
<wgt id='morphing_basis_vector_3'> +1.8369634e-04 </wgt>
<wgt id='morphing_basis_vector_4'> +1.2871393e-04 </wgt>
<wgt id='morphing_basis_vector_5'> +2.0514588e-04 </wgt>
</rwgt>
</event>
<event>
 4      1 +6.0853000e-08 2.00267800e+03 7.81860800e-03 8.07046000e-02
        2 -1    0    0  501    0 +0.0000000000e+00 +0.0000000000e+00 +1.8394230544e+03 1.8394230544e+03 0.0000000000e+00 0.0000e+00 -1.0000e+00
       -2 -1    0    0    0  501 -0.0000000000e+00 -0.0000000000e+00 -5.4510562123e+02 5.4510562123e+02 0.0000000000e+00 0.0000e+00 1.0000e+00
      -13  1    1    2    0    0 +3.7583205033e+02 +6.2822425863e+02 -1.6630890662e+02 7.5071572623e+02 0.0000000000e+00 0.0000e+00 1.0000e+00
       13  1    1    2    0    0 -3.7583205033e+02 -6.2822425863e+02 +1.4606263397e+03 1.6338129494e+03 0.0000000000e+00 0.0000e+00 -1.0000e+00
<mgrwt>
<rscale>  0 0.20026781E+04</rscale>
<asrwt>0</asrwt>
<pdfrwt beam="1">  1        2 0.28298816E+00 0.20026781E+04</pdfrwt>
<pdfrwt beam="2">  1       -2 0.83862404E-01 0.20026781E+04</pdfrwt>
<totfact> 0.12157555E+01</totfact>
</mgrwt>
<rwgt>
<wgt id='morphing_basis_vector_1'> +1.3733392e-04 </wgt>
<wgt id='morphing_basis_vector_2'> +9.1840827e-05 </wgt>
<wgt id='morphing_basis_vector_3'> +1.4665849e-04 </wgt>
<wgt id='morphing_basis_vector_4'> +1.0177726e-04 </wgt>
<wgt id='morphing_basis_vector_5'> +1.6271222e-04 </wgt>
</rwgt>
</event>
<event>
 4      1 +6.0853000e-08 2.07772700e+03 7.81860800e-03 8.04039200e-02
        2 -1    0    0  501    0 +0.0000000000e+00 +0.0000000000e+00 +1.3250151240e+03 1.3250151240e+03 0.0000000000e+00 0.0000e+00 1.0000e+00
       -2 -1    0    0    0  501 -0.0000000000e+00 -0.0000000000e+00 -8.1450973172e+02 8.1450973172e+02 0.0000000000e+00 0.0000e+00 -1.0000e+00
      -13  1    1    2    0    0 -8.2607875190e+02 +5.1309809354e+02 -1.2107845428e+02 9.7996721885e+02 0.0000000000e+00 0.0000e+00 -1.0000e+00
       13  1    1    2    0    0 +8.2607875190e+02 -5.1309809354e+02 +6.3158384653e+02 1.1595576368e+03 0.0000000000e+00 0.0000e+00 1.0000e+00
<mgrwt>
<rscale>  0 0.20777273E+04</rscale>
<asrwt>0</asrwt>
<pdfrwt beam="1">  1        2 0.20384848E+00 0.20777273E+04</pdfrwt>
<pdfrwt beam="2">  1       -2 0.12530919E+00 0.20777273E+04</pdfrwt>
<totfact> 0.87693214E+00</totfact>
</mgrwt>
<rwgt>
<wgt id='morphing_basis_vector_1'> +1.5986621e-04 </wgt>
<wgt id='morphing_basis_vector_2'> +1.0986452e-04 </wgt>
<wgt id='morphing_basis_vector_3'> +1.7165530e-04 </wgt>
<wgt id='morphing_basis_vector_4'> +1.1580752e-04 </wgt>
<wgt id='morphing_basis_vector_5'> +1.8885302e-04 </wgt>
</rwgt>
</event>
<event>
 4      1 +6.0853000e-08 1.97329400e+03 7.81860800e-03 8.08260800e-02
        2 -1    0    0  501    0 +0.0000000000e+00 +0.0000000000e+00 +1.0220228833e+03 1.0220228833e+03 0.0000000000e+00 0.0000e+00 -1.0000e+00
       -2 -1    0    0    0  501 -0.0000000000e+00 -0.0000000000e+00 -9.5249516340e+02 9.5249516340e+02 0.0000000000e+00 0.0000e+00 1.0000e+00
      -13  1    1    2    0    0 -6.8935610356e+02 +3.1350929294e+02 -5.9806193596e+02 9.6497564400e+02 0.0000000000e+00 0.0000e+00 1.0000e+00
       13  1    1    2    0    0 +6.8935610356e+02 -3.1350929294e+02 +6.6758965589e+02 1.0095424027e+03 0.0000000000e+00 0.0000e+00 -1.0000e+00
<mgrwt>
<rscale>  0 0.19732935E+04</rscale>
<asrwt>0</asrwt>
<pdfrwt beam="1">  1        2 0.15723429E+00 0.19732935E+04</pdfrwt>
<pdfrwt beam="2">  1       -2 0.14653772E+00 0.19732935E+04</pdfrwt>
<totfact> 0.87140174E+00</totfact>
</mgrwt>
<rwgt>
<wgt id='morphing_basis_vector_1'> +1.2966933e-04 </wgt>
<wgt id='morphing_basis_vector_2'> +8.6800521e-05 </wgt>
<wgt id='morphing_basis_vector_3'> +1.3834416e-04 </wgt>
<wgt id='morphing_basis_vector_4'> +9.5696386e-05 </wgt>
<wgt id='morphing_basis_vector_5'> +1.5317589e-04 </wgt>
</rwgt>
</event>
<event>
 4      1 +6.0853000e-08 2.00176500e+03 7.81860800e-03 8.07083400e-02
        2 -1    0    0  501    0 +0.0000000000e+00 +0.0000000000e+00 +1.2631810867e+03 1.2631810867e+03 0.0000000000e+00 0.0000e+00 -1.0000e+00
       -2 -1    0    0    0  501 -0.0000000000e+00 -0.0000000000e+00 -7.9305013985e+02 7.9305013985e+02 0.0000000000e+00 0.0000e+00 1.0000e+00
      -13  1    1    2    0    0 -5.6154850962e+02 -2.9854985789e+02 -5.5881306323e+02 8.4660544881e+02 0.0000000000e+00 0.0000e+00 1.0000e+00
       13  1    1    2    0    0 +5.6154850962e+02 +2.9854985789e+02 +1.0289440101e+03 1.2096257778e+03 0.0000000000e+00 0.0000e+00 -1.0000e+00
<mgrwt>
<rscale>  0 0.20017652E+04</rscale>
<asrwt>0</asrwt>
<pdfrwt beam="1">  1        2 0.19433555E+00 0.20017652E+04</pdfrwt>
<pdfrwt beam="2">  1       -2 0.12200771E+00 0.20017652E+04</pdfrwt>
<totfact> 0.10273633E+01</totfact>
</mgrwt>
<rwgt>
<wgt id='morphing_basis_vector_1'> +1.3698301e-04 </wgt>
<wgt id='morphing_basis_vector_2'> +9.1361936e-05 </wgt>
<wgt id='morphing_basis_vector_3'> +1.4623777e-04 </wgt>
<wgt id='morphing_basis_vector_4'> +1.0179857e-04 </wgt>
<wgt id='morphing_basis_vector_5'> +1.6242639e-04 </wgt>
</rwgt>
</event>
<event>
 4      1 +6.0853000e-08 1.89707600e+03 7.81860800e-03 8.11517200e-02
        2 -1    0    0  501    0 +0.0000000000e+00 +0.0000000000e+00 +2.3878866868e+03 2.3878866868e+03 0.0000000000e+00 0.0000e+00 -1.0000e+00
       -2 -1    0    0    0  501 -0.0000000000e+00 -0.0000000000e+00 -3.7678678168e+02 3.7678678168e+02 0.0000000000e+00 0.0000e+00 1.0000e+00
      -13  1    1    2    0    0 +7.8639222110e+02 -9.3702034295e+01 +2.4475540585e+02 8.2891375024e+02 0.0000000000e+00 0.0000e+00 1.0000e+00
       13  1    1    2    0    0 -7.8639222110e+02 +9.3702034295e+01 +1.7663444992e+03 1.9357597182e+03 0.0000000000e+00 0.0000e+00 -1.0000e+00
<mgrwt>
<rscale>  0 0.18970758E+04</rscale>
<asrwt>0</asrwt>
<pdfrwt beam="1">  1        2 0.36736717E+00 0.18970758E+04</pdfrwt>
<pdfrwt beam="2">  1       -2 0.57967199E-01 0.18970758E+04</pdfrwt>
<totfact> 0.13250645E+01</totfact>
</mgrwt>
<rwgt>
<wgt id='morphing_basis_vector_1'> +1.1130411e-04 </wgt>
<wgt id='morphing_basis_vector_2'> +7.4731295e-05 </wgt>
<wgt id='morphing_basis_vector_3'> +1.1843966e-04 </wgt>
<wgt id='morphing_basis_vector_4'> +8.1161733e-05 </wgt>
<wgt id='morphing_basis_vector_5'> +1.3037795e-04 </wgt>
</rwgt>
</event>
<event>
 4      1 +6.0853000e-08 1.98249900e+03 7.81860800e-03 8.07877900e-02
        2 -1    0    0  501    0 +0.0000000000e+00 +0.0000000000e+00 +9.1121858402e+02 9.1121858402e+02 0.0000000000e+00 0.0000e+00 -1.0000e+00
       -2 -1    0    0    0  501 -0.0000000000e+00 -0.0000000000e+00 -1.0783092435e+03 1.0783092435e+03 0.0000000000e+00 0.0000e+00 1.0000e+00
      -13  1    1    2    0    0 +7.7994113517e+02 +2.6931193173e+01 -6.9689307032e+02 1.0462759746e+03 0.0000000000e+00 0.0000e+00 1.0000e+00
       13  1    1    2    0    0 -7.7994113517e+02 -2.6931193173e+01 +5.2980241087e+02 9.4325185293e+02 0.0000000000e+00 0.0000e+00 -1.0000e+00
<mgrwt>
<rscale>  0 0.19824988E+04</rscale>
<asrwt>0</asrwt>
<pdfrwt beam="1">  1        2 0.14018747E+00 0.19824988E+04</pdfrwt>
<pdfrwt beam="2">  1       -2 0.16589373E+00 0.19824988E+04</pdfrwt>
<totfact> 0.71270862E+00</totfact>
</mgrwt>
<rwgt>
<wgt id='morphing_basis_vector_1'> +1.3209956e-04 </wgt>
<wgt id='morphing_basis_vector_2'> +8.8548471e-05 </wgt>
<wgt id='morphing_basis_vector_3'> +1.4100391e-04 </wgt>
<wgt id='morphing_basis_vector_4'> +9.7442566e-05 </wgt>
<wgt id='morphing_basis_vector_5'> +1.5610712e-04 </wgt>
</rwgt>
</event>
<event>
 4      1 +6.0853000e-08 2.20590800e+03 7.81860800e-03 7.99196300e-02
        2 -1    0    0  501    0 +0.0000000000e+00 +0.0000000000e+00 +1.1367090431e+03 1.1367090431e+03 0.0000000000e+00 0.0000e+00 1.0000e+00
       -2 -1    0    0    0  501 -0.0000000000e+00 -0.0000000000e+00 -1.0702016451e+03 1.0702016451e+03 0.0000000000e+00 0.0000e+00 -1.0000e+00
      -13  1    1    2    0    0 +1.0094564618e+02 +7.2320368337e+02 -7.9373808629e+02 1.0785331431e+03 0.0000000000e+00 0.0000e+00 -1.0000e+00
       13  1    1    2    0    0 -1.0094564618e+02 -7.2320368337e+02 +8.6024548425e+02 1.1283775451e+03 0.0000000000e+00 0.0000e+00 1.0000e+00
<mgrwt>
<rscale>  0 0.22059083E+04</rscale>
<asrwt>0</asrwt>
<pdfrwt beam="1">  1        2 0.17487831E+00 0.22059083E+04</pdfrwt>
<pdfrwt beam="2">  1       -2 0.16464641E+00 0.22059083E+04</pdfrwt>
<totfact> 0.51872545E+00</totfact>
</mgrwt>
<rwgt>
<wgt id='morphing_basis_vector_1'> +2.0060301e-04 </wgt>
<wgt id='morphing_basis_vector_2'> +1.3442229e-04 </wgt>
<wgt id='morphing_basis_vector_3'> +2.1557701e-04 </wgt>
<wgt id='morphing_basis_vector_4'> +1.5108867e-04 </wgt>
<wgt id='morphing_basis_vector_5'> +2.4122585e-04 </wgt>
</rwgt>
</event>
<event>
 4      1 +6.0853000e-08 2.08937500e+03 7.81860800e-03 8.03584400e-02
        2 -1    0    0  501    0 +0.0000000000e+00 +0.0000000000e+00 +1.8406675959e+03 1.8406675959e+03 0.0000000000e+00 0.0000e+00 1.0000e+00
       -2 -1    0    0    0  501 -0.0000000000e+00 -0.0000000000e+00 -5.9292183827e+02 5.9292183827e+02 0.0000000000e+00 0.0000e+00 -1.0000e+00
      -13  1    1    2    0    0 -4.6259878060e+02 -1.6253286810e+01 +1.7147051884e+03 1.7760843686e+03 0.0000000000e+00 0.0000e+00 1.0000e+00
       13  1    1    2    0    0 +4.6259878060e+02 +1.6253286810e+01 -4.6695943084e+02 6.5750506553e+02 0.0000000000e+00 0.0000e+00 -1.0000e+00
<mgrwt>
<rscale>  0 0.20893750E+04</rscale>
<asrwt>0</asrwt>
<pdfrwt beam="1">  1        2 0.28317963E+00 0.20893750E+04</pdfrwt>
<pdfrwt beam="2">  1       -2 0.91218745E-01 0.20893750E+04</pdfrwt>
<totfact> 0.99105934E+00</totfact>
</mgrwt>
<rwgt>
<wgt id='morphing_basis_vector_1'> +2.2028384e-04 </wgt>
<wgt id='morphing_basis_vector_2'> +2.8057947e-04 </wgt>
<wgt id='morphing_basis_vector_3'> +2.5924723e-04 </wgt>
<wgt id='morphing_basis_vector_4'> +4.5384054e-06 </wgt>
<wgt id='morphing_basis_vector_5'> +1.8415614e-04 </wgt>
</rwgt>
</event>
<event>
 4      1 +6.0853000e-08 1.96488300e+03 7.81860800e-03 8.08612500e-02
        2 -1    0    0  501    0 +0.0000000000e+00 +0.0000000000e+00 +1.5954508957e+03 1.5954508957e+03 0.0000000000e+00 0.0000e+00 1.0000e+00
       -2 -1    0    0    0  501 -0.0000000000e+00 -0.0000000000e+00 -6.0496478384e+02 6.0496478384e+02 0.0000000000e+00 0.0000e+00 -1.0000e+00
      -13  1    1    2    0    0 +2.3710295306e+02 -8.4810680346e+02 +7.5027625641e+00 8.8065841952e+02 0.0000000000e+00 0.0000e+00 -1.0000e+00
       13  1    1    2    0    0 -2.3710295306e+02 +8.4810680346e+02 +9.8298334934e+02 1.3197572601e+03 0.0000000000e+00 0.0000e+00 1.0000e+00
<mgrwt>
<rscale>  0 0.19648833E+04</rscale>
<asrwt>0</asrwt>
<pdfrwt beam="1">  1        2 0.24545398E+00 0.19648833E+04</pdfrwt>
<pdfrwt beam="2">  1       -2 0.93071506E-01 0.19648833E+04</pdfrwt>
<totfact> 0.13086563E+01</totfact>
</mgrwt>
<rwgt>
<wgt id='morphing_basis_vector_1'> +1.2802806e-04 </wgt>
<wgt id='morphing_basis_vector_2'> +8.6853359e-05 </wgt>
<wgt id='morphing_basis_vector_3'> +1.3674330e-04 </wgt>
<wgt id='morphing_basis_vector_4'> +9.3031499e-05 </wgt>
<wgt id='morphing_basis_vector_5'> +1.5044807e-04 </wgt>
</rwgt>
</event>
<event>
 4      1 +6.0853000e-08 2.22742700e+03 7.81860800e-03 7.98416700e-02
        2 -1    0    0  501    0 +0.0000000000e+00 +0.0000000000e+00 +1.2879912456e+03 1.2879912456e+03 0.0000000000e+00 0.0000e+00 1.0000e+00
       -2 -1    0    0    0  501 -0.0000000000e+00 -0.0000000000e+00 -9.6301714393e+02 9.6301714393e+02 0.0000000000e+00 0.0000e+00 -1.0000e+00
      -13  1    1    2    0    0 +2.1850119829e+02 -4.0593807525e+02 -8.6206521846e+02 9.7759139494e+02 0.0000000000e+00 0.0000e+00 -1.0000e+00
       13  1    1    2    0    0 -2.1850119829e+02 +4.0593807525e+02 +1.1870393202e+03 1.2734169946e+03 0.0000000000e+00 0.0000e+00 1.0000e+00
<mgrwt>
<rscale>  0 0.22274269E+04</rscale>
<asrwt>0</asrwt>
<pdfrwt beam="1">  1        2 0.19815250E+00 0.22274269E+04</pdfrwt>
<pdfrwt beam="2">  1       -2 0.14815648E+00 0.22274269E+04</pdfrwt>
<totfact> 0.57494733E+00</totfact>
</mgrwt>
<rwgt>
<wgt id='morphing_basis_vector_1'> +2.0825768e-04 </wgt>
<wgt id='morphing_basis_vector_2'> +1.3925061e-04 </wgt>
<wgt id='morphing_basis_vector_3'> +2.2387061e-04 </wgt>
<wgt id='morphing_basis_vector_4'> +1.5748000e-04 </wgt>
<wgt id='morphing_basis_vector_5'> +2.5096133e-04 </wgt>
</rwgt>
</event>
<event>
 4      1 +6.0853000e-08 1.99594800e+03 7.81860800e-03 8.07322300e-02
        2 -1    0    0  501    0 +0.0000000000e+00 +0.0000000000e+00 +1.0400097260e+03 1.0400097260e+03 0.0000000000e+00 0.0000e+00 1.0000e+00
       -2 -1    0    0    0  501 -0.0000000000e+00 -0.0000000000e+00 -9.5763749583e+02 9.5763749583e+02 0.0000000000e+00 0.0000e+00 -1.0000e+00
      -13  1    1    2    0    0 +8.1958899469e+02 +4.7057006359e+02 -2.7969560076e+02 9.8559217431e+02 0.0000000000e+00 0.0000e+00 -1.0000e+00
       13  1    1    2    0    0 -8.1958899469e+02 -4.7057006359e+02 +3.6206783089e+02 1.0120550475e+03 0.0000000000e+00 0.0000e+00 1.0000e+00
<mgrwt>
<rscale>  0 0.19959482E+04</rscale>
<asrwt>0</asrwt>
<pdfrwt beam="1">  1        2 0.16000150E+00 0.19959482E+04</pdfrwt>
<pdfrwt beam="2">  1       -2 0.14732885E+00 0.19959482E+04</pdfrwt>
<totfact> 0.83503783E+00</totfact>
</mgrwt>
<rwgt>
<wgt id='morphing_basis_vector_1'> +1.3674741e-04 </wgt>
<wgt id='morphing_basis_vector_2'> +9.4215603e-05 </wgt>
<wgt id='morphing_basis_vector_3'> +1.4646565e-04 </wgt>
<wgt id='morphing_basis_vector_4'> +9.7976342e-05 </wgt>
<wgt id='morphing_basis_vector_5'> +1.6030213e-04 </wgt>
</rwgt>
</event>
<event>
 4      1 +6.0853000e-08 2.01890100e+03 7.81860800e-03 8.06384500e-02
        2 -1    0    0  501    0 +0.0000000000e+00 +0.0000000000e+00 +3.0252827523e+03 3.0252827523e+03 0.0000000000e+00 0.0000e+00 -1.0000e+00
       -2 -1    0    0    0  501 -0.0000000000e+00 -0.0000000000e+00 -3.3682491135e+02 3.3682491135e+02 0.0000000000e+00 0.0000e+00 1.0000e+00
      -13  1    1    2    0    0 -1.0280069617e+02 -9.5248783914e+02 +8.1448702852e+02 1.2574538506e+03 0.0000000000e+00 0.0000e+00 1.0000e+00
       13  1    1    2    0    0 +1.0280069617e+02 +9.5248783914e+02 +1.8739708124e+03 2.1046538130e+03 0.0000000000e+00 0.0000e+00 -1.0000e+00
<mgrwt>
<rscale>  0 0.20189013E+04</rscale>
<asrwt>0</asrwt>
<pdfrwt beam="1">  1        2 0.46542810E+00 0.20189013E+04</pdfrwt>
<pdfrwt beam="2">  1       -2 0.51819219E-01 0.20189013E+04</pdfrwt>
<totfact> 0.66428767E+00</totfact>
</mgrwt>
<rwgt>
<wgt id='morphing_basis_vector_1'> +1.4305569e-04 </wgt>
<wgt id='morphing_basis_vector_2'> +9.8701550e-05 </wgt>
<wgt id='morphing_basis_vector_3'> +1.5337094e-04 </wgt>
<wgt id='morphing_basis_vector_4'> +1.0257271e-04 </wgt>
<wgt id='morphing_basis_vector_5'> +1.6795105e-04 </wgt>
</rwgt>
</event>
<event>
 4      1 +6.0853000e-08 2.02702500e+03 7.81860800e-03 8.06055800e-02
        2 -1    0    0  501    0 +0.0000000000e+00 +0.0000000000e+00 +1.5978775147e+03 1.5978775147e+03 0.0000000000e+00 0.0000e+00 -1.0000e+00
       -2 -1    0    0    0  501 -0.0000000000e+00 -0.0000000000e+00 -6.4285733683e+02 6.4285733683e+02 0.0000000000e+00 0.0000e+00 1.0000e+00
      -13  1    1    2    0    0 +4.7286047538e+02 -5.4285708730e+02 -3.1108608813e+02 7.8426105388e+02 0.0000000000e+00 0.0000e+00 1.0000e+00
       13  1    1    2    0    0 -4.7286047538e+02 +5.4285708730e+02 +1.2661062660e+03 1.4564737976e+03 0.0000000000e+00 0.0000e+00 -1.0000e+00
<mgrwt>
<rscale>  0 0.20270247E+04</rscale>
<asrwt>0</asrwt>
<pdfrwt beam="1">  1        2 0.24582731E+00 0.20270247E+04</pdfrwt>
<pdfrwt beam="2">  1       -2 0.98901129E-01 0.20270247E+04</pdfrwt>
<totfact> 0.11234707E+01</totfact>
</mgrwt>
<rwgt>
<wgt id='morphing_basis_vector_1'> +1.4396476e-04 </wgt>
<wgt id='morphing_basis_vector_2'> +9.6255963e-05 </wgt>
<wgt id='morphing_basis_vector_3'> +1.5386323e-04 </wgt>
<wgt id='morphing_basis_vector_4'> +1.0697970e-04 </wgt>
<wgt id='morphing_basis_vector_5'> +1.7093900e-04 </wgt>
</rwgt>
</event>
<event>
 4      1 +6.0853000e-08 1.93248100e+03 7.81860800e-03 8.09985100e-02
        2 -1    0    0  501    0 +0.0000000000e+00 +0.0000000000e+00 +1.9148275722e+03 1.9148275722e+03 0.0000000000e+00 0.0000e+00 -1.0000e+00
       -2 -1    0    0    0  501 -0.0000000000e+00 -0.0000000000e+00 -4.8757438867e+02 4.8757438867e+02 0.0000000000e+00 0.0000e+00 1.0000e+00
      -13  1    1    2    0    0 -5.5735031213e+02 -1.1992024236e+01 -2.6748373476e+02 6.1832897994e+02 0.0000000000e+00 0.0000e+00 1.0000e+00
       13  1    1    2    0    0 +5.5735031213e+02 +1.1992024236e+01 +1.6947369182e+03 1.7840729809e+03 0.0000000000e+00 0.0000e+00 -1.0000e+00
<mgrwt>
<rscale>  0 0.19324812E+04</rscale>
<asrwt>0</asrwt>
<pdfrwt beam="1">  1        2 0.29458885E+00 0.19324812E+04</pdfrwt>
<pdfrwt beam="2">  1       -2 0.75011446E-01 0.19324812E+04</pdfrwt>
<totfact> 0.14277462E+01</totfact>
</mgrwt>
<rwgt>
<wgt id='morphing_basis_vector_1'> +1.1930013e-04 </wgt>
<wgt id='morphing_basis_vector_2'> +7.9363104e-05 </wgt>
<wgt id='morphing_basis_vector_3'> +1.2700602e-04 </wgt>
<wgt id='morphing_basis_vector_4'> +8.8229832e-05 </wgt>
<wgt id='morphing_basis_vector_5'> +1.4067063e-04 </wgt>
</rwgt>
</event>
<event>
 4      1 +6.0853000e-08 1.93039000e+03 7.81860800e-03 8.10074600e-02
        2 -1    0    0  501    0 +0.0000000000e+00 +0.0000000000e+00 +1.4612503834e+03 1.4612503834e+03 0.0000000000e+00 0.0000e+00 -1.0000e+00
       -2 -1    0    0    0  501 -0.0000000000e+00 -0.0000000000e+00 -6.3753741804e+02 6.3753741804e+02 0.0000000000e+00 0.0000e+00 1.0000e+00
      -13  1    1    2    0    0 +6.8003015904e+02 +1.9878130669e+02 -3.0079821670e+02 7.6969772786e+02 0.0000000000e+00 0.0000e+00 1.0000e+00
       13  1    1    2    0    0 -6.8003015904e+02 -1.9878130669e+02 +1.1245111821e+03 1.3290900736e+03 0.0000000000e+00 0.0000e+00 -1.0000e+00
<mgrwt>
<rscale>  0 0.19303904E+04</rscale>
<asrwt>0</asrwt>
<pdfrwt beam="1">  1        2 0.22480775E+00 0.19303904E+04</pdfrwt>
<pdfrwt beam="2">  1       -2 0.98082680E-01 0.19303904E+04</pdfrwt>
<totfact> 0.13779187E+01</totfact>
</mgrwt>
<rwgt>
<wgt id='morphing_basis_vector_1'> +1.1892205e-04 </wgt>
<wgt id='morphing_basis_vector_2'> +7.9397393e-05 </wgt>
<wgt id='morphing_basis_vector_3'> +1.2664029e-04 </wgt>
<wgt id='morphing_basis_vector_4'> +8.7590986e-05 </wgt>
<wgt id='morphing_basis_vector_5'> +1.4003012e-04 </wgt>
</rwgt>
</event>
<event>
 4      1 +6.0853000e-08 1.86539100e+03 7.81860800e-03 8.12918300e-02
        2 -1    0    0  501    0 +0.0000000000e+00 +0.0000000000e+00 +9.5478250270e+02 9.5478250270e+02 0.0000000000e+00 0.0000e+00 1.0000e+00
       -2 -1    0    0    0  501 -0.0000000000e+00 -0.0000000000e+00 -9.1111900797e+02 9.1111900797e+02 0.0000000000e+00 0.0000e+00 -1.0000e+00
      -13  1    1    2    0    0 -6.6486286294e+02 -2.8026384438e+01 -6.3187031304e+02 9.1765363686e+02 0.0000000000e+00 0.0000e+00 -1.0000e+00
       13  1    1    2    0    0 +6.6486286294e+02 +2.8026384438e+01 +6.7553380777e+02 9.4824787381e+02 0.0000000000e+00 0.0000e+00 1.0000e+00
<mgrwt>
<rscale>  0 0.18653906E+04</rscale>
<asrwt>0</asrwt>
<pdfrwt beam="1">  1        2 0.14688962E+00 0.18653906E+04</pdfrwt>
<pdfrwt beam="2">  1       -2 0.14017215E+00 0.18653906E+04</pdfrwt>
<totfact> 0.10970772E+01</totfact>
</mgrwt>
<rwgt>
<wgt id='morphing_basis_vector_1'> +1.0399105e-04 </wgt>
<wgt id='morphing_basis_vector_2'> +6.9254023e-05 </wgt>
<wgt id='morphing_basis_vector_3'> +1.1042075e-04 </wgt>
<wgt id='morphing_basis_vector_4'> +7.6195492e-05 </wgt>
<wgt id='morphing_basis_vector_5'> +1.2172996e-04 </wgt>
</rwgt>
</event>
<event>
 4      1 +6.0853000e-08 1.86073700e+03 7.81860800e-03 8.13126500e-02
        2 -1    0    0  501    0 +0.0000000000e+00 +0.0000000000e+00 +1.3813169013e+03 1.3813169013e+03 0.0000000000e+00 0.0000e+00 -1.0000e+00
       -2 -1    0    0    0  501 -0.0000000000e+00 -0.0000000000e+00 -6.2663801633e+02 6.2663801633e+02 0.0000000000e+00 0.0000e+00 1.0000e+00
      -13  1    1    2    0    0 +3.6544949669e+02 -5.3323448496e+02 -3.4469720846e+02 7.3260392853e+02 0.0000000000e+00 0.0000e+00 1.0000e+00
       13  1    1    2    0    0 -3.6544949669e+02 +5.3323448496e+02 +1.0993760935e+03 1.2753509891e+03 0.0000000000e+00 0.0000e+00 -1.0000e+00
<mgrwt>
<rscale>  0 0.18607371E+04</rscale>
<asrwt>0</asrwt>
<pdfrwt beam="1">  1        2 0.21251029E+00 0.18607371E+04</pdfrwt>
<pdfrwt beam="2">  1       -2 0.96405849E-01 0.18607371E+04</pdfrwt>
<totfact> 0.16022677E+01</totfact>
</mgrwt>
<rwgt>
<wgt id='morphing_basis_vector_1'> +1.0296335e-04 </wgt>
<wgt id='morphing_basis_vector_2'> +6.8519661e-05 </wgt>
<wgt id='morphing_basis_vector_3'> +1.0929983e-04 </wgt>
<wgt id='morphing_basis_vector_4'> +7.5456021e-05 </wgt>
<wgt id='morphing_basis_vector_5'> +1.2049450e-04 </wgt>
</rwgt>
</event>
<event>
 4      1 +6.0853000e-08 2.01504400e+03 7.81860800e-03 8.06541200e-02
        2 -1    0    0  501    0 +0.0000000000e+00 +0.0000000000e+00 +2.2233058043e+03 2.2233058043e+03 0.0000000000e+00 0.0000e+00 -1.0000e+00
       -2 -1    0    0    0  501 -0.0000000000e+00 -0.0000000000e+00 -4.5657280995e+02 4.5657280995e+02 0.0000000000e+00 0.0000e+00 1.0000e+00
      -13  1    1    2    0    0 -8.5038555147e+01 +6.5160533994e+02 -1.3234182502e+02 6.7032487165e+02 0.0000000000e+00 0.0000e+00 1.0000e+00
       13  1    1    2    0    0 +8.5038555147e+01 -6.5160533994e+02 +1.8990748194e+03 2.0095537426e+03 0.0000000000e+00 0.0000e+00 -1.0000e+00
<mgrwt>
<rscale>  0 0.20150444E+04</rscale>
<asrwt>0</asrwt>
<pdfrwt beam="1">  1        2 0.34204704E+00 0.20150444E+04</pdfrwt>
<pdfrwt beam="2">  1       -2 0.70241972E-01 0.20150444E+04</pdfrwt>
<totfact> 0.10939553E+01</totfact>
</mgrwt>
<rwgt>
<wgt id='morphing_basis_vector_1'> +1.4059342e-04 </wgt>
<wgt id='morphing_basis_vector_2'> +9.3830099e-05 </wgt>
<wgt id='morphing_basis_vector_3'> +1.5017040e-04 </wgt>
<wgt id='morphing_basis_vector_4'> +1.0455288e-04 </wgt>
<wgt id='morphing_basis_vector_5'> +1.6686547e-04 </wgt>
</rwgt>
</event>
<event>
 4      1 +6.0853000e-08 1.87412300e+03 7.81860800e-03 8.12529300e-02
        2 -1    0    0  501    0 +0.0000000000e+00 +0.0000000000e+00 +3.4177696031e+03 3.4177696031e+03 0.0000000000e+00 0.0000e+00 -1.0000e+00
       -2 -1    0    0    0  501 -0.0000000000e+00 -0.0000000000e+00 -2.5691745424e+02 2.5691745424e+02 0.0000000000e+00 0.0000e+00 1.0000e+00
      -13  1    1    2    0    0 -3.1612619465e+02 +4.4217966683e+02 +8.3786888401e+01 5.4998079182e+02 0.0000000000e+00 0.0000e+00 1.0000e+00
       13  1    1    2    0    0 +3.1612619465e+02 -4.4217966683e+02 +3.0770652604e+03 3.1247062655e+03 0.0000000000e+00 0.0000e+00 -1.0000e+00
<mgrwt>
<rscale>  0 0.18741234E+04</rscale>
<asrwt>0</asrwt>
<pdfrwt beam="1">  1        2 0.52581068E+00 0.18741234E+04</pdfrwt>
<pdfrwt beam="2">  1       -2 0.39525765E-01 0.18741234E+04</pdfrwt>
<totfact> 0.61262612E+00</totfact>
</mgrwt>
<rwgt>
<wgt id='morphing_basis_vector_1'> +1.0581890e-04 </wgt>
<wgt id='morphing_basis_vector_2'> +7.0287205e-05 </wgt>
<wgt id='morphing_basis_vector_3'> +1.1237376e-04 </wgt>
<wgt id='morphing_basis_vector_4'> +7.7837127e-05 </wgt>
<wgt id='morphing_basis_vector_5'> +1.2409260e-04 </wgt>
</rwgt>
</event>
<event>
 4      1 +6.0853000e-08 2.10037000e+03 7.81860800e-03 8.03157800e-02
        2 -1    0    0  501    0 +0.0000000000e+00 +0.0000000000e+00 +9.2183625141e+02 9.2183625141e+02 0.0000000000e+00 0.0000e+00 -1.0000e+00
       -2 -1    0    0    0  501 -0.0000000000e+00 -0.0000000000e+00 -1.1964034546e+03 1.1964034546e+03 0.0000000000e+00 0.0000e+00 1.0000e+00
      -13  1    1    2    0    0 -8.5118775219e+02 +5.1271983007e+02 -4.8000703401e+02 1.1035438217e+03 0.0000000000e+00 0.0000e+00 1.0000e+00
       13  1    1    2    0    0 +8.5118775219e+02 -5.1271983007e+02 +2.0543983082e+02 1.0146958843e+03 0.0000000000e+00 0.0000e+00 -1.0000e+00
<mgrwt>
<rscale>  0 0.21003696E+04</rscale>
<asrwt>0</asrwt>
<pdfrwt beam="1">  1        2 0.14182096E+00 0.21003696E+04</pdfrwt>
<pdfrwt beam="2">  1       -2 0.18406207E+00 0.21003696E+04</pdfrwt>
<totfact> 0.50325062E+00</totfact>
</mgrwt>
<rwgt>
<wgt id='morphing_basis_vector_1'> +1.6701439e-04 </wgt>
<wgt id='morphing_basis_vector_2'> +1.1527957e-04 </wgt>
<wgt id='morphing_basis_vector_3'> +1.7954642e-04 </wgt>
<wgt id='morphing_basis_vector_4'> +1.2063330e-04 </wgt>
<wgt id='morphing_basis_vector_5'> +1.9734647e-04 </wgt>
</rwgt>
</event>
<event>
 4      1 +6.0853000e-08 2.12212800e+03 7.81860800e-03 8.02321700e-02
        2 -1    0    0  501    0 +0.0000000000e+00 +0.0000000000e+00 +1.3561186023e+03 1.3561186023e+03 0.0000000000e+00 0.0000e+00 -1.0000e+00
       -2 -1    0    0    0  501 -0.0000000000e+00 -0.0000000000e+00 -8.3020538496e+02 8.3020538496e+02 0.0000000000e+00 0.0000e+00 1.0000e+00
      -13  1    1    2    0    0 +2.7033992612e+02 +2.8557206429e+02 -7.5236152947e+02 8.4893047453e+02 0.0000000000e+00 0.0000e+00 1.0000e+00
       13  1    1    2    0    0 -2.7033992612e+02 -2.8557206429e+02 +1.2782747468e+03 1.3373935127e+03 0.0000000000e+00 0.0000e+00 -1.0000e+00
<mgrwt>
<rscale>  0 0.21221281E+04</rscale>
<asrwt>0</asrwt>
<pdfrwt beam="1">  1        2 0.20863363E+00 0.21221281E+04</pdfrwt>
<pdfrwt beam="2">  1       -2 0.12772391E+00 0.21221281E+04</pdfrwt>
<totfact> 0.79750765E+00</totfact>
</mgrwt>
<rwgt>
<wgt id='morphing_basis_vector_1'> +1.7214784e-04 </wgt>
<wgt id='morphing_basis_vector_2'> +1.1486938e-04 </wgt>
<wgt id='morphing_basis_vector_3'> +1.8448764e-04 </wgt>
<wgt id='morphing_basis_vector_4'> +1.2934538e-04 </wgt>
<wgt id='morphing_basis_vector_5'> +2.0608677e-04 </wgt>
</rwgt>
</event>
<event>
 4      1 +6.0853000e-08 2.11327200e+03 7.81860800e-03 8.02660800e-02
        2 -1    0    0  501    0 +0.0000000000e+00 +0.0000000000e+00 +1.3007273088e+03 1.3007273088e+03 0.0000000000e+00 0.0000e+00 -1.0000e+00
       -2 -1    0    0    0  501 -0.0000000000e+00 -0.0000000000e+00 -8.5835015753e+02 8.5835015753e+02 0.0000000000e+00 0.0000e+00 1.0000e+00
      -13  1    1    2    0    0 -3.4731624184e+02 -4.2099644271e+02 -7.0319485046e+02 8.9014019926e+02 0.0000000000e+00 0.0000e+00 1.0000e+00
       13  1    1    2    0    0 +3.4731624184e+02 +4.2099644271e+02 +1.1455720017e+03 1.2689372670e+03 0.0000000000e+00 0.0000e+00 -1.0000e+00
<mgrwt>
<rscale>  0 0.21132719E+04</rscale>
<asrwt>0</asrwt>
<pdfrwt beam="1">  1        2 0.20011189E+00 0.21132719E+04</pdfrwt>
<pdfrwt beam="2">  1       -2 0.13205387E+00 0.21132719E+04</pdfrwt>
<totfact> 0.78528173E+00</totfact>
</mgrwt>
<rwgt>
<wgt id='morphing_basis_vector_1'> +1.6937505e-04 </wgt>
<wgt id='morphing_basis_vector_2'> +1.1307220e-04 </wgt>
<wgt id='morphing_basis_vector_3'> +1.8147870e-04 </wgt>
<wgt id='morphing_basis_vector_4'> +1.2709884e-04 </wgt>
<wgt id='morphing_basis_vector_5'> +2.0260210e-04 </wgt>
</rwgt>
</event>
<event>
 4      1 +6.0853000e-08 1.93943400e+03 7.81860800e-03 8.09688200e-02
        2 -1    0    0  501    0 +0.0000000000e+00 +0.0000000000e+00 +2.1631519788e+03 2.1631519788e+03 0.0000000000e+00 0.0000e+00 1.0000e+00
       -2 -1    0    0    0  501 -0.0000000000e+00 -0.0000000000e+00 -4.3471333843e+02 4.3471333843e+02 0.0000000000e+00 0.0000e+00 -1.0000e+00
      -13  1    1    2    0    0 +5.9116663672e+02 +7.3380584683e+02 +5.5758865240e+02 1.0949219691e+03 0.0000000000e+00 0.0000e+00 -1.0000e+00
       13  1    1    2    0    0 -5.9116663672e+02 -7.3380584683e+02 +1.1708499879e+03 1.5029433481e+03 0.0000000000e+00 0.0000e+00 1.0000e+00
<mgrwt>
<rscale>  0 0.19394340E+04</rscale>
<asrwt>0</asrwt>
<pdfrwt beam="1">  1        2 0.33279260E+00 0.19394340E+04</pdfrwt>
<pdfrwt beam="2">  1       -2 0.66878977E-01 0.19394340E+04</pdfrwt>
<totfact> 0.13233453E+01</totfact>
</mgrwt>
<rwgt>
<wgt id='morphing_basis_vector_1'> +1.2273730e-04 </wgt>
<wgt id='morphing_basis_vector_2'> +8.5680544e-05 </wgt>
<wgt id='morphing_basis_vector_3'> +1.3136419e-04 </wgt>
<wgt id='morphing_basis_vector_4'> +8.6072448e-05 </wgt>
<wgt id='morphing_basis_vector_5'> +1.4247842e-04 </wgt>
</rwgt>
</event>
<event>
 4      1 +6.0853000e-08 2.21943600e+03 7.81860800e-03 7.98705200e-02
        2 -1    0    0  501    0 +0.0000000000e+00 +0.0000000000e+00 +1.5693784003e+03 1.5693784003e+03 0.0000000000e+00 0.0000e+00 -1.0000e+00
       -2 -1    0    0    0  501 -0.0000000000e+00 -0.0000000000e+00 -7.8468920251e+02 7.8468920251e+02 0.0000000000e+00 0.0000e+00 1.0000e+00
      -13  1    1    2    0    0 -3.9675566738e+02 -1.0358428307e+03 +4.2734406763e+02 1.1887002909e+03 0.0000000000e+00 0.0000e+00 1.0000e+00
       13  1    1    2    0    0 +3.9675566738e+02 +1.0358428307e+03 +3.5734513018e+02 1.1653673119e+03 0.0000000000e+00 0.0000e+00 -1.0000e+00
<mgrwt>
<rscale>  0 0.22194362E+04</rscale>
<asrwt>0</asrwt>
<pdfrwt beam="1">  1        2 0.24144283E+00 0.22194362E+04</pdfrwt>
<pdfrwt beam="2">  1       -2 0.12072142E+00 0.22194362E+04</pdfrwt>
<totfact> 0.69592038E+00</totfact>
</mgrwt>
<rwgt>
<wgt id='morphing_basis_vector_1'> +2.1367957e-04 </wgt>
<wgt id='morphing_basis_vector_2'> +1.6194365e-04 </wgt>
<wgt id='morphing_basis_vector_3'> +2.3313452e-04 </wgt>
<wgt id='morphing_basis_vector_4'> +1.3833375e-04 </wgt>
<wgt id='morphing_basis_vector_5'> +2.4597216e-04 </wgt>
</rwgt>
</event>
<event>
 4      1 +6.0853000e-08 1.93247300e+03 7.81860800e-03 8.09985400e-02
        2 -1    0    0  501    0 +0.0000000000e+00 +0.0000000000e+00 +1.0192778071e+03 1.0192778071e+03 0.0000000000e+00 0.0000e+00 -1.0000e+00
       -2 -1    0    0    0  501 -0.0000000000e+00 -0.0000000000e+00 -9.1595497443e+02 9.1595497443e+02 0.0000000000e+00 0.0000e+00 1.0000e+00
      -13  1    1    2    0    0 +6.7056934485e+02 -5.1548787536e+02 -4.1614774140e+02 9.4263987746e+02 0.0000000000e+00 0.0000e+00 1.0000e+00
       13  1    1    2    0    0 -6.7056934485e+02 +5.1548787536e+02 +5.1947057407e+02 9.9259290408e+02 0.0000000000e+00 0.0000e+00 -1.0000e+00
<mgrwt>
<rscale>  0 0.19324726E+04</rscale>
<asrwt>0</asrwt>
<pdfrwt beam="1">  1        2 0.15681197E+00 0.19324726E+04</pdfrwt>
<pdfrwt beam="2">  1       -2 0.14091615E+00 0.19324726E+04</pdfrwt>
<totfact> 0.97939272E+00</totfact>
</mgrwt>
<rwgt>
<wgt id='morphing_basis_vector_1'> +1.1982755e-04 </wgt>
<wgt id='morphing_basis_vector_2'> +8.0930460e-05 </wgt>
<wgt id='morphing_basis_vector_3'> +1.2776733e-04 </wgt>
<wgt id='morphing_basis_vector_4'> +8.7180812e-05 </wgt>
<wgt id='morphing_basis_vector_5'> +1.4058586e-04 </wgt>
</rwgt>
</event>
<event>
 4      1 +6.0853000e-08 2.00946700e+03 7.81860800e-03 8.06768400e-02
        2 -1    0    0  501    0 +0.0000000000e+00 +0.0000000000e+00 +4.7339900786e+03 4.7339900786e+03 0.0000000000e+00 0.0000e+00 -1.0000e+00
       -2 -1    0    0    0  501 -0.0000000000e+00 -0.0000000000e+00 -2.1324290219e+02 2.1324290219e+02 0.0000000000e+00 0.0000e+00 1.0000e+00
      -13  1    1    2    0    0 +3.6411352213e+02 -6.6808169696e+02 +6.4487230358e+02 9.9738262405e+02 0.0000000000e+00 0.0000e+00 1.0000e+00
       13  1    1    2    0    0 -3.6411352213e+02 +6.6808169696e+02 +3.8758748728e+03 3.9498503567e+03 0.0000000000e+00 0.0000e+00 -1.0000e+00
<mgrwt>
<rscale>  0 0.20094674E+04</rscale>
<asrwt>0</asrwt>
<pdfrwt beam="1">  1        2 0.72830608E+00 0.20094674E+04</pdfrwt>
<pdfrwt beam="2">  1       -2 0.32806604E-01 0.20094674E+04</pdfrwt>
<totfact> 0.57852671E-01</totfact>
</mgrwt>
<rwgt>
<wgt id='morphing_basis_vector_1'> +1.3921470e-04 </wgt>
<wgt id='morphing_basis_vector_2'> +9.3220393e-05 </wgt>
<wgt id='morphing_basis_vector_3'> +1.4872236e-04 </wgt>
<wgt id='morphing_basis_vector_4'> +1.0309829e-04 </wgt>
<wgt id='morphing_basis_vector_5'> +1.6496729e-04 </wgt>
</rwgt>
</event>
<event>
 4      1 +6.0853000e-08 1.96252600e+03 7.81860800e-03 8.08711500e-02
        2 -1    0    0  501    0 +0.0000000000e+00 +0.0000000000e+00 +2.4860501396e+03 2.4860501396e+03 0.0000000000e+00 0.0000e+00 -1.0000e+00
       -2 -1    0    0    0  501 -0.0000000000e+00 -0.0000000000e+00 -3.8731198957e+02 3.8731198957e+02 0.0000000000e+00 0.0000e+00 1.0000e+00
      -13  1    1    2    0    0 +6.1880861667e+02 +6.3689875664e+02 +4.3808974034e+02 9.9019530945e+02 0.0000000000e+00 0.0000e+00 1.0000e+00
       13  1    1    2    0    0 -6.1880861667e+02 -6.3689875664e+02 +1.6606484097e+03 1.8831668197e+03 0.0000000000e+00 0.0000e+00 -1.0000e+00
<mgrwt>
<rscale>  0 0.19625259E+04</rscale>
<asrwt>0</asrwt>
<pdfrwt beam="1">  1        2 0.38246924E+00 0.19625259E+04</pdfrwt>
<pdfrwt beam="2">  1       -2 0.59586461E-01 0.19625259E+04</pdfrwt>
<totfact> 0.10898110E+01</totfact>
</mgrwt>
<rwgt>
<wgt id='morphing_basis_vector_1'> +1.2749549e-04 </wgt>
<wgt id='morphing_basis_vector_2'> +8.6642318e-05 </wgt>
<wgt id='morphing_basis_vector_3'> +1.3618754e-04 </wgt>
<wgt id='morphing_basis_vector_4'> +9.2442149e-05 </wgt>
<wgt id='morphing_basis_vector_5'> +1.4970175e-04 </wgt>
</rwgt>
</event>
<event>
 4      1 +6.0853000e-08 2.04799900e+03 7.81860800e-03 8.05214200e-02
        2 -1    0    0  501    0 +0.0000000000e+00 +0.0000000000e+00 +7.9407581294e+02 7.9407581294e+02 0.0000000000e+00 0.0000e+00 -1.0000e+00
       -2 -1    0    0    0  501 -0.0000000000e+00 -0.0000000000e+00 -1.3204967694e+03 1.3204967694e+03 0.0000000000e+00 0.0000e+00 1.0000e+00
      -13  1    1    2    0    0 +5.3885645069e+02 -5.1515968752e+02 -9.8804115380e+02 1.2377322407e+03 0.0000000000e+00 0.0000e+00 1.0000e+00
       13  1    1    2    0    0 -5.3885645069e+02 +5.1515968752e+02 +4.6162019734e+02 8.7684034162e+02 0.0000000000e+00 0.0000e+00 -1.0000e+00
<mgrwt>
<rscale>  0 0.20479986E+04</rscale>
<asrwt>0</asrwt>
<pdfrwt beam="1">  1        2 0.12216551E+00 0.20479986E+04</pdfrwt>
<pdfrwt beam="2">  1       -2 0.20315335E+00 0.20479986E+04</pdfrwt>
<totfact> 0.44492992E+00</totfact>
</mgrwt>
<rwgt>
<wgt id='morphing_basis_vector_1'> +1.4992387e-04 </wgt>
<wgt id='morphing_basis_vector_2'> +1.0035017e-04 </wgt>
<wgt id='morphing_basis_vector_3'> +1.6036120e-04 </wgt>
<wgt id='morphing_basis_vector_4'> +1.1150738e-04 </wgt>
<wgt id='morphing_basis_vector_5'> +1.7826246e-04 </wgt>
</rwgt>
</event>
<event>
 4      1 +6.0853000e-08 2.07409200e+03 7.81860800e-03 8.04181800e-02
        2 -1    0    0  501    0 +0.0000000000e+00 +0.0000000000e+00 +1.2273695774e+03 1.2273695774e+03 0.0000000000e+00 0.0000e+00 -1.0000e+00
       -2 -1    0    0    0  501 -0.0000000000e+00 -0.0000000000e+00 -8.7623517017e+02 8.7623517017e+02 0.0000000000e+00 0.0000e+00 1.0000e+00
      -13  1    1    2    0    0 -7.6375941646e+02 -5.1153284086e+02 -3.1133688496e+02 9.7052818065e+02 0.0000000000e+00 0.0000e+00 1.0000e+00
       13  1    1    2    0    0 +7.6375941646e+02 +5.1153284086e+02 +6.6247129218e+02 1.1330765669e+03 0.0000000000e+00 0.0000e+00 -1.0000e+00
<mgrwt>
<rscale>  0 0.20740920E+04</rscale>
<asrwt>0</asrwt>
<pdfrwt beam="1">  1        2 0.18882609E+00 0.20740920E+04</pdfrwt>
<pdfrwt beam="2">  1       -2 0.13480541E+00 0.20740920E+04</pdfrwt>
<totfact> 0.82114384E+00</totfact>
</mgrwt>
<rwgt>
<wgt id='morphing_basis_vector_1'> +1.5818683e-04 </wgt>
<wgt id='morphing_basis_vector_2'> +1.0737512e-04 </wgt>
<wgt id='morphing_basis_vector_3'> +1.6959971e-04 </wgt>
<wgt id='morphing_basis_vector_4'> +1.1615396e-04 </wgt>
<wgt id='morphing_basis_vector_5'> +1.8760303e-04 </wgt>
</rwgt>
</event>
<event>
 4      1 +6.0853000e-08 1.94296800e+03 7.81860800e-03 8.09537800e-02
        2 -1    0    0  501    0 +0.0000000000e+00 +0.0000000000e+00 +1.9994152580e+03 1.9994152580e+03 0.0000000000e+00 0.0000e+00 -1.0000e+00
       -2 -1    0    0    0  501 -0.0000000000e+00 -0.0000000000e+00 -4.7202881018e+02 4.7202881018e+02 0.0000000000e+00 0.0000e+00 1.0000e+00
      -13  1    1    2    0    0 -4.0976078667e+02 -8.4292417262e+01 -3.5158687773e+02 5.4646358203e+02 0.0000000000e+00 0.0000e+00 1.0000e+00
       13  1    1    2    0    0 +4.0976078667e+02 +8.4292417262e+01 +1.8789733256e+03 1.9249804862e+03 0.0000000000e+00 0.0000e+00 -1.0000e+00
<mgrwt>
<rscale>  0 0.19429685E+04</rscale>
<asrwt>0</asrwt>
<pdfrwt beam="1">  1        2 0.30760234E+00 0.19429685E+04</pdfrwt>
<pdfrwt beam="2">  1       -2 0.72619818E-01 0.19429685E+04</pdfrwt>
<totfact> 0.13727501E+01</totfact>
</mgrwt>
<rwgt>
<wgt id='morphing_basis_vector_1'> +1.2181705e-04 </wgt>
<wgt id='morphing_basis_vector_2'> +8.0973651e-05 </wgt>
<wgt id='morphing_basis_vector_3'> +1.2972657e-04 </wgt>
<wgt id='morphing_basis_vector_4'> +9.0274982e-05 </wgt>
<wgt id='morphing_basis_vector_5'> +1.4382188e-04 </wgt>
</rwgt>
</event>
<event>
 4      1 +6.0853000e-08 1.86387700e+03 7.81860800e-03 8.12986000e-02
        2 -1    0    0  501    0 +0.0000000000e+00 +0.0000000000e+00 +1.4785015364e+03 1.4785015364e+03 0.0000000000e+00 0.0000e+00 1.0000e+00
       -2 -1    0    0    0  501 -0.0000000000e+00 -0.0000000000e+00 -5.8742518011e+02 5.8742518011e+02 0.0000000000e+00 0.0000e+00 -1.0000e+00
      -13  1    1    2    0    0 -8.9135689439e+02 +2.7155243497e+02 +4.6310534446e+02 1.0405404356e+03 0.0000000000e+00 0.0000e+00 -1.0000e+00
       13  1    1    2    0    0 +8.9135689439e+02 -2.7155243497e+02 +4.2797101187e+02 1.0253862809e+03 0.0000000000e+00 0.0000e+00 1.0000e+00
<mgrwt>
<rscale>  0 0.18638766E+04</rscale>
<asrwt>0</asrwt>
<pdfrwt beam="1">  1        2 0.22746177E+00 0.18638766E+04</pdfrwt>
<pdfrwt beam="2">  1       -2 0.90373105E-01 0.18638766E+04</pdfrwt>
<totfact> 0.16440500E+01</totfact>
</mgrwt>
<rwgt>
<wgt id='morphing_basis_vector_1'> +1.0755192e-04 </wgt>
<wgt id='morphing_basis_vector_2'> +8.0565756e-05 </wgt>
<wgt id='morphing_basis_vector_3'> +1.1561347e-04 </wgt>
<wgt id='morphing_basis_vector_4'> +6.8298119e-05 </wgt>
<wgt id='morphing_basis_vector_5'> +1.2072979e-04 </wgt>
</rwgt>
</event>
<event>
 4      1 +6.0853000e-08 2.08733600e+03 7.81860800e-03 8.03663700e-02
        2 -1    0    0  501    0 +0.0000000000e+00 +0.0000000000e+00 +1.7962848966e+03 1.7962848966e+03 0.0000000000e+00 0.0000e+00 1.0000e+00
       -2 -1    0    0    0  501 -0.0000000000e+00 -0.0000000000e+00 -6.0638662982e+02 6.0638662982e+02 0.0000000000e+00 0.0000e+00 -1.0000e+00
      -13  1    1    2    0    0 -6.0213591839e+02 -5.7021600704e+01 -3.8408638969e+02 7.1647852857e+02 0.0000000000e+00 0.0000e+00 -1.0000e+00
       13  1    1    2    0    0 +6.0213591839e+02 +5.7021600704e+01 +1.5739846565e+03 1.6861929979e+03 0.0000000000e+00 0.0000e+00 1.0000e+00
<mgrwt>
<rscale>  0 0.20873362E+04</rscale>
<asrwt>0</asrwt>
<pdfrwt beam="1">  1        2 0.27635152E+00 0.20873362E+04</pdfrwt>
<pdfrwt beam="2">  1       -2 0.93290252E-01 0.20873362E+04</pdfrwt>
<totfact> 0.99550673E+00</totfact>
</mgrwt>
<rwgt>
<wgt id='morphing_basis_vector_1'> +1.6138704e-04 </wgt>
<wgt id='morphing_basis_vector_2'> +1.0774868e-04 </wgt>
<wgt id='morphing_basis_vector_3'> +1.7278768e-04 </wgt>
<wgt id='morphing_basis_vector_4'> +1.2081024e-04 </wgt>
<wgt id='morphing_basis_vector_5'> +1.9265949e-04 </wgt>
</rwgt>
</event>
<event>
 4      1 +6.0853000e-08 1.99100700e+03 7.81860800e-03 8.07525900e-02
        2 -1    0    0  501    0 +0.0000000000e+00 +0.0000000000e+00 +8.6051093178e+02 8.6051093178e+02 0.0000000000e+00 0.0000e+00 1.0000e+00
       -2 -1    0    0    0  501 -0.0000000000e+00 -0.0000000000e+00 -1.1516727537e+03 1.1516727537e+03 0.0000000000e+00 0.0000e+00 -1.0000e+00
      -13  1    1    2    0    0 +3.8146939545e+02 +6.6149785090e+02 +4.9990536057e+02 9.1269035052e+02 0.0000000000e+00 0.0000e+00 1.0000e+00
       13  1    1    2    0    0 -3.8146939545e+02 -6.6149785090e+02 -7.9106718245e+02 1.0994933349e+03 0.0000000000e+00 0.0000e+00 -1.0000e+00
<mgrwt>
<rscale>  0 0.19910068E+04</rscale>
<asrwt>0</asrwt>
<pdfrwt beam="1">  1        2 0.13238630E+00 0.19910068E+04</pdfrwt>
<pdfrwt beam="2">  1       -2 0.17718042E+00 0.19910068E+04</pdfrwt>
<totfact> 0.62851174E+00</totfact>
</mgrwt>
<rwgt>
<wgt id='morphing_basis_vector_1'> +1.6859380e-04 </wgt>
<wgt id='morphing_basis_vector_2'> +1.9150694e-04 </wgt>
<wgt id='morphing_basis_vector_3'> +1.9324978e-04 </wgt>
<wgt id='morphing_basis_vector_4'> +3.1044698e-05 </wgt>
<wgt id='morphing_basis_vector_5'> +1.5348853e-04 </wgt>
</rwgt>
</event>
<event>
 4      1 +6.0853000e-08 1.86728700e+03 7.81860800e-03 8.12833600e-02
        2 -1    0    0  501    0 +0.0000000000e+00 +0.0000000000e+00 +6.6942297864e+02 6.6942297864e+02 0.0000000000e+00 0.0000e+00 -1.0000e+00
       -2 -1    0    0    0  501 -0.0000000000e+00 -0.0000000000e+00 -1.3021521937e+03 1.3021521937e+03 0.0000000000e+00 0.0000e+00 1.0000e+00
      -13  1    1    2    0    0 -3.7578359967e+02 -8.8477888674e+01 -1.2139294880e+03 1.2738392568e+03 0.0000000000e+00 0.0000e+00 1.0000e+00
       13  1    1    2    0    0 +3.7578359967e+02 +8.8477888674e+01 +5.8120027289e+02 6.9773591550e+02 0.0000000000e+00 0.0000e+00 -1.0000e+00
<mgrwt>
<rscale>  0 0.18672874E+04</rscale>
<asrwt>0</asrwt>
<pdfrwt beam="1">  1        2 0.10298815E+00 0.18672874E+04</pdfrwt>
<pdfrwt beam="2">  1       -2 0.20033110E+00 0.18672874E+04</pdfrwt>
<totfact> 0.58575735E+00</totfact>
</mgrwt>
<rwgt>
<wgt id='morphing_basis_vector_1'> +1.0428368e-04 </wgt>
<wgt id='morphing_basis_vector_2'> +6.9174031e-05 </wgt>
<wgt id='morphing_basis_vector_3'> +1.1069670e-04 </wgt>
<wgt id='morphing_basis_vector_4'> +7.6751098e-05 </wgt>
<wgt id='morphing_basis_vector_5'> +1.2225598e-04 </wgt>
</rwgt>
</event>
<event>
 4      1 +6.0853000e-08 1.90112600e+03 7.81860800e-03 8.11340200e-02
        2 -1    0    0  501    0 +0.0000000000e+00 +0.0000000000e+00 +1.9290814624e+03 1.9290814624e+03 0.0000000000e+00 0.0000e+00 -1.0000e+00
       -2 -1    0    0    0  501 -0.0000000000e+00 -0.0000000000e+00 -4.6839374161e+02 4.6839374161e+02 0.0000000000e+00 0.0000e+00 1.0000e+00
      -13  1    1    2    0    0 -7.1683931966e+02 -5.5863477457e+02 +1.0817272328e+03 1.4128217254e+03 0.0000000000e+00 0.0000e+00 1.0000e+00
       13  1    1    2    0    0 +7.1683931966e+02 +5.5863477457e+02 +3.7896048807e+02 9.8465347869e+02 0.0000000000e+00 0.0000e+00 -1.0000e+00
<mgrwt>
<rscale>  0 0.19011256E+04</rscale>
<asrwt>0</asrwt>
<pdfrwt beam="1">  1        2 0.29678176E+00 0.19011256E+04</pdfrwt>
<pdfrwt beam="2">  1       -2 0.72060576E-01 0.19011256E+04</pdfrwt>
<totfact> 0.15343071E+01</totfact>
</mgrwt>
<rwgt>
<wgt id='morphing_basis_vector_1'> +1.2296181e-04 </wgt>
<wgt id='morphing_basis_vector_2'> +1.0715239e-04 </wgt>
<wgt id='morphing_basis_vector_3'> +1.3484615e-04 </wgt>
<wgt id='morphing_basis_vector_4'> +6.0717460e-05 </wgt>
<wgt id='morphing_basis_vector_5'> +1.2986418e-04 </wgt>
</rwgt>
</event>
<event>
 4      1 +6.0853000e-08 1.90697000e+03 7.81860800e-03 8.11085600e-02
        2 -1    0    0  501    0 +0.0000000000e+00 +0.0000000000e+00 +1.9998495497e+03 1.9998495497e+03 0.0000000000e+00 0.0000e+00 1.0000e+00
       -2 -1    0    0    0  501 -0.0000000000e+00 -0.0000000000e+00 -4.5460082116e+02 4.5460082116e+02 0.0000000000e+00 0.0000e+00 -1.0000e+00
      -13  1    1    2    0    0 +5.6898609744e+02 -5.5101617519e+02 +8.9409538703e+01 7.9709351397e+02 0.0000000000e+00 0.0000e+00 -1.0000e+00
       13  1    1    2    0    0 -5.6898609744e+02 +5.5101617519e+02 +1.4558391898e+03 1.6573568569e+03 0.0000000000e+00 0.0000e+00 1.0000e+00
<mgrwt>
<rscale>  0 0.19069696E+04</rscale>
<asrwt>0</asrwt>
<pdfrwt beam="1">  1        2 0.30766916E+00 0.19069696E+04</pdfrwt>
<pdfrwt beam="2">  1       -2 0.69938589E-01 0.19069696E+04</pdfrwt>
<totfact> 0.14926021E+01</totfact>
</mgrwt>
<rwgt>
<wgt id='morphing_basis_vector_1'> +1.1357799e-04 </wgt>
<wgt id='morphing_basis_vector_2'> +7.6246798e-05 </wgt>
<wgt id='morphing_basis_vector_3'> +1.2090600e-04 </wgt>
<wgt id='morphing_basis_vector_4'> +8.2932149e-05 </wgt>
<wgt id='morphing_basis_vector_5'> +1.3318307e-04 </wgt>
</rwgt>
</event>
<event>
 4      1 +6.0853000e-08 2.00056400e+03 7.81860800e-03 8.07132700e-02
        2 -1    0    0  501    0 +0.0000000000e+00 +0.0000000000e+00 +8.2227978780e+02 8.2227978780e+02 0.0000000000e+00 0.0000e+00 1.0000e+00
       -2 -1    0    0    0  501 -0.0000000000e+00 -0.0000000000e+00 -1.2168166635e+03 1.2168166635e+03 0.0000000000e+00 0.0000e+00 -1.0000e+00
      -13  1    1    2    0    0 +6.5936611109e+02 +4.6235430205e+02 -8.0201631501e+02 1.1365585505e+03 0.0000000000e+00 0.0000e+00 -1.0000e+00
       13  1    1    2    0    0 -6.5936611109e+02 -4.6235430205e+02 +4.0747943928e+02 9.0253790088e+02 0.0000000000e+00 0.0000e+00 1.0000e+00
<mgrwt>
<rscale>  0 0.20005637E+04</rscale>
<asrwt>0</asrwt>
<pdfrwt beam="1">  1        2 0.12650458E+00 0.20005637E+04</pdfrwt>
<pdfrwt beam="2">  1       -2 0.18720256E+00 0.20005637E+04</pdfrwt>
<totfact> 0.55992884E+00</totfact>
</mgrwt>
<rwgt>
<wgt id='morphing_basis_vector_1'> +1.3692846e-04 </wgt>
<wgt id='morphing_basis_vector_2'> +9.1936401e-05 </wgt>
<wgt id='morphing_basis_vector_3'> +1.4627691e-04 </wgt>
<wgt id='morphing_basis_vector_4'> +1.0101755e-04 </wgt>
<wgt id='morphing_basis_vector_5'> +1.6198696e-04 </wgt>
</rwgt>
</event>
<event>
 4      1 +6.0853000e-08 2.09505900e+03 7.81860800e-03 8.03363500e-02
        2 -1    0    0  501    0 +0.0000000000e+00 +0.0000000000e+00 +9.4753137648e+02 9.4753137648e+02 0.0000000000e+00 0.0000e+00 -1.0000e+00
       -2 -1    0    0    0  501 -0.0000000000e+00 -0.0000000000e+00 -1.1580806500e+03 1.1580806500e+03 0.0000000000e+00 0.0000e+00 1.0000e+00
      -13  1    1    2    0    0 -7.5252709445e+00 -2.5585102206e+02 -1.1261675893e+03 1.1548895247e+03 0.0000000000e+00 0.0000e+00 1.0000e+00
       13  1    1    2    0    0 +7.5252709445e+00 +2.5585102206e+02 +9.1561831575e+02 9.5072250175e+02 0.0000000000e+00 0.0000e+00 -1.0000e+00
<mgrwt>
<rscale>  0 0.20950587E+04</rscale>
<asrwt>0</asrwt>
<pdfrwt beam="1">  1        2 0.14577406E+00 0.20950587E+04</pdfrwt>
<pdfrwt beam="2">  1       -2 0.17816625E+00 0.20950587E+04</pdfrwt>
<totfact> 0.53720773E+00</totfact>
</mgrwt>
<rwgt>
<wgt id='morphing_basis_vector_1'> +1.6367644e-04 </wgt>
<wgt id='morphing_basis_vector_2'> +1.0914006e-04 </wgt>
<wgt id='morphing_basis_vector_3'> +1.7525567e-04 </wgt>
<wgt id='morphing_basis_vector_4'> +1.2277545e-04 </wgt>
<wgt id='morphing_basis_vector_5'> +1.9559037e-04 </wgt>
</rwgt>
</event>
<event>
 4      1 +6.0853000e-08 1.91494300e+03 7.81860800e-03 8.10739700e-02
        2 -1    0    0  501    0 +0.0000000000e+00 +0.0000000000e+00 +6.8440555323e+02 6.8440555323e+02 0.0000000000e+00 0.0000e+00 -1.0000e+00
       -2 -1    0    0    0  501 -0.0000000000e+00 -0.0000000000e+00 -1.3394859928e+03 1.3394859928e+03 0.0000000000e+00 0.0000e+00 1.0000e+00
      -13  1    1    2    0    0 +6.8953429190e+02 +4.8909488007e+02 -8.0264936534e+02 1.1657261021e+03 0.0000000000e+00 0.0000e+00 1.0000e+00
       13  1    1    2    0    0 -6.8953429190e+02 -4.8909488007e+02 +1.4756892572e+02 8.5816544399e+02 0.0000000000e+00 0.0000e+00 -1.0000e+00
<mgrwt>
<rscale>  0 0.19149430E+04</rscale>
<asrwt>0</asrwt>
<pdfrwt beam="1">  1        2 0.10529316E+00 0.19149430E+04</pdfrwt>
<pdfrwt beam="2">  1       -2 0.20607477E+00 0.19149430E+04</pdfrwt>
<totfact> 0.51588401E+00</totfact>
</mgrwt>
<rwgt>
<wgt id='morphing_basis_vector_1'> +1.1567149e-04 </wgt>
<wgt id='morphing_basis_vector_2'> +7.8182961e-05 </wgt>
<wgt id='morphing_basis_vector_3'> +1.2326030e-04 </wgt>
<wgt id='morphing_basis_vector_4'> +8.3914492e-05 </wgt>
<wgt id='morphing_basis_vector_5'> +1.3543975e-04 </wgt>
</rwgt>
</event>
<event>
 4      1 +6.0853000e-08 2.20030700e+03 7.81860800e-03 7.99400800e-02
        2 -1    0    0  501    0 +0.0000000000e+00 +0.0000000000e+00 +2.9706237553e+03 2.9706237553e+03 0.0000000000e+00 0.0000e+00 -1.0000e+00
       -2 -1    0    0    0  501 -0.0000000000e+00 -0.0000000000e+00 -4.0743566852e+02 4.0743566852e+02 0.0000000000e+00 0.0000e+00 1.0000e+00
      -13  1    1    2    0    0 +1.9896382673e+02 -5.9100067940e+02 -1.0989473260e+02 6.3320238443e+02 0.0000000000e+00 0.0000e+00 1.0000e+00
       13  1    1    2    0    0 -1.9896382673e+02 +5.9100067940e+02 +2.6730828194e+03 2.7448570394e+03 0.0000000000e+00 0.0000e+00 -1.0000e+00
<mgrwt>
<rscale>  0 0.22003073E+04</rscale>
<asrwt>0</asrwt>
<pdfrwt beam="1">  1        2 0.45701903E+00 0.22003073E+04</pdfrwt>
<pdfrwt beam="2">  1       -2 0.62682412E-01 0.22003073E+04</pdfrwt>
<totfact> 0.48184825E+00</totfact>
</mgrwt>
<rwgt>
<wgt id='morphing_basis_vector_1'> +1.9851722e-04 </wgt>
<wgt id='morphing_basis_vector_2'> +1.3280603e-04 </wgt>
<wgt id='morphing_basis_vector_3'> +2.1326485e-04 </wgt>
<wgt id='morphing_basis_vector_4'> +1.4971697e-04 </wgt>
<wgt id='morphing_basis_vector_5'> +2.3875950e-04 </wgt>
</rwgt>
</event>
<event>
 4      1 +6.0853000e-08 1.93142800e+03 7.81860800e-03 8.10030100e-02
        2 -1    0    0  501    0 +0.0000000000e+00 +0.0000000000e+00 +1.0067957461e+03 1.0067957461e+03 0.0000000000e+00 0.0000e+00 1.0000e+00
       -2 -1    0    0    0  501 -0.0000000000e+00 -0.0000000000e+00 -9.2630873393e+02 9.2630873393e+02 0.0000000000e+00 0.0000e+00 -1.0000e+00
      -13  1    1    2    0    0 +5.8066908540e+02 -2.0034997795e+02 -7.0557905465e+02 9.3549906615e+02 0.0000000000e+00 0.0000e+00 -1.0000e+00
       13  1    1    2    0    0 -5.8066908540e+02 +2.0034997795e+02 +7.8606606685e+02 9.9760541391e+02 0.0000000000e+00 0.0000e+00 1.0000e+00
<mgrwt>
<rscale>  0 0.19314282E+04</rscale>
<asrwt>0</asrwt>
<pdfrwt beam="1">  1        2 0.15489165E+00 0.19314282E+04</pdfrwt>
<pdfrwt beam="2">  1       -2 0.14250904E+00 0.19314282E+04</pdfrwt>
<totfact> 0.96638574E+00</totfact>
</mgrwt>
<rwgt>
<wgt id='morphing_basis_vector_1'> +1.1907693e-04 </wgt>
<wgt id='morphing_basis_vector_2'> +7.9283723e-05 </wgt>
<wgt id='morphing_basis_vector_3'> +1.2677464e-04 </wgt>
<wgt id='morphing_basis_vector_4'> +8.7972336e-05 </wgt>
<wgt id='morphing_basis_vector_5'> +1.4035283e-04 </wgt>
</rwgt>
</event>
<event>
 4      1 +6.0853000e-08 2.05391400e+03 7.81860800e-03 8.04978800e-02
        2 -1    0    0  501    0 +0.0000000000e+00 +0.0000000000e+00 +3.4793875238e+03 3.4793875238e+03 0.0000000000e+00 0.0000e+00 1.0000e+00
       -2 -1    0    0    0  501 -0.0000000000e+00 -0.0000000000e+00 -3.0311096558e+02 3.0311096558e+02 0.0000000000e+00 0.0000e+00 -1.0000e+00
      -13  1    1    2    0    0 +7.8500261358e+02 +1.3458864316e+02 +3.9421932843e+02 8.8867996777e+02 0.0000000000e+00 0.0000e+00 -1.0000e+00
       13  1    1    2    0    0 -7.8500261358e+02 -1.3458864316e+02 +2.7820572298e+03 2.8938185216e+03 0.0000000000e+00 0.0000e+00 1.0000e+00
<mgrwt>
<rscale>  0 0.20539138E+04</rscale>
<asrwt>0</asrwt>
<pdfrwt beam="1">  1        2 0.53529036E+00 0.20539138E+04</pdfrwt>
<pdfrwt beam="2">  1       -2 0.46632459E-01 0.20539138E+04</pdfrwt>
<totfact> 0.39720532E+00</totfact>
</mgrwt>
<rwgt>
<wgt id='morphing_basis_vector_1'> +1.5172905e-04 </wgt>
<wgt id='morphing_basis_vector_2'> +1.0179855e-04 </wgt>
<wgt id='morphing_basis_vector_3'> +1.6236445e-04 </wgt>
<wgt id='morphing_basis_vector_4'> +1.1262717e-04 </wgt>
<wgt id='morphing_basis_vector_5'> +1.8035504e-04 </wgt>
</rwgt>
</event>
<event>
 4      1 +6.0853000e-08 2.06395200e+03 7.81860800e-03 8.04581100e-02
        2 -1    0    0  501    0 +0.0000000000e+00 +0.0000000000e+00 +2.0551513007e+03 2.0551513007e+03 0.0000000000e+00 0.0000e+00 1.0000e+00
       -2 -1    0    0    0  501 -0.0000000000e+00 -0.0000000000e+00 -5.1819777265e+02 5.1819777265e+02 0.0000000000e+00 0.0000e+00 -1.0000e+00
      -13  1    1    2    0    0 -9.9184019369e+02 -2.3499165802e+02 +9.6954446149e+02 1.4067638437e+03 0.0000000000e+00 0.0000e+00 -1.0000e+00
       13  1    1    2    0    0 +9.9184019369e+02 +2.3499165802e+02 +5.6740906654e+02 1.1665852296e+03 0.0000000000e+00 0.0000e+00 1.0000e+00
<mgrwt>
<rscale>  0 0.20639524E+04</rscale>
<asrwt>0</asrwt>
<pdfrwt beam="1">  1        2 0.31617712E+00 0.20639524E+04</pdfrwt>
<pdfrwt beam="2">  1       -2 0.79722735E-01 0.20639524E+04</pdfrwt>
<totfact> 0.10272332E+01</totfact>
</mgrwt>
<rwgt>
<wgt id='morphing_basis_vector_1'> +1.6409885e-04 </wgt>
<wgt id='morphing_basis_vector_2'> +1.3171871e-04 </wgt>
<wgt id='morphing_basis_vector_3'> +1.7941026e-04 </wgt>
<wgt id='morphing_basis_vector_4'> +9.6010882e-05 </wgt>
<wgt id='morphing_basis_vector_5'> +1.8247873e-04 </wgt>
</rwgt>
</event>
<event>
 4      1 +6.0853000e-08 2.12246300e+03 7.81860800e-03 8.02308900e-02
        2 -1    0    0  501    0 +0.0000000000e+00 +0.0000000000e+00 +1.7143708991e+03 1.7143708991e+03 0.0000000000e+00 0.0000e+00 -1.0000e+00
       -2 -1    0    0    0  501 -0.0000000000e+00 -0.0000000000e+00 -6.5692459888e+02 6.5692459888e+02 0.0000000000e+00 0.0000e+00 1.0000e+00
      -13  1    1    2    0    0 +6.9320913736e+00 -1.0189233112e+03 +1.9737292849e+02 1.0378867187e+03 0.0000000000e+00 0.0000e+00 1.0000e+00
       13  1    1    2    0    0 -6.9320913736e+00 +1.0189233112e+03 +8.6007337173e+02 1.3334087793e+03 0.0000000000e+00 0.0000e+00 -1.0000e+00
<mgrwt>
<rscale>  0 0.21224631E+04</rscale>
<asrwt>0</asrwt>
<pdfrwt beam="1">  1        2 0.26374937E+00 0.21224631E+04</pdfrwt>
<pdfrwt beam="2">  1       -2 0.10106532E+00 0.21224631E+04</pdfrwt>
<totfact> 0.91083587E+00</totfact>
</mgrwt>
<rwgt>
<wgt id='morphing_basis_vector_1'> +1.7438911e-04 </wgt>
<wgt id='morphing_basis_vector_2'> +1.2125463e-04 </wgt>
<wgt id='morphing_basis_vector_3'> +1.8775776e-04 </wgt>
<wgt id='morphing_basis_vector_4'> +1.2514226e-04 </wgt>
<wgt id='morphing_basis_vector_5'> +2.0587817e-04 </wgt>
</rwgt>
</event>
<event>
 4      1 +6.0853000e-08 1.90813100e+03 7.81860800e-03 8.11035100e-02
        2 -1    0    0  501    0 +0.0000000000e+00 +0.0000000000e+00 +1.5980820610e+03 1.5980820610e+03 0.0000000000e+00 0.0000e+00 -1.0000e+00
       -2 -1    0    0    0  501 -0.0000000000e+00 -0.0000000000e+00 -5.6958349875e+02 5.6958349875e+02 0.0000000000e+00 0.0000e+00 1.0000e+00
      -13  1    1    2    0    0 -8.6066284950e+02 +4.1042549487e+02 +4.7741113036e+02 1.0663540757e+03 0.0000000000e+00 0.0000e+00 1.0000e+00
       13  1    1    2    0    0 +8.6066284950e+02 -4.1042549487e+02 +5.5108743188e+02 1.1013114841e+03 0.0000000000e+00 0.0000e+00 -1.0000e+00
<mgrwt>
<rscale>  0 0.19081312E+04</rscale>
<asrwt>0</asrwt>
<pdfrwt beam="1">  1        2 0.24585878E+00 0.19081312E+04</pdfrwt>
<pdfrwt beam="2">  1       -2 0.87628231E-01 0.19081312E+04</pdfrwt>
<totfact> 0.15089040E+01</totfact>
</mgrwt>
<rwgt>
<wgt id='morphing_basis_vector_1'> +1.1714431e-04 </wgt>
<wgt id='morphing_basis_vector_2'> +8.6196930e-05 </wgt>
<wgt id='morphing_basis_vector_3'> +1.2593523e-04 </wgt>
<wgt id='morphing_basis_vector_4'> +7.6634589e-05 </wgt>
<wgt id='morphing_basis_vector_5'> +1.3300569e-04 </wgt>
</rwgt>
</event>
<event>
 4      1 +6.0853000e-08 2.10420900e+03 7.81860800e-03 8.03009500e-02
        2 -1    0    0  501    0 +0.0000000000e+00 +0.0000000000e+00 +1.0923616713e+03 1.0923616713e+03 0.0000000000e+00 0.0000e+00 1.0000e+00
       -2 -1    0    0    0  501 -0.0000000000e+00 -0.0000000000e+00 -1.0133313825e+03 1.0133313825e+03 0.0000000000e+00 0.0000e+00 -1.0000e+00
      -13  1    1    2    0    0 +3.6345983743e+02 -9.2929725253e+02 -2.9422850819e+02 1.0403205525e+03 0.0000000000e+00 0.0000e+00 -1.0000e+00
       13  1    1    2    0    0 -3.6345983743e+02 +9.2929725253e+02 +3.7325879694e+02 1.0653725013e+03 0.0000000000e+00 0.0000e+00 1.0000e+00
<mgrwt>
<rscale>  0 0.21042095E+04</rscale>
<asrwt>0</asrwt>
<pdfrwt beam="1">  1        2 0.16805564E+00 0.21042095E+04</pdfrwt>
<pdfrwt beam="2">  1       -2 0.15589713E+00 0.21042095E+04</pdfrwt>
<totfact> 0.65359711E+00</totfact>
</mgrwt>
<rwgt>
<wgt id='morphing_basis_vector_1'> +1.6826641e-04 </wgt>
<wgt id='morphing_basis_vector_2'> +1.1626528e-04 </wgt>
<wgt id='morphing_basis_vector_3'> +1.8093527e-04 </wgt>
<wgt id='morphing_basis_vector_4'> +1.2143357e-04 </wgt>
<wgt id='morphing_basis_vector_5'> +1.9881202e-04 </wgt>
</rwgt>
</event>
<event>
 4      1 +6.0853000e-08 1.93530100e+03 7.81860800e-03 8.09864500e-02
        2 -1    0    0  501    0 +0.0000000000e+00 +0.0000000000e+00 +2.6152785213e+03 2.6152785213e+03 0.0000000000e+00 0.0000e+00 -1.0000e+00
       -2 -1    0    0    0  501 -0.0000000000e+00 -0.0000000000e+00 -3.5802983875e+02 3.5802983875e+02 0.0000000000e+00 0.0000e+00 1.0000e+00
      -13  1    1    2    0    0 +9.1527376878e+02 +2.5812222445e+02 +8.5381615600e+02 1.2780278490e+03 0.0000000000e+00 0.0000e+00 1.0000e+00
       13  1    1    2    0    0 -9.1527376878e+02 -2.5812222445e+02 +1.4034325266e+03 1.6952805111e+03 0.0000000000e+00 0.0000e+00 -1.0000e+00
<mgrwt>
<rscale>  0 0.19353013E+04</rscale>
<asrwt>0</asrwt>
<pdfrwt beam="1">  1        2 0.40235053E+00 0.19353013E+04</pdfrwt>
<pdfrwt beam="2">  1       -2 0.55081515E-01 0.19353013E+04</pdfrwt>
<totfact> 0.10720632E+01</totfact>
</mgrwt>
<rwgt>
<wgt id='morphing_basis_vector_1'> +1.2212213e-04 </wgt>
<wgt id='morphing_basis_vector_2'> +8.6160742e-05 </wgt>
<wgt id='morphing_basis_vector_3'> +1.3083377e-04 </wgt>
<wgt id='morphing_basis_vector_4'> +8.4524094e-05 </wgt>
<wgt id='morphing_basis_vector_5'> +1.4117909e-04 </wgt>
</rwgt>
</event>
<event>
 4      1 +6.0853000e-08 2.16864700e+03 7.81860800e-03 8.00568300e-02
        2 -1    0    0  501    0 +0.0000000000e+00 +0.0000000000e+00 +1.3601476594e+03 1.3601476594e+03 0.0000000000e+00 0.0000e+00 -1.0000e+00
       -2 -1    0    0    0  501 -0.0000000000e+00 -0.0000000000e+00 -8.6443374680e+02 8.6443374680e+02 0.0000000000e+00 0.0000e+00 1.0000e+00
      -13  1    1    2    0    0 -8.1789524587e+01 -9.6914270050e+02 -2.4391435900e+02 1.0027069935e+03 0.0000000000e+00 0.0000e+00 1.0000e+00
       13  1    1    2    0    0 +8.1789524587e+01 +9.6914270050e+02 +7.3962827160e+02 1.2218744127e+03 0.0000000000e+00 0.0000e+00 -1.0000e+00
<mgrwt>
<rscale>  0 0.21686471E+04</rscale>
<asrwt>0</asrwt>
<pdfrwt beam="1">  1        2 0.20925349E+00 0.21686471E+04</pdfrwt>
<pdfrwt beam="2">  1       -2 0.13298981E+00 0.21686471E+04</pdfrwt>
<totfact> 0.70921982E+00</totfact>
</mgrwt>
<rwgt>
<wgt id='morphing_basis_vector_1'> +1.8857045e-04 </wgt>
<wgt id='morphing_basis_vector_2'> +1.2848241e-04 </wgt>
<wgt id='morphing_basis_vector_3'> +2.0282803e-04 </wgt>
<wgt id='morphing_basis_vector_4'> +1.3903496e-04 </wgt>
<wgt id='morphing_basis_vector_5'> +2.2492251e-04 </wgt>
</rwgt>
</event>
<event>
 4      1 +6.0853000e-08 2.08757600e+03 7.81860800e-03 8.03654400e-02
        2 -1    0    0  501    0 +0.0000000000e+00 +0.0000000000e+00 +3.0969672213e+03 3.0969672213e+03 0.0000000000e+00 0.0000e+00 1.0000e+00
       -2 -1    0    0    0  501 -0.0000000000e+00 -0.0000000000e+00 -3.5179376980e+02 3.5179376980e+02 0.0000000000e+00 0.0000e+00 -1.0000e+00
      -13  1    1    2    0    0 +6.9091128315e+02 +3.4969295893e+02 +2.1633505434e+02 8.0401767546e+02 0.0000000000e+00 0.0000e+00 -1.0000e+00
       13  1    1    2    0    0 -6.9091128315e+02 -3.4969295893e+02 +2.5288383972e+03 2.6447433156e+03 0.0000000000e+00 0.0000e+00 1.0000e+00
<mgrwt>
<rscale>  0 0.20875764E+04</rscale>
<asrwt>0</asrwt>
<pdfrwt beam="1">  1        2 0.47645648E+00 0.20875764E+04</pdfrwt>
<pdfrwt beam="2">  1       -2 0.54122121E-01 0.20875764E+04</pdfrwt>
<totfact> 0.54306280E+00</totfact>
</mgrwt>
<rwgt>
<wgt id='morphing_basis_vector_1'> +1.6164572e-04 </wgt>
<wgt id='morphing_basis_vector_2'> +1.0834753e-04 </wgt>
<wgt id='morphing_basis_vector_3'> +1.7314050e-04 </wgt>
<wgt id='morphing_basis_vector_4'> +1.2049468e-04 </wgt>
<wgt id='morphing_basis_vector_5'> +1.9272025e-04 </wgt>
</rwgt>
</event>
<event>
 4      1 +6.0853000e-08 2.10654100e+03 7.81860800e-03 8.02919600e-02
        2 -1    0    0  501    0 +0.0000000000e+00 +0.0000000000e+00 +1.8661922393e+03 1.8661922393e+03 0.0000000000e+00 0.0000e+00 1.0000e+00
       -2 -1    0    0    0  501 -0.0000000000e+00 -0.0000000000e+00 -5.9446105427e+02 5.9446105427e+02 0.0000000000e+00 0.0000e+00 -1.0000e+00
      -13  1    1    2    0    0 -1.5783372856e+02 +3.3910731276e+02 -5.1426849372e+02 6.3590670626e+02 0.0000000000e+00 0.0000e+00 -1.0000e+00
       13  1    1    2    0    0 +1.5783372856e+02 -3.3910731276e+02 +1.7859996787e+03 1.8247465873e+03 0.0000000000e+00 0.0000e+00 1.0000e+00
<mgrwt>
<rscale>  0 0.21065409E+04</rscale>
<asrwt>0</asrwt>
<pdfrwt beam="1">  1        2 0.28710650E+00 0.21065409E+04</pdfrwt>
<pdfrwt beam="2">  1       -2 0.91455548E-01 0.21065409E+04</pdfrwt>
<totfact> 0.95185932E+00</totfact>
</mgrwt>
<rwgt>
<wgt id='morphing_basis_vector_1'> +1.6723325e-04 </wgt>
<wgt id='morphing_basis_vector_2'> +1.1155176e-04 </wgt>
<wgt id='morphing_basis_vector_3'> +1.7913239e-04 </wgt>
<wgt id='morphing_basis_vector_4'> +1.2552540e-04 </wgt>
<wgt id='morphing_basis_vector_5'> +1.9999230e-04 </wgt>
</rwgt>
</event>
<event>
 4      1 +6.0853000e-08 2.01939200e+03 7.81860800e-03 8.06364600e-02
        2 -1    0    0  501    0 +0.0000000000e+00 +0.0000000000e+00 +6.6040940328e+02 6.6040940328e+02 0.0000000000e+00 0.0000e+00 1.0000e+00
       -2 -1    0    0    0  501 -0.0000000000e+00 -0.0000000000e+00 -1.5437183894e+03 1.5437183894e+03 0.0000000000e+00 0.0000e+00 -1.0000e+00
      -13  1    1    2    0    0 -2.3306615339e+02 -4.8229514297e+02 -1.3758484035e+03 1.4764441290e+03 0.0000000000e+00 0.0000e+00 -1.0000e+00
       13  1    1    2    0    0 +2.3306615339e+02 +4.8229514297e+02 +4.9253941732e+02 7.2768366369e+02 0.0000000000e+00 0.0000e+00 1.0000e+00
<mgrwt>
<rscale>  0 0.20193921E+04</rscale>
<asrwt>0</asrwt>
<pdfrwt beam="1">  1        2 0.10160145E+00 0.20193921E+04</pdfrwt>
<pdfrwt beam="2">  1       -2 0.23749514E+00 0.20193921E+04</pdfrwt>
<totfact> 0.31950701E+00</totfact>
</mgrwt>
<rwgt>
<wgt id='morphing_basis_vector_1'> +1.4171682e-04 </wgt>
<wgt id='morphing_basis_vector_2'> +9.4429485e-05 </wgt>
<wgt id='morphing_basis_vector_3'> +1.5136686e-04 </wgt>
<wgt id='morphing_basis_vector_4'> +1.0561438e-04 </wgt>
<wgt id='morphing_basis_vector_5'> +1.6834999e-04 </wgt>
</rwgt>
</event>
<event>
 4      1 +6.0853000e-08 1.89152000e+03 7.81860800e-03 8.11760800e-02
        2 -1    0    0  501    0 +0.0000000000e+00 +0.0000000000e+00 +2.5633173835e+03 2.5633173835e+03 0.0000000000e+00 0.0000e+00 -1.0000e+00
       -2 -1    0    0    0  501 -0.0000000000e+00 -0.0000000000e+00 -3.4894688593e+02 3.4894688593e+02 0.0000000000e+00 0.0000e+00 1.0000e+00
      -13  1    1    2    0    0 +6.2849936463e+02 +5.5897744339e+02 +4.4139992988e+02 9.4989532668e+02 0.0000000000e+00 0.0000e+00 1.0000e+00
       13  1    1    2    0    0 -6.2849936463e+02 -5.5897744339e+02 +1.7729705676e+03 1.9623689427e+03 0.0000000000e+00 0.0000e+00 -1.0000e+00
<mgrwt>
<rscale>  0 0.18915196E+04</rscale>
<asrwt>0</asrwt>
<pdfrwt beam="1">  1        2 0.39435651E+00 0.18915196E+04</pdfrwt>
<pdfrwt beam="2">  1       -2 0.53684138E-01 0.18915196E+04</pdfrwt>
<totfact> 0.12181088E+01</totfact>
</mgrwt>
<rwgt>
<wgt id='morphing_basis_vector_1'> +1.1027186e-04 </wgt>
<wgt id='morphing_basis_vector_2'> +7.4570587e-05 </wgt>
<wgt id='morphing_basis_vector_3'> +1.1740020e-04 </wgt>
<wgt id='morphing_basis_vector_4'> +7.9727617e-05 </wgt>
<wgt id='morphing_basis_vector_5'> +1.2878670e-04 </wgt>
</rwgt>
</event>
<event>
 4      1 +6.0853000e-08 1.96256700e+03 7.81860800e-03 8.08709800e-02
        2 -1    0    0  501    0 +0.0000000000e+00 +0.0000000000e+00 +1.3689890219e+03 1.3689890219e+03 0.0000000000e+00 0.0000e+00 -1.0000e+00
       -2 -1    0    0    0  501 -0.0000000000e+00 -0.0000000000e+00 -7.0337816147e+02 7.0337816147e+02 0.0000000000e+00 0.0000e+00 1.0000e+00
      -13  1    1    2    0    0 -5.1691140723e+02 -4.9541117422e+02 -3.7577174660e+02 8.0860004947e+02 0.0000000000e+00 0.0000e+00 1.0000e+00
       13  1    1    2    0    0 +5.1691140723e+02 +4.9541117422e+02 +1.0413826070e+03 1.2637671339e+03 0.0000000000e+00 0.0000e+00 -1.0000e+00
<mgrwt>
<rscale>  0 0.19625667E+04</rscale>
<asrwt>0</asrwt>
<pdfrwt beam="1">  1        2 0.21061370E+00 0.19625667E+04</pdfrwt>
<pdfrwt beam="2">  1       -2 0.10821202E+00 0.19625667E+04</pdfrwt>
<totfact> 0.12182677E+01</totfact>
</mgrwt>
<rwgt>
<wgt id='morphing_basis_vector_1'> +1.2686616e-04 </wgt>
<wgt id='morphing_basis_vector_2'> +8.4754804e-05 </wgt>
<wgt id='morphing_basis_vector_3'> +1.3527234e-04 </wgt>
<wgt id='morphing_basis_vector_4'> +9.3718745e-05 </wgt>
<wgt id='morphing_basis_vector_5'> +1.4981426e-04 </wgt>
</rwgt>
</event>
<event>
 4      1 +6.0853000e-08 1.95868300e+03 7.81860800e-03 8.08873100e-02
        2 -1    0    0  501    0 +0.0000000000e+00 +0.0000000000e+00 +1.4827328778e+03 1.4827328778e+03 0.0000000000e+00 0.0000e+00 1.0000e+00
       -2 -1    0    0    0  501 -0.0000000000e+00 -0.0000000000e+00 -6.4685255375e+02 6.4685255375e+02 0.0000000000e+00 0.0000e+00 -1.0000e+00
      -13  1    1    2    0    0 +2.7425311085e+02 -2.5510619803e+01 +1.4397528925e+03 1.4658628695e+03 0.0000000000e+00 0.0000e+00 1.0000e+00
       13  1    1    2    0    0 -2.7425311085e+02 +2.5510619803e+01 -6.0387256845e+02 6.6372256211e+02 0.0000000000e+00 0.0000e+00 -1.0000e+00
<mgrwt>
<rscale>  0 0.19586828E+04</rscale>
<asrwt>0</asrwt>
<pdfrwt beam="1">  1        2 0.22811275E+00 0.19586828E+04</pdfrwt>
<pdfrwt beam="2">  1       -2 0.99515778E-01 0.19586828E+04</pdfrwt>
<totfact> 0.12912352E+01</totfact>
</mgrwt>
<rwgt>
<wgt id='morphing_basis_vector_1'> +1.7202986e-04 </wgt>
<wgt id='morphing_basis_vector_2'> +2.2076784e-04 </wgt>
<wgt id='morphing_basis_vector_3'> +2.0100231e-04 </wgt>
<wgt id='morphing_basis_vector_4'> +1.4716588e-06 </wgt>
<wgt id='morphing_basis_vector_5'> +1.4141088e-04 </wgt>
</rwgt>
</event>
<event>
 4      1 +6.0853000e-08 1.96084200e+03 7.81860800e-03 8.08782200e-02
        2 -1    0    0  501    0 +0.0000000000e+00 +0.0000000000e+00 +3.4975437029e+03 3.4975437029e+03 0.0000000000e+00 0.0000e+00 -1.0000e+00
       -2 -1    0    0    0  501 -0.0000000000e+00 -0.0000000000e+00 -2.7482870751e+02 2.7482870751e+02 0.0000000000e+00 0.0000e+00 1.0000e+00
      -13  1    1    2    0    0 -7.7327244257e+02 -5.9414207021e+02 +1.4163889915e+03 1.7196257864e+03 0.0000000000e+00 0.0000e+00 1.0000e+00
       13  1    1    2    0    0 +7.7327244257e+02 +5.9414207021e+02 +1.8063260039e+03 2.0527466240e+03 0.0000000000e+00 0.0000e+00 -1.0000e+00
<mgrwt>
<rscale>  0 0.19608421E+04</rscale>
<asrwt>0</asrwt>
<pdfrwt beam="1">  1        2 0.53808362E+00 0.19608421E+04</pdfrwt>
<pdfrwt beam="2">  1       -2 0.42281342E-01 0.19608421E+04</pdfrwt>
<totfact> 0.46903032E+00</totfact>
</mgrwt>
<rwgt>
<wgt id='morphing_basis_vector_1'> +1.2940391e-04 </wgt>
<wgt id='morphing_basis_vector_2'> +9.3267874e-05 </wgt>
<wgt id='morphing_basis_vector_3'> +1.3910429e-04 </wgt>
<wgt id='morphing_basis_vector_4'> +8.7485746e-05 </wgt>
<wgt id='morphing_basis_vector_5'> +1.4881342e-04 </wgt>
</rwgt>
</event>
<event>
 4      1 +6.0853000e-08 1.97228000e+03 7.81860800e-03 8.08303100e-02
        2 -1    0    0  501    0 +0.0000000000e+00 +0.0000000000e+00 +8.0556281585e+02 8.0556281585e+02 0.0000000000e+00 0.0000e+00 -1.0000e+00
       -2 -1    0    0    0  501 -0.0000000000e+00 -0.0000000000e+00 -1.2071964695e+03 1.2071964695e+03 0.0000000000e+00 0.0000e+00 1.0000e+00
      -13  1    1    2    0    0 -1.2789735906e+02 +6.0852614419e+02 -9.8190819874e+02 1.1622415899e+03 0.0000000000e+00 0.0000e+00 1.0000e+00
       13  1    1    2    0    0 +1.2789735906e+02 -6.0852614419e+02 +5.8027454506e+02 8.5051769544e+02 0.0000000000e+00 0.0000e+00 -1.0000e+00
<mgrwt>
<rscale>  0 0.19722805E+04</rscale>
<asrwt>0</asrwt>
<pdfrwt beam="1">  1        2 0.12393274E+00 0.19722805E+04</pdfrwt>
<pdfrwt beam="2">  1       -2 0.18572253E+00 0.19722805E+04</pdfrwt>
<totfact> 0.59131731E+00</totfact>
</mgrwt>
<rwgt>
<wgt id='morphing_basis_vector_1'> +1.2924238e-04 </wgt>
<wgt id='morphing_basis_vector_2'> +8.6131218e-05 </wgt>
<wgt id='morphing_basis_vector_3'> +1.3781944e-04 </wgt>
<wgt id='morphing_basis_vector_4'> +9.5826395e-05 </wgt>
<wgt id='morphing_basis_vector_5'> +1.5288108e-04 </wgt>
</rwgt>
</event>
<event>
 4      1 +6.0853000e-08 2.04161000e+03 7.81860800e-03 8.05469400e-02
        2 -1    0    0  501    0 +0.0000000000e+00 +0.0000000000e+00 +2.4852618319e+03 2.4852618319e+03 0.0000000000e+00 0.0000e+00 -1.0000e+00
       -2 -1    0    0    0  501 -0.0000000000e+00 -0.0000000000e+00 -4.1928905022e+02 4.1928905022e+02 0.0000000000e+00 0.0000e+00 1.0000e+00
      -13  1    1    2    0    0 +6.3857124973e+02 +7.9544344546e+02 +9.7716456182e+02 1.4125700325e+03 0.0000000000e+00 0.0000e+00 1.0000e+00
       13  1    1    2    0    0 -6.3857124973e+02 -7.9544344546e+02 +1.0888082199e+03 1.4919808496e+03 0.0000000000e+00 0.0000e+00 -1.0000e+00
<mgrwt>
<rscale>  0 0.20416102E+04</rscale>
<asrwt>0</asrwt>
<pdfrwt beam="1">  1        2 0.38234796E+00 0.20416102E+04</pdfrwt>
<pdfrwt beam="2">  1       -2 0.64506010E-01 0.20416102E+04</pdfrwt>
<totfact> 0.91935324E+00</totfact>
</mgrwt>
<rwgt>
<wgt id='morphing_basis_vector_1'> +1.5259429e-04 </wgt>
<wgt id='morphing_basis_vector_2'> +1.1242243e-04 </wgt>
<wgt id='morphing_basis_vector_3'> +1.6495383e-04 </wgt>
<wgt id='morphing_basis_vector_4'> +1.0112047e-04 </wgt>
<wgt id='morphing_basis_vector_5'> +1.7529576e-04 </wgt>
</rwgt>
</event>
<event>
 4      1 +6.0853000e-08 2.15222200e+03 7.81860800e-03 8.01182100e-02
        2 -1    0    0  501    0 +0.0000000000e+00 +0.0000000000e+00 +8.4823599796e+02 8.4823599796e+02 0.0000000000e+00 0.0000e+00 -1.0000e+00
       -2 -1    0    0    0  501 -0.0000000000e+00 -0.0000000000e+00 -1.3652037472e+03 1.3652037472e+03 0.0000000000e+00 0.0000e+00 1.0000e+00
      -13  1    1    2    0    0 +6.2968901590e+02 +2.1683868767e+02 -1.1278005252e+03 1.3097561979e+03 0.0000000000e+00 0.0000e+00 1.0000e+00
       13  1    1    2    0    0 -6.2968901590e+02 -2.1683868767e+02 +6.1083277605e+02 9.0368354721e+02 0.0000000000e+00 0.0000e+00 -1.0000e+00
<mgrwt>
<rscale>  0 0.21522221E+04</rscale>
<asrwt>0</asrwt>
<pdfrwt beam="1">  1        2 0.13049785E+00 0.21522221E+04</pdfrwt>
<pdfrwt beam="2">  1       -2 0.21003134E+00 0.21522221E+04</pdfrwt>
<totfact> 0.36092305E+00</totfact>
</mgrwt>
<rwgt>
<wgt id='morphing_basis_vector_1'> +1.8203707e-04 </wgt>
<wgt id='morphing_basis_vector_2'> +1.2175972e-04 </wgt>
<wgt id='morphing_basis_vector_3'> +1.9530409e-04 </wgt>
<wgt id='morphing_basis_vector_4'> +1.3677743e-04 </wgt>
<wgt id='morphing_basis_vector_5'> +2.1822879e-04 </wgt>
</rwgt>
</event>
<event>
 4      1 +6.0853000e-08 1.86907900e+03 7.81860800e-03 8.12753700e-02
        2 -1    0    0  501    0 +0.0000000000e+00 +0.0000000000e+00 +1.6689083583e+03 1.6689083583e+03 0.0000000000e+00 0.0000e+00 -1.0000e+00
       -2 -1    0    0    0  501 -0.0000000000e+00 -0.0000000000e+00 -5.2331469685e+02 5.2331469685e+02 0.0000000000e+00 0.0000e+00 1.0000e+00
      -13  1    1    2    0    0 -7.2241429633e+00 +7.4642089767e+02 +1.2322985624e+03 1.4407484484e+03 0.0000000000e+00 0.0000e+00 1.0000e+00
       13  1    1    2    0    0 +7.2241429633e+00 -7.4642089767e+02 -8.6704900946e+01 7.5147460674e+02 0.0000000000e+00 0.0000e+00 -1.0000e+00
<mgrwt>
<rscale>  0 0.18690792E+04</rscale>
<asrwt>0</asrwt>
<pdfrwt beam="1">  1        2 0.25675513E+00 0.18690792E+04</pdfrwt>
<pdfrwt beam="2">  1       -2 0.80509954E-01 0.18690792E+04</pdfrwt>
<totfact> 0.16796405E+01</totfact>
</mgrwt>
<rwgt>
<wgt id='morphing_basis_vector_1'> +1.2940905e-04 </wgt>
<wgt id='morphing_basis_vector_2'> +1.4276544e-04 </wgt>
<wgt id='morphing_basis_vector_3'> +1.4643828e-04 </wgt>
<wgt id='morphing_basis_vector_4'> +2.8422339e-05 </wgt>
<wgt id='morphing_basis_vector_5'> +1.1894169e-04 </wgt>
</rwgt>
</event>
<event>
 4      1 +6.0853000e-08 1.89268600e+03 7.81860800e-03 8.11709600e-02
        2 -1    0    0  501    0 +0.0000000000e+00 +0.0000000000e+00 +1.9951089569e+03 1.9951089569e+03 0.0000000000e+00 0.0000e+00 -1.0000e+00
       -2 -1    0    0    0  501 -0.0000000000e+00 -0.0000000000e+00 -4.4888043538e+02 4.4888043538e+02 0.0000000000e+00 0.0000e+00 1.0000e+00
      -13  1    1    2    0    0 -1.8938404044e+02 +3.0526525069e+02 -3.5741083137e+02 5.0675012623e+02 0.0000000000e+00 0.0000e+00 1.0000e+00
       13  1    1    2    0    0 +1.8938404044e+02 -3.0526525069e+02 +1.9036393529e+03 1.9372392660e+03 0.0000000000e+00 0.0000e+00 -1.0000e+00
<mgrwt>
<rscale>  0 0.18926863E+04</rscale>
<asrwt>0</asrwt>
<pdfrwt beam="1">  1        2 0.30693984E+00 0.18926863E+04</pdfrwt>
<pdfrwt beam="2">  1       -2 0.69058529E-01 0.18926863E+04</pdfrwt>
<totfact> 0.15449365E+01</totfact>
</mgrwt>
<rwgt>
<wgt id='morphing_basis_vector_1'> +1.0993579e-04 </wgt>
<wgt id='morphing_basis_vector_2'> +7.2967858e-05 </wgt>
<wgt id='morphing_basis_vector_3'> +1.1682644e-04 </wgt>
<wgt id='morphing_basis_vector_4'> +8.1115685e-05 </wgt>
<wgt id='morphing_basis_vector_5'> +1.2920475e-04 </wgt>
</rwgt>
</event>
<event>
 4      1 +6.0853000e-08 2.00289100e+03 7.81860800e-03 8.07037300e-02
        2 -1    0    0  501    0 +0.0000000000e+00 +0.0000000000e+00 +1.7950182602e+03 1.7950182602e+03 0.0000000000e+00 0.0000e+00 1.0000e+00
       -2 -1    0    0    0  501 -0.0000000000e+00 -0.0000000000e+00 -5.5870899429e+02 5.5870899429e+02 0.0000000000e+00 0.0000e+00 -1.0000e+00
      -13  1    1    2    0    0 +7.3799360031e+02 +4.6484918460e+02 +3.9842627234e+01 8.7310180018e+02 0.0000000000e+00 0.0000e+00 -1.0000e+00
       13  1    1    2    0    0 -7.3799360031e+02 -4.6484918460e+02 +1.1964666387e+03 1.4806254543e+03 0.0000000000e+00 0.0000e+00 1.0000e+00
<mgrwt>
<rscale>  0 0.20028908E+04</rscale>
<asrwt>0</asrwt>
<pdfrwt beam="1">  1        2 0.27615665E+00 0.20028908E+04</pdfrwt>
<pdfrwt beam="2">  1       -2 0.85955231E-01 0.20028908E+04</pdfrwt>
<totfact> 0.12159544E+01</totfact>
</mgrwt>
<rwgt>
<wgt id='morphing_basis_vector_1'> +1.3783259e-04 </wgt>
<wgt id='morphing_basis_vector_2'> +9.3186650e-05 </wgt>
<wgt id='morphing_basis_vector_3'> +1.4736367e-04 </wgt>
<wgt id='morphing_basis_vector_4'> +1.0094270e-04 </wgt>
<wgt id='morphing_basis_vector_5'> +1.6271340e-04 </wgt>
</rwgt>
</event>
<event>
 4      1 +6.0853000e-08 1.87871400e+03 7.81860800e-03 8.12325600e-02
        2 -1    0    0  501    0 +0.0000000000e+00 +0.0000000000e+00 +4.2148784843e+03 4.2148784843e+03 0.0000000000e+00 0.0000e+00 1.0000e+00
       -2 -1    0    0    0  501 -0.0000000000e+00 -0.0000000000e+00 -2.0935165746e+02 2.0935165746e+02 0.0000000000e+00 0.0000e+00 -1.0000e+00
      -13  1    1    2    0    0 +6.8096585502e+02 +9.4044707926e+01 +4.9518333500e+02 8.4721038594e+02 0.0000000000e+00 0.0000e+00 -1.0000e+00
       13  1    1    2    0    0 -6.8096585502e+02 -9.4044707926e+01 +3.5103434918e+03 3.5770197558e+03 0.0000000000e+00 0.0000e+00 1.0000e+00
<mgrwt>
<rscale>  0 0.18787142E+04</rscale>
<asrwt>0</asrwt>
<pdfrwt beam="1">  1        2 0.64844278E+00 0.18787142E+04</pdfrwt>
<pdfrwt beam="2">  1       -2 0.32207950E-01 0.18787142E+04</pdfrwt>
<totfact> 0.20470105E+00</totfact>
</mgrwt>
<rwgt>
<wgt id='morphing_basis_vector_1'> +1.0694516e-04 </wgt>
<wgt id='morphing_basis_vector_2'> +7.1296338e-05 </wgt>
<wgt id='morphing_basis_vector_3'> +1.1363331e-04 </wgt>
<wgt id='morphing_basis_vector_4'> +7.8404096e-05 </wgt>
<wgt id='morphing_basis_vector_5'> +1.2532429e-04 </wgt>
</rwgt>
</event>
<event>
 4      1 +6.0853000e-08 1.97249300e+03 7.81860800e-03 8.08294200e-02
        2 -1    0    0  501    0 +0.0000000000e+00 +0.0000000000e+00 +8.7587415057e+02 8.7587415057e+02 0.0000000000e+00 0.0000e+00 -1.0000e+00
       -2 -1    0    0    0  501 -0.0000000000e+00 -0.0000000000e+00 -1.1105273082e+03 1.1105273082e+03 0.0000000000e+00 0.0000e+00 1.0000e+00
      -13  1    1    2    0    0 -7.1887456096e+02 -2.0660324824e+02 -7.6467850958e+02 1.0696722674e+03 0.0000000000e+00 0.0000e+00 1.0000e+00
       13  1    1    2    0    0 +7.1887456096e+02 +2.0660324824e+02 +5.3002535198e+02 9.1672919137e+02 0.0000000000e+00 0.0000e+00 -1.0000e+00
<mgrwt>
<rscale>  0 0.19724930E+04</rscale>
<asrwt>0</asrwt>
<pdfrwt beam="1">  1        2 0.13474987E+00 0.19724930E+04</pdfrwt>
<pdfrwt beam="2">  1       -2 0.17085035E+00 0.19724930E+04</pdfrwt>
<totfact> 0.68818660E+00</totfact>
</mgrwt>
<rwgt>
<wgt id='morphing_basis_vector_1'> +1.2944565e-04 </wgt>
<wgt id='morphing_basis_vector_2'> +8.6608430e-05 </wgt>
<wgt id='morphing_basis_vector_3'> +1.3809443e-04 </wgt>
<wgt id='morphing_basis_vector_4'> +9.5573323e-05 </wgt>
<wgt id='morphing_basis_vector_5'> +1.5292510e-04 </wgt>
</rwgt>
</event>
<event>
 4      1 +6.0853000e-08 1.86986700e+03 7.81860800e-03 8.12718600e-02
        2 -1    0    0  501    0 +0.0000000000e+00 +0.0000000000e+00 +1.6420108595e+03 1.6420108595e+03 0.0000000000e+00 0.0000e+00 -1.0000e+00
       -2 -1    0    0    0  501 -0.0000000000e+00 -0.0000000000e+00 -5.3233548092e+02 5.3233548092e+02 0.0000000000e+00 0.0000e+00 1.0000e+00
      -13  1    1    2    0    0 -8.0772700815e+02 -2.2474412131e+02 +7.3744684394e+01 8.4164785880e+02 0.0000000000e+00 0.0000e+00 1.0000e+00
       13  1    1    2    0    0 +8.0772700815e+02 +2.2474412131e+02 +1.0359306942e+03 1.3326984816e+03 0.0000000000e+00 0.0000e+00 -1.0000e+00
<mgrwt>
<rscale>  0 0.18698670E+04</rscale>
<asrwt>0</asrwt>
<pdfrwt beam="1">  1        2 0.25261705E+00 0.18698670E+04</pdfrwt>
<pdfrwt beam="2">  1       -2 0.81897767E-01 0.18698670E+04</pdfrwt>
<totfact> 0.16721077E+01</totfact>
</mgrwt>
<rwgt>
<wgt id='morphing_basis_vector_1'> +1.0546285e-04 </wgt>
<wgt id='morphing_basis_vector_2'> +7.1376822e-05 </wgt>
<wgt id='morphing_basis_vector_3'> +1.1218678e-04 </wgt>
<wgt id='morphing_basis_vector_4'> +7.5976160e-05 </wgt>
<wgt id='morphing_basis_vector_5'> +1.2285427e-04 </wgt>
</rwgt>
</event>
<event>
 4      1 +6.0853000e-08 1.87543700e+03 7.81860800e-03 8.12470900e-02
        2 -1    0    0  501    0 +0.0000000000e+00 +0.0000000000e+00 +2.5248600961e+03 2.5248600961e+03 0.0000000000e+00 0.0000e+00 -1.0000e+00
       -2 -1    0    0    0  501 -0.0000000000e+00 -0.0000000000e+00 -3.4826322878e+02 3.4826322878e+02 0.0000000000e+00 0.0000e+00 1.0000e+00
      -13  1    1    2    0    0 -5.2216890321e+02 +5.3872378024e+02 +2.2652683981e+02 7.8370790734e+02 0.0000000000e+00 0.0000e+00 1.0000e+00
       13  1    1    2    0    0 +5.2216890321e+02 -5.3872378024e+02 +1.9500700276e+03 2.0894154176e+03 0.0000000000e+00 0.0000e+00 -1.0000e+00
<mgrwt>
<rscale>  0 0.18754369E+04</rscale>
<asrwt>0</asrwt>
<pdfrwt beam="1">  1        2 0.38844000E+00 0.18754369E+04</pdfrwt>
<pdfrwt beam="2">  1       -2 0.53578960E-01 0.18754369E+04</pdfrwt>
<totfact> 0.12913973E+01</totfact>
</mgrwt>
<rwgt>
<wgt id='morphing_basis_vector_1'> +1.0633126e-04 </wgt>
<wgt id='morphing_basis_vector_2'> +7.1141265e-05 </wgt>
<wgt id='morphing_basis_vector_3'> +1.1300611e-04 </wgt>
<wgt id='morphing_basis_vector_4'> +7.7623249e-05 </wgt>
<wgt id='morphing_basis_vector_5'> +1.2441473e-04 </wgt>
</rwgt>
</event>
<event>
 4      1 +6.0853000e-08 1.98439000e+03 7.81860800e-03 8.07799500e-02
        2 -1    0    0  501    0 +0.0000000000e+00 +0.0000000000e+00 +9.4831816914e+02 9.4831816914e+02 0.0000000000e+00 0.0000e+00 -1.0000e+00
       -2 -1    0    0    0  501 -0.0000000000e+00 -0.0000000000e+00 -1.0381021384e+03 1.0381021384e+03 0.0000000000e+00 0.0000e+00 1.0000e+00
      -13  1    1    2    0    0 +6.0774344927e+02 +4.4503661786e+02 -6.9134009708e+02 1.0224288832e+03 0.0000000000e+00 0.0000e+00 1.0000e+00
       13  1    1    2    0    0 -6.0774344927e+02 -4.4503661786e+02 +6.0155612779e+02 9.6399142437e+02 0.0000000000e+00 0.0000e+00 -1.0000e+00
<mgrwt>
<rscale>  0 0.19843902E+04</rscale>
<asrwt>0</asrwt>
<pdfrwt beam="1">  1        2 0.14589510E+00 0.19843902E+04</pdfrwt>
<pdfrwt beam="2">  1       -2 0.15970802E+00 0.19843902E+04</pdfrwt>
<totfact> 0.75520632E+00</totfact>
</mgrwt>
<rwgt>
<wgt id='morphing_basis_vector_1'> +1.3253280e-04 </wgt>
<wgt id='morphing_basis_vector_2'> +8.8702638e-05 </wgt>
<wgt id='morphing_basis_vector_3'> +1.4145298e-04 </wgt>
<wgt id='morphing_basis_vector_4'> +9.7943961e-05 </wgt>
<wgt id='morphing_basis_vector_5'> +1.5672553e-04 </wgt>
</rwgt>
</event>
<event>
 4      1 +6.0853000e-08 2.16151700e+03 7.81860800e-03 8.00834100e-02
        2 -1    0    0  501    0 +0.0000000000e+00 +0.0000000000e+00 +9.2336331192e+02 9.2336331192e+02 0.0000000000e+00 0.0000e+00 -1.0000e+00
       -2 -1    0    0    0  501 -0.0000000000e+00 -0.0000000000e+00 -1.2649831994e+03 1.2649831994e+03 0.0000000000e+00 0.0000e+00 1.0000e+00
      -13  1    1    2    0    0 +1.1021131731e+02 +2.4881728229e+02 -1.2297285931e+03 1.2594796493e+03 0.0000000000e+00 0.0000e+00 1.0000e+00
       13  1    1    2    0    0 -1.1021131731e+02 -2.4881728229e+02 +8.8810870558e+02 9.2886686202e+02 0.0000000000e+00 0.0000e+00 -1.0000e+00
<mgrwt>
<rscale>  0 0.21615171E+04</rscale>
<asrwt>0</asrwt>
<pdfrwt beam="1">  1        2 0.14205589E+00 0.21615171E+04</pdfrwt>
<pdfrwt beam="2">  1       -2 0.19461280E+00 0.21615171E+04</pdfrwt>
<totfact> 0.41672094E+00</totfact>
</mgrwt>
<rwgt>
<wgt id='morphing_basis_vector_1'> +1.8504034e-04 </wgt>
<wgt id='morphing_basis_vector_2'> +1.2354691e-04 </wgt>
<wgt id='morphing_basis_vector_3'> +1.9853740e-04 </wgt>
<wgt id='morphing_basis_vector_4'> +1.3940985e-04 </wgt>
<wgt id='morphing_basis_vector_5'> +2.2210647e-04 </wgt>
</rwgt>
</event>
<event>
 4      1 +6.0853000e-08 2.21764100e+03 7.81860800e-03 7.98770100e-02
        2 -1    0    0  501    0 +0.0000000000e+00 +0.0000000000e+00 +2.2927485519e+03 2.2927485519e+03 0.0000000000e+00 0.0000e+00 -1.0000e+00
       -2 -1    0    0    0  501 -0.0000000000e+00 -0.0000000000e+00 -5.3624848618e+02 5.3624848618e+02 0.0000000000e+00 0.0000e+00 1.0000e+00
      -13  1    1    2    0    0 -8.2213737861e+02 +6.2576618143e+02 +3.6481556472e+02 1.0957114490e+03 0.0000000000e+00 0.0000e+00 1.0000e+00
       13  1    1    2    0    0 +8.2213737861e+02 -6.2576618143e+02 +1.3916845010e+03 1.7332855891e+03 0.0000000000e+00 0.0000e+00 -1.0000e+00
<mgrwt>
<rscale>  0 0.22176410E+04</rscale>
<asrwt>0</asrwt>
<pdfrwt beam="1">  1        2 0.35273054E+00 0.22176410E+04</pdfrwt>
<pdfrwt beam="2">  1       -2 0.82499768E-01 0.22176410E+04</pdfrwt>
<totfact> 0.68589316E+00</totfact>
</mgrwt>
<rwgt>
<wgt id='morphing_basis_vector_1'> +2.0643711e-04 </wgt>
<wgt id='morphing_basis_vector_2'> +1.4202612e-04 </wgt>
<wgt id='morphing_basis_vector_3'> +2.2258756e-04 </wgt>
<wgt id='morphing_basis_vector_4'> +1.5114001e-04 </wgt>
<wgt id='morphing_basis_vector_5'> +2.4622556e-04 </wgt>
</rwgt>
</event>
<event>
 4      1 +6.0853000e-08 2.22547900e+03 7.81860800e-03 7.98486900e-02
        2 -1    0    0  501    0 +0.0000000000e+00 +0.0000000000e+00 +1.9985984536e+03 1.9985984536e+03 0.0000000000e+00 0.0000e+00 -1.0000e+00
       -2 -1    0    0    0  501 -0.0000000000e+00 -0.0000000000e+00 -6.1952887117e+02 6.1952887117e+02 0.0000000000e+00 0.0000e+00 1.0000e+00
      -13  1    1    2    0    0 -5.8669696960e+02 +1.0246232381e+02 -4.1623567437e+02 7.2661131188e+02 0.0000000000e+00 0.0000e+00 1.0000e+00
       13  1    1    2    0    0 +5.8669696960e+02 -1.0246232381e+02 +1.7953052568e+03 1.8915160129e+03 0.0000000000e+00 0.0000e+00 -1.0000e+00
<mgrwt>
<rscale>  0 0.22254792E+04</rscale>
<asrwt>0</asrwt>
<pdfrwt beam="1">  1        2 0.30747668E+00 0.22254792E+04</pdfrwt>
<pdfrwt beam="2">  1       -2 0.95312135E-01 0.22254792E+04</pdfrwt>
<totfact> 0.72059462E+00</totfact>
</mgrwt>
<rwgt>
<wgt id='morphing_basis_vector_1'> +2.0758324e-04 </wgt>
<wgt id='morphing_basis_vector_2'> +1.3888908e-04 </wgt>
<wgt id='morphing_basis_vector_3'> +2.2315108e-04 </wgt>
<wgt id='morphing_basis_vector_4'> +1.5683814e-04 </wgt>
<wgt id='morphing_basis_vector_5'> +2.5006387e-04 </wgt>
</rwgt>
</event>
<event>
 4      1 +6.0853000e-08 1.91730600e+03 7.81860800e-03 8.10637500e-02
        2 -1    0    0  501    0 +0.0000000000e+00 +0.0000000000e+00 +6.7653496769e+02 6.7653496769e+02 0.0000000000e+00 0.0000e+00 1.0000e+00
       -2 -1    0    0    0  501 -0.0000000000e+00 -0.0000000000e+00 -1.3584155020e+03 1.3584155020e+03 0.0000000000e+00 0.0000e+00 -1.0000e+00
      -13  1    1    2    0    0 +1.1386207460e+02 +5.2359835938e+02 -1.1846346039e+03 1.3001842018e+03 0.0000000000e+00 0.0000e+00 -1.0000e+00
       13  1    1    2    0    0 -1.1386207460e+02 -5.2359835938e+02 +5.0275406954e+02 7.3476626788e+02 0.0000000000e+00 0.0000e+00 1.0000e+00
<mgrwt>
<rscale>  0 0.19173060E+04</rscale>
<asrwt>0</asrwt>
<pdfrwt beam="1">  1        2 0.10408230E+00 0.19173060E+04</pdfrwt>
<pdfrwt beam="2">  1       -2 0.20898700E+00 0.19173060E+04</pdfrwt>
<totfact> 0.49833676E+00</totfact>
</mgrwt>
<rwgt>
<wgt id='morphing_basis_vector_1'> +1.1566932e-04 </wgt>
<wgt id='morphing_basis_vector_2'> +7.6901740e-05 </wgt>
<wgt id='morphing_basis_vector_3'> +1.2306088e-04 </wgt>
<wgt id='morphing_basis_vector_4'> +8.5447635e-05 </wgt>
<wgt id='morphing_basis_vector_5'> +1.3621123e-04 </wgt>
</rwgt>
</event>
<event>
 4      1 +6.0853000e-08 1.94160700e+03 7.81860800e-03 8.09595700e-02
        2 -1    0    0  501    0 +0.0000000000e+00 +0.0000000000e+00 +1.6787794670e+03 1.6787794670e+03 0.0000000000e+00 0.0000e+00 1.0000e+00
       -2 -1    0    0    0  501 -0.0000000000e+00 -0.0000000000e+00 -5.6139541381e+02 5.6139541381e+02 0.0000000000e+00 0.0000e+00 -1.0000e+00
      -13  1    1    2    0    0 -7.5246470694e+02 +4.8296117253e+02 +1.2238172163e+02 9.0245881632e+02 0.0000000000e+00 0.0000e+00 -1.0000e+00
       13  1    1    2    0    0 +7.5246470694e+02 -4.8296117253e+02 +9.9500233154e+02 1.3377160645e+03 0.0000000000e+00 0.0000e+00 1.0000e+00
<mgrwt>
<rscale>  0 0.19416066E+04</rscale>
<asrwt>0</asrwt>
<pdfrwt beam="1">  1        2 0.25827376E+00 0.19416066E+04</pdfrwt>
<pdfrwt beam="2">  1       -2 0.86368526E-01 0.19416066E+04</pdfrwt>
<totfact> 0.14030635E+01</totfact>
</mgrwt>
<rwgt>
<wgt id='morphing_basis_vector_1'> +1.2240144e-04 </wgt>
<wgt id='morphing_basis_vector_2'> +8.3469231e-05 </wgt>
<wgt id='morphing_basis_vector_3'> +1.3068990e-04 </wgt>
<wgt id='morphing_basis_vector_4'> +8.8198990e-05 </wgt>
<wgt id='morphing_basis_vector_5'> +1.4326770e-04 </wgt>
</rwgt>
</event>
<event>
 4      1 +6.0853000e-08 2.04865100e+03 7.81860800e-03 8.05188200e-02
        2 -1    0    0  501    0 +0.0000000000e+00 +0.0000000000e+00 +1.0098318299e+03 1.0098318299e+03 0.0000000000e+00 0.0000e+00 1.0000e+00
       -2 -1    0    0    0  501 -0.0000000000e+00 -0.0000000000e+00 -1.0390271013e+03 1.0390271013e+03 0.0000000000e+00 0.0000e+00 -1.0000e+00
      -13  1    1    2    0    0 +5.6590472344e+02 +4.0809136996e+02 -7.6464439831e+02 1.0351172775e+03 0.0000000000e+00 0.0000e+00 -1.0000e+00
       13  1    1    2    0    0 -5.6590472344e+02 -4.0809136996e+02 +7.3544912691e+02 1.0137416537e+03 0.0000000000e+00 0.0000e+00 1.0000e+00
<mgrwt>
<rscale>  0 0.20486509E+04</rscale>
<asrwt>0</asrwt>
<pdfrwt beam="1">  1        2 0.15535874E+00 0.20486509E+04</pdfrwt>
<pdfrwt beam="2">  1       -2 0.15985032E+00 0.20486509E+04</pdfrwt>
<totfact> 0.68526365E+00</totfact>
</mgrwt>
<rwgt>
<wgt id='morphing_basis_vector_1'> +1.5004544e-04 </wgt>
<wgt id='morphing_basis_vector_2'> +1.0028216e-04 </wgt>
<wgt id='morphing_basis_vector_3'> +1.6046884e-04 </wgt>
<wgt id='morphing_basis_vector_4'> +1.1178369e-04 </wgt>
<wgt id='morphing_basis_vector_5'> +1.7850447e-04 </wgt>
</rwgt>
</event>
<event>
 4      1 +6.0853000e-08 1.97837900e+03 7.81860800e-03 8.08049000e-02
        2 -1    0    0  501    0 +0.0000000000e+00 +0.0000000000e+00 +5.5762246765e+02 5.5762246765e+02 0.0000000000e+00 0.0000e+00 -1.0000e+00
       -2 -1    0    0    0  501 -0.0000000000e+00 -0.0000000000e+00 -1.7547647119e+03 1.7547647119e+03 0.0000000000e+00 0.0000e+00 1.0000e+00
      -13  1    1    2    0    0 +5.5244934964e+02 -5.1503882429e+02 -1.3451875383e+03 1.5427231727e+03 0.0000000000e+00 0.0000e+00 1.0000e+00
       13  1    1    2    0    0 -5.5244934964e+02 +5.1503882429e+02 +1.4804529398e+02 7.6966400690e+02 0.0000000000e+00 0.0000e+00 -1.0000e+00
<mgrwt>
<rscale>  0 0.19783794E+04</rscale>
<asrwt>0</asrwt>
<pdfrwt beam="1">  1        2 0.85788072E-01 0.19783794E+04</pdfrwt>
<pdfrwt beam="2">  1       -2 0.26996380E+00 0.19783794E+04</pdfrwt>
<totfact> 0.23361882E+00</totfact>
</mgrwt>
<rwgt>
<wgt id='morphing_basis_vector_1'> +1.3097539e-04 </wgt>
<wgt id='morphing_basis_vector_2'> +8.7667077e-05 </wgt>
<wgt id='morphing_basis_vector_3'> +1.3976190e-04 </wgt>
<wgt id='morphing_basis_vector_4'> +9.6722586e-05 </wgt>
<wgt id='morphing_basis_vector_5'> +1.5479531e-04 </wgt>
</rwgt>
</event>
<event>
 4      1 +6.0853000e-08 2.21549900e+03 7.81860800e-03 7.98847800e-02
        2 -1    0    0  501    0 +0.0000000000e+00 +0.0000000000e+00 +1.1816632934e+03 1.1816632934e+03 0.0000000000e+00 0.0000e+00 1.0000e+00
       -2 -1    0    0    0  501 -0.0000000000e+00 -0.0000000000e+00 -1.0384589691e+03 1.0384589691e+03 0.0000000000e+00 0.0000e+00 -1.0000e+00
      -13  1    1    2    0    0 +2.6020372912e+02 -2.2459980736e+02 -9.8366606203e+02 1.0419932705e+03 0.0000000000e+00 0.0000e+00 -1.0000e+00
       13  1    1    2    0    0 -2.6020372912e+02 +2.2459980736e+02 +1.1268703863e+03 1.1781289920e+03 0.0000000000e+00 0.0000e+00 1.0000e+00
<mgrwt>
<rscale>  0 0.22154989E+04</rscale>
<asrwt>0</asrwt>
<pdfrwt beam="1">  1        2 0.18179435E+00 0.22154989E+04</pdfrwt>
<pdfrwt beam="2">  1       -2 0.15976292E+00 0.22154989E+04</pdfrwt>
<totfact> 0.53316639E+00</totfact>
</mgrwt>
<rwgt>
<wgt id='morphing_basis_vector_1'> +2.0389145e-04 </wgt>
<wgt id='morphing_basis_vector_2'> +1.3627336e-04 </wgt>
<wgt id='morphing_basis_vector_3'> +2.1910057e-04 </wgt>
<wgt id='morphing_basis_vector_4'> +1.5410770e-04 </wgt>
<wgt id='morphing_basis_vector_5'> +2.4554494e-04 </wgt>
</rwgt>
</event>
<event>
 4      1 +6.0853000e-08 2.00211300e+03 7.81860800e-03 8.07069100e-02
        2 -1    0    0  501    0 +0.0000000000e+00 +0.0000000000e+00 +2.1895004014e+03 2.1895004014e+03 0.0000000000e+00 0.0000e+00 -1.0000e+00
       -2 -1    0    0    0  501 -0.0000000000e+00 -0.0000000000e+00 -4.5769095084e+02 4.5769095084e+02 0.0000000000e+00 0.0000e+00 1.0000e+00
      -13  1    1    2    0    0 +8.8448889070e+02 +1.9662274426e+02 +3.0318005562e+02 9.5545761154e+02 0.0000000000e+00 0.0000e+00 1.0000e+00
       13  1    1    2    0    0 -8.8448889070e+02 -1.9662274426e+02 +1.4286293950e+03 1.6917337407e+03 0.0000000000e+00 0.0000e+00 -1.0000e+00
<mgrwt>
<rscale>  0 0.20021134E+04</rscale>
<asrwt>0</asrwt>
<pdfrwt beam="1">  1        2 0.33684621E+00 0.20021134E+04</pdfrwt>
<pdfrwt beam="2">  1       -2 0.70413994E-01 0.20021134E+04</pdfrwt>
<totfact> 0.11391231E+01</totfact>
</mgrwt>
<rwgt>
<wgt id='morphing_basis_vector_1'> +1.3787328e-04 </wgt>
<wgt id='morphing_basis_vector_2'> +9.3784229e-05 </wgt>
<wgt id='morphing_basis_vector_3'> +1.4749975e-04 </wgt>
<wgt id='morphing_basis_vector_4'> +1.0028505e-04 </wgt>
<wgt id='morphing_basis_vector_5'> +1.6241657e-04 </wgt>
</rwgt>
</event>
<event>
 4      1 +6.0853000e-08 2.17221200e+03 7.81860800e-03 8.00435800e-02
        2 -1    0    0  501    0 +0.0000000000e+00 +0.0000000000e+00 +1.8824008249e+03 1.8824008249e+03 0.0000000000e+00 0.0000e+00 -1.0000e+00
       -2 -1    0    0    0  501 -0.0000000000e+00 -0.0000000000e+00 -6.2666077739e+02 6.2666077739e+02 0.0000000000e+00 0.0000e+00 1.0000e+00
      -13  1    1    2    0    0 +1.0461174165e+03 +8.9326665103e+01 +3.0675616648e+02 1.0938191112e+03 0.0000000000e+00 0.0000e+00 1.0000e+00
       13  1    1    2    0    0 -1.0461174165e+03 -8.9326665103e+01 +9.4898388102e+02 1.4152424911e+03 0.0000000000e+00 0.0000e+00 -1.0000e+00
<mgrwt>
<rscale>  0 0.21722125E+04</rscale>
<asrwt>0</asrwt>
<pdfrwt beam="1">  1        2 0.28960013E+00 0.21722125E+04</pdfrwt>
<pdfrwt beam="2">  1       -2 0.96409351E-01 0.21722125E+04</pdfrwt>
<totfact> 0.81859722E+00</totfact>
</mgrwt>
<rwgt>
<wgt id='morphing_basis_vector_1'> +1.9125391e-04 </wgt>
<wgt id='morphing_basis_vector_2'> +1.3364488e-04 </wgt>
<wgt id='morphing_basis_vector_3'> +2.0633496e-04 </wgt>
<wgt id='morphing_basis_vector_4'> +1.3702176e-04 </wgt>
<wgt id='morphing_basis_vector_5'> +2.2619561e-04 </wgt>
</rwgt>
</event>
<event>
 4      1 +6.0853000e-08 1.96790100e+03 7.81860800e-03 8.08486100e-02
        2 -1    0    0  501    0 +0.0000000000e+00 +0.0000000000e+00 +2.6982232931e+03 2.6982232931e+03 0.0000000000e+00 0.0000e+00 -1.0000e+00
       -2 -1    0    0    0  501 -0.0000000000e+00 -0.0000000000e+00 -3.5881349771e+02 3.5881349771e+02 0.0000000000e+00 0.0000e+00 1.0000e+00
      -13  1    1    2    0    0 -3.8545753222e+02 -5.2318960504e+02 +2.1985782433e+01 6.5022169035e+02 0.0000000000e+00 0.0000e+00 1.0000e+00
       13  1    1    2    0    0 +3.8545753222e+02 +5.2318960504e+02 +2.3174240129e+03 2.4068151004e+03 0.0000000000e+00 0.0000e+00 -1.0000e+00
<mgrwt>
<rscale>  0 0.19679014E+04</rscale>
<asrwt>0</asrwt>
<pdfrwt beam="1">  1        2 0.41511126E+00 0.19679014E+04</pdfrwt>
<pdfrwt beam="2">  1       -2 0.55202078E-01 0.19679014E+04</pdfrwt>
<totfact> 0.94714346E+00</totfact>
</mgrwt>
<rwgt>
<wgt id='morphing_basis_vector_1'> +1.2814461e-04 </wgt>
<wgt id='morphing_basis_vector_2'> +8.5442308e-05 </wgt>
<wgt id='morphing_basis_vector_3'> +1.3663431e-04 </wgt>
<wgt id='morphing_basis_vector_4'> +9.4916427e-05 </wgt>
<wgt id='morphing_basis_vector_5'> +1.5149628e-04 </wgt>
</rwgt>
</event>
<event>
 4      1 +6.0853000e-08 1.87657100e+03 7.81860800e-03 8.12420600e-02
        2 -1    0    0  501    0 +0.0000000000e+00 +0.0000000000e+00 +4.6902949382e+02 4.6902949382e+02 0.0000000000e+00 0.0000e+00 1.0000e+00
       -2 -1    0    0    0  501 -0.0000000000e+00 -0.0000000000e+00 -1.8770245691e+03 1.8770245691e+03 0.0000000000e+00 0.0000e+00 -1.0000e+00
      -13  1    1    2    0    0 -8.7492451596e+02 +1.4414127677e+02 -3.2047448953e+02 9.4285392015e+02 0.0000000000e+00 0.0000e+00 1.0000e+00
       13  1    1    2    0    0 +8.7492451596e+02 -1.4414127677e+02 -1.0875205858e+03 1.4032001428e+03 0.0000000000e+00 0.0000e+00 -1.0000e+00
<mgrwt>
<rscale>  0 0.18765712E+04</rscale>
<asrwt>0</asrwt>
<pdfrwt beam="1">  1        2 0.72158385E-01 0.18765712E+04</pdfrwt>
<pdfrwt beam="2">  1       -2 0.28877301E+00 0.18765712E+04</pdfrwt>
<totfact> 0.21393342E+00</totfact>
</mgrwt>
<rwgt>
<wgt id='morphing_basis_vector_1'> +1.1806125e-04 </wgt>
<wgt id='morphing_basis_vector_2'> +1.0533900e-04 </wgt>
<wgt id='morphing_basis_vector_3'> +1.2968913e-04 </wgt>
<wgt id='morphing_basis_vector_4'> +5.5230143e-05 </wgt>
<wgt id='morphing_basis_vector_5'> +1.2295913e-04 </wgt>
</rwgt>
</event>
<event>
 4      1 +6.0853000e-08 1.86694400e+03 7.81860800e-03 8.12848900e-02
        2 -1    0    0  501    0 +0.0000000000e+00 +0.0000000000e+00 +7.5198576082e+02 7.5198576082e+02 0.0000000000e+00 0.0000e+00 -1.0000e+00
       -2 -1    0    0    0  501 -0.0000000000e+00 -0.0000000000e+00 -1.1587588953e+03 1.1587588953e+03 0.0000000000e+00 0.0000e+00 1.0000e+00
      -13  1    1    2    0    0 -2.0413787070e+02 -1.9820564192e+02 -1.1132960540e+03 1.1490804370e+03 0.0000000000e+00 0.0000e+00 1.0000e+00
       13  1    1    2    0    0 +2.0413787070e+02 +1.9820564192e+02 +7.0652291959e+02 7.6166421909e+02 0.0000000000e+00 0.0000e+00 -1.0000e+00
<mgrwt>
<rscale>  0 0.18669442E+04</rscale>
<asrwt>0</asrwt>
<pdfrwt beam="1">  1        2 0.11569012E+00 0.18669442E+04</pdfrwt>
<pdfrwt beam="2">  1       -2 0.17827060E+00 0.18669442E+04</pdfrwt>
<totfact> 0.74140036E+00</totfact>
</mgrwt>
<rwgt>
<wgt id='morphing_basis_vector_1'> +1.0420204e-04 </wgt>
<wgt id='morphing_basis_vector_2'> +6.9103658e-05 </wgt>
<wgt id='morphing_basis_vector_3'> +1.1060586e-04 </wgt>
<wgt id='morphing_basis_vector_4'> +7.6706703e-05 </wgt>
<wgt id='morphing_basis_vector_5'> +1.2216507e-04 </wgt>
</rwgt>
</event>
<event>
 4      1 +6.0853000e-08 1.95225300e+03 7.81860800e-03 8.09144300e-02
        2 -1    0    0  501    0 +0.0000000000e+00 +0.0000000000e+00 +2.5447637856e+03 2.5447637856e+03 0.0000000000e+00 0.0000e+00 -1.0000e+00
       -2 -1    0    0    0  501 -0.0000000000e+00 -0.0000000000e+00 -3.7442473454e+02 3.7442473454e+02 0.0000000000e+00 0.0000e+00 1.0000e+00
      -13  1    1    2    0    0 +6.3962340335e+02 -7.3734694035e+02 +1.0924790959e+03 1.4650287313e+03 0.0000000000e+00 0.0000e+00 1.0000e+00
       13  1    1    2    0    0 -6.3962340335e+02 +7.3734694035e+02 +1.0778599552e+03 1.4541597888e+03 0.0000000000e+00 0.0000e+00 -1.0000e+00
<mgrwt>
<rscale>  0 0.19522526E+04</rscale>
<asrwt>0</asrwt>
<pdfrwt beam="1">  1        2 0.39150211E+00 0.19522526E+04</pdfrwt>
<pdfrwt beam="2">  1       -2 0.57603807E-01 0.19522526E+04</pdfrwt>
<totfact> 0.10782334E+01</totfact>
</mgrwt>
<rwgt>
<wgt id='morphing_basis_vector_1'> +1.2871735e-04 </wgt>
<wgt id='morphing_basis_vector_2'> +9.6160667e-05 </wgt>
<wgt id='morphing_basis_vector_3'> +1.3887999e-04 </wgt>
<wgt id='morphing_basis_vector_4'> +8.2922282e-05 </wgt>
<wgt id='morphing_basis_vector_5'> +1.4593257e-04 </wgt>
</rwgt>
</event>
<event>
 4      1 +6.0853000e-08 1.92150600e+03 7.81860800e-03 8.10456300e-02
        2 -1    0    0  501    0 +0.0000000000e+00 +0.0000000000e+00 +2.3469308976e+03 2.3469308976e+03 0.0000000000e+00 0.0000e+00 -1.0000e+00
       -2 -1    0    0    0  501 -0.0000000000e+00 -0.0000000000e+00 -3.9329924412e+02 3.9329924412e+02 0.0000000000e+00 0.0000e+00 1.0000e+00
      -13  1    1    2    0    0 -8.6876813967e+02 -1.5557855791e+02 +4.3549806172e+02 9.8418561763e+02 0.0000000000e+00 0.0000e+00 1.0000e+00
       13  1    1    2    0    0 +8.6876813967e+02 +1.5557855791e+02 +1.5181335918e+03 1.7560445241e+03 0.0000000000e+00 0.0000e+00 -1.0000e+00
<mgrwt>
<rscale>  0 0.19215058E+04</rscale>
<asrwt>0</asrwt>
<pdfrwt beam="1">  1        2 0.36106628E+00 0.19215058E+04</pdfrwt>
<pdfrwt beam="2">  1       -2 0.60507578E-01 0.19215058E+04</pdfrwt>
<totfact> 0.12796220E+01</totfact>
</mgrwt>
<rwgt>
<wgt id='morphing_basis_vector_1'> +1.1749374e-04 </wgt>
<wgt id='morphing_basis_vector_2'> +8.0030678e-05 </wgt>
<wgt id='morphing_basis_vector_3'> +1.2533553e-04 </wgt>
<wgt id='morphing_basis_vector_4'> +8.4574626e-05 </wgt>
<wgt id='morphing_basis_vector_5'> +1.3730639e-04 </wgt>
</rwgt>
</event>
<event>
 4      1 +6.0853000e-08 2.07434800e+03 7.81860800e-03 8.04171700e-02
        2 -1    0    0  501    0 +0.0000000000e+00 +0.0000000000e+00 +1.2600573392e+03 1.2600573392e+03 0.0000000000e+00 0.0000e+00 1.0000e+00
       -2 -1    0    0    0  501 -0.0000000000e+00 -0.0000000000e+00 -8.5371490367e+02 8.5371490367e+02 0.0000000000e+00 0.0000e+00 -1.0000e+00
      -13  1    1    2    0    0 +2.0674854227e+02 -3.9799178500e+02 +1.1561389485e+03 1.2400805171e+03 0.0000000000e+00 0.0000e+00 1.0000e+00
       13  1    1    2    0    0 -2.0674854227e+02 +3.9799178500e+02 -7.4979651302e+02 8.7369172572e+02 0.0000000000e+00 0.0000e+00 -1.0000e+00
<mgrwt>
<rscale>  0 0.20743478E+04</rscale>
<asrwt>0</asrwt>
<pdfrwt beam="1">  1        2 0.19385497E+00 0.20743478E+04</pdfrwt>
<pdfrwt beam="2">  1       -2 0.13134075E+00 0.20743478E+04</pdfrwt>
<totfact> 0.84370464E+00</totfact>
</mgrwt>
<rwgt>
<wgt id='morphing_basis_vector_1'> +2.1428195e-04 </wgt>
<wgt id='morphing_basis_vector_2'> +2.7317874e-04 </wgt>
<wgt id='morphing_basis_vector_3'> +2.5199816e-04 </wgt>
<wgt id='morphing_basis_vector_4'> +4.1065986e-06 </wgt>
<wgt id='morphing_basis_vector_5'> +1.7880415e-04 </wgt>
</rwgt>
</event>
<event>
 4      1 +6.0853000e-08 2.22830600e+03 7.81860800e-03 7.98385100e-02
        2 -1    0    0  501    0 +0.0000000000e+00 +0.0000000000e+00 +2.4005192278e+03 2.4005192278e+03 0.0000000000e+00 0.0000e+00 -1.0000e+00
       -2 -1    0    0    0  501 -0.0000000000e+00 -0.0000000000e+00 -5.1711165984e+02 5.1711165984e+02 0.0000000000e+00 0.0000e+00 1.0000e+00
      -13  1    1    2    0    0 -2.9982338011e+02 -7.6030207136e+02 -4.9762770191e+01 8.1879767481e+02 0.0000000000e+00 0.0000e+00 1.0000e+00
       13  1    1    2    0    0 +2.9982338011e+02 +7.6030207136e+02 +1.9331703382e+03 2.0988332128e+03 0.0000000000e+00 0.0000e+00 -1.0000e+00
<mgrwt>
<rscale>  0 0.22283056E+04</rscale>
<asrwt>0</asrwt>
<pdfrwt beam="1">  1        2 0.36931064E+00 0.22283056E+04</pdfrwt>
<pdfrwt beam="2">  1       -2 0.79555641E-01 0.22283056E+04</pdfrwt>
<totfact> 0.64400605E+00</totfact>
</mgrwt>
<rwgt>
<wgt id='morphing_basis_vector_1'> +2.0886959e-04 </wgt>
<wgt id='morphing_basis_vector_2'> +1.4032152e-04 </wgt>
<wgt id='morphing_basis_vector_3'> +2.2465447e-04 </wgt>
<wgt id='morphing_basis_vector_4'> +1.5714939e-04 </wgt>
<wgt id='morphing_basis_vector_5'> +2.5131730e-04 </wgt>
</rwgt>
</event>
<event>
 4      1 +6.0853000e-08 1.96712600e+03 7.81860800e-03 8.08518600e-02
        2 -1    0    0  501    0 +0.0000000000e+00 +0.0000000000e+00 +1.4699618450e+03 1.4699618450e+03 0.0000000000e+00 0.0000e+00 1.0000e+00
       -2 -1    0    0    0  501 -0.0000000000e+00 -0.0000000000e+00 -6.5810970305e+02 6.5810970305e+02 0.0000000000e+00 0.0000e+00 -1.0000e+00
      -13  1    1    2    0    0 -5.2973229013e+02 -4.8213531729e+02 +1.1351107844e+03 1.3422172910e+03 0.0000000000e+00 0.0000e+00 -1.0000e+00
       13  1    1    2    0    0 +5.2973229013e+02 +4.8213531729e+02 -3.2325864247e+02 7.8585425704e+02 0.0000000000e+00 0.0000e+00 1.0000e+00
<mgrwt>
<rscale>  0 0.19671260E+04</rscale>
<asrwt>0</asrwt>
<pdfrwt beam="1">  1        2 0.22614798E+00 0.19671260E+04</pdfrwt>
<pdfrwt beam="2">  1       -2 0.10124765E+00 0.19671260E+04</pdfrwt>
<totfact> 0.12581305E+01</totfact>
</mgrwt>
<rwgt>
<wgt id='morphing_basis_vector_1'> +1.6372583e-04 </wgt>
<wgt id='morphing_basis_vector_2'> +1.9127519e-04 </wgt>
<wgt id='morphing_basis_vector_3'> +1.8827276e-04 </wgt>
<wgt id='morphing_basis_vector_4'> +2.3771054e-05 </wgt>
<wgt id='morphing_basis_vector_5'> +1.4566501e-04 </wgt>
</rwgt>
</event>
<event>
 4      1 +6.0853000e-08 2.05696400e+03 7.81860800e-03 8.04857700e-02
        2 -1    0    0  501    0 +0.0000000000e+00 +0.0000000000e+00 +1.0171140906e+03 1.0171140906e+03 0.0000000000e+00 0.0000e+00 1.0000e+00
       -2 -1    0    0    0  501 -0.0000000000e+00 -0.0000000000e+00 -1.0399773591e+03 1.0399773591e+03 0.0000000000e+00 0.0000e+00 -1.0000e+00
      -13  1    1    2    0    0 +7.1118013586e+02 -6.4373106658e+02 -3.8241108772e+02 1.0326689265e+03 0.0000000000e+00 0.0000e+00 -1.0000e+00
       13  1    1    2    0    0 -7.1118013586e+02 +6.4373106658e+02 +3.5954781922e+02 1.0244225232e+03 0.0000000000e+00 0.0000e+00 1.0000e+00
<mgrwt>
<rscale>  0 0.20569644E+04</rscale>
<asrwt>0</asrwt>
<pdfrwt beam="1">  1        2 0.15647909E+00 0.20569644E+04</pdfrwt>
<pdfrwt beam="2">  1       -2 0.15999652E+00 0.20569644E+04</pdfrwt>
<totfact> 0.67587306E+00</totfact>
</mgrwt>
<rwgt>
<wgt id='morphing_basis_vector_1'> +1.5363367e-04 </wgt>
<wgt id='morphing_basis_vector_2'> +1.0541390e-04 </wgt>
<wgt id='morphing_basis_vector_3'> +1.6482332e-04 </wgt>
<wgt id='morphing_basis_vector_4'> +1.1127447e-04 </wgt>
<wgt id='morphing_basis_vector_5'> +1.8128814e-04 </wgt>
</rwgt>
</event>
<event>
 4      1 +6.0853000e-08 2.10710300e+03 7.81860800e-03 8.02898000e-02
        2 -1    0    0  501    0 +0.0000000000e+00 +0.0000000000e+00 +6.3818365028e+02 6.3818365028e+02 0.0000000000e+00 0.0000e+00 -1.0000e+00
       -2 -1    0    0    0  501 -0.0000000000e+00 -0.0000000000e+00 -1.7392647988e+03 1.7392647988e+03 0.0000000000e+00 0.0000e+00 1.0000e+00
      -13  1    1    2    0    0 -7.4570600990e+02 +2.2375444050e+02 -1.3514180490e+03 1.5596391396e+03 0.0000000000e+00 0.0000e+00 1.0000e+00
       13  1    1    2    0    0 +7.4570600990e+02 -2.2375444050e+02 +2.5033690047e+02 8.1780930942e+02 0.0000000000e+00 0.0000e+00 -1.0000e+00
<mgrwt>
<rscale>  0 0.21071026E+04</rscale>
<asrwt>0</asrwt>
<pdfrwt beam="1">  1        2 0.98182103E-01 0.21071026E+04</pdfrwt>
<pdfrwt beam="2">  1       -2 0.26757919E+00 0.21071026E+04</pdfrwt>
<totfact> 0.20468981E+00</totfact>
</mgrwt>
<rwgt>
<wgt id='morphing_basis_vector_1'> +1.6765801e-04 </wgt>
<wgt id='morphing_basis_vector_2'> +1.1240809e-04 </wgt>
<wgt id='morphing_basis_vector_3'> +1.7969135e-04 </wgt>
<wgt id='morphing_basis_vector_4'> +1.2516111e-04 </wgt>
<wgt id='morphing_basis_vector_5'> +2.0016978e-04 </wgt>
</rwgt>
</event>
<event>
 4      1 +6.0853000e-08 1.91520000e+03 7.81860800e-03 8.10728600e-02
        2 -1    0    0  501    0 +0.0000000000e+00 +0.0000000000e+00 +9.4772236313e+02 9.4772236313e+02 0.0000000000e+00 0.0000e+00 1.0000e+00
       -2 -1    0    0    0  501 -0.0000000000e+00 -0.0000000000e+00 -9.6758068230e+02 9.6758068230e+02 0.0000000000e+00 0.0000e+00 -1.0000e+00
      -13  1    1    2    0    0 -8.7846419612e+02 -2.1830252895e+02 -3.2242397631e+02 9.6089154357e+02 0.0000000000e+00 0.0000e+00 -1.0000e+00
       13  1    1    2    0    0 +8.7846419612e+02 +2.1830252895e+02 +3.0256565715e+02 9.5441150186e+02 0.0000000000e+00 0.0000e+00 1.0000e+00
<mgrwt>
<rscale>  0 0.19152001E+04</rscale>
<asrwt>0</asrwt>
<pdfrwt beam="1">  1        2 0.14580344E+00 0.19152001E+04</pdfrwt>
<pdfrwt beam="2">  1       -2 0.14885857E+00 0.19152001E+04</pdfrwt>
<totfact> 0.93250867E+00</totfact>
</mgrwt>
<rwgt>
<wgt id='morphing_basis_vector_1'> +1.1630374e-04 </wgt>
<wgt id='morphing_basis_vector_2'> +7.9917997e-05 </wgt>
<wgt id='morphing_basis_vector_3'> +1.2414840e-04 </wgt>
<wgt id='morphing_basis_vector_4'> +8.2831857e-05 </wgt>
<wgt id='morphing_basis_vector_5'> +1.3542566e-04 </wgt>
</rwgt>
</event>
<event>
 4      1 +6.0853000e-08 2.07370700e+03 7.81860800e-03 8.04196900e-02
        2 -1    0    0  501    0 +0.0000000000e+00 +0.0000000000e+00 +1.1296513834e+03 1.1296513834e+03 0.0000000000e+00 0.0000e+00 1.0000e+00
       -2 -1    0    0    0  501 -0.0000000000e+00 -0.0000000000e+00 -9.5167836099e+02 9.5167836099e+02 0.0000000000e+00 0.0000e+00 -1.0000e+00
      -13  1    1    2    0    0 +8.3083218224e+01 -2.3475419387e+02 -9.2121854692e+02 9.5428295797e+02 0.0000000000e+00 0.0000e+00 -1.0000e+00
       13  1    1    2    0    0 -8.3083218224e+01 +2.3475419387e+02 +1.0991915693e+03 1.1270467864e+03 0.0000000000e+00 0.0000e+00 1.0000e+00
<mgrwt>
<rscale>  0 0.20737066E+04</rscale>
<asrwt>0</asrwt>
<pdfrwt beam="1">  1        2 0.17379252E+00 0.20737066E+04</pdfrwt>
<pdfrwt beam="2">  1       -2 0.14641206E+00 0.20737066E+04</pdfrwt>
<totfact> 0.74530077E+00</totfact>
</mgrwt>
<rwgt>
<wgt id='morphing_basis_vector_1'> +1.5722507e-04 </wgt>
<wgt id='morphing_basis_vector_2'> +1.0479149e-04 </wgt>
<wgt id='morphing_basis_vector_3'> +1.6823018e-04 </wgt>
<wgt id='morphing_basis_vector_4'> +1.1775993e-04 </wgt>
<wgt id='morphing_basis_vector_5'> +1.8759540e-04 </wgt>
</rwgt>
</event>
<event>
 4      1 +6.0853000e-08 1.97851700e+03 7.81860800e-03 8.08043200e-02
        2 -1    0    0  501    0 +0.0000000000e+00 +0.0000000000e+00 +9.4638440698e+02 9.4638440698e+02 0.0000000000e+00 0.0000e+00 1.0000e+00
       -2 -1    0    0    0  501 -0.0000000000e+00 -0.0000000000e+00 -1.0340751523e+03 1.0340751523e+03 0.0000000000e+00 0.0000e+00 -1.0000e+00
      -13  1    1    2    0    0 -8.4835925782e+02 +8.4136282582e+01 -5.4617491395e+02 1.0124719162e+03 0.0000000000e+00 0.0000e+00 -1.0000e+00
       13  1    1    2    0    0 +8.4835925782e+02 -8.4136282582e+01 +4.5848416863e+02 9.6798764313e+02 0.0000000000e+00 0.0000e+00 1.0000e+00
<mgrwt>
<rscale>  0 0.19785172E+04</rscale>
<asrwt>0</asrwt>
<pdfrwt beam="1">  1        2 0.14559760E+00 0.19785172E+04</pdfrwt>
<pdfrwt beam="2">  1       -2 0.15908848E+00 0.19785172E+04</pdfrwt>
<totfact> 0.76647504E+00</totfact>
</mgrwt>
<rwgt>
<wgt id='morphing_basis_vector_1'> +1.3132692e-04 </wgt>
<wgt id='morphing_basis_vector_2'> +8.8626433e-05 </wgt>
<wgt id='morphing_basis_vector_3'> +1.4025916e-04 </wgt>
<wgt id='morphing_basis_vector_4'> +9.6122906e-05 </wgt>
<wgt id='morphing_basis_vector_5'> +1.5478994e-04 </wgt>
</rwgt>
</event>
<event>
 4      1 +6.0853000e-08 2.13916900e+03 7.81860800e-03 8.01674000e-02
        2 -1    0    0  501    0 +0.0000000000e+00 +0.0000000000e+00 +1.7220259116e+03 1.7220259116e+03 0.0000000000e+00 0.0000e+00 1.0000e+00
       -2 -1    0    0    0  501 -0.0000000000e+00 -0.0000000000e+00 -6.6434040613e+02 6.6434040613e+02 0.0000000000e+00 0.0000e+00 -1.0000e+00
      -13  1    1    2    0    0 +5.2773326265e+02 +9.1975228041e+02 +6.8488025014e+02 1.2623421132e+03 0.0000000000e+00 0.0000e+00 -1.0000e+00
       13  1    1    2    0    0 -5.2773326265e+02 -9.1975228041e+02 +3.7280525531e+02 1.1240242045e+03 0.0000000000e+00 0.0000e+00 1.0000e+00
<mgrwt>
<rscale>  0 0.21391694E+04</rscale>
<asrwt>0</asrwt>
<pdfrwt beam="1">  1        2 0.26492706E+00 0.21391694E+04</pdfrwt>
<pdfrwt beam="2">  1       -2 0.10220622E+00 0.21391694E+04</pdfrwt>
<totfact> 0.87638599E+00</totfact>
</mgrwt>
<rwgt>
<wgt id='morphing_basis_vector_1'> +1.8793150e-04 </wgt>
<wgt id='morphing_basis_vector_2'> +1.4900220e-04 </wgt>
<wgt id='morphing_basis_vector_3'> +2.0570564e-04 </wgt>
<wgt id='morphing_basis_vector_4'> +1.1294026e-04 </wgt>
<wgt id='morphing_basis_vector_5'> +2.1125970e-04 </wgt>
</rwgt>
</event>
<event>
 4      1 +6.0853000e-08 1.91285500e+03 7.81860800e-03 8.10830100e-02
        2 -1    0    0  501    0 +0.0000000000e+00 +0.0000000000e+00 +2.3057464558e+03 2.3057464558e+03 0.0000000000e+00 0.0000e+00 1.0000e+00
       -2 -1    0    0    0  501 -0.0000000000e+00 -0.0000000000e+00 -3.9672760904e+02 3.9672760904e+02 0.0000000000e+00 0.0000e+00 -1.0000e+00
      -13  1    1    2    0    0 +4.8177119947e+02 -7.5354007481e+02 +1.4332517611e+03 1.6894190551e+03 0.0000000000e+00 0.0000e+00 1.0000e+00
       13  1    1    2    0    0 -4.8177119947e+02 +7.5354007481e+02 +4.7576708564e+02 1.0130550097e+03 0.0000000000e+00 0.0000e+00 -1.0000e+00
<mgrwt>
<rscale>  0 0.19128547E+04</rscale>
<asrwt>0</asrwt>
<pdfrwt beam="1">  1        2 0.35473022E+00 0.19128547E+04</pdfrwt>
<pdfrwt beam="2">  1       -2 0.61035018E-01 0.19128547E+04</pdfrwt>
<totfact> 0.13291692E+01</totfact>
</mgrwt>
<rwgt>
<wgt id='morphing_basis_vector_1'> +1.2837042e-04 </wgt>
<wgt id='morphing_basis_vector_2'> +1.1693655e-04 </wgt>
<wgt id='morphing_basis_vector_3'> +1.4169149e-04 </wgt>
<wgt id='morphing_basis_vector_4'> +5.7493912e-05 </wgt>
<wgt id='morphing_basis_vector_5'> +1.3279612e-04 </wgt>
</rwgt>
</event>
<event>
 4      1 +6.0853000e-08 1.93578300e+03 7.81860800e-03 8.09843900e-02
        2 -1    0    0  501    0 +0.0000000000e+00 +0.0000000000e+00 +5.9893699811e+02 5.9893699811e+02 0.0000000000e+00 0.0000e+00 1.0000e+00
       -2 -1    0    0    0  501 -0.0000000000e+00 -0.0000000000e+00 -1.5641275566e+03 1.5641275566e+03 0.0000000000e+00 0.0000e+00 -1.0000e+00
      -13  1    1    2    0    0 -9.3941643137e+02 -1.3383065526e+02 -6.9578361952e+02 1.1766599853e+03 0.0000000000e+00 0.0000e+00 -1.0000e+00
       13  1    1    2    0    0 +9.3941643137e+02 +1.3383065526e+02 -2.6940693901e+02 9.8640456944e+02 0.0000000000e+00 0.0000e+00 1.0000e+00
<mgrwt>
<rscale>  0 0.19357829E+04</rscale>
<asrwt>0</asrwt>
<pdfrwt beam="1">  1        2 0.92144154E-01 0.19357829E+04</pdfrwt>
<pdfrwt beam="2">  1       -2 0.24063501E+00 0.19357829E+04</pdfrwt>
<totfact> 0.34375253E+00</totfact>
</mgrwt>
<rwgt>
<wgt id='morphing_basis_vector_1'> +1.2213747e-04 </wgt>
<wgt id='morphing_basis_vector_2'> +8.5938575e-05 </wgt>
<wgt id='morphing_basis_vector_3'> +1.3081443e-04 </wgt>
<wgt id='morphing_basis_vector_4'> +8.4815110e-05 </wgt>
<wgt id='morphing_basis_vector_5'> +1.4133881e-04 </wgt>
</rwgt>
</event>
<event>
 4      1 +6.0853000e-08 1.91573500e+03 7.81860800e-03 8.10705500e-02
        2 -1    0    0  501    0 +0.0000000000e+00 +0.0000000000e+00 +1.3701513014e+03 1.3701513014e+03 0.0000000000e+00 0.0000e+00 1.0000e+00
       -2 -1    0    0    0  501 -0.0000000000e+00 -0.0000000000e+00 -6.6964152994e+02 6.6964152994e+02 0.0000000000e+00 0.0000e+00 -1.0000e+00
      -13  1    1    2    0    0 -9.1649119455e+02 -2.2387772008e+02 +1.7390051066e+02 9.5933244021e+02 0.0000000000e+00 0.0000e+00 1.0000e+00
       13  1    1    2    0    0 +9.1649119455e+02 +2.2387772008e+02 +5.2660926079e+02 1.0804603911e+03 0.0000000000e+00 0.0000e+00 -1.0000e+00
<mgrwt>
<rscale>  0 0.19157351E+04</rscale>
<asrwt>0</asrwt>
<pdfrwt beam="1">  1        2 0.21079251E+00 0.19157351E+04</pdfrwt>
<pdfrwt beam="2">  1       -2 0.10302177E+00 0.19157351E+04</pdfrwt>
<totfact> 0.13789199E+01</totfact>
</mgrwt>
<rwgt>
<wgt id='morphing_basis_vector_1'> +1.1746203e-04 </wgt>
<wgt id='morphing_basis_vector_2'> +8.3061932e-05 </wgt>
<wgt id='morphing_basis_vector_3'> +1.2577025e-04 </wgt>
<wgt id='morphing_basis_vector_4'> +8.0889825e-05 </wgt>
<wgt id='morphing_basis_vector_5'> +1.3542075e-04 </wgt>
</rwgt>
</event>
<event>
 4      1 +6.0853000e-08 2.17534000e+03 7.81860800e-03 8.00319800e-02
        2 -1    0    0  501    0 +0.0000000000e+00 +0.0000000000e+00 +9.9043771596e+02 9.9043771596e+02 0.0000000000e+00 0.0000e+00 1.0000e+00
       -2 -1    0    0    0  501 -0.0000000000e+00 -0.0000000000e+00 -1.1944472467e+03 1.1944472467e+03 0.0000000000e+00 0.0000e+00 -1.0000e+00
      -13  1    1    2    0    0 -1.0225479921e+03 +1.6885341371e+02 -4.3346760905e+02 1.1233922020e+03 0.0000000000e+00 0.0000e+00 -1.0000e+00
       13  1    1    2    0    0 +1.0225479921e+03 -1.6885341371e+02 +2.2945807828e+02 1.0614927607e+03 0.0000000000e+00 0.0000e+00 1.0000e+00
<mgrwt>
<rscale>  0 0.21753396E+04</rscale>
<asrwt>0</asrwt>
<pdfrwt beam="1">  1        2 0.15237503E+00 0.21753396E+04</pdfrwt>
<pdfrwt beam="2">  1       -2 0.18376112E+00 0.21753396E+04</pdfrwt>
<totfact> 0.45463608E+00</totfact>
</mgrwt>
<rwgt>
<wgt id='morphing_basis_vector_1'> +1.9186852e-04 </wgt>
<wgt id='morphing_basis_vector_2'> +1.3302009e-04 </wgt>
<wgt id='morphing_basis_vector_3'> +2.0682639e-04 </wgt>
<wgt id='morphing_basis_vector_4'> +1.3877285e-04 </wgt>
<wgt id='morphing_basis_vector_5'> +2.2759877e-04 </wgt>
</rwgt>
</event>
<event>
 4      1 +6.0853000e-08 1.99969500e+03 7.81860800e-03 8.07168300e-02
        2 -1    0    0  501    0 +0.0000000000e+00 +0.0000000000e+00 +1.6306282818e+03 1.6306282818e+03 0.0000000000e+00 0.0000e+00 1.0000e+00
       -2 -1    0    0    0  501 -0.0000000000e+00 -0.0000000000e+00 -6.1307379642e+02 6.1307379642e+02 0.0000000000e+00 0.0000e+00 -1.0000e+00
      -13  1    1    2    0    0 -3.7610843081e+02 -4.3385180054e+02 -4.0964448131e+02 7.0533221791e+02 0.0000000000e+00 0.0000e+00 -1.0000e+00
       13  1    1    2    0    0 +3.7610843081e+02 +4.3385180054e+02 +1.4271989667e+03 1.5383698603e+03 0.0000000000e+00 0.0000e+00 1.0000e+00
<mgrwt>
<rscale>  0 0.19996954E+04</rscale>
<asrwt>0</asrwt>
<pdfrwt beam="1">  1        2 0.25086589E+00 0.19996954E+04</pdfrwt>
<pdfrwt beam="2">  1       -2 0.94319046E-01 0.19996954E+04</pdfrwt>
<totfact> 0.12086903E+01</totfact>
</mgrwt>
<rwgt>
<wgt id='morphing_basis_vector_1'> +1.3639242e-04 </wgt>
<wgt id='morphing_basis_vector_2'> +9.0880308e-05 </wgt>
<wgt id='morphing_basis_vector_3'> +1.4558203e-04 </wgt>
<wgt id='morphing_basis_vector_4'> +1.0144233e-04 </wgt>
<wgt id='morphing_basis_vector_5'> +1.6174790e-04 </wgt>
</rwgt>
</event>
<event>
 4      1 +6.0853000e-08 2.06898800e+03 7.81860800e-03 8.04382500e-02
        2 -1    0    0  501    0 +0.0000000000e+00 +0.0000000000e+00 +8.7463825919e+02 8.7463825919e+02 0.0000000000e+00 0.0000e+00 -1.0000e+00
       -2 -1    0    0    0  501 -0.0000000000e+00 -0.0000000000e+00 -1.2235660854e+03 1.2235660854e+03 0.0000000000e+00 0.0000e+00 1.0000e+00
      -13  1    1    2    0    0 +2.9926085081e+02 +4.6451421335e+01 -1.1776050066e+03 1.2159228359e+03 0.0000000000e+00 0.0000e+00 1.0000e+00
       13  1    1    2    0    0 -2.9926085081e+02 -4.6451421335e+01 +8.2867718034e+02 8.8228150870e+02 0.0000000000e+00 0.0000e+00 -1.0000e+00
<mgrwt>
<rscale>  0 0.20689879E+04</rscale>
<asrwt>0</asrwt>
<pdfrwt beam="1">  1        2 0.13455973E+00 0.20689879E+04</pdfrwt>
<pdfrwt beam="2">  1       -2 0.18824094E+00 0.20689879E+04</pdfrwt>
<totfact> 0.50410582E+00</totfact>
</mgrwt>
<rwgt>
<wgt id='morphing_basis_vector_1'> +1.5582743e-04 </wgt>
<wgt id='morphing_basis_vector_2'> +1.0385366e-04 </wgt>
<wgt id='morphing_basis_vector_3'> +1.6670918e-04 </wgt>
<wgt id='morphing_basis_vector_4'> +1.1666885e-04 </wgt>
<wgt id='morphing_basis_vector_5'> +1.8586165e-04 </wgt>
</rwgt>
</event>
<event>
 4      1 +6.0853000e-08 1.92237200e+03 7.81860800e-03 8.10419000e-02
        2 -1    0    0  501    0 +0.0000000000e+00 +0.0000000000e+00 +1.2187277184e+03 1.2187277184e+03 0.0000000000e+00 0.0000e+00 1.0000e+00
       -2 -1    0    0    0  501 -0.0000000000e+00 -0.0000000000e+00 -7.5806779653e+02 7.5806779653e+02 0.0000000000e+00 0.0000e+00 -1.0000e+00
      -13  1    1    2    0    0 -7.6804068981e+02 -4.6546571648e+02 -1.2190723399e+02 9.0631462977e+02 0.0000000000e+00 0.0000e+00 1.0000e+00
       13  1    1    2    0    0 +7.6804068981e+02 +4.6546571648e+02 +5.8256715589e+02 1.0704808852e+03 0.0000000000e+00 0.0000e+00 -1.0000e+00
<mgrwt>
<rscale>  0 0.19223717E+04</rscale>
<asrwt>0</asrwt>
<pdfrwt beam="1">  1        2 0.18749657E+00 0.19223717E+04</pdfrwt>
<pdfrwt beam="2">  1       -2 0.11662581E+00 0.19223717E+04</pdfrwt>
<totfact> 0.12337796E+01</totfact>
</mgrwt>
<rwgt>
<wgt id='morphing_basis_vector_1'> +1.1786939e-04 </wgt>
<wgt id='morphing_basis_vector_2'> +8.0672437e-05 </wgt>
<wgt id='morphing_basis_vector_3'> +1.2580370e-04 </wgt>
<wgt id='morphing_basis_vector_4'> +8.4397687e-05 </wgt>
<wgt id='morphing_basis_vector_5'> +1.3753337e-04 </wgt>
</rwgt>
</event>
<event>
 4      1 +6.0853000e-08 2.06208300e+03 7.81860800e-03 8.04655000e-02
        2 -1    0    0  501    0 +0.0000000000e+00 +0.0000000000e+00 +2.1649088854e+03 2.1649088854e+03 0.0000000000e+00 0.0000e+00 1.0000e+00
       -2 -1    0    0    0  501 -0.0000000000e+00 -0.0000000000e+00 -4.9103520535e+02 4.9103520535e+02 0.0000000000e+00 0.0000e+00 -1.0000e+00
      -13  1    1    2    0    0 +6.8491258040e+02 -3.5076852626e+02 -4.6912793278e+01 7.7093748901e+02 0.0000000000e+00 0.0000e+00 -1.0000e+00
       13  1    1    2    0    0 -6.8491258040e+02 +3.5076852626e+02 +1.7207864733e+03 1.8850066017e+03 0.0000000000e+00 0.0000e+00 1.0000e+00
<mgrwt>
<rscale>  0 0.20620829E+04</rscale>
<asrwt>0</asrwt>
<pdfrwt beam="1">  1        2 0.33306290E+00 0.20620829E+04</pdfrwt>
<pdfrwt beam="2">  1       -2 0.75543879E-01 0.20620829E+04</pdfrwt>
<totfact> 0.10042278E+01</totfact>
</mgrwt>
<rwgt>
<wgt id='morphing_basis_vector_1'> +1.5404410e-04 </wgt>
<wgt id='morphing_basis_vector_2'> +1.0321747e-04 </wgt>
<wgt id='morphing_basis_vector_3'> +1.6486147e-04 </wgt>
<wgt id='morphing_basis_vector_4'> +1.1459620e-04 </wgt>
<wgt id='morphing_basis_vector_5'> +1.8330738e-04 </wgt>
</rwgt>
</event>
<event>
 4      1 +6.0853000e-08 1.88884500e+03 7.81860800e-03 8.11878400e-02
        2 -1    0    0  501    0 +0.0000000000e+00 +0.0000000000e+00 +1.2465300754e+03 1.2465300754e+03 0.0000000000e+00 0.0000e+00 -1.0000e+00
       -2 -1    0    0    0  501 -0.0000000000e+00 -0.0000000000e+00 -7.1553309077e+02 7.1553309077e+02 0.0000000000e+00 0.0000e+00 1.0000e+00
      -13  1    1    2    0    0 +4.1559994663e+02 -6.3335169772e+02 -3.2034563504e+02 8.2248344332e+02 0.0000000000e+00 0.0000e+00 1.0000e+00
       13  1    1    2    0    0 -4.1559994663e+02 +6.3335169772e+02 +8.5134261962e+02 1.1395797228e+03 0.0000000000e+00 0.0000e+00 -1.0000e+00
<mgrwt>
<rscale>  0 0.18888446E+04</rscale>
<asrwt>0</asrwt>
<pdfrwt beam="1">  1        2 0.19177386E+00 0.18888446E+04</pdfrwt>
<pdfrwt beam="2">  1       -2 0.11008201E+00 0.18888446E+04</pdfrwt>
<totfact> 0.13803479E+01</totfact>
</mgrwt>
<rwgt>
<wgt id='morphing_basis_vector_1'> +1.0933851e-04 </wgt>
<wgt id='morphing_basis_vector_2'> +7.3190872e-05 </wgt>
<wgt id='morphing_basis_vector_3'> +1.1627317e-04 </wgt>
<wgt id='morphing_basis_vector_4'> +7.9907811e-05 </wgt>
<wgt id='morphing_basis_vector_5'> +1.2809339e-04 </wgt>
</rwgt>
</event>
<event>
 4      1 +6.0853000e-08 1.86976100e+03 7.81860800e-03 8.12723300e-02
        2 -1    0    0  501    0 +0.0000000000e+00 +0.0000000000e+00 +1.3087702628e+03 1.3087702628e+03 0.0000000000e+00 0.0000e+00 -1.0000e+00
       -2 -1    0    0    0  501 -0.0000000000e+00 -0.0000000000e+00 -6.6780337131e+02 6.6780337131e+02 0.0000000000e+00 0.0000e+00 1.0000e+00
      -13  1    1    2    0    0 +2.8740821897e+02 +4.1448760312e+02 +1.1525956670e+03 1.2581256810e+03 0.0000000000e+00 0.0000e+00 -1.0000e+00
       13  1    1    2    0    0 -2.8740821897e+02 -4.1448760312e+02 -5.1162877551e+02 7.1844795316e+02 0.0000000000e+00 0.0000e+00 1.0000e+00
<mgrwt>
<rscale>  0 0.18697606E+04</rscale>
<asrwt>0</asrwt>
<pdfrwt beam="1">  1        2 0.20134927E+00 0.18697606E+04</pdfrwt>
<pdfrwt beam="2">  1       -2 0.10273898E+00 0.18697606E+04</pdfrwt>
<totfact> 0.15105003E+01</totfact>
</mgrwt>
<rwgt>
<wgt id='morphing_basis_vector_1'> +1.4113736e-04 </wgt>
<wgt id='morphing_basis_vector_2'> +1.7719344e-04 </wgt>
<wgt id='morphing_basis_vector_3'> +1.6313949e-04 </wgt>
<wgt id='morphing_basis_vector_4'> +5.7661100e-06 </wgt>
<wgt id='morphing_basis_vector_5'> +1.1734749e-04 </wgt>
</rwgt>
</event>
<event>
 4      1 +6.0853000e-08 2.21610400e+03 7.81860800e-03 7.98825800e-02
        2 -1    0    0  501    0 +0.0000000000e+00 +0.0000000000e+00 +2.6374036807e+03 2.6374036807e+03 0.0000000000e+00 0.0000e+00 1.0000e+00
       -2 -1    0    0    0  501 -0.0000000000e+00 -0.0000000000e+00 -4.6552588142e+02 4.6552588142e+02 0.0000000000e+00 0.0000e+00 -1.0000e+00
      -13  1    1    2    0    0 -1.1026969546e+03 +4.7434350399e+01 +9.4882855823e+02 1.4554951818e+03 0.0000000000e+00 0.0000e+00 1.0000e+00
       13  1    1    2    0    0 +1.1026969546e+03 -4.7434350399e+01 +1.2230492410e+03 1.6474343803e+03 0.0000000000e+00 0.0000e+00 -1.0000e+00
<mgrwt>
<rscale>  0 0.22161044E+04</rscale>
<asrwt>0</asrwt>
<pdfrwt beam="1">  1        2 0.40575440E+00 0.22161044E+04</pdfrwt>
<pdfrwt beam="2">  1       -2 0.71619368E-01 0.22161044E+04</pdfrwt>
<totfact> 0.58701980E+00</totfact>
</mgrwt>
<rwgt>
<wgt id='morphing_basis_vector_1'> +2.0950880e-04 </wgt>
<wgt id='morphing_basis_vector_2'> +1.5237628e-04 </wgt>
<wgt id='morphing_basis_vector_3'> +2.2739305e-04 </wgt>
<wgt id='morphing_basis_vector_4'> +1.4337389e-04 </wgt>
<wgt id='morphing_basis_vector_5'> +2.4494534e-04 </wgt>
</rwgt>
</event>
<event>
 4      1 +6.0853000e-08 2.05042200e+03 7.81860800e-03 8.05117700e-02
        2 -1    0    0  501    0 +0.0000000000e+00 +0.0000000000e+00 +1.2051669209e+03 1.2051669209e+03 0.0000000000e+00 0.0000e+00 -1.0000e+00
       -2 -1    0    0    0  501 -0.0000000000e+00 -0.0000000000e+00 -8.7212576180e+02 8.7212576180e+02 0.0000000000e+00 0.0000e+00 1.0000e+00
      -13  1    1    2    0    0 +5.3009765539e+02 -5.3773547950e+02 -5.3603272849e+02 9.2600974950e+02 0.0000000000e+00 0.0000e+00 1.0000e+00
       13  1    1    2    0    0 -5.3009765539e+02 +5.3773547950e+02 +8.6907388755e+02 1.1512829332e+03 0.0000000000e+00 0.0000e+00 -1.0000e+00
<mgrwt>
<rscale>  0 0.20504215E+04</rscale>
<asrwt>0</asrwt>
<pdfrwt beam="1">  1        2 0.18541030E+00 0.20504215E+04</pdfrwt>
<pdfrwt beam="2">  1       -2 0.13417319E+00 0.20504215E+04</pdfrwt>
<totfact> 0.85867666E+00</totfact>
</mgrwt>
<rwgt>
<wgt id='morphing_basis_vector_1'> +1.5063579e-04 </wgt>
<wgt id='morphing_basis_vector_2'> +1.0086607e-04 </wgt>
<wgt id='morphing_basis_vector_3'> +1.6114208e-04 </wgt>
<wgt id='morphing_basis_vector_4'> +1.1201611e-04 </wgt>
<wgt id='morphing_basis_vector_5'> +1.7912145e-04 </wgt>
</rwgt>
</event>
<event>
 4      1 +6.0853000e-08 2.09710800e+03 7.81860800e-03 8.03284100e-02
        2 -1    0    0  501    0 +0.0000000000e+00 +0.0000000000e+00 +6.9381116384e+02 6.9381116384e+02 0.0000000000e+00 0.0000e+00 1.0000e+00
       -2 -1    0    0    0  501 -0.0000000000e+00 -0.0000000000e+00 -1.5846749375e+03 1.5846749375e+03 0.0000000000e+00 0.0000e+00 -1.0000e+00
      -13  1    1    2    0    0 -3.4126795892e+02 +3.8840235723e+02 -1.4365493836e+03 1.5267594252e+03 0.0000000000e+00 0.0000e+00 -1.0000e+00
       13  1    1    2    0    0 +3.4126795892e+02 -3.8840235723e+02 +5.4568560988e+02 7.5172667621e+02 0.0000000000e+00 0.0000e+00 1.0000e+00
<mgrwt>
<rscale>  0 0.20971077E+04</rscale>
<asrwt>0</asrwt>
<pdfrwt beam="1">  1        2 0.10674018E+00 0.20971077E+04</pdfrwt>
<pdfrwt beam="2">  1       -2 0.24379614E+00 0.20971077E+04</pdfrwt>
<totfact> 0.27023818E+00</totfact>
</mgrwt>
<rwgt>
<wgt id='morphing_basis_vector_1'> +1.6433651e-04 </wgt>
<wgt id='morphing_basis_vector_2'> +1.0965505e-04 </wgt>
<wgt id='morphing_basis_vector_3'> +1.7598639e-04 </wgt>
<wgt id='morphing_basis_vector_4'> +1.2320354e-04 </wgt>
<wgt id='morphing_basis_vector_5'> +1.9636583e-04 </wgt>
</rwgt>
</event>
<event>
 4      1 +6.0853000e-08 2.09228100e+03 7.81860800e-03 8.03471400e-02
        2 -1    0    0  501    0 +0.0000000000e+00 +0.0000000000e+00 +1.5927364937e+03 1.5927364937e+03 0.0000000000e+00 0.0000e+00 -1.0000e+00
       -2 -1    0    0    0  501 -0.0000000000e+00 -0.0000000000e+00 -6.8712562782e+02 6.8712562782e+02 0.0000000000e+00 0.0000e+00 1.0000e+00
      -13  1    1    2    0    0 +5.7365587369e+02 -1.5096221569e+02 -4.8615718668e+02 7.6695466760e+02 0.0000000000e+00 0.0000e+00 1.0000e+00
       13  1    1    2    0    0 -5.7365587369e+02 +1.5096221569e+02 +1.3917680525e+03 1.5129074539e+03 0.0000000000e+00 0.0000e+00 -1.0000e+00
<mgrwt>
<rscale>  0 0.20922811E+04</rscale>
<asrwt>0</asrwt>
<pdfrwt beam="1">  1        2 0.24503638E+00 0.20922811E+04</pdfrwt>
<pdfrwt beam="2">  1       -2 0.10571164E+00 0.20922811E+04</pdfrwt>
<totfact> 0.95606498E+00</totfact>
</mgrwt>
<rwgt>
<wgt id='morphing_basis_vector_1'> +1.6288628e-04 </wgt>
<wgt id='morphing_basis_vector_2'> +1.0874485e-04 </wgt>
<wgt id='morphing_basis_vector_3'> +1.7441813e-04 </wgt>
<wgt id='morphing_basis_vector_4'> +1.2199357e-04 </wgt>
<wgt id='morphing_basis_vector_5'> +1.9452665e-04 </wgt>
</rwgt>
</event>
<event>
 4      1 +6.0853000e-08 1.90153100e+03 7.81860800e-03 8.11322500e-02
        2 -1    0    0  501    0 +0.0000000000e+00 +0.0000000000e+00 +3.0227215013e+03 3.0227215013e+03 0.0000000000e+00 0.0000e+00 -1.0000e+00
       -2 -1    0    0    0  501 -0.0000000000e+00 -0.0000000000e+00 -2.9905342851e+02 2.9905342851e+02 0.0000000000e+00 0.0000e+00 1.0000e+00
      -13  1    1    2    0    0 -3.9156057392e+02 +7.5359232738e+02 +2.1085863984e+03 2.2731822801e+03 0.0000000000e+00 0.0000e+00 1.0000e+00
       13  1    1    2    0    0 +3.9156057392e+02 -7.5359232738e+02 +6.1508167441e+02 1.0485926498e+03 0.0000000000e+00 0.0000e+00 -1.0000e+00
<mgrwt>
<rscale>  0 0.19015312E+04</rscale>
<asrwt>0</asrwt>
<pdfrwt beam="1">  1        2 0.46503406E+00 0.19015312E+04</pdfrwt>
<pdfrwt beam="2">  1       -2 0.46008222E-01 0.19015312E+04</pdfrwt>
<totfact> 0.85052001E+00</totfact>
</mgrwt>
<rwgt>
<wgt id='morphing_basis_vector_1'> +1.2983678e-04 </wgt>
<wgt id='morphing_basis_vector_2'> +1.2731343e-04 </wgt>
<wgt id='morphing_basis_vector_3'> +1.4468220e-04 </wgt>
<wgt id='morphing_basis_vector_4'> +4.7412415e-05 </wgt>
<wgt id='morphing_basis_vector_5'> +1.2893188e-04 </wgt>
</rwgt>
</event>
<event>
 4      1 +6.0853000e-08 1.98807100e+03 7.81860800e-03 8.07647200e-02
        2 -1    0    0  501    0 +0.0000000000e+00 +0.0000000000e+00 +2.7600754064e+03 2.7600754064e+03 0.0000000000e+00 0.0000e+00 -1.0000e+00
       -2 -1    0    0    0  501 -0.0000000000e+00 -0.0000000000e+00 -3.5799968178e+02 3.5799968178e+02 0.0000000000e+00 0.0000e+00 1.0000e+00
      -13  1    1    2    0    0 -1.0114064272e+02 +6.3667202543e+02 +1.4307191654e+01 6.4481423163e+02 0.0000000000e+00 0.0000e+00 1.0000e+00
       13  1    1    2    0    0 +1.0114064272e+02 -6.3667202543e+02 +2.3877685329e+03 2.4732608565e+03 0.0000000000e+00 0.0000e+00 -1.0000e+00
<mgrwt>
<rscale>  0 0.19880705E+04</rscale>
<asrwt>0</asrwt>
<pdfrwt beam="1">  1        2 0.42462697E+00 0.19880705E+04</pdfrwt>
<pdfrwt beam="2">  1       -2 0.55076876E-01 0.19880705E+04</pdfrwt>
<totfact> 0.86979536E+00</totfact>
</mgrwt>
<rwgt>
<wgt id='morphing_basis_vector_1'> +1.3335705e-04 </wgt>
<wgt id='morphing_basis_vector_2'> +8.8937929e-05 </wgt>
<wgt id='morphing_basis_vector_3'> +1.4229799e-04 </wgt>
<wgt id='morphing_basis_vector_4'> +9.8968168e-05 </wgt>
<wgt id='morphing_basis_vector_5'> +1.5793752e-04 </wgt>
</rwgt>
</event>
<event>
 4      1 +6.0853000e-08 1.87100900e+03 7.81860800e-03 8.12667700e-02
        2 -1    0    0  501    0 +0.0000000000e+00 +0.0000000000e+00 +6.1147656728e+02 6.1147656728e+02 0.0000000000e+00 0.0000e+00 -1.0000e+00
       -2 -1    0    0    0  501 -0.0000000000e+00 -0.0000000000e+00 -1.4312387713e+03 1.4312387713e+03 0.0000000000e+00 0.0000e+00 1.0000e+00
      -13  1    1    2    0    0 +3.9720933244e+02 -3.0547184472e+02 -1.2723675184e+03 1.3674821401e+03 0.0000000000e+00 0.0000e+00 1.0000e+00
       13  1    1    2    0    0 -3.9720933244e+02 +3.0547184472e+02 +4.5260531437e+02 6.7523319845e+02 0.0000000000e+00 0.0000e+00 -1.0000e+00
<mgrwt>
<rscale>  0 0.18710093E+04</rscale>
<asrwt>0</asrwt>
<pdfrwt beam="1">  1        2 0.94073318E-01 0.18710093E+04</pdfrwt>
<pdfrwt beam="2">  1       -2 0.22019058E+00 0.18710093E+04</pdfrwt>
<totfact> 0.46951351E+00</totfact>
</mgrwt>
<rwgt>
<wgt id='morphing_basis_vector_1'> +1.0511922e-04 </wgt>
<wgt id='morphing_basis_vector_2'> +6.9783774e-05 </wgt>
<wgt id='morphing_basis_vector_3'> +1.1160998e-04 </wgt>
<wgt id='morphing_basis_vector_4'> +7.7337468e-05 </wgt>
<wgt id='morphing_basis_vector_5'> +1.2325313e-04 </wgt>
</rwgt>
</event>
<event>
 4      1 +6.0853000e-08 2.18503400e+03 7.81860800e-03 7.99961400e-02
        2 -1    0    0  501    0 +0.0000000000e+00 +0.0000000000e+00 +7.0933722229e+02 7.0933722229e+02 0.0000000000e+00 0.0000e+00 1.0000e+00
       -2 -1    0    0    0  501 -0.0000000000e+00 -0.0000000000e+00 -1.6826887222e+03 1.6826887222e+03 0.0000000000e+00 0.0000e+00 -1.0000e+00
      -13  1    1    2    0    0 -2.5017389688e+02 -8.8142823865e+02 +1.6475024213e+02 9.3093789313e+02 0.0000000000e+00 0.0000e+00 1.0000e+00
       13  1    1    2    0    0 +2.5017389688e+02 +8.8142823865e+02 -1.1381017420e+03 1.4610880513e+03 0.0000000000e+00 0.0000e+00 -1.0000e+00
<mgrwt>
<rscale>  0 0.21850343E+04</rscale>
<asrwt>0</asrwt>
<pdfrwt beam="1">  1        2 0.10912880E+00 0.21850343E+04</pdfrwt>
<pdfrwt beam="2">  1       -2 0.25887519E+00 0.21850343E+04</pdfrwt>
<totfact> 0.20529752E+00</totfact>
</mgrwt>
<rwgt>
<wgt id='morphing_basis_vector_1'> +2.3297254e-04 </wgt>
<wgt id='morphing_basis_vector_2'> +2.4690115e-04 </wgt>
<wgt id='morphing_basis_vector_3'> +2.6663631e-04 </wgt>
<wgt id='morphing_basis_vector_4'> +6.5248681e-05 </wgt>
<wgt id='morphing_basis_vector_5'> +2.2567791e-04 </wgt>
</rwgt>
</event>
<event>
 4      1 +6.0853000e-08 2.14479000e+03 7.81860800e-03 8.01461700e-02
        2 -1    0    0  501    0 +0.0000000000e+00 +0.0000000000e+00 +3.2814503408e+03 3.2814503408e+03 0.0000000000e+00 0.0000e+00 1.0000e+00
       -2 -1    0    0    0  501 -0.0000000000e+00 -0.0000000000e+00 -3.5046434613e+02 3.5046434613e+02 0.0000000000e+00 0.0000e+00 -1.0000e+00
      -13  1    1    2    0    0 -9.1557572223e+02 +3.5279179191e+02 +7.3265402345e+02 1.2245500683e+03 0.0000000000e+00 0.0000e+00 -1.0000e+00
       13  1    1    2    0    0 +9.1557572223e+02 -3.5279179191e+02 +2.1983319713e+03 2.4073646187e+03 0.0000000000e+00 0.0000e+00 1.0000e+00
<mgrwt>
<rscale>  0 0.21447903E+04</rscale>
<asrwt>0</asrwt>
<pdfrwt beam="1">  1        2 0.50483849E+00 0.21447903E+04</pdfrwt>
<pdfrwt beam="2">  1       -2 0.53917594E-01 0.21447903E+04</pdfrwt>
<totfact> 0.40846106E+00</totfact>
</mgrwt>
<rwgt>
<wgt id='morphing_basis_vector_1'> +1.8076522e-04 </wgt>
<wgt id='morphing_basis_vector_2'> +1.2360582e-04 </wgt>
<wgt id='morphing_basis_vector_3'> +1.9438067e-04 </wgt>
<wgt id='morphing_basis_vector_4'> +1.3248150e-04 </wgt>
<wgt id='morphing_basis_vector_5'> +2.1498821e-04 </wgt>
</rwgt>
</event>
<event>
 4      1 +6.0853000e-08 1.88204000e+03 7.81860800e-03 8.12178500e-02
        2 -1    0    0  501    0 +0.0000000000e+00 +0.0000000000e+00 +1.7242593336e+03 1.7242593336e+03 0.0000000000e+00 0.0000e+00 -1.0000e+00
       -2 -1    0    0    0  501 -0.0000000000e+00 -0.0000000000e+00 -5.1356459597e+02 5.1356459597e+02 0.0000000000e+00 0.0000e+00 1.0000e+00
      -13  1    1    2    0    0 +8.5216674448e+02 +2.4882858894e+02 +9.7646311550e+02 1.3196908892e+03 0.0000000000e+00 0.0000e+00 1.0000e+00
       13  1    1    2    0    0 -8.5216674448e+02 -2.4882858894e+02 +2.3423162216e+02 9.1813304041e+02 0.0000000000e+00 0.0000e+00 -1.0000e+00
<mgrwt>
<rscale>  0 0.18820399E+04</rscale>
<asrwt>0</asrwt>
<pdfrwt beam="1">  1        2 0.26527066E+00 0.18820399E+04</pdfrwt>
<pdfrwt beam="2">  1       -2 0.79009938E-01 0.18820399E+04</pdfrwt>
<totfact> 0.16308912E+01</totfact>
</mgrwt>
<rwgt>
<wgt id='morphing_basis_vector_1'> +1.1958963e-04 </wgt>
<wgt id='morphing_basis_vector_2'> +1.0707999e-04 </wgt>
<wgt id='morphing_basis_vector_3'> +1.3146981e-04 </wgt>
<wgt id='morphing_basis_vector_4'> +5.5540554e-05 </wgt>
<wgt id='morphing_basis_vector_5'> +1.2440356e-04 </wgt>
</rwgt>
</event>
<event>
 4      1 +6.0853000e-08 1.96963500e+03 7.81860800e-03 8.08413600e-02
        2 -1    0    0  501    0 +0.0000000000e+00 +0.0000000000e+00 +2.5919836187e+03 2.5919836187e+03 0.0000000000e+00 0.0000e+00 1.0000e+00
       -2 -1    0    0    0  501 -0.0000000000e+00 -0.0000000000e+00 -3.7417903103e+02 3.7417903103e+02 0.0000000000e+00 0.0000e+00 -1.0000e+00
      -13  1    1    2    0    0 -5.0969935892e+02 +7.4370752754e+02 +1.7055523060e+03 1.9291974994e+03 0.0000000000e+00 0.0000e+00 1.0000e+00
       13  1    1    2    0    0 +5.0969935892e+02 -7.4370752754e+02 +5.1225228165e+02 1.0369651504e+03 0.0000000000e+00 0.0000e+00 -1.0000e+00
<mgrwt>
<rscale>  0 0.19696354E+04</rscale>
<asrwt>0</asrwt>
<pdfrwt beam="1">  1        2 0.39876670E+00 0.19696354E+04</pdfrwt>
<pdfrwt beam="2">  1       -2 0.57566006E-01 0.19696354E+04</pdfrwt>
<totfact> 0.10097277E+01</totfact>
</mgrwt>
<rwgt>
<wgt id='morphing_basis_vector_1'> +1.4637354e-04 </wgt>
<wgt id='morphing_basis_vector_2'> +1.3841705e-04 </wgt>
<wgt id='morphing_basis_vector_3'> +1.6290163e-04 </wgt>
<wgt id='morphing_basis_vector_4'> +5.9959127e-05 </wgt>
<wgt id='morphing_basis_vector_5'> +1.4926325e-04 </wgt>
</rwgt>
</event>
<event>
 4      1 +6.0853000e-08 1.94771500e+03 7.81860800e-03 8.09336300e-02
        2 -1    0    0  501    0 +0.0000000000e+00 +0.0000000000e+00 +1.3941292638e+03 1.3941292638e+03 0.0000000000e+00 0.0000e+00 -1.0000e+00
       -2 -1    0    0    0  501 -0.0000000000e+00 -0.0000000000e+00 -6.8027986767e+02 6.8027986767e+02 0.0000000000e+00 0.0000e+00 1.0000e+00
      -13  1    1    2    0    0 -8.7991311984e+01 -9.2962608494e+02 +6.2441507261e+01 9.3586648119e+02 0.0000000000e+00 0.0000e+00 1.0000e+00
       13  1    1    2    0    0 +8.7991311984e+01 +9.2962608494e+02 +6.5140788884e+02 1.1385426502e+03 0.0000000000e+00 0.0000e+00 -1.0000e+00
<mgrwt>
<rscale>  0 0.19477146E+04</rscale>
<asrwt>0</asrwt>
<pdfrwt beam="1">  1        2 0.21448142E+00 0.19477146E+04</pdfrwt>
<pdfrwt beam="2">  1       -2 0.10465844E+00 0.19477146E+04</pdfrwt>
<totfact> 0.12822771E+01</totfact>
</mgrwt>
<rwgt>
<wgt id='morphing_basis_vector_1'> +1.2447335e-04 </wgt>
<wgt id='morphing_basis_vector_2'> +8.6166192e-05 </wgt>
<wgt id='morphing_basis_vector_3'> +1.3314593e-04 </wgt>
<wgt id='morphing_basis_vector_4'> +8.8232611e-05 </wgt>
<wgt id='morphing_basis_vector_5'> +1.4503105e-04 </wgt>
</rwgt>
</event>
<event>
 4      1 +6.0853000e-08 1.87940500e+03 7.81860800e-03 8.12295000e-02
        2 -1    0    0  501    0 +0.0000000000e+00 +0.0000000000e+00 +2.2055475398e+03 2.2055475398e+03 0.0000000000e+00 0.0000e+00 -1.0000e+00
       -2 -1    0    0    0  501 -0.0000000000e+00 -0.0000000000e+00 -4.0037267667e+02 4.0037267667e+02 0.0000000000e+00 0.0000e+00 1.0000e+00
      -13  1    1    2    0    0 +3.6121187708e+02 +7.7366365423e+02 +3.5843913967e+02 9.2601732536e+02 0.0000000000e+00 0.0000e+00 1.0000e+00
       13  1    1    2    0    0 -3.6121187708e+02 -7.7366365423e+02 +1.4467357235e+03 1.6799028911e+03 0.0000000000e+00 0.0000e+00 -1.0000e+00
<mgrwt>
<rscale>  0 0.18794052E+04</rscale>
<asrwt>0</asrwt>
<pdfrwt beam="1">  1        2 0.33931500E+00 0.18794052E+04</pdfrwt>
<pdfrwt beam="2">  1       -2 0.61595797E-01 0.18794052E+04</pdfrwt>
<totfact> 0.14940531E+01</totfact>
</mgrwt>
<rwgt>
<wgt id='morphing_basis_vector_1'> +1.0766237e-04 </wgt>
<wgt id='morphing_basis_vector_2'> +7.3070339e-05 </wgt>
<wgt id='morphing_basis_vector_3'> +1.1460606e-04 </wgt>
<wgt id='morphing_basis_vector_4'> +7.7413202e-05 </wgt>
<wgt id='morphing_basis_vector_5'> +1.2542637e-04 </wgt>
</rwgt>
</event>
<event>
 4      1 +6.0853000e-08 1.97736400e+03 7.81860800e-03 8.08091200e-02
        2 -1    0    0  501    0 +0.0000000000e+00 +0.0000000000e+00 +1.6296343502e+03 1.6296343502e+03 0.0000000000e+00 0.0000e+00 -1.0000e+00
       -2 -1    0    0    0  501 -0.0000000000e+00 -0.0000000000e+00 -5.9982283676e+02 5.9982283676e+02 0.0000000000e+00 0.0000e+00 1.0000e+00
      -13  1    1    2    0    0 +5.0429674614e+02 +5.3595965310e+02 -2.2951404743e+02 7.7087265867e+02 0.0000000000e+00 0.0000e+00 1.0000e+00
       13  1    1    2    0    0 -5.0429674614e+02 -5.3595965310e+02 +1.2593255609e+03 1.4585845283e+03 0.0000000000e+00 0.0000e+00 -1.0000e+00
<mgrwt>
<rscale>  0 0.19773638E+04</rscale>
<asrwt>0</asrwt>
<pdfrwt beam="1">  1        2 0.25071297E+00 0.19773638E+04</pdfrwt>
<pdfrwt beam="2">  1       -2 0.92280437E-01 0.19773638E+04</pdfrwt>
<totfact> 0.12765016E+01</totfact>
</mgrwt>
<rwgt>
<wgt id='morphing_basis_vector_1'> +1.3067729e-04 </wgt>
<wgt id='morphing_basis_vector_2'> +8.7385392e-05 </wgt>
<wgt id='morphing_basis_vector_3'> +1.3942494e-04 </wgt>
<wgt id='morphing_basis_vector_4'> +9.6589527e-05 </wgt>
<wgt id='morphing_basis_vector_5'> +1.5447663e-04 </wgt>
</rwgt>
</event>
<event>
 4      1 +6.0853000e-08 1.93410500e+03 7.81860800e-03 8.09915600e-02
        2 -1    0    0  501    0 +0.0000000000e+00 +0.0000000000e+00 +4.8742200693e+03 4.8742200693e+03 0.0000000000e+00 0.0000e+00 1.0000e+00
       -2 -1    0    0    0  501 -0.0000000000e+00 -0.0000000000e+00 -1.9186473732e+02 1.9186473732e+02 0.0000000000e+00 0.0000e+00 -1.0000e+00
      -13  1    1    2    0    0 +7.3399786947e+02 +4.7561716600e+02 +1.2604761544e+03 1.5341983890e+03 0.0000000000e+00 0.0000e+00 -1.0000e+00
       13  1    1    2    0    0 -7.3399786947e+02 -4.7561716600e+02 +3.4218791776e+03 3.5318864176e+03 0.0000000000e+00 0.0000e+00 1.0000e+00
<mgrwt>
<rscale>  0 0.19341054E+04</rscale>
<asrwt>0</asrwt>
<pdfrwt beam="1">  1        2 0.74987992E+00 0.19341054E+04</pdfrwt>
<pdfrwt beam="2">  1       -2 0.29517656E-01 0.19341054E+04</pdfrwt>
<totfact> 0.48082353E-01</totfact>
</mgrwt>
<rwgt>
<wgt id='morphing_basis_vector_1'> +1.2041382e-04 </wgt>
<wgt id='morphing_basis_vector_2'> +8.1763241e-05 </wgt>
<wgt id='morphing_basis_vector_3'> +1.2847242e-04 </wgt>
<wgt id='morphing_basis_vector_4'> +8.7107032e-05 </wgt>
<wgt id='morphing_basis_vector_5'> +1.4104247e-04 </wgt>
</rwgt>
</event>
<event>
 4      1 +6.0853000e-08 1.96614700e+03 7.81860800e-03 8.08559600e-02
        2 -1    0    0  501    0 +0.0000000000e+00 +0.0000000000e+00 +2.1419063469e+03 2.1419063469e+03 0.0000000000e+00 0.0000e+00 -1.0000e+00
       -2 -1    0    0    0  501 -0.0000000000e+00 -0.0000000000e+00 -4.5120237389e+02 4.5120237389e+02 0.0000000000e+00 0.0000e+00 1.0000e+00
      -13  1    1    2    0    0 -7.4239716942e+02 -5.7483622718e+02 +4.6119143311e+02 1.0460821111e+03 0.0000000000e+00 0.0000e+00 1.0000e+00
       13  1    1    2    0    0 +7.4239716942e+02 +5.7483622718e+02 +1.2295125399e+03 1.5470266097e+03 0.0000000000e+00 0.0000e+00 -1.0000e+00
<mgrwt>
<rscale>  0 0.19661467E+04</rscale>
<asrwt>0</asrwt>
<pdfrwt beam="1">  1        2 0.32952405E+00 0.19661467E+04</pdfrwt>
<pdfrwt beam="2">  1       -2 0.69415751E-01 0.19661467E+04</pdfrwt>
<totfact> 0.12541933E+01</totfact>
</mgrwt>
<rwgt>
<wgt id='morphing_basis_vector_1'> +1.2907074e-04 </wgt>
<wgt id='morphing_basis_vector_2'> +8.9207278e-05 </wgt>
<wgt id='morphing_basis_vector_3'> +1.3813815e-04 </wgt>
<wgt id='morphing_basis_vector_4'> +9.1847364e-05 </wgt>
<wgt id='morphing_basis_vector_5'> +1.5073106e-04 </wgt>
</rwgt>
</event>
<event>
 4      1 +6.0853000e-08 2.04034300e+03 7.81860800e-03 8.05520200e-02
        2 -1    0    0  501    0 +0.0000000000e+00 +0.0000000000e+00 +1.0652825041e+03 1.0652825041e+03 0.0000000000e+00 0.0000e+00 -1.0000e+00
       -2 -1    0    0    0  501 -0.0000000000e+00 -0.0000000000e+00 -9.7697090624e+02 9.7697090624e+02 0.0000000000e+00 0.0000e+00 1.0000e+00
      -13  1    1    2    0    0 -5.9296102619e+02 +1.1087104558e+01 -7.8669624855e+02 9.8519880733e+02 0.0000000000e+00 0.0000e+00 1.0000e+00
       13  1    1    2    0    0 +5.9296102619e+02 -1.1087104558e+01 +8.7500784639e+02 1.0570546030e+03 0.0000000000e+00 0.0000e+00 -1.0000e+00
<mgrwt>
<rscale>  0 0.20403431E+04</rscale>
<asrwt>0</asrwt>
<pdfrwt beam="1">  1        2 0.16388962E+00 0.20403431E+04</pdfrwt>
<pdfrwt beam="2">  1       -2 0.15030322E+00 0.20403431E+04</pdfrwt>
<totfact> 0.75845960E+00</totfact>
</mgrwt>
<rwgt>
<wgt id='morphing_basis_vector_1'> +1.4759307e-04 </wgt>
<wgt id='morphing_basis_vector_2'> +9.8442654e-05 </wgt>
<wgt id='morphing_basis_vector_3'> +1.5776911e-04 </wgt>
<wgt id='morphing_basis_vector_4'> +1.1010716e-04 </wgt>
<wgt id='morphing_basis_vector_5'> +1.7558410e-04 </wgt>
</rwgt>
</event>
<event>
 4      1 +6.0853000e-08 2.08256000e+03 7.81860800e-03 8.03850100e-02
        2 -1    0    0  501    0 +0.0000000000e+00 +0.0000000000e+00 +1.7585723140e+03 1.7585723140e+03 0.0000000000e+00 0.0000e+00 1.0000e+00
       -2 -1    0    0    0  501 -0.0000000000e+00 -0.0000000000e+00 -6.1655929630e+02 6.1655929630e+02 0.0000000000e+00 0.0000e+00 -1.0000e+00
      -13  1    1    2    0    0 +8.6621456343e+01 -7.8498258115e+02 -2.0298242278e+02 8.1541571812e+02 0.0000000000e+00 0.0000e+00 -1.0000e+00
       13  1    1    2    0    0 -8.6621456343e+01 +7.8498258115e+02 +1.3449954405e+03 1.5597158922e+03 0.0000000000e+00 0.0000e+00 1.0000e+00
<mgrwt>
<rscale>  0 0.20825601E+04</rscale>
<asrwt>0</asrwt>
<pdfrwt beam="1">  1        2 0.27054958E+00 0.20825601E+04</pdfrwt>
<pdfrwt beam="2">  1       -2 0.94855277E-01 0.20825601E+04</pdfrwt>
<totfact> 0.10050742E+01</totfact>
</mgrwt>
<rwgt>
<wgt id='morphing_basis_vector_1'> +1.6016203e-04 </wgt>
<wgt id='morphing_basis_vector_2'> +1.0742375e-04 </wgt>
<wgt id='morphing_basis_vector_3'> +1.7153729e-04 </wgt>
<wgt id='morphing_basis_vector_4'> +1.1924855e-04 </wgt>
<wgt id='morphing_basis_vector_5'> +1.9083487e-04 </wgt>
</rwgt>
</event>
<event>
 4      1 +6.0853000e-08 2.05466500e+03 7.81860800e-03 8.04948900e-02
        2 -1    0    0  501    0 +0.0000000000e+00 +0.0000000000e+00 +1.8411327415e+03 1.8411327415e+03 0.0000000000e+00 0.0000e+00 -1.0000e+00
       -2 -1    0    0    0  501 -0.0000000000e+00 -0.0000000000e+00 -5.7324070419e+02 5.7324070419e+02 0.0000000000e+00 0.0000e+00 1.0000e+00
      -13  1    1    2    0    0 +4.3310258965e+02 -6.0047387117e+02 -2.0296840927e+02 7.6768671884e+02 0.0000000000e+00 0.0000e+00 1.0000e+00
       13  1    1    2    0    0 -4.3310258965e+02 +6.0047387117e+02 +1.4708604466e+03 1.6466867269e+03 0.0000000000e+00 0.0000e+00 -1.0000e+00
<mgrwt>
<rscale>  0 0.20546652E+04</rscale>
<asrwt>0</asrwt>
<pdfrwt beam="1">  1        2 0.28325119E+00 0.20546652E+04</pdfrwt>
<pdfrwt beam="2">  1       -2 0.88190878E-01 0.20546652E+04</pdfrwt>
<totfact> 0.10749305E+01</totfact>
</mgrwt>
<rwgt>
<wgt id='morphing_basis_vector_1'> +1.5183545e-04 </wgt>
<wgt id='morphing_basis_vector_2'> +1.0161649e-04 </wgt>
<wgt id='morphing_basis_vector_3'> +1.6243839e-04 </wgt>
<wgt id='morphing_basis_vector_4'> +1.1301785e-04 </wgt>
<wgt id='morphing_basis_vector_5'> +1.8064177e-04 </wgt>
</rwgt>
</event>
<event>
 4      1 +6.0853000e-08 2.00914900e+03 7.81860800e-03 8.06781400e-02
        2 -1    0    0  501    0 +0.0000000000e+00 +0.0000000000e+00 +9.3837257114e+02 9.3837257114e+02 0.0000000000e+00 0.0000e+00 1.0000e+00
       -2 -1    0    0    0  501 -0.0000000000e+00 -0.0000000000e+00 -1.0754469030e+03 1.0754469030e+03 0.0000000000e+00 0.0000e+00 -1.0000e+00
      -13  1    1    2    0    0 +5.1599518115e+02 -8.1744855386e+02 -3.4247949227e+02 1.0255561261e+03 0.0000000000e+00 0.0000e+00 -1.0000e+00
       13  1    1    2    0    0 -5.1599518115e+02 +8.1744855386e+02 +2.0540516040e+02 9.8826334805e+02 0.0000000000e+00 0.0000e+00 1.0000e+00
<mgrwt>
<rscale>  0 0.20091489E+04</rscale>
<asrwt>0</asrwt>
<pdfrwt beam="1">  1        2 0.14436501E+00 0.20091489E+04</pdfrwt>
<pdfrwt beam="2">  1       -2 0.16545337E+00 0.20091489E+04</pdfrwt>
<totfact> 0.68843308E+00</totfact>
</mgrwt>
<rwgt>
<wgt id='morphing_basis_vector_1'> +1.4066286e-04 </wgt>
<wgt id='morphing_basis_vector_2'> +9.7705114e-05 </wgt>
<wgt id='morphing_basis_vector_3'> +1.5086503e-04 </wgt>
<wgt id='morphing_basis_vector_4'> +9.9975977e-05 </wgt>
<wgt id='morphing_basis_vector_5'> +1.6461937e-04 </wgt>
</rwgt>
</event>
<event>
 4      1 +6.0853000e-08 1.87419100e+03 7.81860800e-03 8.12526300e-02
        2 -1    0    0  501    0 +0.0000000000e+00 +0.0000000000e+00 +9.0664429449e+02 9.0664429449e+02 0.0000000000e+00 0.0000e+00 1.0000e+00
       -2 -1    0    0    0  501 -0.0000000000e+00 -0.0000000000e+00 -9.6856957633e+02 9.6856957633e+02 0.0000000000e+00 0.0000e+00 -1.0000e+00
      -13  1    1    2    0    0 +7.5963993305e+02 -5.3881238504e+02 +7.2903767680e+01 9.3417694978e+02 0.0000000000e+00 0.0000e+00 -1.0000e+00
       13  1    1    2    0    0 -7.5963993305e+02 +5.3881238504e+02 -1.3482904952e+02 9.4103692103e+02 0.0000000000e+00 0.0000e+00 1.0000e+00
<mgrwt>
<rscale>  0 0.18741911E+04</rscale>
<asrwt>0</asrwt>
<pdfrwt beam="1">  1        2 0.13948374E+00 0.18741911E+04</pdfrwt>
<pdfrwt beam="2">  1       -2 0.14901070E+00 0.18741911E+04</pdfrwt>
<totfact> 0.99174240E+00</totfact>
</mgrwt>
<rwgt>
<wgt id='morphing_basis_vector_1'> +1.1150271e-04 </wgt>
<wgt id='morphing_basis_vector_2'> +8.7102785e-05 </wgt>
<wgt id='morphing_basis_vector_3'> +1.2049121e-04 </wgt>
<wgt id='morphing_basis_vector_4'> +6.6697042e-05 </wgt>
<wgt id='morphing_basis_vector_5'> +1.2324025e-04 </wgt>
</rwgt>
</event>
<event>
 4      1 +6.0853000e-08 2.07242900e+03 7.81860800e-03 8.04247100e-02
        2 -1    0    0  501    0 +0.0000000000e+00 +0.0000000000e+00 +2.5095800580e+03 2.5095800580e+03 0.0000000000e+00 0.0000e+00 -1.0000e+00
       -2 -1    0    0    0  501 -0.0000000000e+00 -0.0000000000e+00 -4.2785657936e+02 4.2785657936e+02 0.0000000000e+00 0.0000e+00 1.0000e+00
      -13  1    1    2    0    0 -6.6548886231e+01 +1.0171788325e+03 +7.7698829499e+02 1.2817146103e+03 0.0000000000e+00 0.0000e+00 1.0000e+00
       13  1    1    2    0    0 +6.6548886231e+01 -1.0171788325e+03 +1.3047351837e+03 1.6557220271e+03 0.0000000000e+00 0.0000e+00 -1.0000e+00
<mgrwt>
<rscale>  0 0.20724289E+04</rscale>
<asrwt>0</asrwt>
<pdfrwt beam="1">  1        2 0.38608923E+00 0.20724289E+04</pdfrwt>
<pdfrwt beam="2">  1       -2 0.65824091E-01 0.20724289E+04</pdfrwt>
<totfact> 0.84993591E+00</totfact>
</mgrwt>
<rwgt>
<wgt id='morphing_basis_vector_1'> +1.5976811e-04 </wgt>
<wgt id='morphing_basis_vector_2'> +1.1318412e-04 </wgt>
<wgt id='morphing_basis_vector_3'> +1.7211060e-04 </wgt>
<wgt id='morphing_basis_vector_4'> +1.1161612e-04 </wgt>
<wgt id='morphing_basis_vector_5'> +1.8666092e-04 </wgt>
</rwgt>
</event>
<event>
 4      1 +6.0853000e-08 1.93890600e+03 7.81860800e-03 8.09710700e-02
        2 -1    0    0  501    0 +0.0000000000e+00 +0.0000000000e+00 +1.4518780076e+03 1.4518780076e+03 0.0000000000e+00 0.0000e+00 -1.0000e+00
       -2 -1    0    0    0  501 -0.0000000000e+00 -0.0000000000e+00 -6.4732659908e+02 6.4732659908e+02 0.0000000000e+00 0.0000e+00 1.0000e+00
      -13  1    1    2    0    0 +7.8714337243e+02 -1.5919139752e+02 -1.8567015015e+02 8.2426330409e+02 0.0000000000e+00 0.0000e+00 1.0000e+00
       13  1    1    2    0    0 -7.8714337243e+02 +1.5919139752e+02 +9.9022155867e+02 1.2749413026e+03 0.0000000000e+00 0.0000e+00 -1.0000e+00
<mgrwt>
<rscale>  0 0.19389061E+04</rscale>
<asrwt>0</asrwt>
<pdfrwt beam="1">  1        2 0.22336585E+00 0.19389061E+04</pdfrwt>
<pdfrwt beam="2">  1       -2 0.99588708E-01 0.19389061E+04</pdfrwt>
<totfact> 0.13436592E+01</totfact>
</mgrwt>
<rwgt>
<wgt id='morphing_basis_vector_1'> +1.2119634e-04 </wgt>
<wgt id='morphing_basis_vector_2'> +8.1410290e-05 </wgt>
<wgt id='morphing_basis_vector_3'> +1.2918574e-04 </wgt>
<wgt id='morphing_basis_vector_4'> +8.8768180e-05 </wgt>
<wgt id='morphing_basis_vector_5'> +1.4253926e-04 </wgt>
</rwgt>
</event>
<event>
 4      1 +6.0853000e-08 1.98035200e+03 7.81860800e-03 8.07967000e-02
        2 -1    0    0  501    0 +0.0000000000e+00 +0.0000000000e+00 +9.3796036848e+02 9.3796036848e+02 0.0000000000e+00 0.0000e+00 1.0000e+00
       -2 -1    0    0    0  501 -0.0000000000e+00 -0.0000000000e+00 -1.0452984329e+03 1.0452984329e+03 0.0000000000e+00 0.0000e+00 -1.0000e+00
      -13  1    1    2    0    0 -2.3179165717e+02 +3.8816292897e+02 -9.3589947597e+02 1.0393775353e+03 0.0000000000e+00 0.0000e+00 -1.0000e+00
       13  1    1    2    0    0 +2.3179165717e+02 -3.8816292897e+02 +8.2856141154e+02 9.4388126608e+02 0.0000000000e+00 0.0000e+00 1.0000e+00
<mgrwt>
<rscale>  0 0.19803520E+04</rscale>
<asrwt>0</asrwt>
<pdfrwt beam="1">  1        2 0.14430160E+00 0.19803520E+04</pdfrwt>
<pdfrwt beam="2">  1       -2 0.16081514E+00 0.19803520E+04</pdfrwt>
<totfact> 0.75157549E+00</totfact>
</mgrwt>
<rwgt>
<wgt id='morphing_basis_vector_1'> +1.3126043e-04 </wgt>
<wgt id='morphing_basis_vector_2'> +8.7341009e-05 </wgt>
<wgt id='morphing_basis_vector_3'> +1.3998919e-04 </wgt>
<wgt id='morphing_basis_vector_4'> +9.7568175e-05 </wgt>
<wgt id='morphing_basis_vector_5'> +1.5546194e-04 </wgt>
</rwgt>
</event>
<event>
 4      1 +6.0853000e-08 1.96448600e+03 7.81860800e-03 8.08629200e-02
        2 -1    0    0  501    0 +0.0000000000e+00 +0.0000000000e+00 +1.4377770911e+03 1.4377770911e+03 0.0000000000e+00 0.0000e+00 1.0000e+00
       -2 -1    0    0    0  501 -0.0000000000e+00 -0.0000000000e+00 -6.7103653143e+02 6.7103653143e+02 0.0000000000e+00 0.0000e+00 -1.0000e+00
      -13  1    1    2    0    0 -4.6679497363e+02 +1.7833630001e+02 -5.2439297516e+02 7.2435445446e+02 0.0000000000e+00 0.0000e+00 -1.0000e+00
       13  1    1    2    0    0 +4.6679497363e+02 -1.7833630001e+02 +1.2911335348e+03 1.3844591681e+03 0.0000000000e+00 0.0000e+00 1.0000e+00
<mgrwt>
<rscale>  0 0.19644856E+04</rscale>
<asrwt>0</asrwt>
<pdfrwt beam="1">  1        2 0.22119648E+00 0.19644856E+04</pdfrwt>
<pdfrwt beam="2">  1       -2 0.10323639E+00 0.19644856E+04</pdfrwt>
<totfact> 0.12511488E+01</totfact>
</mgrwt>
<rwgt>
<wgt id='morphing_basis_vector_1'> +1.2720027e-04 </wgt>
<wgt id='morphing_basis_vector_2'> +8.4632485e-05 </wgt>
<wgt id='morphing_basis_vector_3'> +1.3558052e-04 </wgt>
<wgt id='morphing_basis_vector_4'> +9.4395556e-05 </wgt>
<wgt id='morphing_basis_vector_5'> +1.5043715e-04 </wgt>
</rwgt>
</event>
<event>
 4      1 +6.0853000e-08 2.10486100e+03 7.81860800e-03 8.02984400e-02
        2 -1    0    0  501    0 +0.0000000000e+00 +0.0000000000e+00 +1.1216200551e+03 1.1216200551e+03 0.0000000000e+00 0.0000e+00 -1.0000e+00
       -2 -1    0    0    0  501 -0.0000000000e+00 -0.0000000000e+00 -9.8750907721e+02 9.8750907721e+02 0.0000000000e+00 0.0000e+00 1.0000e+00
      -13  1    1    2    0    0 -2.4927497888e+01 +7.4763821655e+02 -6.7473320088e+02 1.0073972282e+03 0.0000000000e+00 0.0000e+00 1.0000e+00
       13  1    1    2    0    0 +2.4927497888e+01 -7.4763821655e+02 +8.0884417876e+02 1.1017319041e+03 0.0000000000e+00 0.0000e+00 -1.0000e+00
<mgrwt>
<rscale>  0 0.21048610E+04</rscale>
<asrwt>0</asrwt>
<pdfrwt beam="1">  1        2 0.17255693E+00 0.21048610E+04</pdfrwt>
<pdfrwt beam="2">  1       -2 0.15192447E+00 0.21048610E+04</pdfrwt>
<totfact> 0.67645694E+00</totfact>
</mgrwt>
<rwgt>
<wgt id='morphing_basis_vector_1'> +1.6690705e-04 </wgt>
<wgt id='morphing_basis_vector_2'> +1.1178146e-04 </wgt>
<wgt id='morphing_basis_vector_3'> +1.7885287e-04 </wgt>
<wgt id='morphing_basis_vector_4'> +1.2472360e-04 </wgt>
<wgt id='morphing_basis_vector_5'> +1.9931220e-04 </wgt>
</rwgt>
</event>
<event>
 4      1 +6.0853000e-08 2.12980500e+03 7.81860800e-03 8.02029100e-02
        2 -1    0    0  501    0 +0.0000000000e+00 +0.0000000000e+00 +8.2969063537e+02 8.2969063537e+02 0.0000000000e+00 0.0000e+00 1.0000e+00
       -2 -1    0    0    0  501 -0.0000000000e+00 -0.0000000000e+00 -1.3667955931e+03 1.3667955931e+03 0.0000000000e+00 0.0000e+00 -1.0000e+00
      -13  1    1    2    0    0 +8.5064673260e+02 -9.6644065530e+01 -9.2168723445e+02 1.2579536149e+03 0.0000000000e+00 0.0000e+00 -1.0000e+00
       13  1    1    2    0    0 -8.5064673260e+02 +9.6644065530e+01 +3.8458227675e+02 9.3853261354e+02 0.0000000000e+00 0.0000e+00 1.0000e+00
<mgrwt>
<rscale>  0 0.21298052E+04</rscale>
<asrwt>0</asrwt>
<pdfrwt beam="1">  1        2 0.12764471E+00 0.21298052E+04</pdfrwt>
<pdfrwt beam="2">  1       -2 0.21027624E+00 0.21298052E+04</pdfrwt>
<totfact> 0.37074916E+00</totfact>
</mgrwt>
<rwgt>
<wgt id='morphing_basis_vector_1'> +1.7505243e-04 </wgt>
<wgt id='morphing_basis_vector_2'> +1.1784467e-04 </wgt>
<wgt id='morphing_basis_vector_3'> +1.8782605e-04 </wgt>
<wgt id='morphing_basis_vector_4'> +1.3036553e-04 </wgt>
<wgt id='morphing_basis_vector_5'> +2.0906771e-04 </wgt>
</rwgt>
</event>
<event>
 4      1 +6.0853000e-08 1.90010400e+03 7.81860800e-03 8.11384800e-02
        2 -1    0    0  501    0 +0.0000000000e+00 +0.0000000000e+00 +6.6156545796e+02 6.6156545796e+02 0.0000000000e+00 0.0000e+00 -1.0000e+00
       -2 -1    0    0    0  501 -0.0000000000e+00 -0.0000000000e+00 -1.3643382246e+03 1.3643382246e+03 0.0000000000e+00 0.0000e+00 1.0000e+00
      -13  1    1    2    0    0 -7.2721424623e+01 -3.6193913190e+02 -1.2847348305e+03 1.3367243267e+03 0.0000000000e+00 0.0000e+00 1.0000e+00
       13  1    1    2    0    0 +7.2721424623e+01 +3.6193913190e+02 +5.8196206387e+02 6.8917935589e+02 0.0000000000e+00 0.0000e+00 -1.0000e+00
<mgrwt>
<rscale>  0 0.19001043E+04</rscale>
<asrwt>0</asrwt>
<pdfrwt beam="1">  1        2 0.10177930E+00 0.19001043E+04</pdfrwt>
<pdfrwt beam="2">  1       -2 0.20989819E+00 0.19001043E+04</pdfrwt>
<totfact> 0.50505543E+00</totfact>
</mgrwt>
<rwgt>
<wgt id='morphing_basis_vector_1'> +1.1163099e-04 </wgt>
<wgt id='morphing_basis_vector_2'> +7.4109637e-05 </wgt>
<wgt id='morphing_basis_vector_3'> +1.1866612e-04 </wgt>
<wgt id='morphing_basis_vector_4'> +8.2421376e-05 </wgt>
<wgt id='morphing_basis_vector_5'> +1.3128828e-04 </wgt>
</rwgt>
</event>
<event>
 4      1 +6.0853000e-08 1.90163300e+03 7.81860800e-03 8.11318100e-02
        2 -1    0    0  501    0 +0.0000000000e+00 +0.0000000000e+00 +2.4212960024e+03 2.4212960024e+03 0.0000000000e+00 0.0000e+00 -1.0000e+00
       -2 -1    0    0    0  501 -0.0000000000e+00 -0.0000000000e+00 -3.7337525292e+02 3.7337525292e+02 0.0000000000e+00 0.0000e+00 1.0000e+00
      -13  1    1    2    0    0 -7.1061302716e+02 +5.4945480854e+02 +1.4820956082e+03 1.7330547749e+03 0.0000000000e+00 0.0000e+00 1.0000e+00
       13  1    1    2    0    0 +7.1061302716e+02 -5.4945480854e+02 +5.6582514130e+02 1.0616164804e+03 0.0000000000e+00 0.0000e+00 -1.0000e+00
<mgrwt>
<rscale>  0 0.19016330E+04</rscale>
<asrwt>0</asrwt>
<pdfrwt beam="1">  1        2 0.37250707E+00 0.19016330E+04</pdfrwt>
<pdfrwt beam="2">  1       -2 0.57442348E-01 0.19016330E+04</pdfrwt>
<totfact> 0.12897132E+01</totfact>
</mgrwt>
<rwgt>
<wgt id='morphing_basis_vector_1'> +1.2438441e-04 </wgt>
<wgt id='morphing_basis_vector_2'> +1.1110072e-04 </wgt>
<wgt id='morphing_basis_vector_3'> +1.3684842e-04 </wgt>
<wgt id='morphing_basis_vector_4'> +5.8230890e-05 </wgt>
<wgt id='morphing_basis_vector_5'> +1.2980607e-04 </wgt>
</rwgt>
</event>
<event>
 4      1 +6.0853000e-08 2.11959300e+03 7.81860800e-03 8.02418600e-02
        2 -1    0    0  501    0 +0.0000000000e+00 +0.0000000000e+00 +2.9164137424e+03 2.9164137424e+03 0.0000000000e+00 0.0000e+00 -1.0000e+00
       -2 -1    0    0    0  501 -0.0000000000e+00 -0.0000000000e+00 -3.8511968518e+02 3.8511968518e+02 0.0000000000e+00 0.0000e+00 1.0000e+00
      -13  1    1    2    0    0 +6.3312849708e+02 -6.0751254873e+02 +3.3988069951e+02 9.4097931996e+02 0.0000000000e+00 0.0000e+00 1.0000e+00
       13  1    1    2    0    0 -6.3312849708e+02 +6.0751254873e+02 +2.1914133578e+03 2.3605541077e+03 0.0000000000e+00 0.0000e+00 -1.0000e+00
<mgrwt>
<rscale>  0 0.21195927E+04</rscale>
<asrwt>0</asrwt>
<pdfrwt beam="1">  1        2 0.44867902E+00 0.21195927E+04</pdfrwt>
<pdfrwt beam="2">  1       -2 0.59249184E-01 0.21195927E+04</pdfrwt>
<totfact> 0.59065040E+00</totfact>
</mgrwt>
<rwgt>
<wgt id='morphing_basis_vector_1'> +1.7187811e-04 </wgt>
<wgt id='morphing_basis_vector_2'> +1.1591308e-04 </wgt>
<wgt id='morphing_basis_vector_3'> +1.8440166e-04 </wgt>
<wgt id='morphing_basis_vector_4'> +1.2764009e-04 </wgt>
<wgt id='morphing_basis_vector_5'> +2.0500037e-04 </wgt>
</rwgt>
</event>
<event>
 4      1 +6.0853000e-08 1.92351800e+03 7.81860800e-03 8.10369700e-02
        2 -1    0    0  501    0 +0.0000000000e+00 +0.0000000000e+00 +2.1486938327e+03 2.1486938327e+03 0.0000000000e+00 0.0000e+00 1.0000e+00
       -2 -1    0    0    0  501 -0.0000000000e+00 -0.0000000000e+00 -4.3048495508e+02 4.3048495508e+02 0.0000000000e+00 0.0000e+00 -1.0000e+00
      -13  1    1    2    0    0 +9.1587059622e+02 +1.7805620595e+02 +5.4619859616e+02 1.0811363781e+03 0.0000000000e+00 0.0000e+00 -1.0000e+00
       13  1    1    2    0    0 -9.1587059622e+02 -1.7805620595e+02 +1.1720102815e+03 1.4980424097e+03 0.0000000000e+00 0.0000e+00 1.0000e+00
<mgrwt>
<rscale>  0 0.19235180E+04</rscale>
<asrwt>0</asrwt>
<pdfrwt beam="1">  1        2 0.33056827E+00 0.19235180E+04</pdfrwt>
<pdfrwt beam="2">  1       -2 0.66228456E-01 0.19235180E+04</pdfrwt>
<totfact> 0.13787191E+01</totfact>
</mgrwt>
<rwgt>
<wgt id='morphing_basis_vector_1'> +1.1879606e-04 </wgt>
<wgt id='morphing_basis_vector_2'> +8.2793273e-05 </wgt>
<wgt id='morphing_basis_vector_3'> +1.2704179e-04 </wgt>
<wgt id='morphing_basis_vector_4'> +8.3315877e-05 </wgt>
<wgt id='morphing_basis_vector_5'> +1.3776790e-04 </wgt>
</rwgt>
</event>
<event>
 4      1 +6.0853000e-08 1.99109100e+03 7.81860800e-03 8.07522400e-02
        2 -1    0    0  501    0 +0.0000000000e+00 +0.0000000000e+00 +1.0693403178e+03 1.0693403178e+03 0.0000000000e+00 0.0000e+00 1.0000e+00
       -2 -1    0    0    0  501 -0.0000000000e+00 -0.0000000000e+00 -9.2684347536e+02 9.2684347536e+02 0.0000000000e+00 0.0000e+00 -1.0000e+00
      -13  1    1    2    0    0 -3.4996985342e+02 -8.5766534750e+02 +4.3693103624e+02 1.0241960150e+03 0.0000000000e+00 0.0000e+00 -1.0000e+00
       13  1    1    2    0    0 +3.4996985342e+02 +8.5766534750e+02 -2.9443419376e+02 9.7198777825e+02 0.0000000000e+00 0.0000e+00 1.0000e+00
<mgrwt>
<rscale>  0 0.19910913E+04</rscale>
<asrwt>0</asrwt>
<pdfrwt beam="1">  1        2 0.16451389E+00 0.19910913E+04</pdfrwt>
<pdfrwt beam="2">  1       -2 0.14259130E+00 0.19910913E+04</pdfrwt>
<totfact> 0.87869853E+00</totfact>
</mgrwt>
<rwgt>
<wgt id='morphing_basis_vector_1'> +1.5080411e-04 </wgt>
<wgt id='morphing_basis_vector_2'> +1.3878010e-04 </wgt>
<wgt id='morphing_basis_vector_3'> +1.6737515e-04 </wgt>
<wgt id='morphing_basis_vector_4'> +6.6476027e-05 </wgt>
<wgt id='morphing_basis_vector_5'> +1.5630861e-04 </wgt>
</rwgt>
</event>
<event>
 4      1 +6.0853000e-08 2.18175700e+03 7.81860800e-03 8.00082400e-02
        2 -1    0    0  501    0 +0.0000000000e+00 +0.0000000000e+00 +1.8001886467e+03 1.8001886467e+03 0.0000000000e+00 0.0000e+00 -1.0000e+00
       -2 -1    0    0    0  501 -0.0000000000e+00 -0.0000000000e+00 -6.6105080187e+02 6.6105080187e+02 0.0000000000e+00 0.0000e+00 1.0000e+00
      -13  1    1    2    0    0 -3.4378008288e+02 -8.1503271367e+02 -1.5060855181e+02 8.9729928430e+02 0.0000000000e+00 0.0000e+00 1.0000e+00
       13  1    1    2    0    0 +3.4378008288e+02 +8.1503271367e+02 +1.2897463966e+03 1.5639401642e+03 0.0000000000e+00 0.0000e+00 -1.0000e+00
<mgrwt>
<rscale>  0 0.21817572E+04</rscale>
<asrwt>0</asrwt>
<pdfrwt beam="1">  1        2 0.27695210E+00 0.21817572E+04</pdfrwt>
<pdfrwt beam="2">  1       -2 0.10170012E+00 0.21817572E+04</pdfrwt>
<totfact> 0.79953328E+00</totfact>
</mgrwt>
<rwgt>
<wgt id='morphing_basis_vector_1'> +1.9247392e-04 </wgt>
<wgt id='morphing_basis_vector_2'> +1.2976628e-04 </wgt>
<wgt id='morphing_basis_vector_3'> +2.0685281e-04 </wgt>
<wgt id='morphing_basis_vector_4'> +1.4373026e-04 </wgt>
<wgt id='morphing_basis_vector_5'> +2.3060470e-04 </wgt>
</rwgt>
</event>
<event>
 4      1 +6.0853000e-08 1.88905100e+03 7.81860800e-03 8.11869400e-02
        2 -1    0    0  501    0 +0.0000000000e+00 +0.0000000000e+00 +1.9426388909e+03 1.9426388909e+03 0.0000000000e+00 0.0000e+00 -1.0000e+00
       -2 -1    0    0    0  501 -0.0000000000e+00 -0.0000000000e+00 -4.5923512084e+02 4.5923512084e+02 0.0000000000e+00 0.0000e+00 1.0000e+00
      -13  1    1    2    0    0 +3.6180200354e+02 -7.3581473670e+02 +1.4559460450e+02 8.3277956589e+02 0.0000000000e+00 0.0000e+00 1.0000e+00
       13  1    1    2    0    0 -3.6180200354e+02 +7.3581473670e+02 +1.3378091656e+03 1.5690944459e+03 0.0000000000e+00 0.0000e+00 -1.0000e+00
<mgrwt>
<rscale>  0 0.18890506E+04</rscale>
<asrwt>0</asrwt>
<pdfrwt beam="1">  1        2 0.29886752E+00 0.18890506E+04</pdfrwt>
<pdfrwt beam="2">  1       -2 0.70651558E-01 0.18890506E+04</pdfrwt>
<totfact> 0.15749725E+01</totfact>
</mgrwt>
<rwgt>
<wgt id='morphing_basis_vector_1'> +1.0960060e-04 </wgt>
<wgt id='morphing_basis_vector_2'> +7.3861169e-05 </wgt>
<wgt id='morphing_basis_vector_3'> +1.1663246e-04 </wgt>
<wgt id='morphing_basis_vector_4'> +7.9518923e-05 </wgt>
<wgt id='morphing_basis_vector_5'> +1.2811733e-04 </wgt>
</rwgt>
</event>
<event>
 4      1 +6.0853000e-08 1.92934000e+03 7.81860800e-03 8.10119600e-02
        2 -1    0    0  501    0 +0.0000000000e+00 +0.0000000000e+00 +2.4961731229e+03 2.4961731229e+03 0.0000000000e+00 0.0000e+00 1.0000e+00
       -2 -1    0    0    0  501 -0.0000000000e+00 -0.0000000000e+00 -3.7280588420e+02 3.7280588420e+02 0.0000000000e+00 0.0000e+00 -1.0000e+00
      -13  1    1    2    0    0 -2.3143395839e+02 -4.5880706849e+02 -1.5233689954e+02 5.3597773663e+02 0.0000000000e+00 0.0000e+00 -1.0000e+00
       13  1    1    2    0    0 +2.3143395839e+02 +4.5880706849e+02 +2.2757041382e+03 2.3330012704e+03 0.0000000000e+00 0.0000e+00 1.0000e+00
<mgrwt>
<rscale>  0 0.19293398E+04</rscale>
<asrwt>0</asrwt>
<pdfrwt beam="1">  1        2 0.38402662E+00 0.19293398E+04</pdfrwt>
<pdfrwt beam="2">  1       -2 0.57354753E-01 0.19293398E+04</pdfrwt>
<totfact> 0.11653676E+01</totfact>
</mgrwt>
<rwgt>
<wgt id='morphing_basis_vector_1'> +1.1852744e-04 </wgt>
<wgt id='morphing_basis_vector_2'> +7.8806966e-05 </wgt>
<wgt id='morphing_basis_vector_3'> +1.2616131e-04 </wgt>
<wgt id='morphing_basis_vector_4'> +8.7676354e-05 </wgt>
<wgt id='morphing_basis_vector_5'> +1.3974089e-04 </wgt>
</rwgt>
</event>
<event>
 4      1 +6.0853000e-08 2.18067300e+03 7.81860800e-03 8.00122400e-02
        2 -1    0    0  501    0 +0.0000000000e+00 +0.0000000000e+00 +7.0140817742e+02 7.0140817742e+02 0.0000000000e+00 0.0000e+00 -1.0000e+00
       -2 -1    0    0    0  501 -0.0000000000e+00 -0.0000000000e+00 -1.6949236069e+03 1.6949236069e+03 0.0000000000e+00 0.0000e+00 1.0000e+00
      -13  1    1    2    0    0 -5.7352747855e+02 -2.4884250972e+02 -1.4783963421e+03 1.6051517398e+03 0.0000000000e+00 0.0000e+00 1.0000e+00
       13  1    1    2    0    0 +5.7352747855e+02 +2.4884250972e+02 +4.8488091270e+02 7.9118004449e+02 0.0000000000e+00 0.0000e+00 -1.0000e+00
<mgrwt>
<rscale>  0 0.21806726E+04</rscale>
<asrwt>0</asrwt>
<pdfrwt beam="1">  1        2 0.10790895E+00 0.21806726E+04</pdfrwt>
<pdfrwt beam="2">  1       -2 0.26075748E+00 0.21806726E+04</pdfrwt>
<totfact> 0.20211360E+00</totfact>
</mgrwt>
<rwgt>
<wgt id='morphing_basis_vector_1'> +1.9164576e-04 </wgt>
<wgt id='morphing_basis_vector_2'> +1.2817335e-04 </wgt>
<wgt id='morphing_basis_vector_3'> +2.0577001e-04 </wgt>
<wgt id='morphing_basis_vector_4'> +1.4435158e-04 </wgt>
<wgt id='morphing_basis_vector_5'> +2.3021156e-04 </wgt>
</rwgt>
</event>
<event>
 4      1 +6.0853000e-08 2.10538500e+03 7.81860800e-03 8.02964200e-02
        2 -1    0    0  501    0 +0.0000000000e+00 +0.0000000000e+00 +2.6979558132e+03 2.6979558132e+03 0.0000000000e+00 0.0000e+00 -1.0000e+00
       -2 -1    0    0    0  501 -0.0000000000e+00 -0.0000000000e+00 -4.1074105108e+02 4.1074105108e+02 0.0000000000e+00 0.0000e+00 1.0000e+00
      -13  1    1    2    0    0 -1.2745895326e+02 -6.3769539889e+02 -7.8683576953e+01 6.5505138105e+02 0.0000000000e+00 0.0000e+00 1.0000e+00
       13  1    1    2    0    0 +1.2745895326e+02 +6.3769539889e+02 +2.3658983391e+03 2.4536454833e+03 0.0000000000e+00 0.0000e+00 -1.0000e+00
<mgrwt>
<rscale>  0 0.21053847E+04</rscale>
<asrwt>0</asrwt>
<pdfrwt beam="1">  1        2 0.41507011E+00 0.21053847E+04</pdfrwt>
<pdfrwt beam="2">  1       -2 0.63190933E-01 0.21053847E+04</pdfrwt>
<totfact> 0.70972717E+00</totfact>
</mgrwt>
<rwgt>
<wgt id='morphing_basis_vector_1'> +1.6696218e-04 </wgt>
<wgt id='morphing_basis_vector_2'> +1.1157242e-04 </wgt>
<wgt id='morphing_basis_vector_3'> +1.7887141e-04 </wgt>
<wgt id='morphing_basis_vector_4'> +1.2506657e-04 </wgt>
<wgt id='morphing_basis_vector_5'> +1.9953145e-04 </wgt>
</rwgt>
</event>
<event>
 4      1 +6.0853000e-08 2.01663500e+03 7.81860800e-03 8.06476500e-02
        2 -1    0    0  501    0 +0.0000000000e+00 +0.0000000000e+00 +1.3065481603e+03 1.3065481603e+03 0.0000000000e+00 0.0000e+00 1.0000e+00
       -2 -1    0    0    0  501 -0.0000000000e+00 -0.0000000000e+00 -7.7816084577e+02 7.7816084577e+02 0.0000000000e+00 0.0000e+00 -1.0000e+00
      -13  1    1    2    0    0 -7.8514625380e+02 -6.0078493693e+02 +5.9240112200e+01 9.9040727541e+02 0.0000000000e+00 0.0000e+00 -1.0000e+00
       13  1    1    2    0    0 +7.8514625380e+02 +6.0078493693e+02 +4.6914720237e+02 1.0943017307e+03 0.0000000000e+00 0.0000e+00 1.0000e+00
<mgrwt>
<rscale>  0 0.20166354E+04</rscale>
<asrwt>0</asrwt>
<pdfrwt beam="1">  1        2 0.20100741E+00 0.20166354E+04</pdfrwt>
<pdfrwt beam="2">  1       -2 0.11971705E+00 0.20166354E+04</pdfrwt>
<totfact> 0.10179173E+01</totfact>
</mgrwt>
<rwgt>
<wgt id='morphing_basis_vector_1'> +1.4337737e-04 </wgt>
<wgt id='morphing_basis_vector_2'> +1.0107585e-04 </wgt>
<wgt id='morphing_basis_vector_3'> +1.5407044e-04 </wgt>
<wgt id='morphing_basis_vector_4'> +1.0021125e-04 </wgt>
<wgt id='morphing_basis_vector_5'> +1.6703395e-04 </wgt>
</rwgt>
</event>
<event>
 4      1 +6.0853000e-08 2.11486300e+03 7.81860800e-03 8.02599700e-02
        2 -1    0    0  501    0 +0.0000000000e+00 +0.0000000000e+00 +2.2625456646e+03 2.2625456646e+03 0.0000000000e+00 0.0000e+00 -1.0000e+00
       -2 -1    0    0    0  501 -0.0000000000e+00 -0.0000000000e+00 -4.9420493239e+02 4.9420493239e+02 0.0000000000e+00 0.0000e+00 1.0000e+00
      -13  1    1    2    0    0 +1.0449046283e+03 +1.2499370531e+02 +7.4925762953e+02 1.2918343950e+03 0.0000000000e+00 0.0000e+00 1.0000e+00
       13  1    1    2    0    0 -1.0449046283e+03 -1.2499370531e+02 +1.0190831027e+03 1.4649162020e+03 0.0000000000e+00 0.0000e+00 -1.0000e+00
<mgrwt>
<rscale>  0 0.21148629E+04</rscale>
<asrwt>0</asrwt>
<pdfrwt beam="1">  1        2 0.34808394E+00 0.21148629E+04</pdfrwt>
<pdfrwt beam="2">  1       -2 0.76031529E-01 0.21148629E+04</pdfrwt>
<totfact> 0.86626375E+00</totfact>
</mgrwt>
<rwgt>
<wgt id='morphing_basis_vector_1'> +1.7417100e-04 </wgt>
<wgt id='morphing_basis_vector_2'> +1.2611341e-04 </wgt>
<wgt id='morphing_basis_vector_3'> +1.8836502e-04 </wgt>
<wgt id='morphing_basis_vector_4'> +1.1886941e-04 </wgt>
<wgt id='morphing_basis_vector_5'> +2.0253836e-04 </wgt>
</rwgt>
</event>
<event>
 4      1 +6.0853000e-08 1.92750600e+03 7.81860800e-03 8.10198300e-02
        2 -1    0    0  501    0 +0.0000000000e+00 +0.0000000000e+00 +3.0928346057e+03 3.0928346057e+03 0.0000000000e+00 0.0000e+00 1.0000e+00
       -2 -1    0    0    0  501 -0.0000000000e+00 -0.0000000000e+00 -3.0031334380e+02 3.0031334380e+02 0.0000000000e+00 0.0000e+00 -1.0000e+00
      -13  1    1    2    0    0 +5.6255177503e+02 +6.9202382573e+02 +7.5315918154e+02 1.1673089684e+03 0.0000000000e+00 0.0000e+00 -1.0000e+00
       13  1    1    2    0    0 -5.6255177503e+02 -6.9202382573e+02 +2.0393620804e+03 2.2258389811e+03 0.0000000000e+00 0.0000e+00 1.0000e+00
<mgrwt>
<rscale>  0 0.19275056E+04</rscale>
<asrwt>0</asrwt>
<pdfrwt beam="1">  1        2 0.47582069E+00 0.19275056E+04</pdfrwt>
<pdfrwt beam="2">  1       -2 0.46202055E-01 0.19275056E+04</pdfrwt>
<totfact> 0.75700020E+00</totfact>
</mgrwt>
<rwgt>
<wgt id='morphing_basis_vector_1'> +1.1900344e-04 </wgt>
<wgt id='morphing_basis_vector_2'> +8.1225445e-05 </wgt>
<wgt id='morphing_basis_vector_3'> +1.2700358e-04 </wgt>
<wgt id='morphing_basis_vector_4'> +8.5524643e-05 </wgt>
<wgt id='morphing_basis_vector_5'> +1.3905662e-04 </wgt>
</rwgt>
</event>
<event>
 4      1 +6.0853000e-08 2.09172200e+03 7.81860800e-03 8.03493100e-02
        2 -1    0    0  501    0 +0.0000000000e+00 +0.0000000000e+00 +1.5219396513e+03 1.5219396513e+03 0.0000000000e+00 0.0000e+00 -1.0000e+00
       -2 -1    0    0    0  501 -0.0000000000e+00 -0.0000000000e+00 -7.1870451616e+02 7.1870451616e+02 0.0000000000e+00 0.0000e+00 1.0000e+00
      -13  1    1    2    0    0 +6.4920378640e+02 -7.7573910562e+02 +1.1701749932e+02 1.0182975063e+03 0.0000000000e+00 0.0000e+00 1.0000e+00
       13  1    1    2    0    0 -6.4920378640e+02 +7.7573910562e+02 +6.8621763584e+02 1.2223466611e+03 0.0000000000e+00 0.0000e+00 -1.0000e+00
<mgrwt>
<rscale>  0 0.20917217E+04</rscale>
<asrwt>0</asrwt>
<pdfrwt beam="1">  1        2 0.23414456E+00 0.20917217E+04</pdfrwt>
<pdfrwt beam="2">  1       -2 0.11056993E+00 0.20917217E+04</pdfrwt>
<totfact> 0.93635783E+00</totfact>
</mgrwt>
<rwgt>
<wgt id='morphing_basis_vector_1'> +1.6490348e-04 </wgt>
<wgt id='morphing_basis_vector_2'> +1.1510292e-04 </wgt>
<wgt id='morphing_basis_vector_3'> +1.7745376e-04 </wgt>
<wgt id='morphing_basis_vector_4'> +1.1747638e-04 </wgt>
<wgt id='morphing_basis_vector_5'> +1.9396665e-04 </wgt>
</rwgt>
</event>
<event>
 4      1 +6.0853000e-08 2.08047100e+03 7.81860800e-03 8.03931800e-02
        2 -1    0    0  501    0 +0.0000000000e+00 +0.0000000000e+00 +1.3393844204e+03 1.3393844204e+03 0.0000000000e+00 0.0000e+00 -1.0000e+00
       -2 -1    0    0    0  501 -0.0000000000e+00 -0.0000000000e+00 -8.0790118813e+02 8.0790118813e+02 0.0000000000e+00 0.0000e+00 1.0000e+00
      -13  1    1    2    0    0 -5.1889712073e+02 +5.8396123980e+01 -6.6283262220e+02 8.4380768795e+02 0.0000000000e+00 0.0000e+00 1.0000e+00
       13  1    1    2    0    0 +5.1889712073e+02 -5.8396123980e+01 +1.1943158544e+03 1.3034779205e+03 0.0000000000e+00 0.0000e+00 -1.0000e+00
<mgrwt>
<rscale>  0 0.20804714E+04</rscale>
<asrwt>0</asrwt>
<pdfrwt beam="1">  1        2 0.20605914E+00 0.20804714E+04</pdfrwt>
<pdfrwt beam="2">  1       -2 0.12429249E+00 0.20804714E+04</pdfrwt>
<totfact> 0.87897359E+00</totfact>
</mgrwt>
<rwgt>
<wgt id='morphing_basis_vector_1'> +1.5928029e-04 </wgt>
<wgt id='morphing_basis_vector_2'> +1.0625088e-04 </wgt>
<wgt id='morphing_basis_vector_3'> +1.7048041e-04 </wgt>
<wgt id='morphing_basis_vector_4'> +1.1926708e-04 </wgt>
<wgt id='morphing_basis_vector_5'> +1.9009631e-04 </wgt>
</rwgt>
</event>
<event>
 4      1 +6.0853000e-08 2.05297000e+03 7.81860800e-03 8.05016300e-02
        2 -1    0    0  501    0 +0.0000000000e+00 +0.0000000000e+00 +8.3755933173e+02 8.3755933173e+02 0.0000000000e+00 0.0000e+00 -1.0000e+00
       -2 -1    0    0    0  501 -0.0000000000e+00 -0.0000000000e+00 -1.2580260343e+03 1.2580260343e+03 0.0000000000e+00 0.0000e+00 1.0000e+00
      -13  1    1    2    0    0 +7.6344438282e+02 -1.4118327307e+02 -8.9565644559e+02 1.1853187381e+03 0.0000000000e+00 0.0000e+00 1.0000e+00
       13  1    1    2    0    0 -7.6344438282e+02 +1.4118327307e+02 +4.7518974298e+02 9.1026662802e+02 0.0000000000e+00 0.0000e+00 -1.0000e+00
<mgrwt>
<rscale>  0 0.20529700E+04</rscale>
<asrwt>0</asrwt>
<pdfrwt beam="1">  1        2 0.12885528E+00 0.20529700E+04</pdfrwt>
<pdfrwt beam="2">  1       -2 0.19354247E+00 0.20529700E+04</pdfrwt>
<totfact> 0.48812090E+00</totfact>
</mgrwt>
<rwgt>
<wgt id='morphing_basis_vector_1'> +1.5141088e-04 </wgt>
<wgt id='morphing_basis_vector_2'> +1.0148052e-04 </wgt>
<wgt id='morphing_basis_vector_3'> +1.6200100e-04 </wgt>
<wgt id='morphing_basis_vector_4'> +1.1250597e-04 </wgt>
<wgt id='morphing_basis_vector_5'> +1.8002452e-04 </wgt>
</rwgt>
</event>
<event>
 4      1 +6.0853000e-08 2.10296400e+03 7.81860800e-03 8.03057600e-02
        2 -1    0    0  501    0 +0.0000000000e+00 +0.0000000000e+00 +1.5151048607e+03 1.5151048607e+03 0.0000000000e+00 0.0000e+00 -1.0000e+00
       -2 -1    0    0    0  501 -0.0000000000e+00 -0.0000000000e+00 -7.2972820813e+02 7.2972820813e+02 0.0000000000e+00 0.0000e+00 1.0000e+00
      -13  1    1    2    0    0 +9.4797331417e+02 -1.7606566195e+02 -5.5088769793e+01 9.6575736821e+02 0.0000000000e+00 0.0000e+00 1.0000e+00
       13  1    1    2    0    0 -9.4797331417e+02 +1.7606566195e+02 +8.4046542232e+02 1.2790757006e+03 0.0000000000e+00 0.0000e+00 -1.0000e+00
<mgrwt>
<rscale>  0 0.21029643E+04</rscale>
<asrwt>0</asrwt>
<pdfrwt beam="1">  1        2 0.23309306E+00 0.21029643E+04</pdfrwt>
<pdfrwt beam="2">  1       -2 0.11226588E+00 0.21029643E+04</pdfrwt>
<totfact> 0.90823773E+00</totfact>
</mgrwt>
<rwgt>
<wgt id='morphing_basis_vector_1'> +1.6733398e-04 </wgt>
<wgt id='morphing_basis_vector_2'> +1.1438991e-04 </wgt>
<wgt id='morphing_basis_vector_3'> +1.7970902e-04 </wgt>
<wgt id='morphing_basis_vector_4'> +1.2222784e-04 </wgt>
<wgt id='morphing_basis_vector_5'> +1.9841971e-04 </wgt>
</rwgt>
</event>
<event>
 4      1 +6.0853000e-08 2.17332900e+03 7.81860800e-03 8.00394400e-02
        2 -1    0    0  501    0 +0.0000000000e+00 +0.0000000000e+00 +9.7134029151e+02 9.7134029151e+02 0.0000000000e+00 0.0000e+00 1.0000e+00
       -2 -1    0    0    0  501 -0.0000000000e+00 -0.0000000000e+00 -1.2156802695e+03 1.2156802695e+03 0.0000000000e+00 0.0000e+00 -1.0000e+00
      -13  1    1    2    0    0 +2.3630424868e+02 +7.1537570972e+02 +6.6585810947e+02 1.0054696047e+03 0.0000000000e+00 0.0000e+00 1.0000e+00
       13  1    1    2    0    0 -2.3630424868e+02 -7.1537570972e+02 -9.1019808750e+02 1.1815509564e+03 0.0000000000e+00 0.0000e+00 -1.0000e+00
<mgrwt>
<rscale>  0 0.21733285E+04</rscale>
<asrwt>0</asrwt>
<pdfrwt beam="1">  1        2 0.14943697E+00 0.21733285E+04</pdfrwt>
<pdfrwt beam="2">  1       -2 0.18702773E+00 0.21733285E+04</pdfrwt>
<totfact> 0.44179654E+00</totfact>
</mgrwt>
<rwgt>
<wgt id='morphing_basis_vector_1'> +2.4547084e-04 </wgt>
<wgt id='morphing_basis_vector_2'> +2.9307115e-04 </wgt>
<wgt id='morphing_basis_vector_3'> +2.8672611e-04 </wgt>
<wgt id='morphing_basis_vector_4'> +2.8849111e-05 </wgt>
<wgt id='morphing_basis_vector_5'> +2.1801149e-04 </wgt>
</rwgt>
</event>
<event>
 4      1 +6.0853000e-08 1.86208000e+03 7.81860800e-03 8.13066400e-02
        2 -1    0    0  501    0 +0.0000000000e+00 +0.0000000000e+00 +7.5936924990e+02 7.5936924990e+02 0.0000000000e+00 0.0000e+00 -1.0000e+00
       -2 -1    0    0    0  501 -0.0000000000e+00 -0.0000000000e+00 -1.1415203601e+03 1.1415203601e+03 0.0000000000e+00 0.0000e+00 1.0000e+00
      -13  1    1    2    0    0 +5.4730725095e+01 -6.3439613394e+02 -8.8448328692e+02 1.0898461322e+03 0.0000000000e+00 0.0000e+00 1.0000e+00
       13  1    1    2    0    0 -5.4730725095e+01 +6.3439613394e+02 +5.0233217675e+02 8.1104347777e+02 0.0000000000e+00 0.0000e+00 -1.0000e+00
<mgrwt>
<rscale>  0 0.18620800E+04</rscale>
<asrwt>0</asrwt>
<pdfrwt beam="1">  1        2 0.11682604E+00 0.18620800E+04</pdfrwt>
<pdfrwt beam="2">  1       -2 0.17561852E+00 0.18620800E+04</pdfrwt>
<totfact> 0.76774317E+00</totfact>
</mgrwt>
<rwgt>
<wgt id='morphing_basis_vector_1'> +1.0324468e-04 </wgt>
<wgt id='morphing_basis_vector_2'> +6.8688167e-05 </wgt>
<wgt id='morphing_basis_vector_3'> +1.0960182e-04 </wgt>
<wgt id='morphing_basis_vector_4'> +7.5697228e-05 </wgt>
<wgt id='morphing_basis_vector_5'> +1.2085226e-04 </wgt>
</rwgt>
</event>
<event>
 4      1 +6.0853000e-08 1.97865200e+03 7.81860800e-03 8.08037600e-02
        2 -1    0    0  501    0 +0.0000000000e+00 +0.0000000000e+00 +2.2935781586e+03 2.2935781586e+03 0.0000000000e+00 0.0000e+00 -1.0000e+00
       -2 -1    0    0    0  501 -0.0000000000e+00 -0.0000000000e+00 -4.2674206923e+02 4.2674206923e+02 0.0000000000e+00 0.0000e+00 1.0000e+00
      -13  1    1    2    0    0 +9.7719609618e+02 -2.1259828020e+01 +7.2309932154e+02 1.2158276274e+03 0.0000000000e+00 0.0000e+00 1.0000e+00
       13  1    1    2    0    0 -9.7719609618e+02 +2.1259828020e+01 +1.1437367678e+03 1.5044926004e+03 0.0000000000e+00 0.0000e+00 -1.0000e+00
<mgrwt>
<rscale>  0 0.19786524E+04</rscale>
<asrwt>0</asrwt>
<pdfrwt beam="1">  1        2 0.35285817E+00 0.19786524E+04</pdfrwt>
<pdfrwt beam="2">  1       -2 0.65652627E-01 0.19786524E+04</pdfrwt>
<totfact> 0.11540841E+01</totfact>
</mgrwt>
<rwgt>
<wgt id='morphing_basis_vector_1'> +1.3348836e-04 </wgt>
<wgt id='morphing_basis_vector_2'> +9.4947178e-05 </wgt>
<wgt id='morphing_basis_vector_3'> +1.4338393e-04 </wgt>
<wgt id='morphing_basis_vector_4'> +9.1926519e-05 </wgt>
<wgt id='morphing_basis_vector_5'> +1.5450041e-04 </wgt>
</rwgt>
</event>
<event>
 4      1 +6.0853000e-08 1.87401100e+03 7.81860800e-03 8.12534300e-02
        2 -1    0    0  501    0 +0.0000000000e+00 +0.0000000000e+00 +1.7232078060e+03 1.7232078060e+03 0.0000000000e+00 0.0000e+00 1.0000e+00
       -2 -1    0    0    0  501 -0.0000000000e+00 -0.0000000000e+00 -5.0950267195e+02 5.0950267195e+02 0.0000000000e+00 0.0000e+00 -1.0000e+00
      -13  1    1    2    0    0 -6.1515730896e+02 +3.9343734912e+02 -9.2705110202e+01 7.3607452062e+02 0.0000000000e+00 0.0000e+00 -1.0000e+00
       13  1    1    2    0    0 +6.1515730896e+02 -3.9343734912e+02 +1.3064102442e+03 1.4966359573e+03 0.0000000000e+00 0.0000e+00 1.0000e+00
<mgrwt>
<rscale>  0 0.18740107E+04</rscale>
<asrwt>0</asrwt>
<pdfrwt beam="1">  1        2 0.26510889E+00 0.18740107E+04</pdfrwt>
<pdfrwt beam="2">  1       -2 0.78385027E-01 0.18740107E+04</pdfrwt>
<totfact> 0.16637173E+01</totfact>
</mgrwt>
<rwgt>
<wgt id='morphing_basis_vector_1'> +1.0597381e-04 </wgt>
<wgt id='morphing_basis_vector_2'> +7.0803475e-05 </wgt>
<wgt id='morphing_basis_vector_3'> +1.1260370e-04 </wgt>
<wgt id='morphing_basis_vector_4'> +7.7464287e-05 </wgt>
<wgt id='morphing_basis_vector_5'> +1.2403443e-04 </wgt>
</rwgt>
</event>
<event>
 4      1 +6.0853000e-08 2.11887700e+03 7.81860800e-03 8.02446000e-02
        2 -1    0    0  501    0 +0.0000000000e+00 +0.0000000000e+00 +1.4798329014e+03 1.4798329014e+03 0.0000000000e+00 0.0000e+00 -1.0000e+00
       -2 -1    0    0    0  501 -0.0000000000e+00 -0.0000000000e+00 -7.5847039965e+02 7.5847039965e+02 0.0000000000e+00 0.0000e+00 1.0000e+00
      -13  1    1    2    0    0 +5.3257742591e+02 -2.5780483192e+01 -6.0639959962e+02 8.0747992070e+02 0.0000000000e+00 0.0000e+00 1.0000e+00
       13  1    1    2    0    0 -5.3257742591e+02 +2.5780483192e+01 +1.3277621013e+03 1.4308233803e+03 0.0000000000e+00 0.0000e+00 -1.0000e+00
<mgrwt>
<rscale>  0 0.21188765E+04</rscale>
<asrwt>0</asrwt>
<pdfrwt beam="1">  1        2 0.22766660E+00 0.21188765E+04</pdfrwt>
<pdfrwt beam="2">  1       -2 0.11668775E+00 0.21188765E+04</pdfrwt>
<totfact> 0.86021377E+00</totfact>
</mgrwt>
<rwgt>
<wgt id='morphing_basis_vector_1'> +1.7114151e-04 </wgt>
<wgt id='morphing_basis_vector_2'> +1.1425337e-04 </wgt>
<wgt id='morphing_basis_vector_3'> +1.8340172e-04 </wgt>
<wgt id='morphing_basis_vector_4'> +1.2848572e-04 </wgt>
<wgt id='morphing_basis_vector_5'> +2.0479972e-04 </wgt>
</rwgt>
</event>
<event>
 4      1 +6.0853000e-08 2.18486400e+03 7.81860800e-03 7.99967700e-02
        2 -1    0    0  501    0 +0.0000000000e+00 +0.0000000000e+00 +1.5249865777e+03 1.5249865777e+03 0.0000000000e+00 0.0000e+00 -1.0000e+00
       -2 -1    0    0    0  501 -0.0000000000e+00 -0.0000000000e+00 -7.8256942810e+02 7.8256942810e+02 0.0000000000e+00 0.0000e+00 1.0000e+00
      -13  1    1    2    0    0 +9.4372974472e+02 -5.2906253155e+02 +2.1147094955e+02 1.1023851214e+03 0.0000000000e+00 0.0000e+00 1.0000e+00
       13  1    1    2    0    0 -9.4372974472e+02 +5.2906253155e+02 +5.3094620010e+02 1.2051708845e+03 0.0000000000e+00 0.0000e+00 -1.0000e+00
<mgrwt>
<rscale>  0 0.21848642E+04</rscale>
<asrwt>0</asrwt>
<pdfrwt beam="1">  1        2 0.23461332E+00 0.21848642E+04</pdfrwt>
<pdfrwt beam="2">  1       -2 0.12039530E+00 0.21848642E+04</pdfrwt>
<totfact> 0.74424466E+00</totfact>
</mgrwt>
<rwgt>
<wgt id='morphing_basis_vector_1'> +1.9724704e-04 </wgt>
<wgt id='morphing_basis_vector_2'> +1.4141977e-04 </wgt>
<wgt id='morphing_basis_vector_3'> +2.1352486e-04 </wgt>
<wgt id='morphing_basis_vector_4'> +1.3711771e-04 </wgt>
<wgt id='morphing_basis_vector_5'> +2.3134857e-04 </wgt>
</rwgt>
</event>
<event>
 4      1 +6.0853000e-08 2.07543500e+03 7.81860800e-03 8.04129000e-02
        2 -1    0    0  501    0 +0.0000000000e+00 +0.0000000000e+00 +2.4704239404e+03 2.4704239404e+03 0.0000000000e+00 0.0000e+00 -1.0000e+00
       -2 -1    0    0    0  501 -0.0000000000e+00 -0.0000000000e+00 -4.3590009756e+02 4.3590009756e+02 0.0000000000e+00 0.0000e+00 1.0000e+00
      -13  1    1    2    0    0 -5.4653286893e+02 +7.2188042173e+02 +3.0728805595e+02 9.5615661344e+02 0.0000000000e+00 0.0000e+00 1.0000e+00
       13  1    1    2    0    0 +5.4653286893e+02 -7.2188042173e+02 +1.7272357869e+03 1.9501674245e+03 0.0000000000e+00 0.0000e+00 -1.0000e+00
<mgrwt>
<rscale>  0 0.20754354E+04</rscale>
<asrwt>0</asrwt>
<pdfrwt beam="1">  1        2 0.38006521E+00 0.20754354E+04</pdfrwt>
<pdfrwt beam="2">  1       -2 0.67061555E-01 0.20754354E+04</pdfrwt>
<totfact> 0.86197957E+00</totfact>
</mgrwt>
<rwgt>
<wgt id='morphing_basis_vector_1'> +1.5848506e-04 </wgt>
<wgt id='morphing_basis_vector_2'> +1.0734270e-04 </wgt>
<wgt id='morphing_basis_vector_3'> +1.6988572e-04 </wgt>
<wgt id='morphing_basis_vector_4'> +1.1666938e-04 </wgt>
<wgt id='morphing_basis_vector_5'> +1.8811522e-04 </wgt>
</rwgt>
</event>
<event>
 4      1 +6.0853000e-08 2.03798300e+03 7.81860800e-03 8.05614800e-02
        2 -1    0    0  501    0 +0.0000000000e+00 +0.0000000000e+00 +1.8940432364e+03 1.8940432364e+03 0.0000000000e+00 0.0000e+00 1.0000e+00
       -2 -1    0    0    0  501 -0.0000000000e+00 -0.0000000000e+00 -5.4821558866e+02 5.4821558866e+02 0.0000000000e+00 0.0000e+00 -1.0000e+00
      -13  1    1    2    0    0 +4.8951092206e+02 -6.9663407797e+02 +2.0147168093e+00 8.5142471217e+02 0.0000000000e+00 0.0000e+00 -1.0000e+00
       13  1    1    2    0    0 -4.8951092206e+02 +6.9663407797e+02 +1.3438129309e+03 1.5908341129e+03 0.0000000000e+00 0.0000e+00 1.0000e+00
<mgrwt>
<rscale>  0 0.20379833E+04</rscale>
<asrwt>0</asrwt>
<pdfrwt beam="1">  1        2 0.29139126E+00 0.20379833E+04</pdfrwt>
<pdfrwt beam="2">  1       -2 0.84340860E-01 0.20379833E+04</pdfrwt>
<totfact> 0.11151842E+01</totfact>
</mgrwt>
<rwgt>
<wgt id='morphing_basis_vector_1'> +1.4736135e-04 </wgt>
<wgt id='morphing_basis_vector_2'> +9.9284192e-05 </wgt>
<wgt id='morphing_basis_vector_3'> +1.5768050e-04 </wgt>
<wgt id='morphing_basis_vector_4'> +1.0871767e-04 </wgt>
<wgt id='morphing_basis_vector_5'> +1.7468858e-04 </wgt>
</rwgt>
</event>
<event>
 4      1 +6.0853000e-08 2.02334600e+03 7.81860800e-03 8.06204400e-02
        2 -1    0    0  501    0 +0.0000000000e+00 +0.0000000000e+00 +8.3356584955e+02 8.3356584955e+02 0.0000000000e+00 0.0000e+00 -1.0000e+00
       -2 -1    0    0    0  501 -0.0000000000e+00 -0.0000000000e+00 -1.2278365298e+03 1.2278365298e+03 0.0000000000e+00 0.0000e+00 1.0000e+00
      -13  1    1    2    0    0 +3.6461182087e+02 +4.3177114528e+01 -1.1575624433e+03 1.2143956741e+03 0.0000000000e+00 0.0000e+00 1.0000e+00
       13  1    1    2    0    0 -3.6461182087e+02 -4.3177114528e+01 +7.6329176307e+02 8.4700670523e+02 0.0000000000e+00 0.0000e+00 -1.0000e+00
<mgrwt>
<rscale>  0 0.20233463E+04</rscale>
<asrwt>0</asrwt>
<pdfrwt beam="1">  1        2 0.12824090E+00 0.20233463E+04</pdfrwt>
<pdfrwt beam="2">  1       -2 0.18889793E+00 0.20233463E+04</pdfrwt>
<totfact> 0.53320847E+00</totfact>
</mgrwt>
<rwgt>
<wgt id='morphing_basis_vector_1'> +1.4277584e-04 </wgt>
<wgt id='morphing_basis_vector_2'> +9.5069951e-05 </wgt>
<wgt id='morphing_basis_vector_3'> +1.5250701e-04 </wgt>
<wgt id='morphing_basis_vector_4'> +1.0652399e-04 </wgt>
<wgt id='morphing_basis_vector_5'> +1.6970372e-04 </wgt>
</rwgt>
</event>
<event>
 4      1 +6.0853000e-08 1.88304700e+03 7.81860800e-03 8.12134000e-02
        2 -1    0    0  501    0 +0.0000000000e+00 +0.0000000000e+00 +2.9733196840e+03 2.9733196840e+03 0.0000000000e+00 0.0000e+00 1.0000e+00
       -2 -1    0    0    0  501 -0.0000000000e+00 -0.0000000000e+00 -2.9814026039e+02 2.9814026039e+02 0.0000000000e+00 0.0000e+00 -1.0000e+00
      -13  1    1    2    0    0 -5.8124034035e+02 -3.9928778589e+02 +2.5375201300e+02 7.4944056022e+02 0.0000000000e+00 0.0000e+00 -1.0000e+00
       13  1    1    2    0    0 +5.8124034035e+02 +3.9928778589e+02 +2.4214274107e+03 2.5220193842e+03 0.0000000000e+00 0.0000e+00 1.0000e+00
<mgrwt>
<rscale>  0 0.18830468E+04</rscale>
<asrwt>0</asrwt>
<pdfrwt beam="1">  1        2 0.45743378E+00 0.18830468E+04</pdfrwt>
<pdfrwt beam="2">  1       -2 0.45867734E-01 0.18830468E+04</pdfrwt>
<totfact> 0.92262016E+00</totfact>
</mgrwt>
<rwgt>
<wgt id='morphing_basis_vector_1'> +1.0793544e-04 </wgt>
<wgt id='morphing_basis_vector_2'> +7.2017951e-05 </wgt>
<wgt id='morphing_basis_vector_3'> +1.1471604e-04 </wgt>
<wgt id='morphing_basis_vector_4'> +7.9100650e-05 </wgt>
<wgt id='morphing_basis_vector_5'> +1.2650744e-04 </wgt>
</rwgt>
</event>
<event>
 4      1 +6.0853000e-08 1.88084300e+03 7.81860800e-03 8.12231400e-02
        2 -1    0    0  501    0 +0.0000000000e+00 +0.0000000000e+00 +2.5043046707e+03 2.5043046707e+03 0.0000000000e+00 0.0000e+00 -1.0000e+00
       -2 -1    0    0    0  501 -0.0000000000e+00 -0.0000000000e+00 -3.5314880012e+02 3.5314880012e+02 0.0000000000e+00 0.0000e+00 1.0000e+00
      -13  1    1    2    0    0 +9.3941090791e+02 +4.2155558255e+01 +1.0923753157e+03 1.4413721849e+03 0.0000000000e+00 0.0000e+00 1.0000e+00
       13  1    1    2    0    0 -9.3941090791e+02 -4.2155558255e+01 +1.0587805548e+03 1.4160812859e+03 0.0000000000e+00 0.0000e+00 -1.0000e+00
<mgrwt>
<rscale>  0 0.18808426E+04</rscale>
<asrwt>0</asrwt>
<pdfrwt beam="1">  1        2 0.38527763E+00 0.18808426E+04</pdfrwt>
<pdfrwt beam="2">  1       -2 0.54330586E-01 0.18808426E+04</pdfrwt>
<totfact> 0.12912372E+01</totfact>
</mgrwt>
<rwgt>
<wgt id='morphing_basis_vector_1'> +1.1135183e-04 </wgt>
<wgt id='morphing_basis_vector_2'> +8.3273401e-05 </wgt>
<wgt id='morphing_basis_vector_3'> +1.1977376e-04 </wgt>
<wgt id='morphing_basis_vector_4'> +7.1027246e-05 </wgt>
<wgt id='morphing_basis_vector_5'> +1.2530146e-04 </wgt>
</rwgt>
</event>
<event>
 4      1 +6.0853000e-08 1.97859200e+03 7.81860800e-03 8.08040100e-02
        2 -1    0    0  501    0 +0.0000000000e+00 +0.0000000000e+00 +8.2935997422e+02 8.2935997422e+02 0.0000000000e+00 0.0000e+00 -1.0000e+00
       -2 -1    0    0    0  501 -0.0000000000e+00 -0.0000000000e+00 -1.1800741265e+03 1.1800741265e+03 0.0000000000e+00 0.0000e+00 1.0000e+00
      -13  1    1    2    0    0 -8.2968931992e+02 +1.6571412175e+02 -6.9604850649e+02 1.0955952999e+03 0.0000000000e+00 0.0000e+00 1.0000e+00
       13  1    1    2    0    0 +8.2968931992e+02 -1.6571412175e+02 +3.4533435420e+02 9.1383880084e+02 0.0000000000e+00 0.0000e+00 -1.0000e+00
<mgrwt>
<rscale>  0 0.19785917E+04</rscale>
<asrwt>0</asrwt>
<pdfrwt beam="1">  1        2 0.12759384E+00 0.19785917E+04</pdfrwt>
<pdfrwt beam="2">  1       -2 0.18154987E+00 0.19785917E+04</pdfrwt>
<totfact> 0.61179698E+00</totfact>
</mgrwt>
<rwgt>
<wgt id='morphing_basis_vector_1'> +1.3131427e-04 </wgt>
<wgt id='morphing_basis_vector_2'> +8.8544855e-05 </wgt>
<wgt id='morphing_basis_vector_3'> +1.4023378e-04 </wgt>
<wgt id='morphing_basis_vector_4'> +9.6201242e-05 </wgt>
<wgt id='morphing_basis_vector_5'> +1.5481873e-04 </wgt>
</rwgt>
</event>
<event>
 4      1 +6.0853000e-08 1.91691500e+03 7.81860800e-03 8.10654400e-02
        2 -1    0    0  501    0 +0.0000000000e+00 +0.0000000000e+00 +3.6091001111e+03 3.6091001111e+03 0.0000000000e+00 0.0000e+00 -1.0000e+00
       -2 -1    0    0    0  501 -0.0000000000e+00 -0.0000000000e+00 -2.5453456783e+02 2.5453456783e+02 0.0000000000e+00 0.0000e+00 1.0000e+00
      -13  1    1    2    0    0 +3.1123263091e+02 -7.8188291455e+02 +7.5268836376e+02 1.1290466844e+03 0.0000000000e+00 0.0000e+00 1.0000e+00
       13  1    1    2    0    0 -3.1123263091e+02 +7.8188291455e+02 +2.6018771795e+03 2.7345879945e+03 0.0000000000e+00 0.0000e+00 -1.0000e+00
<mgrwt>
<rscale>  0 0.19169150E+04</rscale>
<asrwt>0</asrwt>
<pdfrwt beam="1">  1        2 0.55524614E+00 0.19169150E+04</pdfrwt>
<pdfrwt beam="2">  1       -2 0.39159167E-01 0.19169150E+04</pdfrwt>
<totfact> 0.44992278E+00</totfact>
</mgrwt>
<rwgt>
<wgt id='morphing_basis_vector_1'> +1.1611092e-04 </wgt>
<wgt id='morphing_basis_vector_2'> +7.8421571e-05 </wgt>
<wgt id='morphing_basis_vector_3'> +1.2372879e-04 </wgt>
<wgt id='morphing_basis_vector_4'> +8.4321907e-05 </wgt>
<wgt id='morphing_basis_vector_5'> +1.3601504e-04 </wgt>
</rwgt>
</event>
<event>
 4      1 +6.0853000e-08 1.99447400e+03 7.81860800e-03 8.07383000e-02
        2 -1    0    0  501    0 +0.0000000000e+00 +0.0000000000e+00 +1.9127277527e+03 1.9127277527e+03 0.0000000000e+00 0.0000e+00 -1.0000e+00
       -2 -1    0    0    0  501 -0.0000000000e+00 -0.0000000000e+00 -5.1992866551e+02 5.1992866551e+02 0.0000000000e+00 0.0000e+00 1.0000e+00
      -13  1    1    2    0    0 +6.1499807566e+02 -7.6791218011e+02 +4.9758413287e+02 1.1024979450e+03 0.0000000000e+00 0.0000e+00 1.0000e+00
       13  1    1    2    0    0 -6.1499807566e+02 +7.6791218011e+02 +8.9521495431e+02 1.3301584732e+03 0.0000000000e+00 0.0000e+00 -1.0000e+00
<mgrwt>
<rscale>  0 0.19944744E+04</rscale>
<asrwt>0</asrwt>
<pdfrwt beam="1">  1        2 0.29426580E+00 0.19944744E+04</pdfrwt>
<pdfrwt beam="2">  1       -2 0.79989026E-01 0.19944744E+04</pdfrwt>
<totfact> 0.12332509E+01</totfact>
</mgrwt>
<rwgt>
<wgt id='morphing_basis_vector_1'> +1.3762671e-04 </wgt>
<wgt id='morphing_basis_vector_2'> +9.7714157e-05 </wgt>
<wgt id='morphing_basis_vector_3'> +1.4788812e-04 </wgt>
<wgt id='morphing_basis_vector_4'> +9.5146737e-05 </wgt>
<wgt id='morphing_basis_vector_5'> +1.5961969e-04 </wgt>
</rwgt>
</event>
<event>
 4      1 +6.0853000e-08 2.00421800e+03 7.81860800e-03 8.06982900e-02
        2 -1    0    0  501    0 +0.0000000000e+00 +0.0000000000e+00 +3.4240823131e+03 3.4240823131e+03 0.0000000000e+00 0.0000e+00 -1.0000e+00
       -2 -1    0    0    0  501 -0.0000000000e+00 -0.0000000000e+00 -2.9328221343e+02 2.9328221343e+02 0.0000000000e+00 0.0000e+00 1.0000e+00
      -13  1    1    2    0    0 -6.4202683145e+02 -1.8941652282e+02 +1.8220203753e+02 6.9373961535e+02 0.0000000000e+00 0.0000e+00 1.0000e+00
       13  1    1    2    0    0 +6.4202683145e+02 +1.8941652282e+02 +2.9485980621e+03 3.0236249112e+03 0.0000000000e+00 0.0000e+00 -1.0000e+00
<mgrwt>
<rscale>  0 0.20042180E+04</rscale>
<asrwt>0</asrwt>
<pdfrwt beam="1">  1        2 0.52678187E+00 0.20042180E+04</pdfrwt>
<pdfrwt beam="2">  1       -2 0.45120343E-01 0.20042180E+04</pdfrwt>
<totfact> 0.46603482E+00</totfact>
</mgrwt>
<rwgt>
<wgt id='morphing_basis_vector_1'> +1.3766977e-04 </wgt>
<wgt id='morphing_basis_vector_2'> +9.1888749e-05 </wgt>
<wgt id='morphing_basis_vector_3'> +1.4699500e-04 </wgt>
<wgt id='morphing_basis_vector_4'> +1.0225303e-04 </wgt>
<wgt id='morphing_basis_vector_5'> +1.6323568e-04 </wgt>
</rwgt>
</event>
<event>
 4      1 +6.0853000e-08 1.91500000e+03 7.81860800e-03 8.10737200e-02
        2 -1    0    0  501    0 +0.0000000000e+00 +0.0000000000e+00 +1.8241437535e+03 1.8241437535e+03 0.0000000000e+00 0.0000e+00 -1.0000e+00
       -2 -1    0    0    0  501 -0.0000000000e+00 -0.0000000000e+00 -5.0259551681e+02 5.0259551681e+02 0.0000000000e+00 0.0000e+00 1.0000e+00
      -13  1    1    2    0    0 +1.4659113986e+02 -9.3637958674e+02 +4.9546711765e+02 1.0694780771e+03 0.0000000000e+00 0.0000e+00 1.0000e+00
       13  1    1    2    0    0 -1.4659113986e+02 +9.3637958674e+02 +8.2608111906e+02 1.2572611932e+03 0.0000000000e+00 0.0000e+00 -1.0000e+00
<mgrwt>
<rscale>  0 0.19150002E+04</rscale>
<asrwt>0</asrwt>
<pdfrwt beam="1">  1        2 0.28063750E+00 0.19150002E+04</pdfrwt>
<pdfrwt beam="2">  1       -2 0.77322388E-01 0.19150002E+04</pdfrwt>
<totfact> 0.15019581E+01</totfact>
</mgrwt>
<rwgt>
<wgt id='morphing_basis_vector_1'> +1.1756513e-04 </wgt>
<wgt id='morphing_basis_vector_2'> +8.3763448e-05 </wgt>
<wgt id='morphing_basis_vector_3'> +1.2597917e-04 </wgt>
<wgt id='morphing_basis_vector_4'> +8.0211632e-05 </wgt>
<wgt id='morphing_basis_vector_5'> +1.3516533e-04 </wgt>
</rwgt>
</event>
<event>
 4      1 +6.0853000e-08 2.15837000e+03 7.81860800e-03 8.00951700e-02
        2 -1    0    0  501    0 +0.0000000000e+00 +0.0000000000e+00 +2.5238025334e+03 2.5238025334e+03 0.0000000000e+00 0.0000e+00 -1.0000e+00
       -2 -1    0    0    0  501 -0.0000000000e+00 -0.0000000000e+00 -4.6146241912e+02 4.6146241912e+02 0.0000000000e+00 0.0000e+00 1.0000e+00
      -13  1    1    2    0    0 -1.0335958826e+03 -9.1030458736e+01 +6.2079604012e+02 1.2091297351e+03 0.0000000000e+00 0.0000e+00 1.0000e+00
       13  1    1    2    0    0 +1.0335958826e+03 +9.1030458736e+01 +1.4415440742e+03 1.7761352174e+03 0.0000000000e+00 0.0000e+00 -1.0000e+00
<mgrwt>
<rscale>  0 0.21583698E+04</rscale>
<asrwt>0</asrwt>
<pdfrwt beam="1">  1        2 0.38827731E+00 0.21583698E+04</pdfrwt>
<pdfrwt beam="2">  1       -2 0.70994220E-01 0.21583698E+04</pdfrwt>
<totfact> 0.70413692E+00</totfact>
</mgrwt>
<rwgt>
<wgt id='morphing_basis_vector_1'> +1.8631613e-04 </wgt>
<wgt id='morphing_basis_vector_2'> +1.2973123e-04 </wgt>
<wgt id='morphing_basis_vector_3'> +2.0084496e-04 </wgt>
<wgt id='morphing_basis_vector_4'> +1.3389098e-04 </wgt>
<wgt id='morphing_basis_vector_5'> +2.2041905e-04 </wgt>
</rwgt>
</event>
<event>
 4      1 +6.0853000e-08 1.94928600e+03 7.81860800e-03 8.09269800e-02
        2 -1    0    0  501    0 +0.0000000000e+00 +0.0000000000e+00 +1.6447933340e+03 1.6447933340e+03 0.0000000000e+00 0.0000e+00 1.0000e+00
       -2 -1    0    0    0  501 -0.0000000000e+00 -0.0000000000e+00 -5.7753705054e+02 5.7753705054e+02 0.0000000000e+00 0.0000e+00 -1.0000e+00
      -13  1    1    2    0    0 +2.8983006744e+02 +2.6460404077e+01 -5.2684136281e+02 6.0188324661e+02 0.0000000000e+00 0.0000e+00 -1.0000e+00
       13  1    1    2    0    0 -2.8983006744e+02 -2.6460404077e+01 +1.5940976462e+03 1.6204471379e+03 0.0000000000e+00 0.0000e+00 1.0000e+00
<mgrwt>
<rscale>  0 0.19492861E+04</rscale>
<asrwt>0</asrwt>
<pdfrwt beam="1">  1        2 0.25304513E+00 0.19492861E+04</pdfrwt>
<pdfrwt beam="2">  1       -2 0.88851854E-01 0.19492861E+04</pdfrwt>
<totfact> 0.13711683E+01</totfact>
</mgrwt>
<rwgt>
<wgt id='morphing_basis_vector_1'> +1.2336463e-04 </wgt>
<wgt id='morphing_basis_vector_2'> +8.1991545e-05 </wgt>
<wgt id='morphing_basis_vector_3'> +1.3140389e-04 </wgt>
<wgt id='morphing_basis_vector_4'> +9.1499924e-05 </wgt>
<wgt id='morphing_basis_vector_5'> +1.4574355e-04 </wgt>
</rwgt>
</event>
<event>
 4      1 +6.0853000e-08 2.02385800e+03 7.81860800e-03 8.06183700e-02
        2 -1    0    0  501    0 +0.0000000000e+00 +0.0000000000e+00 +1.4575880741e+03 1.4575880741e+03 0.0000000000e+00 0.0000e+00 -1.0000e+00
       -2 -1    0    0    0  501 -0.0000000000e+00 -0.0000000000e+00 -7.0253072031e+02 7.0253072031e+02 0.0000000000e+00 0.0000e+00 1.0000e+00
      -13  1    1    2    0    0 +5.7533849226e+02 +8.3148038434e+02 +4.2057240165e+02 1.0951050887e+03 0.0000000000e+00 0.0000e+00 1.0000e+00
       13  1    1    2    0    0 -5.7533849226e+02 -8.3148038434e+02 +3.3448495218e+02 1.0650137058e+03 0.0000000000e+00 0.0000e+00 -1.0000e+00
<mgrwt>
<rscale>  0 0.20238581E+04</rscale>
<asrwt>0</asrwt>
<pdfrwt beam="1">  1        2 0.22424432E+00 0.20238581E+04</pdfrwt>
<pdfrwt beam="2">  1       -2 0.10808165E+00 0.20238581E+04</pdfrwt>
<totfact> 0.10833247E+01</totfact>
</mgrwt>
<rwgt>
<wgt id='morphing_basis_vector_1'> +1.4893790e-04 </wgt>
<wgt id='morphing_basis_vector_2'> +1.1298668e-04 </wgt>
<wgt id='morphing_basis_vector_3'> +1.6145280e-04 </wgt>
<wgt id='morphing_basis_vector_4'> +9.4631937e-05 </wgt>
<wgt id='morphing_basis_vector_5'> +1.6893012e-04 </wgt>
</rwgt>
</event>
<event>
 4      1 +6.0853000e-08 2.17620300e+03 7.81860800e-03 8.00287800e-02
        2 -1    0    0  501    0 +0.0000000000e+00 +0.0000000000e+00 +2.0043863392e+03 2.0043863392e+03 0.0000000000e+00 0.0000e+00 -1.0000e+00
       -2 -1    0    0    0  501 -0.0000000000e+00 -0.0000000000e+00 -5.9068719109e+02 5.9068719109e+02 0.0000000000e+00 0.0000e+00 1.0000e+00
      -13  1    1    2    0    0 +7.1566256384e+02 +1.3584185046e+02 -2.5702297269e+02 7.7245499682e+02 0.0000000000e+00 0.0000e+00 1.0000e+00
       13  1    1    2    0    0 -7.1566256384e+02 -1.3584185046e+02 +1.6707221208e+03 1.8226185335e+03 0.0000000000e+00 0.0000e+00 -1.0000e+00
<mgrwt>
<rscale>  0 0.21762034E+04</rscale>
<asrwt>0</asrwt>
<pdfrwt beam="1">  1        2 0.30836713E+00 0.21762034E+04</pdfrwt>
<pdfrwt beam="2">  1       -2 0.90874953E-01 0.21762034E+04</pdfrwt>
<totfact> 0.80346282E+00</totfact>
</mgrwt>
<rwgt>
<wgt id='morphing_basis_vector_1'> +1.9019773e-04 </wgt>
<wgt id='morphing_basis_vector_2'> +1.2740402e-04 </wgt>
<wgt id='morphing_basis_vector_3'> +2.0422672e-04 </wgt>
<wgt id='morphing_basis_vector_4'> +1.4296800e-04 </wgt>
<wgt id='morphing_basis_vector_5'> +2.2828365e-04 </wgt>
</rwgt>
</event>
<event>
 4      1 +6.0853000e-08 1.95871400e+03 7.81860800e-03 8.08871700e-02
        2 -1    0    0  501    0 +0.0000000000e+00 +0.0000000000e+00 +2.1208358884e+03 2.1208358884e+03 0.0000000000e+00 0.0000e+00 1.0000e+00
       -2 -1    0    0    0  501 -0.0000000000e+00 -0.0000000000e+00 -4.5224618670e+02 4.5224618670e+02 0.0000000000e+00 0.0000e+00 -1.0000e+00
      -13  1    1    2    0    0 +2.7793105096e+02 -8.3444619530e+02 +2.6836264176e+02 9.1954588217e+02 0.0000000000e+00 0.0000e+00 -1.0000e+00
       13  1    1    2    0    0 -2.7793105096e+02 +8.3444619530e+02 +1.4002270600e+03 1.6535361930e+03 0.0000000000e+00 0.0000e+00 1.0000e+00
<mgrwt>
<rscale>  0 0.19587138E+04</rscale>
<asrwt>0</asrwt>
<pdfrwt beam="1">  1        2 0.32628244E+00 0.19587138E+04</pdfrwt>
<pdfrwt beam="2">  1       -2 0.69576337E-01 0.19587138E+04</pdfrwt>
<totfact> 0.12837476E+01</totfact>
</mgrwt>
<rwgt>
<wgt id='morphing_basis_vector_1'> +1.2647359e-04 </wgt>
<wgt id='morphing_basis_vector_2'> +8.5814940e-05 </wgt>
<wgt id='morphing_basis_vector_3'> +1.3505455e-04 </wgt>
<wgt id='morphing_basis_vector_4'> +9.1820220e-05 </wgt>
<wgt id='morphing_basis_vector_5'> +1.4852631e-04 </wgt>
</rwgt>
</event>
<event>
 4      1 +6.0853000e-08 2.21840800e+03 7.81860800e-03 7.98742400e-02
        2 -1    0    0  501    0 +0.0000000000e+00 +0.0000000000e+00 +4.3890086496e+03 4.3890086496e+03 0.0000000000e+00 0.0000e+00 -1.0000e+00
       -2 -1    0    0    0  501 -0.0000000000e+00 -0.0000000000e+00 -2.8032154511e+02 2.8032154511e+02 0.0000000000e+00 0.0000e+00 1.0000e+00
      -13  1    1    2    0    0 +2.1258128393e+02 -9.4150292482e+02 +9.0396244461e+02 1.3224094150e+03 0.0000000000e+00 0.0000e+00 1.0000e+00
       13  1    1    2    0    0 -2.1258128393e+02 +9.4150292482e+02 +3.2047246599e+03 3.3469207797e+03 0.0000000000e+00 0.0000e+00 -1.0000e+00
<mgrwt>
<rscale>  0 0.22184082E+04</rscale>
<asrwt>0</asrwt>
<pdfrwt beam="1">  1        2 0.67523205E+00 0.22184082E+04</pdfrwt>
<pdfrwt beam="2">  1       -2 0.43126395E-01 0.22184082E+04</pdfrwt>
<totfact> 0.78860480E-01</totfact>
</mgrwt>
<rwgt>
<wgt id='morphing_basis_vector_1'> +2.0589120e-04 </wgt>
<wgt id='morphing_basis_vector_2'> +1.3977703e-04 </wgt>
<wgt id='morphing_basis_vector_3'> +2.2166140e-04 </wgt>
<wgt id='morphing_basis_vector_4'> +1.5302345e-04 </wgt>
<wgt id='morphing_basis_vector_5'> +2.4670570e-04 </wgt>
</rwgt>
</event>
<event>
 4      1 +6.0853000e-08 2.09049400e+03 7.81860800e-03 8.03540800e-02
        2 -1    0    0  501    0 +0.0000000000e+00 +0.0000000000e+00 +2.5088567654e+03 2.5088567654e+03 0.0000000000e+00 0.0000e+00 -1.0000e+00
       -2 -1    0    0    0  501 -0.0000000000e+00 -0.0000000000e+00 -4.3547389553e+02 4.3547389553e+02 0.0000000000e+00 0.0000e+00 1.0000e+00
      -13  1    1    2    0    0 -7.0047155186e+02 -4.4025852342e+02 +1.3699452011e+02 8.3860327983e+02 0.0000000000e+00 0.0000e+00 1.0000e+00
       13  1    1    2    0    0 +7.0047155186e+02 +4.4025852342e+02 +1.9363883498e+03 2.1057273811e+03 0.0000000000e+00 0.0000e+00 -1.0000e+00
<mgrwt>
<rscale>  0 0.20904943E+04</rscale>
<asrwt>0</asrwt>
<pdfrwt beam="1">  1        2 0.38597796E+00 0.20904943E+04</pdfrwt>
<pdfrwt beam="2">  1       -2 0.66995985E-01 0.20904943E+04</pdfrwt>
<totfact> 0.81837055E+00</totfact>
</mgrwt>
<rwgt>
<wgt id='morphing_basis_vector_1'> +1.6266076e-04 </wgt>
<wgt id='morphing_basis_vector_2'> +1.0932318e-04 </wgt>
<wgt id='morphing_basis_vector_3'> +1.7429497e-04 </wgt>
<wgt id='morphing_basis_vector_4'> +1.2092901e-04 </wgt>
<wgt id='morphing_basis_vector_5'> +1.9379992e-04 </wgt>
</rwgt>
</event>
<event>
 4      1 +6.0853000e-08 2.09942900e+03 7.81860800e-03 8.03194200e-02
        2 -1    0    0  501    0 +0.0000000000e+00 +0.0000000000e+00 +1.6827147541e+03 1.6827147541e+03 0.0000000000e+00 0.0000e+00 -1.0000e+00
       -2 -1    0    0    0  501 -0.0000000000e+00 -0.0000000000e+00 -6.5483482972e+02 6.5483482972e+02 0.0000000000e+00 0.0000e+00 1.0000e+00
      -13  1    1    2    0    0 +9.1801817769e+02 -2.1482615922e+02 +8.3369666675e-02 9.4281899652e+02 0.0000000000e+00 0.0000e+00 1.0000e+00
       13  1    1    2    0    0 -9.1801817769e+02 +2.1482615922e+02 +1.0277965547e+03 1.3947305873e+03 0.0000000000e+00 0.0000e+00 -1.0000e+00
<mgrwt>
<rscale>  0 0.20994287E+04</rscale>
<asrwt>0</asrwt>
<pdfrwt beam="1">  1        2 0.25887919E+00 0.20994287E+04</pdfrwt>
<pdfrwt beam="2">  1       -2 0.10074382E+00 0.20994287E+04</pdfrwt>
<totfact> 0.95780861E+00</totfact>
</mgrwt>
<rwgt>
<wgt id='morphing_basis_vector_1'> +1.6601806e-04 </wgt>
<wgt id='morphing_basis_vector_2'> +1.1299591e-04 </wgt>
<wgt id='morphing_basis_vector_3'> +1.7818955e-04 </wgt>
<wgt id='morphing_basis_vector_4'> +1.2182243e-04 </wgt>
<wgt id='morphing_basis_vector_5'> +1.9709863e-04 </wgt>
</rwgt>
</event>
<event>
 4      1 +6.0853000e-08 2.12889700e+03 7.81860800e-03 8.02063700e-02
        2 -1    0    0  501    0 +0.0000000000e+00 +0.0000000000e+00 +1.0638939369e+03 1.0638939369e+03 0.0000000000e+00 0.0000e+00 1.0000e+00
       -2 -1    0    0    0  501 -0.0000000000e+00 -0.0000000000e+00 -1.0650031600e+03 1.0650031600e+03 0.0000000000e+00 0.0000e+00 -1.0000e+00
      -13  1    1    2    0    0 -1.0511198399e+03 -1.5811577812e+02 +5.5986422001e+01 1.0644190888e+03 0.0000000000e+00 0.0000e+00 1.0000e+00
       13  1    1    2    0    0 +1.0511198399e+03 +1.5811577812e+02 -5.7095645105e+01 1.0644780081e+03 0.0000000000e+00 0.0000e+00 -1.0000e+00
<mgrwt>
<rscale>  0 0.21288968E+04</rscale>
<asrwt>0</asrwt>
<pdfrwt beam="1">  1        2 0.16367599E+00 0.21288968E+04</pdfrwt>
<pdfrwt beam="2">  1       -2 0.16384664E+00 0.21288968E+04</pdfrwt>
<totfact> 0.58594851E+00</totfact>
</mgrwt>
<rwgt>
<wgt id='morphing_basis_vector_1'> +1.8201610e-04 </wgt>
<wgt id='morphing_basis_vector_2'> +1.3910774e-04 </wgt>
<wgt id='morphing_basis_vector_3'> +1.9823594e-04 </wgt>
<wgt id='morphing_basis_vector_4'> +1.1556093e-04 </wgt>
<wgt id='morphing_basis_vector_5'> +2.0754439e-04 </wgt>
</rwgt>
</event>
<event>
 4      1 +6.0853000e-08 2.08839100e+03 7.81860800e-03 8.03622600e-02
        2 -1    0    0  501    0 +0.0000000000e+00 +0.0000000000e+00 +2.5365728618e+03 2.5365728618e+03 0.0000000000e+00 0.0000e+00 1.0000e+00
       -2 -1    0    0    0  501 -0.0000000000e+00 -0.0000000000e+00 -4.2984954952e+02 4.2984954952e+02 0.0000000000e+00 0.0000e+00 -1.0000e+00
      -13  1    1    2    0    0 +1.0730933617e+02 +1.0233739914e+03 +1.3056040456e+03 1.6623512096e+03 0.0000000000e+00 0.0000e+00 -1.0000e+00
       13  1    1    2    0    0 -1.0730933617e+02 -1.0233739914e+03 +8.0111926669e+02 1.3040712018e+03 0.0000000000e+00 0.0000e+00 1.0000e+00
<mgrwt>
<rscale>  0 0.20883914E+04</rscale>
<asrwt>0</asrwt>
<pdfrwt beam="1">  1        2 0.39024197E+00 0.20883914E+04</pdfrwt>
<pdfrwt beam="2">  1       -2 0.66130702E-01 0.20883914E+04</pdfrwt>
<totfact> 0.80979476E+00</totfact>
</mgrwt>
<rwgt>
<wgt id='morphing_basis_vector_1'> +1.7234943e-04 </wgt>
<wgt id='morphing_basis_vector_2'> +1.3944923e-04 </wgt>
<wgt id='morphing_basis_vector_3'> +1.8879998e-04 </wgt>
<wgt id='morphing_basis_vector_4'> +9.9740531e-05 </wgt>
<wgt id='morphing_basis_vector_5'> +1.9136382e-04 </wgt>
</rwgt>
</event>
<event>
 4      1 +6.0853000e-08 2.12437100e+03 7.81860800e-03 8.02236100e-02
        2 -1    0    0  501    0 +0.0000000000e+00 +0.0000000000e+00 +1.5559834939e+03 1.5559834939e+03 0.0000000000e+00 0.0000e+00 1.0000e+00
       -2 -1    0    0    0  501 -0.0000000000e+00 -0.0000000000e+00 -7.2509621143e+02 7.2509621143e+02 0.0000000000e+00 0.0000e+00 -1.0000e+00
      -13  1    1    2    0    0 +8.3358783473e+02 +1.7308096536e+02 -2.6655668249e+02 8.9212003888e+02 0.0000000000e+00 0.0000e+00 -1.0000e+00
       13  1    1    2    0    0 -8.3358783473e+02 -1.7308096536e+02 +1.0974439649e+03 1.3889596664e+03 0.0000000000e+00 0.0000e+00 1.0000e+00
<mgrwt>
<rscale>  0 0.21243707E+04</rscale>
<asrwt>0</asrwt>
<pdfrwt beam="1">  1        2 0.23938208E+00 0.21243707E+04</pdfrwt>
<pdfrwt beam="2">  1       -2 0.11155326E+00 0.21243707E+04</pdfrwt>
<totfact> 0.87401602E+00</totfact>
</mgrwt>
<rwgt>
<wgt id='morphing_basis_vector_1'> +1.7329533e-04 </wgt>
<wgt id='morphing_basis_vector_2'> +1.1662909e-04 </wgt>
<wgt id='morphing_basis_vector_3'> +1.8590563e-04 </wgt>
<wgt id='morphing_basis_vector_4'> +1.2903534e-04 </wgt>
<wgt id='morphing_basis_vector_5'> +2.0690588e-04 </wgt>
</rwgt>
</event>
<event>
 4      1 +6.0853000e-08 1.98798900e+03 7.81860800e-03 8.07650500e-02
        2 -1    0    0  501    0 +0.0000000000e+00 +0.0000000000e+00 +8.3070550028e+02 8.3070550028e+02 0.0000000000e+00 0.0000e+00 1.0000e+00
       -2 -1    0    0    0  501 -0.0000000000e+00 -0.0000000000e+00 -1.1893806557e+03 1.1893806557e+03 0.0000000000e+00 0.0000e+00 -1.0000e+00
      -13  1    1    2    0    0 +8.2098472264e+02 -4.3243131504e+01 +3.8837700958e+02 9.0924286348e+02 0.0000000000e+00 0.0000e+00 1.0000e+00
       13  1    1    2    0    0 -8.2098472264e+02 +4.3243131504e+01 -7.4705216497e+02 1.1108432925e+03 0.0000000000e+00 0.0000e+00 -1.0000e+00
<mgrwt>
<rscale>  0 0.19879890E+04</rscale>
<asrwt>0</asrwt>
<pdfrwt beam="1">  1        2 0.12780085E+00 0.19879890E+04</pdfrwt>
<pdfrwt beam="2">  1       -2 0.18298164E+00 0.19879890E+04</pdfrwt>
<totfact> 0.59500136E+00</totfact>
</mgrwt>
<rwgt>
<wgt id='morphing_basis_vector_1'> +1.6195056e-04 </wgt>
<wgt id='morphing_basis_vector_2'> +1.7365560e-04 </wgt>
<wgt id='morphing_basis_vector_3'> +1.8386472e-04 </wgt>
<wgt id='morphing_basis_vector_4'> +4.2072826e-05 </wgt>
<wgt id='morphing_basis_vector_5'> +1.5342695e-04 </wgt>
</rwgt>
</event>
<event>
 4      1 +6.0853000e-08 1.91886600e+03 7.81860800e-03 8.10570200e-02
        2 -1    0    0  501    0 +0.0000000000e+00 +0.0000000000e+00 +1.2786200112e+03 1.2786200112e+03 0.0000000000e+00 0.0000e+00 -1.0000e+00
       -2 -1    0    0    0  501 -0.0000000000e+00 -0.0000000000e+00 -7.1992575353e+02 7.1992575353e+02 0.0000000000e+00 0.0000e+00 1.0000e+00
      -13  1    1    2    0    0 -9.1233064452e+02 +1.0946858210e+02 -8.1228831634e+00 9.1891052700e+02 0.0000000000e+00 0.0000e+00 1.0000e+00
       13  1    1    2    0    0 +9.1233064452e+02 -1.0946858210e+02 +5.6681714082e+02 1.0796352377e+03 0.0000000000e+00 0.0000e+00 -1.0000e+00
<mgrwt>
<rscale>  0 0.19188658E+04</rscale>
<asrwt>0</asrwt>
<pdfrwt beam="1">  1        2 0.19671077E+00 0.19188658E+04</pdfrwt>
<pdfrwt beam="2">  1       -2 0.11075781E+00 0.19188658E+04</pdfrwt>
<totfact> 0.12992708E+01</totfact>
</mgrwt>
<rwgt>
<wgt id='morphing_basis_vector_1'> +1.1738957e-04 </wgt>
<wgt id='morphing_basis_vector_2'> +8.1155110e-05 </wgt>
<wgt id='morphing_basis_vector_3'> +1.2540629e-04 </wgt>
<wgt id='morphing_basis_vector_4'> +8.3061517e-05 </wgt>
<wgt id='morphing_basis_vector_5'> +1.3645543e-04 </wgt>
</rwgt>
</event>
<event>
 4      1 +6.0853000e-08 1.99528700e+03 7.81860800e-03 8.07349500e-02
        2 -1    0    0  501    0 +0.0000000000e+00 +0.0000000000e+00 +1.2641973919e+03 1.2641973919e+03 0.0000000000e+00 0.0000e+00 1.0000e+00
       -2 -1    0    0    0  501 -0.0000000000e+00 -0.0000000000e+00 -7.8729184942e+02 7.8729184942e+02 0.0000000000e+00 0.0000e+00 -1.0000e+00
      -13  1    1    2    0    0 -7.8511557769e+01 +9.3452420416e+02 +5.8832108291e+02 1.1070777974e+03 0.0000000000e+00 0.0000e+00 1.0000e+00
       13  1    1    2    0    0 +7.8511557769e+01 -9.3452420416e+02 -1.1141554039e+02 9.4441144397e+02 0.0000000000e+00 0.0000e+00 -1.0000e+00
<mgrwt>
<rscale>  0 0.19952867E+04</rscale>
<asrwt>0</asrwt>
<pdfrwt beam="1">  1        2 0.19449191E+00 0.19952867E+04</pdfrwt>
<pdfrwt beam="2">  1       -2 0.12112182E+00 0.19952867E+04</pdfrwt>
<totfact> 0.10462874E+01</totfact>
</mgrwt>
<rwgt>
<wgt id='morphing_basis_vector_1'> +1.5078513e-04 </wgt>
<wgt id='morphing_basis_vector_2'> +1.3618200e-04 </wgt>
<wgt id='morphing_basis_vector_3'> +1.6695305e-04 </wgt>
<wgt id='morphing_basis_vector_4'> +6.9570819e-05 </wgt>
<wgt id='morphing_basis_vector_5'> +1.5785525e-04 </wgt>
</rwgt>
</event>
<event>
 4      1 +6.0853000e-08 2.01283600e+03 7.81860800e-03 8.06631100e-02
        2 -1    0    0  501    0 +0.0000000000e+00 +0.0000000000e+00 +1.5748987276e+03 1.5748987276e+03 0.0000000000e+00 0.0000e+00 -1.0000e+00
       -2 -1    0    0    0  501 -0.0000000000e+00 -0.0000000000e+00 -6.4313798648e+02 6.4313798648e+02 0.0000000000e+00 0.0000e+00 1.0000e+00
      -13  1    1    2    0    0 -4.5867882408e+02 -1.1127086800e+02 -5.1361873142e+02 6.9754689519e+02 0.0000000000e+00 0.0000e+00 1.0000e+00
       13  1    1    2    0    0 +4.5867882408e+02 +1.1127086800e+02 +1.4453794725e+03 1.5204898188e+03 0.0000000000e+00 0.0000e+00 -1.0000e+00
<mgrwt>
<rscale>  0 0.20128360E+04</rscale>
<asrwt>0</asrwt>
<pdfrwt beam="1">  1        2 0.24229211E+00 0.20128360E+04</pdfrwt>
<pdfrwt beam="2">  1       -2 0.98944306E-01 0.20128360E+04</pdfrwt>
<totfact> 0.11573141E+01</totfact>
</mgrwt>
<rwgt>
<wgt id='morphing_basis_vector_1'> +1.3990484e-04 </wgt>
<wgt id='morphing_basis_vector_2'> +9.3169775e-05 </wgt>
<wgt id='morphing_basis_vector_3'> +1.4938957e-04 </wgt>
<wgt id='morphing_basis_vector_4'> +1.0425682e-04 </wgt>
<wgt id='morphing_basis_vector_5'> +1.6613414e-04 </wgt>
</rwgt>
</event>
<event>
 4      1 +6.0853000e-08 1.91262200e+03 7.81860800e-03 8.10840200e-02
        2 -1    0    0  501    0 +0.0000000000e+00 +0.0000000000e+00 +9.3108114258e+02 9.3108114258e+02 0.0000000000e+00 0.0000e+00 1.0000e+00
       -2 -1    0    0    0  501 -0.0000000000e+00 -0.0000000000e+00 -9.8222485245e+02 9.8222485245e+02 0.0000000000e+00 0.0000e+00 -1.0000e+00
      -13  1    1    2    0    0 -6.1684833765e+02 -7.0012250093e+02 -2.3506889450e+02 9.6225296733e+02 0.0000000000e+00 0.0000e+00 -1.0000e+00
       13  1    1    2    0    0 +6.1684833765e+02 +7.0012250093e+02 +1.8392518463e+02 9.5105302770e+02 0.0000000000e+00 0.0000e+00 1.0000e+00
<mgrwt>
<rscale>  0 0.19126223E+04</rscale>
<asrwt>0</asrwt>
<pdfrwt beam="1">  1        2 0.14324325E+00 0.19126223E+04</pdfrwt>
<pdfrwt beam="2">  1       -2 0.15111152E+00 0.19126223E+04</pdfrwt>
<totfact> 0.91573124E+00</totfact>
</mgrwt>
<rwgt>
<wgt id='morphing_basis_vector_1'> +1.1635157e-04 </wgt>
<wgt id='morphing_basis_vector_2'> +8.1445759e-05 </wgt>
<wgt id='morphing_basis_vector_3'> +1.2442965e-04 </wgt>
<wgt id='morphing_basis_vector_4'> +8.1076170e-05 </wgt>
<wgt id='morphing_basis_vector_5'> +1.3458011e-04 </wgt>
</rwgt>
</event>
<event>
 4      1 +6.0853000e-08 1.91066300e+03 7.81860800e-03 8.10925200e-02
        2 -1    0    0  501    0 +0.0000000000e+00 +0.0000000000e+00 +2.1627872008e+03 2.1627872008e+03 0.0000000000e+00 0.0000e+00 1.0000e+00
       -2 -1    0    0    0  501 -0.0000000000e+00 -0.0000000000e+00 -4.2198244042e+02 4.2198244042e+02 0.0000000000e+00 0.0000e+00 -1.0000e+00
      -13  1    1    2    0    0 +8.1067169378e+02 +4.2605327443e+01 +1.8907008690e+02 8.3351743041e+02 0.0000000000e+00 0.0000e+00 -1.0000e+00
       13  1    1    2    0    0 -8.1067169378e+02 -4.2605327443e+01 +1.5517346735e+03 1.7512522108e+03 0.0000000000e+00 0.0000e+00 1.0000e+00
<mgrwt>
<rscale>  0 0.19106629E+04</rscale>
<asrwt>0</asrwt>
<pdfrwt beam="1">  1        2 0.33273649E+00 0.19106629E+04</pdfrwt>
<pdfrwt beam="2">  1       -2 0.64920377E-01 0.19106629E+04</pdfrwt>
<totfact> 0.14129862E+01</totfact>
</mgrwt>
<rwgt>
<wgt id='morphing_basis_vector_1'> +1.1450783e-04 </wgt>
<wgt id='morphing_basis_vector_2'> +7.7031978e-05 </wgt>
<wgt id='morphing_basis_vector_3'> +1.2194006e-04 </wgt>
<wgt id='morphing_basis_vector_4'> +8.3458106e-05 </wgt>
<wgt id='morphing_basis_vector_5'> +1.3423051e-04 </wgt>
</rwgt>
</event>
<event>
 4      1 +6.0853000e-08 1.90595200e+03 7.81860800e-03 8.11129900e-02
        2 -1    0    0  501    0 +0.0000000000e+00 +0.0000000000e+00 +8.3433380201e+02 8.3433380201e+02 0.0000000000e+00 0.0000e+00 1.0000e+00
       -2 -1    0    0    0  501 -0.0000000000e+00 -0.0000000000e+00 -1.0884888606e+03 1.0884888606e+03 0.0000000000e+00 0.0000e+00 -1.0000e+00
      -13  1    1    2    0    0 -3.8877160074e+02 +3.0312942945e+02 -9.4985297517e+02 1.0701642318e+03 0.0000000000e+00 0.0000e+00 -1.0000e+00
       13  1    1    2    0    0 +3.8877160074e+02 -3.0312942945e+02 +6.9569791658e+02 8.5265843083e+02 0.0000000000e+00 0.0000e+00 1.0000e+00
<mgrwt>
<rscale>  0 0.19059518E+04</rscale>
<asrwt>0</asrwt>
<pdfrwt beam="1">  1        2 0.12835905E+00 0.19059518E+04</pdfrwt>
<pdfrwt beam="2">  1       -2 0.16745982E+00 0.19059518E+04</pdfrwt>
<totfact> 0.78436462E+00</totfact>
</mgrwt>
<rwgt>
<wgt id='morphing_basis_vector_1'> +1.1300057e-04 </wgt>
<wgt id='morphing_basis_vector_2'> +7.5076625e-05 </wgt>
<wgt id='morphing_basis_vector_3'> +1.2015946e-04 </wgt>
<wgt id='morphing_basis_vector_4'> +8.3423351e-05 </wgt>
<wgt id='morphing_basis_vector_5'> +1.3294527e-04 </wgt>
</rwgt>
</event>
<event>
 4      1 +6.0853000e-08 1.89101100e+03 7.81860800e-03 8.11783200e-02
        2 -1    0    0  501    0 +0.0000000000e+00 +0.0000000000e+00 +6.8954810583e+02 6.8954810583e+02 0.0000000000e+00 0.0000e+00 -1.0000e+00
       -2 -1    0    0    0  501 -0.0000000000e+00 -0.0000000000e+00 -1.2964734512e+03 1.2964734512e+03 0.0000000000e+00 0.0000e+00 1.0000e+00
      -13  1    1    2    0    0 -5.7587690642e+02 -5.9174653450e+02 -7.8723919489e+02 1.1408521913e+03 0.0000000000e+00 0.0000e+00 1.0000e+00
       13  1    1    2    0    0 +5.7587690642e+02 +5.9174653450e+02 +1.8031384952e+02 8.4516936573e+02 0.0000000000e+00 0.0000e+00 -1.0000e+00
<mgrwt>
<rscale>  0 0.18910112E+04</rscale>
<asrwt>0</asrwt>
<pdfrwt beam="1">  1        2 0.10608432E+00 0.18910112E+04</pdfrwt>
<pdfrwt beam="2">  1       -2 0.19945745E+00 0.18910112E+04</pdfrwt>
<totfact> 0.57226655E+00</totfact>
</mgrwt>
<rwgt>
<wgt id='morphing_basis_vector_1'> +1.1007039e-04 </wgt>
<wgt id='morphing_basis_vector_2'> +7.4237456e-05 </wgt>
<wgt id='morphing_basis_vector_3'> +1.1715153e-04 </wgt>
<wgt id='morphing_basis_vector_4'> +7.9808774e-05 </wgt>
<wgt id='morphing_basis_vector_5'> +1.2865835e-04 </wgt>
</rwgt>
</event>
<event>
 4      1 +6.0853000e-08 1.95752100e+03 7.81860800e-03 8.08922000e-02
        2 -1    0    0  501    0 +0.0000000000e+00 +0.0000000000e+00 +1.7334375543e+03 1.7334375543e+03 0.0000000000e+00 0.0000e+00 -1.0000e+00
       -2 -1    0    0    0  501 -0.0000000000e+00 -0.0000000000e+00 -5.5264273946e+02 5.5264273946e+02 0.0000000000e+00 0.0000e+00 1.0000e+00
      -13  1    1    2    0    0 -2.2541946858e+02 -5.5996045392e+02 -3.0937534800e+02 6.7829400169e+02 0.0000000000e+00 0.0000e+00 1.0000e+00
       13  1    1    2    0    0 +2.2541946858e+02 +5.5996045392e+02 +1.4901701628e+03 1.6077862920e+03 0.0000000000e+00 0.0000e+00 -1.0000e+00
<mgrwt>
<rscale>  0 0.19575206E+04</rscale>
<asrwt>0</asrwt>
<pdfrwt beam="1">  1        2 0.26668270E+00 0.19575206E+04</pdfrwt>
<pdfrwt beam="2">  1       -2 0.85021961E-01 0.19575206E+04</pdfrwt>
<totfact> 0.13547002E+01</totfact>
</mgrwt>
<rwgt>
<wgt id='morphing_basis_vector_1'> +1.2548693e-04 </wgt>
<wgt id='morphing_basis_vector_2'> +8.3578364e-05 </wgt>
<wgt id='morphing_basis_vector_3'> +1.3373449e-04 </wgt>
<wgt id='morphing_basis_vector_4'> +9.2950624e-05 </wgt>
<wgt id='morphing_basis_vector_5'> +1.4826396e-04 </wgt>
</rwgt>
</event>
<event>
 4      1 +6.0853000e-08 2.02247200e+03 7.81860800e-03 8.06239800e-02
        2 -1    0    0  501    0 +0.0000000000e+00 +0.0000000000e+00 +1.1972179160e+03 1.1972179160e+03 0.0000000000e+00 0.0000e+00 -1.0000e+00
       -2 -1    0    0    0  501 -0.0000000000e+00 -0.0000000000e+00 -8.5414529264e+02 8.5414529264e+02 0.0000000000e+00 0.0000e+00 1.0000e+00
      -13  1    1    2    0    0 +2.0910764663e+01 +6.4905287063e+02 -6.1470886423e+02 8.9418894912e+02 0.0000000000e+00 0.0000e+00 1.0000e+00
       13  1    1    2    0    0 -2.0910764663e+01 -6.4905287063e+02 +9.5778148762e+02 1.1571742596e+03 0.0000000000e+00 0.0000e+00 -1.0000e+00
<mgrwt>
<rscale>  0 0.20224718E+04</rscale>
<asrwt>0</asrwt>
<pdfrwt beam="1">  1        2 0.18418737E+00 0.20224718E+04</pdfrwt>
<pdfrwt beam="2">  1       -2 0.13140697E+00 0.20224718E+04</pdfrwt>
<totfact> 0.92051502E+00</totfact>
</mgrwt>
<rwgt>
<wgt id='morphing_basis_vector_1'> +1.4262764e-04 </wgt>
<wgt id='morphing_basis_vector_2'> +9.5184167e-05 </wgt>
<wgt id='morphing_basis_vector_3'> +1.5238064e-04 </wgt>
<wgt id='morphing_basis_vector_4'> +1.0614983e-04 </wgt>
<wgt id='morphing_basis_vector_5'> +1.6938999e-04 </wgt>
</rwgt>
</event>
<event>
 4      1 +6.0853000e-08 1.93652100e+03 7.81860800e-03 8.09812400e-02
        2 -1    0    0  501    0 +0.0000000000e+00 +0.0000000000e+00 +2.1786655567e+03 2.1786655567e+03 0.0000000000e+00 0.0000e+00 -1.0000e+00
       -2 -1    0    0    0  501 -0.0000000000e+00 -0.0000000000e+00 -4.3032235681e+02 4.3032235681e+02 0.0000000000e+00 0.0000e+00 1.0000e+00
      -13  1    1    2    0    0 -4.3290729375e+02 +7.5866556783e+01 -2.8819339968e+02 5.2556626132e+02 0.0000000000e+00 0.0000e+00 1.0000e+00
       13  1    1    2    0    0 +4.3290729375e+02 -7.5866556783e+01 +2.0365365996e+03 2.0834216522e+03 0.0000000000e+00 0.0000e+00 -1.0000e+00
<mgrwt>
<rscale>  0 0.19365211E+04</rscale>
<asrwt>0</asrwt>
<pdfrwt beam="1">  1        2 0.33517931E+00 0.19365211E+04</pdfrwt>
<pdfrwt beam="2">  1       -2 0.66203441E-01 0.19365211E+04</pdfrwt>
<totfact> 0.13250885E+01</totfact>
</mgrwt>
<rwgt>
<wgt id='morphing_basis_vector_1'> +1.2024585e-04 </wgt>
<wgt id='morphing_basis_vector_2'> +7.9923888e-05 </wgt>
<wgt id='morphing_basis_vector_3'> +1.2802128e-04 </wgt>
<wgt id='morphing_basis_vector_4'> +8.9051443e-05 </wgt>
<wgt id='morphing_basis_vector_5'> +1.4188138e-04 </wgt>
</rwgt>
</event>
<event>
 4      1 +6.0853000e-08 2.05278900e+03 7.81860800e-03 8.05023500e-02
        2 -1    0    0  501    0 +0.0000000000e+00 +0.0000000000e+00 +1.9746304696e+03 1.9746304696e+03 0.0000000000e+00 0.0000e+00 1.0000e+00
       -2 -1    0    0    0  501 -0.0000000000e+00 -0.0000000000e+00 -5.3351032399e+02 5.3351032399e+02 0.0000000000e+00 0.0000e+00 -1.0000e+00
      -13  1    1    2    0    0 +5.8796951736e+02 -6.3537665599e+02 +1.3943077724e+03 1.6411903645e+03 0.0000000000e+00 0.0000e+00 -1.0000e+00
       13  1    1    2    0    0 -5.8796951736e+02 +6.3537665599e+02 +4.6812373261e+01 8.6695042915e+02 0.0000000000e+00 0.0000e+00 1.0000e+00
<mgrwt>
<rscale>  0 0.20527891E+04</rscale>
<asrwt>0</asrwt>
<pdfrwt beam="1">  1        2 0.30378930E+00 0.20527891E+04</pdfrwt>
<pdfrwt beam="2">  1       -2 0.82078512E-01 0.20527891E+04</pdfrwt>
<totfact> 0.10682649E+01</totfact>
</mgrwt>
<rwgt>
<wgt id='morphing_basis_vector_1'> +1.8171043e-04 </wgt>
<wgt id='morphing_basis_vector_2'> +1.9126842e-04 </wgt>
<wgt id='morphing_basis_vector_3'> +2.0642808e-04 </wgt>
<wgt id='morphing_basis_vector_4'> +5.1822232e-05 </wgt>
<wgt id='morphing_basis_vector_5'> +1.7515619e-04 </wgt>
</rwgt>
</event>
<event>
 4      1 +6.0853000e-08 2.06671800e+03 7.81860800e-03 8.04472000e-02
        2 -1    0    0  501    0 +0.0000000000e+00 +0.0000000000e+00 +1.2353702398e+03 1.2353702398e+03 0.0000000000e+00 0.0000e+00 1.0000e+00
       -2 -1    0    0    0  501 -0.0000000000e+00 -0.0000000000e+00 -8.6438088404e+02 8.6438088404e+02 0.0000000000e+00 0.0000e+00 -1.0000e+00
      -13  1    1    2    0    0 -3.6512193671e+02 -9.2624101627e+02 -9.5685030203e+01 1.0001960177e+03 0.0000000000e+00 0.0000e+00 -1.0000e+00
       13  1    1    2    0    0 +3.6512193671e+02 +9.2624101627e+02 +4.6667438601e+02 1.0995551061e+03 0.0000000000e+00 0.0000e+00 1.0000e+00
<mgrwt>
<rscale>  0 0.20667176E+04</rscale>
<asrwt>0</asrwt>
<pdfrwt beam="1">  1        2 0.19005696E+00 0.20667176E+04</pdfrwt>
<pdfrwt beam="2">  1       -2 0.13298167E+00 0.20667176E+04</pdfrwt>
<totfact> 0.84371171E+00</totfact>
</mgrwt>
<rwgt>
<wgt id='morphing_basis_vector_1'> +1.5718106e-04 </wgt>
<wgt id='morphing_basis_vector_2'> +1.0939000e-04 </wgt>
<wgt id='morphing_basis_vector_3'> +1.6895060e-04 </wgt>
<wgt id='morphing_basis_vector_4'> +1.1210100e-04 </wgt>
<wgt id='morphing_basis_vector_5'> +1.8471101e-04 </wgt>
</rwgt>
</event>
<event>
 4      1 +6.0853000e-08 2.21959400e+03 7.81860800e-03 7.98699400e-02
        2 -1    0    0  501    0 +0.0000000000e+00 +0.0000000000e+00 +1.1152094392e+03 1.1152094392e+03 0.0000000000e+00 0.0000e+00 -1.0000e+00
       -2 -1    0    0    0  501 -0.0000000000e+00 -0.0000000000e+00 -1.1044112827e+03 1.1044112827e+03 0.0000000000e+00 0.0000e+00 1.0000e+00
      -13  1    1    2    0    0 -1.6785873583e+02 +1.0135574477e+03 -4.1433750814e+02 1.1077683989e+03 0.0000000000e+00 0.0000e+00 1.0000e+00
       13  1    1    2    0    0 +1.6785873583e+02 -1.0135574477e+03 +4.2513566462e+02 1.1118523230e+03 0.0000000000e+00 0.0000e+00 -1.0000e+00
<mgrwt>
<rscale>  0 0.22195945E+04</rscale>
<asrwt>0</asrwt>
<pdfrwt beam="1">  1        2 0.17157068E+00 0.22195945E+04</pdfrwt>
<pdfrwt beam="2">  1       -2 0.16990943E+00 0.22195945E+04</pdfrwt>
<totfact> 0.48525682E+00</totfact>
</mgrwt>
<rwgt>
<wgt id='morphing_basis_vector_1'> +2.0703471e-04 </wgt>
<wgt id='morphing_basis_vector_2'> +1.4217270e-04 </wgt>
<wgt id='morphing_basis_vector_3'> +2.2319503e-04 </wgt>
<wgt id='morphing_basis_vector_4'> +1.5192153e-04 </wgt>
<wgt id='morphing_basis_vector_5'> +2.4712763e-04 </wgt>
</rwgt>
</event>
<event>
 4      1 +6.0853000e-08 1.86355500e+03 7.81860800e-03 8.13000400e-02
        2 -1    0    0  501    0 +0.0000000000e+00 +0.0000000000e+00 +7.7829470085e+02 7.7829470085e+02 0.0000000000e+00 0.0000e+00 -1.0000e+00
       -2 -1    0    0    0  501 -0.0000000000e+00 -0.0000000000e+00 -1.1155273565e+03 1.1155273565e+03 0.0000000000e+00 0.0000e+00 1.0000e+00
      -13  1    1    2    0    0 -2.6329071702e+01 +3.7821190725e+02 -1.0335995770e+03 1.1009384871e+03 0.0000000000e+00 0.0000e+00 1.0000e+00
       13  1    1    2    0    0 +2.6329071702e+01 -3.7821190725e+02 +6.9636692136e+02 7.9288357024e+02 0.0000000000e+00 0.0000e+00 -1.0000e+00
<mgrwt>
<rscale>  0 0.18635547E+04</rscale>
<asrwt>0</asrwt>
<pdfrwt beam="1">  1        2 0.11973765E+00 0.18635547E+04</pdfrwt>
<pdfrwt beam="2">  1       -2 0.17161959E+00 0.18635547E+04</pdfrwt>
<totfact> 0.79907266E+00</totfact>
</mgrwt>
<rwgt>
<wgt id='morphing_basis_vector_1'> +1.0347086e-04 </wgt>
<wgt id='morphing_basis_vector_2'> +6.8626124e-05 </wgt>
<wgt id='morphing_basis_vector_3'> +1.0981512e-04 </wgt>
<wgt id='morphing_basis_vector_4'> +7.6126793e-05 </wgt>
<wgt id='morphing_basis_vector_5'> +1.2125887e-04 </wgt>
</rwgt>
</event>
<event>
 4      1 +6.0853000e-08 1.95989100e+03 7.81860800e-03 8.08822200e-02
        2 -1    0    0  501    0 +0.0000000000e+00 +0.0000000000e+00 +7.3700085929e+02 7.3700085929e+02 0.0000000000e+00 0.0000e+00 -1.0000e+00
       -2 -1    0    0    0  501 -0.0000000000e+00 -0.0000000000e+00 -1.3029744772e+03 1.3029744772e+03 0.0000000000e+00 0.0000e+00 1.0000e+00
      -13  1    1    2    0    0 -4.3512625735e+02 +7.7491080353e+02 -7.1274000052e+02 1.1392189963e+03 0.0000000000e+00 0.0000e+00 1.0000e+00
       13  1    1    2    0    0 +4.3512625735e+02 -7.7491080353e+02 +1.4676638260e+02 9.0075634016e+02 0.0000000000e+00 0.0000e+00 -1.0000e+00
<mgrwt>
<rscale>  0 0.19598911E+04</rscale>
<asrwt>0</asrwt>
<pdfrwt beam="1">  1        2 0.11338475E+00 0.19598911E+04</pdfrwt>
<pdfrwt beam="2">  1       -2 0.20045761E+00 0.19598911E+04</pdfrwt>
<totfact> 0.51533710E+00</totfact>
</mgrwt>
<rwgt>
<wgt id='morphing_basis_vector_1'> +1.2684283e-04 </wgt>
<wgt id='morphing_basis_vector_2'> +8.6230700e-05 </wgt>
<wgt id='morphing_basis_vector_3'> +1.3548232e-04 </wgt>
<wgt id='morphing_basis_vector_4'> +9.1904289e-05 </wgt>
<wgt id='morphing_basis_vector_5'> +1.4888012e-04 </wgt>
</rwgt>
</event>
<event>
 4      1 +6.0853000e-08 2.15443800e+03 7.81860800e-03 8.01099000e-02
        2 -1    0    0  501    0 +0.0000000000e+00 +0.0000000000e+00 +2.2166640363e+03 2.2166640363e+03 0.0000000000e+00 0.0000e+00 1.0000e+00
       -2 -1    0    0    0  501 -0.0000000000e+00 -0.0000000000e+00 -5.2348976598e+02 5.2348976598e+02 0.0000000000e+00 0.0000e+00 -1.0000e+00
      -13  1    1    2    0    0 +1.3714679884e+00 -5.2357448112e+02 +2.0439440979e+03 2.1099382914e+03 0.0000000000e+00 0.0000e+00 1.0000e+00
       13  1    1    2    0    0 -1.3714679884e+00 +5.2357448112e+02 -3.5076982758e+02 6.3021551087e+02 0.0000000000e+00 0.0000e+00 -1.0000e+00
<mgrwt>
<rscale>  0 0.21544382E+04</rscale>
<asrwt>0</asrwt>
<pdfrwt beam="1">  1        2 0.34102523E+00 0.21544382E+04</pdfrwt>
<pdfrwt beam="2">  1       -2 0.80536889E-01 0.21544382E+04</pdfrwt>
<totfact> 0.80600417E+00</totfact>
</mgrwt>
<rwgt>
<wgt id='morphing_basis_vector_1'> +2.4760333e-04 </wgt>
<wgt id='morphing_basis_vector_2'> +3.1395562e-04 </wgt>
<wgt id='morphing_basis_vector_3'> +2.9222508e-04 </wgt>
<wgt id='morphing_basis_vector_4'> +6.8919287e-06 </wgt>
<wgt id='morphing_basis_vector_5'> +2.0874288e-04 </wgt>
</rwgt>
</event>
<event>
 4      1 +6.0853000e-08 2.02234900e+03 7.81860800e-03 8.06244800e-02
        2 -1    0    0  501    0 +0.0000000000e+00 +0.0000000000e+00 +1.0628513775e+03 1.0628513775e+03 0.0000000000e+00 0.0000e+00 -1.0000e+00
       -2 -1    0    0    0  501 -0.0000000000e+00 -0.0000000000e+00 -9.6201021299e+02 9.6201021299e+02 0.0000000000e+00 0.0000e+00 1.0000e+00
      -13  1    1    2    0    0 +7.9561227718e+02 -3.8536068287e+02 -4.4107842212e+02 9.8795340273e+02 0.0000000000e+00 0.0000e+00 1.0000e+00
       13  1    1    2    0    0 -7.9561227718e+02 +3.8536068287e+02 +5.4191958665e+02 1.0369081878e+03 0.0000000000e+00 0.0000e+00 -1.0000e+00
<mgrwt>
<rscale>  0 0.20223490E+04</rscale>
<asrwt>0</asrwt>
<pdfrwt beam="1">  1        2 0.16351560E+00 0.20223490E+04</pdfrwt>
<pdfrwt beam="2">  1       -2 0.14800157E+00 0.20223490E+04</pdfrwt>
<totfact> 0.79646809E+00</totfact>
</mgrwt>
<rwgt>
<wgt id='morphing_basis_vector_1'> +1.4317774e-04 </wgt>
<wgt id='morphing_basis_vector_2'> +9.6890154e-05 </wgt>
<wgt id='morphing_basis_vector_3'> +1.5319643e-04 </wgt>
<wgt id='morphing_basis_vector_4'> +1.0495937e-04 </wgt>
<wgt id='morphing_basis_vector_5'> +1.6925603e-04 </wgt>
</rwgt>
</event>
<event>
 4      1 +6.0853000e-08 1.99916500e+03 7.81860800e-03 8.07190100e-02
        2 -1    0    0  501    0 +0.0000000000e+00 +0.0000000000e+00 +5.1775032660e+02 5.1775032660e+02 0.0000000000e+00 0.0000e+00 1.0000e+00
       -2 -1    0    0    0  501 -0.0000000000e+00 -0.0000000000e+00 -1.9298195538e+03 1.9298195538e+03 0.0000000000e+00 0.0000e+00 -1.0000e+00
      -13  1    1    2    0    0 -8.7356126109e+02 +7.9668164841e+01 -1.1925500762e+02 8.8525592357e+02 0.0000000000e+00 0.0000e+00 1.0000e+00
       13  1    1    2    0    0 +8.7356126109e+02 -7.9668164841e+01 -1.2928142196e+03 1.5623139568e+03 0.0000000000e+00 0.0000e+00 -1.0000e+00
<mgrwt>
<rscale>  0 0.19991645E+04</rscale>
<asrwt>0</asrwt>
<pdfrwt beam="1">  1        2 0.79653899E-01 0.19991645E+04</pdfrwt>
<pdfrwt beam="2">  1       -2 0.29689531E+00 0.19991645E+04</pdfrwt>
<totfact> 0.16662456E+00</totfact>
</mgrwt>
<rwgt>
<wgt id='morphing_basis_vector_1'> +1.5986810e-04 </wgt>
<wgt id='morphing_basis_vector_2'> +1.6071169e-04 </wgt>
<wgt id='morphing_basis_vector_3'> +1.7980588e-04 </wgt>
<wgt id='morphing_basis_vector_4'> +5.4343751e-05 </wgt>
<wgt id='morphing_basis_vector_5'> +1.5786513e-04 </wgt>
</rwgt>
</event>
<event>
 4      1 +6.0853000e-08 1.91119300e+03 7.81860800e-03 8.10902200e-02
        2 -1    0    0  501    0 +0.0000000000e+00 +0.0000000000e+00 +2.9764016829e+03 2.9764016829e+03 0.0000000000e+00 0.0000e+00 -1.0000e+00
       -2 -1    0    0    0  501 -0.0000000000e+00 -0.0000000000e+00 -3.0680168250e+02 3.0680168250e+02 0.0000000000e+00 0.0000e+00 1.0000e+00
      -13  1    1    2    0    0 -6.2733751608e+02 -5.3726655711e+02 +5.0922026138e+02 9.7031592127e+02 0.0000000000e+00 0.0000e+00 1.0000e+00
       13  1    1    2    0    0 +6.2733751608e+02 +5.3726655711e+02 +2.1603797390e+03 2.3128874441e+03 0.0000000000e+00 0.0000e+00 -1.0000e+00
<mgrwt>
<rscale>  0 0.19111934E+04</rscale>
<asrwt>0</asrwt>
<pdfrwt beam="1">  1        2 0.45790793E+00 0.19111934E+04</pdfrwt>
<pdfrwt beam="2">  1       -2 0.47200261E-01 0.19111934E+04</pdfrwt>
<totfact> 0.86667911E+00</totfact>
</mgrwt>
<rwgt>
<wgt id='morphing_basis_vector_1'> +1.1469357e-04 </wgt>
<wgt id='morphing_basis_vector_2'> +7.7298500e-05 </wgt>
<wgt id='morphing_basis_vector_3'> +1.2216348e-04 </wgt>
<wgt id='morphing_basis_vector_4'> +8.3431707e-05 </wgt>
<wgt id='morphing_basis_vector_5'> +1.3437344e-04 </wgt>
</rwgt>
</event>
<event>
 4      1 +6.0853000e-08 1.89287900e+03 7.81860800e-03 8.11701200e-02
        2 -1    0    0  501    0 +0.0000000000e+00 +0.0000000000e+00 +1.7438189554e+03 1.7438189554e+03 0.0000000000e+00 0.0000e+00 1.0000e+00
       -2 -1    0    0    0  501 -0.0000000000e+00 -0.0000000000e+00 -5.1367006507e+02 5.1367006507e+02 0.0000000000e+00 0.0000e+00 -1.0000e+00
      -13  1    1    2    0    0 -8.4470884611e+01 -7.6755642693e+02 -3.7573612347e+01 7.7310411667e+02 0.0000000000e+00 0.0000e+00 -1.0000e+00
       13  1    1    2    0    0 +8.4470884611e+01 +7.6755642693e+02 +1.2677225027e+03 1.4843849038e+03 0.0000000000e+00 0.0000e+00 1.0000e+00
<mgrwt>
<rscale>  0 0.18928789E+04</rscale>
<asrwt>0</asrwt>
<pdfrwt beam="1">  1        2 0.26827984E+00 0.18928789E+04</pdfrwt>
<pdfrwt beam="2">  1       -2 0.79026164E-01 0.18928789E+04</pdfrwt>
<totfact> 0.15883297E+01</totfact>
</mgrwt>
<rwgt>
<wgt id='morphing_basis_vector_1'> +1.1028875e-04 </wgt>
<wgt id='morphing_basis_vector_2'> +7.3913813e-05 </wgt>
<wgt id='morphing_basis_vector_3'> +1.1731714e-04 </wgt>
<wgt id='morphing_basis_vector_4'> +8.0539986e-05 </wgt>
<wgt id='morphing_basis_vector_5'> +1.2921085e-04 </wgt>
</rwgt>
</event>
<event>
 4      1 +6.0853000e-08 2.07138000e+03 7.81860800e-03 8.04288300e-02
        2 -1    0    0  501    0 +0.0000000000e+00 +0.0000000000e+00 +1.7738212329e+03 1.7738212329e+03 0.0000000000e+00 0.0000e+00 1.0000e+00
       -2 -1    0    0    0  501 -0.0000000000e+00 -0.0000000000e+00 -6.0471379473e+02 6.0471379473e+02 0.0000000000e+00 0.0000e+00 -1.0000e+00
      -13  1    1    2    0    0 -7.6066864055e+02 +2.7309701021e+02 -1.5913739776e+02 8.2372536022e+02 0.0000000000e+00 0.0000e+00 -1.0000e+00
       13  1    1    2    0    0 +7.6066864055e+02 -2.7309701021e+02 +1.3282448359e+03 1.5548096674e+03 0.0000000000e+00 0.0000e+00 1.0000e+00
<mgrwt>
<rscale>  0 0.20713804E+04</rscale>
<asrwt>0</asrwt>
<pdfrwt beam="1">  1        2 0.27289557E+00 0.20713804E+04</pdfrwt>
<pdfrwt beam="2">  1       -2 0.93032893E-01 0.20713804E+04</pdfrwt>
<totfact> 0.10327065E+01</totfact>
</mgrwt>
<rwgt>
<wgt id='morphing_basis_vector_1'> +1.5686836e-04 </wgt>
<wgt id='morphing_basis_vector_2'> +1.0531508e-04 </wgt>
<wgt id='morphing_basis_vector_3'> +1.6796890e-04 </wgt>
<wgt id='morphing_basis_vector_4'> +1.1655391e-04 </wgt>
<wgt id='morphing_basis_vector_5'> +1.8668628e-04 </wgt>
</rwgt>
</event>
<event>
 4      1 +6.0853000e-08 1.86528300e+03 7.81860800e-03 8.12923100e-02
        2 -1    0    0  501    0 +0.0000000000e+00 +0.0000000000e+00 +9.1496503755e+02 9.1496503755e+02 0.0000000000e+00 0.0000e+00 1.0000e+00
       -2 -1    0    0    0  501 -0.0000000000e+00 -0.0000000000e+00 -9.5065905489e+02 9.5065905489e+02 0.0000000000e+00 0.0000e+00 -1.0000e+00
      -13  1    1    2    0    0 -5.7242065580e+02 +5.6155878566e+02 +4.5848184213e+02 9.2369869357e+02 0.0000000000e+00 0.0000e+00 1.0000e+00
       13  1    1    2    0    0 +5.7242065580e+02 -5.6155878566e+02 -4.9417585947e+02 9.4192539886e+02 0.0000000000e+00 0.0000e+00 -1.0000e+00
<mgrwt>
<rscale>  0 0.18652826E+04</rscale>
<asrwt>0</asrwt>
<pdfrwt beam="1">  1        2 0.14076385E+00 0.18652826E+04</pdfrwt>
<pdfrwt beam="2">  1       -2 0.14625524E+00 0.18652826E+04</pdfrwt>
<totfact> 0.10334063E+01</totfact>
</mgrwt>
<rwgt>
<wgt id='morphing_basis_vector_1'> +1.2345390e-04 </wgt>
<wgt id='morphing_basis_vector_2'> +1.2701167e-04 </wgt>
<wgt id='morphing_basis_vector_3'> +1.3820208e-04 </wgt>
<wgt id='morphing_basis_vector_4'> +3.7879029e-05 </wgt>
<wgt id='morphing_basis_vector_5'> +1.1871338e-04 </wgt>
</rwgt>
</event>
<event>
 4      1 +6.0853000e-08 1.96360800e+03 7.81860800e-03 8.08666000e-02
        2 -1    0    0  501    0 +0.0000000000e+00 +0.0000000000e+00 +2.0043804971e+03 2.0043804971e+03 0.0000000000e+00 0.0000e+00 -1.0000e+00
       -2 -1    0    0    0  501 -0.0000000000e+00 -0.0000000000e+00 -4.8091639412e+02 4.8091639412e+02 0.0000000000e+00 0.0000e+00 1.0000e+00
      -13  1    1    2    0    0 -4.5512728612e+02 -7.1331765988e+02 +1.3145908775e+02 8.5629692410e+02 0.0000000000e+00 0.0000e+00 1.0000e+00
       13  1    1    2    0    0 +4.5512728612e+02 +7.1331765988e+02 +1.3920050153e+03 1.6289999672e+03 0.0000000000e+00 0.0000e+00 -1.0000e+00
<mgrwt>
<rscale>  0 0.19636084E+04</rscale>
<asrwt>0</asrwt>
<pdfrwt beam="1">  1        2 0.30836622E+00 0.19636084E+04</pdfrwt>
<pdfrwt beam="2">  1       -2 0.73987139E-01 0.19636084E+04</pdfrwt>
<totfact> 0.13072417E+01</totfact>
</mgrwt>
<rwgt>
<wgt id='morphing_basis_vector_1'> +1.2749337e-04 </wgt>
<wgt id='morphing_basis_vector_2'> +8.6009293e-05 </wgt>
<wgt id='morphing_basis_vector_3'> +1.3608554e-04 </wgt>
<wgt id='morphing_basis_vector_4'> +9.3201272e-05 </wgt>
<wgt id='morphing_basis_vector_5'> +1.5008255e-04 </wgt>
</rwgt>
</event>
<event>
 4      1 +6.0853000e-08 1.93293900e+03 7.81860800e-03 8.09965500e-02
        2 -1    0    0  501    0 +0.0000000000e+00 +0.0000000000e+00 +2.0749310031e+03 2.0749310031e+03 0.0000000000e+00 0.0000e+00 -1.0000e+00
       -2 -1    0    0    0  501 -0.0000000000e+00 -0.0000000000e+00 -4.5016574313e+02 4.5016574313e+02 0.0000000000e+00 0.0000e+00 1.0000e+00
      -13  1    1    2    0    0 -5.0124779326e+01 -7.2703237485e+02 -1.6892506233e+01 7.2895399330e+02 0.0000000000e+00 0.0000e+00 1.0000e+00
       13  1    1    2    0    0 +5.0124779326e+01 +7.2703237485e+02 +1.6416577662e+03 1.7961427529e+03 0.0000000000e+00 0.0000e+00 -1.0000e+00
<mgrwt>
<rscale>  0 0.19329385E+04</rscale>
<asrwt>0</asrwt>
<pdfrwt beam="1">  1        2 0.31922015E+00 0.19329385E+04</pdfrwt>
<pdfrwt beam="2">  1       -2 0.69256269E-01 0.19329385E+04</pdfrwt>
<totfact> 0.13795829E+01</totfact>
</mgrwt>
<rwgt>
<wgt id='morphing_basis_vector_1'> +1.1956819e-04 </wgt>
<wgt id='morphing_basis_vector_2'> +7.9904258e-05 </wgt>
<wgt id='morphing_basis_vector_3'> +1.2735324e-04 </wgt>
<wgt id='morphing_basis_vector_4'> +8.8003525e-05 </wgt>
<wgt id='morphing_basis_vector_5'> +1.4078227e-04 </wgt>
</rwgt>
</event>
<event>
 4      1 +6.0853000e-08 1.96849600e+03 7.81860800e-03 8.08461200e-02
        2 -1    0    0  501    0 +0.0000000000e+00 +0.0000000000e+00 +2.7292648699e+03 2.7292648699e+03 0.0000000000e+00 0.0000e+00 1.0000e+00
       -2 -1    0    0    0  501 -0.0000000000e+00 -0.0000000000e+00 -3.5494681053e+02 3.5494681053e+02 0.0000000000e+00 0.0000e+00 -1.0000e+00
      -13  1    1    2    0    0 +4.0593846557e+02 -2.7148807137e+02 -1.5173465383e+02 5.1138558436e+02 0.0000000000e+00 0.0000e+00 -1.0000e+00
       13  1    1    2    0    0 -4.0593846557e+02 +2.7148807137e+02 +2.5260527132e+03 2.5728260961e+03 0.0000000000e+00 0.0000e+00 1.0000e+00
<mgrwt>
<rscale>  0 0.19684957E+04</rscale>
<asrwt>0</asrwt>
<pdfrwt beam="1">  1        2 0.41988689E+00 0.19684957E+04</pdfrwt>
<pdfrwt beam="2">  1       -2 0.54607203E-01 0.19684957E+04</pdfrwt>
<totfact> 0.92627186E+00</totfact>
</mgrwt>
<rwgt>
<wgt id='morphing_basis_vector_1'> +1.2821707e-04 </wgt>
<wgt id='morphing_basis_vector_2'> +8.5310116e-05 </wgt>
<wgt id='morphing_basis_vector_3'> +1.3668437e-04 </wgt>
<wgt id='morphing_basis_vector_4'> +9.5190621e-05 </wgt>
<wgt id='morphing_basis_vector_5'> +1.5169558e-04 </wgt>
</rwgt>
</event>
<event>
 4      1 +6.0853000e-08 2.22756900e+03 7.81860800e-03 7.98411600e-02
        2 -1    0    0  501    0 +0.0000000000e+00 +0.0000000000e+00 +1.8722210955e+03 1.8722210955e+03 0.0000000000e+00 0.0000e+00 1.0000e+00
       -2 -1    0    0    0  501 -0.0000000000e+00 -0.0000000000e+00 -6.6259028951e+02 6.6259028951e+02 0.0000000000e+00 0.0000e+00 -1.0000e+00
      -13  1    1    2    0    0 -6.6509386566e+02 -3.6833868363e+02 -3.2138499707e+02 8.2541598745e+02 0.0000000000e+00 0.0000e+00 -1.0000e+00
       13  1    1    2    0    0 +6.6509386566e+02 +3.6833868363e+02 +1.5310158030e+03 1.7093953976e+03 0.0000000000e+00 0.0000e+00 1.0000e+00
<mgrwt>
<rscale>  0 0.22275686E+04</rscale>
<asrwt>0</asrwt>
<pdfrwt beam="1">  1        2 0.28803401E+00 0.22275686E+04</pdfrwt>
<pdfrwt beam="2">  1       -2 0.10193697E+00 0.22275686E+04</pdfrwt>
<totfact> 0.72188804E+00</totfact>
</mgrwt>
<rwgt>
<wgt id='morphing_basis_vector_1'> +2.0849544e-04 </wgt>
<wgt id='morphing_basis_vector_2'> +1.3983440e-04 </wgt>
<wgt id='morphing_basis_vector_3'> +2.2420475e-04 </wgt>
<wgt id='morphing_basis_vector_4'> +1.5714548e-04 </wgt>
<wgt id='morphing_basis_vector_5'> +2.5099620e-04 </wgt>
</rwgt>
</event>
<event>
 4      1 +6.0853000e-08 1.97212900e+03 7.81860800e-03 8.08309400e-02
        2 -1    0    0  501    0 +0.0000000000e+00 +0.0000000000e+00 +1.1974949378e+03 1.1974949378e+03 0.0000000000e+00 0.0000e+00 -1.0000e+00
       -2 -1    0    0    0  501 -0.0000000000e+00 -0.0000000000e+00 -8.1196409553e+02 8.1196409553e+02 0.0000000000e+00 0.0000e+00 1.0000e+00
      -13  1    1    2    0    0 +1.8306591920e+01 +9.5470648711e+02 +4.4343703425e+02 1.0528228774e+03 0.0000000000e+00 0.0000e+00 1.0000e+00
       13  1    1    2    0    0 -1.8306591920e+01 -9.5470648711e+02 -5.7906191930e+01 9.5663615597e+02 0.0000000000e+00 0.0000e+00 -1.0000e+00
<mgrwt>
<rscale>  0 0.19721287E+04</rscale>
<asrwt>0</asrwt>
<pdfrwt beam="1">  1        2 0.18422999E+00 0.19721287E+04</pdfrwt>
<pdfrwt beam="2">  1       -2 0.12491755E+00 0.19721287E+04</pdfrwt>
<totfact> 0.10570347E+01</totfact>
</mgrwt>
<rwgt>
<wgt id='morphing_basis_vector_1'> +1.4025508e-04 </wgt>
<wgt id='morphing_basis_vector_2'> +1.1883507e-04 </wgt>
<wgt id='morphing_basis_vector_3'> +1.5380511e-04 </wgt>
<wgt id='morphing_basis_vector_4'> +7.3858042e-05 </wgt>
<wgt id='morphing_basis_vector_5'> +1.5110565e-04 </wgt>
</rwgt>
</event>
<event>
 4      1 +6.0853000e-08 1.95969800e+03 7.81860800e-03 8.08830300e-02
        2 -1    0    0  501    0 +0.0000000000e+00 +0.0000000000e+00 +1.6089348704e+03 1.6089348704e+03 0.0000000000e+00 0.0000e+00 -1.0000e+00
       -2 -1    0    0    0  501 -0.0000000000e+00 -0.0000000000e+00 -5.9673270909e+02 5.9673270909e+02 0.0000000000e+00 0.0000e+00 1.0000e+00
      -13  1    1    2    0    0 +3.3271714169e+01 -3.9564694720e+02 -5.0213620859e+02 6.4014395707e+02 0.0000000000e+00 0.0000e+00 1.0000e+00
       13  1    1    2    0    0 -3.3271714169e+01 +3.9564694720e+02 +1.5143383699e+03 1.5655236224e+03 0.0000000000e+00 0.0000e+00 -1.0000e+00
<mgrwt>
<rscale>  0 0.19596980E+04</rscale>
<asrwt>0</asrwt>
<pdfrwt beam="1">  1        2 0.24752844E+00 0.19596980E+04</pdfrwt>
<pdfrwt beam="2">  1       -2 0.91805033E-01 0.19596980E+04</pdfrwt>
<totfact> 0.13288335E+01</totfact>
</mgrwt>
<rwgt>
<wgt id='morphing_basis_vector_1'> +1.2597232e-04 </wgt>
<wgt id='morphing_basis_vector_2'> +8.3763624e-05 </wgt>
<wgt id='morphing_basis_vector_3'> +1.3423957e-04 </wgt>
<wgt id='morphing_basis_vector_4'> +9.3496448e-05 </wgt>
<wgt id='morphing_basis_vector_5'> +1.4894836e-04 </wgt>
</rwgt>
</event>
<event>
 4      1 +6.0853000e-08 1.91510800e+03 7.81860800e-03 8.10732600e-02
        2 -1    0    0  501    0 +0.0000000000e+00 +0.0000000000e+00 +4.4086022510e+02 4.4086022510e+02 0.0000000000e+00 0.0000e+00 -1.0000e+00
       -2 -1    0    0    0  501 -0.0000000000e+00 -0.0000000000e+00 -2.0798188804e+03 2.0798188804e+03 0.0000000000e+00 0.0000e+00 1.0000e+00
      -13  1    1    2    0    0 -3.5686927582e+02 -3.5958052320e+02 -1.8889783478e+03 1.9557333742e+03 0.0000000000e+00 0.0000e+00 1.0000e+00
       13  1    1    2    0    0 +3.5686927582e+02 +3.5958052320e+02 +2.5001969246e+02 5.6494573129e+02 0.0000000000e+00 0.0000e+00 -1.0000e+00
<mgrwt>
<rscale>  0 0.19151077E+04</rscale>
<asrwt>0</asrwt>
<pdfrwt beam="1">  1        2 0.67824650E-01 0.19151077E+04</pdfrwt>
<pdfrwt beam="2">  1       -2 0.31997214E+00 0.19151077E+04</pdfrwt>
<totfact> 0.14108313E+00</totfact>
</mgrwt>
<rwgt>
<wgt id='morphing_basis_vector_1'> +1.1514199e-04 </wgt>
<wgt id='morphing_basis_vector_2'> +7.6525203e-05 </wgt>
<wgt id='morphing_basis_vector_3'> +1.2248508e-04 </wgt>
<wgt id='morphing_basis_vector_4'> +8.5066627e-05 </wgt>
<wgt id='morphing_basis_vector_5'> +1.3557538e-04 </wgt>
</rwgt>
</event>
<event>
 4      1 +6.0853000e-08 1.92921900e+03 7.81860800e-03 8.10124800e-02
        2 -1    0    0  501    0 +0.0000000000e+00 +0.0000000000e+00 +1.6761718572e+03 1.6761718572e+03 0.0000000000e+00 0.0000e+00 -1.0000e+00
       -2 -1    0    0    0  501 -0.0000000000e+00 -0.0000000000e+00 -5.5511710820e+02 5.5511710820e+02 0.0000000000e+00 0.0000e+00 1.0000e+00
      -13  1    1    2    0    0 -4.2094343320e+02 -7.5514836723e+02 +6.5721911074e+01 8.6704198289e+02 0.0000000000e+00 0.0000e+00 1.0000e+00
       13  1    1    2    0    0 +4.2094343320e+02 +7.5514836723e+02 +1.0553328379e+03 1.3642469825e+03 0.0000000000e+00 0.0000e+00 -1.0000e+00
<mgrwt>
<rscale>  0 0.19292192E+04</rscale>
<asrwt>0</asrwt>
<pdfrwt beam="1">  1        2 0.25787259E+00 0.19292192E+04</pdfrwt>
<pdfrwt beam="2">  1       -2 0.85402633E-01 0.19292192E+04</pdfrwt>
<totfact> 0.14463978E+01</totfact>
</mgrwt>
<rwgt>
<wgt id='morphing_basis_vector_1'> +1.1916770e-04 </wgt>
<wgt id='morphing_basis_vector_2'> +8.0770335e-05 </wgt>
<wgt id='morphing_basis_vector_3'> +1.2709448e-04 </wgt>
<wgt id='morphing_basis_vector_4'> +8.6330479e-05 </wgt>
<wgt id='morphing_basis_vector_5'> +1.3960135e-04 </wgt>
</rwgt>
</event>
<event>
 4      1 +6.0853000e-08 1.88761700e+03 7.81860800e-03 8.11932500e-02
        2 -1    0    0  501    0 +0.0000000000e+00 +0.0000000000e+00 +1.4492994619e+03 1.4492994619e+03 0.0000000000e+00 0.0000e+00 -1.0000e+00
       -2 -1    0    0    0  501 -0.0000000000e+00 -0.0000000000e+00 -6.1462402552e+02 6.1462402552e+02 0.0000000000e+00 0.0000e+00 1.0000e+00
      -13  1    1    2    0    0 +8.0475271518e+02 +4.8185020348e+02 +5.3184626676e+02 1.0782703755e+03 0.0000000000e+00 0.0000e+00 1.0000e+00
       13  1    1    2    0    0 -8.0475271518e+02 -4.8185020348e+02 +3.0282916966e+02 9.8565311199e+02 0.0000000000e+00 0.0000e+00 -1.0000e+00
<mgrwt>
<rscale>  0 0.18876168E+04</rscale>
<asrwt>0</asrwt>
<pdfrwt beam="1">  1        2 0.22296915E+00 0.18876168E+04</pdfrwt>
<pdfrwt beam="2">  1       -2 0.94557543E-01 0.18876168E+04</pdfrwt>
<totfact> 0.15320530E+01</totfact>
</mgrwt>
<rwgt>
<wgt id='morphing_basis_vector_1'> +1.1466203e-04 </wgt>
<wgt id='morphing_basis_vector_2'> +8.9604895e-05 </wgt>
<wgt id='morphing_basis_vector_3'> +1.2399344e-04 </wgt>
<wgt id='morphing_basis_vector_4'> +6.8662744e-05 </wgt>
<wgt id='morphing_basis_vector_5'> +1.2689061e-04 </wgt>
</rwgt>
</event>
<event>
 4      1 +6.0853000e-08 1.97116800e+03 7.81860800e-03 8.08349500e-02
        2 -1    0    0  501    0 +0.0000000000e+00 +0.0000000000e+00 +1.7306838736e+03 1.7306838736e+03 0.0000000000e+00 0.0000e+00 1.0000e+00
       -2 -1    0    0    0  501 -0.0000000000e+00 -0.0000000000e+00 -5.6126712740e+02 5.6126712740e+02 0.0000000000e+00 0.0000e+00 -1.0000e+00
      -13  1    1    2    0    0 -7.4763616989e+02 +4.7955966190e+02 +8.8070213142e+01 8.9257698508e+02 0.0000000000e+00 0.0000e+00 -1.0000e+00
       13  1    1    2    0    0 +7.4763616989e+02 -4.7955966190e+02 +1.0813465330e+03 1.3993740159e+03 0.0000000000e+00 0.0000e+00 1.0000e+00
<mgrwt>
<rscale>  0 0.19711681E+04</rscale>
<asrwt>0</asrwt>
<pdfrwt beam="1">  1        2 0.26625905E+00 0.19711681E+04</pdfrwt>
<pdfrwt beam="2">  1       -2 0.86348790E-01 0.19711681E+04</pdfrwt>
<totfact> 0.13101478E+01</totfact>
</mgrwt>
<rwgt>
<wgt id='morphing_basis_vector_1'> +1.2967744e-04 </wgt>
<wgt id='morphing_basis_vector_2'> +8.8072104e-05 </wgt>
<wgt id='morphing_basis_vector_3'> +1.3855387e-04 </wgt>
<wgt id='morphing_basis_vector_4'> +9.4176283e-05 </wgt>
<wgt id='morphing_basis_vector_5'> +1.5241676e-04 </wgt>
</rwgt>
</event>
<event>
 4      1 +6.0853000e-08 2.06295000e+03 7.81860800e-03 8.04620700e-02
        2 -1    0    0  501    0 +0.0000000000e+00 +0.0000000000e+00 +8.9315680949e+02 8.9315680949e+02 0.0000000000e+00 0.0000e+00 -1.0000e+00
       -2 -1    0    0    0  501 -0.0000000000e+00 -0.0000000000e+00 -1.1912134897e+03 1.1912134897e+03 0.0000000000e+00 0.0000e+00 1.0000e+00
      -13  1    1    2    0    0 -3.1631098569e+02 +9.3379073773e+02 -4.5536396825e+02 1.0859899286e+03 0.0000000000e+00 0.0000e+00 1.0000e+00
       13  1    1    2    0    0 +3.1631098569e+02 -9.3379073773e+02 +1.5730728800e+02 9.9838037060e+02 0.0000000000e+00 0.0000e+00 -1.0000e+00
<mgrwt>
<rscale>  0 0.20629498E+04</rscale>
<asrwt>0</asrwt>
<pdfrwt beam="1">  1        2 0.13740874E+00 0.20629498E+04</pdfrwt>
<pdfrwt beam="2">  1       -2 0.18326361E+00 0.20629498E+04</pdfrwt>
<totfact> 0.53441835E+00</totfact>
</mgrwt>
<rwgt>
<wgt id='morphing_basis_vector_1'> +1.5585060e-04 </wgt>
<wgt id='morphing_basis_vector_2'> +1.0798305e-04 </wgt>
<wgt id='morphing_basis_vector_3'> +1.6741624e-04 </wgt>
<wgt id='morphing_basis_vector_4'> +1.1168878e-04 </wgt>
<wgt id='morphing_basis_vector_5'> +1.8337563e-04 </wgt>
</rwgt>
</event>
<event>
 4      1 +6.0853000e-08 2.22112600e+03 7.81860800e-03 7.98644100e-02
        2 -1    0    0  501    0 +0.0000000000e+00 +0.0000000000e+00 +1.4448681914e+03 1.4448681914e+03 0.0000000000e+00 0.0000e+00 1.0000e+00
       -2 -1    0    0    0  501 -0.0000000000e+00 -0.0000000000e+00 -8.5360753406e+02 8.5360753406e+02 0.0000000000e+00 0.0000e+00 -1.0000e+00
      -13  1    1    2    0    0 -4.5423775749e+02 -9.5877390583e+02 -4.4087007397e+01 1.0618488626e+03 0.0000000000e+00 0.0000e+00 -1.0000e+00
       13  1    1    2    0    0 +4.5423775749e+02 +9.5877390583e+02 +6.3534766473e+02 1.2366268628e+03 0.0000000000e+00 0.0000e+00 1.0000e+00
<mgrwt>
<rscale>  0 0.22211262E+04</rscale>
<asrwt>0</asrwt>
<pdfrwt beam="1">  1        2 0.22228741E+00 0.22211262E+04</pdfrwt>
<pdfrwt beam="2">  1       -2 0.13132424E+00 0.22211262E+04</pdfrwt>
<totfact> 0.65422547E+00</totfact>
</mgrwt>
<rwgt>
<wgt id='morphing_basis_vector_1'> +2.0832722e-04 </wgt>
<wgt id='morphing_basis_vector_2'> +1.4471980e-04 </wgt>
<wgt id='morphing_basis_vector_3'> +2.2490056e-04 </wgt>
<wgt id='morphing_basis_vector_4'> +1.5087309e-04 </wgt>
<wgt id='morphing_basis_vector_5'> +2.4770358e-04 </wgt>
</rwgt>
</event>
<event>
 4      1 +6.0853000e-08 2.14905800e+03 7.81860800e-03 8.01301000e-02
        2 -1    0    0  501    0 +0.0000000000e+00 +0.0000000000e+00 +1.4386983245e+03 1.4386983245e+03 0.0000000000e+00 0.0000e+00 1.0000e+00
       -2 -1    0    0    0  501 -0.0000000000e+00 -0.0000000000e+00 -8.0253998974e+02 8.0253998974e+02 0.0000000000e+00 0.0000e+00 -1.0000e+00
      -13  1    1    2    0    0 +8.3420504507e+02 +6.3791299272e+02 +8.0762192949e+01 1.0532585510e+03 0.0000000000e+00 0.0000e+00 -1.0000e+00
       13  1    1    2    0    0 -8.3420504507e+02 -6.3791299272e+02 +5.5539614182e+02 1.1879797632e+03 0.0000000000e+00 0.0000e+00 1.0000e+00
<mgrwt>
<rscale>  0 0.21490583E+04</rscale>
<asrwt>0</asrwt>
<pdfrwt beam="1">  1        2 0.22133820E+00 0.21490583E+04</pdfrwt>
<pdfrwt beam="2">  1       -2 0.12346769E+00 0.21490583E+04</pdfrwt>
<totfact> 0.78129414E+00</totfact>
</mgrwt>
<rwgt>
<wgt id='morphing_basis_vector_1'> +1.8385289e-04 </wgt>
<wgt id='morphing_basis_vector_2'> +1.2952324e-04 </wgt>
<wgt id='morphing_basis_vector_3'> +1.9840544e-04 </wgt>
<wgt id='morphing_basis_vector_4'> +1.3019770e-04 </wgt>
<wgt id='morphing_basis_vector_5'> +2.1646685e-04 </wgt>
</rwgt>
</event>
<event>
 4      1 +6.0853000e-08 1.92503900e+03 7.81860800e-03 8.10304300e-02
        2 -1    0    0  501    0 +0.0000000000e+00 +0.0000000000e+00 +2.4813462745e+03 2.4813462745e+03 0.0000000000e+00 0.0000e+00 1.0000e+00
       -2 -1    0    0    0  501 -0.0000000000e+00 -0.0000000000e+00 -3.7336326117e+02 3.7336326117e+02 0.0000000000e+00 0.0000e+00 -1.0000e+00
      -13  1    1    2    0    0 +5.3292658815e+02 -5.7156828253e+02 +2.2071533124e+02 8.1204452304e+02 0.0000000000e+00 0.0000e+00 -1.0000e+00
       13  1    1    2    0    0 -5.3292658815e+02 +5.7156828253e+02 +1.8872676821e+03 2.0426650127e+03 0.0000000000e+00 0.0000e+00 1.0000e+00
<mgrwt>
<rscale>  0 0.19250387E+04</rscale>
<asrwt>0</asrwt>
<pdfrwt beam="1">  1        2 0.38174557E+00 0.19250387E+04</pdfrwt>
<pdfrwt beam="2">  1       -2 0.57440503E-01 0.19250387E+04</pdfrwt>
<totfact> 0.11861096E+01</totfact>
</mgrwt>
<rwgt>
<wgt id='morphing_basis_vector_1'> +1.1779032e-04 </wgt>
<wgt id='morphing_basis_vector_2'> +7.8982640e-05 </wgt>
<wgt id='morphing_basis_vector_3'> +1.2546494e-04 </wgt>
<wgt id='morphing_basis_vector_4'> +8.6300649e-05 </wgt>
<wgt id='morphing_basis_vector_5'> +1.3842657e-04 </wgt>
</rwgt>
</event>
<event>
 4      1 +6.0853000e-08 1.99047700e+03 7.81860800e-03 8.07547700e-02
        2 -1    0    0  501    0 +0.0000000000e+00 +0.0000000000e+00 +2.2093725623e+03 2.2093725623e+03 0.0000000000e+00 0.0000e+00 -1.0000e+00
       -2 -1    0    0    0  501 -0.0000000000e+00 -0.0000000000e+00 -4.4831724579e+02 4.4831724579e+02 0.0000000000e+00 0.0000e+00 1.0000e+00
      -13  1    1    2    0    0 +1.8252652844e+01 +4.5479051910e+02 -3.0120733742e+02 5.4579614850e+02 0.0000000000e+00 0.0000e+00 1.0000e+00
       13  1    1    2    0    0 -1.8252652844e+01 -4.5479051910e+02 +2.0622626539e+03 2.1118936596e+03 0.0000000000e+00 0.0000e+00 -1.0000e+00
<mgrwt>
<rscale>  0 0.19904772E+04</rscale>
<asrwt>0</asrwt>
<pdfrwt beam="1">  1        2 0.33990347E+00 0.19904772E+04</pdfrwt>
<pdfrwt beam="2">  1       -2 0.68971885E-01 0.19904772E+04</pdfrwt>
<totfact> 0.11611323E+01</totfact>
</mgrwt>
<rwgt>
<wgt id='morphing_basis_vector_1'> +1.3390968e-04 </wgt>
<wgt id='morphing_basis_vector_2'> +8.9125675e-05 </wgt>
<wgt id='morphing_basis_vector_3'> +1.4286927e-04 </wgt>
<wgt id='morphing_basis_vector_4'> +9.9618840e-05 </wgt>
<wgt id='morphing_basis_vector_5'> +1.5873202e-04 </wgt>
</rwgt>
</event>
<event>
 4      1 +6.0853000e-08 2.16412500e+03 7.81860800e-03 8.00736700e-02
        2 -1    0    0  501    0 +0.0000000000e+00 +0.0000000000e+00 +1.8604649817e+03 1.8604649817e+03 0.0000000000e+00 0.0000e+00 1.0000e+00
       -2 -1    0    0    0  501 -0.0000000000e+00 -0.0000000000e+00 -6.2933686568e+02 6.2933686568e+02 0.0000000000e+00 0.0000e+00 -1.0000e+00
      -13  1    1    2    0    0 -6.9448884860e+02 +7.1817903518e+02 +1.3736555251e+02 1.0084469160e+03 0.0000000000e+00 0.0000e+00 -1.0000e+00
       13  1    1    2    0    0 +6.9448884860e+02 -7.1817903518e+02 +1.0937625636e+03 1.4813549314e+03 0.0000000000e+00 0.0000e+00 1.0000e+00
<mgrwt>
<rscale>  0 0.21641250E+04</rscale>
<asrwt>0</asrwt>
<pdfrwt beam="1">  1        2 0.28622538E+00 0.21641250E+04</pdfrwt>
<pdfrwt beam="2">  1       -2 0.96821057E-01 0.21641250E+04</pdfrwt>
<totfact> 0.83411875E+00</totfact>
</mgrwt>
<rwgt>
<wgt id='morphing_basis_vector_1'> +1.8738102e-04 </wgt>
<wgt id='morphing_basis_vector_2'> +1.2846155e-04 </wgt>
<wgt id='morphing_basis_vector_3'> +2.0166510e-04 </wgt>
<wgt id='morphing_basis_vector_4'> +1.3715195e-04 </wgt>
<wgt id='morphing_basis_vector_5'> +2.2296398e-04 </wgt>
</rwgt>
</event>
<event>
 4      1 +6.0853000e-08 1.98659900e+03 7.81860800e-03 8.07708000e-02
        2 -1    0    0  501    0 +0.0000000000e+00 +0.0000000000e+00 +2.1313017362e+03 2.1313017362e+03 0.0000000000e+00 0.0000e+00 -1.0000e+00
       -2 -1    0    0    0  501 -0.0000000000e+00 -0.0000000000e+00 -4.6293009588e+02 4.6293009588e+02 0.0000000000e+00 0.0000e+00 1.0000e+00
      -13  1    1    2    0    0 -3.1475186587e+02 +8.3386326580e+02 +2.6161602349e+02 9.2889161201e+02 0.0000000000e+00 0.0000e+00 1.0000e+00
       13  1    1    2    0    0 +3.1475186587e+02 -8.3386326580e+02 +1.4067556169e+03 1.6653402201e+03 0.0000000000e+00 0.0000e+00 -1.0000e+00
<mgrwt>
<rscale>  0 0.19865988E+04</rscale>
<asrwt>0</asrwt>
<pdfrwt beam="1">  1        2 0.32789257E+00 0.19865988E+04</pdfrwt>
<pdfrwt beam="2">  1       -2 0.71220016E-01 0.19865988E+04</pdfrwt>
<totfact> 0.12014236E+01</totfact>
</mgrwt>
<rwgt>
<wgt id='morphing_basis_vector_1'> +1.3366823e-04 </wgt>
<wgt id='morphing_basis_vector_2'> +9.0742748e-05 </wgt>
<wgt id='morphing_basis_vector_3'> +1.4289150e-04 </wgt>
<wgt id='morphing_basis_vector_4'> +9.7283254e-05 </wgt>
<wgt id='morphing_basis_vector_5'> +1.5735156e-04 </wgt>
</rwgt>
</event>
<event>
 4      1 +6.0853000e-08 2.00386900e+03 7.81860800e-03 8.06997200e-02
        2 -1    0    0  501    0 +0.0000000000e+00 +0.0000000000e+00 +1.0478141370e+03 1.0478141370e+03 0.0000000000e+00 0.0000e+00 -1.0000e+00
       -2 -1    0    0    0  501 -0.0000000000e+00 -0.0000000000e+00 -9.5806369471e+02 9.5806369471e+02 0.0000000000e+00 0.0000e+00 1.0000e+00
      -13  1    1    2    0    0 -9.7859231870e+02 +1.2000519680e+02 -1.3370909638e+02 9.9494838858e+02 0.0000000000e+00 0.0000e+00 1.0000e+00
       13  1    1    2    0    0 +9.7859231870e+02 -1.2000519680e+02 +2.2345953863e+02 1.0109294431e+03 0.0000000000e+00 0.0000e+00 -1.0000e+00
<mgrwt>
<rscale>  0 0.20038689E+04</rscale>
<asrwt>0</asrwt>
<pdfrwt beam="1">  1        2 0.16120218E+00 0.20038689E+04</pdfrwt>
<pdfrwt beam="2">  1       -2 0.14739441E+00 0.20038689E+04</pdfrwt>
<totfact> 0.82429971E+00</totfact>
</mgrwt>
<rwgt>
<wgt id='morphing_basis_vector_1'> +1.4003377e-04 </wgt>
<wgt id='morphing_basis_vector_2'> +9.9102505e-05 </wgt>
<wgt id='morphing_basis_vector_3'> +1.5047287e-04 </wgt>
<wgt id='morphing_basis_vector_4'> +9.7288288e-05 </wgt>
<wgt id='morphing_basis_vector_5'> +1.6273356e-04 </wgt>
</rwgt>
</event>
<event>
 4      1 +6.0853000e-08 2.01484000e+03 7.81860800e-03 8.06549500e-02
        2 -1    0    0  501    0 +0.0000000000e+00 +0.0000000000e+00 +1.3627399863e+03 1.3627399863e+03 0.0000000000e+00 0.0000e+00 -1.0000e+00
       -2 -1    0    0    0  501 -0.0000000000e+00 -0.0000000000e+00 -7.4474588470e+02 7.4474588470e+02 0.0000000000e+00 0.0000e+00 1.0000e+00
      -13  1    1    2    0    0 -4.0322789314e+02 -1.1917339887e+02 -6.4857625610e+02 7.7294643591e+02 0.0000000000e+00 0.0000e+00 1.0000e+00
       13  1    1    2    0    0 +4.0322789314e+02 +1.1917339887e+02 +1.2665703577e+03 1.3345394351e+03 0.0000000000e+00 0.0000e+00 -1.0000e+00
<mgrwt>
<rscale>  0 0.20148399E+04</rscale>
<asrwt>0</asrwt>
<pdfrwt beam="1">  1        2 0.20965231E+00 0.20148399E+04</pdfrwt>
<pdfrwt beam="2">  1       -2 0.11457629E+00 0.20148399E+04</pdfrwt>
<totfact> 0.10588055E+01</totfact>
</mgrwt>
<rwgt>
<wgt id='morphing_basis_vector_1'> +1.4044279e-04 </wgt>
<wgt id='morphing_basis_vector_2'> +9.3511942e-05 </wgt>
<wgt id='morphing_basis_vector_3'> +1.4997141e-04 </wgt>
<wgt id='morphing_basis_vector_4'> +1.0469833e-04 </wgt>
<wgt id='morphing_basis_vector_5'> +1.6681132e-04 </wgt>
</rwgt>
</event>
<event>
 4      1 +6.0853000e-08 2.08734800e+03 7.81860800e-03 8.03663300e-02
        2 -1    0    0  501    0 +0.0000000000e+00 +0.0000000000e+00 +9.4135432171e+02 9.4135432171e+02 0.0000000000e+00 0.0000e+00 -1.0000e+00
       -2 -1    0    0    0  501 -0.0000000000e+00 -0.0000000000e+00 -1.1571156215e+03 1.1571156215e+03 0.0000000000e+00 0.0000e+00 1.0000e+00
      -13  1    1    2    0    0 +1.7985165001e+02 +2.3853363825e+02 -1.1132142110e+03 1.1526017491e+03 0.0000000000e+00 0.0000e+00 1.0000e+00
       13  1    1    2    0    0 -1.7985165001e+02 -2.3853363825e+02 +8.9745291124e+02 9.4586819403e+02 0.0000000000e+00 0.0000e+00 -1.0000e+00
<mgrwt>
<rscale>  0 0.20873484E+04</rscale>
<asrwt>0</asrwt>
<pdfrwt beam="1">  1        2 0.14482374E+00 0.20873484E+04</pdfrwt>
<pdfrwt beam="2">  1       -2 0.17801779E+00 0.20873484E+04</pdfrwt>
<totfact> 0.54388838E+00</totfact>
</mgrwt>
<rwgt>
<wgt id='morphing_basis_vector_1'> +1.6132569e-04 </wgt>
<wgt id='morphing_basis_vector_2'> +1.0755879e-04 </wgt>
<wgt id='morphing_basis_vector_3'> +1.7269600e-04 </wgt>
<wgt id='morphing_basis_vector_4'> +1.2094334e-04 </wgt>
<wgt id='morphing_basis_vector_5'> +1.9267439e-04 </wgt>
</rwgt>
</event>
<event>
 4      1 +6.0853000e-08 2.18633500e+03 7.81860800e-03 7.99913500e-02
        2 -1    0    0  501    0 +0.0000000000e+00 +0.0000000000e+00 +1.5261792158e+03 1.5261792158e+03 0.0000000000e+00 0.0000e+00 1.0000e+00
       -2 -1    0    0    0  501 -0.0000000000e+00 -0.0000000000e+00 -7.8301112563e+02 7.8301112563e+02 0.0000000000e+00 0.0000e+00 -1.0000e+00
      -13  1    1    2    0    0 +2.6828695748e+02 +9.9866887914e+01 +1.4858864677e+03 1.5132117769e+03 0.0000000000e+00 0.0000e+00 1.0000e+00
       13  1    1    2    0    0 -2.6828695748e+02 -9.9866887914e+01 -7.4271837753e+02 7.9597856452e+02 0.0000000000e+00 0.0000e+00 -1.0000e+00
<mgrwt>
<rscale>  0 0.21863351E+04</rscale>
<asrwt>0</asrwt>
<pdfrwt beam="1">  1        2 0.23479680E+00 0.21863351E+04</pdfrwt>
<pdfrwt beam="2">  1       -2 0.12046325E+00 0.21863351E+04</pdfrwt>
<totfact> 0.74191712E+00</totfact>
</mgrwt>
<rwgt>
<wgt id='morphing_basis_vector_1'> +2.6496745e-04 </wgt>
<wgt id='morphing_basis_vector_2'> +3.4045443e-04 </wgt>
<wgt id='morphing_basis_vector_3'> +3.1405706e-04 </wgt>
<wgt id='morphing_basis_vector_4'> +1.9898213e-06 </wgt>
<wgt id='morphing_basis_vector_5'> +2.2115865e-04 </wgt>
</rwgt>
</event>
<event>
 4      1 +6.0853000e-08 2.07713100e+03 7.81860800e-03 8.04062600e-02
        2 -1    0    0  501    0 +0.0000000000e+00 +0.0000000000e+00 +1.7914314901e+03 1.7914314901e+03 0.0000000000e+00 0.0000e+00 -1.0000e+00
       -2 -1    0    0    0  501 -0.0000000000e+00 -0.0000000000e+00 -6.0209832777e+02 6.0209832777e+02 0.0000000000e+00 0.0000e+00 1.0000e+00
      -13  1    1    2    0    0 +5.8928047738e+02 -6.4317168178e+02 -5.4836663769e+01 8.7402994969e+02 0.0000000000e+00 0.0000e+00 1.0000e+00
       13  1    1    2    0    0 -5.8928047738e+02 +6.4317168178e+02 +1.2441698261e+03 1.5194998682e+03 0.0000000000e+00 0.0000e+00 -1.0000e+00
<mgrwt>
<rscale>  0 0.20771306E+04</rscale>
<asrwt>0</asrwt>
<pdfrwt beam="1">  1        2 0.27560484E+00 0.20771306E+04</pdfrwt>
<pdfrwt beam="2">  1       -2 0.92630513E-01 0.20771306E+04</pdfrwt>
<totfact> 0.10194696E+01</totfact>
</mgrwt>
<rwgt>
<wgt id='morphing_basis_vector_1'> +1.5880416e-04 </wgt>
<wgt id='morphing_basis_vector_2'> +1.0713002e-04 </wgt>
<wgt id='morphing_basis_vector_3'> +1.7016206e-04 </wgt>
<wgt id='morphing_basis_vector_4'> +1.1743742e-04 </wgt>
<wgt id='morphing_basis_vector_5'> +1.8877219e-04 </wgt>
</rwgt>
</event>
<event>
 4      1 +6.0853000e-08 2.14431700e+03 7.81860800e-03 8.01479600e-02
        2 -1    0    0  501    0 +0.0000000000e+00 +0.0000000000e+00 +3.9244025692e+03 3.9244025692e+03 0.0000000000e+00 0.0000e+00 1.0000e+00
       -2 -1    0    0    0  501 -0.0000000000e+00 -0.0000000000e+00 -2.9291689680e+02 2.9291689680e+02 0.0000000000e+00 0.0000e+00 -1.0000e+00
      -13  1    1    2    0    0 -1.6302684645e+02 +8.5970943878e+02 +5.9724184894e+02 1.0594224360e+03 0.0000000000e+00 0.0000e+00 -1.0000e+00
       13  1    1    2    0    0 +1.6302684645e+02 -8.5970943878e+02 +3.0342438235e+03 3.1578970300e+03 0.0000000000e+00 0.0000e+00 1.0000e+00
<mgrwt>
<rscale>  0 0.21443170E+04</rscale>
<asrwt>0</asrwt>
<pdfrwt beam="1">  1        2 0.60375420E+00 0.21443170E+04</pdfrwt>
<pdfrwt beam="2">  1       -2 0.45064141E-01 0.21443170E+04</pdfrwt>
<totfact> 0.19066027E+00</totfact>
</mgrwt>
<rwgt>
<wgt id='morphing_basis_vector_1'> +1.7983599e-04 </wgt>
<wgt id='morphing_basis_vector_2'> +1.2121307e-04 </wgt>
<wgt id='morphing_basis_vector_3'> +1.9306518e-04 </wgt>
<wgt id='morphing_basis_vector_4'> +1.3391620e-04 </wgt>
<wgt id='morphing_basis_vector_5'> +2.1491898e-04 </wgt>
</rwgt>
</event>
<event>
 4      1 +6.0853000e-08 2.02851600e+03 7.81860800e-03 8.05995600e-02
        2 -1    0    0  501    0 +0.0000000000e+00 +0.0000000000e+00 +1.4438431143e+03 1.4438431143e+03 0.0000000000e+00 0.0000e+00 -1.0000e+00
       -2 -1    0    0    0  501 -0.0000000000e+00 -0.0000000000e+00 -7.1248660561e+02 7.1248660561e+02 0.0000000000e+00 0.0000e+00 1.0000e+00
      -13  1    1    2    0    0 -3.9027074063e+01 -4.8146952111e+02 -5.8235797401e+02 7.5662198102e+02 0.0000000000e+00 0.0000e+00 1.0000e+00
       13  1    1    2    0    0 +3.9027074063e+01 +4.8146952111e+02 +1.3137144827e+03 1.3997077389e+03 0.0000000000e+00 0.0000e+00 -1.0000e+00
<mgrwt>
<rscale>  0 0.20285156E+04</rscale>
<asrwt>0</asrwt>
<pdfrwt beam="1">  1        2 0.22212971E+00 0.20285156E+04</pdfrwt>
<pdfrwt beam="2">  1       -2 0.10961332E+00 0.20285156E+04</pdfrwt>
<totfact> 0.10642696E+01</totfact>
</mgrwt>
<rwgt>
<wgt id='morphing_basis_vector_1'> +1.4422835e-04 </wgt>
<wgt id='morphing_basis_vector_2'> +9.6086957e-05 </wgt>
<wgt id='morphing_basis_vector_3'> +1.5409348e-04 </wgt>
<wgt id='morphing_basis_vector_4'> +1.0760404e-04 </wgt>
<wgt id='morphing_basis_vector_5'> +1.7147633e-04 </wgt>
</rwgt>
</event>
<event>
 4      1 +6.0853000e-08 1.95409600e+03 7.81860800e-03 8.09066400e-02
        2 -1    0    0  501    0 +0.0000000000e+00 +0.0000000000e+00 +7.5667847493e+02 7.5667847493e+02 0.0000000000e+00 0.0000e+00 -1.0000e+00
       -2 -1    0    0    0  501 -0.0000000000e+00 -0.0000000000e+00 -1.2615958899e+03 1.2615958899e+03 0.0000000000e+00 0.0000e+00 1.0000e+00
      -13  1    1    2    0    0 +3.9629664096e+02 +2.9444756776e+02 -1.1232821407e+03 1.2269935474e+03 0.0000000000e+00 0.0000e+00 1.0000e+00
       13  1    1    2    0    0 -3.9629664096e+02 -2.9444756776e+02 +6.1836472580e+02 7.9128081735e+02 0.0000000000e+00 0.0000e+00 -1.0000e+00
<mgrwt>
<rscale>  0 0.19540957E+04</rscale>
<asrwt>0</asrwt>
<pdfrwt beam="1">  1        2 0.11641207E+00 0.19540957E+04</pdfrwt>
<pdfrwt beam="2">  1       -2 0.19409167E+00 0.19540957E+04</pdfrwt>
<totfact> 0.55555458E+00</totfact>
</mgrwt>
<rwgt>
<wgt id='morphing_basis_vector_1'> +1.2458523e-04 </wgt>
<wgt id='morphing_basis_vector_2'> +8.2869241e-05 </wgt>
<wgt id='morphing_basis_vector_3'> +1.3273872e-04 </wgt>
<wgt id='morphing_basis_vector_4'> +9.2376255e-05 </wgt>
<wgt id='morphing_basis_vector_5'> +1.4721419e-04 </wgt>
</rwgt>
</event>
<event>
 4      1 +6.0853000e-08 1.90048900e+03 7.81860800e-03 8.11368000e-02
        2 -1    0    0  501    0 +0.0000000000e+00 +0.0000000000e+00 +5.1078217887e+02 5.1078217887e+02 0.0000000000e+00 0.0000e+00 1.0000e+00
       -2 -1    0    0    0  501 -0.0000000000e+00 -0.0000000000e+00 -1.7678073725e+03 1.7678073725e+03 0.0000000000e+00 0.0000e+00 -1.0000e+00
      -13  1    1    2    0    0 +9.2191267647e+02 +1.9399831633e+02 -7.7732808557e+02 1.2213915353e+03 0.0000000000e+00 0.0000e+00 -1.0000e+00
       13  1    1    2    0    0 -9.2191267647e+02 -1.9399831633e+02 -4.7969710803e+02 1.0571980161e+03 0.0000000000e+00 0.0000e+00 1.0000e+00
<mgrwt>
<rscale>  0 0.19004889E+04</rscale>
<asrwt>0</asrwt>
<pdfrwt beam="1">  1        2 0.78581875E-01 0.19004889E+04</pdfrwt>
<pdfrwt beam="2">  1       -2 0.27197036E+00 0.19004889E+04</pdfrwt>
<totfact> 0.25211024E+00</totfact>
</mgrwt>
<rwgt>
<wgt id='morphing_basis_vector_1'> +1.1422671e-04 </wgt>
<wgt id='morphing_basis_vector_2'> +8.1600025e-05 </wgt>
<wgt id='morphing_basis_vector_3'> +1.2236025e-04 </wgt>
<wgt id='morphing_basis_vector_4'> +7.7544562e-05 </wgt>
<wgt id='morphing_basis_vector_5'> +1.3100997e-04 </wgt>
</rwgt>
</event>
<event>
 4      1 +6.0853000e-08 1.93345100e+03 7.81860800e-03 8.09943600e-02
        2 -1    0    0  501    0 +0.0000000000e+00 +0.0000000000e+00 +1.9707156835e+03 1.9707156835e+03 0.0000000000e+00 0.0000e+00 -1.0000e+00
       -2 -1    0    0    0  501 -0.0000000000e+00 -0.0000000000e+00 -4.7422292306e+02 4.7422292306e+02 0.0000000000e+00 0.0000e+00 1.0000e+00
      -13  1    1    2    0    0 -2.0787609624e+00 +3.5636905911e+02 -3.8812646448e+02 5.2692065813e+02 0.0000000000e+00 0.0000e+00 1.0000e+00
       13  1    1    2    0    0 +2.0787609624e+00 -3.5636905911e+02 +1.8846192249e+03 1.9180179484e+03 0.0000000000e+00 0.0000e+00 -1.0000e+00
<mgrwt>
<rscale>  0 0.19334514E+04</rscale>
<asrwt>0</asrwt>
<pdfrwt beam="1">  1        2 0.30318702E+00 0.19334514E+04</pdfrwt>
<pdfrwt beam="2">  1       -2 0.72957374E-01 0.19334514E+04</pdfrwt>
<totfact> 0.14115459E+01</totfact>
</mgrwt>
<rwgt>
<wgt id='morphing_basis_vector_1'> +1.1949193e-04 </wgt>
<wgt id='morphing_basis_vector_2'> +7.9394401e-05 </wgt>
<wgt id='morphing_basis_vector_3'> +1.2719909e-04 </wgt>
<wgt id='morphing_basis_vector_4'> +8.8495477e-05 </wgt>
<wgt id='morphing_basis_vector_5'> +1.4096609e-04 </wgt>
</rwgt>
</event>
<event>
 4      1 +6.0853000e-08 1.92692100e+03 7.81860800e-03 8.10223400e-02
        2 -1    0    0  501    0 +0.0000000000e+00 +0.0000000000e+00 +9.3757317017e+02 9.3757317017e+02 0.0000000000e+00 0.0000e+00 1.0000e+00
       -2 -1    0    0    0  501 -0.0000000000e+00 -0.0000000000e+00 -9.9006243417e+02 9.9006243417e+02 0.0000000000e+00 0.0000e+00 -1.0000e+00
      -13  1    1    2    0    0 -5.0023189109e+02 -1.8219183234e+02 -8.2955568052e+02 9.8569185637e+02 0.0000000000e+00 0.0000e+00 -1.0000e+00
       13  1    1    2    0    0 +5.0023189109e+02 +1.8219183234e+02 +7.7706641653e+02 9.4194374796e+02 0.0000000000e+00 0.0000e+00 1.0000e+00
<mgrwt>
<rscale>  0 0.19269208E+04</rscale>
<asrwt>0</asrwt>
<pdfrwt beam="1">  1        2 0.14424203E+00 0.19269208E+04</pdfrwt>
<pdfrwt beam="2">  1       -2 0.15231730E+00 0.19269208E+04</pdfrwt>
<totfact> 0.88539668E+00</totfact>
</mgrwt>
<rwgt>
<wgt id='morphing_basis_vector_1'> +1.1795327e-04 </wgt>
<wgt id='morphing_basis_vector_2'> +7.8434781e-05 </wgt>
<wgt id='morphing_basis_vector_3'> +1.2554005e-04 </wgt>
<wgt id='morphing_basis_vector_4'> +8.7215821e-05 </wgt>
<wgt id='morphing_basis_vector_5'> +1.3902526e-04 </wgt>
</rwgt>
</event>
<event>
 4      1 +6.0853000e-08 1.99328700e+03 7.81860800e-03 8.07431900e-02
        2 -1    0    0  501    0 +0.0000000000e+00 +0.0000000000e+00 +1.7503962701e+03 1.7503962701e+03 0.0000000000e+00 0.0000e+00 -1.0000e+00
       -2 -1    0    0    0  501 -0.0000000000e+00 -0.0000000000e+00 -5.6747046174e+02 5.6747046174e+02 0.0000000000e+00 0.0000e+00 1.0000e+00
      -13  1    1    2    0    0 +9.2920894642e+02 +4.0054036398e+01 +1.7500411572e+02 9.4639317013e+02 0.0000000000e+00 0.0000e+00 1.0000e+00
       13  1    1    2    0    0 -9.2920894642e+02 -4.0054036398e+01 +1.0079216926e+03 1.3714735617e+03 0.0000000000e+00 0.0000e+00 -1.0000e+00
<mgrwt>
<rscale>  0 0.19932869E+04</rscale>
<asrwt>0</asrwt>
<pdfrwt beam="1">  1        2 0.26929173E+00 0.19932869E+04</pdfrwt>
<pdfrwt beam="2">  1       -2 0.87303149E-01 0.19932869E+04</pdfrwt>
<totfact> 0.12429498E+01</totfact>
</mgrwt>
<rwgt>
<wgt id='morphing_basis_vector_1'> +1.3581773e-04 </wgt>
<wgt id='morphing_basis_vector_2'> +9.3077551e-05 </wgt>
<wgt id='morphing_basis_vector_3'> +1.4537191e-04 </wgt>
<wgt id='morphing_basis_vector_4'> +9.7875305e-05 </wgt>
<wgt id='morphing_basis_vector_5'> +1.5946565e-04 </wgt>
</rwgt>
</event>
<event>
 4      1 +6.0853000e-08 2.09776700e+03 7.81860800e-03 8.03258600e-02
        2 -1    0    0  501    0 +0.0000000000e+00 +0.0000000000e+00 +1.3752525359e+03 1.3752525359e+03 0.0000000000e+00 0.0000e+00 -1.0000e+00
       -2 -1    0    0    0  501 -0.0000000000e+00 -0.0000000000e+00 -7.9996661574e+02 7.9996661574e+02 0.0000000000e+00 0.0000e+00 1.0000e+00
      -13  1    1    2    0    0 -8.7868730188e+02 +5.3026927398e+02 +5.1215319414e+02 1.1469863869e+03 0.0000000000e+00 0.0000e+00 1.0000e+00
       13  1    1    2    0    0 +8.7868730188e+02 -5.3026927398e+02 +6.3132726004e+01 1.0282327648e+03 0.0000000000e+00 0.0000e+00 -1.0000e+00
<mgrwt>
<rscale>  0 0.20977665E+04</rscale>
<asrwt>0</asrwt>
<pdfrwt beam="1">  1        2 0.21157731E+00 0.20977665E+04</pdfrwt>
<pdfrwt beam="2">  1       -2 0.12307179E+00 0.20977665E+04</pdfrwt>
<totfact> 0.85945441E+00</totfact>
</mgrwt>
<rwgt>
<wgt id='morphing_basis_vector_1'> +1.7682310e-04 </wgt>
<wgt id='morphing_basis_vector_2'> +1.4613087e-04 </wgt>
<wgt id='morphing_basis_vector_3'> +1.9430665e-04 </wgt>
<wgt id='morphing_basis_vector_4'> +9.8736978e-05 </wgt>
<wgt id='morphing_basis_vector_5'> +1.9466081e-04 </wgt>
</rwgt>
</event>
<event>
 4      1 +6.0853000e-08 1.89415800e+03 7.81860800e-03 8.11645100e-02
        2 -1    0    0  501    0 +0.0000000000e+00 +0.0000000000e+00 +2.0658081529e+03 2.0658081529e+03 0.0000000000e+00 0.0000e+00 -1.0000e+00
       -2 -1    0    0    0  501 -0.0000000000e+00 -0.0000000000e+00 -4.3419259090e+02 4.3419259090e+02 0.0000000000e+00 0.0000e+00 1.0000e+00
      -13  1    1    2    0    0 -2.4302937841e+02 -7.6343426848e+02 +1.4923427955e+02 8.1496382205e+02 0.0000000000e+00 0.0000e+00 1.0000e+00
       13  1    1    2    0    0 +2.4302937841e+02 +7.6343426848e+02 +1.4823812824e+03 1.6850369217e+03 0.0000000000e+00 0.0000e+00 -1.0000e+00
<mgrwt>
<rscale>  0 0.18941580E+04</rscale>
<asrwt>0</asrwt>
<pdfrwt beam="1">  1        2 0.31781663E+00 0.18941580E+04</pdfrwt>
<pdfrwt beam="2">  1       -2 0.66798861E-01 0.18941580E+04</pdfrwt>
<totfact> 0.15126188E+01</totfact>
</mgrwt>
<rwgt>
<wgt id='morphing_basis_vector_1'> +1.1067370e-04 </wgt>
<wgt id='morphing_basis_vector_2'> +7.4388241e-05 </wgt>
<wgt id='morphing_basis_vector_3'> +1.1776770e-04 </wgt>
<wgt id='morphing_basis_vector_4'> +8.0578844e-05 </wgt>
<wgt id='morphing_basis_vector_5'> +1.2955397e-04 </wgt>
</rwgt>
</event>
<event>
 4      1 +6.0853000e-08 1.98756000e+03 7.81860800e-03 8.07668300e-02
        2 -1    0    0  501    0 +0.0000000000e+00 +0.0000000000e+00 +7.9789648110e+02 7.9789648110e+02 0.0000000000e+00 0.0000e+00 -1.0000e+00
       -2 -1    0    0    0  501 -0.0000000000e+00 -0.0000000000e+00 -1.2377528228e+03 1.2377528228e+03 0.0000000000e+00 0.0000e+00 1.0000e+00
      -13  1    1    2    0    0 +7.4733259211e+02 +6.1379873368e+02 +1.4394912853e+01 9.6719289814e+02 0.0000000000e+00 0.0000e+00 1.0000e+00
       13  1    1    2    0    0 -7.4733259211e+02 -6.1379873368e+02 -4.5425125453e+02 1.0684564057e+03 0.0000000000e+00 0.0000e+00 -1.0000e+00
<mgrwt>
<rscale>  0 0.19875599E+04</rscale>
<asrwt>0</asrwt>
<pdfrwt beam="1">  1        2 0.12275331E+00 0.19875599E+04</pdfrwt>
<pdfrwt beam="2">  1       -2 0.19042351E+00 0.19875599E+04</pdfrwt>
<totfact> 0.55141671E+00</totfact>
</mgrwt>
<rwgt>
<wgt id='morphing_basis_vector_1'> +1.4390060e-04 </wgt>
<wgt id='morphing_basis_vector_2'> +1.2046542e-04 </wgt>
<wgt id='morphing_basis_vector_3'> +1.5767059e-04 </wgt>
<wgt id='morphing_basis_vector_4'> +7.7640899e-05 </wgt>
<wgt id='morphing_basis_vector_5'> +1.5609888e-04 </wgt>
</rwgt>
</event>
<event>
 4      1 +6.0853000e-08 1.96759100e+03 7.81860800e-03 8.08499100e-02
        2 -1    0    0  501    0 +0.0000000000e+00 +0.0000000000e+00 +9.9814205745e+02 9.9814205745e+02 0.0000000000e+00 0.0000e+00 -1.0000e+00
       -2 -1    0    0    0  501 -0.0000000000e+00 -0.0000000000e+00 -9.6965544754e+02 9.6965544754e+02 0.0000000000e+00 0.0000e+00 1.0000e+00
      -13  1    1    2    0    0 +3.4302461824e+00 +5.8047794970e+02 -7.8012418368e+02 9.7239917659e+02 0.0000000000e+00 0.0000e+00 1.0000e+00
       13  1    1    2    0    0 -3.4302461824e+00 -5.8047794970e+02 +8.0861079359e+02 9.9539832840e+02 0.0000000000e+00 0.0000e+00 -1.0000e+00
<mgrwt>
<rscale>  0 0.19675913E+04</rscale>
<asrwt>0</asrwt>
<pdfrwt beam="1">  1        2 0.15356032E+00 0.19675913E+04</pdfrwt>
<pdfrwt beam="2">  1       -2 0.14917776E+00 0.19675913E+04</pdfrwt>
<totfact> 0.85757109E+00</totfact>
</mgrwt>
<rwgt>
<wgt id='morphing_basis_vector_1'> +1.2801958e-04 </wgt>
<wgt id='morphing_basis_vector_2'> +8.5252800e-05 </wgt>
<wgt id='morphing_basis_vector_3'> +1.3648174e-04 </wgt>
<wgt id='morphing_basis_vector_4'> +9.4946637e-05 </wgt>
<wgt id='morphing_basis_vector_5'> +1.5140602e-04 </wgt>
</rwgt>
</event>
<event>
 4      1 +6.0853000e-08 2.08300400e+03 7.81860800e-03 8.03832800e-02
        2 -1    0    0  501    0 +0.0000000000e+00 +0.0000000000e+00 +1.7739217979e+03 1.7739217979e+03 0.0000000000e+00 0.0000e+00 -1.0000e+00
       -2 -1    0    0    0  501 -0.0000000000e+00 -0.0000000000e+00 -6.1148497542e+02 6.1148497542e+02 0.0000000000e+00 0.0000e+00 1.0000e+00
      -13  1    1    2    0    0 -6.9190330265e+02 +5.7689554555e+02 -1.7335169116e+01 9.0102117555e+02 0.0000000000e+00 0.0000e+00 1.0000e+00
       13  1    1    2    0    0 +6.9190330265e+02 -5.7689554555e+02 +1.1797719915e+03 1.4843855977e+03 0.0000000000e+00 0.0000e+00 -1.0000e+00
<mgrwt>
<rscale>  0 0.20830041E+04</rscale>
<asrwt>0</asrwt>
<pdfrwt beam="1">  1        2 0.27291104E+00 0.20830041E+04</pdfrwt>
<pdfrwt beam="2">  1       -2 0.94074612E-01 0.20830041E+04</pdfrwt>
<totfact> 0.10048593E+01</totfact>
</mgrwt>
<rwgt>
<wgt id='morphing_basis_vector_1'> +1.6071499e-04 </wgt>
<wgt id='morphing_basis_vector_2'> +1.0875396e-04 </wgt>
<wgt id='morphing_basis_vector_3'> +1.7229955e-04 </wgt>
<wgt id='morphing_basis_vector_4'> +1.1851333e-04 </wgt>
<wgt id='morphing_basis_vector_5'> +1.9093412e-04 </wgt>
</rwgt>
</event>
<event>
 4      1 +6.0853000e-08 2.16219000e+03 7.81860800e-03 8.00808900e-02
        2 -1    0    0  501    0 +0.0000000000e+00 +0.0000000000e+00 +4.3835644334e+02 4.3835644334e+02 0.0000000000e+00 0.0000e+00 -1.0000e+00
       -2 -1    0    0    0  501 -0.0000000000e+00 -0.0000000000e+00 -2.6662476400e+03 2.6662476400e+03 0.0000000000e+00 0.0000e+00 1.0000e+00
      -13  1    1    2    0    0 -5.6228083769e+02 +8.0149657656e+02 -1.7722690346e+03 2.0247207298e+03 0.0000000000e+00 0.0000e+00 1.0000e+00
       13  1    1    2    0    0 +5.6228083769e+02 -8.0149657656e+02 -4.5562216204e+02 1.0798833535e+03 0.0000000000e+00 0.0000e+00 -1.0000e+00
<mgrwt>
<rscale>  0 0.21621904E+04</rscale>
<asrwt>0</asrwt>
<pdfrwt beam="1">  1        2 0.67439451E-01 0.21621904E+04</pdfrwt>
<pdfrwt beam="2">  1       -2 0.41019196E+00 0.21621904E+04</pdfrwt>
<totfact> 0.35979990E-01</totfact>
</mgrwt>
<rwgt>
<wgt id='morphing_basis_vector_1'> +1.8647418e-04 </wgt>
<wgt id='morphing_basis_vector_2'> +1.2726924e-04 </wgt>
<wgt id='morphing_basis_vector_3'> +2.0057579e-04 </wgt>
<wgt id='morphing_basis_vector_4'> +1.3715598e-04 </wgt>
<wgt id='morphing_basis_vector_5'> +2.2219421e-04 </wgt>
</rwgt>
</event>
<event>
 4      1 +6.0853000e-08 1.95589000e+03 7.81860800e-03 8.08990700e-02
        2 -1    0    0  501    0 +0.0000000000e+00 +0.0000000000e+00 +1.3748133976e+03 1.3748133976e+03 0.0000000000e+00 0.0000e+00 1.0000e+00
       -2 -1    0    0    0  501 -0.0000000000e+00 -0.0000000000e+00 -6.9564060783e+02 6.9564060783e+02 0.0000000000e+00 0.0000e+00 -1.0000e+00
      -13  1    1    2    0    0 +4.7907363018e+02 -6.7391368594e+02 -2.1321313422e+02 8.5389170264e+02 0.0000000000e+00 0.0000e+00 -1.0000e+00
       13  1    1    2    0    0 -4.7907363018e+02 +6.7391368594e+02 +8.9238592395e+02 1.2165623028e+03 0.0000000000e+00 0.0000e+00 1.0000e+00
<mgrwt>
<rscale>  0 0.19558896E+04</rscale>
<asrwt>0</asrwt>
<pdfrwt beam="1">  1        2 0.21150975E+00 0.19558896E+04</pdfrwt>
<pdfrwt beam="2">  1       -2 0.10702163E+00 0.19558896E+04</pdfrwt>
<totfact> 0.12434785E+01</totfact>
</mgrwt>
<rwgt>
<wgt id='morphing_basis_vector_1'> +1.2546951e-04 </wgt>
<wgt id='morphing_basis_vector_2'> +8.4462222e-05 </wgt>
<wgt id='morphing_basis_vector_3'> +1.3385660e-04 </wgt>
<wgt id='morphing_basis_vector_4'> +9.1858927e-05 </wgt>
<wgt id='morphing_basis_vector_5'> +1.4769905e-04 </wgt>
</rwgt>
</event>
<event>
 4      1 +6.0853000e-08 1.91163000e+03 7.81860800e-03 8.10883200e-02
        2 -1    0    0  501    0 +0.0000000000e+00 +0.0000000000e+00 +1.9333373433e+03 1.9333373433e+03 0.0000000000e+00 0.0000e+00 1.0000e+00
       -2 -1    0    0    0  501 -0.0000000000e+00 -0.0000000000e+00 -4.7254164769e+02 4.7254164769e+02 0.0000000000e+00 0.0000e+00 -1.0000e+00
      -13  1    1    2    0    0 -1.4279494198e+02 +9.2423105695e+02 +4.8188959903e+02 1.0520508675e+03 0.0000000000e+00 0.0000e+00 -1.0000e+00
       13  1    1    2    0    0 +1.4279494198e+02 -9.2423105695e+02 +9.7890609659e+02 1.3538281235e+03 0.0000000000e+00 0.0000e+00 1.0000e+00
<mgrwt>
<rscale>  0 0.19116301E+04</rscale>
<asrwt>0</asrwt>
<pdfrwt beam="1">  1        2 0.29743651E+00 0.19116301E+04</pdfrwt>
<pdfrwt beam="2">  1       -2 0.72698716E-01 0.19116301E+04</pdfrwt>
<totfact> 0.14956425E+01</totfact>
</mgrwt>
<rwgt>
<wgt id='morphing_basis_vector_1'> +1.1620834e-04 </wgt>
<wgt id='morphing_basis_vector_2'> +8.1553390e-05 </wgt>
<wgt id='morphing_basis_vector_3'> +1.2430514e-04 </wgt>
<wgt id='morphing_basis_vector_4'> +8.0721448e-05 </wgt>
<wgt id='morphing_basis_vector_5'> +1.3428059e-04 </wgt>
</rwgt>
</event>
<event>
 4      1 +6.0853000e-08 2.09250000e+03 7.81860800e-03 8.03462900e-02
        2 -1    0    0  501    0 +0.0000000000e+00 +0.0000000000e+00 +1.6842194607e+03 1.6842194607e+03 0.0000000000e+00 0.0000e+00 -1.0000e+00
       -2 -1    0    0    0  501 -0.0000000000e+00 -0.0000000000e+00 -6.4993845274e+02 6.4993845274e+02 0.0000000000e+00 0.0000e+00 1.0000e+00
      -13  1    1    2    0    0 +6.0913049176e+02 +3.7314773229e+02 -3.3557655094e+02 7.8923431733e+02 0.0000000000e+00 0.0000e+00 1.0000e+00
       13  1    1    2    0    0 -6.0913049176e+02 -3.7314773229e+02 +1.3698575589e+03 1.5449235961e+03 0.0000000000e+00 0.0000e+00 -1.0000e+00
<mgrwt>
<rscale>  0 0.20924999E+04</rscale>
<asrwt>0</asrwt>
<pdfrwt beam="1">  1        2 0.25911068E+00 0.20924999E+04</pdfrwt>
<pdfrwt beam="2">  1       -2 0.99990532E-01 0.20924999E+04</pdfrwt>
<totfact> 0.97405789E+00</totfact>
</mgrwt>
<rwgt>
<wgt id='morphing_basis_vector_1'> +1.6305123e-04 </wgt>
<wgt id='morphing_basis_vector_2'> +1.0908009e-04 </wgt>
<wgt id='morphing_basis_vector_3'> +1.7463538e-04 </wgt>
<wgt id='morphing_basis_vector_4'> +1.2184903e-04 </wgt>
<wgt id='morphing_basis_vector_5'> +1.9459393e-04 </wgt>
</rwgt>
</event>
<event>
 4      1 +6.0853000e-08 2.17523300e+03 7.81860800e-03 8.00323700e-02
        2 -1    0    0  501    0 +0.0000000000e+00 +0.0000000000e+00 +1.7592319618e+03 1.7592319618e+03 0.0000000000e+00 0.0000e+00 -1.0000e+00
       -2 -1    0    0    0  501 -0.0000000000e+00 -0.0000000000e+00 -6.7240094141e+02 6.7240094141e+02 0.0000000000e+00 0.0000e+00 1.0000e+00
      -13  1    1    2    0    0 -1.2745801776e+02 -8.5596399169e+02 -1.9301509663e+02 8.8666494736e+02 0.0000000000e+00 0.0000e+00 1.0000e+00
       13  1    1    2    0    0 +1.2745801776e+02 +8.5596399169e+02 +1.2798461170e+03 1.5449679559e+03 0.0000000000e+00 0.0000e+00 -1.0000e+00
<mgrwt>
<rscale>  0 0.21752326E+04</rscale>
<asrwt>0</asrwt>
<pdfrwt beam="1">  1        2 0.27065107E+00 0.21752326E+04</pdfrwt>
<pdfrwt beam="2">  1       -2 0.10344630E+00 0.21752326E+04</pdfrwt>
<totfact> 0.80879928E+00</totfact>
</mgrwt>
<rwgt>
<wgt id='morphing_basis_vector_1'> +1.9015865e-04 </wgt>
<wgt id='morphing_basis_vector_2'> +1.2804854e-04 </wgt>
<wgt id='morphing_basis_vector_3'> +2.0430029e-04 </wgt>
<wgt id='morphing_basis_vector_4'> +1.4211585e-04 </wgt>
<wgt id='morphing_basis_vector_5'> +2.2782232e-04 </wgt>
</rwgt>
</event>
<event>
 4      1 +6.0853000e-08 2.01640600e+03 7.81860800e-03 8.06485900e-02
        2 -1    0    0  501    0 +0.0000000000e+00 +0.0000000000e+00 +9.6064976133e+02 9.6064976133e+02 0.0000000000e+00 0.0000e+00 1.0000e+00
       -2 -1    0    0    0  501 -0.0000000000e+00 -0.0000000000e+00 -1.0581102170e+03 1.0581102170e+03 0.0000000000e+00 0.0000e+00 -1.0000e+00
      -13  1    1    2    0    0 +3.2583955001e+02 +4.5210364115e+02 -8.8989210970e+02 1.0499890864e+03 0.0000000000e+00 0.0000e+00 -1.0000e+00
       13  1    1    2    0    0 -3.2583955001e+02 -4.5210364115e+02 +7.9243165404e+02 9.6877089191e+02 0.0000000000e+00 0.0000e+00 1.0000e+00
<mgrwt>
<rscale>  0 0.20164060E+04</rscale>
<asrwt>0</asrwt>
<pdfrwt beam="1">  1        2 0.14779227E+00 0.20164060E+04</pdfrwt>
<pdfrwt beam="2">  1       -2 0.16278619E+00 0.20164060E+04</pdfrwt>
<totfact> 0.69899270E+00</totfact>
</mgrwt>
<rwgt>
<wgt id='morphing_basis_vector_1'> +1.4090537e-04 </wgt>
<wgt id='morphing_basis_vector_2'> +9.3901614e-05 </wgt>
<wgt id='morphing_basis_vector_3'> +1.5048723e-04 </wgt>
<wgt id='morphing_basis_vector_4'> +1.0496250e-04 </wgt>
<wgt id='morphing_basis_vector_5'> +1.6733551e-04 </wgt>
</rwgt>
</event>
<event>
 4      1 +6.0853000e-08 1.89599000e+03 7.81860800e-03 8.11564800e-02
        2 -1    0    0  501    0 +0.0000000000e+00 +0.0000000000e+00 +9.3738933809e+02 9.3738933809e+02 0.0000000000e+00 0.0000e+00 -1.0000e+00
       -2 -1    0    0    0  501 -0.0000000000e+00 -0.0000000000e+00 -9.5872110979e+02 9.5872110979e+02 0.0000000000e+00 0.0000e+00 1.0000e+00
      -13  1    1    2    0    0 +3.2046660944e+02 +2.9374530367e+02 -8.5316195931e+02 9.5753353989e+02 0.0000000000e+00 0.0000e+00 1.0000e+00
       13  1    1    2    0    0 -3.2046660944e+02 -2.9374530367e+02 +8.3183018761e+02 9.3857690799e+02 0.0000000000e+00 0.0000e+00 -1.0000e+00
<mgrwt>
<rscale>  0 0.18959904E+04</rscale>
<asrwt>0</asrwt>
<pdfrwt beam="1">  1        2 0.14421374E+00 0.18959904E+04</pdfrwt>
<pdfrwt beam="2">  1       -2 0.14749556E+00 0.18959904E+04</pdfrwt>
<totfact> 0.97344301E+00</totfact>
</mgrwt>
<rwgt>
<wgt id='morphing_basis_vector_1'> +1.1069693e-04 </wgt>
<wgt id='morphing_basis_vector_2'> +7.3499932e-05 </wgt>
<wgt id='morphing_basis_vector_3'> +1.1765538e-04 </wgt>
<wgt id='morphing_basis_vector_4'> +8.1678628e-05 </wgt>
<wgt id='morphing_basis_vector_5'> +1.3012843e-04 </wgt>
</rwgt>
</event>
<event>
 4      1 +6.0853000e-08 2.17513700e+03 7.81860800e-03 8.00327300e-02
        2 -1    0    0  501    0 +0.0000000000e+00 +0.0000000000e+00 +1.1315802508e+03 1.1315802508e+03 0.0000000000e+00 0.0000e+00 1.0000e+00
       -2 -1    0    0    0  501 -0.0000000000e+00 -0.0000000000e+00 -1.0452689474e+03 1.0452689474e+03 0.0000000000e+00 0.0000e+00 -1.0000e+00
      -13  1    1    2    0    0 -2.6100887412e+02 +9.7725058498e+02 -3.5673528023e+02 1.0725690646e+03 0.0000000000e+00 0.0000e+00 -1.0000e+00
       13  1    1    2    0    0 +2.6100887412e+02 -9.7725058498e+02 +4.4304658358e+02 1.1042801336e+03 0.0000000000e+00 0.0000e+00 1.0000e+00
<mgrwt>
<rscale>  0 0.21751374E+04</rscale>
<asrwt>0</asrwt>
<pdfrwt beam="1">  1        2 0.17408927E+00 0.21751374E+04</pdfrwt>
<pdfrwt beam="2">  1       -2 0.16081061E+00 0.21751374E+04</pdfrwt>
<totfact> 0.56179057E+00</totfact>
</mgrwt>
<rwgt>
<wgt id='morphing_basis_vector_1'> +1.9127575e-04 </wgt>
<wgt id='morphing_basis_vector_2'> +1.3142576e-04 </wgt>
<wgt id='morphing_basis_vector_3'> +2.0597299e-04 </wgt>
<wgt id='morphing_basis_vector_4'> +1.3977361e-04 </wgt>
<wgt id='morphing_basis_vector_5'> +2.2759681e-04 </wgt>
</rwgt>
</event>
<event>
 4      1 +6.0853000e-08 2.07421900e+03 7.81860800e-03 8.04176800e-02
        2 -1    0    0  501    0 +0.0000000000e+00 +0.0000000000e+00 +3.1428946730e+03 3.1428946730e+03 0.0000000000e+00 0.0000e+00 -1.0000e+00
       -2 -1    0    0    0  501 -0.0000000000e+00 -0.0000000000e+00 -3.4223109227e+02 3.4223109227e+02 0.0000000000e+00 0.0000e+00 1.0000e+00
      -13  1    1    2    0    0 +4.3259158492e+01 +9.3927196932e+02 +6.6507275991e+02 1.1517052414e+03 0.0000000000e+00 0.0000e+00 1.0000e+00
       13  1    1    2    0    0 -4.3259158492e+01 -9.3927196932e+02 +2.1355908208e+03 2.3334205238e+03 0.0000000000e+00 0.0000e+00 -1.0000e+00
<mgrwt>
<rscale>  0 0.20742192E+04</rscale>
<asrwt>0</asrwt>
<pdfrwt beam="1">  1        2 0.48352224E+00 0.20742192E+04</pdfrwt>
<pdfrwt beam="2">  1       -2 0.52650939E-01 0.20742192E+04</pdfrwt>
<totfact> 0.53548392E+00</totfact>
</mgrwt>
<rwgt>
<wgt id='morphing_basis_vector_1'> +1.5841343e-04 </wgt>
<wgt id='morphing_basis_vector_2'> +1.0795907e-04 </wgt>
<wgt id='morphing_basis_vector_3'> +1.6991828e-04 </wgt>
<wgt id='morphing_basis_vector_4'> +1.1580568e-04 </wgt>
<wgt id='morphing_basis_vector_5'> +1.8761998e-04 </wgt>
</rwgt>
</event>
<event>
 4      1 +6.0853000e-08 1.93416700e+03 7.81860800e-03 8.09912900e-02
        2 -1    0    0  501    0 +0.0000000000e+00 +0.0000000000e+00 +6.0601484005e+02 6.0601484005e+02 0.0000000000e+00 0.0000e+00 -1.0000e+00
       -2 -1    0    0    0  501 -0.0000000000e+00 -0.0000000000e+00 -1.5432805196e+03 1.5432805196e+03 0.0000000000e+00 0.0000e+00 1.0000e+00
      -13  1    1    2    0    0 -7.5106688141e+02 -5.9882352872e+01 -1.1423354839e+03 1.3684362295e+03 0.0000000000e+00 0.0000e+00 1.0000e+00
       13  1    1    2    0    0 +7.5106688141e+02 +5.9882352872e+01 +2.0506980429e+02 7.8085913017e+02 0.0000000000e+00 0.0000e+00 -1.0000e+00
<mgrwt>
<rscale>  0 0.19341674E+04</rscale>
<asrwt>0</asrwt>
<pdfrwt beam="1">  1        2 0.93233054E-01 0.19341674E+04</pdfrwt>
<pdfrwt beam="2">  1       -2 0.23742777E+00 0.19341674E+04</pdfrwt>
<totfact> 0.35697095E+00</totfact>
</mgrwt>
<rwgt>
<wgt id='morphing_basis_vector_1'> +1.1991250e-04 </wgt>
<wgt id='morphing_basis_vector_2'> +8.0243630e-05 </wgt>
<wgt id='morphing_basis_vector_3'> +1.2774396e-04 </wgt>
<wgt id='morphing_basis_vector_4'> +8.8140144e-05 </wgt>
<wgt id='morphing_basis_vector_5'> +1.4114114e-04 </wgt>
</rwgt>
</event>
<event>
 4      1 +6.0853000e-08 1.90819000e+03 7.81860800e-03 8.11032600e-02
        2 -1    0    0  501    0 +0.0000000000e+00 +0.0000000000e+00 +4.8651380768e+02 4.8651380768e+02 0.0000000000e+00 0.0000e+00 -1.0000e+00
       -2 -1    0    0    0  501 -0.0000000000e+00 -0.0000000000e+00 -1.8710610323e+03 1.8710610323e+03 0.0000000000e+00 0.0000e+00 1.0000e+00
      -13  1    1    2    0    0 +7.4348838498e+02 +3.0372903147e+02 -1.3286126862e+03 1.5524941137e+03 0.0000000000e+00 0.0000e+00 1.0000e+00
       13  1    1    2    0    0 -7.4348838498e+02 -3.0372903147e+02 -5.5934538367e+01 8.0508072623e+02 0.0000000000e+00 0.0000e+00 -1.0000e+00
<mgrwt>
<rscale>  0 0.19081897E+04</rscale>
<asrwt>0</asrwt>
<pdfrwt beam="1">  1        2 0.74848278E-01 0.19081897E+04</pdfrwt>
<pdfrwt beam="2">  1       -2 0.28785554E+00 0.19081897E+04</pdfrwt>
<totfact> 0.20760551E+00</totfact>
</mgrwt>
<rwgt>
<wgt id='morphing_basis_vector_1'> +1.1389965e-04 </wgt>
<wgt id='morphing_basis_vector_2'> +7.6550340e-05 </wgt>
<wgt id='morphing_basis_vector_3'> +1.2126859e-04 </wgt>
<wgt id='morphing_basis_vector_4'> +8.3075841e-05 </wgt>
<wgt id='morphing_basis_vector_5'> +1.3352610e-04 </wgt>
</rwgt>
</event>
<event>
 4      1 +6.0853000e-08 2.19574100e+03 7.81860800e-03 7.99567900e-02
        2 -1    0    0  501    0 +0.0000000000e+00 +0.0000000000e+00 +2.0154770555e+03 2.0154770555e+03 0.0000000000e+00 0.0000e+00 -1.0000e+00
       -2 -1    0    0    0  501 -0.0000000000e+00 -0.0000000000e+00 -5.9803193733e+02 5.9803193733e+02 0.0000000000e+00 0.0000e+00 1.0000e+00
      -13  1    1    2    0    0 +2.1458055702e+02 +6.3400201048e+02 -3.2709085871e+02 7.4497771416e+02 0.0000000000e+00 0.0000e+00 1.0000e+00
       13  1    1    2    0    0 -2.1458055702e+02 -6.3400201048e+02 +1.7445359769e+03 1.8685312787e+03 0.0000000000e+00 0.0000e+00 -1.0000e+00
<mgrwt>
<rscale>  0 0.21957410E+04</rscale>
<asrwt>0</asrwt>
<pdfrwt beam="1">  1        2 0.31007339E+00 0.21957410E+04</pdfrwt>
<pdfrwt beam="2">  1       -2 0.92004914E-01 0.21957410E+04</pdfrwt>
<totfact> 0.76809297E+00</totfact>
</mgrwt>
<rwgt>
<wgt id='morphing_basis_vector_1'> +1.9693416e-04 </wgt>
<wgt id='morphing_basis_vector_2'> +1.3181012e-04 </wgt>
<wgt id='morphing_basis_vector_3'> +2.1155045e-04 </wgt>
<wgt id='morphing_basis_vector_4'> +1.4839296e-04 </wgt>
<wgt id='morphing_basis_vector_5'> +2.3674574e-04 </wgt>
</rwgt>
</event>
<event>
 4      1 +6.0853000e-08 1.96196500e+03 7.81860800e-03 8.08735000e-02
        2 -1    0    0  501    0 +0.0000000000e+00 +0.0000000000e+00 +1.3378107765e+03 1.3378107765e+03 0.0000000000e+00 0.0000e+00 -1.0000e+00
       -2 -1    0    0    0  501 -0.0000000000e+00 -0.0000000000e+00 -7.1932966348e+02 7.1932966348e+02 0.0000000000e+00 0.0000e+00 1.0000e+00
      -13  1    1    2    0    0 +2.3829388459e+02 +8.9400409704e+02 -3.2611804680e+01 9.2579200188e+02 0.0000000000e+00 0.0000e+00 1.0000e+00
       13  1    1    2    0    0 -2.3829388459e+02 -8.9400409704e+02 +6.5109291775e+02 1.1313484381e+03 0.0000000000e+00 0.0000e+00 -1.0000e+00
<mgrwt>
<rscale>  0 0.19619653E+04</rscale>
<asrwt>0</asrwt>
<pdfrwt beam="1">  1        2 0.20581704E+00 0.19619653E+04</pdfrwt>
<pdfrwt beam="2">  1       -2 0.11066610E+00 0.19619653E+04</pdfrwt>
<totfact> 0.11998212E+01</totfact>
</mgrwt>
<rwgt>
<wgt id='morphing_basis_vector_1'> +1.2778806e-04 </wgt>
<wgt id='morphing_basis_vector_2'> +8.7833107e-05 </wgt>
<wgt id='morphing_basis_vector_3'> +1.3666239e-04 </wgt>
<wgt id='morphing_basis_vector_4'> +9.1471396e-05 </wgt>
<wgt id='morphing_basis_vector_5'> +1.4945929e-04 </wgt>
</rwgt>
</event>
<event>
 4      1 +6.0853000e-08 2.14090000e+03 7.81860800e-03 8.01608600e-02
        2 -1    0    0  501    0 +0.0000000000e+00 +0.0000000000e+00 +1.9699839667e+03 1.9699839667e+03 0.0000000000e+00 0.0000e+00 1.0000e+00
       -2 -1    0    0    0  501 -0.0000000000e+00 -0.0000000000e+00 -5.8166105449e+02 5.8166105449e+02 0.0000000000e+00 0.0000e+00 -1.0000e+00
      -13  1    1    2    0    0 -1.3789332554e+02 +1.0439902720e+03 +4.6511192019e+02 1.1511990947e+03 0.0000000000e+00 0.0000e+00 -1.0000e+00
       13  1    1    2    0    0 +1.3789332554e+02 -1.0439902720e+03 +9.2321099205e+02 1.4004459265e+03 0.0000000000e+00 0.0000e+00 1.0000e+00
<mgrwt>
<rscale>  0 0.21408998E+04</rscale>
<asrwt>0</asrwt>
<pdfrwt beam="1">  1        2 0.30307445E+00 0.21408998E+04</pdfrwt>
<pdfrwt beam="2">  1       -2 0.89486317E-01 0.21408998E+04</pdfrwt>
<totfact> 0.87351474E+00</totfact>
</mgrwt>
<rwgt>
<wgt id='morphing_basis_vector_1'> +1.8152412e-04 </wgt>
<wgt id='morphing_basis_vector_2'> +1.2876287e-04 </wgt>
<wgt id='morphing_basis_vector_3'> +1.9600164e-04 </wgt>
<wgt id='morphing_basis_vector_4'> +1.2739719e-04 </wgt>
<wgt id='morphing_basis_vector_5'> +2.1307806e-04 </wgt>
</rwgt>
</event>
<event>
 4      1 +6.0853000e-08 2.08219500e+03 7.81860800e-03 8.03864400e-02
        2 -1    0    0  501    0 +0.0000000000e+00 +0.0000000000e+00 +1.0985466532e+03 1.0985466532e+03 0.0000000000e+00 0.0000e+00 -1.0000e+00
       -2 -1    0    0    0  501 -0.0000000000e+00 -0.0000000000e+00 -9.8665225535e+02 9.8665225535e+02 0.0000000000e+00 0.0000e+00 1.0000e+00
      -13  1    1    2    0    0 -4.8108184861e+02 -9.2319904991e+02 +6.8101521379e+01 1.0432516705e+03 0.0000000000e+00 0.0000e+00 1.0000e+00
       13  1    1    2    0    0 +4.8108184861e+02 +9.2319904991e+02 +4.3792876468e+01 1.0419472380e+03 0.0000000000e+00 0.0000e+00 -1.0000e+00
<mgrwt>
<rscale>  0 0.20821945E+04</rscale>
<asrwt>0</asrwt>
<pdfrwt beam="1">  1        2 0.16900718E+00 0.20821945E+04</pdfrwt>
<pdfrwt beam="2">  1       -2 0.15179265E+00 0.20821945E+04</pdfrwt>
<totfact> 0.70142495E+00</totfact>
</mgrwt>
<rwgt>
<wgt id='morphing_basis_vector_1'> +1.6586074e-04 </wgt>
<wgt id='morphing_basis_vector_2'> +1.2453593e-04 </wgt>
<wgt id='morphing_basis_vector_3'> +1.7996087e-04 </wgt>
<wgt id='morphing_basis_vector_4'> +1.0753152e-04 </wgt>
<wgt id='morphing_basis_vector_5'> +1.8977522e-04 </wgt>
</rwgt>
</event>
<event>
 4      1 +6.0853000e-08 2.03116500e+03 7.81860800e-03 8.05888800e-02
        2 -1    0    0  501    0 +0.0000000000e+00 +0.0000000000e+00 +2.2056247767e+03 2.2056247767e+03 0.0000000000e+00 0.0000e+00 -1.0000e+00
       -2 -1    0    0    0  501 -0.0000000000e+00 -0.0000000000e+00 -4.6762614682e+02 4.6762614682e+02 0.0000000000e+00 0.0000e+00 1.0000e+00
      -13  1    1    2    0    0 -7.0282557956e+02 +3.7130154992e+02 +3.7051766744e+01 7.9573957403e+02 0.0000000000e+00 0.0000e+00 1.0000e+00
       13  1    1    2    0    0 +7.0282557956e+02 -3.7130154992e+02 +1.7009468632e+03 1.8775113495e+03 0.0000000000e+00 0.0000e+00 -1.0000e+00
<mgrwt>
<rscale>  0 0.20311650E+04</rscale>
<asrwt>0</asrwt>
<pdfrwt beam="1">  1        2 0.33932688E+00 0.20311650E+04</pdfrwt>
<pdfrwt beam="2">  1       -2 0.71942485E-01 0.20311650E+04</pdfrwt>
<totfact> 0.10620254E+01</totfact>
</mgrwt>
<rwgt>
<wgt id='morphing_basis_vector_1'> +1.4526097e-04 </wgt>
<wgt id='morphing_basis_vector_2'> +9.7451535e-05 </wgt>
<wgt id='morphing_basis_vector_3'> +1.5532628e-04 </wgt>
<wgt id='morphing_basis_vector_4'> +1.0759455e-04 </wgt>
<wgt id='morphing_basis_vector_5'> +1.7234539e-04 </wgt>
</rwgt>
</event>
<event>
 4      1 +6.0853000e-08 2.18311100e+03 7.81860800e-03 8.00032400e-02
        2 -1    0    0  501    0 +0.0000000000e+00 +0.0000000000e+00 +1.2526054640e+03 1.2526054640e+03 0.0000000000e+00 0.0000e+00 1.0000e+00
       -2 -1    0    0    0  501 -0.0000000000e+00 -0.0000000000e+00 -9.5121232511e+02 9.5121232511e+02 0.0000000000e+00 0.0000e+00 -1.0000e+00
      -13  1    1    2    0    0 +1.9152299139e+02 -6.3639460677e+02 -7.2343489053e+02 9.8236306557e+02 0.0000000000e+00 0.0000e+00 -1.0000e+00
       13  1    1    2    0    0 -1.9152299139e+02 +6.3639460677e+02 +1.0248280294e+03 1.2214547235e+03 0.0000000000e+00 0.0000e+00 1.0000e+00
<mgrwt>
<rscale>  0 0.21831113E+04</rscale>
<asrwt>0</asrwt>
<pdfrwt beam="1">  1        2 0.19270853E+00 0.21831113E+04</pdfrwt>
<pdfrwt beam="2">  1       -2 0.14634036E+00 0.21831113E+04</pdfrwt>
<totfact> 0.62632058E+00</totfact>
</mgrwt>
<rwgt>
<wgt id='morphing_basis_vector_1'> +1.9251651e-04 </wgt>
<wgt id='morphing_basis_vector_2'> +1.2882243e-04 </wgt>
<wgt id='morphing_basis_vector_3'> +2.0673041e-04 </wgt>
<wgt id='morphing_basis_vector_4'> +1.4495522e-04 </wgt>
<wgt id='morphing_basis_vector_5'> +2.3125624e-04 </wgt>
</rwgt>
</event>
<event>
 4      1 +6.0853000e-08 1.87225700e+03 7.81860800e-03 8.12612200e-02
        2 -1    0    0  501    0 +0.0000000000e+00 +0.0000000000e+00 +3.5109649221e+03 3.5109649221e+03 0.0000000000e+00 0.0000e+00 -1.0000e+00
       -2 -1    0    0    0  501 -0.0000000000e+00 -0.0000000000e+00 -2.4959999965e+02 2.4959999965e+02 0.0000000000e+00 0.0000e+00 1.0000e+00
      -13  1    1    2    0    0 +7.9476753715e+02 +3.2711876118e+02 +2.3759542169e+03 2.5266223625e+03 0.0000000000e+00 0.0000e+00 1.0000e+00
       13  1    1    2    0    0 -7.9476753715e+02 -3.2711876118e+02 +8.8541070563e+02 1.2339425593e+03 0.0000000000e+00 0.0000e+00 -1.0000e+00
<mgrwt>
<rscale>  0 0.18722573E+04</rscale>
<asrwt>0</asrwt>
<pdfrwt beam="1">  1        2 0.54014841E+00 0.18722573E+04</pdfrwt>
<pdfrwt beam="2">  1       -2 0.38400003E-01 0.18722573E+04</pdfrwt>
<totfact> 0.55409450E+00</totfact>
</mgrwt>
<rwgt>
<wgt id='morphing_basis_vector_1'> +1.1976729e-04 </wgt>
<wgt id='morphing_basis_vector_2'> +1.1258071e-04 </wgt>
<wgt id='morphing_basis_vector_3'> +1.3244223e-04 </wgt>
<wgt id='morphing_basis_vector_4'> +4.9278553e-05 </wgt>
<wgt id='morphing_basis_vector_5'> +1.2138305e-04 </wgt>
</rwgt>
</event>
<event>
 4      1 +6.0853000e-08 2.02575900e+03 7.81860800e-03 8.06106900e-02
        2 -1    0    0  501    0 +0.0000000000e+00 +0.0000000000e+00 +1.0286250521e+03 1.0286250521e+03 0.0000000000e+00 0.0000e+00 -1.0000e+00
       -2 -1    0    0    0  501 -0.0000000000e+00 -0.0000000000e+00 -9.9737471275e+02 9.9737471275e+02 0.0000000000e+00 0.0000e+00 1.0000e+00
      -13  1    1    2    0    0 -6.9885002632e+02 -4.6884549852e+02 -5.4810594028e+02 1.0043045268e+03 0.0000000000e+00 0.0000e+00 1.0000e+00
       13  1    1    2    0    0 +6.9885002632e+02 +4.6884549852e+02 +5.7935627967e+02 1.0216952381e+03 0.0000000000e+00 0.0000e+00 -1.0000e+00
<mgrwt>
<rscale>  0 0.20257587E+04</rscale>
<asrwt>0</asrwt>
<pdfrwt beam="1">  1        2 0.15825001E+00 0.20257587E+04</pdfrwt>
<pdfrwt beam="2">  1       -2 0.15344226E+00 0.20257587E+04</pdfrwt>
<totfact> 0.75347668E+00</totfact>
</mgrwt>
<rwgt>
<wgt id='morphing_basis_vector_1'> +1.4390572e-04 </wgt>
<wgt id='morphing_basis_vector_2'> +9.6885679e-05 </wgt>
<wgt id='morphing_basis_vector_3'> +1.5390812e-04 </wgt>
<wgt id='morphing_basis_vector_4'> +1.0612301e-04 </wgt>
<wgt id='morphing_basis_vector_5'> +1.7045778e-04 </wgt>
</rwgt>
</event>
<event>
 4      1 +6.0853000e-08 1.98450300e+03 7.81860800e-03 8.07794800e-02
        2 -1    0    0  501    0 +0.0000000000e+00 +0.0000000000e+00 +2.3556177218e+03 2.3556177218e+03 0.0000000000e+00 0.0000e+00 -1.0000e+00
       -2 -1    0    0    0  501 -0.0000000000e+00 -0.0000000000e+00 -4.1796403517e+02 4.1796403517e+02 0.0000000000e+00 0.0000e+00 1.0000e+00
      -13  1    1    2    0    0 -6.0374957794e+02 -7.5253417939e+02 +1.2928283372e+03 1.6131417649e+03 0.0000000000e+00 0.0000e+00 -1.0000e+00
       13  1    1    2    0    0 +6.0374957794e+02 +7.5253417939e+02 +6.4482534936e+02 1.1604399921e+03 0.0000000000e+00 0.0000e+00 1.0000e+00
<mgrwt>
<rscale>  0 0.19845035E+04</rscale>
<asrwt>0</asrwt>
<pdfrwt beam="1">  1        2 0.36240272E+00 0.19845035E+04</pdfrwt>
<pdfrwt beam="2">  1       -2 0.64302161E-01 0.19845035E+04</pdfrwt>
<totfact> 0.11088533E+01</totfact>
</mgrwt>
<rwgt>
<wgt id='morphing_basis_vector_1'> +1.4315654e-04 </wgt>
<wgt id='morphing_basis_vector_2'> +1.2009412e-04 </wgt>
<wgt id='morphing_basis_vector_3'> +1.5687582e-04 </wgt>
<wgt id='morphing_basis_vector_4'> +7.6914679e-05 </wgt>
<wgt id='morphing_basis_vector_5'> +1.5510281e-04 </wgt>
</rwgt>
</event>
<event>
 4      1 +6.0853000e-08 2.18318100e+03 7.81860800e-03 8.00029800e-02
        2 -1    0    0  501    0 +0.0000000000e+00 +0.0000000000e+00 +1.3861984480e+03 1.3861984480e+03 0.0000000000e+00 0.0000e+00 -1.0000e+00
       -2 -1    0    0    0  501 -0.0000000000e+00 -0.0000000000e+00 -8.5959575439e+02 8.5959575439e+02 0.0000000000e+00 0.0000e+00 1.0000e+00
      -13  1    1    2    0    0 -9.1124793434e+01 -5.4114486284e+02 -7.0738680191e+02 8.9528631067e+02 0.0000000000e+00 0.0000e+00 1.0000e+00
       13  1    1    2    0    0 +9.1124793434e+01 +5.4114486284e+02 +1.2339894955e+03 1.3505078917e+03 0.0000000000e+00 0.0000e+00 -1.0000e+00
<mgrwt>
<rscale>  0 0.21831814E+04</rscale>
<asrwt>0</asrwt>
<pdfrwt beam="1">  1        2 0.21326130E+00 0.21831814E+04</pdfrwt>
<pdfrwt beam="2">  1       -2 0.13224550E+00 0.21831814E+04</pdfrwt>
<totfact> 0.69514506E+00</totfact>
</mgrwt>
<rwgt>
<wgt id='morphing_basis_vector_1'> +1.9247839e-04 </wgt>
<wgt id='morphing_basis_vector_2'> +1.2865427e-04 </wgt>
<wgt id='morphing_basis_vector_3'> +2.0666409e-04 </wgt>
<wgt id='morphing_basis_vector_4'> +1.4510003e-04 </wgt>
<wgt id='morphing_basis_vector_5'> +2.3129651e-04 </wgt>
</rwgt>
</event>
<event>
 4      1 +6.0853000e-08 1.90572900e+03 7.81860800e-03 8.11139600e-02
        2 -1    0    0  501    0 +0.0000000000e+00 +0.0000000000e+00 +2.9494069078e+03 2.9494069078e+03 0.0000000000e+00 0.0000e+00 1.0000e+00
       -2 -1    0    0    0  501 -0.0000000000e+00 -0.0000000000e+00 -3.0784171552e+02 3.0784171552e+02 0.0000000000e+00 0.0000e+00 -1.0000e+00
      -13  1    1    2    0    0 -7.3256003263e+01 +7.2369841813e+02 +2.6877129507e+02 7.7546363646e+02 0.0000000000e+00 0.0000e+00 -1.0000e+00
       13  1    1    2    0    0 +7.3256003263e+01 -7.2369841813e+02 +2.3727938972e+03 2.4817849868e+03 0.0000000000e+00 0.0000e+00 1.0000e+00
<mgrwt>
<rscale>  0 0.19057287E+04</rscale>
<asrwt>0</asrwt>
<pdfrwt beam="1">  1        2 0.45375489E+00 0.19057287E+04</pdfrwt>
<pdfrwt beam="2">  1       -2 0.47360266E-01 0.19057287E+04</pdfrwt>
<totfact> 0.89663117E+00</totfact>
</mgrwt>
<rwgt>
<wgt id='morphing_basis_vector_1'> +1.1313199e-04 </wgt>
<wgt id='morphing_basis_vector_2'> +7.5584565e-05 </wgt>
<wgt id='morphing_basis_vector_3'> +1.2036636e-04 </wgt>
<wgt id='morphing_basis_vector_4'> +8.3022084e-05 </wgt>
<wgt id='morphing_basis_vector_5'> +1.3285336e-04 </wgt>
</rwgt>
</event>
<event>
 4      1 +6.0853000e-08 1.91609500e+03 7.81860800e-03 8.10689900e-02
        2 -1    0    0  501    0 +0.0000000000e+00 +0.0000000000e+00 +1.9341858403e+03 1.9341858403e+03 0.0000000000e+00 0.0000e+00 -1.0000e+00
       -2 -1    0    0    0  501 -0.0000000000e+00 -0.0000000000e+00 -4.7454310448e+02 4.7454310448e+02 0.0000000000e+00 0.0000e+00 1.0000e+00
      -13  1    1    2    0    0 +3.7665527536e+02 -2.4781347752e+02 -3.3283918164e+02 5.6041291646e+02 0.0000000000e+00 0.0000e+00 1.0000e+00
       13  1    1    2    0    0 -3.7665527536e+02 +2.4781347752e+02 +1.7924819174e+03 1.8483160283e+03 0.0000000000e+00 0.0000e+00 -1.0000e+00
<mgrwt>
<rscale>  0 0.19160945E+04</rscale>
<asrwt>0</asrwt>
<pdfrwt beam="1">  1        2 0.29756705E+00 0.19160945E+04</pdfrwt>
<pdfrwt beam="2">  1       -2 0.73006633E-01 0.19160945E+04</pdfrwt>
<totfact> 0.14797643E+01</totfact>
</mgrwt>
<rwgt>
<wgt id='morphing_basis_vector_1'> +1.1536117e-04 </wgt>
<wgt id='morphing_basis_vector_2'> +7.6642778e-05 </wgt>
<wgt id='morphing_basis_vector_3'> +1.2271840e-04 </wgt>
<wgt id='morphing_basis_vector_4'> +8.5271680e-05 </wgt>
<wgt id='morphing_basis_vector_5'> +1.3586321e-04 </wgt>
</rwgt>
</event>
<event>
 4      1 +6.0853000e-08 2.04782700e+03 7.81860800e-03 8.05221100e-02
        2 -1    0    0  501    0 +0.0000000000e+00 +0.0000000000e+00 +1.0681567184e+03 1.0681567184e+03 0.0000000000e+00 0.0000e+00 -1.0000e+00
       -2 -1    0    0    0  501 -0.0000000000e+00 -0.0000000000e+00 -9.8150239150e+02 9.8150239150e+02 0.0000000000e+00 0.0000e+00 1.0000e+00
      -13  1    1    2    0    0 -9.5717265072e+01 +2.0653249627e+02 -9.5585518549e+02 9.8258668954e+02 0.0000000000e+00 0.0000e+00 1.0000e+00
       13  1    1    2    0    0 +9.5717265072e+01 -2.0653249627e+02 +1.0425095124e+03 1.0670724204e+03 0.0000000000e+00 0.0000e+00 -1.0000e+00
<mgrwt>
<rscale>  0 0.20478265E+04</rscale>
<asrwt>0</asrwt>
<pdfrwt beam="1">  1        2 0.16433180E+00 0.20478265E+04</pdfrwt>
<pdfrwt beam="2">  1       -2 0.15100037E+00 0.20478265E+04</pdfrwt>
<totfact> 0.74498778E+00</totfact>
</mgrwt>
<rwgt>
<wgt id='morphing_basis_vector_1'> +1.4966481e-04 </wgt>
<wgt id='morphing_basis_vector_2'> +9.9696261e-05 </wgt>
<wgt id='morphing_basis_vector_3'> +1.6000033e-04 </wgt>
<wgt id='morphing_basis_vector_4'> +1.1188795e-04 </wgt>
<wgt id='morphing_basis_vector_5'> +1.7823457e-04 </wgt>
</rwgt>
</event>
<event>
 4      1 +6.0853000e-08 1.94635600e+03 7.81860800e-03 8.09393900e-02
        2 -1    0    0  501    0 +0.0000000000e+00 +0.0000000000e+00 +1.5801823495e+03 1.5801823495e+03 0.0000000000e+00 0.0000e+00 1.0000e+00
       -2 -1    0    0    0  501 -0.0000000000e+00 -0.0000000000e+00 -5.9934550010e+02 5.9934550010e+02 0.0000000000e+00 0.0000e+00 -1.0000e+00
      -13  1    1    2    0    0 +8.5506194422e+02 -3.7574400195e+02 +1.8423838829e+02 9.5197598035e+02 0.0000000000e+00 0.0000e+00 -1.0000e+00
       13  1    1    2    0    0 -8.5506194422e+02 +3.7574400195e+02 +7.9659846110e+02 1.2275518692e+03 0.0000000000e+00 0.0000e+00 1.0000e+00
<mgrwt>
<rscale>  0 0.19463558E+04</rscale>
<asrwt>0</asrwt>
<pdfrwt beam="1">  1        2 0.24310498E+00 0.19463558E+04</pdfrwt>
<pdfrwt beam="2">  1       -2 0.92207001E-01 0.19463558E+04</pdfrwt>
<totfact> 0.13663040E+01</totfact>
</mgrwt>
<rwgt>
<wgt id='morphing_basis_vector_1'> +1.2415244e-04 </wgt>
<wgt id='morphing_basis_vector_2'> +8.5983778e-05 </wgt>
<wgt id='morphing_basis_vector_3'> +1.3280216e-04 </wgt>
<wgt id='morphing_basis_vector_4'> +8.7944535e-05 </wgt>
<wgt id='morphing_basis_vector_5'> +1.4461525e-04 </wgt>
</rwgt>
</event>
<event>
 4      1 +6.0853000e-08 2.12176600e+03 7.81860800e-03 8.02335500e-02
        2 -1    0    0  501    0 +0.0000000000e+00 +0.0000000000e+00 +1.7693718381e+03 1.7693718381e+03 0.0000000000e+00 0.0000e+00 1.0000e+00
       -2 -1    0    0    0  501 -0.0000000000e+00 -0.0000000000e+00 -6.3608621878e+02 6.3608621878e+02 0.0000000000e+00 0.0000e+00 -1.0000e+00
      -13  1    1    2    0    0 +4.0985814766e+02 -3.3277056334e+02 +1.6098693815e+03 1.6942253021e+03 0.0000000000e+00 0.0000e+00 1.0000e+00
       13  1    1    2    0    0 -4.0985814766e+02 +3.3277056334e+02 -4.7658376217e+02 7.1123275472e+02 0.0000000000e+00 0.0000e+00 -1.0000e+00
<mgrwt>
<rscale>  0 0.21217663E+04</rscale>
<asrwt>0</asrwt>
<pdfrwt beam="1">  1        2 0.27221105E+00 0.21217663E+04</pdfrwt>
<pdfrwt beam="2">  1       -2 0.97859419E-01 0.21217663E+04</pdfrwt>
<totfact> 0.91741312E+00</totfact>
</mgrwt>
<rwgt>
<wgt id='morphing_basis_vector_1'> +2.3289299e-04 </wgt>
<wgt id='morphing_basis_vector_2'> +2.9480039e-04 </wgt>
<wgt id='morphing_basis_vector_3'> +2.7427803e-04 </wgt>
<wgt id='morphing_basis_vector_4'> +7.0495853e-06 </wgt>
<wgt id='morphing_basis_vector_5'> +1.9621942e-04 </wgt>
</rwgt>
</event>
<event>
 4      1 +6.0853000e-08 2.14242500e+03 7.81860800e-03 8.01551000e-02
        2 -1    0    0  501    0 +0.0000000000e+00 +0.0000000000e+00 +1.7571625630e+03 1.7571625630e+03 0.0000000000e+00 0.0000e+00 -1.0000e+00
       -2 -1    0    0    0  501 -0.0000000000e+00 -0.0000000000e+00 -6.5303927244e+02 6.5303927244e+02 0.0000000000e+00 0.0000e+00 1.0000e+00
      -13  1    1    2    0    0 +8.4000129005e+02 +6.6469769516e+02 +5.4258443516e+02 1.2007593691e+03 0.0000000000e+00 0.0000e+00 1.0000e+00
       13  1    1    2    0    0 -8.4000129005e+02 -6.6469769516e+02 +5.6153885539e+02 1.2094424663e+03 0.0000000000e+00 0.0000e+00 -1.0000e+00
<mgrwt>
<rscale>  0 0.21424249E+04</rscale>
<asrwt>0</asrwt>
<pdfrwt beam="1">  1        2 0.27033270E+00 0.21424249E+04</pdfrwt>
<pdfrwt beam="2">  1       -2 0.10046758E+00 0.21424249E+04</pdfrwt>
<totfact> 0.87322755E+00</totfact>
</mgrwt>
<rwgt>
<wgt id='morphing_basis_vector_1'> +1.8505569e-04 </wgt>
<wgt id='morphing_basis_vector_2'> +1.3806658e-04 </wgt>
<wgt id='morphing_basis_vector_3'> +2.0103665e-04 </wgt>
<wgt id='morphing_basis_vector_4'> +1.2168839e-04 </wgt>
<wgt id='morphing_basis_vector_5'> +2.1321223e-04 </wgt>
</rwgt>
</event>
<event>
 4      1 +6.0853000e-08 1.98014800e+03 7.81860800e-03 8.07975500e-02
        2 -1    0    0  501    0 +0.0000000000e+00 +0.0000000000e+00 +2.2310083706e+03 2.2310083706e+03 0.0000000000e+00 0.0000e+00 -1.0000e+00
       -2 -1    0    0    0  501 -0.0000000000e+00 -0.0000000000e+00 -4.3937361858e+02 4.3937361858e+02 0.0000000000e+00 0.0000e+00 1.0000e+00
      -13  1    1    2    0    0 -6.7654435408e+02 +3.2376275981e+02 +2.4223657987e+01 7.5041413451e+02 0.0000000000e+00 0.0000e+00 1.0000e+00
       13  1    1    2    0    0 +6.7654435408e+02 -3.2376275981e+02 +1.7674110941e+03 1.9199678547e+03 0.0000000000e+00 0.0000e+00 -1.0000e+00
<mgrwt>
<rscale>  0 0.19801477E+04</rscale>
<asrwt>0</asrwt>
<pdfrwt beam="1">  1        2 0.34323205E+00 0.19801477E+04</pdfrwt>
<pdfrwt beam="2">  1       -2 0.67595943E-01 0.19801477E+04</pdfrwt>
<totfact> 0.11789524E+01</totfact>
</mgrwt>
<rwgt>
<wgt id='morphing_basis_vector_1'> +1.3142303e-04 </wgt>
<wgt id='morphing_basis_vector_2'> +8.7943848e-05 </wgt>
<wgt id='morphing_basis_vector_3'> +1.4024461e-04 </wgt>
<wgt id='morphing_basis_vector_4'> +9.7098781e-05 </wgt>
<wgt id='morphing_basis_vector_5'> +1.5536273e-04 </wgt>
</rwgt>
</event>
<event>
 4      1 +6.0853000e-08 2.07169100e+03 7.81860800e-03 8.04276100e-02
        2 -1    0    0  501    0 +0.0000000000e+00 +0.0000000000e+00 +3.1609634245e+03 3.1609634245e+03 0.0000000000e+00 0.0000e+00 -1.0000e+00
       -2 -1    0    0    0  501 -0.0000000000e+00 -0.0000000000e+00 -3.3944586775e+02 3.3944586775e+02 0.0000000000e+00 0.0000e+00 1.0000e+00
      -13  1    1    2    0    0 +5.6624283656e+02 +8.5088575912e+02 +1.6951930092e+03 1.9794738855e+03 0.0000000000e+00 0.0000e+00 1.0000e+00
       13  1    1    2    0    0 -5.6624283656e+02 -8.5088575912e+02 +1.1263245475e+03 1.5209354067e+03 0.0000000000e+00 0.0000e+00 -1.0000e+00
<mgrwt>
<rscale>  0 0.20716911E+04</rscale>
<asrwt>0</asrwt>
<pdfrwt beam="1">  1        2 0.48630204E+00 0.20716911E+04</pdfrwt>
<pdfrwt beam="2">  1       -2 0.52222443E-01 0.20716911E+04</pdfrwt>
<totfact> 0.52941898E+00</totfact>
</mgrwt>
<rwgt>
<wgt id='morphing_basis_vector_1'> +1.6673944e-04 </wgt>
<wgt id='morphing_basis_vector_2'> +1.3431230e-04 </wgt>
<wgt id='morphing_basis_vector_3'> +1.8243409e-04 </wgt>
<wgt id='morphing_basis_vector_4'> +9.7059511e-05 </wgt>
<wgt id='morphing_basis_vector_5'> +1.8524858e-04 </wgt>
</rwgt>
</event>
<event>
 4      1 +6.0853000e-08 2.15826300e+03 7.81860800e-03 8.00955700e-02
        2 -1    0    0  501    0 +0.0000000000e+00 +0.0000000000e+00 +2.0175014416e+03 2.0175014416e+03 0.0000000000e+00 0.0000e+00 -1.0000e+00
       -2 -1    0    0    0  501 -0.0000000000e+00 -0.0000000000e+00 -5.7721113794e+02 5.7721113794e+02 0.0000000000e+00 0.0000e+00 1.0000e+00
      -13  1    1    2    0    0 +8.3329415321e+02 +6.2479130679e+02 +3.8057096676e+02 1.1088631942e+03 0.0000000000e+00 0.0000e+00 1.0000e+00
       13  1    1    2    0    0 -8.3329415321e+02 -6.2479130679e+02 +1.0597193369e+03 1.4858493853e+03 0.0000000000e+00 0.0000e+00 -1.0000e+00
<mgrwt>
<rscale>  0 0.21582625E+04</rscale>
<asrwt>0</asrwt>
<pdfrwt beam="1">  1        2 0.31038483E+00 0.21582625E+04</pdfrwt>
<pdfrwt beam="2">  1       -2 0.88801714E-01 0.21582625E+04</pdfrwt>
<totfact> 0.83497287E+00</totfact>
</mgrwt>
<rwgt>
<wgt id='morphing_basis_vector_1'> +1.8641135e-04 </wgt>
<wgt id='morphing_basis_vector_2'> +1.3009479e-04 </wgt>
<wgt id='morphing_basis_vector_3'> +2.0100027e-04 </wgt>
<wgt id='morphing_basis_vector_4'> +1.3359903e-04 </wgt>
<wgt id='morphing_basis_vector_5'> +2.2035337e-04 </wgt>
</rwgt>
</event>
<event>
 4      1 +6.0853000e-08 2.04124800e+03 7.81860800e-03 8.05484000e-02
        2 -1    0    0  501    0 +0.0000000000e+00 +0.0000000000e+00 +1.9996401334e+03 1.9996401334e+03 0.0000000000e+00 0.0000e+00 1.0000e+00
       -2 -1    0    0    0  501 -0.0000000000e+00 -0.0000000000e+00 -5.2093016140e+02 5.2093016140e+02 0.0000000000e+00 0.0000e+00 -1.0000e+00
      -13  1    1    2    0    0 -2.5163282600e+02 -7.1322549619e+02 -1.0689056126e+02 7.6382935243e+02 0.0000000000e+00 0.0000e+00 -1.0000e+00
       13  1    1    2    0    0 +2.5163282600e+02 +7.1322549619e+02 +1.5856005332e+03 1.7567409423e+03 0.0000000000e+00 0.0000e+00 1.0000e+00
<mgrwt>
<rscale>  0 0.20412475E+04</rscale>
<asrwt>0</asrwt>
<pdfrwt beam="1">  1        2 0.30763694E+00 0.20412475E+04</pdfrwt>
<pdfrwt beam="2">  1       -2 0.80143103E-01 0.20412475E+04</pdfrwt>
<totfact> 0.10930338E+01</totfact>
</mgrwt>
<rwgt>
<wgt id='morphing_basis_vector_1'> +1.4801736e-04 </wgt>
<wgt id='morphing_basis_vector_2'> +9.9111698e-05 </wgt>
<wgt id='morphing_basis_vector_3'> +1.5829375e-04 </wgt>
<wgt id='morphing_basis_vector_4'> +1.0997176e-04 </wgt>
<wgt id='morphing_basis_vector_5'> +1.7587519e-04 </wgt>
</rwgt>
</event>
<event>
 4      1 +6.0853000e-08 1.96989400e+03 7.81860800e-03 8.08402800e-02
        2 -1    0    0  501    0 +0.0000000000e+00 +0.0000000000e+00 +2.5551379285e+03 2.5551379285e+03 0.0000000000e+00 0.0000e+00 -1.0000e+00
       -2 -1    0    0    0  501 -0.0000000000e+00 -0.0000000000e+00 -3.7967447615e+02 3.7967447615e+02 0.0000000000e+00 0.0000e+00 1.0000e+00
      -13  1    1    2    0    0 -5.3604642366e+02 -3.8281232383e+01 -1.4199801308e+02 5.5585488825e+02 0.0000000000e+00 0.0000e+00 1.0000e+00
       13  1    1    2    0    0 +5.3604642366e+02 +3.8281232383e+01 +2.3174614654e+03 2.3789575164e+03 0.0000000000e+00 0.0000e+00 -1.0000e+00
<mgrwt>
<rscale>  0 0.19698941E+04</rscale>
<asrwt>0</asrwt>
<pdfrwt beam="1">  1        2 0.39309813E+00 0.19698941E+04</pdfrwt>
<pdfrwt beam="2">  1       -2 0.58411459E-01 0.19698941E+04</pdfrwt>
<totfact> 0.10315246E+01</totfact>
</mgrwt>
<rwgt>
<wgt id='morphing_basis_vector_1'> +1.2858870e-04 </wgt>
<wgt id='morphing_basis_vector_2'> +8.5593672e-05 </wgt>
<wgt id='morphing_basis_vector_3'> +1.3709354e-04 </wgt>
<wgt id='morphing_basis_vector_4'> +9.5438000e-05 </wgt>
<wgt id='morphing_basis_vector_5'> +1.5213379e-04 </wgt>
</rwgt>
</event>
<event>
 4      1 +6.0853000e-08 2.11994800e+03 7.81860800e-03 8.02405000e-02
        2 -1    0    0  501    0 +0.0000000000e+00 +0.0000000000e+00 +1.6602054127e+03 1.6602054127e+03 0.0000000000e+00 0.0000e+00 -1.0000e+00
       -2 -1    0    0    0  501 -0.0000000000e+00 -0.0000000000e+00 -6.7675055638e+02 6.7675055638e+02 0.0000000000e+00 0.0000e+00 1.0000e+00
      -13  1    1    2    0    0 -6.2949651524e+02 -6.7369833608e+02 +1.0681383631e+03 1.4110474384e+03 0.0000000000e+00 0.0000e+00 1.0000e+00
       13  1    1    2    0    0 +6.2949651524e+02 +6.7369833608e+02 -8.4683506832e+01 9.2590853061e+02 0.0000000000e+00 0.0000e+00 -1.0000e+00
<mgrwt>
<rscale>  0 0.21199481E+04</rscale>
<asrwt>0</asrwt>
<pdfrwt beam="1">  1        2 0.25541622E+00 0.21199481E+04</pdfrwt>
<pdfrwt beam="2">  1       -2 0.10411547E+00 0.21199481E+04</pdfrwt>
<totfact> 0.90814136E+00</totfact>
</mgrwt>
<rwgt>
<wgt id='morphing_basis_vector_1'> +2.0240992e-04 </wgt>
<wgt id='morphing_basis_vector_2'> +2.0596155e-04 </wgt>
<wgt id='morphing_basis_vector_3'> +2.2945701e-04 </wgt>
<wgt id='morphing_basis_vector_4'> +6.6655071e-05 </wgt>
<wgt id='morphing_basis_vector_5'> +2.0028119e-04 </wgt>
</rwgt>
</event>
<event>
 4      1 +6.0853000e-08 2.00689000e+03 7.81860800e-03 8.06873600e-02
        2 -1    0    0  501    0 +0.0000000000e+00 +0.0000000000e+00 +1.0736660126e+03 1.0736660126e+03 0.0000000000e+00 0.0000e+00 -1.0000e+00
       -2 -1    0    0    0  501 -0.0000000000e+00 -0.0000000000e+00 -9.3781711410e+02 9.3781711410e+02 0.0000000000e+00 0.0000e+00 1.0000e+00
      -13  1    1    2    0    0 -4.0643859840e+02 +7.5568366450e+02 -4.5350855975e+02 9.7052570746e+02 0.0000000000e+00 0.0000e+00 1.0000e+00
       13  1    1    2    0    0 +4.0643859840e+02 -7.5568366450e+02 +5.8935745824e+02 1.0409574192e+03 0.0000000000e+00 0.0000e+00 -1.0000e+00
<mgrwt>
<rscale>  0 0.20068905E+04</rscale>
<asrwt>0</asrwt>
<pdfrwt beam="1">  1        2 0.16517939E+00 0.20068905E+04</pdfrwt>
<pdfrwt beam="2">  1       -2 0.14427956E+00 0.20068905E+04</pdfrwt>
<totfact> 0.84399944E+00</totfact>
</mgrwt>
<rwgt>
<wgt id='morphing_basis_vector_1'> +1.3882845e-04 </wgt>
<wgt id='morphing_basis_vector_2'> +9.3671593e-05 </wgt>
<wgt id='morphing_basis_vector_3'> +1.4841712e-04 </wgt>
<wgt id='morphing_basis_vector_4'> +1.0193869e-04 </wgt>
<wgt id='morphing_basis_vector_5'> +1.6405681e-04 </wgt>
</rwgt>
</event>
<event>
 4      1 +6.0853000e-08 1.98293300e+03 7.81860800e-03 8.07859900e-02
        2 -1    0    0  501    0 +0.0000000000e+00 +0.0000000000e+00 +1.0064442380e+03 1.0064442380e+03 0.0000000000e+00 0.0000e+00 1.0000e+00
       -2 -1    0    0    0  501 -0.0000000000e+00 -0.0000000000e+00 -9.7671172641e+02 9.7671172641e+02 0.0000000000e+00 0.0000e+00 -1.0000e+00
      -13  1    1    2    0    0 -5.3055729223e+02 -6.6628736780e+02 +5.2244275465e+02 9.9918783455e+02 0.0000000000e+00 0.0000e+00 1.0000e+00
       13  1    1    2    0    0 +5.3055729223e+02 +6.6628736780e+02 -4.9271024310e+02 9.8396812981e+02 0.0000000000e+00 0.0000e+00 -1.0000e+00
<mgrwt>
<rscale>  0 0.19829331E+04</rscale>
<asrwt>0</asrwt>
<pdfrwt beam="1">  1        2 0.15483758E+00 0.19829331E+04</pdfrwt>
<pdfrwt beam="2">  1       -2 0.15026334E+00 0.19829331E+04</pdfrwt>
<totfact> 0.82897755E+00</totfact>
</mgrwt>
<rwgt>
<wgt id='morphing_basis_vector_1'> +1.5693509e-04 </wgt>
<wgt id='morphing_basis_vector_2'> +1.6183397e-04 </wgt>
<wgt id='morphing_basis_vector_3'> +1.7703470e-04 </wgt>
<wgt id='morphing_basis_vector_4'> +4.8409547e-05 </wgt>
<wgt id='morphing_basis_vector_5'> +1.5237579e-04 </wgt>
</rwgt>
</event>
<event>
 4      1 +6.0853000e-08 2.10801400e+03 7.81860800e-03 8.02862900e-02
        2 -1    0    0  501    0 +0.0000000000e+00 +0.0000000000e+00 +1.6111679645e+03 1.6111679645e+03 0.0000000000e+00 0.0000e+00 -1.0000e+00
       -2 -1    0    0    0  501 -0.0000000000e+00 -0.0000000000e+00 -6.8951858335e+02 6.8951858335e+02 0.0000000000e+00 0.0000e+00 1.0000e+00
      -13  1    1    2    0    0 -7.8781925370e+01 -1.0332076885e+03 +2.5030737354e+02 1.0660105537e+03 0.0000000000e+00 0.0000e+00 1.0000e+00
       13  1    1    2    0    0 +7.8781925370e+01 +1.0332076885e+03 +6.7134200757e+02 1.2346759941e+03 0.0000000000e+00 0.0000e+00 -1.0000e+00
<mgrwt>
<rscale>  0 0.21080135E+04</rscale>
<asrwt>0</asrwt>
<pdfrwt beam="1">  1        2 0.24787199E+00 0.21080135E+04</pdfrwt>
<pdfrwt beam="2">  1       -2 0.10607978E+00 0.21080135E+04</pdfrwt>
<totfact> 0.92447345E+00</totfact>
</mgrwt>
<rwgt>
<wgt id='morphing_basis_vector_1'> +1.7077156e-04 </wgt>
<wgt id='morphing_basis_vector_2'> +1.2096864e-04 </wgt>
<wgt id='morphing_basis_vector_3'> +1.8417464e-04 </wgt>
<wgt id='morphing_basis_vector_4'> +1.1970686e-04 </wgt>
<wgt id='morphing_basis_vector_5'> +2.0007127e-04 </wgt>
</rwgt>
</event>
<event>
 4      1 +6.0853000e-08 1.93304600e+03 7.81860800e-03 8.09960900e-02
        2 -1    0    0  501    0 +0.0000000000e+00 +0.0000000000e+00 +7.7123520766e+02 7.7123520766e+02 0.0000000000e+00 0.0000e+00 1.0000e+00
       -2 -1    0    0    0  501 -0.0000000000e+00 -0.0000000000e+00 -1.2112598308e+03 1.2112598308e+03 0.0000000000e+00 0.0000e+00 -1.0000e+00
      -13  1    1    2    0    0 +4.8674830347e+02 -3.3329147842e+02 -1.0052077911e+03 1.1655255569e+03 0.0000000000e+00 0.0000e+00 -1.0000e+00
       13  1    1    2    0    0 -4.8674830347e+02 +3.3329147842e+02 +5.6518316792e+02 8.1696948158e+02 0.0000000000e+00 0.0000e+00 1.0000e+00
<mgrwt>
<rscale>  0 0.19330455E+04</rscale>
<asrwt>0</asrwt>
<pdfrwt beam="1">  1        2 0.11865157E+00 0.19330455E+04</pdfrwt>
<pdfrwt beam="2">  1       -2 0.18634767E+00 0.19330455E+04</pdfrwt>
<totfact> 0.62050294E+00</totfact>
</mgrwt>
<rwgt>
<wgt id='morphing_basis_vector_1'> +1.1945238e-04 </wgt>
<wgt id='morphing_basis_vector_2'> +7.9501965e-05 </wgt>
<wgt id='morphing_basis_vector_3'> +1.2717702e-04 </wgt>
<wgt id='morphing_basis_vector_4'> +8.8303727e-05 </wgt>
<wgt id='morphing_basis_vector_5'> +1.4083610e-04 </wgt>
</rwgt>
</event>
<event>
 4      1 +6.0853000e-08 1.99351000e+03 7.81860800e-03 8.07422700e-02
        2 -1    0    0  501    0 +0.0000000000e+00 +0.0000000000e+00 +1.1955230744e+03 1.1955230744e+03 0.0000000000e+00 0.0000e+00 1.0000e+00
       -2 -1    0    0    0  501 -0.0000000000e+00 -0.0000000000e+00 -8.3103446821e+02 8.3103446821e+02 0.0000000000e+00 0.0000e+00 -1.0000e+00
      -13  1    1    2    0    0 -8.4067681374e+02 +1.5975541245e+02 -3.3736656143e+02 9.1982362100e+02 0.0000000000e+00 0.0000e+00 -1.0000e+00
       13  1    1    2    0    0 +8.4067681374e+02 -1.5975541245e+02 +7.0185516766e+02 1.1067339217e+03 0.0000000000e+00 0.0000e+00 1.0000e+00
<mgrwt>
<rscale>  0 0.19935104E+04</rscale>
<asrwt>0</asrwt>
<pdfrwt beam="1">  1        2 0.18392663E+00 0.19935104E+04</pdfrwt>
<pdfrwt beam="2">  1       -2 0.12785146E+00 0.19935104E+04</pdfrwt>
<totfact> 0.99507054E+00</totfact>
</mgrwt>
<rwgt>
<wgt id='morphing_basis_vector_1'> +1.3525279e-04 </wgt>
<wgt id='morphing_basis_vector_2'> +9.1269467e-05 </wgt>
<wgt id='morphing_basis_vector_3'> +1.4452852e-04 </wgt>
<wgt id='morphing_basis_vector_4'> +9.9162182e-05 </wgt>
<wgt id='morphing_basis_vector_5'> +1.5963658e-04 </wgt>
</rwgt>
</event>
<event>
 4      1 +6.0853000e-08 2.11310100e+03 7.81860800e-03 8.02667300e-02
        2 -1    0    0  501    0 +0.0000000000e+00 +0.0000000000e+00 +2.2556091885e+02 2.2556091885e+02 0.0000000000e+00 0.0000e+00 -1.0000e+00
       -2 -1    0    0    0  501 -0.0000000000e+00 -0.0000000000e+00 -4.9489903377e+03 4.9489903377e+03 0.0000000000e+00 0.0000e+00 1.0000e+00
      -13  1    1    2    0    0 -8.2201275799e+02 +6.5641055527e+02 -2.6031293636e+03 2.8076435449e+03 0.0000000000e+00 0.0000e+00 1.0000e+00
       13  1    1    2    0    0 +8.2201275799e+02 -6.5641055527e+02 -2.1203000552e+03 2.3669077117e+03 0.0000000000e+00 0.0000e+00 -1.0000e+00
<mgrwt>
<rscale>  0 0.21131009E+04</rscale>
<asrwt>0</asrwt>
<pdfrwt beam="1">  1        2 0.34701681E-01 0.21131009E+04</pdfrwt>
<pdfrwt beam="2">  1       -2 0.76138311E+00 0.21131009E+04</pdfrwt>
<totfact> 0.14719483E-02</totfact>
</mgrwt>
<rwgt>
<wgt id='morphing_basis_vector_1'> +1.7367654e-04 </wgt>
<wgt id='morphing_basis_vector_2'> +1.2591860e-04 </wgt>
<wgt id='morphing_basis_vector_3'> +1.8784846e-04 </wgt>
<wgt id='morphing_basis_vector_4'> +1.1831687e-04 </wgt>
<wgt id='morphing_basis_vector_5'> +2.0184025e-04 </wgt>
</rwgt>
</event>
<event>
 4      1 +6.0853000e-08 2.20627500e+03 7.81860800e-03 7.99183000e-02
        2 -1    0    0  501    0 +0.0000000000e+00 +0.0000000000e+00 +2.3053382490e+03 2.3053382490e+03 0.0000000000e+00 0.0000e+00 -1.0000e+00
       -2 -1    0    0    0  501 -0.0000000000e+00 -0.0000000000e+00 -5.2786713952e+02 5.2786713952e+02 0.0000000000e+00 0.0000e+00 1.0000e+00
      -13  1    1    2    0    0 +6.9819965169e+02 +2.6250626145e+02 -1.5493015149e+02 7.6183701850e+02 0.0000000000e+00 0.0000e+00 1.0000e+00
       13  1    1    2    0    0 -6.9819965169e+02 -2.6250626145e+02 +1.9324012610e+03 2.0713683700e+03 0.0000000000e+00 0.0000e+00 -1.0000e+00
<mgrwt>
<rscale>  0 0.22062750E+04</rscale>
<asrwt>0</asrwt>
<pdfrwt beam="1">  1        2 0.35466742E+00 0.22062750E+04</pdfrwt>
<pdfrwt beam="2">  1       -2 0.81210330E-01 0.22062750E+04</pdfrwt>
<totfact> 0.69982960E+00</totfact>
</mgrwt>
<rwgt>
<wgt id='morphing_basis_vector_1'> +2.0075421e-04 </wgt>
<wgt id='morphing_basis_vector_2'> +1.3457024e-04 </wgt>
<wgt id='morphing_basis_vector_3'> +2.1575002e-04 </wgt>
<wgt id='morphing_basis_vector_4'> +1.5115033e-04 </wgt>
<wgt id='morphing_basis_vector_5'> +2.4138568e-04 </wgt>
</rwgt>
</event>
<event>
 4      1 +6.0853000e-08 1.91809400e+03 7.81860800e-03 8.10603500e-02
        2 -1    0    0  501    0 +0.0000000000e+00 +0.0000000000e+00 +2.8078595904e+03 2.8078595904e+03 0.0000000000e+00 0.0000e+00 1.0000e+00
       -2 -1    0    0    0  501 -0.0000000000e+00 -0.0000000000e+00 -3.2757008054e+02 3.2757008054e+02 0.0000000000e+00 0.0000e+00 -1.0000e+00
      -13  1    1    2    0    0 +1.7970295843e+02 +8.9852547476e+02 +7.7741889005e+02 1.2016743788e+03 0.0000000000e+00 0.0000e+00 -1.0000e+00
       13  1    1    2    0    0 -1.7970295843e+02 -8.9852547476e+02 +1.7028706198e+03 1.9337552921e+03 0.0000000000e+00 0.0000e+00 1.0000e+00
<mgrwt>
<rscale>  0 0.19180936E+04</rscale>
<asrwt>0</asrwt>
<pdfrwt beam="1">  1        2 0.43197838E+00 0.19180936E+04</pdfrwt>
<pdfrwt beam="2">  1       -2 0.50395399E-01 0.19180936E+04</pdfrwt>
<totfact> 0.97535962E+00</totfact>
</mgrwt>
<rwgt>
<wgt id='morphing_basis_vector_1'> +1.1716153e-04 </wgt>
<wgt id='morphing_basis_vector_2'> +8.0897487e-05 </wgt>
<wgt id='morphing_basis_vector_3'> +1.2514242e-04 </wgt>
<wgt id='morphing_basis_vector_4'> +8.3010682e-05 </wgt>
<wgt id='morphing_basis_vector_5'> +1.3623783e-04 </wgt>
</rwgt>
</event>
<event>
 4      1 +6.0853000e-08 2.16575100e+03 7.81860800e-03 8.00676100e-02
        2 -1    0    0  501    0 +0.0000000000e+00 +0.0000000000e+00 +1.2881709951e+03 1.2881709951e+03 0.0000000000e+00 0.0000e+00 -1.0000e+00
       -2 -1    0    0    0  501 -0.0000000000e+00 -0.0000000000e+00 -9.1029768023e+02 9.1029768023e+02 0.0000000000e+00 0.0000e+00 1.0000e+00
      -13  1    1    2    0    0 +1.4788028566e+02 +7.5664188050e+02 -5.8297430814e+02 9.6655809870e+02 0.0000000000e+00 0.0000e+00 1.0000e+00
       13  1    1    2    0    0 -1.4788028566e+02 -7.5664188050e+02 +9.6084762305e+02 1.2319105767e+03 0.0000000000e+00 0.0000e+00 -1.0000e+00
<mgrwt>
<rscale>  0 0.21657507E+04</rscale>
<asrwt>0</asrwt>
<pdfrwt beam="1">  1        2 0.19818015E+00 0.21657507E+04</pdfrwt>
<pdfrwt beam="2">  1       -2 0.14004580E+00 0.21657507E+04</pdfrwt>
<totfact> 0.67654220E+00</totfact>
</mgrwt>
<rwgt>
<wgt id='morphing_basis_vector_1'> +1.8669806e-04 </wgt>
<wgt id='morphing_basis_vector_2'> +1.2518782e-04 </wgt>
<wgt id='morphing_basis_vector_3'> +2.0043514e-04 </wgt>
<wgt id='morphing_basis_vector_4'> +1.4006237e-04 </wgt>
<wgt id='morphing_basis_vector_5'> +2.2384498e-04 </wgt>
</rwgt>
</event>
<event>
 4      1 +6.0853000e-08 2.07347100e+03 7.81860800e-03 8.04206200e-02
        2 -1    0    0  501    0 +0.0000000000e+00 +0.0000000000e+00 +1.9249853742e+03 1.9249853742e+03 0.0000000000e+00 0.0000e+00 1.0000e+00
       -2 -1    0    0    0  501 -0.0000000000e+00 -0.0000000000e+00 -5.5835229215e+02 5.5835229215e+02 0.0000000000e+00 0.0000e+00 -1.0000e+00
      -13  1    1    2    0    0 -2.1187485042e+02 -8.6391036695e+02 +4.5520562910e+01 8.9067625769e+02 0.0000000000e+00 0.0000e+00 -1.0000e+00
       13  1    1    2    0    0 +2.1187485042e+02 +8.6391036695e+02 +1.3211125191e+03 1.5926614087e+03 0.0000000000e+00 0.0000e+00 1.0000e+00
<mgrwt>
<rscale>  0 0.20734705E+04</rscale>
<asrwt>0</asrwt>
<pdfrwt beam="1">  1        2 0.29615159E+00 0.20734705E+04</pdfrwt>
<pdfrwt beam="2">  1       -2 0.85900353E-01 0.20734705E+04</pdfrwt>
<totfact> 0.10240891E+01</totfact>
</mgrwt>
<rwgt>
<wgt id='morphing_basis_vector_1'> +1.5780475e-04 </wgt>
<wgt id='morphing_basis_vector_2'> +1.0666719e-04 </wgt>
<wgt id='morphing_basis_vector_3'> +1.6910860e-04 </wgt>
<wgt id='morphing_basis_vector_4'> +1.1640479e-04 </wgt>
<wgt id='morphing_basis_vector_5'> +1.8740522e-04 </wgt>
</rwgt>
</event>
<event>
 4      1 +6.0853000e-08 1.94011100e+03 7.81860800e-03 8.09659400e-02
        2 -1    0    0  501    0 +0.0000000000e+00 +0.0000000000e+00 +1.3236929270e+03 1.3236929270e+03 0.0000000000e+00 0.0000e+00 -1.0000e+00
       -2 -1    0    0    0  501 -0.0000000000e+00 -0.0000000000e+00 -7.1089552439e+02 7.1089552439e+02 0.0000000000e+00 0.0000e+00 1.0000e+00
      -13  1    1    2    0    0 +6.3630605814e+02 +7.8381652307e+01 -4.5704867484e+02 7.8735162044e+02 0.0000000000e+00 0.0000e+00 1.0000e+00
       13  1    1    2    0    0 -6.3630605814e+02 -7.8381652307e+01 +1.0698460774e+03 1.2472368309e+03 0.0000000000e+00 0.0000e+00 -1.0000e+00
<mgrwt>
<rscale>  0 0.19401107E+04</rscale>
<asrwt>0</asrwt>
<pdfrwt beam="1">  1        2 0.20364507E+00 0.19401107E+04</pdfrwt>
<pdfrwt beam="2">  1       -2 0.10936854E+00 0.19401107E+04</pdfrwt>
<totfact> 0.12612994E+01</totfact>
</mgrwt>
<rwgt>
<wgt id='morphing_basis_vector_1'> +1.2120391e-04 </wgt>
<wgt id='morphing_basis_vector_2'> +8.0759453e-05 </wgt>
<wgt id='morphing_basis_vector_3'> +1.2909161e-04 </wgt>
<wgt id='morphing_basis_vector_4'> +8.9562483e-05 </wgt>
<wgt id='morphing_basis_vector_5'> +1.4294609e-04 </wgt>
</rwgt>
</event>
<event>
 4      1 +6.0853000e-08 2.07081700e+03 7.81860800e-03 8.04310500e-02
        2 -1    0    0  501    0 +0.0000000000e+00 +0.0000000000e+00 +1.6333030968e+03 1.6333030968e+03 0.0000000000e+00 0.0000e+00 -1.0000e+00
       -2 -1    0    0    0  501 -0.0000000000e+00 -0.0000000000e+00 -6.5638171268e+02 6.5638171268e+02 0.0000000000e+00 0.0000e+00 1.0000e+00
      -13  1    1    2    0    0 -1.0408586963e+02 -7.1090535705e+02 -3.3589165510e+02 7.9312262539e+02 0.0000000000e+00 0.0000e+00 1.0000e+00
       13  1    1    2    0    0 +1.0408586963e+02 +7.1090535705e+02 +1.3128130392e+03 1.4965621841e+03 0.0000000000e+00 0.0000e+00 -1.0000e+00
<mgrwt>
<rscale>  0 0.20708165E+04</rscale>
<asrwt>0</asrwt>
<pdfrwt beam="1">  1        2 0.25127740E+00 0.20708165E+04</pdfrwt>
<pdfrwt beam="2">  1       -2 0.10098180E+00 0.20708165E+04</pdfrwt>
<totfact> 0.10171119E+01</totfact>
</mgrwt>
<rwgt>
<wgt id='morphing_basis_vector_1'> +1.5653313e-04 </wgt>
<wgt id='morphing_basis_vector_2'> +1.0470512e-04 </wgt>
<wgt id='morphing_basis_vector_3'> +1.6754001e-04 </wgt>
<wgt id='morphing_basis_vector_4'> +1.1676030e-04 </wgt>
<wgt id='morphing_basis_vector_5'> +1.8650590e-04 </wgt>
</rwgt>
</event>
<event>
 4      1 +6.0853000e-08 1.88849200e+03 7.81860800e-03 8.11893900e-02
        2 -1    0    0  501    0 +0.0000000000e+00 +0.0000000000e+00 +1.1779916735e+03 1.1779916735e+03 0.0000000000e+00 0.0000e+00 -1.0000e+00
       -2 -1    0    0    0  501 -0.0000000000e+00 -0.0000000000e+00 -7.5688213328e+02 7.5688213328e+02 0.0000000000e+00 0.0000e+00 1.0000e+00
      -13  1    1    2    0    0 -2.2013822225e+02 -6.7002511508e+02 -4.3272400999e+02 8.2743251118e+02 0.0000000000e+00 0.0000e+00 1.0000e+00
       13  1    1    2    0    0 +2.2013822225e+02 +6.7002511508e+02 +8.5383355015e+02 1.1074412956e+03 0.0000000000e+00 0.0000e+00 -1.0000e+00
<mgrwt>
<rscale>  0 0.18884924E+04</rscale>
<asrwt>0</asrwt>
<pdfrwt beam="1">  1        2 0.18122949E+00 0.18884924E+04</pdfrwt>
<pdfrwt beam="2">  1       -2 0.11644341E+00 0.18884924E+04</pdfrwt>
<totfact> 0.13124293E+01</totfact>
</mgrwt>
<rwgt>
<wgt id='morphing_basis_vector_1'> +1.0915787e-04 </wgt>
<wgt id='morphing_basis_vector_2'> +7.2837627e-05 </wgt>
<wgt id='morphing_basis_vector_3'> +1.1604202e-04 </wgt>
<wgt id='morphing_basis_vector_4'> +8.0045759e-05 </wgt>
<wgt id='morphing_basis_vector_5'> +1.2801124e-04 </wgt>
</rwgt>
</event>
<event>
 4      1 +6.0853000e-08 1.86604600e+03 7.81860800e-03 8.12889000e-02
        2 -1    0    0  501    0 +0.0000000000e+00 +0.0000000000e+00 +3.1825520010e+02 3.1825520010e+02 0.0000000000e+00 0.0000e+00 1.0000e+00
       -2 -1    0    0    0  501 -0.0000000000e+00 -0.0000000000e+00 -2.7353274529e+03 2.7353274529e+03 0.0000000000e+00 0.0000e+00 -1.0000e+00
      -13  1    1    2    0    0 -6.6641562503e+02 +5.8453907366e+02 -7.3219019877e+02 1.1497383185e+03 0.0000000000e+00 0.0000e+00 -1.0000e+00
       13  1    1    2    0    0 +6.6641562503e+02 -5.8453907366e+02 -1.6848820541e+03 1.9038443345e+03 0.0000000000e+00 0.0000e+00 1.0000e+00
<mgrwt>
<rscale>  0 0.18660463E+04</rscale>
<asrwt>0</asrwt>
<pdfrwt beam="1">  1        2 0.48962337E-01 0.18660463E+04</pdfrwt>
<pdfrwt beam="2">  1       -2 0.42081962E+00 0.18660463E+04</pdfrwt>
<totfact> 0.45089721E-01</totfact>
</mgrwt>
<rwgt>
<wgt id='morphing_basis_vector_1'> +1.1496392e-04 </wgt>
<wgt id='morphing_basis_vector_2'> +1.0145906e-04 </wgt>
<wgt id='morphing_basis_vector_3'> +1.2603197e-04 </wgt>
<wgt id='morphing_basis_vector_4'> +5.5018287e-05 </wgt>
<wgt id='morphing_basis_vector_5'> +1.2024444e-04 </wgt>
</rwgt>
</event>
<event>
 4      1 +6.0853000e-08 1.89888600e+03 7.81860800e-03 8.11438100e-02
        2 -1    0    0  501    0 +0.0000000000e+00 +0.0000000000e+00 +7.2912682277e+02 7.2912682277e+02 0.0000000000e+00 0.0000e+00 1.0000e+00
       -2 -1    0    0    0  501 -0.0000000000e+00 -0.0000000000e+00 -1.2363309584e+03 1.2363309584e+03 0.0000000000e+00 0.0000e+00 -1.0000e+00
      -13  1    1    2    0    0 +4.9703371976e+02 -7.9972821545e+02 -1.2753584811e+02 9.5019636377e+02 0.0000000000e+00 0.0000e+00 -1.0000e+00
       13  1    1    2    0    0 -4.9703371976e+02 +7.9972821545e+02 -3.7966828757e+02 1.0152614174e+03 0.0000000000e+00 0.0000e+00 1.0000e+00
<mgrwt>
<rscale>  0 0.18988861E+04</rscale>
<asrwt>0</asrwt>
<pdfrwt beam="1">  1        2 0.11217336E+00 0.18988861E+04</pdfrwt>
<pdfrwt beam="2">  1       -2 0.19020476E+00 0.18988861E+04</pdfrwt>
<totfact> 0.62485374E+00</totfact>
</mgrwt>
<rwgt>
<wgt id='morphing_basis_vector_1'> +1.1773283e-04 </wgt>
<wgt id='morphing_basis_vector_2'> +9.2834572e-05 </wgt>
<wgt id='morphing_basis_vector_3'> +1.2751831e-04 </wgt>
<wgt id='morphing_basis_vector_4'> +6.9621879e-05 </wgt>
<wgt id='morphing_basis_vector_5'> +1.2995966e-04 </wgt>
</rwgt>
</event>
<event>
 4      1 +6.0853000e-08 2.09348000e+03 7.81860800e-03 8.03424800e-02
        2 -1    0    0  501    0 +0.0000000000e+00 +0.0000000000e+00 +1.4385434610e+03 1.4385434610e+03 0.0000000000e+00 0.0000e+00 1.0000e+00
       -2 -1    0    0    0  501 -0.0000000000e+00 -0.0000000000e+00 -7.6164858660e+02 7.6164858660e+02 0.0000000000e+00 0.0000e+00 -1.0000e+00
      -13  1    1    2    0    0 -2.4666459957e+02 +9.0240324143e+02 -1.5505101571e+02 9.4826992586e+02 0.0000000000e+00 0.0000e+00 -1.0000e+00
       13  1    1    2    0    0 +2.4666459957e+02 -9.0240324143e+02 +8.3194589011e+02 1.2519221217e+03 0.0000000000e+00 0.0000e+00 1.0000e+00
<mgrwt>
<rscale>  0 0.20934800E+04</rscale>
<asrwt>0</asrwt>
<pdfrwt beam="1">  1        2 0.22131438E+00 0.20934800E+04</pdfrwt>
<pdfrwt beam="2">  1       -2 0.11717671E+00 0.20934800E+04</pdfrwt>
<totfact> 0.89964945E+00</totfact>
</mgrwt>
<rwgt>
<wgt id='morphing_basis_vector_1'> +1.6413630e-04 </wgt>
<wgt id='morphing_basis_vector_2'> +1.1160546e-04 </wgt>
<wgt id='morphing_basis_vector_3'> +1.7611843e-04 </wgt>
<wgt id='morphing_basis_vector_4'> +1.2050831e-04 </wgt>
<wgt id='morphing_basis_vector_5'> +1.9484050e-04 </wgt>
</rwgt>
</event>
<event>
 4      1 +6.0853000e-08 1.99748300e+03 7.81860800e-03 8.07259200e-02
        2 -1    0    0  501    0 +0.0000000000e+00 +0.0000000000e+00 +1.7528843523e+03 1.7528843523e+03 0.0000000000e+00 0.0000e+00 1.0000e+00
       -2 -1    0    0    0  501 -0.0000000000e+00 -0.0000000000e+00 -5.6905311020e+02 5.6905311020e+02 0.0000000000e+00 0.0000e+00 -1.0000e+00
      -13  1    1    2    0    0 -5.6596515670e+01 +9.5787052979e+02 +2.6984611108e+02 9.9676278075e+02 0.0000000000e+00 0.0000e+00 -1.0000e+00
       13  1    1    2    0    0 +5.6596515670e+01 -9.5787052979e+02 +9.1398513100e+02 1.3251746817e+03 0.0000000000e+00 0.0000e+00 1.0000e+00
<mgrwt>
<rscale>  0 0.19974827E+04</rscale>
<asrwt>0</asrwt>
<pdfrwt beam="1">  1        2 0.26967451E+00 0.19974827E+04</pdfrwt>
<pdfrwt beam="2">  1       -2 0.87546633E-01 0.19974827E+04</pdfrwt>
<totfact> 0.12305574E+01</totfact>
</mgrwt>
<rwgt>
<wgt id='morphing_basis_vector_1'> +1.3744994e-04 </wgt>
<wgt id='morphing_basis_vector_2'> +9.5361780e-05 </wgt>
<wgt id='morphing_basis_vector_3'> +1.4733821e-04 </wgt>
<wgt id='morphing_basis_vector_4'> +9.7706892e-05 </wgt>
<wgt id='morphing_basis_vector_5'> +1.6076012e-04 </wgt>
</rwgt>
</event>
<event>
 4      1 +6.0853000e-08 2.01548700e+03 7.81860800e-03 8.06523200e-02
        2 -1    0    0  501    0 +0.0000000000e+00 +0.0000000000e+00 +1.9929489521e+03 1.9929489521e+03 0.0000000000e+00 0.0000e+00 1.0000e+00
       -2 -1    0    0    0  501 -0.0000000000e+00 -0.0000000000e+00 -5.0957019068e+02 5.0957019068e+02 0.0000000000e+00 0.0000e+00 -1.0000e+00
      -13  1    1    2    0    0 -3.1843716933e+02 +6.4062707686e+02 -1.3956530695e+02 7.2889214382e+02 0.0000000000e+00 0.0000e+00 -1.0000e+00
       13  1    1    2    0    0 +3.1843716933e+02 -6.4062707686e+02 +1.6229440684e+03 1.7736269990e+03 0.0000000000e+00 0.0000e+00 1.0000e+00
<mgrwt>
<rscale>  0 0.20154874E+04</rscale>
<asrwt>0</asrwt>
<pdfrwt beam="1">  1        2 0.30660753E+00 0.20154874E+04</pdfrwt>
<pdfrwt beam="2">  1       -2 0.78395415E-01 0.20154874E+04</pdfrwt>
<totfact> 0.11614501E+01</totfact>
</mgrwt>
<rwgt>
<wgt id='morphing_basis_vector_1'> +1.4077798e-04 </wgt>
<wgt id='morphing_basis_vector_2'> +9.4099457e-05 </wgt>
<wgt id='morphing_basis_vector_3'> +1.5039469e-04 </wgt>
<wgt id='morphing_basis_vector_4'> +1.0452044e-04 </wgt>
<wgt id='morphing_basis_vector_5'> +1.6700521e-04 </wgt>
</rwgt>
</event>
<event>
 4      1 +6.0853000e-08 2.00618100e+03 7.81860800e-03 8.06902600e-02
        2 -1    0    0  501    0 +0.0000000000e+00 +0.0000000000e+00 +1.6283844202e+03 1.6283844202e+03 0.0000000000e+00 0.0000e+00 -1.0000e+00
       -2 -1    0    0    0  501 -0.0000000000e+00 -0.0000000000e+00 -6.1790712531e+02 6.1790712531e+02 0.0000000000e+00 0.0000e+00 1.0000e+00
      -13  1    1    2    0    0 +6.6354249605e+02 -3.3288886639e+02 -2.5010246761e+02 7.8336127409e+02 0.0000000000e+00 0.0000e+00 1.0000e+00
       13  1    1    2    0    0 -6.6354249605e+02 +3.3288886639e+02 +1.2605797625e+03 1.4629302714e+03 0.0000000000e+00 0.0000e+00 -1.0000e+00
<mgrwt>
<rscale>  0 0.20061808E+04</rscale>
<asrwt>0</asrwt>
<pdfrwt beam="1">  1        2 0.25052068E+00 0.20061808E+04</pdfrwt>
<pdfrwt beam="2">  1       -2 0.95062635E-01 0.20061808E+04</pdfrwt>
<totfact> 0.11892432E+01</totfact>
</mgrwt>
<rwgt>
<wgt id='morphing_basis_vector_1'> +1.3829265e-04 </wgt>
<wgt id='morphing_basis_vector_2'> +9.2523458e-05 </wgt>
<wgt id='morphing_basis_vector_3'> +1.4770718e-04 </wgt>
<wgt id='morphing_basis_vector_4'> +1.0247552e-04 </wgt>
<wgt id='morphing_basis_vector_5'> +1.6387421e-04 </wgt>
</rwgt>
</event>
<event>
 4      1 +6.0853000e-08 2.00180300e+03 7.81860800e-03 8.07081900e-02
        2 -1    0    0  501    0 +0.0000000000e+00 +0.0000000000e+00 +5.7555454441e+02 5.7555454441e+02 0.0000000000e+00 0.0000e+00 -1.0000e+00
       -2 -1    0    0    0  501 -0.0000000000e+00 -0.0000000000e+00 -1.7405884335e+03 1.7405884335e+03 0.0000000000e+00 0.0000e+00 1.0000e+00
      -13  1    1    2    0    0 +7.4817720351e+01 -3.1494302341e+02 -1.6783499172e+03 1.7092820844e+03 0.0000000000e+00 0.0000e+00 1.0000e+00
       13  1    1    2    0    0 -7.4817720351e+01 +3.1494302341e+02 +5.1331602819e+02 6.0686089351e+02 0.0000000000e+00 0.0000e+00 -1.0000e+00
<mgrwt>
<rscale>  0 0.20018028E+04</rscale>
<asrwt>0</asrwt>
<pdfrwt beam="1">  1        2 0.88546853E-01 0.20018028E+04</pdfrwt>
<pdfrwt beam="2">  1       -2 0.26778284E+00 0.20018028E+04</pdfrwt>
<totfact> 0.23259261E+00</totfact>
</mgrwt>
<rwgt>
<wgt id='morphing_basis_vector_1'> +1.3690568e-04 </wgt>
<wgt id='morphing_basis_vector_2'> +9.1109929e-05 </wgt>
<wgt id='morphing_basis_vector_3'> +1.4612146e-04 </wgt>
<wgt id='morphing_basis_vector_4'> +1.0198033e-04 </wgt>
<wgt id='morphing_basis_vector_5'> +1.6245257e-04 </wgt>
</rwgt>
</event>
<event>
 4      1 +6.0853000e-08 2.17379800e+03 7.81860800e-03 8.00376900e-02
        2 -1    0    0  501    0 +0.0000000000e+00 +0.0000000000e+00 +2.4756702917e+03 2.4756702917e+03 0.0000000000e+00 0.0000e+00 -1.0000e+00
       -2 -1    0    0    0  501 -0.0000000000e+00 -0.0000000000e+00 -4.7718380378e+02 4.7718380378e+02 0.0000000000e+00 0.0000e+00 1.0000e+00
      -13  1    1    2    0    0 +2.3440857198e+02 -1.0588039661e+03 +9.0001095512e+02 1.4092668082e+03 0.0000000000e+00 0.0000e+00 1.0000e+00
       13  1    1    2    0    0 -2.3440857198e+02 +1.0588039661e+03 +1.0984755328e+03 1.5435872873e+03 0.0000000000e+00 0.0000e+00 -1.0000e+00
<mgrwt>
<rscale>  0 0.21737983E+04</rscale>
<asrwt>0</asrwt>
<pdfrwt beam="1">  1        2 0.38087234E+00 0.21737983E+04</pdfrwt>
<pdfrwt beam="2">  1       -2 0.73412894E-01 0.21737983E+04</pdfrwt>
<totfact> 0.69859215E+00</totfact>
</mgrwt>
<rwgt>
<wgt id='morphing_basis_vector_1'> +1.9462411e-04 </wgt>
<wgt id='morphing_basis_vector_2'> +1.4237206e-04 </wgt>
<wgt id='morphing_basis_vector_3'> +2.1112822e-04 </wgt>
<wgt id='morphing_basis_vector_4'> +1.3174552e-04 </wgt>
<wgt id='morphing_basis_vector_5'> +2.2641444e-04 </wgt>
</rwgt>
</event>
<event>
 4      1 +6.0853000e-08 1.91669400e+03 7.81860800e-03 8.10664000e-02
        2 -1    0    0  501    0 +0.0000000000e+00 +0.0000000000e+00 +5.6894226328e+02 5.6894226328e+02 0.0000000000e+00 0.0000e+00 -1.0000e+00
       -2 -1    0    0    0  501 -0.0000000000e+00 -0.0000000000e+00 -1.6142741921e+03 1.6142741921e+03 0.0000000000e+00 0.0000e+00 1.0000e+00
      -13  1    1    2    0    0 +2.0315947751e+02 +3.7323268326e+02 -1.5010937978e+03 1.5600830103e+03 0.0000000000e+00 0.0000e+00 1.0000e+00
       13  1    1    2    0    0 -2.0315947751e+02 -3.7323268326e+02 +4.5576186900e+02 6.2313344509e+02 0.0000000000e+00 0.0000e+00 -1.0000e+00
<mgrwt>
<rscale>  0 0.19166938E+04</rscale>
<asrwt>0</asrwt>
<pdfrwt beam="1">  1        2 0.87529578E-01 0.19166938E+04</pdfrwt>
<pdfrwt beam="2">  1       -2 0.24834988E+00 0.19166938E+04</pdfrwt>
<totfact> 0.32326474E+00</totfact>
</mgrwt>
<rwgt>
<wgt id='morphing_basis_vector_1'> +1.1549810e-04 </wgt>
<wgt id='morphing_basis_vector_2'> +7.6725094e-05 </wgt>
<wgt id='morphing_basis_vector_3'> +1.2286554e-04 </wgt>
<wgt id='morphing_basis_vector_4'> +8.5389164e-05 </wgt>
<wgt id='morphing_basis_vector_5'> +1.3603767e-04 </wgt>
</rwgt>
</event>
<event>
 4      1 +6.0853000e-08 1.89830200e+03 7.81860800e-03 8.11463600e-02
        2 -1    0    0  501    0 +0.0000000000e+00 +0.0000000000e+00 +1.5523630195e+03 1.5523630195e+03 0.0000000000e+00 0.0000e+00 1.0000e+00
       -2 -1    0    0    0  501 -0.0000000000e+00 -0.0000000000e+00 -5.8033281321e+02 5.8033281321e+02 0.0000000000e+00 0.0000e+00 -1.0000e+00
      -13  1    1    2    0    0 -8.6672853529e+02 +2.6274371398e+02 +1.6699034015e+02 9.2094429084e+02 0.0000000000e+00 0.0000e+00 -1.0000e+00
       13  1    1    2    0    0 +8.6672853529e+02 -2.6274371398e+02 +8.0503986610e+02 1.2117515418e+03 0.0000000000e+00 0.0000e+00 1.0000e+00
<mgrwt>
<rscale>  0 0.18983016E+04</rscale>
<asrwt>0</asrwt>
<pdfrwt beam="1">  1        2 0.23882508E+00 0.18983016E+04</pdfrwt>
<pdfrwt beam="2">  1       -2 0.89281972E-01 0.18983016E+04</pdfrwt>
<totfact> 0.15332767E+01</totfact>
</mgrwt>
<rwgt>
<wgt id='morphing_basis_vector_1'> +1.1248128e-04 </wgt>
<wgt id='morphing_basis_vector_2'> +7.7577311e-05 </wgt>
<wgt id='morphing_basis_vector_3'> +1.2003047e-04 </wgt>
<wgt id='morphing_basis_vector_4'> +7.9610143e-05 </wgt>
<wgt id='morphing_basis_vector_5'> +1.3058462e-04 </wgt>
</rwgt>
</event>
<event>
 4      1 +6.0853000e-08 2.15788300e+03 7.81860800e-03 8.00969900e-02
        2 -1    0    0  501    0 +0.0000000000e+00 +0.0000000000e+00 +9.7535494114e+02 9.7535494114e+02 0.0000000000e+00 0.0000e+00 -1.0000e+00
       -2 -1    0    0    0  501 -0.0000000000e+00 -0.0000000000e+00 -1.1935294750e+03 1.1935294750e+03 0.0000000000e+00 0.0000e+00 1.0000e+00
      -13  1    1    2    0    0 +2.0752771555e+02 +1.0368932628e+03 -3.2442115142e+02 1.1061032839e+03 0.0000000000e+00 0.0000e+00 1.0000e+00
       13  1    1    2    0    0 -2.0752771555e+02 -1.0368932628e+03 +1.0624661761e+02 1.0627811322e+03 0.0000000000e+00 0.0000e+00 -1.0000e+00
<mgrwt>
<rscale>  0 0.21578831E+04</rscale>
<asrwt>0</asrwt>
<pdfrwt beam="1">  1        2 0.15005461E+00 0.21578831E+04</pdfrwt>
<pdfrwt beam="2">  1       -2 0.18361992E+00 0.21578831E+04</pdfrwt>
<totfact> 0.46648586E+00</totfact>
</mgrwt>
<rwgt>
<wgt id='morphing_basis_vector_1'> +1.8700125e-04 </wgt>
<wgt id='morphing_basis_vector_2'> +1.3212911e-04 </wgt>
<wgt id='morphing_basis_vector_3'> +2.0192496e-04 </wgt>
<wgt id='morphing_basis_vector_4'> +1.3205698e-04 </wgt>
<wgt id='morphing_basis_vector_5'> +2.2008042e-04 </wgt>
</rwgt>
</event>
<event>
 4      1 +6.0853000e-08 2.20380500e+03 7.81860800e-03 7.99273000e-02
        2 -1    0    0  501    0 +0.0000000000e+00 +0.0000000000e+00 +1.3055809864e+03 1.3055809864e+03 0.0000000000e+00 0.0000e+00 1.0000e+00
       -2 -1    0    0    0  501 -0.0000000000e+00 -0.0000000000e+00 -9.2999933830e+02 9.2999933830e+02 0.0000000000e+00 0.0000e+00 -1.0000e+00
      -13  1    1    2    0    0 -6.8379554144e+02 -5.7480322793e+02 -4.6665783922e+02 1.0078415710e+03 0.0000000000e+00 0.0000e+00 -1.0000e+00
       13  1    1    2    0    0 +6.8379554144e+02 +5.7480322793e+02 +8.4223948733e+02 1.2277387537e+03 0.0000000000e+00 0.0000e+00 1.0000e+00
<mgrwt>
<rscale>  0 0.22038053E+04</rscale>
<asrwt>0</asrwt>
<pdfrwt beam="1">  1        2 0.20085861E+00 0.22038053E+04</pdfrwt>
<pdfrwt beam="2">  1       -2 0.14307682E+00 0.22038053E+04</pdfrwt>
<totfact> 0.62092075E+00</totfact>
</mgrwt>
<rwgt>
<wgt id='morphing_basis_vector_1'> +2.0023631e-04 </wgt>
<wgt id='morphing_basis_vector_2'> +1.3505046e-04 </wgt>
<wgt id='morphing_basis_vector_3'> +2.1533007e-04 </wgt>
<wgt id='morphing_basis_vector_4'> +1.4972800e-04 </wgt>
<wgt id='morphing_basis_vector_5'> +2.4023006e-04 </wgt>
</rwgt>
</event>
<event>
 4      1 +6.0853000e-08 2.02413000e+03 7.81860800e-03 8.06172700e-02
        2 -1    0    0  501    0 +0.0000000000e+00 +0.0000000000e+00 +2.5617230311e+03 2.5617230311e+03 0.0000000000e+00 0.0000e+00 -1.0000e+00
       -2 -1    0    0    0  501 -0.0000000000e+00 -0.0000000000e+00 -3.9983844650e+02 3.9983844650e+02 0.0000000000e+00 0.0000e+00 1.0000e+00
      -13  1    1    2    0    0 +9.8511674314e+02 -2.2860322006e+02 +1.0231361843e+03 1.4385833593e+03 0.0000000000e+00 0.0000e+00 1.0000e+00
       13  1    1    2    0    0 -9.8511674314e+02 +2.2860322006e+02 +1.1387484003e+03 1.5229781183e+03 0.0000000000e+00 0.0000e+00 -1.0000e+00
<mgrwt>
<rscale>  0 0.20241298E+04</rscale>
<asrwt>0</asrwt>
<pdfrwt beam="1">  1        2 0.39411123E+00 0.20241298E+04</pdfrwt>
<pdfrwt beam="2">  1       -2 0.61513609E-01 0.20241298E+04</pdfrwt>
<totfact> 0.91470385E+00</totfact>
</mgrwt>
<rwgt>
<wgt id='morphing_basis_vector_1'> +1.4752360e-04 </wgt>
<wgt id='morphing_basis_vector_2'> +1.0862804e-04 </wgt>
<wgt id='morphing_basis_vector_3'> +1.5935967e-04 </wgt>
<wgt id='morphing_basis_vector_4'> +9.7659587e-05 </wgt>
<wgt id='morphing_basis_vector_5'> +1.6925786e-04 </wgt>
</rwgt>
</event>
<event>
 4      1 +6.0853000e-08 2.07210700e+03 7.81860800e-03 8.04259800e-02
        2 -1    0    0  501    0 +0.0000000000e+00 +0.0000000000e+00 +2.0284506534e+03 2.0284506534e+03 0.0000000000e+00 0.0000e+00 1.0000e+00
       -2 -1    0    0    0  501 -0.0000000000e+00 -0.0000000000e+00 -5.2917554108e+02 5.2917554108e+02 0.0000000000e+00 0.0000e+00 -1.0000e+00
      -13  1    1    2    0    0 -7.3231068045e+02 +2.5937091086e+02 -9.6432957575e+01 7.8284833614e+02 0.0000000000e+00 0.0000e+00 -1.0000e+00
       13  1    1    2    0    0 +7.3231068045e+02 -2.5937091086e+02 +1.5957080699e+03 1.7747778584e+03 0.0000000000e+00 0.0000e+00 1.0000e+00
<mgrwt>
<rscale>  0 0.20721066E+04</rscale>
<asrwt>0</asrwt>
<pdfrwt beam="1">  1        2 0.31206933E+00 0.20721066E+04</pdfrwt>
<pdfrwt beam="2">  1       -2 0.81411623E-01 0.20721066E+04</pdfrwt>
<totfact> 0.10133271E+01</totfact>
</mgrwt>
<rwgt>
<wgt id='morphing_basis_vector_1'> +1.5701087e-04 </wgt>
<wgt id='morphing_basis_vector_2'> +1.0524433e-04 </wgt>
<wgt id='morphing_basis_vector_3'> +1.6809634e-04 </wgt>
<wgt id='morphing_basis_vector_4'> +1.1686739e-04 </wgt>
<wgt id='morphing_basis_vector_5'> +1.8696481e-04 </wgt>
</rwgt>
</event>
<event>
 4      1 +6.0853000e-08 1.95815800e+03 7.81860800e-03 8.08895100e-02
        2 -1    0    0  501    0 +0.0000000000e+00 +0.0000000000e+00 +3.6391671106e+02 3.6391671106e+02 0.0000000000e+00 0.0000e+00 -1.0000e+00
       -2 -1    0    0    0  501 -0.0000000000e+00 -0.0000000000e+00 -2.6341084651e+03 2.6341084651e+03 0.0000000000e+00 0.0000e+00 1.0000e+00
      -13  1    1    2    0    0 +8.7966212950e+02 +3.7420393242e+02 -1.4590193414e+03 1.7442968451e+03 0.0000000000e+00 0.0000e+00 1.0000e+00
       13  1    1    2    0    0 -8.7966212950e+02 -3.7420393242e+02 -8.1117241261e+02 1.2537283311e+03 0.0000000000e+00 0.0000e+00 -1.0000e+00
<mgrwt>
<rscale>  0 0.19581584E+04</rscale>
<asrwt>0</asrwt>
<pdfrwt beam="1">  1        2 0.55987184E-01 0.19581584E+04</pdfrwt>
<pdfrwt beam="2">  1       -2 0.40524747E+00 0.19581584E+04</pdfrwt>
<totfact> 0.48721107E-01</totfact>
</mgrwt>
<rwgt>
<wgt id='morphing_basis_vector_1'> +1.2759937e-04 </wgt>
<wgt id='morphing_basis_vector_2'> +8.9468864e-05 </wgt>
<wgt id='morphing_basis_vector_3'> +1.3673434e-04 </wgt>
<wgt id='morphing_basis_vector_4'> +8.9203637e-05 </wgt>
<wgt id='morphing_basis_vector_5'> +1.4815694e-04 </wgt>
</rwgt>
</event>
<event>
 4      1 +6.0853000e-08 1.95264800e+03 7.81860800e-03 8.09127500e-02
        2 -1    0    0  501    0 +0.0000000000e+00 +0.0000000000e+00 +1.2666788298e+03 1.2666788298e+03 0.0000000000e+00 0.0000e+00 -1.0000e+00
       -2 -1    0    0    0  501 -0.0000000000e+00 -0.0000000000e+00 -7.5252621917e+02 7.5252621917e+02 0.0000000000e+00 0.0000e+00 1.0000e+00
      -13  1    1    2    0    0 -7.0506047577e+02 +6.7511799717e+02 +2.7541335451e+02 1.0142717094e+03 0.0000000000e+00 0.0000e+00 -1.0000e+00
       13  1    1    2    0    0 +7.0506047577e+02 -6.7511799717e+02 +2.3873925611e+02 1.0049333396e+03 0.0000000000e+00 0.0000e+00 1.0000e+00
<mgrwt>
<rscale>  0 0.19526485E+04</rscale>
<asrwt>0</asrwt>
<pdfrwt beam="1">  1        2 0.19487367E+00 0.19526485E+04</pdfrwt>
<pdfrwt beam="2">  1       -2 0.11577326E+00 0.19526485E+04</pdfrwt>
<totfact> 0.11763221E+01</totfact>
</mgrwt>
<rwgt>
<wgt id='morphing_basis_vector_1'> +1.2904304e-04 </wgt>
<wgt id='morphing_basis_vector_2'> +9.6899699e-05 </wgt>
<wgt id='morphing_basis_vector_3'> +1.3931593e-04 </wgt>
<wgt id='morphing_basis_vector_4'> +8.2548127e-05 </wgt>
<wgt id='morphing_basis_vector_5'> +1.4601867e-04 </wgt>
</rwgt>
</event>
<event>
 4      1 +6.0853000e-08 2.07902600e+03 7.81860800e-03 8.03988300e-02
        2 -1    0    0  501    0 +0.0000000000e+00 +0.0000000000e+00 +1.7747239915e+03 1.7747239915e+03 0.0000000000e+00 0.0000e+00 1.0000e+00
       -2 -1    0    0    0  501 -0.0000000000e+00 -0.0000000000e+00 -6.0887638487e+02 6.0887638487e+02 0.0000000000e+00 0.0000e+00 -1.0000e+00
      -13  1    1    2    0    0 -8.4205944604e+02 -3.2139830158e+02 -1.0854542441e+01 9.0137605916e+02 0.0000000000e+00 0.0000e+00 -1.0000e+00
       13  1    1    2    0    0 +8.4205944604e+02 +3.2139830158e+02 +1.1767021491e+03 1.4822243173e+03 0.0000000000e+00 0.0000e+00 1.0000e+00
<mgrwt>
<rscale>  0 0.20790262E+04</rscale>
<asrwt>0</asrwt>
<pdfrwt beam="1">  1        2 0.27303446E+00 0.20790262E+04</pdfrwt>
<pdfrwt beam="2">  1       -2 0.93673291E-01 0.20790262E+04</pdfrwt>
<totfact> 0.10143330E+01</totfact>
</mgrwt>
<rwgt>
<wgt id='morphing_basis_vector_1'> +1.5952714e-04 </wgt>
<wgt id='morphing_basis_vector_2'> +1.0797224e-04 </wgt>
<wgt id='morphing_basis_vector_3'> +1.7100873e-04 </wgt>
<wgt id='morphing_basis_vector_4'> +1.1756743e-04 </wgt>
<wgt id='morphing_basis_vector_5'> +1.8945076e-04 </wgt>
</rwgt>
</event>
<event>
 4      1 +6.0853000e-08 2.08912400e+03 7.81860800e-03 8.03594100e-02
        2 -1    0    0  501    0 +0.0000000000e+00 +0.0000000000e+00 +1.9949598147e+03 1.9949598147e+03 0.0000000000e+00 0.0000e+00 1.0000e+00
       -2 -1    0    0    0  501 -0.0000000000e+00 -0.0000000000e+00 -5.4693324941e+02 5.4693324941e+02 0.0000000000e+00 0.0000e+00 -1.0000e+00
      -13  1    1    2    0    0 -9.2471373897e+02 +4.1996833855e+02 +4.2687041119e+02 1.1016747489e+03 0.0000000000e+00 0.0000e+00 -1.0000e+00
       13  1    1    2    0    0 +9.2471373897e+02 -4.1996833855e+02 +1.0211561541e+03 1.4402183153e+03 0.0000000000e+00 0.0000e+00 1.0000e+00
<mgrwt>
<rscale>  0 0.20891241E+04</rscale>
<asrwt>0</asrwt>
<pdfrwt beam="1">  1        2 0.30691689E+00 0.20891241E+04</pdfrwt>
<pdfrwt beam="2">  1       -2 0.84143578E-01 0.20891241E+04</pdfrwt>
<totfact> 0.97987938E+00</totfact>
</mgrwt>
<rwgt>
<wgt id='morphing_basis_vector_1'> +1.6429400e-04 </wgt>
<wgt id='morphing_basis_vector_2'> +1.1510821e-04 </wgt>
<wgt id='morphing_basis_vector_3'> +1.7685870e-04 </wgt>
<wgt id='morphing_basis_vector_4'> +1.1649687e-04 </wgt>
<wgt id='morphing_basis_vector_5'> +1.9295662e-04 </wgt>
</rwgt>
</event>
<event>
 4      1 +6.0853000e-08 2.06009700e+03 7.81860800e-03 8.04733600e-02
        2 -1    0    0  501    0 +0.0000000000e+00 +0.0000000000e+00 +1.6732310001e+03 1.6732310001e+03 0.0000000000e+00 0.0000e+00 1.0000e+00
       -2 -1    0    0    0  501 -0.0000000000e+00 -0.0000000000e+00 -6.3410250265e+02 6.3410250265e+02 0.0000000000e+00 0.0000e+00 -1.0000e+00
      -13  1    1    2    0    0 -4.2313521010e+02 +5.9459612178e+02 +1.3337228810e+03 1.5203304501e+03 0.0000000000e+00 0.0000e+00 1.0000e+00
       13  1    1    2    0    0 +4.2313521010e+02 -5.9459612178e+02 -2.9459438359e+02 7.8700305266e+02 0.0000000000e+00 0.0000e+00 -1.0000e+00
<mgrwt>
<rscale>  0 0.20600971E+04</rscale>
<asrwt>0</asrwt>
<pdfrwt beam="1">  1        2 0.25742015E+00 0.20600971E+04</pdfrwt>
<pdfrwt beam="2">  1       -2 0.97554232E-01 0.20600971E+04</pdfrwt>
<totfact> 0.10510323E+01</totfact>
</mgrwt>
<rwgt>
<wgt id='morphing_basis_vector_1'> +1.9780918e-04 </wgt>
<wgt id='morphing_basis_vector_2'> +2.3405409e-04 </wgt>
<wgt id='morphing_basis_vector_3'> +2.2928067e-04 </wgt>
<wgt id='morphing_basis_vector_4'> +2.5494054e-05 </wgt>
<wgt id='morphing_basis_vector_5'> +1.7556300e-04 </wgt>
</rwgt>
</event>
<event>
 4      1 +6.0853000e-08 2.07629900e+03 7.81860800e-03 8.04095200e-02
        2 -1    0    0  501    0 +0.0000000000e+00 +0.0000000000e+00 +2.7544422427e+03 2.7544422427e+03 0.0000000000e+00 0.0000e+00 -1.0000e+00
       -2 -1    0    0    0  501 -0.0000000000e+00 -0.0000000000e+00 -3.9127862905e+02 3.9127862905e+02 0.0000000000e+00 0.0000e+00 1.0000e+00
      -13  1    1    2    0    0 -8.9320965013e+02 +4.4563139848e+02 +1.6136893846e+03 1.8974731230e+03 0.0000000000e+00 0.0000e+00 1.0000e+00
       13  1    1    2    0    0 +8.9320965013e+02 -4.4563139848e+02 +7.4947422909e+02 1.2482477488e+03 0.0000000000e+00 0.0000e+00 -1.0000e+00
<mgrwt>
<rscale>  0 0.20762990E+04</rscale>
<asrwt>0</asrwt>
<pdfrwt beam="1">  1        2 0.42376033E+00 0.20762990E+04</pdfrwt>
<pdfrwt beam="2">  1       -2 0.60196714E-01 0.20762990E+04</pdfrwt>
<totfact> 0.72594986E+00</totfact>
</mgrwt>
<rwgt>
<wgt id='morphing_basis_vector_1'> +1.7279691e-04 </wgt>
<wgt id='morphing_basis_vector_2'> +1.4909981e-04 </wgt>
<wgt id='morphing_basis_vector_3'> +1.9082264e-04 </wgt>
<wgt id='morphing_basis_vector_4'> +8.8740231e-05 </wgt>
<wgt id='morphing_basis_vector_5'> +1.8620280e-04 </wgt>
</rwgt>
</event>
<event>
 4      1 +6.0853000e-08 1.87051800e+03 7.81860800e-03 8.12689600e-02
        2 -1    0    0  501    0 +0.0000000000e+00 +0.0000000000e+00 +1.0732923319e+03 1.0732923319e+03 0.0000000000e+00 0.0000e+00 -1.0000e+00
       -2 -1    0    0    0  501 -0.0000000000e+00 -0.0000000000e+00 -8.1497769711e+02 8.1497769711e+02 0.0000000000e+00 0.0000e+00 1.0000e+00
      -13  1    1    2    0    0 -4.0568606346e+00 -3.5433510391e+02 -7.4458541077e+02 8.2460733559e+02 0.0000000000e+00 0.0000e+00 1.0000e+00
       13  1    1    2    0    0 +4.0568606346e+00 +3.5433510391e+02 +1.0029000456e+03 1.0636626934e+03 0.0000000000e+00 0.0000e+00 -1.0000e+00
<mgrwt>
<rscale>  0 0.18705179E+04</rscale>
<asrwt>0</asrwt>
<pdfrwt beam="1">  1        2 0.16512190E+00 0.18705179E+04</pdfrwt>
<pdfrwt beam="2">  1       -2 0.12538118E+00 0.18705179E+04</pdfrwt>
<totfact> 0.12517264E+01</totfact>
</mgrwt>
<rwgt>
<wgt id='morphing_basis_vector_1'> +1.0498751e-04 </wgt>
<wgt id='morphing_basis_vector_2'> +6.9640474e-05 </wgt>
<wgt id='morphing_basis_vector_3'> +1.1145893e-04 </wgt>
<wgt id='morphing_basis_vector_4'> +7.7301359e-05 </wgt>
<wgt id='morphing_basis_vector_5'> +1.2312436e-04 </wgt>
</rwgt>
</event>
<event>
 4      1 +6.0853000e-08 1.89324300e+03 7.81860800e-03 8.11685200e-02
        2 -1    0    0  501    0 +0.0000000000e+00 +0.0000000000e+00 +3.2728392990e+03 3.2728392990e+03 0.0000000000e+00 0.0000e+00 -1.0000e+00
       -2 -1    0    0    0  501 -0.0000000000e+00 -0.0000000000e+00 -2.7379666480e+02 2.7379666480e+02 0.0000000000e+00 0.0000e+00 1.0000e+00
      -13  1    1    2    0    0 -4.7891777922e+02 +2.7978194811e+02 +6.2491315187e+01 5.5816246937e+02 0.0000000000e+00 0.0000e+00 1.0000e+00
       13  1    1    2    0    0 +4.7891777922e+02 -2.7978194811e+02 +2.9365513190e+03 2.9884734945e+03 0.0000000000e+00 0.0000e+00 -1.0000e+00
<mgrwt>
<rscale>  0 0.18932432E+04</rscale>
<asrwt>0</asrwt>
<pdfrwt beam="1">  1        2 0.50351371E+00 0.18932432E+04</pdfrwt>
<pdfrwt beam="2">  1       -2 0.42122566E-01 0.18932432E+04</pdfrwt>
<totfact> 0.68530193E+00</totfact>
</mgrwt>
<rwgt>
<wgt id='morphing_basis_vector_1'> +1.1010448e-04 </wgt>
<wgt id='morphing_basis_vector_2'> +7.3177896e-05 </wgt>
<wgt id='morphing_basis_vector_3'> +1.1702416e-04 </wgt>
<wgt id='morphing_basis_vector_4'> +8.1130200e-05 </wgt>
<wgt id='morphing_basis_vector_5'> +1.2935382e-04 </wgt>
</rwgt>
</event>
<event>
 4      1 +6.0853000e-08 1.89852000e+03 7.81860800e-03 8.11454100e-02
        2 -1    0    0  501    0 +0.0000000000e+00 +0.0000000000e+00 +2.5709888780e+03 2.5709888780e+03 0.0000000000e+00 0.0000e+00 -1.0000e+00
       -2 -1    0    0    0  501 -0.0000000000e+00 -0.0000000000e+00 -3.5048547998e+02 3.5048547998e+02 0.0000000000e+00 0.0000e+00 1.0000e+00
      -13  1    1    2    0    0 +7.8632363689e+02 +1.4867030317e+02 +3.2457064411e+02 8.6357039319e+02 0.0000000000e+00 0.0000e+00 1.0000e+00
       13  1    1    2    0    0 -7.8632363689e+02 -1.4867030317e+02 +1.8959327539e+03 2.0579039648e+03 0.0000000000e+00 0.0000e+00 -1.0000e+00
<mgrwt>
<rscale>  0 0.18985197E+04</rscale>
<asrwt>0</asrwt>
<pdfrwt beam="1">  1        2 0.39553674E+00 0.18985197E+04</pdfrwt>
<pdfrwt beam="2">  1       -2 0.53920845E-01 0.18985197E+04</pdfrwt>
<totfact> 0.11939261E+01</totfact>
</mgrwt>
<rwgt>
<wgt id='morphing_basis_vector_1'> +1.1166317e-04 </wgt>
<wgt id='morphing_basis_vector_2'> +7.5038092e-05 </wgt>
<wgt id='morphing_basis_vector_3'> +1.1883937e-04 </wgt>
<wgt id='morphing_basis_vector_4'> +8.1360423e-05 </wgt>
<wgt id='morphing_basis_vector_5'> +1.3078004e-04 </wgt>
</rwgt>
</event>
<event>
 4      1 +6.0853000e-08 2.13475600e+03 7.81860800e-03 8.01841200e-02
        2 -1    0    0  501    0 +0.0000000000e+00 +0.0000000000e+00 +7.8794760306e+02 7.8794760306e+02 0.0000000000e+00 0.0000e+00 -1.0000e+00
       -2 -1    0    0    0  501 -0.0000000000e+00 -0.0000000000e+00 -1.4459023648e+03 1.4459023648e+03 0.0000000000e+00 0.0000e+00 1.0000e+00
      -13  1    1    2    0    0 +5.4243025672e+02 +7.7165618348e+02 -8.5178042417e+02 1.2709105948e+03 0.0000000000e+00 0.0000e+00 1.0000e+00
       13  1    1    2    0    0 -5.4243025672e+02 -7.7165618348e+02 +1.9382566238e+02 9.6293937312e+02 0.0000000000e+00 0.0000e+00 -1.0000e+00
<mgrwt>
<rscale>  0 0.21347555E+04</rscale>
<asrwt>0</asrwt>
<pdfrwt beam="1">  1        2 0.12122271E+00 0.21347555E+04</pdfrwt>
<pdfrwt beam="2">  1       -2 0.22244651E+00 0.21347555E+04</pdfrwt>
<totfact> 0.32434045E+00</totfact>
</mgrwt>
<rwgt>
<wgt id='morphing_basis_vector_1'> +1.7712364e-04 </wgt>
<wgt id='morphing_basis_vector_2'> +1.2031757e-04 </wgt>
<wgt id='morphing_basis_vector_3'> +1.9026738e-04 </wgt>
<wgt id='morphing_basis_vector_4'> +1.3066372e-04 </wgt>
<wgt id='morphing_basis_vector_5'> +2.1097814e-04 </wgt>
</rwgt>
</event>
<event>
 4      1 +6.0853000e-08 1.99346500e+03 7.81860800e-03 8.07424500e-02
        2 -1    0    0  501    0 +0.0000000000e+00 +0.0000000000e+00 +1.1313484993e+03 1.1313484993e+03 0.0000000000e+00 0.0000e+00 1.0000e+00
       -2 -1    0    0    0  501 -0.0000000000e+00 -0.0000000000e+00 -8.7813398191e+02 8.7813398191e+02 0.0000000000e+00 0.0000e+00 -1.0000e+00
      -13  1    1    2    0    0 +2.6335514027e+02 +9.4360602822e+02 -5.8518306565e+01 9.8141360221e+02 0.0000000000e+00 0.0000e+00 -1.0000e+00
       13  1    1    2    0    0 -2.6335514027e+02 -9.4360602822e+02 +3.1173282394e+02 1.0280688790e+03 0.0000000000e+00 0.0000e+00 1.0000e+00
<mgrwt>
<rscale>  0 0.19934649E+04</rscale>
<asrwt>0</asrwt>
<pdfrwt beam="1">  1        2 0.17405362E+00 0.19934649E+04</pdfrwt>
<pdfrwt beam="2">  1       -2 0.13509754E+00 0.19934649E+04</pdfrwt>
<totfact> 0.93600132E+00</totfact>
</mgrwt>
<rwgt>
<wgt id='morphing_basis_vector_1'> +1.3714500e-04 </wgt>
<wgt id='morphing_basis_vector_2'> +9.6899772e-05 </wgt>
<wgt id='morphing_basis_vector_3'> +1.4728518e-04 </wgt>
<wgt id='morphing_basis_vector_4'> +9.5366003e-05 </wgt>
<wgt id='morphing_basis_vector_5'> +1.5932304e-04 </wgt>
</rwgt>
</event>
<event>
 4      1 +6.0853000e-08 1.94977400e+03 7.81860800e-03 8.09249100e-02
        2 -1    0    0  501    0 +0.0000000000e+00 +0.0000000000e+00 +1.4734262018e+03 1.4734262018e+03 0.0000000000e+00 0.0000e+00 1.0000e+00
       -2 -1    0    0    0  501 -0.0000000000e+00 -0.0000000000e+00 -6.4503008765e+02 6.4503008765e+02 0.0000000000e+00 0.0000e+00 -1.0000e+00
      -13  1    1    2    0    0 +5.9683948077e+01 +3.8877838692e+02 -5.5499036100e+02 6.8023900843e+02 0.0000000000e+00 0.0000e+00 -1.0000e+00
       13  1    1    2    0    0 -5.9683948077e+01 -3.8877838692e+02 +1.3833864752e+03 1.4382172810e+03 0.0000000000e+00 0.0000e+00 1.0000e+00
<mgrwt>
<rscale>  0 0.19497736E+04</rscale>
<asrwt>0</asrwt>
<pdfrwt beam="1">  1        2 0.22668095E+00 0.19497736E+04</pdfrwt>
<pdfrwt beam="2">  1       -2 0.99235398E-01 0.19497736E+04</pdfrwt>
<totfact> 0.13167490E+01</totfact>
</mgrwt>
<rwgt>
<wgt id='morphing_basis_vector_1'> +1.2349259e-04 </wgt>
<wgt id='morphing_basis_vector_2'> +8.2093993e-05 </wgt>
<wgt id='morphing_basis_vector_3'> +1.3154545e-04 </wgt>
<wgt id='morphing_basis_vector_4'> +9.1579220e-05 </wgt>
<wgt id='morphing_basis_vector_5'> +1.4589137e-04 </wgt>
</rwgt>
</event>
<event>
 4      1 +6.0853000e-08 2.04367600e+03 7.81860800e-03 8.05386800e-02
        2 -1    0    0  501    0 +0.0000000000e+00 +0.0000000000e+00 +2.0707421171e+03 2.0707421171e+03 0.0000000000e+00 0.0000e+00 -1.0000e+00
       -2 -1    0    0    0  501 -0.0000000000e+00 -0.0000000000e+00 -5.0424103188e+02 5.0424103188e+02 0.0000000000e+00 0.0000e+00 1.0000e+00
      -13  1    1    2    0    0 -2.4186052640e+02 -8.6870954832e+02 +1.7767460092e+02 9.1908707824e+02 0.0000000000e+00 0.0000e+00 1.0000e+00
       13  1    1    2    0    0 +2.4186052640e+02 +8.6870954832e+02 +1.3888264843e+03 1.6558960707e+03 0.0000000000e+00 0.0000e+00 -1.0000e+00
<mgrwt>
<rscale>  0 0.20436762E+04</rscale>
<asrwt>0</asrwt>
<pdfrwt beam="1">  1        2 0.31857570E+00 0.20436762E+04</pdfrwt>
<pdfrwt beam="2">  1       -2 0.77575545E-01 0.20436762E+04</pdfrwt>
<totfact> 0.10723471E+01</totfact>
</mgrwt>
<rwgt>
<wgt id='morphing_basis_vector_1'> +1.4924859e-04 </wgt>
<wgt id='morphing_basis_vector_2'> +1.0117624e-04 </wgt>
<wgt id='morphing_basis_vector_3'> +1.5983670e-04 </wgt>
<wgt id='morphing_basis_vector_4'> +1.0942928e-04 </wgt>
<wgt id='morphing_basis_vector_5'> +1.7664473e-04 </wgt>
</rwgt>
</event>
<event>
 4      1 +6.0853000e-08 2.16703800e+03 7.81860800e-03 8.00628200e-02
        2 -1    0    0  501    0 +0.0000000000e+00 +0.0000000000e+00 +1.7050479331e+03 1.7050479331e+03 0.0000000000e+00 0.0000e+00 1.0000e+00
       -2 -1    0    0    0  501 -0.0000000000e+00 -0.0000000000e+00 -6.8855155136e+02 6.8855155136e+02 0.0000000000e+00 0.0000e+00 -1.0000e+00
      -13  1    1    2    0    0 +9.8764590518e+02 +1.8432036047e+01 +1.0000258577e+03 1.4056442972e+03 0.0000000000e+00 0.0000e+00 1.0000e+00
       13  1    1    2    0    0 -9.8764590518e+02 -1.8432036047e+01 +1.6470524010e+01 9.8795518731e+02 0.0000000000e+00 0.0000e+00 -1.0000e+00
<mgrwt>
<rscale>  0 0.21670380E+04</rscale>
<asrwt>0</asrwt>
<pdfrwt beam="1">  1        2 0.26231507E+00 0.21670380E+04</pdfrwt>
<pdfrwt beam="2">  1       -2 0.10593101E+00 0.21670380E+04</pdfrwt>
<totfact> 0.81832733E+00</totfact>
</mgrwt>
<rwgt>
<wgt id='morphing_basis_vector_1'> +2.1363253e-04 </wgt>
<wgt id='morphing_basis_vector_2'> +2.0383025e-04 </wgt>
<wgt id='morphing_basis_vector_3'> +2.4024961e-04 </wgt>
<wgt id='morphing_basis_vector_4'> +8.7033884e-05 </wgt>
<wgt id='morphing_basis_vector_5'> +2.2012853e-04 </wgt>
</rwgt>
</event>
<event>
 4      1 +6.0853000e-08 1.97068600e+03 7.81860800e-03 8.08369700e-02
        2 -1    0    0  501    0 +0.0000000000e+00 +0.0000000000e+00 +1.7913014777e+03 1.7913014777e+03 0.0000000000e+00 0.0000e+00 1.0000e+00
       -2 -1    0    0    0  501 -0.0000000000e+00 -0.0000000000e+00 -5.4200863435e+02 5.4200863435e+02 0.0000000000e+00 0.0000e+00 -1.0000e+00
      -13  1    1    2    0    0 +6.6648734808e+02 +5.2114983465e+02 +2.6635889770e+01 8.4647032194e+02 0.0000000000e+00 0.0000e+00 -1.0000e+00
       13  1    1    2    0    0 -6.6648734808e+02 -5.2114983465e+02 +1.2226569535e+03 1.4868397901e+03 0.0000000000e+00 0.0000e+00 1.0000e+00
<mgrwt>
<rscale>  0 0.19706860E+04</rscale>
<asrwt>0</asrwt>
<pdfrwt beam="1">  1        2 0.27558484E+00 0.19706860E+04</pdfrwt>
<pdfrwt beam="2">  1       -2 0.83385945E-01 0.19706860E+04</pdfrwt>
<totfact> 0.13138628E+01</totfact>
</mgrwt>
<rwgt>
<wgt id='morphing_basis_vector_1'> +1.2928704e-04 </wgt>
<wgt id='morphing_basis_vector_2'> +8.7198361e-05 </wgt>
<wgt id='morphing_basis_vector_3'> +1.3803256e-04 </wgt>
<wgt id='morphing_basis_vector_4'> +9.4610715e-05 </wgt>
<wgt id='morphing_basis_vector_5'> +1.5230622e-04 </wgt>
</rwgt>
</event>
<event>
 4      1 +6.0853000e-08 2.00207900e+03 7.81860800e-03 8.07070500e-02
        2 -1    0    0  501    0 +0.0000000000e+00 +0.0000000000e+00 +9.2320131166e+02 9.2320131166e+02 0.0000000000e+00 0.0000e+00 1.0000e+00
       -2 -1    0    0    0  501 -0.0000000000e+00 -0.0000000000e+00 -1.0854409555e+03 1.0854409555e+03 0.0000000000e+00 0.0000e+00 -1.0000e+00
      -13  1    1    2    0    0 -3.4444500288e+02 +4.5006399738e+02 -9.0897955246e+02 1.0711880267e+03 0.0000000000e+00 0.0000e+00 -1.0000e+00
       13  1    1    2    0    0 +3.4444500288e+02 -4.5006399738e+02 +7.4673990865e+02 9.3745424044e+02 0.0000000000e+00 0.0000e+00 1.0000e+00
<mgrwt>
<rscale>  0 0.20020794E+04</rscale>
<asrwt>0</asrwt>
<pdfrwt beam="1">  1        2 0.14203097E+00 0.20020794E+04</pdfrwt>
<pdfrwt beam="2">  1       -2 0.16699092E+00 0.20020794E+04</pdfrwt>
<totfact> 0.68517321E+00</totfact>
</mgrwt>
<rwgt>
<wgt id='morphing_basis_vector_1'> +1.3702712e-04 </wgt>
<wgt id='morphing_basis_vector_2'> +9.1299830e-05 </wgt>
<wgt id='morphing_basis_vector_3'> +1.4627095e-04 </wgt>
<wgt id='morphing_basis_vector_4'> +1.0194375e-04 </wgt>
<wgt id='morphing_basis_vector_5'> +1.6253678e-04 </wgt>
</rwgt>
</event>
<event>
 4      1 +6.0853000e-08 2.03573800e+03 7.81860800e-03 8.05704900e-02
        2 -1    0    0  501    0 +0.0000000000e+00 +0.0000000000e+00 +1.8832477425e+03 1.8832477425e+03 0.0000000000e+00 0.0000e+00 1.0000e+00
       -2 -1    0    0    0  501 -0.0000000000e+00 -0.0000000000e+00 -5.5014406738e+02 5.5014406738e+02 0.0000000000e+00 0.0000e+00 -1.0000e+00
      -13  1    1    2    0    0 -6.0122477787e+02 -1.5594841507e+02 +1.6304602467e+03 1.7447612323e+03 0.0000000000e+00 0.0000e+00 1.0000e+00
       13  1    1    2    0    0 +6.0122477787e+02 +1.5594841507e+02 -2.9735657159e+02 6.8863057756e+02 0.0000000000e+00 0.0000e+00 -1.0000e+00
<mgrwt>
<rscale>  0 0.20357383E+04</rscale>
<asrwt>0</asrwt>
<pdfrwt beam="1">  1        2 0.28973042E+00 0.20357383E+04</pdfrwt>
<pdfrwt beam="2">  1       -2 0.84637550E-01 0.20357383E+04</pdfrwt>
<totfact> 0.11218965E+01</totfact>
</mgrwt>
<rwgt>
<wgt id='morphing_basis_vector_1'> +1.9443043e-04 </wgt>
<wgt id='morphing_basis_vector_2'> +2.4004937e-04 </wgt>
<wgt id='morphing_basis_vector_3'> +2.2675680e-04 </wgt>
<wgt id='morphing_basis_vector_4'> +1.3040598e-05 </wgt>
<wgt id='morphing_basis_vector_5'> +1.6637412e-04 </wgt>
</rwgt>
</event>
<event>
 4      1 +6.0853000e-08 1.92692600e+03 7.81860800e-03 8.10223200e-02
        2 -1    0    0  501    0 +0.0000000000e+00 +0.0000000000e+00 +1.7777915771e+03 1.7777915771e+03 0.0000000000e+00 0.0000e+00 -1.0000e+00
       -2 -1    0    0    0  501 -0.0000000000e+00 -0.0000000000e+00 -5.2214267819e+02 5.2214267819e+02 0.0000000000e+00 0.0000e+00 1.0000e+00
      -13  1    1    2    0    0 +4.5968322544e+02 +3.6902291474e+02 -2.8178317855e+02 6.5336692529e+02 0.0000000000e+00 0.0000e+00 1.0000e+00
       13  1    1    2    0    0 -4.5968322544e+02 -3.6902291474e+02 +1.5374320774e+03 1.6465673299e+03 0.0000000000e+00 0.0000e+00 -1.0000e+00
<mgrwt>
<rscale>  0 0.19269259E+04</rscale>
<asrwt>0</asrwt>
<pdfrwt beam="1">  1        2 0.27350639E+00 0.19269259E+04</pdfrwt>
<pdfrwt beam="2">  1       -2 0.80329644E-01 0.19269259E+04</pdfrwt>
<totfact> 0.14611298E+01</totfact>
</mgrwt>
<rwgt>
<wgt id='morphing_basis_vector_1'> +1.1798010e-04 </wgt>
<wgt id='morphing_basis_vector_2'> +7.8511494e-05 </wgt>
<wgt id='morphing_basis_vector_3'> +1.2557827e-04 </wgt>
<wgt id='morphing_basis_vector_4'> +8.7166113e-05 </wgt>
<wgt id='morphing_basis_vector_5'> +1.3902278e-04 </wgt>
</rwgt>
</event>
<event>
 4      1 +6.0853000e-08 1.98689800e+03 7.81860800e-03 8.07695700e-02
        2 -1    0    0  501    0 +0.0000000000e+00 +0.0000000000e+00 +1.0094711613e+03 1.0094711613e+03 0.0000000000e+00 0.0000e+00 1.0000e+00
       -2 -1    0    0    0  501 -0.0000000000e+00 -0.0000000000e+00 -9.7768070965e+02 9.7768070965e+02 0.0000000000e+00 0.0000e+00 -1.0000e+00
      -13  1    1    2    0    0 +7.3159997266e+02 -6.6581707517e+02 +1.0750162032e+02 9.9504145439e+02 0.0000000000e+00 0.0000e+00 -1.0000e+00
       13  1    1    2    0    0 -7.3159997266e+02 +6.6581707517e+02 -7.5711168664e+01 9.9211041656e+02 0.0000000000e+00 0.0000e+00 1.0000e+00
<mgrwt>
<rscale>  0 0.19868976E+04</rscale>
<asrwt>0</asrwt>
<pdfrwt beam="1">  1        2 0.15530326E+00 0.19868976E+04</pdfrwt>
<pdfrwt beam="2">  1       -2 0.15041242E+00 0.19868976E+04</pdfrwt>
<totfact> 0.82277958E+00</totfact>
</mgrwt>
<rwgt>
<wgt id='morphing_basis_vector_1'> +1.3968861e-04 </wgt>
<wgt id='morphing_basis_vector_2'> +1.0839082e-04 </wgt>
<wgt id='morphing_basis_vector_3'> +1.5161183e-04 </wgt>
<wgt id='morphing_basis_vector_4'> +8.5533703e-05 </wgt>
<wgt id='morphing_basis_vector_5'> +1.5651724e-04 </wgt>
</rwgt>
</event>
<event>
 4      1 +6.0853000e-08 2.02948400e+03 7.81860800e-03 8.05956500e-02
        2 -1    0    0  501    0 +0.0000000000e+00 +0.0000000000e+00 +2.7448479791e+03 2.7448479791e+03 0.0000000000e+00 0.0000e+00 -1.0000e+00
       -2 -1    0    0    0  501 -0.0000000000e+00 -0.0000000000e+00 -3.7513976423e+02 3.7513976423e+02 0.0000000000e+00 0.0000e+00 1.0000e+00
      -13  1    1    2    0    0 -5.1431073050e+02 -8.0865421890e+02 +6.7205718846e+02 1.1705118700e+03 0.0000000000e+00 0.0000e+00 1.0000e+00
       13  1    1    2    0    0 +5.1431073050e+02 +8.0865421890e+02 +1.6976510264e+03 1.9494758734e+03 0.0000000000e+00 0.0000e+00 -1.0000e+00
<mgrwt>
<rscale>  0 0.20294843E+04</rscale>
<asrwt>0</asrwt>
<pdfrwt beam="1">  1        2 0.42228429E+00 0.20294843E+04</pdfrwt>
<pdfrwt beam="2">  1       -2 0.57713812E-01 0.20294843E+04</pdfrwt>
<totfact> 0.80558558E+00</totfact>
</mgrwt>
<rwgt>
<wgt id='morphing_basis_vector_1'> +1.4593039e-04 </wgt>
<wgt id='morphing_basis_vector_2'> +1.0050711e-04 </wgt>
<wgt id='morphing_basis_vector_3'> +1.5647986e-04 </wgt>
<wgt id='morphing_basis_vector_4'> +1.0495810e-04 </wgt>
<wgt id='morphing_basis_vector_5'> +1.7158471e-04 </wgt>
</rwgt>
</event>
<event>
 4      1 +6.0853000e-08 1.91102800e+03 7.81860800e-03 8.10909300e-02
        2 -1    0    0  501    0 +0.0000000000e+00 +0.0000000000e+00 +1.0948355388e+03 1.0948355388e+03 0.0000000000e+00 0.0000e+00 -1.0000e+00
       -2 -1    0    0    0  501 -0.0000000000e+00 -0.0000000000e+00 -8.3392125925e+02 8.3392125925e+02 0.0000000000e+00 0.0000e+00 1.0000e+00
      -13  1    1    2    0    0 -4.4065747981e+02 +3.1101441128e+02 -6.6559183893e+02 8.5669217027e+02 0.0000000000e+00 0.0000e+00 1.0000e+00
       13  1    1    2    0    0 +4.4065747981e+02 -3.1101441128e+02 +9.2650611847e+02 1.0720646278e+03 0.0000000000e+00 0.0000e+00 -1.0000e+00
<mgrwt>
<rscale>  0 0.19110276E+04</rscale>
<asrwt>0</asrwt>
<pdfrwt beam="1">  1        2 0.16843624E+00 0.19110276E+04</pdfrwt>
<pdfrwt beam="2">  1       -2 0.12829558E+00 0.19110276E+04</pdfrwt>
<totfact> 0.11393053E+01</totfact>
</mgrwt>
<rwgt>
<wgt id='morphing_basis_vector_1'> +1.1419659e-04 </wgt>
<wgt id='morphing_basis_vector_2'> +7.5914514e-05 </wgt>
<wgt id='morphing_basis_vector_3'> +1.2146273e-04 </wgt>
<wgt id='morphing_basis_vector_4'> +8.4306469e-05 </wgt>
<wgt id='morphing_basis_vector_5'> +1.3439664e-04 </wgt>
</rwgt>
</event>
<event>
 4      1 +6.0853000e-08 2.19032700e+03 7.81860800e-03 7.99766600e-02
        2 -1    0    0  501    0 +0.0000000000e+00 +0.0000000000e+00 +2.2034960376e+03 2.2034960376e+03 0.0000000000e+00 0.0000e+00 1.0000e+00
       -2 -1    0    0    0  501 -0.0000000000e+00 -0.0000000000e+00 -5.4430936800e+02 5.4430936800e+02 0.0000000000e+00 0.0000e+00 -1.0000e+00
      -13  1    1    2    0    0 -9.5125458492e+02 -4.4455600523e+02 +1.2200452617e+03 1.6096663529e+03 0.0000000000e+00 0.0000e+00 1.0000e+00
       13  1    1    2    0    0 +9.5125458492e+02 +4.4455600523e+02 +4.3914140790e+02 1.1381390527e+03 0.0000000000e+00 0.0000e+00 -1.0000e+00
<mgrwt>
<rscale>  0 0.21903274E+04</rscale>
<asrwt>0</asrwt>
<pdfrwt beam="1">  1        2 0.33899939E+00 0.21903274E+04</pdfrwt>
<pdfrwt beam="2">  1       -2 0.83739904E-01 0.21903274E+04</pdfrwt>
<totfact> 0.74793121E+00</totfact>
</mgrwt>
<rwgt>
<wgt id='morphing_basis_vector_1'> +2.1376357e-04 </wgt>
<wgt id='morphing_basis_vector_2'> +1.8589973e-04 </wgt>
<wgt id='morphing_basis_vector_3'> +2.3734959e-04 </wgt>
<wgt id='morphing_basis_vector_4'> +1.0912922e-04 </wgt>
<wgt id='morphing_basis_vector_5'> +2.3136218e-04 </wgt>
</rwgt>
</event>
<event>
 4      1 +6.0853000e-08 2.00079500e+03 7.81860800e-03 8.07123200e-02
        2 -1    0    0  501    0 +0.0000000000e+00 +0.0000000000e+00 +9.3132838514e+02 9.3132838514e+02 0.0000000000e+00 0.0000e+00 -1.0000e+00
       -2 -1    0    0    0  501 -0.0000000000e+00 -0.0000000000e+00 -1.0745885617e+03 1.0745885617e+03 0.0000000000e+00 0.0000e+00 1.0000e+00
      -13  1    1    2    0    0 -1.7904257234e+02 -8.9533780829e+02 -4.8146606612e+02 1.0322284662e+03 0.0000000000e+00 0.0000e+00 1.0000e+00
       13  1    1    2    0    0 +1.7904257234e+02 +8.9533780829e+02 +3.3820588952e+02 9.7368848066e+02 0.0000000000e+00 0.0000e+00 -1.0000e+00
<mgrwt>
<rscale>  0 0.20007947E+04</rscale>
<asrwt>0</asrwt>
<pdfrwt beam="1">  1        2 0.14328129E+00 0.20007947E+04</pdfrwt>
<pdfrwt beam="2">  1       -2 0.16532132E+00 0.20007947E+04</pdfrwt>
<totfact> 0.69780916E+00</totfact>
</mgrwt>
<rwgt>
<wgt id='morphing_basis_vector_1'> +1.3759009e-04 </wgt>
<wgt id='morphing_basis_vector_2'> +9.3753933e-05 </wgt>
<wgt id='morphing_basis_vector_3'> +1.4721743e-04 </wgt>
<wgt id='morphing_basis_vector_4'> +9.9871908e-05 </wgt>
<wgt id='morphing_basis_vector_5'> +1.6196913e-04 </wgt>
</rwgt>
</event>
<event>
 4      1 +6.0853000e-08 2.19451800e+03 7.81860800e-03 7.99612700e-02
        2 -1    0    0  501    0 +0.0000000000e+00 +0.0000000000e+00 +1.0980423961e+03 1.0980423961e+03 0.0000000000e+00 0.0000e+00 1.0000e+00
       -2 -1    0    0    0  501 -0.0000000000e+00 -0.0000000000e+00 -1.0964761371e+03 1.0964761371e+03 0.0000000000e+00 0.0000e+00 -1.0000e+00
      -13  1    1    2    0    0 -7.8959875517e+02 +1.0194225616e+02 -7.5427922395e+02 1.0967203679e+03 0.0000000000e+00 0.0000e+00 -1.0000e+00
       13  1    1    2    0    0 +7.8959875517e+02 -1.0194225616e+02 +7.5584548291e+02 1.0977981653e+03 0.0000000000e+00 0.0000e+00 1.0000e+00
<mgrwt>
<rscale>  0 0.21945180E+04</rscale>
<asrwt>0</asrwt>
<pdfrwt beam="1">  1        2 0.16892960E+00 0.21945180E+04</pdfrwt>
<pdfrwt beam="2">  1       -2 0.16868864E+00 0.21945180E+04</pdfrwt>
<totfact> 0.50899804E+00</totfact>
</mgrwt>
<rwgt>
<wgt id='morphing_basis_vector_1'> +1.9666787e-04 </wgt>
<wgt id='morphing_basis_vector_2'> +1.3200576e-04 </wgt>
<wgt id='morphing_basis_vector_3'> +2.1132540e-04 </wgt>
<wgt id='morphing_basis_vector_4'> +1.4772490e-04 </wgt>
<wgt id='morphing_basis_vector_5'> +2.3618336e-04 </wgt>
</rwgt>
</event>
<event>
 4      1 +6.0853000e-08 2.17790800e+03 7.81860800e-03 8.00224700e-02
        2 -1    0    0  501    0 +0.0000000000e+00 +0.0000000000e+00 +8.9336178562e+02 8.9336178562e+02 0.0000000000e+00 0.0000e+00 -1.0000e+00
       -2 -1    0    0    0  501 -0.0000000000e+00 -0.0000000000e+00 -1.3273687798e+03 1.3273687798e+03 0.0000000000e+00 0.0000e+00 1.0000e+00
      -13  1    1    2    0    0 +9.2593454466e+02 -5.1587570552e+02 -4.7158854137e+02 1.1601199407e+03 0.0000000000e+00 0.0000e+00 1.0000e+00
       13  1    1    2    0    0 -9.2593454466e+02 +5.1587570552e+02 +3.7581547179e+01 1.0606106247e+03 0.0000000000e+00 0.0000e+00 -1.0000e+00
<mgrwt>
<rscale>  0 0.21779078E+04</rscale>
<asrwt>0</asrwt>
<pdfrwt beam="1">  1        2 0.13744027E+00 0.21779078E+04</pdfrwt>
<pdfrwt beam="2">  1       -2 0.20421058E+00 0.21779078E+04</pdfrwt>
<totfact> 0.37033004E+00</totfact>
</mgrwt>
<rwgt>
<wgt id='morphing_basis_vector_1'> +1.9353433e-04 </wgt>
<wgt id='morphing_basis_vector_2'> +1.3593191e-04 </wgt>
<wgt id='morphing_basis_vector_3'> +2.0895395e-04 </wgt>
<wgt id='morphing_basis_vector_4'> +1.3788079e-04 </wgt>
<wgt id='morphing_basis_vector_5'> +2.2856922e-04 </wgt>
</rwgt>
</event>
<event>
 4      1 +6.0853000e-08 1.97265800e+03 7.81860800e-03 8.08287300e-02
        2 -1    0    0  501    0 +0.0000000000e+00 +0.0000000000e+00 +1.1765527366e+03 1.1765527366e+03 0.0000000000e+00 0.0000e+00 -1.0000e+00
       -2 -1    0    0    0  501 -0.0000000000e+00 -0.0000000000e+00 -8.2686064050e+02 8.2686064050e+02 0.0000000000e+00 0.0000e+00 1.0000e+00
      -13  1    1    2    0    0 -3.5816849055e+02 +5.6483087925e+02 -5.6138825688e+02 8.7319835360e+02 0.0000000000e+00 0.0000e+00 1.0000e+00
       13  1    1    2    0    0 +3.5816849055e+02 -5.6483087925e+02 +9.1108035302e+02 1.1302150235e+03 0.0000000000e+00 0.0000e+00 -1.0000e+00
<mgrwt>
<rscale>  0 0.19726583E+04</rscale>
<asrwt>0</asrwt>
<pdfrwt beam="1">  1        2 0.18100811E+00 0.19726583E+04</pdfrwt>
<pdfrwt beam="2">  1       -2 0.12720933E+00 0.19726583E+04</pdfrwt>
<totfact> 0.10364410E+01</totfact>
</mgrwt>
<rwgt>
<wgt id='morphing_basis_vector_1'> +1.2937826e-04 </wgt>
<wgt id='morphing_basis_vector_2'> +8.6311806e-05 </wgt>
<wgt id='morphing_basis_vector_3'> +1.3798128e-04 </wgt>
<wgt id='morphing_basis_vector_4'> +9.5824111e-05 </wgt>
<wgt id='morphing_basis_vector_5'> +1.5299459e-04 </wgt>
</rwgt>
</event>
<event>
 4      1 +6.0853000e-08 2.06370500e+03 7.81860800e-03 8.04590900e-02
        2 -1    0    0  501    0 +0.0000000000e+00 +0.0000000000e+00 +1.7972727159e+03 1.7972727159e+03 0.0000000000e+00 0.0000e+00 1.0000e+00
       -2 -1    0    0    0  501 -0.0000000000e+00 -0.0000000000e+00 -5.9240843183e+02 5.9240843183e+02 0.0000000000e+00 0.0000e+00 -1.0000e+00
      -13  1    1    2    0    0 -5.6677740446e+02 -4.3643874760e+01 -3.9474152786e+02 6.9207101357e+02 0.0000000000e+00 0.0000e+00 -1.0000e+00
       13  1    1    2    0    0 +5.6677740446e+02 +4.3643874760e+01 +1.5996058119e+03 1.6976101341e+03 0.0000000000e+00 0.0000e+00 1.0000e+00
<mgrwt>
<rscale>  0 0.20637049E+04</rscale>
<asrwt>0</asrwt>
<pdfrwt beam="1">  1        2 0.27650349E+00 0.20637049E+04</pdfrwt>
<pdfrwt beam="2">  1       -2 0.91139759E-01 0.20637049E+04</pdfrwt>
<totfact> 0.10523051E+01</totfact>
</mgrwt>
<rwgt>
<wgt id='morphing_basis_vector_1'> +1.5431959e-04 </wgt>
<wgt id='morphing_basis_vector_2'> +1.0294662e-04 </wgt>
<wgt id='morphing_basis_vector_3'> +1.6508574e-04 </wgt>
<wgt id='morphing_basis_vector_4'> +1.1536478e-04 </wgt>
<wgt id='morphing_basis_vector_5'> +1.8392755e-04 </wgt>
</rwgt>
</event>
<event>
 4      1 +6.0853000e-08 1.97593600e+03 7.81860800e-03 8.08150700e-02
        2 -1    0    0  501    0 +0.0000000000e+00 +0.0000000000e+00 +4.0288177496e+03 4.0288177496e+03 0.0000000000e+00 0.0000e+00 -1.0000e+00
       -2 -1    0    0    0  501 -0.0000000000e+00 -0.0000000000e+00 -2.4227469172e+02 2.4227469172e+02 0.0000000000e+00 0.0000e+00 1.0000e+00
      -13  1    1    2    0    0 +4.4442599332e+02 -4.6923058438e+02 +2.7804113250e+02 7.0356142320e+02 0.0000000000e+00 0.0000e+00 1.0000e+00
       13  1    1    2    0    0 -4.4442599332e+02 +4.6923058438e+02 +3.5085019254e+03 3.5675310182e+03 0.0000000000e+00 0.0000e+00 -1.0000e+00
<mgrwt>
<rscale>  0 0.19759358E+04</rscale>
<asrwt>0</asrwt>
<pdfrwt beam="1">  1        2 0.61981807E+00 0.19759358E+04</pdfrwt>
<pdfrwt beam="2">  1       -2 0.37273032E-01 0.19759358E+04</pdfrwt>
<totfact> 0.22657974E+00</totfact>
</mgrwt>
<rwgt>
<wgt id='morphing_basis_vector_1'> +1.3020085e-04 </wgt>
<wgt id='morphing_basis_vector_2'> +8.6818172e-05 </wgt>
<wgt id='morphing_basis_vector_3'> +1.3886783e-04 </wgt>
<wgt id='morphing_basis_vector_4'> +9.6518009e-05 </wgt>
<wgt id='morphing_basis_vector_5'> +1.5403845e-04 </wgt>
</rwgt>
</event>
<event>
 4      1 +6.0853000e-08 1.95041400e+03 7.81860800e-03 8.09222000e-02
        2 -1    0    0  501    0 +0.0000000000e+00 +0.0000000000e+00 +1.1504180492e+03 1.1504180492e+03 0.0000000000e+00 0.0000e+00 -1.0000e+00
       -2 -1    0    0    0  501 -0.0000000000e+00 -0.0000000000e+00 -8.2668110731e+02 8.2668110731e+02 0.0000000000e+00 0.0000e+00 1.0000e+00
      -13  1    1    2    0    0 +5.0659457458e+01 +9.6603557072e+02 +3.6738252797e+01 9.6806033063e+02 0.0000000000e+00 0.0000e+00 1.0000e+00
       13  1    1    2    0    0 -5.0659457458e+01 -9.6603557072e+02 +2.8699868905e+02 1.0090388258e+03 0.0000000000e+00 0.0000e+00 -1.0000e+00
<mgrwt>
<rscale>  0 0.19504142E+04</rscale>
<asrwt>0</asrwt>
<pdfrwt beam="1">  1        2 0.17698739E+00 0.19504142E+04</pdfrwt>
<pdfrwt beam="2">  1       -2 0.12718171E+00 0.19504142E+04</pdfrwt>
<totfact> 0.10765777E+01</totfact>
</mgrwt>
<rwgt>
<wgt id='morphing_basis_vector_1'> +1.2646964e-04 </wgt>
<wgt id='morphing_basis_vector_2'> +9.0548739e-05 </wgt>
<wgt id='morphing_basis_vector_3'> +1.3579265e-04 </wgt>
<wgt id='morphing_basis_vector_4'> +8.6118530e-05 </wgt>
<wgt id='morphing_basis_vector_5'> +1.4564840e-04 </wgt>
</rwgt>
</event>
<event>
 4      1 +6.0853000e-08 1.94028100e+03 7.81860800e-03 8.09652100e-02
        2 -1    0    0  501    0 +0.0000000000e+00 +0.0000000000e+00 +1.6392529887e+03 1.6392529887e+03 0.0000000000e+00 0.0000e+00 1.0000e+00
       -2 -1    0    0    0  501 -0.0000000000e+00 -0.0000000000e+00 -5.7414727080e+02 5.7414727080e+02 0.0000000000e+00 0.0000e+00 -1.0000e+00
      -13  1    1    2    0    0 -9.3026516692e+02 +7.4079993310e+01 +8.3499808415e+02 1.2522391651e+03 0.0000000000e+00 0.0000e+00 1.0000e+00
       13  1    1    2    0    0 +9.3026516692e+02 -7.4079993310e+01 +2.3010763377e+02 9.6116109436e+02 0.0000000000e+00 0.0000e+00 -1.0000e+00
<mgrwt>
<rscale>  0 0.19402810E+04</rscale>
<asrwt>0</asrwt>
<pdfrwt beam="1">  1        2 0.25219277E+00 0.19402810E+04</pdfrwt>
<pdfrwt beam="2">  1       -2 0.88330350E-01 0.19402810E+04</pdfrwt>
<totfact> 0.14010961E+01</totfact>
</mgrwt>
<rwgt>
<wgt id='morphing_basis_vector_1'> +1.3243103e-04 </wgt>
<wgt id='morphing_basis_vector_2'> +1.1392424e-04 </wgt>
<wgt id='morphing_basis_vector_3'> +1.4528555e-04 </wgt>
<wgt id='morphing_basis_vector_4'> +6.7452700e-05 </wgt>
<wgt id='morphing_basis_vector_5'> +1.4125846e-04 </wgt>
</rwgt>
</event>
<event>
 4      1 +6.0853000e-08 2.13004700e+03 7.81860800e-03 8.02019900e-02
        2 -1    0    0  501    0 +0.0000000000e+00 +0.0000000000e+00 +2.4066418735e+03 2.4066418735e+03 0.0000000000e+00 0.0000e+00 -1.0000e+00
       -2 -1    0    0    0  501 -0.0000000000e+00 -0.0000000000e+00 -4.7131013367e+02 4.7131013367e+02 0.0000000000e+00 0.0000e+00 1.0000e+00
      -13  1    1    2    0    0 -4.7162751742e+01 +1.0494275776e+03 +7.3072930824e+02 1.2796436565e+03 0.0000000000e+00 0.0000e+00 1.0000e+00
       13  1    1    2    0    0 +4.7162751742e+01 -1.0494275776e+03 +1.2046024316e+03 1.5983083507e+03 0.0000000000e+00 0.0000e+00 -1.0000e+00
<mgrwt>
<rscale>  0 0.21300467E+04</rscale>
<asrwt>0</asrwt>
<pdfrwt beam="1">  1        2 0.37025259E+00 0.21300467E+04</pdfrwt>
<pdfrwt beam="2">  1       -2 0.72509253E-01 0.21300467E+04</pdfrwt>
<totfact> 0.79138288E+00</totfact>
</mgrwt>
<rwgt>
<wgt id='morphing_basis_vector_1'> +1.7813025e-04 </wgt>
<wgt id='morphing_basis_vector_2'> +1.2676984e-04 </wgt>
<wgt id='morphing_basis_vector_3'> +1.9234716e-04 </wgt>
<wgt id='morphing_basis_vector_4'> +1.2439871e-04 </wgt>
<wgt id='morphing_basis_vector_5'> +2.0868441e-04 </wgt>
</rwgt>
</event>
<event>
 4      1 +6.0853000e-08 1.97009500e+03 7.81860800e-03 8.08394400e-02
        2 -1    0    0  501    0 +0.0000000000e+00 +0.0000000000e+00 +8.2114471244e+02 8.2114471244e+02 0.0000000000e+00 0.0000e+00 1.0000e+00
       -2 -1    0    0    0  501 -0.0000000000e+00 -0.0000000000e+00 -1.1816657916e+03 1.1816657916e+03 0.0000000000e+00 0.0000e+00 -1.0000e+00
      -13  1    1    2    0    0 -7.4733707032e+02 -4.4458155693e+02 -6.5071211329e+02 1.0860901030e+03 0.0000000000e+00 0.0000e+00 -1.0000e+00
       13  1    1    2    0    0 +7.4733707032e+02 +4.4458155693e+02 +2.9019103411e+02 9.1672040106e+02 0.0000000000e+00 0.0000e+00 1.0000e+00
<mgrwt>
<rscale>  0 0.19700950E+04</rscale>
<asrwt>0</asrwt>
<pdfrwt beam="1">  1        2 0.12632996E+00 0.19700950E+04</pdfrwt>
<pdfrwt beam="2">  1       -2 0.18179474E+00 0.19700950E+04</pdfrwt>
<totfact> 0.61759898E+00</totfact>
</mgrwt>
<rwgt>
<wgt id='morphing_basis_vector_1'> +1.2926896e-04 </wgt>
<wgt id='morphing_basis_vector_2'> +8.7490775e-05 </wgt>
<wgt id='morphing_basis_vector_3'> +1.3806118e-04 </wgt>
<wgt id='morphing_basis_vector_4'> +9.4229604e-05 </wgt>
<wgt id='morphing_basis_vector_5'> +1.5209891e-04 </wgt>
</rwgt>
</event>
<event>
 4      1 +6.0853000e-08 1.89119500e+03 7.81860800e-03 8.11775100e-02
        2 -1    0    0  501    0 +0.0000000000e+00 +0.0000000000e+00 +9.9051626543e+02 9.9051626543e+02 0.0000000000e+00 0.0000e+00 1.0000e+00
       -2 -1    0    0    0  501 -0.0000000000e+00 -0.0000000000e+00 -9.0271588235e+02 9.0271588235e+02 0.0000000000e+00 0.0000e+00 -1.0000e+00
      -13  1    1    2    0    0 +4.9381859156e+02 +1.5183083840e+02 +8.3674147466e+02 9.8338481800e+02 0.0000000000e+00 0.0000e+00 1.0000e+00
       13  1    1    2    0    0 -4.9381859156e+02 -1.5183083840e+02 -7.4894109158e+02 9.0984732978e+02 0.0000000000e+00 0.0000e+00 -1.0000e+00
<mgrwt>
<rscale>  0 0.18911951E+04</rscale>
<asrwt>0</asrwt>
<pdfrwt beam="1">  1        2 0.15238712E+00 0.18911951E+04</pdfrwt>
<pdfrwt beam="2">  1       -2 0.13887937E+00 0.18911951E+04</pdfrwt>
<totfact> 0.10662858E+01</totfact>
</mgrwt>
<rwgt>
<wgt id='morphing_basis_vector_1'> +1.4742419e-04 </wgt>
<wgt id='morphing_basis_vector_2'> +1.8485794e-04 </wgt>
<wgt id='morphing_basis_vector_3'> +1.7066448e-04 </wgt>
<wgt id='morphing_basis_vector_4'> +6.3188643e-06 </wgt>
<wgt id='morphing_basis_vector_5'> +1.2296016e-04 </wgt>
</rwgt>
</event>
<event>
 4      1 +6.0853000e-08 2.10412700e+03 7.81860800e-03 8.03012700e-02
        2 -1    0    0  501    0 +0.0000000000e+00 +0.0000000000e+00 +3.5639525932e+03 3.5639525932e+03 0.0000000000e+00 0.0000e+00 1.0000e+00
       -2 -1    0    0    0  501 -0.0000000000e+00 -0.0000000000e+00 -3.1056467482e+02 3.1056467482e+02 0.0000000000e+00 0.0000e+00 -1.0000e+00
      -13  1    1    2    0    0 -7.1740924392e+02 +1.0187250823e+02 +2.2217886659e+02 7.5790334473e+02 0.0000000000e+00 0.0000e+00 -1.0000e+00
       13  1    1    2    0    0 +7.1740924392e+02 -1.0187250823e+02 +3.0312090518e+03 3.1166139233e+03 0.0000000000e+00 0.0000e+00 1.0000e+00
<mgrwt>
<rscale>  0 0.21041272E+04</rscale>
<asrwt>0</asrwt>
<pdfrwt beam="1">  1        2 0.54830037E+00 0.21041272E+04</pdfrwt>
<pdfrwt beam="2">  1       -2 0.47779183E-01 0.21041272E+04</pdfrwt>
<totfact> 0.32694947E+00</totfact>
</mgrwt>
<rwgt>
<wgt id='morphing_basis_vector_1'> +1.6664571e-04 </wgt>
<wgt id='morphing_basis_vector_2'> +1.1152941e-04 </wgt>
<wgt id='morphing_basis_vector_3'> +1.7855536e-04 </wgt>
<wgt id='morphing_basis_vector_4'> +1.2461276e-04 </wgt>
<wgt id='morphing_basis_vector_5'> +1.9903459e-04 </wgt>
</rwgt>
</event>
<event>
 4      1 +6.0853000e-08 1.88267100e+03 7.81860800e-03 8.12150600e-02
        2 -1    0    0  501    0 +0.0000000000e+00 +0.0000000000e+00 +1.2999627426e+03 1.2999627426e+03 0.0000000000e+00 0.0000e+00 -1.0000e+00
       -2 -1    0    0    0  501 -0.0000000000e+00 -0.0000000000e+00 -6.8164473189e+02 6.8164473189e+02 0.0000000000e+00 0.0000e+00 1.0000e+00
      -13  1    1    2    0    0 +2.3593004503e+02 +3.5757884332e+02 -5.7309419029e+02 7.1551559471e+02 0.0000000000e+00 0.0000e+00 1.0000e+00
       13  1    1    2    0    0 -2.3593004503e+02 -3.5757884332e+02 +1.1914122010e+03 1.2660918798e+03 0.0000000000e+00 0.0000e+00 -1.0000e+00
<mgrwt>
<rscale>  0 0.18826712E+04</rscale>
<asrwt>0</asrwt>
<pdfrwt beam="1">  1        2 0.19999427E+00 0.18826712E+04</pdfrwt>
<pdfrwt beam="2">  1       -2 0.10486842E+00 0.18826712E+04</pdfrwt>
<totfact> 0.14515382E+01</totfact>
</mgrwt>
<rwgt>
<wgt id='morphing_basis_vector_1'> +1.0768704e-04 </wgt>
<wgt id='morphing_basis_vector_2'> +7.1474108e-05 </wgt>
<wgt id='morphing_basis_vector_3'> +1.1438963e-04 </wgt>
<wgt id='morphing_basis_vector_4'> +7.9359619e-05 </wgt>
<wgt id='morphing_basis_vector_5'> +1.2642953e-04 </wgt>
</rwgt>
</event>
<event>
 4      1 +6.0853000e-08 2.15251200e+03 7.81860800e-03 8.01171300e-02
        2 -1    0    0  501    0 +0.0000000000e+00 +0.0000000000e+00 +3.2061805806e+03 3.2061805806e+03 0.0000000000e+00 0.0000e+00 1.0000e+00
       -2 -1    0    0    0  501 -0.0000000000e+00 -0.0000000000e+00 -3.6127931341e+02 3.6127931341e+02 0.0000000000e+00 0.0000e+00 -1.0000e+00
      -13  1    1    2    0    0 +5.7790095591e+01 -6.8505215829e+02 +5.0060291370e+01 6.8930558354e+02 0.0000000000e+00 0.0000e+00 -1.0000e+00
       13  1    1    2    0    0 -5.7790095591e+01 +6.8505215829e+02 +2.7948409759e+03 2.8781543105e+03 0.0000000000e+00 0.0000e+00 1.0000e+00
<mgrwt>
<rscale>  0 0.21525118E+04</rscale>
<asrwt>0</asrwt>
<pdfrwt beam="1">  1        2 0.49325853E+00 0.21525118E+04</pdfrwt>
<pdfrwt beam="2">  1       -2 0.55581435E-01 0.21525118E+04</pdfrwt>
<totfact> 0.43233604E+00</totfact>
</mgrwt>
<rwgt>
<wgt id='morphing_basis_vector_1'> +1.8215219e-04 </wgt>
<wgt id='morphing_basis_vector_2'> +1.2188042e-04 </wgt>
<wgt id='morphing_basis_vector_3'> +1.9543699e-04 </wgt>
<wgt id='morphing_basis_vector_4'> +1.3681448e-04 </wgt>
<wgt id='morphing_basis_vector_5'> +2.1834533e-04 </wgt>
</rwgt>
</event>
<event>
 4      1 +6.0853000e-08 1.97662900e+03 7.81860800e-03 8.08121800e-02
        2 -1    0    0  501    0 +0.0000000000e+00 +0.0000000000e+00 +1.2738116273e+03 1.2738116273e+03 0.0000000000e+00 0.0000e+00 -1.0000e+00
       -2 -1    0    0    0  501 -0.0000000000e+00 -0.0000000000e+00 -7.6680555521e+02 7.6680555521e+02 0.0000000000e+00 0.0000e+00 1.0000e+00
      -13  1    1    2    0    0 +4.0584148812e+02 +9.0096062126e+02 +2.7221369933e+02 1.0249573906e+03 0.0000000000e+00 0.0000e+00 1.0000e+00
       13  1    1    2    0    0 -4.0584148812e+02 -9.0096062126e+02 +2.3479237279e+02 1.0156597919e+03 0.0000000000e+00 0.0000e+00 -1.0000e+00
<mgrwt>
<rscale>  0 0.19766293E+04</rscale>
<asrwt>0</asrwt>
<pdfrwt beam="1">  1        2 0.19597102E+00 0.19766293E+04</pdfrwt>
<pdfrwt beam="2">  1       -2 0.11797009E+00 0.19766293E+04</pdfrwt>
<totfact> 0.11079807E+01</totfact>
</mgrwt>
<rwgt>
<wgt id='morphing_basis_vector_1'> +1.3536584e-04 </wgt>
<wgt id='morphing_basis_vector_2'> +1.0170444e-04 </wgt>
<wgt id='morphing_basis_vector_3'> +1.4629800e-04 </wgt>
<wgt id='morphing_basis_vector_4'> +8.6755152e-05 </wgt>
<wgt id='morphing_basis_vector_5'> +1.5347940e-04 </wgt>
</rwgt>
</event>
<event>
 4      1 +6.0853000e-08 2.20499900e+03 7.81860800e-03 7.99229500e-02
        2 -1    0    0  501    0 +0.0000000000e+00 +0.0000000000e+00 +2.2001690723e+03 2.2001690723e+03 0.0000000000e+00 0.0000e+00 -1.0000e+00
       -2 -1    0    0    0  501 -0.0000000000e+00 -0.0000000000e+00 -5.5245992869e+02 5.5245992869e+02 0.0000000000e+00 0.0000e+00 1.0000e+00
      -13  1    1    2    0    0 -1.3688451156e+02 -1.0137926472e+03 +3.1067095165e+02 1.0691255030e+03 0.0000000000e+00 0.0000e+00 1.0000e+00
       13  1    1    2    0    0 +1.3688451156e+02 +1.0137926472e+03 +1.3370381920e+03 1.6835034980e+03 0.0000000000e+00 0.0000e+00 -1.0000e+00
<mgrwt>
<rscale>  0 0.22049991E+04</rscale>
<asrwt>0</asrwt>
<pdfrwt beam="1">  1        2 0.33848755E+00 0.22049991E+04</pdfrwt>
<pdfrwt beam="2">  1       -2 0.84993836E-01 0.22049991E+04</pdfrwt>
<totfact> 0.72503245E+00</totfact>
</mgrwt>
<rwgt>
<wgt id='morphing_basis_vector_1'> +2.0177048e-04 </wgt>
<wgt id='morphing_basis_vector_2'> +1.3861405e-04 </wgt>
<wgt id='morphing_basis_vector_3'> +2.1744648e-04 </wgt>
<wgt id='morphing_basis_vector_4'> +1.4782264e-04 </wgt>
<wgt id='morphing_basis_vector_5'> +2.4058089e-04 </wgt>
</rwgt>
</event>
<event>
 4      1 +6.0853000e-08 1.94863100e+03 7.81860800e-03 8.09297500e-02
        2 -1    0    0  501    0 +0.0000000000e+00 +0.0000000000e+00 +1.1151642730e+03 1.1151642730e+03 0.0000000000e+00 0.0000e+00 1.0000e+00
       -2 -1    0    0    0  501 -0.0000000000e+00 -0.0000000000e+00 -8.5125655314e+02 8.5125655314e+02 0.0000000000e+00 0.0000e+00 -1.0000e+00
      -13  1    1    2    0    0 +3.6069928594e+02 -8.8093124309e+02 -7.7661181188e+01 9.5507857740e+02 0.0000000000e+00 0.0000e+00 -1.0000e+00
       13  1    1    2    0    0 -3.6069928594e+02 +8.8093124309e+02 +3.4156890105e+02 1.0113422487e+03 0.0000000000e+00 0.0000e+00 1.0000e+00
<mgrwt>
<rscale>  0 0.19486312E+04</rscale>
<asrwt>0</asrwt>
<pdfrwt beam="1">  1        2 0.17156373E+00 0.19486312E+04</pdfrwt>
<pdfrwt beam="2">  1       -2 0.13096255E+00 0.19486312E+04</pdfrwt>
<totfact> 0.10452868E+01</totfact>
</mgrwt>
<rwgt>
<wgt id='morphing_basis_vector_1'> +1.2520884e-04 </wgt>
<wgt id='morphing_basis_vector_2'> +8.7825820e-05 </wgt>
<wgt id='morphing_basis_vector_3'> +1.3412790e-04 </wgt>
<wgt id='morphing_basis_vector_4'> +8.7399817e-05 </wgt>
<wgt id='morphing_basis_vector_5'> +1.4523126e-04 </wgt>
</rwgt>
</event>
<event>
 4      1 +6.0853000e-08 1.94037500e+03 7.81860800e-03 8.09648100e-02
        2 -1    0    0  501    0 +0.0000000000e+00 +0.0000000000e+00 +1.4396295693e+03 1.4396295693e+03 0.0000000000e+00 0.0000e+00 -1.0000e+00
       -2 -1    0    0    0  501 -0.0000000000e+00 -0.0000000000e+00 -6.5382388285e+02 6.5382388285e+02 0.0000000000e+00 0.0000e+00 1.0000e+00
      -13  1    1    2    0    0 +4.6255069337e+02 +2.4430865627e+02 -4.8864040160e+02 7.1582770660e+02 0.0000000000e+00 0.0000e+00 1.0000e+00
       13  1    1    2    0    0 -4.6255069337e+02 -2.4430865627e+02 +1.2744460881e+03 1.3776257456e+03 0.0000000000e+00 0.0000e+00 -1.0000e+00
<mgrwt>
<rscale>  0 0.19403754E+04</rscale>
<asrwt>0</asrwt>
<pdfrwt beam="1">  1        2 0.22148147E+00 0.19403754E+04</pdfrwt>
<pdfrwt beam="2">  1       -2 0.10058829E+00 0.19403754E+04</pdfrwt>
<totfact> 0.13324426E+01</totfact>
</mgrwt>
<rwgt>
<wgt id='morphing_basis_vector_1'> +1.2120505e-04 </wgt>
<wgt id='morphing_basis_vector_2'> +8.0614704e-05 </wgt>
<wgt id='morphing_basis_vector_3'> +1.2907012e-04 </wgt>
<wgt id='morphing_basis_vector_4'> +8.9738301e-05 </wgt>
<wgt id='morphing_basis_vector_5'> +1.4303569e-04 </wgt>
</rwgt>
</event>
<event>
 4      1 +6.0853000e-08 1.94893400e+03 7.81860800e-03 8.09284700e-02
        2 -1    0    0  501    0 +0.0000000000e+00 +0.0000000000e+00 +1.6445270291e+03 1.6445270291e+03 0.0000000000e+00 0.0000e+00 -1.0000e+00
       -2 -1    0    0    0  501 -0.0000000000e+00 -0.0000000000e+00 -5.7742216516e+02 5.7742216516e+02 0.0000000000e+00 0.0000e+00 1.0000e+00
      -13  1    1    2    0    0 -3.1318720376e+02 +3.8625049200e+02 -4.2188342273e+02 6.5212060966e+02 0.0000000000e+00 0.0000e+00 1.0000e+00
       13  1    1    2    0    0 +3.1318720376e+02 -3.8625049200e+02 +1.4889882867e+03 1.5698285846e+03 0.0000000000e+00 0.0000e+00 -1.0000e+00
<mgrwt>
<rscale>  0 0.19489344E+04</rscale>
<asrwt>0</asrwt>
<pdfrwt beam="1">  1        2 0.25300416E+00 0.19489344E+04</pdfrwt>
<pdfrwt beam="2">  1       -2 0.88834180E-01 0.19489344E+04</pdfrwt>
<totfact> 0.13723142E+01</totfact>
</mgrwt>
<rwgt>
<wgt id='morphing_basis_vector_1'> +1.2330311e-04 </wgt>
<wgt id='morphing_basis_vector_2'> +8.2008713e-05 </wgt>
<wgt id='morphing_basis_vector_3'> +1.3134624e-04 </wgt>
<wgt id='morphing_basis_vector_4'> +9.1381867e-05 </wgt>
<wgt id='morphing_basis_vector_5'> +1.4563219e-04 </wgt>
</rwgt>
</event>
<event>
 4      1 +6.0853000e-08 2.08079300e+03 7.81860800e-03 8.03919200e-02
        2 -1    0    0  501    0 +0.0000000000e+00 +0.0000000000e+00 +2.5402889423e+03 2.5402889423e+03 0.0000000000e+00 0.0000e+00 -1.0000e+00
       -2 -1    0    0    0  501 -0.0000000000e+00 -0.0000000000e+00 -4.2610317456e+02 4.2610317456e+02 0.0000000000e+00 0.0000e+00 1.0000e+00
      -13  1    1    2    0    0 -9.1233670058e+02 -4.0501335942e+02 +6.3894743697e+02 1.1851784270e+03 0.0000000000e+00 0.0000e+00 1.0000e+00
       13  1    1    2    0    0 +9.1233670058e+02 +4.0501335942e+02 +1.4752383308e+03 1.7812136899e+03 0.0000000000e+00 0.0000e+00 -1.0000e+00
<mgrwt>
<rscale>  0 0.20807933E+04</rscale>
<asrwt>0</asrwt>
<pdfrwt beam="1">  1        2 0.39081367E+00 0.20807933E+04</pdfrwt>
<pdfrwt beam="2">  1       -2 0.65554336E-01 0.20807933E+04</pdfrwt>
<totfact> 0.82118185E+00</totfact>
</mgrwt>
<rwgt>
<wgt id='morphing_basis_vector_1'> +1.6130566e-04 </wgt>
<wgt id='morphing_basis_vector_2'> +1.1202230e-04 </wgt>
<wgt id='morphing_basis_vector_3'> +1.7342187e-04 </wgt>
<wgt id='morphing_basis_vector_4'> +1.1548087e-04 </wgt>
<wgt id='morphing_basis_vector_5'> +1.8990975e-04 </wgt>
</rwgt>
</event>
<event>
 4      1 +6.0853000e-08 1.97950600e+03 7.81860800e-03 8.08002200e-02
        2 -1    0    0  501    0 +0.0000000000e+00 +0.0000000000e+00 +2.4927839534e+03 2.4927839534e+03 0.0000000000e+00 0.0000e+00 -1.0000e+00
       -2 -1    0    0    0  501 -0.0000000000e+00 -0.0000000000e+00 -3.9297850610e+02 3.9297850610e+02 0.0000000000e+00 0.0000e+00 1.0000e+00
      -13  1    1    2    0    0 -6.4438189081e+02 -4.3429134163e+02 +1.5625376550e+02 7.9262363695e+02 0.0000000000e+00 0.0000e+00 1.0000e+00
       13  1    1    2    0    0 +6.4438189081e+02 +4.3429134163e+02 +1.9435516818e+03 2.0931388225e+03 0.0000000000e+00 0.0000e+00 -1.0000e+00
<mgrwt>
<rscale>  0 0.19795055E+04</rscale>
<asrwt>0</asrwt>
<pdfrwt beam="1">  1        2 0.38350521E+00 0.19795055E+04</pdfrwt>
<pdfrwt beam="2">  1       -2 0.60458233E-01 0.19795055E+04</pdfrwt>
<totfact> 0.10464916E+01</totfact>
</mgrwt>
<rwgt>
<wgt id='morphing_basis_vector_1'> +1.3131461e-04 </wgt>
<wgt id='morphing_basis_vector_2'> +8.8004006e-05 </wgt>
<wgt id='morphing_basis_vector_3'> +1.4014797e-04 </wgt>
<wgt id='morphing_basis_vector_4'> +9.6854217e-05 </wgt>
<wgt id='morphing_basis_vector_5'> +1.5514799e-04 </wgt>
</rwgt>
</event>
<event>
 4      1 +6.0853000e-08 2.14939900e+03 7.81860800e-03 8.01288200e-02
        2 -1    0    0  501    0 +0.0000000000e+00 +0.0000000000e+00 +1.7436199351e+03 1.7436199351e+03 0.0000000000e+00 0.0000e+00 -1.0000e+00
       -2 -1    0    0    0  501 -0.0000000000e+00 -0.0000000000e+00 -6.6240282981e+02 6.6240282981e+02 0.0000000000e+00 0.0000e+00 1.0000e+00
      -13  1    1    2    0    0 +5.0426026138e+02 -4.2599626862e+02 -4.0871857330e+02 7.7640331287e+02 0.0000000000e+00 0.0000e+00 1.0000e+00
       13  1    1    2    0    0 -5.0426026138e+02 +4.2599626862e+02 +1.4899356786e+03 1.6296194520e+03 0.0000000000e+00 0.0000e+00 -1.0000e+00
<mgrwt>
<rscale>  0 0.21493988E+04</rscale>
<asrwt>0</asrwt>
<pdfrwt beam="1">  1        2 0.26824922E+00 0.21493988E+04</pdfrwt>
<pdfrwt beam="2">  1       -2 0.10190813E+00 0.21493988E+04</pdfrwt>
<totfact> 0.85780517E+00</totfact>
</mgrwt>
<rwgt>
<wgt id='morphing_basis_vector_1'> +1.8109644e-04 </wgt>
<wgt id='morphing_basis_vector_2'> +1.2111499e-04 </wgt>
<wgt id='morphing_basis_vector_3'> +1.9427685e-04 </wgt>
<wgt id='morphing_basis_vector_4'> +1.3605710e-04 </wgt>
<wgt id='morphing_basis_vector_5'> +2.1706677e-04 </wgt>
</rwgt>
</event>
<event>
 4      1 +6.0853000e-08 2.15291300e+03 7.81860800e-03 8.01156200e-02
        2 -1    0    0  501    0 +0.0000000000e+00 +0.0000000000e+00 +2.6683658605e+03 2.6683658605e+03 0.0000000000e+00 0.0000e+00 1.0000e+00
       -2 -1    0    0    0  501 -0.0000000000e+00 -0.0000000000e+00 -4.3425785810e+02 4.3425785810e+02 0.0000000000e+00 0.0000e+00 -1.0000e+00
      -13  1    1    2    0    0 -1.0374187906e+03 -2.6724879237e+02 +9.6522735017e+02 1.4419859575e+03 0.0000000000e+00 0.0000e+00 -1.0000e+00
       13  1    1    2    0    0 +1.0374187906e+03 +2.6724879237e+02 +1.2688806523e+03 1.6606377612e+03 0.0000000000e+00 0.0000e+00 1.0000e+00
<mgrwt>
<rscale>  0 0.21529132E+04</rscale>
<asrwt>0</asrwt>
<pdfrwt beam="1">  1        2 0.41051782E+00 0.21529132E+04</pdfrwt>
<pdfrwt beam="2">  1       -2 0.66808903E-01 0.21529132E+04</pdfrwt>
<totfact> 0.65573566E+00</totfact>
</mgrwt>
<rwgt>
<wgt id='morphing_basis_vector_1'> +1.8681214e-04 </wgt>
<wgt id='morphing_basis_vector_2'> +1.3535538e-04 </wgt>
<wgt id='morphing_basis_vector_3'> +2.0229251e-04 </wgt>
<wgt id='morphing_basis_vector_4'> +1.2781040e-04 </wgt>
<wgt id='morphing_basis_vector_5'> +2.1778498e-04 </wgt>
</rwgt>
</event>
<event>
 4      1 +6.0853000e-08 1.90194500e+03 7.81860800e-03 8.11304500e-02
        2 -1    0    0  501    0 +0.0000000000e+00 +0.0000000000e+00 +5.5044228274e+02 5.5044228274e+02 0.0000000000e+00 0.0000e+00 -1.0000e+00
       -2 -1    0    0    0  501 -0.0000000000e+00 -0.0000000000e+00 -1.6429495746e+03 1.6429495746e+03 0.0000000000e+00 0.0000e+00 1.0000e+00
      -13  1    1    2    0    0 -8.9893439021e+02 -1.2165708576e+02 -8.7541201140e+02 1.2606465302e+03 0.0000000000e+00 0.0000e+00 1.0000e+00
       13  1    1    2    0    0 +8.9893439021e+02 +1.2165708576e+02 -2.1709528042e+02 9.3274532709e+02 0.0000000000e+00 0.0000e+00 -1.0000e+00
<mgrwt>
<rscale>  0 0.19019452E+04</rscale>
<asrwt>0</asrwt>
<pdfrwt beam="1">  1        2 0.84683430E-01 0.19019452E+04</pdfrwt>
<pdfrwt beam="2">  1       -2 0.25276147E+00 0.19019452E+04</pdfrwt>
<totfact> 0.31349998E+00</totfact>
</mgrwt>
<rwgt>
<wgt id='morphing_basis_vector_1'> +1.1332277e-04 </wgt>
<wgt id='morphing_basis_vector_2'> +7.8153062e-05 </wgt>
<wgt id='morphing_basis_vector_3'> +1.2094617e-04 </wgt>
<wgt id='morphing_basis_vector_4'> +8.0246640e-05 </wgt>
<wgt id='morphing_basis_vector_5'> +1.3161344e-04 </wgt>
</rwgt>
</event>
<event>
 4      1 +6.0853000e-08 2.07924000e+03 7.81860800e-03 8.03979900e-02
        2 -1    0    0  501    0 +0.0000000000e+00 +0.0000000000e+00 +8.5194098853e+02 8.5194098853e+02 0.0000000000e+00 0.0000e+00 1.0000e+00
       -2 -1    0    0    0  501 -0.0000000000e+00 -0.0000000000e+00 -1.2686445031e+03 1.2686445031e+03 0.0000000000e+00 0.0000e+00 -1.0000e+00
      -13  1    1    2    0    0 +4.0246906295e+02 +4.9509639828e+02 -1.0454704956e+03 1.2247899197e+03 0.0000000000e+00 0.0000e+00 -1.0000e+00
       13  1    1    2    0    0 -4.0246906295e+02 -4.9509639828e+02 +6.2876698104e+02 8.9579557192e+02 0.0000000000e+00 0.0000e+00 1.0000e+00
<mgrwt>
<rscale>  0 0.20792405E+04</rscale>
<asrwt>0</asrwt>
<pdfrwt beam="1">  1        2 0.13106785E+00 0.20792405E+04</pdfrwt>
<pdfrwt beam="2">  1       -2 0.19517608E+00 0.20792405E+04</pdfrwt>
<totfact> 0.46317213E+00</totfact>
</mgrwt>
<rwgt>
<wgt id='morphing_basis_vector_1'> +1.5896598e-04 </wgt>
<wgt id='morphing_basis_vector_2'> +1.0616514e-04 </wgt>
<wgt id='morphing_basis_vector_3'> +1.7015920e-04 </wgt>
<wgt id='morphing_basis_vector_4'> +1.1886937e-04 </wgt>
<wgt id='morphing_basis_vector_5'> +1.8962971e-04 </wgt>
</rwgt>
</event>
<event>
 4      1 +6.0853000e-08 1.90665300e+03 7.81860800e-03 8.11099400e-02
        2 -1    0    0  501    0 +0.0000000000e+00 +0.0000000000e+00 +6.1264693358e+02 6.1264693358e+02 0.0000000000e+00 0.0000e+00 -1.0000e+00
       -2 -1    0    0    0  501 -0.0000000000e+00 -0.0000000000e+00 -1.4834504268e+03 1.4834504268e+03 0.0000000000e+00 0.0000e+00 1.0000e+00
      -13  1    1    2    0    0 -3.4284127830e+02 -8.1650546222e+02 -8.2347733774e+02 1.2092709530e+03 0.0000000000e+00 0.0000e+00 1.0000e+00
       13  1    1    2    0    0 +3.4284127830e+02 +8.1650546222e+02 -4.7326155518e+01 8.8682640744e+02 0.0000000000e+00 0.0000e+00 -1.0000e+00
<mgrwt>
<rscale>  0 0.19066529E+04</rscale>
<asrwt>0</asrwt>
<pdfrwt beam="1">  1        2 0.94253376E-01 0.19066529E+04</pdfrwt>
<pdfrwt beam="2">  1       -2 0.22822314E+00 0.19066529E+04</pdfrwt>
<totfact> 0.40976245E+00</totfact>
</mgrwt>
<rwgt>
<wgt id='morphing_basis_vector_1'> +1.1408238e-04 </wgt>
<wgt id='morphing_basis_vector_2'> +7.7909974e-05 </wgt>
<wgt id='morphing_basis_vector_3'> +1.2165632e-04 </wgt>
<wgt id='morphing_basis_vector_4'> +8.1735006e-05 </wgt>
<wgt id='morphing_basis_vector_5'> +1.3300333e-04 </wgt>
</rwgt>
</event>
<event>
 4      1 +6.0853000e-08 2.22478100e+03 7.81860800e-03 7.98512100e-02
        2 -1    0    0  501    0 +0.0000000000e+00 +0.0000000000e+00 +1.3131630825e+03 1.3131630825e+03 0.0000000000e+00 0.0000e+00 1.0000e+00
       -2 -1    0    0    0  501 -0.0000000000e+00 -0.0000000000e+00 -9.4231421728e+02 9.4231421728e+02 0.0000000000e+00 0.0000e+00 -1.0000e+00
      -13  1    1    2    0    0 -4.7325350037e+02 -1.2466093261e+02 -8.2730965656e+02 9.6122343478e+02 0.0000000000e+00 0.0000e+00 -1.0000e+00
       13  1    1    2    0    0 +4.7325350037e+02 +1.2466093261e+02 +1.1981585218e+03 1.2942538650e+03 0.0000000000e+00 0.0000e+00 1.0000e+00
<mgrwt>
<rscale>  0 0.22247807E+04</rscale>
<asrwt>0</asrwt>
<pdfrwt beam="1">  1        2 0.20202509E+00 0.22247807E+04</pdfrwt>
<pdfrwt beam="2">  1       -2 0.14497142E+00 0.22247807E+04</pdfrwt>
<totfact> 0.59145597E+00</totfact>
</mgrwt>
<rwgt>
<wgt id='morphing_basis_vector_1'> +2.0729165e-04 </wgt>
<wgt id='morphing_basis_vector_2'> +1.3861150e-04 </wgt>
<wgt id='morphing_basis_vector_3'> +2.2281862e-04 </wgt>
<wgt id='morphing_basis_vector_4'> +1.5670966e-04 </wgt>
<wgt id='morphing_basis_vector_5'> +2.4975068e-04 </wgt>
</rwgt>
</event>
<event>
 4      1 +6.0853000e-08 2.05919400e+03 7.81860800e-03 8.04769300e-02
        2 -1    0    0  501    0 +0.0000000000e+00 +0.0000000000e+00 +1.2176808284e+03 1.2176808284e+03 0.0000000000e+00 0.0000e+00 1.0000e+00
       -2 -1    0    0    0  501 -0.0000000000e+00 -0.0000000000e+00 -8.7056472943e+02 8.7056472943e+02 0.0000000000e+00 0.0000e+00 -1.0000e+00
      -13  1    1    2    0    0 -2.8778088169e+02 -6.4720067653e+02 -5.8423490515e+02 9.1815955910e+02 0.0000000000e+00 0.0000e+00 -1.0000e+00
       13  1    1    2    0    0 +2.8778088169e+02 +6.4720067653e+02 +9.3135100413e+02 1.1700859987e+03 0.0000000000e+00 0.0000e+00 1.0000e+00
<mgrwt>
<rscale>  0 0.20591940E+04</rscale>
<asrwt>0</asrwt>
<pdfrwt beam="1">  1        2 0.18733551E+00 0.20591940E+04</pdfrwt>
<pdfrwt beam="2">  1       -2 0.13393304E+00 0.20591940E+04</pdfrwt>
<totfact> 0.84787146E+00</totfact>
</mgrwt>
<rwgt>
<wgt id='morphing_basis_vector_1'> +1.5310613e-04 </wgt>
<wgt id='morphing_basis_vector_2'> +1.0237001e-04 </wgt>
<wgt id='morphing_basis_vector_3'> +1.6380467e-04 </wgt>
<wgt id='morphing_basis_vector_4'> +1.1412935e-04 </wgt>
<wgt id='morphing_basis_vector_5'> +1.8227765e-04 </wgt>
</rwgt>
</event>
<event>
 4      1 +6.0853000e-08 2.02870600e+03 7.81860800e-03 8.05987900e-02
        2 -1    0    0  501    0 +0.0000000000e+00 +0.0000000000e+00 +3.7907785735e+03 3.7907785735e+03 0.0000000000e+00 0.0000e+00 1.0000e+00
       -2 -1    0    0    0  501 -0.0000000000e+00 -0.0000000000e+00 -2.7142493221e+02 2.7142493221e+02 0.0000000000e+00 0.0000e+00 -1.0000e+00
      -13  1    1    2    0    0 +7.7200311630e+02 -8.4961818859e+01 +3.0661386373e+03 3.1629754133e+03 0.0000000000e+00 0.0000e+00 1.0000e+00
       13  1    1    2    0    0 -7.7200311630e+02 +8.4961818859e+01 +4.5321500397e+02 8.9922809235e+02 0.0000000000e+00 0.0000e+00 -1.0000e+00
<mgrwt>
<rscale>  0 0.20287058E+04</rscale>
<asrwt>0</asrwt>
<pdfrwt beam="1">  1        2 0.58319667E+00 0.20287058E+04</pdfrwt>
<pdfrwt beam="2">  1       -2 0.41757685E-01 0.20287058E+04</pdfrwt>
<totfact> 0.28585242E+00</totfact>
</mgrwt>
<rwgt>
<wgt id='morphing_basis_vector_1'> +1.8159046e-04 </wgt>
<wgt id='morphing_basis_vector_2'> +2.0655828e-04 </wgt>
<wgt id='morphing_basis_vector_3'> +2.0866785e-04 </wgt>
<wgt id='morphing_basis_vector_4'> +3.3239744e-05 </wgt>
<wgt id='morphing_basis_vector_5'> +1.6565818e-04 </wgt>
</rwgt>
</event>
<event>
 4      1 +6.0853000e-08 2.16091400e+03 7.81860800e-03 8.00856600e-02
        2 -1    0    0  501    0 +0.0000000000e+00 +0.0000000000e+00 +1.6502830867e+03 1.6502830867e+03 0.0000000000e+00 0.0000e+00 1.0000e+00
       -2 -1    0    0    0  501 -0.0000000000e+00 -0.0000000000e+00 -7.0738594396e+02 7.0738594396e+02 0.0000000000e+00 0.0000e+00 -1.0000e+00
      -13  1    1    2    0    0 -1.0223337150e+03 -3.4130601109e+02 +3.8885197258e+02 1.1458018479e+03 0.0000000000e+00 0.0000e+00 -1.0000e+00
       13  1    1    2    0    0 +1.0223337150e+03 +3.4130601109e+02 +5.5404517020e+02 1.2118671828e+03 0.0000000000e+00 0.0000e+00 1.0000e+00
<mgrwt>
<rscale>  0 0.21609138E+04</rscale>
<asrwt>0</asrwt>
<pdfrwt beam="1">  1        2 0.25388970E+00 0.21609138E+04</pdfrwt>
<pdfrwt beam="2">  1       -2 0.10882861E+00 0.21609138E+04</pdfrwt>
<totfact> 0.82133671E+00</totfact>
</mgrwt>
<rwgt>
<wgt id='morphing_basis_vector_1'> +1.9007245e-04 </wgt>
<wgt id='morphing_basis_vector_2'> +1.3888930e-04 </wgt>
<wgt id='morphing_basis_vector_3'> +2.0608304e-04 </wgt>
<wgt id='morphing_basis_vector_4'> +1.2871231e-04 </wgt>
<wgt id='morphing_basis_vector_5'> +2.2101366e-04 </wgt>
</rwgt>
</event>
<event>
 4      1 +6.0853000e-08 2.01418500e+03 7.81860800e-03 8.06576200e-02
        2 -1    0    0  501    0 +0.0000000000e+00 +0.0000000000e+00 +1.6585663957e+03 1.6585663957e+03 0.0000000000e+00 0.0000e+00 -1.0000e+00
       -2 -1    0    0    0  501 -0.0000000000e+00 -0.0000000000e+00 -6.1151302345e+02 6.1151302345e+02 0.0000000000e+00 0.0000e+00 1.0000e+00
      -13  1    1    2    0    0 -5.0401700086e+01 +9.3243565475e+02 +9.8436887446e+01 9.3897092736e+02 0.0000000000e+00 0.0000e+00 1.0000e+00
       13  1    1    2    0    0 +5.0401700086e+01 -9.3243565475e+02 +9.4861648477e+02 1.3311084917e+03 0.0000000000e+00 0.0000e+00 -1.0000e+00
<mgrwt>
<rscale>  0 0.20141847E+04</rscale>
<asrwt>0</asrwt>
<pdfrwt beam="1">  1        2 0.25516406E+00 0.20141847E+04</pdfrwt>
<pdfrwt beam="2">  1       -2 0.94078927E-01 0.20141847E+04</pdfrwt>
<totfact> 0.11717412E+01</totfact>
</mgrwt>
<rwgt>
<wgt id='morphing_basis_vector_1'> +1.4140327e-04 </wgt>
<wgt id='morphing_basis_vector_2'> +9.6764629e-05 </wgt>
<wgt id='morphing_basis_vector_3'> +1.5143863e-04 </wgt>
<wgt id='morphing_basis_vector_4'> +1.0228977e-04 </wgt>
<wgt id='morphing_basis_vector_5'> +1.6641081e-04 </wgt>
</rwgt>
</event>
<event>
 4      1 +6.0853000e-08 1.92648800e+03 7.81860800e-03 8.10242000e-02
        2 -1    0    0  501    0 +0.0000000000e+00 +0.0000000000e+00 +1.2324296351e+03 1.2324296351e+03 0.0000000000e+00 0.0000e+00 -1.0000e+00
       -2 -1    0    0    0  501 -0.0000000000e+00 -0.0000000000e+00 -7.5285340174e+02 7.5285340174e+02 0.0000000000e+00 0.0000e+00 1.0000e+00
      -13  1    1    2    0    0 -3.8001928918e+02 +5.5380918034e+02 -4.7173277062e+02 8.2076249626e+02 0.0000000000e+00 0.0000e+00 1.0000e+00
       13  1    1    2    0    0 +3.8001928918e+02 -5.5380918034e+02 +9.5130900398e+02 1.1645205406e+03 0.0000000000e+00 0.0000e+00 -1.0000e+00
<mgrwt>
<rscale>  0 0.19264878E+04</rscale>
<asrwt>0</asrwt>
<pdfrwt beam="1">  1        2 0.18960456E+00 0.19264878E+04</pdfrwt>
<pdfrwt beam="2">  1       -2 0.11582360E+00 0.19264878E+04</pdfrwt>
<totfact> 0.12325687E+01</totfact>
</mgrwt>
<rwgt>
<wgt id='morphing_basis_vector_1'> +1.1793983e-04 </wgt>
<wgt id='morphing_basis_vector_2'> +7.8632328e-05 </wgt>
<wgt id='morphing_basis_vector_3'> +1.2555747e-04 </wgt>
<wgt id='morphing_basis_vector_4'> +8.6957398e-05 </wgt>
<wgt id='morphing_basis_vector_5'> +1.3888363e-04 </wgt>
</rwgt>
</event>
<event>
 4      1 +6.0853000e-08 1.97037800e+03 7.81860800e-03 8.08382500e-02
        2 -1    0    0  501    0 +0.0000000000e+00 +0.0000000000e+00 +1.4800766026e+03 1.4800766026e+03 0.0000000000e+00 0.0000e+00 1.0000e+00
       -2 -1    0    0    0  501 -0.0000000000e+00 -0.0000000000e+00 -6.5577506799e+02 6.5577506799e+02 0.0000000000e+00 0.0000e+00 -1.0000e+00
      -13  1    1    2    0    0 +3.1519774223e+02 +9.3221265138e+02 +3.6099318776e+02 1.0481822960e+03 0.0000000000e+00 0.0000e+00 1.0000e+00
       13  1    1    2    0    0 -3.1519774223e+02 -9.3221265138e+02 +4.6330834686e+02 1.0876693746e+03 0.0000000000e+00 0.0000e+00 -1.0000e+00
<mgrwt>
<rscale>  0 0.19703780E+04</rscale>
<asrwt>0</asrwt>
<pdfrwt beam="1">  1        2 0.22770409E+00 0.19703780E+04</pdfrwt>
<pdfrwt beam="2">  1       -2 0.10088847E+00 0.19703780E+04</pdfrwt>
<totfact> 0.12522161E+01</totfact>
</mgrwt>
<rwgt>
<wgt id='morphing_basis_vector_1'> +1.3262338e-04 </wgt>
<wgt id='morphing_basis_vector_2'> +9.7259668e-05 </wgt>
<wgt id='morphing_basis_vector_3'> +1.4289861e-04 </wgt>
<wgt id='morphing_basis_vector_4'> +8.7771438e-05 </wgt>
<wgt id='morphing_basis_vector_5'> +1.5167533e-04 </wgt>
</rwgt>
</event>
<event>
 4      1 +6.0853000e-08 1.98440000e+03 7.81860800e-03 8.07799100e-02
        2 -1    0    0  501    0 +0.0000000000e+00 +0.0000000000e+00 +5.8594474274e+02 5.8594474274e+02 0.0000000000e+00 0.0000e+00 -1.0000e+00
       -2 -1    0    0    0  501 -0.0000000000e+00 -0.0000000000e+00 -1.6801260311e+03 1.6801260311e+03 0.0000000000e+00 0.0000e+00 1.0000e+00
      -13  1    1    2    0    0 -6.4146101549e+01 +8.3900694037e+02 -1.1474675150e+03 1.4229297475e+03 0.0000000000e+00 0.0000e+00 1.0000e+00
       13  1    1    2    0    0 +6.4146101549e+01 -8.3900694037e+02 +5.3286226644e+01 8.4314102633e+02 0.0000000000e+00 0.0000e+00 -1.0000e+00
<mgrwt>
<rscale>  0 0.19844002E+04</rscale>
<asrwt>0</asrwt>
<pdfrwt beam="1">  1        2 0.90145345E-01 0.19844002E+04</pdfrwt>
<pdfrwt beam="2">  1       -2 0.25848093E+00 0.19844002E+04</pdfrwt>
<totfact> 0.26428559E+00</totfact>
</mgrwt>
<rwgt>
<wgt id='morphing_basis_vector_1'> +1.3279816e-04 </wgt>
<wgt id='morphing_basis_vector_2'> +8.9482480e-05 </wgt>
<wgt id='morphing_basis_vector_3'> +1.4183753e-04 </wgt>
<wgt id='morphing_basis_vector_4'> +9.7423841e-05 </wgt>
<wgt id='morphing_basis_vector_5'> +1.5668759e-04 </wgt>
</rwgt>
</event>
<event>
 4      1 +6.0853000e-08 1.91831300e+03 7.81860800e-03 8.10594000e-02
        2 -1    0    0  501    0 +0.0000000000e+00 +0.0000000000e+00 +8.0122259730e+02 8.0122259730e+02 0.0000000000e+00 0.0000e+00 1.0000e+00
       -2 -1    0    0    0  501 -0.0000000000e+00 -0.0000000000e+00 -1.1482221590e+03 1.1482221590e+03 0.0000000000e+00 0.0000e+00 -1.0000e+00
      -13  1    1    2    0    0 +3.4611785394e+02 -8.6970546795e+02 -3.8617184274e+02 1.0125778301e+03 0.0000000000e+00 0.0000e+00 1.0000e+00
       13  1    1    2    0    0 -3.4611785394e+02 +8.6970546795e+02 +3.9172281071e+01 9.3686692620e+02 0.0000000000e+00 0.0000e+00 -1.0000e+00
<mgrwt>
<rscale>  0 0.19183134E+04</rscale>
<asrwt>0</asrwt>
<pdfrwt beam="1">  1        2 0.12326501E+00 0.19183134E+04</pdfrwt>
<pdfrwt beam="2">  1       -2 0.17664956E+00 0.19183134E+04</pdfrwt>
<totfact> 0.70077845E+00</totfact>
</mgrwt>
<rwgt>
<wgt id='morphing_basis_vector_1'> +1.1771789e-04 </wgt>
<wgt id='morphing_basis_vector_2'> +8.2427142e-05 </wgt>
<wgt id='morphing_basis_vector_3'> +1.2592475e-04 </wgt>
<wgt id='morphing_basis_vector_4'> +8.2054166e-05 </wgt>
<wgt id='morphing_basis_vector_5'> +1.3622362e-04 </wgt>
</rwgt>
</event>
<event>
 4      1 +6.0853000e-08 2.10810600e+03 7.81860800e-03 8.02859300e-02
        2 -1    0    0  501    0 +0.0000000000e+00 +0.0000000000e+00 +2.2380263226e+03 2.2380263226e+03 0.0000000000e+00 0.0000e+00 -1.0000e+00
       -2 -1    0    0    0  501 -0.0000000000e+00 -0.0000000000e+00 -4.9643201058e+02 4.9643201058e+02 0.0000000000e+00 0.0000e+00 1.0000e+00
      -13  1    1    2    0    0 -9.4654191166e+01 +9.0810583403e+02 +1.8760688112e+02 9.3210083336e+02 0.0000000000e+00 0.0000e+00 1.0000e+00
       13  1    1    2    0    0 +9.4654191166e+01 -9.0810583403e+02 +1.5539874309e+03 1.8023574998e+03 0.0000000000e+00 0.0000e+00 -1.0000e+00
<mgrwt>
<rscale>  0 0.21081062E+04</rscale>
<asrwt>0</asrwt>
<pdfrwt beam="1">  1        2 0.34431174E+00 0.21081062E+04</pdfrwt>
<pdfrwt beam="2">  1       -2 0.76374157E-01 0.21081062E+04</pdfrwt>
<totfact> 0.88651824E+00</totfact>
</mgrwt>
<rwgt>
<wgt id='morphing_basis_vector_1'> +1.6846296e-04 </wgt>
<wgt id='morphing_basis_vector_2'> +1.1407359e-04 </wgt>
<wgt id='morphing_basis_vector_3'> +1.8075796e-04 </wgt>
<wgt id='morphing_basis_vector_4'> +1.2441863e-04 </wgt>
<wgt id='morphing_basis_vector_5'> +2.0047998e-04 </wgt>
</rwgt>
</event>
<event>
 4      1 +6.0853000e-08 2.20793900e+03 7.81860800e-03 7.99122400e-02
        2 -1    0    0  501    0 +0.0000000000e+00 +0.0000000000e+00 +1.7278605284e+03 1.7278605284e+03 0.0000000000e+00 0.0000e+00 -1.0000e+00
       -2 -1    0    0    0  501 -0.0000000000e+00 -0.0000000000e+00 -7.0535127944e+02 7.0535127944e+02 0.0000000000e+00 0.0000e+00 1.0000e+00
      -13  1    1    2    0    0 +6.3875521275e+01 +1.0896985675e+03 +3.2941796149e+02 1.1401926344e+03 0.0000000000e+00 0.0000e+00 1.0000e+00
       13  1    1    2    0    0 -6.3875521275e+01 -1.0896985675e+03 +6.9309128743e+02 1.2930191734e+03 0.0000000000e+00 0.0000e+00 -1.0000e+00
<mgrwt>
<rscale>  0 0.22079390E+04</rscale>
<asrwt>0</asrwt>
<pdfrwt beam="1">  1        2 0.26582470E+00 0.22079390E+04</pdfrwt>
<pdfrwt beam="2">  1       -2 0.10851558E+00 0.22079390E+04</pdfrwt>
<totfact> 0.74594036E+00</totfact>
</mgrwt>
<rwgt>
<wgt id='morphing_basis_vector_1'> +2.0538521e-04 </wgt>
<wgt id='morphing_basis_vector_2'> +1.4690002e-04 </wgt>
<wgt id='morphing_basis_vector_3'> +2.2241539e-04 </wgt>
<wgt id='morphing_basis_vector_4'> +1.4346722e-04 </wgt>
<wgt id='morphing_basis_vector_5'> +2.4147522e-04 </wgt>
</rwgt>
</event>
<event>
 4      1 +6.0853000e-08 2.21512000e+03 7.81860800e-03 7.98861500e-02
        2 -1    0    0  501    0 +0.0000000000e+00 +0.0000000000e+00 +1.1924919763e+03 1.1924919763e+03 0.0000000000e+00 0.0000e+00 1.0000e+00
       -2 -1    0    0    0  501 -0.0000000000e+00 -0.0000000000e+00 -1.0286770035e+03 1.0286770035e+03 0.0000000000e+00 0.0000e+00 -1.0000e+00
      -13  1    1    2    0    0 +4.1934678501e+02 -1.0243749619e+03 +4.3158924824e+01 1.1077267179e+03 0.0000000000e+00 0.0000e+00 -1.0000e+00
       13  1    1    2    0    0 -4.1934678501e+02 +1.0243749619e+03 +1.2065604805e+02 1.1134422619e+03 0.0000000000e+00 0.0000e+00 1.0000e+00
<mgrwt>
<rscale>  0 0.22151199E+04</rscale>
<asrwt>0</asrwt>
<pdfrwt beam="1">  1        2 0.18346030E+00 0.22151199E+04</pdfrwt>
<pdfrwt beam="2">  1       -2 0.15825800E+00 0.22151199E+04</pdfrwt>
<totfact> 0.54030509E+00</totfact>
</mgrwt>
<rwgt>
<wgt id='morphing_basis_vector_1'> +2.1032273e-04 </wgt>
<wgt id='morphing_basis_vector_2'> +1.5559512e-04 </wgt>
<wgt id='morphing_basis_vector_3'> +2.2874922e-04 </wgt>
<wgt id='morphing_basis_vector_4'> +1.4073198e-04 </wgt>
<wgt id='morphing_basis_vector_5'> +2.4431263e-04 </wgt>
</rwgt>
</event>
<event>
 4      1 +6.0853000e-08 2.18840900e+03 7.81860800e-03 7.99837200e-02
        2 -1    0    0  501    0 +0.0000000000e+00 +0.0000000000e+00 +1.7329570231e+03 1.7329570231e+03 0.0000000000e+00 0.0000e+00 -1.0000e+00
       -2 -1    0    0    0  501 -0.0000000000e+00 -0.0000000000e+00 -6.9089024584e+02 6.9089024584e+02 0.0000000000e+00 0.0000e+00 1.0000e+00
      -13  1    1    2    0    0 +2.6363340229e+02 +7.6623595805e+02 -2.9337108168e+02 8.6179272785e+02 0.0000000000e+00 0.0000e+00 1.0000e+00
       13  1    1    2    0    0 -2.6363340229e+02 -7.6623595805e+02 +1.3354378589e+03 1.5620545411e+03 0.0000000000e+00 0.0000e+00 -1.0000e+00
<mgrwt>
<rscale>  0 0.21884086E+04</rscale>
<asrwt>0</asrwt>
<pdfrwt beam="1">  1        2 0.26660877E+00 0.21884086E+04</pdfrwt>
<pdfrwt beam="2">  1       -2 0.10629081E+00 0.21884086E+04</pdfrwt>
<totfact> 0.78154590E+00</totfact>
</mgrwt>
<rwgt>
<wgt id='morphing_basis_vector_1'> +1.9455769e-04 </wgt>
<wgt id='morphing_basis_vector_2'> +1.3065308e-04 </wgt>
<wgt id='morphing_basis_vector_3'> +2.0903576e-04 </wgt>
<wgt id='morphing_basis_vector_4'> +1.4599155e-04 </wgt>
<wgt id='morphing_basis_vector_5'> +2.3351522e-04 </wgt>
</rwgt>
</event>
<event>
 4      1 +6.0853000e-08 2.15829700e+03 7.81860800e-03 8.00954400e-02
        2 -1    0    0  501    0 +0.0000000000e+00 +0.0000000000e+00 +2.1733153488e+03 2.1733153488e+03 0.0000000000e+00 0.0000e+00 -1.0000e+00
       -2 -1    0    0    0  501 -0.0000000000e+00 -0.0000000000e+00 -5.3584550049e+02 5.3584550049e+02 0.0000000000e+00 0.0000e+00 1.0000e+00
      -13  1    1    2    0    0 +6.9578609979e+02 -5.8053503119e+02 +8.3141727149e+01 9.0997349736e+02 0.0000000000e+00 0.0000e+00 1.0000e+00
       13  1    1    2    0    0 -6.9578609979e+02 +5.8053503119e+02 +1.5543281212e+03 1.7991873519e+03 0.0000000000e+00 0.0000e+00 -1.0000e+00
<mgrwt>
<rscale>  0 0.21582968E+04</rscale>
<asrwt>0</asrwt>
<pdfrwt beam="1">  1        2 0.33435620E+00 0.21582968E+04</pdfrwt>
<pdfrwt beam="2">  1       -2 0.82437770E-01 0.21582968E+04</pdfrwt>
<totfact> 0.80894651E+00</totfact>
</mgrwt>
<rwgt>
<wgt id='morphing_basis_vector_1'> +1.8460628e-04 </wgt>
<wgt id='morphing_basis_vector_2'> +1.2473117e-04 </wgt>
<wgt id='morphing_basis_vector_3'> +1.9831844e-04 </wgt>
<wgt id='morphing_basis_vector_4'> +1.3726445e-04 </wgt>
<wgt id='morphing_basis_vector_5'> +2.2065922e-04 </wgt>
</rwgt>
</event>
<event>
 4      1 +6.0853000e-08 1.94516800e+03 7.81860800e-03 8.09444400e-02
        2 -1    0    0  501    0 +0.0000000000e+00 +0.0000000000e+00 +3.1357410716e+03 3.1357410716e+03 0.0000000000e+00 0.0000e+00 1.0000e+00
       -2 -1    0    0    0  501 -0.0000000000e+00 -0.0000000000e+00 -3.0165730678e+02 3.0165730678e+02 0.0000000000e+00 0.0000e+00 -1.0000e+00
      -13  1    1    2    0    0 +6.2334531650e+02 -6.7458859555e+02 +1.9822254738e+03 2.1846846422e+03 0.0000000000e+00 0.0000e+00 -1.0000e+00
       13  1    1    2    0    0 -6.2334531650e+02 +6.7458859555e+02 +8.5185829100e+02 1.2527137362e+03 0.0000000000e+00 0.0000e+00 1.0000e+00
<mgrwt>
<rscale>  0 0.19451676E+04</rscale>
<asrwt>0</asrwt>
<pdfrwt beam="1">  1        2 0.48242168E+00 0.19451676E+04</pdfrwt>
<pdfrwt beam="2">  1       -2 0.46408819E-01 0.19451676E+04</pdfrwt>
<totfact> 0.70170650E+00</totfact>
</mgrwt>
<rwgt>
<wgt id='morphing_basis_vector_1'> +1.3594944e-04 </wgt>
<wgt id='morphing_basis_vector_2'> +1.2160093e-04 </wgt>
<wgt id='morphing_basis_vector_3'> +1.4995047e-04 </wgt>
<wgt id='morphing_basis_vector_4'> +6.3775804e-05 </wgt>
<wgt id='morphing_basis_vector_5'> +1.4237328e-04 </wgt>
</rwgt>
</event>
<event>
 4      1 +6.0853000e-08 1.89150700e+03 7.81860800e-03 8.11761400e-02
        2 -1    0    0  501    0 +0.0000000000e+00 +0.0000000000e+00 +1.5728468009e+03 1.5728468009e+03 0.0000000000e+00 0.0000e+00 1.0000e+00
       -2 -1    0    0    0  501 -0.0000000000e+00 -0.0000000000e+00 -5.6868180348e+02 5.6868180348e+02 0.0000000000e+00 0.0000e+00 -1.0000e+00
      -13  1    1    2    0    0 -9.2321964094e+02 -1.1479954282e+02 +6.9467288992e+02 1.1610701376e+03 0.0000000000e+00 0.0000e+00 -1.0000e+00
       13  1    1    2    0    0 +9.2321964094e+02 +1.1479954282e+02 +3.0949210748e+02 9.8045846676e+02 0.0000000000e+00 0.0000e+00 1.0000e+00
<mgrwt>
<rscale>  0 0.18915067E+04</rscale>
<asrwt>0</asrwt>
<pdfrwt beam="1">  1        2 0.24197643E+00 0.18915067E+04</pdfrwt>
<pdfrwt beam="2">  1       -2 0.87489509E-01 0.18915067E+04</pdfrwt>
<totfact> 0.15665777E+01</totfact>
</mgrwt>
<rwgt>
<wgt id='morphing_basis_vector_1'> +1.1716073e-04 </wgt>
<wgt id='morphing_basis_vector_2'> +9.4995749e-05 </wgt>
<wgt id='morphing_basis_vector_3'> +1.2727336e-04 </wgt>
<wgt id='morphing_basis_vector_4'> +6.6144903e-05 </wgt>
<wgt id='morphing_basis_vector_5'> +1.2772107e-04 </wgt>
</rwgt>
</event>
<event>
 4      1 +6.0853000e-08 2.08661700e+03 7.81860800e-03 8.03691800e-02
        2 -1    0    0  501    0 +0.0000000000e+00 +0.0000000000e+00 +3.3890410286e+03 3.3890410286e+03 0.0000000000e+00 0.0000e+00 -1.0000e+00
       -2 -1    0    0    0  501 -0.0000000000e+00 -0.0000000000e+00 -3.2117998839e+02 3.2117998839e+02 0.0000000000e+00 0.0000e+00 1.0000e+00
      -13  1    1    2    0    0 +1.4789120479e+02 -1.0221870625e+03 +1.2716740046e+03 1.6382591288e+03 0.0000000000e+00 0.0000e+00 1.0000e+00
       13  1    1    2    0    0 -1.4789120479e+02 +1.0221870625e+03 +1.7961870356e+03 2.0719618882e+03 0.0000000000e+00 0.0000e+00 -1.0000e+00
<mgrwt>
<rscale>  0 0.20866166E+04</rscale>
<asrwt>0</asrwt>
<pdfrwt beam="1">  1        2 0.52139090E+00 0.20866166E+04</pdfrwt>
<pdfrwt beam="2">  1       -2 0.49412308E-01 0.20866166E+04</pdfrwt>
<totfact> 0.41056683E+00</totfact>
</mgrwt>
<rwgt>
<wgt id='morphing_basis_vector_1'> +1.6458639e-04 </wgt>
<wgt id='morphing_basis_vector_2'> +1.1771275e-04 </wgt>
<wgt id='morphing_basis_vector_3'> +1.7757913e-04 </wgt>
<wgt id='morphing_basis_vector_4'> +1.1379506e-04 </wgt>
<wgt id='morphing_basis_vector_5'> +1.9184552e-04 </wgt>
</rwgt>
</event>
<event>
 4      1 +6.0853000e-08 1.90863500e+03 7.81860800e-03 8.11013200e-02
        2 -1    0    0  501    0 +0.0000000000e+00 +0.0000000000e+00 +2.0071657655e+03 2.0071657655e+03 0.0000000000e+00 0.0000e+00 -1.0000e+00
       -2 -1    0    0    0  501 -0.0000000000e+00 -0.0000000000e+00 -4.5373507887e+02 4.5373507887e+02 0.0000000000e+00 0.0000e+00 1.0000e+00
      -13  1    1    2    0    0 +3.2005393306e+02 +6.0802646529e+02 -7.7173003680e+01 6.9143790398e+02 0.0000000000e+00 0.0000e+00 1.0000e+00
       13  1    1    2    0    0 -3.2005393306e+02 -6.0802646529e+02 +1.6306036903e+03 1.7694629404e+03 0.0000000000e+00 0.0000e+00 -1.0000e+00
<mgrwt>
<rscale>  0 0.19086346E+04</rscale>
<asrwt>0</asrwt>
<pdfrwt beam="1">  1        2 0.30879473E+00 0.19086346E+04</pdfrwt>
<pdfrwt beam="2">  1       -2 0.69805398E-01 0.19086346E+04</pdfrwt>
<totfact> 0.14843639E+01</totfact>
</mgrwt>
<rwgt>
<wgt id='morphing_basis_vector_1'> +1.1374599e-04 </wgt>
<wgt id='morphing_basis_vector_2'> +7.5857780e-05 </wgt>
<wgt id='morphing_basis_vector_3'> +1.2101143e-04 </wgt>
<wgt id='morphing_basis_vector_4'> +8.3663371e-05 </wgt>
<wgt id='morphing_basis_vector_5'> +1.3369324e-04 </wgt>
</rwgt>
</event>
<event>
 4      1 +6.0853000e-08 2.01226200e+03 7.81860800e-03 8.06654500e-02
        2 -1    0    0  501    0 +0.0000000000e+00 +0.0000000000e+00 +1.9606105002e+03 1.9606105002e+03 0.0000000000e+00 0.0000e+00 -1.0000e+00
       -2 -1    0    0    0  501 -0.0000000000e+00 -0.0000000000e+00 -5.1631852467e+02 5.1631852467e+02 0.0000000000e+00 0.0000e+00 1.0000e+00
      -13  1    1    2    0    0 -4.8287703693e+02 +2.3734491159e+02 -3.2434893542e+02 6.2825557838e+02 0.0000000000e+00 0.0000e+00 1.0000e+00
       13  1    1    2    0    0 +4.8287703693e+02 -2.3734491159e+02 +1.7686409109e+03 1.8486734464e+03 0.0000000000e+00 0.0000e+00 -1.0000e+00
<mgrwt>
<rscale>  0 0.20122619E+04</rscale>
<asrwt>0</asrwt>
<pdfrwt beam="1">  1        2 0.30163238E+00 0.20122619E+04</pdfrwt>
<pdfrwt beam="2">  1       -2 0.79433620E-01 0.20122619E+04</pdfrwt>
<totfact> 0.11759693E+01</totfact>
</mgrwt>
<rwgt>
<wgt id='morphing_basis_vector_1'> +1.3976667e-04 </wgt>
<wgt id='morphing_basis_vector_2'> +9.3118288e-05 </wgt>
<wgt id='morphing_basis_vector_3'> +1.4924603e-04 </wgt>
<wgt id='morphing_basis_vector_4'> +1.0409941e-04 </wgt>
<wgt id='morphing_basis_vector_5'> +1.6593806e-04 </wgt>
</rwgt>
</event>
<event>
 4      1 +6.0853000e-08 1.96625400e+03 7.81860800e-03 8.08555100e-02
        2 -1    0    0  501    0 +0.0000000000e+00 +0.0000000000e+00 +1.3301141091e+03 1.3301141091e+03 0.0000000000e+00 0.0000e+00 -1.0000e+00
       -2 -1    0    0    0  501 -0.0000000000e+00 -0.0000000000e+00 -7.2665843418e+02 7.2665843418e+02 0.0000000000e+00 0.0000e+00 1.0000e+00
      -13  1    1    2    0    0 +6.9322828474e+02 +1.0018650517e+02 -4.1991261223e+02 8.1665745114e+02 0.0000000000e+00 0.0000e+00 1.0000e+00
       13  1    1    2    0    0 -6.9322828474e+02 -1.0018650517e+02 +1.0233682871e+03 1.2401150921e+03 0.0000000000e+00 0.0000e+00 -1.0000e+00
<mgrwt>
<rscale>  0 0.19662539E+04</rscale>
<asrwt>0</asrwt>
<pdfrwt beam="1">  1        2 0.20463294E+00 0.19662539E+04</pdfrwt>
<pdfrwt beam="2">  1       -2 0.11179361E+00 0.19662539E+04</pdfrwt>
<totfact> 0.11810396E+01</totfact>
</mgrwt>
<rwgt>
<wgt id='morphing_basis_vector_1'> +1.2777891e-04 </wgt>
<wgt id='morphing_basis_vector_2'> +8.5318836e-05 </wgt>
<wgt id='morphing_basis_vector_3'> +1.3625631e-04 </wgt>
<wgt id='morphing_basis_vector_4'> +9.4485586e-05 </wgt>
<wgt id='morphing_basis_vector_5'> +1.5097065e-04 </wgt>
</rwgt>
</event>
<event>
 4      1 +6.0853000e-08 2.21847700e+03 7.81860800e-03 7.98739900e-02
        2 -1    0    0  501    0 +0.0000000000e+00 +0.0000000000e+00 +1.7962404095e+03 1.7962404095e+03 0.0000000000e+00 0.0000e+00 1.0000e+00
       -2 -1    0    0    0  501 -0.0000000000e+00 -0.0000000000e+00 -6.8499208980e+02 6.8499208980e+02 0.0000000000e+00 0.0000e+00 -1.0000e+00
      -13  1    1    2    0    0 +6.1647376926e+02 -1.2309571375e+02 -4.6652053978e+02 7.8283706923e+02 0.0000000000e+00 0.0000e+00 -1.0000e+00
       13  1    1    2    0    0 -6.1647376926e+02 +1.2309571375e+02 +1.5777688594e+03 1.6983954300e+03 0.0000000000e+00 0.0000e+00 1.0000e+00
<mgrwt>
<rscale>  0 0.22184774E+04</rscale>
<asrwt>0</asrwt>
<pdfrwt beam="1">  1        2 0.27634468E+00 0.22184774E+04</pdfrwt>
<pdfrwt beam="2">  1       -2 0.10538340E+00 0.22184774E+04</pdfrwt>
<totfact> 0.73417295E+00</totfact>
</mgrwt>
<rwgt>
<wgt id='morphing_basis_vector_1'> +2.0504416e-04 </wgt>
<wgt id='morphing_basis_vector_2'> +1.3721613e-04 </wgt>
<wgt id='morphing_basis_vector_3'> +2.2038737e-04 </wgt>
<wgt id='morphing_basis_vector_4'> +1.5480532e-04 </wgt>
<wgt id='morphing_basis_vector_5'> +2.4687803e-04 </wgt>
</rwgt>
</event>
<event>
 4      1 +6.0853000e-08 2.02740500e+03 7.81860800e-03 8.06040400e-02
        2 -1    0    0  501    0 +0.0000000000e+00 +0.0000000000e+00 +2.2444887633e+03 2.2444887633e+03 0.0000000000e+00 0.0000e+00 -1.0000e+00
       -2 -1    0    0    0  501 -0.0000000000e+00 -0.0000000000e+00 -4.5782954226e+02 4.5782954226e+02 0.0000000000e+00 0.0000e+00 1.0000e+00
      -13  1    1    2    0    0 +3.0855032546e+02 -2.9704967742e+02 -3.3130370052e+02 5.4148310793e+02 0.0000000000e+00 0.0000e+00 1.0000e+00
       13  1    1    2    0    0 -3.0855032546e+02 +2.9704967742e+02 +2.1179629216e+03 2.1608351976e+03 0.0000000000e+00 0.0000e+00 -1.0000e+00
<mgrwt>
<rscale>  0 0.20274055E+04</rscale>
<asrwt>0</asrwt>
<pdfrwt beam="1">  1        2 0.34530596E+00 0.20274055E+04</pdfrwt>
<pdfrwt beam="2">  1       -2 0.70435316E-01 0.20274055E+04</pdfrwt>
<totfact> 0.10563258E+01</totfact>
</mgrwt>
<rwgt>
<wgt id='morphing_basis_vector_1'> +1.4390910e-04 </wgt>
<wgt id='morphing_basis_vector_2'> +9.5848962e-05 </wgt>
<wgt id='morphing_basis_vector_3'> +1.5374241e-04 </wgt>
<wgt id='morphing_basis_vector_4'> +1.0738415e-04 </wgt>
<wgt id='morphing_basis_vector_5'> +1.7109551e-04 </wgt>
</rwgt>
</event>
<event>
 4      1 +6.0853000e-08 1.90899300e+03 7.81860800e-03 8.10997600e-02
        2 -1    0    0  501    0 +0.0000000000e+00 +0.0000000000e+00 +2.3175790225e+03 2.3175790225e+03 0.0000000000e+00 0.0000e+00 -1.0000e+00
       -2 -1    0    0    0  501 -0.0000000000e+00 -0.0000000000e+00 -3.9311014666e+02 3.9311014666e+02 0.0000000000e+00 0.0000e+00 1.0000e+00
      -13  1    1    2    0    0 +3.9559111465e+01 -3.7477730946e+02 -2.8299687772e+02 4.7128567534e+02 0.0000000000e+00 0.0000e+00 1.0000e+00
       13  1    1    2    0    0 -3.9559111465e+01 +3.7477730946e+02 +2.2074657535e+03 2.2394034938e+03 0.0000000000e+00 0.0000e+00 -1.0000e+00
<mgrwt>
<rscale>  0 0.19089933E+04</rscale>
<asrwt>0</asrwt>
<pdfrwt beam="1">  1        2 0.35655061E+00 0.19089933E+04</pdfrwt>
<pdfrwt beam="2">  1       -2 0.60478485E-01 0.19089933E+04</pdfrwt>
<totfact> 0.13337005E+01</totfact>
</mgrwt>
<rwgt>
<wgt id='morphing_basis_vector_1'> +1.1368797e-04 </wgt>
<wgt id='morphing_basis_vector_2'> +7.5494529e-05 </wgt>
<wgt id='morphing_basis_vector_3'> +1.2089872e-04 </wgt>
<wgt id='morphing_basis_vector_4'> +8.4007199e-05 </wgt>
<wgt id='morphing_basis_vector_5'> +1.3381789e-04 </wgt>
</rwgt>
</event>
<event>
 4      1 +6.0853000e-08 1.86372200e+03 7.81860800e-03 8.12992900e-02
        2 -1    0    0  501    0 +0.0000000000e+00 +0.0000000000e+00 +9.5608891752e+02 9.5608891752e+02 0.0000000000e+00 0.0000e+00 -1.0000e+00
       -2 -1    0    0    0  501 -0.0000000000e+00 -0.0000000000e+00 -9.0824751344e+02 9.0824751344e+02 0.0000000000e+00 0.0000e+00 1.0000e+00
      -13  1    1    2    0    0 -8.5528740680e+02 -3.6231710417e+02 -5.0770819822e+01 9.3025152962e+02 0.0000000000e+00 0.0000e+00 1.0000e+00
       13  1    1    2    0    0 +8.5528740680e+02 +3.6231710417e+02 +9.8612223901e+01 9.3408490134e+02 0.0000000000e+00 0.0000e+00 -1.0000e+00
<mgrwt>
<rscale>  0 0.18637225E+04</rscale>
<asrwt>0</asrwt>
<pdfrwt beam="1">  1        2 0.14709060E+00 0.18637225E+04</pdfrwt>
<pdfrwt beam="2">  1       -2 0.13973039E+00 0.18637225E+04</pdfrwt>
<totfact> 0.11047564E+01</totfact>
</mgrwt>
<rwgt>
<wgt id='morphing_basis_vector_1'> +1.0631693e-04 </wgt>
<wgt id='morphing_basis_vector_2'> +7.6980887e-05 </wgt>
<wgt id='morphing_basis_vector_3'> +1.1386292e-04 </wgt>
<wgt id='morphing_basis_vector_4'> +7.0633600e-05 </wgt>
<wgt id='morphing_basis_vector_5'> +1.2087291e-04 </wgt>
</rwgt>
</event>
<event>
 4      1 +6.0853000e-08 1.95383100e+03 7.81860800e-03 8.09077600e-02
        2 -1    0    0  501    0 +0.0000000000e+00 +0.0000000000e+00 +1.0600559906e+03 1.0600559906e+03 0.0000000000e+00 0.0000e+00 -1.0000e+00
       -2 -1    0    0    0  501 -0.0000000000e+00 -0.0000000000e+00 -9.0029601192e+02 9.0029601192e+02 0.0000000000e+00 0.0000e+00 1.0000e+00
      -13  1    1    2    0    0 -9.5342880205e+01 +9.6206331489e+02 -6.0974052375e+01 9.6869702267e+02 0.0000000000e+00 0.0000e+00 1.0000e+00
       13  1    1    2    0    0 +9.5342880205e+01 -9.6206331489e+02 +2.2073403108e+02 9.9165497989e+02 0.0000000000e+00 0.0000e+00 -1.0000e+00
<mgrwt>
<rscale>  0 0.19538313E+04</rscale>
<asrwt>0</asrwt>
<pdfrwt beam="1">  1        2 0.16308554E+00 0.19538313E+04</pdfrwt>
<pdfrwt beam="2">  1       -2 0.13850708E+00 0.19538313E+04</pdfrwt>
<totfact> 0.96797270E+00</totfact>
</mgrwt>
<rwgt>
<wgt id='morphing_basis_vector_1'> +1.2715868e-04 </wgt>
<wgt id='morphing_basis_vector_2'> +9.0642999e-05 </wgt>
<wgt id='morphing_basis_vector_3'> +1.3648509e-04 </wgt>
<wgt id='morphing_basis_vector_4'> +8.7094143e-05 </wgt>
<wgt id='morphing_basis_vector_5'> +1.4672158e-04 </wgt>
</rwgt>
</event>
<event>
 4      1 +6.0853000e-08 1.98476300e+03 7.81860800e-03 8.07784000e-02
        2 -1    0    0  501    0 +0.0000000000e+00 +0.0000000000e+00 +1.2292034055e+03 1.2292034055e+03 0.0000000000e+00 0.0000e+00 -1.0000e+00
       -2 -1    0    0    0  501 -0.0000000000e+00 -0.0000000000e+00 -8.0118666167e+02 8.0118666167e+02 0.0000000000e+00 0.0000e+00 1.0000e+00
      -13  1    1    2    0    0 +5.8344365016e+02 +5.9198285253e+02 -3.4064688237e+02 8.9827083281e+02 0.0000000000e+00 0.0000e+00 1.0000e+00
       13  1    1    2    0    0 -5.8344365016e+02 -5.9198285253e+02 +7.6866362623e+02 1.1321192344e+03 0.0000000000e+00 0.0000e+00 -1.0000e+00
<mgrwt>
<rscale>  0 0.19847633E+04</rscale>
<asrwt>0</asrwt>
<pdfrwt beam="1">  1        2 0.18910822E+00 0.19847633E+04</pdfrwt>
<pdfrwt beam="2">  1       -2 0.12325949E+00 0.19847633E+04</pdfrwt>
<totfact> 0.10480546E+01</totfact>
</mgrwt>
<rwgt>
<wgt id='morphing_basis_vector_1'> +1.3284936e-04 </wgt>
<wgt id='morphing_basis_vector_2'> +8.9416988e-05 </wgt>
<wgt id='morphing_basis_vector_3'> +1.4187724e-04 </wgt>
<wgt id='morphing_basis_vector_4'> +9.7584117e-05 </wgt>
<wgt id='morphing_basis_vector_5'> +1.5681157e-04 </wgt>
</rwgt>
</event>
<event>
 4      1 +6.0853000e-08 1.91880300e+03 7.81860800e-03 8.10572900e-02
        2 -1    0    0  501    0 +0.0000000000e+00 +0.0000000000e+00 +1.4988867942e+03 1.4988867942e+03 0.0000000000e+00 0.0000e+00 -1.0000e+00
       -2 -1    0    0    0  501 -0.0000000000e+00 -0.0000000000e+00 -6.1408981396e+02 6.1408981396e+02 0.0000000000e+00 0.0000e+00 1.0000e+00
      -13  1    1    2    0    0 -3.4488426160e+02 -5.5414781623e+02 -3.3191183248e+02 7.3225024457e+02 0.0000000000e+00 0.0000e+00 1.0000e+00
       13  1    1    2    0    0 +3.4488426160e+02 +5.5414781623e+02 +1.2167088127e+03 1.3807263636e+03 0.0000000000e+00 0.0000e+00 -1.0000e+00
<mgrwt>
<rscale>  0 0.19188029E+04</rscale>
<asrwt>0</asrwt>
<pdfrwt beam="1">  1        2 0.23059797E+00 0.19188029E+04</pdfrwt>
<pdfrwt beam="2">  1       -2 0.94475357E-01 0.19188029E+04</pdfrwt>
<totfact> 0.14361245E+01</totfact>
</mgrwt>
<rwgt>
<wgt id='morphing_basis_vector_1'> +1.1609348e-04 </wgt>
<wgt id='morphing_basis_vector_2'> +7.7348740e-05 </wgt>
<wgt id='morphing_basis_vector_3'> +1.2354631e-04 </wgt>
<wgt id='morphing_basis_vector_4'> +8.5581238e-05 </wgt>
<wgt id='morphing_basis_vector_5'> +1.3663554e-04 </wgt>
</rwgt>
</event>
<event>
 4      1 +6.0853000e-08 2.13462400e+03 7.81860800e-03 8.01846100e-02
        2 -1    0    0  501    0 +0.0000000000e+00 +0.0000000000e+00 +2.2129709273e+03 2.2129709273e+03 0.0000000000e+00 0.0000e+00 -1.0000e+00
       -2 -1    0    0    0  501 -0.0000000000e+00 -0.0000000000e+00 -5.1476260539e+02 5.1476260539e+02 0.0000000000e+00 0.0000e+00 1.0000e+00
      -13  1    1    2    0    0 +5.5772882582e+01 +9.9490102875e+02 +3.6047648708e+02 1.0596612521e+03 0.0000000000e+00 0.0000e+00 1.0000e+00
       13  1    1    2    0    0 -5.5772882582e+01 -9.9490102875e+02 +1.3377318349e+03 1.6680722806e+03 0.0000000000e+00 0.0000e+00 -1.0000e+00
<mgrwt>
<rscale>  0 0.21346238E+04</rscale>
<asrwt>0</asrwt>
<pdfrwt beam="1">  1        2 0.34045706E+00 0.21346238E+04</pdfrwt>
<pdfrwt beam="2">  1       -2 0.79194248E-01 0.21346238E+04</pdfrwt>
<totfact> 0.84284090E+00</totfact>
</mgrwt>
<rwgt>
<wgt id='morphing_basis_vector_1'> +1.7771371e-04 </wgt>
<wgt id='morphing_basis_vector_2'> +1.2216018e-04 </wgt>
<wgt id='morphing_basis_vector_3'> +1.9115699e-04 </wgt>
<wgt id='morphing_basis_vector_4'> +1.2935875e-04 </wgt>
<wgt id='morphing_basis_vector_5'> +2.1082383e-04 </wgt>
</rwgt>
</event>
<event>
 4      1 +6.0853000e-08 1.90593500e+03 7.81860800e-03 8.11130600e-02
        2 -1    0    0  501    0 +0.0000000000e+00 +0.0000000000e+00 +9.0508473092e+02 9.0508473092e+02 0.0000000000e+00 0.0000e+00 -1.0000e+00
       -2 -1    0    0    0  501 -0.0000000000e+00 -0.0000000000e+00 -1.0033838822e+03 1.0033838822e+03 0.0000000000e+00 0.0000e+00 1.0000e+00
      -13  1    1    2    0    0 -5.5160835267e+02 -1.6601927852e+02 -8.0931156772e+02 9.9338783424e+02 0.0000000000e+00 0.0000e+00 1.0000e+00
       13  1    1    2    0    0 +5.5160835267e+02 +1.6601927852e+02 +7.1101241643e+02 9.1508077889e+02 0.0000000000e+00 0.0000e+00 -1.0000e+00
<mgrwt>
<rscale>  0 0.19059354E+04</rscale>
<asrwt>0</asrwt>
<pdfrwt beam="1">  1        2 0.13924380E+00 0.19059354E+04</pdfrwt>
<pdfrwt beam="2">  1       -2 0.15436675E+00 0.19059354E+04</pdfrwt>
<totfact> 0.89564856E+00</totfact>
</mgrwt>
<rwgt>
<wgt id='morphing_basis_vector_1'> +1.1302774e-04 </wgt>
<wgt id='morphing_basis_vector_2'> +7.5165865e-05 </wgt>
<wgt id='morphing_basis_vector_3'> +1.2019982e-04 </wgt>
<wgt id='morphing_basis_vector_4'> +8.3359297e-05 </wgt>
<wgt id='morphing_basis_vector_5'> +1.3293581e-04 </wgt>
</rwgt>
</event>
<event>
 4      1 +6.0853000e-08 1.93219900e+03 7.81860800e-03 8.09997200e-02
        2 -1    0    0  501    0 +0.0000000000e+00 +0.0000000000e+00 +1.3536189696e+03 1.3536189696e+03 0.0000000000e+00 0.0000e+00 -1.0000e+00
       -2 -1    0    0    0  501 -0.0000000000e+00 -0.0000000000e+00 -6.8952049240e+02 6.8952049240e+02 0.0000000000e+00 0.0000e+00 1.0000e+00
      -13  1    1    2    0    0 +7.6432705458e+02 -4.9884612629e+02 +6.6694286651e+02 1.1304229701e+03 0.0000000000e+00 0.0000e+00 1.0000e+00
       13  1    1    2    0    0 -7.6432705458e+02 +4.9884612629e+02 -2.8443893152e+00 9.1271649192e+02 0.0000000000e+00 0.0000e+00 -1.0000e+00
<mgrwt>
<rscale>  0 0.19321988E+04</rscale>
<asrwt>0</asrwt>
<pdfrwt beam="1">  1        2 0.20824907E+00 0.19321988E+04</pdfrwt>
<pdfrwt beam="2">  1       -2 0.10608008E+00 0.19321988E+04</pdfrwt>
<totfact> 0.13093403E+01</totfact>
</mgrwt>
<rwgt>
<wgt id='morphing_basis_vector_1'> +1.3239234e-04 </wgt>
<wgt id='morphing_basis_vector_2'> +1.1830780e-04 </wgt>
<wgt id='morphing_basis_vector_3'> +1.4590935e-04 </wgt>
<wgt id='morphing_basis_vector_4'> +6.2144842e-05 </wgt>
<wgt id='morphing_basis_vector_5'> +1.3854357e-04 </wgt>
</rwgt>
</event>
<event>
 4      1 +6.0853000e-08 2.20818700e+03 7.81860800e-03 7.99113300e-02
        2 -1    0    0  501    0 +0.0000000000e+00 +0.0000000000e+00 +3.8329756590e+03 3.8329756590e+03 0.0000000000e+00 0.0000e+00 1.0000e+00
       -2 -1    0    0    0  501 -0.0000000000e+00 -0.0000000000e+00 -3.1803558202e+02 3.1803558202e+02 0.0000000000e+00 0.0000e+00 -1.0000e+00
      -13  1    1    2    0    0 +2.0381973145e+02 +9.6569365394e+02 +8.2716249466e+02 1.2877517264e+03 0.0000000000e+00 0.0000e+00 -1.0000e+00
       13  1    1    2    0    0 -2.0381973145e+02 -9.6569365394e+02 +2.6877775823e+03 2.8632595147e+03 0.0000000000e+00 0.0000e+00 1.0000e+00
<mgrwt>
<rscale>  0 0.22081872E+04</rscale>
<asrwt>0</asrwt>
<pdfrwt beam="1">  1        2 0.58968853E+00 0.22081872E+04</pdfrwt>
<pdfrwt beam="2">  1       -2 0.48928554E-01 0.22081872E+04</pdfrwt>
<totfact> 0.19170618E+00</totfact>
</mgrwt>
<rwgt>
<wgt id='morphing_basis_vector_1'> +2.0242058e-04 </wgt>
<wgt id='morphing_basis_vector_2'> +1.3793410e-04 </wgt>
<wgt id='morphing_basis_vector_3'> +2.1796053e-04 </wgt>
<wgt id='morphing_basis_vector_4'> +1.4970238e-04 </wgt>
<wgt id='morphing_basis_vector_5'> +2.4207902e-04 </wgt>
</rwgt>
</event>
<event>
 4      1 +6.0853000e-08 1.94273100e+03 7.81860800e-03 8.09547900e-02
        2 -1    0    0  501    0 +0.0000000000e+00 +0.0000000000e+00 +1.5417031216e+03 1.5417031216e+03 0.0000000000e+00 0.0000e+00 1.0000e+00
       -2 -1    0    0    0  501 -0.0000000000e+00 -0.0000000000e+00 -6.1201840271e+02 6.1201840271e+02 0.0000000000e+00 0.0000e+00 -1.0000e+00
      -13  1    1    2    0    0 -2.6520735245e+02 +3.3717538487e+02 -5.0131746466e+02 6.5980404692e+02 0.0000000000e+00 0.0000e+00 -1.0000e+00
       13  1    1    2    0    0 +2.6520735245e+02 -3.3717538487e+02 +1.4310021836e+03 1.4939174774e+03 0.0000000000e+00 0.0000e+00 1.0000e+00
<mgrwt>
<rscale>  0 0.19427307E+04</rscale>
<asrwt>0</asrwt>
<pdfrwt beam="1">  1        2 0.23718509E+00 0.19427307E+04</pdfrwt>
<pdfrwt beam="2">  1       -2 0.94156678E-01 0.19427307E+04</pdfrwt>
<totfact> 0.13670948E+01</totfact>
</mgrwt>
<rwgt>
<wgt id='morphing_basis_vector_1'> +1.2176026e-04 </wgt>
<wgt id='morphing_basis_vector_2'> +8.0938943e-05 </wgt>
<wgt id='morphing_basis_vector_3'> +1.2966543e-04 </wgt>
<wgt id='morphing_basis_vector_4'> +9.0226855e-05 </wgt>
<wgt id='morphing_basis_vector_5'> +1.4374977e-04 </wgt>
</rwgt>
</event>
<event>
 4      1 +6.0853000e-08 2.19303200e+03 7.81860800e-03 7.99667300e-02
        2 -1    0    0  501    0 +0.0000000000e+00 +0.0000000000e+00 +2.6401313831e+03 2.6401313831e+03 0.0000000000e+00 0.0000e+00 -1.0000e+00
       -2 -1    0    0    0  501 -0.0000000000e+00 -0.0000000000e+00 -4.5541196439e+02 4.5541196439e+02 0.0000000000e+00 0.0000e+00 1.0000e+00
      -13  1    1    2    0    0 -1.6834343844e+02 -3.9482653212e+02 -3.3190716271e+02 5.4257706217e+02 0.0000000000e+00 0.0000e+00 1.0000e+00
       13  1    1    2    0    0 +1.6834343844e+02 +3.9482653212e+02 +2.5166265814e+03 2.5529662853e+03 0.0000000000e+00 0.0000e+00 -1.0000e+00
<mgrwt>
<rscale>  0 0.21930321E+04</rscale>
<asrwt>0</asrwt>
<pdfrwt beam="1">  1        2 0.40617405E+00 0.21930321E+04</pdfrwt>
<pdfrwt beam="2">  1       -2 0.70063381E-01 0.21930321E+04</pdfrwt>
<totfact> 0.61434839E+00</totfact>
</mgrwt>
<rwgt>
<wgt id='morphing_basis_vector_1'> +1.9588782e-04 </wgt>
<wgt id='morphing_basis_vector_2'> +1.3089173e-04 </wgt>
<wgt id='morphing_basis_vector_3'> +2.1037200e-04 </wgt>
<wgt id='morphing_basis_vector_4'> +1.4783697e-04 </wgt>
<wgt id='morphing_basis_vector_5'> +2.3557510e-04 </wgt>
</rwgt>
</event>
<event>
 4      1 +6.0853000e-08 1.97359900e+03 7.81860800e-03 8.08248000e-02
        2 -1    0    0  501    0 +0.0000000000e+00 +0.0000000000e+00 +8.0447853937e+02 8.0447853937e+02 0.0000000000e+00 0.0000e+00 -1.0000e+00
       -2 -1    0    0    0  501 -0.0000000000e+00 -0.0000000000e+00 -1.2104405940e+03 1.2104405940e+03 0.0000000000e+00 0.0000e+00 1.0000e+00
      -13  1    1    2    0    0 +2.6610398142e+02 +8.7822767797e+02 -5.7345333912e+02 1.0821016197e+03 0.0000000000e+00 0.0000e+00 1.0000e+00
       13  1    1    2    0    0 -2.6610398142e+02 -8.7822767797e+02 +1.6749128452e+02 9.3281751360e+02 0.0000000000e+00 0.0000e+00 -1.0000e+00
<mgrwt>
<rscale>  0 0.19735992E+04</rscale>
<asrwt>0</asrwt>
<pdfrwt beam="1">  1        2 0.12376593E+00 0.19735992E+04</pdfrwt>
<pdfrwt beam="2">  1       -2 0.18622163E+00 0.19735992E+04</pdfrwt>
<totfact> 0.58719934E+00</totfact>
</mgrwt>
<rwgt>
<wgt id='morphing_basis_vector_1'> +1.3059490e-04 </wgt>
<wgt id='morphing_basis_vector_2'> +8.9361835e-05 </wgt>
<wgt id='morphing_basis_vector_3'> +1.3965820e-04 </wgt>
<wgt id='morphing_basis_vector_4'> +9.4075599e-05 </wgt>
<wgt id='morphing_basis_vector_5'> +1.5314039e-04 </wgt>
</rwgt>
</event>
<event>
 4      1 +6.0853000e-08 1.93171100e+03 7.81860800e-03 8.10018000e-02
        2 -1    0    0  501    0 +0.0000000000e+00 +0.0000000000e+00 +2.0044430307e+03 2.0044430307e+03 0.0000000000e+00 0.0000e+00 -1.0000e+00
       -2 -1    0    0    0  501 -0.0000000000e+00 -0.0000000000e+00 -4.6540461538e+02 4.6540461538e+02 0.0000000000e+00 0.0000e+00 1.0000e+00
      -13  1    1    2    0    0 -4.1990749552e+02 +2.1854987166e+02 -3.0691370526e+02 5.6416520069e+02 0.0000000000e+00 0.0000e+00 1.0000e+00
       13  1    1    2    0    0 +4.1990749552e+02 -2.1854987166e+02 +1.8459521206e+03 1.9056824454e+03 0.0000000000e+00 0.0000e+00 -1.0000e+00
<mgrwt>
<rscale>  0 0.19317112E+04</rscale>
<asrwt>0</asrwt>
<pdfrwt beam="1">  1        2 0.30837585E+00 0.19317112E+04</pdfrwt>
<pdfrwt beam="2">  1       -2 0.71600711E-01 0.19317112E+04</pdfrwt>
<totfact> 0.14076120E+01</totfact>
</mgrwt>
<rwgt>
<wgt id='morphing_basis_vector_1'> +1.1908784e-04 </wgt>
<wgt id='morphing_basis_vector_2'> +7.9159736e-05 </wgt>
<wgt id='morphing_basis_vector_3'> +1.2676607e-04 </wgt>
<wgt id='morphing_basis_vector_4'> +8.8138515e-05 </wgt>
<wgt id='morphing_basis_vector_5'> +1.4044581e-04 </wgt>
</rwgt>
</event>
<event>
 4      1 +6.0853000e-08 2.10543500e+03 7.81860800e-03 8.02962200e-02
        2 -1    0    0  501    0 +0.0000000000e+00 +0.0000000000e+00 +1.4997233327e+03 1.4997233327e+03 0.0000000000e+00 0.0000e+00 -1.0000e+00
       -2 -1    0    0    0  501 -0.0000000000e+00 -0.0000000000e+00 -7.3894605471e+02 7.3894605471e+02 0.0000000000e+00 0.0000e+00 1.0000e+00
      -13  1    1    2    0    0 -7.7989830077e+02 -9.4050967527e+01 -3.6476398689e+02 8.6610606173e+02 0.0000000000e+00 0.0000e+00 1.0000e+00
       13  1    1    2    0    0 +7.7989830077e+02 +9.4050967527e+01 +1.1255412649e+03 1.3725633257e+03 0.0000000000e+00 0.0000e+00 -1.0000e+00
<mgrwt>
<rscale>  0 0.21054355E+04</rscale>
<asrwt>0</asrwt>
<pdfrwt beam="1">  1        2 0.23072667E+00 0.21054355E+04</pdfrwt>
<pdfrwt beam="2">  1       -2 0.11368401E+00 0.21054355E+04</pdfrwt>
<totfact> 0.89723641E+00</totfact>
</mgrwt>
<rwgt>
<wgt id='morphing_basis_vector_1'> +1.6715298e-04 </wgt>
<wgt id='morphing_basis_vector_2'> +1.1210073e-04 </wgt>
<wgt id='morphing_basis_vector_3'> +1.7914669e-04 </wgt>
<wgt id='morphing_basis_vector_4'> +1.2472787e-04 </wgt>
<wgt id='morphing_basis_vector_5'> +1.9952315e-04 </wgt>
</rwgt>
</event>
<event>
 4      1 +6.0853000e-08 2.20537200e+03 7.81860800e-03 7.99215900e-02
        2 -1    0    0  501    0 +0.0000000000e+00 +0.0000000000e+00 +2.3243682948e+03 2.3243682948e+03 0.0000000000e+00 0.0000e+00 -1.0000e+00
       -2 -1    0    0    0  501 -0.0000000000e+00 -0.0000000000e+00 -5.2311675602e+02 5.2311675602e+02 0.0000000000e+00 0.0000e+00 1.0000e+00
      -13  1    1    2    0    0 -5.9380813390e+02 +3.3850143407e+02 -2.1659948681e+02 7.1701231401e+02 0.0000000000e+00 0.0000e+00 1.0000e+00
       13  1    1    2    0    0 +5.9380813390e+02 -3.3850143407e+02 +2.0178510256e+03 2.1304727368e+03 0.0000000000e+00 0.0000e+00 -1.0000e+00
<mgrwt>
<rscale>  0 0.22053716E+04</rscale>
<asrwt>0</asrwt>
<pdfrwt beam="1">  1        2 0.35759512E+00 0.22053716E+04</pdfrwt>
<pdfrwt beam="2">  1       -2 0.80479502E-01 0.22053716E+04</pdfrwt>
<totfact> 0.69647068E+00</totfact>
</mgrwt>
<rwgt>
<wgt id='morphing_basis_vector_1'> +2.0036281e-04 </wgt>
<wgt id='morphing_basis_vector_2'> +1.3414966e-04 </wgt>
<wgt id='morphing_basis_vector_3'> +2.1529558e-04 </wgt>
<wgt id='morphing_basis_vector_4'> +1.5103684e-04 </wgt>
<wgt id='morphing_basis_vector_5'> +2.4099510e-04 </wgt>
</rwgt>
</event>
<event>
 4      1 +6.0853000e-08 2.22769500e+03 7.81860800e-03 7.98407100e-02
        2 -1    0    0  501    0 +0.0000000000e+00 +0.0000000000e+00 +7.0697127822e+02 7.0697127822e+02 0.0000000000e+00 0.0000e+00 1.0000e+00
       -2 -1    0    0    0  501 -0.0000000000e+00 -0.0000000000e+00 -1.7548891153e+03 1.7548891153e+03 0.0000000000e+00 0.0000e+00 -1.0000e+00
      -13  1    1    2    0    0 -9.5610067625e+02 -3.9336100190e+02 -6.5909081582e+01 1.0359562674e+03 0.0000000000e+00 0.0000e+00 1.0000e+00
       13  1    1    2    0    0 +9.5610067625e+02 +3.9336100190e+02 -9.8200875547e+02 1.4259041261e+03 0.0000000000e+00 0.0000e+00 -1.0000e+00
<mgrwt>
<rscale>  0 0.22276950E+04</rscale>
<asrwt>0</asrwt>
<pdfrwt beam="1">  1        2 0.10876481E+00 0.22276950E+04</pdfrwt>
<pdfrwt beam="2">  1       -2 0.26998294E+00 0.22276950E+04</pdfrwt>
<totfact> 0.17230475E+00</totfact>
</mgrwt>
<rwgt>
<wgt id='morphing_basis_vector_1'> +2.3486624e-04 </wgt>
<wgt id='morphing_basis_vector_2'> +2.1766578e-04 </wgt>
<wgt id='morphing_basis_vector_3'> +2.6357148e-04 </wgt>
<wgt id='morphing_basis_vector_4'> +1.0396522e-04 </wgt>
<wgt id='morphing_basis_vector_5'> +2.4679343e-04 </wgt>
</rwgt>
</event>
<event>
 4      1 +6.0853000e-08 1.91992100e+03 7.81860800e-03 8.10524700e-02
        2 -1    0    0  501    0 +0.0000000000e+00 +0.0000000000e+00 +2.5758368761e+03 2.5758368761e+03 0.0000000000e+00 0.0000e+00 1.0000e+00
       -2 -1    0    0    0  501 -0.0000000000e+00 -0.0000000000e+00 -3.5775718921e+02 3.5775718921e+02 0.0000000000e+00 0.0000e+00 -1.0000e+00
      -13  1    1    2    0    0 -1.8504579247e+02 -4.8123708524e+02 -1.2823721645e+02 5.3129639675e+02 0.0000000000e+00 0.0000e+00 -1.0000e+00
       13  1    1    2    0    0 +1.8504579247e+02 +4.8123708524e+02 +2.3463169033e+03 2.4022976685e+03 0.0000000000e+00 0.0000e+00 1.0000e+00
<mgrwt>
<rscale>  0 0.19199210E+04</rscale>
<asrwt>0</asrwt>
<pdfrwt beam="1">  1        2 0.39628258E+00 0.19199210E+04</pdfrwt>
<pdfrwt beam="2">  1       -2 0.55039569E-01 0.19199210E+04</pdfrwt>
<totfact> 0.11358597E+01</totfact>
</mgrwt>
<rwgt>
<wgt id='morphing_basis_vector_1'> +1.1628063e-04 </wgt>
<wgt id='morphing_basis_vector_2'> +7.7297110e-05 </wgt>
<wgt id='morphing_basis_vector_3'> +1.2372209e-04 </wgt>
<wgt id='morphing_basis_vector_4'> +8.5938753e-05 </wgt>
<wgt id='morphing_basis_vector_5'> +1.3697334e-04 </wgt>
</rwgt>
</event>
<event>
 4      1 +6.0853000e-08 2.10751800e+03 7.81860800e-03 8.02882000e-02
        2 -1    0    0  501    0 +0.0000000000e+00 +0.0000000000e+00 +2.1326267096e+03 2.1326267096e+03 0.0000000000e+00 0.0000e+00 1.0000e+00
       -2 -1    0    0    0  501 -0.0000000000e+00 -0.0000000000e+00 -5.2067636962e+02 5.2067636962e+02 0.0000000000e+00 0.0000e+00 -1.0000e+00
      -13  1    1    2    0    0 +1.0339326708e+03 -1.0804235380e+02 +5.8894089187e+02 1.1947975946e+03 0.0000000000e+00 0.0000e+00 -1.0000e+00
       13  1    1    2    0    0 -1.0339326708e+03 +1.0804235380e+02 +1.0230094481e+03 1.4585054847e+03 0.0000000000e+00 0.0000e+00 1.0000e+00
<mgrwt>
<rscale>  0 0.21075183E+04</rscale>
<asrwt>0</asrwt>
<pdfrwt beam="1">  1        2 0.32809641E+00 0.21075183E+04</pdfrwt>
<pdfrwt beam="2">  1       -2 0.80104058E-01 0.21075183E+04</pdfrwt>
<totfact> 0.91499476E+00</totfact>
</mgrwt>
<rwgt>
<wgt id='morphing_basis_vector_1'> +1.7085722e-04 </wgt>
<wgt id='morphing_basis_vector_2'> +1.2157528e-04 </wgt>
<wgt id='morphing_basis_vector_3'> +1.8436038e-04 </wgt>
<wgt id='morphing_basis_vector_4'> +1.1910467e-04 </wgt>
<wgt id='morphing_basis_vector_5'> +1.9984116e-04 </wgt>
</rwgt>
</event>
<event>
 4      1 +6.0853000e-08 2.11059900e+03 7.81860800e-03 8.02763400e-02
        2 -1    0    0  501    0 +0.0000000000e+00 +0.0000000000e+00 +1.0724201158e+03 1.0724201158e+03 0.0000000000e+00 0.0000e+00 -1.0000e+00
       -2 -1    0    0    0  501 -0.0000000000e+00 -0.0000000000e+00 -1.0384525081e+03 1.0384525081e+03 0.0000000000e+00 0.0000e+00 1.0000e+00
      -13  1    1    2    0    0 +1.8031927162e+02 -8.8860230129e+02 +5.5698730236e+02 1.0641259063e+03 0.0000000000e+00 0.0000e+00 -1.0000e+00
       13  1    1    2    0    0 -1.8031927162e+02 +8.8860230129e+02 -5.2301969464e+02 1.0467467175e+03 0.0000000000e+00 0.0000e+00 1.0000e+00
<mgrwt>
<rscale>  0 0.21105993E+04</rscale>
<asrwt>0</asrwt>
<pdfrwt beam="1">  1        2 0.16498771E+00 0.21105993E+04</pdfrwt>
<pdfrwt beam="2">  1       -2 0.15976192E+00 0.21105993E+04</pdfrwt>
<totfact> 0.62501108E+00</totfact>
</mgrwt>
<rwgt>
<wgt id='morphing_basis_vector_1'> +2.0045501e-04 </wgt>
<wgt id='morphing_basis_vector_2'> +2.0692368e-04 </wgt>
<wgt id='morphing_basis_vector_3'> +2.2766372e-04 </wgt>
<wgt id='morphing_basis_vector_4'> +6.2401593e-05 </wgt>
<wgt id='morphing_basis_vector_5'> +1.9646814e-04 </wgt>
</rwgt>
</event>
<event>
 4      1 +6.0853000e-08 1.86551900e+03 7.81860800e-03 8.12912500e-02
        2 -1    0    0  501    0 +0.0000000000e+00 +0.0000000000e+00 +6.9952302416e+02 6.9952302416e+02 0.0000000000e+00 0.0000e+00 1.0000e+00
       -2 -1    0    0    0  501 -0.0000000000e+00 -0.0000000000e+00 -1.2437623631e+03 1.2437623631e+03 0.0000000000e+00 0.0000e+00 -1.0000e+00
      -13  1    1    2    0    0 -2.1492925044e+02 +8.3833959910e+02 +9.0280137075e+01 8.7014847541e+02 0.0000000000e+00 0.0000e+00 1.0000e+00
       13  1    1    2    0    0 +2.1492925044e+02 -8.3833959910e+02 -6.3451947597e+02 1.0731369118e+03 0.0000000000e+00 0.0000e+00 -1.0000e+00
<mgrwt>
<rscale>  0 0.18655191E+04</rscale>
<asrwt>0</asrwt>
<pdfrwt beam="1">  1        2 0.10761893E+00 0.18655191E+04</pdfrwt>
<pdfrwt beam="2">  1       -2 0.19134805E+00 0.18655191E+04</pdfrwt>
<totfact> 0.64672913E+00</totfact>
</mgrwt>
<rwgt>
<wgt id='morphing_basis_vector_1'> +1.1712290e-04 </wgt>
<wgt id='morphing_basis_vector_2'> +1.0812331e-04 </wgt>
<wgt id='morphing_basis_vector_3'> +1.2915091e-04 </wgt>
<wgt id='morphing_basis_vector_4'> +5.0462123e-05 </wgt>
<wgt id='morphing_basis_vector_5'> +1.1975507e-04 </wgt>
</rwgt>
</event>
<event>
 4      1 +6.0853000e-08 2.16030200e+03 7.81860800e-03 8.00879400e-02
        2 -1    0    0  501    0 +0.0000000000e+00 +0.0000000000e+00 +1.6516917306e+03 1.6516917306e+03 0.0000000000e+00 0.0000e+00 1.0000e+00
       -2 -1    0    0    0  501 -0.0000000000e+00 -0.0000000000e+00 -7.0638274154e+02 7.0638274154e+02 0.0000000000e+00 0.0000e+00 -1.0000e+00
      -13  1    1    2    0    0 +4.1847410720e+02 -7.7668966524e+02 -2.0758170102e+02 9.0634296880e+02 0.0000000000e+00 0.0000e+00 -1.0000e+00
       13  1    1    2    0    0 -4.1847410720e+02 +7.7668966524e+02 +1.1528906900e+03 1.4517315033e+03 0.0000000000e+00 0.0000e+00 1.0000e+00
<mgrwt>
<rscale>  0 0.21603023E+04</rscale>
<asrwt>0</asrwt>
<pdfrwt beam="1">  1        2 0.25410642E+00 0.21603023E+04</pdfrwt>
<pdfrwt beam="2">  1       -2 0.10867427E+00 0.21603023E+04</pdfrwt>
<totfact> 0.82280799E+00</totfact>
</mgrwt>
<rwgt>
<wgt id='morphing_basis_vector_1'> +1.8516552e-04 </wgt>
<wgt id='morphing_basis_vector_2'> +1.2484922e-04 </wgt>
<wgt id='morphing_basis_vector_3'> +1.9888372e-04 </wgt>
<wgt id='morphing_basis_vector_4'> +1.3801726e-04 </wgt>
<wgt id='morphing_basis_vector_5'> +2.2151332e-04 </wgt>
</rwgt>
</event>
<event>
 4      1 +6.0853000e-08 2.09732900e+03 7.81860800e-03 8.03275500e-02
        2 -1    0    0  501    0 +0.0000000000e+00 +0.0000000000e+00 +1.2359867006e+03 1.2359867006e+03 0.0000000000e+00 0.0000e+00 1.0000e+00
       -2 -1    0    0    0  501 -0.0000000000e+00 -0.0000000000e+00 -8.8973238954e+02 8.8973238954e+02 0.0000000000e+00 0.0000e+00 -1.0000e+00
      -13  1    1    2    0    0 -6.0403101758e+02 -2.7359466198e+02 -6.5026726485e+02 9.2873840504e+02 0.0000000000e+00 0.0000e+00 -1.0000e+00
       13  1    1    2    0    0 +6.0403101758e+02 +2.7359466198e+02 +9.9652157589e+02 1.1969806851e+03 0.0000000000e+00 0.0000e+00 1.0000e+00
<mgrwt>
<rscale>  0 0.20973292E+04</rscale>
<asrwt>0</asrwt>
<pdfrwt beam="1">  1        2 0.19015180E+00 0.20973292E+04</pdfrwt>
<pdfrwt beam="2">  1       -2 0.13688191E+00 0.20973292E+04</pdfrwt>
<totfact> 0.77674960E+00</totfact>
</mgrwt>
<rwgt>
<wgt id='morphing_basis_vector_1'> +1.6447980e-04 </wgt>
<wgt id='morphing_basis_vector_2'> +1.0992330e-04 </wgt>
<wgt id='morphing_basis_vector_3'> +1.7617134e-04 </wgt>
<wgt id='morphing_basis_vector_4'> +1.2310590e-04 </wgt>
<wgt id='morphing_basis_vector_5'> +1.9643835e-04 </wgt>
</rwgt>
</event>
<event>
 4      1 +6.0853000e-08 2.03652100e+03 7.81860800e-03 8.05673400e-02
        2 -1    0    0  501    0 +0.0000000000e+00 +0.0000000000e+00 +2.0147644885e+03 2.0147644885e+03 0.0000000000e+00 0.0000e+00 -1.0000e+00
       -2 -1    0    0    0  501 -0.0000000000e+00 -0.0000000000e+00 -5.1462827989e+02 5.1462827989e+02 0.0000000000e+00 0.0000e+00 1.0000e+00
      -13  1    1    2    0    0 -9.5293561446e+02 +3.4663862651e+02 +8.6531598036e+02 1.3330477743e+03 0.0000000000e+00 0.0000e+00 1.0000e+00
       13  1    1    2    0    0 +9.5293561446e+02 -3.4663862651e+02 +6.3482022828e+02 1.1963449941e+03 0.0000000000e+00 0.0000e+00 -1.0000e+00
<mgrwt>
<rscale>  0 0.20365213E+04</rscale>
<asrwt>0</asrwt>
<pdfrwt beam="1">  1        2 0.30996376E+00 0.20365213E+04</pdfrwt>
<pdfrwt beam="2">  1       -2 0.79173583E-01 0.20365213E+04</pdfrwt>
<totfact> 0.11022073E+01</totfact>
</mgrwt>
<rwgt>
<wgt id='morphing_basis_vector_1'> +1.5384687e-04 </wgt>
<wgt id='morphing_basis_vector_2'> +1.1942385e-04 </wgt>
<wgt id='morphing_basis_vector_3'> +1.6732109e-04 </wgt>
<wgt id='morphing_basis_vector_4'> +9.4631716e-05 </wgt>
<wgt id='morphing_basis_vector_5'> +1.7308877e-04 </wgt>
</rwgt>
</event>
<event>
 4      1 +6.0853000e-08 2.00177200e+03 7.81860800e-03 8.07083100e-02
        2 -1    0    0  501    0 +0.0000000000e+00 +0.0000000000e+00 +9.5676299568e+02 9.5676299568e+02 0.0000000000e+00 0.0000e+00 1.0000e+00
       -2 -1    0    0    0  501 -0.0000000000e+00 -0.0000000000e+00 -1.0470441491e+03 1.0470441491e+03 0.0000000000e+00 0.0000e+00 -1.0000e+00
      -13  1    1    2    0    0 -1.5047616161e+02 +4.7526620301e+02 -9.1392376109e+02 1.0410464351e+03 0.0000000000e+00 0.0000e+00 -1.0000e+00
       13  1    1    2    0    0 +1.5047616161e+02 -4.7526620301e+02 +8.2364260767e+02 9.6276070968e+02 0.0000000000e+00 0.0000e+00 1.0000e+00
<mgrwt>
<rscale>  0 0.20017723E+04</rscale>
<asrwt>0</asrwt>
<pdfrwt beam="1">  1        2 0.14719431E+00 0.20017723E+04</pdfrwt>
<pdfrwt beam="2">  1       -2 0.16108371E+00 0.20017723E+04</pdfrwt>
<totfact> 0.72615753E+00</totfact>
</mgrwt>
<rwgt>
<wgt id='morphing_basis_vector_1'> +1.3692140e-04 </wgt>
<wgt id='morphing_basis_vector_2'> +9.1175130e-05 </wgt>
<wgt id='morphing_basis_vector_3'> +1.4614735e-04 </wgt>
<wgt id='morphing_basis_vector_4'> +1.0192649e-04 </wgt>
<wgt id='morphing_basis_vector_5'> +1.6243874e-04 </wgt>
</rwgt>
</event>
<event>
 4      1 +6.0853000e-08 2.00048700e+03 7.81860800e-03 8.07135800e-02
        2 -1    0    0  501    0 +0.0000000000e+00 +0.0000000000e+00 +2.8211017161e+03 2.8211017161e+03 0.0000000000e+00 0.0000e+00 1.0000e+00
       -2 -1    0    0    0  501 -0.0000000000e+00 -0.0000000000e+00 -3.5464409185e+02 3.5464409185e+02 0.0000000000e+00 0.0000e+00 -1.0000e+00
      -13  1    1    2    0    0 +4.2870589161e+02 -5.8591097896e+02 +1.4096593646e+02 7.3956190546e+02 0.0000000000e+00 0.0000e+00 -1.0000e+00
       13  1    1    2    0    0 -4.2870589161e+02 +5.8591097896e+02 +2.3254916878e+03 2.4361839025e+03 0.0000000000e+00 0.0000e+00 1.0000e+00
<mgrwt>
<rscale>  0 0.20004870E+04</rscale>
<asrwt>0</asrwt>
<pdfrwt beam="1">  1        2 0.43401563E+00 0.20004870E+04</pdfrwt>
<pdfrwt beam="2">  1       -2 0.54560631E-01 0.20004870E+04</pdfrwt>
<totfact> 0.81104565E+00</totfact>
</mgrwt>
<rwgt>
<wgt id='morphing_basis_vector_1'> +1.3673787e-04 </wgt>
<wgt id='morphing_basis_vector_2'> +9.1419037e-05 </wgt>
<wgt id='morphing_basis_vector_3'> +1.4600699e-04 </wgt>
<wgt id='morphing_basis_vector_4'> +1.0134006e-04 </wgt>
<wgt id='morphing_basis_vector_5'> +1.6198832e-04 </wgt>
</rwgt>
</event>
<event>
 4      1 +6.0853000e-08 1.86434900e+03 7.81860800e-03 8.12964800e-02
        2 -1    0    0  501    0 +0.0000000000e+00 +0.0000000000e+00 +2.6477946022e+03 2.6477946022e+03 0.0000000000e+00 0.0000e+00 -1.0000e+00
       -2 -1    0    0    0  501 -0.0000000000e+00 -0.0000000000e+00 -3.2817869022e+02 3.2817869022e+02 0.0000000000e+00 0.0000e+00 1.0000e+00
      -13  1    1    2    0    0 +8.4431116719e+02 -3.8603019302e+02 +1.2940176832e+03 1.5925961263e+03 0.0000000000e+00 0.0000e+00 1.0000e+00
       13  1    1    2    0    0 -8.4431116719e+02 +3.8603019302e+02 +1.0255982288e+03 1.3833771662e+03 0.0000000000e+00 0.0000e+00 -1.0000e+00
<mgrwt>
<rscale>  0 0.18643495E+04</rscale>
<asrwt>0</asrwt>
<pdfrwt beam="1">  1        2 0.40735300E+00 0.18643495E+04</pdfrwt>
<pdfrwt beam="2">  1       -2 0.50489031E-01 0.18643495E+04</pdfrwt>
<totfact> 0.12260368E+01</totfact>
</mgrwt>
<rwgt>
<wgt id='morphing_basis_vector_1'> +1.0884561e-04 </wgt>
<wgt id='morphing_basis_vector_2'> +8.4165918e-05 </wgt>
<wgt id='morphing_basis_vector_3'> +1.1742456e-04 </wgt>
<wgt id='morphing_basis_vector_4'> +6.6036208e-05 </wgt>
<wgt id='morphing_basis_vector_5'> +1.2067321e-04 </wgt>
</rwgt>
</event>
<event>
 4      1 +6.0853000e-08 1.99137200e+03 7.81860800e-03 8.07510800e-02
        2 -1    0    0  501    0 +0.0000000000e+00 +0.0000000000e+00 +3.0732254627e+03 3.0732254627e+03 0.0000000000e+00 0.0000e+00 1.0000e+00
       -2 -1    0    0    0  501 -0.0000000000e+00 -0.0000000000e+00 -3.2258964577e+02 3.2258964577e+02 0.0000000000e+00 0.0000e+00 -1.0000e+00
      -13  1    1    2    0    0 +7.4577214556e+02 -5.2157377818e+02 +6.8647692320e+02 1.1399411675e+03 0.0000000000e+00 0.0000e+00 -1.0000e+00
       13  1    1    2    0    0 -7.4577214556e+02 +5.2157377818e+02 +2.0641588937e+03 2.2558739410e+03 0.0000000000e+00 0.0000e+00 1.0000e+00
<mgrwt>
<rscale>  0 0.19913721E+04</rscale>
<asrwt>0</asrwt>
<pdfrwt beam="1">  1        2 0.47280390E+00 0.19913721E+04</pdfrwt>
<pdfrwt beam="2">  1       -2 0.49629178E-01 0.19913721E+04</pdfrwt>
<totfact> 0.67453250E+00</totfact>
</mgrwt>
<rwgt>
<wgt id='morphing_basis_vector_1'> +1.3508114e-04 </wgt>
<wgt id='morphing_basis_vector_2'> +9.2054369e-05 </wgt>
<wgt id='morphing_basis_vector_3'> +1.4448608e-04 </wgt>
<wgt id='morphing_basis_vector_4'> +9.7941848e-05 </wgt>
<wgt id='morphing_basis_vector_5'> +1.5887684e-04 </wgt>
</rwgt>
</event>
<event>
 4      1 +6.0853000e-08 2.01915000e+03 7.81860800e-03 8.06374500e-02
        2 -1    0    0  501    0 +0.0000000000e+00 +0.0000000000e+00 +2.2408832580e+03 2.2408832580e+03 0.0000000000e+00 0.0000e+00 -1.0000e+00
       -2 -1    0    0    0  501 -0.0000000000e+00 -0.0000000000e+00 -4.5483923971e+02 4.5483923971e+02 0.0000000000e+00 0.0000e+00 1.0000e+00
      -13  1    1    2    0    0 +1.3715033072e+02 -8.3563524671e+02 +1.5915996050e+02 8.6164283307e+02 0.0000000000e+00 0.0000e+00 1.0000e+00
       13  1    1    2    0    0 -1.3715033072e+02 +8.3563524671e+02 +1.6268840578e+03 1.8340796647e+03 0.0000000000e+00 0.0000e+00 -1.0000e+00
<mgrwt>
<rscale>  0 0.20191500E+04</rscale>
<asrwt>0</asrwt>
<pdfrwt beam="1">  1        2 0.34475126E+00 0.20191500E+04</pdfrwt>
<pdfrwt beam="2">  1       -2 0.69975269E-01 0.20191500E+04</pdfrwt>
<totfact> 0.10771904E+01</totfact>
</mgrwt>
<rwgt>
<wgt id='morphing_basis_vector_1'> +1.4210642e-04 </wgt>
<wgt id='morphing_basis_vector_2'> +9.5735103e-05 </wgt>
<wgt id='morphing_basis_vector_3'> +1.5196020e-04 </wgt>
<wgt id='morphing_basis_vector_4'> +1.0465361e-04 </wgt>
<wgt id='morphing_basis_vector_5'> +1.6819581e-04 </wgt>
</rwgt>
</event>
<event>
 4      1 +6.0853000e-08 1.99077800e+03 7.81860800e-03 8.07535300e-02
        2 -1    0    0  501    0 +0.0000000000e+00 +0.0000000000e+00 +1.0953967702e+03 1.0953967702e+03 0.0000000000e+00 0.0000e+00 -1.0000e+00
       -2 -1    0    0    0  501 -0.0000000000e+00 -0.0000000000e+00 -9.0451149164e+02 9.0451149164e+02 0.0000000000e+00 0.0000e+00 1.0000e+00
      -13  1    1    2    0    0 +5.8694345309e+01 -5.3486214195e+02 -7.4582063005e+02 9.1965806106e+02 0.0000000000e+00 0.0000e+00 1.0000e+00
       13  1    1    2    0    0 -5.8694345309e+01 +5.3486214195e+02 +9.3670590860e+02 1.0802502008e+03 0.0000000000e+00 0.0000e+00 -1.0000e+00
<mgrwt>
<rscale>  0 0.19907777E+04</rscale>
<asrwt>0</asrwt>
<pdfrwt beam="1">  1        2 0.16852258E+00 0.19907777E+04</pdfrwt>
<pdfrwt beam="2">  1       -2 0.13915561E+00 0.19907777E+04</pdfrwt>
<totfact> 0.90678350E+00</totfact>
</mgrwt>
<rwgt>
<wgt id='morphing_basis_vector_1'> +1.3401062e-04 </wgt>
<wgt id='morphing_basis_vector_2'> +8.9243279e-05 </wgt>
<wgt id='morphing_basis_vector_3'> +1.4298697e-04 </wgt>
<wgt id='morphing_basis_vector_4'> +9.9637083e-05 </wgt>
<wgt id='morphing_basis_vector_5'> +1.5882646e-04 </wgt>
</rwgt>
</event>
<event>
 4      1 +6.0853000e-08 1.90032600e+03 7.81860800e-03 8.11375100e-02
        2 -1    0    0  501    0 +0.0000000000e+00 +0.0000000000e+00 +2.1186408130e+03 2.1186408130e+03 0.0000000000e+00 0.0000e+00 -1.0000e+00
       -2 -1    0    0    0  501 -0.0000000000e+00 -0.0000000000e+00 -4.2612695177e+02 4.2612695177e+02 0.0000000000e+00 0.0000e+00 1.0000e+00
      -13  1    1    2    0    0 +8.9491603953e+02 +2.0771156086e+02 +5.2156168038e+02 1.0564304978e+03 0.0000000000e+00 0.0000e+00 1.0000e+00
       13  1    1    2    0    0 -8.9491603953e+02 -2.0771156086e+02 +1.1709521809e+03 1.4883372670e+03 0.0000000000e+00 0.0000e+00 -1.0000e+00
<mgrwt>
<rscale>  0 0.19003262E+04</rscale>
<asrwt>0</asrwt>
<pdfrwt beam="1">  1        2 0.32594473E+00 0.19003262E+04</pdfrwt>
<pdfrwt beam="2">  1       -2 0.65557994E-01 0.19003262E+04</pdfrwt>
<totfact> 0.14680497E+01</totfact>
</mgrwt>
<rwgt>
<wgt id='morphing_basis_vector_1'> +1.1320937e-04 </wgt>
<wgt id='morphing_basis_vector_2'> +7.8670633e-05 </wgt>
<wgt id='morphing_basis_vector_3'> +1.2091333e-04 </wgt>
<wgt id='morphing_basis_vector_4'> +7.9448439e-05 </wgt>
<wgt id='morphing_basis_vector_5'> +1.3111526e-04 </wgt>
</rwgt>
</event>
<event>
 4      1 +6.0853000e-08 1.94219100e+03 7.81860800e-03 8.09570900e-02
        2 -1    0    0  501    0 +0.0000000000e+00 +0.0000000000e+00 +3.2233945819e+03 3.2233945819e+03 0.0000000000e+00 0.0000e+00 -1.0000e+00
       -2 -1    0    0    0  501 -0.0000000000e+00 -0.0000000000e+00 -2.9255681099e+02 2.9255681099e+02 0.0000000000e+00 0.0000e+00 1.0000e+00
      -13  1    1    2    0    0 +3.1645794269e+02 +5.6633294036e+02 +1.5729887662e+02 6.6754892361e+02 0.0000000000e+00 0.0000e+00 1.0000e+00
       13  1    1    2    0    0 -3.1645794269e+02 -5.6633294036e+02 +2.7735388943e+03 2.8484024693e+03 0.0000000000e+00 0.0000e+00 -1.0000e+00
<mgrwt>
<rscale>  0 0.19421906E+04</rscale>
<asrwt>0</asrwt>
<pdfrwt beam="1">  1        2 0.49590683E+00 0.19421906E+04</pdfrwt>
<pdfrwt beam="2">  1       -2 0.45008742E-01 0.19421906E+04</pdfrwt>
<totfact> 0.64990561E+00</totfact>
</mgrwt>
<rwgt>
<wgt id='morphing_basis_vector_1'> +1.2171924e-04 </wgt>
<wgt id='morphing_basis_vector_2'> +8.1120690e-05 </wgt>
<wgt id='morphing_basis_vector_3'> +1.2965361e-04 </wgt>
<wgt id='morphing_basis_vector_4'> +8.9943412e-05 </wgt>
<wgt id='morphing_basis_vector_5'> +1.4357231e-04 </wgt>
</rwgt>
</event>
<event>
 4      1 +6.0853000e-08 2.17550500e+03 7.81860800e-03 8.00313600e-02
        2 -1    0    0  501    0 +0.0000000000e+00 +0.0000000000e+00 +5.0317391726e+02 5.0317391726e+02 0.0000000000e+00 0.0000e+00 -1.0000e+00
       -2 -1    0    0    0  501 -0.0000000000e+00 -0.0000000000e+00 -2.3514848053e+03 2.3514848053e+03 0.0000000000e+00 0.0000e+00 1.0000e+00
      -13  1    1    2    0    0 -1.0077097756e+03 -2.1721803583e+02 -4.6857473528e+02 1.1323537210e+03 0.0000000000e+00 0.0000e+00 1.0000e+00
       13  1    1    2    0    0 +1.0077097756e+03 +2.1721803583e+02 -1.3797361528e+03 1.7223050015e+03 0.0000000000e+00 0.0000e+00 -1.0000e+00
<mgrwt>
<rscale>  0 0.21755053E+04</rscale>
<asrwt>0</asrwt>
<pdfrwt beam="1">  1        2 0.77411372E-01 0.21755053E+04</pdfrwt>
<pdfrwt beam="2">  1       -2 0.36176689E+00 0.21755053E+04</pdfrwt>
<totfact> 0.63202505E-01</totfact>
</mgrwt>
<rwgt>
<wgt id='morphing_basis_vector_1'> +2.1029296e-04 </wgt>
<wgt id='morphing_basis_vector_2'> +1.8736286e-04 </wgt>
<wgt id='morphing_basis_vector_3'> +2.3418030e-04 </wgt>
<wgt id='morphing_basis_vector_4'> +1.0180431e-04 </wgt>
<wgt id='morphing_basis_vector_5'> +2.2471465e-04 </wgt>
</rwgt>
</event>
<event>
 4      1 +6.0853000e-08 1.96140700e+03 7.81860800e-03 8.08758500e-02
        2 -1    0    0  501    0 +0.0000000000e+00 +0.0000000000e+00 +1.9334271891e+03 1.9334271891e+03 0.0000000000e+00 0.0000e+00 -1.0000e+00
       -2 -1    0    0    0  501 -0.0000000000e+00 -0.0000000000e+00 -4.9744806175e+02 4.9744806175e+02 0.0000000000e+00 0.0000e+00 1.0000e+00
      -13  1    1    2    0    0 +7.4455828842e+01 +8.8405700018e+02 +2.0000664474e+02 9.0945209217e+02 0.0000000000e+00 0.0000e+00 1.0000e+00
       13  1    1    2    0    0 -7.4455828842e+01 -8.8405700018e+02 +1.2359724826e+03 1.5214231587e+03 0.0000000000e+00 0.0000e+00 -1.0000e+00
<mgrwt>
<rscale>  0 0.19614073E+04</rscale>
<asrwt>0</asrwt>
<pdfrwt beam="1">  1        2 0.29745033E+00 0.19614073E+04</pdfrwt>
<pdfrwt beam="2">  1       -2 0.76530472E-01 0.19614073E+04</pdfrwt>
<totfact> 0.13299957E+01</totfact>
</mgrwt>
<rwgt>
<wgt id='morphing_basis_vector_1'> +1.2720840e-04 </wgt>
<wgt id='morphing_basis_vector_2'> +8.6438738e-05 </wgt>
<wgt id='morphing_basis_vector_3'> +1.3587378e-04 </wgt>
<wgt id='morphing_basis_vector_4'> +9.2232674e-05 </wgt>
<wgt id='morphing_basis_vector_5'> +1.4935400e-04 </wgt>
</rwgt>
</event>
<event>
 4      1 +6.0853000e-08 2.02165900e+03 7.81860800e-03 8.06272700e-02
        2 -1    0    0  501    0 +0.0000000000e+00 +0.0000000000e+00 +2.6185061708e+03 2.6185061708e+03 0.0000000000e+00 0.0000e+00 -1.0000e+00
       -2 -1    0    0    0  501 -0.0000000000e+00 -0.0000000000e+00 -3.9021353056e+02 3.9021353056e+02 0.0000000000e+00 0.0000e+00 1.0000e+00
      -13  1    1    2    0    0 +7.5674191776e+02 +1.4710651334e+02 +1.4110654071e+02 7.8371532599e+02 0.0000000000e+00 0.0000e+00 1.0000e+00
       13  1    1    2    0    0 -7.5674191776e+02 -1.4710651334e+02 +2.0871860996e+03 2.2250043754e+03 0.0000000000e+00 0.0000e+00 -1.0000e+00
<mgrwt>
<rscale>  0 0.20216593E+04</rscale>
<asrwt>0</asrwt>
<pdfrwt beam="1">  1        2 0.40284709E+00 0.20216593E+04</pdfrwt>
<pdfrwt beam="2">  1       -2 0.60032853E-01 0.20216593E+04</pdfrwt>
<totfact> 0.88892123E+00</totfact>
</mgrwt>
<rwgt>
<wgt id='morphing_basis_vector_1'> +1.4256675e-04 </wgt>
<wgt id='morphing_basis_vector_2'> +9.5517018e-05 </wgt>
<wgt id='morphing_basis_vector_3'> +1.5237522e-04 </wgt>
<wgt id='morphing_basis_vector_4'> +1.0564991e-04 </wgt>
<wgt id='morphing_basis_vector_5'> +1.6908680e-04 </wgt>
</rwgt>
</event>
<event>
 4      1 +6.0853000e-08 1.99870900e+03 7.81860800e-03 8.07208800e-02
        2 -1    0    0  501    0 +0.0000000000e+00 +0.0000000000e+00 +3.5153334601e+03 3.5153334601e+03 0.0000000000e+00 0.0000e+00 -1.0000e+00
       -2 -1    0    0    0  501 -0.0000000000e+00 -0.0000000000e+00 -2.8410079120e+02 2.8410079120e+02 0.0000000000e+00 0.0000e+00 1.0000e+00
      -13  1    1    2    0    0 -5.5828069220e+02 -2.6893878030e+02 +1.2521806680e+02 6.3220642442e+02 0.0000000000e+00 0.0000e+00 1.0000e+00
       13  1    1    2    0    0 +5.5828069220e+02 +2.6893878030e+02 +3.1060146021e+03 3.1672278268e+03 0.0000000000e+00 0.0000e+00 -1.0000e+00
<mgrwt>
<rscale>  0 0.19987086E+04</rscale>
<asrwt>0</asrwt>
<pdfrwt beam="1">  1        2 0.54082050E+00 0.19987086E+04</pdfrwt>
<pdfrwt beam="2">  1       -2 0.43707817E-01 0.19987086E+04</pdfrwt>
<totfact> 0.42588999E+00</totfact>
</mgrwt>
<rwgt>
<wgt id='morphing_basis_vector_1'> +1.3615434e-04 </wgt>
<wgt id='morphing_basis_vector_2'> +9.0778166e-05 </wgt>
<wgt id='morphing_basis_vector_3'> +1.4533251e-04 </wgt>
<wgt id='morphing_basis_vector_4'> +1.0118754e-04 </wgt>
<wgt id='morphing_basis_vector_5'> +1.6141841e-04 </wgt>
</rwgt>
</event>
<event>
 4      1 +6.0853000e-08 2.03470900e+03 7.81860800e-03 8.05746200e-02
        2 -1    0    0  501    0 +0.0000000000e+00 +0.0000000000e+00 +1.6376344688e+03 1.6376344688e+03 0.0000000000e+00 0.0000e+00 -1.0000e+00
       -2 -1    0    0    0  501 -0.0000000000e+00 -0.0000000000e+00 -6.3201558488e+02 6.3201558488e+02 0.0000000000e+00 0.0000e+00 1.0000e+00
      -13  1    1    2    0    0 +2.1447827087e+02 -9.1903535773e+02 +7.8956265244e+01 9.4702745961e+02 0.0000000000e+00 0.0000e+00 1.0000e+00
       13  1    1    2    0    0 -2.1447827087e+02 +9.1903535773e+02 +9.2666261864e+02 1.3226225940e+03 0.0000000000e+00 0.0000e+00 -1.0000e+00
<mgrwt>
<rscale>  0 0.20347093E+04</rscale>
<asrwt>0</asrwt>
<pdfrwt beam="1">  1        2 0.25194376E+00 0.20347093E+04</pdfrwt>
<pdfrwt beam="2">  1       -2 0.97233168E-01 0.20347093E+04</pdfrwt>
<totfact> 0.11111993E+01</totfact>
</mgrwt>
<rwgt>
<wgt id='morphing_basis_vector_1'> +1.4714363e-04 </wgt>
<wgt id='morphing_basis_vector_2'> +1.0075038e-04 </wgt>
<wgt id='morphing_basis_vector_3'> +1.5770731e-04 </wgt>
<wgt id='morphing_basis_vector_4'> +1.0659389e-04 </wgt>
<wgt id='morphing_basis_vector_5'> +1.7343522e-04 </wgt>
</rwgt>
</event>
<event>
 4      1 +6.0853000e-08 1.89058100e+03 7.81860800e-03 8.11802100e-02
        2 -1    0    0  501    0 +0.0000000000e+00 +0.0000000000e+00 +4.4443515607e+02 4.4443515607e+02 0.0000000000e+00 0.0000e+00 1.0000e+00
       -2 -1    0    0    0  501 -0.0000000000e+00 -0.0000000000e+00 -2.0105839800e+03 2.0105839800e+03 0.0000000000e+00 0.0000e+00 -1.0000e+00
      -13  1    1    2    0    0 +6.2724312302e+02 +6.6373602054e+02 -1.1000775991e+03 1.4297377957e+03 0.0000000000e+00 0.0000e+00 -1.0000e+00
       13  1    1    2    0    0 -6.2724312302e+02 -6.6373602054e+02 -4.6607122481e+02 1.0252813404e+03 0.0000000000e+00 0.0000e+00 1.0000e+00
<mgrwt>
<rscale>  0 0.18905811E+04</rscale>
<asrwt>0</asrwt>
<pdfrwt beam="1">  1        2 0.68374639E-01 0.18905811E+04</pdfrwt>
<pdfrwt beam="2">  1       -2 0.30932061E+00 0.18905811E+04</pdfrwt>
<totfact> 0.16507905E+00</totfact>
</mgrwt>
<rwgt>
<wgt id='morphing_basis_vector_1'> +1.1093713e-04 </wgt>
<wgt id='morphing_basis_vector_2'> +7.7029646e-05 </wgt>
<wgt id='morphing_basis_vector_3'> +1.1842726e-04 </wgt>
<wgt id='morphing_basis_vector_4'> +7.7834046e-05 </wgt>
<wgt id='morphing_basis_vector_5'> +1.2839009e-04 </wgt>
</rwgt>
</event>
<event>
 4      1 +6.0853000e-08 1.94178300e+03 7.81860800e-03 8.09588200e-02
        2 -1    0    0  501    0 +0.0000000000e+00 +0.0000000000e+00 +1.6463025728e+03 1.6463025728e+03 0.0000000000e+00 0.0000e+00 1.0000e+00
       -2 -1    0    0    0  501 -0.0000000000e+00 -0.0000000000e+00 -5.7257425688e+02 5.7257425688e+02 0.0000000000e+00 0.0000e+00 -1.0000e+00
      -13  1    1    2    0    0 +3.9968882030e+01 +9.6601487625e+02 +4.3563210732e+02 1.0604515951e+03 0.0000000000e+00 0.0000e+00 -1.0000e+00
       13  1    1    2    0    0 -3.9968882030e+01 -9.6601487625e+02 +6.3809620864e+02 1.1584252346e+03 0.0000000000e+00 0.0000e+00 1.0000e+00
<mgrwt>
<rscale>  0 0.19417832E+04</rscale>
<asrwt>0</asrwt>
<pdfrwt beam="1">  1        2 0.25327732E+00 0.19417832E+04</pdfrwt>
<pdfrwt beam="2">  1       -2 0.88088348E-01 0.19417832E+04</pdfrwt>
<totfact> 0.13972103E+01</totfact>
</mgrwt>
<rwgt>
<wgt id='morphing_basis_vector_1'> +1.2468978e-04 </wgt>
<wgt id='morphing_basis_vector_2'> +9.0149281e-05 </wgt>
<wgt id='morphing_basis_vector_3'> +1.3397890e-04 </wgt>
<wgt id='morphing_basis_vector_4'> +8.3787555e-05 </wgt>
<wgt id='morphing_basis_vector_5'> +1.4297185e-04 </wgt>
</rwgt>
</event>
<event>
 4      1 +6.0853000e-08 1.98630700e+03 7.81860800e-03 8.07720100e-02
        2 -1    0    0  501    0 +0.0000000000e+00 +0.0000000000e+00 +1.5445566036e+03 1.5445566036e+03 0.0000000000e+00 0.0000e+00 -1.0000e+00
       -2 -1    0    0    0  501 -0.0000000000e+00 -0.0000000000e+00 -6.3859983290e+02 6.3859983290e+02 0.0000000000e+00 0.0000e+00 1.0000e+00
      -13  1    1    2    0    0 -2.1432327576e+02 +9.5686502654e+02 +2.7979218146e+02 1.0197101600e+03 0.0000000000e+00 0.0000e+00 1.0000e+00
       13  1    1    2    0    0 +2.1432327576e+02 -9.5686502654e+02 +6.2616458926e+02 1.1634462765e+03 0.0000000000e+00 0.0000e+00 -1.0000e+00
<mgrwt>
<rscale>  0 0.19863067E+04</rscale>
<asrwt>0</asrwt>
<pdfrwt beam="1">  1        2 0.23762409E+00 0.19863067E+04</pdfrwt>
<pdfrwt beam="2">  1       -2 0.98246129E-01 0.19863067E+04</pdfrwt>
<totfact> 0.12267419E+01</totfact>
</mgrwt>
<rwgt>
<wgt id='morphing_basis_vector_1'> +1.3548086e-04 </wgt>
<wgt id='morphing_basis_vector_2'> +9.6285349e-05 </wgt>
<wgt id='morphing_basis_vector_3'> +1.4555341e-04 </wgt>
<wgt id='morphing_basis_vector_4'> +9.3469390e-05 </wgt>
<wgt id='morphing_basis_vector_5'> +1.5696111e-04 </wgt>
</rwgt>
</event>
<event>
 4      1 +6.0853000e-08 2.07645900e+03 7.81860800e-03 8.04088900e-02
        2 -1    0    0  501    0 +0.0000000000e+00 +0.0000000000e+00 +9.4172806725e+02 9.4172806725e+02 0.0000000000e+00 0.0000e+00 -1.0000e+00
       -2 -1    0    0    0  501 -0.0000000000e+00 -0.0000000000e+00 -1.1446191885e+03 1.1446191885e+03 0.0000000000e+00 0.0000e+00 1.0000e+00
      -13  1    1    2    0    0 -1.9732125950e+02 -3.3126093338e+02 -1.0700127207e+03 1.1373639294e+03 0.0000000000e+00 0.0000e+00 1.0000e+00
       13  1    1    2    0    0 +1.9732125950e+02 +3.3126093338e+02 +8.6712159945e+02 9.4898332634e+02 0.0000000000e+00 0.0000e+00 -1.0000e+00
<mgrwt>
<rscale>  0 0.20764585E+04</rscale>
<asrwt>0</asrwt>
<pdfrwt beam="1">  1        2 0.14488124E+00 0.20764585E+04</pdfrwt>
<pdfrwt beam="2">  1       -2 0.17609526E+00 0.20764585E+04</pdfrwt>
<totfact> 0.56285310E+00</totfact>
</mgrwt>
<rwgt>
<wgt id='morphing_basis_vector_1'> +1.5805298e-04 </wgt>
<wgt id='morphing_basis_vector_2'> +1.0536639e-04 </wgt>
<wgt id='morphing_basis_vector_3'> +1.6913444e-04 </wgt>
<wgt id='morphing_basis_vector_4'> +1.1838281e-04 </wgt>
<wgt id='morphing_basis_vector_5'> +1.8861072e-04 </wgt>
</rwgt>
</event>
<event>
 4      1 +6.0853000e-08 2.15718600e+03 7.81860800e-03 8.00996000e-02
        2 -1    0    0  501    0 +0.0000000000e+00 +0.0000000000e+00 +1.7291009735e+03 1.7291009735e+03 0.0000000000e+00 0.0000e+00 1.0000e+00
       -2 -1    0    0    0  501 -0.0000000000e+00 -0.0000000000e+00 -6.7281400517e+02 6.7281400517e+02 0.0000000000e+00 0.0000e+00 -1.0000e+00
      -13  1    1    2    0    0 -1.7654349632e+02 +3.4844233598e+02 -5.9129196875e+02 7.0866484314e+02 0.0000000000e+00 0.0000e+00 -1.0000e+00
       13  1    1    2    0    0 +1.7654349632e+02 -3.4844233598e+02 +1.6475789371e+03 1.6932501356e+03 0.0000000000e+00 0.0000e+00 1.0000e+00
<mgrwt>
<rscale>  0 0.21571865E+04</rscale>
<asrwt>0</asrwt>
<pdfrwt beam="1">  1        2 0.26601553E+00 0.21571865E+04</pdfrwt>
<pdfrwt beam="2">  1       -2 0.10350985E+00 0.21571865E+04</pdfrwt>
<totfact> 0.84067739E+00</totfact>
</mgrwt>
<rwgt>
<wgt id='morphing_basis_vector_1'> +1.8359464e-04 </wgt>
<wgt id='morphing_basis_vector_2'> +1.2258818e-04 </wgt>
<wgt id='morphing_basis_vector_3'> +1.9696401e-04 </wgt>
<wgt id='morphing_basis_vector_4'> +1.3826292e-04 </wgt>
<wgt id='morphing_basis_vector_5'> +2.2030019e-04 </wgt>
</rwgt>
</event>
<event>
 4      1 +6.0853000e-08 1.95269100e+03 7.81860800e-03 8.09125700e-02
        2 -1    0    0  501    0 +0.0000000000e+00 +0.0000000000e+00 +3.3866801036e+03 3.3866801036e+03 0.0000000000e+00 0.0000e+00 1.0000e+00
       -2 -1    0    0    0  501 -0.0000000000e+00 -0.0000000000e+00 -2.8147053996e+02 2.8147053996e+02 0.0000000000e+00 0.0000e+00 -1.0000e+00
      -13  1    1    2    0    0 +6.8346602063e+02 +4.7588841971e+02 +2.5098253560e+03 2.6443938638e+03 0.0000000000e+00 0.0000e+00 -1.0000e+00
       13  1    1    2    0    0 -6.8346602063e+02 -4.7588841971e+02 +5.9538420764e+02 1.0237567798e+03 0.0000000000e+00 0.0000e+00 1.0000e+00
<mgrwt>
<rscale>  0 0.19526911E+04</rscale>
<asrwt>0</asrwt>
<pdfrwt beam="1">  1        2 0.52102768E+00 0.19526911E+04</pdfrwt>
<pdfrwt beam="2">  1       -2 0.43303162E-01 0.19526911E+04</pdfrwt>
<totfact> 0.53861131E+00</totfact>
</mgrwt>
<rwgt>
<wgt id='morphing_basis_vector_1'> +1.4839059e-04 </wgt>
<wgt id='morphing_basis_vector_2'> +1.5418505e-04 </wgt>
<wgt id='morphing_basis_vector_3'> +1.6729478e-04 </wgt>
<wgt id='morphing_basis_vector_4'> +4.4236032e-05 </wgt>
<wgt id='morphing_basis_vector_5'> +1.4301918e-04 </wgt>
</rwgt>
</event>
<event>
 4      1 +6.0853000e-08 1.96903200e+03 7.81860800e-03 8.08438800e-02
        2 -1    0    0  501    0 +0.0000000000e+00 +0.0000000000e+00 +6.3226251019e+02 6.3226251019e+02 0.0000000000e+00 0.0000e+00 1.0000e+00
       -2 -1    0    0    0  501 -0.0000000000e+00 -0.0000000000e+00 -1.5330210254e+03 1.5330210254e+03 0.0000000000e+00 0.0000e+00 -1.0000e+00
      -13  1    1    2    0    0 +2.2448739292e+02 +3.6269879288e+02 -1.4261313728e+03 1.4885549020e+03 0.0000000000e+00 0.0000e+00 -1.0000e+00
       13  1    1    2    0    0 -2.2448739292e+02 -3.6269879288e+02 +5.2537285760e+02 6.7672863353e+02 0.0000000000e+00 0.0000e+00 1.0000e+00
<mgrwt>
<rscale>  0 0.19690320E+04</rscale>
<asrwt>0</asrwt>
<pdfrwt beam="1">  1        2 0.97271157E-01 0.19690320E+04</pdfrwt>
<pdfrwt beam="2">  1       -2 0.23584938E+00 0.19690320E+04</pdfrwt>
<totfact> 0.34714097E+00</totfact>
</mgrwt>
<rwgt>
<wgt id='morphing_basis_vector_1'> +1.2834207e-04 </wgt>
<wgt id='morphing_basis_vector_2'> +8.5367188e-05 </wgt>
<wgt id='morphing_basis_vector_3'> +1.3681592e-04 </wgt>
<wgt id='morphing_basis_vector_4'> +9.5319997e-05 </wgt>
<wgt id='morphing_basis_vector_5'> +1.5186623e-04 </wgt>
</rwgt>
</event>
<event>
 4      1 +6.0853000e-08 1.96070700e+03 7.81860800e-03 8.08787900e-02
        2 -1    0    0  501    0 +0.0000000000e+00 +0.0000000000e+00 +7.7121934088e+02 7.7121934088e+02 0.0000000000e+00 0.0000e+00 -1.0000e+00
       -2 -1    0    0    0  501 -0.0000000000e+00 -0.0000000000e+00 -1.2461995120e+03 1.2461995120e+03 0.0000000000e+00 0.0000e+00 1.0000e+00
      -13  1    1    2    0    0 +3.3675740473e+02 +5.2943007678e+02 -1.0125311492e+03 1.1911847396e+03 0.0000000000e+00 0.0000e+00 1.0000e+00
       13  1    1    2    0    0 -3.3675740473e+02 -5.2943007678e+02 +5.3755097808e+02 8.2623411324e+02 0.0000000000e+00 0.0000e+00 -1.0000e+00
<mgrwt>
<rscale>  0 0.19607072E+04</rscale>
<asrwt>0</asrwt>
<pdfrwt beam="1">  1        2 0.11864913E+00 0.19607072E+04</pdfrwt>
<pdfrwt beam="2">  1       -2 0.19172300E+00 0.19607072E+04</pdfrwt>
<totfact> 0.56445087E+00</totfact>
</mgrwt>
<rwgt>
<wgt id='morphing_basis_vector_1'> +1.2630397e-04 </wgt>
<wgt id='morphing_basis_vector_2'> +8.4164068e-05 </wgt>
<wgt id='morphing_basis_vector_3'> +1.3462789e-04 </wgt>
<wgt id='morphing_basis_vector_4'> +9.3539576e-05 </wgt>
<wgt id='morphing_basis_vector_5'> +1.4924979e-04 </wgt>
</rwgt>
</event>
<event>
 4      1 +6.0853000e-08 1.92195100e+03 7.81860800e-03 8.10437200e-02
        2 -1    0    0  501    0 +0.0000000000e+00 +0.0000000000e+00 +1.0410187203e+03 1.0410187203e+03 0.0000000000e+00 0.0000e+00 1.0000e+00
       -2 -1    0    0    0  501 -0.0000000000e+00 -0.0000000000e+00 -8.8708673824e+02 8.8708673824e+02 0.0000000000e+00 0.0000e+00 -1.0000e+00
      -13  1    1    2    0    0 +6.2110906464e+02 -2.6098655942e+02 +7.6442192493e+02 1.0189363737e+03 0.0000000000e+00 0.0000e+00 1.0000e+00
       13  1    1    2    0    0 -6.2110906464e+02 +2.6098655942e+02 -6.1048994289e+02 9.0916908480e+02 0.0000000000e+00 0.0000e+00 -1.0000e+00
<mgrwt>
<rscale>  0 0.19219510E+04</rscale>
<asrwt>0</asrwt>
<pdfrwt beam="1">  1        2 0.16015673E+00 0.19219510E+04</pdfrwt>
<pdfrwt beam="2">  1       -2 0.13647488E+00 0.19219510E+04</pdfrwt>
<totfact> 0.10383236E+01</totfact>
</mgrwt>
<rwgt>
<wgt id='morphing_basis_vector_1'> +1.5110766e-04 </wgt>
<wgt id='morphing_basis_vector_2'> +1.7938745e-04 </wgt>
<wgt id='morphing_basis_vector_3'> +1.7369561e-04 </wgt>
<wgt id='morphing_basis_vector_4'> +1.8436816e-05 </wgt>
<wgt id='morphing_basis_vector_5'> +1.3224410e-04 </wgt>
</rwgt>
</event>
<event>
 4      1 +6.0853000e-08 1.96014600e+03 7.81860800e-03 8.08811500e-02
        2 -1    0    0  501    0 +0.0000000000e+00 +0.0000000000e+00 +1.3621443668e+03 1.3621443668e+03 0.0000000000e+00 0.0000e+00 -1.0000e+00
       -2 -1    0    0    0  501 -0.0000000000e+00 -0.0000000000e+00 -7.0517005462e+02 7.0517005462e+02 0.0000000000e+00 0.0000e+00 1.0000e+00
      -13  1    1    2    0    0 -5.9294024258e+02 +3.4197230362e+01 -4.9374962202e+02 7.7235760570e+02 0.0000000000e+00 0.0000e+00 1.0000e+00
       13  1    1    2    0    0 +5.9294024258e+02 -3.4197230362e+01 +1.1507239342e+03 1.2949568157e+03 0.0000000000e+00 0.0000e+00 -1.0000e+00
<mgrwt>
<rscale>  0 0.19601463E+04</rscale>
<asrwt>0</asrwt>
<pdfrwt beam="1">  1        2 0.20956067E+00 0.19601463E+04</pdfrwt>
<pdfrwt beam="2">  1       -2 0.10848770E+00 0.19601463E+04</pdfrwt>
<totfact> 0.12216869E+01</totfact>
</mgrwt>
<rwgt>
<wgt id='morphing_basis_vector_1'> +1.2614122e-04 </wgt>
<wgt id='morphing_basis_vector_2'> +8.4005512e-05 </wgt>
<wgt id='morphing_basis_vector_3'> +1.3444332e-04 </wgt>
<wgt id='morphing_basis_vector_4'> +9.3472712e-05 </wgt>
<wgt id='morphing_basis_vector_5'> +1.4907884e-04 </wgt>
</rwgt>
</event>
<event>
 4      1 +6.0853000e-08 1.99434600e+03 7.81860800e-03 8.07388200e-02
        2 -1    0    0  501    0 +0.0000000000e+00 +0.0000000000e+00 +1.7602493545e+03 1.7602493545e+03 0.0000000000e+00 0.0000e+00 -1.0000e+00
       -2 -1    0    0    0  501 -0.0000000000e+00 -0.0000000000e+00 -5.6489390994e+02 5.6489390994e+02 0.0000000000e+00 0.0000e+00 1.0000e+00
      -13  1    1    2    0    0 +3.5084156914e+02 -9.2186702163e+02 +4.2702432184e+02 1.0748387710e+03 0.0000000000e+00 0.0000e+00 1.0000e+00
       13  1    1    2    0    0 -3.5084156914e+02 +9.2186702163e+02 +7.6833112276e+02 1.2503044935e+03 0.0000000000e+00 0.0000e+00 -1.0000e+00
<mgrwt>
<rscale>  0 0.19943461E+04</rscale>
<asrwt>0</asrwt>
<pdfrwt beam="1">  1        2 0.27080759E+00 0.19943461E+04</pdfrwt>
<pdfrwt beam="2">  1       -2 0.86906756E-01 0.19943461E+04</pdfrwt>
<totfact> 0.12402795E+01</totfact>
</mgrwt>
<rwgt>
<wgt id='morphing_basis_vector_1'> +1.3777055e-04 </wgt>
<wgt id='morphing_basis_vector_2'> +9.8217822e-05 </wgt>
<wgt id='morphing_basis_vector_3'> +1.4810978e-04 </wgt>
<wgt id='morphing_basis_vector_4'> +9.4766792e-05 </wgt>
<wgt id='morphing_basis_vector_5'> +1.5954983e-04 </wgt>
</rwgt>
</event>
<event>
 4      1 +6.0853000e-08 1.90436500e+03 7.81860800e-03 8.11199000e-02
        2 -1    0    0  501    0 +0.0000000000e+00 +0.0000000000e+00 +2.2379083047e+03 2.2379083047e+03 0.0000000000e+00 0.0000e+00 -1.0000e+00
       -2 -1    0    0    0  501 -0.0000000000e+00 -0.0000000000e+00 -4.0513325716e+02 4.0513325716e+02 0.0000000000e+00 0.0000e+00 1.0000e+00
      -13  1    1    2    0    0 +6.7629546104e+02 +5.9635696527e+00 -1.3848380289e+01 6.7646351892e+02 0.0000000000e+00 0.0000e+00 1.0000e+00
       13  1    1    2    0    0 -6.7629546104e+02 -5.9635696527e+00 +1.8466234279e+03 1.9665780430e+03 0.0000000000e+00 0.0000e+00 -1.0000e+00
<mgrwt>
<rscale>  0 0.19043645E+04</rscale>
<asrwt>0</asrwt>
<pdfrwt beam="1">  1        2 0.34429358E+00 0.19043645E+04</pdfrwt>
<pdfrwt beam="2">  1       -2 0.62328195E-01 0.19043645E+04</pdfrwt>
<totfact> 0.13939464E+01</totfact>
</mgrwt>
<rwgt>
<wgt id='morphing_basis_vector_1'> +1.1274281e-04 </wgt>
<wgt id='morphing_basis_vector_2'> +7.5154767e-05 </wgt>
<wgt id='morphing_basis_vector_3'> +1.1991821e-04 </wgt>
<wgt id='morphing_basis_vector_4'> +8.2923109e-05 </wgt>
<wgt id='morphing_basis_vector_5'> +1.3247617e-04 </wgt>
</rwgt>
</event>
<event>
 4      1 +6.0853000e-08 1.88397700e+03 7.81860800e-03 8.12093000e-02
        2 -1    0    0  501    0 +0.0000000000e+00 +0.0000000000e+00 +1.6288257539e+03 1.6288257539e+03 0.0000000000e+00 0.0000e+00 1.0000e+00
       -2 -1    0    0    0  501 -0.0000000000e+00 -0.0000000000e+00 -5.4477412787e+02 5.4477412787e+02 0.0000000000e+00 0.0000e+00 -1.0000e+00
      -13  1    1    2    0    0 -7.1331531963e+02 +1.2616808148e+02 -1.5271201924e+02 7.4030945612e+02 0.0000000000e+00 0.0000e+00 -1.0000e+00
       13  1    1    2    0    0 +7.1331531963e+02 -1.2616808148e+02 +1.2367636452e+03 1.4332904256e+03 0.0000000000e+00 0.0000e+00 1.0000e+00
<mgrwt>
<rscale>  0 0.18839768E+04</rscale>
<asrwt>0</asrwt>
<pdfrwt beam="1">  1        2 0.25058857E+00 0.18839768E+04</pdfrwt>
<pdfrwt beam="2">  1       -2 0.83811405E-01 0.18839768E+04</pdfrwt>
<totfact> 0.16111415E+01</totfact>
</mgrwt>
<rwgt>
<wgt id='morphing_basis_vector_1'> +1.0817539e-04 </wgt>
<wgt id='morphing_basis_vector_2'> +7.2252052e-05 </wgt>
<wgt id='morphing_basis_vector_3'> +1.1498737e-04 </wgt>
<wgt id='morphing_basis_vector_4'> +7.9198614e-05 </wgt>
<wgt id='morphing_basis_vector_5'> +1.2675841e-04 </wgt>
</rwgt>
</event>
<event>
 4      1 +6.0853000e-08 1.95972500e+03 7.81860800e-03 8.08829200e-02
        2 -1    0    0  501    0 +0.0000000000e+00 +0.0000000000e+00 +2.6761932875e+03 2.6761932875e+03 0.0000000000e+00 0.0000e+00 1.0000e+00
       -2 -1    0    0    0  501 -0.0000000000e+00 -0.0000000000e+00 -3.5876721035e+02 3.5876721035e+02 0.0000000000e+00 0.0000e+00 -1.0000e+00
      -13  1    1    2    0    0 +9.5684268441e+02 -1.0330256508e+02 +8.7352677508e+02 1.2997185732e+03 0.0000000000e+00 0.0000e+00 -1.0000e+00
       13  1    1    2    0    0 -9.5684268441e+02 +1.0330256508e+02 +1.4438993021e+03 1.7352419247e+03 0.0000000000e+00 0.0000e+00 1.0000e+00
<mgrwt>
<rscale>  0 0.19597249E+04</rscale>
<asrwt>0</asrwt>
<pdfrwt beam="1">  1        2 0.41172203E+00 0.19597249E+04</pdfrwt>
<pdfrwt beam="2">  1       -2 0.55194957E-01 0.19597249E+04</pdfrwt>
<totfact> 0.97805247E+00</totfact>
</mgrwt>
<rwgt>
<wgt id='morphing_basis_vector_1'> +1.2824028e-04 </wgt>
<wgt id='morphing_basis_vector_2'> +9.0465644e-05 </wgt>
<wgt id='morphing_basis_vector_3'> +1.3752059e-04 </wgt>
<wgt id='morphing_basis_vector_4'> +8.9017868e-05 </wgt>
<wgt id='morphing_basis_vector_5'> +1.4860400e-04 </wgt>
</rwgt>
</event>
<event>
 4      1 +6.0853000e-08 1.92177300e+03 7.81860800e-03 8.10444800e-02
        2 -1    0    0  501    0 +0.0000000000e+00 +0.0000000000e+00 +2.3103974723e+03 2.3103974723e+03 0.0000000000e+00 0.0000e+00 -1.0000e+00
       -2 -1    0    0    0  501 -0.0000000000e+00 -0.0000000000e+00 -3.9962961291e+02 3.9962961291e+02 0.0000000000e+00 0.0000e+00 1.0000e+00
      -13  1    1    2    0    0 -7.9261596935e+02 +5.4096282991e+02 +8.8597850357e+02 1.3060776267e+03 0.0000000000e+00 0.0000e+00 1.0000e+00
       13  1    1    2    0    0 +7.9261596935e+02 -5.4096282991e+02 +1.0247893558e+03 1.4039494585e+03 0.0000000000e+00 0.0000e+00 -1.0000e+00
<mgrwt>
<rscale>  0 0.19217734E+04</rscale>
<asrwt>0</asrwt>
<pdfrwt beam="1">  1        2 0.35544576E+00 0.19217734E+04</pdfrwt>
<pdfrwt beam="2">  1       -2 0.61481480E-01 0.19217734E+04</pdfrwt>
<totfact> 0.13002152E+01</totfact>
</mgrwt>
<rwgt>
<wgt id='morphing_basis_vector_1'> +1.2022456e-04 </wgt>
<wgt id='morphing_basis_vector_2'> +8.7976593e-05 </wgt>
<wgt id='morphing_basis_vector_3'> +1.2924481e-04 </wgt>
<wgt id='morphing_basis_vector_4'> +7.9352686e-05 </wgt>
<wgt id='morphing_basis_vector_5'> +1.3697132e-04 </wgt>
</rwgt>
</event>
<event>
 4      1 +6.0853000e-08 2.06461500e+03 7.81860800e-03 8.04554900e-02
        2 -1    0    0  501    0 +0.0000000000e+00 +0.0000000000e+00 +1.3450019355e+03 1.3450019355e+03 0.0000000000e+00 0.0000e+00 -1.0000e+00
       -2 -1    0    0    0  501 -0.0000000000e+00 -0.0000000000e+00 -7.9231033296e+02 7.9231033296e+02 0.0000000000e+00 0.0000e+00 1.0000e+00
      -13  1    1    2    0    0 +5.7827251924e+02 +9.6040102882e-01 -6.0890117413e+02 8.3973845258e+02 0.0000000000e+00 0.0000e+00 1.0000e+00
       13  1    1    2    0    0 -5.7827251924e+02 -9.6040102882e-01 +1.1615927767e+03 1.2975738159e+03 0.0000000000e+00 0.0000e+00 -1.0000e+00
<mgrwt>
<rscale>  0 0.20646152E+04</rscale>
<asrwt>0</asrwt>
<pdfrwt beam="1">  1        2 0.20692337E+00 0.20646152E+04</pdfrwt>
<pdfrwt beam="2">  1       -2 0.12189390E+00 0.20646152E+04</pdfrwt>
<totfact> 0.91955269E+00</totfact>
</mgrwt>
<rwgt>
<wgt id='morphing_basis_vector_1'> +1.5459111e-04 </wgt>
<wgt id='morphing_basis_vector_2'> +1.0313950e-04 </wgt>
<wgt id='morphing_basis_vector_3'> +1.6538297e-04 </wgt>
<wgt id='morphing_basis_vector_4'> +1.1556366e-04 </wgt>
<wgt id='morphing_basis_vector_5'> +1.8425772e-04 </wgt>
</rwgt>
</event>
<event>
 4      1 +6.0853000e-08 2.06900500e+03 7.81860800e-03 8.04381800e-02
        2 -1    0    0  501    0 +0.0000000000e+00 +0.0000000000e+00 +9.5660054711e+02 9.5660054711e+02 0.0000000000e+00 0.0000e+00 1.0000e+00
       -2 -1    0    0    0  501 -0.0000000000e+00 -0.0000000000e+00 -1.1187487264e+03 1.1187487264e+03 0.0000000000e+00 0.0000e+00 -1.0000e+00
      -13  1    1    2    0    0 -2.8410189107e+02 -4.5784427365e+02 -9.6687891314e+02 1.1068830544e+03 0.0000000000e+00 0.0000e+00 -1.0000e+00
       13  1    1    2    0    0 +2.8410189107e+02 +4.5784427365e+02 +8.0473073390e+02 9.6846621908e+02 0.0000000000e+00 0.0000e+00 1.0000e+00
<mgrwt>
<rscale>  0 0.20690052E+04</rscale>
<asrwt>0</asrwt>
<pdfrwt beam="1">  1        2 0.14716931E+00 0.20690052E+04</pdfrwt>
<pdfrwt beam="2">  1       -2 0.17211519E+00 0.20690052E+04</pdfrwt>
<totfact> 0.59148832E+00</totfact>
</mgrwt>
<rwgt>
<wgt id='morphing_basis_vector_1'> +1.5586880e-04 </wgt>
<wgt id='morphing_basis_vector_2'> +1.0396435e-04 </wgt>
<wgt id='morphing_basis_vector_3'> +1.6676798e-04 </wgt>
<wgt id='morphing_basis_vector_4'> +1.1660034e-04 </wgt>
<wgt id='morphing_basis_vector_5'> +1.8586225e-04 </wgt>
</rwgt>
</event>
<event>
 4      1 +6.0853000e-08 2.17535300e+03 7.81860800e-03 8.00319300e-02
        2 -1    0    0  501    0 +0.0000000000e+00 +0.0000000000e+00 +2.3226648029e+03 2.3226648029e+03 0.0000000000e+00 0.0000e+00 1.0000e+00
       -2 -1    0    0    0  501 -0.0000000000e+00 -0.0000000000e+00 -5.0934611812e+02 5.0934611812e+02 0.0000000000e+00 0.0000e+00 -1.0000e+00
      -13  1    1    2    0    0 -7.1002439393e+02 +7.3244504972e+02 +1.3979808307e+03 1.7305955026e+03 0.0000000000e+00 0.0000e+00 1.0000e+00
       13  1    1    2    0    0 +7.1002439393e+02 -7.3244504972e+02 +4.1533785414e+02 1.1014154184e+03 0.0000000000e+00 0.0000e+00 -1.0000e+00
<mgrwt>
<rscale>  0 0.21753531E+04</rscale>
<asrwt>0</asrwt>
<pdfrwt beam="1">  1        2 0.35733304E+00 0.21753531E+04</pdfrwt>
<pdfrwt beam="2">  1       -2 0.78360943E-01 0.21753531E+04</pdfrwt>
<totfact> 0.74341256E+00</totfact>
</mgrwt>
<rwgt>
<wgt id='morphing_basis_vector_1'> +2.1209639e-04 </wgt>
<wgt id='morphing_basis_vector_2'> +1.9281391e-04 </wgt>
<wgt id='morphing_basis_vector_3'> +2.3688008e-04 </wgt>
<wgt id='morphing_basis_vector_4'> +9.8024772e-05 </wgt>
<wgt id='morphing_basis_vector_5'> +2.2435134e-04 </wgt>
</rwgt>
</event>
<event>
 4      1 +6.0853000e-08 1.89473300e+03 7.81860800e-03 8.11619900e-02
        2 -1    0    0  501    0 +0.0000000000e+00 +0.0000000000e+00 +2.2109864503e+03 2.2109864503e+03 0.0000000000e+00 0.0000e+00 -1.0000e+00
       -2 -1    0    0    0  501 -0.0000000000e+00 -0.0000000000e+00 -4.0592883633e+02 4.0592883633e+02 0.0000000000e+00 0.0000e+00 1.0000e+00
      -13  1    1    2    0    0 +7.6334360216e+01 -7.3124105082e+02 +7.7340388262e+01 7.3927122533e+02 0.0000000000e+00 0.0000e+00 1.0000e+00
       13  1    1    2    0    0 -7.6334360216e+01 +7.3124105082e+02 +1.7277172257e+03 1.8776440613e+03 0.0000000000e+00 0.0000e+00 -1.0000e+00
<mgrwt>
<rscale>  0 0.18947329E+04</rscale>
<asrwt>0</asrwt>
<pdfrwt beam="1">  1        2 0.34015176E+00 0.18947329E+04</pdfrwt>
<pdfrwt beam="2">  1       -2 0.62450591E-01 0.18947329E+04</pdfrwt>
<totfact> 0.14397566E+01</totfact>
</mgrwt>
<rwgt>
<wgt id='morphing_basis_vector_1'> +1.1062287e-04 </wgt>
<wgt id='morphing_basis_vector_2'> +7.3937585e-05 </wgt>
<wgt id='morphing_basis_vector_3'> +1.1764921e-04 </wgt>
<wgt id='morphing_basis_vector_4'> +8.1038053e-05 </wgt>
<wgt id='morphing_basis_vector_5'> +1.2974297e-04 </wgt>
</rwgt>
</event>
<event>
 4      1 +6.0853000e-08 2.13059100e+03 7.81860800e-03 8.01999200e-02
        2 -1    0    0  501    0 +0.0000000000e+00 +0.0000000000e+00 +2.5012005054e+03 2.5012005054e+03 0.0000000000e+00 0.0000e+00 -1.0000e+00
       -2 -1    0    0    0  501 -0.0000000000e+00 -0.0000000000e+00 -4.5372406312e+02 4.5372406312e+02 0.0000000000e+00 0.0000e+00 1.0000e+00
      -13  1    1    2    0    0 +8.6836396996e+02 +6.1699010425e+02 +1.0084141660e+03 1.4668441987e+03 0.0000000000e+00 0.0000e+00 1.0000e+00
       13  1    1    2    0    0 -8.6836396996e+02 -6.1699010425e+02 +1.0390622763e+03 1.4880803698e+03 0.0000000000e+00 0.0000e+00 -1.0000e+00
<mgrwt>
<rscale>  0 0.21305913E+04</rscale>
<asrwt>0</asrwt>
<pdfrwt beam="1">  1        2 0.38480007E+00 0.21305913E+04</pdfrwt>
<pdfrwt beam="2">  1       -2 0.69803704E-01 0.21305913E+04</pdfrwt>
<totfact> 0.75509632E+00</totfact>
</mgrwt>
<rwgt>
<wgt id='morphing_basis_vector_1'> +1.8101537e-04 </wgt>
<wgt id='morphing_basis_vector_2'> +1.3490183e-04 </wgt>
<wgt id='morphing_basis_vector_3'> +1.9654582e-04 </wgt>
<wgt id='morphing_basis_vector_4'> +1.1909112e-04 </wgt>
<wgt id='morphing_basis_vector_5'> +2.0846882e-04 </wgt>
</rwgt>
</event>
<event>
 4      1 +6.0853000e-08 1.86961500e+03 7.81860800e-03 8.12729800e-02
        2 -1    0    0  501    0 +0.0000000000e+00 +0.0000000000e+00 +4.5360147989e+02 4.5360147989e+02 0.0000000000e+00 0.0000e+00 -1.0000e+00
       -2 -1    0    0    0  501 -0.0000000000e+00 -0.0000000000e+00 -1.9265038003e+03 1.9265038003e+03 0.0000000000e+00 0.0000e+00 1.0000e+00
      -13  1    1    2    0    0 -8.3744652801e+02 -2.2894944821e+02 -1.1776867503e+03 1.4631064961e+03 0.0000000000e+00 0.0000e+00 1.0000e+00
       13  1    1    2    0    0 +8.3744652801e+02 +2.2894944821e+02 -2.9521557006e+02 9.1699878403e+02 0.0000000000e+00 0.0000e+00 -1.0000e+00
<mgrwt>
<rscale>  0 0.18696149E+04</rscale>
<asrwt>0</asrwt>
<pdfrwt beam="1">  1        2 0.69784844E-01 0.18696149E+04</pdfrwt>
<pdfrwt beam="2">  1       -2 0.29638520E+00 0.18696149E+04</pdfrwt>
<totfact> 0.19746138E+00</totfact>
</mgrwt>
<rwgt>
<wgt id='morphing_basis_vector_1'> +1.0565789e-04 </wgt>
<wgt id='morphing_basis_vector_2'> +7.2081657e-05 </wgt>
<wgt id='morphing_basis_vector_3'> +1.1248424e-04 </wgt>
<wgt id='morphing_basis_vector_4'> +7.5441558e-05 </wgt>
<wgt id='morphing_basis_vector_5'> +1.2274805e-04 </wgt>
</rwgt>
</event>
<event>
 4      1 +6.0853000e-08 1.87021500e+03 7.81860800e-03 8.12703100e-02
        2 -1    0    0  501    0 +0.0000000000e+00 +0.0000000000e+00 +1.4858790782e+03 1.4858790782e+03 0.0000000000e+00 0.0000e+00 -1.0000e+00
       -2 -1    0    0    0  501 -0.0000000000e+00 -0.0000000000e+00 -5.8849067916e+02 5.8849067916e+02 0.0000000000e+00 0.0000e+00 1.0000e+00
      -13  1    1    2    0    0 +1.7666201265e+02 -6.3097810746e+02 -2.9127769437e+02 7.1706731486e+02 0.0000000000e+00 0.0000e+00 1.0000e+00
       13  1    1    2    0    0 -1.7666201265e+02 +6.3097810746e+02 +1.1886660934e+03 1.3573024425e+03 0.0000000000e+00 0.0000e+00 -1.0000e+00
<mgrwt>
<rscale>  0 0.18702149E+04</rscale>
<asrwt>0</asrwt>
<pdfrwt beam="1">  1        2 0.22859678E+00 0.18702149E+04</pdfrwt>
<pdfrwt beam="2">  1       -2 0.90537028E-01 0.18702149E+04</pdfrwt>
<totfact> 0.16207065E+01</totfact>
</mgrwt>
<rwgt>
<wgt id='morphing_basis_vector_1'> +1.0503327e-04 </wgt>
<wgt id='morphing_basis_vector_2'> +6.9928428e-05 </wgt>
<wgt id='morphing_basis_vector_3'> +1.1154712e-04 </wgt>
<wgt id='morphing_basis_vector_4'> +7.7029556e-05 </wgt>
<wgt id='morphing_basis_vector_5'> +1.2302555e-04 </wgt>
</rwgt>
</event>
<event>
 4      1 +6.0853000e-08 2.03669300e+03 7.81860800e-03 8.05666600e-02
        2 -1    0    0  501    0 +0.0000000000e+00 +0.0000000000e+00 +6.8995448950e+02 6.8995448950e+02 0.0000000000e+00 0.0000e+00 1.0000e+00
       -2 -1    0    0    0  501 -0.0000000000e+00 -0.0000000000e+00 -1.5030401134e+03 1.5030401134e+03 0.0000000000e+00 0.0000e+00 -1.0000e+00
      -13  1    1    2    0    0 +6.1683968578e+02 -7.6147250632e+02 -1.0834584306e+02 9.8593630501e+02 0.0000000000e+00 0.0000e+00 -1.0000e+00
       13  1    1    2    0    0 -6.1683968578e+02 +7.6147250632e+02 -7.0473978085e+02 1.2070582979e+03 0.0000000000e+00 0.0000e+00 1.0000e+00
<mgrwt>
<rscale>  0 0.20366927E+04</rscale>
<asrwt>0</asrwt>
<pdfrwt beam="1">  1        2 0.10614684E+00 0.20366927E+04</pdfrwt>
<pdfrwt beam="2">  1       -2 0.23123694E+00 0.20366927E+04</pdfrwt>
<totfact> 0.33461580E+00</totfact>
</mgrwt>
<rwgt>
<wgt id='morphing_basis_vector_1'> +1.6009463e-04 </wgt>
<wgt id='morphing_basis_vector_2'> +1.3780553e-04 </wgt>
<wgt id='morphing_basis_vector_3'> +1.7644177e-04 </wgt>
<wgt id='morphing_basis_vector_4'> +8.2297801e-05 </wgt>
<wgt id='morphing_basis_vector_5'> +1.7216970e-04 </wgt>
</rwgt>
</event>
<event>
 4      1 +6.0853000e-08 1.86470900e+03 7.81860800e-03 8.12948800e-02
        2 -1    0    0  501    0 +0.0000000000e+00 +0.0000000000e+00 +2.9544823268e+03 2.9544823268e+03 0.0000000000e+00 0.0000e+00 -1.0000e+00
       -2 -1    0    0    0  501 -0.0000000000e+00 -0.0000000000e+00 -2.9422571484e+02 2.9422571484e+02 0.0000000000e+00 0.0000e+00 1.0000e+00
      -13  1    1    2    0    0 +1.0736412881e+02 +8.1911813057e+02 +2.0831226663e+03 2.2409555129e+03 0.0000000000e+00 0.0000e+00 -1.0000e+00
       13  1    1    2    0    0 -1.0736412881e+02 -8.1911813057e+02 +5.7713394573e+02 1.0077525288e+03 0.0000000000e+00 0.0000e+00 1.0000e+00
<mgrwt>
<rscale>  0 0.18647087E+04</rscale>
<asrwt>0</asrwt>
<pdfrwt beam="1">  1        2 0.45453572E+00 0.18647087E+04</pdfrwt>
<pdfrwt beam="2">  1       -2 0.45265497E-01 0.18647087E+04</pdfrwt>
<totfact> 0.97485837E+00</totfact>
</mgrwt>
<rwgt>
<wgt id='morphing_basis_vector_1'> +1.2094401e-04 </wgt>
<wgt id='morphing_basis_vector_2'> +1.1985669e-04 </wgt>
<wgt id='morphing_basis_vector_3'> +1.3466092e-04 </wgt>
<wgt id='morphing_basis_vector_4'> +4.2472586e-05 </wgt>
<wgt id='morphing_basis_vector_5'> +1.1892618e-04 </wgt>
</rwgt>
</event>
<event>
 4      1 +6.0853000e-08 1.95941100e+03 7.81860800e-03 8.08842400e-02
        2 -1    0    0  501    0 +0.0000000000e+00 +0.0000000000e+00 +1.7910554520e+03 1.7910554520e+03 0.0000000000e+00 0.0000e+00 -1.0000e+00
       -2 -1    0    0    0  501 -0.0000000000e+00 -0.0000000000e+00 -5.3589780879e+02 5.3589780879e+02 0.0000000000e+00 0.0000e+00 1.0000e+00
      -13  1    1    2    0    0 -2.6288771996e+02 -2.7548484581e+02 -4.4441731812e+02 5.8524234828e+02 0.0000000000e+00 0.0000e+00 1.0000e+00
       13  1    1    2    0    0 +2.6288771996e+02 +2.7548484581e+02 +1.6995749613e+03 1.7417109125e+03 0.0000000000e+00 0.0000e+00 -1.0000e+00
<mgrwt>
<rscale>  0 0.19594108E+04</rscale>
<asrwt>0</asrwt>
<pdfrwt beam="1">  1        2 0.27554699E+00 0.19594108E+04</pdfrwt>
<pdfrwt beam="2">  1       -2 0.82445818E-01 0.19594108E+04</pdfrwt>
<totfact> 0.13501287E+01</totfact>
</mgrwt>
<rwgt>
<wgt id='morphing_basis_vector_1'> +1.2589835e-04 </wgt>
<wgt id='morphing_basis_vector_2'> +8.3709932e-05 </wgt>
<wgt id='morphing_basis_vector_3'> +1.3415858e-04 </wgt>
<wgt id='morphing_basis_vector_4'> +9.3443916e-05 </wgt>
<wgt id='morphing_basis_vector_5'> +1.4885950e-04 </wgt>
</rwgt>
</event>
<event>
 4      1 +6.0853000e-08 2.03945100e+03 7.81860800e-03 8.05555900e-02
        2 -1    0    0  501    0 +0.0000000000e+00 +0.0000000000e+00 +6.1941338642e+02 6.1941338642e+02 0.0000000000e+00 0.0000e+00 -1.0000e+00
       -2 -1    0    0    0  501 -0.0000000000e+00 -0.0000000000e+00 -1.6787499186e+03 1.6787499186e+03 0.0000000000e+00 0.0000e+00 1.0000e+00
      -13  1    1    2    0    0 -3.4553980831e+02 -2.1063653103e+02 -1.5843906310e+03 1.6352550807e+03 0.0000000000e+00 0.0000e+00 1.0000e+00
       13  1    1    2    0    0 +3.4553980831e+02 +2.1063653103e+02 +5.2505409876e+02 6.6290822438e+02 0.0000000000e+00 0.0000e+00 -1.0000e+00
<mgrwt>
<rscale>  0 0.20394511E+04</rscale>
<asrwt>0</asrwt>
<pdfrwt beam="1">  1        2 0.95294369E-01 0.20394511E+04</pdfrwt>
<pdfrwt beam="2">  1       -2 0.25826921E+00 0.20394511E+04</pdfrwt>
<totfact> 0.24718701E+00</totfact>
</mgrwt>
<rwgt>
<wgt id='morphing_basis_vector_1'> +1.4728806e-04 </wgt>
<wgt id='morphing_basis_vector_2'> +9.8117890e-05 </wgt>
<wgt id='morphing_basis_vector_3'> +1.5741764e-04 </wgt>
<wgt id='morphing_basis_vector_4'> +1.1001507e-04 </wgt>
<wgt id='morphing_basis_vector_5'> +1.7527953e-04 </wgt>
</rwgt>
</event>
<event>
 4      1 +6.0853000e-08 1.89042400e+03 7.81860800e-03 8.11809000e-02
        2 -1    0    0  501    0 +0.0000000000e+00 +0.0000000000e+00 +9.5975625824e+02 9.5975625824e+02 0.0000000000e+00 0.0000e+00 -1.0000e+00
       -2 -1    0    0    0  501 -0.0000000000e+00 -0.0000000000e+00 -9.3088803568e+02 9.3088803568e+02 0.0000000000e+00 0.0000e+00 1.0000e+00
      -13  1    1    2    0    0 +4.9559168331e+02 -3.6015930201e+02 +7.3430951545e+02 9.5631391492e+02 0.0000000000e+00 0.0000e+00 -1.0000e+00
       13  1    1    2    0    0 -4.9559168331e+02 +3.6015930201e+02 -7.0544129290e+02 9.3433037900e+02 0.0000000000e+00 0.0000e+00 1.0000e+00
<mgrwt>
<rscale>  0 0.18904239E+04</rscale>
<asrwt>0</asrwt>
<pdfrwt beam="1">  1        2 0.14765481E+00 0.18904239E+04</pdfrwt>
<pdfrwt beam="2">  1       -2 0.14321354E+00 0.18904239E+04</pdfrwt>
<totfact> 0.10238017E+01</totfact>
</mgrwt>
<rwgt>
<wgt id='morphing_basis_vector_1'> +1.4408489e-04 </wgt>
<wgt id='morphing_basis_vector_2'> +1.7536136e-04 </wgt>
<wgt id='morphing_basis_vector_3'> +1.6593403e-04 </wgt>
<wgt id='morphing_basis_vector_4'> +1.2425126e-05 </wgt>
<wgt id='morphing_basis_vector_5'> +1.2323388e-04 </wgt>
</rwgt>
</event>
<event>
 4      1 +6.0853000e-08 1.98338500e+03 7.81860800e-03 8.07841100e-02
        2 -1    0    0  501    0 +0.0000000000e+00 +0.0000000000e+00 +1.6054598995e+03 1.6054598995e+03 0.0000000000e+00 0.0000e+00 1.0000e+00
       -2 -1    0    0    0  501 -0.0000000000e+00 -0.0000000000e+00 -6.1256824822e+02 6.1256824822e+02 0.0000000000e+00 0.0000e+00 -1.0000e+00
      -13  1    1    2    0    0 +8.6636045227e+02 +3.6344748396e+02 +1.4143168706e+02 9.5009337908e+02 0.0000000000e+00 0.0000e+00 -1.0000e+00
       13  1    1    2    0    0 -8.6636045227e+02 -3.6344748396e+02 +8.5145996420e+02 1.2679347686e+03 0.0000000000e+00 0.0000e+00 1.0000e+00
<mgrwt>
<rscale>  0 0.19833847E+04</rscale>
<asrwt>0</asrwt>
<pdfrwt beam="1">  1        2 0.24699383E+00 0.19833847E+04</pdfrwt>
<pdfrwt beam="2">  1       -2 0.94241270E-01 0.19833847E+04</pdfrwt>
<totfact> 0.12525299E+01</totfact>
</mgrwt>
<rwgt>
<wgt id='morphing_basis_vector_1'> +1.3341218e-04 </wgt>
<wgt id='morphing_basis_vector_2'> +9.1907163e-05 </wgt>
<wgt id='morphing_basis_vector_3'> +1.4282619e-04 </wgt>
<wgt id='morphing_basis_vector_4'> +9.5471998e-05 </wgt>
<wgt id='morphing_basis_vector_5'> +1.5622276e-04 </wgt>
</rwgt>
</event>
<event>
 4      1 +6.0853000e-08 1.86106800e+03 7.81860800e-03 8.13111700e-02
        2 -1    0    0  501    0 +0.0000000000e+00 +0.0000000000e+00 +1.0267157992e+03 1.0267157992e+03 0.0000000000e+00 0.0000e+00 1.0000e+00
       -2 -1    0    0    0  501 -0.0000000000e+00 -0.0000000000e+00 -8.4336216487e+02 8.4336216487e+02 0.0000000000e+00 0.0000e+00 -1.0000e+00
      -13  1    1    2    0    0 +2.1480776955e+02 -5.3199618757e+02 -6.4448934682e+02 8.6286084603e+02 0.0000000000e+00 0.0000e+00 -1.0000e+00
       13  1    1    2    0    0 -2.1480776955e+02 +5.3199618757e+02 +8.2784298116e+02 1.0072171181e+03 0.0000000000e+00 0.0000e+00 1.0000e+00
<mgrwt>
<rscale>  0 0.18610677E+04</rscale>
<asrwt>0</asrwt>
<pdfrwt beam="1">  1        2 0.15795628E+00 0.18610677E+04</pdfrwt>
<pdfrwt beam="2">  1       -2 0.12974803E+00 0.18610677E+04</pdfrwt>
<totfact> 0.12217423E+01</totfact>
</mgrwt>
<rwgt>
<wgt id='morphing_basis_vector_1'> +1.0298284e-04 </wgt>
<wgt id='morphing_basis_vector_2'> +6.8413711e-05 </wgt>
<wgt id='morphing_basis_vector_3'> +1.0930322e-04 </wgt>
<wgt id='morphing_basis_vector_4'> +7.5613015e-05 </wgt>
<wgt id='morphing_basis_vector_5'> +1.2059011e-04 </wgt>
</rwgt>
</event>
<event>
 4      1 +6.0853000e-08 1.88672800e+03 7.81860800e-03 8.11971600e-02
        2 -1    0    0  501    0 +0.0000000000e+00 +0.0000000000e+00 +2.7675894532e+03 2.7675894532e+03 0.0000000000e+00 0.0000e+00 -1.0000e+00
       -2 -1    0    0    0  501 -0.0000000000e+00 -0.0000000000e+00 -3.2155629035e+02 3.2155629035e+02 0.0000000000e+00 0.0000e+00 1.0000e+00
      -13  1    1    2    0    0 -3.9281144237e+02 -5.3937004677e+02 +1.3114914203e+02 6.8001542194e+02 0.0000000000e+00 0.0000e+00 1.0000e+00
       13  1    1    2    0    0 +3.9281144237e+02 +5.3937004677e+02 +2.3148840208e+03 2.4091303216e+03 0.0000000000e+00 0.0000e+00 -1.0000e+00
<mgrwt>
<rscale>  0 0.18867282E+04</rscale>
<asrwt>0</asrwt>
<pdfrwt beam="1">  1        2 0.42578298E+00 0.18867282E+04</pdfrwt>
<pdfrwt beam="2">  1       -2 0.49470201E-01 0.18867282E+04</pdfrwt>
<totfact> 0.10747955E+01</totfact>
</mgrwt>
<rwgt>
<wgt id='morphing_basis_vector_1'> +1.0871162e-04 </wgt>
<wgt id='morphing_basis_vector_2'> +7.2425823e-05 </wgt>
<wgt id='morphing_basis_vector_3'> +1.1554091e-04 </wgt>
<wgt id='morphing_basis_vector_4'> +7.9835333e-05 </wgt>
<wgt id='morphing_basis_vector_5'> +1.2753017e-04 </wgt>
</rwgt>
</event>
<event>
 4      1 +6.0853000e-08 1.95969800e+03 7.81860800e-03 8.08830300e-02
        2 -1    0    0  501    0 +0.0000000000e+00 +0.0000000000e+00 +8.5953085030e+02 8.5953085030e+02 0.0000000000e+00 0.0000e+00 1.0000e+00
       -2 -1    0    0    0  501 -0.0000000000e+00 -0.0000000000e+00 -1.1170095587e+03 1.1170095587e+03 0.0000000000e+00 0.0000e+00 -1.0000e+00
      -13  1    1    2    0    0 +1.0798950413e+02 +9.5410407853e+02 +6.8202345381e+01 9.6261512848e+02 0.0000000000e+00 0.0000e+00 1.0000e+00
       13  1    1    2    0    0 -1.0798950413e+02 -9.5410407853e+02 -3.2568105376e+02 1.0139252805e+03 0.0000000000e+00 0.0000e+00 -1.0000e+00
<mgrwt>
<rscale>  0 0.19596981E+04</rscale>
<asrwt>0</asrwt>
<pdfrwt beam="1">  1        2 0.13223552E+00 0.19596981E+04</pdfrwt>
<pdfrwt beam="2">  1       -2 0.17184762E+00 0.19596981E+04</pdfrwt>
<totfact> 0.69388563E+00</totfact>
</mgrwt>
<rwgt>
<wgt id='morphing_basis_vector_1'> +1.3516132e-04 </wgt>
<wgt id='morphing_basis_vector_2'> +1.1098059e-04 </wgt>
<wgt id='morphing_basis_vector_3'> +1.4754301e-04 </wgt>
<wgt id='morphing_basis_vector_4'> +7.5275341e-05 </wgt>
<wgt id='morphing_basis_vector_5'> +1.4751511e-04 </wgt>
</rwgt>
</event>
<event>
 4      1 +6.0853000e-08 1.99690200e+03 7.81860800e-03 8.07283100e-02
        2 -1    0    0  501    0 +0.0000000000e+00 +0.0000000000e+00 +1.3223988354e+03 1.3223988354e+03 0.0000000000e+00 0.0000e+00 -1.0000e+00
       -2 -1    0    0    0  501 -0.0000000000e+00 -0.0000000000e+00 -7.5386060492e+02 7.5386060492e+02 0.0000000000e+00 0.0000e+00 1.0000e+00
      -13  1    1    2    0    0 +2.8458984694e+02 +2.0804271705e+02 -6.8700149504e+02 7.7216850964e+02 0.0000000000e+00 0.0000e+00 1.0000e+00
       13  1    1    2    0    0 -2.8458984694e+02 -2.0804271705e+02 +1.2555397255e+03 1.3040909307e+03 0.0000000000e+00 0.0000e+00 -1.0000e+00
<mgrwt>
<rscale>  0 0.19969020E+04</rscale>
<asrwt>0</asrwt>
<pdfrwt beam="1">  1        2 0.20344598E+00 0.19969020E+04</pdfrwt>
<pdfrwt beam="2">  1       -2 0.11597855E+00 0.19969020E+04</pdfrwt>
<totfact> 0.10837754E+01</totfact>
</mgrwt>
<rwgt>
<wgt id='morphing_basis_vector_1'> +1.3559868e-04 </wgt>
<wgt id='morphing_basis_vector_2'> +9.0234124e-05 </wgt>
<wgt id='morphing_basis_vector_3'> +1.4470098e-04 </wgt>
<wgt id='morphing_basis_vector_4'> +1.0096224e-04 </wgt>
<wgt id='morphing_basis_vector_5'> +1.6083544e-04 </wgt>
</rwgt>
</event>
<event>
 4      1 +6.0853000e-08 2.08683900e+03 7.81860800e-03 8.03683100e-02
        2 -1    0    0  501    0 +0.0000000000e+00 +0.0000000000e+00 +1.1965607337e+03 1.1965607337e+03 0.0000000000e+00 0.0000e+00 1.0000e+00
       -2 -1    0    0    0  501 -0.0000000000e+00 -0.0000000000e+00 -9.0987807630e+02 9.0987807630e+02 0.0000000000e+00 0.0000e+00 -1.0000e+00
      -13  1    1    2    0    0 +9.7933268070e+02 +3.0560437730e+02 -4.8808964564e+01 1.0270680844e+03 0.0000000000e+00 0.0000e+00 -1.0000e+00
       13  1    1    2    0    0 -9.7933268070e+02 -3.0560437730e+02 +3.3549162193e+02 1.0793707256e+03 0.0000000000e+00 0.0000e+00 1.0000e+00
<mgrwt>
<rscale>  0 0.20868391E+04</rscale>
<asrwt>0</asrwt>
<pdfrwt beam="1">  1        2 0.18408627E+00 0.20868391E+04</pdfrwt>
<pdfrwt beam="2">  1       -2 0.13998124E+00 0.20868391E+04</pdfrwt>
<totfact> 0.77063590E+00</totfact>
</mgrwt>
<rwgt>
<wgt id='morphing_basis_vector_1'> +1.6414088e-04 </wgt>
<wgt id='morphing_basis_vector_2'> +1.1624054e-04 </wgt>
<wgt id='morphing_basis_vector_3'> +1.7689785e-04 </wgt>
<wgt id='morphing_basis_vector_4'> +1.1487492e-04 </wgt>
<wgt id='morphing_basis_vector_5'> +1.9201070e-04 </wgt>
</rwgt>
</event>
<event>
 4      1 +6.0853000e-08 2.04002600e+03 7.81860800e-03 8.05532900e-02
        2 -1    0    0  501    0 +0.0000000000e+00 +0.0000000000e+00 +1.7541877436e+03 1.7541877436e+03 0.0000000000e+00 0.0000e+00 -1.0000e+00
       -2 -1    0    0    0  501 -0.0000000000e+00 -0.0000000000e+00 -5.9311004356e+02 5.9311004356e+02 0.0000000000e+00 0.0000e+00 1.0000e+00
      -13  1    1    2    0    0 +1.8660679053e+02 +8.8462158507e+02 +3.7122643321e+01 9.0485111134e+02 0.0000000000e+00 0.0000e+00 1.0000e+00
       13  1    1    2    0    0 -1.8660679053e+02 -8.8462158507e+02 +1.1239550567e+03 1.4424466758e+03 0.0000000000e+00 0.0000e+00 -1.0000e+00
<mgrwt>
<rscale>  0 0.20400259E+04</rscale>
<asrwt>0</asrwt>
<pdfrwt beam="1">  1        2 0.26987504E+00 0.20400259E+04</pdfrwt>
<pdfrwt beam="2">  1       -2 0.91247699E-01 0.20400259E+04</pdfrwt>
<totfact> 0.11112626E+01</totfact>
</mgrwt>
<rwgt>
<wgt id='morphing_basis_vector_1'> +1.4823449e-04 </wgt>
<wgt id='morphing_basis_vector_2'> +1.0054674e-04 </wgt>
<wgt id='morphing_basis_vector_3'> +1.5874145e-04 </wgt>
<wgt id='morphing_basis_vector_4'> +1.0857746e-04 </wgt>
<wgt id='morphing_basis_vector_5'> +1.7535726e-04 </wgt>
</rwgt>
</event>
<event>
 4      1 +6.0853000e-08 1.90006600e+03 7.81860800e-03 8.11386500e-02
        2 -1    0    0  501    0 +0.0000000000e+00 +0.0000000000e+00 +1.2322702357e+03 1.2322702357e+03 0.0000000000e+00 0.0000e+00 1.0000e+00
       -2 -1    0    0    0  501 -0.0000000000e+00 -0.0000000000e+00 -7.3243919230e+02 7.3243919230e+02 0.0000000000e+00 0.0000e+00 -1.0000e+00
      -13  1    1    2    0    0 -4.3361507001e+02 +6.8452229663e+02 +7.6274245383e+02 1.1128202256e+03 0.0000000000e+00 0.0000e+00 -1.0000e+00
       13  1    1    2    0    0 +4.3361507001e+02 -6.8452229663e+02 -2.6291141042e+02 8.5188920245e+02 0.0000000000e+00 0.0000e+00 1.0000e+00
<mgrwt>
<rscale>  0 0.19000663E+04</rscale>
<asrwt>0</asrwt>
<pdfrwt beam="1">  1        2 0.18958004E+00 0.19000663E+04</pdfrwt>
<pdfrwt beam="2">  1       -2 0.11268295E+00 0.19000663E+04</pdfrwt>
<totfact> 0.13252254E+01</totfact>
</mgrwt>
<rwgt>
<wgt id='morphing_basis_vector_1'> +1.3334593e-04 </wgt>
<wgt id='morphing_basis_vector_2'> +1.3848623e-04 </wgt>
<wgt id='morphing_basis_vector_3'> +1.4982977e-04 </wgt>
<wgt id='morphing_basis_vector_4'> +3.9572394e-05 </wgt>
<wgt id='morphing_basis_vector_5'> +1.2792462e-04 </wgt>
</rwgt>
</event>
<event>
 4      1 +6.0853000e-08 1.88576700e+03 7.81860800e-03 8.12014000e-02
        2 -1    0    0  501    0 +0.0000000000e+00 +0.0000000000e+00 +1.0827645103e+03 1.0827645103e+03 0.0000000000e+00 0.0000e+00 -1.0000e+00
       -2 -1    0    0    0  501 -0.0000000000e+00 -0.0000000000e+00 -8.2107369662e+02 8.2107369662e+02 0.0000000000e+00 0.0000e+00 1.0000e+00
      -13  1    1    2    0    0 +1.6308071921e+02 -8.8226648519e+02 +4.2351995403e+02 9.9214848855e+02 0.0000000000e+00 0.0000e+00 1.0000e+00
       13  1    1    2    0    0 -1.6308071921e+02 +8.8226648519e+02 -1.6182914037e+02 9.1168971835e+02 0.0000000000e+00 0.0000e+00 -1.0000e+00
<mgrwt>
<rscale>  0 0.18857672E+04</rscale>
<asrwt>0</asrwt>
<pdfrwt beam="1">  1        2 0.16657915E+00 0.18857672E+04</pdfrwt>
<pdfrwt beam="2">  1       -2 0.12631903E+00 0.18857672E+04</pdfrwt>
<totfact> 0.12097162E+01</totfact>
</mgrwt>
<rwgt>
<wgt id='morphing_basis_vector_1'> +1.1962472e-04 </wgt>
<wgt id='morphing_basis_vector_2'> +1.0526911e-04 </wgt>
<wgt id='morphing_basis_vector_3'> +1.3124065e-04 </wgt>
<wgt id='morphing_basis_vector_4'> +5.7750805e-05 </wgt>
<wgt id='morphing_basis_vector_5'> +1.2555147e-04 </wgt>
</rwgt>
</event>
<event>
 4      1 +6.0853000e-08 2.16926300e+03 7.81860800e-03 8.00545400e-02
        2 -1    0    0  501    0 +0.0000000000e+00 +0.0000000000e+00 +9.3372764234e+02 9.3372764234e+02 0.0000000000e+00 0.0000e+00 1.0000e+00
       -2 -1    0    0    0  501 -0.0000000000e+00 -0.0000000000e+00 -1.2599236406e+03 1.2599236406e+03 0.0000000000e+00 0.0000e+00 -1.0000e+00
      -13  1    1    2    0    0 +6.6190292877e+02 -7.9425497184e+02 -4.9460839041e+02 1.1461212446e+03 0.0000000000e+00 0.0000e+00 -1.0000e+00
       13  1    1    2    0    0 -6.6190292877e+02 +7.9425497184e+02 +1.6841239216e+02 1.0475300384e+03 0.0000000000e+00 0.0000e+00 1.0000e+00
<mgrwt>
<rscale>  0 0.21692630E+04</rscale>
<asrwt>0</asrwt>
<pdfrwt beam="1">  1        2 0.14365041E+00 0.21692630E+04</pdfrwt>
<pdfrwt beam="2">  1       -2 0.19383441E+00 0.21692630E+04</pdfrwt>
<totfact> 0.41556509E+00</totfact>
</mgrwt>
<rwgt>
<wgt id='morphing_basis_vector_1'> +1.8978058e-04 </wgt>
<wgt id='morphing_basis_vector_2'> +1.3158249e-04 </wgt>
<wgt id='morphing_basis_vector_3'> +2.0454247e-04 </wgt>
<wgt id='morphing_basis_vector_4'> +1.3718233e-04 </wgt>
<wgt id='morphing_basis_vector_5'> +2.2502186e-04 </wgt>
</rwgt>
</event>
<event>
 4      1 +6.0853000e-08 1.89553700e+03 7.81860800e-03 8.11584600e-02
        2 -1    0    0  501    0 +0.0000000000e+00 +0.0000000000e+00 +1.6271820279e+03 1.6271820279e+03 0.0000000000e+00 0.0000e+00 -1.0000e+00
       -2 -1    0    0    0  501 -0.0000000000e+00 -0.0000000000e+00 -5.5203738758e+02 5.5203738758e+02 0.0000000000e+00 0.0000e+00 1.0000e+00
      -13  1    1    2    0    0 +4.7389080412e+02 +2.5830806820e+02 -3.5810623653e+02 6.4771570072e+02 0.0000000000e+00 0.0000e+00 1.0000e+00
       13  1    1    2    0    0 -4.7389080412e+02 -2.5830806820e+02 +1.4332508768e+03 1.5315037147e+03 0.0000000000e+00 0.0000e+00 -1.0000e+00
<mgrwt>
<rscale>  0 0.18955372E+04</rscale>
<asrwt>0</asrwt>
<pdfrwt beam="1">  1        2 0.25033569E+00 0.18955372E+04</pdfrwt>
<pdfrwt beam="2">  1       -2 0.84928830E-01 0.18955372E+04</pdfrwt>
<totfact> 0.15645323E+01</totfact>
</mgrwt>
<rwgt>
<wgt id='morphing_basis_vector_1'> +1.1062065e-04 </wgt>
<wgt id='morphing_basis_vector_2'> +7.3510835e-05 </wgt>
<wgt id='morphing_basis_vector_3'> +1.1758208e-04 </wgt>
<wgt id='morphing_basis_vector_4'> +8.1545323e-05 </wgt>
<wgt id='morphing_basis_vector_5'> +1.2999706e-04 </wgt>
</rwgt>
</event>
<event>
 4      1 +6.0853000e-08 1.99461700e+03 7.81860800e-03 8.07377100e-02
        2 -1    0    0  501    0 +0.0000000000e+00 +0.0000000000e+00 +1.4918789378e+03 1.4918789378e+03 0.0000000000e+00 0.0000e+00 -1.0000e+00
       -2 -1    0    0    0  501 -0.0000000000e+00 -0.0000000000e+00 -6.6669242064e+02 6.6669242064e+02 0.0000000000e+00 0.0000e+00 1.0000e+00
      -13  1    1    2    0    0 +3.4228038292e+02 +5.4411146309e+02 -4.1258651526e+02 7.6383295122e+02 0.0000000000e+00 0.0000e+00 1.0000e+00
       13  1    1    2    0    0 -3.4228038292e+02 -5.4411146309e+02 +1.2377730324e+03 1.3947384072e+03 0.0000000000e+00 0.0000e+00 -1.0000e+00
<mgrwt>
<rscale>  0 0.19946171E+04</rscale>
<asrwt>0</asrwt>
<pdfrwt beam="1">  1        2 0.22951984E+00 0.19946171E+04</pdfrwt>
<pdfrwt beam="2">  1       -2 0.10256807E+00 0.19946171E+04</pdfrwt>
<totfact> 0.11822540E+01</totfact>
</mgrwt>
<rwgt>
<wgt id='morphing_basis_vector_1'> +1.3508293e-04 </wgt>
<wgt id='morphing_basis_vector_2'> +9.0095567e-05 </wgt>
<wgt id='morphing_basis_vector_3'> +1.4417375e-04 </wgt>
<wgt id='morphing_basis_vector_4'> +1.0031045e-04 </wgt>
<wgt id='morphing_basis_vector_5'> +1.6007143e-04 </wgt>
</rwgt>
</event>
<event>
 4      1 +6.0853000e-08 1.94385200e+03 7.81860800e-03 8.09500200e-02
        2 -1    0    0  501    0 +0.0000000000e+00 +0.0000000000e+00 +1.8062013914e+03 1.8062013914e+03 0.0000000000e+00 0.0000e+00 1.0000e+00
       -2 -1    0    0    0  501 -0.0000000000e+00 -0.0000000000e+00 -5.2299843686e+02 5.2299843686e+02 0.0000000000e+00 0.0000e+00 -1.0000e+00
      -13  1    1    2    0    0 -5.1852654037e+02 +5.9417479489e+02 -3.9106989385e+01 7.8958395156e+02 0.0000000000e+00 0.0000e+00 -1.0000e+00
       13  1    1    2    0    0 +5.1852654037e+02 -5.9417479489e+02 +1.3223099439e+03 1.5396158767e+03 0.0000000000e+00 0.0000e+00 1.0000e+00
<mgrwt>
<rscale>  0 0.19438524E+04</rscale>
<asrwt>0</asrwt>
<pdfrwt beam="1">  1        2 0.27787713E+00 0.19438524E+04</pdfrwt>
<pdfrwt beam="2">  1       -2 0.80461299E-01 0.19438524E+04</pdfrwt>
<totfact> 0.14015683E+01</totfact>
</mgrwt>
<rwgt>
<wgt id='morphing_basis_vector_1'> +1.2235891e-04 </wgt>
<wgt id='morphing_basis_vector_2'> +8.2081888e-05 </wgt>
<wgt id='morphing_basis_vector_3'> +1.3043150e-04 </wgt>
<wgt id='morphing_basis_vector_4'> +8.9799649e-05 </wgt>
<wgt id='morphing_basis_vector_5'> +1.4403885e-04 </wgt>
</rwgt>
</event>
<event>
 4      1 +6.0853000e-08 1.89286400e+03 7.81860800e-03 8.11701800e-02
        2 -1    0    0  501    0 +0.0000000000e+00 +0.0000000000e+00 +1.7641493608e+03 1.7641493608e+03 0.0000000000e+00 0.0000e+00 1.0000e+00
       -2 -1    0    0    0  501 -0.0000000000e+00 -0.0000000000e+00 -5.0774254854e+02 5.0774254854e+02 0.0000000000e+00 0.0000e+00 -1.0000e+00
      -13  1    1    2    0    0 +1.6881869377e+02 -8.9982872673e+02 +9.1611652827e+02 1.2951683220e+03 0.0000000000e+00 0.0000e+00 -1.0000e+00
       13  1    1    2    0    0 -1.6881869377e+02 +8.9982872673e+02 +3.4029028401e+02 9.7672358742e+02 0.0000000000e+00 0.0000e+00 1.0000e+00
<mgrwt>
<rscale>  0 0.18928642E+04</rscale>
<asrwt>0</asrwt>
<pdfrwt beam="1">  1        2 0.27140759E+00 0.18928642E+04</pdfrwt>
<pdfrwt beam="2">  1       -2 0.78114239E-01 0.18928642E+04</pdfrwt>
<totfact> 0.15884834E+01</totfact>
</mgrwt>
<rwgt>
<wgt id='morphing_basis_vector_1'> +1.1957044e-04 </wgt>
<wgt id='morphing_basis_vector_2'> +1.0143173e-04 </wgt>
<wgt id='morphing_basis_vector_3'> +1.3062233e-04 </wgt>
<wgt id='morphing_basis_vector_4'> +6.2238677e-05 </wgt>
<wgt id='morphing_basis_vector_5'> +1.2777557e-04 </wgt>
</rwgt>
</event>
<event>
 4      1 +6.0853000e-08 1.86747400e+03 7.81860800e-03 8.12825300e-02
        2 -1    0    0  501    0 +0.0000000000e+00 +0.0000000000e+00 +1.4286127199e+03 1.4286127199e+03 0.0000000000e+00 0.0000e+00 1.0000e+00
       -2 -1    0    0    0  501 -0.0000000000e+00 -0.0000000000e+00 -6.1028791667e+02 6.1028791667e+02 0.0000000000e+00 0.0000e+00 -1.0000e+00
      -13  1    1    2    0    0 -5.4197862298e+02 +2.8637031871e+02 -3.5984969084e+02 7.1080277659e+02 0.0000000000e+00 0.0000e+00 -1.0000e+00
       13  1    1    2    0    0 +5.4197862298e+02 -2.8637031871e+02 +1.1781744941e+03 1.3280978600e+03 0.0000000000e+00 0.0000e+00 1.0000e+00
<mgrwt>
<rscale>  0 0.18674743E+04</rscale>
<asrwt>0</asrwt>
<pdfrwt beam="1">  1        2 0.21978657E+00 0.18674743E+04</pdfrwt>
<pdfrwt beam="2">  1       -2 0.93890449E-01 0.18674743E+04</pdfrwt>
<totfact> 0.16029454E+01</totfact>
</mgrwt>
<rwgt>
<wgt id='morphing_basis_vector_1'> +1.0439792e-04 </wgt>
<wgt id='morphing_basis_vector_2'> +6.9419209e-05 </wgt>
<wgt id='morphing_basis_vector_3'> +1.1084578e-04 </wgt>
<wgt id='morphing_basis_vector_4'> +7.6638128e-05 </wgt>
<wgt id='morphing_basis_vector_5'> +1.2229479e-04 </wgt>
</rwgt>
</event>
<event>
 4      1 +6.0853000e-08 1.86374000e+03 7.81860800e-03 8.12992100e-02
        2 -1    0    0  501    0 +0.0000000000e+00 +0.0000000000e+00 +1.8428221209e+03 1.8428221209e+03 0.0000000000e+00 0.0000e+00 -1.0000e+00
       -2 -1    0    0    0  501 -0.0000000000e+00 -0.0000000000e+00 -4.7122379259e+02 4.7122379259e+02 0.0000000000e+00 0.0000e+00 1.0000e+00
      -13  1    1    2    0    0 +8.9542184212e+02 -1.6764638629e+02 +4.4218939164e+02 1.0126287791e+03 0.0000000000e+00 0.0000e+00 1.0000e+00
       13  1    1    2    0    0 -8.9542184212e+02 +1.6764638629e+02 +9.2940893671e+02 1.3014171344e+03 0.0000000000e+00 0.0000e+00 -1.0000e+00
<mgrwt>
<rscale>  0 0.18637399E+04</rscale>
<asrwt>0</asrwt>
<pdfrwt beam="1">  1        2 0.28351109E+00 0.18637399E+04</pdfrwt>
<pdfrwt beam="2">  1       -2 0.72495969E-01 0.18637399E+04</pdfrwt>
<totfact> 0.16975872E+01</totfact>
</mgrwt>
<rwgt>
<wgt id='morphing_basis_vector_1'> +1.0520701e-04 </wgt>
<wgt id='morphing_basis_vector_2'> +7.3681440e-05 </wgt>
<wgt id='morphing_basis_vector_3'> +1.1227819e-04 </wgt>
<wgt id='morphing_basis_vector_4'> +7.2825033e-05 </wgt>
<wgt id='morphing_basis_vector_5'> +1.2104826e-04 </wgt>
</rwgt>
</event>
<event>
 4      1 +6.0853000e-08 1.88192900e+03 7.81860800e-03 8.12183400e-02
        2 -1    0    0  501    0 +0.0000000000e+00 +0.0000000000e+00 +1.3308101496e+03 1.3308101496e+03 0.0000000000e+00 0.0000e+00 1.0000e+00
       -2 -1    0    0    0  501 -0.0000000000e+00 -0.0000000000e+00 -6.6531961833e+02 6.6531961833e+02 0.0000000000e+00 0.0000e+00 -1.0000e+00
      -13  1    1    2    0    0 -4.8004356550e+02 -1.1159855358e+02 -5.1746867388e+02 7.1461170603e+02 0.0000000000e+00 0.0000e+00 -1.0000e+00
       13  1    1    2    0    0 +4.8004356550e+02 +1.1159855358e+02 +1.1829592051e+03 1.2815180619e+03 0.0000000000e+00 0.0000e+00 1.0000e+00
<mgrwt>
<rscale>  0 0.18819289E+04</rscale>
<asrwt>0</asrwt>
<pdfrwt beam="1">  1        2 0.20474002E+00 0.18819289E+04</pdfrwt>
<pdfrwt beam="2">  1       -2 0.10235686E+00 0.18819289E+04</pdfrwt>
<totfact> 0.14792082E+01</totfact>
</mgrwt>
<rwgt>
<wgt id='morphing_basis_vector_1'> +1.0753438e-04 </wgt>
<wgt id='morphing_basis_vector_2'> +7.1401768e-05 </wgt>
<wgt id='morphing_basis_vector_3'> +1.1422862e-04 </wgt>
<wgt id='morphing_basis_vector_4'> +7.9205717e-05 </wgt>
<wgt id='morphing_basis_vector_5'> +1.2622366e-04 </wgt>
</rwgt>
</event>
<event>
 4      1 +6.0853000e-08 2.10098500e+03 7.81860800e-03 8.03134100e-02
        2 -1    0    0  501    0 +0.0000000000e+00 +0.0000000000e+00 +1.2103804434e+03 1.2103804434e+03 0.0000000000e+00 0.0000e+00 1.0000e+00
       -2 -1    0    0    0  501 -0.0000000000e+00 -0.0000000000e+00 -9.1172494781e+02 9.1172494781e+02 0.0000000000e+00 0.0000e+00 -1.0000e+00
      -13  1    1    2    0    0 -4.0145985448e+02 +9.6505525218e+02 +4.3236653857e+01 1.0461219158e+03 0.0000000000e+00 0.0000e+00 -1.0000e+00
       13  1    1    2    0    0 +4.0145985448e+02 -9.6505525218e+02 +2.5541884169e+02 1.0759834753e+03 0.0000000000e+00 0.0000e+00 1.0000e+00
<mgrwt>
<rscale>  0 0.21009846E+04</rscale>
<asrwt>0</asrwt>
<pdfrwt beam="1">  1        2 0.18621238E+00 0.21009846E+04</pdfrwt>
<pdfrwt beam="2">  1       -2 0.14026538E+00 0.21009846E+04</pdfrwt>
<totfact> 0.75128795E+00</totfact>
</mgrwt>
<rwgt>
<wgt id='morphing_basis_vector_1'> +1.6969163e-04 </wgt>
<wgt id='morphing_basis_vector_2'> +1.2276507e-04 </wgt>
<wgt id='morphing_basis_vector_3'> +1.8341962e-04 </wgt>
<wgt id='morphing_basis_vector_4'> +1.1579429e-04 </wgt>
<wgt id='morphing_basis_vector_5'> +1.9718594e-04 </wgt>
</rwgt>
</event>
<event>
 4      1 +6.0853000e-08 1.88622400e+03 7.81860800e-03 8.11993800e-02
        2 -1    0    0  501    0 +0.0000000000e+00 +0.0000000000e+00 +2.5721863040e+03 2.5721863040e+03 0.0000000000e+00 0.0000e+00 -1.0000e+00
       -2 -1    0    0    0  501 -0.0000000000e+00 -0.0000000000e+00 -3.4579938636e+02 3.4579938636e+02 0.0000000000e+00 0.0000e+00 1.0000e+00
      -13  1    1    2    0    0 -6.0802209802e+02 -3.8461272082e+01 -5.2747945252e-01 6.0923757219e+02 0.0000000000e+00 0.0000e+00 1.0000e+00
       13  1    1    2    0    0 +6.0802209802e+02 +3.8461272082e+01 +2.2269143971e+03 2.3087481181e+03 0.0000000000e+00 0.0000e+00 -1.0000e+00
<mgrwt>
<rscale>  0 0.18862242E+04</rscale>
<asrwt>0</asrwt>
<pdfrwt beam="1">  1        2 0.39572096E+00 0.18862242E+04</pdfrwt>
<pdfrwt beam="2">  1       -2 0.53199907E-01 0.18862242E+04</pdfrwt>
<totfact> 0.12257962E+01</totfact>
</mgrwt>
<rwgt>
<wgt id='morphing_basis_vector_1'> +1.0854795e-04 </wgt>
<wgt id='morphing_basis_vector_2'> +7.2200459e-05 </wgt>
<wgt id='morphing_basis_vector_3'> +1.1534588e-04 </wgt>
<wgt id='morphing_basis_vector_4'> +7.9847046e-05 </wgt>
<wgt id='morphing_basis_vector_5'> +1.2739860e-04 </wgt>
</rwgt>
</event>
<event>
 4      1 +6.0853000e-08 2.14447600e+03 7.81860800e-03 8.01473600e-02
        2 -1    0    0  501    0 +0.0000000000e+00 +0.0000000000e+00 +2.2832496221e+03 2.2832496221e+03 0.0000000000e+00 0.0000e+00 -1.0000e+00
       -2 -1    0    0    0  501 -0.0000000000e+00 -0.0000000000e+00 -5.0353434231e+02 5.0353434231e+02 0.0000000000e+00 0.0000e+00 1.0000e+00
      -13  1    1    2    0    0 -3.6027275575e+02 -1.0687500206e+02 -4.1515530053e+02 5.5997557818e+02 0.0000000000e+00 0.0000e+00 1.0000e+00
       13  1    1    2    0    0 +3.6027275575e+02 +1.0687500206e+02 +2.1948705803e+03 2.2268083862e+03 0.0000000000e+00 0.0000e+00 -1.0000e+00
<mgrwt>
<rscale>  0 0.21444763E+04</rscale>
<asrwt>0</asrwt>
<pdfrwt beam="1">  1        2 0.35126917E+00 0.21444763E+04</pdfrwt>
<pdfrwt beam="2">  1       -2 0.77466823E-01 0.21444763E+04</pdfrwt>
<totfact> 0.80620861E+00</totfact>
</mgrwt>
<rwgt>
<wgt id='morphing_basis_vector_1'> +1.7937881e-04 </wgt>
<wgt id='morphing_basis_vector_2'> +1.1974160e-04 </wgt>
<wgt id='morphing_basis_vector_3'> +1.9236762e-04 </wgt>
<wgt id='morphing_basis_vector_4'> +1.3498164e-04 </wgt>
<wgt id='morphing_basis_vector_5'> +2.1506563e-04 </wgt>
</rwgt>
</event>
<event>
 4      1 +6.0853000e-08 2.18540800e+03 7.81860800e-03 7.99947700e-02
        2 -1    0    0  501    0 +0.0000000000e+00 +0.0000000000e+00 +1.8678882946e+03 1.8678882946e+03 0.0000000000e+00 0.0000e+00 -1.0000e+00
       -2 -1    0    0    0  501 -0.0000000000e+00 -0.0000000000e+00 -6.3922545186e+02 6.3922545186e+02 0.0000000000e+00 0.0000e+00 1.0000e+00
      -13  1    1    2    0    0 +4.4125732899e+02 +9.9000461806e+02 +7.7322909555e+02 1.3314279584e+03 0.0000000000e+00 0.0000e+00 1.0000e+00
       13  1    1    2    0    0 -4.4125732899e+02 -9.9000461806e+02 +4.5543374718e+02 1.1756857881e+03 0.0000000000e+00 0.0000e+00 -1.0000e+00
<mgrwt>
<rscale>  0 0.21854077E+04</rscale>
<asrwt>0</asrwt>
<pdfrwt beam="1">  1        2 0.28736743E+00 0.21854077E+04</pdfrwt>
<pdfrwt beam="2">  1       -2 0.98342378E-01 0.21854077E+04</pdfrwt>
<totfact> 0.79456502E+00</totfact>
</mgrwt>
<rwgt>
<wgt id='morphing_basis_vector_1'> +2.0426084e-04 </wgt>
<wgt id='morphing_basis_vector_2'> +1.6172378e-04 </wgt>
<wgt id='morphing_basis_vector_3'> +2.2388235e-04 </wgt>
<wgt id='morphing_basis_vector_4'> +1.2350320e-04 </wgt>
<wgt id='morphing_basis_vector_5'> +2.3048418e-04 </wgt>
</rwgt>
</event>
<event>
 4      1 +6.0853000e-08 1.98323300e+03 7.81860800e-03 8.07847500e-02
        2 -1    0    0  501    0 +0.0000000000e+00 +0.0000000000e+00 +2.7445429659e+03 2.7445429659e+03 0.0000000000e+00 0.0000e+00 -1.0000e+00
       -2 -1    0    0    0  501 -0.0000000000e+00 -0.0000000000e+00 -3.5827561239e+02 3.5827561239e+02 0.0000000000e+00 0.0000e+00 1.0000e+00
      -13  1    1    2    0    0 +7.5561349006e+02 -4.0717482386e+02 +4.1627178448e+02 9.5395245275e+02 0.0000000000e+00 0.0000e+00 1.0000e+00
       13  1    1    2    0    0 -7.5561349006e+02 +4.0717482386e+02 +1.9699955690e+03 2.1488661255e+03 0.0000000000e+00 0.0000e+00 -1.0000e+00
<mgrwt>
<rscale>  0 0.19832325E+04</rscale>
<asrwt>0</asrwt>
<pdfrwt beam="1">  1        2 0.42223736E+00 0.19832325E+04</pdfrwt>
<pdfrwt beam="2">  1       -2 0.55119327E-01 0.19832325E+04</pdfrwt>
<totfact> 0.88830904E+00</totfact>
</mgrwt>
<rwgt>
<wgt id='morphing_basis_vector_1'> +1.3257733e-04 </wgt>
<wgt id='morphing_basis_vector_2'> +8.9525807e-05 </wgt>
<wgt id='morphing_basis_vector_3'> +1.4162804e-04 </wgt>
<wgt id='morphing_basis_vector_4'> +9.7021205e-05 </wgt>
<wgt id='morphing_basis_vector_5'> +1.5629827e-04 </wgt>
</rwgt>
</event>
<event>
 4      1 +6.0853000e-08 1.86088000e+03 7.81860800e-03 8.13120100e-02
        2 -1    0    0  501    0 +0.0000000000e+00 +0.0000000000e+00 +1.5744141765e+03 1.5744141765e+03 0.0000000000e+00 0.0000e+00 1.0000e+00
       -2 -1    0    0    0  501 -0.0000000000e+00 -0.0000000000e+00 -5.4986722696e+02 5.4986722696e+02 0.0000000000e+00 0.0000e+00 -1.0000e+00
      -13  1    1    2    0    0 -2.5897694109e+02 -5.9064121670e+02 +1.2778697594e+03 1.4313899626e+03 0.0000000000e+00 0.0000e+00 1.0000e+00
       13  1    1    2    0    0 +2.5897694109e+02 +5.9064121670e+02 -2.5332280987e+02 6.9289144091e+02 0.0000000000e+00 0.0000e+00 -1.0000e+00
<mgrwt>
<rscale>  0 0.18608802E+04</rscale>
<asrwt>0</asrwt>
<pdfrwt beam="1">  1        2 0.24221756E+00 0.18608802E+04</pdfrwt>
<pdfrwt beam="2">  1       -2 0.84594958E-01 0.18608802E+04</pdfrwt>
<totfact> 0.16944229E+01</totfact>
</mgrwt>
<rwgt>
<wgt id='morphing_basis_vector_1'> +1.3356047e-04 </wgt>
<wgt id='morphing_basis_vector_2'> +1.5916818e-04 </wgt>
<wgt id='morphing_basis_vector_3'> +1.5291916e-04 </wgt>
<wgt id='morphing_basis_vector_4'> +1.5431950e-05 </wgt>
<wgt id='morphing_basis_vector_5'> +1.1584993e-04 </wgt>
</rwgt>
</event>
<event>
 4      1 +6.0853000e-08 2.03357200e+03 7.81860800e-03 8.05791900e-02
        2 -1    0    0  501    0 +0.0000000000e+00 +0.0000000000e+00 +1.1363966778e+03 1.1363966778e+03 0.0000000000e+00 0.0000e+00 -1.0000e+00
       -2 -1    0    0    0  501 -0.0000000000e+00 -0.0000000000e+00 -9.0976491138e+02 9.0976491138e+02 0.0000000000e+00 0.0000e+00 1.0000e+00
      -13  1    1    2    0    0 +8.2794432594e+02 -4.5329930842e+02 -2.6702126699e+02 9.8095485467e+02 0.0000000000e+00 0.0000e+00 1.0000e+00
       13  1    1    2    0    0 -8.2794432594e+02 +4.5329930842e+02 +4.9365303343e+02 1.0652067345e+03 0.0000000000e+00 0.0000e+00 -1.0000e+00
<mgrwt>
<rscale>  0 0.20335721E+04</rscale>
<asrwt>0</asrwt>
<pdfrwt beam="1">  1        2 0.17483026E+00 0.20335721E+04</pdfrwt>
<pdfrwt beam="2">  1       -2 0.13996383E+00 0.20335721E+04</pdfrwt>
<totfact> 0.84034313E+00</totfact>
</mgrwt>
<rwgt>
<wgt id='morphing_basis_vector_1'> +1.4683087e-04 </wgt>
<wgt id='morphing_basis_vector_2'> +1.0055548e-04 </wgt>
<wgt id='morphing_basis_vector_3'> +1.5736935e-04 </wgt>
<wgt id='morphing_basis_vector_4'> +1.0633229e-04 </wgt>
<wgt id='morphing_basis_vector_5'> +1.7303877e-04 </wgt>
</rwgt>
</event>
<event>
 4      1 +6.0853000e-08 2.01133500e+03 7.81860800e-03 8.06692200e-02
        2 -1    0    0  501    0 +0.0000000000e+00 +0.0000000000e+00 +1.2450608516e+03 1.2450608516e+03 0.0000000000e+00 0.0000e+00 1.0000e+00
       -2 -1    0    0    0  501 -0.0000000000e+00 -0.0000000000e+00 -8.1230334939e+02 8.1230334939e+02 0.0000000000e+00 0.0000e+00 -1.0000e+00
      -13  1    1    2    0    0 +7.5469721892e+02 -4.9174255091e+02 -2.4105610301e+02 9.3246269278e+02 0.0000000000e+00 0.0000e+00 -1.0000e+00
       13  1    1    2    0    0 -7.5469721892e+02 +4.9174255091e+02 +6.7381360527e+02 1.1249015082e+03 0.0000000000e+00 0.0000e+00 1.0000e+00
<mgrwt>
<rscale>  0 0.20113350E+04</rscale>
<asrwt>0</asrwt>
<pdfrwt beam="1">  1        2 0.19154782E+00 0.20113350E+04</pdfrwt>
<pdfrwt beam="2">  1       -2 0.12496975E+00 0.20113350E+04</pdfrwt>
<totfact> 0.98736501E+00</totfact>
</mgrwt>
<rwgt>
<wgt id='morphing_basis_vector_1'> +1.4029751e-04 </wgt>
<wgt id='morphing_basis_vector_2'> +9.5266497e-05 </wgt>
<wgt id='morphing_basis_vector_3'> +1.5011334e-04 </wgt>
<wgt id='morphing_basis_vector_4'> +1.0234454e-04 </wgt>
<wgt id='morphing_basis_vector_5'> +1.6550327e-04 </wgt>
</rwgt>
</event>
<event>
 4      1 +6.0853000e-08 2.08929600e+03 7.81860800e-03 8.03587400e-02
        2 -1    0    0  501    0 +0.0000000000e+00 +0.0000000000e+00 +1.2182968015e+03 1.2182968015e+03 0.0000000000e+00 0.0000e+00 1.0000e+00
       -2 -1    0    0    0  501 -0.0000000000e+00 -0.0000000000e+00 -8.9575017975e+02 8.9575017975e+02 0.0000000000e+00 0.0000e+00 -1.0000e+00
      -13  1    1    2    0    0 -2.3995186037e+02 +9.4245691922e+02 -2.2467370119e+02 9.9813837312e+02 0.0000000000e+00 0.0000e+00 -1.0000e+00
       13  1    1    2    0    0 +2.3995186037e+02 -9.4245691922e+02 +5.4722032299e+02 1.1159086082e+03 0.0000000000e+00 0.0000e+00 1.0000e+00
<mgrwt>
<rscale>  0 0.20892961E+04</rscale>
<asrwt>0</asrwt>
<pdfrwt beam="1">  1        2 0.18743028E+00 0.20892961E+04</pdfrwt>
<pdfrwt beam="2">  1       -2 0.13780772E+00 0.20892961E+04</pdfrwt>
<totfact> 0.78128822E+00</totfact>
</mgrwt>
<rwgt>
<wgt id='morphing_basis_vector_1'> +1.6330354e-04 </wgt>
<wgt id='morphing_basis_vector_2'> +1.1205834e-04 </wgt>
<wgt id='morphing_basis_vector_3'> +1.7538076e-04 </wgt>
<wgt id='morphing_basis_vector_4'> +1.1862666e-04 </wgt>
<wgt id='morphing_basis_vector_5'> +1.9318738e-04 </wgt>
</rwgt>
</event>
<event>
 4      1 +6.0853000e-08 2.01027900e+03 7.81860800e-03 8.06735300e-02
        2 -1    0    0  501    0 +0.0000000000e+00 +0.0000000000e+00 +1.3059662793e+03 1.3059662793e+03 0.0000000000e+00 0.0000e+00 1.0000e+00
       -2 -1    0    0    0  501 -0.0000000000e+00 -0.0000000000e+00 -7.7360773902e+02 7.7360773902e+02 0.0000000000e+00 0.0000e+00 -1.0000e+00
      -13  1    1    2    0    0 +4.6514317264e+02 +3.1920411276e+02 +1.1267541789e+03 1.2600890509e+03 0.0000000000e+00 0.0000e+00 1.0000e+00
       13  1    1    2    0    0 -4.6514317264e+02 -3.1920411276e+02 -5.9439563858e+02 8.1948496741e+02 0.0000000000e+00 0.0000e+00 -1.0000e+00
<mgrwt>
<rscale>  0 0.20102792E+04</rscale>
<asrwt>0</asrwt>
<pdfrwt beam="1">  1        2 0.20091789E+00 0.20102792E+04</pdfrwt>
<pdfrwt beam="2">  1       -2 0.11901657E+00 0.20102792E+04</pdfrwt>
<totfact> 0.10348907E+01</totfact>
</mgrwt>
<rwgt>
<wgt id='morphing_basis_vector_1'> +1.8682344e-04 </wgt>
<wgt id='morphing_basis_vector_2'> +2.3366279e-04 </wgt>
<wgt id='morphing_basis_vector_3'> +2.1804264e-04 </wgt>
<wgt id='morphing_basis_vector_4'> +8.9007428e-06 </wgt>
<wgt id='morphing_basis_vector_5'> +1.5778718e-04 </wgt>
</rwgt>
</event>
</LesHouchesEvents>
