<LesHouchesEvents version="3.0">
<header>
<!--
#*********************************************************************
#                                                                    *
#                        MadGraph5_aMC@NLO                           *
#                                                                    *
#                           Going Beyond                             *
#                                                                    *
#                   http://madgraph.hep.uiuc.edu                     *
#                   http://madgraph.phys.ucl.ac.be                   *
#                   http://amcatnlo.cern.ch                          *
#                                                                    *
#                     The MadGraph5_aMC@NLO team                     *
#                                                                    *
#....................................................................*
#                                                                    *
# This file contains all the information necessary to reproduce      *
# the events generated:                                              *
#                                                                    *
# 1. software version                                                *
# 2. proc_card          : code generation info including model       *
# 3. param_card         : model primary parameters in the LH format  *
# 4. run_card           : running parameters (collider and cuts)     *
# 5. pythia_card        : present only if pythia has been run        *
# 6. pgs_card           : present only if pgs has been run           *
# 7. delphes_cards      : present only if delphes has been run       *
#                                                                    *
#                                                                    *
#*********************************************************************
-->
<MGVersion>
2.6.4
</MGVersion>
<MG5ProcCard>
<![CDATA[
#************************************************************
#*                     MadGraph5_aMC@NLO                    *
#*                                                          *
#*                *                       *                 *
#*                  *        * *        *                   *
#*                    * * * * 5 * * * *                     *
#*                  *        * *        *                   *
#*                *                       *                 *
#*                                                          *
#*                                                          *
#*         VERSION 2.6.4                 2018-11-09         *
#*                                                          *
#*    The MadGraph5_aMC@NLO Development Team - Find us at   *
#*    https://server06.fynu.ucl.ac.be/projects/madgraph     *
#*                                                          *
#************************************************************
#*                                                          *
#*               Command File for MadGraph5_aMC@NLO         *
#*                                                          *
#*     run as ./bin/mg5_aMC  filename                       *
#*                                                          *
#************************************************************
set default_unset_couplings 99
set group_subprocesses Auto
set ignore_six_quark_processes False
set loop_optimized_output True
set loop_color_flows False
set gauge unitary
set complex_mass_scheme False
set max_npoint_for_channel 0
import model SM4fLL_UFO
define p = g u c d s u~ c~ d~ s~
define j = g u c d s u~ c~ d~ s~
define l+ = e+ mu+
define l- = e- mu-
define vl = ve vm vt
define vl~ = ve~ vm~ vt~
generate u u~ > mu+ mu- NP=2 QED=99 QCD=0
output /Users/dpappadopulo/Projects/~Physics/madminer/examples/example\
4_systematics_DY/data/mg_processes/DY_sys/
]]>
</MG5ProcCard>
<MGProcCard>
#*********************************************************************
#                        MadGraph/MadEvent                           *
#                   http://madgraph.hep.uiuc.edu                     *
#                                                                    *
#                          proc_card.dat                             *
#*********************************************************************
#                                                                    *
#            This Files is generated by MADGRAPH 5                   *
#                                                                    *
# WARNING: This Files is generated for MADEVENT (compatibility issue)*
#          This files is NOT a valid MG4 proc_card.dat               *
#          Running this in MG4 will NEVER reproduce the result of MG5*
#                                                                    *
#*********************************************************************
#*********************************************************************
# Process(es) requested : mg2 input                                  *
#*********************************************************************
# Begin PROCESS # This is TAG. Do not modify this line
u u~ > mu+ mu-           #Process
# Be carefull the coupling are here in MG5 convention
NP=2
QED=99
QCD=0
          
end_coup           # End the couplings input

done               # this tells MG there are no more procs
# End PROCESS  # This is TAG. Do not modify this line
#*********************************************************************
# Model information                                                  *
#*********************************************************************
# Begin MODEL  # This is TAG. Do not modify this line
SM4fLL_UFO
# End   MODEL  # This is TAG. Do not modify this line
#*********************************************************************
# Start multiparticle definitions                                    *
#*********************************************************************
# Begin MULTIPARTICLES # This is TAG. Do not modify this line

# End  MULTIPARTICLES # This is TAG. Do not modify this line
</MGProcCard>
<MGRunCard>
<![CDATA[
#*********************************************************************
#                       MadGraph5_aMC@NLO                            *
#                                                                    *
#                     run_card.dat MadEvent                          *
#                                                                    *
#  This file is used to set the parameters of the run.               *
#                                                                    *
#  Some notation/conventions:                                        *
#                                                                    *
#   Lines starting with a '# ' are info or comments                  *
#                                                                    *
#   mind the format:   value    = variable     ! comment             *
#*********************************************************************
#
#*******************                                                 
# Running parameters
#*******************                                                 
#                                                                    
#*********************************************************************
# Tag name for the run (one word)                                    *
#*********************************************************************
  tag_1     = run_tag ! name of the run 
#*********************************************************************
# Run to generate the grid pack                                      *
#*********************************************************************
  False     = gridpack  !True = setting up the grid pack
#*********************************************************************
# Number of events and rnd seed                                      *
# Warning: Do not generate more than 1M events in a single run       *
# If you want to run Pythia, avoid more than 50k events in a run.    *
#*********************************************************************
  1000 = nevents ! Number of unweighted events requested
 156 = iseed   ! rnd seed (0=assigned automatically=default))
#*********************************************************************
# Collider type and energy                                           *
# lpp: 0=No PDF, 1=proton, -1=antiproton, 2=photon from proton,      *
#                                         3=photon from electron     *
#*********************************************************************
     1        = lpp1    ! beam 1 type 
     1        = lpp2    ! beam 2 type
     6500.0     = ebeam1  ! beam 1 total energy in GeV
     6500.0     = ebeam2  ! beam 2 total energy in GeV
#*********************************************************************
# Beam polarization from -100 (left-handed) to 100 (right-handed)    *
#*********************************************************************
     0.0     = polbeam1 ! beam polarization for beam 1
     0.0     = polbeam2 ! beam polarization for beam 2
#*********************************************************************
# PDF CHOICE: this automatically fixes also alpha_s and its evol.    *
#*********************************************************************
     lhapdf    = pdlabel     ! PDF set
     90900   = lhaid     ! if pdlabel=lhapdf, this is the lhapdf number
#*********************************************************************
# Renormalization and factorization scales                           *
#*********************************************************************
 False = fixed_ren_scale  ! if .true. use fixed ren scale
 False        = fixed_fac_scale  ! if .true. use fixed fac scale
 91.188  = scale            ! fixed ren scale
 91.188  = dsqrt_q2fact1    ! fixed fact scale for pdf1
 91.188  = dsqrt_q2fact2    ! fixed fact scale for pdf2
 -1 = dynamical_scale_choice ! Choose one of the preselected dynamical choices
 1.0  = scalefact        ! scale factor for event-by-event scales
#*********************************************************************
# Type and output format
#*********************************************************************
  False     = gridpack  !True = setting up the grid pack
  -1.0 = time_of_flight ! threshold (in mm) below which the invariant livetime is not written (-1 means not written)
  3.0 = lhe_version       ! Change the way clustering information pass to shower.        
  True = clusinfo         ! include clustering tag in output
  sum =  event_norm       ! average/sum. Normalization of the weight in the LHEF
#*********************************************************************
# Matching - Warning! ickkw > 1 is still beta
#*********************************************************************
 0 = ickkw            ! 0 no matching, 1 MLM, 2 CKKW matching
 1 = highestmult      ! for ickkw=2, highest mult group
 1 = ktscheme         ! for ickkw=1, 1 Durham kT, 2 Pythia pTE
 1.0 = alpsfact         ! scale factor for QCD emission vx
 False = chcluster        ! cluster only according to channel diag
 True = pdfwgt           ! for ickkw=1, perform pdf reweighting
 4 = asrwgtflavor     ! highest quark flavor for a_s reweight    
#*********************************************************************
#**********************************************************
#
#**********************************************************
# Automatic ptj and mjj cuts if xqcut > 0
# (turn off for VBF and single top processes)
#**********************************************************
   False  = auto_ptj_mjj  ! Automatic setting of ptj and mjj
#**********************************************************
#                                                                    
#**********************************
# BW cutoff (M+/-bwcutoff*Gamma)
#**********************************
  15.0  = bwcutoff      ! (M+/-bwcutoff*Gamma)
#**********************************************************
# Apply pt/E/eta/dr/mij/kt_durham cuts on decay products or not
# (note that etmiss/ptll/ptheavy/ht/sorted cuts always apply)
#*************************************************************
   False  = cut_decays    ! Cut decay products 
#*************************************************************
# Number of helicities to sum per event (0 = all helicities)
# 0 gives more stable result, but longer run time (needed for
# long decay chains e.g.).
# Use >=2 if most helicities contribute, e.g. pure QCD.
#*************************************************************
   0  = nhel          ! Number of helicities used per event
#*******************                                                 
# Standard Cuts
#*******************                                                 
#                                                                    
#*********************************************************************
# Minimum and maximum pt's (for max, -1 means no cut)                *
#*********************************************************************
 15.0  = ptj       ! minimum pt for the jets
 0.0  = ptb       ! minimum pt for the b 
 0.0 = pta       ! minimum pt for the photons
 25.0  = ptl       ! minimum pt for the charged leptons
 0.0  = misset    ! minimum missing Et (sum of neutrino's momenta)
 0.0  = ptheavy   ! minimum pt for one heavy final state
 -1.0  = ptjmax    ! maximum pt for the jets
 -1.0  = ptbmax    ! maximum pt for the b
 -1.0 = ptamax       ! maximum pt for the photons
 -1.0  = ptlmax    ! maximum pt for the charged leptons
 -1.0  = missetmax ! maximum missing Et (sum of neutrino's momenta)
#*********************************************************************
# Minimum and maximum E's (in the center of mass frame)              *
#*********************************************************************
  0.0  = ej     ! minimum E for the jets 
  0.0  = eb     ! minimum E for the b 
  0.0  = ea     ! minimum E for the photons 
  0.0  = el     ! minimum E for the charged leptons 
  -1.0   = ejmax ! maximum E for the jets
 -1.0   = ebmax ! maximum E for the b
 -1.0   = eamax ! maximum E for the photons
 -1.0   = elmax ! maximum E for the charged leptons
#*********************************************************************
# Maximum and minimum absolute rapidity (for max, -1 means no cut)   *
#*********************************************************************
 2.5 = etaj    ! max rap for the jets
  -1.0  = etab    ! max rap for the b
 3.0  = etaa    ! max rap for the photons
 2.5  = etal    ! max rap for the charged leptons
 0.0  = etajmin ! min rap for the jets
 0.0  = etabmin ! min rap for the b
 0.0  = etaamin ! min rap for the photons
 0.0  = etalmin ! main rap for the charged leptons
#*********************************************************************
# Minimum and maximum DeltaR distance                                *
#*********************************************************************
 0.0 = drjj    ! min distance between jets
 0.0 = drbb    ! min distance between b's
 0.0 = drll    ! min distance between leptons
 0.0 = draa    ! min distance between gammas
 0.0 = drbj    ! min distance between b and jet
 0.0 = draj    ! min distance between gamma and jet
 0.0 = drjl    ! min distance between jet and lepton
 0.0 = drab    ! min distance between gamma and b
 0.0 = drbl    ! min distance between b and lepton
 0.0 = dral    ! min distance between gamma and lepton
 -1.0  = drjjmax ! max distance between jets
 -1.0  = drbbmax ! max distance between b's
 -1.0  = drllmax ! max distance between leptons
 -1.0  = draamax ! max distance between gammas
 -1.0  = drbjmax ! max distance between b and jet
 -1.0  = drajmax ! max distance between gamma and jet
 -1.0  = drjlmax ! max distance between jet and lepton
 -1.0  = drabmax ! max distance between gamma and b
 -1.0  = drblmax ! max distance between b and lepton
 -1.0  = dralmax ! maxdistance between gamma and lepton
#*********************************************************************
# Minimum and maximum invariant mass for pairs                       *
# WARNING: for four lepton final state mmll cut require to have      *
#          different lepton masses for each flavor!                  *           
#*********************************************************************
 0.0   = mmjj    ! min invariant mass of a jet pair 
 0.0   = mmbb    ! min invariant mass of a b pair 
 0.0   = mmaa    ! min invariant mass of gamma gamma pair
 4620   = mmll    ! min invariant mass of l+l- (same flavour) lepton pair
 -1.0  = mmjjmax ! max invariant mass of a jet pair
 -1.0  = mmbbmax ! max invariant mass of a b pair
 -1.0  = mmaamax ! max invariant mass of gamma gamma pair
 5550  = mmllmax ! max invariant mass of l+l- (same flavour) lepton pair
#*********************************************************************
# Minimum and maximum invariant mass for all letpons                 *
#*********************************************************************
 0.0   = mmnl    ! min invariant mass for all letpons (l+- and vl) 
 -1.0  = mmnlmax ! max invariant mass for all letpons (l+- and vl) 
#*********************************************************************
# Minimum and maximum pt for 4-momenta sum of leptons                *
#*********************************************************************
 0.0   = ptllmin  ! Minimum pt for 4-momenta sum of leptons(l and vl)
 -1.0  = ptllmax  ! Maximum pt for 4-momenta sum of leptons(l and vl)
#*********************************************************************
# Inclusive cuts                                                     *
#*********************************************************************
 0.0  = xptj ! minimum pt for at least one jet  
 0.0  = xptb ! minimum pt for at least one b 
 0.0  = xpta ! minimum pt for at least one photon 
 0.0  = xptl ! minimum pt for at least one charged lepton 
#*********************************************************************
# Control the pt's of the jets sorted by pt                          *
#*********************************************************************
 0.0   = ptj1min ! minimum pt for the leading jet in pt
 0.0   = ptj2min ! minimum pt for the second jet in pt
 0.0   = ptj3min ! minimum pt for the third jet in pt
 0.0   = ptj4min ! minimum pt for the fourth jet in pt
 -1.0  = ptj1max ! maximum pt for the leading jet in pt 
 -1.0  = ptj2max ! maximum pt for the second jet in pt
 -1.0  = ptj3max ! maximum pt for the third jet in pt
 -1.0  = ptj4max ! maximum pt for the fourth jet in pt
 0   = cutuse  ! reject event if fails any (0) / all (1) jet pt cuts
#*********************************************************************
# Control the pt's of leptons sorted by pt                           *
#*********************************************************************
 0.0   = ptl1min ! minimum pt for the leading lepton in pt
 0.0   = ptl2min ! minimum pt for the second lepton in pt
 0.0   = ptl3min ! minimum pt for the third lepton in pt
 0.0   = ptl4min ! minimum pt for the fourth lepton in pt
 -1.0  = ptl1max ! maximum pt for the leading lepton in pt 
 -1.0  = ptl2max ! maximum pt for the second lepton in pt
 -1.0  = ptl3max ! maximum pt for the third lepton in pt
 -1.0  = ptl4max ! maximum pt for the fourth lepton in pt
#*********************************************************************
# Control the Ht(k)=Sum of k leading jets                            *
#*********************************************************************
 0.0   = htjmin ! minimum jet HT=Sum(jet pt)
 -1.0  = htjmax ! maximum jet HT=Sum(jet pt)
 0.0   = ihtmin  !inclusive Ht for all partons (including b)
 -1.0  = ihtmax  !inclusive Ht for all partons (including b)
 0.0   = ht2min ! minimum Ht for the two leading jets
 0.0   = ht3min ! minimum Ht for the three leading jets
 0.0   = ht4min ! minimum Ht for the four leading jets
 -1.0  = ht2max ! maximum Ht for the two leading jets
 -1.0  = ht3max ! maximum Ht for the three leading jets
 -1.0  = ht4max ! maximum Ht for the four leading jets
#***********************************************************************
# Photon-isolation cuts, according to hep-ph/9801442                   *
# When ptgmin=0, all the other parameters are ignored                  *
# When ptgmin>0, pta and draj are not going to be used                 *
#***********************************************************************
 0.0 = ptgmin ! Min photon transverse momentum
 0.4 = R0gamma ! Radius of isolation code
 1.0 = xn ! n parameter of eq.(3.4) in hep-ph/9801442
 1.0 = epsgamma ! epsilon_gamma parameter of eq.(3.4) in hep-ph/9801442
 True = isoEM ! isolate photons from EM energy (photons and leptons)
#*********************************************************************
# WBF cuts                                                           *
#*********************************************************************
 0.0   = xetamin ! minimum rapidity for two jets in the WBF case  
 0.0   = deltaeta ! minimum rapidity for two jets in the WBF case 
#*********************************************************************
# KT DURHAM CUT                                                      *
#*********************************************************************
 -1.0    =  ktdurham        
 0.4  =  dparameter 
#*********************************************************************
# maximal pdg code for quark to be considered as a light jet         *
# (otherwise b cuts are applied)                                     *
#*********************************************************************
 4 = maxjetflavor    ! Maximum jet pdg code
#*********************************************************************
# Jet measure cuts                                                   *
#*********************************************************************
 0.0   = xqcut   ! minimum kt jet measure between partons
#*********************************************************************
#
#*********************************************************************
# Store info for systematics studies                                 *
# WARNING: If use_syst is T, matched Pythia output is                *
#          meaningful ONLY if plotted taking matchscale              *
#          reweighting into account!                                 *
#*********************************************************************
#    False  = use_syst      ! Enable systematics studies # Commented out by MadMiner
#
#**************************************
# Parameter of the systematics study
#  will be used by SysCalc (if installed)
#**************************************                                  
#
0.5 1 2 = sys_scalefact  # factorization/renormalization scale factor
None = sys_alpsfact  # \alpha_s emission scale factors
30 50 = sys_matchscale # variation of merging scale
# PDF sets and number of members (0 or none for all members).
NNPDF23_lo_as_0130_qed = sys_pdf # matching scales
# MSTW2008nlo68cl.LHgrid 1  = sys_pdf


#*********************************************************************
# MadMiner systematics setup                                         *
#*********************************************************************
True = use_syst
systematics = systematics_program
['--pdf=90900'] = systematics_arguments
]]>
</MGRunCard>
<slha>
######################################################################
## PARAM_CARD AUTOMATICALY GENERATED BY MG5 FOLLOWING UFO MODEL   ####
######################################################################
##                                                                  ##
##  Width set on Auto will be computed following the information    ##
##        present in the decay.py files of the model.               ##
##        See  arXiv:1402.1178 for more details.                    ##
##                                                                  ##
######################################################################

###################################
## INFORMATION FOR CKMBLOCK
###################################
Block ckmblock 
    1 2.277360e-01 # cabi 

###################################
## INFORMATION FOR MASS
###################################
Block mass 
    5 4.700000e+00 # MB 
    6 1.720000e+02 # MT 
   15 1.777000e+00 # MTA 
   23 9.118760e+01 # MZ 
   25 1.250000e+02 # MH 
## Dependent parameters, given by model restrictions.
## Those values should be edited following the 
## analytical expression. MG5 ignores those values 
## but they are important for interfacing the output of MG5
## to external program such as Pythia.
  1 0.000000 # d : 0.0 
  2 0.000000 # u : 0.0 
  3 0.000000 # s : 0.0 
  4 0.000000 # c : 0.0 
  11 0.000000 # e- : 0.0 
  12 0.000000 # ve : 0.0 
  13 0.000000 # mu- : 0.0 
  14 0.000000 # vm : 0.0 
  16 0.000000 # vt : 0.0 
  21 0.000000 # g : 0.0 
  22 0.000000 # a : 0.0 
  24 79.824360 # w+ : cmath.sqrt(MZ__exp__2/2. + cmath.sqrt(MZ__exp__4/4. - (aEW*cmath.pi*MZ__exp__2)/(Gf*sqrt__2))) 

###################################
## INFORMATION FOR OBLIQUE
###################################
Block oblique 
    1    0.0    # MadMiner
    2    0.0    # MadMiner

###################################
## INFORMATION FOR SMINPUTS
###################################
Block sminputs 
    1 1.279000e+02 # aEWM1 
    2 1.166370e-05 # Gf 
    3 1.184000e-01 # aS 

###################################
## INFORMATION FOR YUKAWA
###################################
Block yukawa 
    5 4.700000e+00 # ymb 
    6 1.720000e+02 # ymt 
   15 1.777000e+00 # ymtau 

###################################
## INFORMATION FOR DECAY
###################################
DECAY   6 1.508336e+00 # WT 
DECAY  23 2.495200e+00 # WZ 
DECAY  24 2.085000e+00 # WW 
DECAY  25 4.070000e-03 # WH 
## Dependent parameters, given by model restrictions.
## Those values should be edited following the 
## analytical expression. MG5 ignores those values 
## but they are important for interfacing the output of MG5
## to external program such as Pythia.
DECAY  1 0.000000 # d : 0.0 
DECAY  2 0.000000 # u : 0.0 
DECAY  3 0.000000 # s : 0.0 
DECAY  4 0.000000 # c : 0.0 
DECAY  5 0.000000 # b : 0.0 
DECAY  11 0.000000 # e- : 0.0 
DECAY  12 0.000000 # ve : 0.0 
DECAY  13 0.000000 # mu- : 0.0 
DECAY  14 0.000000 # vm : 0.0 
DECAY  15 0.000000 # ta- : 0.0 
DECAY  16 0.000000 # vt : 0.0 
DECAY  21 0.000000 # g : 0.0 
DECAY  22 0.000000 # a : 0.0
</slha>
<initrwgt>
<weightgroup name='mg_reweighting' weight_name_strategy='includeIdInWeightName'>
<weight id='morphing_basis_vector_1'>set param_card oblique 1 -0.06391685 # orig: 0.0
set param_card oblique 2 -0.08653588 # orig: 0.0
</weight>
<weight id='morphing_basis_vector_2'>set param_card oblique 1 0.0342439 # orig: 0.0
set param_card oblique 2 -0.09831893 # orig: 0.0
</weight>
<weight id='morphing_basis_vector_3'>set param_card oblique 1 -0.08145691 # orig: 0.0
set param_card oblique 2 0.09700122 # orig: 0.0
</weight>
<weight id='morphing_basis_vector_4'>set param_card oblique 1 0.09132942 # orig: 0.0
set param_card oblique 2 -0.005442744 # orig: 0.0
</weight>
<weight id='morphing_basis_vector_5'>set param_card oblique 1 0.08535809 # orig: 0.0
set param_card oblique 2 0.08156918 # orig: 0.0
</weight>
</weightgroup>
</initrwgt>
<MGGenerationInfo>
#  Number of Events        :       1000
#  Integrated weight (pb)  :       7.6845e-08
</MGGenerationInfo>
</header>
<init>
2212 2212 6.500000e+03 6.500000e+03 0 0 90900 90900 -3 1
7.684500e-08 3.884459e-10 7.684500e-11 1
<generator name='MadGraph5_aMC@NLO' version='2.6.4'>please cite 1405.0301 </generator>
</init>
<event>
 4      1 +7.6845000e-11 4.73403400e+03 7.81860800e-03 7.42222700e-02
        2 -1    0    0  501    0 +0.0000000000e+00 +0.0000000000e+00 +2.5668604685e+03 2.5668604685e+03 0.0000000000e+00 0.0000e+00 -1.0000e+00
       -2 -1    0    0    0  501 -0.0000000000e+00 -0.0000000000e+00 -2.1827324973e+03 2.1827324973e+03 0.0000000000e+00 0.0000e+00 1.0000e+00
      -13  1    1    2    0    0 +9.6004006184e+02 -1.3999192106e+03 -1.4629998134e+03 2.2409415812e+03 0.0000000000e+00 0.0000e+00 1.0000e+00
       13  1    1    2    0    0 -9.6004006184e+02 +1.3999192106e+03 +1.8471277846e+03 2.5086513845e+03 0.0000000000e+00 0.0000e+00 -1.0000e+00
<mgrwt>
<rscale>  0 0.47340341E+04</rscale>
<asrwt>0</asrwt>
<pdfrwt beam="1">  1        2 0.39490161E+00 0.47340341E+04</pdfrwt>
<pdfrwt beam="2">  1       -2 0.33580500E+00 0.47340341E+04</pdfrwt>
<totfact> 0.40473896E-02</totfact>
</mgrwt>
<rwgt>
<wgt id='morphing_basis_vector_1'> +5.2365517e-06 </wgt>
<wgt id='morphing_basis_vector_2'> +3.5695199e-06 </wgt>
<wgt id='morphing_basis_vector_3'> +5.7675369e-06 </wgt>
<wgt id='morphing_basis_vector_4'> +4.1443129e-06 </wgt>
<wgt id='morphing_basis_vector_5'> +6.6291527e-06 </wgt>
</rwgt>
</event>
<event>
 4      1 +7.6845000e-11 5.00998500e+03 7.81860800e-03 7.38318000e-02
        2 -1    0    0  501    0 +0.0000000000e+00 +0.0000000000e+00 +4.2724371266e+03 4.2724371266e+03 0.0000000000e+00 0.0000e+00 -1.0000e+00
       -2 -1    0    0    0  501 -0.0000000000e+00 -0.0000000000e+00 -1.4687138844e+03 1.4687138844e+03 0.0000000000e+00 0.0000e+00 1.0000e+00
      -13  1    1    2    0    0 -1.4344410764e+02 +8.6357862494e+02 -1.2877208579e+03 1.5571028423e+03 0.0000000000e+00 0.0000e+00 1.0000e+00
       13  1    1    2    0    0 +1.4344410764e+02 -8.6357862494e+02 +4.0914441001e+03 4.1840481687e+03 0.0000000000e+00 0.0000e+00 -1.0000e+00
<mgrwt>
<rscale>  0 0.50099851E+04</rscale>
<asrwt>0</asrwt>
<pdfrwt beam="1">  1        2 0.65729801E+00 0.50099851E+04</pdfrwt>
<pdfrwt beam="2">  1       -2 0.22595598E+00 0.50099851E+04</pdfrwt>
<totfact> 0.12302080E-02</totfact>
</mgrwt>
<rwgt>
<wgt id='morphing_basis_vector_1'> +6.5551054e-06 </wgt>
<wgt id='morphing_basis_vector_2'> +4.4518788e-06 </wgt>
<wgt id='morphing_basis_vector_3'> +7.2208210e-06 </wgt>
<wgt id='morphing_basis_vector_4'> +5.2198222e-06 </wgt>
<wgt id='morphing_basis_vector_5'> +8.3230803e-06 </wgt>
</rwgt>
</event>
<event>
 4      1 +7.6845000e-11 4.81598600e+03 7.81860800e-03 7.41035800e-02
        2 -1    0    0  501    0 +0.0000000000e+00 +0.0000000000e+00 +2.8503532979e+03 2.8503532979e+03 0.0000000000e+00 0.0000e+00 -1.0000e+00
       -2 -1    0    0    0  501 -0.0000000000e+00 -0.0000000000e+00 -2.0342845077e+03 2.0342845077e+03 0.0000000000e+00 0.0000e+00 1.0000e+00
      -13  1    1    2    0    0 -1.3227598294e+03 -1.4461427946e+03 -1.0109830919e+03 2.2052458731e+03 0.0000000000e+00 0.0000e+00 1.0000e+00
       13  1    1    2    0    0 +1.3227598294e+03 +1.4461427946e+03 +1.8270518821e+03 2.6793919326e+03 0.0000000000e+00 0.0000e+00 -1.0000e+00
<mgrwt>
<rscale>  0 0.48159857E+04</rscale>
<asrwt>0</asrwt>
<pdfrwt beam="1">  1        2 0.43851589E+00 0.48159857E+04</pdfrwt>
<pdfrwt beam="2">  1       -2 0.31296685E+00 0.48159857E+04</pdfrwt>
<totfact> 0.38060860E-02</totfact>
</mgrwt>
<rwgt>
<wgt id='morphing_basis_vector_1'> +5.6159655e-06 </wgt>
<wgt id='morphing_basis_vector_2'> +3.8482800e-06 </wgt>
<wgt id='morphing_basis_vector_3'> +6.1913548e-06 </wgt>
<wgt id='morphing_basis_vector_4'> +4.4213965e-06 </wgt>
<wgt id='morphing_basis_vector_5'> +7.1003926e-06 </wgt>
</rwgt>
</event>
<event>
 4      1 +7.6845000e-11 5.16046800e+03 7.81860800e-03 7.36294900e-02
        2 -1    0    0  501    0 +0.0000000000e+00 +0.0000000000e+00 +3.2588956938e+03 3.2588956938e+03 0.0000000000e+00 0.0000e+00 -1.0000e+00
       -2 -1    0    0    0  501 -0.0000000000e+00 -0.0000000000e+00 -2.0429026408e+03 2.0429026408e+03 0.0000000000e+00 0.0000e+00 1.0000e+00
      -13  1    1    2    0    0 -1.5603655061e+03 -3.7948038730e+02 -1.4669341078e+03 2.1750038055e+03 0.0000000000e+00 0.0000e+00 1.0000e+00
       13  1    1    2    0    0 +1.5603655061e+03 +3.7948038730e+02 +2.6829271608e+03 3.1267945291e+03 0.0000000000e+00 0.0000e+00 -1.0000e+00
<mgrwt>
<rscale>  0 0.51604677E+04</rscale>
<asrwt>0</asrwt>
<pdfrwt beam="1">  1        2 0.50136857E+00 0.51604677E+04</pdfrwt>
<pdfrwt beam="2">  1       -2 0.31429271E+00 0.51604677E+04</pdfrwt>
<totfact> 0.19513152E-02</totfact>
</mgrwt>
<rwgt>
<wgt id='morphing_basis_vector_1'> +7.3802496e-06 </wgt>
<wgt id='morphing_basis_vector_2'> +5.0227861e-06 </wgt>
<wgt id='morphing_basis_vector_3'> +8.1347900e-06 </wgt>
<wgt id='morphing_basis_vector_4'> +5.8690241e-06 </wgt>
<wgt id='morphing_basis_vector_5'> +9.3716886e-06 </wgt>
</rwgt>
</event>
<event>
 4      1 +7.6845000e-11 4.95388100e+03 7.81860800e-03 7.39091000e-02
        2 -1    0    0  501    0 +0.0000000000e+00 +0.0000000000e+00 +4.2464561538e+03 4.2464561538e+03 0.0000000000e+00 0.0000e+00 -1.0000e+00
       -2 -1    0    0    0  501 -0.0000000000e+00 -0.0000000000e+00 -1.4447894975e+03 1.4447894975e+03 0.0000000000e+00 0.0000e+00 1.0000e+00
      -13  1    1    2    0    0 -3.0447743268e+02 -2.0811603799e+03 -1.0204848401e+02 2.1057893833e+03 0.0000000000e+00 0.0000e+00 1.0000e+00
       13  1    1    2    0    0 +3.0447743268e+02 +2.0811603799e+03 +2.9037151402e+03 3.5854562680e+03 0.0000000000e+00 0.0000e+00 -1.0000e+00
<mgrwt>
<rscale>  0 0.49538814E+04</rscale>
<asrwt>0</asrwt>
<pdfrwt beam="1">  1        2 0.65330094E+00 0.49538814E+04</pdfrwt>
<pdfrwt beam="2">  1       -2 0.22227531E+00 0.49538814E+04</pdfrwt>
<totfact> 0.13876338E-02</totfact>
</mgrwt>
<rwgt>
<wgt id='morphing_basis_vector_1'> +6.2912001e-06 </wgt>
<wgt id='morphing_basis_vector_2'> +4.3261992e-06 </wgt>
<wgt id='morphing_basis_vector_3'> +6.9415926e-06 </wgt>
<wgt id='morphing_basis_vector_4'> +4.9383130e-06 </wgt>
<wgt id='morphing_basis_vector_5'> +7.9510658e-06 </wgt>
</rwgt>
</event>
<event>
 4      1 +7.6845000e-11 4.91224800e+03 7.81860800e-03 7.39671400e-02
        2 -1    0    0  501    0 +0.0000000000e+00 +0.0000000000e+00 +3.0470429401e+03 3.0470429401e+03 0.0000000000e+00 0.0000e+00 1.0000e+00
       -2 -1    0    0    0  501 -0.0000000000e+00 -0.0000000000e+00 -1.9798028325e+03 1.9798028325e+03 0.0000000000e+00 0.0000e+00 -1.0000e+00
      -13  1    1    2    0    0 -2.1863308000e+03 -1.0966731523e+03 +7.6200791988e+02 2.5619114817e+03 0.0000000000e+00 0.0000e+00 -1.0000e+00
       13  1    1    2    0    0 +2.1863308000e+03 +1.0966731523e+03 +3.0523218771e+02 2.4649342909e+03 0.0000000000e+00 0.0000e+00 1.0000e+00
<mgrwt>
<rscale>  0 0.49122476E+04</rscale>
<asrwt>0</asrwt>
<pdfrwt beam="1">  1        2 0.46877584E+00 0.49122476E+04</pdfrwt>
<pdfrwt beam="2">  1       -2 0.30458505E+00 0.49122476E+04</pdfrwt>
<totfact> 0.32091294E-02</totfact>
</mgrwt>
<rwgt>
<wgt id='morphing_basis_vector_1'> +6.3673792e-06 </wgt>
<wgt id='morphing_basis_vector_2'> +5.0178039e-06 </wgt>
<wgt id='morphing_basis_vector_3'> +7.1722806e-06 </wgt>
<wgt id='morphing_basis_vector_4'> +4.1683411e-06 </wgt>
<wgt id='morphing_basis_vector_5'> +7.6355378e-06 </wgt>
</rwgt>
</event>
<event>
 4      1 +7.6845000e-11 4.90144100e+03 7.81860800e-03 7.39823000e-02
        2 -1    0    0  501    0 +0.0000000000e+00 +0.0000000000e+00 +3.5586680503e+03 3.5586680503e+03 0.0000000000e+00 0.0000e+00 -1.0000e+00
       -2 -1    0    0    0  501 -0.0000000000e+00 -0.0000000000e+00 -1.6877191315e+03 1.6877191315e+03 0.0000000000e+00 0.0000e+00 1.0000e+00
      -13  1    1    2    0    0 -1.3547868108e+02 +1.9115365971e+03 -6.9968285955e+02 2.0400692976e+03 0.0000000000e+00 0.0000e+00 1.0000e+00
       13  1    1    2    0    0 +1.3547868108e+02 -1.9115365971e+03 +2.5706317783e+03 3.2063178842e+03 0.0000000000e+00 0.0000e+00 -1.0000e+00
<mgrwt>
<rscale>  0 0.49014415E+04</rscale>
<asrwt>0</asrwt>
<pdfrwt beam="1">  1        2 0.54748739E+00 0.49014415E+04</pdfrwt>
<pdfrwt beam="2">  1       -2 0.25964910E+00 0.49014415E+04</pdfrwt>
<totfact> 0.28488555E-02</totfact>
</mgrwt>
<rwgt>
<wgt id='morphing_basis_vector_1'> +6.0198599e-06 </wgt>
<wgt id='morphing_basis_vector_2'> +4.1167104e-06 </wgt>
<wgt id='morphing_basis_vector_3'> +6.6361019e-06 </wgt>
<wgt id='morphing_basis_vector_4'> +4.7532127e-06 </wgt>
<wgt id='morphing_basis_vector_5'> +7.6204364e-06 </wgt>
</rwgt>
</event>
<event>
 4      1 +7.6845000e-11 4.91774300e+03 7.81860800e-03 7.39594500e-02
        2 -1    0    0  501    0 +0.0000000000e+00 +0.0000000000e+00 +2.5959709368e+03 2.5959709368e+03 0.0000000000e+00 0.0000e+00 -1.0000e+00
       -2 -1    0    0    0  501 -0.0000000000e+00 -0.0000000000e+00 -2.3290122624e+03 2.3290122624e+03 0.0000000000e+00 0.0000e+00 1.0000e+00
      -13  1    1    2    0    0 +9.6018259711e+02 +1.9729619141e+03 -9.7789274213e+02 2.4022496850e+03 0.0000000000e+00 0.0000e+00 1.0000e+00
       13  1    1    2    0    0 -9.6018259711e+02 -1.9729619141e+03 +1.2448514166e+03 2.5227335142e+03 0.0000000000e+00 0.0000e+00 -1.0000e+00
<mgrwt>
<rscale>  0 0.49177426E+04</rscale>
<asrwt>0</asrwt>
<pdfrwt beam="1">  1        2 0.39938014E+00 0.49177426E+04</pdfrwt>
<pdfrwt beam="2">  1       -2 0.35830958E+00 0.49177426E+04</pdfrwt>
<totfact> 0.27360906E-02</totfact>
</mgrwt>
<rwgt>
<wgt id='morphing_basis_vector_1'> +6.1217527e-06 </wgt>
<wgt id='morphing_basis_vector_2'> +4.2353603e-06 </wgt>
<wgt id='morphing_basis_vector_3'> +6.7599738e-06 </wgt>
<wgt id='morphing_basis_vector_4'> +4.7707822e-06 </wgt>
<wgt id='morphing_basis_vector_5'> +7.7187859e-06 </wgt>
</rwgt>
</event>
<event>
 4      1 +7.6845000e-11 4.88577400e+03 7.81860800e-03 7.40043500e-02
        2 -1    0    0  501    0 +0.0000000000e+00 +0.0000000000e+00 +3.2138226071e+03 3.2138226071e+03 0.0000000000e+00 0.0000e+00 -1.0000e+00
       -2 -1    0    0    0  501 -0.0000000000e+00 -0.0000000000e+00 -1.8568844967e+03 1.8568844967e+03 0.0000000000e+00 0.0000e+00 1.0000e+00
      -13  1    1    2    0    0 +7.6478335685e+02 -1.0029945090e+03 -1.4928006498e+03 1.9543145469e+03 0.0000000000e+00 0.0000e+00 1.0000e+00
       13  1    1    2    0    0 -7.6478335685e+02 +1.0029945090e+03 +2.8497387602e+03 3.1163925570e+03 0.0000000000e+00 0.0000e+00 -1.0000e+00
<mgrwt>
<rscale>  0 0.48857742E+04</rscale>
<asrwt>0</asrwt>
<pdfrwt beam="1">  1        2 0.49443425E+00 0.48857742E+04</pdfrwt>
<pdfrwt beam="2">  1       -2 0.28567454E+00 0.48857742E+04</pdfrwt>
<totfact> 0.33354530E-02</totfact>
</mgrwt>
<rwgt>
<wgt id='morphing_basis_vector_1'> +5.9320009e-06 </wgt>
<wgt id='morphing_basis_vector_2'> +4.0305673e-06 </wgt>
<wgt id='morphing_basis_vector_3'> +6.5330011e-06 </wgt>
<wgt id='morphing_basis_vector_4'> +4.7170640e-06 </wgt>
<wgt id='morphing_basis_vector_5'> +7.5252051e-06 </wgt>
</rwgt>
</event>
<event>
 4      1 +7.6845000e-11 5.28942700e+03 7.81860800e-03 7.34616600e-02
        2 -1    0    0  501    0 +0.0000000000e+00 +0.0000000000e+00 +3.4928909953e+03 3.4928909953e+03 0.0000000000e+00 0.0000e+00 1.0000e+00
       -2 -1    0    0    0  501 -0.0000000000e+00 -0.0000000000e+00 -2.0024985641e+03 2.0024985641e+03 0.0000000000e+00 0.0000e+00 -1.0000e+00
      -13  1    1    2    0    0 +7.7880870568e+01 +2.4678029895e+03 +1.7299390892e+03 3.0147647134e+03 0.0000000000e+00 0.0000e+00 -1.0000e+00
       13  1    1    2    0    0 -7.7880870568e+01 -2.4678029895e+03 -2.3954665794e+02 2.4806248460e+03 0.0000000000e+00 0.0000e+00 1.0000e+00
<mgrwt>
<rscale>  0 0.52894269E+04</rscale>
<asrwt>0</asrwt>
<pdfrwt beam="1">  1        2 0.53736785E+00 0.52894269E+04</pdfrwt>
<pdfrwt beam="2">  1       -2 0.30807670E+00 0.52894269E+04</pdfrwt>
<totfact> 0.14503766E-02</totfact>
</mgrwt>
<rwgt>
<wgt id='morphing_basis_vector_1'> +9.1368221e-06 </wgt>
<wgt id='morphing_basis_vector_2'> +8.4593915e-06 </wgt>
<wgt id='morphing_basis_vector_3'> +1.0593930e-05 </wgt>
<wgt id='morphing_basis_vector_4'> +4.3608445e-06 </wgt>
<wgt id='morphing_basis_vector_5'> +1.0169298e-05 </wgt>
</rwgt>
</event>
<event>
 4      1 +7.6845000e-11 5.20885000e+03 7.81860800e-03 7.35659400e-02
        2 -1    0    0  501    0 +0.0000000000e+00 +0.0000000000e+00 +2.0913900106e+03 2.0913900106e+03 0.0000000000e+00 0.0000e+00 1.0000e+00
       -2 -1    0    0    0  501 -0.0000000000e+00 -0.0000000000e+00 -3.2433118821e+03 3.2433118821e+03 0.0000000000e+00 0.0000e+00 -1.0000e+00
      -13  1    1    2    0    0 +1.5860677987e+03 -3.8957938706e+02 -2.6536824806e+03 3.1159932395e+03 0.0000000000e+00 0.0000e+00 -1.0000e+00
       13  1    1    2    0    0 -1.5860677987e+03 +3.8957938706e+02 +1.5017606090e+03 2.2187086532e+03 0.0000000000e+00 0.0000e+00 1.0000e+00
<mgrwt>
<rscale>  0 0.52088502E+04</rscale>
<asrwt>0</asrwt>
<pdfrwt beam="1">  1        2 0.32175231E+00 0.52088502E+04</pdfrwt>
<pdfrwt beam="2">  1       -2 0.49897106E+00 0.52088502E+04</pdfrwt>
<totfact> 0.57514826E-03</totfact>
</mgrwt>
<rwgt>
<wgt id='morphing_basis_vector_1'> +7.6602526e-06 </wgt>
<wgt id='morphing_basis_vector_2'> +5.2141213e-06 </wgt>
<wgt id='morphing_basis_vector_3'> +8.4444168e-06 </wgt>
<wgt id='morphing_basis_vector_4'> +6.0925066e-06 </wgt>
<wgt id='morphing_basis_vector_5'> +9.7291615e-06 </wgt>
</rwgt>
</event>
<event>
 4      1 +7.6845000e-11 4.98219600e+03 7.81860800e-03 7.38699600e-02
        2 -1    0    0  501    0 +0.0000000000e+00 +0.0000000000e+00 +4.0494770581e+03 4.0494770581e+03 0.0000000000e+00 0.0000e+00 -1.0000e+00
       -2 -1    0    0    0  501 -0.0000000000e+00 -0.0000000000e+00 -1.5324372897e+03 1.5324372897e+03 0.0000000000e+00 0.0000e+00 1.0000e+00
      -13  1    1    2    0    0 -9.2626155832e+02 -8.7007998100e+02 -1.1419466321e+03 1.7085203418e+03 0.0000000000e+00 0.0000e+00 1.0000e+00
       13  1    1    2    0    0 +9.2626155832e+02 +8.7007998100e+02 +3.6589864004e+03 3.8733940060e+03 0.0000000000e+00 0.0000e+00 -1.0000e+00
<mgrwt>
<rscale>  0 0.49821962E+04</rscale>
<asrwt>0</asrwt>
<pdfrwt beam="1">  1        2 0.62299647E+00 0.49821962E+04</pdfrwt>
<pdfrwt beam="2">  1       -2 0.23575959E+00 0.49821962E+04</pdfrwt>
<totfact> 0.16733237E-02</totfact>
</mgrwt>
<rwgt>
<wgt id='morphing_basis_vector_1'> +6.4125470e-06 </wgt>
<wgt id='morphing_basis_vector_2'> +4.3575845e-06 </wgt>
<wgt id='morphing_basis_vector_3'> +7.0639293e-06 </wgt>
<wgt id='morphing_basis_vector_4'> +5.1020538e-06 </wgt>
<wgt id='morphing_basis_vector_5'> +8.1391578e-06 </wgt>
</rwgt>
</event>
<event>
 4      1 +7.6845000e-11 5.47201300e+03 7.81860800e-03 7.32322500e-02
        2 -1    0    0  501    0 +0.0000000000e+00 +0.0000000000e+00 +2.5982079566e+03 2.5982079566e+03 0.0000000000e+00 0.0000e+00 1.0000e+00
       -2 -1    0    0    0  501 -0.0000000000e+00 -0.0000000000e+00 -2.8811135257e+03 2.8811135257e+03 0.0000000000e+00 0.0000e+00 -1.0000e+00
      -13  1    1    2    0    0 +1.3059627261e+03 +3.2661387103e+02 -2.5265485430e+03 2.8628068050e+03 0.0000000000e+00 0.0000e+00 -1.0000e+00
       13  1    1    2    0    0 -1.3059627261e+03 -3.2661387103e+02 +2.2436429738e+03 2.6165146773e+03 0.0000000000e+00 0.0000e+00 1.0000e+00
<mgrwt>
<rscale>  0 0.54720132E+04</rscale>
<asrwt>0</asrwt>
<pdfrwt beam="1">  1        2 0.39972430E+00 0.54720132E+04</pdfrwt>
<pdfrwt beam="2">  1       -2 0.44324823E+00 0.54720132E+04</pdfrwt>
<totfact> 0.72345091E-03</totfact>
</mgrwt>
<rwgt>
<wgt id='morphing_basis_vector_1'> +9.3202713e-06 </wgt>
<wgt id='morphing_basis_vector_2'> +6.3371072e-06 </wgt>
<wgt id='morphing_basis_vector_3'> +1.0277710e-05 </wgt>
<wgt id='morphing_basis_vector_4'> +7.4328474e-06 </wgt>
<wgt id='morphing_basis_vector_5'> +1.1856629e-05 </wgt>
</rwgt>
</event>
<event>
 4      1 +7.6845000e-11 4.75656400e+03 7.81860800e-03 7.41894000e-02
        2 -1    0    0  501    0 +0.0000000000e+00 +0.0000000000e+00 +2.5011121133e+03 2.5011121133e+03 0.0000000000e+00 0.0000e+00 1.0000e+00
       -2 -1    0    0    0  501 -0.0000000000e+00 -0.0000000000e+00 -2.2614844798e+03 2.2614844798e+03 0.0000000000e+00 0.0000e+00 -1.0000e+00
      -13  1    1    2    0    0 -3.2403102895e+02 -1.9429286269e+03 -1.2146398415e+03 2.3141559372e+03 0.0000000000e+00 0.0000e+00 -1.0000e+00
       13  1    1    2    0    0 +3.2403102895e+02 +1.9429286269e+03 +1.4542674751e+03 2.4484406560e+03 0.0000000000e+00 0.0000e+00 1.0000e+00
<mgrwt>
<rscale>  0 0.47565644E+04</rscale>
<asrwt>0</asrwt>
<pdfrwt beam="1">  1        2 0.38478648E+00 0.47565644E+04</pdfrwt>
<pdfrwt beam="2">  1       -2 0.34792069E+00 0.47565644E+04</pdfrwt>
<totfact> 0.36875593E-02</totfact>
</mgrwt>
<rwgt>
<wgt id='morphing_basis_vector_1'> +5.3467955e-06 </wgt>
<wgt id='morphing_basis_vector_2'> +3.6678535e-06 </wgt>
<wgt id='morphing_basis_vector_3'> +5.8946307e-06 </wgt>
<wgt id='morphing_basis_vector_4'> +4.2023192e-06 </wgt>
<wgt id='morphing_basis_vector_5'> +6.7548870e-06 </wgt>
</rwgt>
</event>
<event>
 4      1 +7.6845000e-11 5.18981900e+03 7.81860800e-03 7.35908500e-02
        2 -1    0    0  501    0 +0.0000000000e+00 +0.0000000000e+00 +4.3446951998e+03 4.3446951998e+03 0.0000000000e+00 0.0000e+00 -1.0000e+00
       -2 -1    0    0    0  501 -0.0000000000e+00 -0.0000000000e+00 -1.5498334736e+03 1.5498334736e+03 0.0000000000e+00 0.0000e+00 1.0000e+00
      -13  1    1    2    0    0 -2.0941048160e+03 -1.3987108874e+03 +2.1084434697e+03 3.2843874607e+03 0.0000000000e+00 0.0000e+00 1.0000e+00
       13  1    1    2    0    0 +2.0941048160e+03 +1.3987108874e+03 +6.8641825651e+02 2.6101412126e+03 0.0000000000e+00 0.0000e+00 -1.0000e+00
<mgrwt>
<rscale>  0 0.51898185E+04</rscale>
<asrwt>0</asrwt>
<pdfrwt beam="1">  1        2 0.66841464E+00 0.51898185E+04</pdfrwt>
<pdfrwt beam="2">  1       -2 0.23843592E+00 0.51898185E+04</pdfrwt>
<totfact> 0.84583945E-03</totfact>
</mgrwt>
<rwgt>
<wgt id='morphing_basis_vector_1'> +8.1817401e-06 </wgt>
<wgt id='morphing_basis_vector_2'> +6.9956263e-06 </wgt>
<wgt id='morphing_basis_vector_3'> +9.3496140e-06 </wgt>
<wgt id='morphing_basis_vector_4'> +4.6547997e-06 </wgt>
<wgt id='morphing_basis_vector_5'> +9.4741673e-06 </wgt>
</rwgt>
</event>
<event>
 4      1 +7.6845000e-11 4.65962200e+03 7.81860800e-03 7.43321700e-02
        2 -1    0    0  501    0 +0.0000000000e+00 +0.0000000000e+00 +2.5919435638e+03 2.5919435638e+03 0.0000000000e+00 0.0000e+00 1.0000e+00
       -2 -1    0    0    0  501 -0.0000000000e+00 -0.0000000000e+00 -2.0941889457e+03 2.0941889457e+03 0.0000000000e+00 0.0000e+00 -1.0000e+00
      -13  1    1    2    0    0 +5.1441885763e+02 -5.4741527969e+02 -1.9690564202e+03 2.1074803523e+03 0.0000000000e+00 0.0000e+00 -1.0000e+00
       13  1    1    2    0    0 -5.1441885763e+02 +5.4741527969e+02 +2.4668110382e+03 2.5786521572e+03 0.0000000000e+00 0.0000e+00 1.0000e+00
<mgrwt>
<rscale>  0 0.46596221E+04</rscale>
<asrwt>0</asrwt>
<pdfrwt beam="1">  1        2 0.39876055E+00 0.46596221E+04</pdfrwt>
<pdfrwt beam="2">  1       -2 0.32218292E+00 0.46596221E+04</pdfrwt>
<totfact> 0.48352167E-02</totfact>
</mgrwt>
<rwgt>
<wgt id='morphing_basis_vector_1'> +4.9099250e-06 </wgt>
<wgt id='morphing_basis_vector_2'> +3.3323554e-06 </wgt>
<wgt id='morphing_basis_vector_3'> +5.4033787e-06 </wgt>
<wgt id='morphing_basis_vector_4'> +3.9021943e-06 </wgt>
<wgt id='morphing_basis_vector_5'> +6.2217660e-06 </wgt>
</rwgt>
</event>
<event>
 4      1 +7.6845000e-11 4.68972200e+03 7.81860800e-03 7.42874700e-02
        2 -1    0    0  501    0 +0.0000000000e+00 +0.0000000000e+00 +2.7185155442e+03 2.7185155442e+03 0.0000000000e+00 0.0000e+00 1.0000e+00
       -2 -1    0    0    0  501 -0.0000000000e+00 -0.0000000000e+00 -2.0225641094e+03 2.0225641094e+03 0.0000000000e+00 0.0000e+00 -1.0000e+00
      -13  1    1    2    0    0 +2.3176441176e+03 +3.0630984602e+02 +5.3182434036e+02 2.3975272901e+03 0.0000000000e+00 0.0000e+00 -1.0000e+00
       13  1    1    2    0    0 -2.3176441176e+03 -3.0630984602e+02 +1.6412709438e+02 2.3435523636e+03 0.0000000000e+00 0.0000e+00 1.0000e+00
<mgrwt>
<rscale>  0 0.46897215E+04</rscale>
<asrwt>0</asrwt>
<pdfrwt beam="1">  1        2 0.41823316E+00 0.46897215E+04</pdfrwt>
<pdfrwt beam="2">  1       -2 0.31116371E+00 0.46897215E+04</pdfrwt>
<totfact> 0.47789897E-02</totfact>
</mgrwt>
<rwgt>
<wgt id='morphing_basis_vector_1'> +5.2815212e-06 </wgt>
<wgt id='morphing_basis_vector_2'> +4.1358278e-06 </wgt>
<wgt id='morphing_basis_vector_3'> +5.9391694e-06 </wgt>
<wgt id='morphing_basis_vector_4'> +3.4854335e-06 </wgt>
<wgt id='morphing_basis_vector_5'> +6.3412506e-06 </wgt>
</rwgt>
</event>
<event>
 4      1 +7.6845000e-11 4.92282700e+03 7.81860800e-03 7.39523400e-02
        2 -1    0    0  501    0 +0.0000000000e+00 +0.0000000000e+00 +2.9396063235e+03 2.9396063235e+03 0.0000000000e+00 0.0000e+00 1.0000e+00
       -2 -1    0    0    0  501 -0.0000000000e+00 -0.0000000000e+00 -2.0610096897e+03 2.0610096897e+03 0.0000000000e+00 0.0000e+00 -1.0000e+00
      -13  1    1    2    0    0 +2.2932575884e+02 +1.7039498625e+03 -1.3499322986e+03 2.1859443379e+03 0.0000000000e+00 0.0000e+00 -1.0000e+00
       13  1    1    2    0    0 -2.2932575884e+02 -1.7039498625e+03 +2.2285289324e+03 2.8146716754e+03 0.0000000000e+00 0.0000e+00 1.0000e+00
<mgrwt>
<rscale>  0 0.49228273E+04</rscale>
<asrwt>0</asrwt>
<pdfrwt beam="1">  1        2 0.45224713E+00 0.49228273E+04</pdfrwt>
<pdfrwt beam="2">  1       -2 0.31707841E+00 0.49228273E+04</pdfrwt>
<totfact> 0.31076216E-02</totfact>
</mgrwt>
<rwgt>
<wgt id='morphing_basis_vector_1'> +6.1187259e-06 </wgt>
<wgt id='morphing_basis_vector_2'> +4.1697731e-06 </wgt>
<wgt id='morphing_basis_vector_3'> +6.7420767e-06 </wgt>
<wgt id='morphing_basis_vector_4'> +4.8508766e-06 </wgt>
<wgt id='morphing_basis_vector_5'> +7.7559141e-06 </wgt>
</rwgt>
</event>
<event>
 4      1 +7.6845000e-11 5.31514600e+03 7.81860800e-03 7.34287800e-02
        2 -1    0    0  501    0 +0.0000000000e+00 +0.0000000000e+00 +2.3927287461e+03 2.3927287461e+03 0.0000000000e+00 0.0000e+00 -1.0000e+00
       -2 -1    0    0    0  501 -0.0000000000e+00 -0.0000000000e+00 -2.9517318575e+03 2.9517318575e+03 0.0000000000e+00 0.0000e+00 1.0000e+00
      -13  1    1    2    0    0 +1.7050378188e+03 +1.9890761721e+03 -7.2818643597e+02 2.7191604343e+03 0.0000000000e+00 0.0000e+00 1.0000e+00
       13  1    1    2    0    0 -1.7050378188e+03 -1.9890761721e+03 +1.6918332454e+02 2.6253001693e+03 0.0000000000e+00 0.0000e+00 -1.0000e+00
<mgrwt>
<rscale>  0 0.53151458E+04</rscale>
<asrwt>0</asrwt>
<pdfrwt beam="1">  1        2 0.36811212E+00 0.53151458E+04</pdfrwt>
<pdfrwt beam="2">  1       -2 0.45411259E+00 0.53151458E+04</pdfrwt>
<totfact> 0.81592725E-03</totfact>
</mgrwt>
<rwgt>
<wgt id='morphing_basis_vector_1'> +8.4607379e-06 </wgt>
<wgt id='morphing_basis_vector_2'> +6.1157028e-06 </wgt>
<wgt id='morphing_basis_vector_3'> +9.4116192e-06 </wgt>
<wgt id='morphing_basis_vector_4'> +6.2700343e-06 </wgt>
<wgt id='morphing_basis_vector_5'> +1.0522142e-05 </wgt>
</rwgt>
</event>
<event>
 4      1 +7.6845000e-11 4.93105000e+03 7.81860800e-03 7.39408600e-02
        2 -1    0    0  501    0 +0.0000000000e+00 +0.0000000000e+00 +2.3790431467e+03 2.3790431467e+03 0.0000000000e+00 0.0000e+00 -1.0000e+00
       -2 -1    0    0    0  501 -0.0000000000e+00 -0.0000000000e+00 -2.5551504993e+03 2.5551504993e+03 0.0000000000e+00 0.0000e+00 1.0000e+00
      -13  1    1    2    0    0 +1.4729745121e+03 -1.9757969069e+03 -1.4617829681e+01 2.4644758086e+03 0.0000000000e+00 0.0000e+00 1.0000e+00
       13  1    1    2    0    0 -1.4729745121e+03 +1.9757969069e+03 -1.6148952293e+02 2.4697178374e+03 0.0000000000e+00 0.0000e+00 -1.0000e+00
<mgrwt>
<rscale>  0 0.49310499E+04</rscale>
<asrwt>0</asrwt>
<pdfrwt beam="1">  1        2 0.36600664E+00 0.49310499E+04</pdfrwt>
<pdfrwt beam="2">  1       -2 0.39310007E+00 0.49310499E+04</pdfrwt>
<totfact> 0.21954768E-02</totfact>
</mgrwt>
<rwgt>
<wgt id='morphing_basis_vector_1'> +6.4046214e-06 </wgt>
<wgt id='morphing_basis_vector_2'> +4.9173330e-06 </wgt>
<wgt id='morphing_basis_vector_3'> +7.1846754e-06 </wgt>
<wgt id='morphing_basis_vector_4'> +4.3615333e-06 </wgt>
<wgt id='morphing_basis_vector_5'> +7.7642919e-06 </wgt>
</rwgt>
</event>
<event>
 4      1 +7.6845000e-11 4.82328700e+03 7.81860800e-03 7.40931100e-02
        2 -1    0    0  501    0 +0.0000000000e+00 +0.0000000000e+00 +2.4966802026e+03 2.4966802026e+03 0.0000000000e+00 0.0000e+00 1.0000e+00
       -2 -1    0    0    0  501 -0.0000000000e+00 -0.0000000000e+00 -2.3295036036e+03 2.3295036036e+03 0.0000000000e+00 0.0000e+00 -1.0000e+00
      -13  1    1    2    0    0 +4.4816272082e+02 +5.5937487985e+02 -2.2204614538e+03 2.3332807693e+03 0.0000000000e+00 0.0000e+00 -1.0000e+00
       13  1    1    2    0    0 -4.4816272082e+02 -5.5937487985e+02 +2.3876380527e+03 2.4929030369e+03 0.0000000000e+00 0.0000e+00 1.0000e+00
<mgrwt>
<rscale>  0 0.48232875E+04</rscale>
<asrwt>0</asrwt>
<pdfrwt beam="1">  1        2 0.38410465E+00 0.48232875E+04</pdfrwt>
<pdfrwt beam="2">  1       -2 0.35838517E+00 0.48232875E+04</pdfrwt>
<totfact> 0.31587789E-02</totfact>
</mgrwt>
<rwgt>
<wgt id='morphing_basis_vector_1'> +5.6340613e-06 </wgt>
<wgt id='morphing_basis_vector_2'> +3.8248823e-06 </wgt>
<wgt id='morphing_basis_vector_3'> +6.2031852e-06 </wgt>
<wgt id='morphing_basis_vector_4'> +4.4822480e-06 </wgt>
<wgt id='morphing_basis_vector_5'> +7.1465379e-06 </wgt>
</rwgt>
</event>
<event>
 4      1 +7.6845000e-11 5.27334700e+03 7.81860800e-03 7.34823200e-02
        2 -1    0    0  501    0 +0.0000000000e+00 +0.0000000000e+00 +3.9448216154e+03 3.9448216154e+03 0.0000000000e+00 0.0000e+00 -1.0000e+00
       -2 -1    0    0    0  501 -0.0000000000e+00 -0.0000000000e+00 -1.7623220941e+03 1.7623220941e+03 0.0000000000e+00 0.0000e+00 1.0000e+00
      -13  1    1    2    0    0 +1.1550498383e+03 -2.3364723224e+03 +1.5225325975e+03 3.0185010440e+03 0.0000000000e+00 0.0000e+00 1.0000e+00
       13  1    1    2    0    0 -1.1550498383e+03 +2.3364723224e+03 +6.5996692379e+02 2.6886426655e+03 0.0000000000e+00 0.0000e+00 -1.0000e+00
<mgrwt>
<rscale>  0 0.52733467E+04</rscale>
<asrwt>0</asrwt>
<pdfrwt beam="1">  1        2 0.60689563E+00 0.52733467E+04</pdfrwt>
<pdfrwt beam="2">  1       -2 0.27112648E+00 0.52733467E+04</pdfrwt>
<totfact> 0.11449546E-02</totfact>
</mgrwt>
<rwgt>
<wgt id='morphing_basis_vector_1'> +8.5430005e-06 </wgt>
<wgt id='morphing_basis_vector_2'> +6.9374239e-06 </wgt>
<wgt id='morphing_basis_vector_3'> +9.6792865e-06 </wgt>
<wgt id='morphing_basis_vector_4'> +5.3395458e-06 </wgt>
<wgt id='morphing_basis_vector_5'> +1.0132442e-05 </wgt>
</rwgt>
</event>
<event>
 4      1 +7.6845000e-11 4.97700600e+03 7.81860800e-03 7.38771200e-02
        2 -1    0    0  501    0 +0.0000000000e+00 +0.0000000000e+00 +3.6058241828e+03 3.6058241828e+03 0.0000000000e+00 0.0000e+00 -1.0000e+00
       -2 -1    0    0    0  501 -0.0000000000e+00 -0.0000000000e+00 -1.7174010280e+03 1.7174010280e+03 0.0000000000e+00 0.0000e+00 1.0000e+00
      -13  1    1    2    0    0 -2.1975253708e+03 +9.5676936225e+02 +2.2822602556e+02 2.4076155189e+03 0.0000000000e+00 0.0000e+00 1.0000e+00
       13  1    1    2    0    0 +2.1975253708e+03 -9.5676936225e+02 +1.6601971292e+03 2.9156096919e+03 0.0000000000e+00 0.0000e+00 -1.0000e+00
<mgrwt>
<rscale>  0 0.49770056E+04</rscale>
<asrwt>0</asrwt>
<pdfrwt beam="1">  1        2 0.55474218E+00 0.49770056E+04</pdfrwt>
<pdfrwt beam="2">  1       -2 0.26421554E+00 0.49770056E+04</pdfrwt>
<totfact> 0.24284362E-02</totfact>
</mgrwt>
<rwgt>
<wgt id='morphing_basis_vector_1'> +6.4679912e-06 </wgt>
<wgt id='morphing_basis_vector_2'> +4.5803968e-06 </wgt>
<wgt id='morphing_basis_vector_3'> +7.1676515e-06 </wgt>
<wgt id='morphing_basis_vector_4'> +4.9059842e-06 </wgt>
<wgt id='morphing_basis_vector_5'> +8.0905343e-06 </wgt>
</rwgt>
</event>
<event>
 4      1 +7.6845000e-11 4.79663400e+03 7.81860800e-03 7.41313900e-02
        2 -1    0    0  501    0 +0.0000000000e+00 +0.0000000000e+00 +2.4009429281e+03 2.4009429281e+03 0.0000000000e+00 0.0000e+00 1.0000e+00
       -2 -1    0    0    0  501 -0.0000000000e+00 -0.0000000000e+00 -2.3956940369e+03 2.3956940369e+03 0.0000000000e+00 0.0000e+00 -1.0000e+00
      -13  1    1    2    0    0 +9.1387871719e+02 +2.2150586850e+03 +1.0394265870e+02 2.3984293536e+03 0.0000000000e+00 0.0000e+00 1.0000e+00
       13  1    1    2    0    0 -9.1387871719e+02 -2.2150586850e+03 -9.8693767525e+01 2.3982076114e+03 0.0000000000e+00 0.0000e+00 -1.0000e+00
<mgrwt>
<rscale>  0 0.47966341E+04</rscale>
<asrwt>0</asrwt>
<pdfrwt beam="1">  1        2 0.36937583E+00 0.47966341E+04</pdfrwt>
<pdfrwt beam="2">  1       -2 0.36856831E+00 0.47966341E+04</pdfrwt>
<totfact> 0.31019490E-02</totfact>
</mgrwt>
<rwgt>
<wgt id='morphing_basis_vector_1'> +5.7467408e-06 </wgt>
<wgt id='morphing_basis_vector_2'> +4.4335758e-06 </wgt>
<wgt id='morphing_basis_vector_3'> +6.4491517e-06 </wgt>
<wgt id='morphing_basis_vector_4'> +3.8819143e-06 </wgt>
<wgt id='morphing_basis_vector_5'> +6.9473224e-06 </wgt>
</rwgt>
</event>
<event>
 4      1 +7.6845000e-11 5.15126000e+03 7.81860800e-03 7.36416600e-02
        2 -1    0    0  501    0 +0.0000000000e+00 +0.0000000000e+00 +1.8402994032e+03 1.8402994032e+03 0.0000000000e+00 0.0000e+00 1.0000e+00
       -2 -1    0    0    0  501 -0.0000000000e+00 -0.0000000000e+00 -3.6047777342e+03 3.6047777342e+03 0.0000000000e+00 0.0000e+00 -1.0000e+00
      -13  1    1    2    0    0 +2.5229507908e+03 -3.9482875366e+02 -5.2738306949e+02 2.6075473801e+03 0.0000000000e+00 0.0000e+00 -1.0000e+00
       13  1    1    2    0    0 -2.5229507908e+03 +3.9482875366e+02 -1.2370952615e+03 2.8375297573e+03 0.0000000000e+00 0.0000e+00 1.0000e+00
<mgrwt>
<rscale>  0 0.51512602E+04</rscale>
<asrwt>0</asrwt>
<pdfrwt beam="1">  1        2 0.28312298E+00 0.51512602E+04</pdfrwt>
<pdfrwt beam="2">  1       -2 0.55458119E+00 0.51512602E+04</pdfrwt>
<totfact> 0.31197022E-03</totfact>
</mgrwt>
<rwgt>
<wgt id='morphing_basis_vector_1'> +7.7496995e-06 </wgt>
<wgt id='morphing_basis_vector_2'> +6.2257040e-06 </wgt>
<wgt id='morphing_basis_vector_3'> +8.7622378e-06 </wgt>
<wgt id='morphing_basis_vector_4'> +4.9276872e-06 </wgt>
<wgt id='morphing_basis_vector_5'> +9.2293346e-06 </wgt>
</rwgt>
</event>
<event>
 4      1 +7.6845000e-11 4.88904100e+03 7.81860800e-03 7.39997400e-02
        2 -1    0    0  501    0 +0.0000000000e+00 +0.0000000000e+00 +1.2613061277e+03 1.2613061277e+03 0.0000000000e+00 0.0000e+00 1.0000e+00
       -2 -1    0    0    0  501 -0.0000000000e+00 -0.0000000000e+00 -4.7376926313e+03 4.7376926313e+03 0.0000000000e+00 0.0000e+00 -1.0000e+00
      -13  1    1    2    0    0 -1.3159203050e+03 -2.6785977531e+02 -4.2445454524e+03 4.4519165767e+03 0.0000000000e+00 0.0000e+00 -1.0000e+00
       13  1    1    2    0    0 +1.3159203050e+03 +2.6785977531e+02 +7.6815894880e+02 1.5470821823e+03 0.0000000000e+00 0.0000e+00 1.0000e+00
<mgrwt>
<rscale>  0 0.48890411E+04</rscale>
<asrwt>0</asrwt>
<pdfrwt beam="1">  1        2 0.19404710E+00 0.48890411E+04</pdfrwt>
<pdfrwt beam="2">  1       -2 0.72887578E+00 0.48890411E+04</pdfrwt>
<totfact> 0.93258175E-04</totfact>
</mgrwt>
<rwgt>
<wgt id='morphing_basis_vector_1'> +5.9483226e-06 </wgt>
<wgt id='morphing_basis_vector_2'> +4.0427961e-06 </wgt>
<wgt id='morphing_basis_vector_3'> +6.5512898e-06 </wgt>
<wgt id='morphing_basis_vector_4'> +4.7286811e-06 </wgt>
<wgt id='morphing_basis_vector_5'> +7.5453312e-06 </wgt>
</rwgt>
</event>
<event>
 4      1 +7.6845000e-11 5.15405400e+03 7.81860800e-03 7.36379700e-02
        2 -1    0    0  501    0 +0.0000000000e+00 +0.0000000000e+00 +2.6893943592e+03 2.6893943592e+03 0.0000000000e+00 0.0000e+00 1.0000e+00
       -2 -1    0    0    0  501 -0.0000000000e+00 -0.0000000000e+00 -2.4693548338e+03 2.4693548338e+03 0.0000000000e+00 0.0000e+00 -1.0000e+00
      -13  1    1    2    0    0 -1.5830269745e+03 +1.9815059470e+03 +5.6730433530e+02 2.5988794564e+03 0.0000000000e+00 0.0000e+00 -1.0000e+00
       13  1    1    2    0    0 +1.5830269745e+03 -1.9815059470e+03 -3.4726480995e+02 2.5598697366e+03 0.0000000000e+00 0.0000e+00 1.0000e+00
<mgrwt>
<rscale>  0 0.51540543E+04</rscale>
<asrwt>0</asrwt>
<pdfrwt beam="1">  1        2 0.41375298E+00 0.51540543E+04</pdfrwt>
<pdfrwt beam="2">  1       -2 0.37990074E+00 0.51540543E+04</pdfrwt>
<totfact> 0.17109745E-02</totfact>
</mgrwt>
<rwgt>
<wgt id='morphing_basis_vector_1'> +7.8404128e-06 </wgt>
<wgt id='morphing_basis_vector_2'> +6.4563076e-06 </wgt>
<wgt id='morphing_basis_vector_3'> +8.9014005e-06 </wgt>
<wgt id='morphing_basis_vector_4'> +4.7807606e-06 </wgt>
<wgt id='morphing_basis_vector_5'> +9.2362094e-06 </wgt>
</rwgt>
</event>
<event>
 4      1 +7.6845000e-11 4.85347800e+03 7.81860800e-03 7.40500600e-02
        2 -1    0    0  501    0 +0.0000000000e+00 +0.0000000000e+00 +3.1005799327e+03 3.1005799327e+03 0.0000000000e+00 0.0000e+00 -1.0000e+00
       -2 -1    0    0    0  501 -0.0000000000e+00 -0.0000000000e+00 -1.8993424370e+03 1.8993424370e+03 0.0000000000e+00 0.0000e+00 1.0000e+00
      -13  1    1    2    0    0 +1.4902758408e+03 -1.6294629389e+03 -4.3622440364e+02 2.2508583432e+03 0.0000000000e+00 0.0000e+00 1.0000e+00
       13  1    1    2    0    0 -1.4902758408e+03 +1.6294629389e+03 +1.6374618993e+03 2.7490640266e+03 0.0000000000e+00 0.0000e+00 -1.0000e+00
<mgrwt>
<rscale>  0 0.48534784E+04</rscale>
<asrwt>0</asrwt>
<pdfrwt beam="1">  1        2 0.47701230E+00 0.48534784E+04</pdfrwt>
<pdfrwt beam="2">  1       -2 0.29220653E+00 0.48534784E+04</pdfrwt>
<totfact> 0.35999775E-02</totfact>
</mgrwt>
<rwgt>
<wgt id='morphing_basis_vector_1'> +5.8154615e-06 </wgt>
<wgt id='morphing_basis_vector_2'> +4.0374637e-06 </wgt>
<wgt id='morphing_basis_vector_3'> +6.4239681e-06 </wgt>
<wgt id='morphing_basis_vector_4'> +4.5117879e-06 </wgt>
<wgt id='morphing_basis_vector_5'> +7.3207292e-06 </wgt>
</rwgt>
</event>
<event>
 4      1 +7.6845000e-11 4.93070400e+03 7.81860800e-03 7.39413400e-02
        2 -1    0    0  501    0 +0.0000000000e+00 +0.0000000000e+00 +2.9409045371e+03 2.9409045371e+03 0.0000000000e+00 0.0000e+00 -1.0000e+00
       -2 -1    0    0    0  501 -0.0000000000e+00 -0.0000000000e+00 -2.0666974242e+03 2.0666974242e+03 0.0000000000e+00 0.0000e+00 1.0000e+00
      -13  1    1    2    0    0 -3.6675745809e+02 -1.6754987219e+03 -1.3614339614e+03 2.1898194975e+03 0.0000000000e+00 0.0000e+00 1.0000e+00
       13  1    1    2    0    0 +3.6675745809e+02 +1.6754987219e+03 +2.2356410743e+03 2.8177824638e+03 0.0000000000e+00 0.0000e+00 -1.0000e+00
<mgrwt>
<rscale>  0 0.49307037E+04</rscale>
<asrwt>0</asrwt>
<pdfrwt beam="1">  1        2 0.45244685E+00 0.49307037E+04</pdfrwt>
<pdfrwt beam="2">  1       -2 0.31795345E+00 0.49307037E+04</pdfrwt>
<totfact> 0.30584507E-02</totfact>
</mgrwt>
<rwgt>
<wgt id='morphing_basis_vector_1'> +6.1576942e-06 </wgt>
<wgt id='morphing_basis_vector_2'> +4.1960413e-06 </wgt>
<wgt id='morphing_basis_vector_3'> +6.7850736e-06 </wgt>
<wgt id='morphing_basis_vector_4'> +4.8824197e-06 </wgt>
<wgt id='morphing_basis_vector_5'> +7.8058609e-06 </wgt>
</rwgt>
</event>
<event>
 4      1 +7.6845000e-11 4.62739600e+03 7.81860800e-03 7.43804000e-02
        2 -1    0    0  501    0 +0.0000000000e+00 +0.0000000000e+00 +2.4519793796e+03 2.4519793796e+03 0.0000000000e+00 0.0000e+00 -1.0000e+00
       -2 -1    0    0    0  501 -0.0000000000e+00 -0.0000000000e+00 -2.1832153371e+03 2.1832153371e+03 0.0000000000e+00 0.0000e+00 1.0000e+00
      -13  1    1    2    0    0 +1.3216050098e+03 +1.7351488820e+03 +9.0757506259e+02 2.3624296685e+03 0.0000000000e+00 0.0000e+00 1.0000e+00
       13  1    1    2    0    0 -1.3216050098e+03 -1.7351488820e+03 -6.3881102013e+02 2.2727650481e+03 0.0000000000e+00 0.0000e+00 -1.0000e+00
<mgrwt>
<rscale>  0 0.46273962E+04</rscale>
<asrwt>0</asrwt>
<pdfrwt beam="1">  1        2 0.37722760E+00 0.46273962E+04</pdfrwt>
<pdfrwt beam="2">  1       -2 0.33587928E+00 0.46273962E+04</pdfrwt>
<totfact> 0.47751463E-02</totfact>
</mgrwt>
<rwgt>
<wgt id='morphing_basis_vector_1'> +5.3181118e-06 </wgt>
<wgt id='morphing_basis_vector_2'> +4.8336836e-06 </wgt>
<wgt id='morphing_basis_vector_3'> +6.1322569e-06 </wgt>
<wgt id='morphing_basis_vector_4'> +2.6424233e-06 </wgt>
<wgt id='morphing_basis_vector_5'> +5.9543640e-06 </wgt>
</rwgt>
</event>
<event>
 4      1 +7.6845000e-11 4.65154600e+03 7.81860800e-03 7.43442200e-02
        2 -1    0    0  501    0 +0.0000000000e+00 +0.0000000000e+00 +2.8135025240e+03 2.8135025240e+03 0.0000000000e+00 0.0000e+00 -1.0000e+00
       -2 -1    0    0    0  501 -0.0000000000e+00 -0.0000000000e+00 -1.9225930511e+03 1.9225930511e+03 0.0000000000e+00 0.0000e+00 1.0000e+00
      -13  1    1    2    0    0 -9.9721265847e+02 -1.6838687950e+03 -8.3411955336e+02 2.1273463832e+03 0.0000000000e+00 0.0000e+00 1.0000e+00
       13  1    1    2    0    0 +9.9721265847e+02 +1.6838687950e+03 +1.7250290262e+03 2.6087491919e+03 0.0000000000e+00 0.0000e+00 -1.0000e+00
<mgrwt>
<rscale>  0 0.46515462E+04</rscale>
<asrwt>0</asrwt>
<pdfrwt beam="1">  1        2 0.43284654E+00 0.46515462E+04</pdfrwt>
<pdfrwt beam="2">  1       -2 0.29578355E+00 0.46515462E+04</pdfrwt>
<totfact> 0.53050136E-02</totfact>
</mgrwt>
<rwgt>
<wgt id='morphing_basis_vector_1'> +4.8935182e-06 </wgt>
<wgt id='morphing_basis_vector_2'> +3.3605046e-06 </wgt>
<wgt id='morphing_basis_vector_3'> +5.3941995e-06 </wgt>
<wgt id='morphing_basis_vector_4'> +3.8380828e-06 </wgt>
<wgt id='morphing_basis_vector_5'> +6.1754882e-06 </wgt>
</rwgt>
</event>
<event>
 4      1 +7.6845000e-11 4.67629900e+03 7.81860800e-03 7.43073600e-02
        2 -1    0    0  501    0 +0.0000000000e+00 +0.0000000000e+00 +1.8272207648e+03 1.8272207648e+03 0.0000000000e+00 0.0000e+00 1.0000e+00
       -2 -1    0    0    0  501 -0.0000000000e+00 -0.0000000000e+00 -2.9919449882e+03 2.9919449882e+03 0.0000000000e+00 0.0000e+00 -1.0000e+00
      -13  1    1    2    0    0 -5.5844498005e+02 +1.3139564529e+03 -2.4905804729e+03 2.8707722738e+03 0.0000000000e+00 0.0000e+00 -1.0000e+00
       13  1    1    2    0    0 +5.5844498005e+02 -1.3139564529e+03 +1.3258562494e+03 1.9483934792e+03 0.0000000000e+00 0.0000e+00 1.0000e+00
<mgrwt>
<rscale>  0 0.46762994E+04</rscale>
<asrwt>0</asrwt>
<pdfrwt beam="1">  1        2 0.28111089E+00 0.46762994E+04</pdfrwt>
<pdfrwt beam="2">  1       -2 0.46029922E+00 0.46762994E+04</pdfrwt>
<totfact> 0.16259550E-02</totfact>
</mgrwt>
<rwgt>
<wgt id='morphing_basis_vector_1'> +4.9829136e-06 </wgt>
<wgt id='morphing_basis_vector_2'> +3.3878439e-06 </wgt>
<wgt id='morphing_basis_vector_3'> +5.4853167e-06 </wgt>
<wgt id='morphing_basis_vector_4'> +3.9530618e-06 </wgt>
<wgt id='morphing_basis_vector_5'> +6.3111869e-06 </wgt>
</rwgt>
</event>
<event>
 4      1 +7.6845000e-11 4.85454700e+03 7.81860800e-03 7.40485400e-02
        2 -1    0    0  501    0 +0.0000000000e+00 +0.0000000000e+00 +3.8911710918e+03 3.8911710918e+03 0.0000000000e+00 0.0000e+00 1.0000e+00
       -2 -1    0    0    0  501 -0.0000000000e+00 -0.0000000000e+00 -1.5141090820e+03 1.5141090820e+03 0.0000000000e+00 0.0000e+00 -1.0000e+00
      -13  1    1    2    0    0 -1.8686366520e+03 -8.7768342906e+02 +2.6098781529e+03 3.3277011753e+03 0.0000000000e+00 0.0000e+00 -1.0000e+00
       13  1    1    2    0    0 +1.8686366520e+03 +8.7768342906e+02 -2.3281614309e+02 2.0775789986e+03 0.0000000000e+00 0.0000e+00 1.0000e+00
<mgrwt>
<rscale>  0 0.48545473E+04</rscale>
<asrwt>0</asrwt>
<pdfrwt beam="1">  1        2 0.59864170E+00 0.48545473E+04</pdfrwt>
<pdfrwt beam="2">  1       -2 0.23293986E+00 0.48545473E+04</pdfrwt>
<totfact> 0.24057337E-02</totfact>
</mgrwt>
<rwgt>
<wgt id='morphing_basis_vector_1'> +6.9237960e-06 </wgt>
<wgt id='morphing_basis_vector_2'> +7.2811531e-06 </wgt>
<wgt id='morphing_basis_vector_3'> +8.2177785e-06 </wgt>
<wgt id='morphing_basis_vector_4'> +2.1669945e-06 </wgt>
<wgt id='morphing_basis_vector_5'> +7.1304322e-06 </wgt>
</rwgt>
</event>
<event>
 4      1 +7.6845000e-11 4.91542900e+03 7.81860800e-03 7.39626900e-02
        2 -1    0    0  501    0 +0.0000000000e+00 +0.0000000000e+00 +3.0692163345e+03 3.0692163345e+03 0.0000000000e+00 0.0000e+00 -1.0000e+00
       -2 -1    0    0    0  501 -0.0000000000e+00 -0.0000000000e+00 -1.9680463074e+03 1.9680463074e+03 0.0000000000e+00 0.0000e+00 1.0000e+00
      -13  1    1    2    0    0 -2.1498753942e+03 +2.1554099067e+02 -6.4974425259e+02 2.2562335258e+03 0.0000000000e+00 0.0000e+00 1.0000e+00
       13  1    1    2    0    0 +2.1498753942e+03 -2.1554099067e+02 +1.7509142797e+03 2.7810291160e+03 0.0000000000e+00 0.0000e+00 -1.0000e+00
<mgrwt>
<rscale>  0 0.49154287E+04</rscale>
<asrwt>0</asrwt>
<pdfrwt beam="1">  1        2 0.47218713E+00 0.49154287E+04</pdfrwt>
<pdfrwt beam="2">  1       -2 0.30277636E+00 0.49154287E+04</pdfrwt>
<totfact> 0.31899903E-02</totfact>
</mgrwt>
<rwgt>
<wgt id='morphing_basis_vector_1'> +6.1061154e-06 </wgt>
<wgt id='morphing_basis_vector_2'> +4.2151802e-06 </wgt>
<wgt id='morphing_basis_vector_3'> +6.7405112e-06 </wgt>
<wgt id='morphing_basis_vector_4'> +4.7706465e-06 </wgt>
<wgt id='morphing_basis_vector_5'> +7.7049642e-06 </wgt>
</rwgt>
</event>
<event>
 4      1 +7.6845000e-11 5.00876000e+03 7.81860800e-03 7.38334800e-02
        2 -1    0    0  501    0 +0.0000000000e+00 +0.0000000000e+00 +2.9894964085e+03 2.9894964085e+03 0.0000000000e+00 0.0000e+00 1.0000e+00
       -2 -1    0    0    0  501 -0.0000000000e+00 -0.0000000000e+00 -2.0979849789e+03 2.0979849789e+03 0.0000000000e+00 0.0000e+00 -1.0000e+00
      -13  1    1    2    0    0 +4.9756911335e+02 +9.1702872536e+02 -1.8667353979e+03 2.1385083005e+03 0.0000000000e+00 0.0000e+00 -1.0000e+00
       13  1    1    2    0    0 -4.9756911335e+02 -9.1702872536e+02 +2.7582468274e+03 2.9489730868e+03 0.0000000000e+00 0.0000e+00 1.0000e+00
<mgrwt>
<rscale>  0 0.50087598E+04</rscale>
<asrwt>0</asrwt>
<pdfrwt beam="1">  1        2 0.45992252E+00 0.50087598E+04</pdfrwt>
<pdfrwt beam="2">  1       -2 0.32276692E+00 0.50087598E+04</pdfrwt>
<totfact> 0.26269010E-02</totfact>
</mgrwt>
<rwgt>
<wgt id='morphing_basis_vector_1'> +6.5490387e-06 </wgt>
<wgt id='morphing_basis_vector_2'> +4.4484793e-06 </wgt>
<wgt id='morphing_basis_vector_3'> +7.2142851e-06 </wgt>
<wgt id='morphing_basis_vector_4'> +5.2140131e-06 </wgt>
<wgt id='morphing_basis_vector_5'> +8.3148571e-06 </wgt>
</rwgt>
</event>
<event>
 4      1 +7.6845000e-11 4.64628900e+03 7.81860800e-03 7.43520800e-02
        2 -1    0    0  501    0 +0.0000000000e+00 +0.0000000000e+00 +3.4242008132e+03 3.4242008132e+03 0.0000000000e+00 0.0000e+00 1.0000e+00
       -2 -1    0    0    0  501 -0.0000000000e+00 -0.0000000000e+00 -1.5761341190e+03 1.5761341190e+03 0.0000000000e+00 0.0000e+00 -1.0000e+00
      -13  1    1    2    0    0 -1.2644558180e+03 +1.1445222659e+02 -1.1697359206e+03 1.7263342526e+03 0.0000000000e+00 0.0000e+00 -1.0000e+00
       13  1    1    2    0    0 +1.2644558180e+03 -1.1445222659e+02 +3.0178026149e+03 3.2740006796e+03 0.0000000000e+00 0.0000e+00 1.0000e+00
<mgrwt>
<rscale>  0 0.46462887E+04</rscale>
<asrwt>0</asrwt>
<pdfrwt beam="1">  1        2 0.52680012E+00 0.46462887E+04</pdfrwt>
<pdfrwt beam="2">  1       -2 0.24248217E+00 0.46462887E+04</pdfrwt>
<totfact> 0.47895212E-02</totfact>
</mgrwt>
<rwgt>
<wgt id='morphing_basis_vector_1'> +4.8555796e-06 </wgt>
<wgt id='morphing_basis_vector_2'> +3.2985497e-06 </wgt>
<wgt id='morphing_basis_vector_3'> +5.3440797e-06 </wgt>
<wgt id='morphing_basis_vector_4'> +3.8545836e-06 </wgt>
<wgt id='morphing_basis_vector_5'> +6.1503498e-06 </wgt>
</rwgt>
</event>
<event>
 4      1 +7.6845000e-11 4.72160200e+03 7.81860800e-03 7.42404900e-02
        2 -1    0    0  501    0 +0.0000000000e+00 +0.0000000000e+00 +2.8080106770e+03 2.8080106770e+03 0.0000000000e+00 0.0000e+00 1.0000e+00
       -2 -1    0    0    0  501 -0.0000000000e+00 -0.0000000000e+00 -1.9848149788e+03 1.9848149788e+03 0.0000000000e+00 0.0000e+00 -1.0000e+00
      -13  1    1    2    0    0 +1.4096828134e+03 -1.5346240705e+03 -7.1469100935e+02 2.2029661620e+03 0.0000000000e+00 0.0000e+00 -1.0000e+00
       13  1    1    2    0    0 -1.4096828134e+03 +1.5346240705e+03 +1.5378867076e+03 2.5898594938e+03 0.0000000000e+00 0.0000e+00 1.0000e+00
<mgrwt>
<rscale>  0 0.47216021E+04</rscale>
<asrwt>0</asrwt>
<pdfrwt beam="1">  1        2 0.43200164E+00 0.47216021E+04</pdfrwt>
<pdfrwt beam="2">  1       -2 0.30535615E+00 0.47216021E+04</pdfrwt>
<totfact> 0.45852779E-02</totfact>
</mgrwt>
<rwgt>
<wgt id='morphing_basis_vector_1'> +5.2023392e-06 </wgt>
<wgt id='morphing_basis_vector_2'> +3.5920803e-06 </wgt>
<wgt id='morphing_basis_vector_3'> +5.7401932e-06 </wgt>
<wgt id='morphing_basis_vector_4'> +4.0574511e-06 </wgt>
<wgt id='morphing_basis_vector_5'> +6.5559175e-06 </wgt>
</rwgt>
</event>
<event>
 4      1 +7.6845000e-11 5.15046700e+03 7.81860800e-03 7.36427100e-02
        2 -1    0    0  501    0 +0.0000000000e+00 +0.0000000000e+00 +2.5035559805e+03 2.5035559805e+03 0.0000000000e+00 0.0000e+00 -1.0000e+00
       -2 -1    0    0    0  501 -0.0000000000e+00 -0.0000000000e+00 -2.6489633777e+03 2.6489633777e+03 0.0000000000e+00 0.0000e+00 1.0000e+00
      -13  1    1    2    0    0 -1.6903721405e+01 -2.5713795064e+03 +6.7172627751e+01 2.5723122796e+03 0.0000000000e+00 0.0000e+00 1.0000e+00
       13  1    1    2    0    0 +1.6903721405e+01 +2.5713795064e+03 -2.1258002490e+02 2.5802070786e+03 0.0000000000e+00 0.0000e+00 -1.0000e+00
<mgrwt>
<rscale>  0 0.51504672E+04</rscale>
<asrwt>0</asrwt>
<pdfrwt beam="1">  1        2 0.38516246E+00 0.51504672E+04</pdfrwt>
<pdfrwt beam="2">  1       -2 0.40753283E+00 0.51504672E+04</pdfrwt>
<totfact> 0.14662396E-02</totfact>
</mgrwt>
<rwgt>
<wgt id='morphing_basis_vector_1'> +7.6459042e-06 </wgt>
<wgt id='morphing_basis_vector_2'> +5.9310603e-06 </wgt>
<wgt id='morphing_basis_vector_3'> +8.5959319e-06 </wgt>
<wgt id='morphing_basis_vector_4'> +5.1358243e-06 </wgt>
<wgt id='morphing_basis_vector_5'> +9.2413510e-06 </wgt>
</rwgt>
</event>
<event>
 4      1 +7.6845000e-11 5.26630200e+03 7.81860800e-03 7.34913900e-02
        2 -1    0    0  501    0 +0.0000000000e+00 +0.0000000000e+00 +3.4832411994e+03 3.4832411994e+03 0.0000000000e+00 0.0000e+00 -1.0000e+00
       -2 -1    0    0    0  501 -0.0000000000e+00 -0.0000000000e+00 -1.9905262967e+03 1.9905262967e+03 0.0000000000e+00 0.0000e+00 1.0000e+00
      -13  1    1    2    0    0 +9.0955928852e+02 +1.9177644373e+03 -8.7335368999e+02 2.2951830437e+03 0.0000000000e+00 0.0000e+00 1.0000e+00
       13  1    1    2    0    0 -9.0955928852e+02 -1.9177644373e+03 +2.3660685927e+03 3.1785844525e+03 0.0000000000e+00 0.0000e+00 -1.0000e+00
<mgrwt>
<rscale>  0 0.52663016E+04</rscale>
<asrwt>0</asrwt>
<pdfrwt beam="1">  1        2 0.53588326E+00 0.52663016E+04</pdfrwt>
<pdfrwt beam="2">  1       -2 0.30623481E+00 0.52663016E+04</pdfrwt>
<totfact> 0.15192059E-02</totfact>
</mgrwt>
<rwgt>
<wgt id='morphing_basis_vector_1'> +8.0190903e-06 </wgt>
<wgt id='morphing_basis_vector_2'> +5.4955704e-06 </wgt>
<wgt id='morphing_basis_vector_3'> +8.8496088e-06 </wgt>
<wgt id='morphing_basis_vector_4'> +6.3317921e-06 </wgt>
<wgt id='morphing_basis_vector_5'> +1.0163920e-05 </wgt>
</rwgt>
</event>
<event>
 4      1 +7.6845000e-11 4.80871000e+03 7.81860800e-03 7.41140200e-02
        2 -1    0    0  501    0 +0.0000000000e+00 +0.0000000000e+00 +4.2445287773e+03 4.2445287773e+03 0.0000000000e+00 0.0000e+00 -1.0000e+00
       -2 -1    0    0    0  501 -0.0000000000e+00 -0.0000000000e+00 -1.3619705076e+03 1.3619705076e+03 0.0000000000e+00 0.0000e+00 1.0000e+00
      -13  1    1    2    0    0 -2.3672530037e+03 -5.4600024850e+01 +9.5486462868e+02 2.5531616488e+03 0.0000000000e+00 0.0000e+00 1.0000e+00
       13  1    1    2    0    0 +2.3672530037e+03 +5.4600024850e+01 +1.9276936410e+03 3.0533376360e+03 0.0000000000e+00 0.0000e+00 -1.0000e+00
<mgrwt>
<rscale>  0 0.48087100E+04</rscale>
<asrwt>0</asrwt>
<pdfrwt beam="1">  1        2 0.65300442E+00 0.48087100E+04</pdfrwt>
<pdfrwt beam="2">  1       -2 0.20953393E+00 0.48087100E+04</pdfrwt>
<totfact> 0.17375280E-02</totfact>
</mgrwt>
<rwgt>
<wgt id='morphing_basis_vector_1'> +5.6733372e-06 </wgt>
<wgt id='morphing_basis_vector_2'> +4.0927125e-06 </wgt>
<wgt id='morphing_basis_vector_3'> +6.3016504e-06 </wgt>
<wgt id='morphing_basis_vector_4'> +4.2007223e-06 </wgt>
<wgt id='morphing_basis_vector_5'> +7.0411936e-06 </wgt>
</rwgt>
</event>
<event>
 4      1 +7.6845000e-11 5.08558600e+03 7.81860800e-03 7.37292600e-02
        2 -1    0    0  501    0 +0.0000000000e+00 +0.0000000000e+00 +2.4649191005e+03 2.4649191005e+03 0.0000000000e+00 0.0000e+00 -1.0000e+00
       -2 -1    0    0    0  501 -0.0000000000e+00 -0.0000000000e+00 -2.6231272244e+03 2.6231272244e+03 0.0000000000e+00 0.0000e+00 1.0000e+00
      -13  1    1    2    0    0 +1.8339986642e+03 -5.4544561433e+02 -1.7546483733e+03 2.5961226728e+03 0.0000000000e+00 0.0000e+00 1.0000e+00
       13  1    1    2    0    0 -1.8339986642e+03 +5.4544561433e+02 +1.5964402494e+03 2.4919236521e+03 0.0000000000e+00 0.0000e+00 -1.0000e+00
<mgrwt>
<rscale>  0 0.50855861E+04</rscale>
<asrwt>0</asrwt>
<pdfrwt beam="1">  1        2 0.37921833E+00 0.50855861E+04</pdfrwt>
<pdfrwt beam="2">  1       -2 0.40355803E+00 0.50855861E+04</pdfrwt>
<totfact> 0.16500007E-02</totfact>
</mgrwt>
<rwgt>
<wgt id='morphing_basis_vector_1'> +6.9701627e-06 </wgt>
<wgt id='morphing_basis_vector_2'> +4.7607019e-06 </wgt>
<wgt id='morphing_basis_vector_3'> +7.6855177e-06 </wgt>
<wgt id='morphing_basis_vector_4'> +5.5181911e-06 </wgt>
<wgt id='morphing_basis_vector_5'> +8.8365077e-06 </wgt>
</rwgt>
</event>
<event>
 4      1 +7.6845000e-11 5.44846100e+03 7.81860800e-03 7.32613200e-02
        2 -1    0    0  501    0 +0.0000000000e+00 +0.0000000000e+00 +4.0403263530e+03 4.0403263530e+03 0.0000000000e+00 0.0000e+00 1.0000e+00
       -2 -1    0    0    0  501 -0.0000000000e+00 -0.0000000000e+00 -1.8368397426e+03 1.8368397426e+03 0.0000000000e+00 0.0000e+00 -1.0000e+00
      -13  1    1    2    0    0 +6.0864162166e+02 -1.8324662135e+03 -9.7119796594e+02 2.1613890294e+03 0.0000000000e+00 0.0000e+00 -1.0000e+00
       13  1    1    2    0    0 -6.0864162166e+02 +1.8324662135e+03 +3.1746845763e+03 3.7157770663e+03 0.0000000000e+00 0.0000e+00 1.0000e+00
<mgrwt>
<rscale>  0 0.54484611E+04</rscale>
<asrwt>0</asrwt>
<pdfrwt beam="1">  1        2 0.62158867E+00 0.54484611E+04</pdfrwt>
<pdfrwt beam="2">  1       -2 0.28259073E+00 0.54484611E+04</pdfrwt>
<totfact> 0.78273944E-03</totfact>
</mgrwt>
<rwgt>
<wgt id='morphing_basis_vector_1'> +9.1706199e-06 </wgt>
<wgt id='morphing_basis_vector_2'> +6.2562492e-06 </wgt>
<wgt id='morphing_basis_vector_3'> +1.0117143e-05 </wgt>
<wgt id='morphing_basis_vector_4'> +7.2854322e-06 </wgt>
<wgt id='morphing_basis_vector_5'> +1.1651605e-05 </wgt>
</rwgt>
</event>
<event>
 4      1 +7.6845000e-11 4.68362500e+03 7.81860800e-03 7.42965000e-02
        2 -1    0    0  501    0 +0.0000000000e+00 +0.0000000000e+00 +4.0935240688e+03 4.0935240688e+03 0.0000000000e+00 0.0000e+00 -1.0000e+00
       -2 -1    0    0    0  501 -0.0000000000e+00 -0.0000000000e+00 -1.3396976836e+03 1.3396976836e+03 0.0000000000e+00 0.0000e+00 1.0000e+00
      -13  1    1    2    0    0 -8.5382792201e+02 -3.6384210798e+02 -1.1172355183e+03 1.4524525477e+03 0.0000000000e+00 0.0000e+00 1.0000e+00
       13  1    1    2    0    0 +8.5382792201e+02 +3.6384210798e+02 +3.8710619035e+03 3.9807692047e+03 0.0000000000e+00 0.0000e+00 -1.0000e+00
<mgrwt>
<rscale>  0 0.46836245E+04</rscale>
<asrwt>0</asrwt>
<pdfrwt beam="1">  1        2 0.62977293E+00 0.46836245E+04</pdfrwt>
<pdfrwt beam="2">  1       -2 0.20610734E+00 0.46836245E+04</pdfrwt>
<totfact> 0.25453524E-02</totfact>
</mgrwt>
<rwgt>
<wgt id='morphing_basis_vector_1'> +5.0117079e-06 </wgt>
<wgt id='morphing_basis_vector_2'> +3.4020893e-06 </wgt>
<wgt id='morphing_basis_vector_3'> +5.5159021e-06 </wgt>
<wgt id='morphing_basis_vector_4'> +3.9830458e-06 </wgt>
<wgt id='morphing_basis_vector_5'> +6.3513925e-06 </wgt>
</rwgt>
</event>
<event>
 4      1 +7.6845000e-11 4.92653700e+03 7.81860800e-03 7.39471600e-02
        2 -1    0    0  501    0 +0.0000000000e+00 +0.0000000000e+00 +4.2814156329e+03 4.2814156329e+03 0.0000000000e+00 0.0000e+00 -1.0000e+00
       -2 -1    0    0    0  501 -0.0000000000e+00 -0.0000000000e+00 -1.4172164810e+03 1.4172164810e+03 0.0000000000e+00 0.0000e+00 1.0000e+00
      -13  1    1    2    0    0 +1.6474132424e+03 +5.2361065673e+02 -5.9779164486e+02 1.8290689877e+03 0.0000000000e+00 0.0000e+00 1.0000e+00
       13  1    1    2    0    0 -1.6474132424e+03 -5.2361065673e+02 +3.4619907967e+03 3.8695631262e+03 0.0000000000e+00 0.0000e+00 -1.0000e+00
<mgrwt>
<rscale>  0 0.49265374E+04</rscale>
<asrwt>0</asrwt>
<pdfrwt beam="1">  1        2 0.65867932E+00 0.49265374E+04</pdfrwt>
<pdfrwt beam="2">  1       -2 0.21803331E+00 0.49265374E+04</pdfrwt>
<totfact> 0.13817029E-02</totfact>
</mgrwt>
<rwgt>
<wgt id='morphing_basis_vector_1'> +6.1373104e-06 </wgt>
<wgt id='morphing_basis_vector_2'> +4.1828708e-06 </wgt>
<wgt id='morphing_basis_vector_3'> +6.7627130e-06 </wgt>
<wgt id='morphing_basis_vector_4'> +4.8651794e-06 </wgt>
<wgt id='morphing_basis_vector_5'> +7.7793664e-06 </wgt>
</rwgt>
</event>
<event>
 4      1 +7.6845000e-11 4.98341900e+03 7.81860800e-03 7.38682700e-02
        2 -1    0    0  501    0 +0.0000000000e+00 +0.0000000000e+00 +2.6536577792e+03 2.6536577792e+03 0.0000000000e+00 0.0000e+00 1.0000e+00
       -2 -1    0    0    0  501 -0.0000000000e+00 -0.0000000000e+00 -2.3396446041e+03 2.3396446041e+03 0.0000000000e+00 0.0000e+00 -1.0000e+00
      -13  1    1    2    0    0 -3.0164391863e+02 -6.3980919580e+02 -2.2369306949e+03 2.3461039607e+03 0.0000000000e+00 0.0000e+00 -1.0000e+00
       13  1    1    2    0    0 +3.0164391863e+02 +6.3980919580e+02 +2.5509438700e+03 2.6471984226e+03 0.0000000000e+00 0.0000e+00 1.0000e+00
<mgrwt>
<rscale>  0 0.49834189E+04</rscale>
<asrwt>0</asrwt>
<pdfrwt beam="1">  1        2 0.40825504E+00 0.49834189E+04</pdfrwt>
<pdfrwt beam="2">  1       -2 0.35994532E+00 0.49834189E+04</pdfrwt>
<totfact> 0.24505904E-02</totfact>
</mgrwt>
<rwgt>
<wgt id='morphing_basis_vector_1'> +6.4174568e-06 </wgt>
<wgt id='morphing_basis_vector_2'> +4.3578439e-06 </wgt>
<wgt id='morphing_basis_vector_3'> +7.0686471e-06 </wgt>
<wgt id='morphing_basis_vector_4'> +5.1099925e-06 </wgt>
<wgt id='morphing_basis_vector_5'> +8.1474209e-06 </wgt>
</rwgt>
</event>
<event>
 4      1 +7.6845000e-11 4.79995000e+03 7.81860800e-03 7.41266100e-02
        2 -1    0    0  501    0 +0.0000000000e+00 +0.0000000000e+00 +2.1624421413e+03 2.1624421413e+03 0.0000000000e+00 0.0000e+00 1.0000e+00
       -2 -1    0    0    0  501 -0.0000000000e+00 -0.0000000000e+00 -2.6636000818e+03 2.6636000818e+03 0.0000000000e+00 0.0000e+00 -1.0000e+00
      -13  1    1    2    0    0 -6.0211901347e+02 -2.2522662029e+03 -8.2343984811e+02 2.4725095629e+03 0.0000000000e+00 0.0000e+00 -1.0000e+00
       13  1    1    2    0    0 +6.0211901347e+02 +2.2522662029e+03 +3.2228190756e+02 2.3535326603e+03 0.0000000000e+00 0.0000e+00 1.0000e+00
<mgrwt>
<rscale>  0 0.47999504E+04</rscale>
<asrwt>0</asrwt>
<pdfrwt beam="1">  1        2 0.33268340E+00 0.47999504E+04</pdfrwt>
<pdfrwt beam="2">  1       -2 0.40978463E+00 0.47999504E+04</pdfrwt>
<totfact> 0.23015352E-02</totfact>
</mgrwt>
<rwgt>
<wgt id='morphing_basis_vector_1'> +5.6083803e-06 </wgt>
<wgt id='morphing_basis_vector_2'> +3.9928906e-06 </wgt>
<wgt id='morphing_basis_vector_3'> +6.2171778e-06 </wgt>
<wgt id='morphing_basis_vector_4'> +4.2209154e-06 </wgt>
<wgt id='morphing_basis_vector_5'> +6.9941105e-06 </wgt>
</rwgt>
</event>
<event>
 4      1 +7.6845000e-11 5.36748000e+03 7.81860800e-03 7.33624500e-02
        2 -1    0    0  501    0 +0.0000000000e+00 +0.0000000000e+00 +3.5676523618e+03 3.5676523618e+03 0.0000000000e+00 0.0000e+00 1.0000e+00
       -2 -1    0    0    0  501 -0.0000000000e+00 -0.0000000000e+00 -2.0188231880e+03 2.0188231880e+03 0.0000000000e+00 0.0000e+00 -1.0000e+00
      -13  1    1    2    0    0 -2.2759833599e+03 +1.1890037845e+03 -3.7562627667e+01 2.5681201695e+03 0.0000000000e+00 0.0000e+00 -1.0000e+00
       13  1    1    2    0    0 +2.2759833599e+03 -1.1890037845e+03 +1.5863918015e+03 3.0183553803e+03 0.0000000000e+00 0.0000e+00 1.0000e+00
<mgrwt>
<rscale>  0 0.53674796E+04</rscale>
<asrwt>0</asrwt>
<pdfrwt beam="1">  1        2 0.54886959E+00 0.53674796E+04</pdfrwt>
<pdfrwt beam="2">  1       -2 0.31058818E+00 0.53674796E+04</pdfrwt>
<totfact> 0.12209646E-02</totfact>
</mgrwt>
<rwgt>
<wgt id='morphing_basis_vector_1'> +8.7314745e-06 </wgt>
<wgt id='morphing_basis_vector_2'> +6.1647281e-06 </wgt>
<wgt id='morphing_basis_vector_3'> +9.6796763e-06 </wgt>
<wgt id='morphing_basis_vector_4'> +6.6631625e-06 </wgt>
<wgt id='morphing_basis_vector_5'> +1.0955806e-05 </wgt>
</rwgt>
</event>
<event>
 4      1 +7.6845000e-11 4.80492800e+03 7.81860800e-03 7.41194500e-02
        2 -1    0    0  501    0 +0.0000000000e+00 +0.0000000000e+00 +1.9842909464e+03 1.9842909464e+03 0.0000000000e+00 0.0000e+00 1.0000e+00
       -2 -1    0    0    0  501 -0.0000000000e+00 -0.0000000000e+00 -2.9087639682e+03 2.9087639682e+03 0.0000000000e+00 0.0000e+00 -1.0000e+00
      -13  1    1    2    0    0 +2.3650906522e+02 +2.3128742376e+03 -1.0787409793e+03 2.5630071942e+03 0.0000000000e+00 0.0000e+00 -1.0000e+00
       13  1    1    2    0    0 -2.3650906522e+02 -2.3128742376e+03 +1.5426795754e+02 2.3300477205e+03 0.0000000000e+00 0.0000e+00 1.0000e+00
<mgrwt>
<rscale>  0 0.48049283E+04</rscale>
<asrwt>0</asrwt>
<pdfrwt beam="1">  1        2 0.30527553E+00 0.48049283E+04</pdfrwt>
<pdfrwt beam="2">  1       -2 0.44750215E+00 0.48049283E+04</pdfrwt>
<totfact> 0.16178195E-02</totfact>
</mgrwt>
<rwgt>
<wgt id='morphing_basis_vector_1'> +5.6268127e-06 </wgt>
<wgt id='morphing_basis_vector_2'> +3.9953977e-06 </wgt>
<wgt id='morphing_basis_vector_3'> +6.2352531e-06 </wgt>
<wgt id='morphing_basis_vector_4'> +4.2486969e-06 </wgt>
<wgt id='morphing_basis_vector_5'> +7.0241220e-06 </wgt>
</rwgt>
</event>
<event>
 4      1 +7.6845000e-11 5.01310400e+03 7.81860800e-03 7.38275300e-02
        2 -1    0    0  501    0 +0.0000000000e+00 +0.0000000000e+00 +3.1369203636e+03 3.1369203636e+03 0.0000000000e+00 0.0000e+00 -1.0000e+00
       -2 -1    0    0    0  501 -0.0000000000e+00 -0.0000000000e+00 -2.0028573914e+03 2.0028573914e+03 0.0000000000e+00 0.0000e+00 1.0000e+00
      -13  1    1    2    0    0 -7.8426862550e+01 -1.3873957474e+03 -1.5717743958e+03 2.0979734230e+03 0.0000000000e+00 0.0000e+00 1.0000e+00
       13  1    1    2    0    0 +7.8426862550e+01 +1.3873957474e+03 +2.7058373679e+03 3.0418043320e+03 0.0000000000e+00 0.0000e+00 -1.0000e+00
<mgrwt>
<rscale>  0 0.50131045E+04</rscale>
<asrwt>0</asrwt>
<pdfrwt beam="1">  1        2 0.48260313E+00 0.50131045E+04</pdfrwt>
<pdfrwt beam="2">  1       -2 0.30813191E+00 0.50131045E+04</pdfrwt>
<totfact> 0.26271768E-02</totfact>
</mgrwt>
<rwgt>
<wgt id='morphing_basis_vector_1'> +6.5733567e-06 </wgt>
<wgt id='morphing_basis_vector_2'> +4.4687297e-06 </wgt>
<wgt id='morphing_basis_vector_3'> +7.2420049e-06 </wgt>
<wgt id='morphing_basis_vector_4'> +5.2286898e-06 </wgt>
<wgt id='morphing_basis_vector_5'> +8.3435432e-06 </wgt>
</rwgt>
</event>
<event>
 4      1 +7.6845000e-11 4.97288100e+03 7.81860800e-03 7.38828100e-02
        2 -1    0    0  501    0 +0.0000000000e+00 +0.0000000000e+00 +3.4317403804e+03 3.4317403804e+03 0.0000000000e+00 0.0000e+00 -1.0000e+00
       -2 -1    0    0    0  501 -0.0000000000e+00 -0.0000000000e+00 -1.8015308523e+03 1.8015308523e+03 0.0000000000e+00 0.0000e+00 1.0000e+00
      -13  1    1    2    0    0 +1.5614712434e+03 -4.6691438366e+02 -1.1610352473e+03 2.0010508068e+03 0.0000000000e+00 0.0000e+00 1.0000e+00
       13  1    1    2    0    0 -1.5614712434e+03 +4.6691438366e+02 +2.7912447754e+03 3.2322204260e+03 0.0000000000e+00 0.0000e+00 -1.0000e+00
<mgrwt>
<rscale>  0 0.49728809E+04</rscale>
<asrwt>0</asrwt>
<pdfrwt beam="1">  1        2 0.52796006E+00 0.49728809E+04</pdfrwt>
<pdfrwt beam="2">  1       -2 0.27715859E+00 0.49728809E+04</pdfrwt>
<totfact> 0.26627444E-02</totfact>
</mgrwt>
<rwgt>
<wgt id='morphing_basis_vector_1'> +6.3684569e-06 </wgt>
<wgt id='morphing_basis_vector_2'> +4.3356297e-06 </wgt>
<wgt id='morphing_basis_vector_3'> +7.0170607e-06 </wgt>
<wgt id='morphing_basis_vector_4'> +5.0562668e-06 </wgt>
<wgt id='morphing_basis_vector_5'> +8.0776250e-06 </wgt>
</rwgt>
</event>
<event>
 4      1 +7.6845000e-11 5.04885300e+03 7.81860800e-03 7.37788500e-02
        2 -1    0    0  501    0 +0.0000000000e+00 +0.0000000000e+00 +2.4088494242e+03 2.4088494242e+03 0.0000000000e+00 0.0000e+00 -1.0000e+00
       -2 -1    0    0    0  501 -0.0000000000e+00 -0.0000000000e+00 -2.6455488252e+03 2.6455488252e+03 0.0000000000e+00 0.0000e+00 1.0000e+00
      -13  1    1    2    0    0 +8.6855697410e+02 +2.0004733497e+03 -1.3911406159e+03 2.5868044095e+03 0.0000000000e+00 0.0000e+00 1.0000e+00
       13  1    1    2    0    0 -8.6855697410e+02 -2.0004733497e+03 +1.1544412148e+03 2.4675938399e+03 0.0000000000e+00 0.0000e+00 -1.0000e+00
<mgrwt>
<rscale>  0 0.50488528E+04</rscale>
<asrwt>0</asrwt>
<pdfrwt beam="1">  1        2 0.37059222E+00 0.50488528E+04</pdfrwt>
<pdfrwt beam="2">  1       -2 0.40700751E+00 0.50488528E+04</pdfrwt>
<totfact> 0.16951696E-02</totfact>
</mgrwt>
<rwgt>
<wgt id='morphing_basis_vector_1'> +6.7896768e-06 </wgt>
<wgt id='morphing_basis_vector_2'> +4.6779515e-06 </wgt>
<wgt id='morphing_basis_vector_3'> +7.4952832e-06 </wgt>
<wgt id='morphing_basis_vector_4'> +5.3214419e-06 </wgt>
<wgt id='morphing_basis_vector_5'> +8.5799539e-06 </wgt>
</rwgt>
</event>
<event>
 4      1 +7.6845000e-11 4.68386600e+03 7.81860800e-03 7.42961400e-02
        2 -1    0    0  501    0 +0.0000000000e+00 +0.0000000000e+00 +2.4381093647e+03 2.4381093647e+03 0.0000000000e+00 0.0000e+00 -1.0000e+00
       -2 -1    0    0    0  501 -0.0000000000e+00 -0.0000000000e+00 -2.2495506414e+03 2.2495506414e+03 0.0000000000e+00 0.0000e+00 1.0000e+00
      -13  1    1    2    0    0 +1.0538498142e+01 -1.6830219796e+03 -1.5355287002e+03 2.2782718084e+03 0.0000000000e+00 0.0000e+00 1.0000e+00
       13  1    1    2    0    0 -1.0538498142e+01 +1.6830219796e+03 +1.7240874235e+03 2.4093881978e+03 0.0000000000e+00 0.0000e+00 -1.0000e+00
<mgrwt>
<rscale>  0 0.46838661E+04</rscale>
<asrwt>0</asrwt>
<pdfrwt beam="1">  1        2 0.37509375E+00 0.46838661E+04</pdfrwt>
<pdfrwt beam="2">  1       -2 0.34608471E+00 0.46838661E+04</pdfrwt>
<totfact> 0.41546852E-02</totfact>
</mgrwt>
<rwgt>
<wgt id='morphing_basis_vector_1'> +5.0189534e-06 </wgt>
<wgt id='morphing_basis_vector_2'> +3.4210467e-06 </wgt>
<wgt id='morphing_basis_vector_3'> +5.5270979e-06 </wgt>
<wgt id='morphing_basis_vector_4'> +3.9706517e-06 </wgt>
<wgt id='morphing_basis_vector_5'> +6.3516014e-06 </wgt>
</rwgt>
</event>
<event>
 4      1 +7.6845000e-11 5.08783100e+03 7.81860800e-03 7.37262500e-02
        2 -1    0    0  501    0 +0.0000000000e+00 +0.0000000000e+00 +2.9691862132e+03 2.9691862132e+03 0.0000000000e+00 0.0000e+00 -1.0000e+00
       -2 -1    0    0    0  501 -0.0000000000e+00 -0.0000000000e+00 -2.1795552627e+03 2.1795552627e+03 0.0000000000e+00 0.0000e+00 1.0000e+00
      -13  1    1    2    0    0 +1.0776282239e+02 -1.4241633582e+03 -1.7355358103e+03 2.2476518070e+03 0.0000000000e+00 0.0000e+00 1.0000e+00
       13  1    1    2    0    0 -1.0776282239e+02 +1.4241633582e+03 +2.5251667608e+03 2.9010896688e+03 0.0000000000e+00 0.0000e+00 -1.0000e+00
<mgrwt>
<rscale>  0 0.50878308E+04</rscale>
<asrwt>0</asrwt>
<pdfrwt beam="1">  1        2 0.45679788E+00 0.50878308E+04</pdfrwt>
<pdfrwt beam="2">  1       -2 0.33531620E+00 0.50878308E+04</pdfrwt>
<totfact> 0.22244841E-02</totfact>
</mgrwt>
<rwgt>
<wgt id='morphing_basis_vector_1'> +6.9729619e-06 </wgt>
<wgt id='morphing_basis_vector_2'> +4.7412764e-06 </wgt>
<wgt id='morphing_basis_vector_3'> +7.6837049e-06 </wgt>
<wgt id='morphing_basis_vector_4'> +5.5481682e-06 </wgt>
<wgt id='morphing_basis_vector_5'> +8.8538610e-06 </wgt>
</rwgt>
</event>
<event>
 4      1 +7.6845000e-11 4.74129000e+03 7.81860800e-03 7.42116700e-02
        2 -1    0    0  501    0 +0.0000000000e+00 +0.0000000000e+00 +3.2378320229e+03 3.2378320229e+03 0.0000000000e+00 0.0000e+00 1.0000e+00
       -2 -1    0    0    0  501 -0.0000000000e+00 -0.0000000000e+00 -1.7357162295e+03 1.7357162295e+03 0.0000000000e+00 0.0000e+00 -1.0000e+00
      -13  1    1    2    0    0 -7.2143487115e+01 +1.2850255617e+03 -1.3373108346e+03 1.8560430074e+03 0.0000000000e+00 0.0000e+00 -1.0000e+00
       13  1    1    2    0    0 +7.2143487115e+01 -1.2850255617e+03 +2.8394266280e+03 3.1175052450e+03 0.0000000000e+00 0.0000e+00 1.0000e+00
<mgrwt>
<rscale>  0 0.47412899E+04</rscale>
<asrwt>0</asrwt>
<pdfrwt beam="1">  1        2 0.49812800E+00 0.47412899E+04</pdfrwt>
<pdfrwt beam="2">  1       -2 0.26703327E+00 0.47412899E+04</pdfrwt>
<totfact> 0.43518996E-02</totfact>
</mgrwt>
<rwgt>
<wgt id='morphing_basis_vector_1'> +5.2634072e-06 </wgt>
<wgt id='morphing_basis_vector_2'> +3.5761358e-06 </wgt>
<wgt id='morphing_basis_vector_3'> +5.7945428e-06 </wgt>
<wgt id='morphing_basis_vector_4'> +4.1809402e-06 </wgt>
<wgt id='morphing_basis_vector_5'> +6.6709595e-06 </wgt>
</rwgt>
</event>
<event>
 4      1 +7.6845000e-11 5.45663400e+03 7.81860800e-03 7.32512200e-02
        2 -1    0    0  501    0 +0.0000000000e+00 +0.0000000000e+00 +2.5300659879e+03 2.5300659879e+03 0.0000000000e+00 0.0000e+00 -1.0000e+00
       -2 -1    0    0    0  501 -0.0000000000e+00 -0.0000000000e+00 -2.9421023214e+03 2.9421023214e+03 0.0000000000e+00 0.0000e+00 1.0000e+00
      -13  1    1    2    0    0 -1.2427539213e+03 -1.4839318503e+03 -2.1343084066e+03 2.8812780879e+03 0.0000000000e+00 0.0000e+00 1.0000e+00
       13  1    1    2    0    0 +1.2427539213e+03 +1.4839318503e+03 +1.7222720732e+03 2.5908902214e+03 0.0000000000e+00 0.0000e+00 -1.0000e+00
<mgrwt>
<rscale>  0 0.54566338E+04</rscale>
<asrwt>0</asrwt>
<pdfrwt beam="1">  1        2 0.38924092E+00 0.54566338E+04</pdfrwt>
<pdfrwt beam="2">  1       -2 0.45263113E+00 0.54566338E+04</pdfrwt>
<totfact> 0.68530346E-03</totfact>
</mgrwt>
<rwgt>
<wgt id='morphing_basis_vector_1'> +9.2256734e-06 </wgt>
<wgt id='morphing_basis_vector_2'> +6.2940023e-06 </wgt>
<wgt id='morphing_basis_vector_3'> +1.0178068e-05 </wgt>
<wgt id='morphing_basis_vector_4'> +7.3292324e-06 </wgt>
<wgt id='morphing_basis_vector_5'> +1.1721849e-05 </wgt>
</rwgt>
</event>
<event>
 4      1 +7.6845000e-11 5.15714400e+03 7.81860800e-03 7.36338800e-02
        2 -1    0    0  501    0 +0.0000000000e+00 +0.0000000000e+00 +2.2687807226e+03 2.2687807226e+03 0.0000000000e+00 0.0000e+00 -1.0000e+00
       -2 -1    0    0    0  501 -0.0000000000e+00 -0.0000000000e+00 -2.9306633492e+03 2.9306633492e+03 0.0000000000e+00 0.0000e+00 1.0000e+00
      -13  1    1    2    0    0 +1.4210025635e+03 +2.1256587021e+03 +5.5012624636e+00 2.5568933233e+03 0.0000000000e+00 0.0000e+00 1.0000e+00
       13  1    1    2    0    0 -1.4210025635e+03 -2.1256587021e+03 -6.6738388902e+02 2.6425507485e+03 0.0000000000e+00 0.0000e+00 -1.0000e+00
<mgrwt>
<rscale>  0 0.51571436E+04</rscale>
<asrwt>0</asrwt>
<pdfrwt beam="1">  1        2 0.34904319E+00 0.51571436E+04</pdfrwt>
<pdfrwt beam="2">  1       -2 0.45087128E+00 0.51571436E+04</pdfrwt>
<totfact> 0.10276090E-02</totfact>
</mgrwt>
<rwgt>
<wgt id='morphing_basis_vector_1'> +7.7836987e-06 </wgt>
<wgt id='morphing_basis_vector_2'> +6.2501625e-06 </wgt>
<wgt id='morphing_basis_vector_3'> +8.8001459e-06 </wgt>
<wgt id='morphing_basis_vector_4'> +4.9531958e-06 </wgt>
<wgt id='morphing_basis_vector_5'> +9.2719385e-06 </wgt>
</rwgt>
</event>
<event>
 4      1 +7.6845000e-11 5.20923000e+03 7.81860800e-03 7.35654400e-02
        2 -1    0    0  501    0 +0.0000000000e+00 +0.0000000000e+00 +2.7022027773e+03 2.7022027773e+03 0.0000000000e+00 0.0000e+00 -1.0000e+00
       -2 -1    0    0    0  501 -0.0000000000e+00 -0.0000000000e+00 -2.5105519471e+03 2.5105519471e+03 0.0000000000e+00 0.0000e+00 1.0000e+00
      -13  1    1    2    0    0 -2.2313906371e+03 +1.2514164178e+03 -3.9325182297e+02 2.5883960714e+03 0.0000000000e+00 0.0000e+00 1.0000e+00
       13  1    1    2    0    0 +2.2313906371e+03 -1.2514164178e+03 +5.8490265310e+02 2.6243586530e+03 0.0000000000e+00 0.0000e+00 -1.0000e+00
<mgrwt>
<rscale>  0 0.52092304E+04</rscale>
<asrwt>0</asrwt>
<pdfrwt beam="1">  1        2 0.41572350E+00 0.52092304E+04</pdfrwt>
<pdfrwt beam="2">  1       -2 0.38623876E+00 0.52092304E+04</pdfrwt>
<totfact> 0.15223566E-02</totfact>
</mgrwt>
<rwgt>
<wgt id='morphing_basis_vector_1'> +7.7968947e-06 </wgt>
<wgt id='morphing_basis_vector_2'> +5.6103138e-06 </wgt>
<wgt id='morphing_basis_vector_3'> +8.6653557e-06 </wgt>
<wgt id='morphing_basis_vector_4'> +5.8076088e-06 </wgt>
<wgt id='morphing_basis_vector_5'> +9.7079573e-06 </wgt>
</rwgt>
</event>
<event>
 4      1 +7.6845000e-11 4.97609700e+03 7.81860800e-03 7.38783700e-02
        2 -1    0    0  501    0 +0.0000000000e+00 +0.0000000000e+00 +2.9031001695e+03 2.9031001695e+03 0.0000000000e+00 0.0000e+00 1.0000e+00
       -2 -1    0    0    0  501 -0.0000000000e+00 -0.0000000000e+00 -2.1323363186e+03 2.1323363186e+03 0.0000000000e+00 0.0000e+00 -1.0000e+00
      -13  1    1    2    0    0 +5.5552723473e+02 -1.5065272111e+03 -1.5378480699e+03 2.2233334056e+03 0.0000000000e+00 0.0000e+00 -1.0000e+00
       13  1    1    2    0    0 -5.5552723473e+02 +1.5065272111e+03 +2.3086119207e+03 2.8121030825e+03 0.0000000000e+00 0.0000e+00 1.0000e+00
<mgrwt>
<rscale>  0 0.49760972E+04</rscale>
<asrwt>0</asrwt>
<pdfrwt beam="1">  1        2 0.44663079E+00 0.49760972E+04</pdfrwt>
<pdfrwt beam="2">  1       -2 0.32805174E+00 0.49760972E+04</pdfrwt>
<totfact> 0.27627980E-02</totfact>
</mgrwt>
<rwgt>
<wgt id='morphing_basis_vector_1'> +6.3844970e-06 </wgt>
<wgt id='morphing_basis_vector_2'> +4.3456772e-06 </wgt>
<wgt id='morphing_basis_vector_3'> +7.0345843e-06 </wgt>
<wgt id='morphing_basis_vector_4'> +5.0702469e-06 </wgt>
<wgt id='morphing_basis_vector_5'> +8.0986807e-06 </wgt>
</rwgt>
</event>
<event>
 4      1 +7.6845000e-11 5.15189200e+03 7.81860800e-03 7.36408300e-02
        2 -1    0    0  501    0 +0.0000000000e+00 +0.0000000000e+00 +4.3209714422e+03 4.3209714422e+03 0.0000000000e+00 0.0000e+00 1.0000e+00
       -2 -1    0    0    0  501 -0.0000000000e+00 -0.0000000000e+00 -1.5356494414e+03 1.5356494414e+03 0.0000000000e+00 0.0000e+00 -1.0000e+00
      -13  1    1    2    0    0 -2.0129976304e+03 +5.5542923917e+02 -3.2190989813e+02 2.1128859606e+03 0.0000000000e+00 0.0000e+00 -1.0000e+00
       13  1    1    2    0    0 +2.0129976304e+03 -5.5542923917e+02 +3.1072318990e+03 3.7437349230e+03 0.0000000000e+00 0.0000e+00 1.0000e+00
<mgrwt>
<rscale>  0 0.51518918E+04</rscale>
<asrwt>0</asrwt>
<pdfrwt beam="1">  1        2 0.66476484E+00 0.51518918E+04</pdfrwt>
<pdfrwt beam="2">  1       -2 0.23625376E+00 0.51518918E+04</pdfrwt>
<totfact> 0.92624128E-03</totfact>
</mgrwt>
<rwgt>
<wgt id='morphing_basis_vector_1'> +7.3473328e-06 </wgt>
<wgt id='morphing_basis_vector_2'> +5.0361194e-06 </wgt>
<wgt id='morphing_basis_vector_3'> +8.1066438e-06 </wgt>
<wgt id='morphing_basis_vector_4'> +5.7961574e-06 </wgt>
<wgt id='morphing_basis_vector_5'> +9.3065240e-06 </wgt>
</rwgt>
</event>
<event>
 4      1 +7.6845000e-11 5.41351400e+03 7.81860800e-03 7.33047400e-02
        2 -1    0    0  501    0 +0.0000000000e+00 +0.0000000000e+00 +2.2140281891e+03 2.2140281891e+03 0.0000000000e+00 0.0000e+00 1.0000e+00
       -2 -1    0    0    0  501 -0.0000000000e+00 -0.0000000000e+00 -3.3091419028e+03 3.3091419028e+03 0.0000000000e+00 0.0000e+00 -1.0000e+00
      -13  1    1    2    0    0 -1.6763761859e+03 +7.6682253653e+02 -2.5696927874e+03 3.1625266704e+03 0.0000000000e+00 0.0000e+00 -1.0000e+00
       13  1    1    2    0    0 +1.6763761859e+03 -7.6682253653e+02 +1.4745790738e+03 2.3606434216e+03 0.0000000000e+00 0.0000e+00 1.0000e+00
<mgrwt>
<rscale>  0 0.54135140E+04</rscale>
<asrwt>0</asrwt>
<pdfrwt beam="1">  1        2 0.34061972E+00 0.54135140E+04</pdfrwt>
<pdfrwt beam="2">  1       -2 0.50909875E+00 0.54135140E+04</pdfrwt>
<totfact> 0.40471208E-03</totfact>
</mgrwt>
<rwgt>
<wgt id='morphing_basis_vector_1'> +8.9360741e-06 </wgt>
<wgt id='morphing_basis_vector_2'> +6.0911191e-06 </wgt>
<wgt id='morphing_basis_vector_3'> +9.8565957e-06 </wgt>
<wgt id='morphing_basis_vector_4'> +7.1044256e-06 </wgt>
<wgt id='morphing_basis_vector_5'> +1.1355131e-05 </wgt>
</rwgt>
</event>
<event>
 4      1 +7.6845000e-11 5.30112800e+03 7.81860800e-03 7.34466800e-02
        2 -1    0    0  501    0 +0.0000000000e+00 +0.0000000000e+00 +2.5266997772e+03 2.5266997772e+03 0.0000000000e+00 0.0000e+00 -1.0000e+00
       -2 -1    0    0    0  501 -0.0000000000e+00 -0.0000000000e+00 -2.7804999990e+03 2.7804999990e+03 0.0000000000e+00 0.0000e+00 1.0000e+00
      -13  1    1    2    0    0 +8.8507712760e+02 +1.5204586250e+03 -2.1116776248e+03 2.7485156618e+03 0.0000000000e+00 0.0000e+00 1.0000e+00
       13  1    1    2    0    0 -8.8507712760e+02 -1.5204586250e+03 +1.8578774031e+03 2.5586841144e+03 0.0000000000e+00 0.0000e+00 -1.0000e+00
<mgrwt>
<rscale>  0 0.53011277E+04</rscale>
<asrwt>0</asrwt>
<pdfrwt beam="1">  1        2 0.38872304E+00 0.53011277E+04</pdfrwt>
<pdfrwt beam="2">  1       -2 0.42776923E+00 0.53011277E+04</pdfrwt>
<totfact> 0.10308376E-02</totfact>
</mgrwt>
<rwgt>
<wgt id='morphing_basis_vector_1'> +8.2177403e-06 </wgt>
<wgt id='morphing_basis_vector_2'> +5.5983296e-06 </wgt>
<wgt id='morphing_basis_vector_3'> +9.0616820e-06 </wgt>
<wgt id='morphing_basis_vector_4'> +6.5333149e-06 </wgt>
<wgt id='morphing_basis_vector_5'> +1.0438912e-05 </wgt>
</rwgt>
</event>
<event>
 4      1 +7.6845000e-11 5.22271000e+03 7.81860800e-03 7.35478700e-02
        2 -1    0    0  501    0 +0.0000000000e+00 +0.0000000000e+00 +3.8479458337e+03 3.8479458337e+03 0.0000000000e+00 0.0000e+00 -1.0000e+00
       -2 -1    0    0    0  501 -0.0000000000e+00 -0.0000000000e+00 -1.7721599404e+03 1.7721599404e+03 0.0000000000e+00 0.0000e+00 1.0000e+00
      -13  1    1    2    0    0 +1.9332432093e+03 +9.8297231072e+02 -5.2725813457e+02 2.2319643838e+03 0.0000000000e+00 0.0000e+00 1.0000e+00
       13  1    1    2    0    0 -1.9332432093e+03 -9.8297231072e+02 +2.6030440278e+03 3.3881413903e+03 0.0000000000e+00 0.0000e+00 -1.0000e+00
<mgrwt>
<rscale>  0 0.52227102E+04</rscale>
<asrwt>0</asrwt>
<pdfrwt beam="1">  1        2 0.59199166E+00 0.52227102E+04</pdfrwt>
<pdfrwt beam="2">  1       -2 0.27263999E+00 0.52227102E+04</pdfrwt>
<totfact> 0.13488253E-02</totfact>
</mgrwt>
<rwgt>
<wgt id='morphing_basis_vector_1'> +7.7623595e-06 </wgt>
<wgt id='morphing_basis_vector_2'> +5.3299606e-06 </wgt>
<wgt id='morphing_basis_vector_3'> +8.5679569e-06 </wgt>
<wgt id='morphing_basis_vector_4'> +6.1140750e-06 </wgt>
<wgt id='morphing_basis_vector_5'> +9.8297630e-06 </wgt>
</rwgt>
</event>
<event>
 4      1 +7.6845000e-11 4.63029500e+03 7.81860800e-03 7.43760500e-02
        2 -1    0    0  501    0 +0.0000000000e+00 +0.0000000000e+00 +1.0248634639e+03 1.0248634639e+03 0.0000000000e+00 0.0000e+00 1.0000e+00
       -2 -1    0    0    0  501 -0.0000000000e+00 -0.0000000000e+00 -5.2298747469e+03 5.2298747469e+03 0.0000000000e+00 0.0000e+00 -1.0000e+00
      -13  1    1    2    0    0 +7.9937329177e+01 -1.9342480420e+03 -3.8176877244e+03 4.2804725236e+03 0.0000000000e+00 0.0000e+00 -1.0000e+00
       13  1    1    2    0    0 -7.9937329177e+01 +1.9342480420e+03 -3.8732355860e+02 1.9742656872e+03 0.0000000000e+00 0.0000e+00 1.0000e+00
<mgrwt>
<rscale>  0 0.46302948E+04</rscale>
<asrwt>0</asrwt>
<pdfrwt beam="1">  1        2 0.15767131E+00 0.46302948E+04</pdfrwt>
<pdfrwt beam="2">  1       -2 0.80459610E+00 0.46302948E+04</pdfrwt>
<totfact> 0.20929153E-03</totfact>
</mgrwt>
<rwgt>
<wgt id='morphing_basis_vector_1'> +4.8042689e-06 </wgt>
<wgt id='morphing_basis_vector_2'> +3.2973483e-06 </wgt>
<wgt id='morphing_basis_vector_3'> +5.2950738e-06 </wgt>
<wgt id='morphing_basis_vector_4'> +3.7698082e-06 </wgt>
<wgt id='morphing_basis_vector_5'> +6.0631325e-06 </wgt>
</rwgt>
</event>
<event>
 4      1 +7.6845000e-11 4.64664700e+03 7.81860800e-03 7.43515400e-02
        2 -1    0    0  501    0 +0.0000000000e+00 +0.0000000000e+00 +3.0572470147e+03 3.0572470147e+03 0.0000000000e+00 0.0000e+00 -1.0000e+00
       -2 -1    0    0    0  501 -0.0000000000e+00 -0.0000000000e+00 -1.7655859221e+03 1.7655859221e+03 0.0000000000e+00 0.0000e+00 1.0000e+00
      -13  1    1    2    0    0 -1.5857531971e+03 +3.8479716195e+02 -1.0707062668e+03 1.9516900286e+03 0.0000000000e+00 0.0000e+00 1.0000e+00
       13  1    1    2    0    0 +1.5857531971e+03 -3.8479716195e+02 +2.3623673594e+03 2.8711429081e+03 0.0000000000e+00 0.0000e+00 -1.0000e+00
<mgrwt>
<rscale>  0 0.46466471E+04</rscale>
<asrwt>0</asrwt>
<pdfrwt beam="1">  1        2 0.47034569E+00 0.46466471E+04</pdfrwt>
<pdfrwt beam="2">  1       -2 0.27162860E+00 0.46466471E+04</pdfrwt>
<totfact> 0.53945068E-02</totfact>
</mgrwt>
<rwgt>
<wgt id='morphing_basis_vector_1'> +4.8611246e-06 </wgt>
<wgt id='morphing_basis_vector_2'> +3.3114696e-06 </wgt>
<wgt id='morphing_basis_vector_3'> +5.3522837e-06 </wgt>
<wgt id='morphing_basis_vector_4'> +3.8471603e-06 </wgt>
<wgt id='morphing_basis_vector_5'> +6.1515333e-06 </wgt>
</rwgt>
</event>
<event>
 4      1 +7.6845000e-11 5.14568300e+03 7.81860800e-03 7.36490500e-02
        2 -1    0    0  501    0 +0.0000000000e+00 +0.0000000000e+00 +3.2394464047e+03 3.2394464047e+03 0.0000000000e+00 0.0000e+00 -1.0000e+00
       -2 -1    0    0    0  501 -0.0000000000e+00 -0.0000000000e+00 -2.0434091187e+03 2.0434091187e+03 0.0000000000e+00 0.0000e+00 1.0000e+00
      -13  1    1    2    0    0 +2.4073428839e+03 +8.6159864902e+02 +3.0427550691e+02 2.5749243827e+03 0.0000000000e+00 0.0000e+00 1.0000e+00
       13  1    1    2    0    0 -2.4073428839e+03 -8.6159864902e+02 +8.9176177911e+02 2.7079311408e+03 0.0000000000e+00 0.0000e+00 -1.0000e+00
<mgrwt>
<rscale>  0 0.51456834E+04</rscale>
<asrwt>0</asrwt>
<pdfrwt beam="1">  1        2 0.49837637E+00 0.51456834E+04</pdfrwt>
<pdfrwt beam="2">  1       -2 0.31437063E+00 0.51456834E+04</pdfrwt>
<totfact> 0.20123201E-02</totfact>
</mgrwt>
<rwgt>
<wgt id='morphing_basis_vector_1'> +7.4699625e-06 </wgt>
<wgt id='morphing_basis_vector_2'> +5.4754960e-06 </wgt>
<wgt id='morphing_basis_vector_3'> +8.3241336e-06 </wgt>
<wgt id='morphing_basis_vector_4'> +5.4315651e-06 </wgt>
<wgt id='morphing_basis_vector_5'> +9.2333740e-06 </wgt>
</rwgt>
</event>
<event>
 4      1 +7.6845000e-11 4.76325000e+03 7.81860800e-03 7.41796800e-02
        2 -1    0    0  501    0 +0.0000000000e+00 +0.0000000000e+00 +3.0892612845e+03 3.0892612845e+03 0.0000000000e+00 0.0000e+00 -1.0000e+00
       -2 -1    0    0    0  501 -0.0000000000e+00 -0.0000000000e+00 -1.8360821027e+03 1.8360821027e+03 0.0000000000e+00 0.0000e+00 1.0000e+00
      -13  1    1    2    0    0 -1.7926503290e+03 +1.5186873816e+03 +2.2327706597e+02 2.3600549174e+03 0.0000000000e+00 0.0000e+00 1.0000e+00
       13  1    1    2    0    0 +1.7926503290e+03 -1.5186873816e+03 +1.0299021158e+03 2.5652884698e+03 0.0000000000e+00 0.0000e+00 -1.0000e+00
<mgrwt>
<rscale>  0 0.47632499E+04</rscale>
<asrwt>0</asrwt>
<pdfrwt beam="1">  1        2 0.47527097E+00 0.47632499E+04</pdfrwt>
<pdfrwt beam="2">  1       -2 0.28247417E+00 0.47632499E+04</pdfrwt>
<totfact> 0.42945327E-02</totfact>
</mgrwt>
<rwgt>
<wgt id='morphing_basis_vector_1'> +5.4665559e-06 </wgt>
<wgt id='morphing_basis_vector_2'> +3.9520865e-06 </wgt>
<wgt id='morphing_basis_vector_3'> +6.0731772e-06 </wgt>
<wgt id='morphing_basis_vector_4'> +4.0351072e-06 </wgt>
<wgt id='morphing_basis_vector_5'> +6.7770860e-06 </wgt>
</rwgt>
</event>
<event>
 4      1 +7.6845000e-11 5.10855200e+03 7.81860800e-03 7.36984800e-02
        2 -1    0    0  501    0 +0.0000000000e+00 +0.0000000000e+00 +2.0972372373e+03 2.0972372373e+03 0.0000000000e+00 0.0000e+00 -1.0000e+00
       -2 -1    0    0    0  501 -0.0000000000e+00 -0.0000000000e+00 -3.1109143621e+03 3.1109143621e+03 0.0000000000e+00 0.0000e+00 1.0000e+00
      -13  1    1    2    0    0 +9.4335689645e+02 +2.2484144303e+03 -1.2826184311e+03 2.7550680072e+03 0.0000000000e+00 0.0000e+00 1.0000e+00
       13  1    1    2    0    0 -9.4335689645e+02 -2.2484144303e+03 +2.6894130620e+02 2.4530835922e+03 0.0000000000e+00 0.0000e+00 -1.0000e+00
<mgrwt>
<rscale>  0 0.51085518E+04</rscale>
<asrwt>0</asrwt>
<pdfrwt beam="1">  1        2 0.32265188E+00 0.51085518E+04</pdfrwt>
<pdfrwt beam="2">  1       -2 0.47860221E+00 0.51085518E+04</pdfrwt>
<totfact> 0.81631369E-03</totfact>
</mgrwt>
<rwgt>
<wgt id='morphing_basis_vector_1'> +7.1663770e-06 </wgt>
<wgt id='morphing_basis_vector_2'> +5.0523074e-06 </wgt>
<wgt id='morphing_basis_vector_3'> +7.9387244e-06 </wgt>
<wgt id='morphing_basis_vector_4'> +5.4699199e-06 </wgt>
<wgt id='morphing_basis_vector_5'> +8.9852138e-06 </wgt>
</rwgt>
</event>
<event>
 4      1 +7.6845000e-11 4.95611900e+03 7.81860800e-03 7.39060000e-02
        2 -1    0    0  501    0 +0.0000000000e+00 +0.0000000000e+00 +3.4282850037e+03 3.4282850037e+03 0.0000000000e+00 0.0000e+00 -1.0000e+00
       -2 -1    0    0    0  501 -0.0000000000e+00 -0.0000000000e+00 -1.7912103914e+03 1.7912103914e+03 0.0000000000e+00 0.0000e+00 1.0000e+00
      -13  1    1    2    0    0 +9.5927995060e+02 +2.2827171304e+03 +7.1447219572e+02 2.5771080768e+03 0.0000000000e+00 0.0000e+00 1.0000e+00
       13  1    1    2    0    0 -9.5927995060e+02 -2.2827171304e+03 +9.2260241653e+02 2.6423873183e+03 0.0000000000e+00 0.0000e+00 -1.0000e+00
<mgrwt>
<rscale>  0 0.49561193E+04</rscale>
<asrwt>0</asrwt>
<pdfrwt beam="1">  1        2 0.52742846E+00 0.49561193E+04</pdfrwt>
<pdfrwt beam="2">  1       -2 0.27557083E+00 0.49561193E+04</pdfrwt>
<totfact> 0.27491311E-02</totfact>
</mgrwt>
<rwgt>
<wgt id='morphing_basis_vector_1'> +6.4782575e-06 </wgt>
<wgt id='morphing_basis_vector_2'> +4.8500562e-06 </wgt>
<wgt id='morphing_basis_vector_3'> +7.2392020e-06 </wgt>
<wgt id='morphing_basis_vector_4'> +4.5729535e-06 </wgt>
<wgt id='morphing_basis_vector_5'> +7.9341161e-06 </wgt>
</rwgt>
</event>
<event>
 4      1 +7.6845000e-11 4.74226900e+03 7.81860800e-03 7.42102400e-02
        2 -1    0    0  501    0 +0.0000000000e+00 +0.0000000000e+00 +3.4687037497e+03 3.4687037497e+03 0.0000000000e+00 0.0000e+00 1.0000e+00
       -2 -1    0    0    0  501 -0.0000000000e+00 -0.0000000000e+00 -1.6208588503e+03 1.6208588503e+03 0.0000000000e+00 0.0000e+00 -1.0000e+00
      -13  1    1    2    0    0 -3.2113715415e+02 +1.8615531868e+03 -6.1412646163e+02 1.9863687095e+03 0.0000000000e+00 0.0000e+00 -1.0000e+00
       13  1    1    2    0    0 +3.2113715415e+02 -1.8615531868e+03 +2.4619713610e+03 3.1031938905e+03 0.0000000000e+00 0.0000e+00 1.0000e+00
<mgrwt>
<rscale>  0 0.47422691E+04</rscale>
<asrwt>0</asrwt>
<pdfrwt beam="1">  1        2 0.53364673E+00 0.47422691E+04</pdfrwt>
<pdfrwt beam="2">  1       -2 0.24936290E+00 0.47422691E+04</pdfrwt>
<totfact> 0.39551430E-02</totfact>
</mgrwt>
<rwgt>
<wgt id='morphing_basis_vector_1'> +5.2791048e-06 </wgt>
<wgt id='morphing_basis_vector_2'> +3.6124652e-06 </wgt>
<wgt id='morphing_basis_vector_3'> +5.8177304e-06 </wgt>
<wgt id='morphing_basis_vector_4'> +4.1602288e-06 </wgt>
<wgt id='morphing_basis_vector_5'> +6.6744672e-06 </wgt>
</rwgt>
</event>
<event>
 4      1 +7.6845000e-11 5.48765800e+03 7.81860800e-03 7.32130200e-02
        2 -1    0    0  501    0 +0.0000000000e+00 +0.0000000000e+00 +3.3581095021e+03 3.3581095021e+03 0.0000000000e+00 0.0000e+00 -1.0000e+00
       -2 -1    0    0    0  501 -0.0000000000e+00 -0.0000000000e+00 -2.2419151789e+03 2.2419151789e+03 0.0000000000e+00 0.0000e+00 1.0000e+00
      -13  1    1    2    0    0 -8.6501076790e+02 -2.5875527583e+03 +2.6071320413e+02 2.7407379080e+03 0.0000000000e+00 0.0000e+00 1.0000e+00
       13  1    1    2    0    0 +8.6501076790e+02 +2.5875527583e+03 +8.5548111913e+02 2.8592867731e+03 0.0000000000e+00 0.0000e+00 -1.0000e+00
<mgrwt>
<rscale>  0 0.54876577E+04</rscale>
<asrwt>0</asrwt>
<pdfrwt beam="1">  1        2 0.51663223E+00 0.54876577E+04</pdfrwt>
<pdfrwt beam="2">  1       -2 0.34491003E+00 0.54876577E+04</pdfrwt>
<totfact> 0.10193420E-02</totfact>
</mgrwt>
<rwgt>
<wgt id='morphing_basis_vector_1'> +9.6597867e-06 </wgt>
<wgt id='morphing_basis_vector_2'> +7.0931746e-06 </wgt>
<wgt id='morphing_basis_vector_3'> +1.0774762e-05 </wgt>
<wgt id='morphing_basis_vector_4'> +7.0213926e-06 </wgt>
<wgt id='morphing_basis_vector_5'> +1.1951419e-05 </wgt>
</rwgt>
</event>
<event>
 4      1 +7.6845000e-11 4.70241300e+03 7.81860800e-03 7.42687200e-02
        2 -1    0    0  501    0 +0.0000000000e+00 +0.0000000000e+00 +3.3017296468e+03 3.3017296468e+03 0.0000000000e+00 0.0000e+00 -1.0000e+00
       -2 -1    0    0    0  501 -0.0000000000e+00 -0.0000000000e+00 -1.6743258196e+03 1.6743258196e+03 0.0000000000e+00 0.0000e+00 1.0000e+00
      -13  1    1    2    0    0 -1.0926513801e+02 +2.0043964547e+03 -4.8172011345e+02 2.0643638937e+03 0.0000000000e+00 0.0000e+00 1.0000e+00
       13  1    1    2    0    0 +1.0926513801e+02 -2.0043964547e+03 +2.1091239407e+03 2.9116915728e+03 0.0000000000e+00 0.0000e+00 -1.0000e+00
<mgrwt>
<rscale>  0 0.47024127E+04</rscale>
<asrwt>0</asrwt>
<pdfrwt beam="1">  1        2 0.50795841E+00 0.47024127E+04</pdfrwt>
<pdfrwt beam="2">  1       -2 0.25758859E+00 0.47024127E+04</pdfrwt>
<totfact> 0.45769916E-02</totfact>
</mgrwt>
<rwgt>
<wgt id='morphing_basis_vector_1'> +5.1123729e-06 </wgt>
<wgt id='morphing_basis_vector_2'> +3.5158699e-06 </wgt>
<wgt id='morphing_basis_vector_3'> +5.6374004e-06 </wgt>
<wgt id='morphing_basis_vector_4'> +4.0048860e-06 </wgt>
<wgt id='morphing_basis_vector_5'> +6.4507195e-06 </wgt>
</rwgt>
</event>
<event>
 4      1 +7.6845000e-11 4.87723000e+03 7.81860800e-03 7.40164100e-02
        2 -1    0    0  501    0 +0.0000000000e+00 +0.0000000000e+00 +3.0575570456e+03 3.0575570456e+03 0.0000000000e+00 0.0000e+00 -1.0000e+00
       -2 -1    0    0    0  501 -0.0000000000e+00 -0.0000000000e+00 -1.9449655681e+03 1.9449655681e+03 0.0000000000e+00 0.0000e+00 1.0000e+00
      -13  1    1    2    0    0 -6.9584796420e+02 -1.9489412841e+02 -1.8326257994e+03 1.9699506165e+03 0.0000000000e+00 0.0000e+00 1.0000e+00
       13  1    1    2    0    0 +6.9584796420e+02 +1.9489412841e+02 +2.9452172769e+03 3.0325719973e+03 0.0000000000e+00 0.0000e+00 -1.0000e+00
<mgrwt>
<rscale>  0 0.48772300E+04</rscale>
<asrwt>0</asrwt>
<pdfrwt beam="1">  1        2 0.47039340E+00 0.48772300E+04</pdfrwt>
<pdfrwt beam="2">  1       -2 0.29922547E+00 0.48772300E+04</pdfrwt>
<totfact> 0.34408017E-02</totfact>
</mgrwt>
<rwgt>
<wgt id='morphing_basis_vector_1'> +5.8894446e-06 </wgt>
<wgt id='morphing_basis_vector_2'> +3.9986316e-06 </wgt>
<wgt id='morphing_basis_vector_3'> +6.4853050e-06 </wgt>
<wgt id='morphing_basis_vector_4'> +4.6868409e-06 </wgt>
<wgt id='morphing_basis_vector_5'> +7.4727631e-06 </wgt>
</rwgt>
</event>
<event>
 4      1 +7.6845000e-11 4.93112100e+03 7.81860800e-03 7.39407600e-02
        2 -1    0    0  501    0 +0.0000000000e+00 +0.0000000000e+00 +2.6164545266e+03 2.6164545266e+03 0.0000000000e+00 0.0000e+00 -1.0000e+00
       -2 -1    0    0    0  501 -0.0000000000e+00 -0.0000000000e+00 -2.3233683807e+03 2.3233683807e+03 0.0000000000e+00 0.0000e+00 1.0000e+00
      -13  1    1    2    0    0 +6.2838528888e+02 +6.6584889261e+02 -2.1467686439e+03 2.3338462738e+03 0.0000000000e+00 0.0000e+00 1.0000e+00
       13  1    1    2    0    0 -6.2838528888e+02 -6.6584889261e+02 +2.4398547898e+03 2.6059766335e+03 0.0000000000e+00 0.0000e+00 -1.0000e+00
<mgrwt>
<rscale>  0 0.49311207E+04</rscale>
<asrwt>0</asrwt>
<pdfrwt beam="1">  1        2 0.40253147E+00 0.49311207E+04</pdfrwt>
<pdfrwt beam="2">  1       -2 0.35744129E+00 0.49311207E+04</pdfrwt>
<totfact> 0.26905622E-02</totfact>
</mgrwt>
<rwgt>
<wgt id='morphing_basis_vector_1'> +6.1533797e-06 </wgt>
<wgt id='morphing_basis_vector_2'> +4.1786914e-06 </wgt>
<wgt id='morphing_basis_vector_3'> +6.7770036e-06 </wgt>
<wgt id='morphing_basis_vector_4'> +4.8976875e-06 </wgt>
<wgt id='morphing_basis_vector_5'> +7.8096506e-06 </wgt>
</rwgt>
</event>
<event>
 4      1 +7.6845000e-11 5.05818400e+03 7.81860800e-03 7.37662200e-02
        2 -1    0    0  501    0 +0.0000000000e+00 +0.0000000000e+00 +4.2902961323e+03 4.2902961323e+03 0.0000000000e+00 0.0000e+00 1.0000e+00
       -2 -1    0    0    0  501 -0.0000000000e+00 -0.0000000000e+00 -1.4908773856e+03 1.4908773856e+03 0.0000000000e+00 0.0000e+00 -1.0000e+00
      -13  1    1    2    0    0 -3.0052659230e+02 +2.0323507744e+03 -2.8608618297e+02 2.0742736577e+03 0.0000000000e+00 0.0000e+00 -1.0000e+00
       13  1    1    2    0    0 +3.0052659230e+02 -2.0323507744e+03 +3.0855049297e+03 3.7068998602e+03 0.0000000000e+00 0.0000e+00 1.0000e+00
<mgrwt>
<rscale>  0 0.50581837E+04</rscale>
<asrwt>0</asrwt>
<pdfrwt beam="1">  1        2 0.66004555E+00 0.50581837E+04</pdfrwt>
<pdfrwt beam="2">  1       -2 0.22936575E+00 0.50581837E+04</pdfrwt>
<totfact> 0.11154034E-02</totfact>
</mgrwt>
<rwgt>
<wgt id='morphing_basis_vector_1'> +6.8290220e-06 </wgt>
<wgt id='morphing_basis_vector_2'> +4.6807986e-06 </wgt>
<wgt id='morphing_basis_vector_3'> +7.5332626e-06 </wgt>
<wgt id='morphing_basis_vector_4'> +5.3840784e-06 </wgt>
<wgt id='morphing_basis_vector_5'> +8.6456890e-06 </wgt>
</rwgt>
</event>
<event>
 4      1 +7.6845000e-11 4.62166600e+03 7.81860800e-03 7.43890200e-02
        2 -1    0    0  501    0 +0.0000000000e+00 +0.0000000000e+00 +3.5820515162e+03 3.5820515162e+03 0.0000000000e+00 0.0000e+00 -1.0000e+00
       -2 -1    0    0    0  501 -0.0000000000e+00 -0.0000000000e+00 -1.4907518534e+03 1.4907518534e+03 0.0000000000e+00 0.0000e+00 1.0000e+00
      -13  1    1    2    0    0 +1.8028098989e+03 +4.1093076297e+02 -4.7562914186e+02 1.9092434900e+03 0.0000000000e+00 0.0000e+00 1.0000e+00
       13  1    1    2    0    0 -1.8028098989e+03 -4.1093076297e+02 +2.5669288046e+03 3.1635598796e+03 0.0000000000e+00 0.0000e+00 -1.0000e+00
<mgrwt>
<rscale>  0 0.46216663E+04</rscale>
<asrwt>0</asrwt>
<pdfrwt beam="1">  1        2 0.55108485E+00 0.46216663E+04</pdfrwt>
<pdfrwt beam="2">  1       -2 0.22934644E+00 0.46216663E+04</pdfrwt>
<totfact> 0.45387421E-02</totfact>
</mgrwt>
<rwgt>
<wgt id='morphing_basis_vector_1'> +4.7644049e-06 </wgt>
<wgt id='morphing_basis_vector_2'> +3.2602756e-06 </wgt>
<wgt id='morphing_basis_vector_3'> +5.2487857e-06 </wgt>
<wgt id='morphing_basis_vector_4'> +3.7508056e-06 </wgt>
<wgt id='morphing_basis_vector_5'> +6.0186612e-06 </wgt>
</rwgt>
</event>
<event>
 4      1 +7.6845000e-11 5.35379600e+03 7.81860800e-03 7.33797200e-02
        2 -1    0    0  501    0 +0.0000000000e+00 +0.0000000000e+00 +3.7963731751e+03 3.7963731751e+03 0.0000000000e+00 0.0000e+00 1.0000e+00
       -2 -1    0    0    0  501 -0.0000000000e+00 -0.0000000000e+00 -1.8875340311e+03 1.8875340311e+03 0.0000000000e+00 0.0000e+00 -1.0000e+00
      -13  1    1    2    0    0 +1.1482313574e+03 -4.7669580657e+02 -1.5624315448e+03 1.9967139190e+03 0.0000000000e+00 0.0000e+00 -1.0000e+00
       13  1    1    2    0    0 -1.1482313574e+03 +4.7669580657e+02 +3.4712706888e+03 3.6871932872e+03 0.0000000000e+00 0.0000e+00 1.0000e+00
<mgrwt>
<rscale>  0 0.53537962E+04</rscale>
<asrwt>0</asrwt>
<pdfrwt beam="1">  1        2 0.58405741E+00 0.53537962E+04</pdfrwt>
<pdfrwt beam="2">  1       -2 0.29038985E+00 0.53537962E+04</pdfrwt>
<totfact> 0.11127762E-02</totfact>
</mgrwt>
<rwgt>
<wgt id='morphing_basis_vector_1'> +8.5422884e-06 </wgt>
<wgt id='morphing_basis_vector_2'> +5.8064001e-06 </wgt>
<wgt id='morphing_basis_vector_3'> +9.4174479e-06 </wgt>
<wgt id='morphing_basis_vector_4'> +6.8102995e-06 </wgt>
<wgt id='morphing_basis_vector_5'> +1.0862259e-05 </wgt>
</rwgt>
</event>
<event>
 4      1 +7.6845000e-11 4.80419000e+03 7.81860800e-03 7.41205100e-02
        2 -1    0    0  501    0 +0.0000000000e+00 +0.0000000000e+00 +1.3079926257e+03 1.3079926257e+03 0.0000000000e+00 0.0000e+00 -1.0000e+00
       -2 -1    0    0    0  501 -0.0000000000e+00 -0.0000000000e+00 -4.4113853026e+03 4.4113853026e+03 0.0000000000e+00 0.0000e+00 1.0000e+00
      -13  1    1    2    0    0 -1.7567275863e+03 -6.2106237572e+02 -3.3564885599e+03 3.8389875931e+03 0.0000000000e+00 0.0000e+00 1.0000e+00
       13  1    1    2    0    0 +1.7567275863e+03 +6.2106237572e+02 +2.5309588299e+02 1.8803903353e+03 0.0000000000e+00 0.0000e+00 -1.0000e+00
<mgrwt>
<rscale>  0 0.48041896E+04</rscale>
<asrwt>0</asrwt>
<pdfrwt beam="1">  1        2 0.20122964E+00 0.48041896E+04</pdfrwt>
<pdfrwt beam="2">  1       -2 0.67867465E+00 0.48041896E+04</pdfrwt>
<totfact> 0.21121886E-04</totfact>
</mgrwt>
<rwgt>
<wgt id='morphing_basis_vector_1'> +5.5570718e-06 </wgt>
<wgt id='morphing_basis_vector_2'> +3.7982357e-06 </wgt>
<wgt id='morphing_basis_vector_3'> +6.1240171e-06 </wgt>
<wgt id='morphing_basis_vector_4'> +4.3871753e-06 </wgt>
<wgt id='morphing_basis_vector_5'> +7.0316064e-06 </wgt>
</rwgt>
</event>
<event>
 4      1 +7.6845000e-11 4.94811500e+03 7.81860800e-03 7.39171100e-02
        2 -1    0    0  501    0 +0.0000000000e+00 +0.0000000000e+00 +2.8377128135e+03 2.8377128135e+03 0.0000000000e+00 0.0000e+00 1.0000e+00
       -2 -1    0    0    0  501 -0.0000000000e+00 -0.0000000000e+00 -2.1570047062e+03 2.1570047062e+03 0.0000000000e+00 0.0000e+00 -1.0000e+00
      -13  1    1    2    0    0 -1.2661361774e+03 +7.5448076427e+02 -1.6654740920e+03 2.2239932542e+03 0.0000000000e+00 0.0000e+00 -1.0000e+00
       13  1    1    2    0    0 +1.2661361774e+03 -7.5448076427e+02 +2.3461821993e+03 2.7707242656e+03 0.0000000000e+00 0.0000e+00 1.0000e+00
<mgrwt>
<rscale>  0 0.49481147E+04</rscale>
<asrwt>0</asrwt>
<pdfrwt beam="1">  1        2 0.43657120E+00 0.49481147E+04</pdfrwt>
<pdfrwt beam="2">  1       -2 0.33184688E+00 0.49481147E+04</pdfrwt>
<totfact> 0.28765283E-02</totfact>
</mgrwt>
<rwgt>
<wgt id='morphing_basis_vector_1'> +6.2410380e-06 </wgt>
<wgt id='morphing_basis_vector_2'> +4.2443945e-06 </wgt>
<wgt id='morphing_basis_vector_3'> +6.8752398e-06 </wgt>
<wgt id='morphing_basis_vector_4'> +4.9600560e-06 </wgt>
<wgt id='morphing_basis_vector_5'> +7.9177410e-06 </wgt>
</rwgt>
</event>
<event>
 4      1 +7.6845000e-11 5.33181800e+03 7.81860800e-03 7.34075600e-02
        2 -1    0    0  501    0 +0.0000000000e+00 +0.0000000000e+00 +5.2188242340e+03 5.2188242340e+03 0.0000000000e+00 0.0000e+00 1.0000e+00
       -2 -1    0    0    0  501 -0.0000000000e+00 -0.0000000000e+00 -1.3618146682e+03 1.3618146682e+03 0.0000000000e+00 0.0000e+00 -1.0000e+00
      -13  1    1    2    0    0 -1.3154118837e+03 -2.3118175168e+03 +2.1501933701e+03 3.4202544033e+03 0.0000000000e+00 0.0000e+00 1.0000e+00
       13  1    1    2    0    0 +1.3154118837e+03 +2.3118175168e+03 +1.7068161957e+03 3.1603844989e+03 0.0000000000e+00 0.0000e+00 -1.0000e+00
<mgrwt>
<rscale>  0 0.53318182E+04</rscale>
<asrwt>0</asrwt>
<pdfrwt beam="1">  1        2 0.80289603E+00 0.53318182E+04</pdfrwt>
<pdfrwt beam="2">  1       -2 0.20950995E+00 0.53318182E+04</pdfrwt>
<totfact> 0.11847666E-03</totfact>
</mgrwt>
<rwgt>
<wgt id='morphing_basis_vector_1'> +8.7950753e-06 </wgt>
<wgt id='morphing_basis_vector_2'> +6.8620940e-06 </wgt>
<wgt id='morphing_basis_vector_3'> +9.9011511e-06 </wgt>
<wgt id='morphing_basis_vector_4'> +5.8627573e-06 </wgt>
<wgt id='morphing_basis_vector_5'> +1.0614318e-05 </wgt>
</rwgt>
</event>
<event>
 4      1 +7.6845000e-11 5.02769600e+03 7.81860800e-03 7.38076100e-02
        2 -1    0    0  501    0 +0.0000000000e+00 +0.0000000000e+00 +3.9456376203e+03 3.9456376203e+03 0.0000000000e+00 0.0000e+00 1.0000e+00
       -2 -1    0    0    0  501 -0.0000000000e+00 -0.0000000000e+00 -1.6016247609e+03 1.6016247609e+03 0.0000000000e+00 0.0000e+00 -1.0000e+00
      -13  1    1    2    0    0 -9.1704036372e+02 -2.2530010121e+03 +4.7205480711e+02 2.4778644697e+03 0.0000000000e+00 0.0000e+00 -1.0000e+00
       13  1    1    2    0    0 +9.1704036372e+02 +2.2530010121e+03 +1.8719580524e+03 3.0693979115e+03 0.0000000000e+00 0.0000e+00 1.0000e+00
<mgrwt>
<rscale>  0 0.50276957E+04</rscale>
<asrwt>0</asrwt>
<pdfrwt beam="1">  1        2 0.60702117E+00 0.50276957E+04</pdfrwt>
<pdfrwt beam="2">  1       -2 0.24640381E+00 0.50276957E+04</pdfrwt>
<totfact> 0.17236746E-02</totfact>
</mgrwt>
<rwgt>
<wgt id='morphing_basis_vector_1'> +6.7408483e-06 </wgt>
<wgt id='morphing_basis_vector_2'> +4.7877933e-06 </wgt>
<wgt id='morphing_basis_vector_3'> +7.4741833e-06 </wgt>
<wgt id='morphing_basis_vector_4'> +5.0963573e-06 </wgt>
<wgt id='morphing_basis_vector_5'> +8.4251789e-06 </wgt>
</rwgt>
</event>
<event>
 4      1 +7.6845000e-11 5.13423200e+03 7.81860800e-03 7.36642500e-02
        2 -1    0    0  501    0 +0.0000000000e+00 +0.0000000000e+00 +2.2654419438e+03 2.2654419438e+03 0.0000000000e+00 0.0000e+00 -1.0000e+00
       -2 -1    0    0    0  501 -0.0000000000e+00 -0.0000000000e+00 -2.9089623250e+03 2.9089623250e+03 0.0000000000e+00 0.0000e+00 1.0000e+00
      -13  1    1    2    0    0 +1.7324680507e+03 +1.7510845871e+03 -1.0501477507e+03 2.6777888408e+03 0.0000000000e+00 0.0000e+00 1.0000e+00
       13  1    1    2    0    0 -1.7324680507e+03 -1.7510845871e+03 +4.0662736943e+02 2.4966154280e+03 0.0000000000e+00 0.0000e+00 -1.0000e+00
<mgrwt>
<rscale>  0 0.51342323E+04</rscale>
<asrwt>0</asrwt>
<pdfrwt beam="1">  1        2 0.34852953E+00 0.51342323E+04</pdfrwt>
<pdfrwt beam="2">  1       -2 0.44753266E+00 0.51342323E+04</pdfrwt>
<totfact> 0.10908391E-02</totfact>
</mgrwt>
<rwgt>
<wgt id='morphing_basis_vector_1'> +7.3171070e-06 </wgt>
<wgt id='morphing_basis_vector_2'> +5.1721426e-06 </wgt>
<wgt id='morphing_basis_vector_3'> +8.1092925e-06 </wgt>
<wgt id='morphing_basis_vector_4'> +5.5682795e-06 </wgt>
<wgt id='morphing_basis_vector_5'> +9.1667350e-06 </wgt>
</rwgt>
</event>
<event>
 4      1 +7.6845000e-11 4.75990500e+03 7.81860800e-03 7.41845400e-02
        2 -1    0    0  501    0 +0.0000000000e+00 +0.0000000000e+00 +3.4426581521e+03 3.4426581521e+03 0.0000000000e+00 0.0000e+00 -1.0000e+00
       -2 -1    0    0    0  501 -0.0000000000e+00 -0.0000000000e+00 -1.6452906794e+03 1.6452906794e+03 0.0000000000e+00 0.0000e+00 1.0000e+00
      -13  1    1    2    0    0 +1.4232070596e+03 -5.2995825503e+02 -1.0600339125e+03 1.8520383317e+03 0.0000000000e+00 0.0000e+00 1.0000e+00
       13  1    1    2    0    0 -1.4232070596e+03 +5.2995825503e+02 +2.8574013852e+03 3.2359104998e+03 0.0000000000e+00 0.0000e+00 -1.0000e+00
<mgrwt>
<rscale>  0 0.47599048E+04</rscale>
<asrwt>0</asrwt>
<pdfrwt beam="1">  1        2 0.52963971E+00 0.47599048E+04</pdfrwt>
<pdfrwt beam="2">  1       -2 0.25312164E+00 0.47599048E+04</pdfrwt>
<totfact> 0.38854842E-02</totfact>
</mgrwt>
<rwgt>
<wgt id='morphing_basis_vector_1'> +5.3482770e-06 </wgt>
<wgt id='morphing_basis_vector_2'> +3.6385029e-06 </wgt>
<wgt id='morphing_basis_vector_3'> +5.8893418e-06 </wgt>
<wgt id='morphing_basis_vector_4'> +4.2429009e-06 </wgt>
<wgt id='morphing_basis_vector_5'> +6.7763538e-06 </wgt>
</rwgt>
</event>
<event>
 4      1 +7.6845000e-11 4.71996300e+03 7.81860800e-03 7.42429000e-02
        2 -1    0    0  501    0 +0.0000000000e+00 +0.0000000000e+00 +2.5545656314e+03 2.5545656314e+03 0.0000000000e+00 0.0000e+00 -1.0000e+00
       -2 -1    0    0    0  501 -0.0000000000e+00 -0.0000000000e+00 -2.1802187022e+03 2.1802187022e+03 0.0000000000e+00 0.0000e+00 1.0000e+00
      -13  1    1    2    0    0 +1.4157075276e+03 +1.5236327261e+03 -9.3159877576e+02 2.2789385175e+03 0.0000000000e+00 0.0000e+00 1.0000e+00
       13  1    1    2    0    0 -1.4157075276e+03 -1.5236327261e+03 +1.3059457050e+03 2.4558458160e+03 0.0000000000e+00 0.0000e+00 -1.0000e+00
<mgrwt>
<rscale>  0 0.47199626E+04</rscale>
<asrwt>0</asrwt>
<pdfrwt beam="1">  1        2 0.39301010E+00 0.47199626E+04</pdfrwt>
<pdfrwt beam="2">  1       -2 0.33541826E+00 0.47199626E+04</pdfrwt>
<totfact> 0.41457225E-02</totfact>
</mgrwt>
<rwgt>
<wgt id='morphing_basis_vector_1'> +5.1947913e-06 </wgt>
<wgt id='morphing_basis_vector_2'> +3.5860658e-06 </wgt>
<wgt id='morphing_basis_vector_3'> +5.7316553e-06 </wgt>
<wgt id='morphing_basis_vector_4'> +4.0525489e-06 </wgt>
<wgt id='morphing_basis_vector_5'> +6.5468469e-06 </wgt>
</rwgt>
</event>
<event>
 4      1 +7.6845000e-11 4.69153200e+03 7.81860800e-03 7.42847900e-02
        2 -1    0    0  501    0 +0.0000000000e+00 +0.0000000000e+00 +3.4975593364e+03 3.4975593364e+03 0.0000000000e+00 0.0000e+00 1.0000e+00
       -2 -1    0    0    0  501 -0.0000000000e+00 -0.0000000000e+00 -1.5732738321e+03 1.5732738321e+03 0.0000000000e+00 0.0000e+00 -1.0000e+00
      -13  1    1    2    0    0 +1.6341099007e+03 +1.3742828962e+03 -8.7810778850e+01 2.1369790311e+03 0.0000000000e+00 0.0000e+00 -1.0000e+00
       13  1    1    2    0    0 -1.6341099007e+03 -1.3742828962e+03 +2.0120962831e+03 2.9338541373e+03 0.0000000000e+00 0.0000e+00 1.0000e+00
<mgrwt>
<rscale>  0 0.46915322E+04</rscale>
<asrwt>0</asrwt>
<pdfrwt beam="1">  1        2 0.53808605E+00 0.46915322E+04</pdfrwt>
<pdfrwt beam="2">  1       -2 0.24204213E+00 0.46915322E+04</pdfrwt>
<totfact> 0.42526740E-02</totfact>
</mgrwt>
<rwgt>
<wgt id='morphing_basis_vector_1'> +5.0798614e-06 </wgt>
<wgt id='morphing_basis_vector_2'> +3.5259824e-06 </wgt>
<wgt id='morphing_basis_vector_3'> +5.6088277e-06 </wgt>
<wgt id='morphing_basis_vector_4'> +3.9370512e-06 </wgt>
<wgt id='morphing_basis_vector_5'> +6.3884354e-06 </wgt>
</rwgt>
</event>
<event>
 4      1 +7.6845000e-11 4.62209500e+03 7.81860800e-03 7.43883700e-02
        2 -1    0    0  501    0 +0.0000000000e+00 +0.0000000000e+00 +2.8424260563e+03 2.8424260563e+03 0.0000000000e+00 0.0000e+00 -1.0000e+00
       -2 -1    0    0    0  501 -0.0000000000e+00 -0.0000000000e+00 -1.8790077883e+03 1.8790077883e+03 0.0000000000e+00 0.0000e+00 1.0000e+00
      -13  1    1    2    0    0 -1.0940663130e+03 +1.9882878035e+03 +9.2775302691e+02 2.4517330943e+03 0.0000000000e+00 0.0000e+00 1.0000e+00
       13  1    1    2    0    0 +1.0940663130e+03 -1.9882878035e+03 +3.5665241058e+01 2.2697007503e+03 0.0000000000e+00 0.0000e+00 -1.0000e+00
<mgrwt>
<rscale>  0 0.46220951E+04</rscale>
<asrwt>0</asrwt>
<pdfrwt beam="1">  1        2 0.43729632E+00 0.46220951E+04</pdfrwt>
<pdfrwt beam="2">  1       -2 0.28907812E+00 0.46220951E+04</pdfrwt>
<totfact> 0.56599483E-02</totfact>
</mgrwt>
<rwgt>
<wgt id='morphing_basis_vector_1'> +5.0915828e-06 </wgt>
<wgt id='morphing_basis_vector_2'> +4.2173917e-06 </wgt>
<wgt id='morphing_basis_vector_3'> +5.7770166e-06 </wgt>
<wgt id='morphing_basis_vector_4'> +3.0603686e-06 </wgt>
<wgt id='morphing_basis_vector_5'> +5.9630141e-06 </wgt>
</rwgt>
</event>
<event>
 4      1 +7.6845000e-11 4.64055500e+03 7.81860800e-03 7.43606600e-02
        2 -1    0    0  501    0 +0.0000000000e+00 +0.0000000000e+00 +2.1169890179e+03 2.1169890179e+03 0.0000000000e+00 0.0000e+00 1.0000e+00
       -2 -1    0    0    0  501 -0.0000000000e+00 -0.0000000000e+00 -2.5430867139e+03 2.5430867139e+03 0.0000000000e+00 0.0000e+00 -1.0000e+00
      -13  1    1    2    0    0 +1.2063605829e+03 -1.3393261578e+03 -1.6802171780e+03 2.4641895581e+03 0.0000000000e+00 0.0000e+00 -1.0000e+00
       13  1    1    2    0    0 -1.2063605829e+03 +1.3393261578e+03 +1.2541194820e+03 2.1958861737e+03 0.0000000000e+00 0.0000e+00 1.0000e+00
<mgrwt>
<rscale>  0 0.46405546E+04</rscale>
<asrwt>0</asrwt>
<pdfrwt beam="1">  1        2 0.32569062E+00 0.46405546E+04</pdfrwt>
<pdfrwt beam="2">  1       -2 0.39124411E+00 0.46405546E+04</pdfrwt>
<totfact> 0.32695948E-02</totfact>
</mgrwt>
<rwgt>
<wgt id='morphing_basis_vector_1'> +4.8403339e-06 </wgt>
<wgt id='morphing_basis_vector_2'> +3.3075500e-06 </wgt>
<wgt id='morphing_basis_vector_3'> +5.3316468e-06 </wgt>
<wgt id='morphing_basis_vector_4'> +3.8172602e-06 </wgt>
<wgt id='morphing_basis_vector_5'> +6.1184049e-06 </wgt>
</rwgt>
</event>
<event>
 4      1 +7.6845000e-11 4.89148500e+03 7.81860800e-03 7.39963000e-02
        2 -1    0    0  501    0 +0.0000000000e+00 +0.0000000000e+00 +2.1501623768e+03 2.1501623768e+03 0.0000000000e+00 0.0000e+00 1.0000e+00
       -2 -1    0    0    0  501 -0.0000000000e+00 -0.0000000000e+00 -2.7819561604e+03 2.7819561604e+03 0.0000000000e+00 0.0000e+00 -1.0000e+00
      -13  1    1    2    0    0 -2.3221570058e+03 -7.2629490124e+02 -6.5357425774e+01 2.4339657015e+03 0.0000000000e+00 0.0000e+00 -1.0000e+00
       13  1    1    2    0    0 +2.3221570058e+03 +7.2629490124e+02 -5.6643635781e+02 2.4981528357e+03 0.0000000000e+00 0.0000e+00 1.0000e+00
<mgrwt>
<rscale>  0 0.48914854E+04</rscale>
<asrwt>0</asrwt>
<pdfrwt beam="1">  1        2 0.33079421E+00 0.48914854E+04</pdfrwt>
<pdfrwt beam="2">  1       -2 0.42799325E+00 0.48914854E+04</pdfrwt>
<totfact> 0.17582306E-02</totfact>
</mgrwt>
<rwgt>
<wgt id='morphing_basis_vector_1'> +6.2722583e-06 </wgt>
<wgt id='morphing_basis_vector_2'> +4.9673957e-06 </wgt>
<wgt id='morphing_basis_vector_3'> +7.0703785e-06 </wgt>
<wgt id='morphing_basis_vector_4'> +4.0736334e-06 </wgt>
<wgt id='morphing_basis_vector_5'> +7.5048000e-06 </wgt>
</rwgt>
</event>
<event>
 4      1 +7.6845000e-11 4.97946600e+03 7.81860800e-03 7.38737200e-02
        2 -1    0    0  501    0 +0.0000000000e+00 +0.0000000000e+00 +3.1435556819e+03 3.1435556819e+03 0.0000000000e+00 0.0000e+00 1.0000e+00
       -2 -1    0    0    0  501 -0.0000000000e+00 -0.0000000000e+00 -1.9718980434e+03 1.9718980434e+03 0.0000000000e+00 0.0000e+00 -1.0000e+00
      -13  1    1    2    0    0 -4.0003306831e+02 +1.0409649918e+03 -1.7009764237e+03 2.0339506788e+03 0.0000000000e+00 0.0000e+00 -1.0000e+00
       13  1    1    2    0    0 +4.0003306831e+02 -1.0409649918e+03 +2.8726340622e+03 3.0815030464e+03 0.0000000000e+00 0.0000e+00 1.0000e+00
<mgrwt>
<rscale>  0 0.49794664E+04</rscale>
<asrwt>0</asrwt>
<pdfrwt beam="1">  1        2 0.48362395E+00 0.49794664E+04</pdfrwt>
<pdfrwt beam="2">  1       -2 0.30336893E+00 0.49794664E+04</pdfrwt>
<totfact> 0.28061289E-02</totfact>
</mgrwt>
<rwgt>
<wgt id='morphing_basis_vector_1'> +6.3978902e-06 </wgt>
<wgt id='morphing_basis_vector_2'> +4.3461139e-06 </wgt>
<wgt id='morphing_basis_vector_3'> +7.0473916e-06 </wgt>
<wgt id='morphing_basis_vector_4'> +5.0922540e-06 </wgt>
<wgt id='morphing_basis_vector_5'> +8.1213954e-06 </wgt>
</rwgt>
</event>
<event>
 4      1 +7.6845000e-11 5.28579600e+03 7.81860800e-03 7.34663200e-02
        2 -1    0    0  501    0 +0.0000000000e+00 +0.0000000000e+00 +4.4131623459e+03 4.4131623459e+03 0.0000000000e+00 0.0000e+00 -1.0000e+00
       -2 -1    0    0    0  501 -0.0000000000e+00 -0.0000000000e+00 -1.5827450422e+03 1.5827450422e+03 0.0000000000e+00 0.0000e+00 1.0000e+00
      -13  1    1    2    0    0 -3.8016206993e+02 +1.4234734299e+03 -1.0736632128e+03 1.8230612989e+03 0.0000000000e+00 0.0000e+00 1.0000e+00
       13  1    1    2    0    0 +3.8016206993e+02 -1.4234734299e+03 +3.9040805165e+03 4.1728460892e+03 0.0000000000e+00 0.0000e+00 -1.0000e+00
<mgrwt>
<rscale>  0 0.52857964E+04</rscale>
<asrwt>0</asrwt>
<pdfrwt beam="1">  1        2 0.67894805E+00 0.52857964E+04</pdfrwt>
<pdfrwt beam="2">  1       -2 0.24349924E+00 0.52857964E+04</pdfrwt>
<totfact> 0.66287944E-03</totfact>
</mgrwt>
<rwgt>
<wgt id='morphing_basis_vector_1'> +8.1193341e-06 </wgt>
<wgt id='morphing_basis_vector_2'> +5.5220937e-06 </wgt>
<wgt id='morphing_basis_vector_3'> +8.9507759e-06 </wgt>
<wgt id='morphing_basis_vector_4'> +6.4664499e-06 </wgt>
<wgt id='morphing_basis_vector_5'> +1.0319057e-05 </wgt>
</rwgt>
</event>
<event>
 4      1 +7.6845000e-11 5.11573500e+03 7.81860800e-03 7.36888800e-02
        2 -1    0    0  501    0 +0.0000000000e+00 +0.0000000000e+00 +4.6829151077e+03 4.6829151077e+03 0.0000000000e+00 0.0000e+00 -1.0000e+00
       -2 -1    0    0    0  501 -0.0000000000e+00 -0.0000000000e+00 -1.3971394659e+03 1.3971394659e+03 0.0000000000e+00 0.0000e+00 1.0000e+00
      -13  1    1    2    0    0 -2.0539447994e+03 -6.4125242016e+02 +3.2866284417e+03 3.9283355788e+03 0.0000000000e+00 0.0000e+00 1.0000e+00
       13  1    1    2    0    0 +2.0539447994e+03 +6.4125242016e+02 -8.5279994365e-01 2.1517189948e+03 0.0000000000e+00 0.0000e+00 -1.0000e+00
<mgrwt>
<rscale>  0 0.51157348E+04</rscale>
<asrwt>0</asrwt>
<pdfrwt beam="1">  1        2 0.72044847E+00 0.51157348E+04</pdfrwt>
<pdfrwt beam="2">  1       -2 0.21494454E+00 0.51157348E+04</pdfrwt>
<totfact> 0.55264508E-03</totfact>
</mgrwt>
<rwgt>
<wgt id='morphing_basis_vector_1'> +8.5869198e-06 </wgt>
<wgt id='morphing_basis_vector_2'> +9.1338679e-06 </wgt>
<wgt id='morphing_basis_vector_3'> +1.0225437e-05 </wgt>
<wgt id='morphing_basis_vector_4'> +2.5581881e-06 </wgt>
<wgt id='morphing_basis_vector_5'> +8.7892009e-06 </wgt>
</rwgt>
</event>
<event>
 4      1 +7.6845000e-11 4.66978700e+03 7.81860800e-03 7.43170300e-02
        2 -1    0    0  501    0 +0.0000000000e+00 +0.0000000000e+00 +4.0082756539e+03 4.0082756539e+03 0.0000000000e+00 0.0000e+00 1.0000e+00
       -2 -1    0    0    0  501 -0.0000000000e+00 -0.0000000000e+00 -1.3601181597e+03 1.3601181597e+03 0.0000000000e+00 0.0000e+00 -1.0000e+00
      -13  1    1    2    0    0 +1.6268275361e+03 +8.3726832601e+02 -3.4349414999e+02 1.8616053053e+03 0.0000000000e+00 0.0000e+00 -1.0000e+00
       13  1    1    2    0    0 -1.6268275361e+03 -8.3726832601e+02 +2.9916516441e+03 3.5067885083e+03 0.0000000000e+00 0.0000e+00 1.0000e+00
<mgrwt>
<rscale>  0 0.46697874E+04</rscale>
<asrwt>0</asrwt>
<pdfrwt beam="1">  1        2 0.61665779E+00 0.46697874E+04</pdfrwt>
<pdfrwt beam="2">  1       -2 0.20924895E+00 0.46697874E+04</pdfrwt>
<totfact> 0.28672663E-02</totfact>
</mgrwt>
<rwgt>
<wgt id='morphing_basis_vector_1'> +4.9635716e-06 </wgt>
<wgt id='morphing_basis_vector_2'> +3.3932799e-06 </wgt>
<wgt id='morphing_basis_vector_3'> +5.4681858e-06 </wgt>
<wgt id='morphing_basis_vector_4'> +3.9134610e-06 </wgt>
<wgt id='morphing_basis_vector_5'> +6.2745095e-06 </wgt>
</rwgt>
</event>
<event>
 4      1 +7.6845000e-11 5.15670900e+03 7.81860800e-03 7.36344600e-02
        2 -1    0    0  501    0 +0.0000000000e+00 +0.0000000000e+00 +3.1172045736e+03 3.1172045736e+03 0.0000000000e+00 0.0000e+00 1.0000e+00
       -2 -1    0    0    0  501 -0.0000000000e+00 -0.0000000000e+00 -2.1326513879e+03 2.1326513879e+03 0.0000000000e+00 0.0000e+00 -1.0000e+00
      -13  1    1    2    0    0 +2.5529843084e+03 -1.8736011034e+02 +1.7835965047e+02 2.5660562844e+03 0.0000000000e+00 0.0000e+00 -1.0000e+00
       13  1    1    2    0    0 -2.5529843084e+03 +1.8736011034e+02 +8.0619353527e+02 2.6837996770e+03 0.0000000000e+00 0.0000e+00 1.0000e+00
<mgrwt>
<rscale>  0 0.51567085E+04</rscale>
<asrwt>0</asrwt>
<pdfrwt beam="1">  1        2 0.47956993E+00 0.51567085E+04</pdfrwt>
<pdfrwt beam="2">  1       -2 0.32810021E+00 0.51567085E+04</pdfrwt>
<totfact> 0.19727195E-02</totfact>
</mgrwt>
<rwgt>
<wgt id='morphing_basis_vector_1'> +7.5283705e-06 </wgt>
<wgt id='morphing_basis_vector_2'> +5.5060056e-06 </wgt>
<wgt id='morphing_basis_vector_3'> +8.3865765e-06 </wgt>
<wgt id='morphing_basis_vector_4'> +5.4903836e-06 </wgt>
<wgt id='morphing_basis_vector_5'> +9.3140043e-06 </wgt>
</rwgt>
</event>
<event>
 4      1 +7.6845000e-11 5.25772200e+03 7.81860800e-03 7.35024700e-02
        2 -1    0    0  501    0 +0.0000000000e+00 +0.0000000000e+00 +1.9469853601e+03 1.9469853601e+03 0.0000000000e+00 0.0000e+00 1.0000e+00
       -2 -1    0    0    0  501 -0.0000000000e+00 -0.0000000000e+00 -3.5495433578e+03 3.5495433578e+03 0.0000000000e+00 0.0000e+00 -1.0000e+00
      -13  1    1    2    0    0 +1.2090507238e+03 -1.0678134817e+03 +1.3687878025e+03 2.1155635969e+03 0.0000000000e+00 0.0000e+00 1.0000e+00
       13  1    1    2    0    0 -1.2090507238e+03 +1.0678134817e+03 -2.9713458003e+03 3.3809651210e+03 0.0000000000e+00 0.0000e+00 -1.0000e+00
<mgrwt>
<rscale>  0 0.52577215E+04</rscale>
<asrwt>0</asrwt>
<pdfrwt beam="1">  1        2 0.29953621E+00 0.52577215E+04</pdfrwt>
<pdfrwt beam="2">  1       -2 0.54608359E+00 0.52577215E+04</pdfrwt>
<totfact> 0.31040705E-03</totfact>
</mgrwt>
<rwgt>
<wgt id='morphing_basis_vector_1'> +1.0565309e-05 </wgt>
<wgt id='morphing_basis_vector_2'> +1.3088724e-05 </wgt>
<wgt id='morphing_basis_vector_3'> +1.3016642e-05 </wgt>
<wgt id='morphing_basis_vector_4'> +7.4769954e-07 </wgt>
<wgt id='morphing_basis_vector_5'> +9.6325051e-06 </wgt>
</rwgt>
</event>
<event>
 4      1 +7.6845000e-11 4.68555100e+03 7.81860800e-03 7.42936400e-02
        2 -1    0    0  501    0 +0.0000000000e+00 +0.0000000000e+00 +3.3943903791e+03 3.3943903791e+03 0.0000000000e+00 0.0000e+00 -1.0000e+00
       -2 -1    0    0    0  501 -0.0000000000e+00 -0.0000000000e+00 -1.6169609870e+03 1.6169609870e+03 0.0000000000e+00 0.0000e+00 1.0000e+00
      -13  1    1    2    0    0 -5.3829854739e+02 +2.2798780839e+03 +8.5510660748e+02 2.4937555441e+03 0.0000000000e+00 0.0000e+00 1.0000e+00
       13  1    1    2    0    0 +5.3829854739e+02 -2.2798780839e+03 +9.2232278463e+02 2.5175958219e+03 0.0000000000e+00 0.0000e+00 -1.0000e+00
<mgrwt>
<rscale>  0 0.46855509E+04</rscale>
<asrwt>0</asrwt>
<pdfrwt beam="1">  1        2 0.52221390E+00 0.46855509E+04</pdfrwt>
<pdfrwt beam="2">  1       -2 0.24876323E+00 0.46855509E+04</pdfrwt>
<totfact> 0.45368388E-02</totfact>
</mgrwt>
<rwgt>
<wgt id='morphing_basis_vector_1'> +5.1955412e-06 </wgt>
<wgt id='morphing_basis_vector_2'> +3.9235192e-06 </wgt>
<wgt id='morphing_basis_vector_3'> +5.8091742e-06 </wgt>
<wgt id='morphing_basis_vector_4'> +3.6161192e-06 </wgt>
<wgt id='morphing_basis_vector_5'> +6.3306221e-06 </wgt>
</rwgt>
</event>
<event>
 4      1 +7.6845000e-11 4.81994600e+03 7.81860800e-03 7.40979000e-02
        2 -1    0    0  501    0 +0.0000000000e+00 +0.0000000000e+00 +2.7520082823e+03 2.7520082823e+03 0.0000000000e+00 0.0000e+00 -1.0000e+00
       -2 -1    0    0    0  501 -0.0000000000e+00 -0.0000000000e+00 -2.1104474931e+03 2.1104474931e+03 0.0000000000e+00 0.0000e+00 1.0000e+00
      -13  1    1    2    0    0 +1.8495321318e+03 +1.0526766020e+03 -8.2015484534e+02 2.2806909272e+03 0.0000000000e+00 0.0000e+00 1.0000e+00
       13  1    1    2    0    0 -1.8495321318e+03 -1.0526766020e+03 +1.4617156345e+03 2.5817648482e+03 0.0000000000e+00 0.0000e+00 -1.0000e+00
<mgrwt>
<rscale>  0 0.48199456E+04</rscale>
<asrwt>0</asrwt>
<pdfrwt beam="1">  1        2 0.42338589E+00 0.48199456E+04</pdfrwt>
<pdfrwt beam="2">  1       -2 0.32468423E+00 0.48199456E+04</pdfrwt>
<totfact> 0.36658117E-02</totfact>
</mgrwt>
<rwgt>
<wgt id='morphing_basis_vector_1'> +5.6479214e-06 </wgt>
<wgt id='morphing_basis_vector_2'> +3.9006658e-06 </wgt>
<wgt id='morphing_basis_vector_3'> +6.2336585e-06 </wgt>
<wgt id='morphing_basis_vector_4'> +4.4072101e-06 </wgt>
<wgt id='morphing_basis_vector_5'> +7.1214426e-06 </wgt>
</rwgt>
</event>
<event>
 4      1 +7.6845000e-11 4.90258200e+03 7.81860800e-03 7.39807000e-02
        2 -1    0    0  501    0 +0.0000000000e+00 +0.0000000000e+00 +2.3195141043e+03 2.3195141043e+03 0.0000000000e+00 0.0000e+00 -1.0000e+00
       -2 -1    0    0    0  501 -0.0000000000e+00 -0.0000000000e+00 -2.5905544588e+03 2.5905544588e+03 0.0000000000e+00 0.0000e+00 1.0000e+00
      -13  1    1    2    0    0 +5.6575190937e+02 +1.5356396550e+03 -1.9632901171e+03 2.5559288833e+03 0.0000000000e+00 0.0000e+00 1.0000e+00
       13  1    1    2    0    0 -5.6575190937e+02 -1.5356396550e+03 +1.6922497625e+03 2.3541396797e+03 0.0000000000e+00 0.0000e+00 -1.0000e+00
<mgrwt>
<rscale>  0 0.49025820E+04</rscale>
<asrwt>0</asrwt>
<pdfrwt beam="1">  1        2 0.35684832E+00 0.49025820E+04</pdfrwt>
<pdfrwt beam="2">  1       -2 0.39854684E+00 0.49025820E+04</pdfrwt>
<totfact> 0.21967872E-02</totfact>
</mgrwt>
<rwgt>
<wgt id='morphing_basis_vector_1'> +6.0175559e-06 </wgt>
<wgt id='morphing_basis_vector_2'> +4.0973667e-06 </wgt>
<wgt id='morphing_basis_vector_3'> +6.6294860e-06 </wgt>
<wgt id='morphing_basis_vector_4'> +4.7744548e-06 </wgt>
<wgt id='morphing_basis_vector_5'> +7.6289631e-06 </wgt>
</rwgt>
</event>
<event>
 4      1 +7.6845000e-11 4.67388200e+03 7.81860800e-03 7.43109500e-02
        2 -1    0    0  501    0 +0.0000000000e+00 +0.0000000000e+00 +3.7632896489e+03 3.7632896489e+03 0.0000000000e+00 0.0000e+00 -1.0000e+00
       -2 -1    0    0    0  501 -0.0000000000e+00 -0.0000000000e+00 -1.4512016862e+03 1.4512016862e+03 0.0000000000e+00 0.0000e+00 1.0000e+00
      -13  1    1    2    0    0 -2.0765113815e+03 -1.0015206663e+03 +7.2923917259e+02 2.4180018473e+03 0.0000000000e+00 0.0000e+00 1.0000e+00
       13  1    1    2    0    0 +2.0765113815e+03 +1.0015206663e+03 +1.5828487901e+03 2.7964894878e+03 0.0000000000e+00 0.0000e+00 -1.0000e+00
<mgrwt>
<rscale>  0 0.46738816E+04</rscale>
<asrwt>0</asrwt>
<pdfrwt beam="1">  1        2 0.57896764E+00 0.46738816E+04</pdfrwt>
<pdfrwt beam="2">  1       -2 0.22326180E+00 0.46738816E+04</pdfrwt>
<totfact> 0.36191668E-02</totfact>
</mgrwt>
<rwgt>
<wgt id='morphing_basis_vector_1'> +5.0691416e-06 </wgt>
<wgt id='morphing_basis_vector_2'> +3.6642700e-06 </wgt>
<wgt id='morphing_basis_vector_3'> +5.6301094e-06 </wgt>
<wgt id='morphing_basis_vector_4'> +3.7396649e-06 </wgt>
<wgt id='morphing_basis_vector_5'> +6.2809225e-06 </wgt>
</rwgt>
</event>
<event>
 4      1 +7.6845000e-11 5.40138300e+03 7.81860800e-03 7.33198900e-02
        2 -1    0    0  501    0 +0.0000000000e+00 +0.0000000000e+00 +2.3799251814e+03 2.3799251814e+03 0.0000000000e+00 0.0000e+00 -1.0000e+00
       -2 -1    0    0    0  501 -0.0000000000e+00 -0.0000000000e+00 -3.0646908396e+03 3.0646908396e+03 0.0000000000e+00 0.0000e+00 1.0000e+00
      -13  1    1    2    0    0 +1.8741694553e+03 +9.1919981072e+02 -2.0696604687e+03 2.9395465458e+03 0.0000000000e+00 0.0000e+00 1.0000e+00
       13  1    1    2    0    0 -1.8741694553e+03 -9.1919981072e+02 +1.3848948105e+03 2.5050694752e+03 0.0000000000e+00 0.0000e+00 -1.0000e+00
<mgrwt>
<rscale>  0 0.54013831E+04</rscale>
<asrwt>0</asrwt>
<pdfrwt beam="1">  1        2 0.36614234E+00 0.54013831E+04</pdfrwt>
<pdfrwt beam="2">  1       -2 0.47149090E+00 0.54013831E+04</pdfrwt>
<totfact> 0.61884779E-03</totfact>
</mgrwt>
<rwgt>
<wgt id='morphing_basis_vector_1'> +8.8658351e-06 </wgt>
<wgt id='morphing_basis_vector_2'> +6.0642650e-06 </wgt>
<wgt id='morphing_basis_vector_3'> +9.7838031e-06 </wgt>
<wgt id='morphing_basis_vector_4'> +7.0207982e-06 </wgt>
<wgt id='morphing_basis_vector_5'> +1.1251739e-05 </wgt>
</rwgt>
</event>
<event>
 4      1 +7.6845000e-11 4.72078200e+03 7.81860800e-03 7.42417000e-02
        2 -1    0    0  501    0 +0.0000000000e+00 +0.0000000000e+00 +3.9418635365e+03 3.9418635365e+03 0.0000000000e+00 0.0000e+00 1.0000e+00
       -2 -1    0    0    0  501 -0.0000000000e+00 -0.0000000000e+00 -1.4134038298e+03 1.4134038298e+03 0.0000000000e+00 0.0000e+00 -1.0000e+00
      -13  1    1    2    0    0 -5.1236157596e+02 -6.6607557220e+02 -1.2379636280e+03 1.4962369454e+03 0.0000000000e+00 0.0000e+00 -1.0000e+00
       13  1    1    2    0    0 +5.1236157596e+02 +6.6607557220e+02 +3.7664233348e+03 3.8590304209e+03 0.0000000000e+00 0.0000e+00 1.0000e+00
<mgrwt>
<rscale>  0 0.47207817E+04</rscale>
<asrwt>0</asrwt>
<pdfrwt beam="1">  1        2 0.60644054E+00 0.47207817E+04</pdfrwt>
<pdfrwt beam="2">  1       -2 0.21744674E+00 0.47207817E+04</pdfrwt>
<totfact> 0.28387173E-02</totfact>
</mgrwt>
<rwgt>
<wgt id='morphing_basis_vector_1'> +5.1719005e-06 </wgt>
<wgt id='morphing_basis_vector_2'> +3.5107603e-06 </wgt>
<wgt id='morphing_basis_vector_3'> +5.6927602e-06 </wgt>
<wgt id='morphing_basis_vector_4'> +4.1117137e-06 </wgt>
<wgt id='morphing_basis_vector_5'> +6.5561257e-06 </wgt>
</rwgt>
</event>
<event>
 4      1 +7.6845000e-11 5.38462400e+03 7.81860800e-03 7.33408900e-02
        2 -1    0    0  501    0 +0.0000000000e+00 +0.0000000000e+00 +2.2895146038e+03 2.2895146038e+03 0.0000000000e+00 0.0000e+00 -1.0000e+00
       -2 -1    0    0    0  501 -0.0000000000e+00 -0.0000000000e+00 -3.1659742344e+03 3.1659742344e+03 0.0000000000e+00 0.0000e+00 1.0000e+00
      -13  1    1    2    0    0 +2.7749630438e+02 +6.9112908173e+02 -3.0595330342e+03 3.1488737659e+03 0.0000000000e+00 0.0000e+00 1.0000e+00
       13  1    1    2    0    0 -2.7749630438e+02 -6.9112908173e+02 +2.1830734035e+03 2.3066150723e+03 0.0000000000e+00 0.0000e+00 -1.0000e+00
<mgrwt>
<rscale>  0 0.53846241E+04</rscale>
<asrwt>0</asrwt>
<pdfrwt beam="1">  1        2 0.35223302E+00 0.53846241E+04</pdfrwt>
<pdfrwt beam="2">  1       -2 0.48707296E+00 0.53846241E+04</pdfrwt>
<totfact> 0.53673910E-03</totfact>
</mgrwt>
<rwgt>
<wgt id='morphing_basis_vector_1'> +8.7389999e-06 </wgt>
<wgt id='morphing_basis_vector_2'> +5.9377005e-06 </wgt>
<wgt id='morphing_basis_vector_3'> +9.6342865e-06 </wgt>
<wgt id='morphing_basis_vector_4'> +6.9714508e-06 </wgt>
<wgt id='morphing_basis_vector_5'> +1.1115526e-05 </wgt>
</rwgt>
</event>
<event>
 4      1 +7.6845000e-11 5.21325400e+03 7.81860800e-03 7.35601900e-02
        2 -1    0    0  501    0 +0.0000000000e+00 +0.0000000000e+00 +4.7371834896e+03 4.7371834896e+03 0.0000000000e+00 0.0000e+00 -1.0000e+00
       -2 -1    0    0    0  501 -0.0000000000e+00 -0.0000000000e+00 -1.4342918949e+03 1.4342918949e+03 0.0000000000e+00 0.0000e+00 1.0000e+00
      -13  1    1    2    0    0 +1.4231636235e+03 +9.1067757325e+02 -6.9827288393e+02 1.8281994864e+03 0.0000000000e+00 0.0000e+00 1.0000e+00
       13  1    1    2    0    0 -1.4231636235e+03 -9.1067757325e+02 +4.0011644786e+03 4.3432758981e+03 0.0000000000e+00 0.0000e+00 -1.0000e+00
<mgrwt>
<rscale>  0 0.52132538E+04</rscale>
<asrwt>0</asrwt>
<pdfrwt beam="1">  1        2 0.72879745E+00 0.52132538E+04</pdfrwt>
<pdfrwt beam="2">  1       -2 0.22066029E+00 0.52132538E+04</pdfrwt>
<totfact> 0.43303545E-03</totfact>
</mgrwt>
<rwgt>
<wgt id='morphing_basis_vector_1'> +7.6870167e-06 </wgt>
<wgt id='morphing_basis_vector_2'> +5.2344136e-06 </wgt>
<wgt id='morphing_basis_vector_3'> +8.4744753e-06 </wgt>
<wgt id='morphing_basis_vector_4'> +6.1112633e-06 </wgt>
<wgt id='morphing_basis_vector_5'> +9.7620382e-06 </wgt>
</rwgt>
</event>
<event>
 4      1 +7.6845000e-11 4.79690400e+03 7.81860800e-03 7.41310000e-02
        2 -1    0    0  501    0 +0.0000000000e+00 +0.0000000000e+00 +2.0103565232e+03 2.0103565232e+03 0.0000000000e+00 0.0000e+00 -1.0000e+00
       -2 -1    0    0    0  501 -0.0000000000e+00 -0.0000000000e+00 -2.8614686882e+03 2.8614686882e+03 0.0000000000e+00 0.0000e+00 1.0000e+00
      -13  1    1    2    0    0 -1.5521450734e+03 +1.8140213533e+03 -1.9230749519e+02 2.3951638716e+03 0.0000000000e+00 0.0000e+00 1.0000e+00
       13  1    1    2    0    0 +1.5521450734e+03 -1.8140213533e+03 -6.5880466987e+02 2.4766613398e+03 0.0000000000e+00 0.0000e+00 -1.0000e+00
<mgrwt>
<rscale>  0 0.47969041E+04</rscale>
<asrwt>0</asrwt>
<pdfrwt beam="1">  1        2 0.30928562E+00 0.47969041E+04</pdfrwt>
<pdfrwt beam="2">  1       -2 0.44022595E+00 0.47969041E+04</pdfrwt>
<totfact> 0.17561918E-02</totfact>
</mgrwt>
<rwgt>
<wgt id='morphing_basis_vector_1'> +5.7967699e-06 </wgt>
<wgt id='morphing_basis_vector_2'> +4.5777248e-06 </wgt>
<wgt id='morphing_basis_vector_3'> +6.5295623e-06 </wgt>
<wgt id='morphing_basis_vector_4'> +3.7790587e-06 </wgt>
<wgt id='morphing_basis_vector_5'> +6.9402043e-06 </wgt>
</rwgt>
</event>
<event>
 4      1 +7.6845000e-11 4.79917200e+03 7.81860800e-03 7.41277300e-02
        2 -1    0    0  501    0 +0.0000000000e+00 +0.0000000000e+00 +2.6766234570e+03 2.6766234570e+03 0.0000000000e+00 0.0000e+00 -1.0000e+00
       -2 -1    0    0    0  501 -0.0000000000e+00 -0.0000000000e+00 -2.1512225432e+03 2.1512225432e+03 0.0000000000e+00 0.0000e+00 1.0000e+00
      -13  1    1    2    0    0 +2.2270978049e+03 -6.2946280532e+02 -3.7498336373e+02 2.3445256618e+03 0.0000000000e+00 0.0000e+00 1.0000e+00
       13  1    1    2    0    0 -2.2270978049e+03 +6.2946280532e+02 +9.0038427758e+02 2.4833203384e+03 0.0000000000e+00 0.0000e+00 -1.0000e+00
<mgrwt>
<rscale>  0 0.47991719E+04</rscale>
<asrwt>0</asrwt>
<pdfrwt beam="1">  1        2 0.41178823E+00 0.47991719E+04</pdfrwt>
<pdfrwt beam="2">  1       -2 0.33095731E+00 0.47991719E+04</pdfrwt>
<totfact> 0.37160151E-02</totfact>
</mgrwt>
<rwgt>
<wgt id='morphing_basis_vector_1'> +5.5961937e-06 </wgt>
<wgt id='morphing_basis_vector_2'> +3.9651581e-06 </wgt>
<wgt id='morphing_basis_vector_3'> +6.1992751e-06 </wgt>
<wgt id='morphing_basis_vector_4'> +4.2363907e-06 </wgt>
<wgt id='morphing_basis_vector_5'> +6.9910845e-06 </wgt>
</rwgt>
</event>
<event>
 4      1 +7.6845000e-11 4.67180700e+03 7.81860800e-03 7.43140300e-02
        2 -1    0    0  501    0 +0.0000000000e+00 +0.0000000000e+00 +3.3170448392e+03 3.3170448392e+03 0.0000000000e+00 0.0000e+00 -1.0000e+00
       -2 -1    0    0    0  501 -0.0000000000e+00 -0.0000000000e+00 -1.6449716153e+03 1.6449716153e+03 0.0000000000e+00 0.0000e+00 1.0000e+00
      -13  1    1    2    0    0 +4.8061393922e+02 +1.5334514638e+03 -9.6455536190e+02 1.8742545709e+03 0.0000000000e+00 0.0000e+00 1.0000e+00
       13  1    1    2    0    0 -4.8061393922e+02 -1.5334514638e+03 +2.6366285858e+03 3.0877618836e+03 0.0000000000e+00 0.0000e+00 -1.0000e+00
<mgrwt>
<rscale>  0 0.46718068E+04</rscale>
<asrwt>0</asrwt>
<pdfrwt beam="1">  1        2 0.51031459E+00 0.46718068E+04</pdfrwt>
<pdfrwt beam="2">  1       -2 0.25307256E+00 0.46718068E+04</pdfrwt>
<totfact> 0.48089633E-02</totfact>
</mgrwt>
<rwgt>
<wgt id='morphing_basis_vector_1'> +4.9662398e-06 </wgt>
<wgt id='morphing_basis_vector_2'> +3.3818412e-06 </wgt>
<wgt id='morphing_basis_vector_3'> +5.4681168e-06 </wgt>
<wgt id='morphing_basis_vector_4'> +3.9327864e-06 </wgt>
<wgt id='morphing_basis_vector_5'> +6.2864579e-06 </wgt>
</rwgt>
</event>
<event>
 4      1 +7.6845000e-11 4.80465700e+03 7.81860800e-03 7.41198400e-02
        2 -1    0    0  501    0 +0.0000000000e+00 +0.0000000000e+00 +2.8983221718e+03 2.8983221718e+03 0.0000000000e+00 0.0000e+00 -1.0000e+00
       -2 -1    0    0    0  501 -0.0000000000e+00 -0.0000000000e+00 -1.9912145950e+03 1.9912145950e+03 0.0000000000e+00 0.0000e+00 1.0000e+00
      -13  1    1    2    0    0 +6.3351790268e+02 +1.8918211206e+03 -9.0831379093e+02 2.1921145107e+03 0.0000000000e+00 0.0000e+00 1.0000e+00
       13  1    1    2    0    0 -6.3351790268e+02 -1.8918211206e+03 +1.8154213677e+03 2.6974222561e+03 0.0000000000e+00 0.0000e+00 -1.0000e+00
<mgrwt>
<rscale>  0 0.48046567E+04</rscale>
<asrwt>0</asrwt>
<pdfrwt beam="1">  1        2 0.44589572E+00 0.48046567E+04</pdfrwt>
<pdfrwt beam="2">  1       -2 0.30634071E+00 0.48046567E+04</pdfrwt>
<totfact> 0.39327475E-02</totfact>
</mgrwt>
<rwgt>
<wgt id='morphing_basis_vector_1'> +5.5658786e-06 </wgt>
<wgt id='morphing_basis_vector_2'> +3.8192516e-06 </wgt>
<wgt id='morphing_basis_vector_3'> +6.1371772e-06 </wgt>
<wgt id='morphing_basis_vector_4'> +4.3747268e-06 </wgt>
<wgt id='morphing_basis_vector_5'> +7.0331646e-06 </wgt>
</rwgt>
</event>
<event>
 4      1 +7.6845000e-11 4.82163300e+03 7.81860800e-03 7.40954800e-02
        2 -1    0    0  501    0 +0.0000000000e+00 +0.0000000000e+00 +4.1733146759e+03 4.1733146759e+03 0.0000000000e+00 0.0000e+00 -1.0000e+00
       -2 -1    0    0    0  501 -0.0000000000e+00 -0.0000000000e+00 -1.3926668272e+03 1.3926668272e+03 0.0000000000e+00 0.0000e+00 1.0000e+00
      -13  1    1    2    0    0 +2.1029770382e+03 -8.4169593241e+02 +2.3429977548e+03 3.2589266554e+03 0.0000000000e+00 0.0000e+00 1.0000e+00
       13  1    1    2    0    0 -2.1029770382e+03 +8.4169593241e+02 +4.3765009380e+02 2.3070548478e+03 0.0000000000e+00 0.0000e+00 -1.0000e+00
<mgrwt>
<rscale>  0 0.48216333E+04</rscale>
<asrwt>0</asrwt>
<pdfrwt beam="1">  1        2 0.64204841E+00 0.48216333E+04</pdfrwt>
<pdfrwt beam="2">  1       -2 0.21425644E+00 0.48216333E+04</pdfrwt>
<totfact> 0.18665763E-02</totfact>
</mgrwt>
<rwgt>
<wgt id='morphing_basis_vector_1'> +6.2826642e-06 </wgt>
<wgt id='morphing_basis_vector_2'> +5.7472213e-06 </wgt>
<wgt id='morphing_basis_vector_3'> +7.2581253e-06 </wgt>
<wgt id='morphing_basis_vector_4'> +3.0790738e-06 </wgt>
<wgt id='morphing_basis_vector_5'> +7.0196893e-06 </wgt>
</rwgt>
</event>
<event>
 4      1 +7.6845000e-11 4.87327400e+03 7.81860800e-03 7.40220000e-02
        2 -1    0    0  501    0 +0.0000000000e+00 +0.0000000000e+00 +3.0813060208e+03 3.0813060208e+03 0.0000000000e+00 0.0000e+00 -1.0000e+00
       -2 -1    0    0    0  501 -0.0000000000e+00 -0.0000000000e+00 -1.9268448614e+03 1.9268448614e+03 0.0000000000e+00 0.0000e+00 1.0000e+00
      -13  1    1    2    0    0 -3.1106136611e+02 +2.4116722272e+03 +4.1710885462e+02 2.4671647496e+03 0.0000000000e+00 0.0000e+00 1.0000e+00
       13  1    1    2    0    0 +3.1106136611e+02 -2.4116722272e+03 +7.3735230480e+02 2.5409861326e+03 0.0000000000e+00 0.0000e+00 -1.0000e+00
<mgrwt>
<rscale>  0 0.48732735E+04</rscale>
<asrwt>0</asrwt>
<pdfrwt beam="1">  1        2 0.47404708E+00 0.48732735E+04</pdfrwt>
<pdfrwt beam="2">  1       -2 0.29643767E+00 0.48732735E+04</pdfrwt>
<totfact> 0.34662549E-02</totfact>
</mgrwt>
<rwgt>
<wgt id='morphing_basis_vector_1'> +6.0413694e-06 </wgt>
<wgt id='morphing_basis_vector_2'> +4.4877458e-06 </wgt>
<wgt id='morphing_basis_vector_3'> +6.7414126e-06 </wgt>
<wgt id='morphing_basis_vector_4'> +4.3076168e-06 </wgt>
<wgt id='morphing_basis_vector_5'> +7.4179679e-06 </wgt>
</rwgt>
</event>
<event>
 4      1 +7.6845000e-11 4.87764600e+03 7.81860800e-03 7.40158200e-02
        2 -1    0    0  501    0 +0.0000000000e+00 +0.0000000000e+00 +3.4193729243e+03 3.4193729243e+03 0.0000000000e+00 0.0000e+00 -1.0000e+00
       -2 -1    0    0    0  501 -0.0000000000e+00 -0.0000000000e+00 -1.7394589283e+03 1.7394589283e+03 0.0000000000e+00 0.0000e+00 1.0000e+00
      -13  1    1    2    0    0 -5.1498496314e+02 -1.6819258419e+03 +2.6266539480e+03 3.1612331475e+03 0.0000000000e+00 0.0000e+00 1.0000e+00
       13  1    1    2    0    0 +5.1498496314e+02 +1.6819258419e+03 -9.4673995207e+02 1.9975987051e+03 0.0000000000e+00 0.0000e+00 -1.0000e+00
<mgrwt>
<rscale>  0 0.48776465E+04</rscale>
<asrwt>0</asrwt>
<pdfrwt beam="1">  1        2 0.52605737E+00 0.48776465E+04</pdfrwt>
<pdfrwt beam="2">  1       -2 0.26760907E+00 0.48776465E+04</pdfrwt>
<totfact> 0.31818792E-02</totfact>
</mgrwt>
<rwgt>
<wgt id='morphing_basis_vector_1'> +7.5734447e-06 </wgt>
<wgt id='morphing_basis_vector_2'> +8.9398704e-06 </wgt>
<wgt id='morphing_basis_vector_3'> +9.2143089e-06 </wgt>
<wgt id='morphing_basis_vector_4'> +1.1069957e-06 </wgt>
<wgt id='morphing_basis_vector_5'> +7.1752532e-06 </wgt>
</rwgt>
</event>
<event>
 4      1 +7.6845000e-11 4.86341300e+03 7.81860800e-03 7.40359600e-02
        2 -1    0    0  501    0 +0.0000000000e+00 +0.0000000000e+00 +3.8859106699e+03 3.8859106699e+03 0.0000000000e+00 0.0000e+00 -1.0000e+00
       -2 -1    0    0    0  501 -0.0000000000e+00 -0.0000000000e+00 -1.5217013927e+03 1.5217013927e+03 0.0000000000e+00 0.0000e+00 1.0000e+00
      -13  1    1    2    0    0 +1.6332995929e+03 -2.2274232507e+02 -8.0564620962e+02 1.8347608887e+03 0.0000000000e+00 0.0000e+00 1.0000e+00
       13  1    1    2    0    0 -1.6332995929e+03 +2.2274232507e+02 +3.1698554868e+03 3.5728511739e+03 0.0000000000e+00 0.0000e+00 -1.0000e+00
<mgrwt>
<rscale>  0 0.48634127E+04</rscale>
<asrwt>0</asrwt>
<pdfrwt beam="1">  1        2 0.59783241E+00 0.48634127E+04</pdfrwt>
<pdfrwt beam="2">  1       -2 0.23410791E+00 0.48634127E+04</pdfrwt>
<totfact> 0.23828702E-02</totfact>
</mgrwt>
<rwgt>
<wgt id='morphing_basis_vector_1'> +5.8286192e-06 </wgt>
<wgt id='morphing_basis_vector_2'> +3.9694391e-06 </wgt>
<wgt id='morphing_basis_vector_3'> +6.4208987e-06 </wgt>
<wgt id='morphing_basis_vector_4'> +4.6222796e-06 </wgt>
<wgt id='morphing_basis_vector_5'> +7.3871959e-06 </wgt>
</rwgt>
</event>
<event>
 4      1 +7.6845000e-11 4.71824200e+03 7.81860800e-03 7.42454300e-02
        2 -1    0    0  501    0 +0.0000000000e+00 +0.0000000000e+00 +3.5598822627e+03 3.5598822627e+03 0.0000000000e+00 0.0000e+00 -1.0000e+00
       -2 -1    0    0    0  501 -0.0000000000e+00 -0.0000000000e+00 -1.5633809330e+03 1.5633809330e+03 0.0000000000e+00 0.0000e+00 1.0000e+00
      -13  1    1    2    0    0 -2.1703291019e+03 +3.3115170306e+02 +1.9357678989e+03 2.9269757804e+03 0.0000000000e+00 0.0000e+00 1.0000e+00
       13  1    1    2    0    0 +2.1703291019e+03 -3.3115170306e+02 +6.0733430815e+01 2.1962874153e+03 0.0000000000e+00 0.0000e+00 -1.0000e+00
<mgrwt>
<rscale>  0 0.47182421E+04</rscale>
<asrwt>0</asrwt>
<pdfrwt beam="1">  1        2 0.54767419E+00 0.47182421E+04</pdfrwt>
<pdfrwt beam="2">  1       -2 0.24052014E+00 0.47182421E+04</pdfrwt>
<totfact> 0.39106049E-02</totfact>
</mgrwt>
<rwgt>
<wgt id='morphing_basis_vector_1'> +5.8081855e-06 </wgt>
<wgt id='morphing_basis_vector_2'> +5.4047018e-06 </wgt>
<wgt id='morphing_basis_vector_3'> +6.7284783e-06 </wgt>
<wgt id='morphing_basis_vector_4'> +2.7257064e-06 </wgt>
<wgt id='morphing_basis_vector_5'> +6.4266875e-06 </wgt>
</rwgt>
</event>
<event>
 4      1 +7.6845000e-11 5.39022600e+03 7.81860800e-03 7.33338600e-02
        2 -1    0    0  501    0 +0.0000000000e+00 +0.0000000000e+00 +2.2548274861e+03 2.2548274861e+03 0.0000000000e+00 0.0000e+00 -1.0000e+00
       -2 -1    0    0    0  501 -0.0000000000e+00 -0.0000000000e+00 -3.2213700231e+03 3.2213700231e+03 0.0000000000e+00 0.0000e+00 1.0000e+00
      -13  1    1    2    0    0 -1.7527244662e+03 -2.0346238050e+03 -7.1471293419e+02 2.7789479413e+03 0.0000000000e+00 0.0000e+00 1.0000e+00
       13  1    1    2    0    0 +1.7527244662e+03 +2.0346238050e+03 -2.5182960281e+02 2.6972495678e+03 0.0000000000e+00 0.0000e+00 -1.0000e+00
<mgrwt>
<rscale>  0 0.53902258E+04</rscale>
<asrwt>0</asrwt>
<pdfrwt beam="1">  1        2 0.34689654E+00 0.53902258E+04</pdfrwt>
<pdfrwt beam="2">  1       -2 0.49559539E+00 0.53902258E+04</pdfrwt>
<totfact> 0.48510794E-03</totfact>
</mgrwt>
<rwgt>
<wgt id='morphing_basis_vector_1'> +9.0121223e-06 </wgt>
<wgt id='morphing_basis_vector_2'> +6.6576731e-06 </wgt>
<wgt id='morphing_basis_vector_3'> +1.0059805e-05 </wgt>
<wgt id='morphing_basis_vector_4'> +6.4951162e-06 </wgt>
<wgt id='morphing_basis_vector_5'> +1.1119540e-05 </wgt>
</rwgt>
</event>
<event>
 4      1 +7.6845000e-11 4.80078500e+03 7.81860800e-03 7.41254100e-02
        2 -1    0    0  501    0 +0.0000000000e+00 +0.0000000000e+00 +3.0323667329e+03 3.0323667329e+03 0.0000000000e+00 0.0000e+00 -1.0000e+00
       -2 -1    0    0    0  501 -0.0000000000e+00 -0.0000000000e+00 -1.9001275887e+03 1.9001275887e+03 0.0000000000e+00 0.0000e+00 1.0000e+00
      -13  1    1    2    0    0 +7.6021866180e+02 -1.6285311459e+03 -1.0687092122e+03 2.0909771608e+03 0.0000000000e+00 0.0000e+00 1.0000e+00
       13  1    1    2    0    0 -7.6021866180e+02 +1.6285311459e+03 +2.2009483564e+03 2.8415171607e+03 0.0000000000e+00 0.0000e+00 -1.0000e+00
<mgrwt>
<rscale>  0 0.48007848E+04</rscale>
<asrwt>0</asrwt>
<pdfrwt beam="1">  1        2 0.46651796E+00 0.48007848E+04</pdfrwt>
<pdfrwt beam="2">  1       -2 0.29232732E+00 0.48007848E+04</pdfrwt>
<totfact> 0.40027858E-02</totfact>
</mgrwt>
<rwgt>
<wgt id='morphing_basis_vector_1'> +5.5391441e-06 </wgt>
<wgt id='morphing_basis_vector_2'> +3.7808957e-06 </wgt>
<wgt id='morphing_basis_vector_3'> +6.1030385e-06 </wgt>
<wgt id='morphing_basis_vector_4'> +4.3794920e-06 </wgt>
<wgt id='morphing_basis_vector_5'> +7.0120262e-06 </wgt>
</rwgt>
</event>
<event>
 4      1 +7.6845000e-11 4.63752500e+03 7.81860800e-03 7.43652000e-02
        2 -1    0    0  501    0 +0.0000000000e+00 +0.0000000000e+00 +3.3312351815e+03 3.3312351815e+03 0.0000000000e+00 0.0000e+00 1.0000e+00
       -2 -1    0    0    0  501 -0.0000000000e+00 -0.0000000000e+00 -1.6140134477e+03 1.6140134477e+03 0.0000000000e+00 0.0000e+00 -1.0000e+00
      -13  1    1    2    0    0 +3.2484729129e+00 +2.1067561740e+03 -1.7428301247e+02 2.1139552261e+03 0.0000000000e+00 0.0000e+00 -1.0000e+00
       13  1    1    2    0    0 -3.2484729129e+00 -2.1067561740e+03 +1.8915047462e+03 2.8312934031e+03 0.0000000000e+00 0.0000e+00 1.0000e+00
<mgrwt>
<rscale>  0 0.46375245E+04</rscale>
<asrwt>0</asrwt>
<pdfrwt beam="1">  1        2 0.51249772E+00 0.46375245E+04</pdfrwt>
<pdfrwt beam="2">  1       -2 0.24830976E+00 0.46375245E+04</pdfrwt>
<totfact> 0.50839971E-02</totfact>
</mgrwt>
<rwgt>
<wgt id='morphing_basis_vector_1'> +4.8502397e-06 </wgt>
<wgt id='morphing_basis_vector_2'> +3.3649884e-06 </wgt>
<wgt id='morphing_basis_vector_3'> +5.3541120e-06 </wgt>
<wgt id='morphing_basis_vector_4'> +3.7594515e-06 </wgt>
<wgt id='morphing_basis_vector_5'> +6.0983807e-06 </wgt>
</rwgt>
</event>
<event>
 4      1 +7.6845000e-11 5.11751600e+03 7.81860800e-03 7.36865000e-02
        2 -1    0    0  501    0 +0.0000000000e+00 +0.0000000000e+00 +2.3653002279e+03 2.3653002279e+03 0.0000000000e+00 0.0000e+00 1.0000e+00
       -2 -1    0    0    0  501 -0.0000000000e+00 -0.0000000000e+00 -2.7680390943e+03 2.7680390943e+03 0.0000000000e+00 0.0000e+00 -1.0000e+00
      -13  1    1    2    0    0 -6.9511803747e+01 +4.5205808632e+02 -2.7267029080e+03 2.7647960418e+03 0.0000000000e+00 0.0000e+00 -1.0000e+00
       13  1    1    2    0    0 +6.9511803747e+01 -4.5205808632e+02 +2.3239640416e+03 2.3685432803e+03 0.0000000000e+00 0.0000e+00 1.0000e+00
<mgrwt>
<rscale>  0 0.51175164E+04</rscale>
<asrwt>0</asrwt>
<pdfrwt beam="1">  1        2 0.36389234E+00 0.51175164E+04</pdfrwt>
<pdfrwt beam="2">  1       -2 0.42585217E+00 0.51175164E+04</pdfrwt>
<totfact> 0.13417641E-02</totfact>
</mgrwt>
<rwgt>
<wgt id='morphing_basis_vector_1'> +7.1340315e-06 </wgt>
<wgt id='morphing_basis_vector_2'> +4.8452017e-06 </wgt>
<wgt id='morphing_basis_vector_3'> +7.8603866e-06 </wgt>
<wgt id='morphing_basis_vector_4'> +5.6846747e-06 </wgt>
<wgt id='morphing_basis_vector_5'> +9.0634152e-06 </wgt>
</rwgt>
</event>
<event>
 4      1 +7.6845000e-11 4.79529200e+03 7.81860800e-03 7.41333200e-02
        2 -1    0    0  501    0 +0.0000000000e+00 +0.0000000000e+00 +2.6516711539e+03 2.6516711539e+03 0.0000000000e+00 0.0000e+00 1.0000e+00
       -2 -1    0    0    0  501 -0.0000000000e+00 -0.0000000000e+00 -2.1679557494e+03 2.1679557494e+03 0.0000000000e+00 0.0000e+00 -1.0000e+00
      -13  1    1    2    0    0 -9.2552649416e+02 +1.2984958235e+03 -1.5577637537e+03 2.2291968525e+03 0.0000000000e+00 0.0000e+00 -1.0000e+00
       13  1    1    2    0    0 +9.2552649416e+02 -1.2984958235e+03 +2.0414791581e+03 2.5904300508e+03 0.0000000000e+00 0.0000e+00 1.0000e+00
<mgrwt>
<rscale>  0 0.47952917E+04</rscale>
<asrwt>0</asrwt>
<pdfrwt beam="1">  1        2 0.40794941E+00 0.47952917E+04</pdfrwt>
<pdfrwt beam="2">  1       -2 0.33353165E+00 0.47952917E+04</pdfrwt>
<totfact> 0.37029067E-02</totfact>
</mgrwt>
<rwgt>
<wgt id='morphing_basis_vector_1'> +5.5094391e-06 </wgt>
<wgt id='morphing_basis_vector_2'> +3.7504667e-06 </wgt>
<wgt id='morphing_basis_vector_3'> +6.0678912e-06 </wgt>
<wgt id='morphing_basis_vector_4'> +4.3689648e-06 </wgt>
<wgt id='morphing_basis_vector_5'> +6.9806783e-06 </wgt>
</rwgt>
</event>
<event>
 4      1 +7.6845000e-11 4.75401700e+03 7.81860800e-03 7.41931100e-02
        2 -1    0    0  501    0 +0.0000000000e+00 +0.0000000000e+00 +5.0517905116e+03 5.0517905116e+03 0.0000000000e+00 0.0000e+00 -1.0000e+00
       -2 -1    0    0    0  501 -0.0000000000e+00 -0.0000000000e+00 -1.1184490472e+03 1.1184490472e+03 0.0000000000e+00 0.0000e+00 1.0000e+00
      -13  1    1    2    0    0 -4.6956631934e+02 -1.9439676068e+03 +2.9915059074e+02 2.0221260249e+03 0.0000000000e+00 0.0000e+00 1.0000e+00
       13  1    1    2    0    0 +4.6956631934e+02 +1.9439676068e+03 +3.6341908736e+03 4.1481135339e+03 0.0000000000e+00 0.0000e+00 -1.0000e+00
<mgrwt>
<rscale>  0 0.47540174E+04</rscale>
<asrwt>0</asrwt>
<pdfrwt beam="1">  1        2 0.77719853E+00 0.47540174E+04</pdfrwt>
<pdfrwt beam="2">  1       -2 0.17206909E+00 0.47540174E+04</pdfrwt>
<totfact> 0.41203862E-03</totfact>
</mgrwt>
<rwgt>
<wgt id='morphing_basis_vector_1'> +5.3374408e-06 </wgt>
<wgt id='morphing_basis_vector_2'> +3.6660273e-06 </wgt>
<wgt id='morphing_basis_vector_3'> +5.8853324e-06 </wgt>
<wgt id='morphing_basis_vector_4'> +4.1889393e-06 </wgt>
<wgt id='morphing_basis_vector_5'> +6.7400150e-06 </wgt>
</rwgt>
</event>
<event>
 4      1 +7.6845000e-11 5.45367000e+03 7.81860800e-03 7.32548800e-02
        2 -1    0    0  501    0 +0.0000000000e+00 +0.0000000000e+00 +1.4648887220e+03 1.4648887220e+03 0.0000000000e+00 0.0000e+00 1.0000e+00
       -2 -1    0    0    0  501 -0.0000000000e+00 -0.0000000000e+00 -5.0759007874e+03 5.0759007874e+03 0.0000000000e+00 0.0000e+00 -1.0000e+00
      -13  1    1    2    0    0 +1.3092117974e+03 +2.0866666642e+03 -3.2079699887e+03 4.0446612647e+03 0.0000000000e+00 0.0000e+00 -1.0000e+00
       13  1    1    2    0    0 -1.3092117974e+03 -2.0866666642e+03 -4.0304207670e+02 2.4961282447e+03 0.0000000000e+00 0.0000e+00 1.0000e+00
<mgrwt>
<rscale>  0 0.54536703E+04</rscale>
<asrwt>0</asrwt>
<pdfrwt beam="1">  1        2 0.22536749E+00 0.54536703E+04</pdfrwt>
<pdfrwt beam="2">  1       -2 0.78090783E+00 0.54536703E+04</pdfrwt>
<totfact> 0.11675220E-03</totfact>
</mgrwt>
<rwgt>
<wgt id='morphing_basis_vector_1'> +9.2534778e-06 </wgt>
<wgt id='morphing_basis_vector_2'> +6.4206170e-06 </wgt>
<wgt id='morphing_basis_vector_3'> +1.0233758e-05 </wgt>
<wgt id='morphing_basis_vector_4'> +7.2112782e-06 </wgt>
<wgt id='morphing_basis_vector_5'> +1.1687771e-05 </wgt>
</rwgt>
</event>
<event>
 4      1 +7.6845000e-11 4.82999300e+03 7.81860800e-03 7.40835200e-02
        2 -1    0    0  501    0 +0.0000000000e+00 +0.0000000000e+00 +2.7439297971e+03 2.7439297971e+03 0.0000000000e+00 0.0000e+00 -1.0000e+00
       -2 -1    0    0    0  501 -0.0000000000e+00 -0.0000000000e+00 -2.1254949355e+03 2.1254949355e+03 0.0000000000e+00 0.0000e+00 1.0000e+00
      -13  1    1    2    0    0 -4.3464952338e+02 +1.8915392102e+03 +1.7580888930e+03 2.6187243741e+03 0.0000000000e+00 0.0000e+00 1.0000e+00
       13  1    1    2    0    0 +4.3464952338e+02 -1.8915392102e+03 -1.1396540315e+03 2.2507003584e+03 0.0000000000e+00 0.0000e+00 -1.0000e+00
<mgrwt>
<rscale>  0 0.48299933E+04</rscale>
<asrwt>0</asrwt>
<pdfrwt beam="1">  1        2 0.42214304E+00 0.48299933E+04</pdfrwt>
<pdfrwt beam="2">  1       -2 0.32699922E+00 0.48299933E+04</pdfrwt>
<totfact> 0.35773459E-02</totfact>
</mgrwt>
<rwgt>
<wgt id='morphing_basis_vector_1'> +6.9911347e-06 </wgt>
<wgt id='morphing_basis_vector_2'> +7.7400225e-06 </wgt>
<wgt id='morphing_basis_vector_3'> +8.3861597e-06 </wgt>
<wgt id='morphing_basis_vector_4'> +1.6850915e-06 </wgt>
<wgt id='morphing_basis_vector_5'> +6.9500956e-06 </wgt>
</rwgt>
</event>
<event>
 4      1 +7.6845000e-11 5.48347400e+03 7.81860800e-03 7.32181500e-02
        2 -1    0    0  501    0 +0.0000000000e+00 +0.0000000000e+00 +2.1145087703e+03 2.1145087703e+03 0.0000000000e+00 0.0000e+00 1.0000e+00
       -2 -1    0    0    0  501 -0.0000000000e+00 -0.0000000000e+00 -3.5550197557e+03 3.5550197557e+03 0.0000000000e+00 0.0000e+00 -1.0000e+00
      -13  1    1    2    0    0 +2.0447971867e+03 -8.2448428575e+02 -2.4053239162e+03 3.2629056091e+03 0.0000000000e+00 0.0000e+00 -1.0000e+00
       13  1    1    2    0    0 -2.0447971867e+03 +8.2448428575e+02 +9.6481293081e+02 2.4066229168e+03 0.0000000000e+00 0.0000e+00 1.0000e+00
<mgrwt>
<rscale>  0 0.54834735E+04</rscale>
<asrwt>0</asrwt>
<pdfrwt beam="1">  1        2 0.32530904E+00 0.54834735E+04</pdfrwt>
<pdfrwt beam="2">  1       -2 0.54692612E+00 0.54834735E+04</pdfrwt>
<totfact> 0.24211535E-03</totfact>
</mgrwt>
<rwgt>
<wgt id='morphing_basis_vector_1'> +9.4212167e-06 </wgt>
<wgt id='morphing_basis_vector_2'> +6.4573467e-06 </wgt>
<wgt id='morphing_basis_vector_3'> +1.0401250e-05 </wgt>
<wgt id='morphing_basis_vector_4'> +7.4467116e-06 </wgt>
<wgt id='morphing_basis_vector_5'> +1.1952438e-05 </wgt>
</rwgt>
</event>
<event>
 4      1 +7.6845000e-11 4.62431400e+03 7.81860800e-03 7.43850400e-02
        2 -1    0    0  501    0 +0.0000000000e+00 +0.0000000000e+00 +2.7899851597e+03 2.7899851597e+03 0.0000000000e+00 0.0000e+00 1.0000e+00
       -2 -1    0    0    0  501 -0.0000000000e+00 -0.0000000000e+00 -1.9161639626e+03 1.9161639626e+03 0.0000000000e+00 0.0000e+00 -1.0000e+00
      -13  1    1    2    0    0 -1.5726972715e+03 -1.0451256623e+03 -9.2102060957e+02 2.1009386762e+03 0.0000000000e+00 0.0000e+00 -1.0000e+00
       13  1    1    2    0    0 +1.5726972715e+03 +1.0451256623e+03 +1.7948418066e+03 2.6052104461e+03 0.0000000000e+00 0.0000e+00 1.0000e+00
<mgrwt>
<rscale>  0 0.46243136E+04</rscale>
<asrwt>0</asrwt>
<pdfrwt beam="1">  1        2 0.42922849E+00 0.46243136E+04</pdfrwt>
<pdfrwt beam="2">  1       -2 0.29479445E+00 0.46243136E+04</pdfrwt>
<totfact> 0.55854518E-02</totfact>
</mgrwt>
<rwgt>
<wgt id='morphing_basis_vector_1'> +4.7770759e-06 </wgt>
<wgt id='morphing_basis_vector_2'> +3.2729913e-06 </wgt>
<wgt id='morphing_basis_vector_3'> +5.2637102e-06 </wgt>
<wgt id='morphing_basis_vector_4'> +3.7556374e-06 </wgt>
<wgt id='morphing_basis_vector_5'> +6.0321960e-06 </wgt>
</rwgt>
</event>
<event>
 4      1 +7.6845000e-11 4.74435600e+03 7.81860800e-03 7.42071900e-02
        2 -1    0    0  501    0 +0.0000000000e+00 +0.0000000000e+00 +2.0648764961e+03 2.0648764961e+03 0.0000000000e+00 0.0000e+00 -1.0000e+00
       -2 -1    0    0    0  501 -0.0000000000e+00 -0.0000000000e+00 -2.7252127356e+03 2.7252127356e+03 0.0000000000e+00 0.0000e+00 1.0000e+00
      -13  1    1    2    0    0 +1.7499160852e+03 +1.4243507799e+03 +4.0917920685e+02 2.2931221234e+03 0.0000000000e+00 0.0000e+00 1.0000e+00
       13  1    1    2    0    0 -1.7499160852e+03 -1.4243507799e+03 -1.0695154464e+03 2.4969671082e+03 0.0000000000e+00 0.0000e+00 -1.0000e+00
<mgrwt>
<rscale>  0 0.47443557E+04</rscale>
<asrwt>0</asrwt>
<pdfrwt beam="1">  1        2 0.31767331E+00 0.47443557E+04</pdfrwt>
<pdfrwt beam="2">  1       -2 0.41926350E+00 0.47443557E+04</pdfrwt>
<totfact> 0.22733677E-02</totfact>
</mgrwt>
<rwgt>
<wgt id='morphing_basis_vector_1'> +5.8291740e-06 </wgt>
<wgt id='morphing_basis_vector_2'> +5.2072749e-06 </wgt>
<wgt id='morphing_basis_vector_3'> +6.7036501e-06 </wgt>
<wgt id='morphing_basis_vector_4'> +3.0169424e-06 </wgt>
<wgt id='morphing_basis_vector_5'> +6.5899206e-06 </wgt>
</rwgt>
</event>
<event>
 4      1 +7.6845000e-11 5.05673800e+03 7.81860800e-03 7.37681700e-02
        2 -1    0    0  501    0 +0.0000000000e+00 +0.0000000000e+00 +3.1760269129e+03 3.1760269129e+03 0.0000000000e+00 0.0000e+00 1.0000e+00
       -2 -1    0    0    0  501 -0.0000000000e+00 -0.0000000000e+00 -2.0127817822e+03 2.0127817822e+03 0.0000000000e+00 0.0000e+00 -1.0000e+00
      -13  1    1    2    0    0 -1.1323355527e+03 +2.0430661494e+03 +1.5745452055e+03 2.8170011890e+03 0.0000000000e+00 0.0000e+00 -1.0000e+00
       13  1    1    2    0    0 +1.1323355527e+03 -2.0430661494e+03 -4.1130007484e+02 2.3718075061e+03 0.0000000000e+00 0.0000e+00 1.0000e+00
<mgrwt>
<rscale>  0 0.50567377E+04</rscale>
<asrwt>0</asrwt>
<pdfrwt beam="1">  1        2 0.48861952E+00 0.50567377E+04</pdfrwt>
<pdfrwt beam="2">  1       -2 0.30965874E+00 0.50567377E+04</pdfrwt>
<totfact> 0.24068102E-02</totfact>
</mgrwt>
<rwgt>
<wgt id='morphing_basis_vector_1'> +7.7003728e-06 </wgt>
<wgt id='morphing_basis_vector_2'> +7.2570763e-06 </wgt>
<wgt id='morphing_basis_vector_3'> +8.9519720e-06 </wgt>
<wgt id='morphing_basis_vector_4'> +3.5042094e-06 </wgt>
<wgt id='morphing_basis_vector_5'> +8.4786635e-06 </wgt>
</rwgt>
</event>
<event>
 4      1 +7.6845000e-11 4.86957000e+03 7.81860800e-03 7.40272400e-02
        2 -1    0    0  501    0 +0.0000000000e+00 +0.0000000000e+00 +2.1831887926e+03 2.1831887926e+03 0.0000000000e+00 0.0000e+00 1.0000e+00
       -2 -1    0    0    0  501 -0.0000000000e+00 -0.0000000000e+00 -2.7153753697e+03 2.7153753697e+03 0.0000000000e+00 0.0000e+00 -1.0000e+00
      -13  1    1    2    0    0 -1.4467620892e+03 -8.1383853674e+02 -2.0579130629e+03 2.6439477834e+03 0.0000000000e+00 0.0000e+00 -1.0000e+00
       13  1    1    2    0    0 +1.4467620892e+03 +8.1383853674e+02 +1.5257264858e+03 2.2546163789e+03 0.0000000000e+00 0.0000e+00 1.0000e+00
<mgrwt>
<rscale>  0 0.48695696E+04</rscale>
<asrwt>0</asrwt>
<pdfrwt beam="1">  1        2 0.33587520E+00 0.48695696E+04</pdfrwt>
<pdfrwt beam="2">  1       -2 0.41775006E+00 0.48695696E+04</pdfrwt>
<totfact> 0.19734456E-02</totfact>
</mgrwt>
<rwgt>
<wgt id='morphing_basis_vector_1'> +5.8582633e-06 </wgt>
<wgt id='morphing_basis_vector_2'> +3.9900653e-06 </wgt>
<wgt id='morphing_basis_vector_3'> +6.4537522e-06 </wgt>
<wgt id='morphing_basis_vector_4'> +4.6454345e-06 </wgt>
<wgt id='morphing_basis_vector_5'> +7.4247695e-06 </wgt>
</rwgt>
</event>
<event>
 4      1 +7.6845000e-11 4.97592900e+03 7.81860800e-03 7.38786000e-02
        2 -1    0    0  501    0 +0.0000000000e+00 +0.0000000000e+00 +2.4721377154e+03 2.4721377154e+03 0.0000000000e+00 0.0000e+00 1.0000e+00
       -2 -1    0    0    0  501 -0.0000000000e+00 -0.0000000000e+00 -2.5038925939e+03 2.5038925939e+03 0.0000000000e+00 0.0000e+00 -1.0000e+00
      -13  1    1    2    0    0 -2.3856628133e+03 -5.4890348451e+02 -4.6005449569e+02 2.4908497010e+03 0.0000000000e+00 0.0000e+00 -1.0000e+00
       13  1    1    2    0    0 +2.3856628133e+03 +5.4890348451e+02 +4.2829961727e+02 2.4851806083e+03 0.0000000000e+00 0.0000e+00 1.0000e+00
<mgrwt>
<rscale>  0 0.49759290E+04</rscale>
<asrwt>0</asrwt>
<pdfrwt beam="1">  1        2 0.38032888E+00 0.49759290E+04</pdfrwt>
<pdfrwt beam="2">  1       -2 0.38521424E+00 0.49759290E+04</pdfrwt>
<totfact> 0.21686867E-02</totfact>
</mgrwt>
<rwgt>
<wgt id='morphing_basis_vector_1'> +6.4991818e-06 </wgt>
<wgt id='morphing_basis_vector_2'> +4.6844140e-06 </wgt>
<wgt id='morphing_basis_vector_3'> +7.2211064e-06 </wgt>
<wgt id='morphing_basis_vector_4'> +4.8233987e-06 </wgt>
<wgt id='morphing_basis_vector_5'> +8.0769481e-06 </wgt>
</rwgt>
</event>
<event>
 4      1 +7.6845000e-11 4.99774100e+03 7.81860800e-03 7.38485800e-02
        2 -1    0    0  501    0 +0.0000000000e+00 +0.0000000000e+00 +2.6152336052e+03 2.6152336052e+03 0.0000000000e+00 0.0000e+00 -1.0000e+00
       -2 -1    0    0    0  501 -0.0000000000e+00 -0.0000000000e+00 -2.3876852916e+03 2.3876852916e+03 0.0000000000e+00 0.0000e+00 1.0000e+00
      -13  1    1    2    0    0 -2.3434021994e+03 +2.6210369545e+02 +9.4174806059e+02 2.5391182770e+03 0.0000000000e+00 0.0000e+00 1.0000e+00
       13  1    1    2    0    0 +2.3434021994e+03 -2.6210369545e+02 -7.1419974704e+02 2.4638006197e+03 0.0000000000e+00 0.0000e+00 -1.0000e+00
<mgrwt>
<rscale>  0 0.49977414E+04</rscale>
<asrwt>0</asrwt>
<pdfrwt beam="1">  1        2 0.40234363E+00 0.49977414E+04</pdfrwt>
<pdfrwt beam="2">  1       -2 0.36733620E+00 0.49977414E+04</pdfrwt>
<totfact> 0.23159003E-02</totfact>
</mgrwt>
<rwgt>
<wgt id='morphing_basis_vector_1'> +7.2223190e-06 </wgt>
<wgt id='morphing_basis_vector_2'> +6.5548404e-06 </wgt>
<wgt id='morphing_basis_vector_3'> +8.3365275e-06 </wgt>
<wgt id='morphing_basis_vector_4'> +3.6116311e-06 </wgt>
<wgt id='morphing_basis_vector_5'> +8.1112201e-06 </wgt>
</rwgt>
</event>
<event>
 4      1 +7.6845000e-11 4.80283600e+03 7.81860800e-03 7.41224600e-02
        2 -1    0    0  501    0 +0.0000000000e+00 +0.0000000000e+00 +2.6999165146e+03 2.6999165146e+03 0.0000000000e+00 0.0000e+00 -1.0000e+00
       -2 -1    0    0    0  501 -0.0000000000e+00 -0.0000000000e+00 -2.1359211138e+03 2.1359211138e+03 0.0000000000e+00 0.0000e+00 1.0000e+00
      -13  1    1    2    0    0 -1.9851294817e+03 -1.1676389069e+03 -4.0288868938e+02 2.3380416960e+03 0.0000000000e+00 0.0000e+00 1.0000e+00
       13  1    1    2    0    0 +1.9851294817e+03 +1.1676389069e+03 +9.6688409014e+02 2.4977959324e+03 0.0000000000e+00 0.0000e+00 -1.0000e+00
<mgrwt>
<rscale>  0 0.48028361E+04</rscale>
<asrwt>0</asrwt>
<pdfrwt beam="1">  1        2 0.41537177E+00 0.48028361E+04</pdfrwt>
<pdfrwt beam="2">  1       -2 0.32860325E+00 0.48028361E+04</pdfrwt>
<totfact> 0.37250366E-02</totfact>
</mgrwt>
<rwgt>
<wgt id='morphing_basis_vector_1'> +5.6075824e-06 </wgt>
<wgt id='morphing_basis_vector_2'> +3.9606364e-06 </wgt>
<wgt id='morphing_basis_vector_3'> +6.2090568e-06 </wgt>
<wgt id='morphing_basis_vector_4'> +4.2614355e-06 </wgt>
<wgt id='morphing_basis_vector_5'> +7.0135425e-06 </wgt>
</rwgt>
</event>
<event>
 4      1 +7.6845000e-11 4.84665700e+03 7.81860800e-03 7.40597600e-02
        2 -1    0    0  501    0 +0.0000000000e+00 +0.0000000000e+00 +3.3109925862e+03 3.3109925862e+03 0.0000000000e+00 0.0000e+00 -1.0000e+00
       -2 -1    0    0    0  501 -0.0000000000e+00 -0.0000000000e+00 -1.7736437953e+03 1.7736437953e+03 0.0000000000e+00 0.0000e+00 1.0000e+00
      -13  1    1    2    0    0 -2.0954101390e+03 +1.0520823741e+03 +1.2631866972e+02 2.3481008025e+03 0.0000000000e+00 0.0000e+00 1.0000e+00
       13  1    1    2    0    0 +2.0954101390e+03 -1.0520823741e+03 +1.4110301212e+03 2.7365355790e+03 0.0000000000e+00 0.0000e+00 -1.0000e+00
<mgrwt>
<rscale>  0 0.48466572E+04</rscale>
<asrwt>0</asrwt>
<pdfrwt beam="1">  1        2 0.50938347E+00 0.48466572E+04</pdfrwt>
<pdfrwt beam="2">  1       -2 0.27286828E+00 0.48466572E+04</pdfrwt>
<totfact> 0.35032574E-02</totfact>
</mgrwt>
<rwgt>
<wgt id='morphing_basis_vector_1'> +5.8239086e-06 </wgt>
<wgt id='morphing_basis_vector_2'> +4.1351379e-06 </wgt>
<wgt id='morphing_basis_vector_3'> +6.4543168e-06 </wgt>
<wgt id='morphing_basis_vector_4'> +4.3991997e-06 </wgt>
<wgt id='morphing_basis_vector_5'> +7.2722188e-06 </wgt>
</rwgt>
</event>
<event>
 4      1 +7.6845000e-11 4.80016700e+03 7.81860800e-03 7.41263000e-02
        2 -1    0    0  501    0 +0.0000000000e+00 +0.0000000000e+00 +2.6153699282e+03 2.6153699282e+03 0.0000000000e+00 0.0000e+00 1.0000e+00
       -2 -1    0    0    0  501 -0.0000000000e+00 -0.0000000000e+00 -2.2025184640e+03 2.2025184640e+03 0.0000000000e+00 0.0000e+00 -1.0000e+00
      -13  1    1    2    0    0 +1.7659577743e+02 -9.8674684276e+02 -1.9823464107e+03 2.2213853093e+03 0.0000000000e+00 0.0000e+00 -1.0000e+00
       13  1    1    2    0    0 -1.7659577743e+02 +9.8674684276e+02 +2.3951978748e+03 2.5965030830e+03 0.0000000000e+00 0.0000e+00 1.0000e+00
<mgrwt>
<rscale>  0 0.48001669E+04</rscale>
<asrwt>0</asrwt>
<pdfrwt beam="1">  1        2 0.40236461E+00 0.48001669E+04</pdfrwt>
<pdfrwt beam="2">  1       -2 0.33884899E+00 0.48001669E+04</pdfrwt>
<totfact> 0.35940003E-02</totfact>
</mgrwt>
<rwgt>
<wgt id='morphing_basis_vector_1'> +5.5275814e-06 </wgt>
<wgt id='morphing_basis_vector_2'> +3.7533360e-06 </wgt>
<wgt id='morphing_basis_vector_3'> +6.0857682e-06 </wgt>
<wgt id='morphing_basis_vector_4'> +4.3957929e-06 </wgt>
<wgt id='morphing_basis_vector_5'> +7.0099591e-06 </wgt>
</rwgt>
</event>
<event>
 4      1 +7.6845000e-11 4.69155200e+03 7.81860800e-03 7.42847600e-02
        2 -1    0    0  501    0 +0.0000000000e+00 +0.0000000000e+00 +2.9078810093e+03 2.9078810093e+03 0.0000000000e+00 0.0000e+00 -1.0000e+00
       -2 -1    0    0    0  501 -0.0000000000e+00 -0.0000000000e+00 -1.8923279938e+03 1.8923279938e+03 0.0000000000e+00 0.0000e+00 1.0000e+00
      -13  1    1    2    0    0 -1.1594319164e+03 +7.7144270337e+02 -1.4236015321e+03 1.9914937950e+03 0.0000000000e+00 0.0000e+00 1.0000e+00
       13  1    1    2    0    0 +1.1594319164e+03 -7.7144270337e+02 +2.4391545476e+03 2.8087152081e+03 0.0000000000e+00 0.0000e+00 -1.0000e+00
<mgrwt>
<rscale>  0 0.46915518E+04</rscale>
<asrwt>0</asrwt>
<pdfrwt beam="1">  1        2 0.44736631E+00 0.46915518E+04</pdfrwt>
<pdfrwt beam="2">  1       -2 0.29112739E+00 0.46915518E+04</pdfrwt>
<totfact> 0.49532018E-02</totfact>
</mgrwt>
<rwgt>
<wgt id='morphing_basis_vector_1'> +5.0476319e-06 </wgt>
<wgt id='morphing_basis_vector_2'> +3.4311240e-06 </wgt>
<wgt id='morphing_basis_vector_3'> +5.5566248e-06 </wgt>
<wgt id='morphing_basis_vector_4'> +4.0058478e-06 </wgt>
<wgt id='morphing_basis_vector_5'> +6.3942959e-06 </wgt>
</rwgt>
</event>
<event>
 4      1 +7.6845000e-11 5.47594700e+03 7.81860800e-03 7.32274100e-02
        2 -1    0    0  501    0 +0.0000000000e+00 +0.0000000000e+00 +3.1809554866e+03 3.1809554866e+03 0.0000000000e+00 0.0000e+00 -1.0000e+00
       -2 -1    0    0    0  501 -0.0000000000e+00 -0.0000000000e+00 -2.3566813914e+03 2.3566813914e+03 0.0000000000e+00 0.0000e+00 1.0000e+00
      -13  1    1    2    0    0 +6.1007061289e+02 -1.8996753219e+03 -1.4839647338e+03 2.4865847688e+03 0.0000000000e+00 0.0000e+00 1.0000e+00
       13  1    1    2    0    0 -6.1007061289e+02 +1.8996753219e+03 +2.3082388291e+03 3.0510521092e+03 0.0000000000e+00 0.0000e+00 -1.0000e+00
<mgrwt>
<rscale>  0 0.54759469E+04</rscale>
<asrwt>0</asrwt>
<pdfrwt beam="1">  1        2 0.48937777E+00 0.54759469E+04</pdfrwt>
<pdfrwt beam="2">  1       -2 0.36256637E+00 0.54759469E+04</pdfrwt>
<totfact> 0.10406158E-02</totfact>
</mgrwt>
<rwgt>
<wgt id='morphing_basis_vector_1'> +9.3585162e-06 </wgt>
<wgt id='morphing_basis_vector_2'> +6.3890601e-06 </wgt>
<wgt id='morphing_basis_vector_3'> +1.0325997e-05 </wgt>
<wgt id='morphing_basis_vector_4'> +7.4297666e-06 </wgt>
<wgt id='morphing_basis_vector_5'> +1.1888789e-05 </wgt>
</rwgt>
</event>
<event>
 4      1 +7.6845000e-11 5.42981900e+03 7.81860800e-03 7.32844400e-02
        2 -1    0    0  501    0 +0.0000000000e+00 +0.0000000000e+00 +3.0528466164e+03 3.0528466164e+03 0.0000000000e+00 0.0000e+00 -1.0000e+00
       -2 -1    0    0    0  501 -0.0000000000e+00 -0.0000000000e+00 -2.4143808782e+03 2.4143808782e+03 0.0000000000e+00 0.0000e+00 1.0000e+00
      -13  1    1    2    0    0 +2.2875044536e+03 -3.9296052773e+02 -1.0988877873e+03 2.5680048618e+03 0.0000000000e+00 0.0000e+00 1.0000e+00
       13  1    1    2    0    0 -2.2875044536e+03 +3.9296052773e+02 +1.7373535255e+03 2.8992226327e+03 0.0000000000e+00 0.0000e+00 -1.0000e+00
<mgrwt>
<rscale>  0 0.54298193E+04</rscale>
<asrwt>0</asrwt>
<pdfrwt beam="1">  1        2 0.46966871E+00 0.54298193E+04</pdfrwt>
<pdfrwt beam="2">  1       -2 0.37144321E+00 0.54298193E+04</pdfrwt>
<totfact> 0.11151701E-02</totfact>
</mgrwt>
<rwgt>
<wgt id='morphing_basis_vector_1'> +9.0717853e-06 </wgt>
<wgt id='morphing_basis_vector_2'> +6.2465711e-06 </wgt>
<wgt id='morphing_basis_vector_3'> +1.0021226e-05 </wgt>
<wgt id='morphing_basis_vector_4'> +7.1311404e-06 </wgt>
<wgt id='morphing_basis_vector_5'> +1.1487932e-05 </wgt>
</rwgt>
</event>
<event>
 4      1 +7.6845000e-11 4.78664900e+03 7.81860800e-03 7.41457900e-02
        2 -1    0    0  501    0 +0.0000000000e+00 +0.0000000000e+00 +2.9177847051e+03 2.9177847051e+03 0.0000000000e+00 0.0000e+00 -1.0000e+00
       -2 -1    0    0    0  501 -0.0000000000e+00 -0.0000000000e+00 -1.9631335342e+03 1.9631335342e+03 0.0000000000e+00 0.0000e+00 1.0000e+00
      -13  1    1    2    0    0 +1.6593972179e+03 -1.4129290616e+03 -5.3110689296e+02 2.2432213871e+03 0.0000000000e+00 0.0000e+00 1.0000e+00
       13  1    1    2    0    0 -1.6593972179e+03 +1.4129290616e+03 +1.4857580639e+03 2.6376968522e+03 0.0000000000e+00 0.0000e+00 -1.0000e+00
<mgrwt>
<rscale>  0 0.47866485E+04</rscale>
<asrwt>0</asrwt>
<pdfrwt beam="1">  1        2 0.44888995E+00 0.47866485E+04</pdfrwt>
<pdfrwt beam="2">  1       -2 0.30202054E+00 0.47866485E+04</pdfrwt>
<totfact> 0.40911481E-02</totfact>
</mgrwt>
<rwgt>
<wgt id='morphing_basis_vector_1'> +5.5030636e-06 </wgt>
<wgt id='morphing_basis_vector_2'> +3.8207496e-06 </wgt>
<wgt id='morphing_basis_vector_3'> +6.0778846e-06 </wgt>
<wgt id='morphing_basis_vector_4'> +4.2670072e-06 </wgt>
<wgt id='morphing_basis_vector_5'> +6.9244134e-06 </wgt>
</rwgt>
</event>
<event>
 4      1 +7.6845000e-11 4.70018900e+03 7.81860800e-03 7.42720000e-02
        2 -1    0    0  501    0 +0.0000000000e+00 +0.0000000000e+00 +2.5486224810e+03 2.5486224810e+03 0.0000000000e+00 0.0000e+00 1.0000e+00
       -2 -1    0    0    0  501 -0.0000000000e+00 -0.0000000000e+00 -2.1670306893e+03 2.1670306893e+03 0.0000000000e+00 0.0000e+00 -1.0000e+00
      -13  1    1    2    0    0 -9.6890661852e+02 +5.4167447197e+02 -1.8874324991e+03 2.1896558423e+03 0.0000000000e+00 0.0000e+00 -1.0000e+00
       13  1    1    2    0    0 +9.6890661852e+02 -5.4167447197e+02 +2.2690242908e+03 2.5259973280e+03 0.0000000000e+00 0.0000e+00 1.0000e+00
<mgrwt>
<rscale>  0 0.47001886E+04</rscale>
<asrwt>0</asrwt>
<pdfrwt beam="1">  1        2 0.39209576E+00 0.47001886E+04</pdfrwt>
<pdfrwt beam="2">  1       -2 0.33338934E+00 0.47001886E+04</pdfrwt>
<totfact> 0.43171689E-02</totfact>
</mgrwt>
<rwgt>
<wgt id='morphing_basis_vector_1'> +5.0831605e-06 </wgt>
<wgt id='morphing_basis_vector_2'> +3.4517111e-06 </wgt>
<wgt id='morphing_basis_vector_3'> +5.5950490e-06 </wgt>
<wgt id='morphing_basis_vector_4'> +4.0389428e-06 </wgt>
<wgt id='morphing_basis_vector_5'> +6.4419675e-06 </wgt>
</rwgt>
</event>
<event>
 4      1 +7.6845000e-11 4.97277500e+03 7.81860800e-03 7.38829500e-02
        2 -1    0    0  501    0 +0.0000000000e+00 +0.0000000000e+00 +3.4488085998e+03 3.4488085998e+03 0.0000000000e+00 0.0000e+00 1.0000e+00
       -2 -1    0    0    0  501 -0.0000000000e+00 -0.0000000000e+00 -1.7925386404e+03 1.7925386404e+03 0.0000000000e+00 0.0000e+00 -1.0000e+00
      -13  1    1    2    0    0 -1.6111669494e+03 -1.8773756473e+03 +1.0899970715e+03 2.7034222525e+03 0.0000000000e+00 0.0000e+00 1.0000e+00
       13  1    1    2    0    0 +1.6111669494e+03 +1.8773756473e+03 +5.6627288785e+02 2.5379249877e+03 0.0000000000e+00 0.0000e+00 -1.0000e+00
<mgrwt>
<rscale>  0 0.49727750E+04</rscale>
<asrwt>0</asrwt>
<pdfrwt beam="1">  1        2 0.53058594E+00 0.49727750E+04</pdfrwt>
<pdfrwt beam="2">  1       -2 0.27577518E+00 0.49727750E+04</pdfrwt>
<totfact> 0.26450269E-02</totfact>
</mgrwt>
<rwgt>
<wgt id='morphing_basis_vector_1'> +6.6962925e-06 </wgt>
<wgt id='morphing_basis_vector_2'> +5.2996110e-06 </wgt>
<wgt id='morphing_basis_vector_3'> +7.5492425e-06 </wgt>
<wgt id='morphing_basis_vector_4'> +4.3562655e-06 </wgt>
<wgt id='morphing_basis_vector_5'> +8.0182954e-06 </wgt>
</rwgt>
</event>
<event>
 4      1 +7.6845000e-11 4.95010600e+03 7.81860800e-03 7.39143400e-02
        2 -1    0    0  501    0 +0.0000000000e+00 +0.0000000000e+00 +2.9673917170e+03 2.9673917170e+03 0.0000000000e+00 0.0000e+00 -1.0000e+00
       -2 -1    0    0    0  501 -0.0000000000e+00 -0.0000000000e+00 -2.0644009159e+03 2.0644009159e+03 0.0000000000e+00 0.0000e+00 1.0000e+00
      -13  1    1    2    0    0 +1.1076364561e+03 -1.3568503973e+03 -1.3260713937e+03 2.1968993743e+03 0.0000000000e+00 0.0000e+00 1.0000e+00
       13  1    1    2    0    0 -1.1076364561e+03 +1.3568503973e+03 +2.2290621948e+03 2.8348932587e+03 0.0000000000e+00 0.0000e+00 -1.0000e+00
<mgrwt>
<rscale>  0 0.49501055E+04</rscale>
<asrwt>0</asrwt>
<pdfrwt beam="1">  1        2 0.45652180E+00 0.49501055E+04</pdfrwt>
<pdfrwt beam="2">  1       -2 0.31760014E+00 0.49501055E+04</pdfrwt>
<totfact> 0.29517968E-02</totfact>
</mgrwt>
<rwgt>
<wgt id='morphing_basis_vector_1'> +6.2555418e-06 </wgt>
<wgt id='morphing_basis_vector_2'> +4.2643991e-06 </wgt>
<wgt id='morphing_basis_vector_3'> +6.8935881e-06 </wgt>
<wgt id='morphing_basis_vector_4'> +4.9585093e-06 </wgt>
<wgt id='morphing_basis_vector_5'> +7.9297311e-06 </wgt>
</rwgt>
</event>
<event>
 4      1 +7.6845000e-11 5.07938300e+03 7.81860800e-03 7.37376100e-02
        2 -1    0    0  501    0 +0.0000000000e+00 +0.0000000000e+00 +3.6917173795e+03 3.6917173795e+03 0.0000000000e+00 0.0000e+00 -1.0000e+00
       -2 -1    0    0    0  501 -0.0000000000e+00 -0.0000000000e+00 -1.7471629142e+03 1.7471629142e+03 0.0000000000e+00 0.0000e+00 1.0000e+00
      -13  1    1    2    0    0 +9.8856653568e+02 +9.8253315882e+02 -1.3010474195e+03 1.9066618975e+03 0.0000000000e+00 0.0000e+00 1.0000e+00
       13  1    1    2    0    0 -9.8856653568e+02 -9.8253315882e+02 +3.2456018848e+03 3.5322183961e+03 0.0000000000e+00 0.0000e+00 -1.0000e+00
<mgrwt>
<rscale>  0 0.50793825E+04</rscale>
<asrwt>0</asrwt>
<pdfrwt beam="1">  1        2 0.56795652E+00 0.50793825E+04</pdfrwt>
<pdfrwt beam="2">  1       -2 0.26879430E+00 0.50793825E+04</pdfrwt>
<totfact> 0.19267335E-02</totfact>
</mgrwt>
<rwgt>
<wgt id='morphing_basis_vector_1'> +6.9266490e-06 </wgt>
<wgt id='morphing_basis_vector_2'> +4.7091371e-06 </wgt>
<wgt id='morphing_basis_vector_3'> +7.6323846e-06 </wgt>
<wgt id='morphing_basis_vector_4'> +5.5118554e-06 </wgt>
<wgt id='morphing_basis_vector_5'> +8.7950680e-06 </wgt>
</rwgt>
</event>
<event>
 4      1 +7.6845000e-11 4.96888400e+03 7.81860800e-03 7.38883300e-02
        2 -1    0    0  501    0 +0.0000000000e+00 +0.0000000000e+00 +3.5570359575e+03 3.5570359575e+03 0.0000000000e+00 0.0000e+00 1.0000e+00
       -2 -1    0    0    0  501 -0.0000000000e+00 -0.0000000000e+00 -1.7352796731e+03 1.7352796731e+03 0.0000000000e+00 0.0000e+00 -1.0000e+00
      -13  1    1    2    0    0 -1.9614027760e+03 -1.4361985590e+03 +3.6498888628e+02 2.4582481644e+03 0.0000000000e+00 0.0000e+00 -1.0000e+00
       13  1    1    2    0    0 +1.9614027760e+03 +1.4361985590e+03 +1.4567673981e+03 2.8340674662e+03 0.0000000000e+00 0.0000e+00 1.0000e+00
<mgrwt>
<rscale>  0 0.49688841E+04</rscale>
<asrwt>0</asrwt>
<pdfrwt beam="1">  1        2 0.54723630E+00 0.49688841E+04</pdfrwt>
<pdfrwt beam="2">  1       -2 0.26696610E+00 0.49688841E+04</pdfrwt>
<totfact> 0.25318245E-02</totfact>
</mgrwt>
<rwgt>
<wgt id='morphing_basis_vector_1'> +6.4501451e-06 </wgt>
<wgt id='morphing_basis_vector_2'> +4.6214772e-06 </wgt>
<wgt id='morphing_basis_vector_3'> +7.1601328e-06 </wgt>
<wgt id='morphing_basis_vector_4'> +4.8225365e-06 </wgt>
<wgt id='morphing_basis_vector_5'> +8.0333781e-06 </wgt>
</rwgt>
</event>
<event>
 4      1 +7.6845000e-11 5.24512600e+03 7.81860800e-03 7.35187600e-02
        2 -1    0    0  501    0 +0.0000000000e+00 +0.0000000000e+00 +2.0612941302e+03 2.0612941302e+03 0.0000000000e+00 0.0000e+00 -1.0000e+00
       -2 -1    0    0    0  501 -0.0000000000e+00 -0.0000000000e+00 -3.3366591713e+03 3.3366591713e+03 0.0000000000e+00 0.0000e+00 1.0000e+00
      -13  1    1    2    0    0 -1.3032948943e+03 -1.2859368949e+03 -2.5700568510e+03 3.1555353740e+03 0.0000000000e+00 0.0000e+00 1.0000e+00
       13  1    1    2    0    0 +1.3032948943e+03 +1.2859368949e+03 +1.2946918099e+03 2.2424179275e+03 0.0000000000e+00 0.0000e+00 -1.0000e+00
<mgrwt>
<rscale>  0 0.52451257E+04</rscale>
<asrwt>0</asrwt>
<pdfrwt beam="1">  1        2 0.31712218E+00 0.52451257E+04</pdfrwt>
<pdfrwt beam="2">  1       -2 0.51333218E+00 0.52451257E+04</pdfrwt>
<totfact> 0.46544132E-03</totfact>
</mgrwt>
<rwgt>
<wgt id='morphing_basis_vector_1'> +7.8790528e-06 </wgt>
<wgt id='morphing_basis_vector_2'> +5.3719575e-06 </wgt>
<wgt id='morphing_basis_vector_3'> +8.6882969e-06 </wgt>
<wgt id='morphing_basis_vector_4'> +6.2563332e-06 </wgt>
<wgt id='morphing_basis_vector_5'> +1.0003150e-05 </wgt>
</rwgt>
</event>
<event>
 4      1 +7.6845000e-11 4.97338200e+03 7.81860800e-03 7.38821200e-02
        2 -1    0    0  501    0 +0.0000000000e+00 +0.0000000000e+00 +2.4530573876e+03 2.4530573876e+03 0.0000000000e+00 0.0000e+00 1.0000e+00
       -2 -1    0    0    0  501 -0.0000000000e+00 -0.0000000000e+00 -2.5207854624e+03 2.5207854624e+03 0.0000000000e+00 0.0000e+00 -1.0000e+00
      -13  1    1    2    0    0 -1.5791938444e+03 +1.6247537532e+03 -1.0586314068e+03 2.5008755291e+03 0.0000000000e+00 0.0000e+00 -1.0000e+00
       13  1    1    2    0    0 +1.5791938444e+03 -1.6247537532e+03 +9.9090333202e+02 2.4729673209e+03 0.0000000000e+00 0.0000e+00 1.0000e+00
<mgrwt>
<rscale>  0 0.49733817E+04</rscale>
<asrwt>0</asrwt>
<pdfrwt beam="1">  1        2 0.37739344E+00 0.49733817E+04</pdfrwt>
<pdfrwt beam="2">  1       -2 0.38781315E+00 0.49733817E+04</pdfrwt>
<totfact> 0.21418277E-02</totfact>
</mgrwt>
<rwgt>
<wgt id='morphing_basis_vector_1'> +6.4102161e-06 </wgt>
<wgt id='morphing_basis_vector_2'> +4.4524994e-06 </wgt>
<wgt id='morphing_basis_vector_3'> +7.0834913e-06 </wgt>
<wgt id='morphing_basis_vector_4'> +4.9747946e-06 </wgt>
<wgt id='morphing_basis_vector_5'> +8.0738892e-06 </wgt>
</rwgt>
</event>
<event>
 4      1 +7.6845000e-11 4.78711300e+03 7.81860800e-03 7.41451200e-02
        2 -1    0    0  501    0 +0.0000000000e+00 +0.0000000000e+00 +2.0382257803e+03 2.0382257803e+03 0.0000000000e+00 0.0000e+00 -1.0000e+00
       -2 -1    0    0    0  501 -0.0000000000e+00 -0.0000000000e+00 -2.8108337895e+03 2.8108337895e+03 0.0000000000e+00 0.0000e+00 1.0000e+00
      -13  1    1    2    0    0 +1.5395979672e+03 -1.7524543334e+03 +1.5697180220e+02 2.3379688274e+03 0.0000000000e+00 0.0000e+00 1.0000e+00
       13  1    1    2    0    0 -1.5395979672e+03 +1.7524543334e+03 -9.2957981133e+02 2.5110907424e+03 0.0000000000e+00 0.0000e+00 -1.0000e+00
<mgrwt>
<rscale>  0 0.47871135E+04</rscale>
<asrwt>0</asrwt>
<pdfrwt beam="1">  1        2 0.31357320E+00 0.47871135E+04</pdfrwt>
<pdfrwt beam="2">  1       -2 0.43243597E+00 0.47871135E+04</pdfrwt>
<totfact> 0.19149938E-02</totfact>
</mgrwt>
<rwgt>
<wgt id='morphing_basis_vector_1'> +5.9037363e-06 </wgt>
<wgt id='morphing_basis_vector_2'> +4.9927922e-06 </wgt>
<wgt id='morphing_basis_vector_3'> +6.7258247e-06 </wgt>
<wgt id='morphing_basis_vector_4'> +3.4205021e-06 </wgt>
<wgt id='morphing_basis_vector_5'> +6.8560814e-06 </wgt>
</rwgt>
</event>
<event>
 4      1 +7.6845000e-11 5.22251400e+03 7.81860800e-03 7.35481200e-02
        2 -1    0    0  501    0 +0.0000000000e+00 +0.0000000000e+00 +2.5576892429e+03 2.5576892429e+03 0.0000000000e+00 0.0000e+00 -1.0000e+00
       -2 -1    0    0    0  501 -0.0000000000e+00 -0.0000000000e+00 -2.6659465409e+03 2.6659465409e+03 0.0000000000e+00 0.0000e+00 1.0000e+00
      -13  1    1    2    0    0 -4.6012422728e+02 -3.2195618277e+02 -2.6048319051e+03 2.6646799699e+03 0.0000000000e+00 0.0000e+00 1.0000e+00
       13  1    1    2    0    0 +4.6012422728e+02 +3.2195618277e+02 +2.4965746072e+03 2.5589558138e+03 0.0000000000e+00 0.0000e+00 -1.0000e+00
<mgrwt>
<rscale>  0 0.52225139E+04</rscale>
<asrwt>0</asrwt>
<pdfrwt beam="1">  1        2 0.39349065E+00 0.52225139E+04</pdfrwt>
<pdfrwt beam="2">  1       -2 0.41014562E+00 0.52225139E+04</pdfrwt>
<totfact> 0.13005738E-02</totfact>
</mgrwt>
<rwgt>
<wgt id='morphing_basis_vector_1'> +7.7358721e-06 </wgt>
<wgt id='morphing_basis_vector_2'> +5.2548026e-06 </wgt>
<wgt id='morphing_basis_vector_3'> +8.5255036e-06 </wgt>
<wgt id='morphing_basis_vector_4'> +6.1671687e-06 </wgt>
<wgt id='morphing_basis_vector_5'> +9.8328131e-06 </wgt>
</rwgt>
</event>
<event>
 4      1 +7.6845000e-11 4.89884700e+03 7.81860800e-03 7.39859500e-02
        2 -1    0    0  501    0 +0.0000000000e+00 +0.0000000000e+00 +2.2346041065e+03 2.2346041065e+03 0.0000000000e+00 0.0000e+00 -1.0000e+00
       -2 -1    0    0    0  501 -0.0000000000e+00 -0.0000000000e+00 -2.6848939623e+03 2.6848939623e+03 0.0000000000e+00 0.0000e+00 1.0000e+00
      -13  1    1    2    0    0 -5.8659033957e+02 -2.3233851684e+03 -7.3469719401e+02 2.5063892025e+03 0.0000000000e+00 0.0000e+00 1.0000e+00
       13  1    1    2    0    0 +5.8659033957e+02 +2.3233851684e+03 +2.8440733821e+02 2.4131088664e+03 0.0000000000e+00 0.0000e+00 -1.0000e+00
<mgrwt>
<rscale>  0 0.48988468E+04</rscale>
<asrwt>0</asrwt>
<pdfrwt beam="1">  1        2 0.34378525E+00 0.48988468E+04</pdfrwt>
<pdfrwt beam="2">  1       -2 0.41306061E+00 0.48988468E+04</pdfrwt>
<totfact> 0.19758788E-02</totfact>
</mgrwt>
<rwgt>
<wgt id='morphing_basis_vector_1'> +6.0949159e-06 </wgt>
<wgt id='morphing_basis_vector_2'> +4.3657201e-06 </wgt>
<wgt id='morphing_basis_vector_3'> +6.7643461e-06 </wgt>
<wgt id='morphing_basis_vector_4'> +4.5562584e-06 </wgt>
<wgt id='morphing_basis_vector_5'> +7.5886021e-06 </wgt>
</rwgt>
</event>
<event>
 4      1 +7.6845000e-11 5.12332200e+03 7.81860800e-03 7.36787600e-02
        2 -1    0    0  501    0 +0.0000000000e+00 +0.0000000000e+00 +3.2430002468e+03 3.2430002468e+03 0.0000000000e+00 0.0000e+00 1.0000e+00
       -2 -1    0    0    0  501 -0.0000000000e+00 -0.0000000000e+00 -2.0234679815e+03 2.0234679815e+03 0.0000000000e+00 0.0000e+00 -1.0000e+00
      -13  1    1    2    0    0 +1.5288954382e+03 +1.1197769359e+03 -1.1619582133e+03 2.2229639081e+03 0.0000000000e+00 0.0000e+00 -1.0000e+00
       13  1    1    2    0    0 -1.5288954382e+03 -1.1197769359e+03 +2.3814904786e+03 3.0435043202e+03 0.0000000000e+00 0.0000e+00 1.0000e+00
<mgrwt>
<rscale>  0 0.51233220E+04</rscale>
<asrwt>0</asrwt>
<pdfrwt beam="1">  1        2 0.49892311E+00 0.51233220E+04</pdfrwt>
<pdfrwt beam="2">  1       -2 0.31130277E+00 0.51233220E+04</pdfrwt>
<totfact> 0.21013863E-02</totfact>
</mgrwt>
<rwgt>
<wgt id='morphing_basis_vector_1'> +7.1774932e-06 </wgt>
<wgt id='morphing_basis_vector_2'> +4.8998968e-06 </wgt>
<wgt id='morphing_basis_vector_3'> +7.9141971e-06 </wgt>
<wgt id='morphing_basis_vector_4'> +5.6868511e-06 </wgt>
<wgt id='morphing_basis_vector_5'> +9.1027474e-06 </wgt>
</rwgt>
</event>
<event>
 4      1 +7.6845000e-11 4.75233700e+03 7.81860800e-03 7.41955600e-02
        2 -1    0    0  501    0 +0.0000000000e+00 +0.0000000000e+00 +4.4057171690e+03 4.4057171690e+03 0.0000000000e+00 0.0000e+00 -1.0000e+00
       -2 -1    0    0    0  501 -0.0000000000e+00 -0.0000000000e+00 -1.2815567349e+03 1.2815567349e+03 0.0000000000e+00 0.0000e+00 1.0000e+00
      -13  1    1    2    0    0 -1.0518774501e+03 +3.9286468732e+02 -9.4403434259e+02 1.4669661457e+03 0.0000000000e+00 0.0000e+00 1.0000e+00
       13  1    1    2    0    0 +1.0518774501e+03 -3.9286468732e+02 +4.0681947768e+03 4.2203077582e+03 0.0000000000e+00 0.0000e+00 -1.0000e+00
<mgrwt>
<rscale>  0 0.47523369E+04</rscale>
<asrwt>0</asrwt>
<pdfrwt beam="1">  1        2 0.67780263E+00 0.47523369E+04</pdfrwt>
<pdfrwt beam="2">  1       -2 0.19716258E+00 0.47523369E+04</pdfrwt>
<totfact> 0.15016756E-02</totfact>
</mgrwt>
<rwgt>
<wgt id='morphing_basis_vector_1'> +5.3116718e-06 </wgt>
<wgt id='morphing_basis_vector_2'> +3.6072400e-06 </wgt>
<wgt id='morphing_basis_vector_3'> +5.8474584e-06 </wgt>
<wgt id='morphing_basis_vector_4'> +4.2218382e-06 </wgt>
<wgt id='morphing_basis_vector_5'> +6.7337088e-06 </wgt>
</rwgt>
</event>
<event>
 4      1 +7.6845000e-11 5.17650300e+03 7.81860800e-03 7.36083500e-02
        2 -1    0    0  501    0 +0.0000000000e+00 +0.0000000000e+00 +3.0054699051e+03 3.0054699051e+03 0.0000000000e+00 0.0000e+00 -1.0000e+00
       -2 -1    0    0    0  501 -0.0000000000e+00 -0.0000000000e+00 -2.2289508400e+03 2.2289508400e+03 0.0000000000e+00 0.0000e+00 1.0000e+00
      -13  1    1    2    0    0 +1.6544113444e+03 +1.7648028144e+03 -5.4260475266e+02 2.4791179455e+03 0.0000000000e+00 0.0000e+00 1.0000e+00
       13  1    1    2    0    0 -1.6544113444e+03 -1.7648028144e+03 +1.3191238178e+03 2.7553027995e+03 0.0000000000e+00 0.0000e+00 -1.0000e+00
<mgrwt>
<rscale>  0 0.51765026E+04</rscale>
<asrwt>0</asrwt>
<pdfrwt beam="1">  1        2 0.46237999E+00 0.51765026E+04</pdfrwt>
<pdfrwt beam="2">  1       -2 0.34291551E+00 0.51765026E+04</pdfrwt>
<totfact> 0.18659352E-02</totfact>
</mgrwt>
<rwgt>
<wgt id='morphing_basis_vector_1'> +7.5348586e-06 </wgt>
<wgt id='morphing_basis_vector_2'> +5.2696454e-06 </wgt>
<wgt id='morphing_basis_vector_3'> +8.3382974e-06 </wgt>
<wgt id='morphing_basis_vector_4'> +5.8087367e-06 </wgt>
<wgt id='morphing_basis_vector_5'> +9.4778390e-06 </wgt>
</rwgt>
</event>
<event>
 4      1 +7.6845000e-11 4.83411800e+03 7.81860800e-03 7.40776300e-02
        2 -1    0    0  501    0 +0.0000000000e+00 +0.0000000000e+00 +2.3493118005e+03 2.3493118005e+03 0.0000000000e+00 0.0000e+00 1.0000e+00
       -2 -1    0    0    0  501 -0.0000000000e+00 -0.0000000000e+00 -2.4867602975e+03 2.4867602975e+03 0.0000000000e+00 0.0000e+00 -1.0000e+00
      -13  1    1    2    0    0 +3.7737015325e+02 +1.2979679113e+03 +1.9358436069e+03 2.3610631930e+03 0.0000000000e+00 0.0000e+00 1.0000e+00
       13  1    1    2    0    0 -3.7737015325e+02 -1.2979679113e+03 -2.0732921039e+03 2.4750089049e+03 0.0000000000e+00 0.0000e+00 -1.0000e+00
<mgrwt>
<rscale>  0 0.48341185E+04</rscale>
<asrwt>0</asrwt>
<pdfrwt beam="1">  1        2 0.36143259E+00 0.48341185E+04</pdfrwt>
<pdfrwt beam="2">  1       -2 0.38257851E+00 0.48341185E+04</pdfrwt>
<totfact> 0.26936622E-02</totfact>
</mgrwt>
<rwgt>
<wgt id='morphing_basis_vector_1'> +7.6383387e-06 </wgt>
<wgt id='morphing_basis_vector_2'> +9.5972750e-06 </wgt>
<wgt id='morphing_basis_vector_3'> +9.4250982e-06 </wgt>
<wgt id='morphing_basis_vector_4'> +3.6385776e-07 </wgt>
<wgt id='morphing_basis_vector_5'> +6.8627850e-06 </wgt>
</rwgt>
</event>
<event>
 4      1 +7.6845000e-11 4.83770500e+03 7.81860800e-03 7.40725100e-02
        2 -1    0    0  501    0 +0.0000000000e+00 +0.0000000000e+00 +2.6964410626e+03 2.6964410626e+03 0.0000000000e+00 0.0000e+00 -1.0000e+00
       -2 -1    0    0    0  501 -0.0000000000e+00 -0.0000000000e+00 -2.1698407532e+03 2.1698407532e+03 0.0000000000e+00 0.0000e+00 1.0000e+00
      -13  1    1    2    0    0 +1.1883679275e+03 -6.9128346633e+01 -1.8548092742e+03 2.2039316013e+03 0.0000000000e+00 0.0000e+00 1.0000e+00
       13  1    1    2    0    0 -1.1883679275e+03 +6.9128346633e+01 +2.3814095837e+03 2.6623502145e+03 0.0000000000e+00 0.0000e+00 -1.0000e+00
<mgrwt>
<rscale>  0 0.48377051E+04</rscale>
<asrwt>0</asrwt>
<pdfrwt beam="1">  1        2 0.41483709E+00 0.48377051E+04</pdfrwt>
<pdfrwt beam="2">  1       -2 0.33382165E+00 0.48377051E+04</pdfrwt>
<totfact> 0.34491662E-02</totfact>
</mgrwt>
<rwgt>
<wgt id='morphing_basis_vector_1'> +5.7024801e-06 </wgt>
<wgt id='morphing_basis_vector_2'> +3.8736674e-06 </wgt>
<wgt id='morphing_basis_vector_3'> +6.2792763e-06 </wgt>
<wgt id='morphing_basis_vector_4'> +4.5341518e-06 </wgt>
<wgt id='morphing_basis_vector_5'> +7.2324875e-06 </wgt>
</rwgt>
</event>
<event>
 4      1 +7.6845000e-11 5.07433000e+03 7.81860800e-03 7.37444100e-02
        2 -1    0    0  501    0 +0.0000000000e+00 +0.0000000000e+00 +2.3222912855e+03 2.3222912855e+03 0.0000000000e+00 0.0000e+00 1.0000e+00
       -2 -1    0    0    0  501 -0.0000000000e+00 -0.0000000000e+00 -2.7719199671e+03 2.7719199671e+03 0.0000000000e+00 0.0000e+00 -1.0000e+00
      -13  1    1    2    0    0 -1.5935203807e+03 +1.2636863587e+03 -1.7476608030e+03 2.6815161195e+03 0.0000000000e+00 0.0000e+00 -1.0000e+00
       13  1    1    2    0    0 +1.5935203807e+03 -1.2636863587e+03 +1.2980321215e+03 2.4126951331e+03 0.0000000000e+00 0.0000e+00 1.0000e+00
<mgrwt>
<rscale>  0 0.50743297E+04</rscale>
<asrwt>0</asrwt>
<pdfrwt beam="1">  1        2 0.35727558E+00 0.50743297E+04</pdfrwt>
<pdfrwt beam="2">  1       -2 0.42644922E+00 0.50743297E+04</pdfrwt>
<totfact> 0.14132673E-02</totfact>
</mgrwt>
<rwgt>
<wgt id='morphing_basis_vector_1'> +6.9146942e-06 </wgt>
<wgt id='morphing_basis_vector_2'> +4.7359020e-06 </wgt>
<wgt id='morphing_basis_vector_3'> +7.6271993e-06 </wgt>
<wgt id='morphing_basis_vector_4'> +5.4568993e-06 </wgt>
<wgt id='morphing_basis_vector_5'> +8.7572503e-06 </wgt>
</rwgt>
</event>
<event>
 4      1 +7.6845000e-11 5.04429700e+03 7.81860800e-03 7.37850400e-02
        2 -1    0    0  501    0 +0.0000000000e+00 +0.0000000000e+00 +2.2239354914e+03 2.2239354914e+03 0.0000000000e+00 0.0000e+00 1.0000e+00
       -2 -1    0    0    0  501 -0.0000000000e+00 -0.0000000000e+00 -2.8603496770e+03 2.8603496770e+03 0.0000000000e+00 0.0000e+00 -1.0000e+00
      -13  1    1    2    0    0 +5.5794932959e+02 -1.4666644867e+03 -2.3084033099e+03 2.7912610075e+03 0.0000000000e+00 0.0000e+00 -1.0000e+00
       13  1    1    2    0    0 -5.5794932959e+02 +1.4666644867e+03 +1.6719891243e+03 2.2930241609e+03 0.0000000000e+00 0.0000e+00 1.0000e+00
<mgrwt>
<rscale>  0 0.50442970E+04</rscale>
<asrwt>0</asrwt>
<pdfrwt beam="1">  1        2 0.34214392E+00 0.50442970E+04</pdfrwt>
<pdfrwt beam="2">  1       -2 0.44005379E+00 0.50442970E+04</pdfrwt>
<totfact> 0.13064370E-02</totfact>
</mgrwt>
<rwgt>
<wgt id='morphing_basis_vector_1'> +6.7397202e-06 </wgt>
<wgt id='morphing_basis_vector_2'> +4.5860470e-06 </wgt>
<wgt id='morphing_basis_vector_3'> +7.4267737e-06 </wgt>
<wgt id='morphing_basis_vector_4'> +5.3566798e-06 </wgt>
<wgt id='morphing_basis_vector_5'> +8.5534993e-06 </wgt>
</rwgt>
</event>
<event>
 4      1 +7.6845000e-11 5.20094400e+03 7.81860800e-03 7.35762800e-02
        2 -1    0    0  501    0 +0.0000000000e+00 +0.0000000000e+00 +4.6170032501e+03 4.6170032501e+03 0.0000000000e+00 0.0000e+00 -1.0000e+00
       -2 -1    0    0    0  501 -0.0000000000e+00 -0.0000000000e+00 -1.4646847950e+03 1.4646847950e+03 0.0000000000e+00 0.0000e+00 1.0000e+00
      -13  1    1    2    0    0 +2.4454185914e+03 -6.0482252710e+02 +8.2143716164e+02 2.6496492951e+03 0.0000000000e+00 0.0000e+00 1.0000e+00
       13  1    1    2    0    0 -2.4454185914e+03 +6.0482252710e+02 +2.3308812936e+03 3.4320387500e+03 0.0000000000e+00 0.0000e+00 -1.0000e+00
<mgrwt>
<rscale>  0 0.52009439E+04</rscale>
<asrwt>0</asrwt>
<pdfrwt beam="1">  1        2 0.71030819E+00 0.52009439E+04</pdfrwt>
<pdfrwt beam="2">  1       -2 0.22533612E+00 0.52009439E+04</pdfrwt>
<totfact> 0.54803408E-03</totfact>
</mgrwt>
<rwgt>
<wgt id='morphing_basis_vector_1'> +7.7176716e-06 </wgt>
<wgt id='morphing_basis_vector_2'> +5.4870135e-06 </wgt>
<wgt id='morphing_basis_vector_3'> +8.5617879e-06 </wgt>
<wgt id='morphing_basis_vector_4'> +5.8343658e-06 </wgt>
<wgt id='morphing_basis_vector_5'> +9.6515012e-06 </wgt>
</rwgt>
</event>
<event>
 4      1 +7.6845000e-11 5.51731400e+03 7.81860800e-03 7.31767400e-02
        2 -1    0    0  501    0 +0.0000000000e+00 +0.0000000000e+00 +2.3277008060e+03 2.3277008060e+03 0.0000000000e+00 0.0000e+00 1.0000e+00
       -2 -1    0    0    0  501 -0.0000000000e+00 -0.0000000000e+00 -3.2694015034e+03 3.2694015034e+03 0.0000000000e+00 0.0000e+00 -1.0000e+00
      -13  1    1    2    0    0 -6.7963897864e+02 -9.7324851722e+02 +2.0553555423e+03 2.3735223241e+03 0.0000000000e+00 0.0000e+00 1.0000e+00
       13  1    1    2    0    0 +6.7963897864e+02 +9.7324851722e+02 -2.9970562397e+03 3.2235799853e+03 0.0000000000e+00 0.0000e+00 -1.0000e+00
<mgrwt>
<rscale>  0 0.55173140E+04</rscale>
<asrwt>0</asrwt>
<pdfrwt beam="1">  1        2 0.35810782E+00 0.55173140E+04</pdfrwt>
<pdfrwt beam="2">  1       -2 0.50298485E+00 0.55173140E+04</pdfrwt>
<totfact> 0.38361184E-03</totfact>
</mgrwt>
<rwgt>
<wgt id='morphing_basis_vector_1'> +1.3120165e-05 </wgt>
<wgt id='morphing_basis_vector_2'> +1.6790208e-05 </wgt>
<wgt id='morphing_basis_vector_3'> +1.6303510e-05 </wgt>
<wgt id='morphing_basis_vector_4'> +2.3306315e-07 </wgt>
<wgt id='morphing_basis_vector_5'> +1.1629480e-05 </wgt>
</rwgt>
</event>
<event>
 4      1 +7.6845000e-11 4.85154200e+03 7.81860800e-03 7.40528100e-02
        2 -1    0    0  501    0 +0.0000000000e+00 +0.0000000000e+00 +2.7699915782e+03 2.7699915782e+03 0.0000000000e+00 0.0000e+00 -1.0000e+00
       -2 -1    0    0    0  501 -0.0000000000e+00 -0.0000000000e+00 -2.1243259871e+03 2.1243259871e+03 0.0000000000e+00 0.0000e+00 1.0000e+00
      -13  1    1    2    0    0 -1.6521490126e+03 -9.1921525562e+02 +1.8560393425e+03 2.6494216514e+03 0.0000000000e+00 0.0000e+00 -1.0000e+00
       13  1    1    2    0    0 +1.6521490126e+03 +9.1921525562e+02 -1.2103737514e+03 2.2448959139e+03 0.0000000000e+00 0.0000e+00 1.0000e+00
<mgrwt>
<rscale>  0 0.48515421E+04</rscale>
<asrwt>0</asrwt>
<pdfrwt beam="1">  1        2 0.42615255E+00 0.48515421E+04</pdfrwt>
<pdfrwt beam="2">  1       -2 0.32681938E+00 0.48515421E+04</pdfrwt>
<totfact> 0.34497821E-02</totfact>
</mgrwt>
<rwgt>
<wgt id='morphing_basis_vector_1'> +7.2133932e-06 </wgt>
<wgt id='morphing_basis_vector_2'> +8.1638599e-06 </wgt>
<wgt id='morphing_basis_vector_3'> +8.6944618e-06 </wgt>
<wgt id='morphing_basis_vector_4'> +1.5087306e-06 </wgt>
<wgt id='morphing_basis_vector_5'> +7.0580404e-06 </wgt>
</rwgt>
</event>
<event>
 4      1 +7.6845000e-11 5.05714500e+03 7.81860800e-03 7.37676200e-02
        2 -1    0    0  501    0 +0.0000000000e+00 +0.0000000000e+00 +3.6696766381e+03 3.6696766381e+03 0.0000000000e+00 0.0000e+00 -1.0000e+00
       -2 -1    0    0    0  501 -0.0000000000e+00 -0.0000000000e+00 -1.7423000417e+03 1.7423000417e+03 0.0000000000e+00 0.0000e+00 1.0000e+00
      -13  1    1    2    0    0 -1.7043060602e+03 -1.0080470184e+03 -7.1918065373e+02 2.1066653153e+03 0.0000000000e+00 0.0000e+00 1.0000e+00
       13  1    1    2    0    0 +1.7043060602e+03 +1.0080470184e+03 +2.6465572502e+03 3.3053113645e+03 0.0000000000e+00 0.0000e+00 -1.0000e+00
<mgrwt>
<rscale>  0 0.50571446E+04</rscale>
<asrwt>0</asrwt>
<pdfrwt beam="1">  1        2 0.56456563E+00 0.50571446E+04</pdfrwt>
<pdfrwt beam="2">  1       -2 0.26804616E+00 0.50571446E+04</pdfrwt>
<totfact> 0.20309275E-02</totfact>
</mgrwt>
<rwgt>
<wgt id='morphing_basis_vector_1'> +6.8193257e-06 </wgt>
<wgt id='morphing_basis_vector_2'> +4.6649055e-06 </wgt>
<wgt id='morphing_basis_vector_3'> +7.5204116e-06 </wgt>
<wgt id='morphing_basis_vector_4'> +5.3883900e-06 </wgt>
<wgt id='morphing_basis_vector_5'> +8.6392983e-06 </wgt>
</rwgt>
</event>
<event>
 4      1 +7.6845000e-11 5.32612100e+03 7.81860800e-03 7.34148000e-02
        2 -1    0    0  501    0 +0.0000000000e+00 +0.0000000000e+00 +2.5211198712e+03 2.5211198712e+03 0.0000000000e+00 0.0000e+00 -1.0000e+00
       -2 -1    0    0    0  501 -0.0000000000e+00 -0.0000000000e+00 -2.8129926973e+03 2.8129926973e+03 0.0000000000e+00 0.0000e+00 1.0000e+00
      -13  1    1    2    0    0 -1.9743283831e+03 -1.0306123360e+03 -1.6081810057e+03 2.7470676181e+03 0.0000000000e+00 0.0000e+00 1.0000e+00
       13  1    1    2    0    0 +1.9743283831e+03 +1.0306123360e+03 +1.3163081796e+03 2.5870449503e+03 0.0000000000e+00 0.0000e+00 -1.0000e+00
<mgrwt>
<rscale>  0 0.53261212E+04</rscale>
<asrwt>0</asrwt>
<pdfrwt beam="1">  1        2 0.38786460E+00 0.53261212E+04</pdfrwt>
<pdfrwt beam="2">  1       -2 0.43276811E+00 0.53261212E+04</pdfrwt>
<totfact> 0.95959985E-03</totfact>
</mgrwt>
<rwgt>
<wgt id='morphing_basis_vector_1'> +8.3951038e-06 </wgt>
<wgt id='morphing_basis_vector_2'> +5.7683771e-06 </wgt>
<wgt id='morphing_basis_vector_3'> +9.2691281e-06 </wgt>
<wgt id='morphing_basis_vector_4'> +6.6113430e-06 </wgt>
<wgt id='morphing_basis_vector_5'> +1.0633843e-05 </wgt>
</rwgt>
</event>
<event>
 4      1 +7.6845000e-11 5.34686100e+03 7.81860800e-03 7.33884900e-02
        2 -1    0    0  501    0 +0.0000000000e+00 +0.0000000000e+00 +2.7656138989e+03 2.7656138989e+03 0.0000000000e+00 0.0000e+00 1.0000e+00
       -2 -1    0    0    0  501 -0.0000000000e+00 -0.0000000000e+00 -2.5843196563e+03 2.5843196563e+03 0.0000000000e+00 0.0000e+00 -1.0000e+00
      -13  1    1    2    0    0 -1.5611928003e+03 +9.9104077022e+02 +2.0224937097e+03 2.7404316400e+03 0.0000000000e+00 0.0000e+00 1.0000e+00
       13  1    1    2    0    0 +1.5611928003e+03 -9.9104077022e+02 -1.8411994671e+03 2.6095019152e+03 0.0000000000e+00 0.0000e+00 -1.0000e+00
<mgrwt>
<rscale>  0 0.53468609E+04</rscale>
<asrwt>0</asrwt>
<pdfrwt beam="1">  1        2 0.42547906E+00 0.53468609E+04</pdfrwt>
<pdfrwt beam="2">  1       -2 0.39758764E+00 0.53468609E+04</pdfrwt>
<totfact> 0.11612456E-02</totfact>
</mgrwt>
<rwgt>
<wgt id='morphing_basis_vector_1'> +1.1047101e-05 </wgt>
<wgt id='morphing_basis_vector_2'> +1.3260018e-05 </wgt>
<wgt id='morphing_basis_vector_3'> +1.3515591e-05 </wgt>
<wgt id='morphing_basis_vector_4'> +1.3353105e-06 </wgt>
<wgt id='morphing_basis_vector_5'> +1.0349285e-05 </wgt>
</rwgt>
</event>
<event>
 4      1 +7.6845000e-11 5.02433900e+03 7.81860800e-03 7.38121900e-02
        2 -1    0    0  501    0 +0.0000000000e+00 +0.0000000000e+00 +3.0733599913e+03 3.0733599913e+03 0.0000000000e+00 0.0000e+00 1.0000e+00
       -2 -1    0    0    0  501 -0.0000000000e+00 -0.0000000000e+00 -2.0534516222e+03 2.0534516222e+03 0.0000000000e+00 0.0000e+00 -1.0000e+00
      -13  1    1    2    0    0 -1.2520686744e+03 +1.4185724377e+03 -1.1763156052e+03 2.2279457196e+03 0.0000000000e+00 0.0000e+00 -1.0000e+00
       13  1    1    2    0    0 +1.2520686744e+03 -1.4185724377e+03 +2.1962239743e+03 2.8988658940e+03 0.0000000000e+00 0.0000e+00 1.0000e+00
<mgrwt>
<rscale>  0 0.50243392E+04</rscale>
<asrwt>0</asrwt>
<pdfrwt beam="1">  1        2 0.47282461E+00 0.50243392E+04</pdfrwt>
<pdfrwt beam="2">  1       -2 0.31591563E+00 0.50243392E+04</pdfrwt>
<totfact> 0.25669602E-02</totfact>
</mgrwt>
<rwgt>
<wgt id='morphing_basis_vector_1'> +6.6415056e-06 </wgt>
<wgt id='morphing_basis_vector_2'> +4.5359440e-06 </wgt>
<wgt id='morphing_basis_vector_3'> +7.3220922e-06 </wgt>
<wgt id='morphing_basis_vector_4'> +5.2562192e-06 </wgt>
<wgt id='morphing_basis_vector_5'> +8.4171790e-06 </wgt>
</rwgt>
</event>
<event>
 4      1 +7.6845000e-11 4.78818900e+03 7.81860800e-03 7.41435700e-02
        2 -1    0    0  501    0 +0.0000000000e+00 +0.0000000000e+00 +2.8823982034e+03 2.8823982034e+03 0.0000000000e+00 0.0000e+00 1.0000e+00
       -2 -1    0    0    0  501 -0.0000000000e+00 -0.0000000000e+00 -1.9885137083e+03 1.9885137083e+03 0.0000000000e+00 0.0000e+00 -1.0000e+00
      -13  1    1    2    0    0 -9.1020291130e+02 +3.3585777347e+02 -1.7795732718e+03 2.0268573737e+03 0.0000000000e+00 0.0000e+00 -1.0000e+00
       13  1    1    2    0    0 +9.1020291130e+02 -3.3585777347e+02 +2.6734577669e+03 2.8440545380e+03 0.0000000000e+00 0.0000e+00 1.0000e+00
<mgrwt>
<rscale>  0 0.47881889E+04</rscale>
<asrwt>0</asrwt>
<pdfrwt beam="1">  1        2 0.44344588E+00 0.47881889E+04</pdfrwt>
<pdfrwt beam="2">  1       -2 0.30592518E+00 0.47881889E+04</pdfrwt>
<totfact> 0.40570004E-02</totfact>
</mgrwt>
<rwgt>
<wgt id='morphing_basis_vector_1'> +5.4727471e-06 </wgt>
<wgt id='morphing_basis_vector_2'> +3.7158784e-06 </wgt>
<wgt id='morphing_basis_vector_3'> +6.0251628e-06 </wgt>
<wgt id='morphing_basis_vector_4'> +4.3520699e-06 </wgt>
<wgt id='morphing_basis_vector_5'> +6.9400242e-06 </wgt>
</rwgt>
</event>
<event>
 4      1 +7.6845000e-11 5.00263900e+03 7.81860800e-03 7.38418600e-02
        2 -1    0    0  501    0 +0.0000000000e+00 +0.0000000000e+00 +2.1802956142e+03 2.1802956142e+03 0.0000000000e+00 0.0000e+00 -1.0000e+00
       -2 -1    0    0    0  501 -0.0000000000e+00 -0.0000000000e+00 -2.8696106827e+03 2.8696106827e+03 0.0000000000e+00 0.0000e+00 1.0000e+00
      -13  1    1    2    0    0 -1.0419432256e+03 -1.9464903495e+03 +8.4209035381e+02 2.3629613899e+03 0.0000000000e+00 0.0000e+00 1.0000e+00
       13  1    1    2    0    0 +1.0419432256e+03 +1.9464903495e+03 -1.5314054222e+03 2.6869449070e+03 0.0000000000e+00 0.0000e+00 -1.0000e+00
<mgrwt>
<rscale>  0 0.50026391E+04</rscale>
<asrwt>0</asrwt>
<pdfrwt beam="1">  1        2 0.33543010E+00 0.50026391E+04</pdfrwt>
<pdfrwt beam="2">  1       -2 0.44147857E+00 0.50026391E+04</pdfrwt>
<totfact> 0.13575121E-02</totfact>
</mgrwt>
<rwgt>
<wgt id='morphing_basis_vector_1'> +7.6254935e-06 </wgt>
<wgt id='morphing_basis_vector_2'> +7.6815149e-06 </wgt>
<wgt id='morphing_basis_vector_3'> +8.9777145e-06 </wgt>
<wgt id='morphing_basis_vector_4'> +2.8270143e-06 </wgt>
<wgt id='morphing_basis_vector_5'> +8.0761922e-06 </wgt>
</rwgt>
</event>
<event>
 4      1 +7.6845000e-11 4.65831600e+03 7.81860800e-03 7.43341100e-02
        2 -1    0    0  501    0 +0.0000000000e+00 +0.0000000000e+00 +2.4798955238e+03 2.4798955238e+03 0.0000000000e+00 0.0000e+00 1.0000e+00
       -2 -1    0    0    0  501 -0.0000000000e+00 -0.0000000000e+00 -2.1875824777e+03 2.1875824777e+03 0.0000000000e+00 0.0000e+00 -1.0000e+00
      -13  1    1    2    0    0 -2.3259842235e+03 +1.0047831953e+02 +7.7629796127e+01 2.3294473348e+03 0.0000000000e+00 0.0000e+00 -1.0000e+00
       13  1    1    2    0    0 +2.3259842235e+03 -1.0047831953e+02 +2.1468324999e+02 2.3380306667e+03 0.0000000000e+00 0.0000e+00 1.0000e+00
<mgrwt>
<rscale>  0 0.46583156E+04</rscale>
<asrwt>0</asrwt>
<pdfrwt beam="1">  1        2 0.38152239E+00 0.46583156E+04</pdfrwt>
<pdfrwt beam="2">  1       -2 0.33655115E+00 0.46583156E+04</pdfrwt>
<totfact> 0.45388640E-02</totfact>
</mgrwt>
<rwgt>
<wgt id='morphing_basis_vector_1'> +5.0665496e-06 </wgt>
<wgt id='morphing_basis_vector_2'> +3.8048025e-06 </wgt>
<wgt id='morphing_basis_vector_3'> +5.6595899e-06 </wgt>
<wgt id='morphing_basis_vector_4'> +3.5530814e-06 </wgt>
<wgt id='morphing_basis_vector_5'> +6.1859149e-06 </wgt>
</rwgt>
</event>
<event>
 4      1 +7.6845000e-11 5.19864500e+03 7.81860800e-03 7.35792900e-02
        2 -1    0    0  501    0 +0.0000000000e+00 +0.0000000000e+00 +1.8695574078e+03 1.8695574078e+03 0.0000000000e+00 0.0000e+00 1.0000e+00
       -2 -1    0    0    0  501 -0.0000000000e+00 -0.0000000000e+00 -3.6139444020e+03 3.6139444020e+03 0.0000000000e+00 0.0000e+00 -1.0000e+00
      -13  1    1    2    0    0 -2.0697096024e+03 -1.2145810429e+02 -2.5259103418e+03 3.2678238882e+03 0.0000000000e+00 0.0000e+00 -1.0000e+00
       13  1    1    2    0    0 +2.0697096024e+03 +1.2145810429e+02 +7.8152334771e+02 2.2156779216e+03 0.0000000000e+00 0.0000e+00 1.0000e+00
<mgrwt>
<rscale>  0 0.51986446E+04</rscale>
<asrwt>0</asrwt>
<pdfrwt beam="1">  1        2 0.28762422E+00 0.51986446E+04</pdfrwt>
<pdfrwt beam="2">  1       -2 0.55599144E+00 0.51986446E+04</pdfrwt>
<totfact> 0.29252344E-03</totfact>
</mgrwt>
<rwgt>
<wgt id='morphing_basis_vector_1'> +7.6146832e-06 </wgt>
<wgt id='morphing_basis_vector_2'> +5.2148503e-06 </wgt>
<wgt id='morphing_basis_vector_3'> +8.4013730e-06 </wgt>
<wgt id='morphing_basis_vector_4'> +6.0146757e-06 </wgt>
<wgt id='morphing_basis_vector_5'> +9.6503910e-06 </wgt>
</rwgt>
</event>
<event>
 4      1 +7.6845000e-11 4.75701100e+03 7.81860800e-03 7.41887500e-02
        2 -1    0    0  501    0 +0.0000000000e+00 +0.0000000000e+00 +1.4218184911e+03 1.4218184911e+03 0.0000000000e+00 0.0000e+00 1.0000e+00
       -2 -1    0    0    0  501 -0.0000000000e+00 -0.0000000000e+00 -3.9789102733e+03 3.9789102733e+03 0.0000000000e+00 0.0000e+00 -1.0000e+00
      -13  1    1    2    0    0 +1.7045392107e+02 -1.7357228519e+03 -3.1146426683e+03 3.5697040927e+03 0.0000000000e+00 0.0000e+00 -1.0000e+00
       13  1    1    2    0    0 -1.7045392107e+02 +1.7357228519e+03 +5.5755088604e+02 1.8310246717e+03 0.0000000000e+00 0.0000e+00 1.0000e+00
<mgrwt>
<rscale>  0 0.47570109E+04</rscale>
<asrwt>0</asrwt>
<pdfrwt beam="1">  1        2 0.21874131E+00 0.47570109E+04</pdfrwt>
<pdfrwt beam="2">  1       -2 0.61214003E+00 0.47570109E+04</pdfrwt>
<totfact> 0.18286303E-03</totfact>
</mgrwt>
<rwgt>
<wgt id='morphing_basis_vector_1'> +5.3395312e-06 </wgt>
<wgt id='morphing_basis_vector_2'> +3.6420161e-06 </wgt>
<wgt id='morphing_basis_vector_3'> +5.8818402e-06 </wgt>
<wgt id='morphing_basis_vector_4'> +4.2236167e-06 </wgt>
<wgt id='morphing_basis_vector_5'> +6.7590834e-06 </wgt>
</rwgt>
</event>
<event>
 4      1 +7.6845000e-11 4.95410300e+03 7.81860800e-03 7.39088000e-02
        2 -1    0    0  501    0 +0.0000000000e+00 +0.0000000000e+00 +1.9024408830e+03 1.9024408830e+03 0.0000000000e+00 0.0000e+00 -1.0000e+00
       -2 -1    0    0    0  501 -0.0000000000e+00 -0.0000000000e+00 -3.2252162183e+03 3.2252162183e+03 0.0000000000e+00 0.0000e+00 1.0000e+00
      -13  1    1    2    0    0 +9.0067373475e+02 +2.3074281879e+03 -6.8061732161e+02 2.5687892006e+03 0.0000000000e+00 0.0000e+00 1.0000e+00
       13  1    1    2    0    0 -9.0067373475e+02 -2.3074281879e+03 -6.4215801371e+02 2.5588679007e+03 0.0000000000e+00 0.0000e+00 -1.0000e+00
<mgrwt>
<rscale>  0 0.49541026E+04</rscale>
<asrwt>0</asrwt>
<pdfrwt beam="1">  1        2 0.29268322E+00 0.49541026E+04</pdfrwt>
<pdfrwt beam="2">  1       -2 0.49618710E+00 0.49541026E+04</pdfrwt>
<totfact> 0.78613640E-03</totfact>
</mgrwt>
<rwgt>
<wgt id='morphing_basis_vector_1'> +6.4927038e-06 </wgt>
<wgt id='morphing_basis_vector_2'> +4.9154491e-06 </wgt>
<wgt id='morphing_basis_vector_3'> +7.2678978e-06 </wgt>
<wgt id='morphing_basis_vector_4'> +4.5123456e-06 </wgt>
<wgt id='morphing_basis_vector_5'> +7.9167143e-06 </wgt>
</rwgt>
</event>
<event>
 4      1 +7.6845000e-11 4.63683400e+03 7.81860800e-03 7.43662300e-02
        2 -1    0    0  501    0 +0.0000000000e+00 +0.0000000000e+00 +2.8642099245e+03 2.8642099245e+03 0.0000000000e+00 0.0000e+00 1.0000e+00
       -2 -1    0    0    0  501 -0.0000000000e+00 -0.0000000000e+00 -1.8766280442e+03 1.8766280442e+03 0.0000000000e+00 0.0000e+00 -1.0000e+00
      -13  1    1    2    0    0 +2.1932091646e+02 +2.2787872182e+03 +1.1940306284e+02 2.2924288303e+03 0.0000000000e+00 0.0000e+00 -1.0000e+00
       13  1    1    2    0    0 -2.1932091646e+02 -2.2787872182e+03 +8.6817881741e+02 2.4484091385e+03 0.0000000000e+00 0.0000e+00 1.0000e+00
<mgrwt>
<rscale>  0 0.46368337E+04</rscale>
<asrwt>0</asrwt>
<pdfrwt beam="1">  1        2 0.44064768E+00 0.46368337E+04</pdfrwt>
<pdfrwt beam="2">  1       -2 0.28871201E+00 0.46368337E+04</pdfrwt>
<totfact> 0.55078328E-02</totfact>
</mgrwt>
<rwgt>
<wgt id='morphing_basis_vector_1'> +4.9130819e-06 </wgt>
<wgt id='morphing_basis_vector_2'> +3.5560380e-06 </wgt>
<wgt id='morphing_basis_vector_3'> +5.4572262e-06 </wgt>
<wgt id='morphing_basis_vector_4'> +3.6174690e-06 </wgt>
<wgt id='morphing_basis_vector_5'> +6.0830412e-06 </wgt>
</rwgt>
</event>
<event>
 4      1 +7.6845000e-11 4.64760200e+03 7.81860800e-03 7.43501100e-02
        2 -1    0    0  501    0 +0.0000000000e+00 +0.0000000000e+00 +3.7820683095e+03 3.7820683095e+03 0.0000000000e+00 0.0000e+00 -1.0000e+00
       -2 -1    0    0    0  501 -0.0000000000e+00 -0.0000000000e+00 -1.4278036187e+03 1.4278036187e+03 0.0000000000e+00 0.0000e+00 1.0000e+00
      -13  1    1    2    0    0 -1.0788578918e+03 +1.8020056467e+03 +6.2394910640e+01 2.1012024715e+03 0.0000000000e+00 0.0000e+00 1.0000e+00
       13  1    1    2    0    0 +1.0788578918e+03 -1.8020056467e+03 +2.2918697802e+03 3.1086694566e+03 0.0000000000e+00 0.0000e+00 -1.0000e+00
<mgrwt>
<rscale>  0 0.46476019E+04</rscale>
<asrwt>0</asrwt>
<pdfrwt beam="1">  1        2 0.58185666E+00 0.46476019E+04</pdfrwt>
<pdfrwt beam="2">  1       -2 0.21966210E+00 0.46476019E+04</pdfrwt>
<totfact> 0.37161301E-02</totfact>
</mgrwt>
<rwgt>
<wgt id='morphing_basis_vector_1'> +4.8908082e-06 </wgt>
<wgt id='morphing_basis_vector_2'> +3.3896863e-06 </wgt>
<wgt id='morphing_basis_vector_3'> +5.3982609e-06 </wgt>
<wgt id='morphing_basis_vector_4'> +3.7956831e-06 </wgt>
<wgt id='morphing_basis_vector_5'> +6.1520359e-06 </wgt>
</rwgt>
</event>
<event>
 4      1 +7.6845000e-11 4.67064400e+03 7.81860800e-03 7.43157600e-02
        2 -1    0    0  501    0 +0.0000000000e+00 +0.0000000000e+00 +1.8321742206e+03 1.8321742206e+03 0.0000000000e+00 0.0000e+00 -1.0000e+00
       -2 -1    0    0    0  501 -0.0000000000e+00 -0.0000000000e+00 -2.9766431604e+03 2.9766431604e+03 0.0000000000e+00 0.0000e+00 1.0000e+00
      -13  1    1    2    0    0 -6.6042011919e+02 -1.7333958931e+03 +8.8850915334e+02 2.0567606987e+03 0.0000000000e+00 0.0000e+00 -1.0000e+00
       13  1    1    2    0    0 +6.6042011919e+02 +1.7333958931e+03 -2.0329780931e+03 2.7520566824e+03 0.0000000000e+00 0.0000e+00 1.0000e+00
<mgrwt>
<rscale>  0 0.46706440E+04</rscale>
<asrwt>0</asrwt>
<pdfrwt beam="1">  1        2 0.28187296E+00 0.46706440E+04</pdfrwt>
<pdfrwt beam="2">  1       -2 0.45794510E+00 0.46706440E+04</pdfrwt>
<totfact> 0.16799531E-02</totfact>
</mgrwt>
<rwgt>
<wgt id='morphing_basis_vector_1'> +6.1491312e-06 </wgt>
<wgt id='morphing_basis_vector_2'> +6.8675372e-06 </wgt>
<wgt id='morphing_basis_vector_3'> +7.3846219e-06 </wgt>
<wgt id='morphing_basis_vector_4'> +1.4027777e-06 </wgt>
<wgt id='morphing_basis_vector_5'> +6.0687535e-06 </wgt>
</rwgt>
</event>
<event>
 4      1 +7.6845000e-11 4.90241200e+03 7.81860800e-03 7.39809400e-02
        2 -1    0    0  501    0 +0.0000000000e+00 +0.0000000000e+00 +1.8197092921e+03 1.8197092921e+03 0.0000000000e+00 0.0000e+00 1.0000e+00
       -2 -1    0    0    0  501 -0.0000000000e+00 -0.0000000000e+00 -3.3018524028e+03 3.3018524028e+03 0.0000000000e+00 0.0000e+00 -1.0000e+00
      -13  1    1    2    0    0 -5.9546471794e+02 -2.1205612482e+03 -1.8648203890e+03 2.8859856758e+03 0.0000000000e+00 0.0000e+00 -1.0000e+00
       13  1    1    2    0    0 +5.9546471794e+02 +2.1205612482e+03 +3.8267727828e+02 2.2355760191e+03 0.0000000000e+00 0.0000e+00 1.0000e+00
<mgrwt>
<rscale>  0 0.49024123E+04</rscale>
<asrwt>0</asrwt>
<pdfrwt beam="1">  1        2 0.27995528E+00 0.49024123E+04</pdfrwt>
<pdfrwt beam="2">  1       -2 0.50797729E+00 0.49024123E+04</pdfrwt>
<totfact> 0.71580505E-03</totfact>
</mgrwt>
<rwgt>
<wgt id='morphing_basis_vector_1'> +6.0482163e-06 </wgt>
<wgt id='morphing_basis_vector_2'> +4.1892845e-06 </wgt>
<wgt id='morphing_basis_vector_3'> +6.6796309e-06 </wgt>
<wgt id='morphing_basis_vector_4'> +4.7067290e-06 </wgt>
<wgt id='morphing_basis_vector_5'> +7.6222836e-06 </wgt>
</rwgt>
</event>
<event>
 4      1 +7.6845000e-11 4.87010300e+03 7.81860800e-03 7.40264900e-02
        2 -1    0    0  501    0 +0.0000000000e+00 +0.0000000000e+00 +2.4791650590e+03 2.4791650590e+03 0.0000000000e+00 0.0000e+00 1.0000e+00
       -2 -1    0    0    0  501 -0.0000000000e+00 -0.0000000000e+00 -2.3917225255e+03 2.3917225255e+03 0.0000000000e+00 0.0000e+00 -1.0000e+00
      -13  1    1    2    0    0 +3.7153042107e+02 -3.6028949970e+02 +2.4235230947e+03 2.4781661704e+03 0.0000000000e+00 0.0000e+00 1.0000e+00
       13  1    1    2    0    0 -3.7153042107e+02 +3.6028949970e+02 -2.3360805612e+03 2.3927214142e+03 0.0000000000e+00 0.0000e+00 -1.0000e+00
<mgrwt>
<rscale>  0 0.48701026E+04</rscale>
<asrwt>0</asrwt>
<pdfrwt beam="1">  1        2 0.38141001E+00 0.48701026E+04</pdfrwt>
<pdfrwt beam="2">  1       -2 0.36795731E+00 0.48701026E+04</pdfrwt>
<totfact> 0.27979167E-02</totfact>
</mgrwt>
<rwgt>
<wgt id='morphing_basis_vector_1'> +8.0246045e-06 </wgt>
<wgt id='morphing_basis_vector_2'> +1.0346693e-05 </wgt>
<wgt id='morphing_basis_vector_3'> +9.9641956e-06 </wgt>
<wgt id='morphing_basis_vector_4'> +4.0350406e-08 </wgt>
<wgt id='morphing_basis_vector_5'> +7.0420388e-06 </wgt>
</rwgt>
</event>
<event>
 4      1 +7.6845000e-11 4.77563900e+03 7.81860800e-03 7.41617100e-02
        2 -1    0    0  501    0 +0.0000000000e+00 +0.0000000000e+00 +3.5462770234e+03 3.5462770234e+03 0.0000000000e+00 0.0000e+00 -1.0000e+00
       -2 -1    0    0    0  501 -0.0000000000e+00 -0.0000000000e+00 -1.6077938804e+03 1.6077938804e+03 0.0000000000e+00 0.0000e+00 1.0000e+00
      -13  1    1    2    0    0 +1.0018719895e+03 -9.3052718084e+02 -1.1434431844e+03 1.7824395175e+03 0.0000000000e+00 0.0000e+00 1.0000e+00
       13  1    1    2    0    0 -1.0018719895e+03 +9.3052718084e+02 +3.0819263274e+03 3.3716313863e+03 0.0000000000e+00 0.0000e+00 -1.0000e+00
<mgrwt>
<rscale>  0 0.47756392E+04</rscale>
<asrwt>0</asrwt>
<pdfrwt beam="1">  1        2 0.54558108E+00 0.47756392E+04</pdfrwt>
<pdfrwt beam="2">  1       -2 0.24735291E+00 0.47756392E+04</pdfrwt>
<totfact> 0.35732063E-02</totfact>
</mgrwt>
<rwgt>
<wgt id='morphing_basis_vector_1'> +5.4175232e-06 </wgt>
<wgt id='morphing_basis_vector_2'> +3.6821881e-06 </wgt>
<wgt id='morphing_basis_vector_3'> +5.9650485e-06 </wgt>
<wgt id='morphing_basis_vector_4'> +4.3028036e-06 </wgt>
<wgt id='morphing_basis_vector_5'> +6.8669942e-06 </wgt>
</rwgt>
</event>
<event>
 4      1 +7.6845000e-11 5.02503000e+03 7.81860800e-03 7.38112500e-02
        2 -1    0    0  501    0 +0.0000000000e+00 +0.0000000000e+00 +2.6785523569e+03 2.6785523569e+03 0.0000000000e+00 0.0000e+00 1.0000e+00
       -2 -1    0    0    0  501 -0.0000000000e+00 -0.0000000000e+00 -2.3567698679e+03 2.3567698679e+03 0.0000000000e+00 0.0000e+00 -1.0000e+00
      -13  1    1    2    0    0 +6.6500256219e+02 +7.3023088339e+01 -2.2658805679e+03 2.3625781526e+03 0.0000000000e+00 0.0000e+00 -1.0000e+00
       13  1    1    2    0    0 -6.6500256219e+02 -7.3023088339e+01 +2.5876630569e+03 2.6727440722e+03 0.0000000000e+00 0.0000e+00 1.0000e+00
<mgrwt>
<rscale>  0 0.50250299E+04</rscale>
<asrwt>0</asrwt>
<pdfrwt beam="1">  1        2 0.41208498E+00 0.50250299E+04</pdfrwt>
<pdfrwt beam="2">  1       -2 0.36257998E+00 0.50250299E+04</pdfrwt>
<totfact> 0.22681936E-02</totfact>
</mgrwt>
<rwgt>
<wgt id='morphing_basis_vector_1'> +6.6337446e-06 </wgt>
<wgt id='morphing_basis_vector_2'> +4.5049518e-06 </wgt>
<wgt id='morphing_basis_vector_3'> +7.3076114e-06 </wgt>
<wgt id='morphing_basis_vector_4'> +5.2834169e-06 </wgt>
<wgt id='morphing_basis_vector_5'> +8.4238604e-06 </wgt>
</rwgt>
</event>
<event>
 4      1 +7.6845000e-11 4.70381500e+03 7.81860800e-03 7.42666600e-02
        2 -1    0    0  501    0 +0.0000000000e+00 +0.0000000000e+00 +3.3365457595e+03 3.3365457595e+03 0.0000000000e+00 0.0000e+00 -1.0000e+00
       -2 -1    0    0    0  501 -0.0000000000e+00 -0.0000000000e+00 -1.6578430974e+03 1.6578430974e+03 0.0000000000e+00 0.0000e+00 1.0000e+00
      -13  1    1    2    0    0 -1.0548872387e+03 +9.9522288810e+02 -1.1265695848e+03 1.8364135462e+03 0.0000000000e+00 0.0000e+00 1.0000e+00
       13  1    1    2    0    0 +1.0548872387e+03 -9.9522288810e+02 +2.8052722469e+03 3.1579753107e+03 0.0000000000e+00 0.0000e+00 -1.0000e+00
<mgrwt>
<rscale>  0 0.47038152E+04</rscale>
<asrwt>0</asrwt>
<pdfrwt beam="1">  1        2 0.51331473E+00 0.47038152E+04</pdfrwt>
<pdfrwt beam="2">  1       -2 0.25505279E+00 0.47038152E+04</pdfrwt>
<totfact> 0.45042841E-02</totfact>
</mgrwt>
<rwgt>
<wgt id='morphing_basis_vector_1'> +5.1009283e-06 </wgt>
<wgt id='morphing_basis_vector_2'> +3.4685869e-06 </wgt>
<wgt id='morphing_basis_vector_3'> +5.6157638e-06 </wgt>
<wgt id='morphing_basis_vector_4'> +4.0469582e-06 </wgt>
<wgt id='morphing_basis_vector_5'> +6.4615670e-06 </wgt>
</rwgt>
</event>
<event>
 4      1 +7.6845000e-11 4.79465900e+03 7.81860800e-03 7.41342400e-02
        2 -1    0    0  501    0 +0.0000000000e+00 +0.0000000000e+00 +3.3057876033e+03 3.3057876033e+03 0.0000000000e+00 0.0000e+00 1.0000e+00
       -2 -1    0    0    0  501 -0.0000000000e+00 -0.0000000000e+00 -1.7385232489e+03 1.7385232489e+03 0.0000000000e+00 0.0000e+00 -1.0000e+00
      -13  1    1    2    0    0 -6.6767501634e+01 +1.7746231409e+03 -9.1063738831e+02 1.9957468889e+03 0.0000000000e+00 0.0000e+00 -1.0000e+00
       13  1    1    2    0    0 +6.6767501634e+01 -1.7746231409e+03 +2.4779017427e+03 3.0485639633e+03 0.0000000000e+00 0.0000e+00 1.0000e+00
<mgrwt>
<rscale>  0 0.47946589E+04</rscale>
<asrwt>0</asrwt>
<pdfrwt beam="1">  1        2 0.50858271E+00 0.47946589E+04</pdfrwt>
<pdfrwt beam="2">  1       -2 0.26746512E+00 0.47946589E+04</pdfrwt>
<totfact> 0.38623162E-02</totfact>
</mgrwt>
<rwgt>
<wgt id='morphing_basis_vector_1'> +5.5104588e-06 </wgt>
<wgt id='morphing_basis_vector_2'> +3.7599946e-06 </wgt>
<wgt id='morphing_basis_vector_3'> +6.0710350e-06 </wgt>
<wgt id='morphing_basis_vector_4'> +4.3583150e-06 </wgt>
<wgt id='morphing_basis_vector_5'> +6.9762834e-06 </wgt>
</rwgt>
</event>
<event>
 4      1 +7.6845000e-11 5.10707200e+03 7.81860800e-03 7.37004500e-02
        2 -1    0    0  501    0 +0.0000000000e+00 +0.0000000000e+00 +2.6712370464e+03 2.6712370464e+03 0.0000000000e+00 0.0000e+00 -1.0000e+00
       -2 -1    0    0    0  501 -0.0000000000e+00 -0.0000000000e+00 -2.4410215545e+03 2.4410215545e+03 0.0000000000e+00 0.0000e+00 1.0000e+00
      -13  1    1    2    0    0 +1.5026637237e+03 -9.7008192048e+02 -1.7092385197e+03 2.4739752457e+03 0.0000000000e+00 0.0000e+00 1.0000e+00
       13  1    1    2    0    0 -1.5026637237e+03 +9.7008192048e+02 +1.9394540116e+03 2.6382833552e+03 0.0000000000e+00 0.0000e+00 -1.0000e+00
<mgrwt>
<rscale>  0 0.51070724E+04</rscale>
<asrwt>0</asrwt>
<pdfrwt beam="1">  1        2 0.41095955E+00 0.51070724E+04</pdfrwt>
<pdfrwt beam="2">  1       -2 0.37554178E+00 0.51070724E+04</pdfrwt>
<totfact> 0.18796540E-02</totfact>
</mgrwt>
<rwgt>
<wgt id='morphing_basis_vector_1'> +7.0841800e-06 </wgt>
<wgt id='morphing_basis_vector_2'> +4.8293862e-06 </wgt>
<wgt id='morphing_basis_vector_3'> +7.8094650e-06 </wgt>
<wgt id='morphing_basis_vector_4'> +5.6211643e-06 </wgt>
<wgt id='morphing_basis_vector_5'> +8.9879962e-06 </wgt>
</rwgt>
</event>
<event>
 4      1 +7.6845000e-11 4.88660400e+03 7.81860800e-03 7.40031800e-02
        2 -1    0    0  501    0 +0.0000000000e+00 +0.0000000000e+00 +1.8871376980e+03 1.8871376980e+03 0.0000000000e+00 0.0000e+00 1.0000e+00
       -2 -1    0    0    0  501 -0.0000000000e+00 -0.0000000000e+00 -3.1633746017e+03 3.1633746017e+03 0.0000000000e+00 0.0000e+00 -1.0000e+00
      -13  1    1    2    0    0 -1.8405956473e+03 +2.9502374584e+02 -2.2706223084e+03 2.9377809679e+03 0.0000000000e+00 0.0000e+00 -1.0000e+00
       13  1    1    2    0    0 +1.8405956473e+03 -2.9502374584e+02 +9.9438540473e+02 2.1127313319e+03 0.0000000000e+00 0.0000e+00 1.0000e+00
<mgrwt>
<rscale>  0 0.48866035E+04</rscale>
<asrwt>0</asrwt>
<pdfrwt beam="1">  1        2 0.29032887E+00 0.48866035E+04</pdfrwt>
<pdfrwt beam="2">  1       -2 0.48667302E+00 0.48866035E+04</pdfrwt>
<totfact> 0.94966334E-03</totfact>
</mgrwt>
<rwgt>
<wgt id='morphing_basis_vector_1'> +5.9456886e-06 </wgt>
<wgt id='morphing_basis_vector_2'> +4.0617093e-06 </wgt>
<wgt id='morphing_basis_vector_3'> +6.5531195e-06 </wgt>
<wgt id='morphing_basis_vector_4'> +4.6996804e-06 </wgt>
<wgt id='morphing_basis_vector_5'> +7.5286069e-06 </wgt>
</rwgt>
</event>
<event>
 4      1 +7.6845000e-11 4.79870700e+03 7.81860800e-03 7.41284000e-02
        2 -1    0    0  501    0 +0.0000000000e+00 +0.0000000000e+00 +3.0759449041e+03 3.0759449041e+03 0.0000000000e+00 0.0000e+00 1.0000e+00
       -2 -1    0    0    0  501 -0.0000000000e+00 -0.0000000000e+00 -1.8715863643e+03 1.8715863643e+03 0.0000000000e+00 0.0000e+00 -1.0000e+00
      -13  1    1    2    0    0 -2.3561618858e+03 +4.5320818078e+02 +6.0241635250e+02 2.4738233463e+03 0.0000000000e+00 0.0000e+00 -1.0000e+00
       13  1    1    2    0    0 +2.3561618858e+03 -4.5320818078e+02 +6.0194218731e+02 2.4737079221e+03 0.0000000000e+00 0.0000e+00 1.0000e+00
<mgrwt>
<rscale>  0 0.47987067E+04</rscale>
<asrwt>0</asrwt>
<pdfrwt beam="1">  1        2 0.47322229E+00 0.47987067E+04</pdfrwt>
<pdfrwt beam="2">  1       -2 0.28793636E+00 0.47987067E+04</pdfrwt>
<totfact> 0.40128540E-02</totfact>
</mgrwt>
<rwgt>
<wgt id='morphing_basis_vector_1'> +5.7236054e-06 </wgt>
<wgt id='morphing_basis_vector_2'> +4.3441913e-06 </wgt>
<wgt id='morphing_basis_vector_3'> +6.4067842e-06 </wgt>
<wgt id='morphing_basis_vector_4'> +3.9589683e-06 </wgt>
<wgt id='morphing_basis_vector_5'> +6.9652682e-06 </wgt>
</rwgt>
</event>
<event>
 4      1 +7.6845000e-11 5.28575100e+03 7.81860800e-03 7.34663800e-02
        2 -1    0    0  501    0 +0.0000000000e+00 +0.0000000000e+00 +3.1798338079e+03 3.1798338079e+03 0.0000000000e+00 0.0000e+00 1.0000e+00
       -2 -1    0    0    0  501 -0.0000000000e+00 -0.0000000000e+00 -2.1965896926e+03 2.1965896926e+03 0.0000000000e+00 0.0000e+00 -1.0000e+00
      -13  1    1    2    0    0 +1.8646506125e+03 -8.9744508905e+02 -1.1804942268e+03 2.3824139468e+03 0.0000000000e+00 0.0000e+00 -1.0000e+00
       13  1    1    2    0    0 -1.8646506125e+03 +8.9744508905e+02 +2.1637383421e+03 2.9940095537e+03 0.0000000000e+00 0.0000e+00 1.0000e+00
<mgrwt>
<rscale>  0 0.52857507E+04</rscale>
<asrwt>0</asrwt>
<pdfrwt beam="1">  1        2 0.48920520E+00 0.52857507E+04</pdfrwt>
<pdfrwt beam="2">  1       -2 0.33793688E+00 0.52857507E+04</pdfrwt>
<totfact> 0.15272898E-02</totfact>
</mgrwt>
<rwgt>
<wgt id='morphing_basis_vector_1'> +8.1341066e-06 </wgt>
<wgt id='morphing_basis_vector_2'> +5.5660987e-06 </wgt>
<wgt id='morphing_basis_vector_3'> +8.9749456e-06 </wgt>
<wgt id='morphing_basis_vector_4'> +6.4341107e-06 </wgt>
<wgt id='morphing_basis_vector_5'> +1.0316004e-05 </wgt>
</rwgt>
</event>
<event>
 4      1 +7.6845000e-11 5.04594900e+03 7.81860800e-03 7.37827900e-02
        2 -1    0    0  501    0 +0.0000000000e+00 +0.0000000000e+00 +2.9248233165e+03 2.9248233165e+03 0.0000000000e+00 0.0000e+00 -1.0000e+00
       -2 -1    0    0    0  501 -0.0000000000e+00 -0.0000000000e+00 -2.1763363534e+03 2.1763363534e+03 0.0000000000e+00 0.0000e+00 1.0000e+00
      -13  1    1    2    0    0 -1.7009953746e+03 +1.0566592782e+03 -1.1773083447e+03 2.3229225198e+03 0.0000000000e+00 0.0000e+00 1.0000e+00
       13  1    1    2    0    0 +1.7009953746e+03 -1.0566592782e+03 +1.9257953078e+03 2.7782371501e+03 0.0000000000e+00 0.0000e+00 -1.0000e+00
<mgrwt>
<rscale>  0 0.50459486E+04</rscale>
<asrwt>0</asrwt>
<pdfrwt beam="1">  1        2 0.44997282E+00 0.50459486E+04</pdfrwt>
<pdfrwt beam="2">  1       -2 0.33482098E+00 0.50459486E+04</pdfrwt>
<totfact> 0.24016153E-02</totfact>
</mgrwt>
<rwgt>
<wgt id='morphing_basis_vector_1'> +6.7606820e-06 </wgt>
<wgt id='morphing_basis_vector_2'> +4.6277551e-06 </wgt>
<wgt id='morphing_basis_vector_3'> +7.4562425e-06 </wgt>
<wgt id='morphing_basis_vector_4'> +5.3378061e-06 </wgt>
<wgt id='morphing_basis_vector_5'> +8.5625689e-06 </wgt>
</rwgt>
</event>
<event>
 4      1 +7.6845000e-11 4.96838500e+03 7.81860800e-03 7.38890200e-02
        2 -1    0    0  501    0 +0.0000000000e+00 +0.0000000000e+00 +4.2803815289e+03 4.2803815289e+03 0.0000000000e+00 0.0000e+00 1.0000e+00
       -2 -1    0    0    0  501 -0.0000000000e+00 -0.0000000000e+00 -1.4417432716e+03 1.4417432716e+03 0.0000000000e+00 0.0000e+00 -1.0000e+00
      -13  1    1    2    0    0 -2.4584372065e+03 +2.2802532854e+02 +1.7353620114e+03 3.0178453173e+03 0.0000000000e+00 0.0000e+00 -1.0000e+00
       13  1    1    2    0    0 +2.4584372065e+03 -2.2802532854e+02 +1.1032762459e+03 2.7042794832e+03 0.0000000000e+00 0.0000e+00 1.0000e+00
<mgrwt>
<rscale>  0 0.49683846E+04</rscale>
<asrwt>0</asrwt>
<pdfrwt beam="1">  1        2 0.65852023E+00 0.49683846E+04</pdfrwt>
<pdfrwt beam="2">  1       -2 0.22180666E+00 0.49683846E+04</pdfrwt>
<totfact> 0.12978779E-02</totfact>
</mgrwt>
<rwgt>
<wgt id='morphing_basis_vector_1'> +6.6851062e-06 </wgt>
<wgt id='morphing_basis_vector_2'> +5.3172295e-06 </wgt>
<wgt id='morphing_basis_vector_3'> +7.5426501e-06 </wgt>
<wgt id='morphing_basis_vector_4'> +4.3145392e-06 </wgt>
<wgt id='morphing_basis_vector_5'> +7.9877208e-06 </wgt>
</rwgt>
</event>
<event>
 4      1 +7.6845000e-11 4.68996000e+03 7.81860800e-03 7.42871200e-02
        2 -1    0    0  501    0 +0.0000000000e+00 +0.0000000000e+00 +5.3402576486e+03 5.3402576486e+03 0.0000000000e+00 0.0000e+00 -1.0000e+00
       -2 -1    0    0    0  501 -0.0000000000e+00 -0.0000000000e+00 -1.0297126865e+03 1.0297126865e+03 0.0000000000e+00 0.0000e+00 1.0000e+00
      -13  1    1    2    0    0 +1.0628027712e+03 -1.5272155291e+03 +2.1678430197e+02 1.8732144662e+03 0.0000000000e+00 0.0000e+00 1.0000e+00
       13  1    1    2    0    0 -1.0628027712e+03 +1.5272155291e+03 +4.0937606601e+03 4.4967558690e+03 0.0000000000e+00 0.0000e+00 -1.0000e+00
<mgrwt>
<rscale>  0 0.46899599E+04</rscale>
<asrwt>0</asrwt>
<pdfrwt beam="1">  1        2 0.82157808E+00 0.46899599E+04</pdfrwt>
<pdfrwt beam="2">  1       -2 0.15841734E+00 0.46899599E+04</pdfrwt>
<totfact> 0.19454825E-03</totfact>
</mgrwt>
<rwgt>
<wgt id='morphing_basis_vector_1'> +5.0505076e-06 </wgt>
<wgt id='morphing_basis_vector_2'> +3.4549614e-06 </wgt>
<wgt id='morphing_basis_vector_3'> +5.5647830e-06 </wgt>
<wgt id='morphing_basis_vector_4'> +3.9797686e-06 </wgt>
<wgt id='morphing_basis_vector_5'> +6.3838640e-06 </wgt>
</rwgt>
</event>
<event>
 4      1 +7.6845000e-11 4.64280500e+03 7.81860800e-03 7.43572900e-02
        2 -1    0    0  501    0 +0.0000000000e+00 +0.0000000000e+00 +4.6849371063e+03 4.6849371063e+03 0.0000000000e+00 0.0000e+00 -1.0000e+00
       -2 -1    0    0    0  501 -0.0000000000e+00 -0.0000000000e+00 -1.1502630435e+03 1.1502630435e+03 0.0000000000e+00 0.0000e+00 1.0000e+00
      -13  1    1    2    0    0 +5.2354312939e+02 -1.8812427545e+03 +1.8966276477e+02 1.9619234629e+03 0.0000000000e+00 0.0000e+00 1.0000e+00
       13  1    1    2    0    0 -5.2354312939e+02 +1.8812427545e+03 +3.3450112980e+03 3.8732766869e+03 0.0000000000e+00 0.0000e+00 -1.0000e+00
<mgrwt>
<rscale>  0 0.46428052E+04</rscale>
<asrwt>0</asrwt>
<pdfrwt beam="1">  1        2 0.72075955E+00 0.46428052E+04</pdfrwt>
<pdfrwt beam="2">  1       -2 0.17696355E+00 0.46428052E+04</pdfrwt>
<totfact> 0.10882508E-02</totfact>
</mgrwt>
<rwgt>
<wgt id='morphing_basis_vector_1'> +4.8569395e-06 </wgt>
<wgt id='morphing_basis_vector_2'> +3.3352418e-06 </wgt>
<wgt id='morphing_basis_vector_3'> +5.3537140e-06 </wgt>
<wgt id='morphing_basis_vector_4'> +3.8092937e-06 </wgt>
<wgt id='morphing_basis_vector_5'> +6.1290378e-06 </wgt>
</rwgt>
</event>
<event>
 4      1 +7.6845000e-11 5.16966800e+03 7.81860800e-03 7.36173500e-02
        2 -1    0    0  501    0 +0.0000000000e+00 +0.0000000000e+00 +2.3430432036e+03 2.3430432036e+03 0.0000000000e+00 0.0000e+00 1.0000e+00
       -2 -1    0    0    0  501 -0.0000000000e+00 -0.0000000000e+00 -2.8515762216e+03 2.8515762216e+03 0.0000000000e+00 0.0000e+00 -1.0000e+00
      -13  1    1    2    0    0 -3.6244611443e+01 -2.4577755629e+03 -1.0577457536e+03 2.6759672025e+03 0.0000000000e+00 0.0000e+00 -1.0000e+00
       13  1    1    2    0    0 +3.6244611443e+01 +2.4577755629e+03 +5.4921273564e+02 2.5186522226e+03 0.0000000000e+00 0.0000e+00 1.0000e+00
<mgrwt>
<rscale>  0 0.51696678E+04</rscale>
<asrwt>0</asrwt>
<pdfrwt beam="1">  1        2 0.36046819E+00 0.51696678E+04</pdfrwt>
<pdfrwt beam="2">  1       -2 0.43870403E+00 0.51696678E+04</pdfrwt>
<totfact> 0.11276436E-02</totfact>
</mgrwt>
<rwgt>
<wgt id='morphing_basis_vector_1'> +7.5103044e-06 </wgt>
<wgt id='morphing_basis_vector_2'> +5.2860677e-06 </wgt>
<wgt id='morphing_basis_vector_3'> +8.3187908e-06 </wgt>
<wgt id='morphing_basis_vector_4'> +5.7459591e-06 </wgt>
<wgt id='morphing_basis_vector_5'> +9.4250443e-06 </wgt>
</rwgt>
</event>
<event>
 4      1 +7.6845000e-11 5.09872400e+03 7.81860800e-03 7.37116300e-02
        2 -1    0    0  501    0 +0.0000000000e+00 +0.0000000000e+00 +3.8905436624e+03 3.8905436624e+03 0.0000000000e+00 0.0000e+00 -1.0000e+00
       -2 -1    0    0    0  501 -0.0000000000e+00 -0.0000000000e+00 -1.6705241331e+03 1.6705241331e+03 0.0000000000e+00 0.0000e+00 1.0000e+00
      -13  1    1    2    0    0 -2.0380833442e+03 -1.5043325378e+03 +1.4231825662e+03 2.9055548040e+03 0.0000000000e+00 0.0000e+00 1.0000e+00
       13  1    1    2    0    0 +2.0380833442e+03 +1.5043325378e+03 +7.9683696306e+02 2.6555129915e+03 0.0000000000e+00 0.0000e+00 -1.0000e+00
<mgrwt>
<rscale>  0 0.50987242E+04</rscale>
<asrwt>0</asrwt>
<pdfrwt beam="1">  1        2 0.59854518E+00 0.50987242E+04</pdfrwt>
<pdfrwt beam="2">  1       -2 0.25700371E+00 0.50987242E+04</pdfrwt>
<totfact> 0.16088526E-02</totfact>
</mgrwt>
<rwgt>
<wgt id='morphing_basis_vector_1'> +7.4151038e-06 </wgt>
<wgt id='morphing_basis_vector_2'> +5.9049366e-06 </wgt>
<wgt id='morphing_basis_vector_3'> +8.3707922e-06 </wgt>
<wgt id='morphing_basis_vector_4'> +4.7807531e-06 </wgt>
<wgt id='morphing_basis_vector_5'> +8.8617950e-06 </wgt>
</rwgt>
</event>
<event>
 4      1 +7.6845000e-11 4.70986600e+03 7.81860800e-03 7.42577400e-02
        2 -1    0    0  501    0 +0.0000000000e+00 +0.0000000000e+00 +2.2472487208e+03 2.2472487208e+03 0.0000000000e+00 0.0000e+00 1.0000e+00
       -2 -1    0    0    0  501 -0.0000000000e+00 -0.0000000000e+00 -2.4677769184e+03 2.4677769184e+03 0.0000000000e+00 0.0000e+00 -1.0000e+00
      -13  1    1    2    0    0 -1.6476751138e+03 -2.5885350329e+02 -1.7745746153e+03 2.4353548986e+03 0.0000000000e+00 0.0000e+00 -1.0000e+00
       13  1    1    2    0    0 +1.6476751138e+03 +2.5885350329e+02 +1.5540464177e+03 2.2796707405e+03 0.0000000000e+00 0.0000e+00 1.0000e+00
<mgrwt>
<rscale>  0 0.47098656E+04</rscale>
<asrwt>0</asrwt>
<pdfrwt beam="1">  1        2 0.34573057E+00 0.47098656E+04</pdfrwt>
<pdfrwt beam="2">  1       -2 0.37965799E+00 0.47098656E+04</pdfrwt>
<totfact> 0.32554788E-02</totfact>
</mgrwt>
<rwgt>
<wgt id='morphing_basis_vector_1'> +5.1303633e-06 </wgt>
<wgt id='morphing_basis_vector_2'> +3.4959500e-06 </wgt>
<wgt id='morphing_basis_vector_3'> +5.6499463e-06 </wgt>
<wgt id='morphing_basis_vector_4'> +4.0610074e-06 </wgt>
<wgt id='morphing_basis_vector_5'> +6.4944197e-06 </wgt>
</rwgt>
</event>
<event>
 4      1 +7.6845000e-11 5.06969400e+03 7.81860800e-03 7.37506700e-02
        2 -1    0    0  501    0 +0.0000000000e+00 +0.0000000000e+00 +2.9471475742e+03 2.9471475742e+03 0.0000000000e+00 0.0000e+00 1.0000e+00
       -2 -1    0    0    0  501 -0.0000000000e+00 -0.0000000000e+00 -2.1802262293e+03 2.1802262293e+03 0.0000000000e+00 0.0000e+00 -1.0000e+00
      -13  1    1    2    0    0 +3.9659832589e+02 +1.8438185224e+03 -1.3294710175e+03 2.3074770123e+03 0.0000000000e+00 0.0000e+00 -1.0000e+00
       13  1    1    2    0    0 -3.9659832589e+02 -1.8438185224e+03 +2.0963923624e+03 2.8198967912e+03 0.0000000000e+00 0.0000e+00 1.0000e+00
<mgrwt>
<rscale>  0 0.50696937E+04</rscale>
<asrwt>0</asrwt>
<pdfrwt beam="1">  1        2 0.45340732E+00 0.50696937E+04</pdfrwt>
<pdfrwt beam="2">  1       -2 0.33541942E+00 0.50696937E+04</pdfrwt>
<totfact> 0.22983057E-02</totfact>
</mgrwt>
<rwgt>
<wgt id='morphing_basis_vector_1'> +6.8829420e-06 </wgt>
<wgt id='morphing_basis_vector_2'> +4.6992673e-06 </wgt>
<wgt id='morphing_basis_vector_3'> +7.5886568e-06 </wgt>
<wgt id='morphing_basis_vector_4'> +5.4509860e-06 </wgt>
<wgt id='morphing_basis_vector_5'> +8.7263714e-06 </wgt>
</rwgt>
</event>
<event>
 4      1 +7.6845000e-11 5.44284500e+03 7.81860800e-03 7.32682800e-02
        2 -1    0    0  501    0 +0.0000000000e+00 +0.0000000000e+00 +1.4746558668e+03 1.4746558668e+03 0.0000000000e+00 0.0000e+00 -1.0000e+00
       -2 -1    0    0    0  501 -0.0000000000e+00 -0.0000000000e+00 -5.0222830533e+03 5.0222830533e+03 0.0000000000e+00 0.0000e+00 1.0000e+00
      -13  1    1    2    0    0 +1.3877294404e+03 +4.9600666046e+02 -4.5047597424e+03 4.7396915452e+03 0.0000000000e+00 0.0000e+00 1.0000e+00
       13  1    1    2    0    0 -1.3877294404e+03 -4.9600666046e+02 +9.5713255593e+02 1.7572473749e+03 0.0000000000e+00 0.0000e+00 -1.0000e+00
<mgrwt>
<rscale>  0 0.54428445E+04</rscale>
<asrwt>0</asrwt>
<pdfrwt beam="1">  1        2 0.22687013E+00 0.54428445E+04</pdfrwt>
<pdfrwt beam="2">  1       -2 0.77265894E+00 0.54428445E+04</pdfrwt>
<totfact> 0.11428430E-03</totfact>
</mgrwt>
<rwgt>
<wgt id='morphing_basis_vector_1'> +9.1246725e-06 </wgt>
<wgt id='morphing_basis_vector_2'> +6.2061632e-06 </wgt>
<wgt id='morphing_basis_vector_3'> +1.0061992e-05 </wgt>
<wgt id='morphing_basis_vector_4'> +7.2730724e-06 </wgt>
<wgt id='morphing_basis_vector_5'> +1.1604994e-05 </wgt>
</rwgt>
</event>
<event>
 4      1 +7.6845000e-11 4.62692000e+03 7.81860800e-03 7.43811200e-02
        2 -1    0    0  501    0 +0.0000000000e+00 +0.0000000000e+00 +4.0007114724e+03 4.0007114724e+03 0.0000000000e+00 0.0000e+00 -1.0000e+00
       -2 -1    0    0    0  501 -0.0000000000e+00 -0.0000000000e+00 -1.3377862576e+03 1.3377862576e+03 0.0000000000e+00 0.0000e+00 1.0000e+00
      -13  1    1    2    0    0 +1.9243266507e+03 -1.0378018977e+03 +4.5881909416e+02 2.2339607872e+03 0.0000000000e+00 0.0000e+00 1.0000e+00
       13  1    1    2    0    0 -1.9243266507e+03 +1.0378018977e+03 +2.2041061206e+03 3.1045369427e+03 0.0000000000e+00 0.0000e+00 -1.0000e+00
<mgrwt>
<rscale>  0 0.46269199E+04</rscale>
<asrwt>0</asrwt>
<pdfrwt beam="1">  1        2 0.61549407E+00 0.46269199E+04</pdfrwt>
<pdfrwt beam="2">  1       -2 0.20581327E+00 0.46269199E+04</pdfrwt>
<totfact> 0.30917760E-02</totfact>
</mgrwt>
<rwgt>
<wgt id='morphing_basis_vector_1'> +4.8226959e-06 </wgt>
<wgt id='morphing_basis_vector_2'> +3.3828323e-06 </wgt>
<wgt id='morphing_basis_vector_3'> +5.3320015e-06 </wgt>
<wgt id='morphing_basis_vector_4'> +3.6899790e-06 </wgt>
<wgt id='morphing_basis_vector_5'> +6.0396513e-06 </wgt>
</rwgt>
</event>
<event>
 4      1 +7.6845000e-11 4.82977600e+03 7.81860800e-03 7.40838300e-02
        2 -1    0    0  501    0 +0.0000000000e+00 +0.0000000000e+00 +3.8005918296e+03 3.8005918296e+03 0.0000000000e+00 0.0000e+00 -1.0000e+00
       -2 -1    0    0    0  501 -0.0000000000e+00 -0.0000000000e+00 -1.5344146724e+03 1.5344146724e+03 0.0000000000e+00 0.0000e+00 1.0000e+00
      -13  1    1    2    0    0 +5.0986033589e+02 +2.3414688049e+03 +1.4630874276e+03 2.8076784979e+03 0.0000000000e+00 0.0000e+00 1.0000e+00
       13  1    1    2    0    0 -5.0986033589e+02 -2.3414688049e+03 +8.0308972967e+02 2.5273280041e+03 0.0000000000e+00 0.0000e+00 -1.0000e+00
<mgrwt>
<rscale>  0 0.48297759E+04</rscale>
<asrwt>0</asrwt>
<pdfrwt beam="1">  1        2 0.58470643E+00 0.48297759E+04</pdfrwt>
<pdfrwt beam="2">  1       -2 0.23606380E+00 0.48297759E+04</pdfrwt>
<totfact> 0.27144802E-02</totfact>
</mgrwt>
<rwgt>
<wgt id='morphing_basis_vector_1'> +5.9864174e-06 </wgt>
<wgt id='morphing_basis_vector_2'> +4.7914474e-06 </wgt>
<wgt id='morphing_basis_vector_3'> +6.7585568e-06 </wgt>
<wgt id='morphing_basis_vector_4'> +3.8208688e-06 </wgt>
<wgt id='morphing_basis_vector_5'> +7.1277702e-06 </wgt>
</rwgt>
</event>
<event>
 4      1 +7.6845000e-11 4.76578300e+03 7.81860800e-03 7.41760000e-02
        2 -1    0    0  501    0 +0.0000000000e+00 +0.0000000000e+00 +3.4904807727e+03 3.4904807727e+03 0.0000000000e+00 0.0000e+00 1.0000e+00
       -2 -1    0    0    0  501 -0.0000000000e+00 -0.0000000000e+00 -1.6267593014e+03 1.6267593014e+03 0.0000000000e+00 0.0000e+00 -1.0000e+00
      -13  1    1    2    0    0 +1.7520687344e+03 -1.2403863039e+03 -1.7876269206e+02 2.1541260718e+03 0.0000000000e+00 0.0000e+00 -1.0000e+00
       13  1    1    2    0    0 -1.7520687344e+03 +1.2403863039e+03 +2.0424841634e+03 2.9631140023e+03 0.0000000000e+00 0.0000e+00 1.0000e+00
<mgrwt>
<rscale>  0 0.47657831E+04</rscale>
<asrwt>0</asrwt>
<pdfrwt beam="1">  1        2 0.53699704E+00 0.47657831E+04</pdfrwt>
<pdfrwt beam="2">  1       -2 0.25027066E+00 0.47657831E+04</pdfrwt>
<totfact> 0.37519808E-02</totfact>
</mgrwt>
<rwgt>
<wgt id='morphing_basis_vector_1'> +5.4045465e-06 </wgt>
<wgt id='morphing_basis_vector_2'> +3.7442959e-06 </wgt>
<wgt id='morphing_basis_vector_3'> +5.9669003e-06 </wgt>
<wgt id='morphing_basis_vector_4'> +4.2003529e-06 </wgt>
<wgt id='morphing_basis_vector_5'> +6.8046801e-06 </wgt>
</rwgt>
</event>
<event>
 4      1 +7.6845000e-11 4.85652200e+03 7.81860800e-03 7.40457400e-02
        2 -1    0    0  501    0 +0.0000000000e+00 +0.0000000000e+00 +2.6931915876e+03 2.6931915876e+03 0.0000000000e+00 0.0000e+00 -1.0000e+00
       -2 -1    0    0    0  501 -0.0000000000e+00 -0.0000000000e+00 -2.1893920193e+03 2.1893920193e+03 0.0000000000e+00 0.0000e+00 1.0000e+00
      -13  1    1    2    0    0 +6.8410635133e+02 -2.2397936017e+03 -3.9324092005e+02 2.3747242576e+03 0.0000000000e+00 0.0000e+00 1.0000e+00
       13  1    1    2    0    0 -6.8410635133e+02 +2.2397936017e+03 +8.9704048843e+02 2.5078593494e+03 0.0000000000e+00 0.0000e+00 -1.0000e+00
<mgrwt>
<rscale>  0 0.48565223E+04</rscale>
<asrwt>0</asrwt>
<pdfrwt beam="1">  1        2 0.41433717E+00 0.48565223E+04</pdfrwt>
<pdfrwt beam="2">  1       -2 0.33682954E+00 0.48565223E+04</pdfrwt>
<totfact> 0.33060204E-02</totfact>
</mgrwt>
<rwgt>
<wgt id='morphing_basis_vector_1'> +5.8675163e-06 </wgt>
<wgt id='morphing_basis_vector_2'> +4.1577319e-06 </wgt>
<wgt id='morphing_basis_vector_3'> +6.5008835e-06 </wgt>
<wgt id='morphing_basis_vector_4'> +4.4433090e-06 </wgt>
<wgt id='morphing_basis_vector_5'> +7.3324844e-06 </wgt>
</rwgt>
</event>
<event>
 4      1 +7.6845000e-11 4.77615900e+03 7.81860800e-03 7.41609600e-02
        2 -1    0    0  501    0 +0.0000000000e+00 +0.0000000000e+00 +2.0000486091e+03 2.0000486091e+03 0.0000000000e+00 0.0000e+00 -1.0000e+00
       -2 -1    0    0    0  501 -0.0000000000e+00 -0.0000000000e+00 -2.8513920601e+03 2.8513920601e+03 0.0000000000e+00 0.0000e+00 1.0000e+00
      -13  1    1    2    0    0 +5.1764039840e+02 -1.1617497856e+03 -2.4787448521e+03 2.7859989569e+03 0.0000000000e+00 0.0000e+00 1.0000e+00
       13  1    1    2    0    0 -5.1764039840e+02 +1.1617497856e+03 +1.6274014011e+03 2.0654417122e+03 0.0000000000e+00 0.0000e+00 -1.0000e+00
<mgrwt>
<rscale>  0 0.47761586E+04</rscale>
<asrwt>0</asrwt>
<pdfrwt beam="1">  1        2 0.30769979E+00 0.47761586E+04</pdfrwt>
<pdfrwt beam="2">  1       -2 0.43867570E+00 0.47761586E+04</pdfrwt>
<totfact> 0.18266321E-02</totfact>
</mgrwt>
<rwgt>
<wgt id='morphing_basis_vector_1'> +5.4192352e-06 </wgt>
<wgt id='morphing_basis_vector_2'> +3.6819182e-06 </wgt>
<wgt id='morphing_basis_vector_3'> +5.9666121e-06 </wgt>
<wgt id='morphing_basis_vector_4'> +4.3060367e-06 </wgt>
<wgt id='morphing_basis_vector_5'> +6.8701058e-06 </wgt>
</rwgt>
</event>
<event>
 4      1 +7.6845000e-11 5.12437900e+03 7.81860800e-03 7.36773600e-02
        2 -1    0    0  501    0 +0.0000000000e+00 +0.0000000000e+00 +4.5052581552e+03 4.5052581552e+03 0.0000000000e+00 0.0000e+00 -1.0000e+00
       -2 -1    0    0    0  501 -0.0000000000e+00 -0.0000000000e+00 -1.4571453242e+03 1.4571453242e+03 0.0000000000e+00 0.0000e+00 1.0000e+00
      -13  1    1    2    0    0 -2.2242441706e+03 -9.6066935807e+02 +5.5428635382e+02 2.4854337867e+03 0.0000000000e+00 0.0000e+00 1.0000e+00
       13  1    1    2    0    0 +2.2242441706e+03 +9.6066935807e+02 +2.4938264771e+03 3.4769696927e+03 0.0000000000e+00 0.0000e+00 -1.0000e+00
<mgrwt>
<rscale>  0 0.51243793E+04</rscale>
<asrwt>0</asrwt>
<pdfrwt beam="1">  1        2 0.69311663E+00 0.51243793E+04</pdfrwt>
<pdfrwt beam="2">  1       -2 0.22417621E+00 0.51243793E+04</pdfrwt>
<totfact> 0.73870146E-03</totfact>
</mgrwt>
<rwgt>
<wgt id='morphing_basis_vector_1'> +7.2460921e-06 </wgt>
<wgt id='morphing_basis_vector_2'> +5.0880251e-06 </wgt>
<wgt id='morphing_basis_vector_3'> +8.0225653e-06 </wgt>
<wgt id='morphing_basis_vector_4'> +5.5579032e-06 </wgt>
<wgt id='morphing_basis_vector_5'> +9.0990758e-06 </wgt>
</rwgt>
</event>
<event>
 4      1 +7.6845000e-11 4.92321500e+03 7.81860800e-03 7.39518000e-02
        2 -1    0    0  501    0 +0.0000000000e+00 +0.0000000000e+00 +1.9120133925e+03 1.9120133925e+03 0.0000000000e+00 0.0000e+00 1.0000e+00
       -2 -1    0    0    0  501 -0.0000000000e+00 -0.0000000000e+00 -3.1691783825e+03 3.1691783825e+03 0.0000000000e+00 0.0000e+00 -1.0000e+00
      -13  1    1    2    0    0 -8.9853775194e+01 +1.9366490577e+03 -2.1941034411e+03 2.9279298461e+03 0.0000000000e+00 0.0000e+00 -1.0000e+00
       13  1    1    2    0    0 +8.9853775194e+01 -1.9366490577e+03 +9.3693845106e+02 2.1532619289e+03 0.0000000000e+00 0.0000e+00 1.0000e+00
<mgrwt>
<rscale>  0 0.49232150E+04</rscale>
<asrwt>0</asrwt>
<pdfrwt beam="1">  1        2 0.29415591E+00 0.49232150E+04</pdfrwt>
<pdfrwt beam="2">  1       -2 0.48756590E+00 0.49232150E+04</pdfrwt>
<totfact> 0.90319518E-03</totfact>
</mgrwt>
<rwgt>
<wgt id='morphing_basis_vector_1'> +6.1278034e-06 </wgt>
<wgt id='morphing_basis_vector_2'> +4.1921016e-06 </wgt>
<wgt id='morphing_basis_vector_3'> +6.7558064e-06 </wgt>
<wgt id='morphing_basis_vector_4'> +4.8371685e-06 </wgt>
<wgt id='morphing_basis_vector_5'> +7.7570885e-06 </wgt>
</rwgt>
</event>
<event>
 4      1 +7.6845000e-11 4.65278100e+03 7.81860800e-03 7.43423700e-02
        2 -1    0    0  501    0 +0.0000000000e+00 +0.0000000000e+00 +2.1578670735e+03 2.1578670735e+03 0.0000000000e+00 0.0000e+00 -1.0000e+00
       -2 -1    0    0    0  501 -0.0000000000e+00 -0.0000000000e+00 -2.5080753233e+03 2.5080753233e+03 0.0000000000e+00 0.0000e+00 1.0000e+00
      -13  1    1    2    0    0 -1.1794051068e+03 +1.8056714058e+03 -1.0497222521e+03 2.3986167760e+03 0.0000000000e+00 0.0000e+00 1.0000e+00
       13  1    1    2    0    0 +1.1794051068e+03 -1.8056714058e+03 +6.9951400231e+02 2.2673256208e+03 0.0000000000e+00 0.0000e+00 -1.0000e+00
<mgrwt>
<rscale>  0 0.46527812E+04</rscale>
<asrwt>0</asrwt>
<pdfrwt beam="1">  1        2 0.33197955E+00 0.46527812E+04</pdfrwt>
<pdfrwt beam="2">  1       -2 0.38585774E+00 0.46527812E+04</pdfrwt>
<totfact> 0.33549287E-02</totfact>
</mgrwt>
<rwgt>
<wgt id='morphing_basis_vector_1'> +4.9214163e-06 </wgt>
<wgt id='morphing_basis_vector_2'> +3.4308039e-06 </wgt>
<wgt id='morphing_basis_vector_3'> +5.4366830e-06 </wgt>
<wgt id='morphing_basis_vector_4'> +3.7938656e-06 </wgt>
<wgt id='morphing_basis_vector_5'> +6.1780304e-06 </wgt>
</rwgt>
</event>
<event>
 4      1 +7.6845000e-11 4.79821500e+03 7.81860800e-03 7.41291100e-02
        2 -1    0    0  501    0 +0.0000000000e+00 +0.0000000000e+00 +1.1985162437e+03 1.1985162437e+03 0.0000000000e+00 0.0000e+00 -1.0000e+00
       -2 -1    0    0    0  501 -0.0000000000e+00 -0.0000000000e+00 -4.8023691846e+03 4.8023691846e+03 0.0000000000e+00 0.0000e+00 1.0000e+00
      -13  1    1    2    0    0 -7.8619868177e+02 +2.2082838704e+03 -2.4409721987e+03 3.3842238836e+03 0.0000000000e+00 0.0000e+00 1.0000e+00
       13  1    1    2    0    0 +7.8619868177e+02 -2.2082838704e+03 -1.1628807422e+03 2.6166615448e+03 0.0000000000e+00 0.0000e+00 -1.0000e+00
<mgrwt>
<rscale>  0 0.47982153E+04</rscale>
<asrwt>0</asrwt>
<pdfrwt beam="1">  1        2 0.18438711E+00 0.47982153E+04</pdfrwt>
<pdfrwt beam="2">  1       -2 0.73882603E+00 0.47982153E+04</pdfrwt>
<totfact> 0.12558482E-03</totfact>
</mgrwt>
<rwgt>
<wgt id='morphing_basis_vector_1'> +5.6088176e-06 </wgt>
<wgt id='morphing_basis_vector_2'> +4.0121345e-06 </wgt>
<wgt id='morphing_basis_vector_3'> +6.2219857e-06 </wgt>
<wgt id='morphing_basis_vector_4'> +4.1966751e-06 </wgt>
<wgt id='morphing_basis_vector_5'> +6.9824504e-06 </wgt>
</rwgt>
</event>
<event>
 4      1 +7.6845000e-11 4.64328300e+03 7.81860800e-03 7.43565700e-02
        2 -1    0    0  501    0 +0.0000000000e+00 +0.0000000000e+00 +2.5126876825e+03 2.5126876825e+03 0.0000000000e+00 0.0000e+00 1.0000e+00
       -2 -1    0    0    0  501 -0.0000000000e+00 -0.0000000000e+00 -2.1451213945e+03 2.1451213945e+03 0.0000000000e+00 0.0000e+00 -1.0000e+00
      -13  1    1    2    0    0 -1.4263519445e+03 +6.1296280007e+02 -1.5478316194e+03 2.1922559125e+03 0.0000000000e+00 0.0000e+00 -1.0000e+00
       13  1    1    2    0    0 +1.4263519445e+03 -6.1296280007e+02 +1.9153979074e+03 2.4655531646e+03 0.0000000000e+00 0.0000e+00 1.0000e+00
<mgrwt>
<rscale>  0 0.46432834E+04</rscale>
<asrwt>0</asrwt>
<pdfrwt beam="1">  1        2 0.38656734E+00 0.46432834E+04</pdfrwt>
<pdfrwt beam="2">  1       -2 0.33001867E+00 0.46432834E+04</pdfrwt>
<totfact> 0.47962511E-02</totfact>
</mgrwt>
<rwgt>
<wgt id='morphing_basis_vector_1'> +4.8457996e-06 </wgt>
<wgt id='morphing_basis_vector_2'> +3.2980349e-06 </wgt>
<wgt id='morphing_basis_vector_3'> +5.3346744e-06 </wgt>
<wgt id='morphing_basis_vector_4'> +3.8387947e-06 </wgt>
<wgt id='morphing_basis_vector_5'> +6.1339094e-06 </wgt>
</rwgt>
</event>
<event>
 4      1 +7.6845000e-11 4.74975200e+03 7.81860800e-03 7.41993200e-02
        2 -1    0    0  501    0 +0.0000000000e+00 +0.0000000000e+00 +2.0200934610e+03 2.0200934610e+03 0.0000000000e+00 0.0000e+00 1.0000e+00
       -2 -1    0    0    0  501 -0.0000000000e+00 -0.0000000000e+00 -2.7919678709e+03 2.7919678709e+03 0.0000000000e+00 0.0000e+00 -1.0000e+00
      -13  1    1    2    0    0 -1.6649305946e+03 -7.5918274962e+02 -1.9196271041e+03 2.6520408276e+03 0.0000000000e+00 0.0000e+00 -1.0000e+00
       13  1    1    2    0    0 +1.6649305946e+03 +7.5918274962e+02 +1.1477526941e+03 2.1600205043e+03 0.0000000000e+00 0.0000e+00 1.0000e+00
<mgrwt>
<rscale>  0 0.47497520E+04</rscale>
<asrwt>0</asrwt>
<pdfrwt beam="1">  1        2 0.31078361E+00 0.47497520E+04</pdfrwt>
<pdfrwt beam="2">  1       -2 0.42953352E+00 0.47497520E+04</pdfrwt>
<totfact> 0.20568127E-02</totfact>
</mgrwt>
<rwgt>
<wgt id='morphing_basis_vector_1'> +5.3098631e-06 </wgt>
<wgt id='morphing_basis_vector_2'> +3.6278896e-06 </wgt>
<wgt id='morphing_basis_vector_3'> +5.8504510e-06 </wgt>
<wgt id='morphing_basis_vector_4'> +4.1919978e-06 </wgt>
<wgt id='morphing_basis_vector_5'> +6.7172915e-06 </wgt>
</rwgt>
</event>
<event>
 4      1 +7.6845000e-11 4.66224000e+03 7.81860800e-03 7.43282600e-02
        2 -1    0    0  501    0 +0.0000000000e+00 +0.0000000000e+00 +1.6242762407e+03 1.6242762407e+03 0.0000000000e+00 0.0000e+00 -1.0000e+00
       -2 -1    0    0    0  501 -0.0000000000e+00 -0.0000000000e+00 -3.3455646733e+03 3.3455646733e+03 0.0000000000e+00 0.0000e+00 1.0000e+00
      -13  1    1    2    0    0 -4.0920576235e+02 -1.7772358454e+03 -2.4083696135e+03 3.0209701755e+03 0.0000000000e+00 0.0000e+00 1.0000e+00
       13  1    1    2    0    0 +4.0920576235e+02 +1.7772358454e+03 +6.8708118092e+02 1.9488707385e+03 0.0000000000e+00 0.0000e+00 -1.0000e+00
<mgrwt>
<rscale>  0 0.46622403E+04</rscale>
<asrwt>0</asrwt>
<pdfrwt beam="1">  1        2 0.24988865E+00 0.46622403E+04</pdfrwt>
<pdfrwt beam="2">  1       -2 0.51470226E+00 0.46622403E+04</pdfrwt>
<totfact> 0.83387337E-03</totfact>
</mgrwt>
<rwgt>
<wgt id='morphing_basis_vector_1'> +4.9315702e-06 </wgt>
<wgt id='morphing_basis_vector_2'> +3.3711009e-06 </wgt>
<wgt id='morphing_basis_vector_3'> +5.4327487e-06 </wgt>
<wgt id='morphing_basis_vector_4'> +3.8883721e-06 </wgt>
<wgt id='morphing_basis_vector_5'> +6.2339188e-06 </wgt>
</rwgt>
</event>
<event>
 4      1 +7.6845000e-11 4.88291500e+03 7.81860800e-03 7.40083800e-02
        2 -1    0    0  501    0 +0.0000000000e+00 +0.0000000000e+00 +3.3471605317e+03 3.3471605317e+03 0.0000000000e+00 0.0000e+00 -1.0000e+00
       -2 -1    0    0    0  501 -0.0000000000e+00 -0.0000000000e+00 -1.7808274662e+03 1.7808274662e+03 0.0000000000e+00 0.0000e+00 1.0000e+00
      -13  1    1    2    0    0 +8.3649314860e+02 +1.4459123161e+03 -1.0867412807e+03 1.9928346205e+03 0.0000000000e+00 0.0000e+00 1.0000e+00
       13  1    1    2    0    0 -8.3649314860e+02 -1.4459123161e+03 +2.6530743461e+03 3.1351533774e+03 0.0000000000e+00 0.0000e+00 -1.0000e+00
<mgrwt>
<rscale>  0 0.48829153E+04</rscale>
<asrwt>0</asrwt>
<pdfrwt beam="1">  1        2 0.51494777E+00 0.48829153E+04</pdfrwt>
<pdfrwt beam="2">  1       -2 0.27397346E+00 0.48829153E+04</pdfrwt>
<totfact> 0.32383798E-02</totfact>
</mgrwt>
<rwgt>
<wgt id='morphing_basis_vector_1'> +5.9226389e-06 </wgt>
<wgt id='morphing_basis_vector_2'> +4.0342603e-06 </wgt>
<wgt id='morphing_basis_vector_3'> +6.5249616e-06 </wgt>
<wgt id='morphing_basis_vector_4'> +4.6964949e-06 </wgt>
<wgt id='morphing_basis_vector_5'> +7.5067524e-06 </wgt>
</rwgt>
</event>
<event>
 4      1 +7.6845000e-11 4.77137800e+03 7.81860800e-03 7.41678900e-02
        2 -1    0    0  501    0 +0.0000000000e+00 +0.0000000000e+00 +4.0892033656e+03 4.0892033656e+03 0.0000000000e+00 0.0000e+00 -1.0000e+00
       -2 -1    0    0    0  501 -0.0000000000e+00 -0.0000000000e+00 -1.3918385813e+03 1.3918385813e+03 0.0000000000e+00 0.0000e+00 1.0000e+00
      -13  1    1    2    0    0 +1.0616387635e+03 -1.6257426389e+03 -2.4362778238e+02 1.9569032905e+03 0.0000000000e+00 0.0000e+00 1.0000e+00
       13  1    1    2    0    0 -1.0616387635e+03 +1.6257426389e+03 +2.9409925667e+03 3.5241386564e+03 0.0000000000e+00 0.0000e+00 -1.0000e+00
<mgrwt>
<rscale>  0 0.47713776E+04</rscale>
<asrwt>0</asrwt>
<pdfrwt beam="1">  1        2 0.62910821E+00 0.47713776E+04</pdfrwt>
<pdfrwt beam="2">  1       -2 0.21412901E+00 0.47713776E+04</pdfrwt>
<totfact> 0.22325047E-02</totfact>
</mgrwt>
<rwgt>
<wgt id='morphing_basis_vector_1'> +5.4114854e-06 </wgt>
<wgt id='morphing_basis_vector_2'> +3.7078645e-06 </wgt>
<wgt id='morphing_basis_vector_3'> +5.9651762e-06 </wgt>
<wgt id='morphing_basis_vector_4'> +4.2593142e-06 </wgt>
<wgt id='morphing_basis_vector_5'> +6.8400773e-06 </wgt>
</rwgt>
</event>
<event>
 4      1 +7.6845000e-11 4.68463000e+03 7.81860800e-03 7.42950100e-02
        2 -1    0    0  501    0 +0.0000000000e+00 +0.0000000000e+00 +2.7560652991e+03 2.7560652991e+03 0.0000000000e+00 0.0000e+00 1.0000e+00
       -2 -1    0    0    0  501 -0.0000000000e+00 -0.0000000000e+00 -1.9906786666e+03 1.9906786666e+03 0.0000000000e+00 0.0000e+00 -1.0000e+00
      -13  1    1    2    0    0 -1.4752999274e+03 -1.3443102082e+02 -1.4557112039e+03 2.0769392587e+03 0.0000000000e+00 0.0000e+00 -1.0000e+00
       13  1    1    2    0    0 +1.4752999274e+03 +1.3443102082e+02 +2.2210978363e+03 2.6698047070e+03 0.0000000000e+00 0.0000e+00 1.0000e+00
<mgrwt>
<rscale>  0 0.46846304E+04</rscale>
<asrwt>0</asrwt>
<pdfrwt beam="1">  1        2 0.42401005E+00 0.46846304E+04</pdfrwt>
<pdfrwt beam="2">  1       -2 0.30625825E+00 0.46846304E+04</pdfrwt>
<totfact> 0.48873621E-02</totfact>
</mgrwt>
<rwgt>
<wgt id='morphing_basis_vector_1'> +5.0189248e-06 </wgt>
<wgt id='morphing_basis_vector_2'> +3.4136048e-06 </wgt>
<wgt id='morphing_basis_vector_3'> +5.5253767e-06 </wgt>
<wgt id='morphing_basis_vector_4'> +3.9802561e-06 </wgt>
<wgt id='morphing_basis_vector_5'> +6.3563489e-06 </wgt>
</rwgt>
</event>
<event>
 4      1 +7.6845000e-11 5.04022400e+03 7.81860800e-03 7.37905700e-02
        2 -1    0    0  501    0 +0.0000000000e+00 +0.0000000000e+00 +3.2974624406e+03 3.2974624406e+03 0.0000000000e+00 0.0000e+00 -1.0000e+00
       -2 -1    0    0    0  501 -0.0000000000e+00 -0.0000000000e+00 -1.9260160435e+03 1.9260160435e+03 0.0000000000e+00 0.0000e+00 1.0000e+00
      -13  1    1    2    0    0 +2.4446057915e+03 -5.8488564620e+02 +4.9809691939e+02 2.5624771679e+03 0.0000000000e+00 0.0000e+00 1.0000e+00
       13  1    1    2    0    0 -2.4446057915e+03 +5.8488564620e+02 +8.7334947765e+02 2.6610013162e+03 0.0000000000e+00 0.0000e+00 -1.0000e+00
<mgrwt>
<rscale>  0 0.50402244E+04</rscale>
<asrwt>0</asrwt>
<pdfrwt beam="1">  1        2 0.50730191E+00 0.50402244E+04</pdfrwt>
<pdfrwt beam="2">  1       -2 0.29631016E+00 0.50402244E+04</pdfrwt>
<totfact> 0.24448422E-02</totfact>
</mgrwt>
<rwgt>
<wgt id='morphing_basis_vector_1'> +6.9040211e-06 </wgt>
<wgt id='morphing_basis_vector_2'> +5.1173916e-06 </wgt>
<wgt id='morphing_basis_vector_3'> +7.7047171e-06 </wgt>
<wgt id='morphing_basis_vector_4'> +4.9430224e-06 </wgt>
<wgt id='morphing_basis_vector_5'> +8.4925930e-06 </wgt>
</rwgt>
</event>
<event>
 4      1 +7.6845000e-11 4.83297800e+03 7.81860800e-03 7.40792600e-02
        2 -1    0    0  501    0 +0.0000000000e+00 +0.0000000000e+00 +3.2449403652e+03 3.2449403652e+03 0.0000000000e+00 0.0000e+00 1.0000e+00
       -2 -1    0    0    0  501 -0.0000000000e+00 -0.0000000000e+00 -1.7995461009e+03 1.7995461009e+03 0.0000000000e+00 0.0000e+00 -1.0000e+00
      -13  1    1    2    0    0 +5.6019959953e+02 +2.0614314624e+03 -4.5638451306e+02 2.1844015403e+03 0.0000000000e+00 0.0000e+00 -1.0000e+00
       13  1    1    2    0    0 -5.6019959953e+02 -2.0614314624e+03 +1.9017787773e+03 2.8600849258e+03 0.0000000000e+00 0.0000e+00 1.0000e+00
<mgrwt>
<rscale>  0 0.48329783E+04</rscale>
<asrwt>0</asrwt>
<pdfrwt beam="1">  1        2 0.49922159E+00 0.48329783E+04</pdfrwt>
<pdfrwt beam="2">  1       -2 0.27685325E+00 0.48329783E+04</pdfrwt>
<totfact> 0.36607367E-02</totfact>
</mgrwt>
<rwgt>
<wgt id='morphing_basis_vector_1'> +5.7093121e-06 </wgt>
<wgt id='morphing_basis_vector_2'> +3.9437692e-06 </wgt>
<wgt id='morphing_basis_vector_3'> +6.3017856e-06 </wgt>
<wgt id='morphing_basis_vector_4'> +4.4546464e-06 </wgt>
<wgt id='morphing_basis_vector_5'> +7.1989937e-06 </wgt>
</rwgt>
</event>
<event>
 4      1 +7.6845000e-11 4.78454100e+03 7.81860800e-03 7.41488400e-02
        2 -1    0    0  501    0 +0.0000000000e+00 +0.0000000000e+00 +3.4699068326e+03 3.4699068326e+03 0.0000000000e+00 0.0000e+00 -1.0000e+00
       -2 -1    0    0    0  501 -0.0000000000e+00 -0.0000000000e+00 -1.6493114324e+03 1.6493114324e+03 0.0000000000e+00 0.0000e+00 1.0000e+00
      -13  1    1    2    0    0 +9.6814507311e+02 -1.3263481316e+03 +2.7716576235e+03 3.2215819454e+03 0.0000000000e+00 0.0000e+00 -1.0000e+00
       13  1    1    2    0    0 -9.6814507311e+02 +1.3263481316e+03 -9.5106222341e+02 1.8976363196e+03 0.0000000000e+00 0.0000e+00 1.0000e+00
<mgrwt>
<rscale>  0 0.47845405E+04</rscale>
<asrwt>0</asrwt>
<pdfrwt beam="1">  1        2 0.53383182E+00 0.47845405E+04</pdfrwt>
<pdfrwt beam="2">  1       -2 0.25374022E+00 0.47845405E+04</pdfrwt>
<totfact> 0.36694778E-02</totfact>
</mgrwt>
<rwgt>
<wgt id='morphing_basis_vector_1'> +7.1058722e-06 </wgt>
<wgt id='morphing_basis_vector_2'> +8.5500153e-06 </wgt>
<wgt id='morphing_basis_vector_3'> +8.6790730e-06 </wgt>
<wgt id='morphing_basis_vector_4'> +8.2791323e-07 </wgt>
<wgt id='morphing_basis_vector_5'> +6.6248000e-06 </wgt>
</rwgt>
</event>
<event>
 4      1 +7.6845000e-11 4.75034000e+03 7.81860800e-03 7.41984700e-02
        2 -1    0    0  501    0 +0.0000000000e+00 +0.0000000000e+00 +2.6651021857e+03 2.6651021857e+03 0.0000000000e+00 0.0000e+00 -1.0000e+00
       -2 -1    0    0    0  501 -0.0000000000e+00 -0.0000000000e+00 -2.1167787374e+03 2.1167787374e+03 0.0000000000e+00 0.0000e+00 1.0000e+00
      -13  1    1    2    0    0 -1.6483434306e+03 -5.5631156541e+02 -1.3536445576e+03 2.2042849660e+03 0.0000000000e+00 0.0000e+00 1.0000e+00
       13  1    1    2    0    0 +1.6483434306e+03 +5.5631156541e+02 +1.9019680059e+03 2.5775959572e+03 0.0000000000e+00 0.0000e+00 -1.0000e+00
<mgrwt>
<rscale>  0 0.47503396E+04</rscale>
<asrwt>0</asrwt>
<pdfrwt beam="1">  1        2 0.41001572E+00 0.47503396E+04</pdfrwt>
<pdfrwt beam="2">  1       -2 0.32565827E+00 0.47503396E+04</pdfrwt>
<totfact> 0.41091242E-02</totfact>
</mgrwt>
<rwgt>
<wgt id='morphing_basis_vector_1'> +5.3096987e-06 </wgt>
<wgt id='morphing_basis_vector_2'> +3.6215086e-06 </wgt>
<wgt id='morphing_basis_vector_3'> +5.8488396e-06 </wgt>
<wgt id='morphing_basis_vector_4'> +4.2000010e-06 </wgt>
<wgt id='morphing_basis_vector_5'> +6.7211237e-06 </wgt>
</rwgt>
</event>
<event>
 4      1 +7.6845000e-11 4.66266700e+03 7.81860800e-03 7.43276300e-02
        2 -1    0    0  501    0 +0.0000000000e+00 +0.0000000000e+00 +3.3313995998e+03 3.3313995998e+03 0.0000000000e+00 0.0000e+00 -1.0000e+00
       -2 -1    0    0    0  501 -0.0000000000e+00 -0.0000000000e+00 -1.6314814419e+03 1.6314814419e+03 0.0000000000e+00 0.0000e+00 1.0000e+00
      -13  1    1    2    0    0 -4.5996730157e+02 +2.2847352045e+03 +9.1321401048e+02 2.5031070097e+03 0.0000000000e+00 0.0000e+00 1.0000e+00
       13  1    1    2    0    0 +4.5996730157e+02 -2.2847352045e+03 +7.8670414740e+02 2.4597740321e+03 0.0000000000e+00 0.0000e+00 -1.0000e+00
<mgrwt>
<rscale>  0 0.46626673E+04</rscale>
<asrwt>0</asrwt>
<pdfrwt beam="1">  1        2 0.51252301E+00 0.46626673E+04</pdfrwt>
<pdfrwt beam="2">  1       -2 0.25099715E+00 0.46626673E+04</pdfrwt>
<totfact> 0.48600686E-02</totfact>
</mgrwt>
<rwgt>
<wgt id='morphing_basis_vector_1'> +5.1210631e-06 </wgt>
<wgt id='morphing_basis_vector_2'> +3.9236616e-06 </wgt>
<wgt id='morphing_basis_vector_3'> +5.7384113e-06 </wgt>
<wgt id='morphing_basis_vector_4'> +3.4906630e-06 </wgt>
<wgt id='morphing_basis_vector_5'> +6.2028058e-06 </wgt>
</rwgt>
</event>
<event>
 4      1 +7.6845000e-11 4.64386900e+03 7.81860800e-03 7.43557000e-02
        2 -1    0    0  501    0 +0.0000000000e+00 +0.0000000000e+00 +2.8880292963e+03 2.8880292963e+03 0.0000000000e+00 0.0000e+00 -1.0000e+00
       -2 -1    0    0    0  501 -0.0000000000e+00 -0.0000000000e+00 -1.8668024669e+03 1.8668024669e+03 0.0000000000e+00 0.0000e+00 1.0000e+00
      -13  1    1    2    0    0 -1.1240431602e+03 +2.0223686047e+03 +7.1002961192e+02 2.4202458241e+03 0.0000000000e+00 0.0000e+00 1.0000e+00
       13  1    1    2    0    0 +1.1240431602e+03 -2.0223686047e+03 +3.1119721756e+02 2.3345859391e+03 0.0000000000e+00 0.0000e+00 -1.0000e+00
<mgrwt>
<rscale>  0 0.46438692E+04</rscale>
<asrwt>0</asrwt>
<pdfrwt beam="1">  1        2 0.44431220E+00 0.46438692E+04</pdfrwt>
<pdfrwt beam="2">  1       -2 0.28720038E+00 0.46438692E+04</pdfrwt>
<totfact> 0.54428906E-02</totfact>
</mgrwt>
<rwgt>
<wgt id='morphing_basis_vector_1'> +5.0839683e-06 </wgt>
<wgt id='morphing_basis_vector_2'> +3.9921457e-06 </wgt>
<wgt id='morphing_basis_vector_3'> +5.7186911e-06 </wgt>
<wgt id='morphing_basis_vector_4'> +3.3395026e-06 </wgt>
<wgt id='morphing_basis_vector_5'> +6.0950709e-06 </wgt>
</rwgt>
</event>
<event>
 4      1 +7.6845000e-11 4.70321000e+03 7.81860800e-03 7.42675500e-02
        2 -1    0    0  501    0 +0.0000000000e+00 +0.0000000000e+00 +2.6296948802e+03 2.6296948802e+03 0.0000000000e+00 0.0000e+00 -1.0000e+00
       -2 -1    0    0    0  501 -0.0000000000e+00 -0.0000000000e+00 -2.1029226773e+03 2.1029226773e+03 0.0000000000e+00 0.0000e+00 1.0000e+00
      -13  1    1    2    0    0 -3.0338813866e+02 -1.2933501205e+03 -1.6891711017e+03 2.1489760138e+03 0.0000000000e+00 0.0000e+00 1.0000e+00
       13  1    1    2    0    0 +3.0338813866e+02 +1.2933501205e+03 +2.2159433046e+03 2.5836415437e+03 0.0000000000e+00 0.0000e+00 -1.0000e+00
<mgrwt>
<rscale>  0 0.47032095E+04</rscale>
<asrwt>0</asrwt>
<pdfrwt beam="1">  1        2 0.40456845E+00 0.47032095E+04</pdfrwt>
<pdfrwt beam="2">  1       -2 0.32352656E+00 0.47032095E+04</pdfrwt>
<totfact> 0.44780210E-02</totfact>
</mgrwt>
<rwgt>
<wgt id='morphing_basis_vector_1'> +5.0972749e-06 </wgt>
<wgt id='morphing_basis_vector_2'> +3.4637590e-06 </wgt>
<wgt id='morphing_basis_vector_3'> +5.6111951e-06 </wgt>
<wgt id='morphing_basis_vector_4'> +4.0470717e-06 </wgt>
<wgt id='morphing_basis_vector_5'> +6.4584123e-06 </wgt>
</rwgt>
</event>
<event>
 4      1 +7.6845000e-11 4.70891300e+03 7.81860800e-03 7.42591400e-02
        2 -1    0    0  501    0 +0.0000000000e+00 +0.0000000000e+00 +3.2989249887e+03 3.2989249887e+03 0.0000000000e+00 0.0000e+00 -1.0000e+00
       -2 -1    0    0    0  501 -0.0000000000e+00 -0.0000000000e+00 -1.6803855583e+03 1.6803855583e+03 0.0000000000e+00 0.0000e+00 1.0000e+00
      -13  1    1    2    0    0 -2.1002109229e+02 +9.7561583066e+02 -1.4456773506e+03 1.7566781464e+03 0.0000000000e+00 0.0000e+00 1.0000e+00
       13  1    1    2    0    0 +2.1002109229e+02 -9.7561583066e+02 +3.0642167810e+03 3.2226324006e+03 0.0000000000e+00 0.0000e+00 -1.0000e+00
<mgrwt>
<rscale>  0 0.47089132E+04</rscale>
<asrwt>0</asrwt>
<pdfrwt beam="1">  1        2 0.50752692E+00 0.47089132E+04</pdfrwt>
<pdfrwt beam="2">  1       -2 0.25852085E+00 0.47089132E+04</pdfrwt>
<totfact> 0.45279783E-02</totfact>
</mgrwt>
<rwgt>
<wgt id='morphing_basis_vector_1'> +5.1205480e-06 </wgt>
<wgt id='morphing_basis_vector_2'> +3.4764370e-06 </wgt>
<wgt id='morphing_basis_vector_3'> +5.6361812e-06 </wgt>
<wgt id='morphing_basis_vector_4'> +4.0697993e-06 </wgt>
<wgt id='morphing_basis_vector_5'> +6.4901613e-06 </wgt>
</rwgt>
</event>
<event>
 4      1 +7.6845000e-11 4.62768900e+03 7.81860800e-03 7.43799600e-02
        2 -1    0    0  501    0 +0.0000000000e+00 +0.0000000000e+00 +2.9905178642e+03 2.9905178642e+03 0.0000000000e+00 0.0000e+00 -1.0000e+00
       -2 -1    0    0    0  501 -0.0000000000e+00 -0.0000000000e+00 -1.7902838642e+03 1.7902838642e+03 0.0000000000e+00 0.0000e+00 1.0000e+00
      -13  1    1    2    0    0 -1.6867513698e+03 +1.4431573855e+03 +1.2744323209e+03 2.5596896615e+03 0.0000000000e+00 0.0000e+00 1.0000e+00
       13  1    1    2    0    0 +1.6867513698e+03 -1.4431573855e+03 -7.4198320964e+01 2.2211120668e+03 0.0000000000e+00 0.0000e+00 -1.0000e+00
<mgrwt>
<rscale>  0 0.46276888E+04</rscale>
<asrwt>0</asrwt>
<pdfrwt beam="1">  1        2 0.46007967E+00 0.46276888E+04</pdfrwt>
<pdfrwt beam="2">  1       -2 0.27542829E+00 0.46276888E+04</pdfrwt>
<totfact> 0.56283866E-02</totfact>
</mgrwt>
<rwgt>
<wgt id='morphing_basis_vector_1'> +5.2376920e-06 </wgt>
<wgt id='morphing_basis_vector_2'> +4.5947359e-06 </wgt>
<wgt id='morphing_basis_vector_3'> +6.0015751e-06 </wgt>
<wgt id='morphing_basis_vector_4'> +2.8169209e-06 </wgt>
<wgt id='morphing_basis_vector_5'> +5.9704208e-06 </wgt>
</rwgt>
</event>
<event>
 4      1 +7.6845000e-11 4.65189800e+03 7.81860800e-03 7.43436900e-02
        2 -1    0    0  501    0 +0.0000000000e+00 +0.0000000000e+00 +2.2898706598e+03 2.2898706598e+03 0.0000000000e+00 0.0000e+00 1.0000e+00
       -2 -1    0    0    0  501 -0.0000000000e+00 -0.0000000000e+00 -2.3625957370e+03 2.3625957370e+03 0.0000000000e+00 0.0000e+00 -1.0000e+00
      -13  1    1    2    0    0 -8.0675591827e+02 -1.7280731663e+03 -1.3680456820e+03 2.3470494174e+03 0.0000000000e+00 0.0000e+00 -1.0000e+00
       13  1    1    2    0    0 +8.0675591827e+02 +1.7280731663e+03 +1.2953206047e+03 2.3054169794e+03 0.0000000000e+00 0.0000e+00 1.0000e+00
<mgrwt>
<rscale>  0 0.46518980E+04</rscale>
<asrwt>0</asrwt>
<pdfrwt beam="1">  1        2 0.35228780E+00 0.46518980E+04</pdfrwt>
<pdfrwt beam="2">  1       -2 0.36347627E+00 0.46518980E+04</pdfrwt>
<totfact> 0.39270702E-02</totfact>
</mgrwt>
<rwgt>
<wgt id='morphing_basis_vector_1'> +4.8920333e-06 </wgt>
<wgt id='morphing_basis_vector_2'> +3.3528254e-06 </wgt>
<wgt id='morphing_basis_vector_3'> +5.3910429e-06 </wgt>
<wgt id='morphing_basis_vector_4'> +3.8455421e-06 </wgt>
<wgt id='morphing_basis_vector_5'> +6.1778902e-06 </wgt>
</rwgt>
</event>
<event>
 4      1 +7.6845000e-11 5.52718400e+03 7.81860800e-03 7.31647200e-02
        2 -1    0    0  501    0 +0.0000000000e+00 +0.0000000000e+00 +2.9062454854e+03 2.9062454854e+03 0.0000000000e+00 0.0000e+00 -1.0000e+00
       -2 -1    0    0    0  501 -0.0000000000e+00 -0.0000000000e+00 -2.6279408954e+03 2.6279408954e+03 0.0000000000e+00 0.0000e+00 1.0000e+00
      -13  1    1    2    0    0 -1.6465170447e+03 +1.1120493841e+03 -1.7841583660e+03 2.6703732485e+03 0.0000000000e+00 0.0000e+00 1.0000e+00
       13  1    1    2    0    0 +1.6465170447e+03 -1.1120493841e+03 +2.0624629561e+03 2.8638131323e+03 0.0000000000e+00 0.0000e+00 -1.0000e+00
<mgrwt>
<rscale>  0 0.55271842E+04</rscale>
<asrwt>0</asrwt>
<pdfrwt beam="1">  1        2 0.44711469E+00 0.55271842E+04</pdfrwt>
<pdfrwt beam="2">  1       -2 0.40429860E+00 0.55271842E+04</pdfrwt>
<totfact> 0.84385371E-03</totfact>
</mgrwt>
<rwgt>
<wgt id='morphing_basis_vector_1'> +9.7117057e-06 </wgt>
<wgt id='morphing_basis_vector_2'> +6.6282500e-06 </wgt>
<wgt id='morphing_basis_vector_3'> +1.0716172e-05 </wgt>
<wgt id='morphing_basis_vector_4'> +7.7147197e-06 </wgt>
<wgt id='morphing_basis_vector_5'> +1.2341427e-05 </wgt>
</rwgt>
</event>
<event>
 4      1 +7.6845000e-11 4.77821100e+03 7.81860800e-03 7.41579900e-02
        2 -1    0    0  501    0 +0.0000000000e+00 +0.0000000000e+00 +1.9874021780e+03 1.9874021780e+03 0.0000000000e+00 0.0000e+00 -1.0000e+00
       -2 -1    0    0    0  501 -0.0000000000e+00 -0.0000000000e+00 -2.8720025703e+03 2.8720025703e+03 0.0000000000e+00 0.0000e+00 1.0000e+00
      -13  1    1    2    0    0 -1.1324395951e+03 +1.9489857730e+03 -1.2474983706e+03 2.5762797140e+03 0.0000000000e+00 0.0000e+00 1.0000e+00
       13  1    1    2    0    0 +1.1324395951e+03 -1.9489857730e+03 +3.6289797831e+02 2.2831250344e+03 0.0000000000e+00 0.0000e+00 -1.0000e+00
<mgrwt>
<rscale>  0 0.47782106E+04</rscale>
<asrwt>0</asrwt>
<pdfrwt beam="1">  1        2 0.30575418E+00 0.47782106E+04</pdfrwt>
<pdfrwt beam="2">  1       -2 0.44184655E+00 0.47782106E+04</pdfrwt>
<totfact> 0.17661506E-02</totfact>
</mgrwt>
<rwgt>
<wgt id='morphing_basis_vector_1'> +5.4813925e-06 </wgt>
<wgt id='morphing_basis_vector_2'> +3.8435315e-06 </wgt>
<wgt id='morphing_basis_vector_3'> +6.0625073e-06 </wgt>
<wgt id='morphing_basis_vector_4'> +4.2009524e-06 </wgt>
<wgt id='morphing_basis_vector_5'> +6.8725387e-06 </wgt>
</rwgt>
</event>
<event>
 4      1 +7.6845000e-11 4.74075100e+03 7.81860800e-03 7.42124600e-02
        2 -1    0    0  501    0 +0.0000000000e+00 +0.0000000000e+00 +3.6911270148e+03 3.6911270148e+03 0.0000000000e+00 0.0000e+00 1.0000e+00
       -2 -1    0    0    0  501 -0.0000000000e+00 -0.0000000000e+00 -1.5222124474e+03 1.5222124474e+03 0.0000000000e+00 0.0000e+00 -1.0000e+00
      -13  1    1    2    0    0 -1.3082842498e+03 +3.4006388197e+02 -1.0568071671e+03 1.7158358053e+03 0.0000000000e+00 0.0000e+00 -1.0000e+00
       13  1    1    2    0    0 +1.3082842498e+03 -3.4006388197e+02 +3.2257217344e+03 3.4975036569e+03 0.0000000000e+00 0.0000e+00 1.0000e+00
<mgrwt>
<rscale>  0 0.47407508E+04</rscale>
<asrwt>0</asrwt>
<pdfrwt beam="1">  1        2 0.56786569E+00 0.47407508E+04</pdfrwt>
<pdfrwt beam="2">  1       -2 0.23418653E+00 0.47407508E+04</pdfrwt>
<totfact> 0.34347610E-02</totfact>
</mgrwt>
<rwgt>
<wgt id='morphing_basis_vector_1'> +5.2614566e-06 </wgt>
<wgt id='morphing_basis_vector_2'> +3.5757876e-06 </wgt>
<wgt id='morphing_basis_vector_3'> +5.7926115e-06 </wgt>
<wgt id='morphing_basis_vector_4'> +4.1781080e-06 </wgt>
<wgt id='morphing_basis_vector_5'> +6.6678375e-06 </wgt>
</rwgt>
</event>
<event>
 4      1 +7.6845000e-11 4.62921400e+03 7.81860800e-03 7.43776700e-02
        2 -1    0    0  501    0 +0.0000000000e+00 +0.0000000000e+00 +2.5207989307e+03 2.5207989307e+03 0.0000000000e+00 0.0000e+00 1.0000e+00
       -2 -1    0    0    0  501 -0.0000000000e+00 -0.0000000000e+00 -2.1252803502e+03 2.1252803502e+03 0.0000000000e+00 0.0000e+00 -1.0000e+00
      -13  1    1    2    0    0 +6.5137846922e+02 +1.2069841001e+03 -1.6735174639e+03 2.1637387158e+03 0.0000000000e+00 0.0000e+00 -1.0000e+00
       13  1    1    2    0    0 -6.5137846922e+02 -1.2069841001e+03 +2.0690360444e+03 2.4823405651e+03 0.0000000000e+00 0.0000e+00 1.0000e+00
<mgrwt>
<rscale>  0 0.46292135E+04</rscale>
<asrwt>0</asrwt>
<pdfrwt beam="1">  1        2 0.38781522E+00 0.46292135E+04</pdfrwt>
<pdfrwt beam="2">  1       -2 0.32696621E+00 0.46292135E+04</pdfrwt>
<totfact> 0.49734361E-02</totfact>
</mgrwt>
<rwgt>
<wgt id='morphing_basis_vector_1'> +4.7855999e-06 </wgt>
<wgt id='morphing_basis_vector_2'> +3.2525619e-06 </wgt>
<wgt id='morphing_basis_vector_3'> +5.2671635e-06 </wgt>
<wgt id='morphing_basis_vector_4'> +3.7964658e-06 </wgt>
<wgt id='morphing_basis_vector_5'> +6.0599761e-06 </wgt>
</rwgt>
</event>
<event>
 4      1 +7.6845000e-11 4.89478900e+03 7.81860800e-03 7.39916500e-02
        2 -1    0    0  501    0 +0.0000000000e+00 +0.0000000000e+00 +2.8985853531e+03 2.8985853531e+03 0.0000000000e+00 0.0000e+00 -1.0000e+00
       -2 -1    0    0    0  501 -0.0000000000e+00 -0.0000000000e+00 -2.0664358387e+03 2.0664358387e+03 0.0000000000e+00 0.0000e+00 1.0000e+00
      -13  1    1    2    0    0 -5.2309517924e+02 -2.3857763931e+03 +2.5833433314e+02 2.4560729208e+03 0.0000000000e+00 0.0000e+00 1.0000e+00
       13  1    1    2    0    0 +5.2309517924e+02 +2.3857763931e+03 +5.7381518127e+02 2.5089482710e+03 0.0000000000e+00 0.0000e+00 -1.0000e+00
<mgrwt>
<rscale>  0 0.48947893E+04</rscale>
<asrwt>0</asrwt>
<pdfrwt beam="1">  1        2 0.44593621E+00 0.48947893E+04</pdfrwt>
<pdfrwt beam="2">  1       -2 0.31791321E+00 0.48947893E+04</pdfrwt>
<totfact> 0.32668441E-02</totfact>
</mgrwt>
<rwgt>
<wgt id='morphing_basis_vector_1'> +6.1486595e-06 </wgt>
<wgt id='morphing_basis_vector_2'> +4.5681620e-06 </wgt>
<wgt id='morphing_basis_vector_3'> +6.8616926e-06 </wgt>
<wgt id='morphing_basis_vector_4'> +4.3838874e-06 </wgt>
<wgt id='morphing_basis_vector_5'> +7.5502336e-06 </wgt>
</rwgt>
</event>
<event>
 4      1 +7.6845000e-11 4.67144200e+03 7.81860800e-03 7.43145700e-02
        2 -1    0    0  501    0 +0.0000000000e+00 +0.0000000000e+00 +2.3668528037e+03 2.3668528037e+03 0.0000000000e+00 0.0000e+00 1.0000e+00
       -2 -1    0    0    0  501 -0.0000000000e+00 -0.0000000000e+00 -2.3049990453e+03 2.3049990453e+03 0.0000000000e+00 0.0000e+00 -1.0000e+00
      -13  1    1    2    0    0 -2.1878566822e+03 -1.5748904299e+01 +8.4869566468e+02 2.3467529101e+03 0.0000000000e+00 0.0000e+00 1.0000e+00
       13  1    1    2    0    0 +2.1878566822e+03 +1.5748904299e+01 -7.8684190631e+02 2.3250989389e+03 0.0000000000e+00 0.0000e+00 -1.0000e+00
<mgrwt>
<rscale>  0 0.46714424E+04</rscale>
<asrwt>0</asrwt>
<pdfrwt beam="1">  1        2 0.36413120E+00 0.46714424E+04</pdfrwt>
<pdfrwt beam="2">  1       -2 0.35461524E+00 0.46714424E+04</pdfrwt>
<totfact> 0.40334502E-02</totfact>
</mgrwt>
<rwgt>
<wgt id='morphing_basis_vector_1'> +5.5522790e-06 </wgt>
<wgt id='morphing_basis_vector_2'> +5.1067362e-06 </wgt>
<wgt id='morphing_basis_vector_3'> +6.4171577e-06 </wgt>
<wgt id='morphing_basis_vector_4'> +2.6819594e-06 </wgt>
<wgt id='morphing_basis_vector_5'> +6.1799018e-06 </wgt>
</rwgt>
</event>
<event>
 4      1 +7.6845000e-11 4.78246800e+03 7.81860800e-03 7.41518300e-02
        2 -1    0    0  501    0 +0.0000000000e+00 +0.0000000000e+00 +1.9255288201e+03 1.9255288201e+03 0.0000000000e+00 0.0000e+00 1.0000e+00
       -2 -1    0    0    0  501 -0.0000000000e+00 -0.0000000000e+00 -2.9695740790e+03 2.9695740790e+03 0.0000000000e+00 0.0000e+00 -1.0000e+00
      -13  1    1    2    0    0 -1.1334374139e+03 +2.0086911371e+03 +1.2409711128e+02 2.3097446933e+03 0.0000000000e+00 0.0000e+00 -1.0000e+00
       13  1    1    2    0    0 +1.1334374139e+03 -2.0086911371e+03 -1.1681423702e+03 2.5853582058e+03 0.0000000000e+00 0.0000e+00 1.0000e+00
<mgrwt>
<rscale>  0 0.47824682E+04</rscale>
<asrwt>0</asrwt>
<pdfrwt beam="1">  1        2 0.29623520E+00 0.47824682E+04</pdfrwt>
<pdfrwt beam="2">  1       -2 0.45685755E+00 0.47824682E+04</pdfrwt>
<totfact> 0.15034534E-02</totfact>
</mgrwt>
<rwgt>
<wgt id='morphing_basis_vector_1'> +5.9416471e-06 </wgt>
<wgt id='morphing_basis_vector_2'> +5.1517986e-06 </wgt>
<wgt id='morphing_basis_vector_3'> +6.7980801e-06 </wgt>
<wgt id='morphing_basis_vector_4'> +3.2779999e-06 </wgt>
<wgt id='morphing_basis_vector_5'> +6.8185981e-06 </wgt>
</rwgt>
</event>
<event>
 4      1 +7.6845000e-11 4.74719000e+03 7.81860800e-03 7.42030600e-02
        2 -1    0    0  501    0 +0.0000000000e+00 +0.0000000000e+00 +2.8831018880e+03 2.8831018880e+03 0.0000000000e+00 0.0000e+00 1.0000e+00
       -2 -1    0    0    0  501 -0.0000000000e+00 -0.0000000000e+00 -1.9541291877e+03 1.9541291877e+03 0.0000000000e+00 0.0000e+00 -1.0000e+00
      -13  1    1    2    0    0 -6.1854406212e+02 -2.2665732408e+03 +1.2043959393e+02 2.3525426050e+03 0.0000000000e+00 0.0000e+00 -1.0000e+00
       13  1    1    2    0    0 +6.1854406212e+02 +2.2665732408e+03 +8.0853310629e+02 2.4846884707e+03 0.0000000000e+00 0.0000e+00 1.0000e+00
<mgrwt>
<rscale>  0 0.47471901E+04</rscale>
<asrwt>0</asrwt>
<pdfrwt beam="1">  1        2 0.44355414E+00 0.47471901E+04</pdfrwt>
<pdfrwt beam="2">  1       -2 0.30063526E+00 0.47471901E+04</pdfrwt>
<totfact> 0.44123955E-02</totfact>
</mgrwt>
<rwgt>
<wgt id='morphing_basis_vector_1'> +5.4026250e-06 </wgt>
<wgt id='morphing_basis_vector_2'> +3.9260390e-06 </wgt>
<wgt id='morphing_basis_vector_3'> +6.0065140e-06 </wgt>
<wgt id='morphing_basis_vector_4'> +3.9612968e-06 </wgt>
<wgt id='morphing_basis_vector_5'> +6.6842024e-06 </wgt>
</rwgt>
</event>
<event>
 4      1 +7.6845000e-11 4.91993400e+03 7.81860800e-03 7.39563800e-02
        2 -1    0    0  501    0 +0.0000000000e+00 +0.0000000000e+00 +2.5075983383e+03 2.5075983383e+03 0.0000000000e+00 0.0000e+00 1.0000e+00
       -2 -1    0    0    0  501 -0.0000000000e+00 -0.0000000000e+00 -2.4132408252e+03 2.4132408252e+03 0.0000000000e+00 0.0000e+00 -1.0000e+00
      -13  1    1    2    0    0 +1.5809825749e+03 +1.1069620416e+03 -1.4784108265e+03 2.4311662706e+03 0.0000000000e+00 0.0000e+00 -1.0000e+00
       13  1    1    2    0    0 -1.5809825749e+03 -1.1069620416e+03 +1.5727683396e+03 2.4896728929e+03 0.0000000000e+00 0.0000e+00 1.0000e+00
<mgrwt>
<rscale>  0 0.49199344E+04</rscale>
<asrwt>0</asrwt>
<pdfrwt beam="1">  1        2 0.38578436E+00 0.49199344E+04</pdfrwt>
<pdfrwt beam="2">  1       -2 0.37126782E+00 0.49199344E+04</pdfrwt>
<totfact> 0.25521534E-02</totfact>
</mgrwt>
<rwgt>
<wgt id='morphing_basis_vector_1'> +6.1112003e-06 </wgt>
<wgt id='morphing_basis_vector_2'> +4.1799508e-06 </wgt>
<wgt id='morphing_basis_vector_3'> +6.7372670e-06 </wgt>
<wgt id='morphing_basis_vector_4'> +4.8249749e-06 </wgt>
<wgt id='morphing_basis_vector_5'> +7.7364269e-06 </wgt>
</rwgt>
</event>
<event>
 4      1 +7.6845000e-11 5.11248300e+03 7.81860800e-03 7.36932200e-02
        2 -1    0    0  501    0 +0.0000000000e+00 +0.0000000000e+00 +1.7037143228e+03 1.7037143228e+03 0.0000000000e+00 0.0000e+00 1.0000e+00
       -2 -1    0    0    0  501 -0.0000000000e+00 -0.0000000000e+00 -3.8353671516e+03 3.8353671516e+03 0.0000000000e+00 0.0000e+00 -1.0000e+00
      -13  1    1    2    0    0 -1.4306169923e+02 -2.3644742400e+03 -2.4838871557e+01 2.3689284605e+03 0.0000000000e+00 0.0000e+00 -1.0000e+00
       13  1    1    2    0    0 +1.4306169923e+02 +2.3644742400e+03 -2.1068139572e+03 3.1701530139e+03 0.0000000000e+00 0.0000e+00 1.0000e+00
<mgrwt>
<rscale>  0 0.51124827E+04</rscale>
<asrwt>0</asrwt>
<pdfrwt beam="1">  1        2 0.26210990E+00 0.51124827E+04</pdfrwt>
<pdfrwt beam="2">  1       -2 0.59005649E+00 0.51124827E+04</pdfrwt>
<totfact> 0.20195544E-03</totfact>
</mgrwt>
<rwgt>
<wgt id='morphing_basis_vector_1'> +8.0252372e-06 </wgt>
<wgt id='morphing_basis_vector_2'> +7.5252197e-06 </wgt>
<wgt id='morphing_basis_vector_3'> +9.3224332e-06 </wgt>
<wgt id='morphing_basis_vector_4'> +3.7027588e-06 </wgt>
<wgt id='morphing_basis_vector_5'> +8.8633529e-06 </wgt>
</rwgt>
</event>
<event>
 4      1 +7.6845000e-11 4.63897400e+03 7.81860800e-03 7.43630300e-02
        2 -1    0    0  501    0 +0.0000000000e+00 +0.0000000000e+00 +4.0644974315e+03 4.0644974315e+03 0.0000000000e+00 0.0000e+00 1.0000e+00
       -2 -1    0    0    0  501 -0.0000000000e+00 -0.0000000000e+00 -1.3236617382e+03 1.3236617382e+03 0.0000000000e+00 0.0000e+00 -1.0000e+00
      -13  1    1    2    0    0 -2.2939102054e+03 -4.8797831447e+00 +9.7147768460e+02 2.4911476741e+03 0.0000000000e+00 0.0000e+00 -1.0000e+00
       13  1    1    2    0    0 +2.2939102054e+03 +4.8797831447e+00 +1.7693580087e+03 2.8970114956e+03 0.0000000000e+00 0.0000e+00 1.0000e+00
<mgrwt>
<rscale>  0 0.46389739E+04</rscale>
<asrwt>0</asrwt>
<pdfrwt beam="1">  1        2 0.62530729E+00 0.46389739E+04</pdfrwt>
<pdfrwt beam="2">  1       -2 0.20364027E+00 0.46389739E+04</pdfrwt>
<totfact> 0.28221611E-02</totfact>
</mgrwt>
<rwgt>
<wgt id='morphing_basis_vector_1'> +4.9259514e-06 </wgt>
<wgt id='morphing_basis_vector_2'> +3.5738381e-06 </wgt>
<wgt id='morphing_basis_vector_3'> +5.4734989e-06 </wgt>
<wgt id='morphing_basis_vector_4'> +3.6160394e-06 </wgt>
<wgt id='morphing_basis_vector_5'> +6.0936403e-06 </wgt>
</rwgt>
</event>
<event>
 4      1 +7.6845000e-11 5.49473300e+03 7.81860800e-03 7.32043400e-02
        2 -1    0    0  501    0 +0.0000000000e+00 +0.0000000000e+00 +2.7647491218e+03 2.7647491218e+03 0.0000000000e+00 0.0000e+00 1.0000e+00
       -2 -1    0    0    0  501 -0.0000000000e+00 -0.0000000000e+00 -2.7300931343e+03 2.7300931343e+03 0.0000000000e+00 0.0000e+00 -1.0000e+00
      -13  1    1    2    0    0 -3.2354943659e+02 -2.4830918744e+03 -1.1130011278e+03 2.7402921387e+03 0.0000000000e+00 0.0000e+00 -1.0000e+00
       13  1    1    2    0    0 +3.2354943659e+02 +2.4830918744e+03 +1.1476571153e+03 2.7545501174e+03 0.0000000000e+00 0.0000e+00 1.0000e+00
<mgrwt>
<rscale>  0 0.54947330E+04</rscale>
<asrwt>0</asrwt>
<pdfrwt beam="1">  1        2 0.42534602E+00 0.54947330E+04</pdfrwt>
<pdfrwt beam="2">  1       -2 0.42001433E+00 0.54947330E+04</pdfrwt>
<totfact> 0.81855678E-03</totfact>
</mgrwt>
<rwgt>
<wgt id='morphing_basis_vector_1'> +9.5398174e-06 </wgt>
<wgt id='morphing_basis_vector_2'> +6.6314294e-06 </wgt>
<wgt id='morphing_basis_vector_3'> +1.0554013e-05 </wgt>
<wgt id='morphing_basis_vector_4'> +7.4202522e-06 </wgt>
<wgt id='morphing_basis_vector_5'> +1.2043782e-05 </wgt>
</rwgt>
</event>
<event>
 4      1 +7.6845000e-11 4.64922000e+03 7.81860800e-03 7.43476900e-02
        2 -1    0    0  501    0 +0.0000000000e+00 +0.0000000000e+00 +1.5628460149e+03 1.5628460149e+03 0.0000000000e+00 0.0000e+00 -1.0000e+00
       -2 -1    0    0    0  501 -0.0000000000e+00 -0.0000000000e+00 -3.4576731451e+03 3.4576731451e+03 0.0000000000e+00 0.0000e+00 1.0000e+00
      -13  1    1    2    0    0 +8.3139877819e+02 +1.8537979441e+03 -2.1672379253e+03 2.9706415083e+03 0.0000000000e+00 0.0000e+00 1.0000e+00
       13  1    1    2    0    0 -8.3139877819e+02 -1.8537979441e+03 +2.7241079507e+02 2.0498776518e+03 0.0000000000e+00 0.0000e+00 -1.0000e+00
<mgrwt>
<rscale>  0 0.46492196E+04</rscale>
<asrwt>0</asrwt>
<pdfrwt beam="1">  1        2 0.24043785E+00 0.46492196E+04</pdfrwt>
<pdfrwt beam="2">  1       -2 0.53194971E+00 0.46492196E+04</pdfrwt>
<totfact> 0.67281511E-03</totfact>
</mgrwt>
<rwgt>
<wgt id='morphing_basis_vector_1'> +4.8897254e-06 </wgt>
<wgt id='morphing_basis_vector_2'> +3.3712835e-06 </wgt>
<wgt id='morphing_basis_vector_3'> +5.3930483e-06 </wgt>
<wgt id='morphing_basis_vector_4'> +3.8177238e-06 </wgt>
<wgt id='morphing_basis_vector_5'> +6.1620377e-06 </wgt>
</rwgt>
</event>
<event>
 4      1 +7.6845000e-11 5.12076000e+03 7.81860800e-03 7.36821800e-02
        2 -1    0    0  501    0 +0.0000000000e+00 +0.0000000000e+00 +2.0362596359e+03 2.0362596359e+03 0.0000000000e+00 0.0000e+00 -1.0000e+00
       -2 -1    0    0    0  501 -0.0000000000e+00 -0.0000000000e+00 -3.2194053915e+03 3.2194053915e+03 0.0000000000e+00 0.0000e+00 1.0000e+00
      -13  1    1    2    0    0 +1.6201144679e+03 +1.4647477862e+03 -1.9629201579e+03 2.9365477202e+03 0.0000000000e+00 0.0000e+00 1.0000e+00
       13  1    1    2    0    0 -1.6201144679e+03 -1.4647477862e+03 +7.7977440233e+02 2.3191173073e+03 0.0000000000e+00 0.0000e+00 -1.0000e+00
<mgrwt>
<rscale>  0 0.51207598E+04</rscale>
<asrwt>0</asrwt>
<pdfrwt beam="1">  1        2 0.31327072E+00 0.51207598E+04</pdfrwt>
<pdfrwt beam="2">  1       -2 0.49529313E+00 0.51207598E+04</pdfrwt>
<totfact> 0.66305550E-03</totfact>
</mgrwt>
<rwgt>
<wgt id='morphing_basis_vector_1'> +7.1805982e-06 </wgt>
<wgt id='morphing_basis_vector_2'> +4.9412304e-06 </wgt>
<wgt id='morphing_basis_vector_3'> +7.9266559e-06 </wgt>
<wgt id='morphing_basis_vector_4'> +5.6383376e-06 </wgt>
<wgt id='morphing_basis_vector_5'> +9.0813839e-06 </wgt>
</rwgt>
</event>
<event>
 4      1 +7.6845000e-11 4.77239500e+03 7.81860800e-03 7.41664100e-02
        2 -1    0    0  501    0 +0.0000000000e+00 +0.0000000000e+00 +2.7325442060e+03 2.7325442060e+03 0.0000000000e+00 0.0000e+00 1.0000e+00
       -2 -1    0    0    0  501 -0.0000000000e+00 -0.0000000000e+00 -2.0837502046e+03 2.0837502046e+03 0.0000000000e+00 0.0000e+00 -1.0000e+00
      -13  1    1    2    0    0 -1.4711963910e+03 -4.4902919873e+02 -1.5166349052e+03 2.1601452446e+03 0.0000000000e+00 0.0000e+00 -1.0000e+00
       13  1    1    2    0    0 +1.4711963910e+03 +4.4902919873e+02 +2.1654289066e+03 2.6561491659e+03 0.0000000000e+00 0.0000e+00 1.0000e+00
<mgrwt>
<rscale>  0 0.47723954E+04</rscale>
<asrwt>0</asrwt>
<pdfrwt beam="1">  1        2 0.42039142E+00 0.47723954E+04</pdfrwt>
<pdfrwt beam="2">  1       -2 0.32057695E+00 0.47723954E+04</pdfrwt>
<totfact> 0.40279609E-02</totfact>
</mgrwt>
<rwgt>
<wgt id='morphing_basis_vector_1'> +5.4046339e-06 </wgt>
<wgt id='morphing_basis_vector_2'> +3.6773829e-06 </wgt>
<wgt id='morphing_basis_vector_3'> +5.9517156e-06 </wgt>
<wgt id='morphing_basis_vector_4'> +4.2873362e-06 </wgt>
<wgt id='morphing_basis_vector_5'> +6.8479773e-06 </wgt>
</rwgt>
</event>
<event>
 4      1 +7.6845000e-11 4.76635100e+03 7.81860800e-03 7.41751800e-02
        2 -1    0    0  501    0 +0.0000000000e+00 +0.0000000000e+00 +3.1410488049e+03 3.1410488049e+03 0.0000000000e+00 0.0000e+00 1.0000e+00
       -2 -1    0    0    0  501 -0.0000000000e+00 -0.0000000000e+00 -1.8081620258e+03 1.8081620258e+03 0.0000000000e+00 0.0000e+00 -1.0000e+00
      -13  1    1    2    0    0 +1.8352799345e+03 -1.4300194986e+03 +1.3058582992e+02 2.3302920125e+03 0.0000000000e+00 0.0000e+00 -1.0000e+00
       13  1    1    2    0    0 -1.8352799345e+03 +1.4300194986e+03 +1.2023009491e+03 2.6189188183e+03 0.0000000000e+00 0.0000e+00 1.0000e+00
<mgrwt>
<rscale>  0 0.47663509E+04</rscale>
<asrwt>0</asrwt>
<pdfrwt beam="1">  1        2 0.48323828E+00 0.47663509E+04</pdfrwt>
<pdfrwt beam="2">  1       -2 0.27817877E+00 0.47663509E+04</pdfrwt>
<totfact> 0.42406729E-02</totfact>
</mgrwt>
<rwgt>
<wgt id='morphing_basis_vector_1'> +5.4605750e-06 </wgt>
<wgt id='morphing_basis_vector_2'> +3.9031034e-06 </wgt>
<wgt id='morphing_basis_vector_3'> +6.0563275e-06 </wgt>
<wgt id='morphing_basis_vector_4'> +4.0885996e-06 </wgt>
<wgt id='morphing_basis_vector_5'> +6.7984086e-06 </wgt>
</rwgt>
</event>
<event>
 4      1 +7.6845000e-11 4.86426400e+03 7.81860800e-03 7.40347500e-02
        2 -1    0    0  501    0 +0.0000000000e+00 +0.0000000000e+00 +3.4335006434e+03 3.4335006434e+03 0.0000000000e+00 0.0000e+00 1.0000e+00
       -2 -1    0    0    0  501 -0.0000000000e+00 -0.0000000000e+00 -1.7228088633e+03 1.7228088633e+03 0.0000000000e+00 0.0000e+00 -1.0000e+00
      -13  1    1    2    0    0 -1.9486445087e+03 -1.2404681340e+03 +4.8539357801e+01 2.3104832140e+03 0.0000000000e+00 0.0000e+00 -1.0000e+00
       13  1    1    2    0    0 +1.9486445087e+03 +1.2404681340e+03 +1.6621524224e+03 2.8458262927e+03 0.0000000000e+00 0.0000e+00 1.0000e+00
<mgrwt>
<rscale>  0 0.48642637E+04</rscale>
<asrwt>0</asrwt>
<pdfrwt beam="1">  1        2 0.52823087E+00 0.48642637E+04</pdfrwt>
<pdfrwt beam="2">  1       -2 0.26504752E+00 0.48642637E+04</pdfrwt>
<totfact> 0.32398968E-02</totfact>
</mgrwt>
<rwgt>
<wgt id='morphing_basis_vector_1'> +5.8904439e-06 </wgt>
<wgt id='morphing_basis_vector_2'> +4.1418464e-06 </wgt>
<wgt id='morphing_basis_vector_3'> +6.5190175e-06 </wgt>
<wgt id='morphing_basis_vector_4'> +4.5025522e-06 </wgt>
<wgt id='morphing_basis_vector_5'> +7.3820826e-06 </wgt>
</rwgt>
</event>
<event>
 4      1 +7.6845000e-11 4.92011800e+03 7.81860800e-03 7.39561300e-02
        2 -1    0    0  501    0 +0.0000000000e+00 +0.0000000000e+00 +3.9259005909e+03 3.9259005909e+03 0.0000000000e+00 0.0000e+00 -1.0000e+00
       -2 -1    0    0    0  501 -0.0000000000e+00 -0.0000000000e+00 -1.5415293632e+03 1.5415293632e+03 0.0000000000e+00 0.0000e+00 1.0000e+00
      -13  1    1    2    0    0 +6.3137136506e+01 +1.3959064773e+03 -1.0577245303e+03 1.7525188653e+03 0.0000000000e+00 0.0000e+00 1.0000e+00
       13  1    1    2    0    0 -6.3137136506e+01 -1.3959064773e+03 +3.4420957579e+03 3.7149110888e+03 0.0000000000e+00 0.0000e+00 -1.0000e+00
<mgrwt>
<rscale>  0 0.49201183E+04</rscale>
<asrwt>0</asrwt>
<pdfrwt beam="1">  1        2 0.60398470E+00 0.49201183E+04</pdfrwt>
<pdfrwt beam="2">  1       -2 0.23715836E+00 0.49201183E+04</pdfrwt>
<totfact> 0.20933574E-02</totfact>
</mgrwt>
<rwgt>
<wgt id='morphing_basis_vector_1'> +6.1008334e-06 </wgt>
<wgt id='morphing_basis_vector_2'> +4.1474551e-06 </wgt>
<wgt id='morphing_basis_vector_3'> +6.7199849e-06 </wgt>
<wgt id='morphing_basis_vector_4'> +4.8497171e-06 </wgt>
<wgt id='morphing_basis_vector_5'> +7.7396002e-06 </wgt>
</rwgt>
</event>
<event>
 4      1 +7.6845000e-11 5.51917700e+03 7.81860800e-03 7.31744700e-02
        2 -1    0    0  501    0 +0.0000000000e+00 +0.0000000000e+00 +1.4883662304e+03 1.4883662304e+03 0.0000000000e+00 0.0000e+00 -1.0000e+00
       -2 -1    0    0    0  501 -0.0000000000e+00 -0.0000000000e+00 -5.1165695472e+03 5.1165695472e+03 0.0000000000e+00 0.0000e+00 1.0000e+00
      -13  1    1    2    0    0 +2.7280465220e+03 +4.1600125243e+02 -1.8211269121e+03 3.3063269799e+03 0.0000000000e+00 0.0000e+00 1.0000e+00
       13  1    1    2    0    0 -2.7280465220e+03 -4.1600125243e+02 -1.8070764047e+03 3.2986087977e+03 0.0000000000e+00 0.0000e+00 -1.0000e+00
<mgrwt>
<rscale>  0 0.55191772E+04</rscale>
<asrwt>0</asrwt>
<pdfrwt beam="1">  1        2 0.22897941E+00 0.55191772E+04</pdfrwt>
<pdfrwt beam="2">  1       -2 0.78716457E+00 0.55191772E+04</pdfrwt>
<totfact> 0.11230194E-03</totfact>
</mgrwt>
<rwgt>
<wgt id='morphing_basis_vector_1'> +9.9952976e-06 </wgt>
<wgt id='morphing_basis_vector_2'> +7.5869470e-06 </wgt>
<wgt id='morphing_basis_vector_3'> +1.1207318e-05 </wgt>
<wgt id='morphing_basis_vector_4'> +6.9447471e-06 </wgt>
<wgt id='morphing_basis_vector_5'> +1.2208965e-05 </wgt>
</rwgt>
</event>
<event>
 4      1 +7.6845000e-11 5.05673000e+03 7.81860800e-03 7.37681800e-02
        2 -1    0    0  501    0 +0.0000000000e+00 +0.0000000000e+00 +2.4986604710e+03 2.4986604710e+03 0.0000000000e+00 0.0000e+00 1.0000e+00
       -2 -1    0    0    0  501 -0.0000000000e+00 -0.0000000000e+00 -2.5584225987e+03 2.5584225987e+03 0.0000000000e+00 0.0000e+00 -1.0000e+00
      -13  1    1    2    0    0 -1.4940939361e+03 -7.3660035410e+02 -1.9320477084e+03 2.5510204074e+03 0.0000000000e+00 0.0000e+00 -1.0000e+00
       13  1    1    2    0    0 +1.4940939361e+03 +7.3660035410e+02 +1.8722855808e+03 2.5060626623e+03 0.0000000000e+00 0.0000e+00 1.0000e+00
<mgrwt>
<rscale>  0 0.50567299E+04</rscale>
<asrwt>0</asrwt>
<pdfrwt beam="1">  1        2 0.38440930E+00 0.50567299E+04</pdfrwt>
<pdfrwt beam="2">  1       -2 0.39360348E+00 0.50567299E+04</pdfrwt>
<totfact> 0.18335887E-02</totfact>
</mgrwt>
<rwgt>
<wgt id='morphing_basis_vector_1'> +6.8076246e-06 </wgt>
<wgt id='morphing_basis_vector_2'> +4.6355622e-06 </wgt>
<wgt id='morphing_basis_vector_3'> +7.5025675e-06 </wgt>
<wgt id='morphing_basis_vector_4'> +5.4068060e-06 </wgt>
<wgt id='morphing_basis_vector_5'> +8.6381495e-06 </wgt>
</rwgt>
</event>
<event>
 4      1 +7.6845000e-11 5.41997200e+03 7.81860800e-03 7.32966900e-02
        2 -1    0    0  501    0 +0.0000000000e+00 +0.0000000000e+00 +4.3956397991e+03 4.3956397991e+03 0.0000000000e+00 0.0000e+00 1.0000e+00
       -2 -1    0    0    0  501 -0.0000000000e+00 -0.0000000000e+00 -1.6707518374e+03 1.6707518374e+03 0.0000000000e+00 0.0000e+00 -1.0000e+00
      -13  1    1    2    0    0 +3.9991802193e+02 +2.3712374843e+03 -3.6111230710e+01 2.4049959776e+03 0.0000000000e+00 0.0000e+00 -1.0000e+00
       13  1    1    2    0    0 -3.9991802193e+02 -2.3712374843e+03 +2.7609991924e+03 3.6613956590e+03 0.0000000000e+00 0.0000e+00 1.0000e+00
<mgrwt>
<rscale>  0 0.54199717E+04</rscale>
<asrwt>0</asrwt>
<pdfrwt beam="1">  1        2 0.67625227E+00 0.54199717E+04</pdfrwt>
<pdfrwt beam="2">  1       -2 0.25703875E+00 0.54199717E+04</pdfrwt>
<totfact> 0.55044704E-03</totfact>
</mgrwt>
<rwgt>
<wgt id='morphing_basis_vector_1'> +9.0190717e-06 </wgt>
<wgt id='morphing_basis_vector_2'> +6.2388222e-06 </wgt>
<wgt id='morphing_basis_vector_3'> +9.9694658e-06 </wgt>
<wgt id='morphing_basis_vector_4'> +7.0522238e-06 </wgt>
<wgt id='morphing_basis_vector_5'> +1.1402314e-05 </wgt>
</rwgt>
</event>
<event>
 4      1 +7.6845000e-11 5.09198600e+03 7.81860800e-03 7.37206700e-02
        2 -1    0    0  501    0 +0.0000000000e+00 +0.0000000000e+00 +4.2880341219e+03 4.2880341219e+03 0.0000000000e+00 0.0000e+00 1.0000e+00
       -2 -1    0    0    0  501 -0.0000000000e+00 -0.0000000000e+00 -1.5116674237e+03 1.5116674237e+03 0.0000000000e+00 0.0000e+00 -1.0000e+00
      -13  1    1    2    0    0 -1.6888455342e+03 +5.2745110282e+02 -6.9702533022e+02 1.9016435563e+03 0.0000000000e+00 0.0000e+00 -1.0000e+00
       13  1    1    2    0    0 +1.6888455342e+03 -5.2745110282e+02 +3.4733920284e+03 3.8980579892e+03 0.0000000000e+00 0.0000e+00 1.0000e+00
<mgrwt>
<rscale>  0 0.50919864E+04</rscale>
<asrwt>0</asrwt>
<pdfrwt beam="1">  1        2 0.65969755E+00 0.50919864E+04</pdfrwt>
<pdfrwt beam="2">  1       -2 0.23256422E+00 0.50919864E+04</pdfrwt>
<totfact> 0.10616591E-02</totfact>
</mgrwt>
<rwgt>
<wgt id='morphing_basis_vector_1'> +7.0007654e-06 </wgt>
<wgt id='morphing_basis_vector_2'> +4.7716432e-06 </wgt>
<wgt id='morphing_basis_vector_3'> +7.7170618e-06 </wgt>
<wgt id='morphing_basis_vector_4'> +5.5555721e-06 </wgt>
<wgt id='morphing_basis_vector_5'> +8.8820066e-06 </wgt>
</rwgt>
</event>
<event>
 4      1 +7.6845000e-11 4.98822700e+03 7.81860800e-03 7.38616600e-02
        2 -1    0    0  501    0 +0.0000000000e+00 +0.0000000000e+00 +3.2417278538e+03 3.2417278538e+03 0.0000000000e+00 0.0000e+00 -1.0000e+00
       -2 -1    0    0    0  501 -0.0000000000e+00 -0.0000000000e+00 -1.9189159125e+03 1.9189159125e+03 0.0000000000e+00 0.0000e+00 1.0000e+00
      -13  1    1    2    0    0 -3.5661238306e+02 +7.2297554476e+02 -1.7804158482e+03 1.9544172079e+03 0.0000000000e+00 0.0000e+00 1.0000e+00
       13  1    1    2    0    0 +3.5661238306e+02 -7.2297554476e+02 +3.1032277895e+03 3.2062265584e+03 0.0000000000e+00 0.0000e+00 -1.0000e+00
<mgrwt>
<rscale>  0 0.49882274E+04</rscale>
<asrwt>0</asrwt>
<pdfrwt beam="1">  1        2 0.49872736E+00 0.49882274E+04</pdfrwt>
<pdfrwt beam="2">  1       -2 0.29521783E+00 0.49882274E+04</pdfrwt>
<totfact> 0.27286137E-02</totfact>
</mgrwt>
<rwgt>
<wgt id='morphing_basis_vector_1'> +6.4422632e-06 </wgt>
<wgt id='morphing_basis_vector_2'> +4.3749126e-06 </wgt>
<wgt id='morphing_basis_vector_3'> +7.0960988e-06 </wgt>
<wgt id='morphing_basis_vector_4'> +5.1296260e-06 </wgt>
<wgt id='morphing_basis_vector_5'> +8.1789975e-06 </wgt>
</rwgt>
</event>
<event>
 4      1 +7.6845000e-11 5.36304900e+03 7.81860800e-03 7.33680300e-02
        2 -1    0    0  501    0 +0.0000000000e+00 +0.0000000000e+00 +3.4773278668e+03 3.4773278668e+03 0.0000000000e+00 0.0000e+00 -1.0000e+00
       -2 -1    0    0    0  501 -0.0000000000e+00 -0.0000000000e+00 -2.0678447115e+03 2.0678447115e+03 0.0000000000e+00 0.0000e+00 1.0000e+00
      -13  1    1    2    0    0 +2.4641447452e+03 -8.7938785889e+02 +9.7215508926e+01 2.6181640871e+03 0.0000000000e+00 0.0000e+00 1.0000e+00
       13  1    1    2    0    0 -2.4641447452e+03 +8.7938785889e+02 +1.3122676464e+03 2.9270084912e+03 0.0000000000e+00 0.0000e+00 -1.0000e+00
<mgrwt>
<rscale>  0 0.53630491E+04</rscale>
<asrwt>0</asrwt>
<pdfrwt beam="1">  1        2 0.53497352E+00 0.53630491E+04</pdfrwt>
<pdfrwt beam="2">  1       -2 0.31812995E+00 0.53630491E+04</pdfrwt>
<totfact> 0.12682633E-02</totfact>
</mgrwt>
<rwgt>
<wgt id='morphing_basis_vector_1'> +8.7379990e-06 </wgt>
<wgt id='morphing_basis_vector_2'> +6.2478768e-06 </wgt>
<wgt id='morphing_basis_vector_3'> +9.7050911e-06 </wgt>
<wgt id='morphing_basis_vector_4'> +6.5659279e-06 </wgt>
<wgt id='morphing_basis_vector_5'> +1.0913266e-05 </wgt>
</rwgt>
</event>
<event>
 4      1 +7.6845000e-11 5.19287700e+03 7.81860800e-03 7.35868400e-02
        2 -1    0    0  501    0 +0.0000000000e+00 +0.0000000000e+00 +3.2483767734e+03 3.2483767734e+03 0.0000000000e+00 0.0000e+00 -1.0000e+00
       -2 -1    0    0    0  501 -0.0000000000e+00 -0.0000000000e+00 -2.0753420415e+03 2.0753420415e+03 0.0000000000e+00 0.0000e+00 1.0000e+00
      -13  1    1    2    0    0 +1.9079158470e+03 -1.7307964756e+03 +9.1981432204e+02 2.7352984675e+03 0.0000000000e+00 0.0000e+00 1.0000e+00
       13  1    1    2    0    0 -1.9079158470e+03 +1.7307964756e+03 +2.5322040989e+02 2.5884203475e+03 0.0000000000e+00 0.0000e+00 -1.0000e+00
<mgrwt>
<rscale>  0 0.51928770E+04</rscale>
<asrwt>0</asrwt>
<pdfrwt beam="1">  1        2 0.49975027E+00 0.51928770E+04</pdfrwt>
<pdfrwt beam="2">  1       -2 0.31928339E+00 0.51928770E+04</pdfrwt>
<totfact> 0.18334095E-02</totfact>
</mgrwt>
<rwgt>
<wgt id='morphing_basis_vector_1'> +7.9947221e-06 </wgt>
<wgt id='morphing_basis_vector_2'> +6.4064475e-06 </wgt>
<wgt id='morphing_basis_vector_3'> +9.0364637e-06 </wgt>
<wgt id='morphing_basis_vector_4'> +5.1057110e-06 </wgt>
<wgt id='morphing_basis_vector_5'> +9.5334917e-06 </wgt>
</rwgt>
</event>
<event>
 4      1 +7.6845000e-11 4.81200300e+03 7.81860800e-03 7.41092900e-02
        2 -1    0    0  501    0 +0.0000000000e+00 +0.0000000000e+00 +2.0819068166e+03 2.0819068166e+03 0.0000000000e+00 0.0000e+00 -1.0000e+00
       -2 -1    0    0    0  501 -0.0000000000e+00 -0.0000000000e+00 -2.7805486369e+03 2.7805486369e+03 0.0000000000e+00 0.0000e+00 1.0000e+00
      -13  1    1    2    0    0 +1.2951242373e+03 +7.4773192283e+02 -2.2538616721e+03 2.7048737966e+03 0.0000000000e+00 0.0000e+00 1.0000e+00
       13  1    1    2    0    0 -1.2951242373e+03 -7.4773192283e+02 +1.5552198519e+03 2.1575816569e+03 0.0000000000e+00 0.0000e+00 -1.0000e+00
<mgrwt>
<rscale>  0 0.48120030E+04</rscale>
<asrwt>0</asrwt>
<pdfrwt beam="1">  1        2 0.32029336E+00 0.48120030E+04</pdfrwt>
<pdfrwt beam="2">  1       -2 0.42777671E+00 0.48120030E+04</pdfrwt>
<totfact> 0.19407776E-02</totfact>
</mgrwt>
<rwgt>
<wgt id='morphing_basis_vector_1'> +5.5849435e-06 </wgt>
<wgt id='morphing_basis_vector_2'> +3.7987722e-06 </wgt>
<wgt id='morphing_basis_vector_3'> +6.1505967e-06 </wgt>
<wgt id='morphing_basis_vector_4'> +4.4334180e-06 </wgt>
<wgt id='morphing_basis_vector_5'> +7.0790886e-06 </wgt>
</rwgt>
</event>
<event>
 4      1 +7.6845000e-11 4.63218400e+03 7.81860800e-03 7.43732100e-02
        2 -1    0    0  501    0 +0.0000000000e+00 +0.0000000000e+00 +2.7995261537e+03 2.7995261537e+03 0.0000000000e+00 0.0000e+00 -1.0000e+00
       -2 -1    0    0    0  501 -0.0000000000e+00 -0.0000000000e+00 -1.9161390834e+03 1.9161390834e+03 0.0000000000e+00 0.0000e+00 1.0000e+00
      -13  1    1    2    0    0 -7.6128198215e+02 +2.0339212463e+02 -1.7754834760e+03 1.9424881432e+03 0.0000000000e+00 0.0000e+00 1.0000e+00
       13  1    1    2    0    0 +7.6128198215e+02 -2.0339212463e+02 +2.6588705463e+03 2.7731770940e+03 0.0000000000e+00 0.0000e+00 -1.0000e+00
<mgrwt>
<rscale>  0 0.46321837E+04</rscale>
<asrwt>0</asrwt>
<pdfrwt beam="1">  1        2 0.43069633E+00 0.46321837E+04</pdfrwt>
<pdfrwt beam="2">  1       -2 0.29479063E+00 0.46321837E+04</pdfrwt>
<totfact> 0.55059418E-02</totfact>
</mgrwt>
<rwgt>
<wgt id='morphing_basis_vector_1'> +4.7957620e-06 </wgt>
<wgt id='morphing_basis_vector_2'> +3.2547810e-06 </wgt>
<wgt id='morphing_basis_vector_3'> +5.2773193e-06 </wgt>
<wgt id='morphing_basis_vector_4'> +3.8106865e-06 </wgt>
<wgt id='morphing_basis_vector_5'> +6.0759725e-06 </wgt>
</rwgt>
</event>
<event>
 4      1 +7.6845000e-11 5.33822500e+03 7.81860800e-03 7.33994300e-02
        2 -1    0    0  501    0 +0.0000000000e+00 +0.0000000000e+00 +2.9564264706e+03 2.9564264706e+03 0.0000000000e+00 0.0000e+00 1.0000e+00
       -2 -1    0    0    0  501 -0.0000000000e+00 -0.0000000000e+00 -2.4097204518e+03 2.4097204518e+03 0.0000000000e+00 0.0000e+00 -1.0000e+00
      -13  1    1    2    0    0 -1.1839278870e+03 +1.0793223063e+03 +2.4193588960e+03 2.9017097288e+03 0.0000000000e+00 0.0000e+00 1.0000e+00
       13  1    1    2    0    0 +1.1839278870e+03 -1.0793223063e+03 -1.8726528772e+03 2.4644371935e+03 0.0000000000e+00 0.0000e+00 -1.0000e+00
<mgrwt>
<rscale>  0 0.53382249E+04</rscale>
<asrwt>0</asrwt>
<pdfrwt beam="1">  1        2 0.45483484E+00 0.53382249E+04</pdfrwt>
<pdfrwt beam="2">  1       -2 0.37072622E+00 0.53382249E+04</pdfrwt>
<totfact> 0.13119166E-02</totfact>
</mgrwt>
<rwgt>
<wgt id='morphing_basis_vector_1'> +1.1258423e-05 </wgt>
<wgt id='morphing_basis_vector_2'> +1.4003674e-05 </wgt>
<wgt id='morphing_basis_vector_3'> +1.3887621e-05 </wgt>
<wgt id='morphing_basis_vector_4'> +7.2419898e-07 </wgt>
<wgt id='morphing_basis_vector_5'> +1.0231838e-05 </wgt>
</rwgt>
</event>
<event>
 4      1 +7.6845000e-11 4.77146100e+03 7.81860800e-03 7.41677700e-02
        2 -1    0    0  501    0 +0.0000000000e+00 +0.0000000000e+00 +2.8663332350e+03 2.8663332350e+03 0.0000000000e+00 0.0000e+00 -1.0000e+00
       -2 -1    0    0    0  501 -0.0000000000e+00 -0.0000000000e+00 -1.9857111109e+03 1.9857111109e+03 0.0000000000e+00 0.0000e+00 1.0000e+00
      -13  1    1    2    0    0 -6.9306077449e+02 -8.4921397977e+02 -1.7144882226e+03 2.0349367277e+03 0.0000000000e+00 0.0000e+00 1.0000e+00
       13  1    1    2    0    0 +6.9306077449e+02 +8.4921397977e+02 +2.5951103467e+03 2.8171076182e+03 0.0000000000e+00 0.0000e+00 -1.0000e+00
<mgrwt>
<rscale>  0 0.47714609E+04</rscale>
<asrwt>0</asrwt>
<pdfrwt beam="1">  1        2 0.44097434E+00 0.47714609E+04</pdfrwt>
<pdfrwt beam="2">  1       -2 0.30549402E+00 0.47714609E+04</pdfrwt>
<totfact> 0.41868746E-02</totfact>
</mgrwt>
<rwgt>
<wgt id='morphing_basis_vector_1'> +5.3972699e-06 </wgt>
<wgt id='morphing_basis_vector_2'> +3.6652640e-06 </wgt>
<wgt id='morphing_basis_vector_3'> +5.9419591e-06 </wgt>
<wgt id='morphing_basis_vector_4'> +4.2906644e-06 </wgt>
<wgt id='morphing_basis_vector_5'> +6.8431570e-06 </wgt>
</rwgt>
</event>
<event>
 4      1 +7.6845000e-11 4.98809400e+03 7.81860800e-03 7.38618400e-02
        2 -1    0    0  501    0 +0.0000000000e+00 +0.0000000000e+00 +2.5263207234e+03 2.5263207234e+03 0.0000000000e+00 0.0000e+00 1.0000e+00
       -2 -1    0    0    0  501 -0.0000000000e+00 -0.0000000000e+00 -2.4621854490e+03 2.4621854490e+03 0.0000000000e+00 0.0000e+00 -1.0000e+00
      -13  1    1    2    0    0 -1.6609061246e+03 -1.7088491345e+03 -7.0385703643e+02 2.4847915903e+03 0.0000000000e+00 0.0000e+00 -1.0000e+00
       13  1    1    2    0    0 +1.6609061246e+03 +1.7088491345e+03 +7.6799231088e+02 2.5037145821e+03 0.0000000000e+00 0.0000e+00 1.0000e+00
<mgrwt>
<rscale>  0 0.49880939E+04</rscale>
<asrwt>0</asrwt>
<pdfrwt beam="1">  1        2 0.38866472E+00 0.49880939E+04</pdfrwt>
<pdfrwt beam="2">  1       -2 0.37879776E+00 0.49880939E+04</pdfrwt>
<totfact> 0.22127516E-02</totfact>
</mgrwt>
<rwgt>
<wgt id='morphing_basis_vector_1'> +6.5169007e-06 </wgt>
<wgt id='morphing_basis_vector_2'> +4.5956511e-06 </wgt>
<wgt id='morphing_basis_vector_3'> +7.2175668e-06 </wgt>
<wgt id='morphing_basis_vector_4'> +4.9685907e-06 </wgt>
<wgt id='morphing_basis_vector_5'> +8.1646661e-06 </wgt>
</rwgt>
</event>
<event>
 4      1 +7.6845000e-11 5.05915200e+03 7.81860800e-03 7.37649100e-02
        2 -1    0    0  501    0 +0.0000000000e+00 +0.0000000000e+00 +4.4354915143e+03 4.4354915143e+03 0.0000000000e+00 0.0000e+00 1.0000e+00
       -2 -1    0    0    0  501 -0.0000000000e+00 -0.0000000000e+00 -1.4426258827e+03 1.4426258827e+03 0.0000000000e+00 0.0000e+00 -1.0000e+00
      -13  1    1    2    0    0 +1.3989302601e+03 -2.0318890010e+03 +8.4622106694e+02 2.6080009354e+03 0.0000000000e+00 0.0000e+00 1.0000e+00
       13  1    1    2    0    0 -1.3989302601e+03 +2.0318890010e+03 +2.1466445647e+03 3.2701164616e+03 0.0000000000e+00 0.0000e+00 -1.0000e+00
<mgrwt>
<rscale>  0 0.50591520E+04</rscale>
<asrwt>0</asrwt>
<pdfrwt beam="1">  1        2 0.68238330E+00 0.50591520E+04</pdfrwt>
<pdfrwt beam="2">  1       -2 0.22194245E+00 0.50591520E+04</pdfrwt>
<totfact> 0.90750743E-03</totfact>
</mgrwt>
<rwgt>
<wgt id='morphing_basis_vector_1'> +6.9234725e-06 </wgt>
<wgt id='morphing_basis_vector_2'> +4.9464264e-06 </wgt>
<wgt id='morphing_basis_vector_3'> +7.6839147e-06 </wgt>
<wgt id='morphing_basis_vector_4'> +5.1980234e-06 </wgt>
<wgt id='morphing_basis_vector_5'> +8.6363841e-06 </wgt>
</rwgt>
</event>
<event>
 4      1 +7.6845000e-11 5.26099300e+03 7.81860800e-03 7.34982400e-02
        2 -1    0    0  501    0 +0.0000000000e+00 +0.0000000000e+00 +1.1710882115e+03 1.1710882115e+03 0.0000000000e+00 0.0000e+00 -1.0000e+00
       -2 -1    0    0    0  501 -0.0000000000e+00 -0.0000000000e+00 -5.9086180918e+03 5.9086180918e+03 0.0000000000e+00 0.0000e+00 1.0000e+00
      -13  1    1    2    0    0 -2.0855918433e+03 +3.0791167336e+02 -4.4858385839e+03 4.9565361631e+03 0.0000000000e+00 0.0000e+00 1.0000e+00
       13  1    1    2    0    0 +2.0855918433e+03 -3.0791167336e+02 -2.5169129629e+02 2.1231701402e+03 0.0000000000e+00 0.0000e+00 -1.0000e+00
<mgrwt>
<rscale>  0 0.52609934E+04</rscale>
<asrwt>0</asrwt>
<pdfrwt beam="1">  1        2 0.18016742E+00 0.52609934E+04</pdfrwt>
<pdfrwt beam="2">  1       -2 0.90901816E+00 0.52609934E+04</pdfrwt>
<totfact> 0.25743096E-04</totfact>
</mgrwt>
<rwgt>
<wgt id='morphing_basis_vector_1'> +7.9861009e-06 </wgt>
<wgt id='morphing_basis_vector_2'> +5.4711171e-06 </wgt>
<wgt id='morphing_basis_vector_3'> +8.8126842e-06 </wgt>
<wgt id='morphing_basis_vector_4'> +6.3079427e-06 </wgt>
<wgt id='morphing_basis_vector_5'> +1.0123030e-05 </wgt>
</rwgt>
</event>
<event>
 4      1 +7.6845000e-11 4.68922900e+03 7.81860800e-03 7.42882000e-02
        2 -1    0    0  501    0 +0.0000000000e+00 +0.0000000000e+00 +2.9554270255e+03 2.9554270255e+03 0.0000000000e+00 0.0000e+00 -1.0000e+00
       -2 -1    0    0    0  501 -0.0000000000e+00 -0.0000000000e+00 -1.8600416036e+03 1.8600416036e+03 0.0000000000e+00 0.0000e+00 1.0000e+00
      -13  1    1    2    0    0 -3.9000555950e+02 -1.7156274074e+03 -1.0437818481e+03 2.0457180363e+03 0.0000000000e+00 0.0000e+00 1.0000e+00
       13  1    1    2    0    0 +3.9000555950e+02 +1.7156274074e+03 +2.1391672700e+03 2.7697505929e+03 0.0000000000e+00 0.0000e+00 -1.0000e+00
<mgrwt>
<rscale>  0 0.46892290E+04</rscale>
<asrwt>0</asrwt>
<pdfrwt beam="1">  1        2 0.45468108E+00 0.46892290E+04</pdfrwt>
<pdfrwt beam="2">  1       -2 0.28616025E+00 0.46892290E+04</pdfrwt>
<totfact> 0.49897611E-02</totfact>
</mgrwt>
<rwgt>
<wgt id='morphing_basis_vector_1'> +5.0438049e-06 </wgt>
<wgt id='morphing_basis_vector_2'> +3.4423346e-06 </wgt>
<wgt id='morphing_basis_vector_3'> +5.5555433e-06 </wgt>
<wgt id='morphing_basis_vector_4'> +3.9848657e-06 </wgt>
<wgt id='morphing_basis_vector_5'> +6.3805060e-06 </wgt>
</rwgt>
</event>
<event>
 4      1 +7.6845000e-11 4.85363100e+03 7.81860800e-03 7.40498400e-02
        2 -1    0    0  501    0 +0.0000000000e+00 +0.0000000000e+00 +2.1158045237e+03 2.1158045237e+03 0.0000000000e+00 0.0000e+00 -1.0000e+00
       -2 -1    0    0    0  501 -0.0000000000e+00 -0.0000000000e+00 -2.7835434907e+03 2.7835434907e+03 0.0000000000e+00 0.0000e+00 1.0000e+00
      -13  1    1    2    0    0 +1.6744042316e+03 +3.2309385184e+02 -2.0768105994e+03 2.6872218803e+03 0.0000000000e+00 0.0000e+00 1.0000e+00
       13  1    1    2    0    0 -1.6744042316e+03 -3.2309385184e+02 +1.4090716324e+03 2.2121261341e+03 0.0000000000e+00 0.0000e+00 -1.0000e+00
<mgrwt>
<rscale>  0 0.48536312E+04</rscale>
<asrwt>0</asrwt>
<pdfrwt beam="1">  1        2 0.32550839E+00 0.48536312E+04</pdfrwt>
<pdfrwt beam="2">  1       -2 0.42823746E+00 0.48536312E+04</pdfrwt>
<totfact> 0.18376612E-02</totfact>
</mgrwt>
<rwgt>
<wgt id='morphing_basis_vector_1'> +5.7832331e-06 </wgt>
<wgt id='morphing_basis_vector_2'> +3.9411739e-06 </wgt>
<wgt id='morphing_basis_vector_3'> +6.3713574e-06 </wgt>
<wgt id='morphing_basis_vector_4'> +4.5825264e-06 </wgt>
<wgt id='morphing_basis_vector_5'> +7.3275328e-06 </wgt>
</rwgt>
</event>
<event>
 4      1 +7.6845000e-11 4.62085300e+03 7.81860800e-03 7.43902400e-02
        2 -1    0    0  501    0 +0.0000000000e+00 +0.0000000000e+00 +2.1812632287e+03 2.1812632287e+03 0.0000000000e+00 0.0000e+00 -1.0000e+00
       -2 -1    0    0    0  501 -0.0000000000e+00 -0.0000000000e+00 -2.4472380109e+03 2.4472380109e+03 0.0000000000e+00 0.0000e+00 1.0000e+00
      -13  1    1    2    0    0 -5.2992392238e+02 -2.1616920204e+03 -7.5396395145e+02 2.3499347639e+03 0.0000000000e+00 0.0000e+00 1.0000e+00
       13  1    1    2    0    0 +5.2992392238e+02 +2.1616920204e+03 +4.8798916924e+02 2.2785664756e+03 0.0000000000e+00 0.0000e+00 -1.0000e+00
<mgrwt>
<rscale>  0 0.46208529E+04</rscale>
<asrwt>0</asrwt>
<pdfrwt beam="1">  1        2 0.33557896E+00 0.46208529E+04</pdfrwt>
<pdfrwt beam="2">  1       -2 0.37649816E+00 0.46208529E+04</pdfrwt>
<totfact> 0.37485256E-02</totfact>
</mgrwt>
<rwgt>
<wgt id='morphing_basis_vector_1'> +4.8112866e-06 </wgt>
<wgt id='morphing_basis_vector_2'> +3.4055120e-06 </wgt>
<wgt id='morphing_basis_vector_3'> +5.3263136e-06 </wgt>
<wgt id='morphing_basis_vector_4'> +3.6413845e-06 </wgt>
<wgt id='morphing_basis_vector_5'> +6.0054751e-06 </wgt>
</rwgt>
</event>
<event>
 4      1 +7.6845000e-11 4.71853900e+03 7.81860800e-03 7.42449900e-02
        2 -1    0    0  501    0 +0.0000000000e+00 +0.0000000000e+00 +3.3380122939e+03 3.3380122939e+03 0.0000000000e+00 0.0000e+00 -1.0000e+00
       -2 -1    0    0    0  501 -0.0000000000e+00 -0.0000000000e+00 -1.6675050604e+03 1.6675050604e+03 0.0000000000e+00 0.0000e+00 1.0000e+00
      -13  1    1    2    0    0 -1.6915096651e+03 +1.6013501562e+03 +1.2330610422e+03 2.6355202150e+03 0.0000000000e+00 0.0000e+00 1.0000e+00
       13  1    1    2    0    0 +1.6915096651e+03 -1.6013501562e+03 +4.3744619128e+02 2.3699971393e+03 0.0000000000e+00 0.0000e+00 -1.0000e+00
<mgrwt>
<rscale>  0 0.47185389E+04</rscale>
<asrwt>0</asrwt>
<pdfrwt beam="1">  1        2 0.51354035E+00 0.47185389E+04</pdfrwt>
<pdfrwt beam="2">  1       -2 0.25653924E+00 0.47185389E+04</pdfrwt>
<totfact> 0.43838170E-02</totfact>
</mgrwt>
<rwgt>
<wgt id='morphing_basis_vector_1'> +5.4930546e-06 </wgt>
<wgt id='morphing_basis_vector_2'> +4.4761587e-06 </wgt>
<wgt id='morphing_basis_vector_3'> +6.2176794e-06 </wgt>
<wgt id='morphing_basis_vector_4'> +3.3998710e-06 </wgt>
<wgt id='morphing_basis_vector_5'> +6.4846929e-06 </wgt>
</rwgt>
</event>
<event>
 4      1 +7.6845000e-11 5.13750000e+03 7.81860800e-03 7.36599100e-02
        2 -1    0    0  501    0 +0.0000000000e+00 +0.0000000000e+00 +3.4547782808e+03 3.4547782808e+03 0.0000000000e+00 0.0000e+00 -1.0000e+00
       -2 -1    0    0    0  501 -0.0000000000e+00 -0.0000000000e+00 -1.9099566969e+03 1.9099566969e+03 0.0000000000e+00 0.0000e+00 1.0000e+00
      -13  1    1    2    0    0 -1.6278619502e+03 -1.9615980360e+03 +4.4108260165e+02 2.5869586864e+03 0.0000000000e+00 0.0000e+00 1.0000e+00
       13  1    1    2    0    0 +1.6278619502e+03 +1.9615980360e+03 +1.1037389823e+03 2.7777762913e+03 0.0000000000e+00 0.0000e+00 -1.0000e+00
<mgrwt>
<rscale>  0 0.51375001E+04</rscale>
<asrwt>0</asrwt>
<pdfrwt beam="1">  1        2 0.53150435E+00 0.51375001E+04</pdfrwt>
<pdfrwt beam="2">  1       -2 0.29383949E+00 0.51375001E+04</pdfrwt>
<totfact> 0.19496250E-02</totfact>
</mgrwt>
<rwgt>
<wgt id='morphing_basis_vector_1'> +7.4146240e-06 </wgt>
<wgt id='morphing_basis_vector_2'> +5.4170715e-06 </wgt>
<wgt id='morphing_basis_vector_3'> +8.2581796e-06 </wgt>
<wgt id='morphing_basis_vector_4'> +5.4142242e-06 </wgt>
<wgt id='morphing_basis_vector_5'> +9.1760494e-06 </wgt>
</rwgt>
</event>
<event>
 4      1 +7.6845000e-11 4.70729600e+03 7.81860800e-03 7.42615300e-02
        2 -1    0    0  501    0 +0.0000000000e+00 +0.0000000000e+00 +3.8579626591e+03 3.8579626591e+03 0.0000000000e+00 0.0000e+00 -1.0000e+00
       -2 -1    0    0    0  501 -0.0000000000e+00 -0.0000000000e+00 -1.4359025559e+03 1.4359025559e+03 0.0000000000e+00 0.0000e+00 1.0000e+00
      -13  1    1    2    0    0 -9.3807906653e+01 +1.0524790587e+03 -1.1541654509e+03 1.5648034958e+03 0.0000000000e+00 0.0000e+00 1.0000e+00
       13  1    1    2    0    0 +9.3807906653e+01 -1.0524790587e+03 +3.5762255540e+03 3.7290617192e+03 0.0000000000e+00 0.0000e+00 -1.0000e+00
<mgrwt>
<rscale>  0 0.47072958E+04</rscale>
<asrwt>0</asrwt>
<pdfrwt beam="1">  1        2 0.59353271E+00 0.47072958E+04</pdfrwt>
<pdfrwt beam="2">  1       -2 0.22090809E+00 0.47072958E+04</pdfrwt>
<totfact> 0.31493975E-02</totfact>
</mgrwt>
<rwgt>
<wgt id='morphing_basis_vector_1'> +5.1136912e-06 </wgt>
<wgt id='morphing_basis_vector_2'> +3.4721070e-06 </wgt>
<wgt id='morphing_basis_vector_3'> +5.6286842e-06 </wgt>
<wgt id='morphing_basis_vector_4'> +4.0638747e-06 </wgt>
<wgt id='morphing_basis_vector_5'> +6.4811907e-06 </wgt>
</rwgt>
</event>
<event>
 4      1 +7.6845000e-11 4.80047300e+03 7.81860800e-03 7.41258600e-02
        2 -1    0    0  501    0 +0.0000000000e+00 +0.0000000000e+00 +3.1226824669e+03 3.1226824669e+03 0.0000000000e+00 0.0000e+00 1.0000e+00
       -2 -1    0    0    0  501 -0.0000000000e+00 -0.0000000000e+00 -1.8449313912e+03 1.8449313912e+03 0.0000000000e+00 0.0000e+00 -1.0000e+00
      -13  1    1    2    0    0 -1.7275222128e+02 -1.7518016608e+03 -1.0496482923e+03 2.0494911384e+03 0.0000000000e+00 0.0000e+00 -1.0000e+00
       13  1    1    2    0    0 +1.7275222128e+02 +1.7518016608e+03 +2.3273993681e+03 2.9181227197e+03 0.0000000000e+00 0.0000e+00 1.0000e+00
<mgrwt>
<rscale>  0 0.48004729E+04</rscale>
<asrwt>0</asrwt>
<pdfrwt beam="1">  1        2 0.48041269E+00 0.48004729E+04</pdfrwt>
<pdfrwt beam="2">  1       -2 0.28383560E+00 0.48004729E+04</pdfrwt>
<totfact> 0.39822861E-02</totfact>
</mgrwt>
<rwgt>
<wgt id='morphing_basis_vector_1'> +5.5366417e-06 </wgt>
<wgt id='morphing_basis_vector_2'> +3.7767778e-06 </wgt>
<wgt id='morphing_basis_vector_3'> +6.0997226e-06 </wgt>
<wgt id='morphing_basis_vector_4'> +4.3806230e-06 </wgt>
<wgt id='morphing_basis_vector_5'> +7.0103879e-06 </wgt>
</rwgt>
</event>
<event>
 4      1 +7.6845000e-11 4.68621000e+03 7.81860800e-03 7.42926600e-02
        2 -1    0    0  501    0 +0.0000000000e+00 +0.0000000000e+00 +3.3124418717e+03 3.3124418717e+03 0.0000000000e+00 0.0000e+00 -1.0000e+00
       -2 -1    0    0    0  501 -0.0000000000e+00 -0.0000000000e+00 -1.6574304785e+03 1.6574304785e+03 0.0000000000e+00 0.0000e+00 1.0000e+00
      -13  1    1    2    0    0 -9.7178318287e+02 +1.3550632715e+03 -9.1821468328e+02 1.9035958681e+03 0.0000000000e+00 0.0000e+00 1.0000e+00
       13  1    1    2    0    0 +9.7178318287e+02 -1.3550632715e+03 +2.5732260765e+03 3.0662764821e+03 0.0000000000e+00 0.0000e+00 -1.0000e+00
<mgrwt>
<rscale>  0 0.46862105E+04</rscale>
<asrwt>0</asrwt>
<pdfrwt beam="1">  1        2 0.50960644E+00 0.46862105E+04</pdfrwt>
<pdfrwt beam="2">  1       -2 0.25498931E+00 0.46862105E+04</pdfrwt>
<totfact> 0.46941147E-02</totfact>
</mgrwt>
<rwgt>
<wgt id='morphing_basis_vector_1'> +5.0286132e-06 </wgt>
<wgt id='morphing_basis_vector_2'> +3.4268383e-06 </wgt>
<wgt id='morphing_basis_vector_3'> +5.5375893e-06 </wgt>
<wgt id='morphing_basis_vector_4'> +3.9793973e-06 </wgt>
<wgt id='morphing_basis_vector_5'> +6.3644369e-06 </wgt>
</rwgt>
</event>
<event>
 4      1 +7.6845000e-11 4.86878400e+03 7.81860800e-03 7.40283500e-02
        2 -1    0    0  501    0 +0.0000000000e+00 +0.0000000000e+00 +3.6154735248e+03 3.6154735248e+03 0.0000000000e+00 0.0000e+00 -1.0000e+00
       -2 -1    0    0    0  501 -0.0000000000e+00 -0.0000000000e+00 -1.6391391951e+03 1.6391391951e+03 0.0000000000e+00 0.0000e+00 1.0000e+00
      -13  1    1    2    0    0 -5.8714319485e+02 -5.1482334145e+02 -1.5003031751e+03 1.6913573902e+03 0.0000000000e+00 0.0000e+00 1.0000e+00
       13  1    1    2    0    0 +5.8714319485e+02 +5.1482334145e+02 +3.4766375049e+03 3.5632553297e+03 0.0000000000e+00 0.0000e+00 -1.0000e+00
<mgrwt>
<rscale>  0 0.48687840E+04</rscale>
<asrwt>0</asrwt>
<pdfrwt beam="1">  1        2 0.55622669E+00 0.48687840E+04</pdfrwt>
<pdfrwt beam="2">  1       -2 0.25217526E+00 0.48687840E+04</pdfrwt>
<totfact> 0.29140600E-02</totfact>
</mgrwt>
<rwgt>
<wgt id='morphing_basis_vector_1'> +5.8489450e-06 </wgt>
<wgt id='morphing_basis_vector_2'> +3.9711893e-06 </wgt>
<wgt id='morphing_basis_vector_3'> +6.4405896e-06 </wgt>
<wgt id='morphing_basis_vector_4'> +4.6542482e-06 </wgt>
<wgt id='morphing_basis_vector_5'> +7.4209535e-06 </wgt>
</rwgt>
</event>
<event>
 4      1 +7.6845000e-11 5.00990900e+03 7.81860800e-03 7.38319100e-02
        2 -1    0    0  501    0 +0.0000000000e+00 +0.0000000000e+00 +2.4322531769e+03 2.4322531769e+03 0.0000000000e+00 0.0000e+00 -1.0000e+00
       -2 -1    0    0    0  501 -0.0000000000e+00 -0.0000000000e+00 -2.5798287609e+03 2.5798287609e+03 0.0000000000e+00 0.0000e+00 1.0000e+00
      -13  1    1    2    0    0 -1.9492478471e+03 +2.2809595528e+02 -1.6311266685e+03 2.5518952061e+03 0.0000000000e+00 0.0000e+00 1.0000e+00
       13  1    1    2    0    0 +1.9492478471e+03 -2.2809595528e+02 +1.4835510845e+03 2.4601867317e+03 0.0000000000e+00 0.0000e+00 -1.0000e+00
<mgrwt>
<rscale>  0 0.50099089E+04</rscale>
<asrwt>0</asrwt>
<pdfrwt beam="1">  1        2 0.37419280E+00 0.50099089E+04</pdfrwt>
<pdfrwt beam="2">  1       -2 0.39689673E+00 0.50099089E+04</pdfrwt>
<totfact> 0.19180720E-02</totfact>
</mgrwt>
<rwgt>
<wgt id='morphing_basis_vector_1'> +6.5689362e-06 </wgt>
<wgt id='morphing_basis_vector_2'> +4.4933924e-06 </wgt>
<wgt id='morphing_basis_vector_3'> +7.2434738e-06 </wgt>
<wgt id='morphing_basis_vector_4'> +5.1891852e-06 </wgt>
<wgt id='morphing_basis_vector_5'> +8.3200302e-06 </wgt>
</rwgt>
</event>
<event>
 4      1 +7.6845000e-11 4.78054500e+03 7.81860800e-03 7.41546100e-02
        2 -1    0    0  501    0 +0.0000000000e+00 +0.0000000000e+00 +3.4345094606e+03 3.4345094606e+03 0.0000000000e+00 0.0000e+00 -1.0000e+00
       -2 -1    0    0    0  501 -0.0000000000e+00 -0.0000000000e+00 -1.6635281840e+03 1.6635281840e+03 0.0000000000e+00 0.0000e+00 1.0000e+00
      -13  1    1    2    0    0 -1.3304791954e+03 -8.7602916840e+02 -1.0149410478e+03 1.8888375589e+03 0.0000000000e+00 0.0000e+00 1.0000e+00
       13  1    1    2    0    0 +1.3304791954e+03 +8.7602916840e+02 +2.7859223244e+03 3.2092000858e+03 0.0000000000e+00 0.0000e+00 -1.0000e+00
<mgrwt>
<rscale>  0 0.47805453E+04</rscale>
<asrwt>0</asrwt>
<pdfrwt beam="1">  1        2 0.52838607E+00 0.47805453E+04</pdfrwt>
<pdfrwt beam="2">  1       -2 0.25592741E+00 0.47805453E+04</pdfrwt>
<totfact> 0.37607242E-02</totfact>
</mgrwt>
<rwgt>
<wgt id='morphing_basis_vector_1'> +5.4422729e-06 </wgt>
<wgt id='morphing_basis_vector_2'> +3.7047630e-06 </wgt>
<wgt id='morphing_basis_vector_3'> +5.9936964e-06 </wgt>
<wgt id='morphing_basis_vector_4'> +4.3151801e-06 </wgt>
<wgt id='morphing_basis_vector_5'> +6.8949026e-06 </wgt>
</rwgt>
</event>
<event>
 4      1 +7.6845000e-11 4.71082900e+03 7.81860800e-03 7.42563200e-02
        2 -1    0    0  501    0 +0.0000000000e+00 +0.0000000000e+00 +3.2199017134e+03 3.2199017134e+03 0.0000000000e+00 0.0000e+00 1.0000e+00
       -2 -1    0    0    0  501 -0.0000000000e+00 -0.0000000000e+00 -1.7230269627e+03 1.7230269627e+03 0.0000000000e+00 0.0000e+00 -1.0000e+00
      -13  1    1    2    0    0 -2.8343420504e+02 -2.1699014703e+03 +1.6626696732e+03 2.7483227215e+03 0.0000000000e+00 0.0000e+00 1.0000e+00
       13  1    1    2    0    0 +2.8343420504e+02 +2.1699014703e+03 -1.6579492248e+02 2.1946059546e+03 0.0000000000e+00 0.0000e+00 -1.0000e+00
<mgrwt>
<rscale>  0 0.47108290E+04</rscale>
<asrwt>0</asrwt>
<pdfrwt beam="1">  1        2 0.49536949E+00 0.47108290E+04</pdfrwt>
<pdfrwt beam="2">  1       -2 0.26508107E+00 0.47108290E+04</pdfrwt>
<totfact> 0.46279269E-02</totfact>
</mgrwt>
<rwgt>
<wgt id='morphing_basis_vector_1'> +5.7796681e-06 </wgt>
<wgt id='morphing_basis_vector_2'> +5.3937090e-06 </wgt>
<wgt id='morphing_basis_vector_3'> +6.6988192e-06 </wgt>
<wgt id='morphing_basis_vector_4'> +2.6920414e-06 </wgt>
<wgt id='morphing_basis_vector_5'> +6.3848718e-06 </wgt>
</rwgt>
</event>
<event>
 4      1 +7.6845000e-11 4.64733000e+03 7.81860800e-03 7.43505200e-02
        2 -1    0    0  501    0 +0.0000000000e+00 +0.0000000000e+00 +2.8708340911e+03 2.8708340911e+03 0.0000000000e+00 0.0000e+00 -1.0000e+00
       -2 -1    0    0    0  501 -0.0000000000e+00 -0.0000000000e+00 -1.8807838391e+03 1.8807838391e+03 0.0000000000e+00 0.0000e+00 1.0000e+00
      -13  1    1    2    0    0 -1.5827617494e+03 -1.2292259571e+03 -7.0750011003e+02 2.1252500123e+03 0.0000000000e+00 0.0000e+00 1.0000e+00
       13  1    1    2    0    0 +1.5827617494e+03 +1.2292259571e+03 +1.6975503620e+03 2.6263679180e+03 0.0000000000e+00 0.0000e+00 -1.0000e+00
<mgrwt>
<rscale>  0 0.46473297E+04</rscale>
<asrwt>0</asrwt>
<pdfrwt beam="1">  1        2 0.44166678E+00 0.46473297E+04</pdfrwt>
<pdfrwt beam="2">  1       -2 0.28935136E+00 0.46473297E+04</pdfrwt>
<totfact> 0.53960388E-02</totfact>
</mgrwt>
<rwgt>
<wgt id='morphing_basis_vector_1'> +4.8794527e-06 </wgt>
<wgt id='morphing_basis_vector_2'> +3.3588898e-06 </wgt>
<wgt id='morphing_basis_vector_3'> +5.3804733e-06 </wgt>
<wgt id='morphing_basis_vector_4'> +3.8165100e-06 </wgt>
<wgt id='morphing_basis_vector_5'> +6.1524073e-06 </wgt>
</rwgt>
</event>
<event>
 4      1 +7.6845000e-11 5.12081400e+03 7.81860800e-03 7.36821100e-02
        2 -1    0    0  501    0 +0.0000000000e+00 +0.0000000000e+00 +2.2176026448e+03 2.2176026448e+03 0.0000000000e+00 0.0000e+00 -1.0000e+00
       -2 -1    0    0    0  501 -0.0000000000e+00 -0.0000000000e+00 -2.9562030227e+03 2.9562030227e+03 0.0000000000e+00 0.0000e+00 1.0000e+00
      -13  1    1    2    0    0 +2.4009659309e+03 +1.9837477923e+02 -1.2452749117e+03 2.7119549333e+03 0.0000000000e+00 0.0000e+00 1.0000e+00
       13  1    1    2    0    0 -2.4009659309e+03 -1.9837477923e+02 +5.0667453382e+02 2.4618507343e+03 0.0000000000e+00 0.0000e+00 -1.0000e+00
<mgrwt>
<rscale>  0 0.51208139E+04</rscale>
<asrwt>0</asrwt>
<pdfrwt beam="1">  1        2 0.34116964E+00 0.51208139E+04</pdfrwt>
<pdfrwt beam="2">  1       -2 0.45480046E+00 0.51208139E+04</pdfrwt>
<totfact> 0.10349814E-02</totfact>
</mgrwt>
<rwgt>
<wgt id='morphing_basis_vector_1'> +7.2218393e-06 </wgt>
<wgt id='morphing_basis_vector_2'> +5.0616533e-06 </wgt>
<wgt id='morphing_basis_vector_3'> +7.9934896e-06 </wgt>
<wgt id='morphing_basis_vector_4'> +5.5512957e-06 </wgt>
<wgt id='morphing_basis_vector_5'> +9.0744478e-06 </wgt>
</rwgt>
</event>
<event>
 4      1 +7.6845000e-11 4.97539400e+03 7.81860800e-03 7.38793400e-02
        2 -1    0    0  501    0 +0.0000000000e+00 +0.0000000000e+00 +3.6146547134e+03 3.6146547134e+03 0.0000000000e+00 0.0000e+00 -1.0000e+00
       -2 -1    0    0    0  501 -0.0000000000e+00 -0.0000000000e+00 -1.7120958089e+03 1.7120958089e+03 0.0000000000e+00 0.0000e+00 1.0000e+00
      -13  1    1    2    0    0 +4.1630276585e+02 -1.0491312051e+03 -1.4221769456e+03 1.8156463155e+03 0.0000000000e+00 0.0000e+00 1.0000e+00
       13  1    1    2    0    0 -4.1630276585e+02 +1.0491312051e+03 +3.3247358501e+03 3.5111042068e+03 0.0000000000e+00 0.0000e+00 -1.0000e+00
<mgrwt>
<rscale>  0 0.49753935E+04</rscale>
<asrwt>0</asrwt>
<pdfrwt beam="1">  1        2 0.55610072E+00 0.49753935E+04</pdfrwt>
<pdfrwt beam="2">  1       -2 0.26339936E+00 0.49753935E+04</pdfrwt>
<totfact> 0.24226886E-02</totfact>
</mgrwt>
<rwgt>
<wgt id='morphing_basis_vector_1'> +6.3771015e-06 </wgt>
<wgt id='morphing_basis_vector_2'> +4.3320726e-06 </wgt>
<wgt id='morphing_basis_vector_3'> +7.0244465e-06 </wgt>
<wgt id='morphing_basis_vector_4'> +5.0754591e-06 </wgt>
<wgt id='morphing_basis_vector_5'> +8.0947638e-06 </wgt>
</rwgt>
</event>
<event>
 4      1 +7.6845000e-11 4.84948100e+03 7.81860800e-03 7.40557400e-02
        2 -1    0    0  501    0 +0.0000000000e+00 +0.0000000000e+00 +3.5726535962e+03 3.5726535962e+03 0.0000000000e+00 0.0000e+00 -1.0000e+00
       -2 -1    0    0    0  501 -0.0000000000e+00 -0.0000000000e+00 -1.6456583400e+03 1.6456583400e+03 0.0000000000e+00 0.0000e+00 1.0000e+00
      -13  1    1    2    0    0 -2.0390194386e+02 -2.0219537454e+03 -4.5978453449e+02 2.0835725976e+03 0.0000000000e+00 0.0000e+00 1.0000e+00
       13  1    1    2    0    0 +2.0390194386e+02 +2.0219537454e+03 +2.3867797907e+03 3.1347393386e+03 0.0000000000e+00 0.0000e+00 -1.0000e+00
<mgrwt>
<rscale>  0 0.48494813E+04</rscale>
<asrwt>0</asrwt>
<pdfrwt beam="1">  1        2 0.54963901E+00 0.48494813E+04</pdfrwt>
<pdfrwt beam="2">  1       -2 0.25317821E+00 0.48494813E+04</pdfrwt>
<totfact> 0.30933673E-02</totfact>
</mgrwt>
<rwgt>
<wgt id='morphing_basis_vector_1'> +5.7770364e-06 </wgt>
<wgt id='morphing_basis_vector_2'> +3.9673448e-06 </wgt>
<wgt id='morphing_basis_vector_3'> +6.3714608e-06 </wgt>
<wgt id='morphing_basis_vector_4'> +4.5381073e-06 </wgt>
<wgt id='morphing_basis_vector_5'> +7.3000148e-06 </wgt>
</rwgt>
</event>
<event>
 4      1 +7.6845000e-11 4.77307400e+03 7.81860800e-03 7.41654300e-02
        2 -1    0    0  501    0 +0.0000000000e+00 +0.0000000000e+00 +3.8297746030e+03 3.8297746030e+03 0.0000000000e+00 0.0000e+00 1.0000e+00
       -2 -1    0    0    0  501 -0.0000000000e+00 -0.0000000000e+00 -1.4871783097e+03 1.4871783097e+03 0.0000000000e+00 0.0000e+00 -1.0000e+00
      -13  1    1    2    0    0 -1.6364293867e+03 +7.8434747030e+02 -5.5530440133e+02 1.8977526367e+03 0.0000000000e+00 0.0000e+00 -1.0000e+00
       13  1    1    2    0    0 +1.6364293867e+03 -7.8434747030e+02 +2.8979006946e+03 3.4192002761e+03 0.0000000000e+00 0.0000e+00 1.0000e+00
<mgrwt>
<rscale>  0 0.47730735E+04</rscale>
<asrwt>0</asrwt>
<pdfrwt beam="1">  1        2 0.58919609E+00 0.47730735E+04</pdfrwt>
<pdfrwt beam="2">  1       -2 0.22879666E+00 0.47730735E+04</pdfrwt>
<totfact> 0.29047036E-02</totfact>
</mgrwt>
<rwgt>
<wgt id='morphing_basis_vector_1'> +5.4136913e-06 </wgt>
<wgt id='morphing_basis_vector_2'> +3.6970819e-06 </wgt>
<wgt id='morphing_basis_vector_3'> +5.9648098e-06 </wgt>
<wgt id='morphing_basis_vector_4'> +4.2770219e-06 </wgt>
<wgt id='morphing_basis_vector_5'> +6.8508151e-06 </wgt>
</rwgt>
</event>
<event>
 4      1 +7.6845000e-11 5.01911500e+03 7.81860800e-03 7.38193200e-02
        2 -1    0    0  501    0 +0.0000000000e+00 +0.0000000000e+00 +4.0413511529e+03 4.0413511529e+03 0.0000000000e+00 0.0000e+00 -1.0000e+00
       -2 -1    0    0    0  501 -0.0000000000e+00 -0.0000000000e+00 -1.5583597369e+03 1.5583597369e+03 0.0000000000e+00 0.0000e+00 1.0000e+00
      -13  1    1    2    0    0 +1.6699941429e+03 -4.1788730265e+02 -7.9575869624e+02 1.8965078797e+03 0.0000000000e+00 0.0000e+00 1.0000e+00
       13  1    1    2    0    0 -1.6699941429e+03 +4.1788730265e+02 +3.2787501123e+03 3.7032030101e+03 0.0000000000e+00 0.0000e+00 -1.0000e+00
<mgrwt>
<rscale>  0 0.50191150E+04</rscale>
<asrwt>0</asrwt>
<pdfrwt beam="1">  1        2 0.62174633E+00 0.50191150E+04</pdfrwt>
<pdfrwt beam="2">  1       -2 0.23974765E+00 0.50191150E+04</pdfrwt>
<totfact> 0.15905510E-02</totfact>
</mgrwt>
<rwgt>
<wgt id='morphing_basis_vector_1'> +6.6092634e-06 </wgt>
<wgt id='morphing_basis_vector_2'> +4.5031766e-06 </wgt>
<wgt id='morphing_basis_vector_3'> +7.2839792e-06 </wgt>
<wgt id='morphing_basis_vector_4'> +5.2444521e-06 </wgt>
<wgt id='morphing_basis_vector_5'> +8.3829652e-06 </wgt>
</rwgt>
</event>
<event>
 4      1 +7.6845000e-11 4.68544500e+03 7.81860800e-03 7.42938000e-02
        2 -1    0    0  501    0 +0.0000000000e+00 +0.0000000000e+00 +2.2151668985e+03 2.2151668985e+03 0.0000000000e+00 0.0000e+00 1.0000e+00
       -2 -1    0    0    0  501 -0.0000000000e+00 -0.0000000000e+00 -2.4776234058e+03 2.4776234058e+03 0.0000000000e+00 0.0000e+00 -1.0000e+00
      -13  1    1    2    0    0 +4.2077525751e+02 +1.5128789384e+03 -1.8724860092e+03 2.4437795224e+03 0.0000000000e+00 0.0000e+00 -1.0000e+00
       13  1    1    2    0    0 -4.2077525751e+02 -1.5128789384e+03 +1.6100295019e+03 2.2490107818e+03 0.0000000000e+00 0.0000e+00 1.0000e+00
<mgrwt>
<rscale>  0 0.46854453E+04</rscale>
<asrwt>0</asrwt>
<pdfrwt beam="1">  1        2 0.34079491E+00 0.46854453E+04</pdfrwt>
<pdfrwt beam="2">  1       -2 0.38117283E+00 0.46854453E+04</pdfrwt>
<totfact> 0.33272878E-02</totfact>
</mgrwt>
<rwgt>
<wgt id='morphing_basis_vector_1'> +5.0235857e-06 </wgt>
<wgt id='morphing_basis_vector_2'> +3.4194455e-06 </wgt>
<wgt id='morphing_basis_vector_3'> +5.5311322e-06 </wgt>
<wgt id='morphing_basis_vector_4'> +3.9805248e-06 </wgt>
<wgt id='morphing_basis_vector_5'> +6.3605787e-06 </wgt>
</rwgt>
</event>
<event>
 4      1 +7.6845000e-11 5.24522500e+03 7.81860800e-03 7.35186300e-02
        2 -1    0    0  501    0 +0.0000000000e+00 +0.0000000000e+00 +2.8425511468e+03 2.8425511468e+03 0.0000000000e+00 0.0000e+00 1.0000e+00
       -2 -1    0    0    0  501 -0.0000000000e+00 -0.0000000000e+00 -2.4196916994e+03 2.4196916994e+03 0.0000000000e+00 0.0000e+00 -1.0000e+00
      -13  1    1    2    0    0 +7.2002955318e+02 +1.7262562210e+03 +2.0557886425e+03 2.7793290631e+03 0.0000000000e+00 0.0000e+00 1.0000e+00
       13  1    1    2    0    0 -7.2002955318e+02 -1.7262562210e+03 -1.6329291952e+03 2.4829137831e+03 0.0000000000e+00 0.0000e+00 -1.0000e+00
<mgrwt>
<rscale>  0 0.52452254E+04</rscale>
<asrwt>0</asrwt>
<pdfrwt beam="1">  1        2 0.43731556E+00 0.52452254E+04</pdfrwt>
<pdfrwt beam="2">  1       -2 0.37226026E+00 0.52452254E+04</pdfrwt>
<totfact> 0.15272695E-02</totfact>
</mgrwt>
<rwgt>
<wgt id='morphing_basis_vector_1'> +1.0151268e-05 </wgt>
<wgt id='morphing_basis_vector_2'> +1.2042347e-05 </wgt>
<wgt id='morphing_basis_vector_3'> +1.2382188e-05 </wgt>
<wgt id='morphing_basis_vector_4'> +1.4109687e-06 </wgt>
<wgt id='morphing_basis_vector_5'> +9.5972713e-06 </wgt>
</rwgt>
</event>
<event>
 4      1 +7.6845000e-11 4.63291500e+03 7.81860800e-03 7.43721100e-02
        2 -1    0    0  501    0 +0.0000000000e+00 +0.0000000000e+00 +5.4565246876e+03 5.4565246876e+03 0.0000000000e+00 0.0000e+00 1.0000e+00
       -2 -1    0    0    0  501 -0.0000000000e+00 -0.0000000000e+00 -9.8340522448e+02 9.8340522448e+02 0.0000000000e+00 0.0000e+00 -1.0000e+00
      -13  1    1    2    0    0 +2.0827989699e+03 +1.8954243191e+02 +8.5209464771e+02 2.2583275163e+03 0.0000000000e+00 0.0000e+00 -1.0000e+00
       13  1    1    2    0    0 -2.0827989699e+03 -1.8954243191e+02 +3.6210248154e+03 4.1816023957e+03 0.0000000000e+00 0.0000e+00 1.0000e+00
<mgrwt>
<rscale>  0 0.46329148E+04</rscale>
<asrwt>0</asrwt>
<pdfrwt beam="1">  1        2 0.83946532E+00 0.46329148E+04</pdfrwt>
<pdfrwt beam="2">  1       -2 0.15129311E+00 0.46329148E+04</pdfrwt>
<totfact> 0.13987411E-03</totfact>
</mgrwt>
<rwgt>
<wgt id='morphing_basis_vector_1'> +4.8292101e-06 </wgt>
<wgt id='morphing_basis_vector_2'> +3.3462241e-06 </wgt>
<wgt id='morphing_basis_vector_3'> +5.3298717e-06 </wgt>
<wgt id='morphing_basis_vector_4'> +3.7484001e-06 </wgt>
<wgt id='morphing_basis_vector_5'> +6.0744092e-06 </wgt>
</rwgt>
</event>
<event>
 4      1 +7.6845000e-11 4.68283600e+03 7.81860800e-03 7.42976600e-02
        2 -1    0    0  501    0 +0.0000000000e+00 +0.0000000000e+00 +2.6122901969e+03 2.6122901969e+03 0.0000000000e+00 0.0000e+00 1.0000e+00
       -2 -1    0    0    0  501 -0.0000000000e+00 -0.0000000000e+00 -2.0986333145e+03 2.0986333145e+03 0.0000000000e+00 0.0000e+00 -1.0000e+00
      -13  1    1    2    0    0 +4.5606639735e+00 -1.4785402812e+03 -1.5695875351e+03 2.1563179713e+03 0.0000000000e+00 0.0000e+00 -1.0000e+00
       13  1    1    2    0    0 -4.5606639735e+00 +1.4785402812e+03 +2.0832444175e+03 2.5546055402e+03 0.0000000000e+00 0.0000e+00 1.0000e+00
<mgrwt>
<rscale>  0 0.46828364E+04</rscale>
<asrwt>0</asrwt>
<pdfrwt beam="1">  1        2 0.40189080E+00 0.46828364E+04</pdfrwt>
<pdfrwt beam="2">  1       -2 0.32286666E+00 0.46828364E+04</pdfrwt>
<totfact> 0.46424178E-02</totfact>
</mgrwt>
<rwgt>
<wgt id='morphing_basis_vector_1'> +5.0112439e-06 </wgt>
<wgt id='morphing_basis_vector_2'> +3.4083096e-06 </wgt>
<wgt id='morphing_basis_vector_3'> +5.5168775e-06 </wgt>
<wgt id='morphing_basis_vector_4'> +3.9741971e-06 </wgt>
<wgt id='morphing_basis_vector_5'> +6.3465876e-06 </wgt>
</rwgt>
</event>
<event>
 4      1 +7.6845000e-11 4.69505500e+03 7.81860800e-03 7.42795800e-02
        2 -1    0    0  501    0 +0.0000000000e+00 +0.0000000000e+00 +3.5236534201e+03 3.5236534201e+03 0.0000000000e+00 0.0000e+00 1.0000e+00
       -2 -1    0    0    0  501 -0.0000000000e+00 -0.0000000000e+00 -1.5639689771e+03 1.5639689771e+03 0.0000000000e+00 0.0000e+00 -1.0000e+00
      -13  1    1    2    0    0 +1.1152776620e+03 +9.3025506922e+02 -1.0187308979e+03 1.7739874293e+03 0.0000000000e+00 0.0000e+00 -1.0000e+00
       13  1    1    2    0    0 -1.1152776620e+03 -9.3025506922e+02 +2.9784153409e+03 3.3136349679e+03 0.0000000000e+00 0.0000e+00 1.0000e+00
<mgrwt>
<rscale>  0 0.46950547E+04</rscale>
<asrwt>0</asrwt>
<pdfrwt beam="1">  1        2 0.54210053E+00 0.46950547E+04</pdfrwt>
<pdfrwt beam="2">  1       -2 0.24061061E+00 0.46950547E+04</pdfrwt>
<totfact> 0.41626439E-02</totfact>
</mgrwt>
<rwgt>
<wgt id='morphing_basis_vector_1'> +5.0632234e-06 </wgt>
<wgt id='morphing_basis_vector_2'> +3.4430011e-06 </wgt>
<wgt id='morphing_basis_vector_3'> +5.5741344e-06 </wgt>
<wgt id='morphing_basis_vector_4'> +4.0166841e-06 </wgt>
<wgt id='morphing_basis_vector_5'> +6.4133840e-06 </wgt>
</rwgt>
</event>
<event>
 4      1 +7.6845000e-11 5.47246900e+03 7.81860800e-03 7.32316900e-02
        2 -1    0    0  501    0 +0.0000000000e+00 +0.0000000000e+00 +2.6937952293e+03 2.6937952293e+03 0.0000000000e+00 0.0000e+00 -1.0000e+00
       -2 -1    0    0    0  501 -0.0000000000e+00 -0.0000000000e+00 -2.7793420061e+03 2.7793420061e+03 0.0000000000e+00 0.0000e+00 1.0000e+00
      -13  1    1    2    0    0 +1.7157330286e+03 +3.6405014888e+02 -2.1431980423e+03 2.7693988851e+03 0.0000000000e+00 0.0000e+00 1.0000e+00
       13  1    1    2    0    0 -1.7157330286e+03 -3.6405014888e+02 +2.0576512655e+03 2.7037383503e+03 0.0000000000e+00 0.0000e+00 -1.0000e+00
<mgrwt>
<rscale>  0 0.54724686E+04</rscale>
<asrwt>0</asrwt>
<pdfrwt beam="1">  1        2 0.41443004E+00 0.54724686E+04</pdfrwt>
<pdfrwt beam="2">  1       -2 0.42759108E+00 0.54724686E+04</pdfrwt>
<totfact> 0.80763509E-03</totfact>
</mgrwt>
<rwgt>
<wgt id='morphing_basis_vector_1'> +9.3281205e-06 </wgt>
<wgt id='morphing_basis_vector_2'> +6.3531732e-06 </wgt>
<wgt id='morphing_basis_vector_3'> +1.0288873e-05 </wgt>
<wgt id='morphing_basis_vector_4'> +7.4251769e-06 </wgt>
<wgt id='morphing_basis_vector_5'> +1.1859734e-05 </wgt>
</rwgt>
</event>
<event>
 4      1 +7.6845000e-11 5.10571400e+03 7.81860800e-03 7.37022700e-02
        2 -1    0    0  501    0 +0.0000000000e+00 +0.0000000000e+00 +3.0991798824e+03 3.0991798824e+03 0.0000000000e+00 0.0000e+00 1.0000e+00
       -2 -1    0    0    0  501 -0.0000000000e+00 -0.0000000000e+00 -2.1028397236e+03 2.1028397236e+03 0.0000000000e+00 0.0000e+00 -1.0000e+00
      -13  1    1    2    0    0 -1.0623700252e+02 +6.9948312671e+02 -2.0009552429e+03 2.1223536061e+03 0.0000000000e+00 0.0000e+00 -1.0000e+00
       13  1    1    2    0    0 +1.0623700252e+02 -6.9948312671e+02 +2.9972954017e+03 3.0796659998e+03 0.0000000000e+00 0.0000e+00 1.0000e+00
<mgrwt>
<rscale>  0 0.51057139E+04</rscale>
<asrwt>0</asrwt>
<pdfrwt beam="1">  1        2 0.47679690E+00 0.51057139E+04</pdfrwt>
<pdfrwt beam="2">  1       -2 0.32351380E+00 0.51057139E+04</pdfrwt>
<totfact> 0.21830956E-02</totfact>
</mgrwt>
<rwgt>
<wgt id='morphing_basis_vector_1'> +7.0687476e-06 </wgt>
<wgt id='morphing_basis_vector_2'> +4.8009956e-06 </wgt>
<wgt id='morphing_basis_vector_3'> +7.7882950e-06 </wgt>
<wgt id='morphing_basis_vector_4'> +5.6320543e-06 </wgt>
<wgt id='morphing_basis_vector_5'> +8.9798235e-06 </wgt>
</rwgt>
</event>
<event>
 4      1 +7.6845000e-11 5.19117000e+03 7.81860800e-03 7.35890800e-02
        2 -1    0    0  501    0 +0.0000000000e+00 +0.0000000000e+00 +3.1659542464e+03 3.1659542464e+03 0.0000000000e+00 0.0000e+00 1.0000e+00
       -2 -1    0    0    0  501 -0.0000000000e+00 -0.0000000000e+00 -2.1279718154e+03 2.1279718154e+03 0.0000000000e+00 0.0000e+00 -1.0000e+00
      -13  1    1    2    0    0 +9.3803179973e+02 +2.4022257664e+03 +8.1886819650e+02 2.7057600436e+03 0.0000000000e+00 0.0000e+00 -1.0000e+00
       13  1    1    2    0    0 -9.3803179973e+02 -2.4022257664e+03 +2.1911423449e+02 2.5881660182e+03 0.0000000000e+00 0.0000e+00 1.0000e+00
<mgrwt>
<rscale>  0 0.51911700E+04</rscale>
<asrwt>0</asrwt>
<pdfrwt beam="1">  1        2 0.48706988E+00 0.51911700E+04</pdfrwt>
<pdfrwt beam="2">  1       -2 0.32738028E+00 0.51911700E+04</pdfrwt>
<totfact> 0.18446968E-02</totfact>
</mgrwt>
<rwgt>
<wgt id='morphing_basis_vector_1'> +7.9668683e-06 </wgt>
<wgt id='morphing_basis_vector_2'> +6.3470130e-06 </wgt>
<wgt id='morphing_basis_vector_3'> +8.9963403e-06 </wgt>
<wgt id='morphing_basis_vector_4'> +5.1360448e-06 </wgt>
<wgt id='morphing_basis_vector_5'> +9.5240355e-06 </wgt>
</rwgt>
</event>
<event>
 4      1 +7.6845000e-11 5.02065000e+03 7.81860800e-03 7.38172200e-02
        2 -1    0    0  501    0 +0.0000000000e+00 +0.0000000000e+00 +3.3962680623e+03 3.3962680623e+03 0.0000000000e+00 0.0000e+00 1.0000e+00
       -2 -1    0    0    0  501 -0.0000000000e+00 -0.0000000000e+00 -1.8554869230e+03 1.8554869230e+03 0.0000000000e+00 0.0000e+00 -1.0000e+00
      -13  1    1    2    0    0 +1.6246512445e+03 -1.1271388570e+03 -8.4734195648e+02 2.1512605748e+03 0.0000000000e+00 0.0000e+00 -1.0000e+00
       13  1    1    2    0    0 -1.6246512445e+03 +1.1271388570e+03 +2.3881230958e+03 3.1004944106e+03 0.0000000000e+00 0.0000e+00 1.0000e+00
<mgrwt>
<rscale>  0 0.50206497E+04</rscale>
<asrwt>0</asrwt>
<pdfrwt beam="1">  1        2 0.52250278E+00 0.50206497E+04</pdfrwt>
<pdfrwt beam="2">  1       -2 0.28545953E+00 0.50206497E+04</pdfrwt>
<totfact> 0.24702382E-02</totfact>
</mgrwt>
<rwgt>
<wgt id='morphing_basis_vector_1'> +6.6257800e-06 </wgt>
<wgt id='morphing_basis_vector_2'> +4.5335104e-06 </wgt>
<wgt id='morphing_basis_vector_3'> +7.3066145e-06 </wgt>
<wgt id='morphing_basis_vector_4'> +5.2328714e-06 </wgt>
<wgt id='morphing_basis_vector_5'> +8.3917448e-06 </wgt>
</rwgt>
</event>
<event>
 4      1 +7.6845000e-11 4.70314300e+03 7.81860800e-03 7.42676500e-02
        2 -1    0    0  501    0 +0.0000000000e+00 +0.0000000000e+00 +1.6794449140e+03 1.6794449140e+03 0.0000000000e+00 0.0000e+00 1.0000e+00
       -2 -1    0    0    0  501 -0.0000000000e+00 -0.0000000000e+00 -3.2926887075e+03 3.2926887075e+03 0.0000000000e+00 0.0000e+00 -1.0000e+00
      -13  1    1    2    0    0 +1.2112054082e+03 -1.8497298901e+03 +4.0037885366e+01 2.2113620778e+03 0.0000000000e+00 0.0000e+00 -1.0000e+00
       13  1    1    2    0    0 -1.2112054082e+03 +1.8497298901e+03 -1.6532816788e+03 2.7607715437e+03 0.0000000000e+00 0.0000e+00 1.0000e+00
<mgrwt>
<rscale>  0 0.47031433E+04</rscale>
<asrwt>0</asrwt>
<pdfrwt beam="1">  1        2 0.25837614E+00 0.47031433E+04</pdfrwt>
<pdfrwt beam="2">  1       -2 0.50656749E+00 0.47031433E+04</pdfrwt>
<totfact> 0.89139700E-03</totfact>
</mgrwt>
<rwgt>
<wgt id='morphing_basis_vector_1'> +5.6862580e-06 </wgt>
<wgt id='morphing_basis_vector_2'> +5.1944227e-06 </wgt>
<wgt id='morphing_basis_vector_3'> +6.5646506e-06 </wgt>
<wgt id='morphing_basis_vector_4'> +2.7934106e-06 </wgt>
<wgt id='morphing_basis_vector_5'> +6.3531205e-06 </wgt>
</rwgt>
</event>
<event>
 4      1 +7.6845000e-11 5.11539700e+03 7.81860800e-03 7.36893300e-02
        2 -1    0    0  501    0 +0.0000000000e+00 +0.0000000000e+00 +3.8040595374e+03 3.8040595374e+03 0.0000000000e+00 0.0000e+00 -1.0000e+00
       -2 -1    0    0    0  501 -0.0000000000e+00 -0.0000000000e+00 -1.7196950004e+03 1.7196950004e+03 0.0000000000e+00 0.0000e+00 1.0000e+00
      -13  1    1    2    0    0 +2.3483950127e+03 -9.9191297908e+02 +8.1833791535e+02 2.6774105844e+03 0.0000000000e+00 0.0000e+00 1.0000e+00
       13  1    1    2    0    0 -2.3483950127e+03 +9.9191297908e+02 +1.2660266217e+03 2.8463439533e+03 0.0000000000e+00 0.0000e+00 -1.0000e+00
<mgrwt>
<rscale>  0 0.51153972E+04</rscale>
<asrwt>0</asrwt>
<pdfrwt beam="1">  1        2 0.58523993E+00 0.51153972E+04</pdfrwt>
<pdfrwt beam="2">  1       -2 0.26456846E+00 0.51153972E+04</pdfrwt>
<totfact> 0.16756138E-02</totfact>
</mgrwt>
<rwgt>
<wgt id='morphing_basis_vector_1'> +7.3170427e-06 </wgt>
<wgt id='morphing_basis_vector_2'> +5.4091640e-06 </wgt>
<wgt id='morphing_basis_vector_3'> +8.1637618e-06 </wgt>
<wgt id='morphing_basis_vector_4'> +5.2599730e-06 </wgt>
<wgt id='morphing_basis_vector_5'> +9.0135372e-06 </wgt>
</rwgt>
</event>
<event>
 4      1 +7.6845000e-11 4.86654900e+03 7.81860800e-03 7.40315200e-02
        2 -1    0    0  501    0 +0.0000000000e+00 +0.0000000000e+00 +2.9265654134e+03 2.9265654134e+03 0.0000000000e+00 0.0000e+00 -1.0000e+00
       -2 -1    0    0    0  501 -0.0000000000e+00 -0.0000000000e+00 -2.0231309710e+03 2.0231309710e+03 0.0000000000e+00 0.0000e+00 1.0000e+00
      -13  1    1    2    0    0 -1.5298394796e+03 +1.2970328177e+03 -9.4954536763e+02 2.2190852550e+03 0.0000000000e+00 0.0000e+00 1.0000e+00
       13  1    1    2    0    0 +1.5298394796e+03 -1.2970328177e+03 +1.8529798100e+03 2.7306111294e+03 0.0000000000e+00 0.0000e+00 -1.0000e+00
<mgrwt>
<rscale>  0 0.48665491E+04</rscale>
<asrwt>0</asrwt>
<pdfrwt beam="1">  1        2 0.45024083E+00 0.48665491E+04</pdfrwt>
<pdfrwt beam="2">  1       -2 0.31125092E+00 0.48665491E+04</pdfrwt>
<totfact> 0.34803344E-02</totfact>
</mgrwt>
<rwgt>
<wgt id='morphing_basis_vector_1'> +5.8562208e-06 </wgt>
<wgt id='morphing_basis_vector_2'> +4.0166906e-06 </wgt>
<wgt id='morphing_basis_vector_3'> +6.4579052e-06 </wgt>
<wgt id='morphing_basis_vector_4'> +4.6074192e-06 </wgt>
<wgt id='morphing_basis_vector_5'> +7.4040864e-06 </wgt>
</rwgt>
</event>
<event>
 4      1 +7.6845000e-11 5.05330900e+03 7.81860800e-03 7.37728200e-02
        2 -1    0    0  501    0 +0.0000000000e+00 +0.0000000000e+00 +4.2180835445e+03 4.2180835445e+03 0.0000000000e+00 0.0000e+00 -1.0000e+00
       -2 -1    0    0    0  501 -0.0000000000e+00 -0.0000000000e+00 -1.5134792990e+03 1.5134792990e+03 0.0000000000e+00 0.0000e+00 1.0000e+00
      -13  1    1    2    0    0 +9.4201698017e+02 +9.0923124461e+02 -1.0987373743e+03 1.7091873112e+03 0.0000000000e+00 0.0000e+00 1.0000e+00
       13  1    1    2    0    0 -9.4201698017e+02 -9.0923124461e+02 +3.8033416197e+03 4.0223755323e+03 0.0000000000e+00 0.0000e+00 -1.0000e+00
<mgrwt>
<rscale>  0 0.50533087E+04</rscale>
<asrwt>0</asrwt>
<pdfrwt beam="1">  1        2 0.64893592E+00 0.50533087E+04</pdfrwt>
<pdfrwt beam="2">  1       -2 0.23284297E+00 0.50533087E+04</pdfrwt>
<totfact> 0.12325520E-02</totfact>
</mgrwt>
<rwgt>
<wgt id='morphing_basis_vector_1'> +6.7854365e-06 </wgt>
<wgt id='morphing_basis_vector_2'> +4.6117622e-06 </wgt>
<wgt id='morphing_basis_vector_3'> +7.4760499e-06 </wgt>
<wgt id='morphing_basis_vector_4'> +5.4003331e-06 </wgt>
<wgt id='morphing_basis_vector_5'> +8.6154100e-06 </wgt>
</rwgt>
</event>
<event>
 4      1 +7.6845000e-11 5.37558400e+03 7.81860800e-03 7.33522500e-02
        2 -1    0    0  501    0 +0.0000000000e+00 +0.0000000000e+00 +2.9229615637e+03 2.9229615637e+03 0.0000000000e+00 0.0000e+00 1.0000e+00
       -2 -1    0    0    0  501 -0.0000000000e+00 -0.0000000000e+00 -2.4715433541e+03 2.4715433541e+03 0.0000000000e+00 0.0000e+00 -1.0000e+00
      -13  1    1    2    0    0 +1.9925968310e+03 -6.8342758111e+02 +1.9009292319e+03 2.8374367543e+03 0.0000000000e+00 0.0000e+00 1.0000e+00
       13  1    1    2    0    0 -1.9925968310e+03 +6.8342758111e+02 -1.4495110223e+03 2.5570681636e+03 0.0000000000e+00 0.0000e+00 -1.0000e+00
<mgrwt>
<rscale>  0 0.53755841E+04</rscale>
<asrwt>0</asrwt>
<pdfrwt beam="1">  1        2 0.44968639E+00 0.53755841E+04</pdfrwt>
<pdfrwt beam="2">  1       -2 0.38023744E+00 0.53755841E+04</pdfrwt>
<totfact> 0.11938757E-02</totfact>
</mgrwt>
<rwgt>
<wgt id='morphing_basis_vector_1'> +1.0833333e-05 </wgt>
<wgt id='morphing_basis_vector_2'> +1.2218344e-05 </wgt>
<wgt id='morphing_basis_vector_3'> +1.3072735e-05 </wgt>
<wgt id='morphing_basis_vector_4'> +2.3298617e-06 </wgt>
<wgt id='morphing_basis_vector_5'> +1.0655109e-05 </wgt>
</rwgt>
</event>
<event>
 4      1 +7.6845000e-11 4.93642900e+03 7.81860800e-03 7.39333600e-02
        2 -1    0    0  501    0 +0.0000000000e+00 +0.0000000000e+00 +4.5902982545e+03 4.5902982545e+03 0.0000000000e+00 0.0000e+00 -1.0000e+00
       -2 -1    0    0    0  501 -0.0000000000e+00 -0.0000000000e+00 -1.3271649766e+03 1.3271649766e+03 0.0000000000e+00 0.0000e+00 1.0000e+00
      -13  1    1    2    0    0 -1.5392794983e+03 +2.4346477035e+02 -6.6281897837e+02 1.6935127595e+03 0.0000000000e+00 0.0000e+00 1.0000e+00
       13  1    1    2    0    0 +1.5392794983e+03 -2.4346477035e+02 +3.9259522563e+03 4.2239504717e+03 0.0000000000e+00 0.0000e+00 -1.0000e+00
<mgrwt>
<rscale>  0 0.49364291E+04</rscale>
<asrwt>0</asrwt>
<pdfrwt beam="1">  1        2 0.70619972E+00 0.49364291E+04</pdfrwt>
<pdfrwt beam="2">  1       -2 0.20417923E+00 0.49364291E+04</pdfrwt>
<totfact> 0.84742354E-03</totfact>
</mgrwt>
<rwgt>
<wgt id='morphing_basis_vector_1'> +6.1835140e-06 </wgt>
<wgt id='morphing_basis_vector_2'> +4.2075102e-06 </wgt>
<wgt id='morphing_basis_vector_3'> +6.8122022e-06 </wgt>
<wgt id='morphing_basis_vector_4'> +4.9110315e-06 </wgt>
<wgt id='morphing_basis_vector_5'> +7.8427862e-06 </wgt>
</rwgt>
</event>
<event>
 4      1 +7.6845000e-11 4.65143500e+03 7.81860800e-03 7.43443800e-02
        2 -1    0    0  501    0 +0.0000000000e+00 +0.0000000000e+00 +2.1673187562e+03 2.1673187562e+03 0.0000000000e+00 0.0000e+00 1.0000e+00
       -2 -1    0    0    0  501 -0.0000000000e+00 -0.0000000000e+00 -2.4956923149e+03 2.4956923149e+03 0.0000000000e+00 0.0000e+00 -1.0000e+00
      -13  1    1    2    0    0 -5.2070733277e+02 -1.3481394106e+02 +2.1041088943e+03 2.1717700533e+03 0.0000000000e+00 0.0000e+00 1.0000e+00
       13  1    1    2    0    0 +5.2070733277e+02 +1.3481394106e+02 -2.4324824529e+03 2.4912410178e+03 0.0000000000e+00 0.0000e+00 -1.0000e+00
<mgrwt>
<rscale>  0 0.46514345E+04</rscale>
<asrwt>0</asrwt>
<pdfrwt beam="1">  1        2 0.33343365E+00 0.46514345E+04</pdfrwt>
<pdfrwt beam="2">  1       -2 0.38395267E+00 0.46514345E+04</pdfrwt>
<totfact> 0.34092100E-02</totfact>
</mgrwt>
<rwgt>
<wgt id='morphing_basis_vector_1'> +6.6810243e-06 </wgt>
<wgt id='morphing_basis_vector_2'> +8.6122123e-06 </wgt>
<wgt id='morphing_basis_vector_3'> +8.2861614e-06 </wgt>
<wgt id='morphing_basis_vector_4'> +3.5764066e-08 </wgt>
<wgt id='morphing_basis_vector_5'> +5.8567145e-06 </wgt>
</rwgt>
</event>
<event>
 4      1 +7.6845000e-11 4.72733900e+03 7.81860800e-03 7.42320800e-02
        2 -1    0    0  501    0 +0.0000000000e+00 +0.0000000000e+00 +3.6957278437e+03 3.6957278437e+03 0.0000000000e+00 0.0000e+00 -1.0000e+00
       -2 -1    0    0    0  501 -0.0000000000e+00 -0.0000000000e+00 -1.5117273680e+03 1.5117273680e+03 0.0000000000e+00 0.0000e+00 1.0000e+00
      -13  1    1    2    0    0 -8.2529890123e+02 -6.2195328346e+02 -1.2496900228e+03 1.6216255166e+03 0.0000000000e+00 0.0000e+00 1.0000e+00
       13  1    1    2    0    0 +8.2529890123e+02 +6.2195328346e+02 +3.4336904984e+03 3.5858296951e+03 0.0000000000e+00 0.0000e+00 -1.0000e+00
<mgrwt>
<rscale>  0 0.47273388E+04</rscale>
<asrwt>0</asrwt>
<pdfrwt beam="1">  1        2 0.56857351E+00 0.47273388E+04</pdfrwt>
<pdfrwt beam="2">  1       -2 0.23257344E+00 0.47273388E+04</pdfrwt>
<totfact> 0.35000680E-02</totfact>
</mgrwt>
<rwgt>
<wgt id='morphing_basis_vector_1'> +5.2009413e-06 </wgt>
<wgt id='morphing_basis_vector_2'> +3.5313137e-06 </wgt>
<wgt id='morphing_basis_vector_3'> +5.7250174e-06 </wgt>
<wgt id='morphing_basis_vector_4'> +4.1339351e-06 </wgt>
<wgt id='morphing_basis_vector_5'> +6.5926940e-06 </wgt>
</rwgt>
</event>
<event>
 4      1 +7.6845000e-11 4.70822100e+03 7.81860800e-03 7.42601600e-02
        2 -1    0    0  501    0 +0.0000000000e+00 +0.0000000000e+00 +2.0666248541e+03 2.0666248541e+03 0.0000000000e+00 0.0000e+00 -1.0000e+00
       -2 -1    0    0    0  501 -0.0000000000e+00 -0.0000000000e+00 -2.6815876336e+03 2.6815876336e+03 0.0000000000e+00 0.0000e+00 1.0000e+00
      -13  1    1    2    0    0 -1.6929033753e+02 +1.7408171730e+03 -1.8965339062e+03 2.5799117243e+03 0.0000000000e+00 0.0000e+00 1.0000e+00
       13  1    1    2    0    0 +1.6929033753e+02 -1.7408171730e+03 +1.2815711267e+03 2.1683007635e+03 0.0000000000e+00 0.0000e+00 -1.0000e+00
<mgrwt>
<rscale>  0 0.47082207E+04</rscale>
<asrwt>0</asrwt>
<pdfrwt beam="1">  1        2 0.31794229E+00 0.47082207E+04</pdfrwt>
<pdfrwt beam="2">  1       -2 0.41255194E+00 0.47082207E+04</pdfrwt>
<totfact> 0.25194801E-02</totfact>
</mgrwt>
<rwgt>
<wgt id='morphing_basis_vector_1'> +5.1252041e-06 </wgt>
<wgt id='morphing_basis_vector_2'> +3.4968843e-06 </wgt>
<wgt id='morphing_basis_vector_3'> +5.6452603e-06 </wgt>
<wgt id='morphing_basis_vector_4'> +4.0511113e-06 </wgt>
<wgt id='morphing_basis_vector_5'> +6.4849675e-06 </wgt>
</rwgt>
</event>
<event>
 4      1 +7.6845000e-11 5.19049700e+03 7.81860800e-03 7.35899600e-02
        2 -1    0    0  501    0 +0.0000000000e+00 +0.0000000000e+00 +3.3766089485e+03 3.3766089485e+03 0.0000000000e+00 0.0000e+00 -1.0000e+00
       -2 -1    0    0    0  501 -0.0000000000e+00 -0.0000000000e+00 -1.9946975477e+03 1.9946975477e+03 0.0000000000e+00 0.0000e+00 1.0000e+00
      -13  1    1    2    0    0 +2.0794278797e+03 -1.5468400917e+03 +5.4990269386e+02 2.6493636121e+03 0.0000000000e+00 0.0000e+00 1.0000e+00
       13  1    1    2    0    0 -2.0794278797e+03 +1.5468400917e+03 +8.3200870688e+02 2.7219428841e+03 0.0000000000e+00 0.0000e+00 -1.0000e+00
<mgrwt>
<rscale>  0 0.51904965E+04</rscale>
<asrwt>0</asrwt>
<pdfrwt beam="1">  1        2 0.51947830E+00 0.51904965E+04</pdfrwt>
<pdfrwt beam="2">  1       -2 0.30687655E+00 0.51904965E+04</pdfrwt>
<totfact> 0.18053639E-02</totfact>
</mgrwt>
<rwgt>
<wgt id='morphing_basis_vector_1'> +7.7779144e-06 </wgt>
<wgt id='morphing_basis_vector_2'> +5.8009962e-06 </wgt>
<wgt id='morphing_basis_vector_3'> +8.6912835e-06 </wgt>
<wgt id='morphing_basis_vector_4'> +5.5275628e-06 </wgt>
<wgt id='morphing_basis_vector_5'> +9.5521518e-06 </wgt>
</rwgt>
</event>
<event>
 4      1 +7.6845000e-11 5.28962300e+03 7.81860800e-03 7.34614100e-02
        2 -1    0    0  501    0 +0.0000000000e+00 +0.0000000000e+00 +3.7529235085e+03 3.7529235085e+03 0.0000000000e+00 0.0000e+00 -1.0000e+00
       -2 -1    0    0    0  501 -0.0000000000e+00 -0.0000000000e+00 -1.8638873642e+03 1.8638873642e+03 0.0000000000e+00 0.0000e+00 1.0000e+00
      -13  1    1    2    0    0 +1.6035847132e+03 +8.8172286396e+01 -1.2868348261e+03 2.0579606785e+03 0.0000000000e+00 0.0000e+00 1.0000e+00
       13  1    1    2    0    0 -1.6035847132e+03 -8.8172286396e+01 +3.1758709704e+03 3.5588501942e+03 0.0000000000e+00 0.0000e+00 -1.0000e+00
<mgrwt>
<rscale>  0 0.52896226E+04</rscale>
<asrwt>0</asrwt>
<pdfrwt beam="1">  1        2 0.57737285E+00 0.52896226E+04</pdfrwt>
<pdfrwt beam="2">  1       -2 0.28675190E+00 0.52896226E+04</pdfrwt>
<totfact> 0.12813878E-02</totfact>
</mgrwt>
<rwgt>
<wgt id='morphing_basis_vector_1'> +8.1442934e-06 </wgt>
<wgt id='morphing_basis_vector_2'> +5.5424679e-06 </wgt>
<wgt id='morphing_basis_vector_3'> +8.9791451e-06 </wgt>
<wgt id='morphing_basis_vector_4'> +6.4820580e-06 </wgt>
<wgt id='morphing_basis_vector_5'> +1.0348785e-05 </wgt>
</rwgt>
</event>
<event>
 4      1 +7.6845000e-11 5.04277900e+03 7.81860800e-03 7.37871000e-02
        2 -1    0    0  501    0 +0.0000000000e+00 +0.0000000000e+00 +3.7152427516e+03 3.7152427516e+03 0.0000000000e+00 0.0000e+00 1.0000e+00
       -2 -1    0    0    0  501 -0.0000000000e+00 -0.0000000000e+00 -1.7111681099e+03 1.7111681099e+03 0.0000000000e+00 0.0000e+00 -1.0000e+00
      -13  1    1    2    0    0 -1.5646360976e+03 +1.7893994829e+03 +9.7001987830e+01 2.3789590188e+03 0.0000000000e+00 0.0000e+00 -1.0000e+00
       13  1    1    2    0    0 +1.5646360976e+03 -1.7893994829e+03 +1.9070726538e+03 3.0474518428e+03 0.0000000000e+00 0.0000e+00 1.0000e+00
<mgrwt>
<rscale>  0 0.50427790E+04</rscale>
<asrwt>0</asrwt>
<pdfrwt beam="1">  1        2 0.57157580E+00 0.50427790E+04</pdfrwt>
<pdfrwt beam="2">  1       -2 0.26325663E+00 0.50427790E+04</pdfrwt>
<totfact> 0.20218423E-02</totfact>
</mgrwt>
<rwgt>
<wgt id='morphing_basis_vector_1'> +6.7943829e-06 </wgt>
<wgt id='morphing_basis_vector_2'> +4.7647951e-06 </wgt>
<wgt id='morphing_basis_vector_3'> +7.5196999e-06 </wgt>
<wgt id='morphing_basis_vector_4'> +5.2164930e-06 </wgt>
<wgt id='morphing_basis_vector_5'> +8.5319630e-06 </wgt>
</rwgt>
</event>
<event>
 4      1 +7.6845000e-11 4.78845700e+03 7.81860800e-03 7.41431800e-02
        2 -1    0    0  501    0 +0.0000000000e+00 +0.0000000000e+00 +3.0430137592e+03 3.0430137592e+03 0.0000000000e+00 0.0000e+00 -1.0000e+00
       -2 -1    0    0    0  501 -0.0000000000e+00 -0.0000000000e+00 -1.8837671437e+03 1.8837671437e+03 0.0000000000e+00 0.0000e+00 1.0000e+00
      -13  1    1    2    0    0 +1.0478974546e+03 -1.4987296519e+03 -1.0103482908e+03 2.0892781800e+03 0.0000000000e+00 0.0000e+00 1.0000e+00
       13  1    1    2    0    0 -1.0478974546e+03 +1.4987296519e+03 +2.1695949063e+03 2.8375027229e+03 0.0000000000e+00 0.0000e+00 -1.0000e+00
<mgrwt>
<rscale>  0 0.47884567E+04</rscale>
<asrwt>0</asrwt>
<pdfrwt beam="1">  1        2 0.46815596E+00 0.47884567E+04</pdfrwt>
<pdfrwt beam="2">  1       -2 0.28981033E+00 0.47884567E+04</pdfrwt>
<totfact> 0.41004599E-02</totfact>
</mgrwt>
<rwgt>
<wgt id='morphing_basis_vector_1'> +5.4838484e-06 </wgt>
<wgt id='morphing_basis_vector_2'> +3.7457317e-06 </wgt>
<wgt id='morphing_basis_vector_3'> +6.0425171e-06 </wgt>
<wgt id='morphing_basis_vector_4'> +4.3320166e-06 </wgt>
<wgt id='morphing_basis_vector_5'> +6.9398207e-06 </wgt>
</rwgt>
</event>
<event>
 4      1 +7.6845000e-11 4.72546600e+03 7.81860800e-03 7.42348200e-02
        2 -1    0    0  501    0 +0.0000000000e+00 +0.0000000000e+00 +2.3068107225e+03 2.3068107225e+03 0.0000000000e+00 0.0000e+00 -1.0000e+00
       -2 -1    0    0    0  501 -0.0000000000e+00 -0.0000000000e+00 -2.4200109474e+03 2.4200109474e+03 0.0000000000e+00 0.0000e+00 1.0000e+00
      -13  1    1    2    0    0 +9.5202010764e+02 +8.6415447949e+02 -2.0394407202e+03 2.4108968665e+03 0.0000000000e+00 0.0000e+00 1.0000e+00
       13  1    1    2    0    0 -9.5202010764e+02 -8.6415447949e+02 +1.9262404952e+03 2.3159248034e+03 0.0000000000e+00 0.0000e+00 -1.0000e+00
<mgrwt>
<rscale>  0 0.47254660E+04</rscale>
<asrwt>0</asrwt>
<pdfrwt beam="1">  1        2 0.35489396E+00 0.47254660E+04</pdfrwt>
<pdfrwt beam="2">  1       -2 0.37230938E+00 0.47254660E+04</pdfrwt>
<totfact> 0.33493616E-02</totfact>
</mgrwt>
<rwgt>
<wgt id='morphing_basis_vector_1'> +5.1937646e-06 </wgt>
<wgt id='morphing_basis_vector_2'> +3.5287537e-06 </wgt>
<wgt id='morphing_basis_vector_3'> +5.7176200e-06 </wgt>
<wgt id='morphing_basis_vector_4'> +4.1251750e-06 </wgt>
<wgt id='morphing_basis_vector_5'> +6.5820329e-06 </wgt>
</rwgt>
</event>
<event>
 4      1 +7.6845000e-11 4.98759200e+03 7.81860800e-03 7.38625300e-02
        2 -1    0    0  501    0 +0.0000000000e+00 +0.0000000000e+00 +3.3946095802e+03 3.3946095802e+03 0.0000000000e+00 0.0000e+00 -1.0000e+00
       -2 -1    0    0    0  501 -0.0000000000e+00 -0.0000000000e+00 -1.8320279103e+03 1.8320279103e+03 0.0000000000e+00 0.0000e+00 1.0000e+00
      -13  1    1    2    0    0 +9.0855552532e+01 +2.3595332058e+03 -5.9254399099e+01 2.3620251405e+03 0.0000000000e+00 0.0000e+00 1.0000e+00
       13  1    1    2    0    0 -9.0855552532e+01 -2.3595332058e+03 +1.6218360690e+03 2.8646123500e+03 0.0000000000e+00 0.0000e+00 -1.0000e+00
<mgrwt>
<rscale>  0 0.49875924E+04</rscale>
<asrwt>0</asrwt>
<pdfrwt beam="1">  1        2 0.52224762E+00 0.49875924E+04</pdfrwt>
<pdfrwt beam="2">  1       -2 0.28185045E+00 0.49875924E+04</pdfrwt>
<totfact> 0.26275515E-02</totfact>
</mgrwt>
<rwgt>
<wgt id='morphing_basis_vector_1'> +6.5061525e-06 </wgt>
<wgt id='morphing_basis_vector_2'> +4.5699114e-06 </wgt>
<wgt id='morphing_basis_vector_3'> +7.2014622e-06 </wgt>
<wgt id='morphing_basis_vector_4'> +4.9839222e-06 </wgt>
<wgt id='morphing_basis_vector_5'> +8.1628260e-06 </wgt>
</rwgt>
</event>
<event>
 4      1 +7.6845000e-11 4.99237800e+03 7.81860800e-03 7.38559500e-02
        2 -1    0    0  501    0 +0.0000000000e+00 +0.0000000000e+00 +2.4577443980e+03 2.4577443980e+03 0.0000000000e+00 0.0000e+00 1.0000e+00
       -2 -1    0    0    0  501 -0.0000000000e+00 -0.0000000000e+00 -2.5352350223e+03 2.5352350223e+03 0.0000000000e+00 0.0000e+00 -1.0000e+00
      -13  1    1    2    0    0 -2.2617351134e+03 +9.9406645727e+02 -3.9564377087e+02 2.5020287445e+03 0.0000000000e+00 0.0000e+00 -1.0000e+00
       13  1    1    2    0    0 +2.2617351134e+03 -9.9406645727e+02 +3.1815314652e+02 2.4909506758e+03 0.0000000000e+00 0.0000e+00 1.0000e+00
<mgrwt>
<rscale>  0 0.49923781E+04</rscale>
<asrwt>0</asrwt>
<pdfrwt beam="1">  1        2 0.37811452E+00 0.49923781E+04</pdfrwt>
<pdfrwt beam="2">  1       -2 0.39003616E+00 0.49923781E+04</pdfrwt>
<totfact> 0.20557248E-02</totfact>
</mgrwt>
<rwgt>
<wgt id='morphing_basis_vector_1'> +6.6032981e-06 </wgt>
<wgt id='morphing_basis_vector_2'> +4.7995422e-06 </wgt>
<wgt id='morphing_basis_vector_3'> +7.3463337e-06 </wgt>
<wgt id='morphing_basis_vector_4'> +4.8492629e-06 </wgt>
<wgt id='morphing_basis_vector_5'> +8.1814011e-06 </wgt>
</rwgt>
</event>
<event>
 4      1 +7.6845000e-11 4.77534200e+03 7.81860800e-03 7.41621400e-02
        2 -1    0    0  501    0 +0.0000000000e+00 +0.0000000000e+00 +1.7125923208e+03 1.7125923208e+03 0.0000000000e+00 0.0000e+00 -1.0000e+00
       -2 -1    0    0    0  501 -0.0000000000e+00 -0.0000000000e+00 -3.3288554094e+03 3.3288554094e+03 0.0000000000e+00 0.0000e+00 1.0000e+00
      -13  1    1    2    0    0 +5.9647271591e+02 +8.4833461664e+01 -3.2472894961e+03 3.3027057829e+03 0.0000000000e+00 0.0000e+00 1.0000e+00
       13  1    1    2    0    0 -5.9647271591e+02 -8.4833461664e+01 +1.6310264075e+03 1.7387419472e+03 0.0000000000e+00 0.0000e+00 -1.0000e+00
<mgrwt>
<rscale>  0 0.47753418E+04</rscale>
<asrwt>0</asrwt>
<pdfrwt beam="1">  1        2 0.26347575E+00 0.47753418E+04</pdfrwt>
<pdfrwt beam="2">  1       -2 0.51213159E+00 0.47753418E+04</pdfrwt>
<totfact> 0.77175278E-03</totfact>
</mgrwt>
<rwgt>
<wgt id='morphing_basis_vector_1'> +5.4140720e-06 </wgt>
<wgt id='morphing_basis_vector_2'> +3.6750852e-06 </wgt>
<wgt id='morphing_basis_vector_3'> +5.9601510e-06 </wgt>
<wgt id='morphing_basis_vector_4'> +4.3062105e-06 </wgt>
<wgt id='morphing_basis_vector_5'> +6.8656529e-06 </wgt>
</rwgt>
</event>
<event>
 4      1 +7.6845000e-11 5.05983000e+03 7.81860800e-03 7.37639900e-02
        2 -1    0    0  501    0 +0.0000000000e+00 +0.0000000000e+00 +3.0562715176e+03 3.0562715176e+03 0.0000000000e+00 0.0000e+00 1.0000e+00
       -2 -1    0    0    0  501 -0.0000000000e+00 -0.0000000000e+00 -2.0942083219e+03 2.0942083219e+03 0.0000000000e+00 0.0000e+00 -1.0000e+00
      -13  1    1    2    0    0 -6.5878931285e+02 +2.4002380538e+03 +1.9787553238e+01 2.4890836910e+03 0.0000000000e+00 0.0000e+00 -1.0000e+00
       13  1    1    2    0    0 +6.5878931285e+02 -2.4002380538e+03 +9.4227564247e+02 2.6613961486e+03 0.0000000000e+00 0.0000e+00 1.0000e+00
<mgrwt>
<rscale>  0 0.50598297E+04</rscale>
<asrwt>0</asrwt>
<pdfrwt beam="1">  1        2 0.47019562E+00 0.50598297E+04</pdfrwt>
<pdfrwt beam="2">  1       -2 0.32218590E+00 0.50598297E+04</pdfrwt>
<totfact> 0.23869158E-02</totfact>
</mgrwt>
<rwgt>
<wgt id='morphing_basis_vector_1'> +6.9469292e-06 </wgt>
<wgt id='morphing_basis_vector_2'> +5.0070944e-06 </wgt>
<wgt id='morphing_basis_vector_3'> +7.7201117e-06 </wgt>
<wgt id='morphing_basis_vector_4'> +5.1587063e-06 </wgt>
<wgt id='morphing_basis_vector_5'> +8.6374956e-06 </wgt>
</rwgt>
</event>
<event>
 4      1 +7.6845000e-11 4.96045000e+03 7.81860800e-03 7.39000000e-02
        2 -1    0    0  501    0 +0.0000000000e+00 +0.0000000000e+00 +4.1968899942e+03 4.1968899942e+03 0.0000000000e+00 0.0000e+00 -1.0000e+00
       -2 -1    0    0    0  501 -0.0000000000e+00 -0.0000000000e+00 -1.4657318530e+03 1.4657318530e+03 0.0000000000e+00 0.0000e+00 1.0000e+00
      -13  1    1    2    0    0 +2.0654604169e+03 -1.2599828429e+03 +7.4258763255e+02 2.5308338330e+03 0.0000000000e+00 0.0000e+00 1.0000e+00
       13  1    1    2    0    0 -2.0654604169e+03 +1.2599828429e+03 +1.9885705087e+03 3.1317880142e+03 0.0000000000e+00 0.0000e+00 -1.0000e+00
<mgrwt>
<rscale>  0 0.49604497E+04</rscale>
<asrwt>0</asrwt>
<pdfrwt beam="1">  1        2 0.64567538E+00 0.49604497E+04</pdfrwt>
<pdfrwt beam="2">  1       -2 0.22549721E+00 0.49604497E+04</pdfrwt>
<totfact> 0.14625241E-02</totfact>
</mgrwt>
<rwgt>
<wgt id='morphing_basis_vector_1'> +6.4009104e-06 </wgt>
<wgt id='morphing_basis_vector_2'> +4.5734962e-06 </wgt>
<wgt id='morphing_basis_vector_3'> +7.1024021e-06 </wgt>
<wgt id='morphing_basis_vector_4'> +4.8019089e-06 </wgt>
<wgt id='morphing_basis_vector_5'> +7.9798158e-06 </wgt>
</rwgt>
</event>
<event>
 4      1 +7.6845000e-11 4.62282000e+03 7.81860800e-03 7.43872800e-02
        2 -1    0    0  501    0 +0.0000000000e+00 +0.0000000000e+00 +3.8600145640e+03 3.8600145640e+03 0.0000000000e+00 0.0000e+00 -1.0000e+00
       -2 -1    0    0    0  501 -0.0000000000e+00 -0.0000000000e+00 -1.3840924810e+03 1.3840924810e+03 0.0000000000e+00 0.0000e+00 1.0000e+00
      -13  1    1    2    0    0 +1.0746447557e+03 -1.1808184220e+03 -6.5801536217e+02 1.7268982928e+03 0.0000000000e+00 0.0000e+00 1.0000e+00
       13  1    1    2    0    0 -1.0746447557e+03 +1.1808184220e+03 +3.1339374452e+03 3.5172087523e+03 0.0000000000e+00 0.0000e+00 -1.0000e+00
<mgrwt>
<rscale>  0 0.46228204E+04</rscale>
<asrwt>0</asrwt>
<pdfrwt beam="1">  1        2 0.59384839E+00 0.46228204E+04</pdfrwt>
<pdfrwt beam="2">  1       -2 0.21293731E+00 0.46228204E+04</pdfrwt>
<totfact> 0.35990686E-02</totfact>
</mgrwt>
<rwgt>
<wgt id='morphing_basis_vector_1'> +4.7620724e-06 </wgt>
<wgt id='morphing_basis_vector_2'> +3.2427460e-06 </wgt>
<wgt id='morphing_basis_vector_3'> +5.2425872e-06 </wgt>
<wgt id='morphing_basis_vector_4'> +3.7696082e-06 </wgt>
<wgt id='morphing_basis_vector_5'> +6.0259560e-06 </wgt>
</rwgt>
</event>
<event>
 4      1 +7.6845000e-11 4.66341400e+03 7.81860800e-03 7.43265200e-02
        2 -1    0    0  501    0 +0.0000000000e+00 +0.0000000000e+00 +2.7803934682e+03 2.7803934682e+03 0.0000000000e+00 0.0000e+00 1.0000e+00
       -2 -1    0    0    0  501 -0.0000000000e+00 -0.0000000000e+00 -1.9554276973e+03 1.9554276973e+03 0.0000000000e+00 0.0000e+00 -1.0000e+00
      -13  1    1    2    0    0 +2.1579527610e+03 -5.9163846511e+02 -2.5349058069e+02 2.2519000125e+03 0.0000000000e+00 0.0000e+00 -1.0000e+00
       13  1    1    2    0    0 -2.1579527610e+03 +5.9163846511e+02 +1.0784563516e+03 2.4839211530e+03 0.0000000000e+00 0.0000e+00 1.0000e+00
<mgrwt>
<rscale>  0 0.46634144E+04</rscale>
<asrwt>0</asrwt>
<pdfrwt beam="1">  1        2 0.42775284E+00 0.46634144E+04</pdfrwt>
<pdfrwt beam="2">  1       -2 0.30083503E+00 0.46634144E+04</pdfrwt>
<totfact> 0.51408144E-02</totfact>
</mgrwt>
<rwgt>
<wgt id='morphing_basis_vector_1'> +4.9869220e-06 </wgt>
<wgt id='morphing_basis_vector_2'> +3.5225407e-06 </wgt>
<wgt id='morphing_basis_vector_3'> +5.5197677e-06 </wgt>
<wgt id='morphing_basis_vector_4'> +3.7851229e-06 </wgt>
<wgt id='morphing_basis_vector_5'> +6.2312530e-06 </wgt>
</rwgt>
</event>
<event>
 4      1 +7.6845000e-11 4.90683100e+03 7.81860800e-03 7.39747400e-02
        2 -1    0    0  501    0 +0.0000000000e+00 +0.0000000000e+00 +3.5891859976e+03 3.5891859976e+03 0.0000000000e+00 0.0000e+00 -1.0000e+00
       -2 -1    0    0    0  501 -0.0000000000e+00 -0.0000000000e+00 -1.6770507233e+03 1.6770507233e+03 0.0000000000e+00 0.0000e+00 1.0000e+00
      -13  1    1    2    0    0 +1.0397139219e+03 +2.1658307871e+03 +4.2222191512e+02 2.4392825551e+03 0.0000000000e+00 0.0000e+00 1.0000e+00
       13  1    1    2    0    0 -1.0397139219e+03 -2.1658307871e+03 +1.4899133592e+03 2.8269541658e+03 0.0000000000e+00 0.0000e+00 -1.0000e+00
<mgrwt>
<rscale>  0 0.49068307E+04</rscale>
<asrwt>0</asrwt>
<pdfrwt beam="1">  1        2 0.55218246E+00 0.49068307E+04</pdfrwt>
<pdfrwt beam="2">  1       -2 0.25800780E+00 0.49068307E+04</pdfrwt>
<totfact> 0.27720534E-02</totfact>
</mgrwt>
<rwgt>
<wgt id='morphing_basis_vector_1'> +6.1364106e-06 </wgt>
<wgt id='morphing_basis_vector_2'> +4.3994960e-06 </wgt>
<wgt id='morphing_basis_vector_3'> +6.8114694e-06 </wgt>
<wgt id='morphing_basis_vector_4'> +4.5822934e-06 </wgt>
<wgt id='morphing_basis_vector_5'> +7.6380353e-06 </wgt>
</rwgt>
</event>
<event>
 4      1 +7.6845000e-11 4.77102600e+03 7.81860800e-03 7.41684000e-02
        2 -1    0    0  501    0 +0.0000000000e+00 +0.0000000000e+00 +3.3800187908e+03 3.3800187908e+03 0.0000000000e+00 0.0000e+00 -1.0000e+00
       -2 -1    0    0    0  501 -0.0000000000e+00 -0.0000000000e+00 -1.6836215731e+03 1.6836215731e+03 0.0000000000e+00 0.0000e+00 1.0000e+00
      -13  1    1    2    0    0 -1.1100966134e+03 +1.0020608383e+03 -1.1243459361e+03 1.8709874929e+03 0.0000000000e+00 0.0000e+00 1.0000e+00
       13  1    1    2    0    0 +1.1100966134e+03 -1.0020608383e+03 +2.8207431538e+03 3.1926528709e+03 0.0000000000e+00 0.0000e+00 -1.0000e+00
<mgrwt>
<rscale>  0 0.47710261E+04</rscale>
<asrwt>0</asrwt>
<pdfrwt beam="1">  1        2 0.52000289E+00 0.47710261E+04</pdfrwt>
<pdfrwt beam="2">  1       -2 0.25901870E+00 0.47710261E+04</pdfrwt>
<totfact> 0.39204109E-02</totfact>
</mgrwt>
<rwgt>
<wgt id='morphing_basis_vector_1'> +5.3979298e-06 </wgt>
<wgt id='morphing_basis_vector_2'> +3.6716246e-06 </wgt>
<wgt id='morphing_basis_vector_3'> +5.9440371e-06 </wgt>
<wgt id='morphing_basis_vector_4'> +4.2835208e-06 </wgt>
<wgt id='morphing_basis_vector_5'> +6.8401877e-06 </wgt>
</rwgt>
</event>
<event>
 4      1 +7.6845000e-11 5.03288600e+03 7.81860800e-03 7.38005500e-02
        2 -1    0    0  501    0 +0.0000000000e+00 +0.0000000000e+00 +3.0922873803e+03 3.0922873803e+03 0.0000000000e+00 0.0000e+00 -1.0000e+00
       -2 -1    0    0    0  501 -0.0000000000e+00 -0.0000000000e+00 -2.0478318812e+03 2.0478318812e+03 0.0000000000e+00 0.0000e+00 1.0000e+00
      -13  1    1    2    0    0 +1.4956529842e+03 +8.5639986764e+02 -1.3504391822e+03 2.1895398072e+03 0.0000000000e+00 0.0000e+00 1.0000e+00
       13  1    1    2    0    0 -1.4956529842e+03 -8.5639986764e+02 +2.3948946812e+03 2.9505794544e+03 0.0000000000e+00 0.0000e+00 -1.0000e+00
<mgrwt>
<rscale>  0 0.50328857E+04</rscale>
<asrwt>0</asrwt>
<pdfrwt beam="1">  1        2 0.47573652E+00 0.50328857E+04</pdfrwt>
<pdfrwt beam="2">  1       -2 0.31505106E+00 0.50328857E+04</pdfrwt>
<totfact> 0.25254723E-02</totfact>
</mgrwt>
<rwgt>
<wgt id='morphing_basis_vector_1'> +6.6818001e-06 </wgt>
<wgt id='morphing_basis_vector_2'> +4.5525656e-06 </wgt>
<wgt id='morphing_basis_vector_3'> +7.3641363e-06 </wgt>
<wgt id='morphing_basis_vector_4'> +5.3025475e-06 </wgt>
<wgt id='morphing_basis_vector_5'> +8.4756461e-06 </wgt>
</rwgt>
</event>
<event>
 4      1 +7.6845000e-11 4.64784100e+03 7.81860800e-03 7.43497500e-02
        2 -1    0    0  501    0 +0.0000000000e+00 +0.0000000000e+00 +3.9614232474e+03 3.9614232474e+03 0.0000000000e+00 0.0000e+00 -1.0000e+00
       -2 -1    0    0    0  501 -0.0000000000e+00 -0.0000000000e+00 -1.3632997225e+03 1.3632997225e+03 0.0000000000e+00 0.0000e+00 1.0000e+00
      -13  1    1    2    0    0 +3.3302407749e+02 +2.0922635855e+03 +2.0491557949e+02 2.1284882763e+03 0.0000000000e+00 0.0000e+00 1.0000e+00
       13  1    1    2    0    0 -3.3302407749e+02 -2.0922635855e+03 +2.3932079454e+03 3.1962346937e+03 0.0000000000e+00 0.0000e+00 -1.0000e+00
<mgrwt>
<rscale>  0 0.46478413E+04</rscale>
<asrwt>0</asrwt>
<pdfrwt beam="1">  1        2 0.60944973E+00 0.46478413E+04</pdfrwt>
<pdfrwt beam="2">  1       -2 0.20973842E+00 0.46478413E+04</pdfrwt>
<totfact> 0.31219464E-02</totfact>
</mgrwt>
<rwgt>
<wgt id='morphing_basis_vector_1'> +4.8944497e-06 </wgt>
<wgt id='morphing_basis_vector_2'> +3.3981311e-06 </wgt>
<wgt id='morphing_basis_vector_3'> +5.4036398e-06 </wgt>
<wgt id='morphing_basis_vector_4'> +3.7908599e-06 </wgt>
<wgt id='morphing_basis_vector_5'> +6.1528391e-06 </wgt>
</rwgt>
</event>
<event>
 4      1 +7.6845000e-11 4.70929400e+03 7.81860800e-03 7.42585800e-02
        2 -1    0    0  501    0 +0.0000000000e+00 +0.0000000000e+00 +2.5027777436e+03 2.5027777436e+03 0.0000000000e+00 0.0000e+00 -1.0000e+00
       -2 -1    0    0    0  501 -0.0000000000e+00 -0.0000000000e+00 -2.2152832238e+03 2.2152832238e+03 0.0000000000e+00 0.0000e+00 1.0000e+00
      -13  1    1    2    0    0 -1.0081797757e+03 +1.3611252495e+03 -1.4949240359e+03 2.2591782307e+03 0.0000000000e+00 0.0000e+00 1.0000e+00
       13  1    1    2    0    0 +1.0081797757e+03 -1.3611252495e+03 +1.7824185557e+03 2.4588827367e+03 0.0000000000e+00 0.0000e+00 -1.0000e+00
<mgrwt>
<rscale>  0 0.47092936E+04</rscale>
<asrwt>0</asrwt>
<pdfrwt beam="1">  1        2 0.38504273E+00 0.47092936E+04</pdfrwt>
<pdfrwt beam="2">  1       -2 0.34081280E+00 0.47092936E+04</pdfrwt>
<totfact> 0.41080638E-02</totfact>
</mgrwt>
<rwgt>
<wgt id='morphing_basis_vector_1'> +5.1284546e-06 </wgt>
<wgt id='morphing_basis_vector_2'> +3.4959402e-06 </wgt>
<wgt id='morphing_basis_vector_3'> +5.6481317e-06 </wgt>
<wgt id='morphing_basis_vector_4'> +4.0578072e-06 </wgt>
<wgt id='morphing_basis_vector_5'> +6.4911518e-06 </wgt>
</rwgt>
</event>
<event>
 4      1 +7.6845000e-11 4.91368100e+03 7.81860800e-03 7.39651300e-02
        2 -1    0    0  501    0 +0.0000000000e+00 +0.0000000000e+00 +3.3564991673e+03 3.3564991673e+03 0.0000000000e+00 0.0000e+00 -1.0000e+00
       -2 -1    0    0    0  501 -0.0000000000e+00 -0.0000000000e+00 -1.7983220496e+03 1.7983220496e+03 0.0000000000e+00 0.0000e+00 1.0000e+00
      -13  1    1    2    0    0 -1.6470645508e+03 -4.8846049856e+02 -1.0634205112e+03 2.0204649160e+03 0.0000000000e+00 0.0000e+00 1.0000e+00
       13  1    1    2    0    0 +1.6470645508e+03 +4.8846049856e+02 +2.6215976289e+03 3.1343563009e+03 0.0000000000e+00 0.0000e+00 -1.0000e+00
<mgrwt>
<rscale>  0 0.49136815E+04</rscale>
<asrwt>0</asrwt>
<pdfrwt beam="1">  1        2 0.51638449E+00 0.49136815E+04</pdfrwt>
<pdfrwt beam="2">  1       -2 0.27666493E+00 0.49136815E+04</pdfrwt>
<totfact> 0.30503954E-02</totfact>
</mgrwt>
<rwgt>
<wgt id='morphing_basis_vector_1'> +6.0735765e-06 </wgt>
<wgt id='morphing_basis_vector_2'> +4.1390340e-06 </wgt>
<wgt id='morphing_basis_vector_3'> +6.6921906e-06 </wgt>
<wgt id='morphing_basis_vector_4'> +4.8147267e-06 </wgt>
<wgt id='morphing_basis_vector_5'> +7.6982428e-06 </wgt>
</rwgt>
</event>
<event>
 4      1 +7.6845000e-11 5.23143700e+03 7.81860800e-03 7.35365200e-02
        2 -1    0    0  501    0 +0.0000000000e+00 +0.0000000000e+00 +1.9966951628e+03 1.9966951628e+03 0.0000000000e+00 0.0000e+00 1.0000e+00
       -2 -1    0    0    0  501 -0.0000000000e+00 -0.0000000000e+00 -3.4266534619e+03 3.4266534619e+03 0.0000000000e+00 0.0000e+00 -1.0000e+00
      -13  1    1    2    0    0 +2.3267948487e+03 -7.3126684433e+02 +2.6481478615e+02 2.4533349418e+03 0.0000000000e+00 0.0000e+00 -1.0000e+00
       13  1    1    2    0    0 -2.3267948487e+03 +7.3126684433e+02 -1.6947730853e+03 2.9700136829e+03 0.0000000000e+00 0.0000e+00 1.0000e+00
<mgrwt>
<rscale>  0 0.52314367E+04</rscale>
<asrwt>0</asrwt>
<pdfrwt beam="1">  1        2 0.30718387E+00 0.52314367E+04</pdfrwt>
<pdfrwt beam="2">  1       -2 0.52717745E+00 0.52314367E+04</pdfrwt>
<totfact> 0.39989616E-03</totfact>
</mgrwt>
<rwgt>
<wgt id='morphing_basis_vector_1'> +8.7524499e-06 </wgt>
<wgt id='morphing_basis_vector_2'> +8.1205279e-06 </wgt>
<wgt id='morphing_basis_vector_3'> +1.0150608e-05 </wgt>
<wgt id='morphing_basis_vector_4'> +4.1538223e-06 </wgt>
<wgt id='morphing_basis_vector_5'> +9.7278821e-06 </wgt>
</rwgt>
</event>
<event>
 4      1 +7.6845000e-11 4.99437700e+03 7.81860800e-03 7.38532000e-02
        2 -1    0    0  501    0 +0.0000000000e+00 +0.0000000000e+00 +2.2293127806e+03 2.2293127806e+03 0.0000000000e+00 0.0000e+00 -1.0000e+00
       -2 -1    0    0    0  501 -0.0000000000e+00 -0.0000000000e+00 -2.7972527203e+03 2.7972527203e+03 0.0000000000e+00 0.0000e+00 1.0000e+00
      -13  1    1    2    0    0 +9.0228010186e+02 -2.2007213698e+03 -1.0495744562e+03 2.5997866198e+03 0.0000000000e+00 0.0000e+00 1.0000e+00
       13  1    1    2    0    0 -9.0228010186e+02 +2.2007213698e+03 +4.8163451647e+02 2.4267788810e+03 0.0000000000e+00 0.0000e+00 -1.0000e+00
<mgrwt>
<rscale>  0 0.49943773E+04</rscale>
<asrwt>0</asrwt>
<pdfrwt beam="1">  1        2 0.34297119E+00 0.49943773E+04</pdfrwt>
<pdfrwt beam="2">  1       -2 0.43034658E+00 0.49943773E+04</pdfrwt>
<totfact> 0.15154386E-02</totfact>
</mgrwt>
<rwgt>
<wgt id='morphing_basis_vector_1'> +6.5466582e-06 </wgt>
<wgt id='morphing_basis_vector_2'> +4.6099111e-06 </wgt>
<wgt id='morphing_basis_vector_3'> +7.2490777e-06 </wgt>
<wgt id='morphing_basis_vector_4'> +5.0002140e-06 </wgt>
<wgt id='morphing_basis_vector_5'> +8.2065566e-06 </wgt>
</rwgt>
</event>
<event>
 4      1 +7.6845000e-11 5.02916500e+03 7.81860800e-03 7.38056100e-02
        2 -1    0    0  501    0 +0.0000000000e+00 +0.0000000000e+00 +2.9134367923e+03 2.9134367923e+03 0.0000000000e+00 0.0000e+00 -1.0000e+00
       -2 -1    0    0    0  501 -0.0000000000e+00 -0.0000000000e+00 -2.1703318094e+03 2.1703318094e+03 0.0000000000e+00 0.0000e+00 1.0000e+00
      -13  1    1    2    0    0 -5.7952708247e+02 -5.4846909128e+02 -2.0389672769e+03 2.1895336352e+03 0.0000000000e+00 0.0000e+00 1.0000e+00
       13  1    1    2    0    0 +5.7952708247e+02 +5.4846909128e+02 +2.7820722597e+03 2.8942349665e+03 0.0000000000e+00 0.0000e+00 -1.0000e+00
<mgrwt>
<rscale>  0 0.50291648E+04</rscale>
<asrwt>0</asrwt>
<pdfrwt beam="1">  1        2 0.44822105E+00 0.50291648E+04</pdfrwt>
<pdfrwt beam="2">  1       -2 0.33389720E+00 0.50291648E+04</pdfrwt>
<totfact> 0.24799612E-02</totfact>
</mgrwt>
<rwgt>
<wgt id='morphing_basis_vector_1'> +6.6556339e-06 </wgt>
<wgt id='morphing_basis_vector_2'> +4.5200706e-06 </wgt>
<wgt id='morphing_basis_vector_3'> +7.3318494e-06 </wgt>
<wgt id='morphing_basis_vector_4'> +5.3006697e-06 </wgt>
<wgt id='morphing_basis_vector_5'> +8.4516902e-06 </wgt>
</rwgt>
</event>
<event>
 4      1 +7.6845000e-11 4.81035800e+03 7.81860800e-03 7.41116500e-02
        2 -1    0    0  501    0 +0.0000000000e+00 +0.0000000000e+00 +1.8288661791e+03 1.8288661791e+03 0.0000000000e+00 0.0000e+00 -1.0000e+00
       -2 -1    0    0    0  501 -0.0000000000e+00 -0.0000000000e+00 -3.1630992245e+03 3.1630992245e+03 0.0000000000e+00 0.0000e+00 1.0000e+00
      -13  1    1    2    0    0 -7.4592154959e+02 +1.4256668130e+03 -2.5223342774e+03 2.9918380683e+03 0.0000000000e+00 0.0000e+00 1.0000e+00
       13  1    1    2    0    0 +7.4592154959e+02 -1.4256668130e+03 +1.1881012321e+03 2.0001273353e+03 0.0000000000e+00 0.0000e+00 -1.0000e+00
<mgrwt>
<rscale>  0 0.48103577E+04</rscale>
<asrwt>0</asrwt>
<pdfrwt beam="1">  1        2 0.28136403E+00 0.48103577E+04</pdfrwt>
<pdfrwt beam="2">  1       -2 0.48663065E+00 0.48103577E+04</pdfrwt>
<totfact> 0.10302737E-02</totfact>
</mgrwt>
<rwgt>
<wgt id='morphing_basis_vector_1'> +5.5789079e-06 </wgt>
<wgt id='morphing_basis_vector_2'> +3.7982033e-06 </wgt>
<wgt id='morphing_basis_vector_3'> +6.1447376e-06 </wgt>
<wgt id='morphing_basis_vector_4'> +4.4239917e-06 </wgt>
<wgt id='morphing_basis_vector_5'> +7.0690982e-06 </wgt>
</rwgt>
</event>
<event>
 4      1 +7.6845000e-11 4.67292300e+03 7.81860800e-03 7.43123700e-02
        2 -1    0    0  501    0 +0.0000000000e+00 +0.0000000000e+00 +3.0114343970e+03 3.0114343970e+03 0.0000000000e+00 0.0000e+00 -1.0000e+00
       -2 -1    0    0    0  501 -0.0000000000e+00 -0.0000000000e+00 -1.8127747075e+03 1.8127747075e+03 0.0000000000e+00 0.0000e+00 1.0000e+00
      -13  1    1    2    0    0 -3.0715965823e+02 +1.0343720537e+03 -1.5401487437e+03 1.8805134282e+03 0.0000000000e+00 0.0000e+00 1.0000e+00
       13  1    1    2    0    0 +3.0715965823e+02 -1.0343720537e+03 +2.7388084331e+03 2.9436956763e+03 0.0000000000e+00 0.0000e+00 -1.0000e+00
<mgrwt>
<rscale>  0 0.46729229E+04</rscale>
<asrwt>0</asrwt>
<pdfrwt beam="1">  1        2 0.46329760E+00 0.46729229E+04</pdfrwt>
<pdfrwt beam="2">  1       -2 0.27888842E+00 0.46729229E+04</pdfrwt>
<totfact> 0.51480465E-02</totfact>
</mgrwt>
<rwgt>
<wgt id='morphing_basis_vector_1'> +4.9665879e-06 </wgt>
<wgt id='morphing_basis_vector_2'> +3.3721987e-06 </wgt>
<wgt id='morphing_basis_vector_3'> +5.4662530e-06 </wgt>
<wgt id='morphing_basis_vector_4'> +3.9458779e-06 </wgt>
<wgt id='morphing_basis_vector_5'> +6.2932694e-06 </wgt>
</rwgt>
</event>
<event>
 4      1 +7.6845000e-11 5.26916100e+03 7.81860800e-03 7.34877100e-02
        2 -1    0    0  501    0 +0.0000000000e+00 +0.0000000000e+00 +4.6107470048e+03 4.6107470048e+03 0.0000000000e+00 0.0000e+00 1.0000e+00
       -2 -1    0    0    0  501 -0.0000000000e+00 -0.0000000000e+00 -1.5053991538e+03 1.5053991538e+03 0.0000000000e+00 0.0000e+00 -1.0000e+00
      -13  1    1    2    0    0 +1.7295726179e+03 -9.2479102821e+02 +3.5945126230e+03 4.0947748270e+03 0.0000000000e+00 0.0000e+00 -1.0000e+00
       13  1    1    2    0    0 -1.7295726179e+03 +9.2479102821e+02 -4.8916477204e+02 2.0213713317e+03 0.0000000000e+00 0.0000e+00 1.0000e+00
<mgrwt>
<rscale>  0 0.52691611E+04</rscale>
<asrwt>0</asrwt>
<pdfrwt beam="1">  1        2 0.70934569E+00 0.52691611E+04</pdfrwt>
<pdfrwt beam="2">  1       -2 0.23159987E+00 0.52691611E+04</pdfrwt>
<totfact> 0.50026291E-03</totfact>
</mgrwt>
<rwgt>
<wgt id='morphing_basis_vector_1'> +1.0200874e-05 </wgt>
<wgt id='morphing_basis_vector_2'> +1.1862594e-05 </wgt>
<wgt id='morphing_basis_vector_3'> +1.2388346e-05 </wgt>
<wgt id='morphing_basis_vector_4'> +1.7279689e-06 </wgt>
<wgt id='morphing_basis_vector_5'> +9.7985507e-06 </wgt>
</rwgt>
</event>
<event>
 4      1 +7.6845000e-11 5.09512200e+03 7.81860800e-03 7.37164600e-02
        2 -1    0    0  501    0 +0.0000000000e+00 +0.0000000000e+00 +2.5869671989e+03 2.5869671989e+03 0.0000000000e+00 0.0000e+00 1.0000e+00
       -2 -1    0    0    0  501 -0.0000000000e+00 -0.0000000000e+00 -2.5087549921e+03 2.5087549921e+03 0.0000000000e+00 0.0000e+00 -1.0000e+00
      -13  1    1    2    0    0 -7.0930601709e+02 +1.9008613416e+03 +1.5799621417e+03 2.5715110801e+03 0.0000000000e+00 0.0000e+00 1.0000e+00
       13  1    1    2    0    0 +7.0930601709e+02 -1.9008613416e+03 -1.5017499349e+03 2.5242111110e+03 0.0000000000e+00 0.0000e+00 -1.0000e+00
<mgrwt>
<rscale>  0 0.50951219E+04</rscale>
<asrwt>0</asrwt>
<pdfrwt beam="1">  1        2 0.39799496E+00 0.50951219E+04</pdfrwt>
<pdfrwt beam="2">  1       -2 0.38596230E+00 0.50951219E+04</pdfrwt>
<totfact> 0.18134532E-02</totfact>
</mgrwt>
<rwgt>
<wgt id='morphing_basis_vector_1'> +8.6875386e-06 </wgt>
<wgt id='morphing_basis_vector_2'> +9.6860615e-06 </wgt>
<wgt id='morphing_basis_vector_3'> +1.0447523e-05 </wgt>
<wgt id='morphing_basis_vector_4'> +2.0102722e-06 </wgt>
<wgt id='morphing_basis_vector_5'> +8.6054902e-06 </wgt>
</rwgt>
</event>
<event>
 4      1 +7.6845000e-11 5.04310900e+03 7.81860800e-03 7.37866500e-02
        2 -1    0    0  501    0 +0.0000000000e+00 +0.0000000000e+00 +2.5698694920e+03 2.5698694920e+03 0.0000000000e+00 0.0000e+00 1.0000e+00
       -2 -1    0    0    0  501 -0.0000000000e+00 -0.0000000000e+00 -2.4741475222e+03 2.4741475222e+03 0.0000000000e+00 0.0000e+00 -1.0000e+00
      -13  1    1    2    0    0 +1.1880279736e+02 +1.6832354639e+03 -1.8262002068e+03 2.4864438315e+03 0.0000000000e+00 0.0000e+00 -1.0000e+00
       13  1    1    2    0    0 -1.1880279736e+02 -1.6832354639e+03 +1.9219221767e+03 2.5575731827e+03 0.0000000000e+00 0.0000e+00 1.0000e+00
<mgrwt>
<rscale>  0 0.50431087E+04</rscale>
<asrwt>0</asrwt>
<pdfrwt beam="1">  1        2 0.39536454E+00 0.50431087E+04</pdfrwt>
<pdfrwt beam="2">  1       -2 0.38063808E+00 0.50431087E+04</pdfrwt>
<totfact> 0.20184389E-02</totfact>
</mgrwt>
<rwgt>
<wgt id='morphing_basis_vector_1'> +6.7352799e-06 </wgt>
<wgt id='morphing_basis_vector_2'> +4.5872770e-06 </wgt>
<wgt id='morphing_basis_vector_3'> +7.4228442e-06 </wgt>
<wgt id='morphing_basis_vector_4'> +5.3475943e-06 </wgt>
<wgt id='morphing_basis_vector_5'> +8.5450792e-06 </wgt>
</rwgt>
</event>
<event>
 4      1 +7.6845000e-11 4.65674300e+03 7.81860800e-03 7.43364600e-02
        2 -1    0    0  501    0 +0.0000000000e+00 +0.0000000000e+00 +2.4403957300e+03 2.4403957300e+03 0.0000000000e+00 0.0000e+00 -1.0000e+00
       -2 -1    0    0    0  501 -0.0000000000e+00 -0.0000000000e+00 -2.2214894709e+03 2.2214894709e+03 0.0000000000e+00 0.0000e+00 1.0000e+00
      -13  1    1    2    0    0 -5.9009063393e+02 +1.9674690348e+03 -9.8819372292e+02 2.2794008409e+03 0.0000000000e+00 0.0000e+00 1.0000e+00
       13  1    1    2    0    0 +5.9009063393e+02 -1.9674690348e+03 +1.2070999820e+03 2.3824843601e+03 0.0000000000e+00 0.0000e+00 -1.0000e+00
<mgrwt>
<rscale>  0 0.46567428E+04</rscale>
<asrwt>0</asrwt>
<pdfrwt beam="1">  1        2 0.37544550E+00 0.46567428E+04</pdfrwt>
<pdfrwt beam="2">  1       -2 0.34176761E+00 0.46567428E+04</pdfrwt>
<totfact> 0.44284181E-02</totfact>
</mgrwt>
<rwgt>
<wgt id='morphing_basis_vector_1'> +4.9232214e-06 </wgt>
<wgt id='morphing_basis_vector_2'> +3.3986757e-06 </wgt>
<wgt id='morphing_basis_vector_3'> +5.4310916e-06 </wgt>
<wgt id='morphing_basis_vector_4'> +3.8385643e-06 </wgt>
<wgt id='morphing_basis_vector_5'> +6.2018300e-06 </wgt>
</rwgt>
</event>
<event>
 4      1 +7.6845000e-11 4.85714600e+03 7.81860800e-03 7.40448500e-02
        2 -1    0    0  501    0 +0.0000000000e+00 +0.0000000000e+00 +2.7422933488e+03 2.7422933488e+03 0.0000000000e+00 0.0000e+00 -1.0000e+00
       -2 -1    0    0    0  501 -0.0000000000e+00 -0.0000000000e+00 -2.1507424771e+03 2.1507424771e+03 0.0000000000e+00 0.0000e+00 1.0000e+00
      -13  1    1    2    0    0 -8.4963674815e+02 +1.1099210687e+03 -1.7048899949e+03 2.2046444786e+03 0.0000000000e+00 0.0000e+00 1.0000e+00
       13  1    1    2    0    0 +8.4963674815e+02 -1.1099210687e+03 +2.2964408665e+03 2.6883913473e+03 0.0000000000e+00 0.0000e+00 -1.0000e+00
<mgrwt>
<rscale>  0 0.48571460E+04</rscale>
<asrwt>0</asrwt>
<pdfrwt beam="1">  1        2 0.42189129E+00 0.48571460E+04</pdfrwt>
<pdfrwt beam="2">  1       -2 0.33088345E+00 0.48571460E+04</pdfrwt>
<totfact> 0.33733032E-02</totfact>
</mgrwt>
<rwgt>
<wgt id='morphing_basis_vector_1'> +5.7956164e-06 </wgt>
<wgt id='morphing_basis_vector_2'> +3.9398745e-06 </wgt>
<wgt id='morphing_basis_vector_3'> +6.3828132e-06 </wgt>
<wgt id='morphing_basis_vector_4'> +4.6050737e-06 </wgt>
<wgt id='morphing_basis_vector_5'> +7.3496247e-06 </wgt>
</rwgt>
</event>
<event>
 4      1 +7.6845000e-11 5.34809700e+03 7.81860800e-03 7.33869200e-02
        2 -1    0    0  501    0 +0.0000000000e+00 +0.0000000000e+00 +1.9911385277e+03 1.9911385277e+03 0.0000000000e+00 0.0000e+00 -1.0000e+00
       -2 -1    0    0    0  501 -0.0000000000e+00 -0.0000000000e+00 -3.5911798649e+03 3.5911798649e+03 0.0000000000e+00 0.0000e+00 1.0000e+00
      -13  1    1    2    0    0 +1.4087889612e+03 -2.1877697637e+03 -1.4430474000e+03 2.9754678077e+03 0.0000000000e+00 0.0000e+00 1.0000e+00
       13  1    1    2    0    0 -1.4087889612e+03 +2.1877697637e+03 -1.5699393729e+02 2.6068505850e+03 0.0000000000e+00 0.0000e+00 -1.0000e+00
<mgrwt>
<rscale>  0 0.53480975E+04</rscale>
<asrwt>0</asrwt>
<pdfrwt beam="1">  1        2 0.30632901E+00 0.53480975E+04</pdfrwt>
<pdfrwt beam="2">  1       -2 0.55248920E+00 0.53480975E+04</pdfrwt>
<totfact> 0.26177605E-03</totfact>
</mgrwt>
<rwgt>
<wgt id='morphing_basis_vector_1'> +8.6351780e-06 </wgt>
<wgt id='morphing_basis_vector_2'> +6.1607861e-06 </wgt>
<wgt id='morphing_basis_vector_3'> +9.5874592e-06 </wgt>
<wgt id='morphing_basis_vector_4'> +6.5057527e-06 </wgt>
<wgt id='morphing_basis_vector_5'> +1.0792827e-05 </wgt>
</rwgt>
</event>
<event>
 4      1 +7.6845000e-11 4.87753700e+03 7.81860800e-03 7.40159700e-02
        2 -1    0    0  501    0 +0.0000000000e+00 +0.0000000000e+00 +4.4906776161e+03 4.4906776161e+03 0.0000000000e+00 0.0000e+00 1.0000e+00
       -2 -1    0    0    0  501 -0.0000000000e+00 -0.0000000000e+00 -1.3244307059e+03 1.3244307059e+03 0.0000000000e+00 0.0000e+00 -1.0000e+00
      -13  1    1    2    0    0 +2.9262088676e+02 +2.1696462554e+03 +3.0205325090e+02 2.2100289643e+03 0.0000000000e+00 0.0000e+00 -1.0000e+00
       13  1    1    2    0    0 -2.9262088676e+02 -2.1696462554e+03 +2.8641936593e+03 3.6050793576e+03 0.0000000000e+00 0.0000e+00 1.0000e+00
<mgrwt>
<rscale>  0 0.48775368E+04</rscale>
<asrwt>0</asrwt>
<pdfrwt beam="1">  1        2 0.69087347E+00 0.48775368E+04</pdfrwt>
<pdfrwt beam="2">  1       -2 0.20375857E+00 0.48775368E+04</pdfrwt>
<totfact> 0.10917399E-02</totfact>
</mgrwt>
<rwgt>
<wgt id='morphing_basis_vector_1'> +5.9264941e-06 </wgt>
<wgt id='morphing_basis_vector_2'> +4.1041102e-06 </wgt>
<wgt id='morphing_basis_vector_3'> +6.5446055e-06 </wgt>
<wgt id='morphing_basis_vector_4'> +4.6122797e-06 </wgt>
<wgt id='morphing_basis_vector_5'> +7.4683035e-06 </wgt>
</rwgt>
</event>
<event>
 4      1 +7.6845000e-11 5.06265200e+03 7.81860800e-03 7.37601800e-02
        2 -1    0    0  501    0 +0.0000000000e+00 +0.0000000000e+00 +3.0303160806e+03 3.0303160806e+03 0.0000000000e+00 0.0000e+00 1.0000e+00
       -2 -1    0    0    0  501 -0.0000000000e+00 -0.0000000000e+00 -2.1145022587e+03 2.1145022587e+03 0.0000000000e+00 0.0000e+00 -1.0000e+00
      -13  1    1    2    0    0 +8.4216727004e+02 +2.2346131380e+03 -3.9528374849e+02 2.4205352361e+03 0.0000000000e+00 0.0000e+00 -1.0000e+00
       13  1    1    2    0    0 -8.4216727004e+02 -2.2346131380e+03 +1.3110975704e+03 2.7242831032e+03 0.0000000000e+00 0.0000e+00 1.0000e+00
<mgrwt>
<rscale>  0 0.50626516E+04</rscale>
<asrwt>0</asrwt>
<pdfrwt beam="1">  1        2 0.46620248E+00 0.50626516E+04</pdfrwt>
<pdfrwt beam="2">  1       -2 0.32530804E+00 0.50626516E+04</pdfrwt>
<totfact> 0.23667713E-02</totfact>
</mgrwt>
<rwgt>
<wgt id='morphing_basis_vector_1'> +6.9023359e-06 </wgt>
<wgt id='morphing_basis_vector_2'> +4.8419074e-06 </wgt>
<wgt id='morphing_basis_vector_3'> +7.6398429e-06 </wgt>
<wgt id='morphing_basis_vector_4'> +5.2982544e-06 </wgt>
<wgt id='morphing_basis_vector_5'> +8.6675724e-06 </wgt>
</rwgt>
</event>
<event>
 4      1 +7.6845000e-11 4.98664900e+03 7.81860800e-03 7.38638300e-02
        2 -1    0    0  501    0 +0.0000000000e+00 +0.0000000000e+00 +2.8362182081e+03 2.8362182081e+03 0.0000000000e+00 0.0000e+00 1.0000e+00
       -2 -1    0    0    0  501 -0.0000000000e+00 -0.0000000000e+00 -2.1918864528e+03 2.1918864528e+03 0.0000000000e+00 0.0000e+00 -1.0000e+00
      -13  1    1    2    0    0 +1.8368868067e+03 +5.1624818660e+02 -1.2961699304e+03 2.3066689878e+03 0.0000000000e+00 0.0000e+00 -1.0000e+00
       13  1    1    2    0    0 -1.8368868067e+03 -5.1624818660e+02 +1.9405016857e+03 2.7214356731e+03 0.0000000000e+00 0.0000e+00 1.0000e+00
<mgrwt>
<rscale>  0 0.49866495E+04</rscale>
<asrwt>0</asrwt>
<pdfrwt beam="1">  1        2 0.43634126E+00 0.49866495E+04</pdfrwt>
<pdfrwt beam="2">  1       -2 0.33721330E+00 0.49866495E+04</pdfrwt>
<totfact> 0.26498466E-02</totfact>
</mgrwt>
<rwgt>
<wgt id='morphing_basis_vector_1'> +6.4462307e-06 </wgt>
<wgt id='morphing_basis_vector_2'> +4.4048863e-06 </wgt>
<wgt id='morphing_basis_vector_3'> +7.1067413e-06 </wgt>
<wgt id='morphing_basis_vector_4'> +5.0973638e-06 </wgt>
<wgt id='morphing_basis_vector_5'> +8.1664615e-06 </wgt>
</rwgt>
</event>
<event>
 4      1 +7.6845000e-11 5.06159800e+03 7.81860800e-03 7.37616000e-02
        2 -1    0    0  501    0 +0.0000000000e+00 +0.0000000000e+00 +3.2642631704e+03 3.2642631704e+03 0.0000000000e+00 0.0000e+00 -1.0000e+00
       -2 -1    0    0    0  501 -0.0000000000e+00 -0.0000000000e+00 -1.9621404724e+03 1.9621404724e+03 0.0000000000e+00 0.0000e+00 1.0000e+00
      -13  1    1    2    0    0 +1.9422329444e+03 +1.1006487367e+03 -5.7991586696e+02 2.3065122728e+03 0.0000000000e+00 0.0000e+00 1.0000e+00
       13  1    1    2    0    0 -1.9422329444e+03 -1.1006487367e+03 +1.8820385650e+03 2.9198913699e+03 0.0000000000e+00 0.0000e+00 -1.0000e+00
<mgrwt>
<rscale>  0 0.50615977E+04</rscale>
<asrwt>0</asrwt>
<pdfrwt beam="1">  1        2 0.50219433E+00 0.50615977E+04</pdfrwt>
<pdfrwt beam="2">  1       -2 0.30186777E+00 0.50615977E+04</pdfrwt>
<totfact> 0.23613834E-02</totfact>
</mgrwt>
<rwgt>
<wgt id='morphing_basis_vector_1'> +6.8637939e-06 </wgt>
<wgt id='morphing_basis_vector_2'> +4.7415193e-06 </wgt>
<wgt id='morphing_basis_vector_3'> +7.5802052e-06 </wgt>
<wgt id='morphing_basis_vector_4'> +5.3637717e-06 </wgt>
<wgt id='morphing_basis_vector_5'> +8.6662003e-06 </wgt>
</rwgt>
</event>
<event>
 4      1 +7.6845000e-11 4.98927400e+03 7.81860800e-03 7.38602200e-02
        2 -1    0    0  501    0 +0.0000000000e+00 +0.0000000000e+00 +3.1833920309e+03 3.1833920309e+03 0.0000000000e+00 0.0000e+00 -1.0000e+00
       -2 -1    0    0    0  501 -0.0000000000e+00 -0.0000000000e+00 -1.9548999826e+03 1.9548999826e+03 0.0000000000e+00 0.0000e+00 1.0000e+00
      -13  1    1    2    0    0 +3.6710711741e+01 +1.5531996631e+03 -1.3958268474e+03 2.0885663642e+03 0.0000000000e+00 0.0000e+00 1.0000e+00
       13  1    1    2    0    0 -3.6710711741e+01 -1.5531996631e+03 +2.6243188956e+03 3.0497256493e+03 0.0000000000e+00 0.0000e+00 -1.0000e+00
<mgrwt>
<rscale>  0 0.49892737E+04</rscale>
<asrwt>0</asrwt>
<pdfrwt beam="1">  1        2 0.48975262E+00 0.49892737E+04</pdfrwt>
<pdfrwt beam="2">  1       -2 0.30075384E+00 0.49892737E+04</pdfrwt>
<totfact> 0.27444592E-02</totfact>
</mgrwt>
<rwgt>
<wgt id='morphing_basis_vector_1'> +6.4513724e-06 </wgt>
<wgt id='morphing_basis_vector_2'> +4.3895046e-06 </wgt>
<wgt id='morphing_basis_vector_3'> +7.1080898e-06 </wgt>
<wgt id='morphing_basis_vector_4'> +5.1260185e-06 </wgt>
<wgt id='morphing_basis_vector_5'> +8.1852194e-06 </wgt>
</rwgt>
</event>
<event>
 4      1 +7.6845000e-11 4.82943400e+03 7.81860800e-03 7.40843200e-02
        2 -1    0    0  501    0 +0.0000000000e+00 +0.0000000000e+00 +3.8241448366e+03 3.8241448366e+03 0.0000000000e+00 0.0000e+00 -1.0000e+00
       -2 -1    0    0    0  501 -0.0000000000e+00 -0.0000000000e+00 -1.5247480611e+03 1.5247480611e+03 0.0000000000e+00 0.0000e+00 1.0000e+00
      -13  1    1    2    0    0 +6.7929752224e+01 +2.1418748319e+03 -8.2940582607e+01 2.1445562215e+03 0.0000000000e+00 0.0000e+00 1.0000e+00
       13  1    1    2    0    0 -6.7929752224e+01 -2.1418748319e+03 +2.3823373581e+03 3.2043366762e+03 0.0000000000e+00 0.0000e+00 -1.0000e+00
<mgrwt>
<rscale>  0 0.48294337E+04</rscale>
<asrwt>0</asrwt>
<pdfrwt beam="1">  1        2 0.58832998E+00 0.48294337E+04</pdfrwt>
<pdfrwt beam="2">  1       -2 0.23457662E+00 0.48294337E+04</pdfrwt>
<totfact> 0.26619407E-02</totfact>
</mgrwt>
<rwgt>
<wgt id='morphing_basis_vector_1'> +5.6936492e-06 </wgt>
<wgt id='morphing_basis_vector_2'> +3.9351928e-06 </wgt>
<wgt id='morphing_basis_vector_3'> +6.2849571e-06 </wgt>
<wgt id='morphing_basis_vector_4'> +4.4394008e-06 </wgt>
<wgt id='morphing_basis_vector_5'> +7.1776459e-06 </wgt>
</rwgt>
</event>
<event>
 4      1 +7.6845000e-11 5.12050000e+03 7.81860800e-03 7.36825200e-02
        2 -1    0    0  501    0 +0.0000000000e+00 +0.0000000000e+00 +2.7686031155e+03 2.7686031155e+03 0.0000000000e+00 0.0000e+00 -1.0000e+00
       -2 -1    0    0    0  501 -0.0000000000e+00 -0.0000000000e+00 -2.3675768426e+03 2.3675768426e+03 0.0000000000e+00 0.0000e+00 1.0000e+00
      -13  1    1    2    0    0 -7.4808494845e+02 +2.2723054432e+03 -7.1435295914e+02 2.4966584203e+03 0.0000000000e+00 0.0000e+00 1.0000e+00
       13  1    1    2    0    0 +7.4808494845e+02 -2.2723054432e+03 +1.1153792321e+03 2.6395215378e+03 0.0000000000e+00 0.0000e+00 -1.0000e+00
<mgrwt>
<rscale>  0 0.51205002E+04</rscale>
<asrwt>0</asrwt>
<pdfrwt beam="1">  1        2 0.42593894E+00 0.51205002E+04</pdfrwt>
<pdfrwt beam="2">  1       -2 0.36424259E+00 0.51205002E+04</pdfrwt>
<totfact> 0.19323101E-02</totfact>
</mgrwt>
<rwgt>
<wgt id='morphing_basis_vector_1'> +7.2148532e-06 </wgt>
<wgt id='morphing_basis_vector_2'> +5.0450793e-06 </wgt>
<wgt id='morphing_basis_vector_3'> +7.9830485e-06 </wgt>
<wgt id='morphing_basis_vector_4'> +5.5610661e-06 </wgt>
<wgt id='morphing_basis_vector_5'> +9.0731520e-06 </wgt>
</rwgt>
</event>
<event>
 4      1 +7.6845000e-11 5.04800200e+03 7.81860800e-03 7.37800100e-02
        2 -1    0    0  501    0 +0.0000000000e+00 +0.0000000000e+00 +2.8266913344e+03 2.8266913344e+03 0.0000000000e+00 0.0000e+00 1.0000e+00
       -2 -1    0    0    0  501 -0.0000000000e+00 -0.0000000000e+00 -2.2537234761e+03 2.2537234761e+03 0.0000000000e+00 0.0000e+00 -1.0000e+00
      -13  1    1    2    0    0 -1.6964068601e+03 -1.7347595100e+03 -4.1324562910e+02 2.4612920880e+03 0.0000000000e+00 0.0000e+00 -1.0000e+00
       13  1    1    2    0    0 +1.6964068601e+03 +1.7347595100e+03 +9.8621348747e+02 2.6191227225e+03 0.0000000000e+00 0.0000e+00 1.0000e+00
<mgrwt>
<rscale>  0 0.50480018E+04</rscale>
<asrwt>0</asrwt>
<pdfrwt beam="1">  1        2 0.43487559E+00 0.50480018E+04</pdfrwt>
<pdfrwt beam="2">  1       -2 0.34672669E+00 0.50480018E+04</pdfrwt>
<totfact> 0.23177044E-02</totfact>
</mgrwt>
<rwgt>
<wgt id='morphing_basis_vector_1'> +6.8414105e-06 </wgt>
<wgt id='morphing_basis_vector_2'> +4.8401187e-06 </wgt>
<wgt id='morphing_basis_vector_3'> +7.5816246e-06 </wgt>
<wgt id='morphing_basis_vector_4'> +5.1978663e-06 </wgt>
<wgt id='morphing_basis_vector_5'> +8.5640926e-06 </wgt>
</rwgt>
</event>
<event>
 4      1 +7.6845000e-11 4.63021200e+03 7.81860800e-03 7.43761700e-02
        2 -1    0    0  501    0 +0.0000000000e+00 +0.0000000000e+00 +4.8683757024e+03 4.8683757024e+03 0.0000000000e+00 0.0000e+00 -1.0000e+00
       -2 -1    0    0    0  501 -0.0000000000e+00 -0.0000000000e+00 -1.1009246463e+03 1.1009246463e+03 0.0000000000e+00 0.0000e+00 1.0000e+00
      -13  1    1    2    0    0 +2.2001029975e+03 +3.0161302446e+01 +9.5553968472e+02 2.3988370084e+03 0.0000000000e+00 0.0000e+00 1.0000e+00
       13  1    1    2    0    0 -2.2001029975e+03 -3.0161302446e+01 +2.8119113714e+03 3.5704633403e+03 0.0000000000e+00 0.0000e+00 -1.0000e+00
<mgrwt>
<rscale>  0 0.46302116E+04</rscale>
<asrwt>0</asrwt>
<pdfrwt beam="1">  1        2 0.74898086E+00 0.46302116E+04</pdfrwt>
<pdfrwt beam="2">  1       -2 0.16937303E+00 0.46302116E+04</pdfrwt>
<totfact> 0.75746704E-03</totfact>
</mgrwt>
<rwgt>
<wgt id='morphing_basis_vector_1'> +4.8398751e-06 </wgt>
<wgt id='morphing_basis_vector_2'> +3.4027147e-06 </wgt>
<wgt id='morphing_basis_vector_3'> +5.3528390e-06 </wgt>
<wgt id='morphing_basis_vector_4'> +3.6931017e-06 </wgt>
<wgt id='morphing_basis_vector_5'> +6.0562989e-06 </wgt>
</rwgt>
</event>
<event>
 4      1 +7.6845000e-11 4.76620200e+03 7.81860800e-03 7.41754000e-02
        2 -1    0    0  501    0 +0.0000000000e+00 +0.0000000000e+00 +3.3938060391e+03 3.3938060391e+03 0.0000000000e+00 0.0000e+00 -1.0000e+00
       -2 -1    0    0    0  501 -0.0000000000e+00 -0.0000000000e+00 -1.6733925968e+03 1.6733925968e+03 0.0000000000e+00 0.0000e+00 1.0000e+00
      -13  1    1    2    0    0 +1.0083677524e+03 +1.6213218782e+03 -6.5592447595e+02 2.0188430041e+03 0.0000000000e+00 0.0000e+00 1.0000e+00
       13  1    1    2    0    0 -1.0083677524e+03 -1.6213218782e+03 +2.3763379182e+03 3.0483556319e+03 0.0000000000e+00 0.0000e+00 -1.0000e+00
<mgrwt>
<rscale>  0 0.47662018E+04</rscale>
<asrwt>0</asrwt>
<pdfrwt beam="1">  1        2 0.52212400E+00 0.47662018E+04</pdfrwt>
<pdfrwt beam="2">  1       -2 0.25744502E+00 0.47662018E+04</pdfrwt>
<totfact> 0.39309565E-02</totfact>
</mgrwt>
<rwgt>
<wgt id='morphing_basis_vector_1'> +5.3865909e-06 </wgt>
<wgt id='morphing_basis_vector_2'> +3.6873123e-06 </wgt>
<wgt id='morphing_basis_vector_3'> +5.9368521e-06 </wgt>
<wgt id='morphing_basis_vector_4'> +4.2440700e-06 </wgt>
<wgt id='morphing_basis_vector_5'> +6.8106171e-06 </wgt>
</rwgt>
</event>
<event>
 4      1 +7.6845000e-11 4.70236600e+03 7.81860800e-03 7.42687900e-02
        2 -1    0    0  501    0 +0.0000000000e+00 +0.0000000000e+00 +2.5292245858e+03 2.5292245858e+03 0.0000000000e+00 0.0000e+00 -1.0000e+00
       -2 -1    0    0    0  501 -0.0000000000e+00 -0.0000000000e+00 -2.1856740478e+03 2.1856740478e+03 0.0000000000e+00 0.0000e+00 1.0000e+00
      -13  1    1    2    0    0 -7.9859322310e+02 +8.7741073455e+01 -2.0437771402e+03 2.1960133494e+03 0.0000000000e+00 0.0000e+00 1.0000e+00
       13  1    1    2    0    0 +7.9859322310e+02 -8.7741073455e+01 +2.3873276782e+03 2.5188852842e+03 0.0000000000e+00 0.0000e+00 -1.0000e+00
<mgrwt>
<rscale>  0 0.47023656E+04</rscale>
<asrwt>0</asrwt>
<pdfrwt beam="1">  1        2 0.38911147E+00 0.47023656E+04</pdfrwt>
<pdfrwt beam="2">  1       -2 0.33625755E+00 0.47023656E+04</pdfrwt>
<totfact> 0.42452705E-02</totfact>
</mgrwt>
<rwgt>
<wgt id='morphing_basis_vector_1'> +5.0919238e-06 </wgt>
<wgt id='morphing_basis_vector_2'> +3.4562632e-06 </wgt>
<wgt id='morphing_basis_vector_3'> +5.6044068e-06 </wgt>
<wgt id='morphing_basis_vector_4'> +4.0477883e-06 </wgt>
<wgt id='morphing_basis_vector_5'> +6.4540653e-06 </wgt>
</rwgt>
</event>
<event>
 4      1 +7.6845000e-11 4.69000700e+03 7.81860800e-03 7.42870500e-02
        2 -1    0    0  501    0 +0.0000000000e+00 +0.0000000000e+00 +2.5850526189e+03 2.5850526189e+03 0.0000000000e+00 0.0000e+00 1.0000e+00
       -2 -1    0    0    0  501 -0.0000000000e+00 -0.0000000000e+00 -2.1272452727e+03 2.1272452727e+03 0.0000000000e+00 0.0000e+00 -1.0000e+00
      -13  1    1    2    0    0 -1.1897156255e+03 +9.5964907978e+02 -1.5579445653e+03 2.1825537553e+03 0.0000000000e+00 0.0000e+00 -1.0000e+00
       13  1    1    2    0    0 +1.1897156255e+03 -9.5964907978e+02 +2.0157519116e+03 2.5297441363e+03 0.0000000000e+00 0.0000e+00 1.0000e+00
<mgrwt>
<rscale>  0 0.46900068E+04</rscale>
<asrwt>0</asrwt>
<pdfrwt beam="1">  1        2 0.39770041E+00 0.46900068E+04</pdfrwt>
<pdfrwt beam="2">  1       -2 0.32726850E+00 0.46900068E+04</pdfrwt>
<totfact> 0.45073160E-02</totfact>
</mgrwt>
<rwgt>
<wgt id='morphing_basis_vector_1'> +5.0424822e-06 </wgt>
<wgt id='morphing_basis_vector_2'> +3.4309351e-06 </wgt>
<wgt id='morphing_basis_vector_3'> +5.5516918e-06 </wgt>
<wgt id='morphing_basis_vector_4'> +3.9974255e-06 </wgt>
<wgt id='morphing_basis_vector_5'> +6.3855848e-06 </wgt>
</rwgt>
</event>
<event>
 4      1 +7.6845000e-11 4.77052300e+03 7.81860800e-03 7.41691300e-02
        2 -1    0    0  501    0 +0.0000000000e+00 +0.0000000000e+00 +1.9357310095e+03 1.9357310095e+03 0.0000000000e+00 0.0000e+00 1.0000e+00
       -2 -1    0    0    0  501 -0.0000000000e+00 -0.0000000000e+00 -2.9391855315e+03 2.9391855315e+03 0.0000000000e+00 0.0000e+00 -1.0000e+00
      -13  1    1    2    0    0 +5.8108884138e+02 +8.2746591525e+02 -2.7093513964e+03 2.8918763929e+03 0.0000000000e+00 0.0000e+00 -1.0000e+00
       13  1    1    2    0    0 -5.8108884138e+02 -8.2746591525e+02 +1.7058968745e+03 1.9830401481e+03 0.0000000000e+00 0.0000e+00 1.0000e+00
<mgrwt>
<rscale>  0 0.47705231E+04</rscale>
<asrwt>0</asrwt>
<pdfrwt beam="1">  1        2 0.29780477E+00 0.47705231E+04</pdfrwt>
<pdfrwt beam="2">  1       -2 0.45218239E+00 0.47705231E+04</pdfrwt>
<totfact> 0.16021727E-02</totfact>
</mgrwt>
<rwgt>
<wgt id='morphing_basis_vector_1'> +5.3928103e-06 </wgt>
<wgt id='morphing_basis_vector_2'> +3.6617035e-06 </wgt>
<wgt id='morphing_basis_vector_3'> +5.9369130e-06 </wgt>
<wgt id='morphing_basis_vector_4'> +4.2877761e-06 </wgt>
<wgt id='morphing_basis_vector_5'> +6.8378013e-06 </wgt>
</rwgt>
</event>
<event>
 4      1 +7.6845000e-11 4.70554000e+03 7.81860800e-03 7.42641100e-02
        2 -1    0    0  501    0 +0.0000000000e+00 +0.0000000000e+00 +3.5594122784e+03 3.5594122784e+03 0.0000000000e+00 0.0000e+00 1.0000e+00
       -2 -1    0    0    0  501 -0.0000000000e+00 -0.0000000000e+00 -1.5551799118e+03 1.5551799118e+03 0.0000000000e+00 0.0000e+00 -1.0000e+00
      -13  1    1    2    0    0 +2.1199839243e+03 -6.7247067990e+02 +1.8362793688e+03 2.8841758918e+03 0.0000000000e+00 0.0000e+00 -1.0000e+00
       13  1    1    2    0    0 -2.1199839243e+03 +6.7247067990e+02 +1.6795299786e+02 2.2304162984e+03 0.0000000000e+00 0.0000e+00 1.0000e+00
<mgrwt>
<rscale>  0 0.47055399E+04</rscale>
<asrwt>0</asrwt>
<pdfrwt beam="1">  1        2 0.54760189E+00 0.47055399E+04</pdfrwt>
<pdfrwt beam="2">  1       -2 0.23925845E+00 0.47055399E+04</pdfrwt>
<totfact> 0.39977530E-02</totfact>
</mgrwt>
<rwgt>
<wgt id='morphing_basis_vector_1'> +5.6718076e-06 </wgt>
<wgt id='morphing_basis_vector_2'> +5.1286033e-06 </wgt>
<wgt id='morphing_basis_vector_3'> +6.5359595e-06 </wgt>
<wgt id='morphing_basis_vector_4'> +2.8544474e-06 </wgt>
<wgt id='morphing_basis_vector_5'> +6.3707559e-06 </wgt>
</rwgt>
</event>
<event>
 4      1 +7.6845000e-11 5.09203100e+03 7.81860800e-03 7.37206100e-02
        2 -1    0    0  501    0 +0.0000000000e+00 +0.0000000000e+00 +4.1761009467e+03 4.1761009467e+03 0.0000000000e+00 0.0000e+00 -1.0000e+00
       -2 -1    0    0    0  501 -0.0000000000e+00 -0.0000000000e+00 -1.5522121487e+03 1.5522121487e+03 0.0000000000e+00 0.0000e+00 1.0000e+00
      -13  1    1    2    0    0 -1.4764584278e+03 -3.1265711039e+02 -9.9476798844e+02 1.8075528508e+03 0.0000000000e+00 0.0000e+00 1.0000e+00
       13  1    1    2    0    0 +1.4764584278e+03 +3.1265711039e+02 +3.6186567865e+03 3.9207602446e+03 0.0000000000e+00 0.0000e+00 -1.0000e+00
<mgrwt>
<rscale>  0 0.50920309E+04</rscale>
<asrwt>0</asrwt>
<pdfrwt beam="1">  1        2 0.64247707E+00 0.50920309E+04</pdfrwt>
<pdfrwt beam="2">  1       -2 0.23880187E+00 0.50920309E+04</pdfrwt>
<totfact> 0.12198364E-02</totfact>
</mgrwt>
<rwgt>
<wgt id='morphing_basis_vector_1'> +6.9967167e-06 </wgt>
<wgt id='morphing_basis_vector_2'> +4.7592054e-06 </wgt>
<wgt id='morphing_basis_vector_3'> +7.7103605e-06 </wgt>
<wgt id='morphing_basis_vector_4'> +5.5649164e-06 </wgt>
<wgt id='morphing_basis_vector_5'> +8.8830849e-06 </wgt>
</rwgt>
</event>
<event>
 4      1 +7.6845000e-11 4.64551000e+03 7.81860800e-03 7.43532400e-02
        2 -1    0    0  501    0 +0.0000000000e+00 +0.0000000000e+00 +2.4687357737e+03 2.4687357737e+03 0.0000000000e+00 0.0000e+00 1.0000e+00
       -2 -1    0    0    0  501 -0.0000000000e+00 -0.0000000000e+00 -2.1854061892e+03 2.1854061892e+03 0.0000000000e+00 0.0000e+00 -1.0000e+00
      -13  1    1    2    0    0 +1.6927741820e+03 +1.5903803610e+03 +1.2172012554e+02 2.3258568126e+03 0.0000000000e+00 0.0000e+00 -1.0000e+00
       13  1    1    2    0    0 -1.6927741820e+03 -1.5903803610e+03 +1.6160945895e+02 2.3282851503e+03 0.0000000000e+00 0.0000e+00 1.0000e+00
<mgrwt>
<rscale>  0 0.46455098E+04</rscale>
<asrwt>0</asrwt>
<pdfrwt beam="1">  1        2 0.37980550E+00 0.46455098E+04</pdfrwt>
<pdfrwt beam="2">  1       -2 0.33621634E+00 0.46455098E+04</pdfrwt>
<totfact> 0.46367661E-02</totfact>
</mgrwt>
<rwgt>
<wgt id='morphing_basis_vector_1'> +5.0238604e-06 </wgt>
<wgt id='morphing_basis_vector_2'> +3.8001803e-06 </wgt>
<wgt id='morphing_basis_vector_3'> +5.6179620e-06 </wgt>
<wgt id='morphing_basis_vector_4'> +3.4872769e-06 </wgt>
<wgt id='morphing_basis_vector_5'> +6.1156904e-06 </wgt>
</rwgt>
</event>
<event>
 4      1 +7.6845000e-11 4.65821600e+03 7.81860800e-03 7.43342600e-02
        2 -1    0    0  501    0 +0.0000000000e+00 +0.0000000000e+00 +1.5834417950e+03 1.5834417950e+03 0.0000000000e+00 0.0000e+00 1.0000e+00
       -2 -1    0    0    0  501 -0.0000000000e+00 -0.0000000000e+00 -3.4259187823e+03 3.4259187823e+03 0.0000000000e+00 0.0000e+00 -1.0000e+00
      -13  1    1    2    0    0 +2.0639826712e+02 -2.2246049706e+03 -1.6290942428e+03 2.7650344612e+03 0.0000000000e+00 0.0000e+00 -1.0000e+00
       13  1    1    2    0    0 -2.0639826712e+02 +2.2246049706e+03 -2.1338274447e+02 2.2443261161e+03 0.0000000000e+00 0.0000e+00 1.0000e+00
<mgrwt>
<rscale>  0 0.46582155E+04</rscale>
<asrwt>0</asrwt>
<pdfrwt beam="1">  1        2 0.24360643E+00 0.46582155E+04</pdfrwt>
<pdfrwt beam="2">  1       -2 0.52706442E+00 0.46582155E+04</pdfrwt>
<totfact> 0.71160921E-03</totfact>
</mgrwt>
<rwgt>
<wgt id='morphing_basis_vector_1'> +4.9644567e-06 </wgt>
<wgt id='morphing_basis_vector_2'> +3.5058620e-06 </wgt>
<wgt id='morphing_basis_vector_3'> +5.4946341e-06 </wgt>
<wgt id='morphing_basis_vector_4'> +3.7689529e-06 </wgt>
<wgt id='morphing_basis_vector_5'> +6.2034739e-06 </wgt>
</rwgt>
</event>
<event>
 4      1 +7.6845000e-11 4.96235800e+03 7.81860800e-03 7.38973600e-02
        2 -1    0    0  501    0 +0.0000000000e+00 +0.0000000000e+00 +2.5067948137e+03 2.5067948137e+03 0.0000000000e+00 0.0000e+00 -1.0000e+00
       -2 -1    0    0    0  501 -0.0000000000e+00 -0.0000000000e+00 -2.4558249304e+03 2.4558249304e+03 0.0000000000e+00 0.0000e+00 1.0000e+00
      -13  1    1    2    0    0 -1.7330946576e+03 -5.0175314862e+02 -1.6778006849e+03 2.4638158318e+03 0.0000000000e+00 0.0000e+00 1.0000e+00
       13  1    1    2    0    0 +1.7330946576e+03 +5.0175314862e+02 +1.7287705683e+03 2.4988039123e+03 0.0000000000e+00 0.0000e+00 -1.0000e+00
<mgrwt>
<rscale>  0 0.49623580E+04</rscale>
<asrwt>0</asrwt>
<pdfrwt beam="1">  1        2 0.38566074E+00 0.49623580E+04</pdfrwt>
<pdfrwt beam="2">  1       -2 0.37781922E+00 0.49623580E+04</pdfrwt>
<totfact> 0.23109863E-02</totfact>
</mgrwt>
<rwgt>
<wgt id='morphing_basis_vector_1'> +6.3187769e-06 </wgt>
<wgt id='morphing_basis_vector_2'> +4.3104768e-06 </wgt>
<wgt id='morphing_basis_vector_3'> +6.9641544e-06 </wgt>
<wgt id='morphing_basis_vector_4'> +5.0052162e-06 </wgt>
<wgt id='morphing_basis_vector_5'> +8.0085606e-06 </wgt>
</rwgt>
</event>
<event>
 4      1 +7.6845000e-11 5.35670200e+03 7.81860800e-03 7.33760500e-02
        2 -1    0    0  501    0 +0.0000000000e+00 +0.0000000000e+00 +4.0910535865e+03 4.0910535865e+03 0.0000000000e+00 0.0000e+00 -1.0000e+00
       -2 -1    0    0    0  501 -0.0000000000e+00 -0.0000000000e+00 -1.7534757248e+03 1.7534757248e+03 0.0000000000e+00 0.0000e+00 1.0000e+00
      -13  1    1    2    0    0 -1.3176710196e+03 -1.9585119023e+02 -1.3663786742e+03 1.9082990557e+03 0.0000000000e+00 0.0000e+00 1.0000e+00
       13  1    1    2    0    0 +1.3176710196e+03 +1.9585119023e+02 +3.7039565359e+03 3.9362302555e+03 0.0000000000e+00 0.0000e+00 -1.0000e+00
<mgrwt>
<rscale>  0 0.53567017E+04</rscale>
<asrwt>0</asrwt>
<pdfrwt beam="1">  1        2 0.62939286E+00 0.53567017E+04</pdfrwt>
<pdfrwt beam="2">  1       -2 0.26976550E+00 0.53567017E+04</pdfrwt>
<totfact> 0.87064080E-03</totfact>
</mgrwt>
<rwgt>
<wgt id='morphing_basis_vector_1'> +8.5612652e-06 </wgt>
<wgt id='morphing_basis_vector_2'> +5.8203861e-06 </wgt>
<wgt id='morphing_basis_vector_3'> +9.4386714e-06 </wgt>
<wgt id='morphing_basis_vector_4'> +6.8241274e-06 </wgt>
<wgt id='morphing_basis_vector_5'> +1.0885838e-05 </wgt>
</rwgt>
</event>
<event>
 4      1 +7.6845000e-11 5.09406300e+03 7.81860800e-03 7.37178800e-02
        2 -1    0    0  501    0 +0.0000000000e+00 +0.0000000000e+00 +3.6059499199e+03 3.6059499199e+03 0.0000000000e+00 0.0000e+00 -1.0000e+00
       -2 -1    0    0    0  501 -0.0000000000e+00 -0.0000000000e+00 -1.7990736387e+03 1.7990736387e+03 0.0000000000e+00 0.0000e+00 1.0000e+00
      -13  1    1    2    0    0 -1.4586649169e+02 -2.1273580941e+03 -5.7459231758e+02 2.2084125125e+03 0.0000000000e+00 0.0000e+00 1.0000e+00
       13  1    1    2    0    0 +1.4586649169e+02 +2.1273580941e+03 +2.3814685987e+03 3.1966110461e+03 0.0000000000e+00 0.0000e+00 -1.0000e+00
<mgrwt>
<rscale>  0 0.50940630E+04</rscale>
<asrwt>0</asrwt>
<pdfrwt beam="1">  1        2 0.55476153E+00 0.50940630E+04</pdfrwt>
<pdfrwt beam="2">  1       -2 0.27678056E+00 0.50940630E+04</pdfrwt>
<totfact> 0.19740653E-02</totfact>
</mgrwt>
<rwgt>
<wgt id='morphing_basis_vector_1'> +7.0288606e-06 </wgt>
<wgt id='morphing_basis_vector_2'> +4.8284748e-06 </wgt>
<wgt id='morphing_basis_vector_3'> +7.7567839e-06 </wgt>
<wgt id='morphing_basis_vector_4'> +5.5290579e-06 </wgt>
<wgt id='morphing_basis_vector_5'> +8.8935619e-06 </wgt>
</rwgt>
</event>
<event>
 4      1 +7.6845000e-11 4.74846000e+03 7.81860800e-03 7.42012000e-02
        2 -1    0    0  501    0 +0.0000000000e+00 +0.0000000000e+00 +3.8940190222e+03 3.8940190222e+03 0.0000000000e+00 0.0000e+00 -1.0000e+00
       -2 -1    0    0    0  501 -0.0000000000e+00 -0.0000000000e+00 -1.4475967433e+03 1.4475967433e+03 0.0000000000e+00 0.0000e+00 1.0000e+00
      -13  1    1    2    0    0 +1.6350489916e+03 -1.2558900989e+03 -1.0128959769e+02 2.0641959035e+03 0.0000000000e+00 0.0000e+00 1.0000e+00
       13  1    1    2    0    0 -1.6350489916e+03 +1.2558900989e+03 +2.5477118766e+03 3.2774198620e+03 0.0000000000e+00 0.0000e+00 -1.0000e+00
<mgrwt>
<rscale>  0 0.47484605E+04</rscale>
<asrwt>0</asrwt>
<pdfrwt beam="1">  1        2 0.59907985E+00 0.47484605E+04</pdfrwt>
<pdfrwt beam="2">  1       -2 0.22270719E+00 0.47484605E+04</pdfrwt>
<totfact> 0.28482478E-02</totfact>
</mgrwt>
<rwgt>
<wgt id='morphing_basis_vector_1'> +5.3178193e-06 </wgt>
<wgt id='morphing_basis_vector_2'> +3.6642143e-06 </wgt>
<wgt id='morphing_basis_vector_3'> +5.8662887e-06 </wgt>
<wgt id='morphing_basis_vector_4'> +4.1582581e-06 </wgt>
<wgt id='morphing_basis_vector_5'> +6.7075206e-06 </wgt>
</rwgt>
</event>
<event>
 4      1 +7.6845000e-11 5.26991800e+03 7.81860800e-03 7.34867300e-02
        2 -1    0    0  501    0 +0.0000000000e+00 +0.0000000000e+00 +2.9229227095e+03 2.9229227095e+03 0.0000000000e+00 0.0000e+00 -1.0000e+00
       -2 -1    0    0    0  501 -0.0000000000e+00 -0.0000000000e+00 -2.3753652769e+03 2.3753652769e+03 0.0000000000e+00 0.0000e+00 1.0000e+00
      -13  1    1    2    0    0 -9.5609068218e+02 +2.4486569020e+03 +4.5635781659e+02 2.6680128323e+03 0.0000000000e+00 0.0000e+00 1.0000e+00
       13  1    1    2    0    0 +9.5609068218e+02 -2.4486569020e+03 +9.1199616047e+01 2.6302751541e+03 0.0000000000e+00 0.0000e+00 -1.0000e+00
<mgrwt>
<rscale>  0 0.52699181E+04</rscale>
<asrwt>0</asrwt>
<pdfrwt beam="1">  1        2 0.44968042E+00 0.52699181E+04</pdfrwt>
<pdfrwt beam="2">  1       -2 0.36544081E+00 0.52699181E+04</pdfrwt>
<totfact> 0.14987839E-02</totfact>
</mgrwt>
<rwgt>
<wgt id='morphing_basis_vector_1'> +8.3968810e-06 </wgt>
<wgt id='morphing_basis_vector_2'> +6.5553757e-06 </wgt>
<wgt id='morphing_basis_vector_3'> +9.4525122e-06 </wgt>
<wgt id='morphing_basis_vector_4'> +5.5901580e-06 </wgt>
<wgt id='morphing_basis_vector_5'> +1.0128242e-05 </wgt>
</rwgt>
</event>
<event>
 4      1 +7.6845000e-11 4.72428000e+03 7.81860800e-03 7.42365600e-02
        2 -1    0    0  501    0 +0.0000000000e+00 +0.0000000000e+00 +2.3333632998e+03 2.3333632998e+03 0.0000000000e+00 0.0000e+00 -1.0000e+00
       -2 -1    0    0    0  501 -0.0000000000e+00 -0.0000000000e+00 -2.3912713874e+03 2.3912713874e+03 0.0000000000e+00 0.0000e+00 1.0000e+00
      -13  1    1    2    0    0 -1.6700905075e+03 -6.4528124770e+02 -1.5698860371e+03 2.3812039731e+03 0.0000000000e+00 0.0000e+00 1.0000e+00
       13  1    1    2    0    0 +1.6700905075e+03 +6.4528124770e+02 +1.5119779495e+03 2.3434307141e+03 0.0000000000e+00 0.0000e+00 -1.0000e+00
<mgrwt>
<rscale>  0 0.47242798E+04</rscale>
<asrwt>0</asrwt>
<pdfrwt beam="1">  1        2 0.35897897E+00 0.47242798E+04</pdfrwt>
<pdfrwt beam="2">  1       -2 0.36788791E+00 0.47242798E+04</pdfrwt>
<totfact> 0.34514647E-02</totfact>
</mgrwt>
<rwgt>
<wgt id='morphing_basis_vector_1'> +5.1962860e-06 </wgt>
<wgt id='morphing_basis_vector_2'> +3.5478787e-06 </wgt>
<wgt id='morphing_basis_vector_3'> +5.7243729e-06 </wgt>
<wgt id='morphing_basis_vector_4'> +4.1046069e-06 </wgt>
<wgt id='morphing_basis_vector_5'> +6.5740288e-06 </wgt>
</rwgt>
</event>
<event>
 4      1 +7.6845000e-11 4.80336000e+03 7.81860800e-03 7.41217100e-02
        2 -1    0    0  501    0 +0.0000000000e+00 +0.0000000000e+00 +2.2754601253e+03 2.2754601253e+03 0.0000000000e+00 0.0000e+00 -1.0000e+00
       -2 -1    0    0    0  501 -0.0000000000e+00 -0.0000000000e+00 -2.5349017545e+03 2.5349017545e+03 0.0000000000e+00 0.0000e+00 1.0000e+00
      -13  1    1    2    0    0 -4.9292470922e+02 -1.5859079615e+03 -1.8671816725e+03 2.4988889991e+03 0.0000000000e+00 0.0000e+00 1.0000e+00
       13  1    1    2    0    0 +4.9292470922e+02 +1.5859079615e+03 +1.6077400433e+03 2.3114728807e+03 0.0000000000e+00 0.0000e+00 -1.0000e+00
<mgrwt>
<rscale>  0 0.48033604E+04</rscale>
<asrwt>0</asrwt>
<pdfrwt beam="1">  1        2 0.35007079E+00 0.48033604E+04</pdfrwt>
<pdfrwt beam="2">  1       -2 0.38998489E+00 0.48033604E+04</pdfrwt>
<totfact> 0.26691054E-02</totfact>
</mgrwt>
<rwgt>
<wgt id='morphing_basis_vector_1'> +5.5475999e-06 </wgt>
<wgt id='morphing_basis_vector_2'> +3.7790231e-06 </wgt>
<wgt id='morphing_basis_vector_3'> +6.1106376e-06 </wgt>
<wgt id='morphing_basis_vector_4'> +4.3961627e-06 </wgt>
<wgt id='morphing_basis_vector_5'> +7.0277438e-06 </wgt>
</rwgt>
</event>
<event>
 4      1 +7.6845000e-11 4.97858700e+03 7.81860800e-03 7.38749300e-02
        2 -1    0    0  501    0 +0.0000000000e+00 +0.0000000000e+00 +2.0839747512e+03 2.0839747512e+03 0.0000000000e+00 0.0000e+00 -1.0000e+00
       -2 -1    0    0    0  501 -0.0000000000e+00 -0.0000000000e+00 -2.9734434728e+03 2.9734434728e+03 0.0000000000e+00 0.0000e+00 1.0000e+00
      -13  1    1    2    0    0 -2.1486544306e+03 -1.1958487609e+03 -5.1551429661e+01 2.4595584300e+03 0.0000000000e+00 0.0000e+00 1.0000e+00
       13  1    1    2    0    0 +2.1486544306e+03 +1.1958487609e+03 -8.3791729190e+02 2.5978597939e+03 0.0000000000e+00 0.0000e+00 -1.0000e+00
<mgrwt>
<rscale>  0 0.49785866E+04</rscale>
<asrwt>0</asrwt>
<pdfrwt beam="1">  1        2 0.32061150E+00 0.49785866E+04</pdfrwt>
<pdfrwt beam="2">  1       -2 0.45745284E+00 0.49785866E+04</pdfrwt>
<totfact> 0.11942723E-02</totfact>
</mgrwt>
<rwgt>
<wgt id='morphing_basis_vector_1'> +6.7979741e-06 </wgt>
<wgt id='morphing_basis_vector_2'> +5.5312083e-06 </wgt>
<wgt id='morphing_basis_vector_3'> +7.6988770e-06 </wgt>
<wgt id='morphing_basis_vector_4'> +4.2266873e-06 </wgt>
<wgt id='morphing_basis_vector_5'> +8.0433868e-06 </wgt>
</rwgt>
</event>
<event>
 4      1 +7.6845000e-11 4.94312000e+03 7.81860800e-03 7.39240500e-02
        2 -1    0    0  501    0 +0.0000000000e+00 +0.0000000000e+00 +2.8613181952e+03 2.8613181952e+03 0.0000000000e+00 0.0000e+00 -1.0000e+00
       -2 -1    0    0    0  501 -0.0000000000e+00 -0.0000000000e+00 -2.1348928984e+03 2.1348928984e+03 0.0000000000e+00 0.0000e+00 1.0000e+00
      -13  1    1    2    0    0 +9.4953618075e+02 +2.2786236928e+03 +2.3998931721e+02 2.4801894614e+03 0.0000000000e+00 0.0000e+00 1.0000e+00
       13  1    1    2    0    0 -9.4953618075e+02 -2.2786236928e+03 +4.8643597956e+02 2.5160216323e+03 0.0000000000e+00 0.0000e+00 -1.0000e+00
<mgrwt>
<rscale>  0 0.49431196E+04</rscale>
<asrwt>0</asrwt>
<pdfrwt beam="1">  1        2 0.44020280E+00 0.49431196E+04</pdfrwt>
<pdfrwt beam="2">  1       -2 0.32844506E+00 0.49431196E+04</pdfrwt>
<totfact> 0.29274904E-02</totfact>
</mgrwt>
<rwgt>
<wgt id='morphing_basis_vector_1'> +6.4040356e-06 </wgt>
<wgt id='morphing_basis_vector_2'> +4.7796432e-06 </wgt>
<wgt id='morphing_basis_vector_3'> +7.1525984e-06 </wgt>
<wgt id='morphing_basis_vector_4'> +4.5393820e-06 </wgt>
<wgt id='morphing_basis_vector_5'> +7.8521389e-06 </wgt>
</rwgt>
</event>
<event>
 4      1 +7.6845000e-11 4.84611900e+03 7.81860800e-03 7.40605200e-02
        2 -1    0    0  501    0 +0.0000000000e+00 +0.0000000000e+00 +3.7179016763e+03 3.7179016763e+03 0.0000000000e+00 0.0000e+00 -1.0000e+00
       -2 -1    0    0    0  501 -0.0000000000e+00 -0.0000000000e+00 -1.5791751212e+03 1.5791751212e+03 0.0000000000e+00 0.0000e+00 1.0000e+00
      -13  1    1    2    0    0 -2.1900316453e+03 +8.5429600041e+02 +4.2719200118e+02 2.3892578910e+03 0.0000000000e+00 0.0000e+00 1.0000e+00
       13  1    1    2    0    0 +2.1900316453e+03 -8.5429600041e+02 +1.7115345539e+03 2.9078189065e+03 0.0000000000e+00 0.0000e+00 -1.0000e+00
<mgrwt>
<rscale>  0 0.48461192E+04</rscale>
<asrwt>0</asrwt>
<pdfrwt beam="1">  1        2 0.57198487E+00 0.48461192E+04</pdfrwt>
<pdfrwt beam="2">  1       -2 0.24295002E+00 0.48461192E+04</pdfrwt>
<totfact> 0.28213363E-02</totfact>
</mgrwt>
<rwgt>
<wgt id='morphing_basis_vector_1'> +5.8247618e-06 </wgt>
<wgt id='morphing_basis_vector_2'> +4.1433773e-06 </wgt>
<wgt id='morphing_basis_vector_3'> +6.4570100e-06 </wgt>
<wgt id='morphing_basis_vector_4'> +4.3899393e-06 </wgt>
<wgt id='morphing_basis_vector_5'> +7.2683680e-06 </wgt>
</rwgt>
</event>
<event>
 4      1 +7.6845000e-11 4.74849500e+03 7.81860800e-03 7.42011500e-02
        2 -1    0    0  501    0 +0.0000000000e+00 +0.0000000000e+00 +4.1196594372e+03 4.1196594372e+03 0.0000000000e+00 0.0000e+00 -1.0000e+00
       -2 -1    0    0    0  501 -0.0000000000e+00 -0.0000000000e+00 -1.3683294141e+03 1.3683294141e+03 0.0000000000e+00 0.0000e+00 1.0000e+00
      -13  1    1    2    0    0 -2.2544312955e+03 +4.5221515254e+01 +5.1656969762e+02 2.3132984469e+03 0.0000000000e+00 0.0000e+00 1.0000e+00
       13  1    1    2    0    0 +2.2544312955e+03 -4.5221515254e+01 +2.2347603255e+03 3.1746904044e+03 0.0000000000e+00 0.0000e+00 -1.0000e+00
<mgrwt>
<rscale>  0 0.47484950E+04</rscale>
<asrwt>0</asrwt>
<pdfrwt beam="1">  1        2 0.63379375E+00 0.47484950E+04</pdfrwt>
<pdfrwt beam="2">  1       -2 0.21051222E+00 0.47484950E+04</pdfrwt>
<totfact> 0.22315122E-02</totfact>
</mgrwt>
<rwgt>
<wgt id='morphing_basis_vector_1'> +5.3511752e-06 </wgt>
<wgt id='morphing_basis_vector_2'> +3.7618412e-06 </wgt>
<wgt id='morphing_basis_vector_3'> +5.9202221e-06 </wgt>
<wgt id='morphing_basis_vector_4'> +4.0877359e-06 </wgt>
<wgt id='morphing_basis_vector_5'> +6.7018012e-06 </wgt>
</rwgt>
</event>
<event>
 4      1 +7.6845000e-11 4.71227000e+03 7.81860800e-03 7.42542000e-02
        2 -1    0    0  501    0 +0.0000000000e+00 +0.0000000000e+00 +2.9294009622e+03 2.9294009622e+03 0.0000000000e+00 0.0000e+00 -1.0000e+00
       -2 -1    0    0    0  501 -0.0000000000e+00 -0.0000000000e+00 -1.8950535682e+03 1.8950535682e+03 0.0000000000e+00 0.0000e+00 1.0000e+00
      -13  1    1    2    0    0 -4.9466460360e+02 -1.9886574919e+03 -6.7322809529e+02 2.1570089843e+03 0.0000000000e+00 0.0000e+00 1.0000e+00
       13  1    1    2    0    0 +4.9466460360e+02 +1.9886574919e+03 +1.7075754893e+03 2.6674455462e+03 0.0000000000e+00 0.0000e+00 -1.0000e+00
<mgrwt>
<rscale>  0 0.47122698E+04</rscale>
<asrwt>0</asrwt>
<pdfrwt beam="1">  1        2 0.45067707E+00 0.47122698E+04</pdfrwt>
<pdfrwt beam="2">  1       -2 0.29154670E+00 0.47122698E+04</pdfrwt>
<totfact> 0.47592634E-02</totfact>
</mgrwt>
<rwgt>
<wgt id='morphing_basis_vector_1'> +5.1584230e-06 </wgt>
<wgt id='morphing_basis_vector_2'> +3.5548233e-06 </wgt>
<wgt id='morphing_basis_vector_3'> +5.6900023e-06 </wgt>
<wgt id='morphing_basis_vector_4'> +4.0318639e-06 </wgt>
<wgt id='morphing_basis_vector_5'> +6.5046011e-06 </wgt>
</rwgt>
</event>
<event>
 4      1 +7.6845000e-11 4.86608300e+03 7.81860800e-03 7.40321800e-02
        2 -1    0    0  501    0 +0.0000000000e+00 +0.0000000000e+00 +4.2898888764e+03 4.2898888764e+03 0.0000000000e+00 0.0000e+00 -1.0000e+00
       -2 -1    0    0    0  501 -0.0000000000e+00 -0.0000000000e+00 -1.3799168503e+03 1.3799168503e+03 0.0000000000e+00 0.0000e+00 1.0000e+00
      -13  1    1    2    0    0 +5.1638907117e+02 -1.5446097116e+03 -6.5110645046e+02 1.7539716200e+03 0.0000000000e+00 0.0000e+00 1.0000e+00
       13  1    1    2    0    0 -5.1638907117e+02 +1.5446097116e+03 +3.5610784766e+03 3.9158341066e+03 0.0000000000e+00 0.0000e+00 -1.0000e+00
<mgrwt>
<rscale>  0 0.48660826E+04</rscale>
<asrwt>0</asrwt>
<pdfrwt beam="1">  1        2 0.65998290E+00 0.48660826E+04</pdfrwt>
<pdfrwt beam="2">  1       -2 0.21229490E+00 0.48660826E+04</pdfrwt>
<totfact> 0.14977862E-02</totfact>
</mgrwt>
<rwgt>
<wgt id='morphing_basis_vector_1'> +5.8410197e-06 </wgt>
<wgt id='morphing_basis_vector_2'> +3.9770794e-06 </wgt>
<wgt id='morphing_basis_vector_3'> +6.4344156e-06 </wgt>
<wgt id='morphing_basis_vector_4'> +4.6332482e-06 </wgt>
<wgt id='morphing_basis_vector_5'> +7.4035505e-06 </wgt>
</rwgt>
</event>
<event>
 4      1 +7.6845000e-11 4.83166100e+03 7.81860800e-03 7.40811400e-02
        2 -1    0    0  501    0 +0.0000000000e+00 +0.0000000000e+00 +2.8457643368e+03 2.8457643368e+03 0.0000000000e+00 0.0000e+00 1.0000e+00
       -2 -1    0    0    0  501 -0.0000000000e+00 -0.0000000000e+00 -2.0508500738e+03 2.0508500738e+03 0.0000000000e+00 0.0000e+00 -1.0000e+00
      -13  1    1    2    0    0 -2.4131608715e+03 +1.1217783830e+02 +4.1520660647e+02 2.4511886474e+03 0.0000000000e+00 0.0000e+00 -1.0000e+00
       13  1    1    2    0    0 +2.4131608715e+03 -1.1217783830e+02 +3.7970765651e+02 2.4454257632e+03 0.0000000000e+00 0.0000e+00 1.0000e+00
<mgrwt>
<rscale>  0 0.48316606E+04</rscale>
<asrwt>0</asrwt>
<pdfrwt beam="1">  1        2 0.43780990E+00 0.48316606E+04</pdfrwt>
<pdfrwt beam="2">  1       -2 0.31551540E+00 0.48316606E+04</pdfrwt>
<totfact> 0.36799363E-02</totfact>
</mgrwt>
<rwgt>
<wgt id='morphing_basis_vector_1'> +5.8873330e-06 </wgt>
<wgt id='morphing_basis_vector_2'> +4.4805408e-06 </wgt>
<wgt id='morphing_basis_vector_3'> +6.5934513e-06 </wgt>
<wgt id='morphing_basis_vector_4'> +4.0576127e-06 </wgt>
<wgt id='morphing_basis_vector_5'> +7.1582692e-06 </wgt>
</rwgt>
</event>
<event>
 4      1 +7.6845000e-11 5.44163400e+03 7.81860800e-03 7.32697800e-02
        2 -1    0    0  501    0 +0.0000000000e+00 +0.0000000000e+00 +4.1565583520e+03 4.1565583520e+03 0.0000000000e+00 0.0000e+00 -1.0000e+00
       -2 -1    0    0    0  501 -0.0000000000e+00 -0.0000000000e+00 -1.7810034774e+03 1.7810034774e+03 0.0000000000e+00 0.0000e+00 1.0000e+00
      -13  1    1    2    0    0 +7.2040210092e+02 +2.6236058536e+03 +1.2135526667e+03 2.9790933078e+03 0.0000000000e+00 0.0000e+00 1.0000e+00
       13  1    1    2    0    0 -7.2040210092e+02 -2.6236058536e+03 +1.1620022079e+03 2.9584685216e+03 0.0000000000e+00 0.0000e+00 -1.0000e+00
<mgrwt>
<rscale>  0 0.54416339E+04</rscale>
<asrwt>0</asrwt>
<pdfrwt beam="1">  1        2 0.63947051E+00 0.54416339E+04</pdfrwt>
<pdfrwt beam="2">  1       -2 0.27400054E+00 0.54416339E+04</pdfrwt>
<totfact> 0.70742273E-03</totfact>
</mgrwt>
<rwgt>
<wgt id='morphing_basis_vector_1'> +9.4599576e-06 </wgt>
<wgt id='morphing_basis_vector_2'> +7.2087778e-06 </wgt>
<wgt id='morphing_basis_vector_3'> +1.0612038e-05 </wgt>
<wgt id='morphing_basis_vector_4'> +6.5334770e-06 </wgt>
<wgt id='morphing_basis_vector_5'> +1.1533082e-05 </wgt>
</rwgt>
</event>
<event>
 4      1 +7.6845000e-11 4.75855600e+03 7.81860800e-03 7.41865100e-02
        2 -1    0    0  501    0 +0.0000000000e+00 +0.0000000000e+00 +3.3815251717e+03 3.3815251717e+03 0.0000000000e+00 0.0000e+00 -1.0000e+00
       -2 -1    0    0    0  501 -0.0000000000e+00 -0.0000000000e+00 -1.6740858683e+03 1.6740858683e+03 0.0000000000e+00 0.0000e+00 1.0000e+00
      -13  1    1    2    0    0 -1.0108858206e+03 +4.2653509222e+02 -1.3892669300e+03 1.7702782070e+03 0.0000000000e+00 0.0000e+00 1.0000e+00
       13  1    1    2    0    0 +1.0108858206e+03 -4.2653509222e+02 +3.0967062335e+03 3.2853328330e+03 0.0000000000e+00 0.0000e+00 -1.0000e+00
<mgrwt>
<rscale>  0 0.47585559E+04</rscale>
<asrwt>0</asrwt>
<pdfrwt beam="1">  1        2 0.52023464E+00 0.47585559E+04</pdfrwt>
<pdfrwt beam="2">  1       -2 0.25755167E+00 0.47585559E+04</pdfrwt>
<totfact> 0.40065357E-02</totfact>
</mgrwt>
<rwgt>
<wgt id='morphing_basis_vector_1'> +5.3393380e-06 </wgt>
<wgt id='morphing_basis_vector_2'> +3.6258654e-06 </wgt>
<wgt id='morphing_basis_vector_3'> +5.8779724e-06 </wgt>
<wgt id='morphing_basis_vector_4'> +4.2442498e-06 </wgt>
<wgt id='morphing_basis_vector_5'> +6.7691657e-06 </wgt>
</rwgt>
</event>
<event>
 4      1 +7.6845000e-11 5.09509300e+03 7.81860800e-03 7.37165000e-02
        2 -1    0    0  501    0 +0.0000000000e+00 +0.0000000000e+00 +3.8368056482e+03 3.8368056482e+03 0.0000000000e+00 0.0000e+00 -1.0000e+00
       -2 -1    0    0    0  501 -0.0000000000e+00 -0.0000000000e+00 -1.6915092755e+03 1.6915092755e+03 0.0000000000e+00 0.0000e+00 1.0000e+00
      -13  1    1    2    0    0 -1.2334246256e+03 +1.2351355829e+03 -9.4068318636e+02 1.9828719253e+03 0.0000000000e+00 0.0000e+00 1.0000e+00
       13  1    1    2    0    0 +1.2334246256e+03 -1.2351355829e+03 +3.0859795591e+03 3.5454429983e+03 0.0000000000e+00 0.0000e+00 -1.0000e+00
<mgrwt>
<rscale>  0 0.50950927E+04</rscale>
<asrwt>0</asrwt>
<pdfrwt beam="1">  1        2 0.59027779E+00 0.50950927E+04</pdfrwt>
<pdfrwt beam="2">  1       -2 0.26023220E+00 0.50950927E+04</pdfrwt>
<totfact> 0.16915140E-02</totfact>
</mgrwt>
<rwgt>
<wgt id='morphing_basis_vector_1'> +7.0172379e-06 </wgt>
<wgt id='morphing_basis_vector_2'> +4.7816045e-06 </wgt>
<wgt id='morphing_basis_vector_3'> +7.7349776e-06 </wgt>
<wgt id='morphing_basis_vector_4'> +5.5703993e-06 </wgt>
<wgt id='morphing_basis_vector_5'> +8.9038678e-06 </wgt>
</rwgt>
</event>
<event>
 4      1 +7.6845000e-11 4.70921100e+03 7.81860800e-03 7.42587100e-02
        2 -1    0    0  501    0 +0.0000000000e+00 +0.0000000000e+00 +3.2027544067e+03 3.2027544067e+03 0.0000000000e+00 0.0000e+00 -1.0000e+00
       -2 -1    0    0    0  501 -0.0000000000e+00 -0.0000000000e+00 -1.7310623304e+03 1.7310623304e+03 0.0000000000e+00 0.0000e+00 1.0000e+00
      -13  1    1    2    0    0 +1.3366469079e+03 -1.9285207937e+03 +5.3067403913e+02 2.4057082832e+03 0.0000000000e+00 0.0000e+00 1.0000e+00
       13  1    1    2    0    0 -1.3366469079e+03 +1.9285207937e+03 +9.4101803723e+02 2.5281084539e+03 0.0000000000e+00 0.0000e+00 -1.0000e+00
<mgrwt>
<rscale>  0 0.47092112E+04</rscale>
<asrwt>0</asrwt>
<pdfrwt beam="1">  1        2 0.49273145E+00 0.47092112E+04</pdfrwt>
<pdfrwt beam="2">  1       -2 0.26631728E+00 0.47092112E+04</pdfrwt>
<totfact> 0.46630846E-02</totfact>
</mgrwt>
<rwgt>
<wgt id='morphing_basis_vector_1'> +5.2602676e-06 </wgt>
<wgt id='morphing_basis_vector_2'> +3.8839187e-06 </wgt>
<wgt id='morphing_basis_vector_3'> +5.8616761e-06 </wgt>
<wgt id='morphing_basis_vector_4'> +3.7763717e-06 </wgt>
<wgt id='morphing_basis_vector_5'> +6.4671595e-06 </wgt>
</rwgt>
</event>
<event>
 4      1 +7.6845000e-11 4.93462200e+03 7.81860800e-03 7.39358800e-02
        2 -1    0    0  501    0 +0.0000000000e+00 +0.0000000000e+00 +2.5095609818e+03 2.5095609818e+03 0.0000000000e+00 0.0000e+00 -1.0000e+00
       -2 -1    0    0    0  501 -0.0000000000e+00 -0.0000000000e+00 -2.4257723726e+03 2.4257723726e+03 0.0000000000e+00 0.0000e+00 1.0000e+00
      -13  1    1    2    0    0 -8.2289280719e+02 -5.5781767704e+02 -2.2165965089e+03 2.4293236129e+03 0.0000000000e+00 0.0000e+00 1.0000e+00
       13  1    1    2    0    0 +8.2289280719e+02 +5.5781767704e+02 +2.3003851181e+03 2.5060097415e+03 0.0000000000e+00 0.0000e+00 -1.0000e+00
<mgrwt>
<rscale>  0 0.49346221E+04</rscale>
<asrwt>0</asrwt>
<pdfrwt beam="1">  1        2 0.38608630E+00 0.49346221E+04</pdfrwt>
<pdfrwt beam="2">  1       -2 0.37319575E+00 0.49346221E+04</pdfrwt>
<totfact> 0.24708210E-02</totfact>
</mgrwt>
<rwgt>
<wgt id='morphing_basis_vector_1'> +6.1709635e-06 </wgt>
<wgt id='morphing_basis_vector_2'> +4.1909892e-06 </wgt>
<wgt id='morphing_basis_vector_3'> +6.7965069e-06 </wgt>
<wgt id='morphing_basis_vector_4'> +4.9113438e-06 </wgt>
<wgt id='morphing_basis_vector_5'> +7.8319017e-06 </wgt>
</rwgt>
</event>
<event>
 4      1 +7.6845000e-11 4.62574200e+03 7.81860800e-03 7.43828900e-02
        2 -1    0    0  501    0 +0.0000000000e+00 +0.0000000000e+00 +4.1649585050e+03 4.1649585050e+03 0.0000000000e+00 0.0000e+00 1.0000e+00
       -2 -1    0    0    0  501 -0.0000000000e+00 -0.0000000000e+00 -1.2843759192e+03 1.2843759192e+03 0.0000000000e+00 0.0000e+00 -1.0000e+00
      -13  1    1    2    0    0 +8.3970756689e+02 +6.6224391988e+02 -9.7562019361e+02 1.4475878452e+03 0.0000000000e+00 0.0000e+00 -1.0000e+00
       13  1    1    2    0    0 -8.3970756689e+02 -6.6224391988e+02 +3.8562027794e+03 4.0017465791e+03 0.0000000000e+00 0.0000e+00 1.0000e+00
<mgrwt>
<rscale>  0 0.46257421E+04</rscale>
<asrwt>0</asrwt>
<pdfrwt beam="1">  1        2 0.64076284E+00 0.46257421E+04</pdfrwt>
<pdfrwt beam="2">  1       -2 0.19759630E+00 0.46257421E+04</pdfrwt>
<totfact> 0.25465460E-02</totfact>
</mgrwt>
<rwgt>
<wgt id='morphing_basis_vector_1'> +4.7697613e-06 </wgt>
<wgt id='morphing_basis_vector_2'> +3.2382641e-06 </wgt>
<wgt id='morphing_basis_vector_3'> +5.2488714e-06 </wgt>
<wgt id='morphing_basis_vector_4'> +3.7883552e-06 </wgt>
<wgt id='morphing_basis_vector_5'> +6.0420285e-06 </wgt>
</rwgt>
</event>
<event>
 4      1 +7.6845000e-11 4.65239100e+03 7.81860800e-03 7.43429600e-02
        2 -1    0    0  501    0 +0.0000000000e+00 +0.0000000000e+00 +3.9430123609e+03 3.9430123609e+03 0.0000000000e+00 0.0000e+00 -1.0000e+00
       -2 -1    0    0    0  501 -0.0000000000e+00 -0.0000000000e+00 -1.3723480851e+03 1.3723480851e+03 0.0000000000e+00 0.0000e+00 1.0000e+00
      -13  1    1    2    0    0 -1.4318774843e+03 +1.6094457685e+03 +2.2882608711e+03 3.1427259865e+03 0.0000000000e+00 0.0000e+00 1.0000e+00
       13  1    1    2    0    0 +1.4318774843e+03 -1.6094457685e+03 +2.8240340470e+02 2.1726344596e+03 0.0000000000e+00 0.0000e+00 -1.0000e+00
<mgrwt>
<rscale>  0 0.46523910E+04</rscale>
<asrwt>0</asrwt>
<pdfrwt beam="1">  1        2 0.60661728E+00 0.46523910E+04</pdfrwt>
<pdfrwt beam="2">  1       -2 0.21113048E+00 0.46523910E+04</pdfrwt>
<totfact> 0.31600037E-02</totfact>
</mgrwt>
<rwgt>
<wgt id='morphing_basis_vector_1'> +5.5133834e-06 </wgt>
<wgt id='morphing_basis_vector_2'> +5.1733394e-06 </wgt>
<wgt id='morphing_basis_vector_3'> +6.3951787e-06 </wgt>
<wgt id='morphing_basis_vector_4'> +2.5303252e-06 </wgt>
<wgt id='morphing_basis_vector_5'> +6.0703134e-06 </wgt>
</rwgt>
</event>
<event>
 4      1 +7.6845000e-11 5.24657100e+03 7.81860800e-03 7.35168900e-02
        2 -1    0    0  501    0 +0.0000000000e+00 +0.0000000000e+00 +2.6792656653e+03 2.6792656653e+03 0.0000000000e+00 0.0000e+00 1.0000e+00
       -2 -1    0    0    0  501 -0.0000000000e+00 -0.0000000000e+00 -2.5684751772e+03 2.5684751772e+03 0.0000000000e+00 0.0000e+00 -1.0000e+00
      -13  1    1    2    0    0 -1.9043806180e+03 -1.2713746034e+03 -1.2249559184e+03 2.5968396027e+03 0.0000000000e+00 0.0000e+00 -1.0000e+00
       13  1    1    2    0    0 +1.9043806180e+03 +1.2713746034e+03 +1.3357464064e+03 2.6509012397e+03 0.0000000000e+00 0.0000e+00 1.0000e+00
<mgrwt>
<rscale>  0 0.52465712E+04</rscale>
<asrwt>0</asrwt>
<pdfrwt beam="1">  1        2 0.41219472E+00 0.52465712E+04</pdfrwt>
<pdfrwt beam="2">  1       -2 0.39515003E+00 0.52465712E+04</pdfrwt>
<totfact> 0.13726491E-02</totfact>
</mgrwt>
<rwgt>
<wgt id='morphing_basis_vector_1'> +7.9165585e-06 </wgt>
<wgt id='morphing_basis_vector_2'> +5.4625633e-06 </wgt>
<wgt id='morphing_basis_vector_3'> +8.7447698e-06 </wgt>
<wgt id='morphing_basis_vector_4'> +6.2017242e-06 </wgt>
<wgt id='morphing_basis_vector_5'> +1.0009050e-05 </wgt>
</rwgt>
</event>
<event>
 4      1 +7.6845000e-11 4.74262800e+03 7.81860800e-03 7.42097100e-02
        2 -1    0    0  501    0 +0.0000000000e+00 +0.0000000000e+00 +1.9696960588e+03 1.9696960588e+03 0.0000000000e+00 0.0000e+00 -1.0000e+00
       -2 -1    0    0    0  501 -0.0000000000e+00 -0.0000000000e+00 -2.8548216897e+03 2.8548216897e+03 0.0000000000e+00 0.0000e+00 1.0000e+00
      -13  1    1    2    0    0 +1.5465556552e+03 -1.5358534490e+02 -2.2644951212e+03 2.7465179786e+03 0.0000000000e+00 0.0000e+00 1.0000e+00
       13  1    1    2    0    0 -1.5465556552e+03 +1.5358534490e+02 +1.3793694903e+03 2.0779997699e+03 0.0000000000e+00 0.0000e+00 -1.0000e+00
<mgrwt>
<rscale>  0 0.47426284E+04</rscale>
<asrwt>0</asrwt>
<pdfrwt beam="1">  1        2 0.30303016E+00 0.47426284E+04</pdfrwt>
<pdfrwt beam="2">  1       -2 0.43920334E+00 0.47426284E+04</pdfrwt>
<totfact> 0.18890319E-02</totfact>
</mgrwt>
<rwgt>
<wgt id='morphing_basis_vector_1'> +5.2718751e-06 </wgt>
<wgt id='morphing_basis_vector_2'> +3.5876412e-06 </wgt>
<wgt id='morphing_basis_vector_3'> +5.8052059e-06 </wgt>
<wgt id='morphing_basis_vector_4'> +4.1802675e-06 </wgt>
<wgt id='morphing_basis_vector_5'> +6.6780689e-06 </wgt>
</rwgt>
</event>
<event>
 4      1 +7.6845000e-11 4.62109600e+03 7.81860800e-03 7.43898800e-02
        2 -1    0    0  501    0 +0.0000000000e+00 +0.0000000000e+00 +3.0959710235e+03 3.0959710235e+03 0.0000000000e+00 0.0000e+00 -1.0000e+00
       -2 -1    0    0    0  501 -0.0000000000e+00 -0.0000000000e+00 -1.7243806646e+03 1.7243806646e+03 0.0000000000e+00 0.0000e+00 1.0000e+00
      -13  1    1    2    0    0 -2.1313117617e+03 +8.4440063804e+02 +3.8503979724e+02 2.3245984403e+03 0.0000000000e+00 0.0000e+00 1.0000e+00
       13  1    1    2    0    0 +2.1313117617e+03 -8.4440063804e+02 +9.8655056170e+02 2.4957532478e+03 0.0000000000e+00 0.0000e+00 -1.0000e+00
<mgrwt>
<rscale>  0 0.46210962E+04</rscale>
<asrwt>0</asrwt>
<pdfrwt beam="1">  1        2 0.47630323E+00 0.46210962E+04</pdfrwt>
<pdfrwt beam="2">  1       -2 0.26528933E+00 0.46210962E+04</pdfrwt>
<totfact> 0.56310145E-02</totfact>
</mgrwt>
<rwgt>
<wgt id='morphing_basis_vector_1'> +4.8601473e-06 </wgt>
<wgt id='morphing_basis_vector_2'> +3.5467903e-06 </wgt>
<wgt id='morphing_basis_vector_3'> +5.4048224e-06 </wgt>
<wgt id='morphing_basis_vector_4'> +3.5404241e-06 </wgt>
<wgt id='morphing_basis_vector_5'> +5.9982328e-06 </wgt>
</rwgt>
</event>
<event>
 4      1 +7.6845000e-11 5.21541700e+03 7.81860800e-03 7.35573700e-02
        2 -1    0    0  501    0 +0.0000000000e+00 +0.0000000000e+00 +2.7992589575e+03 2.7992589575e+03 0.0000000000e+00 0.0000e+00 1.0000e+00
       -2 -1    0    0    0  501 -0.0000000000e+00 -0.0000000000e+00 -2.4292656019e+03 2.4292656019e+03 0.0000000000e+00 0.0000e+00 -1.0000e+00
      -13  1    1    2    0    0 +8.8776603984e+02 +2.9731991950e+02 -2.2549681173e+03 2.4415996572e+03 0.0000000000e+00 0.0000e+00 -1.0000e+00
       13  1    1    2    0    0 -8.8776603984e+02 -2.9731991950e+02 +2.6249614730e+03 2.7869249022e+03 0.0000000000e+00 0.0000e+00 1.0000e+00
<mgrwt>
<rscale>  0 0.52154170E+04</rscale>
<asrwt>0</asrwt>
<pdfrwt beam="1">  1        2 0.43065522E+00 0.52154170E+04</pdfrwt>
<pdfrwt beam="2">  1       -2 0.37373317E+00 0.52154170E+04</pdfrwt>
<totfact> 0.15947795E-02</totfact>
</mgrwt>
<rwgt>
<wgt id='morphing_basis_vector_1'> +7.6943644e-06 </wgt>
<wgt id='morphing_basis_vector_2'> +5.2272997e-06 </wgt>
<wgt id='morphing_basis_vector_3'> +8.4798018e-06 </wgt>
<wgt id='morphing_basis_vector_4'> +6.1329161e-06 </wgt>
<wgt id='morphing_basis_vector_5'> +9.7792605e-06 </wgt>
</rwgt>
</event>
<event>
 4      1 +7.6845000e-11 4.62866000e+03 7.81860800e-03 7.43785000e-02
        2 -1    0    0  501    0 +0.0000000000e+00 +0.0000000000e+00 +3.3514287770e+03 3.3514287770e+03 0.0000000000e+00 0.0000e+00 -1.0000e+00
       -2 -1    0    0    0  501 -0.0000000000e+00 -0.0000000000e+00 -1.5981612924e+03 1.5981612924e+03 0.0000000000e+00 0.0000e+00 1.0000e+00
      -13  1    1    2    0    0 +6.5955056781e+02 -7.5910860490e+02 -1.3523267677e+03 1.6852419744e+03 0.0000000000e+00 0.0000e+00 1.0000e+00
       13  1    1    2    0    0 -6.5955056781e+02 +7.5910860490e+02 +3.1055942523e+03 3.2643480950e+03 0.0000000000e+00 0.0000e+00 -1.0000e+00
<mgrwt>
<rscale>  0 0.46286602E+04</rscale>
<asrwt>0</asrwt>
<pdfrwt beam="1">  1        2 0.51560442E+00 0.46286602E+04</pdfrwt>
<pdfrwt beam="2">  1       -2 0.24587097E+00 0.46286602E+04</pdfrwt>
<totfact> 0.51191261E-02</totfact>
</mgrwt>
<rwgt>
<wgt id='morphing_basis_vector_1'> +4.7815913e-06 </wgt>
<wgt id='morphing_basis_vector_2'> +3.2459285e-06 </wgt>
<wgt id='morphing_basis_vector_3'> +5.2618487e-06 </wgt>
<wgt id='morphing_basis_vector_4'> +3.7983218e-06 </wgt>
<wgt id='morphing_basis_vector_5'> +6.0573762e-06 </wgt>
</rwgt>
</event>
<event>
 4      1 +7.6845000e-11 5.41086300e+03 7.81860800e-03 7.33080500e-02
        2 -1    0    0  501    0 +0.0000000000e+00 +0.0000000000e+00 +3.9390759614e+03 3.9390759614e+03 0.0000000000e+00 0.0000e+00 -1.0000e+00
       -2 -1    0    0    0  501 -0.0000000000e+00 -0.0000000000e+00 -1.8581410833e+03 1.8581410833e+03 0.0000000000e+00 0.0000e+00 1.0000e+00
      -13  1    1    2    0    0 -1.7779943441e+03 -1.9671715180e+03 +4.6516148629e+02 2.6921000868e+03 0.0000000000e+00 0.0000e+00 1.0000e+00
       13  1    1    2    0    0 +1.7779943441e+03 +1.9671715180e+03 +1.6157733917e+03 3.1051169579e+03 0.0000000000e+00 0.0000e+00 -1.0000e+00
<mgrwt>
<rscale>  0 0.54108627E+04</rscale>
<asrwt>0</asrwt>
<pdfrwt beam="1">  1        2 0.60601169E+00 0.54108627E+04</pdfrwt>
<pdfrwt beam="2">  1       -2 0.28586786E+00 0.54108627E+04</pdfrwt>
<totfact> 0.90921610E-03</totfact>
</mgrwt>
<rwgt>
<wgt id='morphing_basis_vector_1'> +9.0651776e-06 </wgt>
<wgt id='morphing_basis_vector_2'> +6.5094657e-06 </wgt>
<wgt id='morphing_basis_vector_3'> +1.0075826e-05 </wgt>
<wgt id='morphing_basis_vector_4'> +6.7776431e-06 </wgt>
<wgt id='morphing_basis_vector_5'> +1.1306575e-05 </wgt>
</rwgt>
</event>
<event>
 4      1 +7.6845000e-11 4.65551700e+03 7.81860800e-03 7.43382900e-02
        2 -1    0    0  501    0 +0.0000000000e+00 +0.0000000000e+00 +2.1387085380e+03 2.1387085380e+03 0.0000000000e+00 0.0000e+00 1.0000e+00
       -2 -1    0    0    0  501 -0.0000000000e+00 -0.0000000000e+00 -2.5335189177e+03 2.5335189177e+03 0.0000000000e+00 0.0000e+00 -1.0000e+00
      -13  1    1    2    0    0 -1.6203761738e+03 +1.3037073890e+03 -1.2467138611e+03 2.4247819185e+03 0.0000000000e+00 0.0000e+00 -1.0000e+00
       13  1    1    2    0    0 +1.6203761738e+03 -1.3037073890e+03 +8.5190348149e+02 2.2474455372e+03 0.0000000000e+00 0.0000e+00 1.0000e+00
<mgrwt>
<rscale>  0 0.46555165E+04</rscale>
<asrwt>0</asrwt>
<pdfrwt beam="1">  1        2 0.32903208E+00 0.46555165E+04</pdfrwt>
<pdfrwt beam="2">  1       -2 0.38977214E+00 0.46555165E+04</pdfrwt>
<totfact> 0.32446946E-02</totfact>
</mgrwt>
<rwgt>
<wgt id='morphing_basis_vector_1'> +4.9209837e-06 </wgt>
<wgt id='morphing_basis_vector_2'> +3.4036991e-06 </wgt>
<wgt id='morphing_basis_vector_3'> +5.4301086e-06 </wgt>
<wgt id='morphing_basis_vector_4'> +3.8282850e-06 </wgt>
<wgt id='morphing_basis_vector_5'> +6.1947552e-06 </wgt>
</rwgt>
</event>
<event>
 4      1 +7.6845000e-11 4.64694100e+03 7.81860800e-03 7.43511000e-02
        2 -1    0    0  501    0 +0.0000000000e+00 +0.0000000000e+00 +2.4683308715e+03 2.4683308715e+03 0.0000000000e+00 0.0000e+00 -1.0000e+00
       -2 -1    0    0    0  501 -0.0000000000e+00 -0.0000000000e+00 -2.1871116898e+03 2.1871116898e+03 0.0000000000e+00 0.0000e+00 1.0000e+00
      -13  1    1    2    0    0 +1.1720655738e+03 -1.5765540900e+03 -1.1023272657e+03 2.2526397646e+03 0.0000000000e+00 0.0000e+00 1.0000e+00
       13  1    1    2    0    0 -1.1720655738e+03 +1.5765540900e+03 +1.3835464474e+03 2.4028027968e+03 0.0000000000e+00 0.0000e+00 -1.0000e+00
<mgrwt>
<rscale>  0 0.46469411E+04</rscale>
<asrwt>0</asrwt>
<pdfrwt beam="1">  1        2 0.37974321E+00 0.46469411E+04</pdfrwt>
<pdfrwt beam="2">  1       -2 0.33647872E+00 0.46469411E+04</pdfrwt>
<totfact> 0.46204362E-02</totfact>
</mgrwt>
<rwgt>
<wgt id='morphing_basis_vector_1'> +4.8748741e-06 </wgt>
<wgt id='morphing_basis_vector_2'> +3.3490945e-06 </wgt>
<wgt id='morphing_basis_vector_3'> +5.3738974e-06 </wgt>
<wgt id='morphing_basis_vector_4'> +3.8215075e-06 </wgt>
<wgt id='morphing_basis_vector_5'> +6.1508673e-06 </wgt>
</rwgt>
</event>
<event>
 4      1 +7.6845000e-11 5.21307900e+03 7.81860800e-03 7.35604200e-02
        2 -1    0    0  501    0 +0.0000000000e+00 +0.0000000000e+00 +4.7888458096e+03 4.7888458096e+03 0.0000000000e+00 0.0000e+00 -1.0000e+00
       -2 -1    0    0    0  501 -0.0000000000e+00 -0.0000000000e+00 -1.4187233426e+03 1.4187233426e+03 0.0000000000e+00 0.0000e+00 1.0000e+00
      -13  1    1    2    0    0 -1.3089915211e+03 +4.8360244256e+02 -9.3644640122e+02 1.6805540715e+03 0.0000000000e+00 0.0000e+00 1.0000e+00
       13  1    1    2    0    0 +1.3089915211e+03 -4.8360244256e+02 +4.3065688682e+03 4.5270150807e+03 0.0000000000e+00 0.0000e+00 -1.0000e+00
<mgrwt>
<rscale>  0 0.52130787E+04</rscale>
<asrwt>0</asrwt>
<pdfrwt beam="1">  1        2 0.73674550E+00 0.52130787E+04</pdfrwt>
<pdfrwt beam="2">  1       -2 0.21826513E+00 0.52130787E+04</pdfrwt>
<totfact> 0.39172376E-03</totfact>
</mgrwt>
<rwgt>
<wgt id='morphing_basis_vector_1'> +7.6824687e-06 </wgt>
<wgt id='morphing_basis_vector_2'> +5.2233811e-06 </wgt>
<wgt id='morphing_basis_vector_3'> +8.4676184e-06 </wgt>
<wgt id='morphing_basis_vector_4'> +6.1179433e-06 </wgt>
<wgt id='morphing_basis_vector_5'> +9.7613521e-06 </wgt>
</rwgt>
</event>
<event>
 4      1 +7.6845000e-11 4.69867400e+03 7.81860800e-03 7.42742400e-02
        2 -1    0    0  501    0 +0.0000000000e+00 +0.0000000000e+00 +3.5211545856e+03 3.5211545856e+03 0.0000000000e+00 0.0000e+00 -1.0000e+00
       -2 -1    0    0    0  501 -0.0000000000e+00 -0.0000000000e+00 -1.5674927948e+03 1.5674927948e+03 0.0000000000e+00 0.0000e+00 1.0000e+00
      -13  1    1    2    0    0 +1.6625381594e+03 +1.1983387465e+03 -2.6712411323e+02 2.0667375679e+03 0.0000000000e+00 0.0000e+00 1.0000e+00
       13  1    1    2    0    0 -1.6625381594e+03 -1.1983387465e+03 +2.2207859041e+03 3.0219098125e+03 0.0000000000e+00 0.0000e+00 -1.0000e+00
<mgrwt>
<rscale>  0 0.46986740E+04</rscale>
<asrwt>0</asrwt>
<pdfrwt beam="1">  1        2 0.54171609E+00 0.46986740E+04</pdfrwt>
<pdfrwt beam="2">  1       -2 0.24115274E+00 0.46986740E+04</pdfrwt>
<totfact> 0.41429975E-02</totfact>
</mgrwt>
<rwgt>
<wgt id='morphing_basis_vector_1'> +5.0999338e-06 </wgt>
<wgt id='morphing_basis_vector_2'> +3.5157029e-06 </wgt>
<wgt id='morphing_basis_vector_3'> +5.6255498e-06 </wgt>
<wgt id='morphing_basis_vector_4'> +3.9841666e-06 </wgt>
<wgt id='morphing_basis_vector_5'> +6.4294905e-06 </wgt>
</rwgt>
</event>
<event>
 4      1 +7.6845000e-11 4.98192700e+03 7.81860800e-03 7.38703300e-02
        2 -1    0    0  501    0 +0.0000000000e+00 +0.0000000000e+00 +2.5050517694e+03 2.5050517694e+03 0.0000000000e+00 0.0000e+00 -1.0000e+00
       -2 -1    0    0    0  501 -0.0000000000e+00 -0.0000000000e+00 -2.4769548945e+03 2.4769548945e+03 0.0000000000e+00 0.0000e+00 1.0000e+00
      -13  1    1    2    0    0 +1.0909255385e+03 +5.6369118791e+02 -2.1532501930e+03 2.4787804823e+03 0.0000000000e+00 0.0000e+00 1.0000e+00
       13  1    1    2    0    0 -1.0909255385e+03 -5.6369118791e+02 +2.1813470679e+03 2.5032261817e+03 0.0000000000e+00 0.0000e+00 -1.0000e+00
<mgrwt>
<rscale>  0 0.49819274E+04</rscale>
<asrwt>0</asrwt>
<pdfrwt beam="1">  1        2 0.38539258E+00 0.49819274E+04</pdfrwt>
<pdfrwt beam="2">  1       -2 0.38106999E+00 0.49819274E+04</pdfrwt>
<totfact> 0.22038709E-02</totfact>
</mgrwt>
<rwgt>
<wgt id='morphing_basis_vector_1'> +6.4109513e-06 </wgt>
<wgt id='morphing_basis_vector_2'> +4.3560087e-06 </wgt>
<wgt id='morphing_basis_vector_3'> +7.0620539e-06 </wgt>
<wgt id='morphing_basis_vector_4'> +5.1014117e-06 </wgt>
<wgt id='morphing_basis_vector_5'> +8.1374351e-06 </wgt>
</rwgt>
</event>
<event>
 4      1 +7.6845000e-11 5.40059600e+03 7.81860800e-03 7.33208800e-02
        2 -1    0    0  501    0 +0.0000000000e+00 +0.0000000000e+00 +4.0028073246e+03 4.0028073246e+03 0.0000000000e+00 0.0000e+00 1.0000e+00
       -2 -1    0    0    0  501 -0.0000000000e+00 -0.0000000000e+00 -1.8216236575e+03 1.8216236575e+03 0.0000000000e+00 0.0000e+00 -1.0000e+00
      -13  1    1    2    0    0 -2.4028760021e+03 +7.5621909709e+02 +4.1675368426e+01 2.5194081132e+03 0.0000000000e+00 0.0000e+00 -1.0000e+00
       13  1    1    2    0    0 +2.4028760021e+03 -7.5621909709e+02 +2.1395082987e+03 3.3050228690e+03 0.0000000000e+00 0.0000e+00 1.0000e+00
<mgrwt>
<rscale>  0 0.54005957E+04</rscale>
<asrwt>0</asrwt>
<pdfrwt beam="1">  1        2 0.61581651E+00 0.54005957E+04</pdfrwt>
<pdfrwt beam="2">  1       -2 0.28024979E+00 0.54005957E+04</pdfrwt>
<totfact> 0.87771385E-03</totfact>
</mgrwt>
<rwgt>
<wgt id='morphing_basis_vector_1'> +8.9207718e-06 </wgt>
<wgt id='morphing_basis_vector_2'> +6.2371586e-06 </wgt>
<wgt id='morphing_basis_vector_3'> +9.8758982e-06 </wgt>
<wgt id='morphing_basis_vector_4'> +6.8884224e-06 </wgt>
<wgt id='morphing_basis_vector_5'> +1.1234392e-05 </wgt>
</rwgt>
</event>
<event>
 4      1 +7.6845000e-11 4.64156500e+03 7.81860800e-03 7.43591400e-02
        2 -1    0    0  501    0 +0.0000000000e+00 +0.0000000000e+00 +3.0667735237e+03 3.0667735237e+03 0.0000000000e+00 0.0000e+00 -1.0000e+00
       -2 -1    0    0    0  501 -0.0000000000e+00 -0.0000000000e+00 -1.7562537408e+03 1.7562537408e+03 0.0000000000e+00 0.0000e+00 1.0000e+00
      -13  1    1    2    0    0 +1.0272083337e+03 +2.0005880959e+03 +1.2508369824e+03 2.5733446809e+03 0.0000000000e+00 0.0000e+00 1.0000e+00
       13  1    1    2    0    0 -1.0272083337e+03 -2.0005880959e+03 +5.9682800477e+01 2.2496825836e+03 0.0000000000e+00 0.0000e+00 -1.0000e+00
<mgrwt>
<rscale>  0 0.46415655E+04</rscale>
<asrwt>0</asrwt>
<pdfrwt beam="1">  1        2 0.47181131E+00 0.46415655E+04</pdfrwt>
<pdfrwt beam="2">  1       -2 0.27019288E+00 0.46415655E+04</pdfrwt>
<totfact> 0.54407062E-02</totfact>
</mgrwt>
<rwgt>
<wgt id='morphing_basis_vector_1'> +5.2503562e-06 </wgt>
<wgt id='morphing_basis_vector_2'> +4.5024997e-06 </wgt>
<wgt id='morphing_basis_vector_3'> +5.9927385e-06 </wgt>
<wgt id='morphing_basis_vector_4'> +2.9577202e-06 </wgt>
<wgt id='morphing_basis_vector_5'> +6.0515486e-06 </wgt>
</rwgt>
</event>
<event>
 4      1 +7.6845000e-11 4.66854300e+03 7.81860800e-03 7.43188800e-02
        2 -1    0    0  501    0 +0.0000000000e+00 +0.0000000000e+00 +2.0402408152e+03 2.0402408152e+03 0.0000000000e+00 0.0000e+00 1.0000e+00
       -2 -1    0    0    0  501 -0.0000000000e+00 -0.0000000000e+00 -2.6706764064e+03 2.6706764064e+03 0.0000000000e+00 0.0000e+00 -1.0000e+00
      -13  1    1    2    0    0 -1.9147275759e+03 +4.4225193953e+02 -1.5864358515e+03 2.5255785830e+03 0.0000000000e+00 0.0000e+00 -1.0000e+00
       13  1    1    2    0    0 +1.9147275759e+03 -4.4225193953e+02 +9.5600026025e+02 2.1853386386e+03 0.0000000000e+00 0.0000e+00 1.0000e+00
<mgrwt>
<rscale>  0 0.46685428E+04</rscale>
<asrwt>0</asrwt>
<pdfrwt beam="1">  1        2 0.31388320E+00 0.46685428E+04</pdfrwt>
<pdfrwt beam="2">  1       -2 0.41087329E+00 0.46685428E+04</pdfrwt>
<totfact> 0.26830346E-02</totfact>
</mgrwt>
<rwgt>
<wgt id='morphing_basis_vector_1'> +4.9652265e-06 </wgt>
<wgt id='morphing_basis_vector_2'> +3.4100088e-06 </wgt>
<wgt id='morphing_basis_vector_3'> +5.4735638e-06 </wgt>
<wgt id='morphing_basis_vector_4'> +3.8945504e-06 </wgt>
<wgt id='morphing_basis_vector_5'> +6.2665665e-06 </wgt>
</rwgt>
</event>
<event>
 4      1 +7.6845000e-11 4.86926000e+03 7.81860800e-03 7.40276800e-02
        2 -1    0    0  501    0 +0.0000000000e+00 +0.0000000000e+00 +2.6959924530e+03 2.6959924530e+03 0.0000000000e+00 0.0000e+00 1.0000e+00
       -2 -1    0    0    0  501 -0.0000000000e+00 -0.0000000000e+00 -2.1986052287e+03 2.1986052287e+03 0.0000000000e+00 0.0000e+00 -1.0000e+00
      -13  1    1    2    0    0 +1.9746397416e+03 +5.4542764598e+02 -1.0737241096e+03 2.3129152361e+03 0.0000000000e+00 0.0000e+00 -1.0000e+00
       13  1    1    2    0    0 -1.9746397416e+03 -5.4542764598e+02 +1.5711113340e+03 2.5816824456e+03 0.0000000000e+00 0.0000e+00 1.0000e+00
<mgrwt>
<rscale>  0 0.48692599E+04</rscale>
<asrwt>0</asrwt>
<pdfrwt beam="1">  1        2 0.41476806E+00 0.48692599E+04</pdfrwt>
<pdfrwt beam="2">  1       -2 0.33824696E+00 0.48692599E+04</pdfrwt>
<totfact> 0.32199623E-02</totfact>
</mgrwt>
<rwgt>
<wgt id='morphing_basis_vector_1'> +5.8721287e-06 </wgt>
<wgt id='morphing_basis_vector_2'> +4.0341344e-06 </wgt>
<wgt id='morphing_basis_vector_3'> +6.4769945e-06 </wgt>
<wgt id='morphing_basis_vector_4'> +4.6115655e-06 </wgt>
<wgt id='morphing_basis_vector_5'> +7.4201364e-06 </wgt>
</rwgt>
</event>
<event>
 4      1 +7.6845000e-11 4.68912600e+03 7.81860800e-03 7.42883500e-02
        2 -1    0    0  501    0 +0.0000000000e+00 +0.0000000000e+00 +2.2767939821e+03 2.2767939821e+03 0.0000000000e+00 0.0000e+00 -1.0000e+00
       -2 -1    0    0    0  501 -0.0000000000e+00 -0.0000000000e+00 -2.4143494784e+03 2.4143494784e+03 0.0000000000e+00 0.0000e+00 1.0000e+00
      -13  1    1    2    0    0 -9.6884867632e+01 -4.7288484240e+02 -2.3640989627e+03 2.4128760136e+03 0.0000000000e+00 0.0000e+00 1.0000e+00
       13  1    1    2    0    0 +9.6884867632e+01 +4.7288484240e+02 +2.2265434664e+03 2.2782674469e+03 0.0000000000e+00 0.0000e+00 -1.0000e+00
<mgrwt>
<rscale>  0 0.46891263E+04</rscale>
<asrwt>0</asrwt>
<pdfrwt beam="1">  1        2 0.35027600E+00 0.46891263E+04</pdfrwt>
<pdfrwt beam="2">  1       -2 0.37143838E+00 0.46891263E+04</pdfrwt>
<totfact> 0.35414864E-02</totfact>
</mgrwt>
<rwgt>
<wgt id='morphing_basis_vector_1'> +5.0348589e-06 </wgt>
<wgt id='morphing_basis_vector_2'> +3.4170492e-06 </wgt>
<wgt id='morphing_basis_vector_3'> +5.5412913e-06 </wgt>
<wgt id='morphing_basis_vector_4'> +4.0026063e-06 </wgt>
<wgt id='morphing_basis_vector_5'> +6.3814592e-06 </wgt>
</rwgt>
</event>
<event>
 4      1 +7.6845000e-11 5.36880200e+03 7.81860800e-03 7.33607800e-02
        2 -1    0    0  501    0 +0.0000000000e+00 +0.0000000000e+00 +2.9949227873e+03 2.9949227873e+03 0.0000000000e+00 0.0000e+00 -1.0000e+00
       -2 -1    0    0    0  501 -0.0000000000e+00 -0.0000000000e+00 -2.4060752665e+03 2.4060752665e+03 0.0000000000e+00 0.0000e+00 1.0000e+00
      -13  1    1    2    0    0 -9.9286893576e+02 -1.9453319306e+01 -2.2144932672e+03 2.4269626255e+03 0.0000000000e+00 0.0000e+00 1.0000e+00
       13  1    1    2    0    0 +9.9286893576e+02 +1.9453319306e+01 +2.8033407879e+03 2.9740354283e+03 0.0000000000e+00 0.0000e+00 -1.0000e+00
<mgrwt>
<rscale>  0 0.53688023E+04</rscale>
<asrwt>0</asrwt>
<pdfrwt beam="1">  1        2 0.46075735E+00 0.53688023E+04</pdfrwt>
<pdfrwt beam="2">  1       -2 0.37016543E+00 0.53688023E+04</pdfrwt>
<totfact> 0.12460108E-02</totfact>
</mgrwt>
<rwgt>
<wgt id='morphing_basis_vector_1'> +8.6373662e-06 </wgt>
<wgt id='morphing_basis_vector_2'> +5.8692880e-06 </wgt>
<wgt id='morphing_basis_vector_3'> +9.5221204e-06 </wgt>
<wgt id='morphing_basis_vector_4'> +6.8889358e-06 </wgt>
<wgt id='morphing_basis_vector_5'> +1.0985041e-05 </wgt>
</rwgt>
</event>
<event>
 4      1 +7.6845000e-11 4.99181900e+03 7.81860800e-03 7.38567200e-02
        2 -1    0    0  501    0 +0.0000000000e+00 +0.0000000000e+00 +1.8535041662e+03 1.8535041662e+03 0.0000000000e+00 0.0000e+00 1.0000e+00
       -2 -1    0    0    0  501 -0.0000000000e+00 -0.0000000000e+00 -3.3609663566e+03 3.3609663566e+03 0.0000000000e+00 0.0000e+00 -1.0000e+00
      -13  1    1    2    0    0 +2.4937605154e+02 -5.9031718023e+02 -3.2735648542e+03 3.3356992735e+03 0.0000000000e+00 0.0000e+00 -1.0000e+00
       13  1    1    2    0    0 -2.4937605154e+02 +5.9031718023e+02 +1.7661026638e+03 1.8787712493e+03 0.0000000000e+00 0.0000e+00 1.0000e+00
<mgrwt>
<rscale>  0 0.49918194E+04</rscale>
<asrwt>0</asrwt>
<pdfrwt beam="1">  1        2 0.28515449E+00 0.49918194E+04</pdfrwt>
<pdfrwt beam="2">  1       -2 0.51707175E+00 0.49918194E+04</pdfrwt>
<totfact> 0.58189328E-03</totfact>
</mgrwt>
<rwgt>
<wgt id='morphing_basis_vector_1'> +6.4606538e-06 </wgt>
<wgt id='morphing_basis_vector_2'> +4.3871469e-06 </wgt>
<wgt id='morphing_basis_vector_3'> +7.1163544e-06 </wgt>
<wgt id='morphing_basis_vector_4'> +5.1447275e-06 </wgt>
<wgt id='morphing_basis_vector_5'> +8.2026787e-06 </wgt>
</rwgt>
</event>
<event>
 4      1 +7.6845000e-11 4.66041800e+03 7.81860800e-03 7.43309800e-02
        2 -1    0    0  501    0 +0.0000000000e+00 +0.0000000000e+00 +3.2003094031e+03 3.2003094031e+03 0.0000000000e+00 0.0000e+00 1.0000e+00
       -2 -1    0    0    0  501 -0.0000000000e+00 -0.0000000000e+00 -1.6966718936e+03 1.6966718936e+03 0.0000000000e+00 0.0000e+00 -1.0000e+00
      -13  1    1    2    0    0 -6.8110352386e+01 -2.3132044975e+03 +1.0382755659e+03 2.5364483472e+03 0.0000000000e+00 0.0000e+00 -1.0000e+00
       13  1    1    2    0    0 +6.8110352386e+01 +2.3132044975e+03 +4.6536194360e+02 2.3605329495e+03 0.0000000000e+00 0.0000e+00 1.0000e+00
<mgrwt>
<rscale>  0 0.46604184E+04</rscale>
<asrwt>0</asrwt>
<pdfrwt beam="1">  1        2 0.49235529E+00 0.46604184E+04</pdfrwt>
<pdfrwt beam="2">  1       -2 0.26102645E+00 0.46604184E+04</pdfrwt>
<totfact> 0.51084007E-02</totfact>
</mgrwt>
<rwgt>
<wgt id='morphing_basis_vector_1'> +5.1861849e-06 </wgt>
<wgt id='morphing_basis_vector_2'> +4.1362914e-06 </wgt>
<wgt id='morphing_basis_vector_3'> +5.8486185e-06 </wgt>
<wgt id='morphing_basis_vector_4'> +3.3245113e-06 </wgt>
<wgt id='morphing_basis_vector_5'> +6.1774641e-06 </wgt>
</rwgt>
</event>
<event>
 4      1 +7.6845000e-11 4.68374500e+03 7.81860800e-03 7.42963200e-02
        2 -1    0    0  501    0 +0.0000000000e+00 +0.0000000000e+00 +3.1225376878e+03 3.1225376878e+03 0.0000000000e+00 0.0000e+00 1.0000e+00
       -2 -1    0    0    0  501 -0.0000000000e+00 -0.0000000000e+00 -1.7563811164e+03 1.7563811164e+03 0.0000000000e+00 0.0000e+00 -1.0000e+00
      -13  1    1    2    0    0 -6.8350230239e+02 -1.5746958753e+03 -9.7626188587e+02 1.9748239838e+03 0.0000000000e+00 0.0000e+00 -1.0000e+00
       13  1    1    2    0    0 +6.8350230239e+02 +1.5746958753e+03 +2.3424184573e+03 2.9040948205e+03 0.0000000000e+00 0.0000e+00 1.0000e+00
<mgrwt>
<rscale>  0 0.46837448E+04</rscale>
<asrwt>0</asrwt>
<pdfrwt beam="1">  1        2 0.48039041E+00 0.46837448E+04</pdfrwt>
<pdfrwt beam="2">  1       -2 0.27021248E+00 0.46837448E+04</pdfrwt>
<totfact> 0.49774328E-02</totfact>
</mgrwt>
<rwgt>
<wgt id='morphing_basis_vector_1'> +5.0192351e-06 </wgt>
<wgt id='morphing_basis_vector_2'> +3.4230425e-06 </wgt>
<wgt id='morphing_basis_vector_3'> +5.5278198e-06 </wgt>
<wgt id='morphing_basis_vector_4'> +3.9685372e-06 </wgt>
<wgt id='morphing_basis_vector_5'> +6.3507982e-06 </wgt>
</rwgt>
</event>
<event>
 4      1 +7.6845000e-11 4.79263900e+03 7.81860800e-03 7.41371500e-02
        2 -1    0    0  501    0 +0.0000000000e+00 +0.0000000000e+00 +4.5365502352e+03 4.5365502352e+03 0.0000000000e+00 0.0000e+00 -1.0000e+00
       -2 -1    0    0    0  501 -0.0000000000e+00 -0.0000000000e+00 -1.2657958079e+03 1.2657958079e+03 0.0000000000e+00 0.0000e+00 1.0000e+00
      -13  1    1    2    0    0 +9.2139395615e+02 -1.6373652373e+03 +3.4361635729e+03 3.9162675908e+03 0.0000000000e+00 0.0000e+00 1.0000e+00
       13  1    1    2    0    0 -9.2139395615e+02 +1.6373652373e+03 -1.6540914563e+02 1.8860784523e+03 0.0000000000e+00 0.0000e+00 -1.0000e+00
<mgrwt>
<rscale>  0 0.47926386E+04</rscale>
<asrwt>0</asrwt>
<pdfrwt beam="1">  1        2 0.69793080E+00 0.47926386E+04</pdfrwt>
<pdfrwt beam="2">  1       -2 0.19473782E+00 0.47926386E+04</pdfrwt>
<totfact> 0.11463485E-02</totfact>
</mgrwt>
<rwgt>
<wgt id='morphing_basis_vector_1'> +6.8534686e-06 </wgt>
<wgt id='morphing_basis_vector_2'> +7.7253825e-06 </wgt>
<wgt id='morphing_basis_vector_3'> +8.2513802e-06 </wgt>
<wgt id='morphing_basis_vector_4'> +1.4730050e-06 </wgt>
<wgt id='morphing_basis_vector_5'> +6.7234639e-06 </wgt>
</rwgt>
</event>
<event>
 4      1 +7.6845000e-11 4.68772200e+03 7.81860800e-03 7.42904300e-02
        2 -1    0    0  501    0 +0.0000000000e+00 +0.0000000000e+00 +3.0797398038e+03 3.0797398038e+03 0.0000000000e+00 0.0000e+00 -1.0000e+00
       -2 -1    0    0    0  501 -0.0000000000e+00 -0.0000000000e+00 -1.7838140939e+03 1.7838140939e+03 0.0000000000e+00 0.0000e+00 1.0000e+00
      -13  1    1    2    0    0 +1.4246460028e+03 -1.8571279221e+03 +7.7563515142e+02 2.4657960663e+03 0.0000000000e+00 0.0000e+00 1.0000e+00
       13  1    1    2    0    0 -1.4246460028e+03 +1.8571279221e+03 +5.2029055847e+02 2.3977578313e+03 0.0000000000e+00 0.0000e+00 -1.0000e+00
<mgrwt>
<rscale>  0 0.46877215E+04</rscale>
<asrwt>0</asrwt>
<pdfrwt beam="1">  1        2 0.47380612E+00 0.46877215E+04</pdfrwt>
<pdfrwt beam="2">  1       -2 0.27443294E+00 0.46877215E+04</pdfrwt>
<totfact> 0.49718410E-02</totfact>
</mgrwt>
<rwgt>
<wgt id='morphing_basis_vector_1'> +5.2520065e-06 </wgt>
<wgt id='morphing_basis_vector_2'> +4.0684453e-06 </wgt>
<wgt id='morphing_basis_vector_3'> +5.8957940e-06 </wgt>
<wgt id='morphing_basis_vector_4'> +3.5231669e-06 </wgt>
<wgt id='morphing_basis_vector_5'> +6.3340594e-06 </wgt>
</rwgt>
</event>
<event>
 4      1 +7.6845000e-11 4.64326600e+03 7.81860800e-03 7.43566000e-02
        2 -1    0    0  501    0 +0.0000000000e+00 +0.0000000000e+00 +3.9024873903e+03 3.9024873903e+03 0.0000000000e+00 0.0000e+00 -1.0000e+00
       -2 -1    0    0    0  501 -0.0000000000e+00 -0.0000000000e+00 -1.3811654924e+03 1.3811654924e+03 0.0000000000e+00 0.0000e+00 1.0000e+00
      -13  1    1    2    0    0 +2.6932729202e+02 -1.9876207840e+03 +2.5910060695e+03 3.2766577520e+03 0.0000000000e+00 0.0000e+00 -1.0000e+00
       13  1    1    2    0    0 -2.6932729202e+02 +1.9876207840e+03 -6.9684171649e+01 2.0069951308e+03 0.0000000000e+00 0.0000e+00 1.0000e+00
<mgrwt>
<rscale>  0 0.46432665E+04</rscale>
<asrwt>0</asrwt>
<pdfrwt beam="1">  1        2 0.60038267E+00 0.46432665E+04</pdfrwt>
<pdfrwt beam="2">  1       -2 0.21248700E+00 0.46432665E+04</pdfrwt>
<totfact> 0.33411481E-02</totfact>
</mgrwt>
<rwgt>
<wgt id='morphing_basis_vector_1'> +5.7440369e-06 </wgt>
<wgt id='morphing_basis_vector_2'> +5.9367104e-06 </wgt>
<wgt id='morphing_basis_vector_3'> +6.7877066e-06 </wgt>
<wgt id='morphing_basis_vector_4'> +1.9286780e-06 </wgt>
<wgt id='morphing_basis_vector_5'> +5.9739773e-06 </wgt>
</rwgt>
</event>
<event>
 4      1 +7.6845000e-11 5.02428200e+03 7.81860800e-03 7.38122700e-02
        2 -1    0    0  501    0 +0.0000000000e+00 +0.0000000000e+00 +3.4865987144e+03 3.4865987144e+03 0.0000000000e+00 0.0000e+00 -1.0000e+00
       -2 -1    0    0    0  501 -0.0000000000e+00 -0.0000000000e+00 -1.8100311385e+03 1.8100311385e+03 0.0000000000e+00 0.0000e+00 1.0000e+00
      -13  1    1    2    0    0 -2.9292347851e+02 +2.3621376326e+03 +1.6851690702e+03 2.9163835747e+03 0.0000000000e+00 0.0000e+00 -1.0000e+00
       13  1    1    2    0    0 +2.9292347851e+02 -2.3621376326e+03 -8.6014943199e+00 2.3802462783e+03 0.0000000000e+00 0.0000e+00 1.0000e+00
<mgrwt>
<rscale>  0 0.50242819E+04</rscale>
<asrwt>0</asrwt>
<pdfrwt beam="1">  1        2 0.53639980E+00 0.50242819E+04</pdfrwt>
<pdfrwt beam="2">  1       -2 0.27846633E+00 0.50242819E+04</pdfrwt>
<totfact> 0.23711828E-02</totfact>
</mgrwt>
<rwgt>
<wgt id='morphing_basis_vector_1'> +7.3506308e-06 </wgt>
<wgt id='morphing_basis_vector_2'> +6.6190557e-06 </wgt>
<wgt id='morphing_basis_vector_3'> +8.4732584e-06 </wgt>
<wgt id='morphing_basis_vector_4'> +3.7442216e-06 </wgt>
<wgt id='morphing_basis_vector_5'> +8.2900478e-06 </wgt>
</rwgt>
</event>
<event>
 4      1 +7.6845000e-11 4.75837900e+03 7.81860800e-03 7.41867600e-02
        2 -1    0    0  501    0 +0.0000000000e+00 +0.0000000000e+00 +2.1948719870e+03 2.1948719870e+03 0.0000000000e+00 0.0000e+00 -1.0000e+00
       -2 -1    0    0    0  501 -0.0000000000e+00 -0.0000000000e+00 -2.5789848960e+03 2.5789848960e+03 0.0000000000e+00 0.0000e+00 1.0000e+00
      -13  1    1    2    0    0 +9.4494002037e+02 +2.1827552638e+03 -2.4889335854e+02 2.3915016386e+03 0.0000000000e+00 0.0000e+00 1.0000e+00
       13  1    1    2    0    0 -9.4494002037e+02 -2.1827552638e+03 -1.3521955049e+02 2.3823552444e+03 0.0000000000e+00 0.0000e+00 -1.0000e+00
<mgrwt>
<rscale>  0 0.47583786E+04</rscale>
<asrwt>0</asrwt>
<pdfrwt beam="1">  1        2 0.33767261E+00 0.47583786E+04</pdfrwt>
<pdfrwt beam="2">  1       -2 0.39676691E+00 0.47583786E+04</pdfrwt>
<totfact> 0.26925806E-02</totfact>
</mgrwt>
<rwgt>
<wgt id='morphing_basis_vector_1'> +5.5179873e-06 </wgt>
<wgt id='morphing_basis_vector_2'> +4.1523779e-06 </wgt>
<wgt id='morphing_basis_vector_3'> +6.1676887e-06 </wgt>
<wgt id='morphing_basis_vector_4'> +3.8617954e-06 </wgt>
<wgt id='morphing_basis_vector_5'> +6.7361815e-06 </wgt>
</rwgt>
</event>
<event>
 4      1 +7.6845000e-11 5.05428400e+03 7.81860800e-03 7.37715000e-02
        2 -1    0    0  501    0 +0.0000000000e+00 +0.0000000000e+00 +3.3640603489e+03 3.3640603489e+03 0.0000000000e+00 0.0000e+00 -1.0000e+00
       -2 -1    0    0    0  501 -0.0000000000e+00 -0.0000000000e+00 -1.8984339233e+03 1.8984339233e+03 0.0000000000e+00 0.0000e+00 1.0000e+00
      -13  1    1    2    0    0 -2.4745592216e+03 -5.1118068212e+02 +7.7570810963e+02 2.6431935423e+03 0.0000000000e+00 0.0000e+00 1.0000e+00
       13  1    1    2    0    0 +2.4745592216e+03 +5.1118068212e+02 +6.8991831599e+02 2.6193007299e+03 0.0000000000e+00 0.0000e+00 -1.0000e+00
<mgrwt>
<rscale>  0 0.50542838E+04</rscale>
<asrwt>0</asrwt>
<pdfrwt beam="1">  1        2 0.51754775E+00 0.50542838E+04</pdfrwt>
<pdfrwt beam="2">  1       -2 0.29206676E+00 0.50542838E+04</pdfrwt>
<totfact> 0.23425867E-02</totfact>
</mgrwt>
<rwgt>
<wgt id='morphing_basis_vector_1'> +7.0539330e-06 </wgt>
<wgt id='morphing_basis_vector_2'> +5.3884398e-06 </wgt>
<wgt id='morphing_basis_vector_3'> +7.9092530e-06 </wgt>
<wgt id='morphing_basis_vector_4'> +4.8434050e-06 </wgt>
<wgt id='morphing_basis_vector_5'> +8.5750332e-06 </wgt>
</rwgt>
</event>
<event>
 4      1 +7.6845000e-11 5.27713500e+03 7.81860800e-03 7.34774500e-02
        2 -1    0    0  501    0 +0.0000000000e+00 +0.0000000000e+00 +3.6240308109e+03 3.6240308109e+03 0.0000000000e+00 0.0000e+00 -1.0000e+00
       -2 -1    0    0    0  501 -0.0000000000e+00 -0.0000000000e+00 -1.9210757777e+03 1.9210757777e+03 0.0000000000e+00 0.0000e+00 1.0000e+00
      -13  1    1    2    0    0 +1.2234873797e+03 -2.2633904566e+03 +1.4661433548e+03 2.9613230260e+03 0.0000000000e+00 0.0000e+00 1.0000e+00
       13  1    1    2    0    0 -1.2234873797e+03 +2.2633904566e+03 +2.3681167846e+02 2.5837835627e+03 0.0000000000e+00 0.0000e+00 -1.0000e+00
<mgrwt>
<rscale>  0 0.52771348E+04</rscale>
<asrwt>0</asrwt>
<pdfrwt beam="1">  1        2 0.55754320E+00 0.52771348E+04</pdfrwt>
<pdfrwt beam="2">  1       -2 0.29555012E+00 0.52771348E+04</pdfrwt>
<totfact> 0.14067678E-02</totfact>
</mgrwt>
<rwgt>
<wgt id='morphing_basis_vector_1'> +8.7021967e-06 </wgt>
<wgt id='morphing_basis_vector_2'> +7.3528335e-06 </wgt>
<wgt id='morphing_basis_vector_3'> +9.9261758e-06 </wgt>
<wgt id='morphing_basis_vector_4'> +5.0675734e-06 </wgt>
<wgt id='morphing_basis_vector_5'> +1.0137551e-05 </wgt>
</rwgt>
</event>
<event>
 4      1 +7.6845000e-11 4.94427900e+03 7.81860800e-03 7.39224400e-02
        2 -1    0    0  501    0 +0.0000000000e+00 +0.0000000000e+00 +3.1968945461e+03 3.1968945461e+03 0.0000000000e+00 0.0000e+00 1.0000e+00
       -2 -1    0    0    0  501 -0.0000000000e+00 -0.0000000000e+00 -1.9116906576e+03 1.9116906576e+03 0.0000000000e+00 0.0000e+00 -1.0000e+00
      -13  1    1    2    0    0 -1.7615270965e+03 +2.4685290704e+02 +2.4165012422e+03 3.0005653339e+03 0.0000000000e+00 0.0000e+00 1.0000e+00
       13  1    1    2    0    0 +1.7615270965e+03 -2.4685290704e+02 -1.1312973537e+03 2.1080198699e+03 0.0000000000e+00 0.0000e+00 -1.0000e+00
<mgrwt>
<rscale>  0 0.49442789E+04</rscale>
<asrwt>0</asrwt>
<pdfrwt beam="1">  1        2 0.49182993E+00 0.49442789E+04</pdfrwt>
<pdfrwt beam="2">  1       -2 0.29410626E+00 0.49442789E+04</pdfrwt>
<totfact> 0.29894329E-02</totfact>
</mgrwt>
<rwgt>
<wgt id='morphing_basis_vector_1'> +8.0000585e-06 </wgt>
<wgt id='morphing_basis_vector_2'> +9.4536954e-06 </wgt>
<wgt id='morphing_basis_vector_3'> +9.7384782e-06 </wgt>
<wgt id='morphing_basis_vector_4'> +1.1567829e-06 </wgt>
<wgt id='morphing_basis_vector_5'> +7.5756753e-06 </wgt>
</rwgt>
</event>
<event>
 4      1 +7.6845000e-11 4.74894300e+03 7.81860800e-03 7.42005000e-02
        2 -1    0    0  501    0 +0.0000000000e+00 +0.0000000000e+00 +4.4707353070e+03 4.4707353070e+03 0.0000000000e+00 0.0000e+00 -1.0000e+00
       -2 -1    0    0    0  501 -0.0000000000e+00 -0.0000000000e+00 -1.2611159664e+03 1.2611159664e+03 0.0000000000e+00 0.0000e+00 1.0000e+00
      -13  1    1    2    0    0 +8.2202597346e+01 -1.2365707644e+03 -8.3979732029e+02 1.4970384302e+03 0.0000000000e+00 0.0000e+00 1.0000e+00
       13  1    1    2    0    0 -8.2202597346e+01 +1.2365707644e+03 +4.0494166610e+03 4.2348128431e+03 0.0000000000e+00 0.0000e+00 -1.0000e+00
<mgrwt>
<rscale>  0 0.47489433E+04</rscale>
<asrwt>0</asrwt>
<pdfrwt beam="1">  1        2 0.68780542E+00 0.47489433E+04</pdfrwt>
<pdfrwt beam="2">  1       -2 0.19401784E+00 0.47489433E+04</pdfrwt>
<totfact> 0.13625639E-02</totfact>
</mgrwt>
<rwgt>
<wgt id='morphing_basis_vector_1'> +5.2970712e-06 </wgt>
<wgt id='morphing_basis_vector_2'> +3.5984309e-06 </wgt>
<wgt id='morphing_basis_vector_3'> +5.8315877e-06 </wgt>
<wgt id='morphing_basis_vector_4'> +4.2086869e-06 </wgt>
<wgt id='morphing_basis_vector_5'> +6.7143391e-06 </wgt>
</rwgt>
</event>
<event>
 4      1 +7.6845000e-11 4.65796600e+03 7.81860800e-03 7.43346400e-02
        2 -1    0    0  501    0 +0.0000000000e+00 +0.0000000000e+00 +2.9559393893e+03 2.9559393893e+03 0.0000000000e+00 0.0000e+00 1.0000e+00
       -2 -1    0    0    0  501 -0.0000000000e+00 -0.0000000000e+00 -1.8350044083e+03 1.8350044083e+03 0.0000000000e+00 0.0000e+00 -1.0000e+00
      -13  1    1    2    0    0 +1.4832589765e+03 -6.5266687557e+02 -1.1600486461e+03 1.9929235066e+03 0.0000000000e+00 0.0000e+00 -1.0000e+00
       13  1    1    2    0    0 -1.4832589765e+03 +6.5266687557e+02 +2.2809836270e+03 2.7980202910e+03 0.0000000000e+00 0.0000e+00 1.0000e+00
<mgrwt>
<rscale>  0 0.46579660E+04</rscale>
<asrwt>0</asrwt>
<pdfrwt beam="1">  1        2 0.45475990E+00 0.46579660E+04</pdfrwt>
<pdfrwt beam="2">  1       -2 0.28230837E+00 0.46579660E+04</pdfrwt>
<totfact> 0.53086017E-02</totfact>
</mgrwt>
<rwgt>
<wgt id='morphing_basis_vector_1'> +4.9081943e-06 </wgt>
<wgt id='morphing_basis_vector_2'> +3.3429592e-06 </wgt>
<wgt id='morphing_basis_vector_3'> +5.4041473e-06 </wgt>
<wgt id='morphing_basis_vector_4'> +3.8855306e-06 </wgt>
<wgt id='morphing_basis_vector_5'> +6.2119642e-06 </wgt>
</rwgt>
</event>
<event>
 4      1 +7.6845000e-11 4.65273600e+03 7.81860800e-03 7.43424400e-02
        2 -1    0    0  501    0 +0.0000000000e+00 +0.0000000000e+00 +3.0051837067e+03 3.0051837067e+03 0.0000000000e+00 0.0000e+00 -1.0000e+00
       -2 -1    0    0    0  501 -0.0000000000e+00 -0.0000000000e+00 -1.8008840902e+03 1.8008840902e+03 0.0000000000e+00 0.0000e+00 1.0000e+00
      -13  1    1    2    0    0 +1.1747127918e+03 -2.0049013639e+03 +7.1721148614e+02 2.4318659375e+03 0.0000000000e+00 0.0000e+00 1.0000e+00
       13  1    1    2    0    0 -1.1747127918e+03 +2.0049013639e+03 +4.8708813036e+02 2.3742018594e+03 0.0000000000e+00 0.0000e+00 -1.0000e+00
<mgrwt>
<rscale>  0 0.46527358E+04</rscale>
<asrwt>0</asrwt>
<pdfrwt beam="1">  1        2 0.46233595E+00 0.46527358E+04</pdfrwt>
<pdfrwt beam="2">  1       -2 0.27705909E+00 0.46527358E+04</pdfrwt>
<totfact> 0.53562428E-02</totfact>
</mgrwt>
<rwgt>
<wgt id='morphing_basis_vector_1'> +5.0940269e-06 </wgt>
<wgt id='morphing_basis_vector_2'> +3.9382613e-06 </wgt>
<wgt id='morphing_basis_vector_3'> +5.7160232e-06 </wgt>
<wgt id='morphing_basis_vector_4'> +3.4262678e-06 </wgt>
<wgt id='morphing_basis_vector_5'> +6.1470369e-06 </wgt>
</rwgt>
</event>
<event>
 4      1 +7.6845000e-11 4.70513400e+03 7.81860800e-03 7.42647100e-02
        2 -1    0    0  501    0 +0.0000000000e+00 +0.0000000000e+00 +2.3863629165e+03 2.3863629165e+03 0.0000000000e+00 0.0000e+00 -1.0000e+00
       -2 -1    0    0    0  501 -0.0000000000e+00 -0.0000000000e+00 -2.3192496512e+03 2.3192496512e+03 0.0000000000e+00 0.0000e+00 1.0000e+00
      -13  1    1    2    0    0 +9.6029562070e+02 -1.2940092970e+03 -1.6806607886e+03 2.3283574524e+03 0.0000000000e+00 0.0000e+00 1.0000e+00
       13  1    1    2    0    0 -9.6029562070e+02 +1.2940092970e+03 +1.7477740539e+03 2.3772551153e+03 0.0000000000e+00 0.0000e+00 -1.0000e+00
<mgrwt>
<rscale>  0 0.47051339E+04</rscale>
<asrwt>0</asrwt>
<pdfrwt beam="1">  1        2 0.36713276E+00 0.47051339E+04</pdfrwt>
<pdfrwt beam="2">  1       -2 0.35680764E+00 0.47051339E+04</pdfrwt>
<totfact> 0.37925949E-02</totfact>
</mgrwt>
<rwgt>
<wgt id='morphing_basis_vector_1'> +5.1088066e-06 </wgt>
<wgt id='morphing_basis_vector_2'> +3.4788664e-06 </wgt>
<wgt id='morphing_basis_vector_3'> +5.6255859e-06 </wgt>
<wgt id='morphing_basis_vector_4'> +4.0468841e-06 </wgt>
<wgt id='morphing_basis_vector_5'> +6.4684546e-06 </wgt>
</rwgt>
</event>
<event>
 4      1 +7.6845000e-11 5.46929400e+03 7.81860800e-03 7.32356000e-02
        2 -1    0    0  501    0 +0.0000000000e+00 +0.0000000000e+00 +4.7729128958e+03 4.7729128958e+03 0.0000000000e+00 0.0000e+00 1.0000e+00
       -2 -1    0    0    0  501 -0.0000000000e+00 -0.0000000000e+00 -1.5668198454e+03 1.5668198454e+03 0.0000000000e+00 0.0000e+00 -1.0000e+00
      -13  1    1    2    0    0 -1.4537245027e+03 +1.3295652474e+03 -5.9544163879e+02 2.0580596255e+03 0.0000000000e+00 0.0000e+00 -1.0000e+00
       13  1    1    2    0    0 +1.4537245027e+03 -1.3295652474e+03 +3.8015346892e+03 4.2816731158e+03 0.0000000000e+00 0.0000e+00 1.0000e+00
<mgrwt>
<rscale>  0 0.54692942E+04</rscale>
<asrwt>0</asrwt>
<pdfrwt beam="1">  1        2 0.73429429E+00 0.54692942E+04</pdfrwt>
<pdfrwt beam="2">  1       -2 0.24104921E+00 0.54692942E+04</pdfrwt>
<totfact> 0.27729373E-03</totfact>
</mgrwt>
<rwgt>
<wgt id='morphing_basis_vector_1'> +9.3123927e-06 </wgt>
<wgt id='morphing_basis_vector_2'> +6.3556008e-06 </wgt>
<wgt id='morphing_basis_vector_3'> +1.0274530e-05 </wgt>
<wgt id='morphing_basis_vector_4'> +7.3954526e-06 </wgt>
<wgt id='morphing_basis_vector_5'> +1.1831120e-05 </wgt>
</rwgt>
</event>
<event>
 4      1 +7.6845000e-11 4.90484300e+03 7.81860800e-03 7.39775300e-02
        2 -1    0    0  501    0 +0.0000000000e+00 +0.0000000000e+00 +3.4191547379e+03 3.4191547379e+03 0.0000000000e+00 0.0000e+00 -1.0000e+00
       -2 -1    0    0    0  501 -0.0000000000e+00 -0.0000000000e+00 -1.7590226907e+03 1.7590226907e+03 0.0000000000e+00 0.0000e+00 1.0000e+00
      -13  1    1    2    0    0 +1.9688746723e+03 -1.1095843572e+03 -1.7522043043e+02 2.2667922534e+03 0.0000000000e+00 0.0000e+00 1.0000e+00
       13  1    1    2    0    0 -1.9688746723e+03 +1.1095843572e+03 +1.8353524776e+03 2.9113851752e+03 0.0000000000e+00 0.0000e+00 -1.0000e+00
<mgrwt>
<rscale>  0 0.49048428E+04</rscale>
<asrwt>0</asrwt>
<pdfrwt beam="1">  1        2 0.52602381E+00 0.49048428E+04</pdfrwt>
<pdfrwt beam="2">  1       -2 0.27061888E+00 0.49048428E+04</pdfrwt>
<totfact> 0.30290776E-02</totfact>
</mgrwt>
<rwgt>
<wgt id='morphing_basis_vector_1'> +6.0701427e-06 </wgt>
<wgt id='morphing_basis_vector_2'> +4.2268498e-06 </wgt>
<wgt id='morphing_basis_vector_3'> +6.7090423e-06 </wgt>
<wgt id='morphing_basis_vector_4'> +4.6948808e-06 </wgt>
<wgt id='morphing_basis_vector_5'> +7.6356827e-06 </wgt>
</rwgt>
</event>
<event>
 4      1 +7.6845000e-11 4.67607600e+03 7.81860800e-03 7.43076900e-02
        2 -1    0    0  501    0 +0.0000000000e+00 +0.0000000000e+00 +3.7132696522e+03 3.7132696522e+03 0.0000000000e+00 0.0000e+00 -1.0000e+00
       -2 -1    0    0    0  501 -0.0000000000e+00 -0.0000000000e+00 -1.4721314137e+03 1.4721314137e+03 0.0000000000e+00 0.0000e+00 1.0000e+00
      -13  1    1    2    0    0 -5.2710091843e+00 -2.2217436921e+03 +1.9280651151e+03 2.9417015323e+03 0.0000000000e+00 0.0000e+00 1.0000e+00
       13  1    1    2    0    0 +5.2710091843e+00 +2.2217436921e+03 +3.1307312340e+02 2.2436995337e+03 0.0000000000e+00 0.0000e+00 -1.0000e+00
<mgrwt>
<rscale>  0 0.46760757E+04</rscale>
<asrwt>0</asrwt>
<pdfrwt beam="1">  1        2 0.57127225E+00 0.46760757E+04</pdfrwt>
<pdfrwt beam="2">  1       -2 0.22648176E+00 0.46760757E+04</pdfrwt>
<totfact> 0.37586250E-02</totfact>
</mgrwt>
<rwgt>
<wgt id='morphing_basis_vector_1'> +5.5065158e-06 </wgt>
<wgt id='morphing_basis_vector_2'> +4.9279955e-06 </wgt>
<wgt id='morphing_basis_vector_3'> +6.3330651e-06 </wgt>
<wgt id='morphing_basis_vector_4'> +2.8367191e-06 </wgt>
<wgt id='morphing_basis_vector_5'> +6.2166010e-06 </wgt>
</rwgt>
</event>
<event>
 4      1 +7.6845000e-11 4.62484000e+03 7.81860800e-03 7.43842400e-02
        2 -1    0    0  501    0 +0.0000000000e+00 +0.0000000000e+00 +1.6856214132e+03 1.6856214132e+03 0.0000000000e+00 0.0000e+00 -1.0000e+00
       -2 -1    0    0    0  501 -0.0000000000e+00 -0.0000000000e+00 -3.1722937728e+03 3.1722937728e+03 0.0000000000e+00 0.0000e+00 1.0000e+00
      -13  1    1    2    0    0 -1.5244722646e+03 -1.7311318086e+03 -5.7249480999e+02 2.3766748477e+03 0.0000000000e+00 0.0000e+00 1.0000e+00
       13  1    1    2    0    0 +1.5244722646e+03 +1.7311318086e+03 -9.1417754954e+02 2.4812403383e+03 0.0000000000e+00 0.0000e+00 -1.0000e+00
<mgrwt>
<rscale>  0 0.46248400E+04</rscale>
<asrwt>0</asrwt>
<pdfrwt beam="1">  1        2 0.25932637E+00 0.46248400E+04</pdfrwt>
<pdfrwt beam="2">  1       -2 0.48804519E+00 0.46248400E+04</pdfrwt>
<totfact> 0.12256303E-02</totfact>
</mgrwt>
<rwgt>
<wgt id='morphing_basis_vector_1'> +4.9905319e-06 </wgt>
<wgt id='morphing_basis_vector_2'> +3.8951365e-06 </wgt>
<wgt id='morphing_basis_vector_3'> +5.6078253e-06 </wgt>
<wgt id='morphing_basis_vector_4'> +3.3081475e-06 </wgt>
<wgt id='morphing_basis_vector_5'> +5.9973657e-06 </wgt>
</rwgt>
</event>
<event>
 4      1 +7.6845000e-11 5.16267500e+03 7.81860800e-03 7.36265700e-02
        2 -1    0    0  501    0 +0.0000000000e+00 +0.0000000000e+00 +1.8342816097e+03 1.8342816097e+03 0.0000000000e+00 0.0000e+00 -1.0000e+00
       -2 -1    0    0    0  501 -0.0000000000e+00 -0.0000000000e+00 -3.6326497803e+03 3.6326497803e+03 0.0000000000e+00 0.0000e+00 1.0000e+00
      -13  1    1    2    0    0 +1.4097465703e+02 +1.5842676365e+03 -3.0521102477e+03 3.4416790615e+03 0.0000000000e+00 0.0000e+00 1.0000e+00
       13  1    1    2    0    0 -1.4097465703e+02 -1.5842676365e+03 +1.2537420771e+03 2.0252523285e+03 0.0000000000e+00 0.0000e+00 -1.0000e+00
<mgrwt>
<rscale>  0 0.51626748E+04</rscale>
<asrwt>0</asrwt>
<pdfrwt beam="1">  1        2 0.28219717E+00 0.51626748E+04</pdfrwt>
<pdfrwt beam="2">  1       -2 0.55886919E+00 0.51626748E+04</pdfrwt>
<totfact> 0.29259328E-03</totfact>
</mgrwt>
<rwgt>
<wgt id='morphing_basis_vector_1'> +7.3926224e-06 </wgt>
<wgt id='morphing_basis_vector_2'> +5.0307212e-06 </wgt>
<wgt id='morphing_basis_vector_3'> +8.1483517e-06 </wgt>
<wgt id='morphing_basis_vector_4'> +5.8795745e-06 </wgt>
<wgt id='morphing_basis_vector_5'> +9.3878193e-06 </wgt>
</rwgt>
</event>
<event>
 4      1 +7.6845000e-11 5.14675600e+03 7.81860800e-03 7.36476300e-02
        2 -1    0    0  501    0 +0.0000000000e+00 +0.0000000000e+00 +1.9739640271e+03 1.9739640271e+03 0.0000000000e+00 0.0000e+00 -1.0000e+00
       -2 -1    0    0    0  501 -0.0000000000e+00 -0.0000000000e+00 -3.3548101057e+03 3.3548101057e+03 0.0000000000e+00 0.0000e+00 1.0000e+00
      -13  1    1    2    0    0 -1.7654172515e+03 -4.8375171122e+02 -2.5631360090e+03 3.1496634726e+03 0.0000000000e+00 0.0000e+00 1.0000e+00
       13  1    1    2    0    0 +1.7654172515e+03 +4.8375171122e+02 +1.1822899305e+03 2.1791106602e+03 0.0000000000e+00 0.0000e+00 -1.0000e+00
<mgrwt>
<rscale>  0 0.51467561E+04</rscale>
<asrwt>0</asrwt>
<pdfrwt beam="1">  1        2 0.30368678E+00 0.51467561E+04</pdfrwt>
<pdfrwt beam="2">  1       -2 0.51612463E+00 0.51467561E+04</pdfrwt>
<totfact> 0.50047534E-03</totfact>
</mgrwt>
<rwgt>
<wgt id='morphing_basis_vector_1'> +7.3069905e-06 </wgt>
<wgt id='morphing_basis_vector_2'> +4.9832666e-06 </wgt>
<wgt id='morphing_basis_vector_3'> +8.0562104e-06 </wgt>
<wgt id='morphing_basis_vector_4'> +5.7968491e-06 </wgt>
<wgt id='morphing_basis_vector_5'> +9.2713587e-06 </wgt>
</rwgt>
</event>
<event>
 4      1 +7.6845000e-11 5.17145300e+03 7.81860800e-03 7.36150000e-02
        2 -1    0    0  501    0 +0.0000000000e+00 +0.0000000000e+00 +2.5589038803e+03 2.5589038803e+03 0.0000000000e+00 0.0000e+00 1.0000e+00
       -2 -1    0    0    0  501 -0.0000000000e+00 -0.0000000000e+00 -2.6128305943e+03 2.6128305943e+03 0.0000000000e+00 0.0000e+00 -1.0000e+00
      -13  1    1    2    0    0 -1.2706345382e+03 +3.8800583681e+02 -2.2453990176e+03 2.6089993114e+03 0.0000000000e+00 0.0000e+00 -1.0000e+00
       13  1    1    2    0    0 +1.2706345382e+03 -3.8800583681e+02 +2.1914723036e+03 2.5627351632e+03 0.0000000000e+00 0.0000e+00 1.0000e+00
<mgrwt>
<rscale>  0 0.51714533E+04</rscale>
<asrwt>0</asrwt>
<pdfrwt beam="1">  1        2 0.39367752E+00 0.51714533E+04</pdfrwt>
<pdfrwt beam="2">  1       -2 0.40197394E+00 0.51714533E+04</pdfrwt>
<totfact> 0.14749483E-02</totfact>
</mgrwt>
<rwgt>
<wgt id='morphing_basis_vector_1'> +7.4403692e-06 </wgt>
<wgt id='morphing_basis_vector_2'> +5.0576215e-06 </wgt>
<wgt id='morphing_basis_vector_3'> +8.1998294e-06 </wgt>
<wgt id='morphing_basis_vector_4'> +5.9251301e-06 </wgt>
<wgt id='morphing_basis_vector_5'> +9.4524733e-06 </wgt>
</rwgt>
</event>
<event>
 4      1 +7.6845000e-11 5.18226000e+03 7.81860800e-03 7.36007800e-02
        2 -1    0    0  501    0 +0.0000000000e+00 +0.0000000000e+00 +2.3378334968e+03 2.3378334968e+03 0.0000000000e+00 0.0000e+00 -1.0000e+00
       -2 -1    0    0    0  501 -0.0000000000e+00 -0.0000000000e+00 -2.8718708371e+03 2.8718708371e+03 0.0000000000e+00 0.0000e+00 1.0000e+00
      -13  1    1    2    0    0 +3.8209112394e+02 +2.5035882701e+03 -8.1764915282e+02 2.6612962988e+03 0.0000000000e+00 0.0000e+00 1.0000e+00
       13  1    1    2    0    0 -3.8209112394e+02 -2.5035882701e+03 +2.8361181248e+02 2.5484080351e+03 0.0000000000e+00 0.0000e+00 -1.0000e+00
<mgrwt>
<rscale>  0 0.51822604E+04</rscale>
<asrwt>0</asrwt>
<pdfrwt beam="1">  1        2 0.35966669E+00 0.51822604E+04</pdfrwt>
<pdfrwt beam="2">  1       -2 0.44182628E+00 0.51822604E+04</pdfrwt>
<totfact> 0.10800819E-02</totfact>
</mgrwt>
<rwgt>
<wgt id='morphing_basis_vector_1'> +7.6248864e-06 </wgt>
<wgt id='morphing_basis_vector_2'> +5.4591507e-06 </wgt>
<wgt id='morphing_basis_vector_3'> +8.4673535e-06 </wgt>
<wgt id='morphing_basis_vector_4'> +5.7141001e-06 </wgt>
<wgt id='morphing_basis_vector_5'> +9.5100859e-06 </wgt>
</rwgt>
</event>
<event>
 4      1 +7.6845000e-11 4.62469200e+03 7.81860800e-03 7.43844700e-02
        2 -1    0    0  501    0 +0.0000000000e+00 +0.0000000000e+00 +1.8487820034e+03 1.8487820034e+03 0.0000000000e+00 0.0000e+00 -1.0000e+00
       -2 -1    0    0    0  501 -0.0000000000e+00 -0.0000000000e+00 -2.8921435146e+03 2.8921435146e+03 0.0000000000e+00 0.0000e+00 1.0000e+00
      -13  1    1    2    0    0 -1.2213375836e+03 +8.0678087107e+02 -2.3567502135e+03 2.7743165710e+03 0.0000000000e+00 0.0000e+00 1.0000e+00
       13  1    1    2    0    0 +1.2213375836e+03 -8.0678087107e+02 +1.3133887023e+03 1.9666089470e+03 0.0000000000e+00 0.0000e+00 -1.0000e+00
<mgrwt>
<rscale>  0 0.46246915E+04</rscale>
<asrwt>0</asrwt>
<pdfrwt beam="1">  1        2 0.28442800E+00 0.46246915E+04</pdfrwt>
<pdfrwt beam="2">  1       -2 0.44494516E+00 0.46246915E+04</pdfrwt>
<totfact> 0.20348277E-02</totfact>
</mgrwt>
<rwgt>
<wgt id='morphing_basis_vector_1'> +4.7678935e-06 </wgt>
<wgt id='morphing_basis_vector_2'> +3.2425163e-06 </wgt>
<wgt id='morphing_basis_vector_3'> +5.2480637e-06 </wgt>
<wgt id='morphing_basis_vector_4'> +3.7796996e-06 </wgt>
<wgt id='morphing_basis_vector_5'> +6.0360858e-06 </wgt>
</rwgt>
</event>
<event>
 4      1 +7.6845000e-11 4.81978600e+03 7.81860800e-03 7.40981300e-02
        2 -1    0    0  501    0 +0.0000000000e+00 +0.0000000000e+00 +3.3295919665e+03 3.3295919665e+03 0.0000000000e+00 0.0000e+00 1.0000e+00
       -2 -1    0    0    0  501 -0.0000000000e+00 -0.0000000000e+00 -1.7442331143e+03 1.7442331143e+03 0.0000000000e+00 0.0000e+00 -1.0000e+00
      -13  1    1    2    0    0 +6.9383834359e+02 -2.0239335488e+03 +1.9601248996e+03 2.9016905898e+03 0.0000000000e+00 0.0000e+00 -1.0000e+00
       13  1    1    2    0    0 -6.9383834359e+02 +2.0239335488e+03 -3.7476604747e+02 2.1721344910e+03 0.0000000000e+00 0.0000e+00 1.0000e+00
<mgrwt>
<rscale>  0 0.48197861E+04</rscale>
<asrwt>0</asrwt>
<pdfrwt beam="1">  1        2 0.51224491E+00 0.48197861E+04</pdfrwt>
<pdfrwt beam="2">  1       -2 0.26834356E+00 0.48197861E+04</pdfrwt>
<totfact> 0.36586466E-02</totfact>
</mgrwt>
<rwgt>
<wgt id='morphing_basis_vector_1'> +6.5476326e-06 </wgt>
<wgt id='morphing_basis_vector_2'> +6.5448227e-06 </wgt>
<wgt id='morphing_basis_vector_3'> +7.6918727e-06 </wgt>
<wgt id='morphing_basis_vector_4'> +2.4899253e-06 </wgt>
<wgt id='morphing_basis_vector_5'> +6.9599513e-06 </wgt>
</rwgt>
</event>
<event>
 4      1 +7.6845000e-11 5.36737800e+03 7.81860800e-03 7.33625800e-02
        2 -1    0    0  501    0 +0.0000000000e+00 +0.0000000000e+00 +3.5326599257e+03 3.5326599257e+03 0.0000000000e+00 0.0000e+00 1.0000e+00
       -2 -1    0    0    0  501 -0.0000000000e+00 -0.0000000000e+00 -2.0387434578e+03 2.0387434578e+03 0.0000000000e+00 0.0000e+00 -1.0000e+00
      -13  1    1    2    0    0 +1.7367330866e+03 +1.3624064661e+03 +2.3313448832e+03 3.2105392316e+03 0.0000000000e+00 0.0000e+00 -1.0000e+00
       13  1    1    2    0    0 -1.7367330866e+03 -1.3624064661e+03 -8.3742841535e+02 2.3608641519e+03 0.0000000000e+00 0.0000e+00 1.0000e+00
<mgrwt>
<rscale>  0 0.53673782E+04</rscale>
<asrwt>0</asrwt>
<pdfrwt beam="1">  1        2 0.54348614E+00 0.53673782E+04</pdfrwt>
<pdfrwt beam="2">  1       -2 0.31365284E+00 0.53673782E+04</pdfrwt>
<totfact> 0.12370793E-02</totfact>
</mgrwt>
<rwgt>
<wgt id='morphing_basis_vector_1'> +1.0526354e-05 </wgt>
<wgt id='morphing_basis_vector_2'> +1.1436008e-05 </wgt>
<wgt id='morphing_basis_vector_3'> +1.2600562e-05 </wgt>
<wgt id='morphing_basis_vector_4'> +2.8303686e-06 </wgt>
<wgt id='morphing_basis_vector_5'> +1.0633244e-05 </wgt>
</rwgt>
</event>
<event>
 4      1 +7.6845000e-11 4.96869100e+03 7.81860800e-03 7.38886000e-02
        2 -1    0    0  501    0 +0.0000000000e+00 +0.0000000000e+00 +2.6027214994e+03 2.6027214994e+03 0.0000000000e+00 0.0000e+00 -1.0000e+00
       -2 -1    0    0    0  501 -0.0000000000e+00 -0.0000000000e+00 -2.3713533844e+03 2.3713533844e+03 0.0000000000e+00 0.0000e+00 1.0000e+00
      -13  1    1    2    0    0 -1.0458159383e+02 -2.4035634558e+03 +7.3596649036e+02 2.5158897573e+03 0.0000000000e+00 0.0000e+00 1.0000e+00
       13  1    1    2    0    0 +1.0458159383e+02 +2.4035634558e+03 -5.0459837534e+02 2.4581851265e+03 0.0000000000e+00 0.0000e+00 -1.0000e+00
<mgrwt>
<rscale>  0 0.49686909E+04</rscale>
<asrwt>0</asrwt>
<pdfrwt beam="1">  1        2 0.40041869E+00 0.49686909E+04</pdfrwt>
<pdfrwt beam="2">  1       -2 0.36482360E+00 0.49686909E+04</pdfrwt>
<totfact> 0.24515744E-02</totfact>
</mgrwt>
<rwgt>
<wgt id='morphing_basis_vector_1'> +6.8921984e-06 </wgt>
<wgt id='morphing_basis_vector_2'> +5.9218853e-06 </wgt>
<wgt id='morphing_basis_vector_3'> +7.8778334e-06 </wgt>
<wgt id='morphing_basis_vector_4'> +3.8779317e-06 </wgt>
<wgt id='morphing_basis_vector_5'> +7.9530117e-06 </wgt>
</rwgt>
</event>
<event>
 4      1 +7.6845000e-11 4.84827500e+03 7.81860800e-03 7.40574600e-02
        2 -1    0    0  501    0 +0.0000000000e+00 +0.0000000000e+00 +3.6831228797e+03 3.6831228797e+03 0.0000000000e+00 0.0000e+00 -1.0000e+00
       -2 -1    0    0    0  501 -0.0000000000e+00 -0.0000000000e+00 -1.5955057302e+03 1.5955057302e+03 0.0000000000e+00 0.0000e+00 1.0000e+00
      -13  1    1    2    0    0 +2.1918205278e+03 +1.0306333969e+03 +9.3405793321e+02 2.5959095993e+03 0.0000000000e+00 0.0000e+00 1.0000e+00
       13  1    1    2    0    0 -2.1918205278e+03 -1.0306333969e+03 +1.1535592163e+03 2.6827190107e+03 0.0000000000e+00 0.0000e+00 -1.0000e+00
<mgrwt>
<rscale>  0 0.48482754E+04</rscale>
<asrwt>0</asrwt>
<pdfrwt beam="1">  1        2 0.56663429E+00 0.48482754E+04</pdfrwt>
<pdfrwt beam="2">  1       -2 0.24546242E+00 0.48482754E+04</pdfrwt>
<totfact> 0.28835080E-02</totfact>
</mgrwt>
<rwgt>
<wgt id='morphing_basis_vector_1'> +5.9331679e-06 </wgt>
<wgt id='morphing_basis_vector_2'> +4.4387709e-06 </wgt>
<wgt id='morphing_basis_vector_3'> +6.6274534e-06 </wgt>
<wgt id='morphing_basis_vector_4'> +4.1890010e-06 </wgt>
<wgt id='morphing_basis_vector_5'> +7.2638658e-06 </wgt>
</rwgt>
</event>
<event>
 4      1 +7.6845000e-11 4.79877600e+03 7.81860800e-03 7.41283000e-02
        2 -1    0    0  501    0 +0.0000000000e+00 +0.0000000000e+00 +3.7609995870e+03 3.7609995870e+03 0.0000000000e+00 0.0000e+00 1.0000e+00
       -2 -1    0    0    0  501 -0.0000000000e+00 -0.0000000000e+00 -1.5307270448e+03 1.5307270448e+03 0.0000000000e+00 0.0000e+00 -1.0000e+00
      -13  1    1    2    0    0 +1.1952870114e+03 +1.3098358490e+03 +2.8975570110e+03 3.3970895812e+03 0.0000000000e+00 0.0000e+00 -1.0000e+00
       13  1    1    2    0    0 -1.1952870114e+03 -1.3098358490e+03 -6.6728446868e+02 1.8946370505e+03 0.0000000000e+00 0.0000e+00 1.0000e+00
<mgrwt>
<rscale>  0 0.47987764E+04</rscale>
<asrwt>0</asrwt>
<pdfrwt beam="1">  1        2 0.57861532E+00 0.47987764E+04</pdfrwt>
<pdfrwt beam="2">  1       -2 0.23549647E+00 0.47987764E+04</pdfrwt>
<totfact> 0.29522539E-02</totfact>
</mgrwt>
<rwgt>
<wgt id='morphing_basis_vector_1'> +7.0431703e-06 </wgt>
<wgt id='morphing_basis_vector_2'> +8.2191402e-06 </wgt>
<wgt id='morphing_basis_vector_3'> +8.5443472e-06 </wgt>
<wgt id='morphing_basis_vector_4'> +1.1514392e-06 </wgt>
<wgt id='morphing_basis_vector_5'> +6.7305168e-06 </wgt>
</rwgt>
</event>
<event>
 4      1 +7.6845000e-11 5.35812200e+03 7.81860800e-03 7.33742500e-02
        2 -1    0    0  501    0 +0.0000000000e+00 +0.0000000000e+00 +2.6646137743e+03 2.6646137743e+03 0.0000000000e+00 0.0000e+00 -1.0000e+00
       -2 -1    0    0    0  501 -0.0000000000e+00 -0.0000000000e+00 -2.6935860806e+03 2.6935860806e+03 0.0000000000e+00 0.0000e+00 1.0000e+00
      -13  1    1    2    0    0 +7.3005731093e+02 -1.7577636904e+03 -1.8998915825e+03 2.6892944974e+03 0.0000000000e+00 0.0000e+00 1.0000e+00
       13  1    1    2    0    0 -7.3005731093e+02 +1.7577636904e+03 +1.8709192763e+03 2.6689053574e+03 0.0000000000e+00 0.0000e+00 -1.0000e+00
<mgrwt>
<rscale>  0 0.53581215E+04</rscale>
<asrwt>0</asrwt>
<pdfrwt beam="1">  1        2 0.40994058E+00 0.53581215E+04</pdfrwt>
<pdfrwt beam="2">  1       -2 0.41439786E+00 0.53581215E+04</pdfrwt>
<totfact> 0.10390603E-02</totfact>
</mgrwt>
<rwgt>
<wgt id='morphing_basis_vector_1'> +8.5791120e-06 </wgt>
<wgt id='morphing_basis_vector_2'> +5.8523668e-06 </wgt>
<wgt id='morphing_basis_vector_3'> +9.4629862e-06 </wgt>
<wgt id='morphing_basis_vector_4'> +6.8126205e-06 </wgt>
<wgt id='morphing_basis_vector_5'> +1.0895841e-05 </wgt>
</rwgt>
</event>
<event>
 4      1 +7.6845000e-11 4.62510600e+03 7.81860800e-03 7.43838400e-02
        2 -1    0    0  501    0 +0.0000000000e+00 +0.0000000000e+00 +2.6723058716e+03 2.6723058716e+03 0.0000000000e+00 0.0000e+00 -1.0000e+00
       -2 -1    0    0    0  501 -0.0000000000e+00 -0.0000000000e+00 -2.0012312039e+03 2.0012312039e+03 0.0000000000e+00 0.0000e+00 1.0000e+00
      -13  1    1    2    0    0 +3.4353700672e+02 +1.6549415398e+03 -1.2592964994e+03 2.1077658429e+03 0.0000000000e+00 0.0000e+00 1.0000e+00
       13  1    1    2    0    0 -3.4353700672e+02 -1.6549415398e+03 +1.9303711670e+03 2.5657712326e+03 0.0000000000e+00 0.0000e+00 -1.0000e+00
<mgrwt>
<rscale>  0 0.46251062E+04</rscale>
<asrwt>0</asrwt>
<pdfrwt beam="1">  1        2 0.41112398E+00 0.46251062E+04</pdfrwt>
<pdfrwt beam="2">  1       -2 0.30788172E+00 0.46251062E+04</pdfrwt>
<totfact> 0.53949795E-02</totfact>
</mgrwt>
<rwgt>
<wgt id='morphing_basis_vector_1'> +4.7733544e-06 </wgt>
<wgt id='morphing_basis_vector_2'> +3.2547140e-06 </wgt>
<wgt id='morphing_basis_vector_3'> +5.2560223e-06 </wgt>
<wgt id='morphing_basis_vector_4'> +3.7730729e-06 </wgt>
<wgt id='morphing_basis_vector_5'> +6.0375909e-06 </wgt>
</rwgt>
</event>
<event>
 4      1 +7.6845000e-11 4.68528500e+03 7.81860800e-03 7.42940400e-02
        2 -1    0    0  501    0 +0.0000000000e+00 +0.0000000000e+00 +1.8722948070e+03 1.8722948070e+03 0.0000000000e+00 0.0000e+00 -1.0000e+00
       -2 -1    0    0    0  501 -0.0000000000e+00 -0.0000000000e+00 -2.9311478608e+03 2.9311478608e+03 0.0000000000e+00 0.0000e+00 1.0000e+00
      -13  1    1    2    0    0 -1.3858392030e+03 +6.6837912772e+02 -2.3405250954e+03 2.8009531730e+03 0.0000000000e+00 0.0000e+00 1.0000e+00
       13  1    1    2    0    0 +1.3858392030e+03 -6.6837912772e+02 +1.2816720415e+03 2.0024894949e+03 0.0000000000e+00 0.0000e+00 -1.0000e+00
<mgrwt>
<rscale>  0 0.46852846E+04</rscale>
<asrwt>0</asrwt>
<pdfrwt beam="1">  1        2 0.28804535E+00 0.46852846E+04</pdfrwt>
<pdfrwt beam="2">  1       -2 0.45094583E+00 0.46852846E+04</pdfrwt>
<totfact> 0.17853423E-02</totfact>
</mgrwt>
<rwgt>
<wgt id='morphing_basis_vector_1'> +5.0224378e-06 </wgt>
<wgt id='morphing_basis_vector_2'> +3.4176218e-06 </wgt>
<wgt id='morphing_basis_vector_3'> +5.5296270e-06 </wgt>
<wgt id='morphing_basis_vector_4'> +3.9809582e-06 </wgt>
<wgt id='morphing_basis_vector_5'> +6.3597852e-06 </wgt>
</rwgt>
</event>
<event>
 4      1 +7.6845000e-11 4.82488400e+03 7.81860800e-03 7.40908300e-02
        2 -1    0    0  501    0 +0.0000000000e+00 +0.0000000000e+00 +3.7572682608e+03 3.7572682608e+03 0.0000000000e+00 0.0000e+00 -1.0000e+00
       -2 -1    0    0    0  501 -0.0000000000e+00 -0.0000000000e+00 -1.5489650573e+03 1.5489650573e+03 0.0000000000e+00 0.0000e+00 1.0000e+00
      -13  1    1    2    0    0 +2.0180625201e+03 +1.3212963755e+03 +1.0618886095e+03 2.6355280051e+03 0.0000000000e+00 0.0000e+00 1.0000e+00
       13  1    1    2    0    0 -2.0180625201e+03 -1.3212963755e+03 +1.1464145940e+03 2.6707053129e+03 0.0000000000e+00 0.0000e+00 -1.0000e+00
<mgrwt>
<rscale>  0 0.48248843E+04</rscale>
<asrwt>0</asrwt>
<pdfrwt beam="1">  1        2 0.57804127E+00 0.48248843E+04</pdfrwt>
<pdfrwt beam="2">  1       -2 0.23830232E+00 0.48248843E+04</pdfrwt>
<totfact> 0.28355559E-02</totfact>
</mgrwt>
<rwgt>
<wgt id='morphing_basis_vector_1'> +5.8373857e-06 </wgt>
<wgt id='morphing_basis_vector_2'> +4.4052648e-06 </wgt>
<wgt id='morphing_basis_vector_3'> +6.5288172e-06 </wgt>
<wgt id='morphing_basis_vector_4'> +4.0712342e-06 </wgt>
<wgt id='morphing_basis_vector_5'> +7.1211120e-06 </wgt>
</rwgt>
</event>
<event>
 4      1 +7.6845000e-11 4.74183600e+03 7.81860800e-03 7.42108700e-02
        2 -1    0    0  501    0 +0.0000000000e+00 +0.0000000000e+00 +2.2529591417e+03 2.2529591417e+03 0.0000000000e+00 0.0000e+00 1.0000e+00
       -2 -1    0    0    0  501 -0.0000000000e+00 -0.0000000000e+00 -2.4950530337e+03 2.4950530337e+03 0.0000000000e+00 0.0000e+00 -1.0000e+00
      -13  1    1    2    0    0 -1.0971551611e+03 -1.5391260606e+03 +1.3121082901e+03 2.3009316902e+03 0.0000000000e+00 0.0000e+00 1.0000e+00
       13  1    1    2    0    0 +1.0971551611e+03 +1.5391260606e+03 -1.5542021821e+03 2.4470804852e+03 0.0000000000e+00 0.0000e+00 -1.0000e+00
<mgrwt>
<rscale>  0 0.47418362E+04</rscale>
<asrwt>0</asrwt>
<pdfrwt beam="1">  1        2 0.34660910E+00 0.47418362E+04</pdfrwt>
<pdfrwt beam="2">  1       -2 0.38385431E+00 0.47418362E+04</pdfrwt>
<totfact> 0.30277140E-02</totfact>
</mgrwt>
<rwgt>
<wgt id='morphing_basis_vector_1'> +6.5204378e-06 </wgt>
<wgt id='morphing_basis_vector_2'> +7.2628434e-06 </wgt>
<wgt id='morphing_basis_vector_3'> +7.8286420e-06 </wgt>
<wgt id='morphing_basis_vector_4'> +1.5135537e-06 </wgt>
<wgt id='morphing_basis_vector_5'> +6.4505468e-06 </wgt>
</rwgt>
</event>
<event>
 4      1 +7.6845000e-11 5.40321600e+03 7.81860800e-03 7.33176000e-02
        2 -1    0    0  501    0 +0.0000000000e+00 +0.0000000000e+00 +3.1593913795e+03 3.1593913795e+03 0.0000000000e+00 0.0000e+00 -1.0000e+00
       -2 -1    0    0    0  501 -0.0000000000e+00 -0.0000000000e+00 -2.3101556705e+03 2.3101556705e+03 0.0000000000e+00 0.0000e+00 1.0000e+00
      -13  1    1    2    0    0 -1.4288058685e+03 +1.8859802861e+03 -8.9533677960e+02 2.5298292034e+03 0.0000000000e+00 0.0000e+00 1.0000e+00
       13  1    1    2    0    0 +1.4288058685e+03 -1.8859802861e+03 +1.7445724886e+03 2.9397178466e+03 0.0000000000e+00 0.0000e+00 -1.0000e+00
<mgrwt>
<rscale>  0 0.54032160E+04</rscale>
<asrwt>0</asrwt>
<pdfrwt beam="1">  1        2 0.48606021E+00 0.54032160E+04</pdfrwt>
<pdfrwt beam="2">  1       -2 0.35540856E+00 0.54032160E+04</pdfrwt>
<totfact> 0.12032892E-02</totfact>
</mgrwt>
<rwgt>
<wgt id='morphing_basis_vector_1'> +8.9033361e-06 </wgt>
<wgt id='morphing_basis_vector_2'> +6.1473426e-06 </wgt>
<wgt id='morphing_basis_vector_3'> +9.8385810e-06 </wgt>
<wgt id='morphing_basis_vector_4'> +6.9759361e-06 </wgt>
<wgt id='morphing_basis_vector_5'> +1.1262492e-05 </wgt>
</rwgt>
</event>
<event>
 4      1 +7.6845000e-11 4.75717700e+03 7.81860800e-03 7.41885100e-02
        2 -1    0    0  501    0 +0.0000000000e+00 +0.0000000000e+00 +1.8360370351e+03 1.8360370351e+03 0.0000000000e+00 0.0000e+00 -1.0000e+00
       -2 -1    0    0    0  501 -0.0000000000e+00 -0.0000000000e+00 -3.0814652782e+03 3.0814652782e+03 0.0000000000e+00 0.0000e+00 1.0000e+00
      -13  1    1    2    0    0 -2.0228055626e+03 -2.1678962298e+02 -1.8967044821e+03 2.7814075532e+03 0.0000000000e+00 0.0000e+00 1.0000e+00
       13  1    1    2    0    0 +2.0228055626e+03 +2.1678962298e+02 +6.5127623898e+02 2.1360947601e+03 0.0000000000e+00 0.0000e+00 -1.0000e+00
<mgrwt>
<rscale>  0 0.47571775E+04</rscale>
<asrwt>0</asrwt>
<pdfrwt beam="1">  1        2 0.28246724E+00 0.47571775E+04</pdfrwt>
<pdfrwt beam="2">  1       -2 0.47407157E+00 0.47571775E+04</pdfrwt>
<totfact> 0.12695887E-02</totfact>
</mgrwt>
<rwgt>
<wgt id='morphing_basis_vector_1'> +5.3541069e-06 </wgt>
<wgt id='morphing_basis_vector_2'> +3.6831483e-06 </wgt>
<wgt id='morphing_basis_vector_3'> +5.9050611e-06 </wgt>
<wgt id='morphing_basis_vector_4'> +4.1947817e-06 </wgt>
<wgt id='morphing_basis_vector_5'> +6.7575692e-06 </wgt>
</rwgt>
</event>
<event>
 4      1 +7.6845000e-11 5.27859800e+03 7.81860800e-03 7.34755700e-02
        2 -1    0    0  501    0 +0.0000000000e+00 +0.0000000000e+00 +2.5520172512e+03 2.5520172512e+03 0.0000000000e+00 0.0000e+00 -1.0000e+00
       -2 -1    0    0    0  501 -0.0000000000e+00 -0.0000000000e+00 -2.7295659621e+03 2.7295659621e+03 0.0000000000e+00 0.0000e+00 1.0000e+00
      -13  1    1    2    0    0 -2.2028567176e+03 +6.7071754118e+02 -1.3792555231e+03 2.6841731569e+03 0.0000000000e+00 0.0000e+00 1.0000e+00
       13  1    1    2    0    0 +2.2028567176e+03 -6.7071754118e+02 +1.2017068123e+03 2.5974100564e+03 0.0000000000e+00 0.0000e+00 -1.0000e+00
<mgrwt>
<rscale>  0 0.52785981E+04</rscale>
<asrwt>0</asrwt>
<pdfrwt beam="1">  1        2 0.39261804E+00 0.52785981E+04</pdfrwt>
<pdfrwt beam="2">  1       -2 0.41993322E+00 0.52785981E+04</pdfrwt>
<totfact> 0.11245767E-02</totfact>
</mgrwt>
<rwgt>
<wgt id='morphing_basis_vector_1'> +8.1109102e-06 </wgt>
<wgt id='morphing_basis_vector_2'> +5.5965913e-06 </wgt>
<wgt id='morphing_basis_vector_3'> +8.9599944e-06 </wgt>
<wgt id='morphing_basis_vector_4'> +6.3552797e-06 </wgt>
<wgt id='morphing_basis_vector_5'> +1.0256431e-05 </wgt>
</rwgt>
</event>
<event>
 4      1 +7.6845000e-11 4.97482300e+03 7.81860800e-03 7.38801300e-02
        2 -1    0    0  501    0 +0.0000000000e+00 +0.0000000000e+00 +2.0480166828e+03 2.0480166828e+03 0.0000000000e+00 0.0000e+00 -1.0000e+00
       -2 -1    0    0    0  501 -0.0000000000e+00 -0.0000000000e+00 -3.0210763495e+03 3.0210763495e+03 0.0000000000e+00 0.0000e+00 1.0000e+00
      -13  1    1    2    0    0 -6.3136824571e+02 +5.7765787097e+02 -2.8663606216e+03 2.9913772231e+03 0.0000000000e+00 0.0000e+00 1.0000e+00
       13  1    1    2    0    0 +6.3136824571e+02 -5.7765787097e+02 +1.8933009550e+03 2.0777158092e+03 0.0000000000e+00 0.0000e+00 -1.0000e+00
<mgrwt>
<rscale>  0 0.49748225E+04</rscale>
<asrwt>0</asrwt>
<pdfrwt beam="1">  1        2 0.31507949E+00 0.49748225E+04</pdfrwt>
<pdfrwt beam="2">  1       -2 0.46478098E+00 0.49748225E+04</pdfrwt>
<totfact> 0.11095537E-02</totfact>
</mgrwt>
<rwgt>
<wgt id='morphing_basis_vector_1'> +6.3735797e-06 </wgt>
<wgt id='morphing_basis_vector_2'> +4.3283119e-06 </wgt>
<wgt id='morphing_basis_vector_3'> +7.0202424e-06 </wgt>
<wgt id='morphing_basis_vector_4'> +5.0744099e-06 </wgt>
<wgt id='morphing_basis_vector_5'> +8.0911444e-06 </wgt>
</rwgt>
</event>
<event>
 4      1 +7.6845000e-11 4.88965700e+03 7.81860800e-03 7.39988800e-02
        2 -1    0    0  501    0 +0.0000000000e+00 +0.0000000000e+00 +2.4271454009e+03 2.4271454009e+03 0.0000000000e+00 0.0000e+00 1.0000e+00
       -2 -1    0    0    0  501 -0.0000000000e+00 -0.0000000000e+00 -2.4626406600e+03 2.4626406600e+03 0.0000000000e+00 0.0000e+00 -1.0000e+00
      -13  1    1    2    0    0 +8.6939012196e+02 +2.4054360815e+02 +2.2546428826e+03 2.4283976074e+03 0.0000000000e+00 0.0000e+00 1.0000e+00
       13  1    1    2    0    0 -8.6939012196e+02 -2.4054360815e+02 -2.2901381416e+03 2.4613884535e+03 0.0000000000e+00 0.0000e+00 -1.0000e+00
<mgrwt>
<rscale>  0 0.48896572E+04</rscale>
<asrwt>0</asrwt>
<pdfrwt beam="1">  1        2 0.37340698E+00 0.48896572E+04</pdfrwt>
<pdfrwt beam="2">  1       -2 0.37886780E+00 0.48896572E+04</pdfrwt>
<totfact> 0.25513788E-02</totfact>
</mgrwt>
<rwgt>
<wgt id='morphing_basis_vector_1'> +8.1300204e-06 </wgt>
<wgt id='morphing_basis_vector_2'> +1.0443458e-05 </wgt>
<wgt id='morphing_basis_vector_3'> +1.0087003e-05 </wgt>
<wgt id='morphing_basis_vector_4'> +9.1665012e-08 </wgt>
<wgt id='morphing_basis_vector_5'> +7.1604144e-06 </wgt>
</rwgt>
</event>
<event>
 4      1 +7.6845000e-11 4.63359400e+03 7.81860800e-03 7.43710900e-02
        2 -1    0    0  501    0 +0.0000000000e+00 +0.0000000000e+00 +2.5332841329e+03 2.5332841329e+03 0.0000000000e+00 0.0000e+00 -1.0000e+00
       -2 -1    0    0    0  501 -0.0000000000e+00 -0.0000000000e+00 -2.1188098113e+03 2.1188098113e+03 0.0000000000e+00 0.0000e+00 1.0000e+00
      -13  1    1    2    0    0 +8.1366451042e+02 +1.6981720319e+03 -1.1478588107e+03 2.2053158582e+03 0.0000000000e+00 0.0000e+00 1.0000e+00
       13  1    1    2    0    0 -8.1366451042e+02 -1.6981720319e+03 +1.5623331323e+03 2.4467780859e+03 0.0000000000e+00 0.0000e+00 -1.0000e+00
<mgrwt>
<rscale>  0 0.46335935E+04</rscale>
<asrwt>0</asrwt>
<pdfrwt beam="1">  1        2 0.38973602E+00 0.46335935E+04</pdfrwt>
<pdfrwt beam="2">  1       -2 0.32597074E+00 0.46335935E+04</pdfrwt>
<totfact> 0.49612797E-02</totfact>
</mgrwt>
<rwgt>
<wgt id='morphing_basis_vector_1'> +4.8149380e-06 </wgt>
<wgt id='morphing_basis_vector_2'> +3.2979757e-06 </wgt>
<wgt id='morphing_basis_vector_3'> +5.3053500e-06 </wgt>
<wgt id='morphing_basis_vector_4'> +3.7869450e-06 </wgt>
<wgt id='morphing_basis_vector_5'> +6.0810238e-06 </wgt>
</rwgt>
</event>
<event>
 4      1 +7.6845000e-11 4.63410400e+03 7.81860800e-03 7.43703300e-02
        2 -1    0    0  501    0 +0.0000000000e+00 +0.0000000000e+00 +2.6951600233e+03 2.6951600233e+03 0.0000000000e+00 0.0000e+00 1.0000e+00
       -2 -1    0    0    0  501 -0.0000000000e+00 -0.0000000000e+00 -1.9919891586e+03 1.9919891586e+03 0.0000000000e+00 0.0000e+00 -1.0000e+00
      -13  1    1    2    0    0 -2.0967230873e+03 +8.2120660828e+02 -2.0065110060e+02 2.2607275073e+03 0.0000000000e+00 0.0000e+00 -1.0000e+00
       13  1    1    2    0    0 +2.0967230873e+03 -8.2120660828e+02 +9.0382196529e+02 2.4264216746e+03 0.0000000000e+00 0.0000e+00 1.0000e+00
<mgrwt>
<rscale>  0 0.46341038E+04</rscale>
<asrwt>0</asrwt>
<pdfrwt beam="1">  1        2 0.41464000E+00 0.46341038E+04</pdfrwt>
<pdfrwt beam="2">  1       -2 0.30645987E+00 0.46341038E+04</pdfrwt>
<totfact> 0.53352631E-02</totfact>
</mgrwt>
<rwgt>
<wgt id='morphing_basis_vector_1'> +4.8755581e-06 </wgt>
<wgt id='morphing_basis_vector_2'> +3.4712882e-06 </wgt>
<wgt id='morphing_basis_vector_3'> +5.4023193e-06 </wgt>
<wgt id='morphing_basis_vector_4'> +3.6642243e-06 </wgt>
<wgt id='morphing_basis_vector_5'> +6.0733034e-06 </wgt>
</rwgt>
</event>
<event>
 4      1 +7.6845000e-11 5.32420200e+03 7.81860800e-03 7.34172400e-02
        2 -1    0    0  501    0 +0.0000000000e+00 +0.0000000000e+00 +3.3582814834e+03 3.3582814834e+03 0.0000000000e+00 0.0000e+00 1.0000e+00
       -2 -1    0    0    0  501 -0.0000000000e+00 -0.0000000000e+00 -2.1102408476e+03 2.1102408476e+03 0.0000000000e+00 0.0000e+00 -1.0000e+00
      -13  1    1    2    0    0 +1.1331560607e+03 +2.3376126665e+03 +1.2214282820e+03 2.8706031918e+03 0.0000000000e+00 0.0000e+00 1.0000e+00
       13  1    1    2    0    0 -1.1331560607e+03 -2.3376126665e+03 +2.6612353794e+01 2.5979191393e+03 0.0000000000e+00 0.0000e+00 -1.0000e+00
<mgrwt>
<rscale>  0 0.53242024E+04</rscale>
<asrwt>0</asrwt>
<pdfrwt beam="1">  1        2 0.51665869E+00 0.53242024E+04</pdfrwt>
<pdfrwt beam="2">  1       -2 0.32465244E+00 0.53242024E+04</pdfrwt>
<totfact> 0.14016548E-02</totfact>
</mgrwt>
<rwgt>
<wgt id='morphing_basis_vector_1'> +9.0089271e-06 </wgt>
<wgt id='morphing_basis_vector_2'> +7.5977211e-06 </wgt>
<wgt id='morphing_basis_vector_3'> +1.0273893e-05 </wgt>
<wgt id='morphing_basis_vector_4'> +5.2661983e-06 </wgt>
<wgt id='morphing_basis_vector_5'> +1.0506374e-05 </wgt>
</rwgt>
</event>
<event>
 4      1 +7.6845000e-11 5.38182700e+03 7.81860800e-03 7.33444000e-02
        2 -1    0    0  501    0 +0.0000000000e+00 +0.0000000000e+00 +2.0093188543e+03 2.0093188543e+03 0.0000000000e+00 0.0000e+00 1.0000e+00
       -2 -1    0    0    0  501 -0.0000000000e+00 -0.0000000000e+00 -3.6037161833e+03 3.6037161833e+03 0.0000000000e+00 0.0000e+00 -1.0000e+00
      -13  1    1    2    0    0 +1.0558711107e+02 -1.2131074772e+03 -3.2999216725e+03 3.5174225555e+03 0.0000000000e+00 0.0000e+00 -1.0000e+00
       13  1    1    2    0    0 -1.0558711107e+02 +1.2131074772e+03 +1.7055243434e+03 2.0956124821e+03 0.0000000000e+00 0.0000e+00 1.0000e+00
<mgrwt>
<rscale>  0 0.53818268E+04</rscale>
<asrwt>0</asrwt>
<pdfrwt beam="1">  1        2 0.30912598E+00 0.53818268E+04</pdfrwt>
<pdfrwt beam="2">  1       -2 0.55441787E+00 0.53818268E+04</pdfrwt>
<totfact> 0.24724478E-03</totfact>
</mgrwt>
<rwgt>
<wgt id='morphing_basis_vector_1'> +8.7219310e-06 </wgt>
<wgt id='morphing_basis_vector_2'> +5.9283956e-06 </wgt>
<wgt id='morphing_basis_vector_3'> +9.6159542e-06 </wgt>
<wgt id='morphing_basis_vector_4'> +6.9547479e-06 </wgt>
<wgt id='morphing_basis_vector_5'> +1.1092198e-05 </wgt>
</rwgt>
</event>
<event>
 4      1 +7.6845000e-11 4.71867600e+03 7.81860800e-03 7.42447900e-02
        2 -1    0    0  501    0 +0.0000000000e+00 +0.0000000000e+00 +3.2176837418e+03 3.2176837418e+03 0.0000000000e+00 0.0000e+00 -1.0000e+00
       -2 -1    0    0    0  501 -0.0000000000e+00 -0.0000000000e+00 -1.7299633079e+03 1.7299633079e+03 0.0000000000e+00 0.0000e+00 1.0000e+00
      -13  1    1    2    0    0 +1.7943732804e+03 -1.4387247005e+03 +1.9224206336e+02 2.3079560750e+03 0.0000000000e+00 0.0000e+00 1.0000e+00
       13  1    1    2    0    0 -1.7943732804e+03 +1.4387247005e+03 +1.2954783706e+03 2.6396909747e+03 0.0000000000e+00 0.0000e+00 -1.0000e+00
<mgrwt>
<rscale>  0 0.47186756E+04</rscale>
<asrwt>0</asrwt>
<pdfrwt beam="1">  1        2 0.49502827E+00 0.47186756E+04</pdfrwt>
<pdfrwt beam="2">  1       -2 0.26614820E+00 0.47186756E+04</pdfrwt>
<totfact> 0.45637343E-02</totfact>
</mgrwt>
<rwgt>
<wgt id='morphing_basis_vector_1'> +5.2439835e-06 </wgt>
<wgt id='morphing_basis_vector_2'> +3.7432269e-06 </wgt>
<wgt id='morphing_basis_vector_3'> +5.8141750e-06 </wgt>
<wgt id='morphing_basis_vector_4'> +3.9314644e-06 </wgt>
<wgt id='morphing_basis_vector_5'> +6.5299179e-06 </wgt>
</rwgt>
</event>
<event>
 4      1 +7.6845000e-11 5.06913700e+03 7.81860800e-03 7.37514200e-02
        2 -1    0    0  501    0 +0.0000000000e+00 +0.0000000000e+00 +1.8238252108e+03 1.8238252108e+03 0.0000000000e+00 0.0000e+00 -1.0000e+00
       -2 -1    0    0    0  501 -0.0000000000e+00 -0.0000000000e+00 -3.5222875194e+03 3.5222875194e+03 0.0000000000e+00 0.0000e+00 1.0000e+00
      -13  1    1    2    0    0 +2.2619951362e+03 +8.4231400046e+02 -1.6647356127e+03 2.9321424815e+03 0.0000000000e+00 0.0000e+00 1.0000e+00
       13  1    1    2    0    0 -2.2619951362e+03 -8.4231400046e+02 -3.3726695984e+01 2.4139702487e+03 0.0000000000e+00 0.0000e+00 -1.0000e+00
<mgrwt>
<rscale>  0 0.50691367E+04</rscale>
<asrwt>0</asrwt>
<pdfrwt beam="1">  1        2 0.28058850E+00 0.50691367E+04</pdfrwt>
<pdfrwt beam="2">  1       -2 0.54189039E+00 0.50691367E+04</pdfrwt>
<totfact> 0.39544452E-03</totfact>
</mgrwt>
<rwgt>
<wgt id='morphing_basis_vector_1'> +6.9460386e-06 </wgt>
<wgt id='morphing_basis_vector_2'> +4.8913427e-06 </wgt>
<wgt id='morphing_basis_vector_3'> +7.6926686e-06 </wgt>
<wgt id='morphing_basis_vector_4'> +5.3076724e-06 </wgt>
<wgt id='morphing_basis_vector_5'> +8.7107093e-06 </wgt>
</rwgt>
</event>
<event>
 4      1 +7.6845000e-11 4.76139700e+03 7.81860800e-03 7.41823700e-02
        2 -1    0    0  501    0 +0.0000000000e+00 +0.0000000000e+00 +1.5720840362e+03 1.5720840362e+03 0.0000000000e+00 0.0000e+00 -1.0000e+00
       -2 -1    0    0    0  501 -0.0000000000e+00 -0.0000000000e+00 -3.6052308667e+03 3.6052308667e+03 0.0000000000e+00 0.0000e+00 1.0000e+00
      -13  1    1    2    0    0 +1.9417462946e+03 +5.1219120173e+02 -2.4069422568e+03 3.1346593958e+03 0.0000000000e+00 0.0000e+00 1.0000e+00
       13  1    1    2    0    0 -1.9417462946e+03 -5.1219120173e+02 +3.7379542629e+02 2.0426555071e+03 0.0000000000e+00 0.0000e+00 -1.0000e+00
<mgrwt>
<rscale>  0 0.47613972E+04</rscale>
<asrwt>0</asrwt>
<pdfrwt beam="1">  1        2 0.24185909E+00 0.47613972E+04</pdfrwt>
<pdfrwt beam="2">  1       -2 0.55465090E+00 0.47613972E+04</pdfrwt>
<totfact> 0.45263944E-03</totfact>
</mgrwt>
<rwgt>
<wgt id='morphing_basis_vector_1'> +5.3709088e-06 </wgt>
<wgt id='morphing_basis_vector_2'> +3.6898957e-06 </wgt>
<wgt id='morphing_basis_vector_3'> +5.9225527e-06 </wgt>
<wgt id='morphing_basis_vector_4'> +4.2143138e-06 </wgt>
<wgt id='morphing_basis_vector_5'> +6.7820452e-06 </wgt>
</rwgt>
</event>
<event>
 4      1 +7.6845000e-11 5.08303900e+03 7.81860800e-03 7.37326900e-02
        2 -1    0    0  501    0 +0.0000000000e+00 +0.0000000000e+00 +2.7241715927e+03 2.7241715927e+03 0.0000000000e+00 0.0000e+00 -1.0000e+00
       -2 -1    0    0    0  501 -0.0000000000e+00 -0.0000000000e+00 -2.3711139281e+03 2.3711139281e+03 0.0000000000e+00 0.0000e+00 1.0000e+00
      -13  1    1    2    0    0 +2.2420317712e+03 +1.1938799630e+03 +2.6197137451e+02 2.5535631635e+03 0.0000000000e+00 0.0000e+00 1.0000e+00
       13  1    1    2    0    0 -2.2420317712e+03 -1.1938799630e+03 +9.1086290042e+01 2.5417223572e+03 0.0000000000e+00 0.0000e+00 -1.0000e+00
<mgrwt>
<rscale>  0 0.50830389E+04</rscale>
<asrwt>0</asrwt>
<pdfrwt beam="1">  1        2 0.41910333E+00 0.50830389E+04</pdfrwt>
<pdfrwt beam="2">  1       -2 0.36478676E+00 0.50830389E+04</pdfrwt>
<totfact> 0.20484969E-02</totfact>
</mgrwt>
<rwgt>
<wgt id='morphing_basis_vector_1'> +7.2325065e-06 </wgt>
<wgt id='morphing_basis_vector_2'> +5.5624037e-06 </wgt>
<wgt id='morphing_basis_vector_3'> +8.1187385e-06 </wgt>
<wgt id='morphing_basis_vector_4'> +4.9182545e-06 </wgt>
<wgt id='morphing_basis_vector_5'> +8.7693814e-06 </wgt>
</rwgt>
</event>
<event>
 4      1 +7.6845000e-11 4.68812600e+03 7.81860800e-03 7.42898300e-02
        2 -1    0    0  501    0 +0.0000000000e+00 +0.0000000000e+00 +3.6317787395e+03 3.6317787395e+03 0.0000000000e+00 0.0000e+00 -1.0000e+00
       -2 -1    0    0    0  501 -0.0000000000e+00 -0.0000000000e+00 -1.5129311902e+03 1.5129311902e+03 0.0000000000e+00 0.0000e+00 1.0000e+00
      -13  1    1    2    0    0 -2.3183064126e+03 +2.4472401592e+02 +7.9017821270e+02 2.4614662448e+03 0.0000000000e+00 0.0000e+00 1.0000e+00
       13  1    1    2    0    0 +2.3183064126e+03 -2.4472401592e+02 +1.3286693366e+03 2.6832436849e+03 0.0000000000e+00 0.0000e+00 -1.0000e+00
<mgrwt>
<rscale>  0 0.46881260E+04</rscale>
<asrwt>0</asrwt>
<pdfrwt beam="1">  1        2 0.55873519E+00 0.46881260E+04</pdfrwt>
<pdfrwt beam="2">  1       -2 0.23275865E+00 0.46881260E+04</pdfrwt>
<totfact> 0.39192712E-02</totfact>
</mgrwt>
<rwgt>
<wgt id='morphing_basis_vector_1'> +5.1564546e-06 </wgt>
<wgt id='morphing_basis_vector_2'> +3.7838741e-06 </wgt>
<wgt id='morphing_basis_vector_3'> +5.7402723e-06 </wgt>
<wgt id='morphing_basis_vector_4'> +3.7314576e-06 </wgt>
<wgt id='morphing_basis_vector_5'> +6.3535864e-06 </wgt>
</rwgt>
</event>
<event>
 4      1 +7.6845000e-11 4.68191100e+03 7.81860800e-03 7.42990400e-02
        2 -1    0    0  501    0 +0.0000000000e+00 +0.0000000000e+00 +2.7105943876e+03 2.7105943876e+03 0.0000000000e+00 0.0000e+00 -1.0000e+00
       -2 -1    0    0    0  501 -0.0000000000e+00 -0.0000000000e+00 -2.0217233477e+03 2.0217233477e+03 0.0000000000e+00 0.0000e+00 1.0000e+00
      -13  1    1    2    0    0 -1.3854267304e+03 +9.1303910799e+02 -1.3247141291e+03 2.1231851455e+03 0.0000000000e+00 0.0000e+00 1.0000e+00
       13  1    1    2    0    0 +1.3854267304e+03 -9.1303910799e+02 +2.0135851691e+03 2.6091325898e+03 0.0000000000e+00 0.0000e+00 -1.0000e+00
<mgrwt>
<rscale>  0 0.46819107E+04</rscale>
<asrwt>0</asrwt>
<pdfrwt beam="1">  1        2 0.41701452E+00 0.46819107E+04</pdfrwt>
<pdfrwt beam="2">  1       -2 0.31103436E+00 0.46819107E+04</pdfrwt>
<totfact> 0.48457756E-02</totfact>
</mgrwt>
<rwgt>
<wgt id='morphing_basis_vector_1'> +5.0101105e-06 </wgt>
<wgt id='morphing_basis_vector_2'> +3.4138825e-06 </wgt>
<wgt id='morphing_basis_vector_3'> +5.5170699e-06 </wgt>
<wgt id='morphing_basis_vector_4'> +3.9650613e-06 </wgt>
<wgt id='morphing_basis_vector_5'> +6.3410517e-06 </wgt>
</rwgt>
</event>
<event>
 4      1 +7.6845000e-11 4.88069300e+03 7.81860800e-03 7.40115200e-02
        2 -1    0    0  501    0 +0.0000000000e+00 +0.0000000000e+00 +2.7560842035e+03 2.7560842035e+03 0.0000000000e+00 0.0000e+00 -1.0000e+00
       -2 -1    0    0    0  501 -0.0000000000e+00 -0.0000000000e+00 -2.1607796209e+03 2.1607796209e+03 0.0000000000e+00 0.0000e+00 1.0000e+00
      -13  1    1    2    0    0 +7.4480271328e+02 +1.6459258289e+03 -1.3550814862e+03 2.2583287516e+03 0.0000000000e+00 0.0000e+00 1.0000e+00
       13  1    1    2    0    0 -7.4480271328e+02 -1.6459258289e+03 +1.9503860689e+03 2.6585350728e+03 0.0000000000e+00 0.0000e+00 -1.0000e+00
<mgrwt>
<rscale>  0 0.48806928E+04</rscale>
<asrwt>0</asrwt>
<pdfrwt beam="1">  1        2 0.42401296E+00 0.48806928E+04</pdfrwt>
<pdfrwt beam="2">  1       -2 0.33242763E+00 0.48806928E+04</pdfrwt>
<totfact> 0.32248977E-02</totfact>
</mgrwt>
<rwgt>
<wgt id='morphing_basis_vector_1'> +5.9152322e-06 </wgt>
<wgt id='morphing_basis_vector_2'> +4.0367155e-06 </wgt>
<wgt id='morphing_basis_vector_3'> +6.5184943e-06 </wgt>
<wgt id='morphing_basis_vector_4'> +4.6808282e-06 </wgt>
<wgt id='morphing_basis_vector_5'> +7.4924551e-06 </wgt>
</rwgt>
</event>
<event>
 4      1 +7.6845000e-11 5.12452600e+03 7.81860800e-03 7.36771600e-02
        2 -1    0    0  501    0 +0.0000000000e+00 +0.0000000000e+00 +3.5582576613e+03 3.5582576613e+03 0.0000000000e+00 0.0000e+00 -1.0000e+00
       -2 -1    0    0    0  501 -0.0000000000e+00 -0.0000000000e+00 -1.8450578406e+03 1.8450578406e+03 0.0000000000e+00 0.0000e+00 1.0000e+00
      -13  1    1    2    0    0 +2.0629883919e+02 -1.6541124424e+03 -1.1951675913e+03 2.0511150027e+03 0.0000000000e+00 0.0000e+00 1.0000e+00
       13  1    1    2    0    0 -2.0629883919e+02 +1.6541124424e+03 +2.9083674121e+03 3.3522004992e+03 0.0000000000e+00 0.0000e+00 -1.0000e+00
<mgrwt>
<rscale>  0 0.51245258E+04</rscale>
<asrwt>0</asrwt>
<pdfrwt beam="1">  1        2 0.54742425E+00 0.51245258E+04</pdfrwt>
<pdfrwt beam="2">  1       -2 0.28385505E+00 0.51245258E+04</pdfrwt>
<totfact> 0.19147610E-02</totfact>
</mgrwt>
<rwgt>
<wgt id='morphing_basis_vector_1'> +7.1785231e-06 </wgt>
<wgt id='morphing_basis_vector_2'> +4.8877687e-06 </wgt>
<wgt id='morphing_basis_vector_3'> +7.9123820e-06 </wgt>
<wgt id='morphing_basis_vector_4'> +5.7043598e-06 </wgt>
<wgt id='morphing_basis_vector_5'> +9.1123502e-06 </wgt>
</rwgt>
</event>
<event>
 4      1 +7.6845000e-11 4.62545800e+03 7.81860800e-03 7.43833100e-02
        2 -1    0    0  501    0 +0.0000000000e+00 +0.0000000000e+00 +2.2098482007e+03 2.2098482007e+03 0.0000000000e+00 0.0000e+00 -1.0000e+00
       -2 -1    0    0    0  501 -0.0000000000e+00 -0.0000000000e+00 -2.4203992350e+03 2.4203992350e+03 0.0000000000e+00 0.0000e+00 1.0000e+00
      -13  1    1    2    0    0 -1.9663323887e+03 -1.2036091685e+03 +7.8153963642e+01 2.3067826372e+03 0.0000000000e+00 0.0000e+00 1.0000e+00
       13  1    1    2    0    0 +1.9663323887e+03 +1.2036091685e+03 -2.8870499794e+02 2.3234647984e+03 0.0000000000e+00 0.0000e+00 -1.0000e+00
<mgrwt>
<rscale>  0 0.46254578E+04</rscale>
<asrwt>0</asrwt>
<pdfrwt beam="1">  1        2 0.33997665E+00 0.46254578E+04</pdfrwt>
<pdfrwt beam="2">  1       -2 0.37236911E+00 0.46254578E+04</pdfrwt>
<totfact> 0.38362110E-02</totfact>
</mgrwt>
<rwgt>
<wgt id='morphing_basis_vector_1'> +5.0003178e-06 </wgt>
<wgt id='morphing_basis_vector_2'> +3.9181560e-06 </wgt>
<wgt id='morphing_basis_vector_3'> +5.6223533e-06 </wgt>
<wgt id='morphing_basis_vector_4'> +3.2947645e-06 </wgt>
<wgt id='morphing_basis_vector_5'> +5.9993141e-06 </wgt>
</rwgt>
</event>
<event>
 4      1 +7.6845000e-11 4.78013300e+03 7.81860800e-03 7.41552100e-02
        2 -1    0    0  501    0 +0.0000000000e+00 +0.0000000000e+00 +3.1487719763e+03 3.1487719763e+03 0.0000000000e+00 0.0000e+00 -1.0000e+00
       -2 -1    0    0    0  501 -0.0000000000e+00 -0.0000000000e+00 -1.8141730332e+03 1.8141730332e+03 0.0000000000e+00 0.0000e+00 1.0000e+00
      -13  1    1    2    0    0 +1.6078676751e+03 +1.3122065307e+03 -5.6348756599e+02 2.1504982392e+03 0.0000000000e+00 0.0000e+00 1.0000e+00
       13  1    1    2    0    0 -1.6078676751e+03 -1.3122065307e+03 +1.8980865091e+03 2.8124467703e+03 0.0000000000e+00 0.0000e+00 -1.0000e+00
<mgrwt>
<rscale>  0 0.47801327E+04</rscale>
<asrwt>0</asrwt>
<pdfrwt beam="1">  1        2 0.48442646E+00 0.47801327E+04</pdfrwt>
<pdfrwt beam="2">  1       -2 0.27910354E+00 0.47801327E+04</pdfrwt>
<totfact> 0.41255905E-02</totfact>
</mgrwt>
<rwgt>
<wgt id='morphing_basis_vector_1'> +5.4605900e-06 </wgt>
<wgt id='morphing_basis_vector_2'> +3.7627829e-06 </wgt>
<wgt id='morphing_basis_vector_3'> +6.0243288e-06 </wgt>
<wgt id='morphing_basis_vector_4'> +4.2707221e-06 </wgt>
<wgt id='morphing_basis_vector_5'> +6.8889166e-06 </wgt>
</rwgt>
</event>
<event>
 4      1 +7.6845000e-11 4.91634300e+03 7.81860800e-03 7.39614100e-02
        2 -1    0    0  501    0 +0.0000000000e+00 +0.0000000000e+00 +3.3992335052e+03 3.3992335052e+03 0.0000000000e+00 0.0000e+00 -1.0000e+00
       -2 -1    0    0    0  501 -0.0000000000e+00 -0.0000000000e+00 -1.7776378259e+03 1.7776378259e+03 0.0000000000e+00 0.0000e+00 1.0000e+00
      -13  1    1    2    0    0 +1.3263396124e+03 +5.6707643846e+02 -1.2851209265e+03 1.9319131063e+03 0.0000000000e+00 0.0000e+00 1.0000e+00
       13  1    1    2    0    0 -1.3263396124e+03 -5.6707643846e+02 +2.9067166058e+03 3.2449582248e+03 0.0000000000e+00 0.0000e+00 -1.0000e+00
<mgrwt>
<rscale>  0 0.49163426E+04</rscale>
<asrwt>0</asrwt>
<pdfrwt beam="1">  1        2 0.52295900E+00 0.49163426E+04</pdfrwt>
<pdfrwt beam="2">  1       -2 0.27348274E+00 0.49163426E+04</pdfrwt>
<totfact> 0.29895774E-02</totfact>
</mgrwt>
<rwgt>
<wgt id='morphing_basis_vector_1'> +6.0825951e-06 </wgt>
<wgt id='morphing_basis_vector_2'> +4.1359423e-06 </wgt>
<wgt id='morphing_basis_vector_3'> +6.7000406e-06 </wgt>
<wgt id='morphing_basis_vector_4'> +4.8339393e-06 </wgt>
<wgt id='morphing_basis_vector_5'> +7.7157200e-06 </wgt>
</rwgt>
</event>
<event>
 4      1 +7.6845000e-11 5.12814600e+03 7.81860800e-03 7.36723400e-02
        2 -1    0    0  501    0 +0.0000000000e+00 +0.0000000000e+00 +2.9023240506e+03 2.9023240506e+03 0.0000000000e+00 0.0000e+00 1.0000e+00
       -2 -1    0    0    0  501 -0.0000000000e+00 -0.0000000000e+00 -2.2652436293e+03 2.2652436293e+03 0.0000000000e+00 0.0000e+00 -1.0000e+00
      -13  1    1    2    0    0 +1.8651310772e+03 +9.2772074984e+02 -1.1879746030e+03 2.3980540824e+03 0.0000000000e+00 0.0000e+00 -1.0000e+00
       13  1    1    2    0    0 -1.8651310772e+03 -9.2772074984e+02 +1.8250550243e+03 2.7695135975e+03 0.0000000000e+00 0.0000e+00 1.0000e+00
<mgrwt>
<rscale>  0 0.51281463E+04</rscale>
<asrwt>0</asrwt>
<pdfrwt beam="1">  1        2 0.44651139E+00 0.51281463E+04</pdfrwt>
<pdfrwt beam="2">  1       -2 0.34849902E+00 0.51281463E+04</pdfrwt>
<totfact> 0.20084227E-02</totfact>
</mgrwt>
<rwgt>
<wgt id='morphing_basis_vector_1'> +7.2135192e-06 </wgt>
<wgt id='morphing_basis_vector_2'> +4.9448964e-06 </wgt>
<wgt id='morphing_basis_vector_3'> +7.9587249e-06 </wgt>
<wgt id='morphing_basis_vector_4'> +5.6890935e-06 </wgt>
<wgt id='morphing_basis_vector_5'> +9.1355687e-06 </wgt>
</rwgt>
</event>
<event>
 4      1 +7.6845000e-11 5.28396700e+03 7.81860800e-03 7.34686700e-02
        2 -1    0    0  501    0 +0.0000000000e+00 +0.0000000000e+00 +3.5043361861e+03 3.5043361861e+03 0.0000000000e+00 0.0000e+00 1.0000e+00
       -2 -1    0    0    0  501 -0.0000000000e+00 -0.0000000000e+00 -1.9918402420e+03 1.9918402420e+03 0.0000000000e+00 0.0000e+00 -1.0000e+00
      -13  1    1    2    0    0 -2.9506191123e+02 -1.4424748439e+03 -1.5255442726e+03 2.1201604973e+03 0.0000000000e+00 0.0000e+00 -1.0000e+00
       13  1    1    2    0    0 +2.9506191123e+02 +1.4424748439e+03 +3.0380402167e+03 3.3760159308e+03 0.0000000000e+00 0.0000e+00 1.0000e+00
<mgrwt>
<rscale>  0 0.52839674E+04</rscale>
<asrwt>0</asrwt>
<pdfrwt beam="1">  1        2 0.53912865E+00 0.52839674E+04</pdfrwt>
<pdfrwt beam="2">  1       -2 0.30643696E+00 0.52839674E+04</pdfrwt>
<totfact> 0.14598045E-02</totfact>
</mgrwt>
<rwgt>
<wgt id='morphing_basis_vector_1'> +8.1081305e-06 </wgt>
<wgt id='morphing_basis_vector_2'> +5.5144496e-06 </wgt>
<wgt id='morphing_basis_vector_3'> +8.9383884e-06 </wgt>
<wgt id='morphing_basis_vector_4'> +6.4574898e-06 </wgt>
<wgt id='morphing_basis_vector_5'> +1.0304743e-05 </wgt>
</rwgt>
</event>
<event>
 4      1 +7.6845000e-11 5.20815200e+03 7.81860800e-03 7.35668500e-02
        2 -1    0    0  501    0 +0.0000000000e+00 +0.0000000000e+00 +3.1294101103e+03 3.1294101103e+03 0.0000000000e+00 0.0000e+00 1.0000e+00
       -2 -1    0    0    0  501 -0.0000000000e+00 -0.0000000000e+00 -2.1669293481e+03 2.1669293481e+03 0.0000000000e+00 0.0000e+00 -1.0000e+00
      -13  1    1    2    0    0 +1.2720203167e+03 +1.4890819044e+02 -1.8245300007e+03 2.2291520941e+03 0.0000000000e+00 0.0000e+00 -1.0000e+00
       13  1    1    2    0    0 -1.2720203167e+03 -1.4890819044e+02 +2.7870107629e+03 3.0671873643e+03 0.0000000000e+00 0.0000e+00 1.0000e+00
<mgrwt>
<rscale>  0 0.52081515E+04</rscale>
<asrwt>0</asrwt>
<pdfrwt beam="1">  1        2 0.48144771E+00 0.52081515E+04</pdfrwt>
<pdfrwt beam="2">  1       -2 0.33337374E+00 0.52081515E+04</pdfrwt>
<totfact> 0.17801385E-02</totfact>
</mgrwt>
<rwgt>
<wgt id='morphing_basis_vector_1'> +7.6528291e-06 </wgt>
<wgt id='morphing_basis_vector_2'> +5.2015590e-06 </wgt>
<wgt id='morphing_basis_vector_3'> +8.4344805e-06 </wgt>
<wgt id='morphing_basis_vector_4'> +6.0963251e-06 </wgt>
<wgt id='morphing_basis_vector_5'> +9.7245228e-06 </wgt>
</rwgt>
</event>
<event>
 4      1 +7.6845000e-11 4.80782100e+03 7.81860800e-03 7.41152900e-02
        2 -1    0    0  501    0 +0.0000000000e+00 +0.0000000000e+00 +3.0175744631e+03 3.0175744631e+03 0.0000000000e+00 0.0000e+00 -1.0000e+00
       -2 -1    0    0    0  501 -0.0000000000e+00 -0.0000000000e+00 -1.9150431203e+03 1.9150431203e+03 0.0000000000e+00 0.0000e+00 1.0000e+00
      -13  1    1    2    0    0 -8.0276704806e+02 +1.0707179625e+03 -1.4975459550e+03 2.0083614655e+03 0.0000000000e+00 0.0000e+00 1.0000e+00
       13  1    1    2    0    0 +8.0276704806e+02 -1.0707179625e+03 +2.6000772978e+03 2.9242561179e+03 0.0000000000e+00 0.0000e+00 -1.0000e+00
<mgrwt>
<rscale>  0 0.48078208E+04</rscale>
<asrwt>0</asrwt>
<pdfrwt beam="1">  1        2 0.46424223E+00 0.48078208E+04</pdfrwt>
<pdfrwt beam="2">  1       -2 0.29462202E+00 0.48078208E+04</pdfrwt>
<totfact> 0.39473688E-02</totfact>
</mgrwt>
<rwgt>
<wgt id='morphing_basis_vector_1'> +5.5642149e-06 </wgt>
<wgt id='morphing_basis_vector_2'> +3.7814698e-06 </wgt>
<wgt id='morphing_basis_vector_3'> +6.1269680e-06 </wgt>
<wgt id='morphing_basis_vector_4'> +4.4209683e-06 </wgt>
<wgt id='morphing_basis_vector_5'> +7.0546772e-06 </wgt>
</rwgt>
</event>
<event>
 4      1 +7.6845000e-11 4.63242300e+03 7.81860800e-03 7.43728500e-02
        2 -1    0    0  501    0 +0.0000000000e+00 +0.0000000000e+00 +2.2269450103e+03 2.2269450103e+03 0.0000000000e+00 0.0000e+00 1.0000e+00
       -2 -1    0    0    0  501 -0.0000000000e+00 -0.0000000000e+00 -2.4090561894e+03 2.4090561894e+03 0.0000000000e+00 0.0000e+00 -1.0000e+00
      -13  1    1    2    0    0 -9.7083614624e+02 +1.9539059578e+03 -8.6919354242e+02 2.3485673780e+03 0.0000000000e+00 0.0000e+00 -1.0000e+00
       13  1    1    2    0    0 +9.7083614624e+02 -1.9539059578e+03 +6.8708236337e+02 2.2874338217e+03 0.0000000000e+00 0.0000e+00 1.0000e+00
<mgrwt>
<rscale>  0 0.46324230E+04</rscale>
<asrwt>0</asrwt>
<pdfrwt beam="1">  1        2 0.34260693E+00 0.46324230E+04</pdfrwt>
<pdfrwt beam="2">  1       -2 0.37062403E+00 0.46324230E+04</pdfrwt>
<totfact> 0.38465812E-02</totfact>
</mgrwt>
<rwgt>
<wgt id='morphing_basis_vector_1'> +4.8437487e-06 </wgt>
<wgt id='morphing_basis_vector_2'> +3.3935121e-06 </wgt>
<wgt id='morphing_basis_vector_3'> +5.3544280e-06 </wgt>
<wgt id='morphing_basis_vector_4'> +3.7115492e-06 </wgt>
<wgt id='morphing_basis_vector_5'> +6.0688707e-06 </wgt>
</rwgt>
</event>
<event>
 4      1 +7.6845000e-11 4.88207000e+03 7.81860800e-03 7.40095700e-02
        2 -1    0    0  501    0 +0.0000000000e+00 +0.0000000000e+00 +2.2568175699e+03 2.2568175699e+03 0.0000000000e+00 0.0000e+00 -1.0000e+00
       -2 -1    0    0    0  501 -0.0000000000e+00 -0.0000000000e+00 -2.6402900841e+03 2.6402900841e+03 0.0000000000e+00 0.0000e+00 1.0000e+00
      -13  1    1    2    0    0 -8.4392477435e+02 -5.6430243136e+02 -2.4184852012e+03 2.6229214490e+03 0.0000000000e+00 0.0000e+00 1.0000e+00
       13  1    1    2    0    0 +8.4392477435e+02 +5.6430243136e+02 +2.0350126870e+03 2.2741862050e+03 0.0000000000e+00 0.0000e+00 -1.0000e+00
<mgrwt>
<rscale>  0 0.48820705E+04</rscale>
<asrwt>0</asrwt>
<pdfrwt beam="1">  1        2 0.34720270E+00 0.48820705E+04</pdfrwt>
<pdfrwt beam="2">  1       -2 0.40619848E+00 0.48820705E+04</pdfrwt>
<totfact> 0.21316852E-02</totfact>
</mgrwt>
<rwgt>
<wgt id='morphing_basis_vector_1'> +5.9131948e-06 </wgt>
<wgt id='morphing_basis_vector_2'> +4.0157297e-06 </wgt>
<wgt id='morphing_basis_vector_3'> +6.5117576e-06 </wgt>
<wgt id='morphing_basis_vector_4'> +4.7046493e-06 </wgt>
<wgt id='morphing_basis_vector_5'> +7.5024979e-06 </wgt>
</rwgt>
</event>
<event>
 4      1 +7.6845000e-11 4.89846100e+03 7.81860800e-03 7.39864900e-02
        2 -1    0    0  501    0 +0.0000000000e+00 +0.0000000000e+00 +3.9270073376e+03 3.9270073376e+03 0.0000000000e+00 0.0000e+00 1.0000e+00
       -2 -1    0    0    0  501 -0.0000000000e+00 -0.0000000000e+00 -1.5275578222e+03 1.5275578222e+03 0.0000000000e+00 0.0000e+00 -1.0000e+00
      -13  1    1    2    0    0 +1.2239174286e+03 -1.9955116612e+03 +2.0016879546e+03 3.0800641762e+03 0.0000000000e+00 0.0000e+00 -1.0000e+00
       13  1    1    2    0    0 -1.2239174286e+03 +1.9955116612e+03 +3.9776156086e+02 2.3745009836e+03 0.0000000000e+00 0.0000e+00 1.0000e+00
<mgrwt>
<rscale>  0 0.48984613E+04</rscale>
<asrwt>0</asrwt>
<pdfrwt beam="1">  1        2 0.60415497E+00 0.48984613E+04</pdfrwt>
<pdfrwt beam="2">  1       -2 0.23500890E+00 0.48984613E+04</pdfrwt>
<totfact> 0.21660148E-02</totfact>
</mgrwt>
<rwgt>
<wgt id='morphing_basis_vector_1'> +6.5926476e-06 </wgt>
<wgt id='morphing_basis_vector_2'> +5.8317367e-06 </wgt>
<wgt id='morphing_basis_vector_3'> +7.5723666e-06 </wgt>
<wgt id='morphing_basis_vector_4'> +3.4908119e-06 </wgt>
<wgt id='morphing_basis_vector_5'> +7.4970493e-06 </wgt>
</rwgt>
</event>
<event>
 4      1 +7.6845000e-11 5.23665000e+03 7.81860800e-03 7.35297500e-02
        2 -1    0    0  501    0 +0.0000000000e+00 +0.0000000000e+00 +2.8909910926e+03 2.8909910926e+03 0.0000000000e+00 0.0000e+00 -1.0000e+00
       -2 -1    0    0    0  501 -0.0000000000e+00 -0.0000000000e+00 -2.3713759491e+03 2.3713759491e+03 0.0000000000e+00 0.0000e+00 1.0000e+00
      -13  1    1    2    0    0 +1.9608284473e+03 +1.6547974481e+03 -2.6469811659e+02 2.5793929299e+03 0.0000000000e+00 0.0000e+00 1.0000e+00
       13  1    1    2    0    0 -1.9608284473e+03 -1.6547974481e+03 +7.8431326012e+02 2.6829741117e+03 0.0000000000e+00 0.0000e+00 -1.0000e+00
<mgrwt>
<rscale>  0 0.52366504E+04</rscale>
<asrwt>0</asrwt>
<pdfrwt beam="1">  1        2 0.44476786E+00 0.52366504E+04</pdfrwt>
<pdfrwt beam="2">  1       -2 0.36482707E+00 0.52366504E+04</pdfrwt>
<totfact> 0.15893538E-02</totfact>
</mgrwt>
<rwgt>
<wgt id='morphing_basis_vector_1'> +7.9554263e-06 </wgt>
<wgt id='morphing_basis_vector_2'> +5.7103353e-06 </wgt>
<wgt id='morphing_basis_vector_3'> +8.8387930e-06 </wgt>
<wgt id='morphing_basis_vector_4'> +5.9449210e-06 </wgt>
<wgt id='morphing_basis_vector_5'> +9.9157294e-06 </wgt>
</rwgt>
</event>
<event>
 4      1 +7.6845000e-11 4.85816700e+03 7.81860800e-03 7.40434000e-02
        2 -1    0    0  501    0 +0.0000000000e+00 +0.0000000000e+00 +2.4548043418e+03 2.4548043418e+03 0.0000000000e+00 0.0000e+00 1.0000e+00
       -2 -1    0    0    0  501 -0.0000000000e+00 -0.0000000000e+00 -2.4036323190e+03 2.4036323190e+03 0.0000000000e+00 0.0000e+00 -1.0000e+00
      -13  1    1    2    0    0 +1.8792158756e+03 -1.0880840890e+03 +1.1142545754e+03 2.4406848528e+03 0.0000000000e+00 0.0000e+00 1.0000e+00
       13  1    1    2    0    0 -1.8792158756e+03 +1.0880840890e+03 -1.0630825526e+03 2.4177518081e+03 0.0000000000e+00 0.0000e+00 -1.0000e+00
<mgrwt>
<rscale>  0 0.48581672E+04</rscale>
<asrwt>0</asrwt>
<pdfrwt beam="1">  1        2 0.37766221E+00 0.48581672E+04</pdfrwt>
<pdfrwt beam="2">  1       -2 0.36978959E+00 0.48581672E+04</pdfrwt>
<totfact> 0.28177922E-02</totfact>
</mgrwt>
<rwgt>
<wgt id='morphing_basis_vector_1'> +6.7258572e-06 </wgt>
<wgt id='morphing_basis_vector_2'> +6.6609899e-06 </wgt>
<wgt id='morphing_basis_vector_3'> +7.8881218e-06 </wgt>
<wgt id='morphing_basis_vector_4'> +2.6387711e-06 </wgt>
<wgt id='morphing_basis_vector_5'> +7.1907717e-06 </wgt>
</rwgt>
</event>
<event>
 4      1 +7.6845000e-11 4.73139300e+03 7.81860800e-03 7.42261400e-02
        2 -1    0    0  501    0 +0.0000000000e+00 +0.0000000000e+00 +3.2007116382e+03 3.2007116382e+03 0.0000000000e+00 0.0000e+00 -1.0000e+00
       -2 -1    0    0    0  501 -0.0000000000e+00 -0.0000000000e+00 -1.7485233454e+03 1.7485233454e+03 0.0000000000e+00 0.0000e+00 1.0000e+00
      -13  1    1    2    0    0 -5.9031583496e+02 -1.5907076496e+03 -9.9835136711e+02 1.9686363463e+03 0.0000000000e+00 0.0000e+00 1.0000e+00
       13  1    1    2    0    0 +5.9031583496e+02 +1.5907076496e+03 +2.4505396600e+03 2.9805986373e+03 0.0000000000e+00 0.0000e+00 -1.0000e+00
<mgrwt>
<rscale>  0 0.47313926E+04</rscale>
<asrwt>0</asrwt>
<pdfrwt beam="1">  1        2 0.49241717E+00 0.47313926E+04</pdfrwt>
<pdfrwt beam="2">  1       -2 0.26900359E+00 0.47313926E+04</pdfrwt>
<totfact> 0.44761464E-02</totfact>
</mgrwt>
<rwgt>
<wgt id='morphing_basis_vector_1'> +5.2249206e-06 </wgt>
<wgt id='morphing_basis_vector_2'> +3.5615828e-06 </wgt>
<wgt id='morphing_basis_vector_3'> +5.7546843e-06 </wgt>
<wgt id='morphing_basis_vector_4'> +4.1350305e-06 </wgt>
<wgt id='morphing_basis_vector_5'> +6.6143163e-06 </wgt>
</rwgt>
</event>
<event>
 4      1 +7.6845000e-11 4.85108200e+03 7.81860800e-03 7.40534600e-02
        2 -1    0    0  501    0 +0.0000000000e+00 +0.0000000000e+00 +3.7235246867e+03 3.7235246867e+03 0.0000000000e+00 0.0000e+00 1.0000e+00
       -2 -1    0    0    0  501 -0.0000000000e+00 -0.0000000000e+00 -1.5800216685e+03 1.5800216685e+03 0.0000000000e+00 0.0000e+00 -1.0000e+00
      -13  1    1    2    0    0 +9.7747725649e+02 +1.1665375223e+02 -1.3518055811e+03 1.6722584172e+03 0.0000000000e+00 0.0000e+00 -1.0000e+00
       13  1    1    2    0    0 -9.7747725649e+02 -1.1665375223e+02 +3.4953085993e+03 3.6312879381e+03 0.0000000000e+00 0.0000e+00 1.0000e+00
<mgrwt>
<rscale>  0 0.48510822E+04</rscale>
<asrwt>0</asrwt>
<pdfrwt beam="1">  1        2 0.57284995E+00 0.48510822E+04</pdfrwt>
<pdfrwt beam="2">  1       -2 0.24308026E+00 0.48510822E+04</pdfrwt>
<totfact> 0.27860872E-02</totfact>
</mgrwt>
<rwgt>
<wgt id='morphing_basis_vector_1'> +5.7649410e-06 </wgt>
<wgt id='morphing_basis_vector_2'> +3.9147171e-06 </wgt>
<wgt id='morphing_basis_vector_3'> +6.3479454e-06 </wgt>
<wgt id='morphing_basis_vector_4'> +4.5860658e-06 </wgt>
<wgt id='morphing_basis_vector_5'> +7.3132055e-06 </wgt>
</rwgt>
</event>
<event>
 4      1 +7.6845000e-11 5.25662000e+03 7.81860800e-03 7.35038900e-02
        2 -1    0    0  501    0 +0.0000000000e+00 +0.0000000000e+00 +3.9484203217e+03 3.9484203217e+03 0.0000000000e+00 0.0000e+00 -1.0000e+00
       -2 -1    0    0    0  501 -0.0000000000e+00 -0.0000000000e+00 -1.7495636284e+03 1.7495636284e+03 0.0000000000e+00 0.0000e+00 1.0000e+00
      -13  1    1    2    0    0 -2.5957221827e+03 +1.9735604237e+02 +7.0666612472e+02 2.6974247106e+03 0.0000000000e+00 0.0000e+00 1.0000e+00
       13  1    1    2    0    0 +2.5957221827e+03 -1.9735604237e+02 +1.4921905685e+03 3.0005592395e+03 0.0000000000e+00 0.0000e+00 -1.0000e+00
<mgrwt>
<rscale>  0 0.52566197E+04</rscale>
<asrwt>0</asrwt>
<pdfrwt beam="1">  1        2 0.60744928E+00 0.52566197E+04</pdfrwt>
<pdfrwt beam="2">  1       -2 0.26916364E+00 0.52566197E+04</pdfrwt>
<totfact> 0.11742705E-02</totfact>
</mgrwt>
<rwgt>
<wgt id='morphing_basis_vector_1'> +8.1144597e-06 </wgt>
<wgt id='morphing_basis_vector_2'> +5.9075048e-06 </wgt>
<wgt id='morphing_basis_vector_3'> +9.0351229e-06 </wgt>
<wgt id='morphing_basis_vector_4'> +5.9566866e-06 </wgt>
<wgt id='morphing_basis_vector_5'> +1.0061598e-05 </wgt>
</rwgt>
</event>
<event>
 4      1 +7.6845000e-11 5.09465100e+03 7.81860800e-03 7.37170900e-02
        2 -1    0    0  501    0 +0.0000000000e+00 +0.0000000000e+00 +3.6783731201e+03 3.6783731201e+03 0.0000000000e+00 0.0000e+00 -1.0000e+00
       -2 -1    0    0    0  501 -0.0000000000e+00 -0.0000000000e+00 -1.7640591202e+03 1.7640591202e+03 0.0000000000e+00 0.0000e+00 1.0000e+00
      -13  1    1    2    0    0 +8.1331044934e+02 -2.2306019820e+03 +1.9430949356e+03 3.0680086405e+03 0.0000000000e+00 0.0000e+00 1.0000e+00
       13  1    1    2    0    0 -8.1331044934e+02 +2.2306019820e+03 -2.8780935704e+01 2.3744235999e+03 0.0000000000e+00 0.0000e+00 -1.0000e+00
<mgrwt>
<rscale>  0 0.50946512E+04</rscale>
<asrwt>0</asrwt>
<pdfrwt beam="1">  1        2 0.56590356E+00 0.50946512E+04</pdfrwt>
<pdfrwt beam="2">  1       -2 0.27139371E+00 0.50946512E+04</pdfrwt>
<totfact> 0.18915723E-02</totfact>
</mgrwt>
<rwgt>
<wgt id='morphing_basis_vector_1'> +7.8774997e-06 </wgt>
<wgt id='morphing_basis_vector_2'> +7.3132180e-06 </wgt>
<wgt id='morphing_basis_vector_3'> +9.1333255e-06 </wgt>
<wgt id='morphing_basis_vector_4'> +3.7294702e-06 </wgt>
<wgt id='morphing_basis_vector_5'> +8.7465448e-06 </wgt>
</rwgt>
</event>
<event>
 4      1 +7.6845000e-11 4.68225900e+03 7.81860800e-03 7.42985200e-02
        2 -1    0    0  501    0 +0.0000000000e+00 +0.0000000000e+00 +2.0143338426e+03 2.0143338426e+03 0.0000000000e+00 0.0000e+00 -1.0000e+00
       -2 -1    0    0    0  501 -0.0000000000e+00 -0.0000000000e+00 -2.7209433664e+03 2.7209433664e+03 0.0000000000e+00 0.0000e+00 1.0000e+00
      -13  1    1    2    0    0 -1.2209319941e+03 +1.9972424054e+03 -3.1774777822e+02 2.3623327054e+03 0.0000000000e+00 0.0000e+00 1.0000e+00
       13  1    1    2    0    0 +1.2209319941e+03 -1.9972424054e+03 -3.8886174560e+02 2.3729445037e+03 0.0000000000e+00 0.0000e+00 -1.0000e+00
<mgrwt>
<rscale>  0 0.46822594E+04</rscale>
<asrwt>0</asrwt>
<pdfrwt beam="1">  1        2 0.30989752E+00 0.46822594E+04</pdfrwt>
<pdfrwt beam="2">  1       -2 0.41860667E+00 0.46822594E+04</pdfrwt>
<totfact> 0.24640304E-02</totfact>
</mgrwt>
<rwgt>
<wgt id='morphing_basis_vector_1'> +5.1999370e-06 </wgt>
<wgt id='morphing_basis_vector_2'> +3.9681157e-06 </wgt>
<wgt id='morphing_basis_vector_3'> +5.8234908e-06 </wgt>
<wgt id='morphing_basis_vector_4'> +3.5656836e-06 </wgt>
<wgt id='morphing_basis_vector_5'> +6.3094198e-06 </wgt>
</rwgt>
</event>
<event>
 4      1 +7.6845000e-11 4.71737700e+03 7.81860800e-03 7.42467000e-02
        2 -1    0    0  501    0 +0.0000000000e+00 +0.0000000000e+00 +3.3292058264e+03 3.3292058264e+03 0.0000000000e+00 0.0000e+00 -1.0000e+00
       -2 -1    0    0    0  501 -0.0000000000e+00 -0.0000000000e+00 -1.6710923655e+03 1.6710923655e+03 0.0000000000e+00 0.0000e+00 1.0000e+00
      -13  1    1    2    0    0 +2.2489386918e+03 -6.1537303991e+02 +1.2068022374e+03 2.6254106075e+03 0.0000000000e+00 0.0000e+00 1.0000e+00
       13  1    1    2    0    0 -2.2489386918e+03 +6.1537303991e+02 +4.5131122353e+02 2.3748875844e+03 0.0000000000e+00 0.0000e+00 -1.0000e+00
<mgrwt>
<rscale>  0 0.47173766E+04</rscale>
<asrwt>0</asrwt>
<pdfrwt beam="1">  1        2 0.51218551E+00 0.47173766E+04</pdfrwt>
<pdfrwt beam="2">  1       -2 0.25709113E+00 0.47173766E+04</pdfrwt>
<totfact> 0.44083521E-02</totfact>
</mgrwt>
<rwgt>
<wgt id='morphing_basis_vector_1'> +5.4789433e-06 </wgt>
<wgt id='morphing_basis_vector_2'> +4.4461440e-06 </wgt>
<wgt id='morphing_basis_vector_3'> +6.1974354e-06 </wgt>
<wgt id='morphing_basis_vector_4'> +3.4150622e-06 </wgt>
<wgt id='morphing_basis_vector_5'> +6.4798363e-06 </wgt>
</rwgt>
</event>
<event>
 4      1 +7.6845000e-11 4.94920500e+03 7.81860800e-03 7.39155900e-02
        2 -1    0    0  501    0 +0.0000000000e+00 +0.0000000000e+00 +1.7741412840e+03 1.7741412840e+03 0.0000000000e+00 0.0000e+00 -1.0000e+00
       -2 -1    0    0    0  501 -0.0000000000e+00 -0.0000000000e+00 -3.4516177695e+03 3.4516177695e+03 0.0000000000e+00 0.0000e+00 1.0000e+00
      -13  1    1    2    0    0 -1.7611892873e+03 -6.9878064699e+02 -2.5194021006e+03 3.1523751431e+03 0.0000000000e+00 0.0000e+00 1.0000e+00
       13  1    1    2    0    0 +1.7611892873e+03 +6.9878064699e+02 +8.4192561516e+02 2.0733839104e+03 0.0000000000e+00 0.0000e+00 -1.0000e+00
<mgrwt>
<rscale>  0 0.49492050E+04</rscale>
<asrwt>0</asrwt>
<pdfrwt beam="1">  1        2 0.27294481E+00 0.49492050E+04</pdfrwt>
<pdfrwt beam="2">  1       -2 0.53101812E+00 0.49492050E+04</pdfrwt>
<totfact> 0.50959550E-03</totfact>
</mgrwt>
<rwgt>
<wgt id='morphing_basis_vector_1'> +6.2554507e-06 </wgt>
<wgt id='morphing_basis_vector_2'> +4.2743532e-06 </wgt>
<wgt id='morphing_basis_vector_3'> +6.8957838e-06 </wgt>
<wgt id='morphing_basis_vector_4'> +4.9454236e-06 </wgt>
<wgt id='morphing_basis_vector_5'> +7.9231503e-06 </wgt>
</rwgt>
</event>
<event>
 4      1 +7.6845000e-11 4.98499100e+03 7.81860800e-03 7.38661100e-02
        2 -1    0    0  501    0 +0.0000000000e+00 +0.0000000000e+00 +3.7952480344e+03 3.7952480344e+03 0.0000000000e+00 0.0000e+00 1.0000e+00
       -2 -1    0    0    0  501 -0.0000000000e+00 -0.0000000000e+00 -1.6369242315e+03 1.6369242315e+03 0.0000000000e+00 0.0000e+00 -1.0000e+00
      -13  1    1    2    0    0 -2.1413381223e+03 -9.7361970948e+02 +1.8105068085e+02 2.3592464139e+03 0.0000000000e+00 0.0000e+00 -1.0000e+00
       13  1    1    2    0    0 +2.1413381223e+03 +9.7361970948e+02 +1.9772731221e+03 3.0729258520e+03 0.0000000000e+00 0.0000e+00 1.0000e+00
<mgrwt>
<rscale>  0 0.49849909E+04</rscale>
<asrwt>0</asrwt>
<pdfrwt beam="1">  1        2 0.58388431E+00 0.49849909E+04</pdfrwt>
<pdfrwt beam="2">  1       -2 0.25183450E+00 0.49849909E+04</pdfrwt>
<totfact> 0.21047213E-02</totfact>
</mgrwt>
<rwgt>
<wgt id='morphing_basis_vector_1'> +6.4900442e-06 </wgt>
<wgt id='morphing_basis_vector_2'> +4.5527939e-06 </wgt>
<wgt id='morphing_basis_vector_3'> +7.1822491e-06 </wgt>
<wgt id='morphing_basis_vector_4'> +4.9790159e-06 </wgt>
<wgt id='morphing_basis_vector_5'> +8.1462166e-06 </wgt>
</rwgt>
</event>
<event>
 4      1 +7.6845000e-11 4.76121800e+03 7.81860800e-03 7.41826400e-02
        2 -1    0    0  501    0 +0.0000000000e+00 +0.0000000000e+00 +3.1682059661e+03 3.1682059661e+03 0.0000000000e+00 0.0000e+00 1.0000e+00
       -2 -1    0    0    0  501 -0.0000000000e+00 -0.0000000000e+00 -1.7888038133e+03 1.7888038133e+03 0.0000000000e+00 0.0000e+00 -1.0000e+00
      -13  1    1    2    0    0 -9.6358818787e+02 -2.0554424400e+03 -5.6684885545e+01 2.2708058032e+03 0.0000000000e+00 0.0000e+00 -1.0000e+00
       13  1    1    2    0    0 +9.6358818787e+02 +2.0554424400e+03 +1.4360870383e+03 2.6862039762e+03 0.0000000000e+00 0.0000e+00 1.0000e+00
<mgrwt>
<rscale>  0 0.47612179E+04</rscale>
<asrwt>0</asrwt>
<pdfrwt beam="1">  1        2 0.48741630E+00 0.47612179E+04</pdfrwt>
<pdfrwt beam="2">  1       -2 0.27520059E+00 0.47612179E+04</pdfrwt>
<totfact> 0.42617778E-02</totfact>
</mgrwt>
<rwgt>
<wgt id='morphing_basis_vector_1'> +5.4115944e-06 </wgt>
<wgt id='morphing_basis_vector_2'> +3.8112089e-06 </wgt>
<wgt id='morphing_basis_vector_3'> +5.9888550e-06 </wgt>
<wgt id='morphing_basis_vector_4'> +4.1253882e-06 </wgt>
<wgt id='morphing_basis_vector_5'> +6.7736268e-06 </wgt>
</rwgt>
</event>
<event>
 4      1 +7.6845000e-11 5.18645400e+03 7.81860800e-03 7.35952700e-02
        2 -1    0    0  501    0 +0.0000000000e+00 +0.0000000000e+00 +2.2004289283e+03 2.2004289283e+03 0.0000000000e+00 0.0000e+00 -1.0000e+00
       -2 -1    0    0    0  501 -0.0000000000e+00 -0.0000000000e+00 -3.0561430008e+03 3.0561430008e+03 0.0000000000e+00 0.0000e+00 1.0000e+00
      -13  1    1    2    0    0 +7.3535660456e+02 +8.1501556270e+02 -2.8090511033e+03 3.0159190646e+03 0.0000000000e+00 0.0000e+00 1.0000e+00
       13  1    1    2    0    0 -7.3535660456e+02 -8.1501556270e+02 +1.9533370308e+03 2.2406528645e+03 0.0000000000e+00 0.0000e+00 -1.0000e+00
<mgrwt>
<rscale>  0 0.51864537E+04</rscale>
<asrwt>0</asrwt>
<pdfrwt beam="1">  1        2 0.33852753E+00 0.51864537E+04</pdfrwt>
<pdfrwt beam="2">  1       -2 0.47017584E+00 0.51864537E+04</pdfrwt>
<totfact> 0.81715382E-03</totfact>
</mgrwt>
<rwgt>
<wgt id='morphing_basis_vector_1'> +7.5257552e-06 </wgt>
<wgt id='morphing_basis_vector_2'> +5.1134048e-06 </wgt>
<wgt id='morphing_basis_vector_3'> +8.2936571e-06 </wgt>
<wgt id='morphing_basis_vector_4'> +5.9966148e-06 </wgt>
<wgt id='morphing_basis_vector_5'> +9.5631384e-06 </wgt>
</rwgt>
</event>
<event>
 4      1 +7.6845000e-11 5.30806100e+03 7.81860800e-03 7.34378200e-02
        2 -1    0    0  501    0 +0.0000000000e+00 +0.0000000000e+00 +2.5253578231e+03 2.5253578231e+03 0.0000000000e+00 0.0000e+00 1.0000e+00
       -2 -1    0    0    0  501 -0.0000000000e+00 -0.0000000000e+00 -2.7892591566e+03 2.7892591566e+03 0.0000000000e+00 0.0000e+00 -1.0000e+00
      -13  1    1    2    0    0 +6.8279928975e+02 -2.2741811433e+03 +1.0551624020e+03 2.5983614908e+03 0.0000000000e+00 0.0000e+00 1.0000e+00
       13  1    1    2    0    0 -6.8279928975e+02 +2.2741811433e+03 -1.3190637355e+03 2.7162554889e+03 0.0000000000e+00 0.0000e+00 -1.0000e+00
<mgrwt>
<rscale>  0 0.53080608E+04</rscale>
<asrwt>0</asrwt>
<pdfrwt beam="1">  1        2 0.38851659E+00 0.53080608E+04</pdfrwt>
<pdfrwt beam="2">  1       -2 0.42911679E+00 0.53080608E+04</pdfrwt>
<totfact> 0.10109562E-02</totfact>
</mgrwt>
<rwgt>
<wgt id='morphing_basis_vector_1'> +9.5692658e-06 </wgt>
<wgt id='morphing_basis_vector_2'> +9.4697808e-06 </wgt>
<wgt id='morphing_basis_vector_3'> +1.1237592e-05 </wgt>
<wgt id='morphing_basis_vector_4'> +3.7754108e-06 </wgt>
<wgt id='morphing_basis_vector_5'> +1.0259417e-05 </wgt>
</rwgt>
</event>
<event>
 4      1 +7.6845000e-11 4.85025300e+03 7.81860800e-03 7.40546400e-02
        2 -1    0    0  501    0 +0.0000000000e+00 +0.0000000000e+00 +2.5030888685e+03 2.5030888685e+03 0.0000000000e+00 0.0000e+00 -1.0000e+00
       -2 -1    0    0    0  501 -0.0000000000e+00 -0.0000000000e+00 -2.3495919095e+03 2.3495919095e+03 0.0000000000e+00 0.0000e+00 1.0000e+00
      -13  1    1    2    0    0 -8.7367730069e+01 +6.1471501863e+02 -2.2687224551e+03 2.3521499214e+03 0.0000000000e+00 0.0000e+00 1.0000e+00
       13  1    1    2    0    0 +8.7367730069e+01 -6.1471501863e+02 +2.4222194142e+03 2.5005308566e+03 0.0000000000e+00 0.0000e+00 -1.0000e+00
<mgrwt>
<rscale>  0 0.48502525E+04</rscale>
<asrwt>0</asrwt>
<pdfrwt beam="1">  1        2 0.38509060E+00 0.48502525E+04</pdfrwt>
<pdfrwt beam="2">  1       -2 0.36147568E+00 0.48502525E+04</pdfrwt>
<totfact> 0.29846850E-02</totfact>
</mgrwt>
<rwgt>
<wgt id='morphing_basis_vector_1'> +5.7606035e-06 </wgt>
<wgt id='morphing_basis_vector_2'> +3.9108444e-06 </wgt>
<wgt id='morphing_basis_vector_3'> +6.3429431e-06 </wgt>
<wgt id='morphing_basis_vector_4'> +4.5837878e-06 </wgt>
<wgt id='morphing_basis_vector_5'> +7.3082594e-06 </wgt>
</rwgt>
</event>
<event>
 4      1 +7.6845000e-11 5.25853400e+03 7.81860800e-03 7.35014200e-02
        2 -1    0    0  501    0 +0.0000000000e+00 +0.0000000000e+00 +3.5045117283e+03 3.5045117283e+03 0.0000000000e+00 0.0000e+00 1.0000e+00
       -2 -1    0    0    0  501 -0.0000000000e+00 -0.0000000000e+00 -1.9726132447e+03 1.9726132447e+03 0.0000000000e+00 0.0000e+00 -1.0000e+00
      -13  1    1    2    0    0 -1.6828647673e+03 -9.2428560778e+02 -1.1050249329e+03 2.2152692414e+03 0.0000000000e+00 0.0000e+00 -1.0000e+00
       13  1    1    2    0    0 +1.6828647673e+03 +9.2428560778e+02 +2.6369234165e+03 3.2618557316e+03 0.0000000000e+00 0.0000e+00 1.0000e+00
<mgrwt>
<rscale>  0 0.52585345E+04</rscale>
<asrwt>0</asrwt>
<pdfrwt beam="1">  1        2 0.53915565E+00 0.52585345E+04</pdfrwt>
<pdfrwt beam="2">  1       -2 0.30347896E+00 0.52585345E+04</pdfrwt>
<totfact> 0.15305788E-02</totfact>
</mgrwt>
<rwgt>
<wgt id='morphing_basis_vector_1'> +7.9622791e-06 </wgt>
<wgt id='morphing_basis_vector_2'> +5.4346405e-06 </wgt>
<wgt id='morphing_basis_vector_3'> +8.7816768e-06 </wgt>
<wgt id='morphing_basis_vector_4'> +6.3152098e-06 </wgt>
<wgt id='morphing_basis_vector_5'> +1.0105665e-05 </wgt>
</rwgt>
</event>
<event>
 4      1 +7.6845000e-11 5.38648700e+03 7.81860800e-03 7.33385500e-02
        2 -1    0    0  501    0 +0.0000000000e+00 +0.0000000000e+00 +2.6643511472e+03 2.6643511472e+03 0.0000000000e+00 0.0000e+00 -1.0000e+00
       -2 -1    0    0    0  501 -0.0000000000e+00 -0.0000000000e+00 -2.7224487934e+03 2.7224487934e+03 0.0000000000e+00 0.0000e+00 1.0000e+00
      -13  1    1    2    0    0 -1.9399674546e+03 -1.2401841788e+03 -1.4262804183e+03 2.7084693747e+03 0.0000000000e+00 0.0000e+00 1.0000e+00
       13  1    1    2    0    0 +1.9399674546e+03 +1.2401841788e+03 +1.3681827721e+03 2.6783305659e+03 0.0000000000e+00 0.0000e+00 -1.0000e+00
<mgrwt>
<rscale>  0 0.53864866E+04</rscale>
<asrwt>0</asrwt>
<pdfrwt beam="1">  1        2 0.40990018E+00 0.53864866E+04</pdfrwt>
<pdfrwt beam="2">  1       -2 0.41883828E+00 0.53864866E+04</pdfrwt>
<totfact> 0.96934153E-03</totfact>
</mgrwt>
<rwgt>
<wgt id='morphing_basis_vector_1'> +8.7864366e-06 </wgt>
<wgt id='morphing_basis_vector_2'> +6.0497679e-06 </wgt>
<wgt id='morphing_basis_vector_3'> +9.7051863e-06 </wgt>
<wgt id='morphing_basis_vector_4'> +6.9056216e-06 </wgt>
<wgt id='morphing_basis_vector_5'> +1.1124615e-05 </wgt>
</rwgt>
</event>
<event>
 4      1 +7.6845000e-11 4.66213900e+03 7.81860800e-03 7.43284200e-02
        2 -1    0    0  501    0 +0.0000000000e+00 +0.0000000000e+00 +1.9272567663e+03 1.9272567663e+03 0.0000000000e+00 0.0000e+00 1.0000e+00
       -2 -1    0    0    0  501 -0.0000000000e+00 -0.0000000000e+00 -2.8194915724e+03 2.8194915724e+03 0.0000000000e+00 0.0000e+00 -1.0000e+00
      -13  1    1    2    0    0 -1.4777398171e+03 +1.4799384678e+03 +6.0210634024e+02 2.1763420872e+03 0.0000000000e+00 0.0000e+00 1.0000e+00
       13  1    1    2    0    0 +1.4777398171e+03 -1.4799384678e+03 -1.4943411464e+03 2.5704062514e+03 0.0000000000e+00 0.0000e+00 -1.0000e+00
<mgrwt>
<rscale>  0 0.46621387E+04</rscale>
<asrwt>0</asrwt>
<pdfrwt beam="1">  1        2 0.29650104E+00 0.46621387E+04</pdfrwt>
<pdfrwt beam="2">  1       -2 0.43376793E+00 0.46621387E+04</pdfrwt>
<totfact> 0.21863997E-02</totfact>
</mgrwt>
<rwgt>
<wgt id='morphing_basis_vector_1'> +5.6931182e-06 </wgt>
<wgt id='morphing_basis_vector_2'> +5.6090322e-06 </wgt>
<wgt id='morphing_basis_vector_3'> +6.6650877e-06 </wgt>
<wgt id='morphing_basis_vector_4'> +2.2676534e-06 </wgt>
<wgt id='morphing_basis_vector_5'> +6.0977584e-06 </wgt>
</rwgt>
</event>
<event>
 4      1 +7.6845000e-11 4.62932600e+03 7.81860800e-03 7.43775000e-02
        2 -1    0    0  501    0 +0.0000000000e+00 +0.0000000000e+00 +1.8777521477e+03 1.8777521477e+03 0.0000000000e+00 0.0000e+00 -1.0000e+00
       -2 -1    0    0    0  501 -0.0000000000e+00 -0.0000000000e+00 -2.8532329625e+03 2.8532329625e+03 0.0000000000e+00 0.0000e+00 1.0000e+00
      -13  1    1    2    0    0 +1.1564813280e+03 -1.6989852065e+03 -1.5758587084e+03 2.5898514364e+03 0.0000000000e+00 0.0000e+00 1.0000e+00
       13  1    1    2    0    0 -1.1564813280e+03 +1.6989852065e+03 +6.0037789366e+02 2.1411336738e+03 0.0000000000e+00 0.0000e+00 -1.0000e+00
<mgrwt>
<rscale>  0 0.46293258E+04</rscale>
<asrwt>0</asrwt>
<pdfrwt beam="1">  1        2 0.28888495E+00 0.46293258E+04</pdfrwt>
<pdfrwt beam="2">  1       -2 0.43895891E+00 0.46293258E+04</pdfrwt>
<totfact> 0.21538547E-02</totfact>
</mgrwt>
<rwgt>
<wgt id='morphing_basis_vector_1'> +4.8101364e-06 </wgt>
<wgt id='morphing_basis_vector_2'> +3.3235936e-06 </wgt>
<wgt id='morphing_basis_vector_3'> +5.3066112e-06 </wgt>
<wgt id='morphing_basis_vector_4'> +3.7456519e-06 </wgt>
<wgt id='morphing_basis_vector_5'> +6.0562833e-06 </wgt>
</rwgt>
</event>
<event>
 4      1 +7.6845000e-11 4.71958100e+03 7.81860800e-03 7.42434600e-02
        2 -1    0    0  501    0 +0.0000000000e+00 +0.0000000000e+00 +3.7445034579e+03 3.7445034579e+03 0.0000000000e+00 0.0000e+00 -1.0000e+00
       -2 -1    0    0    0  501 -0.0000000000e+00 -0.0000000000e+00 -1.4871424509e+03 1.4871424509e+03 0.0000000000e+00 0.0000e+00 1.0000e+00
      -13  1    1    2    0    0 -9.0528486527e+02 -1.6748850891e+03 -4.1680168844e+02 1.9489752170e+03 0.0000000000e+00 0.0000e+00 1.0000e+00
       13  1    1    2    0    0 +9.0528486527e+02 +1.6748850891e+03 +2.6741626955e+03 3.2826706918e+03 0.0000000000e+00 0.0000e+00 -1.0000e+00
<mgrwt>
<rscale>  0 0.47195805E+04</rscale>
<asrwt>0</asrwt>
<pdfrwt beam="1">  1        2 0.57607745E+00 0.47195805E+04</pdfrwt>
<pdfrwt beam="2">  1       -2 0.22879115E+00 0.47195805E+04</pdfrwt>
<totfact> 0.34106445E-02</totfact>
</mgrwt>
<rwgt>
<wgt id='morphing_basis_vector_1'> +5.1802791e-06 </wgt>
<wgt id='morphing_basis_vector_2'> +3.5472026e-06 </wgt>
<wgt id='morphing_basis_vector_3'> +5.7090200e-06 </wgt>
<wgt id='morphing_basis_vector_4'> +4.0785393e-06 </wgt>
<wgt id='morphing_basis_vector_5'> +6.5470058e-06 </wgt>
</rwgt>
</event>
<event>
 4      1 +7.6845000e-11 5.45287800e+03 7.81860800e-03 7.32558600e-02
        2 -1    0    0  501    0 +0.0000000000e+00 +0.0000000000e+00 +2.4511584729e+03 2.4511584729e+03 0.0000000000e+00 0.0000e+00 -1.0000e+00
       -2 -1    0    0    0  501 -0.0000000000e+00 -0.0000000000e+00 -3.0326357334e+03 3.0326357334e+03 0.0000000000e+00 0.0000e+00 1.0000e+00
      -13  1    1    2    0    0 -5.7772955561e+02 +2.6445206416e+03 +3.7007711762e+01 2.7071443320e+03 0.0000000000e+00 0.0000e+00 1.0000e+00
       13  1    1    2    0    0 +5.7772955561e+02 -2.6445206416e+03 -6.1848497225e+02 2.7766498743e+03 0.0000000000e+00 0.0000e+00 -1.0000e+00
<mgrwt>
<rscale>  0 0.54528784E+04</rscale>
<asrwt>0</asrwt>
<pdfrwt beam="1">  1        2 0.37710130E+00 0.54528784E+04</pdfrwt>
<pdfrwt beam="2">  1       -2 0.46655934E+00 0.54528784E+04</pdfrwt>
<totfact> 0.60782628E-03</totfact>
</mgrwt>
<rwgt>
<wgt id='morphing_basis_vector_1'> +9.7045528e-06 </wgt>
<wgt id='morphing_basis_vector_2'> +7.7569334e-06 </wgt>
<wgt id='morphing_basis_vector_3'> +1.0970908e-05 </wgt>
<wgt id='morphing_basis_vector_4'> +6.2325551e-06 </wgt>
<wgt id='morphing_basis_vector_5'> +1.1599128e-05 </wgt>
</rwgt>
</event>
<event>
 4      1 +7.6845000e-11 4.92738200e+03 7.81860800e-03 7.39459800e-02
        2 -1    0    0  501    0 +0.0000000000e+00 +0.0000000000e+00 +4.2359968650e+03 4.2359968650e+03 0.0000000000e+00 0.0000e+00 1.0000e+00
       -2 -1    0    0    0  501 -0.0000000000e+00 -0.0000000000e+00 -1.4329031656e+03 1.4329031656e+03 0.0000000000e+00 0.0000e+00 -1.0000e+00
      -13  1    1    2    0    0 +1.7842592676e+03 +1.6770416978e+03 +1.7139281523e+03 2.9889127958e+03 0.0000000000e+00 0.0000e+00 -1.0000e+00
       13  1    1    2    0    0 -1.7842592676e+03 -1.6770416978e+03 +1.0891655471e+03 2.6799872348e+03 0.0000000000e+00 0.0000e+00 1.0000e+00
<mgrwt>
<rscale>  0 0.49273820E+04</rscale>
<asrwt>0</asrwt>
<pdfrwt beam="1">  1        2 0.65169182E+00 0.49273820E+04</pdfrwt>
<pdfrwt beam="2">  1       -2 0.22044664E+00 0.49273820E+04</pdfrwt>
<totfact> 0.14650921E-02</totfact>
</mgrwt>
<rwgt>
<wgt id='morphing_basis_vector_1'> +6.4675617e-06 </wgt>
<wgt id='morphing_basis_vector_2'> +5.1433011e-06 </wgt>
<wgt id='morphing_basis_vector_3'> +7.2961658e-06 </wgt>
<wgt id='morphing_basis_vector_4'> +4.1740700e-06 </wgt>
<wgt id='morphing_basis_vector_5'> +7.7265212e-06 </wgt>
</rwgt>
</event>
<event>
 4      1 +7.6845000e-11 4.72323600e+03 7.81860800e-03 7.42380900e-02
        2 -1    0    0  501    0 +0.0000000000e+00 +0.0000000000e+00 +1.5805128190e+03 1.5805128190e+03 0.0000000000e+00 0.0000e+00 1.0000e+00
       -2 -1    0    0    0  501 -0.0000000000e+00 -0.0000000000e+00 -3.5287538105e+03 3.5287538105e+03 0.0000000000e+00 0.0000e+00 -1.0000e+00
      -13  1    1    2    0    0 +1.3036993025e+03 -1.6995452214e+03 -2.0499687312e+03 2.9648705924e+03 0.0000000000e+00 0.0000e+00 -1.0000e+00
       13  1    1    2    0    0 -1.3036993025e+03 +1.6995452214e+03 +1.0172773974e+02 2.1443960371e+03 0.0000000000e+00 0.0000e+00 1.0000e+00
<mgrwt>
<rscale>  0 0.47232364E+04</rscale>
<asrwt>0</asrwt>
<pdfrwt beam="1">  1        2 0.24315582E+00 0.47232364E+04</pdfrwt>
<pdfrwt beam="2">  1       -2 0.54288520E+00 0.47232364E+04</pdfrwt>
<totfact> 0.54551376E-03</totfact>
</mgrwt>
<rwgt>
<wgt id='morphing_basis_vector_1'> +5.2168815e-06 </wgt>
<wgt id='morphing_basis_vector_2'> +3.6186734e-06 </wgt>
<wgt id='morphing_basis_vector_3'> +5.7600619e-06 </wgt>
<wgt id='morphing_basis_vector_4'> +4.0474292e-06 </wgt>
<wgt id='morphing_basis_vector_5'> +6.5637203e-06 </wgt>
</rwgt>
</event>
<event>
 4      1 +7.6845000e-11 4.94324500e+03 7.81860800e-03 7.39238800e-02
        2 -1    0    0  501    0 +0.0000000000e+00 +0.0000000000e+00 +3.5902907050e+03 3.5902907050e+03 0.0000000000e+00 0.0000e+00 -1.0000e+00
       -2 -1    0    0    0  501 -0.0000000000e+00 -0.0000000000e+00 -1.7015108023e+03 1.7015108023e+03 0.0000000000e+00 0.0000e+00 1.0000e+00
      -13  1    1    2    0    0 -3.1349990643e+02 +1.5298328622e+03 -1.1064844833e+03 1.9138909816e+03 0.0000000000e+00 0.0000e+00 1.0000e+00
       13  1    1    2    0    0 +3.1349990643e+02 -1.5298328622e+03 +2.9952643860e+03 3.3779105257e+03 0.0000000000e+00 0.0000e+00 -1.0000e+00
<mgrwt>
<rscale>  0 0.49432453E+04</rscale>
<asrwt>0</asrwt>
<pdfrwt beam="1">  1        2 0.55235242E+00 0.49432453E+04</pdfrwt>
<pdfrwt beam="2">  1       -2 0.26177089E+00 0.49432453E+04</pdfrwt>
<totfact> 0.25995747E-02</totfact>
</mgrwt>
<rwgt>
<wgt id='morphing_basis_vector_1'> +6.2176358e-06 </wgt>
<wgt id='morphing_basis_vector_2'> +4.2308076e-06 </wgt>
<wgt id='morphing_basis_vector_3'> +6.8499197e-06 </wgt>
<wgt id='morphing_basis_vector_4'> +4.9382684e-06 </wgt>
<wgt id='morphing_basis_vector_5'> +7.8863317e-06 </wgt>
</rwgt>
</event>
<event>
 4      1 +7.6845000e-11 4.69441900e+03 7.81860800e-03 7.42805200e-02
        2 -1    0    0  501    0 +0.0000000000e+00 +0.0000000000e+00 +2.1283490577e+03 2.1283490577e+03 0.0000000000e+00 0.0000e+00 -1.0000e+00
       -2 -1    0    0    0  501 -0.0000000000e+00 -0.0000000000e+00 -2.5885759059e+03 2.5885759059e+03 0.0000000000e+00 0.0000e+00 1.0000e+00
      -13  1    1    2    0    0 -1.5827516290e+03 -1.6996824233e+03 +1.1117660216e+02 2.3251630687e+03 0.0000000000e+00 0.0000e+00 1.0000e+00
       13  1    1    2    0    0 +1.5827516290e+03 +1.6996824233e+03 -5.7140345030e+02 2.3917618949e+03 0.0000000000e+00 0.0000e+00 -1.0000e+00
<mgrwt>
<rscale>  0 0.46944193E+04</rscale>
<asrwt>0</asrwt>
<pdfrwt beam="1">  1        2 0.32743832E+00 0.46944193E+04</pdfrwt>
<pdfrwt beam="2">  1       -2 0.39824245E+00 0.46944193E+04</pdfrwt>
<totfact> 0.28885558E-02</totfact>
</mgrwt>
<rwgt>
<wgt id='morphing_basis_vector_1'> +5.3666539e-06 </wgt>
<wgt id='morphing_basis_vector_2'> +4.3404313e-06 </wgt>
<wgt id='morphing_basis_vector_3'> +6.0666176e-06 </wgt>
<wgt id='morphing_basis_vector_4'> +3.3633047e-06 </wgt>
<wgt id='morphing_basis_vector_5'> +6.3553901e-06 </wgt>
</rwgt>
</event>
<event>
 4      1 +7.6845000e-11 5.29461200e+03 7.81860800e-03 7.34550200e-02
        2 -1    0    0  501    0 +0.0000000000e+00 +0.0000000000e+00 +4.6629045997e+03 4.6629045997e+03 0.0000000000e+00 0.0000e+00 -1.0000e+00
       -2 -1    0    0    0  501 -0.0000000000e+00 -0.0000000000e+00 -1.5029752270e+03 1.5029752270e+03 0.0000000000e+00 0.0000e+00 1.0000e+00
      -13  1    1    2    0    0 -2.5108134852e+02 -2.2933848414e+03 +6.8023753180e+01 2.3080907922e+03 0.0000000000e+00 0.0000e+00 1.0000e+00
       13  1    1    2    0    0 +2.5108134852e+02 +2.2933848414e+03 +3.0919056196e+03 3.8577890345e+03 0.0000000000e+00 0.0000e+00 -1.0000e+00
<mgrwt>
<rscale>  0 0.52946124E+04</rscale>
<asrwt>0</asrwt>
<pdfrwt beam="1">  1        2 0.71736993E+00 0.52946124E+04</pdfrwt>
<pdfrwt beam="2">  1       -2 0.23122696E+00 0.52946124E+04</pdfrwt>
<totfact> 0.44012374E-03</totfact>
</mgrwt>
<rwgt>
<wgt id='morphing_basis_vector_1'> +8.2091431e-06 </wgt>
<wgt id='morphing_basis_vector_2'> +5.6637024e-06 </wgt>
<wgt id='morphing_basis_vector_3'> +9.0686338e-06 </wgt>
<wgt id='morphing_basis_vector_4'> +6.4337204e-06 </wgt>
<wgt id='morphing_basis_vector_5'> +1.0381882e-05 </wgt>
</rwgt>
</event>
<event>
 4      1 +7.6845000e-11 4.85836800e+03 7.81860800e-03 7.40431200e-02
        2 -1    0    0  501    0 +0.0000000000e+00 +0.0000000000e+00 +2.3457525936e+03 2.3457525936e+03 0.0000000000e+00 0.0000e+00 1.0000e+00
       -2 -1    0    0    0  501 -0.0000000000e+00 -0.0000000000e+00 -2.5155825936e+03 2.5155825936e+03 0.0000000000e+00 0.0000e+00 -1.0000e+00
      -13  1    1    2    0    0 -1.8497712338e+03 -1.1283188023e+03 +1.0140169027e+03 2.3922765759e+03 0.0000000000e+00 0.0000e+00 1.0000e+00
       13  1    1    2    0    0 +1.8497712338e+03 +1.1283188023e+03 -1.1838469026e+03 2.4690586112e+03 0.0000000000e+00 0.0000e+00 -1.0000e+00
<mgrwt>
<rscale>  0 0.48583678E+04</rscale>
<asrwt>0</asrwt>
<pdfrwt beam="1">  1        2 0.36088501E+00 0.48583678E+04</pdfrwt>
<pdfrwt beam="2">  1       -2 0.38701271E+00 0.48583678E+04</pdfrwt>
<totfact> 0.25288607E-02</totfact>
</mgrwt>
<rwgt>
<wgt id='morphing_basis_vector_1'> +6.7374484e-06 </wgt>
<wgt id='morphing_basis_vector_2'> +6.6928785e-06 </wgt>
<wgt id='morphing_basis_vector_3'> +7.9064198e-06 </wgt>
<wgt id='morphing_basis_vector_4'> +2.6168873e-06 </wgt>
<wgt id='morphing_basis_vector_5'> +7.1900934e-06 </wgt>
</rwgt>
</event>
<event>
 4      1 +7.6845000e-11 5.09475000e+03 7.81860800e-03 7.37169600e-02
        2 -1    0    0  501    0 +0.0000000000e+00 +0.0000000000e+00 +3.5318126093e+03 3.5318126093e+03 0.0000000000e+00 0.0000e+00 1.0000e+00
       -2 -1    0    0    0  501 -0.0000000000e+00 -0.0000000000e+00 -1.8373338405e+03 1.8373338405e+03 0.0000000000e+00 0.0000e+00 -1.0000e+00
      -13  1    1    2    0    0 -1.1225461195e+02 -1.0699662082e+03 -1.5861680905e+03 1.9166006355e+03 0.0000000000e+00 0.0000e+00 -1.0000e+00
       13  1    1    2    0    0 +1.1225461195e+02 +1.0699662082e+03 +3.2806468593e+03 3.4525458143e+03 0.0000000000e+00 0.0000e+00 1.0000e+00
<mgrwt>
<rscale>  0 0.50947498E+04</rscale>
<asrwt>0</asrwt>
<pdfrwt beam="1">  1        2 0.54335578E+00 0.50947498E+04</pdfrwt>
<pdfrwt beam="2">  1       -2 0.28266675E+00 0.50947498E+04</pdfrwt>
<totfact> 0.20460020E-02</totfact>
</mgrwt>
<rwgt>
<wgt id='morphing_basis_vector_1'> +7.0089903e-06 </wgt>
<wgt id='morphing_basis_vector_2'> +4.7616292e-06 </wgt>
<wgt id='morphing_basis_vector_3'> +7.7225595e-06 </wgt>
<wgt id='morphing_basis_vector_4'> +5.5824631e-06 </wgt>
<wgt id='morphing_basis_vector_5'> +8.9026017e-06 </wgt>
</rwgt>
</event>
<event>
 4      1 +7.6845000e-11 5.21051500e+03 7.81860800e-03 7.35637700e-02
        2 -1    0    0  501    0 +0.0000000000e+00 +0.0000000000e+00 +3.5291995867e+03 3.5291995867e+03 0.0000000000e+00 0.0000e+00 -1.0000e+00
       -2 -1    0    0    0  501 -0.0000000000e+00 -0.0000000000e+00 -1.9232029254e+03 1.9232029254e+03 0.0000000000e+00 0.0000e+00 1.0000e+00
      -13  1    1    2    0    0 -5.8001034031e+02 +8.9488193902e+02 +3.2903483437e+03 3.4588463254e+03 0.0000000000e+00 0.0000e+00 -1.0000e+00
       13  1    1    2    0    0 +5.8001034031e+02 -8.9488193902e+02 -1.6843516824e+03 1.9935561868e+03 0.0000000000e+00 0.0000e+00 1.0000e+00
<mgrwt>
<rscale>  0 0.52105151E+04</rscale>
<asrwt>0</asrwt>
<pdfrwt beam="1">  1        2 0.54295378E+00 0.52105151E+04</pdfrwt>
<pdfrwt beam="2">  1       -2 0.29587737E+00 0.52105151E+04</pdfrwt>
<totfact> 0.16575113E-02</totfact>
</mgrwt>
<rwgt>
<wgt id='morphing_basis_vector_1'> +1.0455890e-05 </wgt>
<wgt id='morphing_basis_vector_2'> +1.3400885e-05 </wgt>
<wgt id='morphing_basis_vector_3'> +1.2983415e-05 </wgt>
<wgt id='morphing_basis_vector_4'> +1.5841045e-07 </wgt>
<wgt id='morphing_basis_vector_5'> +9.2430907e-06 </wgt>
</rwgt>
</event>
<event>
 4      1 +7.6845000e-11 4.83350800e+03 7.81860800e-03 7.40785000e-02
        2 -1    0    0  501    0 +0.0000000000e+00 +0.0000000000e+00 +2.9482868176e+03 2.9482868176e+03 0.0000000000e+00 0.0000e+00 1.0000e+00
       -2 -1    0    0    0  501 -0.0000000000e+00 -0.0000000000e+00 -1.9810490902e+03 1.9810490902e+03 0.0000000000e+00 0.0000e+00 -1.0000e+00
      -13  1    1    2    0    0 +1.0477057039e+03 -7.5915408941e+02 -1.5980995568e+03 2.0561917145e+03 0.0000000000e+00 0.0000e+00 -1.0000e+00
       13  1    1    2    0    0 -1.0477057039e+03 +7.5915408941e+02 +2.5653372842e+03 2.8731441932e+03 0.0000000000e+00 0.0000e+00 1.0000e+00
<mgrwt>
<rscale>  0 0.48335084E+04</rscale>
<asrwt>0</asrwt>
<pdfrwt beam="1">  1        2 0.45358259E+00 0.48335084E+04</pdfrwt>
<pdfrwt beam="2">  1       -2 0.30477678E+00 0.48335084E+04</pdfrwt>
<totfact> 0.37336328E-02</totfact>
</mgrwt>
<rwgt>
<wgt id='morphing_basis_vector_1'> +5.6833217e-06 </wgt>
<wgt id='morphing_basis_vector_2'> +3.8618305e-06 </wgt>
<wgt id='morphing_basis_vector_3'> +6.2583862e-06 </wgt>
<wgt id='morphing_basis_vector_4'> +4.5172498e-06 </wgt>
<wgt id='morphing_basis_vector_5'> +7.2072434e-06 </wgt>
</rwgt>
</event>
<event>
 4      1 +7.6845000e-11 4.66563600e+03 7.81860800e-03 7.43232100e-02
        2 -1    0    0  501    0 +0.0000000000e+00 +0.0000000000e+00 +4.0341354056e+03 4.0341354056e+03 0.0000000000e+00 0.0000e+00 -1.0000e+00
       -2 -1    0    0    0  501 -0.0000000000e+00 -0.0000000000e+00 -1.3489976647e+03 1.3489976647e+03 0.0000000000e+00 0.0000e+00 1.0000e+00
      -13  1    1    2    0    0 +4.4298554289e+02 -2.1518545524e+03 +4.3751052339e+02 2.2401182255e+03 0.0000000000e+00 0.0000e+00 1.0000e+00
       13  1    1    2    0    0 -4.4298554289e+02 +2.1518545524e+03 +2.2476272175e+03 3.1430148448e+03 0.0000000000e+00 0.0000e+00 -1.0000e+00
<mgrwt>
<rscale>  0 0.46656358E+04</rscale>
<asrwt>0</asrwt>
<pdfrwt beam="1">  1        2 0.62063621E+00 0.46656358E+04</pdfrwt>
<pdfrwt beam="2">  1       -2 0.20753810E+00 0.46656358E+04</pdfrwt>
<totfact> 0.28038053E-02</totfact>
</mgrwt>
<rwgt>
<wgt id='morphing_basis_vector_1'> +4.9835013e-06 </wgt>
<wgt id='morphing_basis_vector_2'> +3.4913729e-06 </wgt>
<wgt id='morphing_basis_vector_3'> +5.5094299e-06 </wgt>
<wgt id='morphing_basis_vector_4'> +3.8197850e-06 </wgt>
<wgt id='morphing_basis_vector_5'> +6.2454724e-06 </wgt>
</rwgt>
</event>
<event>
 4      1 +7.6845000e-11 4.72270500e+03 7.81860800e-03 7.42388700e-02
        2 -1    0    0  501    0 +0.0000000000e+00 +0.0000000000e+00 +3.0228258413e+03 3.0228258413e+03 0.0000000000e+00 0.0000e+00 1.0000e+00
       -2 -1    0    0    0  501 -0.0000000000e+00 -0.0000000000e+00 -1.8446270349e+03 1.8446270349e+03 0.0000000000e+00 0.0000e+00 -1.0000e+00
      -13  1    1    2    0    0 -6.1397673803e+02 -2.1592256774e+03 -1.6599686256e+02 2.2509504479e+03 0.0000000000e+00 0.0000e+00 1.0000e+00
       13  1    1    2    0    0 +6.1397673803e+02 +2.1592256774e+03 +1.3441956690e+03 2.6165024283e+03 0.0000000000e+00 0.0000e+00 -1.0000e+00
<mgrwt>
<rscale>  0 0.47227053E+04</rscale>
<asrwt>0</asrwt>
<pdfrwt beam="1">  1        2 0.46505013E+00 0.47227053E+04</pdfrwt>
<pdfrwt beam="2">  1       -2 0.28378878E+00 0.47227053E+04</pdfrwt>
<totfact> 0.46686134E-02</totfact>
</mgrwt>
<rwgt>
<wgt id='morphing_basis_vector_1'> +5.2369694e-06 </wgt>
<wgt id='morphing_basis_vector_2'> +3.6829182e-06 </wgt>
<wgt id='morphing_basis_vector_3'> +5.7937760e-06 </wgt>
<wgt id='morphing_basis_vector_4'> +3.9978952e-06 </wgt>
<wgt id='morphing_basis_vector_5'> +6.5567636e-06 </wgt>
</rwgt>
</event>
<event>
 4      1 +7.6845000e-11 5.35686600e+03 7.81860800e-03 7.33758400e-02
        2 -1    0    0  501    0 +0.0000000000e+00 +0.0000000000e+00 +2.8601882735e+03 2.8601882735e+03 0.0000000000e+00 0.0000e+00 -1.0000e+00
       -2 -1    0    0    0  501 -0.0000000000e+00 -0.0000000000e+00 -2.5082272192e+03 2.5082272192e+03 0.0000000000e+00 0.0000e+00 1.0000e+00
      -13  1    1    2    0    0 -5.0370008911e+01 +2.5740066927e+03 -5.6449992203e+02 2.6356607812e+03 0.0000000000e+00 0.0000e+00 1.0000e+00
       13  1    1    2    0    0 +5.0370008911e+01 -2.5740066927e+03 +9.1646097640e+02 2.7327547115e+03 0.0000000000e+00 0.0000e+00 -1.0000e+00
<mgrwt>
<rscale>  0 0.53568655E+04</rscale>
<asrwt>0</asrwt>
<pdfrwt beam="1">  1        2 0.44002897E+00 0.53568655E+04</pdfrwt>
<pdfrwt beam="2">  1       -2 0.38588111E+00 0.53568655E+04</pdfrwt>
<totfact> 0.12054009E-02</totfact>
</mgrwt>
<rwgt>
<wgt id='morphing_basis_vector_1'> +8.6693881e-06 </wgt>
<wgt id='morphing_basis_vector_2'> +6.1354838e-06 </wgt>
<wgt id='morphing_basis_vector_3'> +9.6140470e-06 </wgt>
<wgt id='morphing_basis_vector_4'> +6.5964335e-06 </wgt>
<wgt id='morphing_basis_vector_5'> +1.0867989e-05 </wgt>
</rwgt>
</event>
<event>
 4      1 +7.6845000e-11 4.92688400e+03 7.81860800e-03 7.39466700e-02
        2 -1    0    0  501    0 +0.0000000000e+00 +0.0000000000e+00 +2.1003310880e+03 2.1003310880e+03 0.0000000000e+00 0.0000e+00 1.0000e+00
       -2 -1    0    0    0  501 -0.0000000000e+00 -0.0000000000e+00 -2.8893290495e+03 2.8893290495e+03 0.0000000000e+00 0.0000e+00 -1.0000e+00
      -13  1    1    2    0    0 -7.3290599346e+02 +6.9027714222e+02 -2.6714593338e+03 2.8548780535e+03 0.0000000000e+00 0.0000e+00 -1.0000e+00
       13  1    1    2    0    0 +7.3290599346e+02 -6.9027714222e+02 +1.8824613722e+03 2.1347820840e+03 0.0000000000e+00 0.0000e+00 1.0000e+00
<mgrwt>
<rscale>  0 0.49268845E+04</rscale>
<asrwt>0</asrwt>
<pdfrwt beam="1">  1        2 0.32312786E+00 0.49268845E+04</pdfrwt>
<pdfrwt beam="2">  1       -2 0.44451216E+00 0.49268845E+04</pdfrwt>
<totfact> 0.14454224E-02</totfact>
</mgrwt>
<rwgt>
<wgt id='morphing_basis_vector_1'> +6.1325113e-06 </wgt>
<wgt id='morphing_basis_vector_2'> +4.1648920e-06 </wgt>
<wgt id='morphing_basis_vector_3'> +6.7540395e-06 </wgt>
<wgt id='morphing_basis_vector_4'> +4.8804471e-06 </wgt>
<wgt id='morphing_basis_vector_5'> +7.7827299e-06 </wgt>
</rwgt>
</event>
<event>
 4      1 +7.6845000e-11 4.77161300e+03 7.81860800e-03 7.41675500e-02
        2 -1    0    0  501    0 +0.0000000000e+00 +0.0000000000e+00 +1.6184421319e+03 1.6184421319e+03 0.0000000000e+00 0.0000e+00 -1.0000e+00
       -2 -1    0    0    0  501 -0.0000000000e+00 -0.0000000000e+00 -3.5170066200e+03 3.5170066200e+03 0.0000000000e+00 0.0000e+00 1.0000e+00
      -13  1    1    2    0    0 -1.8413266064e+03 -1.5032539639e+03 -1.1693630061e+03 2.6490877659e+03 0.0000000000e+00 0.0000e+00 1.0000e+00
       13  1    1    2    0    0 +1.8413266064e+03 +1.5032539639e+03 -7.2920148203e+02 2.4863609860e+03 0.0000000000e+00 0.0000e+00 -1.0000e+00
<mgrwt>
<rscale>  0 0.47716126E+04</rscale>
<asrwt>0</asrwt>
<pdfrwt beam="1">  1        2 0.24899110E+00 0.47716126E+04</pdfrwt>
<pdfrwt beam="2">  1       -2 0.54107793E+00 0.47716126E+04</pdfrwt>
<totfact> 0.53332508E-03</totfact>
</mgrwt>
<rwgt>
<wgt id='morphing_basis_vector_1'> +5.5422274e-06 </wgt>
<wgt id='morphing_basis_vector_2'> +4.0894813e-06 </wgt>
<wgt id='morphing_basis_vector_3'> +6.1763828e-06 </wgt>
<wgt id='morphing_basis_vector_4'> +3.9842001e-06 </wgt>
<wgt id='morphing_basis_vector_5'> +6.8183208e-06 </wgt>
</rwgt>
</event>
<event>
 4      1 +7.6845000e-11 5.01637100e+03 7.81860800e-03 7.38230700e-02
        2 -1    0    0  501    0 +0.0000000000e+00 +0.0000000000e+00 +4.1727394065e+03 4.1727394065e+03 0.0000000000e+00 0.0000e+00 -1.0000e+00
       -2 -1    0    0    0  501 -0.0000000000e+00 -0.0000000000e+00 -1.5076412349e+03 1.5076412349e+03 0.0000000000e+00 0.0000e+00 1.0000e+00
      -13  1    1    2    0    0 +2.2375132285e+03 +8.1768422828e+02 +2.2212391611e+03 3.2571423604e+03 0.0000000000e+00 0.0000e+00 1.0000e+00
       13  1    1    2    0    0 -2.2375132285e+03 -8.1768422828e+02 +4.4385901055e+02 2.4232382810e+03 0.0000000000e+00 0.0000e+00 -1.0000e+00
<mgrwt>
<rscale>  0 0.50163708E+04</rscale>
<asrwt>0</asrwt>
<pdfrwt beam="1">  1        2 0.64195991E+00 0.50163708E+04</pdfrwt>
<pdfrwt beam="2">  1       -2 0.23194481E+00 0.50163708E+04</pdfrwt>
<totfact> 0.13797957E-02</totfact>
</mgrwt>
<rwgt>
<wgt id='morphing_basis_vector_1'> +7.2891928e-06 </wgt>
<wgt id='morphing_basis_vector_2'> +6.5323290e-06 </wgt>
<wgt id='morphing_basis_vector_3'> +8.3949816e-06 </wgt>
<wgt id='morphing_basis_vector_4'> +3.7534406e-06 </wgt>
<wgt id='morphing_basis_vector_5'> +8.2405500e-06 </wgt>
</rwgt>
</event>
<event>
 4      1 +7.6845000e-11 4.67169400e+03 7.81860800e-03 7.43142000e-02
        2 -1    0    0  501    0 +0.0000000000e+00 +0.0000000000e+00 +3.2584551339e+03 3.2584551339e+03 0.0000000000e+00 0.0000e+00 -1.0000e+00
       -2 -1    0    0    0  501 -0.0000000000e+00 -0.0000000000e+00 -1.6744687321e+03 1.6744687321e+03 0.0000000000e+00 0.0000e+00 1.0000e+00
      -13  1    1    2    0    0 -7.0055808382e+02 -1.2092956669e+03 -1.1842951687e+03 1.8318659027e+03 0.0000000000e+00 0.0000e+00 1.0000e+00
       13  1    1    2    0    0 +7.0055808382e+02 +1.2092956669e+03 +2.7682815705e+03 3.1010579634e+03 0.0000000000e+00 0.0000e+00 -1.0000e+00
<mgrwt>
<rscale>  0 0.46716940E+04</rscale>
<asrwt>0</asrwt>
<pdfrwt beam="1">  1        2 0.50130079E+00 0.46716940E+04</pdfrwt>
<pdfrwt beam="2">  1       -2 0.25761058E+00 0.46716940E+04</pdfrwt>
<totfact> 0.49147569E-02</totfact>
</mgrwt>
<rwgt>
<wgt id='morphing_basis_vector_1'> +4.9631220e-06 </wgt>
<wgt id='morphing_basis_vector_2'> +3.3737599e-06 </wgt>
<wgt id='morphing_basis_vector_3'> +5.4633171e-06 </wgt>
<wgt id='morphing_basis_vector_4'> +3.9380203e-06 </wgt>
<wgt id='morphing_basis_vector_5'> +6.2863188e-06 </wgt>
</rwgt>
</event>
<event>
 4      1 +7.6845000e-11 5.07041000e+03 7.81860800e-03 7.37497000e-02
        2 -1    0    0  501    0 +0.0000000000e+00 +0.0000000000e+00 +2.4735871829e+03 2.4735871829e+03 0.0000000000e+00 0.0000e+00 -1.0000e+00
       -2 -1    0    0    0  501 -0.0000000000e+00 -0.0000000000e+00 -2.5983579021e+03 2.5983579021e+03 0.0000000000e+00 0.0000e+00 1.0000e+00
      -13  1    1    2    0    0 -1.4258180664e+03 -1.6016955662e+03 -1.4151552616e+03 2.5692509142e+03 0.0000000000e+00 0.0000e+00 1.0000e+00
       13  1    1    2    0    0 +1.4258180664e+03 +1.6016955662e+03 +1.2903845424e+03 2.5026941708e+03 0.0000000000e+00 0.0000e+00 -1.0000e+00
<mgrwt>
<rscale>  0 0.50704102E+04</rscale>
<asrwt>0</asrwt>
<pdfrwt beam="1">  1        2 0.38055187E+00 0.50704102E+04</pdfrwt>
<pdfrwt beam="2">  1       -2 0.39974737E+00 0.50704102E+04</pdfrwt>
<totfact> 0.17288550E-02</totfact>
</mgrwt>
<rwgt>
<wgt id='morphing_basis_vector_1'> +6.9014990e-06 </wgt>
<wgt id='morphing_basis_vector_2'> +4.7450222e-06 </wgt>
<wgt id='morphing_basis_vector_3'> +7.6167792e-06 </wgt>
<wgt id='morphing_basis_vector_4'> +5.4227930e-06 </wgt>
<wgt id='morphing_basis_vector_5'> +8.7286974e-06 </wgt>
</rwgt>
</event>
<event>
 4      1 +7.6845000e-11 4.72583200e+03 7.81860800e-03 7.42342900e-02
        2 -1    0    0  501    0 +0.0000000000e+00 +0.0000000000e+00 +4.0203236384e+03 4.0203236384e+03 0.0000000000e+00 0.0000e+00 -1.0000e+00
       -2 -1    0    0    0  501 -0.0000000000e+00 -0.0000000000e+00 -1.3887867106e+03 1.3887867106e+03 0.0000000000e+00 0.0000e+00 1.0000e+00
      -13  1    1    2    0    0 -2.0811894138e+03 +9.0046139963e+02 +5.5550986037e+02 2.3346886973e+03 0.0000000000e+00 0.0000e+00 1.0000e+00
       13  1    1    2    0    0 +2.0811894138e+03 -9.0046139963e+02 +2.0760270674e+03 3.0744216518e+03 0.0000000000e+00 0.0000e+00 -1.0000e+00
<mgrwt>
<rscale>  0 0.47258320E+04</rscale>
<asrwt>0</asrwt>
<pdfrwt beam="1">  1        2 0.61851132E+00 0.47258320E+04</pdfrwt>
<pdfrwt beam="2">  1       -2 0.21365950E+00 0.47258320E+04</pdfrwt>
<totfact> 0.25913099E-02</totfact>
</mgrwt>
<rwgt>
<wgt id='morphing_basis_vector_1'> +5.2583208e-06 </wgt>
<wgt id='morphing_basis_vector_2'> +3.7147532e-06 </wgt>
<wgt id='morphing_basis_vector_3'> +5.8213068e-06 </wgt>
<wgt id='morphing_basis_vector_4'> +3.9925323e-06 </wgt>
<wgt id='morphing_basis_vector_5'> +6.5728672e-06 </wgt>
</rwgt>
</event>
<event>
 4      1 +7.6845000e-11 4.69143500e+03 7.81860800e-03 7.42849300e-02
        2 -1    0    0  501    0 +0.0000000000e+00 +0.0000000000e+00 +2.8708387562e+03 2.8708387562e+03 0.0000000000e+00 0.0000e+00 -1.0000e+00
       -2 -1    0    0    0  501 -0.0000000000e+00 -0.0000000000e+00 -1.9166490096e+03 1.9166490096e+03 0.0000000000e+00 0.0000e+00 1.0000e+00
      -13  1    1    2    0    0 +1.2237053636e+03 -6.0866252516e+02 -1.4683648963e+03 2.0059961004e+03 0.0000000000e+00 0.0000e+00 1.0000e+00
       13  1    1    2    0    0 -1.2237053636e+03 +6.0866252516e+02 +2.4225546429e+03 2.7814916653e+03 0.0000000000e+00 0.0000e+00 -1.0000e+00
<mgrwt>
<rscale>  0 0.46914349E+04</rscale>
<asrwt>0</asrwt>
<pdfrwt beam="1">  1        2 0.44166750E+00 0.46914349E+04</pdfrwt>
<pdfrwt beam="2">  1       -2 0.29486908E+00 0.46914349E+04</pdfrwt>
<totfact> 0.49343316E-02</totfact>
</mgrwt>
<rwgt>
<wgt id='morphing_basis_vector_1'> +5.0469171e-06 </wgt>
<wgt id='morphing_basis_vector_2'> +3.4301560e-06 </wgt>
<wgt id='morphing_basis_vector_3'> +5.5557257e-06 </wgt>
<wgt id='morphing_basis_vector_4'> +4.0059005e-06 </wgt>
<wgt id='morphing_basis_vector_5'> +6.3936940e-06 </wgt>
</rwgt>
</event>
<event>
 4      1 +7.6845000e-11 4.83836900e+03 7.81860800e-03 7.40715700e-02
        2 -1    0    0  501    0 +0.0000000000e+00 +0.0000000000e+00 +3.1623616534e+03 3.1623616534e+03 0.0000000000e+00 0.0000e+00 1.0000e+00
       -2 -1    0    0    0  501 -0.0000000000e+00 -0.0000000000e+00 -1.8506591770e+03 1.8506591770e+03 0.0000000000e+00 0.0000e+00 -1.0000e+00
      -13  1    1    2    0    0 +1.9032605118e+03 -4.0317912305e+02 +2.1456350267e+03 2.8963258879e+03 0.0000000000e+00 0.0000e+00 1.0000e+00
       13  1    1    2    0    0 -1.9032605118e+03 +4.0317912305e+02 -8.3393255036e+02 2.1166949425e+03 0.0000000000e+00 0.0000e+00 -1.0000e+00
<mgrwt>
<rscale>  0 0.48383690E+04</rscale>
<asrwt>0</asrwt>
<pdfrwt beam="1">  1        2 0.48651718E+00 0.48383690E+04</pdfrwt>
<pdfrwt beam="2">  1       -2 0.28471680E+00 0.48383690E+04</pdfrwt>
<totfact> 0.36830554E-02</totfact>
</mgrwt>
<rwgt>
<wgt id='morphing_basis_vector_1'> +7.0373781e-06 </wgt>
<wgt id='morphing_basis_vector_2'> +7.7872189e-06 </wgt>
<wgt id='morphing_basis_vector_3'> +8.4410069e-06 </wgt>
<wgt id='morphing_basis_vector_4'> +1.7015403e-06 </wgt>
<wgt id='morphing_basis_vector_5'> +6.9989776e-06 </wgt>
</rwgt>
</event>
<event>
 4      1 +7.6845000e-11 4.97752800e+03 7.81860800e-03 7.38763900e-02
        2 -1    0    0  501    0 +0.0000000000e+00 +0.0000000000e+00 +3.0173264308e+03 3.0173264308e+03 0.0000000000e+00 0.0000e+00 -1.0000e+00
       -2 -1    0    0    0  501 -0.0000000000e+00 -0.0000000000e+00 -2.0527932270e+03 2.0527932270e+03 0.0000000000e+00 0.0000e+00 1.0000e+00
      -13  1    1    2    0    0 +1.5337398204e+03 +2.7784498308e+02 -1.4940287947e+03 2.1590918717e+03 0.0000000000e+00 0.0000e+00 1.0000e+00
       13  1    1    2    0    0 -1.5337398204e+03 -2.7784498308e+02 +2.4585619985e+03 2.9110277861e+03 0.0000000000e+00 0.0000e+00 -1.0000e+00
<mgrwt>
<rscale>  0 0.49775284E+04</rscale>
<asrwt>0</asrwt>
<pdfrwt beam="1">  1        2 0.46420407E+00 0.49775284E+04</pdfrwt>
<pdfrwt beam="2">  1       -2 0.31581434E+00 0.49775284E+04</pdfrwt>
<totfact> 0.28089611E-02</totfact>
</mgrwt>
<rwgt>
<wgt id='morphing_basis_vector_1'> +6.3911501e-06 </wgt>
<wgt id='morphing_basis_vector_2'> +4.3487026e-06 </wgt>
<wgt id='morphing_basis_vector_3'> +7.0415907e-06 </wgt>
<wgt id='morphing_basis_vector_4'> +5.0775295e-06 </wgt>
<wgt id='morphing_basis_vector_5'> +8.1081513e-06 </wgt>
</rwgt>
</event>
<event>
 4      1 +7.6845000e-11 5.00190900e+03 7.81860800e-03 7.38428600e-02
        2 -1    0    0  501    0 +0.0000000000e+00 +0.0000000000e+00 +4.7540298202e+03 4.7540298202e+03 0.0000000000e+00 0.0000e+00 1.0000e+00
       -2 -1    0    0    0  501 -0.0000000000e+00 -0.0000000000e+00 -1.3156782689e+03 1.3156782689e+03 0.0000000000e+00 0.0000e+00 -1.0000e+00
      -13  1    1    2    0    0 +7.4043445177e+02 +2.3573126485e+03 +1.2498127549e+03 2.7689705709e+03 0.0000000000e+00 0.0000e+00 -1.0000e+00
       13  1    1    2    0    0 -7.4043445177e+02 -2.3573126485e+03 +2.1885387964e+03 3.3007375181e+03 0.0000000000e+00 0.0000e+00 1.0000e+00
<mgrwt>
<rscale>  0 0.50019091E+04</rscale>
<asrwt>0</asrwt>
<pdfrwt beam="1">  1        2 0.73138919E+00 0.50019091E+04</pdfrwt>
<pdfrwt beam="2">  1       -2 0.20241204E+00 0.50019091E+04</pdfrwt>
<totfact> 0.56918336E-03</totfact>
</mgrwt>
<rwgt>
<wgt id='morphing_basis_vector_1'> +6.6474858e-06 </wgt>
<wgt id='morphing_basis_vector_2'> +4.8179885e-06 </wgt>
<wgt id='morphing_basis_vector_3'> +7.3925071e-06 </wgt>
<wgt id='morphing_basis_vector_4'> +4.8997601e-06 </wgt>
<wgt id='morphing_basis_vector_5'> +8.2453664e-06 </wgt>
</rwgt>
</event>
<event>
 4      1 +7.6845000e-11 4.79334600e+03 7.81860800e-03 7.41361300e-02
        2 -1    0    0  501    0 +0.0000000000e+00 +0.0000000000e+00 +3.4822540203e+03 3.4822540203e+03 0.0000000000e+00 0.0000e+00 -1.0000e+00
       -2 -1    0    0    0  501 -0.0000000000e+00 -0.0000000000e+00 -1.6495182695e+03 1.6495182695e+03 0.0000000000e+00 0.0000e+00 1.0000e+00
      -13  1    1    2    0    0 -1.8369393364e+03 -9.9369169252e+01 -7.2826189694e+02 1.9785312098e+03 0.0000000000e+00 0.0000e+00 1.0000e+00
       13  1    1    2    0    0 +1.8369393364e+03 +9.9369169252e+01 +2.5609976477e+03 3.1532410800e+03 0.0000000000e+00 0.0000e+00 -1.0000e+00
<mgrwt>
<rscale>  0 0.47933461E+04</rscale>
<asrwt>0</asrwt>
<pdfrwt beam="1">  1        2 0.53573139E+00 0.47933461E+04</pdfrwt>
<pdfrwt beam="2">  1       -2 0.25377204E+00 0.47933461E+04</pdfrwt>
<totfact> 0.35902157E-02</totfact>
</mgrwt>
<rwgt>
<wgt id='morphing_basis_vector_1'> +5.5065204e-06 </wgt>
<wgt id='morphing_basis_vector_2'> +3.7619727e-06 </wgt>
<wgt id='morphing_basis_vector_3'> +6.0677479e-06 </wgt>
<wgt id='morphing_basis_vector_4'> +4.3491153e-06 </wgt>
<wgt id='morphing_basis_vector_5'> +6.9682497e-06 </wgt>
</rwgt>
</event>
<event>
 4      1 +7.6845000e-11 5.50809900e+03 7.81860800e-03 7.31879900e-02
        2 -1    0    0  501    0 +0.0000000000e+00 +0.0000000000e+00 +3.3538348262e+03 3.3538348262e+03 0.0000000000e+00 0.0000e+00 -1.0000e+00
       -2 -1    0    0    0  501 -0.0000000000e+00 -0.0000000000e+00 -2.2615269960e+03 2.2615269960e+03 0.0000000000e+00 0.0000e+00 1.0000e+00
      -13  1    1    2    0    0 +6.2110618532e+02 +2.0832056171e+03 -1.1777123428e+03 2.4723520985e+03 0.0000000000e+00 0.0000e+00 1.0000e+00
       13  1    1    2    0    0 -6.2110618532e+02 -2.0832056171e+03 +2.2700201730e+03 3.1430097236e+03 0.0000000000e+00 0.0000e+00 -1.0000e+00
<mgrwt>
<rscale>  0 0.55080988E+04</rscale>
<asrwt>0</asrwt>
<pdfrwt beam="1">  1        2 0.51597459E+00 0.55080988E+04</pdfrwt>
<pdfrwt beam="2">  1       -2 0.34792723E+00 0.55080988E+04</pdfrwt>
<totfact> 0.97967467E-03</totfact>
</mgrwt>
<rwgt>
<wgt id='morphing_basis_vector_1'> +9.5882348e-06 </wgt>
<wgt id='morphing_basis_vector_2'> +6.5655033e-06 </wgt>
<wgt id='morphing_basis_vector_3'> +1.0584611e-05 </wgt>
<wgt id='morphing_basis_vector_4'> +7.5879092e-06 </wgt>
<wgt id='morphing_basis_vector_5'> +1.2169684e-05 </wgt>
</rwgt>
</event>
<event>
 4      1 +7.6845000e-11 4.84325800e+03 7.81860800e-03 7.40646000e-02
        2 -1    0    0  501    0 +0.0000000000e+00 +0.0000000000e+00 +2.0471000652e+03 2.0471000652e+03 0.0000000000e+00 0.0000e+00 -1.0000e+00
       -2 -1    0    0    0  501 -0.0000000000e+00 -0.0000000000e+00 -2.8646801540e+03 2.8646801540e+03 0.0000000000e+00 0.0000e+00 1.0000e+00
      -13  1    1    2    0    0 -1.8384072824e+03 -1.5587258581e+03 -6.4645425878e+02 2.4954500086e+03 0.0000000000e+00 0.0000e+00 1.0000e+00
       13  1    1    2    0    0 +1.8384072824e+03 +1.5587258581e+03 -1.7112583007e+02 2.4163302106e+03 0.0000000000e+00 0.0000e+00 -1.0000e+00
<mgrwt>
<rscale>  0 0.48432580E+04</rscale>
<asrwt>0</asrwt>
<pdfrwt beam="1">  1        2 0.31493847E+00 0.48432580E+04</pdfrwt>
<pdfrwt beam="2">  1       -2 0.44072002E+00 0.48432580E+04</pdfrwt>
<totfact> 0.16554930E-02</totfact>
</mgrwt>
<rwgt>
<wgt id='morphing_basis_vector_1'> +5.8751729e-06 </wgt>
<wgt id='morphing_basis_vector_2'> +4.3218976e-06 </wgt>
<wgt id='morphing_basis_vector_3'> +6.5456721e-06 </wgt>
<wgt id='morphing_basis_vector_4'> +4.2430708e-06 </wgt>
<wgt id='morphing_basis_vector_5'> +7.2397273e-06 </wgt>
</rwgt>
</event>
<event>
 4      1 +7.6845000e-11 4.74289800e+03 7.81860800e-03 7.42093200e-02
        2 -1    0    0  501    0 +0.0000000000e+00 +0.0000000000e+00 +2.7979255971e+03 2.7979255971e+03 0.0000000000e+00 0.0000e+00 -1.0000e+00
       -2 -1    0    0    0  501 -0.0000000000e+00 -0.0000000000e+00 -2.0099785408e+03 2.0099785408e+03 0.0000000000e+00 0.0000e+00 1.0000e+00
      -13  1    1    2    0    0 -1.7013091088e+03 +1.1908428800e+02 -1.2763779271e+03 2.1302052399e+03 0.0000000000e+00 0.0000e+00 1.0000e+00
       13  1    1    2    0    0 +1.7013091088e+03 -1.1908428800e+02 +2.0643249833e+03 2.6776988980e+03 0.0000000000e+00 0.0000e+00 -1.0000e+00
<mgrwt>
<rscale>  0 0.47428980E+04</rscale>
<asrwt>0</asrwt>
<pdfrwt beam="1">  1        2 0.43045009E+00 0.47428980E+04</pdfrwt>
<pdfrwt beam="2">  1       -2 0.30922747E+00 0.47428980E+04</pdfrwt>
<totfact> 0.43755320E-02</totfact>
</mgrwt>
<rwgt>
<wgt id='morphing_basis_vector_1'> +5.2758484e-06 </wgt>
<wgt id='morphing_basis_vector_2'> +3.5966176e-06 </wgt>
<wgt id='morphing_basis_vector_3'> +5.8110251e-06 </wgt>
<wgt id='morphing_basis_vector_4'> +4.1753094e-06 </wgt>
<wgt id='morphing_basis_vector_5'> +6.6790980e-06 </wgt>
</rwgt>
</event>
<event>
 4      1 +7.6845000e-11 5.32254200e+03 7.81860800e-03 7.34193600e-02
        2 -1    0    0  501    0 +0.0000000000e+00 +0.0000000000e+00 +4.3590008719e+03 4.3590008719e+03 0.0000000000e+00 0.0000e+00 1.0000e+00
       -2 -1    0    0    0  501 -0.0000000000e+00 -0.0000000000e+00 -1.6247674880e+03 1.6247674880e+03 0.0000000000e+00 0.0000e+00 -1.0000e+00
      -13  1    1    2    0    0 -1.4080354920e+03 -2.2248910348e+03 +1.8020341760e+03 3.1906161216e+03 0.0000000000e+00 0.0000e+00 1.0000e+00
       13  1    1    2    0    0 +1.4080354920e+03 +2.2248910348e+03 +9.3219920788e+02 2.7931522384e+03 0.0000000000e+00 0.0000e+00 -1.0000e+00
<mgrwt>
<rscale>  0 0.53225418E+04</rscale>
<asrwt>0</asrwt>
<pdfrwt beam="1">  1        2 0.67061552E+00 0.53225418E+04</pdfrwt>
<pdfrwt beam="2">  1       -2 0.24996423E+00 0.53225418E+04</pdfrwt>
<totfact> 0.67428923E-03</totfact>
</mgrwt>
<rwgt>
<wgt id='morphing_basis_vector_1'> +8.8551698e-06 </wgt>
<wgt id='morphing_basis_vector_2'> +7.1697053e-06 </wgt>
<wgt id='morphing_basis_vector_3'> +1.0029184e-05 </wgt>
<wgt id='morphing_basis_vector_4'> +5.5638191e-06 </wgt>
<wgt id='morphing_basis_vector_5'> +1.0518772e-05 </wgt>
</rwgt>
</event>
<event>
 4      1 +7.6845000e-11 4.64660200e+03 7.81860800e-03 7.43516100e-02
        2 -1    0    0  501    0 +0.0000000000e+00 +0.0000000000e+00 +2.2319216498e+03 2.2319216498e+03 0.0000000000e+00 0.0000e+00 1.0000e+00
       -2 -1    0    0    0  501 -0.0000000000e+00 -0.0000000000e+00 -2.4184217705e+03 2.4184217705e+03 0.0000000000e+00 0.0000e+00 -1.0000e+00
      -13  1    1    2    0    0 +6.8812137717e+02 -1.4406279929e+03 -1.7824502280e+03 2.3929163919e+03 0.0000000000e+00 0.0000e+00 -1.0000e+00
       13  1    1    2    0    0 -6.8812137717e+02 +1.4406279929e+03 +1.5959501073e+03 2.2574270284e+03 0.0000000000e+00 0.0000e+00 1.0000e+00
<mgrwt>
<rscale>  0 0.46466022E+04</rscale>
<asrwt>0</asrwt>
<pdfrwt beam="1">  1        2 0.34337256E+00 0.46466022E+04</pdfrwt>
<pdfrwt beam="2">  1       -2 0.37206489E+00 0.46466022E+04</pdfrwt>
<totfact> 0.37365473E-02</totfact>
</mgrwt>
<rwgt>
<wgt id='morphing_basis_vector_1'> +4.8602986e-06 </wgt>
<wgt id='morphing_basis_vector_2'> +3.3094658e-06 </wgt>
<wgt id='morphing_basis_vector_3'> +5.3510436e-06 </wgt>
<wgt id='morphing_basis_vector_4'> +3.8483690e-06 </wgt>
<wgt id='morphing_basis_vector_5'> +6.1514082e-06 </wgt>
</rwgt>
</event>
<event>
 4      1 +7.6845000e-11 4.74836900e+03 7.81860800e-03 7.42013400e-02
        2 -1    0    0  501    0 +0.0000000000e+00 +0.0000000000e+00 +2.5773645297e+03 2.5773645297e+03 0.0000000000e+00 0.0000e+00 -1.0000e+00
       -2 -1    0    0    0  501 -0.0000000000e+00 -0.0000000000e+00 -2.1870215641e+03 2.1870215641e+03 0.0000000000e+00 0.0000e+00 1.0000e+00
      -13  1    1    2    0    0 -1.8102744802e+03 +1.4539743032e+03 -3.0209772059e+02 2.3414521137e+03 0.0000000000e+00 0.0000e+00 1.0000e+00
       13  1    1    2    0    0 +1.8102744802e+03 -1.4539743032e+03 +6.9244068619e+02 2.4229339801e+03 0.0000000000e+00 0.0000e+00 -1.0000e+00
<mgrwt>
<rscale>  0 0.47483689E+04</rscale>
<asrwt>0</asrwt>
<pdfrwt beam="1">  1        2 0.39651762E+00 0.47483689E+04</pdfrwt>
<pdfrwt beam="2">  1       -2 0.33646486E+00 0.47483689E+04</pdfrwt>
<totfact> 0.39446893E-02</totfact>
</mgrwt>
<rwgt>
<wgt id='morphing_basis_vector_1'> +5.3816503e-06 </wgt>
<wgt id='morphing_basis_vector_2'> +3.8526168e-06 </wgt>
<wgt id='morphing_basis_vector_3'> +5.9698577e-06 </wgt>
<wgt id='morphing_basis_vector_4'> +4.0212539e-06 </wgt>
<wgt id='morphing_basis_vector_5'> +6.6955567e-06 </wgt>
</rwgt>
</event>
<event>
 4      1 +7.6845000e-11 5.49043400e+03 7.81860800e-03 7.32096100e-02
        2 -1    0    0  501    0 +0.0000000000e+00 +0.0000000000e+00 +3.7460900086e+03 3.7460900086e+03 0.0000000000e+00 0.0000e+00 -1.0000e+00
       -2 -1    0    0    0  501 -0.0000000000e+00 -0.0000000000e+00 -2.0117555716e+03 2.0117555716e+03 0.0000000000e+00 0.0000e+00 1.0000e+00
      -13  1    1    2    0    0 +1.4221040804e+03 +1.4436647427e+03 -1.0749679184e+03 2.2939276209e+03 0.0000000000e+00 0.0000e+00 1.0000e+00
       13  1    1    2    0    0 -1.4221040804e+03 -1.4436647427e+03 +2.8093023553e+03 3.4639179592e+03 0.0000000000e+00 0.0000e+00 -1.0000e+00
<mgrwt>
<rscale>  0 0.54904344E+04</rscale>
<asrwt>0</asrwt>
<pdfrwt beam="1">  1        2 0.57632154E+00 0.54904344E+04</pdfrwt>
<pdfrwt beam="2">  1       -2 0.30950086E+00 0.54904344E+04</pdfrwt>
<totfact> 0.89769909E-03</totfact>
</mgrwt>
<rwgt>
<wgt id='morphing_basis_vector_1'> +9.4587305e-06 </wgt>
<wgt id='morphing_basis_vector_2'> +6.4599684e-06 </wgt>
<wgt id='morphing_basis_vector_3'> +1.0437409e-05 </wgt>
<wgt id='morphing_basis_vector_4'> +7.5066550e-06 </wgt>
<wgt id='morphing_basis_vector_5'> +1.2015249e-05 </wgt>
</rwgt>
</event>
<event>
 4      1 +7.6845000e-11 4.79048900e+03 7.81860800e-03 7.41402500e-02
        2 -1    0    0  501    0 +0.0000000000e+00 +0.0000000000e+00 +3.6816599627e+03 3.6816599627e+03 0.0000000000e+00 0.0000e+00 -1.0000e+00
       -2 -1    0    0    0  501 -0.0000000000e+00 -0.0000000000e+00 -1.5583175362e+03 1.5583175362e+03 0.0000000000e+00 0.0000e+00 1.0000e+00
      -13  1    1    2    0    0 +1.8472301880e+03 +2.6499369651e+02 -5.8079091880e+02 1.9544306378e+03 0.0000000000e+00 0.0000e+00 1.0000e+00
       13  1    1    2    0    0 -1.8472301880e+03 -2.6499369651e+02 +2.7041333454e+03 3.2855468611e+03 0.0000000000e+00 0.0000e+00 -1.0000e+00
<mgrwt>
<rscale>  0 0.47904886E+04</rscale>
<asrwt>0</asrwt>
<pdfrwt beam="1">  1        2 0.56640922E+00 0.47904886E+04</pdfrwt>
<pdfrwt beam="2">  1       -2 0.23974116E+00 0.47904886E+04</pdfrwt>
<totfact> 0.31824757E-02</totfact>
</mgrwt>
<rwgt>
<wgt id='morphing_basis_vector_1'> +5.4944946e-06 </wgt>
<wgt id='morphing_basis_vector_2'> +3.7560952e-06 </wgt>
<wgt id='morphing_basis_vector_3'> +6.0549898e-06 </wgt>
<wgt id='morphing_basis_vector_4'> +4.3364930e-06 </wgt>
<wgt id='morphing_basis_vector_5'> +6.9514049e-06 </wgt>
</rwgt>
</event>
<event>
 4      1 +7.6845000e-11 5.08559100e+03 7.81860800e-03 7.37292600e-02
        2 -1    0    0  501    0 +0.0000000000e+00 +0.0000000000e+00 +2.1695435486e+03 2.1695435486e+03 0.0000000000e+00 0.0000e+00 -1.0000e+00
       -2 -1    0    0    0  501 -0.0000000000e+00 -0.0000000000e+00 -2.9802617911e+03 2.9802617911e+03 0.0000000000e+00 0.0000e+00 1.0000e+00
      -13  1    1    2    0    0 -1.1099447336e+03 +1.5057752768e+03 -2.1494515454e+03 2.8494698528e+03 0.0000000000e+00 0.0000e+00 1.0000e+00
       13  1    1    2    0    0 +1.1099447336e+03 -1.5057752768e+03 +1.3387333029e+03 2.3003354869e+03 0.0000000000e+00 0.0000e+00 -1.0000e+00
<mgrwt>
<rscale>  0 0.50855905E+04</rscale>
<asrwt>0</asrwt>
<pdfrwt beam="1">  1        2 0.33377593E+00 0.50855905E+04</pdfrwt>
<pdfrwt beam="2">  1       -2 0.45850181E+00 0.50855905E+04</pdfrwt>
<totfact> 0.10409261E-02</totfact>
</mgrwt>
<rwgt>
<wgt id='morphing_basis_vector_1'> +6.9686764e-06 </wgt>
<wgt id='morphing_basis_vector_2'> +4.7562826e-06 </wgt>
<wgt id='morphing_basis_vector_3'> +7.6830915e-06 </wgt>
<wgt id='morphing_basis_vector_4'> +5.5214307e-06 </wgt>
<wgt id='morphing_basis_vector_5'> +8.8368089e-06 </wgt>
</rwgt>
</event>
<event>
 4      1 +7.6845000e-11 5.36268300e+03 7.81860800e-03 7.33685000e-02
        2 -1    0    0  501    0 +0.0000000000e+00 +0.0000000000e+00 +3.4692477190e+03 3.4692477190e+03 0.0000000000e+00 0.0000e+00 1.0000e+00
       -2 -1    0    0    0  501 -0.0000000000e+00 -0.0000000000e+00 -2.0723779182e+03 2.0723779182e+03 0.0000000000e+00 0.0000e+00 -1.0000e+00
      -13  1    1    2    0    0 -1.1652961381e+02 +2.6787537535e+03 +6.8079052768e+02 2.7663652263e+03 0.0000000000e+00 0.0000e+00 -1.0000e+00
       13  1    1    2    0    0 +1.1652961381e+02 -2.6787537535e+03 +7.1607927318e+02 2.7752604109e+03 0.0000000000e+00 0.0000e+00 1.0000e+00
<mgrwt>
<rscale>  0 0.53626830E+04</rscale>
<asrwt>0</asrwt>
<pdfrwt beam="1">  1        2 0.53373042E+00 0.53626830E+04</pdfrwt>
<pdfrwt beam="2">  1       -2 0.31882737E+00 0.53626830E+04</pdfrwt>
<totfact> 0.12718849E-02</totfact>
</mgrwt>
<rwgt>
<wgt id='morphing_basis_vector_1'> +8.9070155e-06 </wgt>
<wgt id='morphing_basis_vector_2'> +6.7493960e-06 </wgt>
<wgt id='morphing_basis_vector_3'> +9.9813198e-06 </wgt>
<wgt id='morphing_basis_vector_4'> +6.1983212e-06 </wgt>
<wgt id='morphing_basis_vector_5'> +1.0879568e-05 </wgt>
</rwgt>
</event>
<event>
 4      1 +7.6845000e-11 4.71508500e+03 7.81860800e-03 7.42500600e-02
        2 -1    0    0  501    0 +0.0000000000e+00 +0.0000000000e+00 +1.6533190269e+03 1.6533190269e+03 0.0000000000e+00 0.0000e+00 1.0000e+00
       -2 -1    0    0    0  501 -0.0000000000e+00 -0.0000000000e+00 -3.3617271624e+03 3.3617271624e+03 0.0000000000e+00 0.0000e+00 -1.0000e+00
      -13  1    1    2    0    0 -1.1730661222e+03 +1.5766161804e+03 -2.2394424569e+03 2.9794135707e+03 0.0000000000e+00 0.0000e+00 -1.0000e+00
       13  1    1    2    0    0 +1.1730661222e+03 -1.5766161804e+03 +5.3103432145e+02 2.0356326186e+03 0.0000000000e+00 0.0000e+00 1.0000e+00
<mgrwt>
<rscale>  0 0.47150854E+04</rscale>
<asrwt>0</asrwt>
<pdfrwt beam="1">  1        2 0.25435677E+00 0.47150854E+04</pdfrwt>
<pdfrwt beam="2">  1       -2 0.51718879E+00 0.47150854E+04</pdfrwt>
<totfact> 0.76665003E-03</totfact>
</mgrwt>
<rwgt>
<wgt id='morphing_basis_vector_1'> +5.1641521e-06 </wgt>
<wgt id='morphing_basis_vector_2'> +3.5440318e-06 </wgt>
<wgt id='morphing_basis_vector_3'> +5.6929842e-06 </wgt>
<wgt id='morphing_basis_vector_4'> +4.0555067e-06 </wgt>
<wgt id='morphing_basis_vector_5'> +6.5213854e-06 </wgt>
</rwgt>
</event>
<event>
 4      1 +7.6845000e-11 5.51462200e+03 7.81860800e-03 7.31800300e-02
        2 -1    0    0  501    0 +0.0000000000e+00 +0.0000000000e+00 +3.1193988913e+03 3.1193988913e+03 0.0000000000e+00 0.0000e+00 -1.0000e+00
       -2 -1    0    0    0  501 -0.0000000000e+00 -0.0000000000e+00 -2.4372525709e+03 2.4372525709e+03 0.0000000000e+00 0.0000e+00 1.0000e+00
      -13  1    1    2    0    0 +4.2730524015e+01 -1.0118561866e+03 -2.2430555089e+03 2.4610926142e+03 0.0000000000e+00 0.0000e+00 1.0000e+00
       13  1    1    2    0    0 -4.2730524015e+01 +1.0118561866e+03 +2.9252018292e+03 3.0955588480e+03 0.0000000000e+00 0.0000e+00 -1.0000e+00
<mgrwt>
<rscale>  0 0.55146216E+04</rscale>
<asrwt>0</asrwt>
<pdfrwt beam="1">  1        2 0.47990752E+00 0.55146216E+04</pdfrwt>
<pdfrwt beam="2">  1       -2 0.37496193E+00 0.55146216E+04</pdfrwt>
<totfact> 0.95005809E-03</totfact>
</mgrwt>
<rwgt>
<wgt id='morphing_basis_vector_1'> +9.6117961e-06 </wgt>
<wgt id='morphing_basis_vector_2'> +6.5325809e-06 </wgt>
<wgt id='morphing_basis_vector_3'> +1.0599301e-05 </wgt>
<wgt id='morphing_basis_vector_4'> +7.6705965e-06 </wgt>
<wgt id='morphing_basis_vector_5'> +1.2231497e-05 </wgt>
</rwgt>
</event>
<event>
 4      1 +7.6845000e-11 4.89088600e+03 7.81860800e-03 7.39971500e-02
        2 -1    0    0  501    0 +0.0000000000e+00 +0.0000000000e+00 +2.2708157814e+03 2.2708157814e+03 0.0000000000e+00 0.0000e+00 1.0000e+00
       -2 -1    0    0    0  501 -0.0000000000e+00 -0.0000000000e+00 -2.6334987799e+03 2.6334987799e+03 0.0000000000e+00 0.0000e+00 -1.0000e+00
      -13  1    1    2    0    0 -1.4954704410e+03 -7.8277610062e+02 +1.5929858761e+03 2.3209425381e+03 0.0000000000e+00 0.0000e+00 1.0000e+00
       13  1    1    2    0    0 +1.4954704410e+03 +7.8277610062e+02 -1.9556688745e+03 2.5833720232e+03 0.0000000000e+00 0.0000e+00 -1.0000e+00
<mgrwt>
<rscale>  0 0.48908856E+04</rscale>
<asrwt>0</asrwt>
<pdfrwt beam="1">  1        2 0.34935627E+00 0.48908856E+04</pdfrwt>
<pdfrwt beam="2">  1       -2 0.40515366E+00 0.48908856E+04</pdfrwt>
<totfact> 0.21242488E-02</totfact>
</mgrwt>
<rwgt>
<wgt id='morphing_basis_vector_1'> +7.7463923e-06 </wgt>
<wgt id='morphing_basis_vector_2'> +9.3033305e-06 </wgt>
<wgt id='morphing_basis_vector_3'> +9.4619660e-06 </wgt>
<wgt id='morphing_basis_vector_4'> +9.2601581e-07 </wgt>
<wgt id='morphing_basis_vector_5'> +7.2375368e-06 </wgt>
</rwgt>
</event>
<event>
 4      1 +7.6845000e-11 4.77186000e+03 7.81860800e-03 7.41671900e-02
        2 -1    0    0  501    0 +0.0000000000e+00 +0.0000000000e+00 +2.2919793510e+03 2.2919793510e+03 0.0000000000e+00 0.0000e+00 -1.0000e+00
       -2 -1    0    0    0  501 -0.0000000000e+00 -0.0000000000e+00 -2.4837321014e+03 2.4837321014e+03 0.0000000000e+00 0.0000e+00 1.0000e+00
      -13  1    1    2    0    0 +6.7354539523e+02 +2.0815518929e+03 -1.0485590123e+03 2.4261075171e+03 0.0000000000e+00 0.0000e+00 1.0000e+00
       13  1    1    2    0    0 -6.7354539523e+02 -2.0815518929e+03 +8.5680626190e+02 2.3496039353e+03 0.0000000000e+00 0.0000e+00 -1.0000e+00
<mgrwt>
<rscale>  0 0.47718603E+04</rscale>
<asrwt>0</asrwt>
<pdfrwt beam="1">  1        2 0.35261221E+00 0.47718603E+04</pdfrwt>
<pdfrwt beam="2">  1       -2 0.38211263E+00 0.47718603E+04</pdfrwt>
<totfact> 0.29430731E-02</totfact>
</mgrwt>
<rwgt>
<wgt id='morphing_basis_vector_1'> +5.4381960e-06 </wgt>
<wgt id='morphing_basis_vector_2'> +3.7814059e-06 </wgt>
<wgt id='morphing_basis_vector_3'> +6.0073165e-06 </wgt>
<wgt id='morphing_basis_vector_4'> +4.2088482e-06 </wgt>
<wgt id='morphing_basis_vector_5'> +6.8384845e-06 </wgt>
</rwgt>
</event>
<event>
 4      1 +7.6845000e-11 5.20838700e+03 7.81860800e-03 7.35665500e-02
        2 -1    0    0  501    0 +0.0000000000e+00 +0.0000000000e+00 +1.8067599143e+03 1.8067599143e+03 0.0000000000e+00 0.0000e+00 -1.0000e+00
       -2 -1    0    0    0  501 -0.0000000000e+00 -0.0000000000e+00 -3.7535831032e+03 3.7535831032e+03 0.0000000000e+00 0.0000e+00 1.0000e+00
      -13  1    1    2    0    0 -1.0297720768e+03 -1.3611919754e+03 -3.0731849411e+03 3.5153577068e+03 0.0000000000e+00 0.0000e+00 1.0000e+00
       13  1    1    2    0    0 +1.0297720768e+03 +1.3611919754e+03 +1.1263617523e+03 2.0449853107e+03 0.0000000000e+00 0.0000e+00 -1.0000e+00
<mgrwt>
<rscale>  0 0.52083869E+04</rscale>
<asrwt>0</asrwt>
<pdfrwt beam="1">  1        2 0.27796307E+00 0.52083869E+04</pdfrwt>
<pdfrwt beam="2">  1       -2 0.57747432E+00 0.52083869E+04</pdfrwt>
<totfact> 0.22086611E-03</totfact>
</mgrwt>
<rwgt>
<wgt id='morphing_basis_vector_1'> +7.6587817e-06 </wgt>
<wgt id='morphing_basis_vector_2'> +5.2159269e-06 </wgt>
<wgt id='morphing_basis_vector_3'> +8.4434385e-06 </wgt>
<wgt id='morphing_basis_vector_4'> +6.0876758e-06 </wgt>
<wgt id='morphing_basis_vector_5'> +9.7254674e-06 </wgt>
</rwgt>
</event>
<event>
 4      1 +7.6845000e-11 4.91927600e+03 7.81860800e-03 7.39573000e-02
        2 -1    0    0  501    0 +0.0000000000e+00 +0.0000000000e+00 +2.9420741422e+03 2.9420741422e+03 0.0000000000e+00 0.0000e+00 -1.0000e+00
       -2 -1    0    0    0  501 -0.0000000000e+00 -0.0000000000e+00 -2.0563108768e+03 2.0563108768e+03 0.0000000000e+00 0.0000e+00 1.0000e+00
      -13  1    1    2    0    0 -4.7667445511e+02 -2.3103599817e+03 -2.6461849010e+02 2.3738164897e+03 0.0000000000e+00 0.0000e+00 1.0000e+00
       13  1    1    2    0    0 +4.7667445511e+02 +2.3103599817e+03 +1.1503817556e+03 2.6245685293e+03 0.0000000000e+00 0.0000e+00 -1.0000e+00
<mgrwt>
<rscale>  0 0.49192760E+04</rscale>
<asrwt>0</asrwt>
<pdfrwt beam="1">  1        2 0.45262679E+00 0.49192760E+04</pdfrwt>
<pdfrwt beam="2">  1       -2 0.31635552E+00 0.49192760E+04</pdfrwt>
<totfact> 0.31316512E-02</totfact>
</mgrwt>
<rwgt>
<wgt id='morphing_basis_vector_1'> +6.1694807e-06 </wgt>
<wgt id='morphing_basis_vector_2'> +4.3584494e-06 </wgt>
<wgt id='morphing_basis_vector_3'> +6.8334641e-06 </wgt>
<wgt id='morphing_basis_vector_4'> +4.6913176e-06 </wgt>
<wgt id='morphing_basis_vector_5'> +7.7212892e-06 </wgt>
</rwgt>
</event>
<event>
 4      1 +7.6845000e-11 5.11961500e+03 7.81860800e-03 7.36837000e-02
        2 -1    0    0  501    0 +0.0000000000e+00 +0.0000000000e+00 +2.2089659651e+03 2.2089659651e+03 0.0000000000e+00 0.0000e+00 1.0000e+00
       -2 -1    0    0    0  501 -0.0000000000e+00 -0.0000000000e+00 -2.9663722339e+03 2.9663722339e+03 0.0000000000e+00 0.0000e+00 -1.0000e+00
      -13  1    1    2    0    0 +8.9585413443e+02 +2.3758792446e+03 -5.0736268113e+01 2.5396714323e+03 0.0000000000e+00 0.0000e+00 -1.0000e+00
       13  1    1    2    0    0 -8.9585413443e+02 -2.3758792446e+03 -7.0667000072e+02 2.6356667667e+03 0.0000000000e+00 0.0000e+00 1.0000e+00
<mgrwt>
<rscale>  0 0.51196153E+04</rscale>
<asrwt>0</asrwt>
<pdfrwt beam="1">  1        2 0.33984092E+00 0.51196153E+04</pdfrwt>
<pdfrwt beam="2">  1       -2 0.45636496E+00 0.51196153E+04</pdfrwt>
<totfact> 0.10206591E-02</totfact>
</mgrwt>
<rwgt>
<wgt id='morphing_basis_vector_1'> +7.5564868e-06 </wgt>
<wgt id='morphing_basis_vector_2'> +6.0593808e-06 </wgt>
<wgt id='morphing_basis_vector_3'> +8.5405340e-06 </wgt>
<wgt id='morphing_basis_vector_4'> +4.8182642e-06 </wgt>
<wgt id='morphing_basis_vector_5'> +9.0048845e-06 </wgt>
</rwgt>
</event>
<event>
 4      1 +7.6845000e-11 4.65673600e+03 7.81860800e-03 7.43364700e-02
        2 -1    0    0  501    0 +0.0000000000e+00 +0.0000000000e+00 +4.1165876355e+03 4.1165876355e+03 0.0000000000e+00 0.0000e+00 1.0000e+00
       -2 -1    0    0    0  501 -0.0000000000e+00 -0.0000000000e+00 -1.3169398782e+03 1.3169398782e+03 0.0000000000e+00 0.0000e+00 -1.0000e+00
      -13  1    1    2    0    0 +1.5378268437e+03 -1.1778001093e+03 +2.9073019841e+03 3.4934981502e+03 0.0000000000e+00 0.0000e+00 1.0000e+00
       13  1    1    2    0    0 -1.5378268437e+03 +1.1778001093e+03 -1.0765422668e+02 1.9400293635e+03 0.0000000000e+00 0.0000e+00 -1.0000e+00
<mgrwt>
<rscale>  0 0.46567364E+04</rscale>
<asrwt>0</asrwt>
<pdfrwt beam="1">  1        2 0.63332117E+00 0.46567364E+04</pdfrwt>
<pdfrwt beam="2">  1       -2 0.20260614E+00 0.46567364E+04</pdfrwt>
<totfact> 0.25801810E-02</totfact>
</mgrwt>
<rwgt>
<wgt id='morphing_basis_vector_1'> +5.9393538e-06 </wgt>
<wgt id='morphing_basis_vector_2'> +6.3835309e-06 </wgt>
<wgt id='morphing_basis_vector_3'> +7.0750321e-06 </wgt>
<wgt id='morphing_basis_vector_4'> +1.6777072e-06 </wgt>
<wgt id='morphing_basis_vector_5'> +6.0209536e-06 </wgt>
</rwgt>
</event>
<event>
 4      1 +7.6845000e-11 4.62161200e+03 7.81860800e-03 7.43891000e-02
        2 -1    0    0  501    0 +0.0000000000e+00 +0.0000000000e+00 +1.6445776880e+03 1.6445776880e+03 0.0000000000e+00 0.0000e+00 1.0000e+00
       -2 -1    0    0    0  501 -0.0000000000e+00 -0.0000000000e+00 -3.2469274091e+03 3.2469274091e+03 0.0000000000e+00 0.0000e+00 -1.0000e+00
      -13  1    1    2    0    0 -1.1743590008e+03 -7.3736004670e+02 +1.1552891581e+03 1.8048578725e+03 0.0000000000e+00 0.0000e+00 1.0000e+00
       13  1    1    2    0    0 +1.1743590008e+03 +7.3736004670e+02 -2.7576388792e+03 3.0866472246e+03 0.0000000000e+00 0.0000e+00 -1.0000e+00
<mgrwt>
<rscale>  0 0.46216120E+04</rscale>
<asrwt>0</asrwt>
<pdfrwt beam="1">  1        2 0.25301196E+00 0.46216120E+04</pdfrwt>
<pdfrwt beam="2">  1       -2 0.49952729E+00 0.46216120E+04</pdfrwt>
<totfact> 0.10594596E-02</totfact>
</mgrwt>
<rwgt>
<wgt id='morphing_basis_vector_1'> +6.3371638e-06 </wgt>
<wgt id='morphing_basis_vector_2'> +7.8807441e-06 </wgt>
<wgt id='morphing_basis_vector_3'> +7.7924483e-06 </wgt>
<wgt id='morphing_basis_vector_4'> +4.0648728e-07 </wgt>
<wgt id='morphing_basis_vector_5'> +5.7385577e-06 </wgt>
</rwgt>
</event>
<event>
 4      1 +7.6845000e-11 5.19397700e+03 7.81860800e-03 7.35854000e-02
        2 -1    0    0  501    0 +0.0000000000e+00 +0.0000000000e+00 +4.3146790790e+03 4.3146790790e+03 0.0000000000e+00 0.0000e+00 -1.0000e+00
       -2 -1    0    0    0  501 -0.0000000000e+00 -0.0000000000e+00 -1.5631174511e+03 1.5631174511e+03 0.0000000000e+00 0.0000e+00 1.0000e+00
      -13  1    1    2    0    0 -2.5490698034e+02 -2.5672871201e+03 +1.0392972824e+03 2.7813808741e+03 0.0000000000e+00 0.0000e+00 1.0000e+00
       13  1    1    2    0    0 +2.5490698034e+02 +2.5672871201e+03 +1.7122643455e+03 3.0964156560e+03 0.0000000000e+00 0.0000e+00 -1.0000e+00
<mgrwt>
<rscale>  0 0.51939773E+04</rscale>
<asrwt>0</asrwt>
<pdfrwt beam="1">  1        2 0.66379678E+00 0.51939773E+04</pdfrwt>
<pdfrwt beam="2">  1       -2 0.24047961E+00 0.51939773E+04</pdfrwt>
<totfact> 0.87474927E-03</totfact>
</mgrwt>
<rwgt>
<wgt id='morphing_basis_vector_1'> +7.7511945e-06 </wgt>
<wgt id='morphing_basis_vector_2'> +5.6769543e-06 </wgt>
<wgt id='morphing_basis_vector_3'> +8.6373579e-06 </wgt>
<wgt id='morphing_basis_vector_4'> +5.6438389e-06 </wgt>
<wgt id='morphing_basis_vector_5'> +9.5863822e-06 </wgt>
</rwgt>
</event>
<event>
 4      1 +7.6845000e-11 5.09472200e+03 7.81860800e-03 7.37170000e-02
        2 -1    0    0  501    0 +0.0000000000e+00 +0.0000000000e+00 +2.4230921322e+03 2.4230921322e+03 0.0000000000e+00 0.0000e+00 1.0000e+00
       -2 -1    0    0    0  501 -0.0000000000e+00 -0.0000000000e+00 -2.6780035360e+03 2.6780035360e+03 0.0000000000e+00 0.0000e+00 -1.0000e+00
      -13  1    1    2    0    0 -4.1777082936e+02 -1.8565721999e+03 -1.8229896913e+03 2.6352768761e+03 0.0000000000e+00 0.0000e+00 -1.0000e+00
       13  1    1    2    0    0 +4.1777082936e+02 +1.8565721999e+03 +1.5680782876e+03 2.4658187920e+03 0.0000000000e+00 0.0000e+00 1.0000e+00
<mgrwt>
<rscale>  0 0.50947225E+04</rscale>
<asrwt>0</asrwt>
<pdfrwt beam="1">  1        2 0.37278340E+00 0.50947225E+04</pdfrwt>
<pdfrwt beam="2">  1       -2 0.41200055E+00 0.50947225E+04</pdfrwt>
<totfact> 0.15360582E-02</totfact>
</mgrwt>
<rwgt>
<wgt id='morphing_basis_vector_1'> +7.0197116e-06 </wgt>
<wgt id='morphing_basis_vector_2'> +4.7934497e-06 </wgt>
<wgt id='morphing_basis_vector_3'> +7.7400488e-06 </wgt>
<wgt id='morphing_basis_vector_4'> +5.5591695e-06 </wgt>
<wgt id='morphing_basis_vector_5'> +8.9004669e-06 </wgt>
</rwgt>
</event>
<event>
 4      1 +7.6845000e-11 5.33374800e+03 7.81860800e-03 7.34051100e-02
        2 -1    0    0  501    0 +0.0000000000e+00 +0.0000000000e+00 +3.3473124421e+03 3.3473124421e+03 0.0000000000e+00 0.0000e+00 -1.0000e+00
       -2 -1    0    0    0  501 -0.0000000000e+00 -0.0000000000e+00 -2.1247541256e+03 2.1247541256e+03 0.0000000000e+00 0.0000e+00 1.0000e+00
      -13  1    1    2    0    0 -4.4922445841e+02 +1.2641963355e+03 -1.7533169702e+03 2.2077398820e+03 0.0000000000e+00 0.0000e+00 1.0000e+00
       13  1    1    2    0    0 +4.4922445841e+02 -1.2641963355e+03 +2.9758752867e+03 3.2643266857e+03 0.0000000000e+00 0.0000e+00 -1.0000e+00
<mgrwt>
<rscale>  0 0.53337476E+04</rscale>
<asrwt>0</asrwt>
<pdfrwt beam="1">  1        2 0.51497115E+00 0.53337476E+04</pdfrwt>
<pdfrwt beam="2">  1       -2 0.32688525E+00 0.53337476E+04</pdfrwt>
<totfact> 0.13782227E-02</totfact>
</mgrwt>
<rwgt>
<wgt id='morphing_basis_vector_1'> +8.4159713e-06 </wgt>
<wgt id='morphing_basis_vector_2'> +5.7216470e-06 </wgt>
<wgt id='morphing_basis_vector_3'> +9.2781077e-06 </wgt>
<wgt id='morphing_basis_vector_4'> +6.7073969e-06 </wgt>
<wgt id='morphing_basis_vector_5'> +1.0699919e-05 </wgt>
</rwgt>
</event>
<event>
 4      1 +7.6845000e-11 5.26639900e+03 7.81860800e-03 7.34912700e-02
        2 -1    0    0  501    0 +0.0000000000e+00 +0.0000000000e+00 +3.9299460803e+03 3.9299460803e+03 0.0000000000e+00 0.0000e+00 -1.0000e+00
       -2 -1    0    0    0  501 -0.0000000000e+00 -0.0000000000e+00 -1.7643343426e+03 1.7643343426e+03 0.0000000000e+00 0.0000e+00 1.0000e+00
      -13  1    1    2    0    0 -1.3282176124e+03 +4.3801549521e+01 -1.3751382619e+03 1.9123508676e+03 0.0000000000e+00 0.0000e+00 1.0000e+00
       13  1    1    2    0    0 +1.3282176124e+03 -4.3801549521e+01 +3.5407499995e+03 3.7819295552e+03 0.0000000000e+00 0.0000e+00 -1.0000e+00
<mgrwt>
<rscale>  0 0.52663987E+04</rscale>
<asrwt>0</asrwt>
<pdfrwt beam="1">  1        2 0.60460708E+00 0.52663987E+04</pdfrwt>
<pdfrwt beam="2">  1       -2 0.27143606E+00 0.52663987E+04</pdfrwt>
<totfact> 0.11730571E-02</totfact>
</mgrwt>
<rwgt>
<wgt id='morphing_basis_vector_1'> +8.0000986e-06 </wgt>
<wgt id='morphing_basis_vector_2'> +5.4384806e-06 </wgt>
<wgt id='morphing_basis_vector_3'> +8.8184210e-06 </wgt>
<wgt id='morphing_basis_vector_4'> +6.3740353e-06 </wgt>
<wgt id='morphing_basis_vector_5'> +1.0168177e-05 </wgt>
</rwgt>
</event>
<event>
 4      1 +7.6845000e-11 4.79637700e+03 7.81860800e-03 7.41317600e-02
        2 -1    0    0  501    0 +0.0000000000e+00 +0.0000000000e+00 +2.9453354855e+03 2.9453354855e+03 0.0000000000e+00 0.0000e+00 1.0000e+00
       -2 -1    0    0    0  501 -0.0000000000e+00 -0.0000000000e+00 -1.9526836386e+03 1.9526836386e+03 0.0000000000e+00 0.0000e+00 -1.0000e+00
      -13  1    1    2    0    0 +1.4143637679e+02 +2.3354867563e+03 -4.0946717197e+01 2.3401237726e+03 0.0000000000e+00 0.0000e+00 -1.0000e+00
       13  1    1    2    0    0 -1.4143637679e+02 -2.3354867563e+03 +1.0335985641e+03 2.5578953515e+03 0.0000000000e+00 0.0000e+00 1.0000e+00
<mgrwt>
<rscale>  0 0.47963771E+04</rscale>
<asrwt>0</asrwt>
<pdfrwt beam="1">  1        2 0.45312854E+00 0.47963771E+04</pdfrwt>
<pdfrwt beam="2">  1       -2 0.30041287E+00 0.47963771E+04</pdfrwt>
<totfact> 0.40235738E-02</totfact>
</mgrwt>
<rwgt>
<wgt id='morphing_basis_vector_1'> +5.5979623e-06 </wgt>
<wgt id='morphing_basis_vector_2'> +3.9992557e-06 </wgt>
<wgt id='morphing_basis_vector_3'> +6.2087376e-06 </wgt>
<wgt id='morphing_basis_vector_4'> +4.1951134e-06 </wgt>
<wgt id='morphing_basis_vector_5'> +6.9721296e-06 </wgt>
</rwgt>
</event>
<event>
 4      1 +7.6845000e-11 5.21645500e+03 7.81860800e-03 7.35560200e-02
        2 -1    0    0  501    0 +0.0000000000e+00 +0.0000000000e+00 +3.7105591058e+03 3.7105591058e+03 0.0000000000e+00 0.0000e+00 -1.0000e+00
       -2 -1    0    0    0  501 -0.0000000000e+00 -0.0000000000e+00 -1.8333759773e+03 1.8333759773e+03 0.0000000000e+00 0.0000e+00 1.0000e+00
      -13  1    1    2    0    0 +1.0661637689e+03 +1.3228838005e+03 -1.1645614373e+03 2.0598373900e+03 0.0000000000e+00 0.0000e+00 1.0000e+00
       13  1    1    2    0    0 -1.0661637689e+03 -1.3228838005e+03 +3.0417445658e+03 3.4840976932e+03 0.0000000000e+00 0.0000e+00 -1.0000e+00
<mgrwt>
<rscale>  0 0.52164547E+04</rscale>
<asrwt>0</asrwt>
<pdfrwt beam="1">  1        2 0.57085524E+00 0.52164547E+04</pdfrwt>
<pdfrwt beam="2">  1       -2 0.28205784E+00 0.52164547E+04</pdfrwt>
<totfact> 0.14968534E-02</totfact>
</mgrwt>
<rwgt>
<wgt id='morphing_basis_vector_1'> +7.7060078e-06 </wgt>
<wgt id='morphing_basis_vector_2'> +5.2477117e-06 </wgt>
<wgt id='morphing_basis_vector_3'> +8.4955504e-06 </wgt>
<wgt id='morphing_basis_vector_4'> +6.1260048e-06 </wgt>
<wgt id='morphing_basis_vector_5'> +9.7860782e-06 </wgt>
</rwgt>
</event>
<event>
 4      1 +7.6845000e-11 5.51713900e+03 7.81860800e-03 7.31769600e-02
        2 -1    0    0  501    0 +0.0000000000e+00 +0.0000000000e+00 +2.8767381738e+03 2.8767381738e+03 0.0000000000e+00 0.0000e+00 -1.0000e+00
       -2 -1    0    0    0  501 -0.0000000000e+00 -0.0000000000e+00 -2.6452548704e+03 2.6452548704e+03 0.0000000000e+00 0.0000e+00 1.0000e+00
      -13  1    1    2    0    0 -1.7890630653e+02 -7.4189762246e+02 -2.5374935348e+03 2.6497722521e+03 0.0000000000e+00 0.0000e+00 1.0000e+00
       13  1    1    2    0    0 +1.7890630653e+02 +7.4189762246e+02 +2.7689768382e+03 2.8722207922e+03 0.0000000000e+00 0.0000e+00 -1.0000e+00
<mgrwt>
<rscale>  0 0.55171390E+04</rscale>
<asrwt>0</asrwt>
<pdfrwt beam="1">  1        2 0.44257510E+00 0.55171390E+04</pdfrwt>
<pdfrwt beam="2">  1       -2 0.40696229E+00 0.55171390E+04</pdfrwt>
<totfact> 0.84710388E-03</totfact>
</mgrwt>
<rwgt>
<wgt id='morphing_basis_vector_1'> +9.6289511e-06 </wgt>
<wgt id='morphing_basis_vector_2'> +6.5434472e-06 </wgt>
<wgt id='morphing_basis_vector_3'> +1.0618078e-05 </wgt>
<wgt id='morphing_basis_vector_4'> +7.6854171e-06 </wgt>
<wgt id='morphing_basis_vector_5'> +1.2253970e-05 </wgt>
</rwgt>
</event>
<event>
 4      1 +7.6845000e-11 4.74034400e+03 7.81860800e-03 7.42130500e-02
        2 -1    0    0  501    0 +0.0000000000e+00 +0.0000000000e+00 +2.1940718897e+03 2.1940718897e+03 0.0000000000e+00 0.0000e+00 -1.0000e+00
       -2 -1    0    0    0  501 -0.0000000000e+00 -0.0000000000e+00 -2.5604062638e+03 2.5604062638e+03 0.0000000000e+00 0.0000e+00 1.0000e+00
      -13  1    1    2    0    0 -7.8846587725e+02 +1.6466039430e+03 -1.6992072077e+03 2.4940505446e+03 0.0000000000e+00 0.0000e+00 1.0000e+00
       13  1    1    2    0    0 +7.8846587725e+02 -1.6466039430e+03 +1.3328728335e+03 2.2604276089e+03 0.0000000000e+00 0.0000e+00 -1.0000e+00
<mgrwt>
<rscale>  0 0.47403440E+04</rscale>
<asrwt>0</asrwt>
<pdfrwt beam="1">  1        2 0.33754952E+00 0.47403440E+04</pdfrwt>
<pdfrwt beam="2">  1       -2 0.39390866E+00 0.47403440E+04</pdfrwt>
<totfact> 0.28173376E-02</totfact>
</mgrwt>
<rwgt>
<wgt id='morphing_basis_vector_1'> +5.2680500e-06 </wgt>
<wgt id='morphing_basis_vector_2'> +3.5992121e-06 </wgt>
<wgt id='morphing_basis_vector_3'> +5.8042125e-06 </wgt>
<wgt id='morphing_basis_vector_4'> +4.1588142e-06 </wgt>
<wgt id='morphing_basis_vector_5'> +6.6640465e-06 </wgt>
</rwgt>
</event>
<event>
 4      1 +7.6845000e-11 4.87030500e+03 7.81860800e-03 7.40262000e-02
        2 -1    0    0  501    0 +0.0000000000e+00 +0.0000000000e+00 +3.8998067267e+03 3.8998067267e+03 0.0000000000e+00 0.0000e+00 -1.0000e+00
       -2 -1    0    0    0  501 -0.0000000000e+00 -0.0000000000e+00 -1.5205798915e+03 1.5205798915e+03 0.0000000000e+00 0.0000e+00 1.0000e+00
      -13  1    1    2    0    0 -1.5492843738e+03 -1.4479653888e+03 -1.4270982204e+02 2.1253827729e+03 0.0000000000e+00 0.0000e+00 1.0000e+00
       13  1    1    2    0    0 +1.5492843738e+03 +1.4479653888e+03 +2.5219366571e+03 3.2950038453e+03 0.0000000000e+00 0.0000e+00 -1.0000e+00
<mgrwt>
<rscale>  0 0.48703050E+04</rscale>
<asrwt>0</asrwt>
<pdfrwt beam="1">  1        2 0.59997026E+00 0.48703050E+04</pdfrwt>
<pdfrwt beam="2">  1       -2 0.23393537E+00 0.48703050E+04</pdfrwt>
<totfact> 0.23261428E-02</totfact>
</mgrwt>
<rwgt>
<wgt id='morphing_basis_vector_1'> +5.8835018e-06 </wgt>
<wgt id='morphing_basis_vector_2'> +4.0562371e-06 </wgt>
<wgt id='morphing_basis_vector_3'> +6.4928459e-06 </wgt>
<wgt id='morphing_basis_vector_4'> +4.6020228e-06 </wgt>
<wgt id='morphing_basis_vector_5'> +7.4253975e-06 </wgt>
</rwgt>
</event>
<event>
 4      1 +7.6845000e-11 5.37312000e+03 7.81860800e-03 7.33553500e-02
        2 -1    0    0  501    0 +0.0000000000e+00 +0.0000000000e+00 +2.4053879371e+03 2.4053879371e+03 0.0000000000e+00 0.0000e+00 -1.0000e+00
       -2 -1    0    0    0  501 -0.0000000000e+00 -0.0000000000e+00 -3.0005990304e+03 3.0005990304e+03 0.0000000000e+00 0.0000e+00 1.0000e+00
      -13  1    1    2    0    0 +2.4633239209e+02 +7.4297565481e+02 -2.8833284238e+03 2.9876872779e+03 0.0000000000e+00 0.0000e+00 1.0000e+00
       13  1    1    2    0    0 -2.4633239209e+02 -7.4297565481e+02 +2.2881173304e+03 2.4182996896e+03 0.0000000000e+00 0.0000e+00 -1.0000e+00
<mgrwt>
<rscale>  0 0.53731200E+04</rscale>
<asrwt>0</asrwt>
<pdfrwt beam="1">  1        2 0.37005968E+00 0.53731200E+04</pdfrwt>
<pdfrwt beam="2">  1       -2 0.46163062E+00 0.53731200E+04</pdfrwt>
<totfact> 0.70620598E-03</totfact>
</mgrwt>
<rwgt>
<wgt id='morphing_basis_vector_1'> +8.6648009e-06 </wgt>
<wgt id='morphing_basis_vector_2'> +5.8872756e-06 </wgt>
<wgt id='morphing_basis_vector_3'> +9.5522871e-06 </wgt>
<wgt id='morphing_basis_vector_4'> +6.9118336e-06 </wgt>
<wgt id='morphing_basis_vector_5'> +1.1020573e-05 </wgt>
</rwgt>
</event>
<event>
 4      1 +7.6845000e-11 4.89740100e+03 7.81860800e-03 7.39879800e-02
        2 -1    0    0  501    0 +0.0000000000e+00 +0.0000000000e+00 +4.3581442234e+03 4.3581442234e+03 0.0000000000e+00 0.0000e+00 -1.0000e+00
       -2 -1    0    0    0  501 -0.0000000000e+00 -0.0000000000e+00 -1.3758454626e+03 1.3758454626e+03 0.0000000000e+00 0.0000e+00 1.0000e+00
      -13  1    1    2    0    0 +5.9816972824e+02 -2.2852900484e+03 +7.3619511884e+02 2.4743364529e+03 0.0000000000e+00 0.0000e+00 1.0000e+00
       13  1    1    2    0    0 -5.9816972824e+02 +2.2852900484e+03 +2.2461036420e+03 3.2596532331e+03 0.0000000000e+00 0.0000e+00 -1.0000e+00
<mgrwt>
<rscale>  0 0.48974005E+04</rscale>
<asrwt>0</asrwt>
<pdfrwt beam="1">  1        2 0.67048372E+00 0.48974005E+04</pdfrwt>
<pdfrwt beam="2">  1       -2 0.21166853E+00 0.48974005E+04</pdfrwt>
<totfact> 0.12977441E-02</totfact>
</mgrwt>
<rwgt>
<wgt id='morphing_basis_vector_1'> +6.0671860e-06 </wgt>
<wgt id='morphing_basis_vector_2'> +4.3001928e-06 </wgt>
<wgt id='morphing_basis_vector_3'> +6.7230250e-06 </wgt>
<wgt id='morphing_basis_vector_4'> +4.5946455e-06 </wgt>
<wgt id='morphing_basis_vector_5'> +7.5832835e-06 </wgt>
</rwgt>
</event>
<event>
 4      1 +7.6845000e-11 5.02782200e+03 7.81860800e-03 7.38074400e-02
        2 -1    0    0  501    0 +0.0000000000e+00 +0.0000000000e+00 +2.7003514493e+03 2.7003514493e+03 0.0000000000e+00 0.0000e+00 1.0000e+00
       -2 -1    0    0    0  501 -0.0000000000e+00 -0.0000000000e+00 -2.3403426211e+03 2.3403426211e+03 0.0000000000e+00 0.0000e+00 -1.0000e+00
      -13  1    1    2    0    0 +2.7757592355e+02 -1.0961451695e+03 -2.0709978537e+03 2.3595793557e+03 0.0000000000e+00 0.0000e+00 -1.0000e+00
       13  1    1    2    0    0 -2.7757592355e+02 +1.0961451695e+03 +2.4310066819e+03 2.6811147147e+03 0.0000000000e+00 0.0000e+00 1.0000e+00
<mgrwt>
<rscale>  0 0.50278216E+04</rscale>
<asrwt>0</asrwt>
<pdfrwt beam="1">  1        2 0.41543868E+00 0.50278216E+04</pdfrwt>
<pdfrwt beam="2">  1       -2 0.36005271E+00 0.50278216E+04</pdfrwt>
<totfact> 0.22825202E-02</totfact>
</mgrwt>
<rwgt>
<wgt id='morphing_basis_vector_1'> +6.6492241e-06 </wgt>
<wgt id='morphing_basis_vector_2'> +4.5172301e-06 </wgt>
<wgt id='morphing_basis_vector_3'> +7.3251163e-06 </wgt>
<wgt id='morphing_basis_vector_4'> +5.2935552e-06 </wgt>
<wgt id='morphing_basis_vector_5'> +8.4425164e-06 </wgt>
</rwgt>
</event>
<event>
 4      1 +7.6845000e-11 4.67580300e+03 7.81860800e-03 7.43081000e-02
        2 -1    0    0  501    0 +0.0000000000e+00 +0.0000000000e+00 +3.2254327707e+03 3.2254327707e+03 0.0000000000e+00 0.0000e+00 -1.0000e+00
       -2 -1    0    0    0  501 -0.0000000000e+00 -0.0000000000e+00 -1.6945888364e+03 1.6945888364e+03 0.0000000000e+00 0.0000e+00 1.0000e+00
      -13  1    1    2    0    0 +1.1147312957e+03 +6.6855128506e+02 +2.8101619654e+03 3.0962230142e+03 0.0000000000e+00 0.0000e+00 -1.0000e+00
       13  1    1    2    0    0 -1.1147312957e+03 -6.6855128506e+02 -1.2793180311e+03 1.8237985928e+03 0.0000000000e+00 0.0000e+00 1.0000e+00
<mgrwt>
<rscale>  0 0.46758025E+04</rscale>
<asrwt>0</asrwt>
<pdfrwt beam="1">  1        2 0.49622043E+00 0.46758025E+04</pdfrwt>
<pdfrwt beam="2">  1       -2 0.26070597E+00 0.46758025E+04</pdfrwt>
<totfact> 0.49294910E-02</totfact>
</mgrwt>
<rwgt>
<wgt id='morphing_basis_vector_1'> +6.6924724e-06 </wgt>
<wgt id='morphing_basis_vector_2'> +8.4141947e-06 </wgt>
<wgt id='morphing_basis_vector_3'> +8.2526945e-06 </wgt>
<wgt id='morphing_basis_vector_4'> +3.1111730e-07 </wgt>
<wgt id='morphing_basis_vector_5'> +6.0038079e-06 </wgt>
</rwgt>
</event>
<event>
 4      1 +7.6845000e-11 4.62554200e+03 7.81860800e-03 7.43831900e-02
        2 -1    0    0  501    0 +0.0000000000e+00 +0.0000000000e+00 +1.9466956207e+03 1.9466956207e+03 0.0000000000e+00 0.0000e+00 1.0000e+00
       -2 -1    0    0    0  501 -0.0000000000e+00 -0.0000000000e+00 -2.7476865682e+03 2.7476865682e+03 0.0000000000e+00 0.0000e+00 -1.0000e+00
      -13  1    1    2    0    0 -4.5734185391e+02 -2.1726170936e+03 -1.0578095124e+03 2.4593469807e+03 0.0000000000e+00 0.0000e+00 -1.0000e+00
       13  1    1    2    0    0 +4.5734185391e+02 +2.1726170936e+03 +2.5681856488e+02 2.2350352083e+03 0.0000000000e+00 0.0000e+00 1.0000e+00
<mgrwt>
<rscale>  0 0.46255419E+04</rscale>
<asrwt>0</asrwt>
<pdfrwt beam="1">  1        2 0.29949163E+00 0.46255419E+04</pdfrwt>
<pdfrwt beam="2">  1       -2 0.42272101E+00 0.46255419E+04</pdfrwt>
<totfact> 0.25362656E-02</totfact>
</mgrwt>
<rwgt>
<wgt id='morphing_basis_vector_1'> +4.8277845e-06 </wgt>
<wgt id='morphing_basis_vector_2'> +3.4105625e-06 </wgt>
<wgt id='morphing_basis_vector_3'> +5.3431352e-06 </wgt>
<wgt id='morphing_basis_vector_4'> +3.6625886e-06 </wgt>
<wgt id='morphing_basis_vector_5'> +6.0305101e-06 </wgt>
</rwgt>
</event>
<event>
 4      1 +7.6845000e-11 4.72817700e+03 7.81860800e-03 7.42308500e-02
        2 -1    0    0  501    0 +0.0000000000e+00 +0.0000000000e+00 +3.7181221543e+03 3.7181221543e+03 0.0000000000e+00 0.0000e+00 -1.0000e+00
       -2 -1    0    0    0  501 -0.0000000000e+00 -0.0000000000e+00 -1.5031548766e+03 1.5031548766e+03 0.0000000000e+00 0.0000e+00 1.0000e+00
      -13  1    1    2    0    0 -1.4331822927e+03 +7.3203566073e+02 -8.0489175329e+02 1.7993716757e+03 0.0000000000e+00 0.0000e+00 1.0000e+00
       13  1    1    2    0    0 +1.4331822927e+03 -7.3203566073e+02 +3.0198590310e+03 3.4219053552e+03 0.0000000000e+00 0.0000e+00 -1.0000e+00
<mgrwt>
<rscale>  0 0.47281766E+04</rscale>
<asrwt>0</asrwt>
<pdfrwt beam="1">  1        2 0.57201879E+00 0.47281766E+04</pdfrwt>
<pdfrwt beam="2">  1       -2 0.23125460E+00 0.47281766E+04</pdfrwt>
<totfact> 0.34347052E-02</totfact>
</mgrwt>
<rwgt>
<wgt id='morphing_basis_vector_1'> +5.2090730e-06 </wgt>
<wgt id='morphing_basis_vector_2'> +3.5469061e-06 </wgt>
<wgt id='morphing_basis_vector_3'> +5.7362921e-06 </wgt>
<wgt id='morphing_basis_vector_4'> +4.1273943e-06 </wgt>
<wgt id='morphing_basis_vector_5'> +6.5965917e-06 </wgt>
</rwgt>
</event>
<event>
 4      1 +7.6845000e-11 4.93735700e+03 7.81860800e-03 7.39320700e-02
        2 -1    0    0  501    0 +0.0000000000e+00 +0.0000000000e+00 +4.1019247237e+03 4.1019247237e+03 0.0000000000e+00 0.0000e+00 -1.0000e+00
       -2 -1    0    0    0  501 -0.0000000000e+00 -0.0000000000e+00 -1.4857351529e+03 1.4857351529e+03 0.0000000000e+00 0.0000e+00 1.0000e+00
      -13  1    1    2    0    0 -1.3790683728e+03 -1.9703763362e+03 +6.7782104977e+02 2.4987304493e+03 0.0000000000e+00 0.0000e+00 1.0000e+00
       13  1    1    2    0    0 +1.3790683728e+03 +1.9703763362e+03 +1.9383685210e+03 3.0889294272e+03 0.0000000000e+00 0.0000e+00 -1.0000e+00
<mgrwt>
<rscale>  0 0.49373571E+04</rscale>
<asrwt>0</asrwt>
<pdfrwt beam="1">  1        2 0.63106534E+00 0.49373571E+04</pdfrwt>
<pdfrwt beam="2">  1       -2 0.22857464E+00 0.49373571E+04</pdfrwt>
<totfact> 0.16965084E-02</totfact>
</mgrwt>
<rwgt>
<wgt id='morphing_basis_vector_1'> +6.2807495e-06 </wgt>
<wgt id='morphing_basis_vector_2'> +4.4826182e-06 </wgt>
<wgt id='morphing_basis_vector_3'> +6.9675215e-06 </wgt>
<wgt id='morphing_basis_vector_4'> +4.7175001e-06 </wgt>
<wgt id='morphing_basis_vector_5'> +7.8321744e-06 </wgt>
</rwgt>
</event>
<event>
 4      1 +7.6845000e-11 4.80216900e+03 7.81860800e-03 7.41234200e-02
        2 -1    0    0  501    0 +0.0000000000e+00 +0.0000000000e+00 +3.7363011188e+03 3.7363011188e+03 0.0000000000e+00 0.0000e+00 -1.0000e+00
       -2 -1    0    0    0  501 -0.0000000000e+00 -0.0000000000e+00 -1.5430252238e+03 1.5430252238e+03 0.0000000000e+00 0.0000e+00 1.0000e+00
      -13  1    1    2    0    0 +2.0140793744e+03 -1.0885737644e+03 +3.0106199261e+02 2.3091441901e+03 0.0000000000e+00 0.0000e+00 1.0000e+00
       13  1    1    2    0    0 -2.0140793744e+03 +1.0885737644e+03 +1.8922139023e+03 2.9701821525e+03 0.0000000000e+00 0.0000e+00 -1.0000e+00
<mgrwt>
<rscale>  0 0.48021690E+04</rscale>
<asrwt>0</asrwt>
<pdfrwt beam="1">  1        2 0.57481555E+00 0.48021690E+04</pdfrwt>
<pdfrwt beam="2">  1       -2 0.23738850E+00 0.48021690E+04</pdfrwt>
<totfact> 0.29941914E-02</totfact>
</mgrwt>
<rwgt>
<wgt id='morphing_basis_vector_1'> +5.5994355e-06 </wgt>
<wgt id='morphing_basis_vector_2'> +3.9436275e-06 </wgt>
<wgt id='morphing_basis_vector_3'> +6.1974379e-06 </wgt>
<wgt id='morphing_basis_vector_4'> +4.2697944e-06 </wgt>
<wgt id='morphing_basis_vector_5'> +7.0105325e-06 </wgt>
</rwgt>
</event>
<event>
 4      1 +7.6845000e-11 4.96473100e+03 7.81860800e-03 7.38940700e-02
        2 -1    0    0  501    0 +0.0000000000e+00 +0.0000000000e+00 +2.6247497561e+03 2.6247497561e+03 0.0000000000e+00 0.0000e+00 -1.0000e+00
       -2 -1    0    0    0  501 -0.0000000000e+00 -0.0000000000e+00 -2.3477053522e+03 2.3477053522e+03 0.0000000000e+00 0.0000e+00 1.0000e+00
      -13  1    1    2    0    0 -1.5357780509e+03 -1.4278645991e+03 -1.1919749733e+03 2.4120978156e+03 0.0000000000e+00 0.0000e+00 1.0000e+00
       13  1    1    2    0    0 +1.5357780509e+03 +1.4278645991e+03 +1.4690193773e+03 2.5603572926e+03 0.0000000000e+00 0.0000e+00 -1.0000e+00
<mgrwt>
<rscale>  0 0.49647312E+04</rscale>
<asrwt>0</asrwt>
<pdfrwt beam="1">  1        2 0.40380765E+00 0.49647312E+04</pdfrwt>
<pdfrwt beam="2">  1       -2 0.36118544E+00 0.49647312E+04</pdfrwt>
<totfact> 0.25093487E-02</totfact>
</mgrwt>
<rwgt>
<wgt id='morphing_basis_vector_1'> +6.3453863e-06 </wgt>
<wgt id='morphing_basis_vector_2'> +4.3614567e-06 </wgt>
<wgt id='morphing_basis_vector_3'> +7.0010941e-06 </wgt>
<wgt id='morphing_basis_vector_4'> +4.9838255e-06 </wgt>
<wgt id='morphing_basis_vector_5'> +8.0213427e-06 </wgt>
</rwgt>
</event>
<event>
 4      1 +7.6845000e-11 4.70721000e+03 7.81860800e-03 7.42616500e-02
        2 -1    0    0  501    0 +0.0000000000e+00 +0.0000000000e+00 +2.4500658843e+03 2.4500658843e+03 0.0000000000e+00 0.0000e+00 1.0000e+00
       -2 -1    0    0    0  501 -0.0000000000e+00 -0.0000000000e+00 -2.2609416682e+03 2.2609416682e+03 0.0000000000e+00 0.0000e+00 -1.0000e+00
      -13  1    1    2    0    0 +7.6525296600e+02 -6.8476274180e+02 +2.2140393298e+03 2.4405905573e+03 0.0000000000e+00 0.0000e+00 1.0000e+00
       13  1    1    2    0    0 -7.6525296600e+02 +6.8476274180e+02 -2.0249151137e+03 2.2704169952e+03 0.0000000000e+00 0.0000e+00 -1.0000e+00
<mgrwt>
<rscale>  0 0.47072098E+04</rscale>
<asrwt>0</asrwt>
<pdfrwt beam="1">  1        2 0.37693322E+00 0.47072098E+04</pdfrwt>
<pdfrwt beam="2">  1       -2 0.34783718E+00 0.47072098E+04</pdfrwt>
<totfact> 0.39746714E-02</totfact>
</mgrwt>
<rwgt>
<wgt id='morphing_basis_vector_1'> +6.9625744e-06 </wgt>
<wgt id='morphing_basis_vector_2'> +8.9036496e-06 </wgt>
<wgt id='morphing_basis_vector_3'> +8.6215347e-06 </wgt>
<wgt id='morphing_basis_vector_4'> +1.2993140e-07 </wgt>
<wgt id='morphing_basis_vector_5'> +6.1514166e-06 </wgt>
</rwgt>
</event>
<event>
 4      1 +7.6845000e-11 4.86383700e+03 7.81860800e-03 7.40353600e-02
        2 -1    0    0  501    0 +0.0000000000e+00 +0.0000000000e+00 +2.8617265886e+03 2.8617265886e+03 0.0000000000e+00 0.0000e+00 1.0000e+00
       -2 -1    0    0    0  501 -0.0000000000e+00 -0.0000000000e+00 -2.0666641686e+03 2.0666641686e+03 0.0000000000e+00 0.0000e+00 -1.0000e+00
      -13  1    1    2    0    0 +5.9527165959e+02 +6.0285662191e+02 -1.9122945099e+03 2.0915675337e+03 0.0000000000e+00 0.0000e+00 -1.0000e+00
       13  1    1    2    0    0 -5.9527165959e+02 -6.0285662191e+02 +2.7073569299e+03 2.8368232235e+03 0.0000000000e+00 0.0000e+00 1.0000e+00
<mgrwt>
<rscale>  0 0.48638371E+04</rscale>
<asrwt>0</asrwt>
<pdfrwt beam="1">  1        2 0.44026563E+00 0.48638371E+04</pdfrwt>
<pdfrwt beam="2">  1       -2 0.31794833E+00 0.48638371E+04</pdfrwt>
<totfact> 0.34548156E-02</totfact>
</mgrwt>
<rwgt>
<wgt id='morphing_basis_vector_1'> +5.8253658e-06 </wgt>
<wgt id='morphing_basis_vector_2'> +3.9553122e-06 </wgt>
<wgt id='morphing_basis_vector_3'> +6.4145791e-06 </wgt>
<wgt id='morphing_basis_vector_4'> +4.6351431e-06 </wgt>
<wgt id='morphing_basis_vector_5'> +7.3907256e-06 </wgt>
</rwgt>
</event>
<event>
 4      1 +7.6845000e-11 4.89377800e+03 7.81860800e-03 7.39930700e-02
        2 -1    0    0  501    0 +0.0000000000e+00 +0.0000000000e+00 +2.5220635450e+03 2.5220635450e+03 0.0000000000e+00 0.0000e+00 -1.0000e+00
       -2 -1    0    0    0  501 -0.0000000000e+00 -0.0000000000e+00 -2.3739552953e+03 2.3739552953e+03 0.0000000000e+00 0.0000e+00 1.0000e+00
      -13  1    1    2    0    0 +5.8979567040e+02 +3.3094912560e+02 -2.2785922411e+03 2.3768400994e+03 0.0000000000e+00 0.0000e+00 1.0000e+00
       13  1    1    2    0    0 -5.8979567040e+02 -3.3094912560e+02 +2.4267004909e+03 2.5191787410e+03 0.0000000000e+00 0.0000e+00 -1.0000e+00
<mgrwt>
<rscale>  0 0.48937781E+04</rscale>
<asrwt>0</asrwt>
<pdfrwt beam="1">  1        2 0.38800978E+00 0.48937781E+04</pdfrwt>
<pdfrwt beam="2">  1       -2 0.36522389E+00 0.48937781E+04</pdfrwt>
<totfact> 0.27415902E-02</totfact>
</mgrwt>
<rwgt>
<wgt id='morphing_basis_vector_1'> +5.9694714e-06 </wgt>
<wgt id='morphing_basis_vector_2'> +4.0530071e-06 </wgt>
<wgt id='morphing_basis_vector_3'> +6.5736975e-06 </wgt>
<wgt id='morphing_basis_vector_4'> +4.7510520e-06 </wgt>
<wgt id='morphing_basis_vector_5'> +7.5750455e-06 </wgt>
</rwgt>
</event>
<event>
 4      1 +7.6845000e-11 5.51861500e+03 7.81860800e-03 7.31751600e-02
        2 -1    0    0  501    0 +0.0000000000e+00 +0.0000000000e+00 +1.8400052396e+03 1.8400052396e+03 0.0000000000e+00 0.0000e+00 -1.0000e+00
       -2 -1    0    0    0  501 -0.0000000000e+00 -0.0000000000e+00 -4.1379109861e+03 4.1379109861e+03 0.0000000000e+00 0.0000e+00 1.0000e+00
      -13  1    1    2    0    0 +1.8552334953e+03 -1.4161779543e+03 -2.7432956215e+03 3.6018220649e+03 0.0000000000e+00 0.0000e+00 1.0000e+00
       13  1    1    2    0    0 -1.8552334953e+03 +1.4161779543e+03 +4.4538987487e+02 2.3760941608e+03 0.0000000000e+00 0.0000e+00 -1.0000e+00
<mgrwt>
<rscale>  0 0.55186150E+04</rscale>
<asrwt>0</asrwt>
<pdfrwt beam="1">  1        2 0.28307773E+00 0.55186150E+04</pdfrwt>
<pdfrwt beam="2">  1       -2 0.63660168E+00 0.55186150E+04</pdfrwt>
<totfact> 0.46999073E-04</totfact>
</mgrwt>
<rwgt>
<wgt id='morphing_basis_vector_1'> +9.6751833e-06 </wgt>
<wgt id='morphing_basis_vector_2'> +6.6559919e-06 </wgt>
<wgt id='morphing_basis_vector_3'> +1.0687998e-05 </wgt>
<wgt id='morphing_basis_vector_4'> +7.6168859e-06 </wgt>
<wgt id='morphing_basis_vector_5'> +1.2260673e-05 </wgt>
</rwgt>
</event>
<event>
 4      1 +7.6845000e-11 4.69523000e+03 7.81860800e-03 7.42793200e-02
        2 -1    0    0  501    0 +0.0000000000e+00 +0.0000000000e+00 +3.4808819481e+03 3.4808819481e+03 0.0000000000e+00 0.0000e+00 -1.0000e+00
       -2 -1    0    0    0  501 -0.0000000000e+00 -0.0000000000e+00 -1.5833044665e+03 1.5833044665e+03 0.0000000000e+00 0.0000e+00 1.0000e+00
      -13  1    1    2    0    0 +5.4293603750e+02 -1.6297420027e+03 -7.7709524746e+02 1.8853953325e+03 0.0000000000e+00 0.0000e+00 1.0000e+00
       13  1    1    2    0    0 -5.4293603750e+02 +1.6297420027e+03 +2.6746727291e+03 3.1787910821e+03 0.0000000000e+00 0.0000e+00 -1.0000e+00
<mgrwt>
<rscale>  0 0.46952299E+04</rscale>
<asrwt>0</asrwt>
<pdfrwt beam="1">  1        2 0.53552030E+00 0.46952299E+04</pdfrwt>
<pdfrwt beam="2">  1       -2 0.24358530E+00 0.46952299E+04</pdfrwt>
<totfact> 0.42653921E-02</totfact>
</mgrwt>
<rwgt>
<wgt id='morphing_basis_vector_1'> +5.0683854e-06 </wgt>
<wgt id='morphing_basis_vector_2'> +3.4564648e-06 </wgt>
<wgt id='morphing_basis_vector_3'> +5.5821019e-06 </wgt>
<wgt id='morphing_basis_vector_4'> +4.0079079e-06 </wgt>
<wgt id='morphing_basis_vector_5'> +6.4135598e-06 </wgt>
</rwgt>
</event>
<event>
 4      1 +7.6845000e-11 4.82946900e+03 7.81860800e-03 7.40842700e-02
        2 -1    0    0  501    0 +0.0000000000e+00 +0.0000000000e+00 +2.3479112193e+03 2.3479112193e+03 0.0000000000e+00 0.0000e+00 1.0000e+00
       -2 -1    0    0    0  501 -0.0000000000e+00 -0.0000000000e+00 -2.4834592764e+03 2.4834592764e+03 0.0000000000e+00 0.0000e+00 -1.0000e+00
      -13  1    1    2    0    0 -3.0981195429e+02 +1.5456493879e+03 +1.7621336660e+03 2.3643456884e+03 0.0000000000e+00 0.0000e+00 1.0000e+00
       13  1    1    2    0    0 +3.0981195429e+02 -1.5456493879e+03 -1.8976817232e+03 2.4670248073e+03 0.0000000000e+00 0.0000e+00 -1.0000e+00
<mgrwt>
<rscale>  0 0.48294687E+04</rscale>
<asrwt>0</asrwt>
<pdfrwt beam="1">  1        2 0.36121711E+00 0.48294687E+04</pdfrwt>
<pdfrwt beam="2">  1       -2 0.38207066E+00 0.48294687E+04</pdfrwt>
<totfact> 0.27202032E-02</totfact>
</mgrwt>
<rwgt>
<wgt id='morphing_basis_vector_1'> +7.4539516e-06 </wgt>
<wgt id='morphing_basis_vector_2'> +9.1048592e-06 </wgt>
<wgt id='morphing_basis_vector_3'> +9.1373977e-06 </wgt>
<wgt id='morphing_basis_vector_4'> +6.9271326e-07 </wgt>
<wgt id='morphing_basis_vector_5'> +6.8640012e-06 </wgt>
</rwgt>
</event>
<event>
 4      1 +7.6845000e-11 4.66187300e+03 7.81860800e-03 7.43288100e-02
        2 -1    0    0  501    0 +0.0000000000e+00 +0.0000000000e+00 +3.4209390719e+03 3.4209390719e+03 0.0000000000e+00 0.0000e+00 1.0000e+00
       -2 -1    0    0    0  501 -0.0000000000e+00 -0.0000000000e+00 -1.5882379149e+03 1.5882379149e+03 0.0000000000e+00 0.0000e+00 -1.0000e+00
      -13  1    1    2    0    0 +1.1581041938e+03 +1.0861855583e+03 -9.1731891608e+02 1.8337061882e+03 0.0000000000e+00 0.0000e+00 -1.0000e+00
       13  1    1    2    0    0 -1.1581041938e+03 -1.0861855583e+03 +2.7500200730e+03 3.1754707986e+03 0.0000000000e+00 0.0000e+00 1.0000e+00
<mgrwt>
<rscale>  0 0.46618731E+04</rscale>
<asrwt>0</asrwt>
<pdfrwt beam="1">  1        2 0.52629832E+00 0.46618731E+04</pdfrwt>
<pdfrwt beam="2">  1       -2 0.24434430E+00 0.46618731E+04</pdfrwt>
<totfact> 0.46684737E-02</totfact>
</mgrwt>
<rwgt>
<wgt id='morphing_basis_vector_1'> +4.9240262e-06 </wgt>
<wgt id='morphing_basis_vector_2'> +3.3524270e-06 </wgt>
<wgt id='morphing_basis_vector_3'> +5.4213361e-06 </wgt>
<wgt id='morphing_basis_vector_4'> +3.8998941e-06 </wgt>
<wgt id='morphing_basis_vector_5'> +6.2330148e-06 </wgt>
</rwgt>
</event>
<event>
 4      1 +7.6845000e-11 4.84364700e+03 7.81860800e-03 7.40640400e-02
        2 -1    0    0  501    0 +0.0000000000e+00 +0.0000000000e+00 +3.2602346070e+03 3.2602346070e+03 0.0000000000e+00 0.0000e+00 1.0000e+00
       -2 -1    0    0    0  501 -0.0000000000e+00 -0.0000000000e+00 -1.7990205972e+03 1.7990205972e+03 0.0000000000e+00 0.0000e+00 -1.0000e+00
      -13  1    1    2    0    0 +3.2594763044e+02 -1.3110554238e+03 -1.3688707850e+03 1.9232564593e+03 0.0000000000e+00 0.0000e+00 -1.0000e+00
       13  1    1    2    0    0 -3.2594763044e+02 +1.3110554238e+03 +2.8300847948e+03 3.1359987449e+03 0.0000000000e+00 0.0000e+00 1.0000e+00
<mgrwt>
<rscale>  0 0.48436471E+04</rscale>
<asrwt>0</asrwt>
<pdfrwt beam="1">  1        2 0.50157456E+00 0.48436471E+04</pdfrwt>
<pdfrwt beam="2">  1       -2 0.27677240E+00 0.48436471E+04</pdfrwt>
<totfact> 0.35744919E-02</totfact>
</mgrwt>
<rwgt>
<wgt id='morphing_basis_vector_1'> +5.7313479e-06 </wgt>
<wgt id='morphing_basis_vector_2'> +3.8953461e-06 </wgt>
<wgt id='morphing_basis_vector_3'> +6.3116322e-06 </wgt>
<wgt id='morphing_basis_vector_4'> +4.5546307e-06 </wgt>
<wgt id='morphing_basis_vector_5'> +7.2680470e-06 </wgt>
</rwgt>
</event>
<event>
 4      1 +7.6845000e-11 5.25021500e+03 7.81860800e-03 7.35121700e-02
        2 -1    0    0  501    0 +0.0000000000e+00 +0.0000000000e+00 +3.4044764595e+03 3.4044764595e+03 0.0000000000e+00 0.0000e+00 1.0000e+00
       -2 -1    0    0    0  501 -0.0000000000e+00 -0.0000000000e+00 -2.0241554681e+03 2.0241554681e+03 0.0000000000e+00 0.0000e+00 -1.0000e+00
      -13  1    1    2    0    0 +6.0405696432e+02 -6.4066662258e+02 -1.8669044106e+03 2.0641391948e+03 0.0000000000e+00 0.0000e+00 -1.0000e+00
       13  1    1    2    0    0 -6.0405696432e+02 +6.4066662258e+02 +3.2472254020e+03 3.3644927328e+03 0.0000000000e+00 0.0000e+00 1.0000e+00
<mgrwt>
<rscale>  0 0.52502151E+04</rscale>
<asrwt>0</asrwt>
<pdfrwt beam="1">  1        2 0.52376561E+00 0.52502151E+04</pdfrwt>
<pdfrwt beam="2">  1       -2 0.31140853E+00 0.52502151E+04</pdfrwt>
<totfact> 0.16009179E-02</totfact>
</mgrwt>
<rwgt>
<wgt id='morphing_basis_vector_1'> +7.9010537e-06 </wgt>
<wgt id='morphing_basis_vector_2'> +5.3677599e-06 </wgt>
<wgt id='morphing_basis_vector_3'> +8.7081882e-06 </wgt>
<wgt id='morphing_basis_vector_4'> +6.2989211e-06 </wgt>
<wgt id='morphing_basis_vector_5'> +1.0043670e-05 </wgt>
</rwgt>
</event>
<event>
 4      1 +7.6845000e-11 4.72405400e+03 7.81860800e-03 7.42368900e-02
        2 -1    0    0  501    0 +0.0000000000e+00 +0.0000000000e+00 +4.0942360972e+03 4.0942360972e+03 0.0000000000e+00 0.0000e+00 -1.0000e+00
       -2 -1    0    0    0  501 -0.0000000000e+00 -0.0000000000e+00 -1.3626894529e+03 1.3626894529e+03 0.0000000000e+00 0.0000e+00 1.0000e+00
      -13  1    1    2    0    0 +1.5706616524e+03 -1.0167284176e+03 -2.9956982297e+02 1.8948500680e+03 0.0000000000e+00 0.0000e+00 1.0000e+00
       13  1    1    2    0    0 -1.5706616524e+03 +1.0167284176e+03 +3.0311164673e+03 3.5620754820e+03 0.0000000000e+00 0.0000e+00 -1.0000e+00
<mgrwt>
<rscale>  0 0.47240543E+04</rscale>
<asrwt>0</asrwt>
<pdfrwt beam="1">  1        2 0.62988247E+00 0.47240543E+04</pdfrwt>
<pdfrwt beam="2">  1       -2 0.20964453E+00 0.47240543E+04</pdfrwt>
<totfact> 0.23889084E-02</totfact>
</mgrwt>
<rwgt>
<wgt id='morphing_basis_vector_1'> +5.1982853e-06 </wgt>
<wgt id='morphing_basis_vector_2'> +3.5559776e-06 </wgt>
<wgt id='morphing_basis_vector_3'> +5.7281169e-06 </wgt>
<wgt id='morphing_basis_vector_4'> +4.0974652e-06 </wgt>
<wgt id='morphing_basis_vector_5'> +6.5722374e-06 </wgt>
</rwgt>
</event>
<event>
 4      1 +7.6845000e-11 4.88251300e+03 7.81860800e-03 7.40089500e-02
        2 -1    0    0  501    0 +0.0000000000e+00 +0.0000000000e+00 +1.9119324631e+03 1.9119324631e+03 0.0000000000e+00 0.0000e+00 -1.0000e+00
       -2 -1    0    0    0  501 -0.0000000000e+00 -0.0000000000e+00 -3.1171253862e+03 3.1171253862e+03 0.0000000000e+00 0.0000e+00 1.0000e+00
      -13  1    1    2    0    0 -7.9591192521e+02 +3.4461028314e+02 -2.9530837910e+03 3.0778134961e+03 0.0000000000e+00 0.0000e+00 1.0000e+00
       13  1    1    2    0    0 +7.9591192521e+02 -3.4461028314e+02 +1.7478908679e+03 1.9512443532e+03 0.0000000000e+00 0.0000e+00 -1.0000e+00
<mgrwt>
<rscale>  0 0.48825130E+04</rscale>
<asrwt>0</asrwt>
<pdfrwt beam="1">  1        2 0.29414346E+00 0.48825130E+04</pdfrwt>
<pdfrwt beam="2">  1       -2 0.47955775E+00 0.48825130E+04</pdfrwt>
<totfact> 0.10390907E-02</totfact>
</mgrwt>
<rwgt>
<wgt id='morphing_basis_vector_1'> +5.9150624e-06 </wgt>
<wgt id='morphing_basis_vector_2'> +4.0163936e-06 </wgt>
<wgt id='morphing_basis_vector_3'> +6.5136819e-06 </wgt>
<wgt id='morphing_basis_vector_4'> +4.7069336e-06 </wgt>
<wgt id='morphing_basis_vector_5'> +7.5052752e-06 </wgt>
</rwgt>
</event>
<event>
 4      1 +7.6845000e-11 5.09756800e+03 7.81860800e-03 7.37131800e-02
        2 -1    0    0  501    0 +0.0000000000e+00 +0.0000000000e+00 +3.2975986494e+03 3.2975986494e+03 0.0000000000e+00 0.0000e+00 -1.0000e+00
       -2 -1    0    0    0  501 -0.0000000000e+00 -0.0000000000e+00 -1.9700091456e+03 1.9700091456e+03 0.0000000000e+00 0.0000e+00 1.0000e+00
      -13  1    1    2    0    0 +5.8778402156e+02 +4.7898919341e+02 -1.8507642973e+03 2.0000622959e+03 0.0000000000e+00 0.0000e+00 1.0000e+00
       13  1    1    2    0    0 -5.8778402156e+02 -4.7898919341e+02 +3.1783538011e+03 3.2675454991e+03 0.0000000000e+00 0.0000e+00 -1.0000e+00
<mgrwt>
<rscale>  0 0.50975679E+04</rscale>
<asrwt>0</asrwt>
<pdfrwt beam="1">  1        2 0.50732287E+00 0.50975679E+04</pdfrwt>
<pdfrwt beam="2">  1       -2 0.30307833E+00 0.50975679E+04</pdfrwt>
<totfact> 0.21912576E-02</totfact>
</mgrwt>
<rwgt>
<wgt id='morphing_basis_vector_1'> +7.0239246e-06 </wgt>
<wgt id='morphing_basis_vector_2'> +4.7705829e-06 </wgt>
<wgt id='morphing_basis_vector_3'> +7.7387842e-06 </wgt>
<wgt id='morphing_basis_vector_4'> +5.5960066e-06 </wgt>
<wgt id='morphing_basis_vector_5'> +8.9224716e-06 </wgt>
</rwgt>
</event>
<event>
 4      1 +7.6845000e-11 5.07951300e+03 7.81860800e-03 7.37374300e-02
        2 -1    0    0  501    0 +0.0000000000e+00 +0.0000000000e+00 +2.7204539692e+03 2.7204539692e+03 0.0000000000e+00 0.0000e+00 1.0000e+00
       -2 -1    0    0    0  501 -0.0000000000e+00 -0.0000000000e+00 -2.3710613099e+03 2.3710613099e+03 0.0000000000e+00 0.0000e+00 -1.0000e+00
      -13  1    1    2    0    0 -1.7571910669e+03 -3.2786896656e+02 -1.6337687144e+03 2.4216561930e+03 0.0000000000e+00 0.0000e+00 -1.0000e+00
       13  1    1    2    0    0 +1.7571910669e+03 +3.2786896656e+02 +1.9831613738e+03 2.6698590860e+03 0.0000000000e+00 0.0000e+00 1.0000e+00
<mgrwt>
<rscale>  0 0.50795130E+04</rscale>
<asrwt>0</asrwt>
<pdfrwt beam="1">  1        2 0.41853138E+00 0.50795130E+04</pdfrwt>
<pdfrwt beam="2">  1       -2 0.36477866E+00 0.50795130E+04</pdfrwt>
<totfact> 0.20601779E-02</totfact>
</mgrwt>
<rwgt>
<wgt id='morphing_basis_vector_1'> +6.9331895e-06 </wgt>
<wgt id='morphing_basis_vector_2'> +4.7267428e-06 </wgt>
<wgt id='morphing_basis_vector_3'> +7.6426372e-06 </wgt>
<wgt id='morphing_basis_vector_4'> +5.4999949e-06 </wgt>
<wgt id='morphing_basis_vector_5'> +8.7949325e-06 </wgt>
</rwgt>
</event>
<event>
 4      1 +7.6845000e-11 4.71405600e+03 7.81860800e-03 7.42515800e-02
        2 -1    0    0  501    0 +0.0000000000e+00 +0.0000000000e+00 +1.1656658274e+03 1.1656658274e+03 0.0000000000e+00 0.0000e+00 -1.0000e+00
       -2 -1    0    0    0  501 -0.0000000000e+00 -0.0000000000e+00 -4.7660160104e+03 4.7660160104e+03 0.0000000000e+00 0.0000e+00 1.0000e+00
      -13  1    1    2    0    0 +1.0356767048e+03 +1.5768684425e+03 -3.5780916932e+03 4.0449821367e+03 0.0000000000e+00 0.0000e+00 1.0000e+00
       13  1    1    2    0    0 -1.0356767048e+03 -1.5768684425e+03 -2.2258489798e+01 1.8866997011e+03 0.0000000000e+00 0.0000e+00 -1.0000e+00
<mgrwt>
<rscale>  0 0.47140564E+04</rscale>
<asrwt>0</asrwt>
<pdfrwt beam="1">  1        2 0.17933320E+00 0.47140564E+04</pdfrwt>
<pdfrwt beam="2">  1       -2 0.73323324E+00 0.47140564E+04</pdfrwt>
<totfact> 0.11778611E-03</totfact>
</mgrwt>
<rwgt>
<wgt id='morphing_basis_vector_1'> +5.1554431e-06 </wgt>
<wgt id='morphing_basis_vector_2'> +3.5285503e-06 </wgt>
<wgt id='morphing_basis_vector_3'> +5.6811874e-06 </wgt>
<wgt id='morphing_basis_vector_4'> +4.0609313e-06 </wgt>
<wgt id='morphing_basis_vector_5'> +6.5164259e-06 </wgt>
</rwgt>
</event>
<event>
 4      1 +7.6845000e-11 5.21025400e+03 7.81860800e-03 7.35641100e-02
        2 -1    0    0  501    0 +0.0000000000e+00 +0.0000000000e+00 +2.2584679265e+03 2.2584679265e+03 0.0000000000e+00 0.0000e+00 1.0000e+00
       -2 -1    0    0    0  501 -0.0000000000e+00 -0.0000000000e+00 -3.0049962515e+03 3.0049962515e+03 0.0000000000e+00 0.0000e+00 -1.0000e+00
      -13  1    1    2    0    0 +1.5351216204e+03 -1.5530530780e+03 -1.8083759884e+03 2.8352770532e+03 0.0000000000e+00 0.0000e+00 -1.0000e+00
       13  1    1    2    0    0 -1.5351216204e+03 +1.5530530780e+03 +1.0618476635e+03 2.4281871248e+03 0.0000000000e+00 0.0000e+00 1.0000e+00
<mgrwt>
<rscale>  0 0.52102544E+04</rscale>
<asrwt>0</asrwt>
<pdfrwt beam="1">  1        2 0.34745661E+00 0.52102544E+04</pdfrwt>
<pdfrwt beam="2">  1       -2 0.46230711E+00 0.52102544E+04</pdfrwt>
<totfact> 0.86114425E-03</totfact>
</mgrwt>
<rwgt>
<wgt id='morphing_basis_vector_1'> +7.6905214e-06 </wgt>
<wgt id='morphing_basis_vector_2'> +5.2844268e-06 </wgt>
<wgt id='morphing_basis_vector_3'> +8.4893329e-06 </wgt>
<wgt id='morphing_basis_vector_4'> +6.0521095e-06 </wgt>
<wgt id='morphing_basis_vector_5'> +9.7357449e-06 </wgt>
</rwgt>
</event>
<event>
 4      1 +7.6845000e-11 4.92818700e+03 7.81860800e-03 7.39448500e-02
        2 -1    0    0  501    0 +0.0000000000e+00 +0.0000000000e+00 +3.5413783614e+03 3.5413783614e+03 0.0000000000e+00 0.0000e+00 1.0000e+00
       -2 -1    0    0    0  501 -0.0000000000e+00 -0.0000000000e+00 -1.7145182687e+03 1.7145182687e+03 0.0000000000e+00 0.0000e+00 -1.0000e+00
      -13  1    1    2    0    0 -1.6305343660e+02 +7.5208521438e+02 -1.5830702363e+03 1.7602073645e+03 0.0000000000e+00 0.0000e+00 -1.0000e+00
       13  1    1    2    0    0 +1.6305343660e+02 -7.5208521438e+02 +3.4099303291e+03 3.4956892656e+03 0.0000000000e+00 0.0000e+00 1.0000e+00
<mgrwt>
<rscale>  0 0.49281875E+04</rscale>
<asrwt>0</asrwt>
<pdfrwt beam="1">  1        2 0.54482744E+00 0.49281875E+04</pdfrwt>
<pdfrwt beam="2">  1       -2 0.26377204E+00 0.49281875E+04</pdfrwt>
<totfact> 0.27441606E-02</totfact>
</mgrwt>
<rwgt>
<wgt id='morphing_basis_vector_1'> +6.1386215e-06 </wgt>
<wgt id='morphing_basis_vector_2'> +4.1682432e-06 </wgt>
<wgt id='morphing_basis_vector_3'> +6.7606054e-06 </wgt>
<wgt id='morphing_basis_vector_4'> +4.8863904e-06 </wgt>
<wgt id='morphing_basis_vector_5'> +7.7910570e-06 </wgt>
</rwgt>
</event>
<event>
 4      1 +7.6845000e-11 4.78633100e+03 7.81860800e-03 7.41462500e-02
        2 -1    0    0  501    0 +0.0000000000e+00 +0.0000000000e+00 +3.6233662420e+03 3.6233662420e+03 0.0000000000e+00 0.0000e+00 -1.0000e+00
       -2 -1    0    0    0  501 -0.0000000000e+00 -0.0000000000e+00 -1.5806408917e+03 1.5806408917e+03 0.0000000000e+00 0.0000e+00 1.0000e+00
      -13  1    1    2    0    0 +1.4646702759e+03 +6.4881571204e+02 -9.1171268934e+02 1.8432148201e+03 0.0000000000e+00 0.0000e+00 1.0000e+00
       13  1    1    2    0    0 -1.4646702759e+03 -6.4881571204e+02 +2.9544380396e+03 3.3607923136e+03 0.0000000000e+00 0.0000e+00 -1.0000e+00
<mgrwt>
<rscale>  0 0.47863309E+04</rscale>
<asrwt>0</asrwt>
<pdfrwt beam="1">  1        2 0.55744096E+00 0.47863309E+04</pdfrwt>
<pdfrwt beam="2">  1       -2 0.24317552E+00 0.47863309E+04</pdfrwt>
<totfact> 0.33391390E-02</totfact>
</mgrwt>
<rwgt>
<wgt id='morphing_basis_vector_1'> +5.4686845e-06 </wgt>
<wgt id='morphing_basis_vector_2'> +3.7230363e-06 </wgt>
<wgt id='morphing_basis_vector_3'> +6.0229405e-06 </wgt>
<wgt id='morphing_basis_vector_4'> +4.3359384e-06 </wgt>
<wgt id='morphing_basis_vector_5'> +6.9284373e-06 </wgt>
</rwgt>
</event>
<event>
 4      1 +7.6845000e-11 4.78477500e+03 7.81860800e-03 7.41485000e-02
        2 -1    0    0  501    0 +0.0000000000e+00 +0.0000000000e+00 +2.4065814289e+03 2.4065814289e+03 0.0000000000e+00 0.0000e+00 1.0000e+00
       -2 -1    0    0    0  501 -0.0000000000e+00 -0.0000000000e+00 -2.3782769049e+03 2.3782769049e+03 0.0000000000e+00 0.0000e+00 -1.0000e+00
      -13  1    1    2    0    0 -3.2451202419e+02 +1.4902295906e+03 +1.8573949573e+03 2.4033327514e+03 0.0000000000e+00 0.0000e+00 1.0000e+00
       13  1    1    2    0    0 +3.2451202419e+02 -1.4902295906e+03 -1.8290904332e+03 2.3815255824e+03 0.0000000000e+00 0.0000e+00 -1.0000e+00
<mgrwt>
<rscale>  0 0.47847746E+04</rscale>
<asrwt>0</asrwt>
<pdfrwt beam="1">  1        2 0.37024330E+00 0.47847746E+04</pdfrwt>
<pdfrwt beam="2">  1       -2 0.36588875E+00 0.47847746E+04</pdfrwt>
<totfact> 0.32059374E-02</totfact>
</mgrwt>
<rwgt>
<wgt id='morphing_basis_vector_1'> +7.2130159e-06 </wgt>
<wgt id='morphing_basis_vector_2'> +8.8623066e-06 </wgt>
<wgt id='morphing_basis_vector_3'> +8.8520838e-06 </wgt>
<wgt id='morphing_basis_vector_4'> +6.0300672e-07 </wgt>
<wgt id='morphing_basis_vector_5'> +6.6072519e-06 </wgt>
</rwgt>
</event>
<event>
 4      1 +7.6845000e-11 4.99835500e+03 7.81860800e-03 7.38477400e-02
        2 -1    0    0  501    0 +0.0000000000e+00 +0.0000000000e+00 +3.1985730142e+03 3.1985730142e+03 0.0000000000e+00 0.0000e+00 1.0000e+00
       -2 -1    0    0    0  501 -0.0000000000e+00 -0.0000000000e+00 -1.9527109675e+03 1.9527109675e+03 0.0000000000e+00 0.0000e+00 -1.0000e+00
      -13  1    1    2    0    0 +2.0908167359e+03 -5.2067257189e+02 -6.8201413983e+02 2.2600349194e+03 0.0000000000e+00 0.0000e+00 -1.0000e+00
       13  1    1    2    0    0 -2.0908167359e+03 +5.2067257189e+02 +1.9278761865e+03 2.8912490624e+03 0.0000000000e+00 0.0000e+00 1.0000e+00
<mgrwt>
<rscale>  0 0.49983552E+04</rscale>
<asrwt>0</asrwt>
<pdfrwt beam="1">  1        2 0.49208815E+00 0.49983552E+04</pdfrwt>
<pdfrwt beam="2">  1       -2 0.30041707E+00 0.49983552E+04</pdfrwt>
<totfact> 0.26921573E-02</totfact>
</mgrwt>
<rwgt>
<wgt id='morphing_basis_vector_1'> +6.5224889e-06 </wgt>
<wgt id='morphing_basis_vector_2'> +4.4924965e-06 </wgt>
<wgt id='morphing_basis_vector_3'> +7.1992002e-06 </wgt>
<wgt id='morphing_basis_vector_4'> +5.1120546e-06 </wgt>
<wgt id='morphing_basis_vector_5'> +8.2408503e-06 </wgt>
</rwgt>
</event>
<event>
 4      1 +7.6845000e-11 5.37086700e+03 7.81860800e-03 7.33581800e-02
        2 -1    0    0  501    0 +0.0000000000e+00 +0.0000000000e+00 +2.6622741864e+03 2.6622741864e+03 0.0000000000e+00 0.0000e+00 1.0000e+00
       -2 -1    0    0    0  501 -0.0000000000e+00 -0.0000000000e+00 -2.7087938893e+03 2.7087938893e+03 0.0000000000e+00 0.0000e+00 -1.0000e+00
      -13  1    1    2    0    0 -1.7297613053e+03 -5.6338366148e+02 -1.9987014385e+03 2.7026436620e+03 0.0000000000e+00 0.0000e+00 -1.0000e+00
       13  1    1    2    0    0 +1.7297613053e+03 +5.6338366148e+02 +1.9521817356e+03 2.6684244138e+03 0.0000000000e+00 0.0000e+00 1.0000e+00
<mgrwt>
<rscale>  0 0.53708666E+04</rscale>
<asrwt>0</asrwt>
<pdfrwt beam="1">  1        2 0.40958064E+00 0.53708666E+04</pdfrwt>
<pdfrwt beam="2">  1       -2 0.41673752E+00 0.53708666E+04</pdfrwt>
<totfact> 0.10050495E-02</totfact>
</mgrwt>
<rwgt>
<wgt id='morphing_basis_vector_1'> +8.6583263e-06 </wgt>
<wgt id='morphing_basis_vector_2'> +5.9009357e-06 </wgt>
<wgt id='morphing_basis_vector_3'> +9.5493105e-06 </wgt>
<wgt id='morphing_basis_vector_4'> +6.8831174e-06 </wgt>
<wgt id='morphing_basis_vector_5'> +1.1000611e-05 </wgt>
</rwgt>
</event>
<event>
 4      1 +7.6845000e-11 5.24908300e+03 7.81860800e-03 7.35136300e-02
        2 -1    0    0  501    0 +0.0000000000e+00 +0.0000000000e+00 +4.3002972805e+03 4.3002972805e+03 0.0000000000e+00 0.0000e+00 1.0000e+00
       -2 -1    0    0    0  501 -0.0000000000e+00 -0.0000000000e+00 -1.6018004770e+03 1.6018004770e+03 0.0000000000e+00 0.0000e+00 -1.0000e+00
      -13  1    1    2    0    0 +7.9434899140e+02 +1.9857985935e+03 +3.0596136043e+03 3.7330445727e+03 0.0000000000e+00 0.0000e+00 -1.0000e+00
       13  1    1    2    0    0 -7.9434899140e+02 -1.9857985935e+03 -3.6111680081e+02 2.1690531847e+03 0.0000000000e+00 0.0000e+00 1.0000e+00
<mgrwt>
<rscale>  0 0.52490831E+04</rscale>
<asrwt>0</asrwt>
<pdfrwt beam="1">  1        2 0.66158419E+00 0.52490831E+04</pdfrwt>
<pdfrwt beam="2">  1       -2 0.24643084E+00 0.52490831E+04</pdfrwt>
<totfact> 0.81741672E-03</totfact>
</mgrwt>
<rwgt>
<wgt id='morphing_basis_vector_1'> +9.6763979e-06 </wgt>
<wgt id='morphing_basis_vector_2'> +1.0595879e-05 </wgt>
<wgt id='morphing_basis_vector_3'> +1.1598183e-05 </wgt>
<wgt id='morphing_basis_vector_4'> +2.4917358e-06 </wgt>
<wgt id='morphing_basis_vector_5'> +9.7159564e-06 </wgt>
</rwgt>
</event>
<event>
 4      1 +7.6845000e-11 4.77828600e+03 7.81860800e-03 7.41578800e-02
        2 -1    0    0  501    0 +0.0000000000e+00 +0.0000000000e+00 +2.3228612548e+03 2.3228612548e+03 0.0000000000e+00 0.0000e+00 1.0000e+00
       -2 -1    0    0    0  501 -0.0000000000e+00 -0.0000000000e+00 -2.4573162287e+03 2.4573162287e+03 0.0000000000e+00 0.0000e+00 -1.0000e+00
      -13  1    1    2    0    0 -1.8431524903e+03 -1.4995347268e+03 -3.1670373805e+02 2.3971059127e+03 0.0000000000e+00 0.0000e+00 1.0000e+00
       13  1    1    2    0    0 +1.8431524903e+03 +1.4995347268e+03 +1.8224876417e+02 2.3830715707e+03 0.0000000000e+00 0.0000e+00 -1.0000e+00
<mgrwt>
<rscale>  0 0.47782862E+04</rscale>
<asrwt>0</asrwt>
<pdfrwt beam="1">  1        2 0.35736327E+00 0.47782862E+04</pdfrwt>
<pdfrwt beam="2">  1       -2 0.37804865E+00 0.47782862E+04</pdfrwt>
<totfact> 0.29985507E-02</totfact>
</mgrwt>
<rwgt>
<wgt id='morphing_basis_vector_1'> +5.5633135e-06 </wgt>
<wgt id='morphing_basis_vector_2'> +4.0833720e-06 </wgt>
<wgt id='morphing_basis_vector_3'> +6.1950202e-06 </wgt>
<wgt id='morphing_basis_vector_4'> +4.0276205e-06 </wgt>
<wgt id='morphing_basis_vector_5'> +6.8584371e-06 </wgt>
</rwgt>
</event>
<event>
 4      1 +7.6845000e-11 5.20227400e+03 7.81860800e-03 7.35745400e-02
        2 -1    0    0  501    0 +0.0000000000e+00 +0.0000000000e+00 +2.4245237982e+03 2.4245237982e+03 0.0000000000e+00 0.0000e+00 1.0000e+00
       -2 -1    0    0    0  501 -0.0000000000e+00 -0.0000000000e+00 -2.7906160033e+03 2.7906160033e+03 0.0000000000e+00 0.0000e+00 -1.0000e+00
      -13  1    1    2    0    0 -2.0196858145e+03 -6.8223688810e+02 +1.3110547512e+03 2.5026870602e+03 0.0000000000e+00 0.0000e+00 1.0000e+00
       13  1    1    2    0    0 +2.0196858145e+03 +6.8223688810e+02 -1.6771469563e+03 2.7124527413e+03 0.0000000000e+00 0.0000e+00 -1.0000e+00
<mgrwt>
<rscale>  0 0.52022745E+04</rscale>
<asrwt>0</asrwt>
<pdfrwt beam="1">  1        2 0.37300366E+00 0.52022745E+04</pdfrwt>
<pdfrwt beam="2">  1       -2 0.42932554E+00 0.52022745E+04</pdfrwt>
<totfact> 0.11662867E-02</totfact>
</mgrwt>
<rwgt>
<wgt id='morphing_basis_vector_1'> +9.3101231e-06 </wgt>
<wgt id='morphing_basis_vector_2'> +1.0145408e-05 </wgt>
<wgt id='morphing_basis_vector_3'> +1.1145996e-05 </wgt>
<wgt id='morphing_basis_vector_4'> +2.4607814e-06 </wgt>
<wgt id='morphing_basis_vector_5'> +9.3778584e-06 </wgt>
</rwgt>
</event>
<event>
 4      1 +7.6845000e-11 4.87243200e+03 7.81860800e-03 7.40231900e-02
        2 -1    0    0  501    0 +0.0000000000e+00 +0.0000000000e+00 +3.3233717875e+03 3.3233717875e+03 0.0000000000e+00 0.0000e+00 -1.0000e+00
       -2 -1    0    0    0  501 -0.0000000000e+00 -0.0000000000e+00 -1.7858812933e+03 1.7858812933e+03 0.0000000000e+00 0.0000e+00 1.0000e+00
      -13  1    1    2    0    0 +1.9772786242e+03 -1.3231653715e+03 +2.1910233876e+02 2.3892264842e+03 0.0000000000e+00 0.0000e+00 1.0000e+00
       13  1    1    2    0    0 -1.9772786242e+03 +1.3231653715e+03 +1.3183881555e+03 2.7200265966e+03 0.0000000000e+00 0.0000e+00 -1.0000e+00
<mgrwt>
<rscale>  0 0.48724316E+04</rscale>
<asrwt>0</asrwt>
<pdfrwt beam="1">  1        2 0.51128797E+00 0.48724316E+04</pdfrwt>
<pdfrwt beam="2">  1       -2 0.27475097E+00 0.48724316E+04</pdfrwt>
<totfact> 0.33272696E-02</totfact>
</mgrwt>
<rwgt>
<wgt id='morphing_basis_vector_1'> +5.9618514e-06 </wgt>
<wgt id='morphing_basis_vector_2'> +4.2633274e-06 </wgt>
<wgt id='morphing_basis_vector_3'> +6.6145916e-06 </wgt>
<wgt id='morphing_basis_vector_4'> +4.4650874e-06 </wgt>
<wgt id='morphing_basis_vector_5'> +7.4262698e-06 </wgt>
</rwgt>
</event>
<event>
 4      1 +7.6845000e-11 4.97075500e+03 7.81860800e-03 7.38857400e-02
        2 -1    0    0  501    0 +0.0000000000e+00 +0.0000000000e+00 +3.5567165152e+03 3.5567165152e+03 0.0000000000e+00 0.0000e+00 1.0000e+00
       -2 -1    0    0    0  501 -0.0000000000e+00 -0.0000000000e+00 -1.7367425417e+03 1.7367425417e+03 0.0000000000e+00 0.0000e+00 -1.0000e+00
      -13  1    1    2    0    0 -5.5372094878e+01 +1.7221211455e+03 -9.9747975110e+02 1.9909126456e+03 0.0000000000e+00 0.0000e+00 -1.0000e+00
       13  1    1    2    0    0 +5.5372094878e+01 -1.7221211455e+03 +2.8174537245e+03 3.3025464113e+03 0.0000000000e+00 0.0000e+00 1.0000e+00
<mgrwt>
<rscale>  0 0.49707548E+04</rscale>
<asrwt>0</asrwt>
<pdfrwt beam="1">  1        2 0.54718715E+00 0.49707548E+04</pdfrwt>
<pdfrwt beam="2">  1       -2 0.26719116E+00 0.49707548E+04</pdfrwt>
<totfact> 0.25238769E-02</totfact>
</mgrwt>
<rwgt>
<wgt id='morphing_basis_vector_1'> +6.3593914e-06 </wgt>
<wgt id='morphing_basis_vector_2'> +4.3334640e-06 </wgt>
<wgt id='morphing_basis_vector_3'> +7.0079625e-06 </wgt>
<wgt id='morphing_basis_vector_4'> +5.0438012e-06 </wgt>
<wgt id='morphing_basis_vector_5'> +8.0634573e-06 </wgt>
</rwgt>
</event>
<event>
 4      1 +7.6845000e-11 5.16332400e+03 7.81860800e-03 7.36257200e-02
        2 -1    0    0  501    0 +0.0000000000e+00 +0.0000000000e+00 +3.6540367745e+03 3.6540367745e+03 0.0000000000e+00 0.0000e+00 -1.0000e+00
       -2 -1    0    0    0  501 -0.0000000000e+00 -0.0000000000e+00 -1.8240041570e+03 1.8240041570e+03 0.0000000000e+00 0.0000e+00 1.0000e+00
      -13  1    1    2    0    0 -1.4920768436e+03 +2.1028699026e+03 +7.7822694270e+02 2.6933236547e+03 0.0000000000e+00 0.0000e+00 1.0000e+00
       13  1    1    2    0    0 +1.4920768436e+03 -2.1028699026e+03 +1.0518056748e+03 2.7847172769e+03 0.0000000000e+00 0.0000e+00 -1.0000e+00
<mgrwt>
<rscale>  0 0.51633238E+04</rscale>
<asrwt>0</asrwt>
<pdfrwt beam="1">  1        2 0.56215950E+00 0.51633238E+04</pdfrwt>
<pdfrwt beam="2">  1       -2 0.28061602E+00 0.51633238E+04</pdfrwt>
<totfact> 0.16996995E-02</totfact>
</mgrwt>
<rwgt>
<wgt id='morphing_basis_vector_1'> +7.6189483e-06 </wgt>
<wgt id='morphing_basis_vector_2'> +5.6869393e-06 </wgt>
<wgt id='morphing_basis_vector_3'> +8.5141748e-06 </wgt>
<wgt id='morphing_basis_vector_4'> +5.4078258e-06 </wgt>
<wgt id='morphing_basis_vector_5'> +9.3527321e-06 </wgt>
</rwgt>
</event>
<event>
 4      1 +7.6845000e-11 4.62538900e+03 7.81860800e-03 7.43834200e-02
        2 -1    0    0  501    0 +0.0000000000e+00 +0.0000000000e+00 +2.7226457596e+03 2.7226457596e+03 0.0000000000e+00 0.0000e+00 -1.0000e+00
       -2 -1    0    0    0  501 -0.0000000000e+00 -0.0000000000e+00 -1.9644695600e+03 1.9644695600e+03 0.0000000000e+00 0.0000e+00 1.0000e+00
      -13  1    1    2    0    0 +6.5650261243e+02 -2.9945636565e+02 -1.8474794557e+03 1.9833935904e+03 0.0000000000e+00 0.0000e+00 1.0000e+00
       13  1    1    2    0    0 -6.5650261243e+02 +2.9945636565e+02 +2.6056556553e+03 2.7037217292e+03 0.0000000000e+00 0.0000e+00 -1.0000e+00
<mgrwt>
<rscale>  0 0.46253885E+04</rscale>
<asrwt>0</asrwt>
<pdfrwt beam="1">  1        2 0.41886858E+00 0.46253885E+04</pdfrwt>
<pdfrwt beam="2">  1       -2 0.30222609E+00 0.46253885E+04</pdfrwt>
<totfact> 0.54814739E-02</totfact>
</mgrwt>
<rwgt>
<wgt id='morphing_basis_vector_1'> +4.7677341e-06 </wgt>
<wgt id='morphing_basis_vector_2'> +3.2355874e-06 </wgt>
<wgt id='morphing_basis_vector_3'> +5.2463377e-06 </wgt>
<wgt id='morphing_basis_vector_4'> +3.7884148e-06 </wgt>
<wgt id='morphing_basis_vector_5'> +6.0402769e-06 </wgt>
</rwgt>
</event>
<event>
 4      1 +7.6845000e-11 4.63614100e+03 7.81860800e-03 7.43672700e-02
        2 -1    0    0  501    0 +0.0000000000e+00 +0.0000000000e+00 +2.1595139757e+03 2.1595139757e+03 0.0000000000e+00 0.0000e+00 -1.0000e+00
       -2 -1    0    0    0  501 -0.0000000000e+00 -0.0000000000e+00 -2.4882687925e+03 2.4882687925e+03 0.0000000000e+00 0.0000e+00 1.0000e+00
      -13  1    1    2    0    0 +1.9130466261e+03 +1.3074457378e+03 -2.3003600531e+02 2.3285356588e+03 0.0000000000e+00 0.0000e+00 1.0000e+00
       13  1    1    2    0    0 -1.9130466261e+03 -1.3074457378e+03 -9.8718811494e+01 2.3192471094e+03 0.0000000000e+00 0.0000e+00 -1.0000e+00
<mgrwt>
<rscale>  0 0.46361412E+04</rscale>
<asrwt>0</asrwt>
<pdfrwt beam="1">  1        2 0.33223292E+00 0.46361412E+04</pdfrwt>
<pdfrwt beam="2">  1       -2 0.38281058E+00 0.46361412E+04</pdfrwt>
<totfact> 0.35075761E-02</totfact>
</mgrwt>
<rwgt>
<wgt id='morphing_basis_vector_1'> +4.9717695e-06 </wgt>
<wgt id='morphing_basis_vector_2'> +3.7348970e-06 </wgt>
<wgt id='morphing_basis_vector_3'> +5.5536218e-06 </wgt>
<wgt id='morphing_basis_vector_4'> +3.4843042e-06 </wgt>
<wgt id='morphing_basis_vector_5'> +6.0684327e-06 </wgt>
</rwgt>
</event>
<event>
 4      1 +7.6845000e-11 4.76231900e+03 7.81860800e-03 7.41810300e-02
        2 -1    0    0  501    0 +0.0000000000e+00 +0.0000000000e+00 +2.7225425132e+03 2.7225425132e+03 0.0000000000e+00 0.0000e+00 -1.0000e+00
       -2 -1    0    0    0  501 -0.0000000000e+00 -0.0000000000e+00 -2.0825831549e+03 2.0825831549e+03 0.0000000000e+00 0.0000e+00 1.0000e+00
      -13  1    1    2    0    0 -2.2344674335e+03 -2.1749660375e+02 -4.8073503955e+02 2.2959215279e+03 0.0000000000e+00 0.0000e+00 1.0000e+00
       13  1    1    2    0    0 +2.2344674335e+03 +2.1749660375e+02 +1.1206943978e+03 2.5092041402e+03 0.0000000000e+00 0.0000e+00 -1.0000e+00
<mgrwt>
<rscale>  0 0.47623193E+04</rscale>
<asrwt>0</asrwt>
<pdfrwt beam="1">  1        2 0.41885270E+00 0.47623193E+04</pdfrwt>
<pdfrwt beam="2">  1       -2 0.32039741E+00 0.47623193E+04</pdfrwt>
<totfact> 0.41002658E-02</totfact>
</mgrwt>
<rwgt>
<wgt id='morphing_basis_vector_1'> +5.4086560e-06 </wgt>
<wgt id='morphing_basis_vector_2'> +3.7914415e-06 </wgt>
<wgt id='morphing_basis_vector_3'> +5.9815564e-06 </wgt>
<wgt id='morphing_basis_vector_4'> +4.1460922e-06 </wgt>
<wgt id='morphing_basis_vector_5'> +6.7813313e-06 </wgt>
</rwgt>
</event>
<event>
 4      1 +7.6845000e-11 4.86821800e+03 7.81860800e-03 7.40291500e-02
        2 -1    0    0  501    0 +0.0000000000e+00 +0.0000000000e+00 +3.2812724118e+03 3.2812724118e+03 0.0000000000e+00 0.0000e+00 -1.0000e+00
       -2 -1    0    0    0  501 -0.0000000000e+00 -0.0000000000e+00 -1.8056671845e+03 1.8056671845e+03 0.0000000000e+00 0.0000e+00 1.0000e+00
      -13  1    1    2    0    0 -1.7185480438e+03 +1.4580656814e+03 -2.2303346844e+02 2.2647531517e+03 0.0000000000e+00 0.0000e+00 1.0000e+00
       13  1    1    2    0    0 +1.7185480438e+03 -1.4580656814e+03 +1.6986386957e+03 2.8221864447e+03 0.0000000000e+00 0.0000e+00 -1.0000e+00
<mgrwt>
<rscale>  0 0.48682177E+04</rscale>
<asrwt>0</asrwt>
<pdfrwt beam="1">  1        2 0.50481114E+00 0.48682177E+04</pdfrwt>
<pdfrwt beam="2">  1       -2 0.27779495E+00 0.48682177E+04</pdfrwt>
<totfact> 0.33951379E-02</totfact>
</mgrwt>
<rwgt>
<wgt id='morphing_basis_vector_1'> +5.8937071e-06 </wgt>
<wgt id='morphing_basis_vector_2'> +4.1087707e-06 </wgt>
<wgt id='morphing_basis_vector_3'> +6.5145502e-06 </wgt>
<wgt id='morphing_basis_vector_4'> +4.5509972e-06 </wgt>
<wgt id='morphing_basis_vector_5'> +7.4090216e-06 </wgt>
</rwgt>
</event>
<event>
 4      1 +7.6845000e-11 5.05290700e+03 7.81860800e-03 7.37733600e-02
        2 -1    0    0  501    0 +0.0000000000e+00 +0.0000000000e+00 +2.5889628493e+03 2.5889628493e+03 0.0000000000e+00 0.0000e+00 1.0000e+00
       -2 -1    0    0    0  501 -0.0000000000e+00 -0.0000000000e+00 -2.4654537405e+03 2.4654537405e+03 0.0000000000e+00 0.0000e+00 -1.0000e+00
      -13  1    1    2    0    0 +2.4862125930e+03 -2.7712181230e+02 -2.9178924644e+02 2.5185691416e+03 0.0000000000e+00 0.0000e+00 -1.0000e+00
       13  1    1    2    0    0 -2.4862125930e+03 +2.7712181230e+02 +4.1529835527e+02 2.5358474482e+03 0.0000000000e+00 0.0000e+00 1.0000e+00
<mgrwt>
<rscale>  0 0.50529073E+04</rscale>
<asrwt>0</asrwt>
<pdfrwt beam="1">  1        2 0.39830198E+00 0.50529073E+04</pdfrwt>
<pdfrwt beam="2">  1       -2 0.37930057E+00 0.50529073E+04</pdfrwt>
<totfact> 0.20035158E-02</totfact>
</mgrwt>
<rwgt>
<wgt id='morphing_basis_vector_1'> +6.9300665e-06 </wgt>
<wgt id='morphing_basis_vector_2'> +5.0413236e-06 </wgt>
<wgt id='morphing_basis_vector_3'> +7.7119713e-06 </wgt>
<wgt id='morphing_basis_vector_4'> +5.0857891e-06 </wgt>
<wgt id='morphing_basis_vector_5'> +8.5864345e-06 </wgt>
</rwgt>
</event>
<event>
 4      1 +7.6845000e-11 4.71936500e+03 7.81860800e-03 7.42437800e-02
        2 -1    0    0  501    0 +0.0000000000e+00 +0.0000000000e+00 +3.6620308449e+03 3.6620308449e+03 0.0000000000e+00 0.0000e+00 -1.0000e+00
       -2 -1    0    0    0  501 -0.0000000000e+00 -0.0000000000e+00 -1.5204952219e+03 1.5204952219e+03 0.0000000000e+00 0.0000e+00 1.0000e+00
      -13  1    1    2    0    0 +1.5535487204e+02 +2.2732219029e+03 +3.9701807084e+02 2.3128545793e+03 0.0000000000e+00 0.0000e+00 1.0000e+00
       13  1    1    2    0    0 -1.5535487204e+02 -2.2732219029e+03 +1.7445175522e+03 2.8696714875e+03 0.0000000000e+00 0.0000e+00 -1.0000e+00
<mgrwt>
<rscale>  0 0.47193645E+04</rscale>
<asrwt>0</asrwt>
<pdfrwt beam="1">  1        2 0.56338936E+00 0.47193645E+04</pdfrwt>
<pdfrwt beam="2">  1       -2 0.23392234E+00 0.47193645E+04</pdfrwt>
<totfact> 0.36381832E-02</totfact>
</mgrwt>
<rwgt>
<wgt id='morphing_basis_vector_1'> +5.2355984e-06 </wgt>
<wgt id='morphing_basis_vector_2'> +3.7118161e-06 </wgt>
<wgt id='morphing_basis_vector_3'> +5.7990565e-06 </wgt>
<wgt id='morphing_basis_vector_4'> +3.9580993e-06 </wgt>
<wgt id='morphing_basis_vector_5'> +6.5357828e-06 </wgt>
</rwgt>
</event>
<event>
 4      1 +7.6845000e-11 4.93566600e+03 7.81860800e-03 7.39344300e-02
        2 -1    0    0  501    0 +0.0000000000e+00 +0.0000000000e+00 +4.8084317775e+03 4.8084317775e+03 0.0000000000e+00 0.0000e+00 -1.0000e+00
       -2 -1    0    0    0  501 -0.0000000000e+00 -0.0000000000e+00 -1.2665666538e+03 1.2665666538e+03 0.0000000000e+00 0.0000e+00 1.0000e+00
      -13  1    1    2    0    0 +1.2737851402e+03 +2.1054095881e+03 +1.5409233761e+03 2.9033985204e+03 0.0000000000e+00 0.0000e+00 1.0000e+00
       13  1    1    2    0    0 -1.2737851402e+03 -2.1054095881e+03 +2.0009417477e+03 3.1715999109e+03 0.0000000000e+00 0.0000e+00 -1.0000e+00
<mgrwt>
<rscale>  0 0.49356659E+04</rscale>
<asrwt>0</asrwt>
<pdfrwt beam="1">  1        2 0.73975873E+00 0.49356659E+04</pdfrwt>
<pdfrwt beam="2">  1       -2 0.19485641E+00 0.49356659E+04</pdfrwt>
<totfact> 0.56051807E-03</totfact>
</mgrwt>
<rwgt>
<wgt id='morphing_basis_vector_1'> +6.3479560e-06 </wgt>
<wgt id='morphing_basis_vector_2'> +4.6990352e-06 </wgt>
<wgt id='morphing_basis_vector_3'> +7.0808910e-06 </wgt>
<wgt id='morphing_basis_vector_4'> +4.5496132e-06 </wgt>
<wgt id='morphing_basis_vector_5'> +7.8078869e-06 </wgt>
</rwgt>
</event>
<event>
 4      1 +7.6845000e-11 4.67246800e+03 7.81860800e-03 7.43130500e-02
        2 -1    0    0  501    0 +0.0000000000e+00 +0.0000000000e+00 +1.6081518035e+03 1.6081518035e+03 0.0000000000e+00 0.0000e+00 1.0000e+00
       -2 -1    0    0    0  501 -0.0000000000e+00 -0.0000000000e+00 -3.3939516339e+03 3.3939516339e+03 0.0000000000e+00 0.0000e+00 -1.0000e+00
      -13  1    1    2    0    0 +1.6388564830e+03 +1.5129648810e+03 -1.6369704722e+03 2.7666921820e+03 0.0000000000e+00 0.0000e+00 -1.0000e+00
       13  1    1    2    0    0 -1.6388564830e+03 -1.5129648810e+03 -1.4882935826e+02 2.2354112554e+03 0.0000000000e+00 0.0000e+00 1.0000e+00
<mgrwt>
<rscale>  0 0.46724681E+04</rscale>
<asrwt>0</asrwt>
<pdfrwt beam="1">  1        2 0.24740797E+00 0.46724681E+04</pdfrwt>
<pdfrwt beam="2">  1       -2 0.52214640E+00 0.46724681E+04</pdfrwt>
<totfact> 0.74877156E-03</totfact>
</mgrwt>
<rwgt>
<wgt id='morphing_basis_vector_1'> +5.0215224e-06 </wgt>
<wgt id='morphing_basis_vector_2'> +3.5379086e-06 </wgt>
<wgt id='morphing_basis_vector_3'> +5.5561307e-06 </wgt>
<wgt id='morphing_basis_vector_4'> +3.8234117e-06 </wgt>
<wgt id='morphing_basis_vector_5'> +6.2806895e-06 </wgt>
</rwgt>
</event>
<event>
 4      1 +7.6845000e-11 5.10026900e+03 7.81860800e-03 7.37095600e-02
        2 -1    0    0  501    0 +0.0000000000e+00 +0.0000000000e+00 +3.2007784241e+03 3.2007784241e+03 0.0000000000e+00 0.0000e+00 -1.0000e+00
       -2 -1    0    0    0  501 -0.0000000000e+00 -0.0000000000e+00 -2.0317513440e+03 2.0317513440e+03 0.0000000000e+00 0.0000e+00 1.0000e+00
      -13  1    1    2    0    0 -3.0708675972e+01 -7.8992439772e+02 -1.9028720210e+03 2.0605449534e+03 0.0000000000e+00 0.0000e+00 1.0000e+00
       13  1    1    2    0    0 +3.0708675972e+01 +7.8992439772e+02 +3.0718991011e+03 3.1719848147e+03 0.0000000000e+00 0.0000e+00 -1.0000e+00
<mgrwt>
<rscale>  0 0.51002690E+04</rscale>
<asrwt>0</asrwt>
<pdfrwt beam="1">  1        2 0.49242745E+00 0.51002690E+04</pdfrwt>
<pdfrwt beam="2">  1       -2 0.31257713E+00 0.51002690E+04</pdfrwt>
<totfact> 0.22062046E-02</totfact>
</mgrwt>
<rwgt>
<wgt id='morphing_basis_vector_1'> +7.0388058e-06 </wgt>
<wgt id='morphing_basis_vector_2'> +4.7807753e-06 </wgt>
<wgt id='morphing_basis_vector_3'> +7.7552436e-06 </wgt>
<wgt id='morphing_basis_vector_4'> +5.6078502e-06 </wgt>
<wgt id='morphing_basis_vector_5'> +8.9414506e-06 </wgt>
</rwgt>
</event>
<event>
 4      1 +7.6845000e-11 4.72087800e+03 7.81860800e-03 7.42415500e-02
        2 -1    0    0  501    0 +0.0000000000e+00 +0.0000000000e+00 +2.7796966764e+03 2.7796966764e+03 0.0000000000e+00 0.0000e+00 -1.0000e+00
       -2 -1    0    0    0  501 -0.0000000000e+00 -0.0000000000e+00 -2.0044177324e+03 2.0044177324e+03 0.0000000000e+00 0.0000e+00 1.0000e+00
      -13  1    1    2    0    0 -7.3925618448e+02 +3.7049928223e+00 -1.8840746668e+03 2.0239196584e+03 0.0000000000e+00 0.0000e+00 1.0000e+00
       13  1    1    2    0    0 +7.3925618448e+02 -3.7049928223e+00 +2.6593536108e+03 2.7601947504e+03 0.0000000000e+00 0.0000e+00 -1.0000e+00
<mgrwt>
<rscale>  0 0.47208784E+04</rscale>
<asrwt>0</asrwt>
<pdfrwt beam="1">  1        2 0.42764564E+00 0.47208784E+04</pdfrwt>
<pdfrwt beam="2">  1       -2 0.30837196E+00 0.47208784E+04</pdfrwt>
<totfact> 0.45596240E-02</totfact>
</mgrwt>
<rwgt>
<wgt id='morphing_basis_vector_1'> +5.1722211e-06 </wgt>
<wgt id='morphing_basis_vector_2'> +3.5107489e-06 </wgt>
<wgt id='morphing_basis_vector_3'> +5.6930620e-06 </wgt>
<wgt id='morphing_basis_vector_4'> +4.1122682e-06 </wgt>
<wgt id='morphing_basis_vector_5'> +6.5566830e-06 </wgt>
</rwgt>
</event>
<event>
 4      1 +7.6845000e-11 5.29453000e+03 7.81860800e-03 7.34551200e-02
        2 -1    0    0  501    0 +0.0000000000e+00 +0.0000000000e+00 +2.3185695143e+03 2.3185695143e+03 0.0000000000e+00 0.0000e+00 -1.0000e+00
       -2 -1    0    0    0  501 -0.0000000000e+00 -0.0000000000e+00 -3.0225587971e+03 3.0225587971e+03 0.0000000000e+00 0.0000e+00 1.0000e+00
      -13  1    1    2    0    0 -2.0063499920e+03 -1.1698289485e+03 -1.6336377648e+03 2.8394915752e+03 0.0000000000e+00 0.0000e+00 1.0000e+00
       13  1    1    2    0    0 +2.0063499920e+03 +1.1698289485e+03 +9.2964848203e+02 2.5016367361e+03 0.0000000000e+00 0.0000e+00 -1.0000e+00
<mgrwt>
<rscale>  0 0.52945303E+04</rscale>
<asrwt>0</asrwt>
<pdfrwt beam="1">  1        2 0.35670301E+00 0.52945303E+04</pdfrwt>
<pdfrwt beam="2">  1       -2 0.46500904E+00 0.52945303E+04</pdfrwt>
<totfact> 0.75513057E-03</totfact>
</mgrwt>
<rwgt>
<wgt id='morphing_basis_vector_1'> +8.2107835e-06 </wgt>
<wgt id='morphing_basis_vector_2'> +5.6696590e-06 </wgt>
<wgt id='morphing_basis_vector_3'> +9.0715651e-06 </wgt>
<wgt id='morphing_basis_vector_4'> +6.4287365e-06 </wgt>
<wgt id='morphing_basis_vector_5'> +1.0380851e-05 </wgt>
</rwgt>
</event>
<event>
 4      1 +7.6845000e-11 4.75276500e+03 7.81860800e-03 7.41949300e-02
        2 -1    0    0  501    0 +0.0000000000e+00 +0.0000000000e+00 +2.6159457581e+03 2.6159457581e+03 0.0000000000e+00 0.0000e+00 1.0000e+00
       -2 -1    0    0    0  501 -0.0000000000e+00 -0.0000000000e+00 -2.1587579741e+03 2.1587579741e+03 0.0000000000e+00 0.0000e+00 -1.0000e+00
      -13  1    1    2    0    0 +8.7093712187e+02 +1.2251083065e+03 -1.6204923677e+03 2.2102980222e+03 0.0000000000e+00 0.0000e+00 -1.0000e+00
       13  1    1    2    0    0 -8.7093712187e+02 -1.2251083065e+03 +2.0776801517e+03 2.5644057100e+03 0.0000000000e+00 0.0000e+00 1.0000e+00
<mgrwt>
<rscale>  0 0.47527650E+04</rscale>
<asrwt>0</asrwt>
<pdfrwt beam="1">  1        2 0.40245320E+00 0.47527650E+04</pdfrwt>
<pdfrwt beam="2">  1       -2 0.33211661E+00 0.47527650E+04</pdfrwt>
<totfact> 0.39910614E-02</totfact>
</mgrwt>
<rwgt>
<wgt id='morphing_basis_vector_1'> +5.3162132e-06 </wgt>
<wgt id='morphing_basis_vector_2'> +3.6162750e-06 </wgt>
<wgt id='morphing_basis_vector_3'> +5.8538307e-06 </wgt>
<wgt id='morphing_basis_vector_4'> +4.2177600e-06 </wgt>
<wgt id='morphing_basis_vector_5'> +6.7356746e-06 </wgt>
</rwgt>
</event>
<event>
 4      1 +7.6845000e-11 4.91198400e+03 7.81860800e-03 7.39675100e-02
        2 -1    0    0  501    0 +0.0000000000e+00 +0.0000000000e+00 +2.6172122637e+03 2.6172122637e+03 0.0000000000e+00 0.0000e+00 1.0000e+00
       -2 -1    0    0    0  501 -0.0000000000e+00 -0.0000000000e+00 -2.3047027037e+03 2.3047027037e+03 0.0000000000e+00 0.0000e+00 -1.0000e+00
      -13  1    1    2    0    0 -1.2582400417e+03 +8.9927842814e+02 -1.7554879780e+03 2.3395742636e+03 0.0000000000e+00 0.0000e+00 -1.0000e+00
       13  1    1    2    0    0 +1.2582400417e+03 -8.9927842814e+02 +2.0679975379e+03 2.5823407038e+03 0.0000000000e+00 0.0000e+00 1.0000e+00
<mgrwt>
<rscale>  0 0.49119838E+04</rscale>
<asrwt>0</asrwt>
<pdfrwt beam="1">  1        2 0.40264804E+00 0.49119838E+04</pdfrwt>
<pdfrwt beam="2">  1       -2 0.35456965E+00 0.49119838E+04</pdfrwt>
<totfact> 0.28091597E-02</totfact>
</mgrwt>
<rwgt>
<wgt id='morphing_basis_vector_1'> +6.0622911e-06 </wgt>
<wgt id='morphing_basis_vector_2'> +4.1247359e-06 </wgt>
<wgt id='morphing_basis_vector_3'> +6.6782063e-06 </wgt>
<wgt id='morphing_basis_vector_4'> +4.8142828e-06 </wgt>
<wgt id='morphing_basis_vector_5'> +7.6880961e-06 </wgt>
</rwgt>
</event>
<event>
 4      1 +7.6845000e-11 5.20268500e+03 7.81860800e-03 7.35740000e-02
        2 -1    0    0  501    0 +0.0000000000e+00 +0.0000000000e+00 +2.9169067655e+03 2.9169067655e+03 0.0000000000e+00 0.0000e+00 1.0000e+00
       -2 -1    0    0    0  501 -0.0000000000e+00 -0.0000000000e+00 -2.3199171399e+03 2.3199171399e+03 0.0000000000e+00 0.0000e+00 -1.0000e+00
      -13  1    1    2    0    0 -4.0216771102e+02 -1.9980528636e+03 -1.3285985986e+03 2.4329258825e+03 0.0000000000e+00 0.0000e+00 -1.0000e+00
       13  1    1    2    0    0 +4.0216771102e+02 +1.9980528636e+03 +1.9255882242e+03 2.8038980229e+03 0.0000000000e+00 0.0000e+00 1.0000e+00
<mgrwt>
<rscale>  0 0.52026847E+04</rscale>
<asrwt>0</asrwt>
<pdfrwt beam="1">  1        2 0.44875489E+00 0.52026847E+04</pdfrwt>
<pdfrwt beam="2">  1       -2 0.35691033E+00 0.52026847E+04</pdfrwt>
<totfact> 0.17246244E-02</totfact>
</mgrwt>
<rwgt>
<wgt id='morphing_basis_vector_1'> +7.6362334e-06 </wgt>
<wgt id='morphing_basis_vector_2'> +5.2249645e-06 </wgt>
<wgt id='morphing_basis_vector_3'> +8.4241408e-06 </wgt>
<wgt id='morphing_basis_vector_4'> +6.0378755e-06 </wgt>
<wgt id='morphing_basis_vector_5'> +9.6808842e-06 </wgt>
</rwgt>
</event>
<event>
 4      1 +7.6845000e-11 5.13040300e+03 7.81860800e-03 7.36693400e-02
        2 -1    0    0  501    0 +0.0000000000e+00 +0.0000000000e+00 +2.8660902421e+03 2.8660902421e+03 0.0000000000e+00 0.0000e+00 -1.0000e+00
       -2 -1    0    0    0  501 -0.0000000000e+00 -0.0000000000e+00 -2.2959011697e+03 2.2959011697e+03 0.0000000000e+00 0.0000e+00 1.0000e+00
      -13  1    1    2    0    0 -2.0751803449e+03 -3.2568592930e+02 -1.1963209513e+03 2.4173598423e+03 0.0000000000e+00 0.0000e+00 1.0000e+00
       13  1    1    2    0    0 +2.0751803449e+03 +3.2568592930e+02 +1.7665100238e+03 2.7446315696e+03 0.0000000000e+00 0.0000e+00 -1.0000e+00
<mgrwt>
<rscale>  0 0.51304035E+04</rscale>
<asrwt>0</asrwt>
<pdfrwt beam="1">  1        2 0.44093696E+00 0.51304035E+04</pdfrwt>
<pdfrwt beam="2">  1       -2 0.35321556E+00 0.51304035E+04</pdfrwt>
<totfact> 0.19742665E-02</totfact>
</mgrwt>
<rwgt>
<wgt id='morphing_basis_vector_1'> +7.2273184e-06 </wgt>
<wgt id='morphing_basis_vector_2'> +4.9569160e-06 </wgt>
<wgt id='morphing_basis_vector_3'> +7.9745799e-06 </wgt>
<wgt id='morphing_basis_vector_4'> +5.6967364e-06 </wgt>
<wgt id='morphing_basis_vector_5'> +9.1515101e-06 </wgt>
</rwgt>
</event>
<event>
 4      1 +7.6845000e-11 4.86840400e+03 7.81860800e-03 7.40288900e-02
        2 -1    0    0  501    0 +0.0000000000e+00 +0.0000000000e+00 +3.8602938955e+03 3.8602938955e+03 0.0000000000e+00 0.0000e+00 -1.0000e+00
       -2 -1    0    0    0  501 -0.0000000000e+00 -0.0000000000e+00 -1.5349449172e+03 1.5349449172e+03 0.0000000000e+00 0.0000e+00 1.0000e+00
      -13  1    1    2    0    0 -7.6506331526e+02 -2.1214704076e+03 +1.4735345286e+02 2.2600158421e+03 0.0000000000e+00 0.0000e+00 1.0000e+00
       13  1    1    2    0    0 +7.6506331526e+02 +2.1214704076e+03 +2.1779955254e+03 3.1352229706e+03 0.0000000000e+00 0.0000e+00 -1.0000e+00
<mgrwt>
<rscale>  0 0.48684036E+04</rscale>
<asrwt>0</asrwt>
<pdfrwt beam="1">  1        2 0.59389136E+00 0.48684036E+04</pdfrwt>
<pdfrwt beam="2">  1       -2 0.23614537E+00 0.48684036E+04</pdfrwt>
<totfact> 0.24191155E-02</totfact>
</mgrwt>
<rwgt>
<wgt id='morphing_basis_vector_1'> +5.8949073e-06 </wgt>
<wgt id='morphing_basis_vector_2'> +4.1102870e-06 </wgt>
<wgt id='morphing_basis_vector_3'> +6.5160363e-06 </wgt>
<wgt id='morphing_basis_vector_4'> +4.5510499e-06 </wgt>
<wgt id='morphing_basis_vector_5'> +7.4101033e-06 </wgt>
</rwgt>
</event>
<event>
 4      1 +7.6845000e-11 4.69980900e+03 7.81860800e-03 7.42725600e-02
        2 -1    0    0  501    0 +0.0000000000e+00 +0.0000000000e+00 +5.1744429730e+03 5.1744429730e+03 0.0000000000e+00 0.0000e+00 1.0000e+00
       -2 -1    0    0    0  501 -0.0000000000e+00 -0.0000000000e+00 -1.0671778879e+03 1.0671778879e+03 0.0000000000e+00 0.0000e+00 -1.0000e+00
      -13  1    1    2    0    0 +1.6966655373e+03 -3.2234486012e+02 -6.2723845791e+01 1.7281534756e+03 0.0000000000e+00 0.0000e+00 -1.0000e+00
       13  1    1    2    0    0 -1.6966655373e+03 +3.2234486012e+02 +4.1699889309e+03 4.5134673853e+03 0.0000000000e+00 0.0000e+00 1.0000e+00
<mgrwt>
<rscale>  0 0.46998090E+04</rscale>
<asrwt>0</asrwt>
<pdfrwt beam="1">  1        2 0.79606814E+00 0.46998090E+04</pdfrwt>
<pdfrwt beam="2">  1       -2 0.16418122E+00 0.46998090E+04</pdfrwt>
<totfact> 0.31897348E-03</totfact>
</mgrwt>
<rwgt>
<wgt id='morphing_basis_vector_1'> +5.0883051e-06 </wgt>
<wgt id='morphing_basis_vector_2'> +3.4705138e-06 </wgt>
<wgt id='morphing_basis_vector_3'> +5.6042164e-06 </wgt>
<wgt id='morphing_basis_vector_4'> +4.0232115e-06 </wgt>
<wgt id='morphing_basis_vector_5'> +6.4386720e-06 </wgt>
</rwgt>
</event>
<event>
 4      1 +7.6845000e-11 4.81987000e+03 7.81860800e-03 7.40980100e-02
        2 -1    0    0  501    0 +0.0000000000e+00 +0.0000000000e+00 +2.4292064589e+03 2.4292064589e+03 0.0000000000e+00 0.0000e+00 -1.0000e+00
       -2 -1    0    0    0  501 -0.0000000000e+00 -0.0000000000e+00 -2.3908164040e+03 2.3908164040e+03 0.0000000000e+00 0.0000e+00 1.0000e+00
      -13  1    1    2    0    0 +1.5751223543e+03 -1.2129637798e+03 -1.3430137679e+03 2.3991618418e+03 0.0000000000e+00 0.0000e+00 1.0000e+00
       13  1    1    2    0    0 -1.5751223543e+03 +1.2129637798e+03 +1.3814038228e+03 2.4208610212e+03 0.0000000000e+00 0.0000e+00 -1.0000e+00
<mgrwt>
<rscale>  0 0.48198700E+04</rscale>
<asrwt>0</asrwt>
<pdfrwt beam="1">  1        2 0.37372407E+00 0.48198700E+04</pdfrwt>
<pdfrwt beam="2">  1       -2 0.36781791E+00 0.48198700E+04</pdfrwt>
<totfact> 0.30132082E-02</totfact>
</mgrwt>
<rwgt>
<wgt id='morphing_basis_vector_1'> +5.6356050e-06 </wgt>
<wgt id='morphing_basis_vector_2'> +3.8652853e-06 </wgt>
<wgt id='morphing_basis_vector_3'> +6.2138830e-06 </wgt>
<wgt id='morphing_basis_vector_4'> +4.4323969e-06 </wgt>
<wgt id='morphing_basis_vector_5'> +7.1231269e-06 </wgt>
</rwgt>
</event>
<event>
 4      1 +7.6845000e-11 5.07673900e+03 7.81860800e-03 7.37411700e-02
        2 -1    0    0  501    0 +0.0000000000e+00 +0.0000000000e+00 +2.6570756175e+03 2.6570756175e+03 0.0000000000e+00 0.0000e+00 1.0000e+00
       -2 -1    0    0    0  501 -0.0000000000e+00 -0.0000000000e+00 -2.4249668483e+03 2.4249668483e+03 0.0000000000e+00 0.0000e+00 -1.0000e+00
      -13  1    1    2    0    0 -8.6527802423e+02 +1.9551707953e+03 -1.2535566215e+03 2.4784678939e+03 0.0000000000e+00 0.0000e+00 -1.0000e+00
       13  1    1    2    0    0 +8.6527802423e+02 -1.9551707953e+03 +1.4856653907e+03 2.6035745718e+03 0.0000000000e+00 0.0000e+00 1.0000e+00
<mgrwt>
<rscale>  0 0.50767392E+04</rscale>
<asrwt>0</asrwt>
<pdfrwt beam="1">  1        2 0.40878086E+00 0.50767392E+04</pdfrwt>
<pdfrwt beam="2">  1       -2 0.37307182E+00 0.50767392E+04</pdfrwt>
<totfact> 0.19937061E-02</totfact>
</mgrwt>
<rwgt>
<wgt id='morphing_basis_vector_1'> +6.9351233e-06 </wgt>
<wgt id='morphing_basis_vector_2'> +4.7664119e-06 </wgt>
<wgt id='morphing_basis_vector_3'> +7.6535935e-06 </wgt>
<wgt id='morphing_basis_vector_4'> +5.4516819e-06 </wgt>
<wgt id='morphing_basis_vector_5'> +8.7726366e-06 </wgt>
</rwgt>
</event>
<event>
 4      1 +7.6845000e-11 4.67807400e+03 7.81860800e-03 7.43047200e-02
        2 -1    0    0  501    0 +0.0000000000e+00 +0.0000000000e+00 +2.4532550132e+03 2.4532550132e+03 0.0000000000e+00 0.0000e+00 1.0000e+00
       -2 -1    0    0    0  501 -0.0000000000e+00 -0.0000000000e+00 -2.2301371521e+03 2.2301371521e+03 0.0000000000e+00 0.0000e+00 -1.0000e+00
      -13  1    1    2    0    0 +1.2462501967e+03 +5.4619127546e+02 +2.0162543013e+03 2.4324362005e+03 0.0000000000e+00 0.0000e+00 1.0000e+00
       13  1    1    2    0    0 -1.2462501967e+03 -5.4619127546e+02 -1.7931364402e+03 2.2509559648e+03 0.0000000000e+00 0.0000e+00 -1.0000e+00
<mgrwt>
<rscale>  0 0.46780745E+04</rscale>
<asrwt>0</asrwt>
<pdfrwt beam="1">  1        2 0.37742385E+00 0.46780745E+04</pdfrwt>
<pdfrwt beam="2">  1       -2 0.34309802E+00 0.46780745E+04</pdfrwt>
<totfact> 0.42581567E-02</totfact>
</mgrwt>
<rwgt>
<wgt id='morphing_basis_vector_1'> +6.6756652e-06 </wgt>
<wgt id='morphing_basis_vector_2'> +8.3430447e-06 </wgt>
<wgt id='morphing_basis_vector_3'> +8.2206042e-06 </wgt>
<wgt id='morphing_basis_vector_4'> +3.7504791e-07 </wgt>
<wgt id='morphing_basis_vector_5'> +6.0208240e-06 </wgt>
</rwgt>
</event>
<event>
 4      1 +7.6845000e-11 5.29083400e+03 7.81860800e-03 7.34598600e-02
        2 -1    0    0  501    0 +0.0000000000e+00 +0.0000000000e+00 +4.5680370536e+03 4.5680370536e+03 0.0000000000e+00 0.0000e+00 -1.0000e+00
       -2 -1    0    0    0  501 -0.0000000000e+00 -0.0000000000e+00 -1.5319998364e+03 1.5319998364e+03 0.0000000000e+00 0.0000e+00 1.0000e+00
      -13  1    1    2    0    0 -2.0085247992e+03 +1.1442758194e+03 +3.4930297607e+01 2.3118735142e+03 0.0000000000e+00 0.0000e+00 1.0000e+00
       13  1    1    2    0    0 +2.0085247992e+03 -1.1442758194e+03 +3.0011069195e+03 3.7881633759e+03 0.0000000000e+00 0.0000e+00 -1.0000e+00
<mgrwt>
<rscale>  0 0.52908343E+04</rscale>
<asrwt>0</asrwt>
<pdfrwt beam="1">  1        2 0.70277493E+00 0.52908343E+04</pdfrwt>
<pdfrwt beam="2">  1       -2 0.23569228E+00 0.52908343E+04</pdfrwt>
<totfact> 0.51988840E-03</totfact>
</mgrwt>
<rwgt>
<wgt id='morphing_basis_vector_1'> +8.1866449e-06 </wgt>
<wgt id='morphing_basis_vector_2'> +5.6500372e-06 </wgt>
<wgt id='morphing_basis_vector_3'> +9.0441459e-06 </wgt>
<wgt id='morphing_basis_vector_4'> +6.4135356e-06 </wgt>
<wgt id='morphing_basis_vector_5'> +1.0352047e-05 </wgt>
</rwgt>
</event>
<event>
 4      1 +7.6845000e-11 5.42856600e+03 7.81860800e-03 7.32860000e-02
        2 -1    0    0  501    0 +0.0000000000e+00 +0.0000000000e+00 +2.5127340042e+03 2.5127340042e+03 0.0000000000e+00 0.0000e+00 -1.0000e+00
       -2 -1    0    0    0  501 -0.0000000000e+00 -0.0000000000e+00 -2.9319979385e+03 2.9319979385e+03 0.0000000000e+00 0.0000e+00 1.0000e+00
      -13  1    1    2    0    0 -2.4162078572e+03 -4.2262262668e+02 +9.5600829172e+02 2.6326074808e+03 0.0000000000e+00 0.0000e+00 -1.0000e+00
       13  1    1    2    0    0 +2.4162078572e+03 +4.2262262668e+02 -1.3752722260e+03 2.8121244620e+03 0.0000000000e+00 0.0000e+00 1.0000e+00
<mgrwt>
<rscale>  0 0.54285655E+04</rscale>
<asrwt>0</asrwt>
<pdfrwt beam="1">  1        2 0.38657446E+00 0.54285655E+04</pdfrwt>
<pdfrwt beam="2">  1       -2 0.45107660E+00 0.54285655E+04</pdfrwt>
<totfact> 0.72123828E-03</totfact>
</mgrwt>
<rwgt>
<wgt id='morphing_basis_vector_1'> +1.0390825e-05 </wgt>
<wgt id='morphing_basis_vector_2'> +1.0137945e-05 </wgt>
<wgt id='morphing_basis_vector_3'> +1.2172694e-05 </wgt>
<wgt id='morphing_basis_vector_4'> +4.2907154e-06 </wgt>
<wgt id='morphing_basis_vector_5'> +1.1239338e-05 </wgt>
</rwgt>
</event>
<event>
 4      1 +7.6845000e-11 4.97265300e+03 7.81860800e-03 7.38831200e-02
        2 -1    0    0  501    0 +0.0000000000e+00 +0.0000000000e+00 +4.2829048518e+03 4.2829048518e+03 0.0000000000e+00 0.0000e+00 1.0000e+00
       -2 -1    0    0    0  501 -0.0000000000e+00 -0.0000000000e+00 -1.4433706622e+03 1.4433706622e+03 0.0000000000e+00 0.0000e+00 -1.0000e+00
      -13  1    1    2    0    0 +2.0171035597e+03 +1.2989926654e+03 +6.6840120556e+02 2.4905519241e+03 0.0000000000e+00 0.0000e+00 -1.0000e+00
       13  1    1    2    0    0 -2.0171035597e+03 -1.2989926654e+03 +2.1711329841e+03 3.2357235898e+03 0.0000000000e+00 0.0000e+00 1.0000e+00
<mgrwt>
<rscale>  0 0.49726529E+04</rscale>
<asrwt>0</asrwt>
<pdfrwt beam="1">  1        2 0.65890843E+00 0.49726529E+04</pdfrwt>
<pdfrwt beam="2">  1       -2 0.22205703E+00 0.49726529E+04</pdfrwt>
<totfact> 0.12850889E-02</totfact>
</mgrwt>
<rwgt>
<wgt id='morphing_basis_vector_1'> +6.4477718e-06 </wgt>
<wgt id='morphing_basis_vector_2'> +4.5711799e-06 </wgt>
<wgt id='morphing_basis_vector_3'> +7.1463483e-06 </wgt>
<wgt id='morphing_basis_vector_4'> +4.8838854e-06 </wgt>
<wgt id='morphing_basis_vector_5'> +8.0617675e-06 </wgt>
</rwgt>
</event>
<event>
 4      1 +7.6845000e-11 5.02498400e+03 7.81860800e-03 7.38113100e-02
        2 -1    0    0  501    0 +0.0000000000e+00 +0.0000000000e+00 +3.2150202597e+03 3.2150202597e+03 0.0000000000e+00 0.0000e+00 1.0000e+00
       -2 -1    0    0    0  501 -0.0000000000e+00 -0.0000000000e+00 -1.9634761002e+03 1.9634761002e+03 0.0000000000e+00 0.0000e+00 -1.0000e+00
      -13  1    1    2    0    0 +1.1678722958e+02 +2.0291949776e+03 -8.9628551180e+02 2.2213957848e+03 0.0000000000e+00 0.0000e+00 -1.0000e+00
       13  1    1    2    0    0 -1.1678722958e+02 -2.0291949776e+03 +2.1478296714e+03 2.9571005751e+03 0.0000000000e+00 0.0000e+00 1.0000e+00
<mgrwt>
<rscale>  0 0.50249838E+04</rscale>
<asrwt>0</asrwt>
<pdfrwt beam="1">  1        2 0.49461850E+00 0.50249838E+04</pdfrwt>
<pdfrwt beam="2">  1       -2 0.30207325E+00 0.50249838E+04</pdfrwt>
<totfact> 0.25518400E-02</totfact>
</mgrwt>
<rwgt>
<wgt id='morphing_basis_vector_1'> +6.6515388e-06 </wgt>
<wgt id='morphing_basis_vector_2'> +4.5577552e-06 </wgt>
<wgt id='morphing_basis_vector_3'> +7.3366201e-06 </wgt>
<wgt id='morphing_basis_vector_4'> +5.2447852e-06 </wgt>
<wgt id='morphing_basis_vector_5'> +8.4203272e-06 </wgt>
</rwgt>
</event>
<event>
 4      1 +7.6845000e-11 5.07744600e+03 7.81860800e-03 7.37402100e-02
        2 -1    0    0  501    0 +0.0000000000e+00 +0.0000000000e+00 +4.0434675749e+03 4.0434675749e+03 0.0000000000e+00 0.0000e+00 1.0000e+00
       -2 -1    0    0    0  501 -0.0000000000e+00 -0.0000000000e+00 -1.5939574982e+03 1.5939574982e+03 0.0000000000e+00 0.0000e+00 -1.0000e+00
      -13  1    1    2    0    0 -2.1821238245e+02 +2.1081237145e+03 -3.2699362806e+02 2.1444642857e+03 0.0000000000e+00 0.0000e+00 -1.0000e+00
       13  1    1    2    0    0 +2.1821238245e+02 -2.1081237145e+03 +2.7765037048e+03 3.4929607874e+03 0.0000000000e+00 0.0000e+00 1.0000e+00
<mgrwt>
<rscale>  0 0.50774464E+04</rscale>
<asrwt>0</asrwt>
<pdfrwt beam="1">  1        2 0.62207193E+00 0.50774464E+04</pdfrwt>
<pdfrwt beam="2">  1       -2 0.24522423E+00 0.50774464E+04</pdfrwt>
<totfact> 0.14443988E-02</totfact>
</mgrwt>
<rwgt>
<wgt id='morphing_basis_vector_1'> +6.9373989e-06 </wgt>
<wgt id='morphing_basis_vector_2'> +4.7644336e-06 </wgt>
<wgt id='morphing_basis_vector_3'> +7.6552972e-06 </wgt>
<wgt id='morphing_basis_vector_4'> +5.4580909e-06 </wgt>
<wgt id='morphing_basis_vector_5'> +8.7778225e-06 </wgt>
</rwgt>
</event>
<event>
 4      1 +7.6845000e-11 5.31220100e+03 7.81860800e-03 7.34325300e-02
        2 -1    0    0  501    0 +0.0000000000e+00 +0.0000000000e+00 +3.6107076961e+03 3.6107076961e+03 0.0000000000e+00 0.0000e+00 1.0000e+00
       -2 -1    0    0    0  501 -0.0000000000e+00 -0.0000000000e+00 -1.9538742937e+03 1.9538742937e+03 0.0000000000e+00 0.0000e+00 -1.0000e+00
      -13  1    1    2    0    0 -6.8386982720e+02 +6.7050057989e+02 -1.7667070488e+03 2.0096026385e+03 0.0000000000e+00 0.0000e+00 -1.0000e+00
       13  1    1    2    0    0 +6.8386982720e+02 -6.7050057989e+02 +3.4235404512e+03 3.5549793514e+03 0.0000000000e+00 0.0000e+00 1.0000e+00
<mgrwt>
<rscale>  0 0.53122007E+04</rscale>
<asrwt>0</asrwt>
<pdfrwt beam="1">  1        2 0.55549349E+00 0.53122007E+04</pdfrwt>
<pdfrwt beam="2">  1       -2 0.30059604E+00 0.53122007E+04</pdfrwt>
<totfact> 0.13279422E-02</totfact>
</mgrwt>
<rwgt>
<wgt id='morphing_basis_vector_1'> +8.2798053e-06 </wgt>
<wgt id='morphing_basis_vector_2'> +5.6257918e-06 </wgt>
<wgt id='morphing_basis_vector_3'> +9.1268671e-06 </wgt>
<wgt id='morphing_basis_vector_4'> +6.6023272e-06 </wgt>
<wgt id='morphing_basis_vector_5'> +1.0527836e-05 </wgt>
</rwgt>
</event>
<event>
 4      1 +7.6845000e-11 5.05077200e+03 7.81860800e-03 7.37762500e-02
        2 -1    0    0  501    0 +0.0000000000e+00 +0.0000000000e+00 +3.4424777489e+03 3.4424777489e+03 0.0000000000e+00 0.0000e+00 1.0000e+00
       -2 -1    0    0    0  501 -0.0000000000e+00 -0.0000000000e+00 -1.8526115170e+03 1.8526115170e+03 0.0000000000e+00 0.0000e+00 -1.0000e+00
      -13  1    1    2    0    0 +1.2949185949e+03 +1.3901415060e+03 -9.4936003876e+02 2.1238154480e+03 0.0000000000e+00 0.0000e+00 -1.0000e+00
       13  1    1    2    0    0 -1.2949185949e+03 -1.3901415060e+03 +2.5392262706e+03 3.1712738178e+03 0.0000000000e+00 0.0000e+00 1.0000e+00
<mgrwt>
<rscale>  0 0.50507718E+04</rscale>
<asrwt>0</asrwt>
<pdfrwt beam="1">  1        2 0.52961196E+00 0.50507718E+04</pdfrwt>
<pdfrwt beam="2">  1       -2 0.28501716E+00 0.50507718E+04</pdfrwt>
<totfact> 0.22990544E-02</totfact>
</mgrwt>
<rwgt>
<wgt id='morphing_basis_vector_1'> +6.7818301e-06 </wgt>
<wgt id='morphing_basis_vector_2'> +4.6317838e-06 </wgt>
<wgt id='morphing_basis_vector_3'> +7.4772302e-06 </wgt>
<wgt id='morphing_basis_vector_4'> +5.3682256e-06 </wgt>
<wgt id='morphing_basis_vector_5'> +8.5962880e-06 </wgt>
</rwgt>
</event>
<event>
 4      1 +7.6845000e-11 5.24573400e+03 7.81860800e-03 7.35179700e-02
        2 -1    0    0  501    0 +0.0000000000e+00 +0.0000000000e+00 +4.7543027980e+03 4.7543027980e+03 0.0000000000e+00 0.0000e+00 -1.0000e+00
       -2 -1    0    0    0  501 -0.0000000000e+00 -0.0000000000e+00 -1.4469907108e+03 1.4469907108e+03 0.0000000000e+00 0.0000e+00 1.0000e+00
      -13  1    1    2    0    0 -9.9817565940e+01 -2.1239066432e+03 -1.6183006078e+02 2.1324005121e+03 0.0000000000e+00 0.0000e+00 1.0000e+00
       13  1    1    2    0    0 +9.9817565940e+01 +2.1239066432e+03 +3.4691421480e+03 4.0688929967e+03 0.0000000000e+00 0.0000e+00 -1.0000e+00
<mgrwt>
<rscale>  0 0.52457343E+04</rscale>
<asrwt>0</asrwt>
<pdfrwt beam="1">  1        2 0.73143119E+00 0.52457343E+04</pdfrwt>
<pdfrwt beam="2">  1       -2 0.22261396E+00 0.52457343E+04</pdfrwt>
<totfact> 0.39966671E-03</totfact>
</mgrwt>
<rwgt>
<wgt id='morphing_basis_vector_1'> +7.8957351e-06 </wgt>
<wgt id='morphing_basis_vector_2'> +5.4127248e-06 </wgt>
<wgt id='morphing_basis_vector_3'> +8.7135232e-06 </wgt>
<wgt id='morphing_basis_vector_4'> +6.2314365e-06 </wgt>
<wgt id='morphing_basis_vector_5'> +1.0005473e-05 </wgt>
</rwgt>
</event>
<event>
 4      1 +7.6845000e-11 5.23656600e+03 7.81860800e-03 7.35298600e-02
        2 -1    0    0  501    0 +0.0000000000e+00 +0.0000000000e+00 +2.6793724908e+03 2.6793724908e+03 0.0000000000e+00 0.0000e+00 -1.0000e+00
       -2 -1    0    0    0  501 -0.0000000000e+00 -0.0000000000e+00 -2.5585866606e+03 2.5585866606e+03 0.0000000000e+00 0.0000e+00 1.0000e+00
      -13  1    1    2    0    0 -1.1394608403e+03 +2.3370380885e+03 -2.4837783657e+02 2.6118594111e+03 0.0000000000e+00 0.0000e+00 1.0000e+00
       13  1    1    2    0    0 +1.1394608403e+03 -2.3370380885e+03 +3.6916366677e+02 2.6260997404e+03 0.0000000000e+00 0.0000e+00 -1.0000e+00
<mgrwt>
<rscale>  0 0.52365663E+04</rscale>
<asrwt>0</asrwt>
<pdfrwt beam="1">  1        2 0.41221116E+00 0.52365663E+04</pdfrwt>
<pdfrwt beam="2">  1       -2 0.39362871E+00 0.52365663E+04</pdfrwt>
<totfact> 0.14051582E-02</totfact>
</mgrwt>
<rwgt>
<wgt id='morphing_basis_vector_1'> +8.0053615e-06 </wgt>
<wgt id='morphing_basis_vector_2'> +5.8580859e-06 </wgt>
<wgt id='morphing_basis_vector_3'> +8.9202338e-06 </wgt>
<wgt id='morphing_basis_vector_4'> +5.8369341e-06 </wgt>
<wgt id='morphing_basis_vector_5'> +9.9060618e-06 </wgt>
</rwgt>
</event>
<event>
 4      1 +7.6845000e-11 5.12274400e+03 7.81860800e-03 7.36795300e-02
        2 -1    0    0  501    0 +0.0000000000e+00 +0.0000000000e+00 +2.6191183503e+03 2.6191183503e+03 0.0000000000e+00 0.0000e+00 -1.0000e+00
       -2 -1    0    0    0  501 -0.0000000000e+00 -0.0000000000e+00 -2.5048988486e+03 2.5048988486e+03 0.0000000000e+00 0.0000e+00 1.0000e+00
      -13  1    1    2    0    0 -1.0503866971e+03 -1.2883835548e+03 -1.8920618572e+03 2.5185596021e+03 0.0000000000e+00 0.0000e+00 1.0000e+00
       13  1    1    2    0    0 +1.0503866971e+03 +1.2883835548e+03 +2.0062813589e+03 2.6054575968e+03 0.0000000000e+00 0.0000e+00 -1.0000e+00
<mgrwt>
<rscale>  0 0.51227440E+04</rscale>
<asrwt>0</asrwt>
<pdfrwt beam="1">  1        2 0.40294129E+00 0.51227440E+04</pdfrwt>
<pdfrwt beam="2">  1       -2 0.38536905E+00 0.51227440E+04</pdfrwt>
<totfact> 0.17454682E-02</totfact>
</mgrwt>
<rwgt>
<wgt id='morphing_basis_vector_1'> +7.1685063e-06 </wgt>
<wgt id='morphing_basis_vector_2'> +4.8807792e-06 </wgt>
<wgt id='morphing_basis_vector_3'> +7.9012728e-06 </wgt>
<wgt id='morphing_basis_vector_4'> +5.6965546e-06 </wgt>
<wgt id='morphing_basis_vector_5'> +9.0996574e-06 </wgt>
</rwgt>
</event>
<event>
 4      1 +7.6845000e-11 5.52704800e+03 7.81860800e-03 7.31648900e-02
        2 -1    0    0  501    0 +0.0000000000e+00 +0.0000000000e+00 +2.5723698768e+03 2.5723698768e+03 0.0000000000e+00 0.0000e+00 1.0000e+00
       -2 -1    0    0    0  501 -0.0000000000e+00 -0.0000000000e+00 -2.9688827154e+03 2.9688827154e+03 0.0000000000e+00 0.0000e+00 -1.0000e+00
      -13  1    1    2    0    0 +2.7143863967e+02 -2.7324273958e+03 +1.1435587817e+02 2.7482568431e+03 0.0000000000e+00 0.0000e+00 1.0000e+00
       13  1    1    2    0    0 -2.7143863967e+02 +2.7324273958e+03 -5.1086871671e+02 2.7929957491e+03 0.0000000000e+00 0.0000e+00 -1.0000e+00
<mgrwt>
<rscale>  0 0.55270478E+04</rscale>
<asrwt>0</asrwt>
<pdfrwt beam="1">  1        2 0.39574921E+00 0.55270478E+04</pdfrwt>
<pdfrwt beam="2">  1       -2 0.45675119E+00 0.55270478E+04</pdfrwt>
<totfact> 0.60128876E-03</totfact>
</mgrwt>
<rwgt>
<wgt id='morphing_basis_vector_1'> +1.0229501e-05 </wgt>
<wgt id='morphing_basis_vector_2'> +8.1505388e-06 </wgt>
<wgt id='morphing_basis_vector_3'> +1.1560043e-05 </wgt>
<wgt id='morphing_basis_vector_4'> +6.6060558e-06 </wgt>
<wgt id='morphing_basis_vector_5'> +1.2247144e-05 </wgt>
</rwgt>
</event>
<event>
 4      1 +7.6845000e-11 4.65615100e+03 7.81860800e-03 7.43373400e-02
        2 -1    0    0  501    0 +0.0000000000e+00 +0.0000000000e+00 +1.8069206613e+03 1.8069206613e+03 0.0000000000e+00 0.0000e+00 -1.0000e+00
       -2 -1    0    0    0  501 -0.0000000000e+00 -0.0000000000e+00 -2.9995430240e+03 2.9995430240e+03 0.0000000000e+00 0.0000e+00 1.0000e+00
      -13  1    1    2    0    0 -4.5684620530e+02 -1.2171597125e+03 -2.5899131040e+03 2.8979020182e+03 0.0000000000e+00 0.0000e+00 1.0000e+00
       13  1    1    2    0    0 +4.5684620530e+02 +1.2171597125e+03 +1.3972907414e+03 1.9085616671e+03 0.0000000000e+00 0.0000e+00 -1.0000e+00
<mgrwt>
<rscale>  0 0.46561513E+04</rscale>
<asrwt>0</asrwt>
<pdfrwt beam="1">  1        2 0.27798779E+00 0.46561513E+04</pdfrwt>
<pdfrwt beam="2">  1       -2 0.46146816E+00 0.46561513E+04</pdfrwt>
<totfact> 0.16396387E-02</totfact>
</mgrwt>
<rwgt>
<wgt id='morphing_basis_vector_1'> +4.8969513e-06 </wgt>
<wgt id='morphing_basis_vector_2'> +3.3271044e-06 </wgt>
<wgt id='morphing_basis_vector_3'> +5.3898637e-06 </wgt>
<wgt id='morphing_basis_vector_4'> +3.8871718e-06 </wgt>
<wgt id='morphing_basis_vector_5'> +6.2028998e-06 </wgt>
</rwgt>
</event>
<event>
 4      1 +7.6845000e-11 4.90257700e+03 7.81860800e-03 7.39807100e-02
        2 -1    0    0  501    0 +0.0000000000e+00 +0.0000000000e+00 +3.2413865324e+03 3.2413865324e+03 0.0000000000e+00 0.0000e+00 -1.0000e+00
       -2 -1    0    0    0  501 -0.0000000000e+00 -0.0000000000e+00 -1.8537790124e+03 1.8537790124e+03 0.0000000000e+00 0.0000e+00 1.0000e+00
      -13  1    1    2    0    0 +1.2029316038e+03 -8.4858849042e+02 -1.3432092158e+03 1.9928266023e+03 0.0000000000e+00 0.0000e+00 1.0000e+00
       13  1    1    2    0    0 -1.2029316038e+03 +8.4858849042e+02 +2.7308167358e+03 3.1023389425e+03 0.0000000000e+00 0.0000e+00 -1.0000e+00
<mgrwt>
<rscale>  0 0.49025766E+04</rscale>
<asrwt>0</asrwt>
<pdfrwt beam="1">  1        2 0.49867485E+00 0.49025766E+04</pdfrwt>
<pdfrwt beam="2">  1       -2 0.28519677E+00 0.49025766E+04</pdfrwt>
<totfact> 0.32132495E-02</totfact>
</mgrwt>
<rwgt>
<wgt id='morphing_basis_vector_1'> +6.0153148e-06 </wgt>
<wgt id='morphing_basis_vector_2'> +4.0908448e-06 </wgt>
<wgt id='morphing_basis_vector_3'> +6.6258658e-06 </wgt>
<wgt id='morphing_basis_vector_4'> +4.7791497e-06 </wgt>
<wgt id='morphing_basis_vector_5'> +7.6293245e-06 </wgt>
</rwgt>
</event>
<event>
 4      1 +7.6845000e-11 5.20618300e+03 7.81860800e-03 7.35694300e-02
        2 -1    0    0  501    0 +0.0000000000e+00 +0.0000000000e+00 +2.9302496220e+03 2.9302496220e+03 0.0000000000e+00 0.0000e+00 1.0000e+00
       -2 -1    0    0    0  501 -0.0000000000e+00 -0.0000000000e+00 -2.3124601771e+03 2.3124601771e+03 0.0000000000e+00 0.0000e+00 -1.0000e+00
      -13  1    1    2    0    0 -6.3389772962e+02 -1.7002349325e+03 -1.5706030774e+03 2.3998789936e+03 0.0000000000e+00 0.0000e+00 -1.0000e+00
       13  1    1    2    0    0 +6.3389772962e+02 +1.7002349325e+03 +2.1883925222e+03 2.8428308055e+03 0.0000000000e+00 0.0000e+00 1.0000e+00
<mgrwt>
<rscale>  0 0.52061831E+04</rscale>
<asrwt>0</asrwt>
<pdfrwt beam="1">  1        2 0.45080764E+00 0.52061831E+04</pdfrwt>
<pdfrwt beam="2">  1       -2 0.35576310E+00 0.52061831E+04</pdfrwt>
<totfact> 0.17195995E-02</totfact>
</mgrwt>
<rwgt>
<wgt id='morphing_basis_vector_1'> +7.6482669e-06 </wgt>
<wgt id='morphing_basis_vector_2'> +5.2141630e-06 </wgt>
<wgt id='morphing_basis_vector_3'> +8.4330610e-06 </wgt>
<wgt id='morphing_basis_vector_4'> +6.0722301e-06 </wgt>
<wgt id='morphing_basis_vector_5'> +9.7085399e-06 </wgt>
</rwgt>
</event>
<event>
 4      1 +7.6845000e-11 4.68239500e+03 7.81860800e-03 7.42983200e-02
        2 -1    0    0  501    0 +0.0000000000e+00 +0.0000000000e+00 +3.1839645673e+03 3.1839645673e+03 0.0000000000e+00 0.0000e+00 1.0000e+00
       -2 -1    0    0    0  501 -0.0000000000e+00 -0.0000000000e+00 -1.7215030426e+03 1.7215030426e+03 0.0000000000e+00 0.0000e+00 -1.0000e+00
      -13  1    1    2    0    0 +1.5970082659e+03 -6.8473203083e+02 -9.1256785340e+02 1.9626699780e+03 0.0000000000e+00 0.0000e+00 -1.0000e+00
       13  1    1    2    0    0 -1.5970082659e+03 +6.8473203083e+02 +2.3750293781e+03 2.9427976319e+03 0.0000000000e+00 0.0000e+00 1.0000e+00
<mgrwt>
<rscale>  0 0.46823946E+04</rscale>
<asrwt>0</asrwt>
<pdfrwt beam="1">  1        2 0.48984070E+00 0.46823946E+04</pdfrwt>
<pdfrwt beam="2">  1       -2 0.26484662E+00 0.46823946E+04</pdfrwt>
<totfact> 0.49254374E-02</totfact>
</mgrwt>
<rwgt>
<wgt id='morphing_basis_vector_1'> +5.0140332e-06 </wgt>
<wgt id='morphing_basis_vector_2'> +3.4207526e-06 </wgt>
<wgt id='morphing_basis_vector_3'> +5.5223587e-06 </wgt>
<wgt id='morphing_basis_vector_4'> +3.9627526e-06 </wgt>
<wgt id='morphing_basis_vector_5'> +6.3433519e-06 </wgt>
</rwgt>
</event>
<event>
 4      1 +7.6845000e-11 4.90865200e+03 7.81860800e-03 7.39721800e-02
        2 -1    0    0  501    0 +0.0000000000e+00 +0.0000000000e+00 +2.7965065927e+03 2.7965065927e+03 0.0000000000e+00 0.0000e+00 1.0000e+00
       -2 -1    0    0    0  501 -0.0000000000e+00 -0.0000000000e+00 -2.1540143700e+03 2.1540143700e+03 0.0000000000e+00 0.0000e+00 -1.0000e+00
      -13  1    1    2    0    0 +7.3624257334e+02 +1.7808594681e+03 -1.2116532617e+03 2.2763165858e+03 0.0000000000e+00 0.0000e+00 -1.0000e+00
       13  1    1    2    0    0 -7.3624257334e+02 -1.7808594681e+03 +1.8541454844e+03 2.6742043769e+03 0.0000000000e+00 0.0000e+00 1.0000e+00
<mgrwt>
<rscale>  0 0.49086517E+04</rscale>
<asrwt>0</asrwt>
<pdfrwt beam="1">  1        2 0.43023178E+00 0.49086517E+04</pdfrwt>
<pdfrwt beam="2">  1       -2 0.33138683E+00 0.49086517E+04</pdfrwt>
<totfact> 0.30843715E-02</totfact>
</mgrwt>
<rwgt>
<wgt id='morphing_basis_vector_1'> +6.0555902e-06 </wgt>
<wgt id='morphing_basis_vector_2'> +4.1419873e-06 </wgt>
<wgt id='morphing_basis_vector_3'> +6.6757986e-06 </wgt>
<wgt id='morphing_basis_vector_4'> +4.7805843e-06 </wgt>
<wgt id='morphing_basis_vector_5'> +7.6654610e-06 </wgt>
</rwgt>
</event>
<event>
 4      1 +7.6845000e-11 4.90224400e+03 7.81860800e-03 7.39811700e-02
        2 -1    0    0  501    0 +0.0000000000e+00 +0.0000000000e+00 +1.9699725308e+03 1.9699725308e+03 0.0000000000e+00 0.0000e+00 1.0000e+00
       -2 -1    0    0    0  501 -0.0000000000e+00 -0.0000000000e+00 -3.0497880170e+03 3.0497880170e+03 0.0000000000e+00 0.0000e+00 -1.0000e+00
      -13  1    1    2    0    0 +1.9744956269e+01 +2.0445431914e+03 -1.9241467075e+03 2.8076479973e+03 0.0000000000e+00 0.0000e+00 -1.0000e+00
       13  1    1    2    0    0 -1.9744956269e+01 -2.0445431914e+03 +8.4433122137e+02 2.2121125505e+03 0.0000000000e+00 0.0000e+00 1.0000e+00
<mgrwt>
<rscale>  0 0.49022438E+04</rscale>
<asrwt>0</asrwt>
<pdfrwt beam="1">  1        2 0.30307270E+00 0.49022438E+04</pdfrwt>
<pdfrwt beam="2">  1       -2 0.46919816E+00 0.49022438E+04</pdfrwt>
<totfact> 0.11468253E-02</totfact>
</mgrwt>
<rwgt>
<wgt id='morphing_basis_vector_1'> +6.0309793e-06 </wgt>
<wgt id='morphing_basis_vector_2'> +4.1405197e-06 </wgt>
<wgt id='morphing_basis_vector_3'> +6.6521063e-06 </wgt>
<wgt id='morphing_basis_vector_4'> +4.7410235e-06 </wgt>
<wgt id='morphing_basis_vector_5'> +7.6241607e-06 </wgt>
</rwgt>
</event>
<event>
 4      1 +7.6845000e-11 5.52244300e+03 7.81860800e-03 7.31704900e-02
        2 -1    0    0  501    0 +0.0000000000e+00 +0.0000000000e+00 +3.2705431579e+03 3.2705431579e+03 0.0000000000e+00 0.0000e+00 -1.0000e+00
       -2 -1    0    0    0  501 -0.0000000000e+00 -0.0000000000e+00 -2.3312161209e+03 2.3312161209e+03 0.0000000000e+00 0.0000e+00 1.0000e+00
      -13  1    1    2    0    0 -2.0949089920e+03 -2.7379230312e+02 -1.3337171808e+03 2.4984810242e+03 0.0000000000e+00 0.0000e+00 1.0000e+00
       13  1    1    2    0    0 +2.0949089920e+03 +2.7379230312e+02 +2.2730442177e+03 3.1032782546e+03 0.0000000000e+00 0.0000e+00 -1.0000e+00
<mgrwt>
<rscale>  0 0.55224426E+04</rscale>
<asrwt>0</asrwt>
<pdfrwt beam="1">  1        2 0.50316049E+00 0.55224426E+04</pdfrwt>
<pdfrwt beam="2">  1       -2 0.35864863E+00 0.55224426E+04</pdfrwt>
<totfact> 0.95406624E-03</totfact>
</mgrwt>
<rwgt>
<wgt id='morphing_basis_vector_1'> +9.6842194e-06 </wgt>
<wgt id='morphing_basis_vector_2'> +6.6223141e-06 </wgt>
<wgt id='morphing_basis_vector_3'> +1.0688748e-05 </wgt>
<wgt id='morphing_basis_vector_4'> +7.6760245e-06 </wgt>
<wgt id='morphing_basis_vector_5'> +1.2297998e-05 </wgt>
</rwgt>
</event>
<event>
 4      1 +7.6845000e-11 5.15338200e+03 7.81860800e-03 7.36388500e-02
        2 -1    0    0  501    0 +0.0000000000e+00 +0.0000000000e+00 +1.2861025604e+03 1.2861025604e+03 0.0000000000e+00 0.0000e+00 -1.0000e+00
       -2 -1    0    0    0  501 -0.0000000000e+00 -0.0000000000e+00 -5.1623700431e+03 5.1623700431e+03 0.0000000000e+00 0.0000e+00 1.0000e+00
      -13  1    1    2    0    0 +2.1914587480e+03 +1.1799216206e+03 -2.7725145274e+03 3.7257943153e+03 0.0000000000e+00 0.0000e+00 1.0000e+00
       13  1    1    2    0    0 -2.1914587480e+03 -1.1799216206e+03 -1.1037529552e+03 2.7226782883e+03 0.0000000000e+00 0.0000e+00 -1.0000e+00
<mgrwt>
<rscale>  0 0.51533823E+04</rscale>
<asrwt>0</asrwt>
<pdfrwt beam="1">  1        2 0.19786194E+00 0.51533823E+04</pdfrwt>
<pdfrwt beam="2">  1       -2 0.79421076E+00 0.51533823E+04</pdfrwt>
<totfact> 0.14743972E-03</totfact>
</mgrwt>
<rwgt>
<wgt id='morphing_basis_vector_1'> +7.4355924e-06 </wgt>
<wgt id='morphing_basis_vector_2'> +5.2762067e-06 </wgt>
<wgt id='morphing_basis_vector_3'> +8.2456492e-06 </wgt>
<wgt id='morphing_basis_vector_4'> +5.6327723e-06 </wgt>
<wgt id='morphing_basis_vector_5'> +9.3030604e-06 </wgt>
</rwgt>
</event>
<event>
 4      1 +7.6845000e-11 4.84010700e+03 7.81860800e-03 7.40690900e-02
        2 -1    0    0  501    0 +0.0000000000e+00 +0.0000000000e+00 +3.0984854553e+03 3.0984854553e+03 0.0000000000e+00 0.0000e+00 -1.0000e+00
       -2 -1    0    0    0  501 -0.0000000000e+00 -0.0000000000e+00 -1.8901686465e+03 1.8901686465e+03 0.0000000000e+00 0.0000e+00 1.0000e+00
      -13  1    1    2    0    0 -1.6733158994e+03 +5.3773798341e+02 -1.1104823046e+03 2.0790188039e+03 0.0000000000e+00 0.0000e+00 1.0000e+00
       13  1    1    2    0    0 +1.6733158994e+03 -5.3773798341e+02 +2.3187991134e+03 2.9096352979e+03 0.0000000000e+00 0.0000e+00 -1.0000e+00
<mgrwt>
<rscale>  0 0.48401075E+04</rscale>
<asrwt>0</asrwt>
<pdfrwt beam="1">  1        2 0.47669007E+00 0.48401075E+04</pdfrwt>
<pdfrwt beam="2">  1       -2 0.29079518E+00 0.48401075E+04</pdfrwt>
<totfact> 0.36957531E-02</totfact>
</mgrwt>
<rwgt>
<wgt id='morphing_basis_vector_1'> +5.7206374e-06 </wgt>
<wgt id='morphing_basis_vector_2'> +3.9015094e-06 </wgt>
<wgt id='morphing_basis_vector_3'> +6.3028756e-06 </wgt>
<wgt id='morphing_basis_vector_4'> +4.5285875e-06 </wgt>
<wgt id='morphing_basis_vector_5'> +7.2456895e-06 </wgt>
</rwgt>
</event>
<event>
 4      1 +7.6845000e-11 4.63449100e+03 7.81860800e-03 7.43697500e-02
        2 -1    0    0  501    0 +0.0000000000e+00 +0.0000000000e+00 +2.9244898553e+03 2.9244898553e+03 0.0000000000e+00 0.0000e+00 -1.0000e+00
       -2 -1    0    0    0  501 -0.0000000000e+00 -0.0000000000e+00 -1.8360900474e+03 1.8360900474e+03 0.0000000000e+00 0.0000e+00 1.0000e+00
      -13  1    1    2    0    0 +2.0543304183e+03 -7.2616138967e+02 -2.6595483945e+02 2.1950662423e+03 0.0000000000e+00 0.0000e+00 1.0000e+00
       13  1    1    2    0    0 -2.0543304183e+03 +7.2616138967e+02 +1.3543546473e+03 2.5655136604e+03 0.0000000000e+00 0.0000e+00 -1.0000e+00
<mgrwt>
<rscale>  0 0.46344910E+04</rscale>
<asrwt>0</asrwt>
<pdfrwt beam="1">  1        2 0.44992152E+00 0.46344910E+04</pdfrwt>
<pdfrwt beam="2">  1       -2 0.28247539E+00 0.46344910E+04</pdfrwt>
<totfact> 0.55578440E-02</totfact>
</mgrwt>
<rwgt>
<wgt id='morphing_basis_vector_1'> +4.8514109e-06 </wgt>
<wgt id='morphing_basis_vector_2'> +3.3967461e-06 </wgt>
<wgt id='morphing_basis_vector_3'> +5.3624417e-06 </wgt>
<wgt id='morphing_basis_vector_4'> +3.7202463e-06 </wgt>
<wgt id='morphing_basis_vector_5'> +6.0799259e-06 </wgt>
</rwgt>
</event>
<event>
 4      1 +7.6845000e-11 4.85371300e+03 7.81860800e-03 7.40497300e-02
        2 -1    0    0  501    0 +0.0000000000e+00 +0.0000000000e+00 +2.7575379331e+03 2.7575379331e+03 0.0000000000e+00 0.0000e+00 -1.0000e+00
       -2 -1    0    0    0  501 -0.0000000000e+00 -0.0000000000e+00 -2.1358303574e+03 2.1358303574e+03 0.0000000000e+00 0.0000e+00 1.0000e+00
      -13  1    1    2    0    0 +1.8072749058e+03 -1.6192227310e+03 +2.7169846394e+02 2.4417094203e+03 0.0000000000e+00 0.0000e+00 1.0000e+00
       13  1    1    2    0    0 -1.8072749058e+03 +1.6192227310e+03 +3.5000911168e+02 2.4516588702e+03 0.0000000000e+00 0.0000e+00 -1.0000e+00
<mgrwt>
<rscale>  0 0.48537133E+04</rscale>
<asrwt>0</asrwt>
<pdfrwt beam="1">  1        2 0.42423661E+00 0.48537133E+04</pdfrwt>
<pdfrwt beam="2">  1       -2 0.32858929E+00 0.48537133E+04</pdfrwt>
<totfact> 0.34182961E-02</totfact>
</mgrwt>
<rwgt>
<wgt id='morphing_basis_vector_1'> +5.9776057e-06 </wgt>
<wgt id='morphing_basis_vector_2'> +4.5111601e-06 </wgt>
<wgt id='morphing_basis_vector_3'> +6.6862001e-06 </wgt>
<wgt id='morphing_basis_vector_4'> +4.1698485e-06 </wgt>
<wgt id='morphing_basis_vector_5'> +7.2934322e-06 </wgt>
</rwgt>
</event>
<event>
 4      1 +7.6845000e-11 4.95644500e+03 7.81860800e-03 7.39055500e-02
        2 -1    0    0  501    0 +0.0000000000e+00 +0.0000000000e+00 +1.5982297020e+03 1.5982297020e+03 0.0000000000e+00 0.0000e+00 1.0000e+00
       -2 -1    0    0    0  501 -0.0000000000e+00 -0.0000000000e+00 -3.8427438417e+03 3.8427438417e+03 0.0000000000e+00 0.0000e+00 -1.0000e+00
      -13  1    1    2    0    0 -7.7554189589e+02 -2.0437019203e+03 -2.4040523716e+03 3.2492538493e+03 0.0000000000e+00 0.0000e+00 -1.0000e+00
       13  1    1    2    0    0 +7.7554189589e+02 +2.0437019203e+03 +1.5953823193e+02 2.1917196944e+03 0.0000000000e+00 0.0000e+00 1.0000e+00
<mgrwt>
<rscale>  0 0.49564452E+04</rscale>
<asrwt>0</asrwt>
<pdfrwt beam="1">  1        2 0.24588150E+00 0.49564452E+04</pdfrwt>
<pdfrwt beam="2">  1       -2 0.59119135E+00 0.49564452E+04</pdfrwt>
<totfact> 0.22893096E-03</totfact>
</mgrwt>
<rwgt>
<wgt id='morphing_basis_vector_1'> +6.3126707e-06 </wgt>
<wgt id='morphing_basis_vector_2'> +4.3600546e-06 </wgt>
<wgt id='morphing_basis_vector_3'> +6.9697285e-06 </wgt>
<wgt id='morphing_basis_vector_4'> +4.9305115e-06 </wgt>
<wgt id='morphing_basis_vector_5'> +7.9660776e-06 </wgt>
</rwgt>
</event>
<event>
 4      1 +7.6845000e-11 4.66333900e+03 7.81860800e-03 7.43266300e-02
        2 -1    0    0  501    0 +0.0000000000e+00 +0.0000000000e+00 +3.3795392438e+03 3.3795392438e+03 0.0000000000e+00 0.0000e+00 -1.0000e+00
       -2 -1    0    0    0  501 -0.0000000000e+00 -0.0000000000e+00 -1.6087054817e+03 1.6087054817e+03 0.0000000000e+00 0.0000e+00 1.0000e+00
      -13  1    1    2    0    0 +3.9084876284e+02 +2.0946202106e+03 -1.2738073418e+02 2.1345778115e+03 0.0000000000e+00 0.0000e+00 1.0000e+00
       13  1    1    2    0    0 -3.9084876284e+02 -2.0946202106e+03 +1.8982144962e+03 2.8536669139e+03 0.0000000000e+00 0.0000e+00 -1.0000e+00
<mgrwt>
<rscale>  0 0.46633393E+04</rscale>
<asrwt>0</asrwt>
<pdfrwt beam="1">  1        2 0.51992911E+00 0.46633393E+04</pdfrwt>
<pdfrwt beam="2">  1       -2 0.24749315E+00 0.46633393E+04</pdfrwt>
<totfact> 0.47519920E-02</totfact>
</mgrwt>
<rwgt>
<wgt id='morphing_basis_vector_1'> +4.9606105e-06 </wgt>
<wgt id='morphing_basis_vector_2'> +3.4459670e-06 </wgt>
<wgt id='morphing_basis_vector_3'> +5.4773597e-06 </wgt>
<wgt id='morphing_basis_vector_4'> +3.8401508e-06 </wgt>
<wgt id='morphing_basis_vector_5'> +6.2354761e-06 </wgt>
</rwgt>
</event>
<event>
 4      1 +7.6845000e-11 5.04436400e+03 7.81860800e-03 7.37849400e-02
        2 -1    0    0  501    0 +0.0000000000e+00 +0.0000000000e+00 +1.2608361206e+03 1.2608361206e+03 0.0000000000e+00 0.0000e+00 1.0000e+00
       -2 -1    0    0    0  501 -0.0000000000e+00 -0.0000000000e+00 -5.0453840020e+03 5.0453840020e+03 0.0000000000e+00 0.0000e+00 -1.0000e+00
      -13  1    1    2    0    0 +1.2390352487e+03 -1.8473756448e+03 -4.0601383444e+02 2.2611617267e+03 0.0000000000e+00 0.0000e+00 1.0000e+00
       13  1    1    2    0    0 -1.2390352487e+03 +1.8473756448e+03 -3.3785340470e+03 4.0450583960e+03 0.0000000000e+00 0.0000e+00 -1.0000e+00
<mgrwt>
<rscale>  0 0.50443641E+04</rscale>
<asrwt>0</asrwt>
<pdfrwt beam="1">  1        2 0.19397479E+00 0.50443641E+04</pdfrwt>
<pdfrwt beam="2">  1       -2 0.77621291E+00 0.50443641E+04</pdfrwt>
<totfact> 0.15592290E-03</totfact>
</mgrwt>
<rwgt>
<wgt id='morphing_basis_vector_1'> +7.8865867e-06 </wgt>
<wgt id='morphing_basis_vector_2'> +7.9531097e-06 </wgt>
<wgt id='morphing_basis_vector_3'> +9.2884097e-06 </wgt>
<wgt id='morphing_basis_vector_4'> +2.9135566e-06 </wgt>
<wgt id='morphing_basis_vector_5'> +8.3490818e-06 </wgt>
</rwgt>
</event>
<event>
 4      1 +7.6845000e-11 4.64076600e+03 7.81860800e-03 7.43603400e-02
        2 -1    0    0  501    0 +0.0000000000e+00 +0.0000000000e+00 +2.2289336960e+03 2.2289336960e+03 0.0000000000e+00 0.0000e+00 -1.0000e+00
       -2 -1    0    0    0  501 -0.0000000000e+00 -0.0000000000e+00 -2.4155847112e+03 2.4155847112e+03 0.0000000000e+00 0.0000e+00 1.0000e+00
      -13  1    1    2    0    0 +1.4718842455e+03 -1.0550200319e+03 -1.5452457011e+03 2.3806080687e+03 0.0000000000e+00 0.0000e+00 1.0000e+00
       13  1    1    2    0    0 -1.4718842455e+03 +1.0550200319e+03 +1.3585946859e+03 2.2639103385e+03 0.0000000000e+00 0.0000e+00 -1.0000e+00
<mgrwt>
<rscale>  0 0.46407664E+04</rscale>
<asrwt>0</asrwt>
<pdfrwt beam="1">  1        2 0.34291288E+00 0.46407664E+04</pdfrwt>
<pdfrwt beam="2">  1       -2 0.37162842E+00 0.46407664E+04</pdfrwt>
<totfact> 0.37773878E-02</totfact>
</mgrwt>
<rwgt>
<wgt id='morphing_basis_vector_1'> +4.8415150e-06 </wgt>
<wgt id='morphing_basis_vector_2'> +3.3090362e-06 </wgt>
<wgt id='morphing_basis_vector_3'> +5.3331065e-06 </wgt>
<wgt id='morphing_basis_vector_4'> +3.8173205e-06 </wgt>
<wgt id='morphing_basis_vector_5'> +6.1194728e-06 </wgt>
</rwgt>
</event>
<event>
 4      1 +7.6845000e-11 5.46228300e+03 7.81860800e-03 7.32442400e-02
        2 -1    0    0  501    0 +0.0000000000e+00 +0.0000000000e+00 +2.6230037314e+03 2.6230037314e+03 0.0000000000e+00 0.0000e+00 -1.0000e+00
       -2 -1    0    0    0  501 -0.0000000000e+00 -0.0000000000e+00 -2.8437371825e+03 2.8437371825e+03 0.0000000000e+00 0.0000e+00 1.0000e+00
      -13  1    1    2    0    0 -1.7552664214e+03 -1.3012311117e+03 -1.7502920896e+03 2.7995865793e+03 0.0000000000e+00 0.0000e+00 1.0000e+00
       13  1    1    2    0    0 +1.7552664214e+03 +1.3012311117e+03 +1.5295586386e+03 2.6671543346e+03 0.0000000000e+00 0.0000e+00 -1.0000e+00
<mgrwt>
<rscale>  0 0.54622828E+04</rscale>
<asrwt>0</asrwt>
<pdfrwt beam="1">  1        2 0.40353904E+00 0.54622828E+04</pdfrwt>
<pdfrwt beam="2">  1       -2 0.43749803E+00 0.54622828E+04</pdfrwt>
<totfact> 0.76554320E-03</totfact>
</mgrwt>
<rwgt>
<wgt id='morphing_basis_vector_1'> +9.2760044e-06 </wgt>
<wgt id='morphing_basis_vector_2'> +6.3558185e-06 </wgt>
<wgt id='morphing_basis_vector_3'> +1.0240094e-05 </wgt>
<wgt id='morphing_basis_vector_4'> +7.3337161e-06 </wgt>
<wgt id='morphing_basis_vector_5'> +1.1768411e-05 </wgt>
</rwgt>
</event>
<event>
 4      1 +7.6845000e-11 5.51772000e+03 7.81860800e-03 7.31762500e-02
        2 -1    0    0  501    0 +0.0000000000e+00 +0.0000000000e+00 +3.4118545541e+03 3.4118545541e+03 0.0000000000e+00 0.0000e+00 -1.0000e+00
       -2 -1    0    0    0  501 -0.0000000000e+00 -0.0000000000e+00 -2.2308422367e+03 2.2308422367e+03 0.0000000000e+00 0.0000e+00 1.0000e+00
      -13  1    1    2    0    0 -2.3401671731e+03 +1.2492505016e+03 -1.8448447632e+02 2.6591434215e+03 0.0000000000e+00 0.0000e+00 1.0000e+00
       13  1    1    2    0    0 +2.3401671731e+03 -1.2492505016e+03 +1.3654967937e+03 2.9835533693e+03 0.0000000000e+00 0.0000e+00 -1.0000e+00
<mgrwt>
<rscale>  0 0.55177203E+04</rscale>
<asrwt>0</asrwt>
<pdfrwt beam="1">  1        2 0.52490070E+00 0.55177203E+04</pdfrwt>
<pdfrwt beam="2">  1       -2 0.34320650E+00 0.55177203E+04</pdfrwt>
<totfact> 0.95539981E-03</totfact>
</mgrwt>
<rwgt>
<wgt id='morphing_basis_vector_1'> +9.7559253e-06 </wgt>
<wgt id='morphing_basis_vector_2'> +6.9070903e-06 </wgt>
<wgt id='morphing_basis_vector_3'> +1.0822762e-05 </wgt>
<wgt id='morphing_basis_vector_4'> +7.4261388e-06 </wgt>
<wgt id='morphing_basis_vector_5'> +1.2237097e-05 </wgt>
</rwgt>
</event>
<event>
 4      1 +7.6845000e-11 5.09768000e+03 7.81860800e-03 7.37130300e-02
        2 -1    0    0  501    0 +0.0000000000e+00 +0.0000000000e+00 +1.9872726785e+03 1.9872726785e+03 0.0000000000e+00 0.0000e+00 -1.0000e+00
       -2 -1    0    0    0  501 -0.0000000000e+00 -0.0000000000e+00 -3.2690959868e+03 3.2690959868e+03 0.0000000000e+00 0.0000e+00 1.0000e+00
      -13  1    1    2    0    0 -1.8061942115e+03 +1.2058099417e+03 -2.0167144596e+03 2.9636889778e+03 0.0000000000e+00 0.0000e+00 1.0000e+00
       13  1    1    2    0    0 +1.8061942115e+03 -1.2058099417e+03 +7.3489115128e+02 2.2926796875e+03 0.0000000000e+00 0.0000e+00 -1.0000e+00
<mgrwt>
<rscale>  0 0.50976799E+04</rscale>
<asrwt>0</asrwt>
<pdfrwt beam="1">  1        2 0.30573426E+00 0.50976799E+04</pdfrwt>
<pdfrwt beam="2">  1       -2 0.50293784E+00 0.50976799E+04</pdfrwt>
<totfact> 0.61999404E-03</totfact>
</mgrwt>
<rwgt>
<wgt id='morphing_basis_vector_1'> +7.0521693e-06 </wgt>
<wgt id='morphing_basis_vector_2'> +4.8521342e-06 </wgt>
<wgt id='morphing_basis_vector_3'> +7.7843361e-06 </wgt>
<wgt id='morphing_basis_vector_4'> +5.5376023e-06 </wgt>
<wgt id='morphing_basis_vector_5'> +8.9183191e-06 </wgt>
</rwgt>
</event>
<event>
 4      1 +7.6845000e-11 4.63510600e+03 7.81860800e-03 7.43688300e-02
        2 -1    0    0  501    0 +0.0000000000e+00 +0.0000000000e+00 +2.0508528142e+03 2.0508528142e+03 0.0000000000e+00 0.0000e+00 1.0000e+00
       -2 -1    0    0    0  501 -0.0000000000e+00 -0.0000000000e+00 -2.6189358588e+03 2.6189358588e+03 0.0000000000e+00 0.0000e+00 -1.0000e+00
      -13  1    1    2    0    0 +1.5519290590e+03 -1.2030092931e+03 -1.5242427049e+03 2.4857656742e+03 0.0000000000e+00 0.0000e+00 -1.0000e+00
       13  1    1    2    0    0 -1.5519290590e+03 +1.2030092931e+03 +9.5615966037e+02 2.1840229988e+03 0.0000000000e+00 0.0000e+00 1.0000e+00
<mgrwt>
<rscale>  0 0.46351060E+04</rscale>
<asrwt>0</asrwt>
<pdfrwt beam="1">  1        2 0.31551582E+00 0.46351060E+04</pdfrwt>
<pdfrwt beam="2">  1       -2 0.40291320E+00 0.46351060E+04</pdfrwt>
<totfact> 0.29929647E-02</totfact>
</mgrwt>
<rwgt>
<wgt id='morphing_basis_vector_1'> +4.8258699e-06 </wgt>
<wgt id='morphing_basis_vector_2'> +3.3159839e-06 </wgt>
<wgt id='morphing_basis_vector_3'> +5.3198263e-06 </wgt>
<wgt id='morphing_basis_vector_4'> +3.7819887e-06 </wgt>
<wgt id='morphing_basis_vector_5'> +6.0881666e-06 </wgt>
</rwgt>
</event>
<event>
 4      1 +7.6845000e-11 5.33276200e+03 7.81860800e-03 7.34063600e-02
        2 -1    0    0  501    0 +0.0000000000e+00 +0.0000000000e+00 +2.1245535714e+03 2.1245535714e+03 0.0000000000e+00 0.0000e+00 1.0000e+00
       -2 -1    0    0    0  501 -0.0000000000e+00 -0.0000000000e+00 -3.3463913206e+03 3.3463913206e+03 0.0000000000e+00 0.0000e+00 -1.0000e+00
      -13  1    1    2    0    0 +9.9876520967e+01 +2.6126659630e+03 -1.1475296110e+03 2.8553148621e+03 0.0000000000e+00 0.0000e+00 -1.0000e+00
       13  1    1    2    0    0 -9.9876520967e+01 -2.6126659630e+03 -7.4308138226e+01 2.6156300298e+03 0.0000000000e+00 0.0000e+00 1.0000e+00
<mgrwt>
<rscale>  0 0.53327620E+04</rscale>
<asrwt>0</asrwt>
<pdfrwt beam="1">  1        2 0.32685440E+00 0.53327620E+04</pdfrwt>
<pdfrwt beam="2">  1       -2 0.51482943E+00 0.53327620E+04</pdfrwt>
<totfact> 0.41487660E-03</totfact>
</mgrwt>
<rwgt>
<wgt id='morphing_basis_vector_1'> +8.5557715e-06 </wgt>
<wgt id='morphing_basis_vector_2'> +6.1460953e-06 </wgt>
<wgt id='morphing_basis_vector_3'> +9.5087653e-06 </wgt>
<wgt id='morphing_basis_vector_4'> +6.3908561e-06 </wgt>
<wgt id='morphing_basis_vector_5'> +1.0665836e-05 </wgt>
</rwgt>
</event>
<event>
 4      1 +7.6845000e-11 5.44024300e+03 7.81860800e-03 7.32715000e-02
        2 -1    0    0  501    0 +0.0000000000e+00 +0.0000000000e+00 +2.4852277768e+03 2.4852277768e+03 0.0000000000e+00 0.0000e+00 -1.0000e+00
       -2 -1    0    0    0  501 -0.0000000000e+00 -0.0000000000e+00 -2.9772168228e+03 2.9772168228e+03 0.0000000000e+00 0.0000e+00 1.0000e+00
      -13  1    1    2    0    0 +1.6049603398e+03 -1.0203240322e+03 -2.1986939603e+03 2.9070971697e+03 0.0000000000e+00 0.0000e+00 1.0000e+00
       13  1    1    2    0    0 -1.6049603398e+03 +1.0203240322e+03 +1.7067049144e+03 2.5553474299e+03 0.0000000000e+00 0.0000e+00 -1.0000e+00
<mgrwt>
<rscale>  0 0.54402434E+04</rscale>
<asrwt>0</asrwt>
<pdfrwt beam="1">  1        2 0.38234274E+00 0.54402434E+04</pdfrwt>
<pdfrwt beam="2">  1       -2 0.45803336E+00 0.54402434E+04</pdfrwt>
<totfact> 0.66850524E-03</totfact>
</mgrwt>
<rwgt>
<wgt id='morphing_basis_vector_1'> +9.1147538e-06 </wgt>
<wgt id='morphing_basis_vector_2'> +6.2162330e-06 </wgt>
<wgt id='morphing_basis_vector_3'> +1.0054924e-05 </wgt>
<wgt id='morphing_basis_vector_4'> +7.2432081e-06 </wgt>
<wgt id='morphing_basis_vector_5'> +1.1581428e-05 </wgt>
</rwgt>
</event>
<event>
 4      1 +7.6845000e-11 4.81000700e+03 7.81860800e-03 7.41121500e-02
        2 -1    0    0  501    0 +0.0000000000e+00 +0.0000000000e+00 +2.7686623985e+03 2.7686623985e+03 0.0000000000e+00 0.0000e+00 1.0000e+00
       -2 -1    0    0    0  501 -0.0000000000e+00 -0.0000000000e+00 -2.0891104764e+03 2.0891104764e+03 0.0000000000e+00 0.0000e+00 -1.0000e+00
      -13  1    1    2    0    0 -7.3320507569e+02 +4.6600892326e+02 -1.9251016664e+03 2.1120536039e+03 0.0000000000e+00 0.0000e+00 -1.0000e+00
       13  1    1    2    0    0 +7.3320507569e+02 -4.6600892326e+02 +2.6046535885e+03 2.7457192711e+03 0.0000000000e+00 0.0000e+00 1.0000e+00
<mgrwt>
<rscale>  0 0.48100069E+04</rscale>
<asrwt>0</asrwt>
<pdfrwt beam="1">  1        2 0.42594806E+00 0.48100069E+04</pdfrwt>
<pdfrwt beam="2">  1       -2 0.32140161E+00 0.48100069E+04</pdfrwt>
<totfact> 0.37659527E-02</totfact>
</mgrwt>
<rwgt>
<wgt id='morphing_basis_vector_1'> +5.5726391e-06 </wgt>
<wgt id='morphing_basis_vector_2'> +3.7834470e-06 </wgt>
<wgt id='morphing_basis_vector_3'> +6.1354161e-06 </wgt>
<wgt id='morphing_basis_vector_4'> +4.4325894e-06 </wgt>
<wgt id='morphing_basis_vector_5'> +7.0678582e-06 </wgt>
</rwgt>
</event>
<event>
 4      1 +7.6845000e-11 4.68183300e+03 7.81860800e-03 7.42991500e-02
        2 -1    0    0  501    0 +0.0000000000e+00 +0.0000000000e+00 +2.5729794224e+03 2.5729794224e+03 0.0000000000e+00 0.0000e+00 -1.0000e+00
       -2 -1    0    0    0  501 -0.0000000000e+00 -0.0000000000e+00 -2.1297835907e+03 2.1297835907e+03 0.0000000000e+00 0.0000e+00 1.0000e+00
      -13  1    1    2    0    0 +1.0497996305e+03 +6.7624619416e+02 -1.7672794140e+03 2.1639465582e+03 0.0000000000e+00 0.0000e+00 1.0000e+00
       13  1    1    2    0    0 -1.0497996305e+03 -6.7624619416e+02 +2.2104752457e+03 2.5388164548e+03 0.0000000000e+00 0.0000e+00 -1.0000e+00
<mgrwt>
<rscale>  0 0.46818327E+04</rscale>
<asrwt>0</asrwt>
<pdfrwt beam="1">  1        2 0.39584299E+00 0.46818327E+04</pdfrwt>
<pdfrwt beam="2">  1       -2 0.32765901E+00 0.46818327E+04</pdfrwt>
<totfact> 0.45594988E-02</totfact>
</mgrwt>
<rwgt>
<wgt id='morphing_basis_vector_1'> +5.0051239e-06 </wgt>
<wgt id='morphing_basis_vector_2'> +3.3999850e-06 </wgt>
<wgt id='morphing_basis_vector_3'> +5.5091711e-06 </wgt>
<wgt id='morphing_basis_vector_4'> +3.9746943e-06 </wgt>
<wgt id='morphing_basis_vector_5'> +6.3414561e-06 </wgt>
</rwgt>
</event>
<event>
 4      1 +7.6845000e-11 5.20184000e+03 7.81860800e-03 7.35751000e-02
        2 -1    0    0  501    0 +0.0000000000e+00 +0.0000000000e+00 +3.7883935198e+03 3.7883935198e+03 0.0000000000e+00 0.0000e+00 1.0000e+00
       -2 -1    0    0    0  501 -0.0000000000e+00 -0.0000000000e+00 -1.7856608833e+03 1.7856608833e+03 0.0000000000e+00 0.0000e+00 -1.0000e+00
      -13  1    1    2    0    0 +2.9373791483e+02 +2.4302941880e+03 +5.9754613441e+01 2.4487103579e+03 0.0000000000e+00 0.0000e+00 -1.0000e+00
       13  1    1    2    0    0 -2.9373791483e+02 -2.4302941880e+03 +1.9429780230e+03 3.1253440452e+03 0.0000000000e+00 0.0000e+00 1.0000e+00
<mgrwt>
<rscale>  0 0.52018405E+04</rscale>
<asrwt>0</asrwt>
<pdfrwt beam="1">  1        2 0.58282977E+00 0.52018405E+04</pdfrwt>
<pdfrwt beam="2">  1       -2 0.27471706E+00 0.52018405E+04</pdfrwt>
<totfact> 0.14599068E-02</totfact>
</mgrwt>
<rwgt>
<wgt id='morphing_basis_vector_1'> +7.6886495e-06 </wgt>
<wgt id='morphing_basis_vector_2'> +5.3899929e-06 </wgt>
<wgt id='morphing_basis_vector_3'> +8.5118973e-06 </wgt>
<wgt id='morphing_basis_vector_4'> +5.9116177e-06 </wgt>
<wgt id='morphing_basis_vector_5'> +9.6643204e-06 </wgt>
</rwgt>
</event>
<event>
 4      1 +7.6845000e-11 4.72793600e+03 7.81860800e-03 7.42312000e-02
        2 -1    0    0  501    0 +0.0000000000e+00 +0.0000000000e+00 +3.4374097088e+03 3.4374097088e+03 0.0000000000e+00 0.0000e+00 -1.0000e+00
       -2 -1    0    0    0  501 -0.0000000000e+00 -0.0000000000e+00 -1.6257432379e+03 1.6257432379e+03 0.0000000000e+00 0.0000e+00 1.0000e+00
      -13  1    1    2    0    0 +1.6896971878e+03 +6.1285301310e+02 -7.3850770617e+02 1.9432084382e+03 0.0000000000e+00 0.0000e+00 1.0000e+00
       13  1    1    2    0    0 -1.6896971878e+03 -6.1285301310e+02 +2.5501741771e+03 3.1199445085e+03 0.0000000000e+00 0.0000e+00 -1.0000e+00
<mgrwt>
<rscale>  0 0.47279364E+04</rscale>
<asrwt>0</asrwt>
<pdfrwt beam="1">  1        2 0.52883226E+00 0.47279364E+04</pdfrwt>
<pdfrwt beam="2">  1       -2 0.25011435E+00 0.47279364E+04</pdfrwt>
<totfact> 0.41219436E-02</totfact>
</mgrwt>
<rwgt>
<wgt id='morphing_basis_vector_1'> +5.2125136e-06 </wgt>
<wgt id='morphing_basis_vector_2'> +3.5593899e-06 </wgt>
<wgt id='morphing_basis_vector_3'> +5.7424044e-06 </wgt>
<wgt id='morphing_basis_vector_4'> +4.1169895e-06 </wgt>
<wgt id='morphing_basis_vector_5'> +6.5944459e-06 </wgt>
</rwgt>
</event>
<event>
 4      1 +7.6845000e-11 5.47692100e+03 7.81860800e-03 7.32262100e-02
        2 -1    0    0  501    0 +0.0000000000e+00 +0.0000000000e+00 +3.4116866296e+03 3.4116866296e+03 0.0000000000e+00 0.0000e+00 1.0000e+00
       -2 -1    0    0    0  501 -0.0000000000e+00 -0.0000000000e+00 -2.1980816783e+03 2.1980816783e+03 0.0000000000e+00 0.0000e+00 -1.0000e+00
      -13  1    1    2    0    0 +2.5762419142e+03 +6.6621985007e+02 +1.2692470838e+03 2.9481959651e+03 0.0000000000e+00 0.0000e+00 -1.0000e+00
       13  1    1    2    0    0 -2.5762419142e+03 -6.6621985007e+02 -5.5642132520e+01 2.6615723428e+03 0.0000000000e+00 0.0000e+00 1.0000e+00
<mgrwt>
<rscale>  0 0.54769210E+04</rscale>
<asrwt>0</asrwt>
<pdfrwt beam="1">  1        2 0.52487486E+00 0.54769210E+04</pdfrwt>
<pdfrwt beam="2">  1       -2 0.33816641E+00 0.54769210E+04</pdfrwt>
<totfact> 0.10342109E-02</totfact>
</mgrwt>
<rwgt>
<wgt id='morphing_basis_vector_1'> +1.0128778e-05 </wgt>
<wgt id='morphing_basis_vector_2'> +8.6354832e-06 </wgt>
<wgt id='morphing_basis_vector_3'> +1.1576733e-05 </wgt>
<wgt id='morphing_basis_vector_4'> +5.8045171e-06 </wgt>
<wgt id='morphing_basis_vector_5'> +1.1760332e-05 </wgt>
</rwgt>
</event>
<event>
 4      1 +7.6845000e-11 5.34645200e+03 7.81860800e-03 7.33890100e-02
        2 -1    0    0  501    0 +0.0000000000e+00 +0.0000000000e+00 +3.4087522448e+03 3.4087522448e+03 0.0000000000e+00 0.0000e+00 -1.0000e+00
       -2 -1    0    0    0  501 -0.0000000000e+00 -0.0000000000e+00 -2.0964088997e+03 2.0964088997e+03 0.0000000000e+00 0.0000e+00 1.0000e+00
      -13  1    1    2    0    0 -1.2870880510e+03 -4.4386207490e+02 -1.7126696045e+03 2.1878862783e+03 0.0000000000e+00 0.0000e+00 1.0000e+00
       13  1    1    2    0    0 +1.2870880510e+03 +4.4386207490e+02 +3.0250129496e+03 3.3172748662e+03 0.0000000000e+00 0.0000e+00 -1.0000e+00
<mgrwt>
<rscale>  0 0.53464525E+04</rscale>
<asrwt>0</asrwt>
<pdfrwt beam="1">  1        2 0.52442342E+00 0.53464525E+04</pdfrwt>
<pdfrwt beam="2">  1       -2 0.32252445E+00 0.53464525E+04</pdfrwt>
<totfact> 0.13307226E-02</totfact>
</mgrwt>
<rwgt>
<wgt id='morphing_basis_vector_1'> +8.4963197e-06 </wgt>
<wgt id='morphing_basis_vector_2'> +5.7766120e-06 </wgt>
<wgt id='morphing_basis_vector_3'> +9.3669836e-06 </wgt>
<wgt id='morphing_basis_vector_4'> +6.7714779e-06 </wgt>
<wgt id='morphing_basis_vector_5'> +1.0802498e-05 </wgt>
</rwgt>
</event>
<event>
 4      1 +7.6845000e-11 4.98808000e+03 7.81860800e-03 7.38618600e-02
        2 -1    0    0  501    0 +0.0000000000e+00 +0.0000000000e+00 +3.5616868857e+03 3.5616868857e+03 0.0000000000e+00 0.0000e+00 1.0000e+00
       -2 -1    0    0    0  501 -0.0000000000e+00 -0.0000000000e+00 -1.7464298731e+03 1.7464298731e+03 0.0000000000e+00 0.0000e+00 -1.0000e+00
      -13  1    1    2    0    0 +1.1693497657e+03 +1.3855008296e+03 +2.7301858148e+03 3.2773321477e+03 0.0000000000e+00 0.0000e+00 1.0000e+00
       13  1    1    2    0    0 -1.1693497657e+03 -1.3855008296e+03 -9.1492880218e+02 2.0307846110e+03 0.0000000000e+00 0.0000e+00 -1.0000e+00
<mgrwt>
<rscale>  0 0.49880803E+04</rscale>
<asrwt>0</asrwt>
<pdfrwt beam="1">  1        2 0.54795183E+00 0.49880803E+04</pdfrwt>
<pdfrwt beam="2">  1       -2 0.26868152E+00 0.49880803E+04</pdfrwt>
<totfact> 0.24408051E-02</totfact>
</mgrwt>
<rwgt>
<wgt id='morphing_basis_vector_1'> +8.2609933e-06 </wgt>
<wgt id='morphing_basis_vector_2'> +9.7176692e-06 </wgt>
<wgt id='morphing_basis_vector_3'> +1.0047687e-05 </wgt>
<wgt id='morphing_basis_vector_4'> +1.2524974e-06 </wgt>
<wgt id='morphing_basis_vector_5'> +7.8530724e-06 </wgt>
</rwgt>
</event>
<event>
 4      1 +7.6845000e-11 5.28300600e+03 7.81860800e-03 7.34699000e-02
        2 -1    0    0  501    0 +0.0000000000e+00 +0.0000000000e+00 +2.4143580353e+03 2.4143580353e+03 0.0000000000e+00 0.0000e+00 -1.0000e+00
       -2 -1    0    0    0  501 -0.0000000000e+00 -0.0000000000e+00 -2.8900176218e+03 2.8900176218e+03 0.0000000000e+00 0.0000e+00 1.0000e+00
      -13  1    1    2    0    0 -1.9683981174e+02 -2.1063794714e+03 -1.8259855948e+03 2.7946026160e+03 0.0000000000e+00 0.0000e+00 1.0000e+00
       13  1    1    2    0    0 +1.9683981174e+02 +2.1063794714e+03 +1.3503260084e+03 2.5097730411e+03 0.0000000000e+00 0.0000e+00 -1.0000e+00
<mgrwt>
<rscale>  0 0.52830057E+04</rscale>
<asrwt>0</asrwt>
<pdfrwt beam="1">  1        2 0.37143970E+00 0.52830057E+04</pdfrwt>
<pdfrwt beam="2">  1       -2 0.44461809E+00 0.52830057E+04</pdfrwt>
<totfact> 0.92490846E-03</totfact>
</mgrwt>
<rwgt>
<wgt id='morphing_basis_vector_1'> +8.1201029e-06 </wgt>
<wgt id='morphing_basis_vector_2'> +5.5628698e-06 </wgt>
<wgt id='morphing_basis_vector_3'> +8.9609228e-06 </wgt>
<wgt id='morphing_basis_vector_4'> +6.4146793e-06 </wgt>
<wgt id='morphing_basis_vector_5'> +1.0294024e-05 </wgt>
</rwgt>
</event>
<event>
 4      1 +7.6845000e-11 4.87853600e+03 7.81860800e-03 7.40145600e-02
        2 -1    0    0  501    0 +0.0000000000e+00 +0.0000000000e+00 +3.9095164197e+03 3.9095164197e+03 0.0000000000e+00 0.0000e+00 1.0000e+00
       -2 -1    0    0    0  501 -0.0000000000e+00 -0.0000000000e+00 -1.5219346551e+03 1.5219346551e+03 0.0000000000e+00 0.0000e+00 -1.0000e+00
      -13  1    1    2    0    0 -1.5321109798e+03 +1.8857921820e+03 +9.5383575354e+02 2.6102449794e+03 0.0000000000e+00 0.0000e+00 -1.0000e+00
       13  1    1    2    0    0 +1.5321109798e+03 -1.8857921820e+03 +1.4337460111e+03 2.8212060953e+03 0.0000000000e+00 0.0000e+00 1.0000e+00
<mgrwt>
<rscale>  0 0.48785361E+04</rscale>
<asrwt>0</asrwt>
<pdfrwt beam="1">  1        2 0.60146406E+00 0.48785361E+04</pdfrwt>
<pdfrwt beam="2">  1       -2 0.23414379E+00 0.48785361E+04</pdfrwt>
<totfact> 0.22744853E-02</totfact>
</mgrwt>
<rwgt>
<wgt id='morphing_basis_vector_1'> +6.0524964e-06 </wgt>
<wgt id='morphing_basis_vector_2'> +4.4633087e-06 </wgt>
<wgt id='morphing_basis_vector_3'> +6.7463926e-06 </wgt>
<wgt id='morphing_basis_vector_4'> +4.3580851e-06 </wgt>
<wgt id='morphing_basis_vector_5'> +7.4528303e-06 </wgt>
</rwgt>
</event>
<event>
 4      1 +7.6845000e-11 5.34091900e+03 7.81860800e-03 7.33960200e-02
        2 -1    0    0  501    0 +0.0000000000e+00 +0.0000000000e+00 +2.3699918006e+03 2.3699918006e+03 0.0000000000e+00 0.0000e+00 1.0000e+00
       -2 -1    0    0    0  501 -0.0000000000e+00 -0.0000000000e+00 -3.0090204594e+03 3.0090204594e+03 0.0000000000e+00 0.0000e+00 -1.0000e+00
      -13  1    1    2    0    0 -7.0460872555e+02 -4.5752202636e+02 -2.8724615349e+03 2.9927972083e+03 0.0000000000e+00 0.0000e+00 -1.0000e+00
       13  1    1    2    0    0 +7.0460872555e+02 +4.5752202636e+02 +2.2334328761e+03 2.3862150516e+03 0.0000000000e+00 0.0000e+00 1.0000e+00
<mgrwt>
<rscale>  0 0.53409190E+04</rscale>
<asrwt>0</asrwt>
<pdfrwt beam="1">  1        2 0.36461412E+00 0.53409190E+04</pdfrwt>
<pdfrwt beam="2">  1       -2 0.46292623E+00 0.53409190E+04</pdfrwt>
<totfact> 0.72690181E-03</totfact>
</mgrwt>
<rwgt>
<wgt id='morphing_basis_vector_1'> +8.4595955e-06 </wgt>
<wgt id='morphing_basis_vector_2'> +5.7477545e-06 </wgt>
<wgt id='morphing_basis_vector_3'> +9.3254980e-06 </wgt>
<wgt id='morphing_basis_vector_4'> +6.7470510e-06 </wgt>
<wgt id='morphing_basis_vector_5'> +1.0758028e-05 </wgt>
</rwgt>
</event>
<event>
 4      1 +7.6845000e-11 4.71564200e+03 7.81860800e-03 7.42492500e-02
        2 -1    0    0  501    0 +0.0000000000e+00 +0.0000000000e+00 +2.3213318430e+03 2.3213318430e+03 0.0000000000e+00 0.0000e+00 -1.0000e+00
       -2 -1    0    0    0  501 -0.0000000000e+00 -0.0000000000e+00 -2.3948835016e+03 2.3948835016e+03 0.0000000000e+00 0.0000e+00 1.0000e+00
      -13  1    1    2    0    0 -1.4484994638e+03 +1.7500714584e+03 -6.6805663275e+02 2.3679528016e+03 0.0000000000e+00 0.0000e+00 1.0000e+00
       13  1    1    2    0    0 +1.4484994638e+03 -1.7500714584e+03 +5.9450497415e+02 2.3482625429e+03 0.0000000000e+00 0.0000e+00 -1.0000e+00
<mgrwt>
<rscale>  0 0.47156418E+04</rscale>
<asrwt>0</asrwt>
<pdfrwt beam="1">  1        2 0.35712798E+00 0.47156418E+04</pdfrwt>
<pdfrwt beam="2">  1       -2 0.36844361E+00 0.47156418E+04</pdfrwt>
<totfact> 0.34811423E-02</totfact>
</mgrwt>
<rwgt>
<wgt id='morphing_basis_vector_1'> +5.2169635e-06 </wgt>
<wgt id='morphing_basis_vector_2'> +3.6936889e-06 </wgt>
<wgt id='morphing_basis_vector_3'> +5.7772284e-06 </wgt>
<wgt id='morphing_basis_vector_4'> +3.9502517e-06 </wgt>
<wgt id='morphing_basis_vector_5'> +6.5155027e-06 </wgt>
</rwgt>
</event>
<event>
 4      1 +7.6845000e-11 4.77601700e+03 7.81860800e-03 7.41611700e-02
        2 -1    0    0  501    0 +0.0000000000e+00 +0.0000000000e+00 +2.7596668217e+03 2.7596668217e+03 0.0000000000e+00 0.0000e+00 -1.0000e+00
       -2 -1    0    0    0  501 -0.0000000000e+00 -0.0000000000e+00 -2.0664035509e+03 2.0664035509e+03 0.0000000000e+00 0.0000e+00 1.0000e+00
      -13  1    1    2    0    0 +1.0752068588e+03 +3.5592131379e+02 -1.7777415658e+03 2.1078697411e+03 0.0000000000e+00 0.0000e+00 1.0000e+00
       13  1    1    2    0    0 -1.0752068588e+03 -3.5592131379e+02 +2.4710048366e+03 2.7182006315e+03 0.0000000000e+00 0.0000e+00 -1.0000e+00
<mgrwt>
<rscale>  0 0.47760173E+04</rscale>
<asrwt>0</asrwt>
<pdfrwt beam="1">  1        2 0.42456413E+00 0.47760173E+04</pdfrwt>
<pdfrwt beam="2">  1       -2 0.31790824E+00 0.47760173E+04</pdfrwt>
<totfact> 0.40350752E-02</totfact>
</mgrwt>
<rwgt>
<wgt id='morphing_basis_vector_1'> +5.4179607e-06 </wgt>
<wgt id='morphing_basis_vector_2'> +3.6796162e-06 </wgt>
<wgt id='morphing_basis_vector_3'> +5.9648768e-06 </wgt>
<wgt id='morphing_basis_vector_4'> +4.3068781e-06 </wgt>
<wgt id='morphing_basis_vector_5'> +6.8694034e-06 </wgt>
</rwgt>
</event>
<event>
 4      1 +7.6845000e-11 4.83433700e+03 7.81860800e-03 7.40773200e-02
        2 -1    0    0  501    0 +0.0000000000e+00 +0.0000000000e+00 +3.9109457707e+03 3.9109457707e+03 0.0000000000e+00 0.0000e+00 1.0000e+00
       -2 -1    0    0    0  501 -0.0000000000e+00 -0.0000000000e+00 -1.4939364319e+03 1.4939364319e+03 0.0000000000e+00 0.0000e+00 -1.0000e+00
      -13  1    1    2    0    0 -5.8426649376e+02 -6.5979668820e+02 -1.3079093956e+03 1.5771258645e+03 0.0000000000e+00 0.0000e+00 -1.0000e+00
       13  1    1    2    0    0 +5.8426649376e+02 +6.5979668820e+02 +3.7249187344e+03 3.8277563381e+03 0.0000000000e+00 0.0000e+00 1.0000e+00
<mgrwt>
<rscale>  0 0.48343373E+04</rscale>
<asrwt>0</asrwt>
<pdfrwt beam="1">  1        2 0.60168396E+00 0.48343373E+04</pdfrwt>
<pdfrwt beam="2">  1       -2 0.22983638E+00 0.48343373E+04</pdfrwt>
<totfact> 0.24399832E-02</totfact>
</mgrwt>
<rwgt>
<wgt id='morphing_basis_vector_1'> +5.6858558e-06 </wgt>
<wgt id='morphing_basis_vector_2'> +3.8605065e-06 </wgt>
<wgt id='morphing_basis_vector_3'> +6.2604888e-06 </wgt>
<wgt id='morphing_basis_vector_4'> +4.5232372e-06 </wgt>
<wgt id='morphing_basis_vector_5'> +7.2124465e-06 </wgt>
</rwgt>
</event>
<event>
 4      1 +7.6845000e-11 4.90443300e+03 7.81860800e-03 7.39781000e-02
        2 -1    0    0  501    0 +0.0000000000e+00 +0.0000000000e+00 +3.5338502333e+03 3.5338502333e+03 0.0000000000e+00 0.0000e+00 -1.0000e+00
       -2 -1    0    0    0  501 -0.0000000000e+00 -0.0000000000e+00 -1.7016470904e+03 1.7016470904e+03 0.0000000000e+00 0.0000e+00 1.0000e+00
      -13  1    1    2    0    0 +2.1891839005e+03 +4.6551588295e+02 -1.5360615700e+02 2.2433960950e+03 0.0000000000e+00 0.0000e+00 1.0000e+00
       13  1    1    2    0    0 -2.1891839005e+03 -4.6551588295e+02 +1.9858092999e+03 2.9921012287e+03 0.0000000000e+00 0.0000e+00 -1.0000e+00
<mgrwt>
<rscale>  0 0.49044331E+04</rscale>
<asrwt>0</asrwt>
<pdfrwt beam="1">  1        2 0.54366926E+00 0.49044331E+04</pdfrwt>
<pdfrwt beam="2">  1       -2 0.26179186E+00 0.49044331E+04</pdfrwt>
<totfact> 0.28733055E-02</totfact>
</mgrwt>
<rwgt>
<wgt id='morphing_basis_vector_1'> +6.0638883e-06 </wgt>
<wgt id='morphing_basis_vector_2'> +4.2130072e-06 </wgt>
<wgt id='morphing_basis_vector_3'> +6.6999368e-06 </wgt>
<wgt id='morphing_basis_vector_4'> +4.7023222e-06 </wgt>
<wgt id='morphing_basis_vector_5'> +7.6338787e-06 </wgt>
</rwgt>
</event>
<event>
 4      1 +7.6845000e-11 4.73409200e+03 7.81860800e-03 7.42221900e-02
        2 -1    0    0  501    0 +0.0000000000e+00 +0.0000000000e+00 +4.1986523604e+03 4.1986523604e+03 0.0000000000e+00 0.0000e+00 1.0000e+00
       -2 -1    0    0    0  501 -0.0000000000e+00 -0.0000000000e+00 -1.3344533315e+03 1.3344533315e+03 0.0000000000e+00 0.0000e+00 -1.0000e+00
      -13  1    1    2    0    0 -5.7428399184e+02 +6.1798588688e+02 -1.1527775481e+03 1.4284973696e+03 0.0000000000e+00 0.0000e+00 -1.0000e+00
       13  1    1    2    0    0 +5.7428399184e+02 -6.1798588688e+02 +4.0169765770e+03 4.1046083223e+03 0.0000000000e+00 0.0000e+00 1.0000e+00
<mgrwt>
<rscale>  0 0.47340915E+04</rscale>
<asrwt>0</asrwt>
<pdfrwt beam="1">  1        2 0.64594651E+00 0.47340915E+04</pdfrwt>
<pdfrwt beam="2">  1       -2 0.20530051E+00 0.47340915E+04</pdfrwt>
<totfact> 0.20676509E-02</totfact>
</mgrwt>
<rwgt>
<wgt id='morphing_basis_vector_1'> +5.2302591e-06 </wgt>
<wgt id='morphing_basis_vector_2'> +3.5504666e-06 </wgt>
<wgt id='morphing_basis_vector_3'> +5.7572188e-06 </wgt>
<wgt id='morphing_basis_vector_4'> +4.1584405e-06 </wgt>
<wgt id='morphing_basis_vector_5'> +6.6306413e-06 </wgt>
</rwgt>
</event>
<event>
 4      1 +7.6845000e-11 5.26131700e+03 7.81860800e-03 7.34978200e-02
        2 -1    0    0  501    0 +0.0000000000e+00 +0.0000000000e+00 +3.3483310099e+03 3.3483310099e+03 0.0000000000e+00 0.0000e+00 -1.0000e+00
       -2 -1    0    0    0  501 -0.0000000000e+00 -0.0000000000e+00 -2.0668101862e+03 2.0668101862e+03 0.0000000000e+00 0.0000e+00 1.0000e+00
      -13  1    1    2    0    0 +1.6664219596e+03 +1.3231853903e+03 -9.5126061225e+02 2.3308106909e+03 0.0000000000e+00 0.0000e+00 1.0000e+00
       13  1    1    2    0    0 -1.6664219596e+03 -1.3231853903e+03 +2.2327814359e+03 3.0843305052e+03 0.0000000000e+00 0.0000e+00 -1.0000e+00
<mgrwt>
<rscale>  0 0.52613172E+04</rscale>
<asrwt>0</asrwt>
<pdfrwt beam="1">  1        2 0.51512785E+00 0.52613172E+04</pdfrwt>
<pdfrwt beam="2">  1       -2 0.31797080E+00 0.52613172E+04</pdfrwt>
<totfact> 0.15851628E-02</totfact>
</mgrwt>
<rwgt>
<wgt id='morphing_basis_vector_1'> +7.9893639e-06 </wgt>
<wgt id='morphing_basis_vector_2'> +5.4762878e-06 </wgt>
<wgt id='morphing_basis_vector_3'> +8.8169717e-06 </wgt>
<wgt id='morphing_basis_vector_4'> +6.3067204e-06 </wgt>
<wgt id='morphing_basis_vector_5'> +1.0125296e-05 </wgt>
</rwgt>
</event>
<event>
 4      1 +7.6845000e-11 5.27206100e+03 7.81860800e-03 7.34839800e-02
        2 -1    0    0  501    0 +0.0000000000e+00 +0.0000000000e+00 +2.3859937667e+03 2.3859937667e+03 0.0000000000e+00 0.0000e+00 -1.0000e+00
       -2 -1    0    0    0  501 -0.0000000000e+00 -0.0000000000e+00 -2.9122696155e+03 2.9122696155e+03 0.0000000000e+00 0.0000e+00 1.0000e+00
      -13  1    1    2    0    0 +1.7204190337e+03 -1.7433777775e+03 -1.2423776501e+03 2.7463994524e+03 0.0000000000e+00 0.0000e+00 1.0000e+00
       13  1    1    2    0    0 -1.7204190337e+03 +1.7433777775e+03 +7.1610180128e+02 2.5518639298e+03 0.0000000000e+00 0.0000e+00 -1.0000e+00
<mgrwt>
<rscale>  0 0.52720611E+04</rscale>
<asrwt>0</asrwt>
<pdfrwt beam="1">  1        2 0.36707596E+00 0.52720611E+04</pdfrwt>
<pdfrwt beam="2">  1       -2 0.44804148E+00 0.52720611E+04</pdfrwt>
<totfact> 0.91090625E-03</totfact>
</mgrwt>
<rwgt>
<wgt id='morphing_basis_vector_1'> +8.1006403e-06 </wgt>
<wgt id='morphing_basis_vector_2'> +5.6562020e-06 </wgt>
<wgt id='morphing_basis_vector_3'> +8.9640200e-06 </wgt>
<wgt id='morphing_basis_vector_4'> +6.2603736e-06 </wgt>
<wgt id='morphing_basis_vector_5'> +1.0200255e-05 </wgt>
</rwgt>
</event>
<event>
 4      1 +7.6845000e-11 5.24179100e+03 7.81860800e-03 7.35230800e-02
        2 -1    0    0  501    0 +0.0000000000e+00 +0.0000000000e+00 +3.3876640954e+03 3.3876640954e+03 0.0000000000e+00 0.0000e+00 -1.0000e+00
       -2 -1    0    0    0  501 -0.0000000000e+00 -0.0000000000e+00 -2.0276786759e+03 2.0276786759e+03 0.0000000000e+00 0.0000e+00 1.0000e+00
      -13  1    1    2    0    0 -7.6835062908e+02 -2.5057021899e+03 +6.9416152186e+02 2.7112296789e+03 0.0000000000e+00 0.0000e+00 1.0000e+00
       13  1    1    2    0    0 +7.6835062908e+02 +2.5057021899e+03 +6.6582389764e+02 2.7041130924e+03 0.0000000000e+00 0.0000e+00 -1.0000e+00
<mgrwt>
<rscale>  0 0.52417914E+04</rscale>
<asrwt>0</asrwt>
<pdfrwt beam="1">  1        2 0.52117909E+00 0.52417914E+04</pdfrwt>
<pdfrwt beam="2">  1       -2 0.31195056E+00 0.52417914E+04</pdfrwt>
<totfact> 0.16331317E-02</totfact>
</mgrwt>
<rwgt>
<wgt id='morphing_basis_vector_1'> +8.1448130e-06 </wgt>
<wgt id='morphing_basis_vector_2'> +6.1972557e-06 </wgt>
<wgt id='morphing_basis_vector_3'> +9.1307400e-06 </wgt>
<wgt id='morphing_basis_vector_4'> +5.6309113e-06 </wgt>
<wgt id='morphing_basis_vector_5'> +9.9265205e-06 </wgt>
</rwgt>
</event>
<event>
 4      1 +7.6845000e-11 4.92169000e+03 7.81860800e-03 7.39539300e-02
        2 -1    0    0  501    0 +0.0000000000e+00 +0.0000000000e+00 +3.8257177482e+03 3.8257177482e+03 0.0000000000e+00 0.0000e+00 -1.0000e+00
       -2 -1    0    0    0  501 -0.0000000000e+00 -0.0000000000e+00 -1.5829077815e+03 1.5829077815e+03 0.0000000000e+00 0.0000e+00 1.0000e+00
      -13  1    1    2    0    0 +7.7485590220e+02 -2.2620629778e+03 +1.7607064035e+03 2.9694136836e+03 0.0000000000e+00 0.0000e+00 1.0000e+00
       13  1    1    2    0    0 -7.7485590220e+02 +2.2620629778e+03 +4.8210356314e+02 2.4392118461e+03 0.0000000000e+00 0.0000e+00 -1.0000e+00
<mgrwt>
<rscale>  0 0.49216901E+04</rscale>
<asrwt>0</asrwt>
<pdfrwt beam="1">  1        2 0.58857196E+00 0.49216901E+04</pdfrwt>
<pdfrwt beam="2">  1       -2 0.24352427E+00 0.49216901E+04</pdfrwt>
<totfact> 0.22828021E-02</totfact>
</mgrwt>
<rwgt>
<wgt id='morphing_basis_vector_1'> +6.6138219e-06 </wgt>
<wgt id='morphing_basis_vector_2'> +5.6364781e-06 </wgt>
<wgt id='morphing_basis_vector_3'> +7.5479201e-06 </wgt>
<wgt id='morphing_basis_vector_4'> +3.7799278e-06 </wgt>
<wgt id='morphing_basis_vector_5'> +7.6593557e-06 </wgt>
</rwgt>
</event>
<event>
 4      1 +7.6845000e-11 4.89688100e+03 7.81860800e-03 7.39887100e-02
        2 -1    0    0  501    0 +0.0000000000e+00 +0.0000000000e+00 +3.0287789655e+03 3.0287789655e+03 0.0000000000e+00 0.0000e+00 1.0000e+00
       -2 -1    0    0    0  501 -0.0000000000e+00 -0.0000000000e+00 -1.9792997370e+03 1.9792997370e+03 0.0000000000e+00 0.0000e+00 -1.0000e+00
      -13  1    1    2    0    0 -1.7915909823e+03 -1.4148415733e+03 -3.8039232982e+02 2.3143623852e+03 0.0000000000e+00 0.0000e+00 -1.0000e+00
       13  1    1    2    0    0 +1.7915909823e+03 +1.4148415733e+03 +1.4298715583e+03 2.6937163174e+03 0.0000000000e+00 0.0000e+00 1.0000e+00
<mgrwt>
<rscale>  0 0.48968812E+04</rscale>
<asrwt>0</asrwt>
<pdfrwt beam="1">  1        2 0.46596599E+00 0.48968812E+04</pdfrwt>
<pdfrwt beam="2">  1       -2 0.30450765E+00 0.48968812E+04</pdfrwt>
<totfact> 0.33069441E-02</totfact>
</mgrwt>
<rwgt>
<wgt id='morphing_basis_vector_1'> +6.0369915e-06 </wgt>
<wgt id='morphing_basis_vector_2'> +4.2172249e-06 </wgt>
<wgt id='morphing_basis_vector_3'> +6.6753734e-06 </wgt>
<wgt id='morphing_basis_vector_4'> +4.6515301e-06 </wgt>
<wgt id='morphing_basis_vector_5'> +7.5849873e-06 </wgt>
</rwgt>
</event>
<event>
 4      1 +7.6845000e-11 5.10917500e+03 7.81860800e-03 7.36976400e-02
        2 -1    0    0  501    0 +0.0000000000e+00 +0.0000000000e+00 +3.3476440581e+03 3.3476440581e+03 0.0000000000e+00 0.0000e+00 -1.0000e+00
       -2 -1    0    0    0  501 -0.0000000000e+00 -0.0000000000e+00 -1.9494058903e+03 1.9494058903e+03 0.0000000000e+00 0.0000e+00 1.0000e+00
      -13  1    1    2    0    0 +7.1026492045e+02 -7.6503577578e+02 -1.7181748114e+03 2.0104429059e+03 0.0000000000e+00 0.0000e+00 1.0000e+00
       13  1    1    2    0    0 -7.1026492045e+02 +7.6503577578e+02 +3.1164129791e+03 3.2866070425e+03 0.0000000000e+00 0.0000e+00 -1.0000e+00
<mgrwt>
<rscale>  0 0.51091749E+04</rscale>
<asrwt>0</asrwt>
<pdfrwt beam="1">  1        2 0.51502216E+00 0.51091749E+04</pdfrwt>
<pdfrwt beam="2">  1       -2 0.29990860E+00 0.51091749E+04</pdfrwt>
<totfact> 0.21210751E-02</totfact>
</mgrwt>
<rwgt>
<wgt id='morphing_basis_vector_1'> +7.0883612e-06 </wgt>
<wgt id='morphing_basis_vector_2'> +4.8154427e-06 </wgt>
<wgt id='morphing_basis_vector_3'> +7.8102221e-06 </wgt>
<wgt id='morphing_basis_vector_4'> +5.6463467e-06 </wgt>
<wgt id='morphing_basis_vector_5'> +9.0041839e-06 </wgt>
</rwgt>
</event>
<event>
 4      1 +7.6845000e-11 4.67247800e+03 7.81860800e-03 7.43130300e-02
        2 -1    0    0  501    0 +0.0000000000e+00 +0.0000000000e+00 +3.0442273429e+03 3.0442273429e+03 0.0000000000e+00 0.0000e+00 -1.0000e+00
       -2 -1    0    0    0  501 -0.0000000000e+00 -0.0000000000e+00 -1.7929055525e+03 1.7929055525e+03 0.0000000000e+00 0.0000e+00 1.0000e+00
      -13  1    1    2    0    0 +1.1320509984e+03 -1.9682474991e+03 +5.6303315272e+01 2.2712788785e+03 0.0000000000e+00 0.0000e+00 1.0000e+00
       13  1    1    2    0    0 -1.1320509984e+03 +1.9682474991e+03 +1.1950184751e+03 2.5658540170e+03 0.0000000000e+00 0.0000e+00 -1.0000e+00
<mgrwt>
<rscale>  0 0.46724778E+04</rscale>
<asrwt>0</asrwt>
<pdfrwt beam="1">  1        2 0.46834267E+00 0.46724778E+04</pdfrwt>
<pdfrwt beam="2">  1       -2 0.27583162E+00 0.46724778E+04</pdfrwt>
<totfact> 0.51399515E-02</totfact>
</mgrwt>
<rwgt>
<wgt id='morphing_basis_vector_1'> +5.0385089e-06 </wgt>
<wgt id='morphing_basis_vector_2'> +3.5877115e-06 </wgt>
<wgt id='morphing_basis_vector_3'> +5.5835952e-06 </wgt>
<wgt id='morphing_basis_vector_4'> +3.7874069e-06 </wgt>
<wgt id='morphing_basis_vector_5'> +6.2777257e-06 </wgt>
</rwgt>
</event>
<event>
 4      1 +7.6845000e-11 4.77210300e+03 7.81860800e-03 7.41668400e-02
        2 -1    0    0  501    0 +0.0000000000e+00 +0.0000000000e+00 +1.1245667061e+03 1.1245667061e+03 0.0000000000e+00 0.0000e+00 -1.0000e+00
       -2 -1    0    0    0  501 -0.0000000000e+00 -0.0000000000e+00 -5.0626096179e+03 5.0626096179e+03 0.0000000000e+00 0.0000e+00 1.0000e+00
      -13  1    1    2    0    0 +1.5549164039e+03 -1.4890060551e+03 -3.3028343014e+03 3.9425395975e+03 0.0000000000e+00 0.0000e+00 1.0000e+00
       13  1    1    2    0    0 -1.5549164039e+03 +1.4890060551e+03 -6.3520861042e+02 2.2446367265e+03 0.0000000000e+00 0.0000e+00 -1.0000e+00
<mgrwt>
<rscale>  0 0.47721032E+04</rscale>
<asrwt>0</asrwt>
<pdfrwt beam="1">  1        2 0.17301026E+00 0.47721032E+04</pdfrwt>
<pdfrwt beam="2">  1       -2 0.77886301E+00 0.47721032E+04</pdfrwt>
<totfact> 0.19120462E-03</totfact>
</mgrwt>
<rwgt>
<wgt id='morphing_basis_vector_1'> +5.4336486e-06 </wgt>
<wgt id='morphing_basis_vector_2'> +3.7655777e-06 </wgt>
<wgt id='morphing_basis_vector_3'> +5.9993875e-06 </wgt>
<wgt id='morphing_basis_vector_4'> +4.2217329e-06 </wgt>
<wgt id='morphing_basis_vector_5'> +6.8408887e-06 </wgt>
</rwgt>
</event>
<event>
 4      1 +7.6845000e-11 4.87104000e+03 7.81860800e-03 7.40251600e-02
        2 -1    0    0  501    0 +0.0000000000e+00 +0.0000000000e+00 +3.7045763962e+03 3.7045763962e+03 0.0000000000e+00 0.0000e+00 -1.0000e+00
       -2 -1    0    0    0  501 -0.0000000000e+00 -0.0000000000e+00 -1.6011972442e+03 1.6011972442e+03 0.0000000000e+00 0.0000e+00 1.0000e+00
      -13  1    1    2    0    0 -1.4562988901e+03 +1.8014841895e+03 +1.8708782604e+03 2.9776395362e+03 0.0000000000e+00 0.0000e+00 1.0000e+00
       13  1    1    2    0    0 +1.4562988901e+03 -1.8014841895e+03 +2.3250089155e+02 2.3281341042e+03 0.0000000000e+00 0.0000e+00 -1.0000e+00
<mgrwt>
<rscale>  0 0.48710399E+04</rscale>
<asrwt>0</asrwt>
<pdfrwt beam="1">  1        2 0.56993483E+00 0.48710399E+04</pdfrwt>
<pdfrwt beam="2">  1       -2 0.24633804E+00 0.48710399E+04</pdfrwt>
<totfact> 0.27319445E-02</totfact>
</mgrwt>
<rwgt>
<wgt id='morphing_basis_vector_1'> +6.4749557e-06 </wgt>
<wgt id='morphing_basis_vector_2'> +5.7853434e-06 </wgt>
<wgt id='morphing_basis_vector_3'> +7.4498151e-06 </wgt>
<wgt id='morphing_basis_vector_4'> +3.3530187e-06 </wgt>
<wgt id='morphing_basis_vector_5'> +7.3250178e-06 </wgt>
</rwgt>
</event>
<event>
 4      1 +7.6845000e-11 5.00671000e+03 7.81860800e-03 7.38362900e-02
        2 -1    0    0  501    0 +0.0000000000e+00 +0.0000000000e+00 +2.5829520542e+03 2.5829520542e+03 0.0000000000e+00 0.0000e+00 1.0000e+00
       -2 -1    0    0    0  501 -0.0000000000e+00 -0.0000000000e+00 -2.4262106524e+03 2.4262106524e+03 0.0000000000e+00 0.0000e+00 -1.0000e+00
      -13  1    1    2    0    0 +7.2645754268e+02 -1.5236614276e+03 -1.7711834384e+03 2.4467070687e+03 0.0000000000e+00 0.0000e+00 -1.0000e+00
       13  1    1    2    0    0 -7.2645754268e+02 +1.5236614276e+03 +1.9279248402e+03 2.5624556380e+03 0.0000000000e+00 0.0000e+00 1.0000e+00
<mgrwt>
<rscale>  0 0.50067098E+04</rscale>
<asrwt>0</asrwt>
<pdfrwt beam="1">  1        2 0.39737724E+00 0.50067098E+04</pdfrwt>
<pdfrwt beam="2">  1       -2 0.37326318E+00 0.50067098E+04</pdfrwt>
<totfact> 0.22175271E-02</totfact>
</mgrwt>
<rwgt>
<wgt id='morphing_basis_vector_1'> +6.5437843e-06 </wgt>
<wgt id='morphing_basis_vector_2'> +4.4571427e-06 </wgt>
<wgt id='morphing_basis_vector_3'> +7.2112892e-06 </wgt>
<wgt id='morphing_basis_vector_4'> +5.1938963e-06 </wgt>
<wgt id='morphing_basis_vector_5'> +8.3002412e-06 </wgt>
</rwgt>
</event>
<event>
 4      1 +7.6845000e-11 4.73863900e+03 7.81860800e-03 7.42155400e-02
        2 -1    0    0  501    0 +0.0000000000e+00 +0.0000000000e+00 +2.9784226970e+03 2.9784226970e+03 0.0000000000e+00 0.0000e+00 1.0000e+00
       -2 -1    0    0    0  501 -0.0000000000e+00 -0.0000000000e+00 -1.8847809688e+03 1.8847809688e+03 0.0000000000e+00 0.0000e+00 -1.0000e+00
      -13  1    1    2    0    0 -1.3286511672e+03 -1.9514420345e+03 +3.4096272664e+02 2.3853082650e+03 0.0000000000e+00 0.0000e+00 1.0000e+00
       13  1    1    2    0    0 +1.3286511672e+03 +1.9514420345e+03 +7.5267900155e+02 2.4778954008e+03 0.0000000000e+00 0.0000e+00 -1.0000e+00
<mgrwt>
<rscale>  0 0.47386388E+04</rscale>
<asrwt>0</asrwt>
<pdfrwt beam="1">  1        2 0.45821888E+00 0.47386388E+04</pdfrwt>
<pdfrwt beam="2">  1       -2 0.28996630E+00 0.47386388E+04</pdfrwt>
<totfact> 0.45256294E-02</totfact>
</mgrwt>
<rwgt>
<wgt id='morphing_basis_vector_1'> +5.3917074e-06 </wgt>
<wgt id='morphing_basis_vector_2'> +3.9794237e-06 </wgt>
<wgt id='morphing_basis_vector_3'> +6.0083050e-06 </wgt>
<wgt id='morphing_basis_vector_4'> +3.8736638e-06 </wgt>
<wgt id='morphing_basis_vector_5'> +6.6310565e-06 </wgt>
</rwgt>
</event>
<event>
 4      1 +7.6845000e-11 4.89802600e+03 7.81860800e-03 7.39871000e-02
        2 -1    0    0  501    0 +0.0000000000e+00 +0.0000000000e+00 +3.0306969771e+03 3.0306969771e+03 0.0000000000e+00 0.0000e+00 1.0000e+00
       -2 -1    0    0    0  501 -0.0000000000e+00 -0.0000000000e+00 -1.9789722618e+03 1.9789722618e+03 0.0000000000e+00 0.0000e+00 -1.0000e+00
      -13  1    1    2    0    0 -3.4212423178e+02 -2.3011414776e+03 +1.3083923835e+03 2.6691181538e+03 0.0000000000e+00 0.0000e+00 -1.0000e+00
       13  1    1    2    0    0 +3.4212423178e+02 +2.3011414776e+03 -2.5666766814e+02 2.3405510851e+03 0.0000000000e+00 0.0000e+00 1.0000e+00
<mgrwt>
<rscale>  0 0.48980262E+04</rscale>
<asrwt>0</asrwt>
<pdfrwt beam="1">  1        2 0.46626107E+00 0.48980262E+04</pdfrwt>
<pdfrwt beam="2">  1       -2 0.30445727E+00 0.48980262E+04</pdfrwt>
<totfact> 0.32996522E-02</totfact>
</mgrwt>
<rwgt>
<wgt id='morphing_basis_vector_1'> +6.6263915e-06 </wgt>
<wgt id='morphing_basis_vector_2'> +5.9356253e-06 </wgt>
<wgt id='morphing_basis_vector_3'> +7.6281730e-06 </wgt>
<wgt id='morphing_basis_vector_4'> +3.4127395e-06 </wgt>
<wgt id='morphing_basis_vector_5'> +7.4879400e-06 </wgt>
</rwgt>
</event>
<event>
 4      1 +7.6845000e-11 4.96128200e+03 7.81860800e-03 7.38988500e-02
        2 -1    0    0  501    0 +0.0000000000e+00 +0.0000000000e+00 +2.5586298070e+03 2.5586298070e+03 0.0000000000e+00 0.0000e+00 -1.0000e+00
       -2 -1    0    0    0  501 -0.0000000000e+00 -0.0000000000e+00 -2.4050291902e+03 2.4050291902e+03 0.0000000000e+00 0.0000e+00 1.0000e+00
      -13  1    1    2    0    0 +1.7108911297e+03 -8.5040119246e+02 -1.5061236076e+03 2.4328458577e+03 0.0000000000e+00 0.0000e+00 1.0000e+00
       13  1    1    2    0    0 -1.7108911297e+03 +8.5040119246e+02 +1.6597242245e+03 2.5308131395e+03 0.0000000000e+00 0.0000e+00 -1.0000e+00
<mgrwt>
<rscale>  0 0.49612818E+04</rscale>
<asrwt>0</asrwt>
<pdfrwt beam="1">  1        2 0.39363536E+00 0.49612818E+04</pdfrwt>
<pdfrwt beam="2">  1       -2 0.37000449E+00 0.49612818E+04</pdfrwt>
<totfact> 0.24156047E-02</totfact>
</mgrwt>
<rwgt>
<wgt id='morphing_basis_vector_1'> +6.3169754e-06 </wgt>
<wgt id='morphing_basis_vector_2'> +4.3174913e-06 </wgt>
<wgt id='morphing_basis_vector_3'> +6.9640536e-06 </wgt>
<wgt id='morphing_basis_vector_4'> +4.9930662e-06 </wgt>
<wgt id='morphing_basis_vector_5'> +8.0009401e-06 </wgt>
</rwgt>
</event>
<event>
 4      1 +7.6845000e-11 4.68197100e+03 7.81860800e-03 7.42989500e-02
        2 -1    0    0  501    0 +0.0000000000e+00 +0.0000000000e+00 +2.4937564139e+03 2.4937564139e+03 0.0000000000e+00 0.0000e+00 -1.0000e+00
       -2 -1    0    0    0  501 -0.0000000000e+00 -0.0000000000e+00 -2.1975738506e+03 2.1975738506e+03 0.0000000000e+00 0.0000e+00 1.0000e+00
      -13  1    1    2    0    0 +3.9317921305e+02 +6.4062239435e+02 -2.0733715181e+03 2.2054152438e+03 0.0000000000e+00 0.0000e+00 1.0000e+00
       13  1    1    2    0    0 -3.9317921305e+02 -6.4062239435e+02 +2.3695540814e+03 2.4859150207e+03 0.0000000000e+00 0.0000e+00 -1.0000e+00
<mgrwt>
<rscale>  0 0.46819713E+04</rscale>
<asrwt>0</asrwt>
<pdfrwt beam="1">  1        2 0.38365483E+00 0.46819713E+04</pdfrwt>
<pdfrwt beam="2">  1       -2 0.33808829E+00 0.46819713E+04</pdfrwt>
<totfact> 0.43430644E-02</totfact>
</mgrwt>
<rwgt>
<wgt id='morphing_basis_vector_1'> +5.0044407e-06 </wgt>
<wgt id='morphing_basis_vector_2'> +3.3966453e-06 </wgt>
<wgt id='morphing_basis_vector_3'> +5.5077620e-06 </wgt>
<wgt id='morphing_basis_vector_4'> +3.9778761e-06 </wgt>
<wgt id='morphing_basis_vector_5'> +6.3424367e-06 </wgt>
</rwgt>
</event>
<event>
 4      1 +7.6845000e-11 4.65746300e+03 7.81860800e-03 7.43353900e-02
        2 -1    0    0  501    0 +0.0000000000e+00 +0.0000000000e+00 +2.8395182062e+03 2.8395182062e+03 0.0000000000e+00 0.0000e+00 -1.0000e+00
       -2 -1    0    0    0  501 -0.0000000000e+00 -0.0000000000e+00 -1.9098275718e+03 1.9098275718e+03 0.0000000000e+00 0.0000e+00 1.0000e+00
      -13  1    1    2    0    0 +6.1174061132e+02 +2.0892209276e+03 -3.7846396271e+02 2.2095939968e+03 0.0000000000e+00 0.0000e+00 1.0000e+00
       13  1    1    2    0    0 -6.1174061132e+02 -2.0892209276e+03 +1.3081545971e+03 2.5397517811e+03 0.0000000000e+00 0.0000e+00 -1.0000e+00
<mgrwt>
<rscale>  0 0.46574629E+04</rscale>
<asrwt>0</asrwt>
<pdfrwt beam="1">  1        2 0.43684896E+00 0.46574629E+04</pdfrwt>
<pdfrwt beam="2">  1       -2 0.29381963E+00 0.46574629E+04</pdfrwt>
<totfact> 0.52642750E-02</totfact>
</mgrwt>
<rwgt>
<wgt id='morphing_basis_vector_1'> +4.9449505e-06 </wgt>
<wgt id='morphing_basis_vector_2'> +3.4556893e-06 </wgt>
<wgt id='morphing_basis_vector_3'> +5.4646961e-06 </wgt>
<wgt id='morphing_basis_vector_4'> +3.8011934e-06 </wgt>
<wgt id='morphing_basis_vector_5'> +6.2023538e-06 </wgt>
</rwgt>
</event>
<event>
 4      1 +7.6845000e-11 4.75815900e+03 7.81860800e-03 7.41870800e-02
        2 -1    0    0  501    0 +0.0000000000e+00 +0.0000000000e+00 +3.5162376362e+03 3.5162376362e+03 0.0000000000e+00 0.0000e+00 -1.0000e+00
       -2 -1    0    0    0  501 -0.0000000000e+00 -0.0000000000e+00 -1.6096806479e+03 1.6096806479e+03 0.0000000000e+00 0.0000e+00 1.0000e+00
      -13  1    1    2    0    0 -7.7741721480e+02 +5.4071852341e+02 -1.3978973595e+03 1.6884522721e+03 0.0000000000e+00 0.0000e+00 1.0000e+00
       13  1    1    2    0    0 +7.7741721480e+02 -5.4071852341e+02 +3.3044543478e+03 3.4374660121e+03 0.0000000000e+00 0.0000e+00 -1.0000e+00
<mgrwt>
<rscale>  0 0.47581592E+04</rscale>
<asrwt>0</asrwt>
<pdfrwt beam="1">  1        2 0.54095963E+00 0.47581592E+04</pdfrwt>
<pdfrwt beam="2">  1       -2 0.24764318E+00 0.47581592E+04</pdfrwt>
<totfact> 0.37486002E-02</totfact>
</mgrwt>
<rwgt>
<wgt id='morphing_basis_vector_1'> +5.3371922e-06 </wgt>
<wgt id='morphing_basis_vector_2'> +3.6235657e-06 </wgt>
<wgt id='morphing_basis_vector_3'> +5.8754107e-06 </wgt>
<wgt id='morphing_basis_vector_4'> +4.2436212e-06 </wgt>
<wgt id='morphing_basis_vector_5'> +6.7669670e-06 </wgt>
</rwgt>
</event>
<event>
 4      1 +7.6845000e-11 4.99071900e+03 7.81860800e-03 7.38582300e-02
        2 -1    0    0  501    0 +0.0000000000e+00 +0.0000000000e+00 +2.8408958035e+03 2.8408958035e+03 0.0000000000e+00 0.0000e+00 -1.0000e+00
       -2 -1    0    0    0  501 -0.0000000000e+00 -0.0000000000e+00 -2.1918502867e+03 2.1918502867e+03 0.0000000000e+00 0.0000e+00 1.0000e+00
      -13  1    1    2    0    0 +1.8566060388e+03 -3.4055775416e+02 -1.3213529405e+03 2.3041135303e+03 0.0000000000e+00 0.0000e+00 1.0000e+00
       13  1    1    2    0    0 -1.8566060388e+03 +3.4055775416e+02 +1.9703984572e+03 2.7286325600e+03 0.0000000000e+00 0.0000e+00 -1.0000e+00
<mgrwt>
<rscale>  0 0.49907187E+04</rscale>
<asrwt>0</asrwt>
<pdfrwt beam="1">  1        2 0.43706089E+00 0.49907187E+04</pdfrwt>
<pdfrwt beam="2">  1       -2 0.33720774E+00 0.49907187E+04</pdfrwt>
<totfact> 0.26312632E-02</totfact>
</mgrwt>
<rwgt>
<wgt id='morphing_basis_vector_1'> +6.4663811e-06 </wgt>
<wgt id='morphing_basis_vector_2'> +4.4167760e-06 </wgt>
<wgt id='morphing_basis_vector_3'> +7.1285879e-06 </wgt>
<wgt id='morphing_basis_vector_4'> +5.1158785e-06 </wgt>
<wgt id='morphing_basis_vector_5'> +8.1933866e-06 </wgt>
</rwgt>
</event>
<event>
 4      1 +7.6845000e-11 4.65535300e+03 7.81860800e-03 7.43385300e-02
        2 -1    0    0  501    0 +0.0000000000e+00 +0.0000000000e+00 +2.9989102020e+03 2.9989102020e+03 0.0000000000e+00 0.0000e+00 1.0000e+00
       -2 -1    0    0    0  501 -0.0000000000e+00 -0.0000000000e+00 -1.8066822999e+03 1.8066822999e+03 0.0000000000e+00 0.0000e+00 -1.0000e+00
      -13  1    1    2    0    0 +1.2256389980e+03 +1.3680354109e+03 +2.0720707971e+03 2.7689689827e+03 0.0000000000e+00 0.0000e+00 1.0000e+00
       13  1    1    2    0    0 -1.2256389980e+03 -1.3680354109e+03 -8.7984289500e+02 2.0366235192e+03 0.0000000000e+00 0.0000e+00 -1.0000e+00
<mgrwt>
<rscale>  0 0.46553530E+04</rscale>
<asrwt>0</asrwt>
<pdfrwt beam="1">  1        2 0.46137080E+00 0.46553530E+04</pdfrwt>
<pdfrwt beam="2">  1       -2 0.27795112E+00 0.46553530E+04</pdfrwt>
<totfact> 0.53308110E-02</totfact>
</mgrwt>
<rwgt>
<wgt id='morphing_basis_vector_1'> +6.0869612e-06 </wgt>
<wgt id='morphing_basis_vector_2'> +6.8301984e-06 </wgt>
<wgt id='morphing_basis_vector_3'> +7.3167840e-06 </wgt>
<wgt id='morphing_basis_vector_4'> +1.3468836e-06 </wgt>
<wgt id='morphing_basis_vector_5'> +5.9862583e-06 </wgt>
</rwgt>
</event>
<event>
 4      1 +7.6845000e-11 4.63653200e+03 7.81860800e-03 7.43666900e-02
        2 -1    0    0  501    0 +0.0000000000e+00 +0.0000000000e+00 +2.6600691820e+03 2.6600691820e+03 0.0000000000e+00 0.0000e+00 -1.0000e+00
       -2 -1    0    0    0  501 -0.0000000000e+00 -0.0000000000e+00 -2.0203821452e+03 2.0203821452e+03 0.0000000000e+00 0.0000e+00 1.0000e+00
      -13  1    1    2    0    0 +1.9670141389e+03 -3.1297929396e+02 -8.7767160423e+02 2.1765587762e+03 0.0000000000e+00 0.0000e+00 1.0000e+00
       13  1    1    2    0    0 -1.9670141389e+03 +3.1297929396e+02 +1.5173586411e+03 2.5038925510e+03 0.0000000000e+00 0.0000e+00 -1.0000e+00
<mgrwt>
<rscale>  0 0.46365316E+04</rscale>
<asrwt>0</asrwt>
<pdfrwt beam="1">  1        2 0.40924141E+00 0.46365316E+04</pdfrwt>
<pdfrwt beam="2">  1       -2 0.31082802E+00 0.46365316E+04</pdfrwt>
<totfact> 0.52405014E-02</totfact>
</mgrwt>
<rwgt>
<wgt id='morphing_basis_vector_1'> +4.8338217e-06 </wgt>
<wgt id='morphing_basis_vector_2'> +3.3260360e-06 </wgt>
<wgt id='morphing_basis_vector_3'> +5.3296638e-06 </wgt>
<wgt id='morphing_basis_vector_4'> +3.7823339e-06 </wgt>
<wgt id='morphing_basis_vector_5'> +6.0953255e-06 </wgt>
</rwgt>
</event>
<event>
 4      1 +7.6845000e-11 5.32894700e+03 7.81860800e-03 7.34112100e-02
        2 -1    0    0  501    0 +0.0000000000e+00 +0.0000000000e+00 +3.1449632667e+03 3.1449632667e+03 0.0000000000e+00 0.0000e+00 -1.0000e+00
       -2 -1    0    0    0  501 -0.0000000000e+00 -0.0000000000e+00 -2.2573937133e+03 2.2573937133e+03 0.0000000000e+00 0.0000e+00 1.0000e+00
      -13  1    1    2    0    0 +7.3055260650e+02 -2.0977188219e+03 -1.0479780037e+03 2.4560922749e+03 0.0000000000e+00 0.0000e+00 1.0000e+00
       13  1    1    2    0    0 -7.3055260650e+02 +2.0977188219e+03 +1.9355475570e+03 2.9462647050e+03 0.0000000000e+00 0.0000e+00 -1.0000e+00
<mgrwt>
<rscale>  0 0.53289475E+04</rscale>
<asrwt>0</asrwt>
<pdfrwt beam="1">  1        2 0.48384050E+00 0.53289475E+04</pdfrwt>
<pdfrwt beam="2">  1       -2 0.34729134E+00 0.53289475E+04</pdfrwt>
<totfact> 0.13963622E-02</totfact>
</mgrwt>
<rwgt>
<wgt id='morphing_basis_vector_1'> +8.4122355e-06 </wgt>
<wgt id='morphing_basis_vector_2'> +5.7787080e-06 </wgt>
<wgt id='morphing_basis_vector_3'> +9.2877576e-06 </wgt>
<wgt id='morphing_basis_vector_4'> +6.6268126e-06 </wgt>
<wgt id='morphing_basis_vector_5'> +1.0656612e-05 </wgt>
</rwgt>
</event>
<event>
 4      1 +7.6845000e-11 4.62047100e+03 7.81860800e-03 7.43908200e-02
        2 -1    0    0  501    0 +0.0000000000e+00 +0.0000000000e+00 +1.9263524694e+03 1.9263524694e+03 0.0000000000e+00 0.0000e+00 -1.0000e+00
       -2 -1    0    0    0  501 -0.0000000000e+00 -0.0000000000e+00 -2.7706186617e+03 2.7706186617e+03 0.0000000000e+00 0.0000e+00 1.0000e+00
      -13  1    1    2    0    0 -2.0378467899e+03 +9.4090966232e+02 -9.7804892506e+02 2.4484097352e+03 0.0000000000e+00 0.0000e+00 1.0000e+00
       13  1    1    2    0    0 +2.0378467899e+03 -9.4090966232e+02 +1.3378273280e+02 2.2485613959e+03 0.0000000000e+00 0.0000e+00 -1.0000e+00
<mgrwt>
<rscale>  0 0.46204710E+04</rscale>
<asrwt>0</asrwt>
<pdfrwt beam="1">  1        2 0.29636192E+00 0.46204710E+04</pdfrwt>
<pdfrwt beam="2">  1       -2 0.42624903E+00 0.46204710E+04</pdfrwt>
<totfact> 0.24672960E-02</totfact>
</mgrwt>
<rwgt>
<wgt id='morphing_basis_vector_1'> +4.8183452e-06 </wgt>
<wgt id='morphing_basis_vector_2'> +3.4297762e-06 </wgt>
<wgt id='morphing_basis_vector_3'> +5.3385307e-06 </wgt>
<wgt id='morphing_basis_vector_4'> +3.6218026e-06 </wgt>
<wgt id='morphing_basis_vector_5'> +6.0019455e-06 </wgt>
</rwgt>
</event>
<event>
 4      1 +7.6845000e-11 4.76802300e+03 7.81860800e-03 7.41727500e-02
        2 -1    0    0  501    0 +0.0000000000e+00 +0.0000000000e+00 +2.9830607768e+03 2.9830607768e+03 0.0000000000e+00 0.0000e+00 1.0000e+00
       -2 -1    0    0    0  501 -0.0000000000e+00 -0.0000000000e+00 -1.9052617276e+03 1.9052617276e+03 0.0000000000e+00 0.0000e+00 -1.0000e+00
      -13  1    1    2    0    0 +1.8745024014e+03 -1.2196383805e+03 +1.3857140913e+03 2.6308706876e+03 0.0000000000e+00 0.0000e+00 -1.0000e+00
       13  1    1    2    0    0 -1.8745024014e+03 +1.2196383805e+03 -3.0791504216e+02 2.2574518168e+03 0.0000000000e+00 0.0000e+00 1.0000e+00
<mgrwt>
<rscale>  0 0.47680233E+04</rscale>
<asrwt>0</asrwt>
<pdfrwt beam="1">  1        2 0.45893242E+00 0.47680233E+04</pdfrwt>
<pdfrwt beam="2">  1       -2 0.29311719E+00 0.47680233E+04</pdfrwt>
<totfact> 0.42690719E-02</totfact>
</mgrwt>
<rwgt>
<wgt id='morphing_basis_vector_1'> +6.0169368e-06 </wgt>
<wgt id='morphing_basis_vector_2'> +5.5202524e-06 </wgt>
<wgt id='morphing_basis_vector_3'> +6.9535217e-06 </wgt>
<wgt id='morphing_basis_vector_4'> +2.9267148e-06 </wgt>
<wgt id='morphing_basis_vector_5'> +6.7102102e-06 </wgt>
</rwgt>
</event>
<event>
 4      1 +7.6845000e-11 4.95246300e+03 7.81860800e-03 7.39110700e-02
        2 -1    0    0  501    0 +0.0000000000e+00 +0.0000000000e+00 +3.5511974172e+03 3.5511974172e+03 0.0000000000e+00 0.0000e+00 -1.0000e+00
       -2 -1    0    0    0  501 -0.0000000000e+00 -0.0000000000e+00 -1.7266635329e+03 1.7266635329e+03 0.0000000000e+00 0.0000e+00 1.0000e+00
      -13  1    1    2    0    0 -1.0731274073e+03 -1.7310403423e+03 -5.8868199971e+02 2.1200588661e+03 0.0000000000e+00 0.0000e+00 1.0000e+00
       13  1    1    2    0    0 +1.0731274073e+03 +1.7310403423e+03 +2.4132158840e+03 3.1578020840e+03 0.0000000000e+00 0.0000e+00 -1.0000e+00
<mgrwt>
<rscale>  0 0.49524633E+04</rscale>
<asrwt>0</asrwt>
<pdfrwt beam="1">  1        2 0.54633806E+00 0.49524633E+04</pdfrwt>
<pdfrwt beam="2">  1       -2 0.26564054E+00 0.49524633E+04</pdfrwt>
<totfact> 0.26148812E-02</totfact>
</mgrwt>
<rwgt>
<wgt id='morphing_basis_vector_1'> +6.2790564e-06 </wgt>
<wgt id='morphing_basis_vector_2'> +4.3066674e-06 </wgt>
<wgt id='morphing_basis_vector_3'> +6.9255913e-06 </wgt>
<wgt id='morphing_basis_vector_4'> +4.9432233e-06 </wgt>
<wgt id='morphing_basis_vector_5'> +7.9428225e-06 </wgt>
</rwgt>
</event>
<event>
 4      1 +7.6845000e-11 5.19297900e+03 7.81860800e-03 7.35867100e-02
        2 -1    0    0  501    0 +0.0000000000e+00 +0.0000000000e+00 +3.3380129816e+03 3.3380129816e+03 0.0000000000e+00 0.0000e+00 1.0000e+00
       -2 -1    0    0    0  501 -0.0000000000e+00 -0.0000000000e+00 -2.0196920268e+03 2.0196920268e+03 0.0000000000e+00 0.0000e+00 -1.0000e+00
      -13  1    1    2    0    0 -1.1172098952e+03 +2.1075229864e+03 -3.9901859896e+02 2.4184761587e+03 0.0000000000e+00 0.0000e+00 -1.0000e+00
       13  1    1    2    0    0 +1.1172098952e+03 -2.1075229864e+03 +1.7173395537e+03 2.9392288497e+03 0.0000000000e+00 0.0000e+00 1.0000e+00
<mgrwt>
<rscale>  0 0.51929792E+04</rscale>
<asrwt>0</asrwt>
<pdfrwt beam="1">  1        2 0.51354046E+00 0.51929792E+04</pdfrwt>
<pdfrwt beam="2">  1       -2 0.31072185E+00 0.51929792E+04</pdfrwt>
<totfact> 0.18113092E-02</totfact>
</mgrwt>
<rwgt>
<wgt id='morphing_basis_vector_1'> +7.6197816e-06 </wgt>
<wgt id='morphing_basis_vector_2'> +5.3041655e-06 </wgt>
<wgt id='morphing_basis_vector_3'> +8.4267974e-06 </wgt>
<wgt id='morphing_basis_vector_4'> +5.9070891e-06 </wgt>
<wgt id='morphing_basis_vector_5'> +9.6014450e-06 </wgt>
</rwgt>
</event>
<event>
 4      1 +7.6845000e-11 4.65621200e+03 7.81860800e-03 7.43372500e-02
        2 -1    0    0  501    0 +0.0000000000e+00 +0.0000000000e+00 +2.7882546038e+03 2.7882546038e+03 0.0000000000e+00 0.0000e+00 -1.0000e+00
       -2 -1    0    0    0  501 -0.0000000000e+00 -0.0000000000e+00 -1.9438961723e+03 1.9438961723e+03 0.0000000000e+00 0.0000e+00 1.0000e+00
      -13  1    1    2    0    0 -9.3107128070e+01 -7.9339114262e+02 -1.8002495418e+03 1.9695270639e+03 0.0000000000e+00 0.0000e+00 1.0000e+00
       13  1    1    2    0    0 +9.3107128070e+01 +7.9339114262e+02 +2.6446079734e+03 2.7626237122e+03 0.0000000000e+00 0.0000e+00 -1.0000e+00
<mgrwt>
<rscale>  0 0.46562120E+04</rscale>
<asrwt>0</asrwt>
<pdfrwt beam="1">  1        2 0.42896224E+00 0.46562120E+04</pdfrwt>
<pdfrwt beam="2">  1       -2 0.29906095E+00 0.46562120E+04</pdfrwt>
<totfact> 0.52274978E-02</totfact>
</mgrwt>
<rwgt>
<wgt id='morphing_basis_vector_1'> +4.8956672e-06 </wgt>
<wgt id='morphing_basis_vector_2'> +3.3227590e-06 </wgt>
<wgt id='morphing_basis_vector_3'> +5.3876558e-06 </wgt>
<wgt id='morphing_basis_vector_4'> +3.8906461e-06 </wgt>
<wgt id='morphing_basis_vector_5'> +6.2034979e-06 </wgt>
</rwgt>
</event>
<event>
 4      1 +7.6845000e-11 4.92250000e+03 7.81860800e-03 7.39528000e-02
        2 -1    0    0  501    0 +0.0000000000e+00 +0.0000000000e+00 +3.2139342222e+03 3.2139342222e+03 0.0000000000e+00 0.0000e+00 1.0000e+00
       -2 -1    0    0    0  501 -0.0000000000e+00 -0.0000000000e+00 -1.8848401725e+03 1.8848401725e+03 0.0000000000e+00 0.0000e+00 -1.0000e+00
      -13  1    1    2    0    0 +2.2678840050e+03 -5.6268677396e+02 -1.3634104892e+02 2.3406202485e+03 0.0000000000e+00 0.0000e+00 -1.0000e+00
       13  1    1    2    0    0 -2.2678840050e+03 +5.6268677396e+02 +1.4654350986e+03 2.7581541462e+03 0.0000000000e+00 0.0000e+00 1.0000e+00
<mgrwt>
<rscale>  0 0.49225003E+04</rscale>
<asrwt>0</asrwt>
<pdfrwt beam="1">  1        2 0.49445142E+00 0.49225003E+04</pdfrwt>
<pdfrwt beam="2">  1       -2 0.28997541E+00 0.49225003E+04</pdfrwt>
<totfact> 0.31092805E-02</totfact>
</mgrwt>
<rwgt>
<wgt id='morphing_basis_vector_1'> +6.1762882e-06 </wgt>
<wgt id='morphing_basis_vector_2'> +4.3424747e-06 </wgt>
<wgt id='morphing_basis_vector_3'> +6.8362671e-06 </wgt>
<wgt id='morphing_basis_vector_4'> +4.7235366e-06 </wgt>
<wgt id='morphing_basis_vector_5'> +7.7432839e-06 </wgt>
</rwgt>
</event>
<event>
 4      1 +7.6845000e-11 4.63924200e+03 7.81860800e-03 7.43626200e-02
        2 -1    0    0  501    0 +0.0000000000e+00 +0.0000000000e+00 +2.0216584434e+03 2.0216584434e+03 0.0000000000e+00 0.0000e+00 1.0000e+00
       -2 -1    0    0    0  501 -0.0000000000e+00 -0.0000000000e+00 -2.6614991578e+03 2.6614991578e+03 0.0000000000e+00 0.0000e+00 -1.0000e+00
      -13  1    1    2    0    0 +8.8382408281e+02 +2.1430487708e+03 -2.3643805680e+02 2.3301729545e+03 0.0000000000e+00 0.0000e+00 1.0000e+00
       13  1    1    2    0    0 -8.8382408281e+02 -2.1430487708e+03 -4.0340265763e+02 2.3529846467e+03 0.0000000000e+00 0.0000e+00 -1.0000e+00
<mgrwt>
<rscale>  0 0.46392423E+04</rscale>
<asrwt>0</asrwt>
<pdfrwt beam="1">  1        2 0.31102438E+00 0.46392423E+04</pdfrwt>
<pdfrwt beam="2">  1       -2 0.40946141E+00 0.46392423E+04</pdfrwt>
<totfact> 0.28144716E-02</totfact>
</mgrwt>
<rwgt>
<wgt id='morphing_basis_vector_1'> +5.0264725e-06 </wgt>
<wgt id='morphing_basis_vector_2'> +3.8666031e-06 </wgt>
<wgt id='morphing_basis_vector_3'> +5.6355257e-06 </wgt>
<wgt id='morphing_basis_vector_4'> +3.4055628e-06 </wgt>
<wgt id='morphing_basis_vector_5'> +6.0773722e-06 </wgt>
</rwgt>
</event>
<event>
 4      1 +7.6845000e-11 5.53690600e+03 7.81860800e-03 7.31529100e-02
        2 -1    0    0  501    0 +0.0000000000e+00 +0.0000000000e+00 +4.5469715990e+03 4.5469715990e+03 0.0000000000e+00 0.0000e+00 1.0000e+00
       -2 -1    0    0    0  501 -0.0000000000e+00 -0.0000000000e+00 -1.6855903430e+03 1.6855903430e+03 0.0000000000e+00 0.0000e+00 -1.0000e+00
      -13  1    1    2    0    0 -1.2382331605e+02 +1.5225684363e+03 -1.1682420831e+03 1.9231059309e+03 0.0000000000e+00 0.0000e+00 -1.0000e+00
       13  1    1    2    0    0 +1.2382331605e+02 -1.5225684363e+03 +4.0296233390e+03 4.3094560111e+03 0.0000000000e+00 0.0000e+00 1.0000e+00
<mgrwt>
<rscale>  0 0.55369058E+04</rscale>
<asrwt>0</asrwt>
<pdfrwt beam="1">  1        2 0.69953408E+00 0.55369058E+04</pdfrwt>
<pdfrwt beam="2">  1       -2 0.25932159E+00 0.55369058E+04</pdfrwt>
<totfact> 0.36837245E-03</totfact>
</mgrwt>
<rwgt>
<wgt id='morphing_basis_vector_1'> +9.7704227e-06 </wgt>
<wgt id='morphing_basis_vector_2'> +6.6467578e-06 </wgt>
<wgt id='morphing_basis_vector_3'> +1.0776106e-05 </wgt>
<wgt id='morphing_basis_vector_4'> +7.7897921e-06 </wgt>
<wgt id='morphing_basis_vector_5'> +1.2430433e-05 </wgt>
</rwgt>
</event>
<event>
 4      1 +7.6845000e-11 5.05419700e+03 7.81860800e-03 7.37716100e-02
        2 -1    0    0  501    0 +0.0000000000e+00 +0.0000000000e+00 +2.4416157244e+03 2.4416157244e+03 0.0000000000e+00 0.0000e+00 -1.0000e+00
       -2 -1    0    0    0  501 -0.0000000000e+00 -0.0000000000e+00 -2.6155742722e+03 2.6155742722e+03 0.0000000000e+00 0.0000e+00 1.0000e+00
      -13  1    1    2    0    0 -2.1349142639e+02 +2.5093606430e+03 -2.9628690141e+02 2.5357948170e+03 0.0000000000e+00 0.0000e+00 1.0000e+00
       13  1    1    2    0    0 +2.1349142639e+02 -2.5093606430e+03 +1.2232835353e+02 2.5213951796e+03 0.0000000000e+00 0.0000e+00 -1.0000e+00
<mgrwt>
<rscale>  0 0.50541972E+04</rscale>
<asrwt>0</asrwt>
<pdfrwt beam="1">  1        2 0.37563319E+00 0.50541972E+04</pdfrwt>
<pdfrwt beam="2">  1       -2 0.40239604E+00 0.50541972E+04</pdfrwt>
<totfact> 0.17376102E-02</totfact>
</mgrwt>
<rwgt>
<wgt id='morphing_basis_vector_1'> +6.9729838e-06 </wgt>
<wgt id='morphing_basis_vector_2'> +5.1517745e-06 </wgt>
<wgt id='morphing_basis_vector_3'> +7.7780705e-06 </wgt>
<wgt id='morphing_basis_vector_4'> +5.0145693e-06 </wgt>
<wgt id='morphing_basis_vector_5'> +8.5888235e-06 </wgt>
</rwgt>
</event>
<event>
 4      1 +7.6845000e-11 5.00086100e+03 7.81860800e-03 7.38443000e-02
        2 -1    0    0  501    0 +0.0000000000e+00 +0.0000000000e+00 +4.4775929142e+03 4.4775929142e+03 0.0000000000e+00 0.0000e+00 1.0000e+00
       -2 -1    0    0    0  501 -0.0000000000e+00 -0.0000000000e+00 -1.3963199843e+03 1.3963199843e+03 0.0000000000e+00 0.0000e+00 -1.0000e+00
      -13  1    1    2    0    0 +1.2446874694e+03 +1.0820643826e+03 -6.6683791067e+02 1.7789837053e+03 0.0000000000e+00 0.0000e+00 -1.0000e+00
       13  1    1    2    0    0 -1.2446874694e+03 -1.0820643826e+03 +3.7481108406e+03 4.0949291933e+03 0.0000000000e+00 0.0000e+00 1.0000e+00
<mgrwt>
<rscale>  0 0.50008609E+04</rscale>
<asrwt>0</asrwt>
<pdfrwt beam="1">  1        2 0.68886044E+00 0.50008609E+04</pdfrwt>
<pdfrwt beam="2">  1       -2 0.21481846E+00 0.50008609E+04</pdfrwt>
<totfact> 0.92820572E-03</totfact>
</mgrwt>
<rwgt>
<wgt id='morphing_basis_vector_1'> +6.5126916e-06 </wgt>
<wgt id='morphing_basis_vector_2'> +4.4344167e-06 </wgt>
<wgt id='morphing_basis_vector_3'> +7.1765738e-06 </wgt>
<wgt id='morphing_basis_vector_4'> +5.1710172e-06 </wgt>
<wgt id='morphing_basis_vector_5'> +8.2615204e-06 </wgt>
</rwgt>
</event>
<event>
 4      1 +7.6845000e-11 5.22021000e+03 7.81860800e-03 7.35511200e-02
        2 -1    0    0  501    0 +0.0000000000e+00 +0.0000000000e+00 +2.3451825089e+03 2.3451825089e+03 0.0000000000e+00 0.0000e+00 -1.0000e+00
       -2 -1    0    0    0  501 -0.0000000000e+00 -0.0000000000e+00 -2.9049540529e+03 2.9049540529e+03 0.0000000000e+00 0.0000e+00 1.0000e+00
      -13  1    1    2    0    0 +5.9959706419e+02 +2.3872669190e+03 +5.9347464460e+02 2.5319502633e+03 0.0000000000e+00 0.0000e+00 1.0000e+00
       13  1    1    2    0    0 -5.9959706419e+02 -2.3872669190e+03 -1.1532461886e+03 2.7181862986e+03 0.0000000000e+00 0.0000e+00 -1.0000e+00
<mgrwt>
<rscale>  0 0.52202097E+04</rscale>
<asrwt>0</asrwt>
<pdfrwt beam="1">  1        2 0.36079731E+00 0.52202097E+04</pdfrwt>
<pdfrwt beam="2">  1       -2 0.44691601E+00 0.52202097E+04</pdfrwt>
<totfact> 0.98373434E-03</totfact>
</mgrwt>
<rwgt>
<wgt id='morphing_basis_vector_1'> +8.5967391e-06 </wgt>
<wgt id='morphing_basis_vector_2'> +7.8132212e-06 </wgt>
<wgt id='morphing_basis_vector_3'> +9.9319457e-06 </wgt>
<wgt id='morphing_basis_vector_4'> +4.2910450e-06 </wgt>
<wgt id='morphing_basis_vector_5'> +9.6589159e-06 </wgt>
</rwgt>
</event>
<event>
 4      1 +7.6845000e-11 5.16482700e+03 7.81860800e-03 7.36237300e-02
        2 -1    0    0  501    0 +0.0000000000e+00 +0.0000000000e+00 +2.5248273277e+03 2.5248273277e+03 0.0000000000e+00 0.0000e+00 1.0000e+00
       -2 -1    0    0    0  501 -0.0000000000e+00 -0.0000000000e+00 -2.6413131389e+03 2.6413131389e+03 0.0000000000e+00 0.0000e+00 -1.0000e+00
      -13  1    1    2    0    0 -1.7251983463e+03 -1.2512626673e+02 -1.9762533321e+03 2.6263174121e+03 0.0000000000e+00 0.0000e+00 -1.0000e+00
       13  1    1    2    0    0 +1.7251983463e+03 +1.2512626673e+02 +1.8597675208e+03 2.5398230545e+03 0.0000000000e+00 0.0000e+00 1.0000e+00
<mgrwt>
<rscale>  0 0.51648270E+04</rscale>
<asrwt>0</asrwt>
<pdfrwt beam="1">  1        2 0.38843497E+00 0.51648270E+04</pdfrwt>
<pdfrwt beam="2">  1       -2 0.40635587E+00 0.51648270E+04</pdfrwt>
<totfact> 0.14479019E-02</totfact>
</mgrwt>
<rwgt>
<wgt id='morphing_basis_vector_1'> +7.4072442e-06 </wgt>
<wgt id='morphing_basis_vector_2'> +5.0459308e-06 </wgt>
<wgt id='morphing_basis_vector_3'> +8.1657224e-06 </wgt>
<wgt id='morphing_basis_vector_4'> +5.8844570e-06 </wgt>
<wgt id='morphing_basis_vector_5'> +9.4031147e-06 </wgt>
</rwgt>
</event>
<event>
 4      1 +7.6845000e-11 4.78275500e+03 7.81860800e-03 7.41514200e-02
        2 -1    0    0  501    0 +0.0000000000e+00 +0.0000000000e+00 +4.2464807843e+03 4.2464807843e+03 0.0000000000e+00 0.0000e+00 -1.0000e+00
       -2 -1    0    0    0  501 -0.0000000000e+00 -0.0000000000e+00 -1.3466886362e+03 1.3466886362e+03 0.0000000000e+00 0.0000e+00 1.0000e+00
      -13  1    1    2    0    0 +7.3049029329e+02 -2.1024527824e+03 +2.4725846788e+03 3.3268000789e+03 0.0000000000e+00 0.0000e+00 1.0000e+00
       13  1    1    2    0    0 -7.3049029329e+02 +2.1024527824e+03 +4.2720746923e+02 2.2663693416e+03 0.0000000000e+00 0.0000e+00 -1.0000e+00
<mgrwt>
<rscale>  0 0.47827554E+04</rscale>
<asrwt>0</asrwt>
<pdfrwt beam="1">  1        2 0.65330473E+00 0.47827554E+04</pdfrwt>
<pdfrwt beam="2">  1       -2 0.20718287E+00 0.47827554E+04</pdfrwt>
<totfact> 0.18028654E-02</totfact>
</mgrwt>
<rwgt>
<wgt id='morphing_basis_vector_1'> +6.1306245e-06 </wgt>
<wgt id='morphing_basis_vector_2'> +5.7039040e-06 </wgt>
<wgt id='morphing_basis_vector_3'> +7.1035134e-06 </wgt>
<wgt id='morphing_basis_vector_4'> +2.8796501e-06 </wgt>
<wgt id='morphing_basis_vector_5'> +6.7868157e-06 </wgt>
</rwgt>
</event>
<event>
 4      1 +7.6845000e-11 4.67620700e+03 7.81860800e-03 7.43075000e-02
        2 -1    0    0  501    0 +0.0000000000e+00 +0.0000000000e+00 +1.7620758110e+03 1.7620758110e+03 0.0000000000e+00 0.0000e+00 1.0000e+00
       -2 -1    0    0    0  501 -0.0000000000e+00 -0.0000000000e+00 -3.1024367464e+03 3.1024367464e+03 0.0000000000e+00 0.0000e+00 -1.0000e+00
      -13  1    1    2    0    0 -2.1934612514e+03 -7.8668156834e+02 -4.7119634054e+02 2.3774284727e+03 0.0000000000e+00 0.0000e+00 1.0000e+00
       13  1    1    2    0    0 +2.1934612514e+03 +7.8668156834e+02 -8.6916459480e+02 2.4870840847e+03 0.0000000000e+00 0.0000e+00 -1.0000e+00
<mgrwt>
<rscale>  0 0.46762073E+04</rscale>
<asrwt>0</asrwt>
<pdfrwt beam="1">  1        2 0.27108859E+00 0.46762073E+04</pdfrwt>
<pdfrwt beam="2">  1       -2 0.47729795E+00 0.46762073E+04</pdfrwt>
<totfact> 0.13299972E-02</totfact>
</mgrwt>
<rwgt>
<wgt id='morphing_basis_vector_1'> +5.2247460e-06 </wgt>
<wgt id='morphing_basis_vector_2'> +4.0990746e-06 </wgt>
<wgt id='morphing_basis_vector_3'> +5.8768361e-06 </wgt>
<wgt id='morphing_basis_vector_4'> +3.4376042e-06 </wgt>
<wgt id='morphing_basis_vector_5'> +6.2675706e-06 </wgt>
</rwgt>
</event>
<event>
 4      1 +7.6845000e-11 4.98703300e+03 7.81860800e-03 7.38633000e-02
        2 -1    0    0  501    0 +0.0000000000e+00 +0.0000000000e+00 +2.9664828530e+03 2.9664828530e+03 0.0000000000e+00 0.0000e+00 -1.0000e+00
       -2 -1    0    0    0  501 -0.0000000000e+00 -0.0000000000e+00 -2.0959580218e+03 2.0959580218e+03 0.0000000000e+00 0.0000e+00 1.0000e+00
      -13  1    1    2    0    0 +1.0486678359e+03 +1.8233164845e+03 -9.2417974591e+02 2.2974541204e+03 0.0000000000e+00 0.0000e+00 1.0000e+00
       13  1    1    2    0    0 -1.0486678359e+03 -1.8233164845e+03 +1.7947045771e+03 2.7649867544e+03 0.0000000000e+00 0.0000e+00 -1.0000e+00
<mgrwt>
<rscale>  0 0.49870326E+04</rscale>
<asrwt>0</asrwt>
<pdfrwt beam="1">  1        2 0.45638198E+00 0.49870326E+04</pdfrwt>
<pdfrwt beam="2">  1       -2 0.32245508E+00 0.49870326E+04</pdfrwt>
<totfact> 0.27364171E-02</totfact>
</mgrwt>
<rwgt>
<wgt id='morphing_basis_vector_1'> +6.4595318e-06 </wgt>
<wgt id='morphing_basis_vector_2'> +4.4395005e-06 </wgt>
<wgt id='morphing_basis_vector_3'> +7.1273039e-06 </wgt>
<wgt id='morphing_basis_vector_4'> +5.0748039e-06 </wgt>
<wgt id='morphing_basis_vector_5'> +8.1669566e-06 </wgt>
</rwgt>
</event>
<event>
 4      1 +7.6845000e-11 5.16711900e+03 7.81860800e-03 7.36207100e-02
        2 -1    0    0  501    0 +0.0000000000e+00 +0.0000000000e+00 +3.5654081442e+03 3.5654081442e+03 0.0000000000e+00 0.0000e+00 -1.0000e+00
       -2 -1    0    0    0  501 -0.0000000000e+00 -0.0000000000e+00 -1.8720944859e+03 1.8720944859e+03 0.0000000000e+00 0.0000e+00 1.0000e+00
      -13  1    1    2    0    0 +1.2497764161e+03 -1.1417362156e+02 -1.5297879559e+03 1.9786934821e+03 0.0000000000e+00 0.0000e+00 1.0000e+00
       13  1    1    2    0    0 -1.2497764161e+03 +1.1417362156e+02 +3.2231016143e+03 3.4588091480e+03 0.0000000000e+00 0.0000e+00 -1.0000e+00
<mgrwt>
<rscale>  0 0.51671195E+04</rscale>
<asrwt>0</asrwt>
<pdfrwt beam="1">  1        2 0.54852433E+00 0.51671195E+04</pdfrwt>
<pdfrwt beam="2">  1       -2 0.28801454E+00 0.51671195E+04</pdfrwt>
<totfact> 0.17662839E-02</totfact>
</mgrwt>
<rwgt>
<wgt id='morphing_basis_vector_1'> +7.4151318e-06 </wgt>
<wgt id='morphing_basis_vector_2'> +5.0395226e-06 </wgt>
<wgt id='morphing_basis_vector_3'> +8.1717259e-06 </wgt>
<wgt id='morphing_basis_vector_4'> +5.9060979e-06 </wgt>
<wgt id='morphing_basis_vector_5'> +9.4208058e-06 </wgt>
</rwgt>
</event>
<event>
 4      1 +7.6845000e-11 5.27102000e+03 7.81860800e-03 7.34853100e-02
        2 -1    0    0  501    0 +0.0000000000e+00 +0.0000000000e+00 +2.2732445074e+03 2.2732445074e+03 0.0000000000e+00 0.0000e+00 -1.0000e+00
       -2 -1    0    0    0  501 -0.0000000000e+00 -0.0000000000e+00 -3.0555068160e+03 3.0555068160e+03 0.0000000000e+00 0.0000e+00 1.0000e+00
      -13  1    1    2    0    0 -8.6280204661e+02 +7.3767922023e+02 -2.7956931362e+03 3.0173660891e+03 0.0000000000e+00 0.0000e+00 1.0000e+00
       13  1    1    2    0    0 +8.6280204661e+02 -7.3767922023e+02 +2.0134308276e+03 2.3113852343e+03 0.0000000000e+00 0.0000e+00 -1.0000e+00
<mgrwt>
<rscale>  0 0.52710204E+04</rscale>
<asrwt>0</asrwt>
<pdfrwt beam="1">  1        2 0.34972992E+00 0.52710204E+04</pdfrwt>
<pdfrwt beam="2">  1       -2 0.47007797E+00 0.52710204E+04</pdfrwt>
<totfact> 0.73843561E-03</totfact>
</mgrwt>
<rwgt>
<wgt id='morphing_basis_vector_1'> +8.0272324e-06 </wgt>
<wgt id='morphing_basis_vector_2'> +5.4549235e-06 </wgt>
<wgt id='morphing_basis_vector_3'> +8.8479432e-06 </wgt>
<wgt id='morphing_basis_vector_4'> +6.3984287e-06 </wgt>
<wgt id='morphing_basis_vector_5'> +1.0204182e-05 </wgt>
</rwgt>
</event>
<event>
 4      1 +7.6845000e-11 5.46949300e+03 7.81860800e-03 7.32353500e-02
        2 -1    0    0  501    0 +0.0000000000e+00 +0.0000000000e+00 +3.6178558257e+03 3.6178558257e+03 0.0000000000e+00 0.0000e+00 -1.0000e+00
       -2 -1    0    0    0  501 -0.0000000000e+00 -0.0000000000e+00 -2.0672019943e+03 2.0672019943e+03 0.0000000000e+00 0.0000e+00 1.0000e+00
      -13  1    1    2    0    0 +9.7575962003e+02 -1.7822334974e+03 -1.1272164297e+03 2.3235920370e+03 0.0000000000e+00 0.0000e+00 1.0000e+00
       13  1    1    2    0    0 -9.7575962003e+02 +1.7822334974e+03 +2.6778702611e+03 3.3614657830e+03 0.0000000000e+00 0.0000e+00 -1.0000e+00
<mgrwt>
<rscale>  0 0.54694931E+04</rscale>
<asrwt>0</asrwt>
<pdfrwt beam="1">  1        2 0.55659320E+00 0.54694931E+04</pdfrwt>
<pdfrwt beam="2">  1       -2 0.31803108E+00 0.54694931E+04</pdfrwt>
<totfact> 0.99051697E-03</totfact>
</mgrwt>
<rwgt>
<wgt id='morphing_basis_vector_1'> +9.3161962e-06 </wgt>
<wgt id='morphing_basis_vector_2'> +6.3637235e-06 </wgt>
<wgt id='morphing_basis_vector_3'> +1.0280017e-05 </wgt>
<wgt id='morphing_basis_vector_4'> +7.3912961e-06 </wgt>
<wgt id='morphing_basis_vector_5'> +1.1832407e-05 </wgt>
</rwgt>
</event>
<event>
 4      1 +7.6845000e-11 5.27901000e+03 7.81860800e-03 7.34750400e-02
        2 -1    0    0  501    0 +0.0000000000e+00 +0.0000000000e+00 +2.4382935010e+03 2.4382935010e+03 0.0000000000e+00 0.0000e+00 -1.0000e+00
       -2 -1    0    0    0  501 -0.0000000000e+00 -0.0000000000e+00 -2.8573206612e+03 2.8573206612e+03 0.0000000000e+00 0.0000e+00 1.0000e+00
      -13  1    1    2    0    0 -5.9933555230e+02 -1.8376814543e+03 -2.0125846995e+03 2.7904790636e+03 0.0000000000e+00 0.0000e+00 1.0000e+00
       13  1    1    2    0    0 +5.9933555230e+02 +1.8376814543e+03 +1.5935575392e+03 2.5051350987e+03 0.0000000000e+00 0.0000e+00 -1.0000e+00
<mgrwt>
<rscale>  0 0.52790099E+04</rscale>
<asrwt>0</asrwt>
<pdfrwt beam="1">  1        2 0.37512208E+00 0.52790099E+04</pdfrwt>
<pdfrwt beam="2">  1       -2 0.43958779E+00 0.52790099E+04</pdfrwt>
<totfact> 0.96956778E-03</totfact>
</mgrwt>
<rwgt>
<wgt id='morphing_basis_vector_1'> +8.0868405e-06 </wgt>
<wgt id='morphing_basis_vector_2'> +5.5202523e-06 </wgt>
<wgt id='morphing_basis_vector_3'> +8.9195439e-06 </wgt>
<wgt id='morphing_basis_vector_4'> +6.4140073e-06 </wgt>
<wgt id='morphing_basis_vector_5'> +1.0264403e-05 </wgt>
</rwgt>
</event>
<event>
 4      1 +7.6845000e-11 5.39836600e+03 7.81860800e-03 7.33236700e-02
        2 -1    0    0  501    0 +0.0000000000e+00 +0.0000000000e+00 +3.7693932855e+03 3.7693932855e+03 0.0000000000e+00 0.0000e+00 -1.0000e+00
       -2 -1    0    0    0  501 -0.0000000000e+00 -0.0000000000e+00 -1.9328277695e+03 1.9328277695e+03 0.0000000000e+00 0.0000e+00 1.0000e+00
      -13  1    1    2    0    0 -8.7582038844e+02 -6.6432296044e+02 -1.6856728328e+03 2.0124311784e+03 0.0000000000e+00 0.0000e+00 1.0000e+00
       13  1    1    2    0    0 +8.7582038844e+02 +6.6432296044e+02 +3.5222383487e+03 3.6897898767e+03 0.0000000000e+00 0.0000e+00 -1.0000e+00
<mgrwt>
<rscale>  0 0.53983657E+04</rscale>
<asrwt>0</asrwt>
<pdfrwt beam="1">  1        2 0.57990666E+00 0.53983657E+04</pdfrwt>
<pdfrwt beam="2">  1       -2 0.29735812E+00 0.53983657E+04</pdfrwt>
<totfact> 0.10454549E-02</totfact>
</mgrwt>
<rwgt>
<wgt id='morphing_basis_vector_1'> +8.8288927e-06 </wgt>
<wgt id='morphing_basis_vector_2'> +6.0002317e-06 </wgt>
<wgt id='morphing_basis_vector_3'> +9.7339644e-06 </wgt>
<wgt id='morphing_basis_vector_4'> +7.0418040e-06 </wgt>
<wgt id='morphing_basis_vector_5'> +1.1229633e-05 </wgt>
</rwgt>
</event>
<event>
 4      1 +7.6845000e-11 5.20726700e+03 7.81860800e-03 7.35680100e-02
        2 -1    0    0  501    0 +0.0000000000e+00 +0.0000000000e+00 +3.6127993186e+03 3.6127993186e+03 0.0000000000e+00 0.0000e+00 -1.0000e+00
       -2 -1    0    0    0  501 -0.0000000000e+00 -0.0000000000e+00 -1.8763585761e+03 1.8763585761e+03 0.0000000000e+00 0.0000e+00 1.0000e+00
      -13  1    1    2    0    0 +2.0465262746e+03 -1.5218199668e+03 +3.1572816825e+02 2.5698035101e+03 0.0000000000e+00 0.0000e+00 1.0000e+00
       13  1    1    2    0    0 -2.0465262746e+03 +1.5218199668e+03 +1.4207125742e+03 2.9193543846e+03 0.0000000000e+00 0.0000e+00 -1.0000e+00
<mgrwt>
<rscale>  0 0.52072668E+04</rscale>
<asrwt>0</asrwt>
<pdfrwt beam="1">  1        2 0.55581528E+00 0.52072668E+04</pdfrwt>
<pdfrwt beam="2">  1       -2 0.28867055E+00 0.52072668E+04</pdfrwt>
<totfact> 0.16055085E-02</totfact>
</mgrwt>
<rwgt>
<wgt id='morphing_basis_vector_1'> +7.7778637e-06 </wgt>
<wgt id='morphing_basis_vector_2'> +5.5803857e-06 </wgt>
<wgt id='morphing_basis_vector_3'> +8.6404048e-06 </wgt>
<wgt id='morphing_basis_vector_4'> +5.8144387e-06 </wgt>
<wgt id='morphing_basis_vector_5'> +9.6945949e-06 </wgt>
</rwgt>
</event>
<event>
 4      1 +7.6845000e-11 4.74853300e+03 7.81860800e-03 7.42011000e-02
        2 -1    0    0  501    0 +0.0000000000e+00 +0.0000000000e+00 +2.3684980868e+03 2.3684980868e+03 0.0000000000e+00 0.0000e+00 -1.0000e+00
       -2 -1    0    0    0  501 -0.0000000000e+00 -0.0000000000e+00 -2.3800493551e+03 2.3800493551e+03 0.0000000000e+00 0.0000e+00 1.0000e+00
      -13  1    1    2    0    0 -1.6235458099e+03 -1.6099569862e+03 -6.4552736069e+02 2.3758299745e+03 0.0000000000e+00 0.0000e+00 1.0000e+00
       13  1    1    2    0    0 +1.6235458099e+03 +1.6099569862e+03 +6.3397609237e+02 2.3727174674e+03 0.0000000000e+00 0.0000e+00 -1.0000e+00
<mgrwt>
<rscale>  0 0.47485334E+04</rscale>
<asrwt>0</asrwt>
<pdfrwt beam="1">  1        2 0.36438432E+00 0.47485334E+04</pdfrwt>
<pdfrwt beam="2">  1       -2 0.36616144E+00 0.47485334E+04</pdfrwt>
<totfact> 0.33710821E-02</totfact>
</mgrwt>
<rwgt>
<wgt id='morphing_basis_vector_1'> +5.3629978e-06 </wgt>
<wgt id='morphing_basis_vector_2'> +3.7961815e-06 </wgt>
<wgt id='morphing_basis_vector_3'> +5.9392783e-06 </wgt>
<wgt id='morphing_basis_vector_4'> +4.0630806e-06 </wgt>
<wgt id='morphing_basis_vector_5'> +6.6999432e-06 </wgt>
</rwgt>
</event>
<event>
 4      1 +7.6845000e-11 4.92628300e+03 7.81860800e-03 7.39475100e-02
        2 -1    0    0  501    0 +0.0000000000e+00 +0.0000000000e+00 +3.9614724673e+03 3.9614724673e+03 0.0000000000e+00 0.0000e+00 -1.0000e+00
       -2 -1    0    0    0  501 -0.0000000000e+00 -0.0000000000e+00 -1.5315181388e+03 1.5315181388e+03 0.0000000000e+00 0.0000e+00 1.0000e+00
      -13  1    1    2    0    0 +1.7063710643e+03 -8.6354513218e+00 -7.6567913185e+02 1.8703051390e+03 0.0000000000e+00 0.0000e+00 1.0000e+00
       13  1    1    2    0    0 -1.7063710643e+03 +8.6354513218e+00 +3.1956334604e+03 3.6226854671e+03 0.0000000000e+00 0.0000e+00 -1.0000e+00
<mgrwt>
<rscale>  0 0.49262834E+04</rscale>
<asrwt>0</asrwt>
<pdfrwt beam="1">  1        2 0.60945730E+00 0.49262834E+04</pdfrwt>
<pdfrwt beam="2">  1       -2 0.23561818E+00 0.49262834E+04</pdfrwt>
<totfact> 0.20027833E-02</totfact>
</mgrwt>
<rwgt>
<wgt id='morphing_basis_vector_1'> +6.1355613e-06 </wgt>
<wgt id='morphing_basis_vector_2'> +4.1805778e-06 </wgt>
<wgt id='morphing_basis_vector_3'> +6.7605279e-06 </wgt>
<wgt id='morphing_basis_vector_4'> +4.8652106e-06 </wgt>
<wgt id='morphing_basis_vector_5'> +7.7778434e-06 </wgt>
</rwgt>
</event>
<event>
 4      1 +7.6845000e-11 4.83050300e+03 7.81860800e-03 7.40828000e-02
        2 -1    0    0  501    0 +0.0000000000e+00 +0.0000000000e+00 +3.1097500752e+03 3.1097500752e+03 0.0000000000e+00 0.0000e+00 1.0000e+00
       -2 -1    0    0    0  501 -0.0000000000e+00 -0.0000000000e+00 -1.8758550250e+03 1.8758550250e+03 0.0000000000e+00 0.0000e+00 -1.0000e+00
      -13  1    1    2    0    0 +7.3437768267e+02 +8.6269155151e+02 -1.5845900059e+03 1.9479406512e+03 0.0000000000e+00 0.0000e+00 -1.0000e+00
       13  1    1    2    0    0 -7.3437768267e+02 -8.6269155151e+02 +2.8184850560e+03 3.0376644490e+03 0.0000000000e+00 0.0000e+00 1.0000e+00
<mgrwt>
<rscale>  0 0.48305032E+04</rscale>
<asrwt>0</asrwt>
<pdfrwt beam="1">  1        2 0.47842309E+00 0.48305032E+04</pdfrwt>
<pdfrwt beam="2">  1       -2 0.28859308E+00 0.48305032E+04</pdfrwt>
<totfact> 0.37622895E-02</totfact>
</mgrwt>
<rwgt>
<wgt id='morphing_basis_vector_1'> +5.6684995e-06 </wgt>
<wgt id='morphing_basis_vector_2'> +3.8500439e-06 </wgt>
<wgt id='morphing_basis_vector_3'> +6.2416235e-06 </wgt>
<wgt id='morphing_basis_vector_4'> +4.5075866e-06 </wgt>
<wgt id='morphing_basis_vector_5'> +7.1894089e-06 </wgt>
</rwgt>
</event>
<event>
 4      1 +7.6845000e-11 4.85910900e+03 7.81860800e-03 7.40420600e-02
        2 -1    0    0  501    0 +0.0000000000e+00 +0.0000000000e+00 +2.6161940375e+03 2.6161940375e+03 0.0000000000e+00 0.0000e+00 1.0000e+00
       -2 -1    0    0    0  501 -0.0000000000e+00 -0.0000000000e+00 -2.2562302367e+03 2.2562302367e+03 0.0000000000e+00 0.0000e+00 -1.0000e+00
      -13  1    1    2    0    0 -2.0054081102e+03 -3.1996300575e+01 +1.5548884885e+03 2.5377871588e+03 0.0000000000e+00 0.0000e+00 1.0000e+00
       13  1    1    2    0    0 +2.0054081102e+03 +3.1996300575e+01 -1.1949246876e+03 2.3346371154e+03 0.0000000000e+00 0.0000e+00 -1.0000e+00
<mgrwt>
<rscale>  0 0.48591094E+04</rscale>
<asrwt>0</asrwt>
<pdfrwt beam="1">  1        2 0.40249139E+00 0.48591094E+04</pdfrwt>
<pdfrwt beam="2">  1       -2 0.34711234E+00 0.48591094E+04</pdfrwt>
<totfact> 0.31563415E-02</totfact>
</mgrwt>
<rwgt>
<wgt id='morphing_basis_vector_1'> +7.0657890e-06 </wgt>
<wgt id='morphing_basis_vector_2'> +7.6492333e-06 </wgt>
<wgt id='morphing_basis_vector_3'> +8.4368154e-06 </wgt>
<wgt id='morphing_basis_vector_4'> +1.9281622e-06 </wgt>
<wgt id='morphing_basis_vector_5'> +7.1366650e-06 </wgt>
</rwgt>
</event>
<event>
 4      1 +7.6845000e-11 4.88314000e+03 7.81860800e-03 7.40080600e-02
        2 -1    0    0  501    0 +0.0000000000e+00 +0.0000000000e+00 +1.6968358913e+03 1.6968358913e+03 0.0000000000e+00 0.0000e+00 1.0000e+00
       -2 -1    0    0    0  501 -0.0000000000e+00 -0.0000000000e+00 -3.5131652241e+03 3.5131652241e+03 0.0000000000e+00 0.0000e+00 -1.0000e+00
      -13  1    1    2    0    0 +3.4289791880e+02 -2.4129100024e+03 -1.0647943806e+03 2.6596053722e+03 0.0000000000e+00 0.0000e+00 -1.0000e+00
       13  1    1    2    0    0 -3.4289791880e+02 +2.4129100024e+03 -7.5153495225e+02 2.5503957432e+03 0.0000000000e+00 0.0000e+00 1.0000e+00
<mgrwt>
<rscale>  0 0.48831403E+04</rscale>
<asrwt>0</asrwt>
<pdfrwt beam="1">  1        2 0.26105168E+00 0.48831403E+04</pdfrwt>
<pdfrwt beam="2">  1       -2 0.54048695E+00 0.48831403E+04</pdfrwt>
<totfact> 0.48294774E-03</totfact>
</mgrwt>
<rwgt>
<wgt id='morphing_basis_vector_1'> +6.0927283e-06 </wgt>
<wgt id='morphing_basis_vector_2'> +4.5313435e-06 </wgt>
<wgt id='morphing_basis_vector_3'> +6.8001561e-06 </wgt>
<wgt id='morphing_basis_vector_4'> +4.3375001e-06 </wgt>
<wgt id='morphing_basis_vector_5'> +7.4779891e-06 </wgt>
</rwgt>
</event>
<event>
 4      1 +7.6845000e-11 4.76657900e+03 7.81860800e-03 7.41748500e-02
        2 -1    0    0  501    0 +0.0000000000e+00 +0.0000000000e+00 +1.7918989739e+03 1.7918989739e+03 0.0000000000e+00 0.0000e+00 -1.0000e+00
       -2 -1    0    0    0  501 -0.0000000000e+00 -0.0000000000e+00 -3.1698596918e+03 3.1698596918e+03 0.0000000000e+00 0.0000e+00 1.0000e+00
      -13  1    1    2    0    0 -1.3022060625e+03 -1.2240475514e+03 -2.3302597110e+03 2.9366891831e+03 0.0000000000e+00 0.0000e+00 1.0000e+00
       13  1    1    2    0    0 +1.3022060625e+03 +1.2240475514e+03 +9.5229899298e+02 2.0250694826e+03 0.0000000000e+00 0.0000e+00 -1.0000e+00
<mgrwt>
<rscale>  0 0.47665788E+04</rscale>
<asrwt>0</asrwt>
<pdfrwt beam="1">  1        2 0.27567677E+00 0.47665788E+04</pdfrwt>
<pdfrwt beam="2">  1       -2 0.48767071E+00 0.47665788E+04</pdfrwt>
<totfact> 0.10648013E-02</totfact>
</mgrwt>
<rwgt>
<wgt id='morphing_basis_vector_1'> +5.3835921e-06 </wgt>
<wgt id='morphing_basis_vector_2'> +3.6746814e-06 </wgt>
<wgt id='morphing_basis_vector_3'> +5.9311232e-06 </wgt>
<wgt id='morphing_basis_vector_4'> +4.2554124e-06 </wgt>
<wgt id='morphing_basis_vector_5'> +6.8136166e-06 </wgt>
</rwgt>
</event>
<event>
 4      1 +7.6845000e-11 5.01010900e+03 7.81860800e-03 7.38316300e-02
        2 -1    0    0  501    0 +0.0000000000e+00 +0.0000000000e+00 +2.1057554064e+03 2.1057554064e+03 0.0000000000e+00 0.0000e+00 1.0000e+00
       -2 -1    0    0    0  501 -0.0000000000e+00 -0.0000000000e+00 -2.9800701507e+03 2.9800701507e+03 0.0000000000e+00 0.0000e+00 -1.0000e+00
      -13  1    1    2    0    0 +1.3012858767e+03 +1.9450303771e+03 -1.3444266469e+03 2.6988833079e+03 0.0000000000e+00 0.0000e+00 -1.0000e+00
       13  1    1    2    0    0 -1.3012858767e+03 -1.9450303771e+03 +4.7011190263e+02 2.3869422493e+03 0.0000000000e+00 0.0000e+00 1.0000e+00
<mgrwt>
<rscale>  0 0.50101093E+04</rscale>
<asrwt>0</asrwt>
<pdfrwt beam="1">  1        2 0.32396237E+00 0.50101093E+04</pdfrwt>
<pdfrwt beam="2">  1       -2 0.45847233E+00 0.50101093E+04</pdfrwt>
<totfact> 0.11388483E-02</totfact>
</mgrwt>
<rwgt>
<wgt id='morphing_basis_vector_1'> +6.6142179e-06 </wgt>
<wgt id='morphing_basis_vector_2'> +4.6240095e-06 </wgt>
<wgt id='morphing_basis_vector_3'> +7.3164223e-06 </wgt>
<wgt id='morphing_basis_vector_4'> +5.0957651e-06 </wgt>
<wgt id='morphing_basis_vector_5'> +8.3134644e-06 </wgt>
</rwgt>
</event>
<event>
 4      1 +7.6845000e-11 5.15872500e+03 7.81860800e-03 7.36317900e-02
        2 -1    0    0  501    0 +0.0000000000e+00 +0.0000000000e+00 +3.9002797984e+03 3.9002797984e+03 0.0000000000e+00 0.0000e+00 -1.0000e+00
       -2 -1    0    0    0  501 -0.0000000000e+00 -0.0000000000e+00 -1.7058035175e+03 1.7058035175e+03 0.0000000000e+00 0.0000e+00 1.0000e+00
      -13  1    1    2    0    0 +8.5898457697e+02 -2.1082792396e+03 -2.2052437906e+02 2.2872094039e+03 0.0000000000e+00 0.0000e+00 1.0000e+00
       13  1    1    2    0    0 -8.5898457697e+02 +2.1082792396e+03 +2.4150006600e+03 3.3188739120e+03 0.0000000000e+00 0.0000e+00 -1.0000e+00
<mgrwt>
<rscale>  0 0.51587250E+04</rscale>
<asrwt>0</asrwt>
<pdfrwt beam="1">  1        2 0.60004304E+00 0.51587250E+04</pdfrwt>
<pdfrwt beam="2">  1       -2 0.26243131E+00 0.51587250E+04</pdfrwt>
<totfact> 0.14427845E-02</totfact>
</mgrwt>
<rwgt>
<wgt id='morphing_basis_vector_1'> +7.4044055e-06 </wgt>
<wgt id='morphing_basis_vector_2'> +5.1161113e-06 </wgt>
<wgt id='morphing_basis_vector_3'> +8.1791978e-06 </wgt>
<wgt id='morphing_basis_vector_4'> +5.7883874e-06 </wgt>
<wgt id='morphing_basis_vector_5'> +9.3529008e-06 </wgt>
</rwgt>
</event>
<event>
 4      1 +7.6845000e-11 4.85591500e+03 7.81860800e-03 7.40466000e-02
        2 -1    0    0  501    0 +0.0000000000e+00 +0.0000000000e+00 +4.3939811388e+03 4.3939811388e+03 0.0000000000e+00 0.0000e+00 1.0000e+00
       -2 -1    0    0    0  501 -0.0000000000e+00 -0.0000000000e+00 -1.3416026113e+03 1.3416026113e+03 0.0000000000e+00 0.0000e+00 -1.0000e+00
      -13  1    1    2    0    0 -1.2974484192e+02 -1.1995744577e+03 -9.6242268278e+02 1.5433956148e+03 0.0000000000e+00 0.0000e+00 -1.0000e+00
       13  1    1    2    0    0 +1.2974484192e+02 +1.1995744577e+03 +4.0148012103e+03 4.1921881353e+03 0.0000000000e+00 0.0000e+00 1.0000e+00
<mgrwt>
<rscale>  0 0.48559146E+04</rscale>
<asrwt>0</asrwt>
<pdfrwt beam="1">  1        2 0.67599709E+00 0.48559146E+04</pdfrwt>
<pdfrwt beam="2">  1       -2 0.20640040E+00 0.48559146E+04</pdfrwt>
<totfact> 0.13103669E-02</totfact>
</mgrwt>
<rwgt>
<wgt id='morphing_basis_vector_1'> +5.7885719e-06 </wgt>
<wgt id='morphing_basis_vector_2'> +3.9323918e-06 </wgt>
<wgt id='morphing_basis_vector_3'> +6.3744159e-06 </wgt>
<wgt id='morphing_basis_vector_4'> +4.6029231e-06 </wgt>
<wgt id='morphing_basis_vector_5'> +7.3423613e-06 </wgt>
</rwgt>
</event>
<event>
 4      1 +7.6845000e-11 4.67108200e+03 7.81860800e-03 7.43151100e-02
        2 -1    0    0  501    0 +0.0000000000e+00 +0.0000000000e+00 +3.3581581350e+03 3.3581581350e+03 0.0000000000e+00 0.0000e+00 1.0000e+00
       -2 -1    0    0    0  501 -0.0000000000e+00 -0.0000000000e+00 -1.6243283541e+03 1.6243283541e+03 0.0000000000e+00 0.0000e+00 -1.0000e+00
      -13  1    1    2    0    0 +1.6759018705e+03 -2.1783581324e+02 -8.5258720083e+02 1.8928825785e+03 0.0000000000e+00 0.0000e+00 -1.0000e+00
       13  1    1    2    0    0 -1.6759018705e+03 +2.1783581324e+02 +2.5864169817e+03 3.0896039106e+03 0.0000000000e+00 0.0000e+00 1.0000e+00
<mgrwt>
<rscale>  0 0.46710819E+04</rscale>
<asrwt>0</asrwt>
<pdfrwt beam="1">  1        2 0.51663971E+00 0.46710819E+04</pdfrwt>
<pdfrwt beam="2">  1       -2 0.24989667E+00 0.46710819E+04</pdfrwt>
<totfact> 0.47328845E-02</totfact>
</mgrwt>
<rwgt>
<wgt id='morphing_basis_vector_1'> +4.9648476e-06 </wgt>
<wgt id='morphing_basis_vector_2'> +3.3846741e-06 </wgt>
<wgt id='morphing_basis_vector_3'> +5.4674394e-06 </wgt>
<wgt id='morphing_basis_vector_4'> +3.9267694e-06 </wgt>
<wgt id='morphing_basis_vector_5'> +6.2822444e-06 </wgt>
</rwgt>
</event>
<event>
 4      1 +7.6845000e-11 4.97365400e+03 7.81860800e-03 7.38817400e-02
        2 -1    0    0  501    0 +0.0000000000e+00 +0.0000000000e+00 +3.0223763855e+03 3.0223763855e+03 0.0000000000e+00 0.0000e+00 -1.0000e+00
       -2 -1    0    0    0  501 -0.0000000000e+00 -0.0000000000e+00 -2.0461741990e+03 2.0461741990e+03 0.0000000000e+00 0.0000e+00 1.0000e+00
      -13  1    1    2    0    0 -1.5441490661e+03 -8.8647615232e+02 -1.2811319610e+03 2.1935212350e+03 0.0000000000e+00 0.0000e+00 1.0000e+00
       13  1    1    2    0    0 +1.5441490661e+03 +8.8647615232e+02 +2.2573341475e+03 2.8750293495e+03 0.0000000000e+00 0.0000e+00 -1.0000e+00
<mgrwt>
<rscale>  0 0.49736540E+04</rscale>
<asrwt>0</asrwt>
<pdfrwt beam="1">  1        2 0.46498099E+00 0.49736540E+04</pdfrwt>
<pdfrwt beam="2">  1       -2 0.31479603E+00 0.49736540E+04</pdfrwt>
<totfact> 0.28324487E-02</totfact>
</mgrwt>
<rwgt>
<wgt id='morphing_basis_vector_1'> +6.3755495e-06 </wgt>
<wgt id='morphing_basis_vector_2'> +4.3475577e-06 </wgt>
<wgt id='morphing_basis_vector_3'> +7.0265264e-06 </wgt>
<wgt id='morphing_basis_vector_4'> +5.0527224e-06 </wgt>
<wgt id='morphing_basis_vector_5'> +8.0821038e-06 </wgt>
</rwgt>
</event>
<event>
 4      1 +7.6845000e-11 4.97045000e+03 7.81860800e-03 7.38861700e-02
        2 -1    0    0  501    0 +0.0000000000e+00 +0.0000000000e+00 +2.6247369705e+03 2.6247369705e+03 0.0000000000e+00 0.0000e+00 1.0000e+00
       -2 -1    0    0    0  501 -0.0000000000e+00 -0.0000000000e+00 -2.3531280707e+03 2.3531280707e+03 0.0000000000e+00 0.0000e+00 -1.0000e+00
      -13  1    1    2    0    0 +1.3353588991e+03 +1.9251784114e+03 -6.9419428243e+02 2.4436450247e+03 0.0000000000e+00 0.0000e+00 -1.0000e+00
       13  1    1    2    0    0 -1.3353588991e+03 -1.9251784114e+03 +9.6580318221e+02 2.5342200165e+03 0.0000000000e+00 0.0000e+00 1.0000e+00
<mgrwt>
<rscale>  0 0.49704496E+04</rscale>
<asrwt>0</asrwt>
<pdfrwt beam="1">  1        2 0.40380569E+00 0.49704496E+04</pdfrwt>
<pdfrwt beam="2">  1       -2 0.36201970E+00 0.49704496E+04</pdfrwt>
<totfact> 0.24775100E-02</totfact>
</mgrwt>
<rwgt>
<wgt id='morphing_basis_vector_1'> +6.4141158e-06 </wgt>
<wgt id='morphing_basis_vector_2'> +4.4976833e-06 </wgt>
<wgt id='morphing_basis_vector_3'> +7.0975541e-06 </wgt>
<wgt id='morphing_basis_vector_4'> +4.9226593e-06 </wgt>
<wgt id='morphing_basis_vector_5'> +8.0514205e-06 </wgt>
</rwgt>
</event>
<event>
 4      1 +7.6845000e-11 4.72251400e+03 7.81860800e-03 7.42391500e-02
        2 -1    0    0  501    0 +0.0000000000e+00 +0.0000000000e+00 +4.6954822012e+03 4.6954822012e+03 0.0000000000e+00 0.0000e+00 -1.0000e+00
       -2 -1    0    0    0  501 -0.0000000000e+00 -0.0000000000e+00 -1.1874253194e+03 1.1874253194e+03 0.0000000000e+00 0.0000e+00 1.0000e+00
      -13  1    1    2    0    0 -1.0600601659e+03 -1.1495602315e+03 -4.4997878949e+02 1.6271746041e+03 0.0000000000e+00 0.0000e+00 1.0000e+00
       13  1    1    2    0    0 +1.0600601659e+03 +1.1495602315e+03 +3.9580356713e+03 4.2557329165e+03 0.0000000000e+00 0.0000e+00 -1.0000e+00
<mgrwt>
<rscale>  0 0.47225139E+04</rscale>
<asrwt>0</asrwt>
<pdfrwt beam="1">  1        2 0.72238187E+00 0.47225139E+04</pdfrwt>
<pdfrwt beam="2">  1       -2 0.18268082E+00 0.47225139E+04</pdfrwt>
<totfact> 0.95181520E-03</totfact>
</mgrwt>
<rwgt>
<wgt id='morphing_basis_vector_1'> +5.1835615e-06 </wgt>
<wgt id='morphing_basis_vector_2'> +3.5279331e-06 </wgt>
<wgt id='morphing_basis_vector_3'> +5.7077455e-06 </wgt>
<wgt id='morphing_basis_vector_4'> +4.1090639e-06 </wgt>
<wgt id='morphing_basis_vector_5'> +6.5650588e-06 </wgt>
</rwgt>
</event>
<event>
 4      1 +7.6845000e-11 4.62157900e+03 7.81860800e-03 7.43891500e-02
        2 -1    0    0  501    0 +0.0000000000e+00 +0.0000000000e+00 +2.4402583639e+03 2.4402583639e+03 0.0000000000e+00 0.0000e+00 1.0000e+00
       -2 -1    0    0    0  501 -0.0000000000e+00 -0.0000000000e+00 -2.1881898331e+03 2.1881898331e+03 0.0000000000e+00 0.0000e+00 -1.0000e+00
      -13  1    1    2    0    0 +2.2798363744e+03 -1.4319147927e+02 -2.2318279587e+02 2.2952054927e+03 0.0000000000e+00 0.0000e+00 -1.0000e+00
       13  1    1    2    0    0 -2.2798363744e+03 +1.4319147927e+02 +4.7525132658e+02 2.3332427043e+03 0.0000000000e+00 0.0000e+00 1.0000e+00
<mgrwt>
<rscale>  0 0.46215792E+04</rscale>
<asrwt>0</asrwt>
<pdfrwt beam="1">  1        2 0.37542437E+00 0.46215792E+04</pdfrwt>
<pdfrwt beam="2">  1       -2 0.33664459E+00 0.46215792E+04</pdfrwt>
<totfact> 0.47983834E-02</totfact>
</mgrwt>
<rwgt>
<wgt id='morphing_basis_vector_1'> +4.8516702e-06 </wgt>
<wgt id='morphing_basis_vector_2'> +3.5174227e-06 </wgt>
<wgt id='morphing_basis_vector_3'> +5.3900988e-06 </wgt>
<wgt id='morphing_basis_vector_4'> +3.5642357e-06 </wgt>
<wgt id='morphing_basis_vector_5'> +6.0026182e-06 </wgt>
</rwgt>
</event>
<event>
 4      1 +7.6845000e-11 5.52721700e+03 7.81860800e-03 7.31646800e-02
        2 -1    0    0  501    0 +0.0000000000e+00 +0.0000000000e+00 +2.0090909792e+03 2.0090909792e+03 0.0000000000e+00 0.0000e+00 -1.0000e+00
       -2 -1    0    0    0  501 -0.0000000000e+00 -0.0000000000e+00 -3.8014868368e+03 3.8014868368e+03 0.0000000000e+00 0.0000e+00 1.0000e+00
      -13  1    1    2    0    0 -1.5166950875e+03 -7.4275553815e+02 -3.1959216961e+03 3.6146874368e+03 0.0000000000e+00 0.0000e+00 1.0000e+00
       13  1    1    2    0    0 +1.5166950875e+03 +7.4275553815e+02 +1.4035258386e+03 2.1958903792e+03 0.0000000000e+00 0.0000e+00 -1.0000e+00
<mgrwt>
<rscale>  0 0.55272174E+04</rscale>
<asrwt>0</asrwt>
<pdfrwt beam="1">  1        2 0.30909092E+00 0.55272174E+04</pdfrwt>
<pdfrwt beam="2">  1       -2 0.58484412E+00 0.55272174E+04</pdfrwt>
<totfact> 0.14561420E-03</totfact>
</mgrwt>
<rwgt>
<wgt id='morphing_basis_vector_1'> +9.7045122e-06 </wgt>
<wgt id='morphing_basis_vector_2'> +6.6066085e-06 </wgt>
<wgt id='morphing_basis_vector_3'> +1.0704334e-05 </wgt>
<wgt id='morphing_basis_vector_4'> +7.7307643e-06 </wgt>
<wgt id='morphing_basis_vector_5'> +1.2343056e-05 </wgt>
</rwgt>
</event>
<event>
 4      1 +7.6845000e-11 4.72482400e+03 7.81860800e-03 7.42357600e-02
        2 -1    0    0  501    0 +0.0000000000e+00 +0.0000000000e+00 +1.0921315460e+03 1.0921315460e+03 0.0000000000e+00 0.0000e+00 -1.0000e+00
       -2 -1    0    0    0  501 -0.0000000000e+00 -0.0000000000e+00 -5.1101822282e+03 5.1101822282e+03 0.0000000000e+00 0.0000e+00 1.0000e+00
      -13  1    1    2    0    0 -1.8932875224e+03 +8.6844161488e+01 -3.8603211408e+03 4.3004835613e+03 0.0000000000e+00 0.0000e+00 1.0000e+00
       13  1    1    2    0    0 +1.8932875224e+03 -8.6844161488e+01 -1.5772954143e+02 1.9018302130e+03 0.0000000000e+00 0.0000e+00 -1.0000e+00
<mgrwt>
<rscale>  0 0.47248243E+04</rscale>
<asrwt>0</asrwt>
<pdfrwt beam="1">  1        2 0.16802024E+00 0.47248243E+04</pdfrwt>
<pdfrwt beam="2">  1       -2 0.78618185E+00 0.47248243E+04</pdfrwt>
<totfact> 0.20033980E-03</totfact>
</mgrwt>
<rwgt>
<wgt id='morphing_basis_vector_1'> +5.2027396e-06 </wgt>
<wgt id='morphing_basis_vector_2'> +3.5614560e-06 </wgt>
<wgt id='morphing_basis_vector_3'> +5.7335948e-06 </wgt>
<wgt id='morphing_basis_vector_4'> +4.0978557e-06 </wgt>
<wgt id='morphing_basis_vector_5'> +6.5763468e-06 </wgt>
</rwgt>
</event>
<event>
 4      1 +7.6845000e-11 5.08509800e+03 7.81860800e-03 7.37299200e-02
        2 -1    0    0  501    0 +0.0000000000e+00 +0.0000000000e+00 +2.1627644884e+03 2.1627644884e+03 0.0000000000e+00 0.0000e+00 1.0000e+00
       -2 -1    0    0    0  501 -0.0000000000e+00 -0.0000000000e+00 -2.9890243482e+03 2.9890243482e+03 0.0000000000e+00 0.0000e+00 -1.0000e+00
      -13  1    1    2    0    0 +7.2559753094e+02 +8.0400448275e+02 +1.9173957455e+03 2.2021174878e+03 0.0000000000e+00 0.0000e+00 1.0000e+00
       13  1    1    2    0    0 -7.2559753094e+02 -8.0400448275e+02 -2.7436556054e+03 2.9496713488e+03 0.0000000000e+00 0.0000e+00 -1.0000e+00
<mgrwt>
<rscale>  0 0.50850981E+04</rscale>
<asrwt>0</asrwt>
<pdfrwt beam="1">  1        2 0.33273300E+00 0.50850981E+04</pdfrwt>
<pdfrwt beam="2">  1       -2 0.45984990E+00 0.50850981E+04</pdfrwt>
<totfact> 0.10273245E-02</totfact>
</mgrwt>
<rwgt>
<wgt id='morphing_basis_vector_1'> +9.4787293e-06 </wgt>
<wgt id='morphing_basis_vector_2'> +1.2133130e-05 </wgt>
<wgt id='morphing_basis_vector_3'> +1.1760589e-05 </wgt>
<wgt id='morphing_basis_vector_4'> +1.6310897e-07 </wgt>
<wgt id='morphing_basis_vector_5'> +8.3841965e-06 </wgt>
</rwgt>
</event>
<event>
 4      1 +7.6845000e-11 4.95233300e+03 7.81860800e-03 7.39112500e-02
        2 -1    0    0  501    0 +0.0000000000e+00 +0.0000000000e+00 +2.4972215615e+03 2.4972215615e+03 0.0000000000e+00 0.0000e+00 -1.0000e+00
       -2 -1    0    0    0  501 -0.0000000000e+00 -0.0000000000e+00 -2.4552890935e+03 2.4552890935e+03 0.0000000000e+00 0.0000e+00 1.0000e+00
      -13  1    1    2    0    0 +1.0437844505e+03 +2.2112626974e+03 -3.6921716180e+02 2.4729516794e+03 0.0000000000e+00 0.0000e+00 1.0000e+00
       13  1    1    2    0    0 -1.0437844505e+03 -2.2112626974e+03 +4.1114962983e+02 2.4795589757e+03 0.0000000000e+00 0.0000e+00 -1.0000e+00
<mgrwt>
<rscale>  0 0.49523331E+04</rscale>
<asrwt>0</asrwt>
<pdfrwt beam="1">  1        2 0.38418794E+00 0.49523331E+04</pdfrwt>
<pdfrwt beam="2">  1       -2 0.37773678E+00 0.49523331E+04</pdfrwt>
<totfact> 0.23462971E-02</totfact>
</mgrwt>
<rwgt>
<wgt id='morphing_basis_vector_1'> +6.3872233e-06 </wgt>
<wgt id='morphing_basis_vector_2'> +4.6258075e-06 </wgt>
<wgt id='morphing_basis_vector_3'> +7.1013981e-06 </wgt>
<wgt id='morphing_basis_vector_4'> +4.7108887e-06 </wgt>
<wgt id='morphing_basis_vector_5'> +7.9225559e-06 </wgt>
</rwgt>
</event>
<event>
 4      1 +7.6845000e-11 4.96471700e+03 7.81860800e-03 7.38940900e-02
        2 -1    0    0  501    0 +0.0000000000e+00 +0.0000000000e+00 +2.8685907812e+03 2.8685907812e+03 0.0000000000e+00 0.0000e+00 -1.0000e+00
       -2 -1    0    0    0  501 -0.0000000000e+00 -0.0000000000e+00 -2.1481288598e+03 2.1481288598e+03 0.0000000000e+00 0.0000e+00 1.0000e+00
      -13  1    1    2    0    0 +7.0732569490e+02 -1.8720177399e+03 -1.1239434169e+03 2.2952143389e+03 0.0000000000e+00 0.0000e+00 1.0000e+00
       13  1    1    2    0    0 -7.0732569490e+02 +1.8720177399e+03 +1.8444053382e+03 2.7215053020e+03 0.0000000000e+00 0.0000e+00 -1.0000e+00
<mgrwt>
<rscale>  0 0.49647166E+04</rscale>
<asrwt>0</asrwt>
<pdfrwt beam="1">  1        2 0.44132166E+00 0.49647166E+04</pdfrwt>
<pdfrwt beam="2">  1       -2 0.33048137E+00 0.49647166E+04</pdfrwt>
<totfact> 0.28036940E-02</totfact>
</mgrwt>
<rwgt>
<wgt id='morphing_basis_vector_1'> +6.3387390e-06 </wgt>
<wgt id='morphing_basis_vector_2'> +4.3421035e-06 </wgt>
<wgt id='morphing_basis_vector_3'> +6.9903484e-06 </wgt>
<wgt id='morphing_basis_vector_4'> +4.9977678e-06 </wgt>
<wgt id='morphing_basis_vector_5'> +8.0224212e-06 </wgt>
</rwgt>
</event>
<event>
 4      1 +7.6845000e-11 5.06352500e+03 7.81860800e-03 7.37589900e-02
        2 -1    0    0  501    0 +0.0000000000e+00 +0.0000000000e+00 +2.8985565730e+03 2.8985565730e+03 0.0000000000e+00 0.0000e+00 1.0000e+00
       -2 -1    0    0    0  501 -0.0000000000e+00 -0.0000000000e+00 -2.2113838792e+03 2.2113838792e+03 0.0000000000e+00 0.0000e+00 -1.0000e+00
      -13  1    1    2    0    0 -1.0829607497e+03 -4.4930327719e+02 -1.9208954028e+03 2.2504480818e+03 0.0000000000e+00 0.0000e+00 -1.0000e+00
       13  1    1    2    0    0 +1.0829607497e+03 +4.4930327719e+02 +2.6080680965e+03 2.8594923704e+03 0.0000000000e+00 0.0000e+00 1.0000e+00
<mgrwt>
<rscale>  0 0.50635250E+04</rscale>
<asrwt>0</asrwt>
<pdfrwt beam="1">  1        2 0.44593178E+00 0.50635250E+04</pdfrwt>
<pdfrwt beam="2">  1       -2 0.34021291E+00 0.50635250E+04</pdfrwt>
<totfact> 0.22980941E-02</totfact>
</mgrwt>
<rwgt>
<wgt id='morphing_basis_vector_1'> +6.8396139e-06 </wgt>
<wgt id='morphing_basis_vector_2'> +4.6471126e-06 </wgt>
<wgt id='morphing_basis_vector_3'> +7.5355667e-06 </wgt>
<wgt id='morphing_basis_vector_4'> +5.4457293e-06 </wgt>
<wgt id='morphing_basis_vector_5'> +8.6856326e-06 </wgt>
</rwgt>
</event>
<event>
 4      1 +7.6845000e-11 4.80180900e+03 7.81860800e-03 7.41239400e-02
        2 -1    0    0  501    0 +0.0000000000e+00 +0.0000000000e+00 +1.9074352187e+03 1.9074352187e+03 0.0000000000e+00 0.0000e+00 -1.0000e+00
       -2 -1    0    0    0  501 -0.0000000000e+00 -0.0000000000e+00 -3.0220378237e+03 3.0220378237e+03 0.0000000000e+00 0.0000e+00 1.0000e+00
      -13  1    1    2    0    0 +7.5247645319e+02 +2.8858490576e+02 -2.8790309722e+03 2.9897025603e+03 0.0000000000e+00 0.0000e+00 1.0000e+00
       13  1    1    2    0    0 -7.5247645319e+02 -2.8858490576e+02 +1.7644283672e+03 1.9397704821e+03 0.0000000000e+00 0.0000e+00 -1.0000e+00
<mgrwt>
<rscale>  0 0.48018086E+04</rscale>
<asrwt>0</asrwt>
<pdfrwt beam="1">  1        2 0.29345157E+00 0.48018086E+04</pdfrwt>
<pdfrwt beam="2">  1       -2 0.46492890E+00 0.48018086E+04</pdfrwt>
<totfact> 0.13454519E-02</totfact>
</mgrwt>
<rwgt>
<wgt id='morphing_basis_vector_1'> +5.5348035e-06 </wgt>
<wgt id='morphing_basis_vector_2'> +3.7575362e-06 </wgt>
<wgt id='morphing_basis_vector_3'> +6.0935830e-06 </wgt>
<wgt id='morphing_basis_vector_4'> +4.4025035e-06 </wgt>
<wgt id='morphing_basis_vector_5'> +7.0196432e-06 </wgt>
</rwgt>
</event>
<event>
 4      1 +7.6845000e-11 4.71702800e+03 7.81860800e-03 7.42472100e-02
        2 -1    0    0  501    0 +0.0000000000e+00 +0.0000000000e+00 +9.4092222738e+02 9.4092222738e+02 0.0000000000e+00 0.0000e+00 1.0000e+00
       -2 -1    0    0    0  501 -0.0000000000e+00 -0.0000000000e+00 -5.9118469505e+03 5.9118469505e+03 0.0000000000e+00 0.0000e+00 -1.0000e+00
      -13  1    1    2    0    0 +2.2925494231e+03 -4.0627077074e+01 -1.6829388881e+03 2.8442427319e+03 0.0000000000e+00 0.0000e+00 -1.0000e+00
       13  1    1    2    0    0 -2.2925494231e+03 +4.0627077074e+01 -3.2879858350e+03 4.0085264460e+03 0.0000000000e+00 0.0000e+00 1.0000e+00
<mgrwt>
<rscale>  0 0.47170280E+04</rscale>
<asrwt>0</asrwt>
<pdfrwt beam="1">  1        2 0.14475727E+00 0.47170280E+04</pdfrwt>
<pdfrwt beam="2">  1       -2 0.90951489E+00 0.47170280E+04</pdfrwt>
<totfact> 0.36645740E-04</totfact>
</mgrwt>
<rwgt>
<wgt id='morphing_basis_vector_1'> +5.5806976e-06 </wgt>
<wgt id='morphing_basis_vector_2'> +4.7484511e-06 </wgt>
<wgt id='morphing_basis_vector_3'> +6.3629329e-06 </wgt>
<wgt id='morphing_basis_vector_4'> +3.1941572e-06 </wgt>
<wgt id='morphing_basis_vector_5'> +6.4595055e-06 </wgt>
</rwgt>
</event>
<event>
 4      1 +7.6845000e-11 4.77649200e+03 7.81860800e-03 7.41604800e-02
        2 -1    0    0  501    0 +0.0000000000e+00 +0.0000000000e+00 +3.6761220569e+03 3.6761220569e+03 0.0000000000e+00 0.0000e+00 -1.0000e+00
       -2 -1    0    0    0  501 -0.0000000000e+00 -0.0000000000e+00 -1.5515584531e+03 1.5515584531e+03 0.0000000000e+00 0.0000e+00 1.0000e+00
      -13  1    1    2    0    0 +7.2533827167e+02 +4.7711915994e+01 -1.4275434936e+03 1.6019589450e+03 0.0000000000e+00 0.0000e+00 1.0000e+00
       13  1    1    2    0    0 -7.2533827167e+02 -4.7711915994e+01 +3.5521070974e+03 3.6257215650e+03 0.0000000000e+00 0.0000e+00 -1.0000e+00
<mgrwt>
<rscale>  0 0.47764917E+04</rscale>
<asrwt>0</asrwt>
<pdfrwt beam="1">  1        2 0.56555724E+00 0.47764917E+04</pdfrwt>
<pdfrwt beam="2">  1       -2 0.23870130E+00 0.47764917E+04</pdfrwt>
<totfact> 0.32715603E-02</totfact>
</mgrwt>
<rwgt>
<wgt id='morphing_basis_vector_1'> +5.4193410e-06 </wgt>
<wgt id='morphing_basis_vector_2'> +3.6788295e-06 </wgt>
<wgt id='morphing_basis_vector_3'> +5.9660075e-06 </wgt>
<wgt id='morphing_basis_vector_4'> +4.3102233e-06 </wgt>
<wgt id='morphing_basis_vector_5'> +6.8722789e-06 </wgt>
</rwgt>
</event>
<event>
 4      1 +7.6845000e-11 4.63551400e+03 7.81860800e-03 7.43682100e-02
        2 -1    0    0  501    0 +0.0000000000e+00 +0.0000000000e+00 +2.6930470713e+03 2.6930470713e+03 0.0000000000e+00 0.0000e+00 -1.0000e+00
       -2 -1    0    0    0  501 -0.0000000000e+00 -0.0000000000e+00 -1.9947651478e+03 1.9947651478e+03 0.0000000000e+00 0.0000e+00 1.0000e+00
      -13  1    1    2    0    0 -2.1702161999e+02 -2.0089283722e+03 -7.9905621417e+02 2.1728742305e+03 0.0000000000e+00 0.0000e+00 1.0000e+00
       13  1    1    2    0    0 +2.1702161999e+02 +2.0089283722e+03 +1.4973381377e+03 2.5149379887e+03 0.0000000000e+00 0.0000e+00 -1.0000e+00
<mgrwt>
<rscale>  0 0.46355135E+04</rscale>
<asrwt>0</asrwt>
<pdfrwt beam="1">  1        2 0.41431493E+00 0.46355135E+04</pdfrwt>
<pdfrwt beam="2">  1       -2 0.30688695E+00 0.46355135E+04</pdfrwt>
<totfact> 0.53155303E-02</totfact>
</mgrwt>
<rwgt>
<wgt id='morphing_basis_vector_1'> +4.8320690e-06 </wgt>
<wgt id='morphing_basis_vector_2'> +3.3303912e-06 </wgt>
<wgt id='morphing_basis_vector_3'> +5.3289890e-06 </wgt>
<wgt id='morphing_basis_vector_4'> +3.7737383e-06 </wgt>
<wgt id='morphing_basis_vector_5'> +6.0895137e-06 </wgt>
</rwgt>
</event>
<event>
 4      1 +7.6845000e-11 5.46192100e+03 7.81860800e-03 7.32446900e-02
        2 -1    0    0  501    0 +0.0000000000e+00 +0.0000000000e+00 +3.4116920754e+03 3.4116920754e+03 0.0000000000e+00 0.0000e+00 1.0000e+00
       -2 -1    0    0    0  501 -0.0000000000e+00 -0.0000000000e+00 -2.1860543643e+03 2.1860543643e+03 0.0000000000e+00 0.0000e+00 -1.0000e+00
      -13  1    1    2    0    0 +9.1831888623e+02 +9.1214384942e+02 +3.0773708559e+03 3.3384917798e+03 0.0000000000e+00 0.0000e+00 1.0000e+00
       13  1    1    2    0    0 -9.1831888623e+02 -9.1214384942e+02 -1.8517331448e+03 2.2592546599e+03 0.0000000000e+00 0.0000e+00 -1.0000e+00
<mgrwt>
<rscale>  0 0.54619207E+04</rscale>
<asrwt>0</asrwt>
<pdfrwt beam="1">  1        2 0.52487570E+00 0.54619207E+04</pdfrwt>
<pdfrwt beam="2">  1       -2 0.33631606E+00 0.54619207E+04</pdfrwt>
<totfact> 0.10647327E-02</totfact>
</mgrwt>
<rwgt>
<wgt id='morphing_basis_vector_1'> +1.2560857e-05 </wgt>
<wgt id='morphing_basis_vector_2'> +1.6005278e-05 </wgt>
<wgt id='morphing_basis_vector_3'> +1.5589543e-05 </wgt>
<wgt id='morphing_basis_vector_4'> +3.1282654e-07 </wgt>
<wgt id='morphing_basis_vector_5'> +1.1175828e-05 </wgt>
</rwgt>
</event>
<event>
 4      1 +7.6845000e-11 5.07520400e+03 7.81860800e-03 7.37432400e-02
        2 -1    0    0  501    0 +0.0000000000e+00 +0.0000000000e+00 +2.9162805909e+03 2.9162805909e+03 0.0000000000e+00 0.0000e+00 1.0000e+00
       -2 -1    0    0    0  501 -0.0000000000e+00 -0.0000000000e+00 -2.2080946406e+03 2.2080946406e+03 0.0000000000e+00 0.0000e+00 -1.0000e+00
      -13  1    1    2    0    0 -9.6504477815e+02 +3.1665792407e+01 -2.0153664926e+03 2.2347295688e+03 0.0000000000e+00 0.0000e+00 -1.0000e+00
       13  1    1    2    0    0 +9.6504477815e+02 -3.1665792407e+01 +2.7235524430e+03 2.8896456627e+03 0.0000000000e+00 0.0000e+00 1.0000e+00
<mgrwt>
<rscale>  0 0.50752039E+04</rscale>
<asrwt>0</asrwt>
<pdfrwt beam="1">  1        2 0.44865855E+00 0.50752039E+04</pdfrwt>
<pdfrwt beam="2">  1       -2 0.33970687E+00 0.50752039E+04</pdfrwt>
<totfact> 0.22539524E-02</totfact>
</mgrwt>
<rwgt>
<wgt id='morphing_basis_vector_1'> +6.9021371e-06 </wgt>
<wgt id='morphing_basis_vector_2'> +4.6883377e-06 </wgt>
<wgt id='morphing_basis_vector_3'> +7.6043513e-06 </wgt>
<wgt id='morphing_basis_vector_4'> +5.4975629e-06 </wgt>
<wgt id='morphing_basis_vector_5'> +8.7663983e-06 </wgt>
</rwgt>
</event>
<event>
 4      1 +7.6845000e-11 4.80888800e+03 7.81860800e-03 7.41137600e-02
        2 -1    0    0  501    0 +0.0000000000e+00 +0.0000000000e+00 +2.2134975614e+03 2.2134975614e+03 0.0000000000e+00 0.0000e+00 -1.0000e+00
       -2 -1    0    0    0  501 -0.0000000000e+00 -0.0000000000e+00 -2.6118626672e+03 2.6118626672e+03 0.0000000000e+00 0.0000e+00 1.0000e+00
      -13  1    1    2    0    0 +1.9468135901e+03 +5.4018531601e+02 -1.5072844870e+03 2.5206725005e+03 0.0000000000e+00 0.0000e+00 1.0000e+00
       13  1    1    2    0    0 -1.9468135901e+03 -5.4018531601e+02 +1.1089193811e+03 2.3046877281e+03 0.0000000000e+00 0.0000e+00 -1.0000e+00
<mgrwt>
<rscale>  0 0.48088883E+04</rscale>
<asrwt>0</asrwt>
<pdfrwt beam="1">  1        2 0.34053809E+00 0.48088883E+04</pdfrwt>
<pdfrwt beam="2">  1       -2 0.40182503E+00 0.48088883E+04</pdfrwt>
<totfact> 0.24253901E-02</totfact>
</mgrwt>
<rwgt>
<wgt id='morphing_basis_vector_1'> +5.5870511e-06 </wgt>
<wgt id='morphing_basis_vector_2'> +3.8374287e-06 </wgt>
<wgt id='morphing_basis_vector_3'> +6.1614281e-06 </wgt>
<wgt id='morphing_basis_vector_4'> +4.3867876e-06 </wgt>
<wgt id='morphing_basis_vector_5'> +7.0577733e-06 </wgt>
</rwgt>
</event>
<event>
 4      1 +7.6845000e-11 5.50220100e+03 7.81860800e-03 7.31952000e-02
        2 -1    0    0  501    0 +0.0000000000e+00 +0.0000000000e+00 +2.9538625725e+03 2.9538625725e+03 0.0000000000e+00 0.0000e+00 -1.0000e+00
       -2 -1    0    0    0  501 -0.0000000000e+00 -0.0000000000e+00 -2.5622567300e+03 2.5622567300e+03 0.0000000000e+00 0.0000e+00 1.0000e+00
      -13  1    1    2    0    0 +1.4075541061e+03 -2.3466810033e+03 +4.8012914928e+02 2.7782448224e+03 0.0000000000e+00 0.0000e+00 1.0000e+00
       13  1    1    2    0    0 -1.4075541061e+03 +2.3466810033e+03 -8.8523306795e+01 2.7378744801e+03 0.0000000000e+00 0.0000e+00 -1.0000e+00
<mgrwt>
<rscale>  0 0.55022011E+04</rscale>
<asrwt>0</asrwt>
<pdfrwt beam="1">  1        2 0.45444040E+00 0.55022011E+04</pdfrwt>
<pdfrwt beam="2">  1       -2 0.39419334E+00 0.55022011E+04</pdfrwt>
<totfact> 0.91714569E-03</totfact>
</mgrwt>
<rwgt>
<wgt id='morphing_basis_vector_1'> +1.0029976e-05 </wgt>
<wgt id='morphing_basis_vector_2'> +7.9543752e-06 </wgt>
<wgt id='morphing_basis_vector_3'> +1.1325336e-05 </wgt>
<wgt id='morphing_basis_vector_4'> +6.5247228e-06 </wgt>
<wgt id='morphing_basis_vector_5'> +1.2030944e-05 </wgt>
</rwgt>
</event>
<event>
 4      1 +7.6845000e-11 4.91919500e+03 7.81860800e-03 7.39574200e-02
        2 -1    0    0  501    0 +0.0000000000e+00 +0.0000000000e+00 +3.9731256036e+03 3.9731256036e+03 0.0000000000e+00 0.0000e+00 1.0000e+00
       -2 -1    0    0    0  501 -0.0000000000e+00 -0.0000000000e+00 -1.5226347487e+03 1.5226347487e+03 0.0000000000e+00 0.0000e+00 -1.0000e+00
      -13  1    1    2    0    0 -1.8206727637e+03 -1.2284571051e+01 +3.0727357803e+03 3.5716530345e+03 0.0000000000e+00 0.0000e+00 1.0000e+00
       13  1    1    2    0    0 +1.8206727637e+03 +1.2284571051e+01 -6.2224492532e+02 1.9241073178e+03 0.0000000000e+00 0.0000e+00 -1.0000e+00
<mgrwt>
<rscale>  0 0.49191947E+04</rscale>
<asrwt>0</asrwt>
<pdfrwt beam="1">  1        2 0.61125009E+00 0.49191947E+04</pdfrwt>
<pdfrwt beam="2">  1       -2 0.23425150E+00 0.49191947E+04</pdfrwt>
<totfact> 0.20026150E-02</totfact>
</mgrwt>
<rwgt>
<wgt id='morphing_basis_vector_1'> +7.7703581e-06 </wgt>
<wgt id='morphing_basis_vector_2'> +9.0608571e-06 </wgt>
<wgt id='morphing_basis_vector_3'> +9.4298809e-06 </wgt>
<wgt id='morphing_basis_vector_4'> +1.2806320e-06 </wgt>
<wgt id='morphing_basis_vector_5'> +7.4349843e-06 </wgt>
</rwgt>
</event>
<event>
 4      1 +7.6845000e-11 4.71770200e+03 7.81860800e-03 7.42462200e-02
        2 -1    0    0  501    0 +0.0000000000e+00 +0.0000000000e+00 +3.9971246635e+03 3.9971246635e+03 0.0000000000e+00 0.0000e+00 1.0000e+00
       -2 -1    0    0    0  501 -0.0000000000e+00 -0.0000000000e+00 -1.3920454461e+03 1.3920454461e+03 0.0000000000e+00 0.0000e+00 -1.0000e+00
      -13  1    1    2    0    0 -2.8953518274e+01 +1.7477520311e+03 -5.0678308185e+02 1.8199737801e+03 0.0000000000e+00 0.0000e+00 -1.0000e+00
       13  1    1    2    0    0 +2.8953518274e+01 -1.7477520311e+03 +3.1118622993e+03 3.5691963294e+03 0.0000000000e+00 0.0000e+00 1.0000e+00
<mgrwt>
<rscale>  0 0.47177025E+04</rscale>
<asrwt>0</asrwt>
<pdfrwt beam="1">  1        2 0.61494225E+00 0.47177025E+04</pdfrwt>
<pdfrwt beam="2">  1       -2 0.21416084E+00 0.47177025E+04</pdfrwt>
<totfact> 0.26918251E-02</totfact>
</mgrwt>
<rwgt>
<wgt id='morphing_basis_vector_1'> +5.1663348e-06 </wgt>
<wgt id='morphing_basis_vector_2'> +3.5247254e-06 </wgt>
<wgt id='morphing_basis_vector_3'> +5.6906579e-06 </wgt>
<wgt id='morphing_basis_vector_4'> +4.0842272e-06 </wgt>
<wgt id='morphing_basis_vector_5'> +6.5375754e-06 </wgt>
</rwgt>
</event>
<event>
 4      1 +7.6845000e-11 5.08159100e+03 7.81860800e-03 7.37346400e-02
        2 -1    0    0  501    0 +0.0000000000e+00 +0.0000000000e+00 +2.4840464091e+03 2.4840464091e+03 0.0000000000e+00 0.0000e+00 -1.0000e+00
       -2 -1    0    0    0  501 -0.0000000000e+00 -0.0000000000e+00 -2.5988406997e+03 2.5988406997e+03 0.0000000000e+00 0.0000e+00 1.0000e+00
      -13  1    1    2    0    0 -1.2988952336e+03 -8.7332503998e+02 -2.0593611050e+03 2.5866568412e+03 0.0000000000e+00 0.0000e+00 1.0000e+00
       13  1    1    2    0    0 +1.2988952336e+03 +8.7332503998e+02 +1.9445668144e+03 2.4962302676e+03 0.0000000000e+00 0.0000e+00 -1.0000e+00
<mgrwt>
<rscale>  0 0.50815907E+04</rscale>
<asrwt>0</asrwt>
<pdfrwt beam="1">  1        2 0.38216099E+00 0.50815907E+04</pdfrwt>
<pdfrwt beam="2">  1       -2 0.39982165E+00 0.50815907E+04</pdfrwt>
<totfact> 0.17008978E-02</totfact>
</mgrwt>
<rwgt>
<wgt id='morphing_basis_vector_1'> +6.9403923e-06 </wgt>
<wgt id='morphing_basis_vector_2'> +4.7223984e-06 </wgt>
<wgt id='morphing_basis_vector_3'> +7.6484702e-06 </wgt>
<wgt id='morphing_basis_vector_4'> +5.5177894e-06 </wgt>
<wgt id='morphing_basis_vector_5'> +8.8101097e-06 </wgt>
</rwgt>
</event>
<event>
 4      1 +7.6845000e-11 4.63017200e+03 7.81860800e-03 7.43762300e-02
        2 -1    0    0  501    0 +0.0000000000e+00 +0.0000000000e+00 +3.3185094546e+03 3.3185094546e+03 0.0000000000e+00 0.0000e+00 1.0000e+00
       -2 -1    0    0    0  501 -0.0000000000e+00 -0.0000000000e+00 -1.6150697637e+03 1.6150697637e+03 0.0000000000e+00 0.0000e+00 -1.0000e+00
      -13  1    1    2    0    0 +4.4424943054e+02 +1.0176727684e+03 -1.3128000926e+03 1.7194358096e+03 0.0000000000e+00 0.0000e+00 -1.0000e+00
       13  1    1    2    0    0 -4.4424943054e+02 -1.0176727684e+03 +3.0162397836e+03 3.2141434087e+03 0.0000000000e+00 0.0000e+00 1.0000e+00
<mgrwt>
<rscale>  0 0.46301725E+04</rscale>
<asrwt>0</asrwt>
<pdfrwt beam="1">  1        2 0.51053992E+00 0.46301725E+04</pdfrwt>
<pdfrwt beam="2">  1       -2 0.24847227E+00 0.46301725E+04</pdfrwt>
<totfact> 0.51790428E-02</totfact>
</mgrwt>
<rwgt>
<wgt id='morphing_basis_vector_1'> +4.7881181e-06 </wgt>
<wgt id='morphing_basis_vector_2'> +3.2510435e-06 </wgt>
<wgt id='morphing_basis_vector_3'> +5.2692101e-06 </wgt>
<wgt id='morphing_basis_vector_4'> +3.8026713e-06 </wgt>
<wgt id='morphing_basis_vector_5'> +6.0652727e-06 </wgt>
</rwgt>
</event>
<event>
 4      1 +7.6845000e-11 4.94314700e+03 7.81860800e-03 7.39240100e-02
        2 -1    0    0  501    0 +0.0000000000e+00 +0.0000000000e+00 +2.4767949787e+03 2.4767949787e+03 0.0000000000e+00 0.0000e+00 -1.0000e+00
       -2 -1    0    0    0  501 -0.0000000000e+00 -0.0000000000e+00 -2.4663634433e+03 2.4663634433e+03 0.0000000000e+00 0.0000e+00 1.0000e+00
      -13  1    1    2    0    0 +8.7485988845e+02 -8.6669045009e+01 -2.3047212458e+03 2.4667045564e+03 0.0000000000e+00 0.0000e+00 1.0000e+00
       13  1    1    2    0    0 -8.7485988845e+02 +8.6669045009e+01 +2.3151527812e+03 2.4764538656e+03 0.0000000000e+00 0.0000e+00 -1.0000e+00
<mgrwt>
<rscale>  0 0.49431474E+04</rscale>
<asrwt>0</asrwt>
<pdfrwt beam="1">  1        2 0.38104538E+00 0.49431474E+04</pdfrwt>
<pdfrwt beam="2">  1       -2 0.37944053E+00 0.49431474E+04</pdfrwt>
<totfact> 0.23543175E-02</totfact>
</mgrwt>
<rwgt>
<wgt id='morphing_basis_vector_1'> +6.2133680e-06 </wgt>
<wgt id='morphing_basis_vector_2'> +4.2193800e-06 </wgt>
<wgt id='morphing_basis_vector_3'> +6.8432505e-06 </wgt>
<wgt id='morphing_basis_vector_4'> +4.9459220e-06 </wgt>
<wgt id='morphing_basis_vector_5'> +7.8863797e-06 </wgt>
</rwgt>
</event>
<event>
 4      1 +7.6845000e-11 4.82637600e+03 7.81860800e-03 7.40886900e-02
        2 -1    0    0  501    0 +0.0000000000e+00 +0.0000000000e+00 +2.6076813975e+03 2.6076813975e+03 0.0000000000e+00 0.0000e+00 1.0000e+00
       -2 -1    0    0    0  501 -0.0000000000e+00 -0.0000000000e+00 -2.2332012392e+03 2.2332012392e+03 0.0000000000e+00 0.0000e+00 -1.0000e+00
      -13  1    1    2    0    0 -2.2360771521e+03 +7.5196122771e+02 -3.2221431629e+02 2.3810310337e+03 0.0000000000e+00 0.0000e+00 -1.0000e+00
       13  1    1    2    0    0 +2.2360771521e+03 -7.5196122771e+02 +6.9669447461e+02 2.4598516030e+03 0.0000000000e+00 0.0000e+00 1.0000e+00
<mgrwt>
<rscale>  0 0.48263764E+04</rscale>
<asrwt>0</asrwt>
<pdfrwt beam="1">  1        2 0.40118176E+00 0.48263764E+04</pdfrwt>
<pdfrwt beam="2">  1       -2 0.34356942E+00 0.48263764E+04</pdfrwt>
<totfact> 0.33767864E-02</totfact>
</mgrwt>
<rwgt>
<wgt id='morphing_basis_vector_1'> +5.7421155e-06 </wgt>
<wgt id='morphing_basis_vector_2'> +4.1097539e-06 </wgt>
<wgt id='morphing_basis_vector_3'> +6.3708546e-06 </wgt>
<wgt id='morphing_basis_vector_4'> +4.2944112e-06 </wgt>
<wgt id='morphing_basis_vector_5'> +7.1482253e-06 </wgt>
</rwgt>
</event>
<event>
 4      1 +7.6845000e-11 5.17683800e+03 7.81860800e-03 7.36079100e-02
        2 -1    0    0  501    0 +0.0000000000e+00 +0.0000000000e+00 +3.3046436607e+03 3.3046436607e+03 0.0000000000e+00 0.0000e+00 -1.0000e+00
       -2 -1    0    0    0  501 -0.0000000000e+00 -0.0000000000e+00 -2.0274237036e+03 2.0274237036e+03 0.0000000000e+00 0.0000e+00 1.0000e+00
      -13  1    1    2    0    0 +6.8696494081e+02 +2.4180206231e+03 +2.7090542825e+00 2.5137127725e+03 0.0000000000e+00 0.0000e+00 1.0000e+00
       13  1    1    2    0    0 -6.8696494081e+02 -2.4180206231e+03 +1.2745109029e+03 2.8183545918e+03 0.0000000000e+00 0.0000e+00 -1.0000e+00
<mgrwt>
<rscale>  0 0.51768380E+04</rscale>
<asrwt>0</asrwt>
<pdfrwt beam="1">  1        2 0.50840672E+00 0.51768380E+04</pdfrwt>
<pdfrwt beam="2">  1       -2 0.31191134E+00 0.51768380E+04</pdfrwt>
<totfact> 0.18790527E-02</totfact>
</mgrwt>
<rwgt>
<wgt id='morphing_basis_vector_1'> +7.5803018e-06 </wgt>
<wgt id='morphing_basis_vector_2'> +5.3987288e-06 </wgt>
<wgt id='morphing_basis_vector_3'> +8.4111407e-06 </wgt>
<wgt id='morphing_basis_vector_4'> +5.7174897e-06 </wgt>
<wgt id='morphing_basis_vector_5'> +9.4725214e-06 </wgt>
</rwgt>
</event>
<event>
 4      1 +7.6845000e-11 5.40354100e+03 7.81860800e-03 7.33171900e-02
        2 -1    0    0  501    0 +0.0000000000e+00 +0.0000000000e+00 +3.0816560755e+03 3.0816560755e+03 0.0000000000e+00 0.0000e+00 1.0000e+00
       -2 -1    0    0    0  501 -0.0000000000e+00 -0.0000000000e+00 -2.3687145443e+03 2.3687145443e+03 0.0000000000e+00 0.0000e+00 -1.0000e+00
      -13  1    1    2    0    0 +1.0984535375e+03 +2.3803359565e+03 -3.0261705389e+02 2.6389726260e+03 0.0000000000e+00 0.0000e+00 -1.0000e+00
       13  1    1    2    0    0 -1.0984535375e+03 -2.3803359565e+03 +1.0155585850e+03 2.8113979938e+03 0.0000000000e+00 0.0000e+00 1.0000e+00
<mgrwt>
<rscale>  0 0.54035409E+04</rscale>
<asrwt>0</asrwt>
<pdfrwt beam="1">  1        2 0.47410093E+00 0.54035409E+04</pdfrwt>
<pdfrwt beam="2">  1       -2 0.36441762E+00 0.54035409E+04</pdfrwt>
<totfact> 0.11866830E-02</totfact>
</mgrwt>
<rwgt>
<wgt id='morphing_basis_vector_1'> +8.9916242e-06 </wgt>
<wgt id='morphing_basis_vector_2'> +6.4017614e-06 </wgt>
<wgt id='morphing_basis_vector_3'> +9.9811636e-06 </wgt>
<wgt id='morphing_basis_vector_4'> +6.7937113e-06 </wgt>
<wgt id='morphing_basis_vector_5'> +1.1249767e-05 </wgt>
</rwgt>
</event>
<event>
 4      1 +7.6845000e-11 4.90283000e+03 7.81860800e-03 7.39803500e-02
        2 -1    0    0  501    0 +0.0000000000e+00 +0.0000000000e+00 +3.2293053501e+03 3.2293053501e+03 0.0000000000e+00 0.0000e+00 -1.0000e+00
       -2 -1    0    0    0  501 -0.0000000000e+00 -0.0000000000e+00 -1.8609064906e+03 1.8609064906e+03 0.0000000000e+00 0.0000e+00 1.0000e+00
      -13  1    1    2    0    0 +1.2327699918e+03 -1.6625324016e+03 -6.7966627785e+02 2.1784586496e+03 0.0000000000e+00 0.0000e+00 1.0000e+00
       13  1    1    2    0    0 -1.2327699918e+03 +1.6625324016e+03 +2.0480651374e+03 2.9117531911e+03 0.0000000000e+00 0.0000e+00 -1.0000e+00
<mgrwt>
<rscale>  0 0.49028299E+04</rscale>
<asrwt>0</asrwt>
<pdfrwt beam="1">  1        2 0.49681620E+00 0.49028299E+04</pdfrwt>
<pdfrwt beam="2">  1       -2 0.28629331E+00 0.49028299E+04</pdfrwt>
<totfact> 0.32194648E-02</totfact>
</mgrwt>
<rwgt>
<wgt id='morphing_basis_vector_1'> +6.0357247e-06 </wgt>
<wgt id='morphing_basis_vector_2'> +4.1479910e-06 </wgt>
<wgt id='morphing_basis_vector_3'> +6.6583206e-06 </wgt>
<wgt id='morphing_basis_vector_4'> +4.7393150e-06 </wgt>
<wgt id='morphing_basis_vector_5'> +7.6274856e-06 </wgt>
</rwgt>
</event>
<event>
 4      1 +7.6845000e-11 4.99212100e+03 7.81860800e-03 7.38563000e-02
        2 -1    0    0  501    0 +0.0000000000e+00 +0.0000000000e+00 +2.5524940638e+03 2.5524940638e+03 0.0000000000e+00 0.0000e+00 -1.0000e+00
       -2 -1    0    0    0  501 -0.0000000000e+00 -0.0000000000e+00 -2.4408746432e+03 2.4408746432e+03 0.0000000000e+00 0.0000e+00 1.0000e+00
      -13  1    1    2    0    0 -1.2013455245e+03 -1.8533826675e+03 -1.1072619089e+03 2.4706855964e+03 0.0000000000e+00 0.0000e+00 1.0000e+00
       13  1    1    2    0    0 +1.2013455245e+03 +1.8533826675e+03 +1.2188813294e+03 2.5226831107e+03 0.0000000000e+00 0.0000e+00 -1.0000e+00
<mgrwt>
<rscale>  0 0.49921210E+04</rscale>
<asrwt>0</asrwt>
<pdfrwt beam="1">  1        2 0.39269140E+00 0.49921210E+04</pdfrwt>
<pdfrwt beam="2">  1       -2 0.37551917E+00 0.49921210E+04</pdfrwt>
<totfact> 0.22398047E-02</totfact>
</mgrwt>
<rwgt>
<wgt id='morphing_basis_vector_1'> +6.4966910e-06 </wgt>
<wgt id='morphing_basis_vector_2'> +4.4894645e-06 </wgt>
<wgt id='morphing_basis_vector_3'> +7.1740266e-06 </wgt>
<wgt id='morphing_basis_vector_4'> +5.0725106e-06 </wgt>
<wgt id='morphing_basis_vector_5'> +8.1985095e-06 </wgt>
</rwgt>
</event>
<event>
 4      1 +7.6845000e-11 5.41501300e+03 7.81860800e-03 7.33028700e-02
        2 -1    0    0  501    0 +0.0000000000e+00 +0.0000000000e+00 +3.6643405249e+03 3.6643405249e+03 0.0000000000e+00 0.0000e+00 -1.0000e+00
       -2 -1    0    0    0  501 -0.0000000000e+00 -0.0000000000e+00 -2.0005214581e+03 2.0005214581e+03 0.0000000000e+00 0.0000e+00 1.0000e+00
      -13  1    1    2    0    0 +3.9003866518e+01 -1.8011057540e+03 -1.2825070608e+03 2.2114085103e+03 0.0000000000e+00 0.0000e+00 1.0000e+00
       13  1    1    2    0    0 -3.9003866518e+01 +1.8011057540e+03 +2.9463261276e+03 3.4534534728e+03 0.0000000000e+00 0.0000e+00 -1.0000e+00
<mgrwt>
<rscale>  0 0.54150131E+04</rscale>
<asrwt>0</asrwt>
<pdfrwt beam="1">  1        2 0.56374470E+00 0.54150131E+04</pdfrwt>
<pdfrwt beam="2">  1       -2 0.30777253E+00 0.54150131E+04</pdfrwt>
<totfact> 0.10732894E-02</totfact>
</mgrwt>
<rwgt>
<wgt id='morphing_basis_vector_1'> +8.9449217e-06 </wgt>
<wgt id='morphing_basis_vector_2'> +6.0948455e-06 </wgt>
<wgt id='morphing_basis_vector_3'> +9.8658444e-06 </wgt>
<wgt id='morphing_basis_vector_4'> +7.1145124e-06 </wgt>
<wgt id='morphing_basis_vector_5'> +1.1367932e-05 </wgt>
</rwgt>
</event>
<event>
 4      1 +7.6845000e-11 5.10742200e+03 7.81860800e-03 7.36999900e-02
        2 -1    0    0  501    0 +0.0000000000e+00 +0.0000000000e+00 +2.1761155472e+03 2.1761155472e+03 0.0000000000e+00 0.0000e+00 1.0000e+00
       -2 -1    0    0    0  501 -0.0000000000e+00 -0.0000000000e+00 -2.9968265293e+03 2.9968265293e+03 0.0000000000e+00 0.0000e+00 -1.0000e+00
      -13  1    1    2    0    0 -2.5216312336e+03 +2.6299115407e+02 -7.2030806287e+02 2.6356464351e+03 0.0000000000e+00 0.0000e+00 -1.0000e+00
       13  1    1    2    0    0 +2.5216312336e+03 -2.6299115407e+02 -1.0040291925e+02 2.5372956414e+03 0.0000000000e+00 0.0000e+00 1.0000e+00
<mgrwt>
<rscale>  0 0.51074224E+04</rscale>
<asrwt>0</asrwt>
<pdfrwt beam="1">  1        2 0.33478701E+00 0.51074224E+04</pdfrwt>
<pdfrwt beam="2">  1       -2 0.46105023E+00 0.51074224E+04</pdfrwt>
<totfact> 0.98803088E-03</totfact>
</mgrwt>
<rwgt>
<wgt id='morphing_basis_vector_1'> +7.2453642e-06 </wgt>
<wgt id='morphing_basis_vector_2'> +5.2983359e-06 </wgt>
<wgt id='morphing_basis_vector_3'> +8.0702546e-06 </wgt>
<wgt id='morphing_basis_vector_4'> +5.2832177e-06 </wgt>
<wgt id='morphing_basis_vector_5'> +8.9619942e-06 </wgt>
</rwgt>
</event>
<event>
 4      1 +7.6845000e-11 4.74606800e+03 7.81860800e-03 7.42046900e-02
        2 -1    0    0  501    0 +0.0000000000e+00 +0.0000000000e+00 +4.1391657280e+03 4.1391657280e+03 0.0000000000e+00 0.0000e+00 -1.0000e+00
       -2 -1    0    0    0  501 -0.0000000000e+00 -0.0000000000e+00 -1.3604893485e+03 1.3604893485e+03 0.0000000000e+00 0.0000e+00 1.0000e+00
      -13  1    1    2    0    0 -9.8209293212e+02 +2.0738008946e+03 +6.8817092961e+02 2.3955658843e+03 0.0000000000e+00 0.0000e+00 1.0000e+00
       13  1    1    2    0    0 +9.8209293212e+02 -2.0738008946e+03 +2.0905054499e+03 3.1040891923e+03 0.0000000000e+00 0.0000e+00 -1.0000e+00
<mgrwt>
<rscale>  0 0.47460682E+04</rscale>
<asrwt>0</asrwt>
<pdfrwt beam="1">  1        2 0.63679472E+00 0.47460682E+04</pdfrwt>
<pdfrwt beam="2">  1       -2 0.20930606E+00 0.47460682E+04</pdfrwt>
<totfact> 0.21875874E-02</totfact>
</mgrwt>
<rwgt>
<wgt id='morphing_basis_vector_1'> +5.3561663e-06 </wgt>
<wgt id='morphing_basis_vector_2'> +3.8008177e-06 </wgt>
<wgt id='morphing_basis_vector_3'> +5.9338472e-06 </wgt>
<wgt id='morphing_basis_vector_4'> +4.0455658e-06 </wgt>
<wgt id='morphing_basis_vector_5'> +6.6852341e-06 </wgt>
</rwgt>
</event>
<event>
 4      1 +7.6845000e-11 4.70195000e+03 7.81860800e-03 7.42694100e-02
        2 -1    0    0  501    0 +0.0000000000e+00 +0.0000000000e+00 +3.7246698312e+03 3.7246698312e+03 0.0000000000e+00 0.0000e+00 1.0000e+00
       -2 -1    0    0    0  501 -0.0000000000e+00 -0.0000000000e+00 -1.4839123602e+03 1.4839123602e+03 0.0000000000e+00 0.0000e+00 -1.0000e+00
      -13  1    1    2    0    0 +1.1167964344e+03 -1.6795297638e+03 -2.1767478717e+02 2.0286539420e+03 0.0000000000e+00 0.0000e+00 -1.0000e+00
       13  1    1    2    0    0 -1.1167964344e+03 +1.6795297638e+03 +2.4584322581e+03 3.1799282494e+03 0.0000000000e+00 0.0000e+00 1.0000e+00
<mgrwt>
<rscale>  0 0.47019501E+04</rscale>
<asrwt>0</asrwt>
<pdfrwt beam="1">  1        2 0.57302612E+00 0.47019501E+04</pdfrwt>
<pdfrwt beam="2">  1       -2 0.22829421E+00 0.47019501E+04</pdfrwt>
<totfact> 0.35684504E-02</totfact>
</mgrwt>
<rwgt>
<wgt id='morphing_basis_vector_1'> +5.1111421e-06 </wgt>
<wgt id='morphing_basis_vector_2'> +3.5167594e-06 </wgt>
<wgt id='morphing_basis_vector_3'> +5.6364341e-06 </wgt>
<wgt id='morphing_basis_vector_4'> +4.0016605e-06 </wgt>
<wgt id='morphing_basis_vector_5'> +6.4480349e-06 </wgt>
</rwgt>
</event>
<event>
 4      1 +7.6845000e-11 4.96499800e+03 7.81860800e-03 7.38937000e-02
        2 -1    0    0  501    0 +0.0000000000e+00 +0.0000000000e+00 +2.0438716212e+03 2.0438716212e+03 0.0000000000e+00 0.0000e+00 -1.0000e+00
       -2 -1    0    0    0  501 -0.0000000000e+00 -0.0000000000e+00 -3.0152590053e+03 3.0152590053e+03 0.0000000000e+00 0.0000e+00 1.0000e+00
      -13  1    1    2    0    0 -2.2728136590e+03 +8.6588460836e+02 -9.9248041316e+02 2.6268718000e+03 0.0000000000e+00 0.0000e+00 1.0000e+00
       13  1    1    2    0    0 +2.2728136590e+03 -8.6588460836e+02 +2.1093029029e+01 2.4322588265e+03 0.0000000000e+00 0.0000e+00 -1.0000e+00
<mgrwt>
<rscale>  0 0.49649984E+04</rscale>
<asrwt>0</asrwt>
<pdfrwt beam="1">  1        2 0.31444179E+00 0.49649984E+04</pdfrwt>
<pdfrwt beam="2">  1       -2 0.46388600E+00 0.49649984E+04</pdfrwt>
<totfact> 0.11330980E-02</totfact>
</mgrwt>
<rwgt>
<wgt id='morphing_basis_vector_1'> +6.4326182e-06 </wgt>
<wgt id='morphing_basis_vector_2'> +4.6145732e-06 </wgt>
<wgt id='morphing_basis_vector_3'> +7.1419140e-06 </wgt>
<wgt id='morphing_basis_vector_4'> +4.8019721e-06 </wgt>
<wgt id='morphing_basis_vector_5'> +8.0077423e-06 </wgt>
</rwgt>
</event>
<event>
 4      1 +7.6845000e-11 5.18261600e+03 7.81860800e-03 7.36003100e-02
        2 -1    0    0  501    0 +0.0000000000e+00 +0.0000000000e+00 +2.5147452982e+03 2.5147452982e+03 0.0000000000e+00 0.0000e+00 1.0000e+00
       -2 -1    0    0    0  501 -0.0000000000e+00 -0.0000000000e+00 -2.6702020687e+03 2.6702020687e+03 0.0000000000e+00 0.0000e+00 -1.0000e+00
      -13  1    1    2    0    0 -3.7370344284e+02 +1.7660843228e+03 -1.9376422766e+03 2.6482382239e+03 0.0000000000e+00 0.0000e+00 -1.0000e+00
       13  1    1    2    0    0 +3.7370344284e+02 -1.7660843228e+03 +1.7821855061e+03 2.5367091430e+03 0.0000000000e+00 0.0000e+00 1.0000e+00
<mgrwt>
<rscale>  0 0.51826164E+04</rscale>
<asrwt>0</asrwt>
<pdfrwt beam="1">  1        2 0.38688389E+00 0.51826164E+04</pdfrwt>
<pdfrwt beam="2">  1       -2 0.41080032E+00 0.51826164E+04</pdfrwt>
<totfact> 0.13706640E-02</totfact>
</mgrwt>
<rwgt>
<wgt id='morphing_basis_vector_1'> +7.5111050e-06 </wgt>
<wgt id='morphing_basis_vector_2'> +5.1204161e-06 </wgt>
<wgt id='morphing_basis_vector_3'> +8.2813806e-06 </wgt>
<wgt id='morphing_basis_vector_4'> +5.9627787e-06 </wgt>
<wgt id='morphing_basis_vector_5'> +9.5334373e-06 </wgt>
</rwgt>
</event>
<event>
 4      1 +7.6845000e-11 4.68579200e+03 7.81860800e-03 7.42932800e-02
        2 -1    0    0  501    0 +0.0000000000e+00 +0.0000000000e+00 +4.0444715415e+03 4.0444715415e+03 0.0000000000e+00 0.0000e+00 1.0000e+00
       -2 -1    0    0    0  501 -0.0000000000e+00 -0.0000000000e+00 -1.3572014617e+03 1.3572014617e+03 0.0000000000e+00 0.0000e+00 -1.0000e+00
      -13  1    1    2    0    0 -1.9648946397e+03 -1.2576663342e+03 +1.0947122799e+03 2.5770002967e+03 0.0000000000e+00 0.0000e+00 -1.0000e+00
       13  1    1    2    0    0 +1.9648946397e+03 +1.2576663342e+03 +1.5925577998e+03 2.8246727066e+03 0.0000000000e+00 0.0000e+00 1.0000e+00
<mgrwt>
<rscale>  0 0.46857924E+04</rscale>
<asrwt>0</asrwt>
<pdfrwt beam="1">  1        2 0.62222639E+00 0.46857924E+04</pdfrwt>
<pdfrwt beam="2">  1       -2 0.20880023E+00 0.46857924E+04</pdfrwt>
<totfact> 0.26855014E-02</totfact>
</mgrwt>
<rwgt>
<wgt id='morphing_basis_vector_1'> +5.1522824e-06 </wgt>
<wgt id='morphing_basis_vector_2'> +3.7941258e-06 </wgt>
<wgt id='morphing_basis_vector_3'> +5.7386396e-06 </wgt>
<wgt id='morphing_basis_vector_4'> +3.7111433e-06 </wgt>
<wgt id='morphing_basis_vector_5'> +6.3398235e-06 </wgt>
</rwgt>
</event>
<event>
 4      1 +7.6845000e-11 5.53674300e+03 7.81860800e-03 7.31531100e-02
        2 -1    0    0  501    0 +0.0000000000e+00 +0.0000000000e+00 +2.7829519023e+03 2.7829519023e+03 0.0000000000e+00 0.0000e+00 1.0000e+00
       -2 -1    0    0    0  501 -0.0000000000e+00 -0.0000000000e+00 -2.7538671237e+03 2.7538671237e+03 0.0000000000e+00 0.0000e+00 -1.0000e+00
      -13  1    1    2    0    0 +2.4883478070e+02 -2.0157473992e+03 -1.8666330609e+03 2.7585277431e+03 0.0000000000e+00 0.0000e+00 -1.0000e+00
       13  1    1    2    0    0 -2.4883478070e+02 +2.0157473992e+03 +1.8957178395e+03 2.7782912829e+03 0.0000000000e+00 0.0000e+00 1.0000e+00
<mgrwt>
<rscale>  0 0.55367426E+04</rscale>
<asrwt>0</asrwt>
<pdfrwt beam="1">  1        2 0.42814645E+00 0.55367426E+04</pdfrwt>
<pdfrwt beam="2">  1       -2 0.42367186E+00 0.55367426E+04</pdfrwt>
<totfact> 0.75153548E-03</totfact>
</mgrwt>
<rwgt>
<wgt id='morphing_basis_vector_1'> +9.7804826e-06 </wgt>
<wgt id='morphing_basis_vector_2'> +6.6788802e-06 </wgt>
<wgt id='morphing_basis_vector_3'> +1.0793093e-05 </wgt>
<wgt id='morphing_basis_vector_4'> +7.7649332e-06 </wgt>
<wgt id='morphing_basis_vector_5'> +1.2426953e-05 </wgt>
</rwgt>
</event>
<event>
 4      1 +7.6845000e-11 4.76644200e+03 7.81860800e-03 7.41750500e-02
        2 -1    0    0  501    0 +0.0000000000e+00 +0.0000000000e+00 +4.3526377571e+03 4.3526377571e+03 0.0000000000e+00 0.0000e+00 1.0000e+00
       -2 -1    0    0    0  501 -0.0000000000e+00 -0.0000000000e+00 -1.3048967181e+03 1.3048967181e+03 0.0000000000e+00 0.0000e+00 -1.0000e+00
      -13  1    1    2    0    0 +9.8313894943e+02 +1.8076461637e+03 +9.6764191142e+01 2.0599781930e+03 0.0000000000e+00 0.0000e+00 -1.0000e+00
       13  1    1    2    0    0 -9.8313894943e+02 -1.8076461637e+03 +2.9509768479e+03 3.5975562822e+03 0.0000000000e+00 0.0000e+00 1.0000e+00
<mgrwt>
<rscale>  0 0.47664422E+04</rscale>
<asrwt>0</asrwt>
<pdfrwt beam="1">  1        2 0.66963657E+00 0.47664422E+04</pdfrwt>
<pdfrwt beam="2">  1       -2 0.20075334E+00 0.47664422E+04</pdfrwt>
<totfact> 0.15923449E-02</totfact>
</mgrwt>
<rwgt>
<wgt id='morphing_basis_vector_1'> +5.3974443e-06 </wgt>
<wgt id='morphing_basis_vector_2'> +3.7167531e-06 </wgt>
<wgt id='morphing_basis_vector_3'> +5.9538736e-06 </wgt>
<wgt id='morphing_basis_vector_4'> +4.2241379e-06 </wgt>
<wgt id='morphing_basis_vector_5'> +6.8102548e-06 </wgt>
</rwgt>
</event>
<event>
 4      1 +7.6845000e-11 5.01556200e+03 7.81860800e-03 7.38241700e-02
        2 -1    0    0  501    0 +0.0000000000e+00 +0.0000000000e+00 +2.3025118198e+03 2.3025118198e+03 0.0000000000e+00 0.0000e+00 -1.0000e+00
       -2 -1    0    0    0  501 -0.0000000000e+00 -0.0000000000e+00 -2.7313503589e+03 2.7313503589e+03 0.0000000000e+00 0.0000e+00 1.0000e+00
      -13  1    1    2    0    0 +6.2315457898e+02 +1.7474994502e+03 -1.9078485658e+03 2.6611956162e+03 0.0000000000e+00 0.0000e+00 1.0000e+00
       13  1    1    2    0    0 -6.2315457898e+02 -1.7474994502e+03 +1.4790100267e+03 2.3726665625e+03 0.0000000000e+00 0.0000e+00 -1.0000e+00
<mgrwt>
<rscale>  0 0.50155624E+04</rscale>
<asrwt>0</asrwt>
<pdfrwt beam="1">  1        2 0.35423259E+00 0.50155624E+04</pdfrwt>
<pdfrwt beam="2">  1       -2 0.42020774E+00 0.50155624E+04</pdfrwt>
<totfact> 0.16042985E-02</totfact>
</mgrwt>
<rwgt>
<wgt id='morphing_basis_vector_1'> +6.5942114e-06 </wgt>
<wgt id='morphing_basis_vector_2'> +4.5009700e-06 </wgt>
<wgt id='morphing_basis_vector_3'> +7.2691927e-06 </wgt>
<wgt id='morphing_basis_vector_4'> +5.2219451e-06 </wgt>
<wgt id='morphing_basis_vector_5'> +8.3585416e-06 </wgt>
</rwgt>
</event>
<event>
 4      1 +7.6845000e-11 4.63866900e+03 7.81860800e-03 7.43634800e-02
        2 -1    0    0  501    0 +0.0000000000e+00 +0.0000000000e+00 +2.7004413091e+03 2.7004413091e+03 0.0000000000e+00 0.0000e+00 1.0000e+00
       -2 -1    0    0    0  501 -0.0000000000e+00 -0.0000000000e+00 -1.9920125885e+03 1.9920125885e+03 0.0000000000e+00 0.0000e+00 -1.0000e+00
      -13  1    1    2    0    0 -1.6091914965e+03 -1.2929825604e+03 -7.1540639813e+02 2.1847442615e+03 0.0000000000e+00 0.0000e+00 -1.0000e+00
       13  1    1    2    0    0 +1.6091914965e+03 +1.2929825604e+03 +1.4238351187e+03 2.5077096361e+03 0.0000000000e+00 0.0000e+00 1.0000e+00
<mgrwt>
<rscale>  0 0.46386692E+04</rscale>
<asrwt>0</asrwt>
<pdfrwt beam="1">  1        2 0.41545251E+00 0.46386692E+04</pdfrwt>
<pdfrwt beam="2">  1       -2 0.30646347E+00 0.46386692E+04</pdfrwt>
<totfact> 0.52932229E-02</totfact>
</mgrwt>
<rwgt>
<wgt id='morphing_basis_vector_1'> +4.8494875e-06 </wgt>
<wgt id='morphing_basis_vector_2'> +3.3520783e-06 </wgt>
<wgt id='morphing_basis_vector_3'> +5.3504632e-06 </wgt>
<wgt id='morphing_basis_vector_4'> +3.7749250e-06 </wgt>
<wgt id='morphing_basis_vector_5'> +6.1054095e-06 </wgt>
</rwgt>
</event>
<event>
 4      1 +7.6845000e-11 5.43426000e+03 7.81860800e-03 7.32789300e-02
        2 -1    0    0  501    0 +0.0000000000e+00 +0.0000000000e+00 +3.3751259887e+03 3.3751259887e+03 0.0000000000e+00 0.0000e+00 -1.0000e+00
       -2 -1    0    0    0  501 -0.0000000000e+00 -0.0000000000e+00 -2.1874133756e+03 2.1874133756e+03 0.0000000000e+00 0.0000e+00 1.0000e+00
      -13  1    1    2    0    0 -1.7076114532e+02 -2.4251482021e+03 -6.4816696840e+02 2.5160730494e+03 0.0000000000e+00 0.0000e+00 1.0000e+00
       13  1    1    2    0    0 +1.7076114532e+02 +2.4251482021e+03 +1.8358795815e+03 3.0464663150e+03 0.0000000000e+00 0.0000e+00 -1.0000e+00
<mgrwt>
<rscale>  0 0.54342601E+04</rscale>
<asrwt>0</asrwt>
<pdfrwt beam="1">  1        2 0.51925015E+00 0.54342601E+04</pdfrwt>
<pdfrwt beam="2">  1       -2 0.33652514E+00 0.54342601E+04</pdfrwt>
<totfact> 0.11294281E-02</totfact>
</mgrwt>
<rwgt>
<wgt id='morphing_basis_vector_1'> +9.1179948e-06 </wgt>
<wgt id='morphing_basis_vector_2'> +6.3156813e-06 </wgt>
<wgt id='morphing_basis_vector_3'> +1.0081032e-05 </wgt>
<wgt id='morphing_basis_vector_4'> +7.1191653e-06 </wgt>
<wgt id='morphing_basis_vector_5'> +1.1522689e-05 </wgt>
</rwgt>
</event>
<event>
 4      1 +7.6845000e-11 5.25941500e+03 7.81860800e-03 7.35002800e-02
        2 -1    0    0  501    0 +0.0000000000e+00 +0.0000000000e+00 +3.7767550775e+03 3.7767550775e+03 0.0000000000e+00 0.0000e+00 1.0000e+00
       -2 -1    0    0    0  501 -0.0000000000e+00 -0.0000000000e+00 -1.8310326984e+03 1.8310326984e+03 0.0000000000e+00 0.0000e+00 -1.0000e+00
      -13  1    1    2    0    0 +5.9360087564e+02 +2.0239368806e+03 -7.0173646750e+02 2.2228622463e+03 0.0000000000e+00 0.0000e+00 -1.0000e+00
       13  1    1    2    0    0 -5.9360087564e+02 -2.0239368806e+03 +2.6474588466e+03 3.3849255295e+03 0.0000000000e+00 0.0000e+00 1.0000e+00
<mgrwt>
<rscale>  0 0.52594152E+04</rscale>
<asrwt>0</asrwt>
<pdfrwt beam="1">  1        2 0.58103924E+00 0.52594152E+04</pdfrwt>
<pdfrwt beam="2">  1       -2 0.28169734E+00 0.52594152E+04</pdfrwt>
<totfact> 0.13309510E-02</totfact>
</mgrwt>
<rwgt>
<wgt id='morphing_basis_vector_1'> +7.9766554e-06 </wgt>
<wgt id='morphing_basis_vector_2'> +5.4648705e-06 </wgt>
<wgt id='morphing_basis_vector_3'> +8.8022863e-06 </wgt>
<wgt id='morphing_basis_vector_4'> +6.3001321e-06 </wgt>
<wgt id='morphing_basis_vector_5'> +1.0110834e-05 </wgt>
</rwgt>
</event>
<event>
 4      1 +7.6845000e-11 4.68798600e+03 7.81860800e-03 7.42900400e-02
        2 -1    0    0  501    0 +0.0000000000e+00 +0.0000000000e+00 +3.9265629928e+03 3.9265629928e+03 0.0000000000e+00 0.0000e+00 1.0000e+00
       -2 -1    0    0    0  501 -0.0000000000e+00 -0.0000000000e+00 -1.3992651433e+03 1.3992651433e+03 0.0000000000e+00 0.0000e+00 -1.0000e+00
      -13  1    1    2    0    0 +3.5600738064e+02 +2.2451825518e+03 +6.1428735657e+02 2.3547685454e+03 0.0000000000e+00 0.0000e+00 -1.0000e+00
       13  1    1    2    0    0 -3.5600738064e+02 -2.2451825518e+03 +1.9130104928e+03 2.9710595907e+03 0.0000000000e+00 0.0000e+00 1.0000e+00
<mgrwt>
<rscale>  0 0.46879858E+04</rscale>
<asrwt>0</asrwt>
<pdfrwt beam="1">  1        2 0.60408661E+00 0.46879858E+04</pdfrwt>
<pdfrwt beam="2">  1       -2 0.21527156E+00 0.46879858E+04</pdfrwt>
<totfact> 0.30373245E-02</totfact>
</mgrwt>
<rwgt>
<wgt id='morphing_basis_vector_1'> +5.1029272e-06 </wgt>
<wgt id='morphing_basis_vector_2'> +3.6279994e-06 </wgt>
<wgt id='morphing_basis_vector_3'> +5.6539552e-06 </wgt>
<wgt id='morphing_basis_vector_4'> +3.8435501e-06 </wgt>
<wgt id='morphing_basis_vector_5'> +6.3622439e-06 </wgt>
</rwgt>
</event>
<event>
 4      1 +7.6845000e-11 4.72958100e+03 7.81860800e-03 7.42287900e-02
        2 -1    0    0  501    0 +0.0000000000e+00 +0.0000000000e+00 +2.0493095925e+03 2.0493095925e+03 0.0000000000e+00 0.0000e+00 1.0000e+00
       -2 -1    0    0    0  501 -0.0000000000e+00 -0.0000000000e+00 -2.7288385165e+03 2.7288385165e+03 0.0000000000e+00 0.0000e+00 -1.0000e+00
      -13  1    1    2    0    0 -2.3921072676e+02 -1.7206159142e+03 -1.9607638602e+03 2.6196060413e+03 0.0000000000e+00 0.0000e+00 -1.0000e+00
       13  1    1    2    0    0 +2.3921072676e+02 +1.7206159142e+03 +1.2812349363e+03 2.1585420677e+03 0.0000000000e+00 0.0000e+00 1.0000e+00
<mgrwt>
<rscale>  0 0.47295814E+04</rscale>
<asrwt>0</asrwt>
<pdfrwt beam="1">  1        2 0.31527840E+00 0.47295814E+04</pdfrwt>
<pdfrwt beam="2">  1       -2 0.41982131E+00 0.47295814E+04</pdfrwt>
<totfact> 0.23028085E-02</totfact>
</mgrwt>
<rwgt>
<wgt id='morphing_basis_vector_1'> +5.2179614e-06 </wgt>
<wgt id='morphing_basis_vector_2'> +3.5590998e-06 </wgt>
<wgt id='morphing_basis_vector_3'> +5.7475108e-06 </wgt>
<wgt id='morphing_basis_vector_4'> +4.1265367e-06 </wgt>
<wgt id='morphing_basis_vector_5'> +6.6039785e-06 </wgt>
</rwgt>
</event>
<event>
 4      1 +7.6845000e-11 4.78649700e+03 7.81860800e-03 7.41460100e-02
        2 -1    0    0  501    0 +0.0000000000e+00 +0.0000000000e+00 +1.9670557280e+03 1.9670557280e+03 0.0000000000e+00 0.0000e+00 1.0000e+00
       -2 -1    0    0    0  501 -0.0000000000e+00 -0.0000000000e+00 -2.9117822797e+03 2.9117822797e+03 0.0000000000e+00 0.0000e+00 -1.0000e+00
      -13  1    1    2    0    0 +5.1480955877e+02 -4.4001520404e+01 -2.8542533060e+03 2.9006425064e+03 0.0000000000e+00 0.0000e+00 -1.0000e+00
       13  1    1    2    0    0 -5.1480955877e+02 +4.4001520404e+01 +1.9095267543e+03 1.9781955012e+03 0.0000000000e+00 0.0000e+00 1.0000e+00
<mgrwt>
<rscale>  0 0.47864968E+04</rscale>
<asrwt>0</asrwt>
<pdfrwt beam="1">  1        2 0.30262396E+00 0.47864968E+04</pdfrwt>
<pdfrwt beam="2">  1       -2 0.44796651E+00 0.47864968E+04</pdfrwt>
<totfact> 0.16444104E-02</totfact>
</mgrwt>
<rwgt>
<wgt id='morphing_basis_vector_1'> +5.4646262e-06 </wgt>
<wgt id='morphing_basis_vector_2'> +3.7094124e-06 </wgt>
<wgt id='morphing_basis_vector_3'> +6.0159777e-06 </wgt>
<wgt id='morphing_basis_vector_4'> +4.3467870e-06 </wgt>
<wgt id='morphing_basis_vector_5'> +6.9302596e-06 </wgt>
</rwgt>
</event>
<event>
 4      1 +7.6845000e-11 4.76994700e+03 7.81860800e-03 7.41699600e-02
        2 -1    0    0  501    0 +0.0000000000e+00 +0.0000000000e+00 +2.7943691658e+03 2.7943691658e+03 0.0000000000e+00 0.0000e+00 -1.0000e+00
       -2 -1    0    0    0  501 -0.0000000000e+00 -0.0000000000e+00 -2.0355569249e+03 2.0355569249e+03 0.0000000000e+00 0.0000e+00 1.0000e+00
      -13  1    1    2    0    0 -6.3994640728e+02 -5.3915917437e+02 -1.8820318916e+03 2.0596766883e+03 0.0000000000e+00 0.0000e+00 1.0000e+00
       13  1    1    2    0    0 +6.3994640728e+02 +5.3915917437e+02 +2.6408441325e+03 2.7702494024e+03 0.0000000000e+00 0.0000e+00 -1.0000e+00
<mgrwt>
<rscale>  0 0.47699465E+04</rscale>
<asrwt>0</asrwt>
<pdfrwt beam="1">  1        2 0.42990295E+00 0.47699465E+04</pdfrwt>
<pdfrwt beam="2">  1       -2 0.31316260E+00 0.47699465E+04</pdfrwt>
<totfact> 0.41305860E-02</totfact>
</mgrwt>
<rwgt>
<wgt id='morphing_basis_vector_1'> +5.3899116e-06 </wgt>
<wgt id='morphing_basis_vector_2'> +3.6590503e-06 </wgt>
<wgt id='morphing_basis_vector_3'> +5.9335558e-06 </wgt>
<wgt id='morphing_basis_vector_4'> +4.2863386e-06 </wgt>
<wgt id='morphing_basis_vector_5'> +6.8345387e-06 </wgt>
</rwgt>
</event>
<event>
 4      1 +7.6845000e-11 4.94768900e+03 7.81860800e-03 7.39177000e-02
        2 -1    0    0  501    0 +0.0000000000e+00 +0.0000000000e+00 +4.7019633842e+03 4.7019633842e+03 0.0000000000e+00 0.0000e+00 1.0000e+00
       -2 -1    0    0    0  501 -0.0000000000e+00 -0.0000000000e+00 -1.3015638223e+03 1.3015638223e+03 0.0000000000e+00 0.0000e+00 -1.0000e+00
      -13  1    1    2    0    0 +1.7447900722e+03 -5.7795701036e+02 -3.0891381678e+02 1.8638010752e+03 0.0000000000e+00 0.0000e+00 -1.0000e+00
       13  1    1    2    0    0 -1.7447900722e+03 +5.7795701036e+02 +3.7093133787e+03 4.1397261314e+03 0.0000000000e+00 0.0000e+00 1.0000e+00
<mgrwt>
<rscale>  0 0.49476885E+04</rscale>
<asrwt>0</asrwt>
<pdfrwt beam="1">  1        2 0.72337897E+00 0.49476885E+04</pdfrwt>
<pdfrwt beam="2">  1       -2 0.20024059E+00 0.49476885E+04</pdfrwt>
<totfact> 0.68062549E-03</totfact>
</mgrwt>
<rwgt>
<wgt id='morphing_basis_vector_1'> +6.2458196e-06 </wgt>
<wgt id='morphing_basis_vector_2'> +4.2632696e-06 </wgt>
<wgt id='morphing_basis_vector_3'> +6.8841041e-06 </wgt>
<wgt id='morphing_basis_vector_4'> +4.9435920e-06 </wgt>
<wgt id='morphing_basis_vector_5'> +7.9137683e-06 </wgt>
</rwgt>
</event>
<event>
 4      1 +7.6845000e-11 5.05024700e+03 7.81860800e-03 7.37769600e-02
        2 -1    0    0  501    0 +0.0000000000e+00 +0.0000000000e+00 +4.1660318708e+03 4.1660318708e+03 0.0000000000e+00 0.0000e+00 -1.0000e+00
       -2 -1    0    0    0  501 -0.0000000000e+00 -0.0000000000e+00 -1.5305328076e+03 1.5305328076e+03 0.0000000000e+00 0.0000e+00 1.0000e+00
      -13  1    1    2    0    0 -1.5095948114e+03 +4.2754701154e+01 -9.6498926094e+02 1.7921798829e+03 0.0000000000e+00 0.0000e+00 1.0000e+00
       13  1    1    2    0    0 +1.5095948114e+03 -4.2754701154e+01 +3.6004883241e+03 3.9043847955e+03 0.0000000000e+00 0.0000e+00 -1.0000e+00
<mgrwt>
<rscale>  0 0.50502469E+04</rscale>
<asrwt>0</asrwt>
<pdfrwt beam="1">  1        2 0.64092798E+00 0.50502469E+04</pdfrwt>
<pdfrwt beam="2">  1       -2 0.23546659E+00 0.50502469E+04</pdfrwt>
<totfact> 0.13185823E-02</totfact>
</mgrwt>
<rwgt>
<wgt id='morphing_basis_vector_1'> +6.7707328e-06 </wgt>
<wgt id='morphing_basis_vector_2'> +4.6055238e-06 </wgt>
<wgt id='morphing_basis_vector_3'> +7.4606683e-06 </wgt>
<wgt id='morphing_basis_vector_4'> +5.3836508e-06 </wgt>
<wgt id='morphing_basis_vector_5'> +8.5941852e-06 </wgt>
</rwgt>
</event>
<event>
 4      1 +7.6845000e-11 4.72525000e+03 7.81860800e-03 7.42351400e-02
        2 -1    0    0  501    0 +0.0000000000e+00 +0.0000000000e+00 +1.8545841622e+03 1.8545841622e+03 0.0000000000e+00 0.0000e+00 -1.0000e+00
       -2 -1    0    0    0  501 -0.0000000000e+00 -0.0000000000e+00 -3.0098370919e+03 3.0098370919e+03 0.0000000000e+00 0.0000e+00 1.0000e+00
      -13  1    1    2    0    0 -1.5062038164e+03 -1.8032561383e+03 -3.2209488428e+02 2.3715243518e+03 0.0000000000e+00 0.0000e+00 -1.0000e+00
       13  1    1    2    0    0 +1.5062038164e+03 +1.8032561383e+03 -8.3315804538e+02 2.4928969023e+03 0.0000000000e+00 0.0000e+00 1.0000e+00
<mgrwt>
<rscale>  0 0.47252497E+04</rscale>
<asrwt>0</asrwt>
<pdfrwt beam="1">  1        2 0.28532064E+00 0.47252497E+04</pdfrwt>
<pdfrwt beam="2">  1       -2 0.46305186E+00 0.47252497E+04</pdfrwt>
<totfact> 0.14944617E-02</totfact>
</mgrwt>
<rwgt>
<wgt id='morphing_basis_vector_1'> +5.4680706e-06 </wgt>
<wgt id='morphing_basis_vector_2'> +4.3365955e-06 </wgt>
<wgt id='morphing_basis_vector_3'> +6.1621844e-06 </wgt>
<wgt id='morphing_basis_vector_4'> +3.5388467e-06 </wgt>
<wgt id='morphing_basis_vector_5'> +6.5317989e-06 </wgt>
</rwgt>
</event>
<event>
 4      1 +7.6845000e-11 4.85375300e+03 7.81860800e-03 7.40496700e-02
        2 -1    0    0  501    0 +0.0000000000e+00 +0.0000000000e+00 +4.0692801825e+03 4.0692801825e+03 0.0000000000e+00 0.0000e+00 -1.0000e+00
       -2 -1    0    0    0  501 -0.0000000000e+00 -0.0000000000e+00 -1.4473638661e+03 1.4473638661e+03 0.0000000000e+00 0.0000e+00 1.0000e+00
      -13  1    1    2    0    0 +1.2608784815e+03 -1.2516198632e+03 -5.6812458886e+02 1.8652432484e+03 0.0000000000e+00 0.0000e+00 1.0000e+00
       13  1    1    2    0    0 -1.2608784815e+03 +1.2516198632e+03 +3.1900409052e+03 3.6514008003e+03 0.0000000000e+00 0.0000e+00 -1.0000e+00
<mgrwt>
<rscale>  0 0.48537528E+04</rscale>
<asrwt>0</asrwt>
<pdfrwt beam="1">  1        2 0.62604310E+00 0.48537528E+04</pdfrwt>
<pdfrwt beam="2">  1       -2 0.22267137E+00 0.48537528E+04</pdfrwt>
<totfact> 0.20079747E-02</totfact>
</mgrwt>
<rwgt>
<wgt id='morphing_basis_vector_1'> +5.7855763e-06 </wgt>
<wgt id='morphing_basis_vector_2'> +3.9467536e-06 </wgt>
<wgt id='morphing_basis_vector_3'> +6.3748575e-06 </wgt>
<wgt id='morphing_basis_vector_4'> +4.5792286e-06 </wgt>
<wgt id='morphing_basis_vector_5'> +7.3279549e-06 </wgt>
</rwgt>
</event>
<event>
 4      1 +7.6845000e-11 4.65251000e+03 7.81860800e-03 7.43427800e-02
        2 -1    0    0  501    0 +0.0000000000e+00 +0.0000000000e+00 +2.2454971173e+03 2.2454971173e+03 0.0000000000e+00 0.0000e+00 -1.0000e+00
       -2 -1    0    0    0  501 -0.0000000000e+00 -0.0000000000e+00 -2.4099177009e+03 2.4099177009e+03 0.0000000000e+00 0.0000e+00 1.0000e+00
      -13  1    1    2    0    0 -3.6679582503e+02 -2.3712905298e+02 -2.3685204545e+03 2.4084556272e+03 0.0000000000e+00 0.0000e+00 1.0000e+00
       13  1    1    2    0    0 +3.6679582503e+02 +2.3712905298e+02 +2.2040998709e+03 2.2469591910e+03 0.0000000000e+00 0.0000e+00 -1.0000e+00
<mgrwt>
<rscale>  0 0.46525104E+04</rscale>
<asrwt>0</asrwt>
<pdfrwt beam="1">  1        2 0.34546110E+00 0.46525104E+04</pdfrwt>
<pdfrwt beam="2">  1       -2 0.37075657E+00 0.46525104E+04</pdfrwt>
<totfact> 0.37400161E-02</totfact>
</mgrwt>
<rwgt>
<wgt id='morphing_basis_vector_1'> +4.8799976e-06 </wgt>
<wgt id='morphing_basis_vector_2'> +3.3116946e-06 </wgt>
<wgt id='morphing_basis_vector_3'> +5.3702583e-06 </wgt>
<wgt id='morphing_basis_vector_4'> +3.8786262e-06 </wgt>
<wgt id='morphing_basis_vector_5'> +6.1837548e-06 </wgt>
</rwgt>
</event>
<event>
 4      1 +7.6845000e-11 4.82119200e+03 7.81860800e-03 7.40961100e-02
        2 -1    0    0  501    0 +0.0000000000e+00 +0.0000000000e+00 +4.3652760947e+03 4.3652760947e+03 0.0000000000e+00 0.0000e+00 -1.0000e+00
       -2 -1    0    0    0  501 -0.0000000000e+00 -0.0000000000e+00 -1.3311813132e+03 1.3311813132e+03 0.0000000000e+00 0.0000e+00 1.0000e+00
      -13  1    1    2    0    0 +1.0352336487e+02 -2.1739286840e+03 +2.9239917694e+02 2.1959463311e+03 0.0000000000e+00 0.0000e+00 1.0000e+00
       13  1    1    2    0    0 -1.0352336487e+02 +2.1739286840e+03 +2.7416956047e+03 3.5005110768e+03 0.0000000000e+00 0.0000e+00 -1.0000e+00
<mgrwt>
<rscale>  0 0.48211924E+04</rscale>
<asrwt>0</asrwt>
<pdfrwt beam="1">  1        2 0.67158093E+00 0.48211924E+04</pdfrwt>
<pdfrwt beam="2">  1       -2 0.20479713E+00 0.48211924E+04</pdfrwt>
<totfact> 0.14402158E-02</totfact>
</mgrwt>
<rwgt>
<wgt id='morphing_basis_vector_1'> +5.6600777e-06 </wgt>
<wgt id='morphing_basis_vector_2'> +3.9232921e-06 </wgt>
<wgt id='morphing_basis_vector_3'> +6.2503682e-06 </wgt>
<wgt id='morphing_basis_vector_4'> +4.3983105e-06 </wgt>
<wgt id='morphing_basis_vector_5'> +7.1277099e-06 </wgt>
</rwgt>
</event>
<event>
 4      1 +7.6845000e-11 4.74925500e+03 7.81860800e-03 7.42000500e-02
        2 -1    0    0  501    0 +0.0000000000e+00 +0.0000000000e+00 +4.2871968190e+03 4.2871968190e+03 0.0000000000e+00 0.0000e+00 1.0000e+00
       -2 -1    0    0    0  501 -0.0000000000e+00 -0.0000000000e+00 -1.3152779680e+03 1.3152779680e+03 0.0000000000e+00 0.0000e+00 -1.0000e+00
      -13  1    1    2    0    0 +4.1841407991e+02 +1.6583266184e+03 +3.4292528892e+03 3.8320872764e+03 0.0000000000e+00 0.0000e+00 1.0000e+00
       13  1    1    2    0    0 -4.1841407991e+02 -1.6583266184e+03 -4.5733403820e+02 1.7703875107e+03 0.0000000000e+00 0.0000e+00 -1.0000e+00
<mgrwt>
<rscale>  0 0.47492549E+04</rscale>
<asrwt>0</asrwt>
<pdfrwt beam="1">  1        2 0.65956873E+00 0.47492549E+04</pdfrwt>
<pdfrwt beam="2">  1       -2 0.20235046E+00 0.47492549E+04</pdfrwt>
<totfact> 0.17941608E-02</totfact>
</mgrwt>
<rwgt>
<wgt id='morphing_basis_vector_1'> +6.8123034e-06 </wgt>
<wgt id='morphing_basis_vector_2'> +8.0458332e-06 </wgt>
<wgt id='morphing_basis_vector_3'> +8.2844611e-06 </wgt>
<wgt id='morphing_basis_vector_4'> +9.8878431e-07 </wgt>
<wgt id='morphing_basis_vector_5'> +6.4464068e-06 </wgt>
</rwgt>
</event>
<event>
 4      1 +7.6845000e-11 4.88688900e+03 7.81860800e-03 7.40027800e-02
        2 -1    0    0  501    0 +0.0000000000e+00 +0.0000000000e+00 +3.3530492201e+03 3.3530492201e+03 0.0000000000e+00 0.0000e+00 1.0000e+00
       -2 -1    0    0    0  501 -0.0000000000e+00 -0.0000000000e+00 -1.7805947443e+03 1.7805947443e+03 0.0000000000e+00 0.0000e+00 -1.0000e+00
      -13  1    1    2    0    0 -8.9818567314e+02 -8.7663729406e+02 -1.4161014535e+03 1.8922404116e+03 0.0000000000e+00 0.0000e+00 -1.0000e+00
       13  1    1    2    0    0 +8.9818567314e+02 +8.7663729406e+02 +2.9885559293e+03 3.2414035527e+03 0.0000000000e+00 0.0000e+00 1.0000e+00
<mgrwt>
<rscale>  0 0.48868893E+04</rscale>
<asrwt>0</asrwt>
<pdfrwt beam="1">  1        2 0.51585372E+00 0.48868893E+04</pdfrwt>
<pdfrwt beam="2">  1       -2 0.27393765E+00 0.48868893E+04</pdfrwt>
<totfact> 0.32083823E-02</totfact>
</mgrwt>
<rwgt>
<wgt id='morphing_basis_vector_1'> +5.9373652e-06 </wgt>
<wgt id='morphing_basis_vector_2'> +4.0341417e-06 </wgt>
<wgt id='morphing_basis_vector_3'> +6.5389100e-06 </wgt>
<wgt id='morphing_basis_vector_4'> +4.7214596e-06 </wgt>
<wgt id='morphing_basis_vector_5'> +7.5321067e-06 </wgt>
</rwgt>
</event>
<event>
 4      1 +7.6845000e-11 4.80981000e+03 7.81860800e-03 7.41124400e-02
        2 -1    0    0  501    0 +0.0000000000e+00 +0.0000000000e+00 +3.7568242286e+03 3.7568242286e+03 0.0000000000e+00 0.0000e+00 -1.0000e+00
       -2 -1    0    0    0  501 -0.0000000000e+00 -0.0000000000e+00 -1.5394835091e+03 1.5394835091e+03 0.0000000000e+00 0.0000e+00 1.0000e+00
      -13  1    1    2    0    0 +1.6452691498e+03 -7.9282477508e+02 -6.1422421323e+02 1.9268505607e+03 0.0000000000e+00 0.0000e+00 1.0000e+00
       13  1    1    2    0    0 -1.6452691498e+03 +7.9282477508e+02 +2.8315649328e+03 3.3694571770e+03 0.0000000000e+00 0.0000e+00 -1.0000e+00
<mgrwt>
<rscale>  0 0.48098104E+04</rscale>
<asrwt>0</asrwt>
<pdfrwt beam="1">  1        2 0.57797296E+00 0.48098104E+04</pdfrwt>
<pdfrwt beam="2">  1       -2 0.23684362E+00 0.48098104E+04</pdfrwt>
<totfact> 0.29085318E-02</totfact>
</mgrwt>
<rwgt>
<wgt id='morphing_basis_vector_1'> +5.5816035e-06 </wgt>
<wgt id='morphing_basis_vector_2'> +3.8118237e-06 </wgt>
<wgt id='morphing_basis_vector_3'> +6.1504079e-06 </wgt>
<wgt id='morphing_basis_vector_4'> +4.4108506e-06 </wgt>
<wgt id='morphing_basis_vector_5'> +7.0649392e-06 </wgt>
</rwgt>
</event>
<event>
 4      1 +7.6845000e-11 5.13918000e+03 7.81860800e-03 7.36576800e-02
        2 -1    0    0  501    0 +0.0000000000e+00 +0.0000000000e+00 +1.8002298077e+03 1.8002298077e+03 0.0000000000e+00 0.0000e+00 1.0000e+00
       -2 -1    0    0    0  501 -0.0000000000e+00 -0.0000000000e+00 -3.6677495258e+03 3.6677495258e+03 0.0000000000e+00 0.0000e+00 -1.0000e+00
      -13  1    1    2    0    0 -1.8263814335e+03 -8.5753282098e+02 -2.6267107345e+03 3.3121957917e+03 0.0000000000e+00 0.0000e+00 -1.0000e+00
       13  1    1    2    0    0 +1.8263814335e+03 +8.5753282098e+02 +7.5919101640e+02 2.1557835418e+03 0.0000000000e+00 0.0000e+00 1.0000e+00
<mgrwt>
<rscale>  0 0.51391797E+04</rscale>
<asrwt>0</asrwt>
<pdfrwt beam="1">  1        2 0.27695843E+00 0.51391797E+04</pdfrwt>
<pdfrwt beam="2">  1       -2 0.56426916E+00 0.51391797E+04</pdfrwt>
<totfact> 0.27995266E-03</totfact>
</mgrwt>
<rwgt>
<wgt id='morphing_basis_vector_1'> +7.2714925e-06 </wgt>
<wgt id='morphing_basis_vector_2'> +4.9754591e-06 </wgt>
<wgt id='morphing_basis_vector_3'> +8.0207459e-06 </wgt>
<wgt id='morphing_basis_vector_4'> +5.7471278e-06 </wgt>
<wgt id='morphing_basis_vector_5'> +9.2154188e-06 </wgt>
</rwgt>
</event>
<event>
 4      1 +7.6845000e-11 4.64315900e+03 7.81860800e-03 7.43567600e-02
        2 -1    0    0  501    0 +0.0000000000e+00 +0.0000000000e+00 +2.4353631488e+03 2.4353631488e+03 0.0000000000e+00 0.0000e+00 1.0000e+00
       -2 -1    0    0    0  501 -0.0000000000e+00 -0.0000000000e+00 -2.2131116591e+03 2.2131116591e+03 0.0000000000e+00 0.0000e+00 -1.0000e+00
      -13  1    1    2    0    0 +1.5341396111e+03 +1.6059292284e+03 -5.6576784919e+02 2.2918739695e+03 0.0000000000e+00 0.0000e+00 -1.0000e+00
       13  1    1    2    0    0 -1.5341396111e+03 -1.6059292284e+03 +7.8801933890e+02 2.3566008384e+03 0.0000000000e+00 0.0000e+00 1.0000e+00
<mgrwt>
<rscale>  0 0.46431587E+04</rscale>
<asrwt>0</asrwt>
<pdfrwt beam="1">  1        2 0.37467125E+00 0.46431587E+04</pdfrwt>
<pdfrwt beam="2">  1       -2 0.34047872E+00 0.46431587E+04</pdfrwt>
<totfact> 0.45510920E-02</totfact>
</mgrwt>
<rwgt>
<wgt id='morphing_basis_vector_1'> +4.8986861e-06 </wgt>
<wgt id='morphing_basis_vector_2'> +3.4545555e-06 </wgt>
<wgt id='morphing_basis_vector_3'> +5.4204900e-06 </wgt>
<wgt id='morphing_basis_vector_4'> +3.7248261e-06 </wgt>
<wgt id='morphing_basis_vector_5'> +6.1237452e-06 </wgt>
</rwgt>
</event>
<event>
 4      1 +7.6845000e-11 5.25872900e+03 7.81860800e-03 7.35011600e-02
        2 -1    0    0  501    0 +0.0000000000e+00 +0.0000000000e+00 +2.4921001646e+03 2.4921001646e+03 0.0000000000e+00 0.0000e+00 1.0000e+00
       -2 -1    0    0    0  501 -0.0000000000e+00 -0.0000000000e+00 -2.7741894284e+03 2.7741894284e+03 0.0000000000e+00 0.0000e+00 -1.0000e+00
      -13  1    1    2    0    0 -1.5598398778e+03 +1.8430220707e+03 -1.1835634716e+03 2.6889874096e+03 0.0000000000e+00 0.0000e+00 -1.0000e+00
       13  1    1    2    0    0 +1.5598398778e+03 -1.8430220707e+03 +9.0147420778e+02 2.5773021834e+03 0.0000000000e+00 0.0000e+00 1.0000e+00
<mgrwt>
<rscale>  0 0.52587291E+04</rscale>
<asrwt>0</asrwt>
<pdfrwt beam="1">  1        2 0.38340002E+00 0.52587291E+04</pdfrwt>
<pdfrwt beam="2">  1       -2 0.42679838E+00 0.52587291E+04</pdfrwt>
<totfact> 0.11009904E-02</totfact>
</mgrwt>
<rwgt>
<wgt id='morphing_basis_vector_1'> +8.0116140e-06 </wgt>
<wgt id='morphing_basis_vector_2'> +5.5768508e-06 </wgt>
<wgt id='morphing_basis_vector_3'> +8.8612827e-06 </wgt>
<wgt id='morphing_basis_vector_4'> +6.2134062e-06 </wgt>
<wgt id='morphing_basis_vector_5'> +1.0098543e-05 </wgt>
</rwgt>
</event>
<event>
 4      1 +7.6845000e-11 4.98397100e+03 7.81860800e-03 7.38675100e-02
        2 -1    0    0  501    0 +0.0000000000e+00 +0.0000000000e+00 +2.4200295012e+03 2.4200295012e+03 0.0000000000e+00 0.0000e+00 -1.0000e+00
       -2 -1    0    0    0  501 -0.0000000000e+00 -0.0000000000e+00 -2.5660808463e+03 2.5660808463e+03 0.0000000000e+00 0.0000e+00 1.0000e+00
      -13  1    1    2    0    0 -8.1541134250e+02 -3.3062221775e+02 -2.4055034433e+03 2.5613772710e+03 0.0000000000e+00 0.0000e+00 1.0000e+00
       13  1    1    2    0    0 +8.1541134250e+02 +3.3062221775e+02 +2.2594520982e+03 2.4247330765e+03 0.0000000000e+00 0.0000e+00 -1.0000e+00
<mgrwt>
<rscale>  0 0.49839708E+04</rscale>
<asrwt>0</asrwt>
<pdfrwt beam="1">  1        2 0.37231223E+00 0.49839708E+04</pdfrwt>
<pdfrwt beam="2">  1       -2 0.39478167E+00 0.49839708E+04</pdfrwt>
<totfact> 0.20170656E-02</totfact>
</mgrwt>
<rwgt>
<wgt id='morphing_basis_vector_1'> +6.4204655e-06 </wgt>
<wgt id='morphing_basis_vector_2'> +4.3602854e-06 </wgt>
<wgt id='morphing_basis_vector_3'> +7.0720618e-06 </wgt>
<wgt id='morphing_basis_vector_4'> +5.1118913e-06 </wgt>
<wgt id='morphing_basis_vector_5'> +8.1510110e-06 </wgt>
</rwgt>
</event>
<event>
 4      1 +7.6845000e-11 4.64915700e+03 7.81860800e-03 7.43477900e-02
        2 -1    0    0  501    0 +0.0000000000e+00 +0.0000000000e+00 +2.5966179684e+03 2.5966179684e+03 0.0000000000e+00 0.0000e+00 -1.0000e+00
       -2 -1    0    0    0  501 -0.0000000000e+00 -0.0000000000e+00 -2.0810398484e+03 2.0810398484e+03 0.0000000000e+00 0.0000e+00 1.0000e+00
      -13  1    1    2    0    0 -1.2903068098e+03 +1.8729852942e+03 -2.2546767723e+02 2.2855636612e+03 0.0000000000e+00 0.0000e+00 1.0000e+00
       13  1    1    2    0    0 +1.2903068098e+03 -1.8729852942e+03 +7.4104579725e+02 2.3920941557e+03 0.0000000000e+00 0.0000e+00 -1.0000e+00
<mgrwt>
<rscale>  0 0.46491571E+04</rscale>
<asrwt>0</asrwt>
<pdfrwt beam="1">  1        2 0.39947969E+00 0.46491571E+04</pdfrwt>
<pdfrwt beam="2">  1       -2 0.32015997E+00 0.46491571E+04</pdfrwt>
<totfact> 0.49587064E-02</totfact>
</mgrwt>
<rwgt>
<wgt id='morphing_basis_vector_1'> +4.9480183e-06 </wgt>
<wgt id='morphing_basis_vector_2'> +3.5431026e-06 </wgt>
<wgt id='morphing_basis_vector_3'> +5.4874826e-06 </wgt>
<wgt id='morphing_basis_vector_4'> +3.6930089e-06 </wgt>
<wgt id='morphing_basis_vector_5'> +6.1512855e-06 </wgt>
</rwgt>
</event>
<event>
 4      1 +7.6845000e-11 4.67150000e+03 7.81860800e-03 7.43144900e-02
        2 -1    0    0  501    0 +0.0000000000e+00 +0.0000000000e+00 +4.1658133993e+03 4.1658133993e+03 0.0000000000e+00 0.0000e+00 1.0000e+00
       -2 -1    0    0    0  501 -0.0000000000e+00 -0.0000000000e+00 -1.3096431557e+03 1.3096431557e+03 0.0000000000e+00 0.0000e+00 -1.0000e+00
      -13  1    1    2    0    0 +1.3585095444e+03 -9.1445228239e+02 -5.2406798077e+02 1.7194238592e+03 0.0000000000e+00 0.0000e+00 -1.0000e+00
       13  1    1    2    0    0 -1.3585095444e+03 +9.1445228239e+02 +3.3802382243e+03 3.7560326958e+03 0.0000000000e+00 0.0000e+00 1.0000e+00
<mgrwt>
<rscale>  0 0.46715004E+04</rscale>
<asrwt>0</asrwt>
<pdfrwt beam="1">  1        2 0.64089437E+00 0.46715004E+04</pdfrwt>
<pdfrwt beam="2">  1       -2 0.20148356E+00 0.46715004E+04</pdfrwt>
<totfact> 0.23725106E-02</totfact>
</mgrwt>
<rwgt>
<wgt id='morphing_basis_vector_1'> +4.9655069e-06 </wgt>
<wgt id='morphing_basis_vector_2'> +3.3826143e-06 </wgt>
<wgt id='morphing_basis_vector_3'> +5.4675968e-06 </wgt>
<wgt id='morphing_basis_vector_4'> +3.9305503e-06 </wgt>
<wgt id='morphing_basis_vector_5'> +6.2847026e-06 </wgt>
</rwgt>
</event>
<event>
 4      1 +7.6845000e-11 5.51215500e+03 7.81860800e-03 7.31830400e-02
        2 -1    0    0  501    0 +0.0000000000e+00 +0.0000000000e+00 +3.8243935776e+03 3.8243935776e+03 0.0000000000e+00 0.0000e+00 1.0000e+00
       -2 -1    0    0    0  501 -0.0000000000e+00 -0.0000000000e+00 -1.9861875958e+03 1.9861875958e+03 0.0000000000e+00 0.0000e+00 -1.0000e+00
      -13  1    1    2    0    0 +1.6186036403e+03 +1.6948195863e+03 -6.0982544604e+02 2.4216065430e+03 0.0000000000e+00 0.0000e+00 -1.0000e+00
       13  1    1    2    0    0 -1.6186036403e+03 -1.6948195863e+03 +2.4480314278e+03 3.3889746305e+03 0.0000000000e+00 0.0000e+00 1.0000e+00
<mgrwt>
<rscale>  0 0.55121550E+04</rscale>
<asrwt>0</asrwt>
<pdfrwt beam="1">  1        2 0.58836824E+00 0.55121550E+04</pdfrwt>
<pdfrwt beam="2">  1       -2 0.30556732E+00 0.55121550E+04</pdfrwt>
<totfact> 0.82500196E-03</totfact>
</mgrwt>
<rwgt>
<wgt id='morphing_basis_vector_1'> +9.6315253e-06 </wgt>
<wgt id='morphing_basis_vector_2'> +6.6291521e-06 </wgt>
<wgt id='morphing_basis_vector_3'> +1.0640399e-05 </wgt>
<wgt id='morphing_basis_vector_4'> +7.5781107e-06 </wgt>
<wgt id='morphing_basis_vector_5'> +1.2202957e-05 </wgt>
</rwgt>
</event>
<event>
 4      1 +7.6845000e-11 4.69046500e+03 7.81860800e-03 7.42863700e-02
        2 -1    0    0  501    0 +0.0000000000e+00 +0.0000000000e+00 +2.9827055177e+03 2.9827055177e+03 0.0000000000e+00 0.0000e+00 -1.0000e+00
       -2 -1    0    0    0  501 -0.0000000000e+00 -0.0000000000e+00 -1.8440019914e+03 1.8440019914e+03 0.0000000000e+00 0.0000e+00 1.0000e+00
      -13  1    1    2    0    0 +2.9066568387e+02 +9.9022567953e+02 -1.5977829370e+03 1.9020893118e+03 0.0000000000e+00 0.0000e+00 1.0000e+00
       13  1    1    2    0    0 -2.9066568387e+02 -9.9022567953e+02 +2.7364864633e+03 2.9246181973e+03 0.0000000000e+00 0.0000e+00 -1.0000e+00
<mgrwt>
<rscale>  0 0.46904648E+04</rscale>
<asrwt>0</asrwt>
<pdfrwt beam="1">  1        2 0.45887777E+00 0.46904648E+04</pdfrwt>
<pdfrwt beam="2">  1       -2 0.28369261E+00 0.46904648E+04</pdfrwt>
<totfact> 0.49787107E-02</totfact>
</mgrwt>
<rwgt>
<wgt id='morphing_basis_vector_1'> +5.0411591e-06 </wgt>
<wgt id='morphing_basis_vector_2'> +3.4226228e-06 </wgt>
<wgt id='morphing_basis_vector_3'> +5.5485428e-06 </wgt>
<wgt id='morphing_basis_vector_4'> +4.0059806e-06 </wgt>
<wgt id='morphing_basis_vector_5'> +6.3886731e-06 </wgt>
</rwgt>
</event>
<event>
 4      1 +7.6845000e-11 4.75581900e+03 7.81860800e-03 7.41904900e-02
        2 -1    0    0  501    0 +0.0000000000e+00 +0.0000000000e+00 +2.3673730166e+03 2.3673730166e+03 0.0000000000e+00 0.0000e+00 -1.0000e+00
       -2 -1    0    0    0  501 -0.0000000000e+00 -0.0000000000e+00 -2.3884925347e+03 2.3884925347e+03 0.0000000000e+00 0.0000e+00 1.0000e+00
      -13  1    1    2    0    0 +2.1994916048e+03 +9.0299226809e+02 -4.6538177916e+01 2.3780925461e+03 0.0000000000e+00 0.0000e+00 1.0000e+00
       13  1    1    2    0    0 -2.1994916048e+03 -9.0299226809e+02 +2.5418659821e+01 2.3777730052e+03 0.0000000000e+00 0.0000e+00 -1.0000e+00
<mgrwt>
<rscale>  0 0.47558187E+04</rscale>
<asrwt>0</asrwt>
<pdfrwt beam="1">  1        2 0.36421124E+00 0.47558187E+04</pdfrwt>
<pdfrwt beam="2">  1       -2 0.36746039E+00 0.47558187E+04</pdfrwt>
<totfact> 0.33100049E-02</totfact>
</mgrwt>
<rwgt>
<wgt id='morphing_basis_vector_1'> +5.5119253e-06 </wgt>
<wgt id='morphing_basis_vector_2'> +4.1603832e-06 </wgt>
<wgt id='morphing_basis_vector_3'> +6.1637525e-06 </wgt>
<wgt id='morphing_basis_vector_4'> +3.8412079e-06 </wgt>
<wgt id='morphing_basis_vector_5'> +6.7206209e-06 </wgt>
</rwgt>
</event>
<event>
 4      1 +7.6845000e-11 4.72863900e+03 7.81860800e-03 7.42301700e-02
        2 -1    0    0  501    0 +0.0000000000e+00 +0.0000000000e+00 +3.5143104210e+03 3.5143104210e+03 0.0000000000e+00 0.0000e+00 1.0000e+00
       -2 -1    0    0    0  501 -0.0000000000e+00 -0.0000000000e+00 -1.5906413210e+03 1.5906413210e+03 0.0000000000e+00 0.0000e+00 -1.0000e+00
      -13  1    1    2    0    0 +1.0620691871e+03 +5.8337825072e+02 -1.2299250561e+03 1.7265679208e+03 0.0000000000e+00 0.0000e+00 -1.0000e+00
       13  1    1    2    0    0 -1.0620691871e+03 -5.8337825072e+02 +3.1535941561e+03 3.3783838211e+03 0.0000000000e+00 0.0000e+00 1.0000e+00
<mgrwt>
<rscale>  0 0.47286393E+04</rscale>
<asrwt>0</asrwt>
<pdfrwt beam="1">  1        2 0.54066314E+00 0.47286393E+04</pdfrwt>
<pdfrwt beam="2">  1       -2 0.24471405E+00 0.47286393E+04</pdfrwt>
<totfact> 0.39499162E-02</totfact>
</mgrwt>
<rwgt>
<wgt id='morphing_basis_vector_1'> +5.2072777e-06 </wgt>
<wgt id='morphing_basis_vector_2'> +3.5370515e-06 </wgt>
<wgt id='morphing_basis_vector_3'> +5.7323414e-06 </wgt>
<wgt id='morphing_basis_vector_4'> +4.1371577e-06 </wgt>
<wgt id='morphing_basis_vector_5'> +6.5998651e-06 </wgt>
</rwgt>
</event>
<event>
 4      1 +7.6845000e-11 4.78613800e+03 7.81860800e-03 7.41465300e-02
        2 -1    0    0  501    0 +0.0000000000e+00 +0.0000000000e+00 +2.9264975871e+03 2.9264975871e+03 0.0000000000e+00 0.0000e+00 1.0000e+00
       -2 -1    0    0    0  501 -0.0000000000e+00 -0.0000000000e+00 -1.9568714526e+03 1.9568714526e+03 0.0000000000e+00 0.0000e+00 -1.0000e+00
      -13  1    1    2    0    0 +1.0805049462e+03 +6.5403740166e+02 -1.5890947145e+03 2.0298960252e+03 0.0000000000e+00 0.0000e+00 -1.0000e+00
       13  1    1    2    0    0 -1.0805049462e+03 -6.5403740166e+02 +2.5587208490e+03 2.8534730145e+03 0.0000000000e+00 0.0000e+00 1.0000e+00
<mgrwt>
<rscale>  0 0.47861381E+04</rscale>
<asrwt>0</asrwt>
<pdfrwt beam="1">  1        2 0.45023040E+00 0.47861381E+04</pdfrwt>
<pdfrwt beam="2">  1       -2 0.30105715E+00 0.47861381E+04</pdfrwt>
<totfact> 0.40996725E-02</totfact>
</mgrwt>
<rwgt>
<wgt id='morphing_basis_vector_1'> +5.4644419e-06 </wgt>
<wgt id='morphing_basis_vector_2'> +3.7125543e-06 </wgt>
<wgt id='morphing_basis_vector_3'> +6.0165200e-06 </wgt>
<wgt id='morphing_basis_vector_4'> +4.3423987e-06 </wgt>
<wgt id='morphing_basis_vector_5'> +6.9279172e-06 </wgt>
</rwgt>
</event>
<event>
 4      1 +7.6845000e-11 4.86755300e+03 7.81860800e-03 7.40300900e-02
        2 -1    0    0  501    0 +0.0000000000e+00 +0.0000000000e+00 +2.5811013498e+03 2.5811013498e+03 0.0000000000e+00 0.0000e+00 1.0000e+00
       -2 -1    0    0    0  501 -0.0000000000e+00 -0.0000000000e+00 -2.2948611345e+03 2.2948611345e+03 0.0000000000e+00 0.0000e+00 -1.0000e+00
      -13  1    1    2    0    0 -1.1036000017e+03 +1.0257278765e+03 -1.7715213191e+03 2.3255834589e+03 0.0000000000e+00 0.0000e+00 -1.0000e+00
       13  1    1    2    0    0 +1.1036000017e+03 -1.0257278765e+03 +2.0577615344e+03 2.5503790254e+03 0.0000000000e+00 0.0000e+00 1.0000e+00
<mgrwt>
<rscale>  0 0.48675535E+04</rscale>
<asrwt>0</asrwt>
<pdfrwt beam="1">  1        2 0.39709252E+00 0.48675535E+04</pdfrwt>
<pdfrwt beam="2">  1       -2 0.35305556E+00 0.48675535E+04</pdfrwt>
<totfact> 0.30321334E-02</totfact>
</mgrwt>
<rwgt>
<wgt id='morphing_basis_vector_1'> +5.8463247e-06 </wgt>
<wgt id='morphing_basis_vector_2'> +3.9767852e-06 </wgt>
<wgt id='morphing_basis_vector_3'> +6.4393832e-06 </wgt>
<wgt id='morphing_basis_vector_4'> +4.6425672e-06 </wgt>
<wgt id='morphing_basis_vector_5'> +7.4128457e-06 </wgt>
</rwgt>
</event>
<event>
 4      1 +7.6845000e-11 5.20870500e+03 7.81860800e-03 7.35661300e-02
        2 -1    0    0  501    0 +0.0000000000e+00 +0.0000000000e+00 +3.0322826540e+03 3.0322826540e+03 0.0000000000e+00 0.0000e+00 -1.0000e+00
       -2 -1    0    0    0  501 -0.0000000000e+00 -0.0000000000e+00 -2.2368139385e+03 2.2368139385e+03 0.0000000000e+00 0.0000e+00 1.0000e+00
      -13  1    1    2    0    0 +5.8692365321e+02 +5.8663535173e+02 -2.0994968164e+03 2.2575445273e+03 0.0000000000e+00 0.0000e+00 1.0000e+00
       13  1    1    2    0    0 -5.8692365321e+02 -5.8663535173e+02 +2.8949655319e+03 3.0115520652e+03 0.0000000000e+00 0.0000e+00 -1.0000e+00
<mgrwt>
<rscale>  0 0.52087051E+04</rscale>
<asrwt>0</asrwt>
<pdfrwt beam="1">  1        2 0.46650503E+00 0.52087051E+04</pdfrwt>
<pdfrwt beam="2">  1       -2 0.34412522E+00 0.52087051E+04</pdfrwt>
<totfact> 0.17554497E-02</totfact>
</mgrwt>
<rwgt>
<wgt id='morphing_basis_vector_1'> +7.6548036e-06 </wgt>
<wgt id='morphing_basis_vector_2'> +5.2000401e-06 </wgt>
<wgt id='morphing_basis_vector_3'> +8.4360025e-06 </wgt>
<wgt id='morphing_basis_vector_4'> +6.1016324e-06 </wgt>
<wgt id='morphing_basis_vector_5'> +9.7288969e-06 </wgt>
</rwgt>
</event>
<event>
 4      1 +7.6845000e-11 4.70005500e+03 7.81860800e-03 7.42722000e-02
        2 -1    0    0  501    0 +0.0000000000e+00 +0.0000000000e+00 +3.9454338310e+03 3.9454338310e+03 0.0000000000e+00 0.0000e+00 -1.0000e+00
       -2 -1    0    0    0  501 -0.0000000000e+00 -0.0000000000e+00 -1.3997518650e+03 1.3997518650e+03 0.0000000000e+00 0.0000e+00 1.0000e+00
      -13  1    1    2    0    0 -4.7900775937e+01 +8.0964249914e+02 -1.2355369038e+03 1.4779603856e+03 0.0000000000e+00 0.0000e+00 1.0000e+00
       13  1    1    2    0    0 +4.7900775937e+01 -8.0964249914e+02 +3.7812188698e+03 3.8672253105e+03 0.0000000000e+00 0.0000e+00 -1.0000e+00
<mgrwt>
<rscale>  0 0.47000546E+04</rscale>
<asrwt>0</asrwt>
<pdfrwt beam="1">  1        2 0.60698981E+00 0.47000546E+04</pdfrwt>
<pdfrwt beam="2">  1       -2 0.21534644E+00 0.47000546E+04</pdfrwt>
<totfact> 0.29228531E-02</totfact>
</mgrwt>
<rwgt>
<wgt id='morphing_basis_vector_1'> +5.0819674e-06 </wgt>
<wgt id='morphing_basis_vector_2'> +3.4495093e-06 </wgt>
<wgt id='morphing_basis_vector_3'> +5.5934147e-06 </wgt>
<wgt id='morphing_basis_vector_4'> +4.0397908e-06 </wgt>
<wgt id='morphing_basis_vector_5'> +6.4413402e-06 </wgt>
</rwgt>
</event>
<event>
 4      1 +7.6845000e-11 4.85613600e+03 7.81860800e-03 7.40462800e-02
        2 -1    0    0  501    0 +0.0000000000e+00 +0.0000000000e+00 +2.5424449663e+03 2.5424449663e+03 0.0000000000e+00 0.0000e+00 -1.0000e+00
       -2 -1    0    0    0  501 -0.0000000000e+00 -0.0000000000e+00 -2.3188368720e+03 2.3188368720e+03 0.0000000000e+00 0.0000e+00 1.0000e+00
      -13  1    1    2    0    0 -6.7890917669e+02 -2.5596372187e+01 -2.2217477027e+03 2.3233027567e+03 0.0000000000e+00 0.0000e+00 1.0000e+00
       13  1    1    2    0    0 +6.7890917669e+02 +2.5596372187e+01 +2.4453557971e+03 2.5379790816e+03 0.0000000000e+00 0.0000e+00 -1.0000e+00
<mgrwt>
<rscale>  0 0.48561364E+04</rscale>
<asrwt>0</asrwt>
<pdfrwt beam="1">  1        2 0.39114538E+00 0.48561364E+04</pdfrwt>
<pdfrwt beam="2">  1       -2 0.35674414E+00 0.48561364E+04</pdfrwt>
<totfact> 0.30310494E-02</totfact>
</mgrwt>
<rwgt>
<wgt id='morphing_basis_vector_1'> +5.7885396e-06 </wgt>
<wgt id='morphing_basis_vector_2'> +3.9299189e-06 </wgt>
<wgt id='morphing_basis_vector_3'> +6.3738196e-06 </wgt>
<wgt id='morphing_basis_vector_4'> +4.6060798e-06 </wgt>
<wgt id='morphing_basis_vector_5'> +7.3439013e-06 </wgt>
</rwgt>
</event>
<event>
 4      1 +7.6845000e-11 5.11908500e+03 7.81860800e-03 7.36844100e-02
        2 -1    0    0  501    0 +0.0000000000e+00 +0.0000000000e+00 +3.7878144610e+03 3.7878144610e+03 0.0000000000e+00 0.0000e+00 1.0000e+00
       -2 -1    0    0    0  501 -0.0000000000e+00 -0.0000000000e+00 -1.7295613450e+03 1.7295613450e+03 0.0000000000e+00 0.0000e+00 -1.0000e+00
      -13  1    1    2    0    0 -2.2808004672e+03 -2.4752658122e+02 -1.9404562484e+02 2.3023843911e+03 0.0000000000e+00 0.0000e+00 -1.0000e+00
       13  1    1    2    0    0 +2.2808004672e+03 +2.4752658122e+02 +2.2522987409e+03 3.2149914149e+03 0.0000000000e+00 0.0000e+00 1.0000e+00
<mgrwt>
<rscale>  0 0.51190849E+04</rscale>
<asrwt>0</asrwt>
<pdfrwt beam="1">  1        2 0.58274068E+00 0.51190849E+04</pdfrwt>
<pdfrwt beam="2">  1       -2 0.26608636E+00 0.51190849E+04</pdfrwt>
<totfact> 0.16850230E-02</totfact>
</mgrwt>
<rwgt>
<wgt id='morphing_basis_vector_1'> +7.1854408e-06 </wgt>
<wgt id='morphing_basis_vector_2'> +4.9764842e-06 </wgt>
<wgt id='morphing_basis_vector_3'> +7.9393628e-06 </wgt>
<wgt id='morphing_basis_vector_4'> +5.6006616e-06 </wgt>
<wgt id='morphing_basis_vector_5'> +9.0669324e-06 </wgt>
</rwgt>
</event>
<event>
 4      1 +7.6845000e-11 5.12008900e+03 7.81860800e-03 7.36830700e-02
        2 -1    0    0  501    0 +0.0000000000e+00 +0.0000000000e+00 +4.1138335207e+03 4.1138335207e+03 0.0000000000e+00 0.0000e+00 1.0000e+00
       -2 -1    0    0    0  501 -0.0000000000e+00 -0.0000000000e+00 -1.5931191055e+03 1.5931191055e+03 0.0000000000e+00 0.0000e+00 -1.0000e+00
      -13  1    1    2    0    0 -1.2104834477e+03 +1.0463185921e+03 -9.6714701247e+02 1.8696058721e+03 0.0000000000e+00 0.0000e+00 -1.0000e+00
       13  1    1    2    0    0 +1.2104834477e+03 -1.0463185921e+03 +3.4878614276e+03 3.8373467542e+03 0.0000000000e+00 0.0000e+00 1.0000e+00
<mgrwt>
<rscale>  0 0.51200886E+04</rscale>
<asrwt>0</asrwt>
<pdfrwt beam="1">  1        2 0.63289746E+00 0.51200886E+04</pdfrwt>
<pdfrwt beam="2">  1       -2 0.24509525E+00 0.51200886E+04</pdfrwt>
<totfact> 0.12516636E-02</totfact>
</mgrwt>
<rwgt>
<wgt id='morphing_basis_vector_1'> +7.1527472e-06 </wgt>
<wgt id='morphing_basis_vector_2'> +4.8678793e-06 </wgt>
<wgt id='morphing_basis_vector_3'> +7.8833570e-06 </wgt>
<wgt id='morphing_basis_vector_4'> +5.6867507e-06 </wgt>
<wgt id='morphing_basis_vector_5'> +9.0809182e-06 </wgt>
</rwgt>
</event>
<event>
 4      1 +7.6845000e-11 4.71295200e+03 7.81860800e-03 7.42532000e-02
        2 -1    0    0  501    0 +0.0000000000e+00 +0.0000000000e+00 +2.7547192189e+03 2.7547192189e+03 0.0000000000e+00 0.0000e+00 1.0000e+00
       -2 -1    0    0    0  501 -0.0000000000e+00 -0.0000000000e+00 -2.0158057808e+03 2.0158057808e+03 0.0000000000e+00 0.0000e+00 -1.0000e+00
      -13  1    1    2    0    0 +6.1420102981e+02 +3.8743293130e+02 -1.8997209391e+03 2.0337863279e+03 0.0000000000e+00 0.0000e+00 -1.0000e+00
       13  1    1    2    0    0 -6.1420102981e+02 -3.8743293130e+02 +2.6386343772e+03 2.7367386718e+03 0.0000000000e+00 0.0000e+00 1.0000e+00
<mgrwt>
<rscale>  0 0.47129519E+04</rscale>
<asrwt>0</asrwt>
<pdfrwt beam="1">  1        2 0.42380296E+00 0.47129519E+04</pdfrwt>
<pdfrwt beam="2">  1       -2 0.31012397E+00 0.47129519E+04</pdfrwt>
<totfact> 0.46031028E-02</totfact>
</mgrwt>
<rwgt>
<wgt id='morphing_basis_vector_1'> +5.1376894e-06 </wgt>
<wgt id='morphing_basis_vector_2'> +3.4872366e-06 </wgt>
<wgt id='morphing_basis_vector_3'> +5.6549173e-06 </wgt>
<wgt id='morphing_basis_vector_4'> +4.0846430e-06 </wgt>
<wgt id='morphing_basis_vector_5'> +6.5126037e-06 </wgt>
</rwgt>
</event>
<event>
 4      1 +7.6845000e-11 5.08663200e+03 7.81860800e-03 7.37278600e-02
        2 -1    0    0  501    0 +0.0000000000e+00 +0.0000000000e+00 +3.5740781792e+03 3.5740781792e+03 0.0000000000e+00 0.0000e+00 -1.0000e+00
       -2 -1    0    0    0  501 -0.0000000000e+00 -0.0000000000e+00 -1.8098253595e+03 1.8098253595e+03 0.0000000000e+00 0.0000e+00 1.0000e+00
      -13  1    1    2    0    0 +1.6853741476e+03 +1.1746240236e+03 +2.4691641604e+03 3.2120086029e+03 0.0000000000e+00 0.0000e+00 -1.0000e+00
       13  1    1    2    0    0 -1.6853741476e+03 -1.1746240236e+03 -7.0491134066e+02 2.1718949358e+03 0.0000000000e+00 0.0000e+00 1.0000e+00
<mgrwt>
<rscale>  0 0.50866324E+04</rscale>
<asrwt>0</asrwt>
<pdfrwt beam="1">  1        2 0.54985818E+00 0.50866324E+04</pdfrwt>
<pdfrwt beam="2">  1       -2 0.27843467E+00 0.50866324E+04</pdfrwt>
<totfact> 0.20336872E-02</totfact>
</mgrwt>
<rwgt>
<wgt id='morphing_basis_vector_1'> +8.5732504e-06 </wgt>
<wgt id='morphing_basis_vector_2'> +9.4552935e-06 </wgt>
<wgt id='morphing_basis_vector_3'> +1.0285858e-05 </wgt>
<wgt id='morphing_basis_vector_4'> +2.1177634e-06 </wgt>
<wgt id='morphing_basis_vector_5'> +8.5582539e-06 </wgt>
</rwgt>
</event>
<event>
 4      1 +7.6845000e-11 5.10391100e+03 7.81860800e-03 7.37046800e-02
        2 -1    0    0  501    0 +0.0000000000e+00 +0.0000000000e+00 +4.3391418999e+03 4.3391418999e+03 0.0000000000e+00 0.0000e+00 -1.0000e+00
       -2 -1    0    0    0  501 -0.0000000000e+00 -0.0000000000e+00 -1.5008676750e+03 1.5008676750e+03 0.0000000000e+00 0.0000e+00 1.0000e+00
      -13  1    1    2    0    0 -1.2823267153e+03 -1.1938742843e+03 -7.0393665166e+02 1.8881801876e+03 0.0000000000e+00 0.0000e+00 1.0000e+00
       13  1    1    2    0    0 +1.2823267153e+03 +1.1938742843e+03 +3.5422108766e+03 3.9518293873e+03 0.0000000000e+00 0.0000e+00 -1.0000e+00
<mgrwt>
<rscale>  0 0.51039114E+04</rscale>
<asrwt>0</asrwt>
<pdfrwt beam="1">  1        2 0.66756029E+00 0.51039114E+04</pdfrwt>
<pdfrwt beam="2">  1       -2 0.23090272E+00 0.51039114E+04</pdfrwt>
<totfact> 0.97329461E-03</totfact>
</mgrwt>
<rwgt>
<wgt id='morphing_basis_vector_1'> +7.0658703e-06 </wgt>
<wgt id='morphing_basis_vector_2'> +4.8149832e-06 </wgt>
<wgt id='morphing_basis_vector_3'> +7.7887845e-06 </wgt>
<wgt id='morphing_basis_vector_4'> +5.6090137e-06 </wgt>
<wgt id='morphing_basis_vector_5'> +8.9658471e-06 </wgt>
</rwgt>
</event>
<event>
 4      1 +7.6845000e-11 4.89172200e+03 7.81860800e-03 7.39959700e-02
        2 -1    0    0  501    0 +0.0000000000e+00 +0.0000000000e+00 +2.6653404233e+03 2.6653404233e+03 0.0000000000e+00 0.0000e+00 1.0000e+00
       -2 -1    0    0    0  501 -0.0000000000e+00 -0.0000000000e+00 -2.2444547079e+03 2.2444547079e+03 0.0000000000e+00 0.0000e+00 -1.0000e+00
      -13  1    1    2    0    0 -9.7655251449e+02 +6.5666627142e+02 -1.9416269744e+03 2.2704142162e+03 0.0000000000e+00 0.0000e+00 -1.0000e+00
       13  1    1    2    0    0 +9.7655251449e+02 -6.5666627142e+02 +2.3625126897e+03 2.6393809151e+03 0.0000000000e+00 0.0000e+00 1.0000e+00
<mgrwt>
<rscale>  0 0.48917219E+04</rscale>
<asrwt>0</asrwt>
<pdfrwt beam="1">  1        2 0.41005237E+00 0.48917219E+04</pdfrwt>
<pdfrwt beam="2">  1       -2 0.34530072E+00 0.48917219E+04</pdfrwt>
<totfact> 0.30189142E-02</totfact>
</mgrwt>
<rwgt>
<wgt id='morphing_basis_vector_1'> +5.9604349e-06 </wgt>
<wgt id='morphing_basis_vector_2'> +4.0490151e-06 </wgt>
<wgt id='morphing_basis_vector_3'> +6.5642081e-06 </wgt>
<wgt id='morphing_basis_vector_4'> +4.7410116e-06 </wgt>
<wgt id='morphing_basis_vector_5'> +7.5621098e-06 </wgt>
</rwgt>
</event>
<event>
 4      1 +7.6845000e-11 4.82903000e+03 7.81860800e-03 7.40849000e-02
        2 -1    0    0  501    0 +0.0000000000e+00 +0.0000000000e+00 +3.2180771058e+03 3.2180771058e+03 0.0000000000e+00 0.0000e+00 -1.0000e+00
       -2 -1    0    0    0  501 -0.0000000000e+00 -0.0000000000e+00 -1.8116041961e+03 1.8116041961e+03 0.0000000000e+00 0.0000e+00 1.0000e+00
      -13  1    1    2    0    0 -1.2023012355e+03 +2.0316813930e+03 +1.7560630805e+02 2.3672970069e+03 0.0000000000e+00 0.0000e+00 1.0000e+00
       13  1    1    2    0    0 +1.2023012355e+03 -2.0316813930e+03 +1.2308666016e+03 2.6623842950e+03 0.0000000000e+00 0.0000e+00 -1.0000e+00
<mgrwt>
<rscale>  0 0.48290297E+04</rscale>
<asrwt>0</asrwt>
<pdfrwt beam="1">  1        2 0.49508878E+00 0.48290297E+04</pdfrwt>
<pdfrwt beam="2">  1       -2 0.27870834E+00 0.48290297E+04</pdfrwt>
<totfact> 0.37111092E-02</totfact>
</mgrwt>
<rwgt>
<wgt id='morphing_basis_vector_1'> +5.7549617e-06 </wgt>
<wgt id='morphing_basis_vector_2'> +4.1195287e-06 </wgt>
<wgt id='morphing_basis_vector_3'> +6.3852855e-06 </wgt>
<wgt id='morphing_basis_vector_4'> +4.3033543e-06 </wgt>
<wgt id='morphing_basis_vector_5'> +7.1639654e-06 </wgt>
</rwgt>
</event>
<event>
 4      1 +7.6845000e-11 4.91263300e+03 7.81860800e-03 7.39666000e-02
        2 -1    0    0  501    0 +0.0000000000e+00 +0.0000000000e+00 +2.6613589447e+03 2.6613589447e+03 0.0000000000e+00 0.0000e+00 -1.0000e+00
       -2 -1    0    0    0  501 -0.0000000000e+00 -0.0000000000e+00 -2.2670716107e+03 2.2670716107e+03 0.0000000000e+00 0.0000e+00 1.0000e+00
      -13  1    1    2    0    0 -1.5817254367e+03 -1.8057518626e+03 +7.1929420159e+02 2.5059886861e+03 0.0000000000e+00 0.0000e+00 1.0000e+00
       13  1    1    2    0    0 +1.5817254367e+03 +1.8057518626e+03 -3.2500686765e+02 2.4224418693e+03 0.0000000000e+00 0.0000e+00 -1.0000e+00
<mgrwt>
<rscale>  0 0.49126332E+04</rscale>
<asrwt>0</asrwt>
<pdfrwt beam="1">  1        2 0.40943984E+00 0.49126332E+04</pdfrwt>
<pdfrwt beam="2">  1       -2 0.34878025E+00 0.49126332E+04</pdfrwt>
<totfact> 0.28775225E-02</totfact>
</mgrwt>
<rwgt>
<wgt id='morphing_basis_vector_1'> +6.5262311e-06 </wgt>
<wgt id='morphing_basis_vector_2'> +5.4800473e-06 </wgt>
<wgt id='morphing_basis_vector_3'> +7.4289044e-06 </wgt>
<wgt id='morphing_basis_vector_4'> +3.8355913e-06 </wgt>
<wgt id='morphing_basis_vector_5'> +7.6099493e-06 </wgt>
</rwgt>
</event>
<event>
 4      1 +7.6845000e-11 4.63646700e+03 7.81860800e-03 7.43667800e-02
        2 -1    0    0  501    0 +0.0000000000e+00 +0.0000000000e+00 +2.4534295286e+03 2.4534295286e+03 0.0000000000e+00 0.0000e+00 -1.0000e+00
       -2 -1    0    0    0  501 -0.0000000000e+00 -0.0000000000e+00 -2.1904873055e+03 2.1904873055e+03 0.0000000000e+00 0.0000e+00 1.0000e+00
      -13  1    1    2    0    0 -3.4562509689e+01 -1.2766774852e+03 -1.8063485236e+03 2.2122375454e+03 0.0000000000e+00 0.0000e+00 1.0000e+00
       13  1    1    2    0    0 +3.4562509689e+01 +1.2766774852e+03 +2.0692907468e+03 2.4316792887e+03 0.0000000000e+00 0.0000e+00 -1.0000e+00
<mgrwt>
<rscale>  0 0.46364669E+04</rscale>
<asrwt>0</asrwt>
<pdfrwt beam="1">  1        2 0.37745070E+00 0.46364669E+04</pdfrwt>
<pdfrwt beam="2">  1       -2 0.33699805E+00 0.46364669E+04</pdfrwt>
<totfact> 0.46823981E-02</totfact>
</mgrwt>
<rwgt>
<wgt id='morphing_basis_vector_1'> +4.8148680e-06 </wgt>
<wgt id='morphing_basis_vector_2'> +3.2709647e-06 </wgt>
<wgt id='morphing_basis_vector_3'> +5.2991436e-06 </wgt>
<wgt id='morphing_basis_vector_4'> +3.8218496e-06 </wgt>
<wgt id='morphing_basis_vector_5'> +6.0983084e-06 </wgt>
</rwgt>
</event>
<event>
 4      1 +7.6845000e-11 4.62707300e+03 7.81860800e-03 7.43808900e-02
        2 -1    0    0  501    0 +0.0000000000e+00 +0.0000000000e+00 +2.5493245476e+03 2.5493245476e+03 0.0000000000e+00 0.0000e+00 1.0000e+00
       -2 -1    0    0    0  501 -0.0000000000e+00 -0.0000000000e+00 -2.0995562204e+03 2.0995562204e+03 0.0000000000e+00 0.0000e+00 -1.0000e+00
      -13  1    1    2    0    0 +1.3086868328e+03 +1.1925349164e+03 -1.2713120226e+03 2.1796869069e+03 0.0000000000e+00 0.0000e+00 -1.0000e+00
       13  1    1    2    0    0 -1.3086868328e+03 -1.1925349164e+03 +1.7210803498e+03 2.4691938611e+03 0.0000000000e+00 0.0000e+00 1.0000e+00
<mgrwt>
<rscale>  0 0.46270726E+04</rscale>
<asrwt>0</asrwt>
<pdfrwt beam="1">  1        2 0.39220378E+00 0.46270726E+04</pdfrwt>
<pdfrwt beam="2">  1       -2 0.32300865E+00 0.46270726E+04</pdfrwt>
<totfact> 0.50789551E-02</totfact>
</mgrwt>
<rwgt>
<wgt id='morphing_basis_vector_1'> +4.7836462e-06 </wgt>
<wgt id='morphing_basis_vector_2'> +3.2667069e-06 </wgt>
<wgt id='morphing_basis_vector_3'> +5.2685226e-06 </wgt>
<wgt id='morphing_basis_vector_4'> +3.7748391e-06 </wgt>
<wgt id='morphing_basis_vector_5'> +6.0475118e-06 </wgt>
</rwgt>
</event>
<event>
 4      1 +7.6845000e-11 4.79211400e+03 7.81860800e-03 7.41379000e-02
        2 -1    0    0  501    0 +0.0000000000e+00 +0.0000000000e+00 +3.5931166315e+03 3.5931166315e+03 0.0000000000e+00 0.0000e+00 -1.0000e+00
       -2 -1    0    0    0  501 -0.0000000000e+00 -0.0000000000e+00 -1.5978018205e+03 1.5978018205e+03 0.0000000000e+00 0.0000e+00 1.0000e+00
      -13  1    1    2    0    0 -1.0211779954e+03 -2.9717325124e+02 -1.3281097575e+03 1.7014675922e+03 0.0000000000e+00 0.0000e+00 1.0000e+00
       13  1    1    2    0    0 +1.0211779954e+03 +2.9717325124e+02 +3.3234245686e+03 3.4894508597e+03 0.0000000000e+00 0.0000e+00 -1.0000e+00
<mgrwt>
<rscale>  0 0.47921136E+04</rscale>
<asrwt>0</asrwt>
<pdfrwt beam="1">  1        2 0.55278717E+00 0.47921136E+04</pdfrwt>
<pdfrwt beam="2">  1       -2 0.24581567E+00 0.47921136E+04</pdfrwt>
<totfact> 0.33725580E-02</totfact>
</mgrwt>
<rwgt>
<wgt id='morphing_basis_vector_1'> +5.4908709e-06 </wgt>
<wgt id='morphing_basis_vector_2'> +3.7287141e-06 </wgt>
<wgt id='morphing_basis_vector_3'> +6.0452980e-06 </wgt>
<wgt id='morphing_basis_vector_4'> +4.3659301e-06 </wgt>
<wgt id='morphing_basis_vector_5'> +6.9628452e-06 </wgt>
</rwgt>
</event>
<event>
 4      1 +7.6845000e-11 5.15205400e+03 7.81860800e-03 7.36406100e-02
        2 -1    0    0  501    0 +0.0000000000e+00 +0.0000000000e+00 +3.3575851750e+03 3.3575851750e+03 0.0000000000e+00 0.0000e+00 -1.0000e+00
       -2 -1    0    0    0  501 -0.0000000000e+00 -0.0000000000e+00 -1.9763954506e+03 1.9763954506e+03 0.0000000000e+00 0.0000e+00 1.0000e+00
      -13  1    1    2    0    0 +1.4761222934e+03 +1.1085903483e+03 -1.1695132853e+03 2.1853308468e+03 0.0000000000e+00 0.0000e+00 1.0000e+00
       13  1    1    2    0    0 -1.4761222934e+03 -1.1085903483e+03 +2.5507030097e+03 3.1486497788e+03 0.0000000000e+00 0.0000e+00 -1.0000e+00
<mgrwt>
<rscale>  0 0.51520544E+04</rscale>
<asrwt>0</asrwt>
<pdfrwt beam="1">  1        2 0.51655156E+00 0.51520544E+04</pdfrwt>
<pdfrwt beam="2">  1       -2 0.30406084E+00 0.51520544E+04</pdfrwt>
<totfact> 0.19507656E-02</totfact>
</mgrwt>
<rwgt>
<wgt id='morphing_basis_vector_1'> +7.3374249e-06 </wgt>
<wgt id='morphing_basis_vector_2'> +5.0049467e-06 </wgt>
<wgt id='morphing_basis_vector_3'> +8.0900673e-06 </wgt>
<wgt id='morphing_basis_vector_4'> +5.8199885e-06 </wgt>
<wgt id='morphing_basis_vector_5'> +9.3096395e-06 </wgt>
</rwgt>
</event>
<event>
 4      1 +7.6845000e-11 4.74982200e+03 7.81860800e-03 7.41992200e-02
        2 -1    0    0  501    0 +0.0000000000e+00 +0.0000000000e+00 +2.5899997430e+03 2.5899997430e+03 0.0000000000e+00 0.0000e+00 1.0000e+00
       -2 -1    0    0    0  501 -0.0000000000e+00 -0.0000000000e+00 -2.1776842640e+03 2.1776842640e+03 0.0000000000e+00 0.0000e+00 -1.0000e+00
      -13  1    1    2    0    0 +7.2909940383e+02 -2.1919957272e+03 +7.5938418355e+02 2.4316857419e+03 0.0000000000e+00 0.0000e+00 -1.0000e+00
       13  1    1    2    0    0 -7.2909940383e+02 +2.1919957272e+03 -3.4706870458e+02 2.3359982651e+03 0.0000000000e+00 0.0000e+00 1.0000e+00
<mgrwt>
<rscale>  0 0.47498218E+04</rscale>
<asrwt>0</asrwt>
<pdfrwt beam="1">  1        2 0.39846150E+00 0.47498218E+04</pdfrwt>
<pdfrwt beam="2">  1       -2 0.33502835E+00 0.47498218E+04</pdfrwt>
<totfact> 0.39606118E-02</totfact>
</mgrwt>
<rwgt>
<wgt id='morphing_basis_vector_1'> +5.7338633e-06 </wgt>
<wgt id='morphing_basis_vector_2'> +4.8725591e-06 </wgt>
<wgt id='morphing_basis_vector_3'> +6.5368703e-06 </wgt>
<wgt id='morphing_basis_vector_4'> +3.2907581e-06 </wgt>
<wgt id='morphing_basis_vector_5'> +6.6422042e-06 </wgt>
</rwgt>
</event>
<event>
 4      1 +7.6845000e-11 4.70597400e+03 7.81860800e-03 7.42634700e-02
        2 -1    0    0  501    0 +0.0000000000e+00 +0.0000000000e+00 +2.9057248929e+03 2.9057248929e+03 0.0000000000e+00 0.0000e+00 -1.0000e+00
       -2 -1    0    0    0  501 -0.0000000000e+00 -0.0000000000e+00 -1.9053931761e+03 1.9053931761e+03 0.0000000000e+00 0.0000e+00 1.0000e+00
      -13  1    1    2    0    0 +1.7029204289e+03 +1.2829362034e+03 -5.1740411623e+02 2.1939850293e+03 0.0000000000e+00 0.0000e+00 1.0000e+00
       13  1    1    2    0    0 -1.7029204289e+03 -1.2829362034e+03 +1.5177358331e+03 2.6171330398e+03 0.0000000000e+00 0.0000e+00 -1.0000e+00
<mgrwt>
<rscale>  0 0.47059742E+04</rscale>
<asrwt>0</asrwt>
<pdfrwt beam="1">  1        2 0.44703460E+00 0.47059742E+04</pdfrwt>
<pdfrwt beam="2">  1       -2 0.29313741E+00 0.47059742E+04</pdfrwt>
<totfact> 0.48102909E-02</totfact>
</mgrwt>
<rwgt>
<wgt id='morphing_basis_vector_1'> +5.1410082e-06 </wgt>
<wgt id='morphing_basis_vector_2'> +3.5652515e-06 </wgt>
<wgt id='morphing_basis_vector_3'> +5.6758399e-06 </wgt>
<wgt id='morphing_basis_vector_4'> +3.9890249e-06 </wgt>
<wgt id='morphing_basis_vector_5'> +6.4680067e-06 </wgt>
</rwgt>
</event>
<event>
 4      1 +7.6845000e-11 5.40414000e+03 7.81860800e-03 7.33164400e-02
        2 -1    0    0  501    0 +0.0000000000e+00 +0.0000000000e+00 +2.9485526786e+03 2.9485526786e+03 0.0000000000e+00 0.0000e+00 -1.0000e+00
       -2 -1    0    0    0  501 -0.0000000000e+00 -0.0000000000e+00 -2.4761919387e+03 2.4761919387e+03 0.0000000000e+00 0.0000e+00 1.0000e+00
      -13  1    1    2    0    0 +1.9095750410e+03 -1.7845460321e+03 -4.5207290889e+02 2.6524425145e+03 0.0000000000e+00 0.0000e+00 1.0000e+00
       13  1    1    2    0    0 -1.9095750410e+03 +1.7845460321e+03 +9.2443364875e+02 2.7723021027e+03 0.0000000000e+00 0.0000e+00 -1.0000e+00
<mgrwt>
<rscale>  0 0.54041400E+04</rscale>
<asrwt>0</asrwt>
<pdfrwt beam="1">  1        2 0.45362349E+00 0.54041400E+04</pdfrwt>
<pdfrwt beam="2">  1       -2 0.38095260E+00 0.54041400E+04</pdfrwt>
<totfact> 0.11348131E-02</totfact>
</mgrwt>
<rwgt>
<wgt id='morphing_basis_vector_1'> +8.9894300e-06 </wgt>
<wgt id='morphing_basis_vector_2'> +6.3864783e-06 </wgt>
<wgt id='morphing_basis_vector_3'> +9.9755465e-06 </wgt>
<wgt id='morphing_basis_vector_4'> +6.8099069e-06 </wgt>
<wgt id='morphing_basis_vector_5'> +1.1255876e-05 </wgt>
</rwgt>
</event>
<event>
 4      1 +7.6845000e-11 4.79106300e+03 7.81860800e-03 7.41394200e-02
        2 -1    0    0  501    0 +0.0000000000e+00 +0.0000000000e+00 +1.5189361394e+03 1.5189361394e+03 0.0000000000e+00 0.0000e+00 -1.0000e+00
       -2 -1    0    0    0  501 -0.0000000000e+00 -0.0000000000e+00 -3.7780200055e+03 3.7780200055e+03 0.0000000000e+00 0.0000e+00 1.0000e+00
      -13  1    1    2    0    0 -1.9412134364e+03 -7.1713954753e+02 -2.4635887360e+03 3.2174319257e+03 0.0000000000e+00 0.0000e+00 1.0000e+00
       13  1    1    2    0    0 +1.9412134364e+03 +7.1713954753e+02 +2.0450486984e+02 2.0795242192e+03 0.0000000000e+00 0.0000e+00 -1.0000e+00
<mgrwt>
<rscale>  0 0.47910630E+04</rscale>
<asrwt>0</asrwt>
<pdfrwt beam="1">  1        2 0.23368248E+00 0.47910630E+04</pdfrwt>
<pdfrwt beam="2">  1       -2 0.58123385E+00 0.47910630E+04</pdfrwt>
<totfact> 0.30849693E-03</totfact>
</mgrwt>
<rwgt>
<wgt id='morphing_basis_vector_1'> +5.5095256e-06 </wgt>
<wgt id='morphing_basis_vector_2'> +3.7943286e-06 </wgt>
<wgt id='morphing_basis_vector_3'> +6.0779883e-06 </wgt>
<wgt id='morphing_basis_vector_4'> +4.3121798e-06 </wgt>
<wgt id='morphing_basis_vector_5'> +6.9525399e-06 </wgt>
</rwgt>
</event>
<event>
 4      1 +7.6845000e-11 5.10743200e+03 7.81860800e-03 7.36999700e-02
        2 -1    0    0  501    0 +0.0000000000e+00 +0.0000000000e+00 +3.6350378702e+03 3.6350378702e+03 0.0000000000e+00 0.0000e+00 -1.0000e+00
       -2 -1    0    0    0  501 -0.0000000000e+00 -0.0000000000e+00 -1.7940568646e+03 1.7940568646e+03 0.0000000000e+00 0.0000e+00 1.0000e+00
      -13  1    1    2    0    0 +1.4137649975e+03 -1.3670323351e+03 -8.1120565214e+02 2.1273371814e+03 0.0000000000e+00 0.0000e+00 1.0000e+00
       13  1    1    2    0    0 -1.4137649975e+03 +1.3670323351e+03 +2.6521866578e+03 3.3017575534e+03 0.0000000000e+00 0.0000e+00 -1.0000e+00
<mgrwt>
<rscale>  0 0.51074317E+04</rscale>
<asrwt>0</asrwt>
<pdfrwt beam="1">  1        2 0.55923659E+00 0.51074317E+04</pdfrwt>
<pdfrwt beam="2">  1       -2 0.27600875E+00 0.51074317E+04</pdfrwt>
<totfact> 0.18971240E-02</totfact>
</mgrwt>
<rwgt>
<wgt id='morphing_basis_vector_1'> +7.0921779e-06 </wgt>
<wgt id='morphing_basis_vector_2'> +4.8483932e-06 </wgt>
<wgt id='morphing_basis_vector_3'> +7.8214245e-06 </wgt>
<wgt id='morphing_basis_vector_4'> +5.6099375e-06 </wgt>
<wgt id='morphing_basis_vector_5'> +8.9894586e-06 </wgt>
</rwgt>
</event>
<event>
 4      1 +7.6845000e-11 4.80851900e+03 7.81860800e-03 7.41142900e-02
        2 -1    0    0  501    0 +0.0000000000e+00 +0.0000000000e+00 +3.9911725914e+03 3.9911725914e+03 0.0000000000e+00 0.0000e+00 -1.0000e+00
       -2 -1    0    0    0  501 -0.0000000000e+00 -0.0000000000e+00 -1.4483124404e+03 1.4483124404e+03 0.0000000000e+00 0.0000e+00 1.0000e+00
      -13  1    1    2    0    0 -1.6474633192e+03 -8.0342807895e+02 -4.8863533266e+02 1.8969440041e+03 0.0000000000e+00 0.0000e+00 1.0000e+00
       13  1    1    2    0    0 +1.6474633192e+03 +8.0342807895e+02 +3.0314954836e+03 3.5425410278e+03 0.0000000000e+00 0.0000e+00 -1.0000e+00
<mgrwt>
<rscale>  0 0.48085195E+04</rscale>
<asrwt>0</asrwt>
<pdfrwt beam="1">  1        2 0.61402655E+00 0.48085195E+04</pdfrwt>
<pdfrwt beam="2">  1       -2 0.22281730E+00 0.48085195E+04</pdfrwt>
<totfact> 0.23470848E-02</totfact>
</mgrwt>
<rwgt>
<wgt id='morphing_basis_vector_1'> +5.5758790e-06 </wgt>
<wgt id='morphing_basis_vector_2'> +3.8084554e-06 </wgt>
<wgt id='morphing_basis_vector_3'> +6.1442044e-06 </wgt>
<wgt id='morphing_basis_vector_4'> +4.4055823e-06 </wgt>
<wgt id='morphing_basis_vector_5'> +7.0572883e-06 </wgt>
</rwgt>
</event>
<event>
 4      1 +7.6845000e-11 4.66082400e+03 7.81860800e-03 7.43303800e-02
        2 -1    0    0  501    0 +0.0000000000e+00 +0.0000000000e+00 +3.1062584587e+03 3.1062584587e+03 0.0000000000e+00 0.0000e+00 -1.0000e+00
       -2 -1    0    0    0  501 -0.0000000000e+00 -0.0000000000e+00 -1.7483474944e+03 1.7483474944e+03 0.0000000000e+00 0.0000e+00 1.0000e+00
      -13  1    1    2    0    0 -2.2494853977e+03 +5.4881129039e+02 +9.5342789071e+02 2.5040773011e+03 0.0000000000e+00 0.0000e+00 1.0000e+00
       13  1    1    2    0    0 +2.2494853977e+03 -5.4881129039e+02 +4.0448307367e+02 2.3505286520e+03 0.0000000000e+00 0.0000e+00 -1.0000e+00
<mgrwt>
<rscale>  0 0.46608236E+04</rscale>
<asrwt>0</asrwt>
<pdfrwt beam="1">  1        2 0.47788591E+00 0.46608236E+04</pdfrwt>
<pdfrwt beam="2">  1       -2 0.26897654E+00 0.46608236E+04</pdfrwt>
<totfact> 0.52133149E-02</totfact>
</mgrwt>
<rwgt>
<wgt id='morphing_basis_vector_1'> +5.1843157e-06 </wgt>
<wgt id='morphing_basis_vector_2'> +4.1269582e-06 </wgt>
<wgt id='morphing_basis_vector_3'> +5.8447220e-06 </wgt>
<wgt id='morphing_basis_vector_4'> +3.3334678e-06 </wgt>
<wgt id='morphing_basis_vector_5'> +6.1802728e-06 </wgt>
</rwgt>
</event>
<event>
 4      1 +7.6845000e-11 4.86202700e+03 7.81860800e-03 7.40379200e-02
        2 -1    0    0  501    0 +0.0000000000e+00 +0.0000000000e+00 +2.2286737114e+03 2.2286737114e+03 0.0000000000e+00 0.0000e+00 -1.0000e+00
       -2 -1    0    0    0  501 -0.0000000000e+00 -0.0000000000e+00 -2.6517235959e+03 2.6517235959e+03 0.0000000000e+00 0.0000e+00 1.0000e+00
      -13  1    1    2    0    0 +7.0386636254e+02 -1.5913582361e+03 -1.9155780481e+03 2.5879119286e+03 0.0000000000e+00 0.0000e+00 1.0000e+00
       13  1    1    2    0    0 -7.0386636254e+02 +1.5913582361e+03 +1.4925281637e+03 2.2924853787e+03 0.0000000000e+00 0.0000e+00 -1.0000e+00
<mgrwt>
<rscale>  0 0.48620270E+04</rscale>
<asrwt>0</asrwt>
<pdfrwt beam="1">  1        2 0.34287288E+00 0.48620270E+04</pdfrwt>
<pdfrwt beam="2">  1       -2 0.40795748E+00 0.48620270E+04</pdfrwt>
<totfact> 0.21578868E-02</totfact>
</mgrwt>
<rwgt>
<wgt id='morphing_basis_vector_1'> +5.8239532e-06 </wgt>
<wgt id='morphing_basis_vector_2'> +3.9706526e-06 </wgt>
<wgt id='morphing_basis_vector_3'> +6.4167478e-06 </wgt>
<wgt id='morphing_basis_vector_4'> +4.6128436e-06 </wgt>
<wgt id='morphing_basis_vector_5'> +7.3784045e-06 </wgt>
</rwgt>
</event>
<event>
 4      1 +7.6845000e-11 4.66095800e+03 7.81860800e-03 7.43301800e-02
        2 -1    0    0  501    0 +0.0000000000e+00 +0.0000000000e+00 +2.2877460076e+03 2.2877460076e+03 0.0000000000e+00 0.0000e+00 1.0000e+00
       -2 -1    0    0    0  501 -0.0000000000e+00 -0.0000000000e+00 -2.3740104313e+03 2.3740104313e+03 0.0000000000e+00 0.0000e+00 -1.0000e+00
      -13  1    1    2    0    0 -7.8158361878e+02 +2.1909914013e+03 +9.7663385975e+01 2.3282728386e+03 0.0000000000e+00 0.0000e+00 -1.0000e+00
       13  1    1    2    0    0 +7.8158361878e+02 -2.1909914013e+03 -1.8392780960e+02 2.3334836003e+03 0.0000000000e+00 0.0000e+00 1.0000e+00
<mgrwt>
<rscale>  0 0.46609582E+04</rscale>
<asrwt>0</asrwt>
<pdfrwt beam="1">  1        2 0.35196093E+00 0.46609582E+04</pdfrwt>
<pdfrwt beam="2">  1       -2 0.36523237E+00 0.46609582E+04</pdfrwt>
<totfact> 0.38345294E-02</totfact>
</mgrwt>
<rwgt>
<wgt id='morphing_basis_vector_1'> +5.1396925e-06 </wgt>
<wgt id='morphing_basis_vector_2'> +3.9946052e-06 </wgt>
<wgt id='morphing_basis_vector_3'> +5.7722364e-06 </wgt>
<wgt id='morphing_basis_vector_4'> +3.4300157e-06 </wgt>
<wgt id='morphing_basis_vector_5'> +6.1890374e-06 </wgt>
</rwgt>
</event>
<event>
 4      1 +7.6845000e-11 4.62932200e+03 7.81860800e-03 7.43775100e-02
        2 -1    0    0  501    0 +0.0000000000e+00 +0.0000000000e+00 +2.7420751878e+03 2.7420751878e+03 0.0000000000e+00 0.0000e+00 1.0000e+00
       -2 -1    0    0    0  501 -0.0000000000e+00 -0.0000000000e+00 -1.9538686299e+03 1.9538686299e+03 0.0000000000e+00 0.0000e+00 -1.0000e+00
      -13  1    1    2    0    0 +3.9009895768e+02 +1.8231537759e+03 -9.9734728678e+02 2.1144191869e+03 0.0000000000e+00 0.0000e+00 -1.0000e+00
       13  1    1    2    0    0 -3.9009895768e+02 -1.8231537759e+03 +1.7855538447e+03 2.5815246309e+03 0.0000000000e+00 0.0000e+00 1.0000e+00
<mgrwt>
<rscale>  0 0.46293216E+04</rscale>
<asrwt>0</asrwt>
<pdfrwt beam="1">  1        2 0.42185772E+00 0.46293216E+04</pdfrwt>
<pdfrwt beam="2">  1       -2 0.30059517E+00 0.46293216E+04</pdfrwt>
<totfact> 0.54662453E-02</totfact>
</mgrwt>
<rwgt>
<wgt id='morphing_basis_vector_1'> +4.7964766e-06 </wgt>
<wgt id='morphing_basis_vector_2'> +3.2835069e-06 </wgt>
<wgt id='morphing_basis_vector_3'> +5.2845269e-06 </wgt>
<wgt id='morphing_basis_vector_4'> +3.7746439e-06 </wgt>
<wgt id='morphing_basis_vector_5'> +6.0586886e-06 </wgt>
</rwgt>
</event>
<event>
 4      1 +7.6845000e-11 5.02708200e+03 7.81860800e-03 7.38084500e-02
        2 -1    0    0  501    0 +0.0000000000e+00 +0.0000000000e+00 +1.2396856446e+03 1.2396856446e+03 0.0000000000e+00 0.0000e+00 1.0000e+00
       -2 -1    0    0    0  501 -0.0000000000e+00 -0.0000000000e+00 -5.0963641135e+03 5.0963641135e+03 0.0000000000e+00 0.0000e+00 -1.0000e+00
      -13  1    1    2    0    0 -8.2887993920e+02 +2.3587334785e+03 -1.6015526047e+03 2.9691137266e+03 0.0000000000e+00 0.0000e+00 -1.0000e+00
       13  1    1    2    0    0 +8.2887993920e+02 -2.3587334785e+03 -2.2551258642e+03 3.3669360314e+03 0.0000000000e+00 0.0000e+00 1.0000e+00
<mgrwt>
<rscale>  0 0.50270824E+04</rscale>
<asrwt>0</asrwt>
<pdfrwt beam="1">  1        2 0.19072087E+00 0.50270824E+04</pdfrwt>
<pdfrwt beam="2">  1       -2 0.78405602E+00 0.50270824E+04</pdfrwt>
<totfact> 0.16104046E-03</totfact>
</mgrwt>
<rwgt>
<wgt id='morphing_basis_vector_1'> +6.9965712e-06 </wgt>
<wgt id='morphing_basis_vector_2'> +5.5460459e-06 </wgt>
<wgt id='morphing_basis_vector_3'> +7.8909413e-06 </wgt>
<wgt id='morphing_basis_vector_4'> +4.5419374e-06 </wgt>
<wgt id='morphing_basis_vector_5'> +8.3747820e-06 </wgt>
</rwgt>
</event>
<event>
 4      1 +7.6845000e-11 4.71973700e+03 7.81860800e-03 7.42432300e-02
        2 -1    0    0  501    0 +0.0000000000e+00 +0.0000000000e+00 +3.2951354714e+03 3.2951354714e+03 0.0000000000e+00 0.0000e+00 -1.0000e+00
       -2 -1    0    0    0  501 -0.0000000000e+00 -0.0000000000e+00 -1.6900608176e+03 1.6900608176e+03 0.0000000000e+00 0.0000e+00 1.0000e+00
      -13  1    1    2    0    0 +1.0896627996e+03 +5.6316651437e+02 -1.3269044668e+03 1.8069856125e+03 0.0000000000e+00 0.0000e+00 1.0000e+00
       13  1    1    2    0    0 -1.0896627996e+03 -5.6316651437e+02 +2.9319791207e+03 3.1782106764e+03 0.0000000000e+00 0.0000e+00 -1.0000e+00
<mgrwt>
<rscale>  0 0.47197370E+04</rscale>
<asrwt>0</asrwt>
<pdfrwt beam="1">  1        2 0.50694392E+00 0.47197370E+04</pdfrwt>
<pdfrwt beam="2">  1       -2 0.26000936E+00 0.47197370E+04</pdfrwt>
<totfact> 0.44458105E-02</totfact>
</mgrwt>
<rwgt>
<wgt id='morphing_basis_vector_1'> +5.1684009e-06 </wgt>
<wgt id='morphing_basis_vector_2'> +3.5107721e-06 </wgt>
<wgt id='morphing_basis_vector_3'> +5.6894401e-06 </wgt>
<wgt id='morphing_basis_vector_4'> +4.1058072e-06 </wgt>
<wgt id='morphing_basis_vector_5'> +6.5501146e-06 </wgt>
</rwgt>
</event>
<event>
 4      1 +7.6845000e-11 4.71722700e+03 7.81860800e-03 7.42469200e-02
        2 -1    0    0  501    0 +0.0000000000e+00 +0.0000000000e+00 +2.7257281848e+03 2.7257281848e+03 0.0000000000e+00 0.0000e+00 -1.0000e+00
       -2 -1    0    0    0  501 -0.0000000000e+00 -0.0000000000e+00 -2.0409438662e+03 2.0409438662e+03 0.0000000000e+00 0.0000e+00 1.0000e+00
      -13  1    1    2    0    0 -1.0388569068e+03 +1.8776736867e+02 +2.4736651350e+03 2.6895165844e+03 0.0000000000e+00 0.0000e+00 -1.0000e+00
       13  1    1    2    0    0 +1.0388569068e+03 -1.8776736867e+02 -1.7888808164e+03 2.0771554667e+03 0.0000000000e+00 0.0000e+00 1.0000e+00
<mgrwt>
<rscale>  0 0.47172272E+04</rscale>
<asrwt>0</asrwt>
<pdfrwt beam="1">  1        2 0.41934280E+00 0.47172272E+04</pdfrwt>
<pdfrwt beam="2">  1       -2 0.31399136E+00 0.47172272E+04</pdfrwt>
<totfact> 0.45188916E-02</totfact>
</mgrwt>
<rwgt>
<wgt id='morphing_basis_vector_1'> +7.0162907e-06 </wgt>
<wgt id='morphing_basis_vector_2'> +8.9632090e-06 </wgt>
<wgt id='morphing_basis_vector_3'> +8.6864074e-06 </wgt>
<wgt id='morphing_basis_vector_4'> +1.4278532e-07 </wgt>
<wgt id='morphing_basis_vector_5'> +6.2051015e-06 </wgt>
</rwgt>
</event>
<event>
 4      1 +7.6845000e-11 5.22794100e+03 7.81860800e-03 7.35410600e-02
        2 -1    0    0  501    0 +0.0000000000e+00 +0.0000000000e+00 +5.1242981168e+03 5.1242981168e+03 0.0000000000e+00 0.0000e+00 -1.0000e+00
       -2 -1    0    0    0  501 -0.0000000000e+00 -0.0000000000e+00 -1.3334202410e+03 1.3334202410e+03 0.0000000000e+00 0.0000e+00 1.0000e+00
      -13  1    1    2    0    0 -6.1063027542e+01 +1.5824482034e+03 -6.7341865808e+02 1.7208613247e+03 0.0000000000e+00 0.0000e+00 1.0000e+00
       13  1    1    2    0    0 +6.1063027542e+01 -1.5824482034e+03 +4.4642965339e+03 4.7368570331e+03 0.0000000000e+00 0.0000e+00 -1.0000e+00
<mgrwt>
<rscale>  0 0.52279414E+04</rscale>
<asrwt>0</asrwt>
<pdfrwt beam="1">  1        2 0.78835355E+00 0.52279414E+04</pdfrwt>
<pdfrwt beam="2">  1       -2 0.20514158E+00 0.52279414E+04</pdfrwt>
<totfact> 0.17742650E-03</totfact>
</mgrwt>
<rwgt>
<wgt id='morphing_basis_vector_1'> +7.7720468e-06 </wgt>
<wgt id='morphing_basis_vector_2'> +5.2885866e-06 </wgt>
<wgt id='morphing_basis_vector_3'> +8.5675981e-06 </wgt>
<wgt id='morphing_basis_vector_4'> +6.1842512e-06 </wgt>
<wgt id='morphing_basis_vector_5'> +9.8731439e-06 </wgt>
</rwgt>
</event>
<event>
 4      1 +7.6845000e-11 4.86582700e+03 7.81860800e-03 7.40325400e-02
        2 -1    0    0  501    0 +0.0000000000e+00 +0.0000000000e+00 +3.5443256111e+03 3.5443256111e+03 0.0000000000e+00 0.0000e+00 -1.0000e+00
       -2 -1    0    0    0  501 -0.0000000000e+00 -0.0000000000e+00 -1.6700122373e+03 1.6700122373e+03 0.0000000000e+00 0.0000e+00 1.0000e+00
      -13  1    1    2    0    0 -1.5478932081e+03 +1.9633177471e+02 -1.0632382107e+03 1.8881194459e+03 0.0000000000e+00 0.0000e+00 1.0000e+00
       13  1    1    2    0    0 +1.5478932081e+03 -1.9633177471e+02 +2.9375515845e+03 3.3262184024e+03 0.0000000000e+00 0.0000e+00 -1.0000e+00
<mgrwt>
<rscale>  0 0.48658266E+04</rscale>
<asrwt>0</asrwt>
<pdfrwt beam="1">  1        2 0.54528086E+00 0.48658266E+04</pdfrwt>
<pdfrwt beam="2">  1       -2 0.25692496E+00 0.48658266E+04</pdfrwt>
<totfact> 0.30573070E-02</totfact>
</mgrwt>
<rwgt>
<wgt id='morphing_basis_vector_1'> +5.8387470e-06 </wgt>
<wgt id='morphing_basis_vector_2'> +3.9731661e-06 </wgt>
<wgt id='morphing_basis_vector_3'> +6.4313635e-06 </wgt>
<wgt id='morphing_basis_vector_4'> +4.6345013e-06 </wgt>
<wgt id='morphing_basis_vector_5'> +7.4021745e-06 </wgt>
</rwgt>
</event>
<event>
 4      1 +7.6845000e-11 4.76767300e+03 7.81860800e-03 7.41732600e-02
        2 -1    0    0  501    0 +0.0000000000e+00 +0.0000000000e+00 +2.2918381963e+03 2.2918381963e+03 0.0000000000e+00 0.0000e+00 1.0000e+00
       -2 -1    0    0    0  501 -0.0000000000e+00 -0.0000000000e+00 -2.4795276543e+03 2.4795276543e+03 0.0000000000e+00 0.0000e+00 -1.0000e+00
      -13  1    1    2    0    0 +1.8761009430e+03 -1.3478085157e+03 -6.8280175687e+02 2.4088505106e+03 0.0000000000e+00 0.0000e+00 -1.0000e+00
       13  1    1    2    0    0 -1.8761009430e+03 +1.3478085157e+03 +4.9511229888e+02 2.3625153400e+03 0.0000000000e+00 0.0000e+00 1.0000e+00
<mgrwt>
<rscale>  0 0.47676729E+04</rscale>
<asrwt>0</asrwt>
<pdfrwt beam="1">  1        2 0.35259049E+00 0.47676729E+04</pdfrwt>
<pdfrwt beam="2">  1       -2 0.38146579E+00 0.47676729E+04</pdfrwt>
<totfact> 0.29730789E-02</totfact>
</mgrwt>
<rwgt>
<wgt id='morphing_basis_vector_1'> +5.4565296e-06 </wgt>
<wgt id='morphing_basis_vector_2'> +3.8778095e-06 </wgt>
<wgt id='morphing_basis_vector_3'> +6.0467170e-06 </wgt>
<wgt id='morphing_basis_vector_4'> +4.1146117e-06 </wgt>
<wgt id='morphing_basis_vector_5'> +6.8077774e-06 </wgt>
</rwgt>
</event>
<event>
 4      1 +7.6845000e-11 5.37806500e+03 7.81860800e-03 7.33491300e-02
        2 -1    0    0  501    0 +0.0000000000e+00 +0.0000000000e+00 +3.0762289320e+03 3.0762289320e+03 0.0000000000e+00 0.0000e+00 -1.0000e+00
       -2 -1    0    0    0  501 -0.0000000000e+00 -0.0000000000e+00 -2.3505716833e+03 2.3505716833e+03 0.0000000000e+00 0.0000e+00 1.0000e+00
      -13  1    1    2    0    0 -4.4858899712e+02 +8.9047957544e+02 -2.1571426587e+03 2.3764364946e+03 0.0000000000e+00 0.0000e+00 1.0000e+00
       13  1    1    2    0    0 +4.4858899712e+02 -8.9047957544e+02 +2.8827999075e+03 3.0503641208e+03 0.0000000000e+00 0.0000e+00 -1.0000e+00
<mgrwt>
<rscale>  0 0.53780653E+04</rscale>
<asrwt>0</asrwt>
<pdfrwt beam="1">  1        2 0.47326599E+00 0.53780653E+04</pdfrwt>
<pdfrwt beam="2">  1       -2 0.36162641E+00 0.53780653E+04</pdfrwt>
<totfact> 0.12493952E-02</totfact>
</mgrwt>
<rwgt>
<wgt id='morphing_basis_vector_1'> +8.6969641e-06 </wgt>
<wgt id='morphing_basis_vector_2'> +5.9098675e-06 </wgt>
<wgt id='morphing_basis_vector_3'> +9.5880013e-06 </wgt>
<wgt id='morphing_basis_vector_4'> +6.9367199e-06 </wgt>
<wgt id='morphing_basis_vector_5'> +1.1061257e-05 </wgt>
</rwgt>
</event>
<event>
 4      1 +7.6845000e-11 5.05309700e+03 7.81860800e-03 7.37731000e-02
        2 -1    0    0  501    0 +0.0000000000e+00 +0.0000000000e+00 +3.5177232195e+03 3.5177232195e+03 0.0000000000e+00 0.0000e+00 1.0000e+00
       -2 -1    0    0    0  501 -0.0000000000e+00 -0.0000000000e+00 -1.8146527465e+03 1.8146527465e+03 0.0000000000e+00 0.0000e+00 -1.0000e+00
      -13  1    1    2    0    0 -2.5943979744e+02 +2.2764926410e+03 -2.7207517971e+02 2.3073258669e+03 0.0000000000e+00 0.0000e+00 -1.0000e+00
       13  1    1    2    0    0 +2.5943979744e+02 -2.2764926410e+03 +1.9751456526e+03 3.0250500991e+03 0.0000000000e+00 0.0000e+00 1.0000e+00
<mgrwt>
<rscale>  0 0.50530965E+04</rscale>
<asrwt>0</asrwt>
<pdfrwt beam="1">  1        2 0.54118819E+00 0.50530965E+04</pdfrwt>
<pdfrwt beam="2">  1       -2 0.27917735E+00 0.50530965E+04</pdfrwt>
<totfact> 0.22202897E-02</totfact>
</mgrwt>
<rwgt>
<wgt id='morphing_basis_vector_1'> +6.8277110e-06 </wgt>
<wgt id='morphing_basis_vector_2'> +4.7384657e-06 </wgt>
<wgt id='morphing_basis_vector_3'> +7.5452716e-06 </wgt>
<wgt id='morphing_basis_vector_4'> +5.3069049e-06 </wgt>
<wgt id='morphing_basis_vector_5'> +8.6062011e-06 </wgt>
</rwgt>
</event>
<event>
 4      1 +7.6845000e-11 4.92529800e+03 7.81860800e-03 7.39488900e-02
        2 -1    0    0  501    0 +0.0000000000e+00 +0.0000000000e+00 +2.3069948891e+03 2.3069948891e+03 0.0000000000e+00 0.0000e+00 -1.0000e+00
       -2 -1    0    0    0  501 -0.0000000000e+00 -0.0000000000e+00 -2.6288050561e+03 2.6288050561e+03 0.0000000000e+00 0.0000e+00 1.0000e+00
      -13  1    1    2    0    0 -1.4599637501e+03 +1.7345346598e+03 -1.1244828478e+03 2.5307244640e+03 0.0000000000e+00 0.0000e+00 1.0000e+00
       13  1    1    2    0    0 +1.4599637501e+03 -1.7345346598e+03 +8.0267268088e+02 2.4050754812e+03 0.0000000000e+00 0.0000e+00 -1.0000e+00
<mgrwt>
<rscale>  0 0.49252979E+04</rscale>
<asrwt>0</asrwt>
<pdfrwt beam="1">  1        2 0.35492229E+00 0.49252979E+04</pdfrwt>
<pdfrwt beam="2">  1       -2 0.40443155E+00 0.49252979E+04</pdfrwt>
<totfact> 0.20409079E-02</totfact>
</mgrwt>
<rwgt>
<wgt id='morphing_basis_vector_1'> +6.1712149e-06 </wgt>
<wgt id='morphing_basis_vector_2'> +4.2963114e-06 </wgt>
<wgt id='morphing_basis_vector_3'> +6.8208781e-06 </wgt>
<wgt id='morphing_basis_vector_4'> +4.7749516e-06 </wgt>
<wgt id='morphing_basis_vector_5'> +7.7643645e-06 </wgt>
</rwgt>
</event>
<event>
 4      1 +7.6845000e-11 5.40207600e+03 7.81860800e-03 7.33190200e-02
        2 -1    0    0  501    0 +0.0000000000e+00 +0.0000000000e+00 +3.5546032568e+03 3.5546032568e+03 0.0000000000e+00 0.0000e+00 1.0000e+00
       -2 -1    0    0    0  501 -0.0000000000e+00 -0.0000000000e+00 -2.0524386961e+03 2.0524386961e+03 0.0000000000e+00 0.0000e+00 -1.0000e+00
      -13  1    1    2    0    0 +7.5222830291e+02 -7.5024972899e+02 -1.8264612414e+03 2.1129795886e+03 0.0000000000e+00 0.0000e+00 -1.0000e+00
       13  1    1    2    0    0 -7.5222830291e+02 +7.5024972899e+02 +3.3286258021e+03 3.4940623643e+03 0.0000000000e+00 0.0000e+00 1.0000e+00
<mgrwt>
<rscale>  0 0.54020756E+04</rscale>
<asrwt>0</asrwt>
<pdfrwt beam="1">  1        2 0.54686204E+00 0.54020756E+04</pdfrwt>
<pdfrwt beam="2">  1       -2 0.31575980E+00 0.54020756E+04</pdfrwt>
<totfact> 0.11503815E-02</totfact>
</mgrwt>
<rwgt>
<wgt id='morphing_basis_vector_1'> +8.8530147e-06 </wgt>
<wgt id='morphing_basis_vector_2'> +6.0164176e-06 </wgt>
<wgt id='morphing_basis_vector_3'> +9.7605748e-06 </wgt>
<wgt id='morphing_basis_vector_4'> +7.0614562e-06 </wgt>
<wgt id='morphing_basis_vector_5'> +1.1260637e-05 </wgt>
</rwgt>
</event>
<event>
 4      1 +7.6845000e-11 4.72980700e+03 7.81860800e-03 7.42284600e-02
        2 -1    0    0  501    0 +0.0000000000e+00 +0.0000000000e+00 +3.2729668176e+03 3.2729668176e+03 0.0000000000e+00 0.0000e+00 -1.0000e+00
       -2 -1    0    0    0  501 -0.0000000000e+00 -0.0000000000e+00 -1.7087764091e+03 1.7087764091e+03 0.0000000000e+00 0.0000e+00 1.0000e+00
      -13  1    1    2    0    0 -2.0748026606e+03 +1.1093206446e+03 +1.0343740144e+03 2.5700832622e+03 0.0000000000e+00 0.0000e+00 1.0000e+00
       13  1    1    2    0    0 +2.0748026606e+03 -1.1093206446e+03 +5.2981639413e+02 2.4116599645e+03 0.0000000000e+00 0.0000e+00 -1.0000e+00
<mgrwt>
<rscale>  0 0.47298070E+04</rscale>
<asrwt>0</asrwt>
<pdfrwt beam="1">  1        2 0.50353336E+00 0.47298070E+04</pdfrwt>
<pdfrwt beam="2">  1       -2 0.26288868E+00 0.47298070E+04</pdfrwt>
<totfact> 0.43979323E-02</totfact>
</mgrwt>
<rwgt>
<wgt id='morphing_basis_vector_1'> +5.4855014e-06 </wgt>
<wgt id='morphing_basis_vector_2'> +4.3426923e-06 </wgt>
<wgt id='morphing_basis_vector_3'> +6.1801437e-06 </wgt>
<wgt id='morphing_basis_vector_4'> +3.5602601e-06 </wgt>
<wgt id='morphing_basis_vector_5'> +6.5577664e-06 </wgt>
</rwgt>
</event>
<event>
 4      1 +7.6845000e-11 5.07434800e+03 7.81860800e-03 7.37443900e-02
        2 -1    0    0  501    0 +0.0000000000e+00 +0.0000000000e+00 +2.8924130844e+03 2.8924130844e+03 0.0000000000e+00 0.0000e+00 -1.0000e+00
       -2 -1    0    0    0  501 -0.0000000000e+00 -0.0000000000e+00 -2.2255647817e+03 2.2255647817e+03 0.0000000000e+00 0.0000e+00 1.0000e+00
      -13  1    1    2    0    0 +7.7452575803e+02 +1.3610843533e+03 -1.6799386630e+03 2.2966572836e+03 0.0000000000e+00 0.0000e+00 1.0000e+00
       13  1    1    2    0    0 -7.7452575803e+02 -1.3610843533e+03 +2.3467869657e+03 2.8213205825e+03 0.0000000000e+00 0.0000e+00 -1.0000e+00
<mgrwt>
<rscale>  0 0.50743483E+04</rscale>
<asrwt>0</asrwt>
<pdfrwt beam="1">  1        2 0.44498663E+00 0.50743483E+04</pdfrwt>
<pdfrwt beam="2">  1       -2 0.34239458E+00 0.50743483E+04</pdfrwt>
<totfact> 0.22421834E-02</totfact>
</mgrwt>
<rwgt>
<wgt id='morphing_basis_vector_1'> +6.9010758e-06 </wgt>
<wgt id='morphing_basis_vector_2'> +4.6956842e-06 </wgt>
<wgt id='morphing_basis_vector_3'> +7.6050339e-06 </wgt>
<wgt id='morphing_basis_vector_4'> +5.4862220e-06 </wgt>
<wgt id='morphing_basis_vector_5'> +8.7598312e-06 </wgt>
</rwgt>
</event>
<event>
 4      1 +7.6845000e-11 4.76815500e+03 7.81860800e-03 7.41725600e-02
        2 -1    0    0  501    0 +0.0000000000e+00 +0.0000000000e+00 +1.0858547734e+03 1.0858547734e+03 0.0000000000e+00 0.0000e+00 1.0000e+00
       -2 -1    0    0    0  501 -0.0000000000e+00 -0.0000000000e+00 -5.2344258286e+03 5.2344258286e+03 0.0000000000e+00 0.0000e+00 -1.0000e+00
      -13  1    1    2    0    0 +3.4103549214e+02 +1.6960179477e+03 -4.2487202843e+03 4.5874182434e+03 0.0000000000e+00 0.0000e+00 -1.0000e+00
       13  1    1    2    0    0 -3.4103549214e+02 -1.6960179477e+03 +1.0014922906e+02 1.7328623586e+03 0.0000000000e+00 0.0000e+00 1.0000e+00
<mgrwt>
<rscale>  0 0.47681553E+04</rscale>
<asrwt>0</asrwt>
<pdfrwt beam="1">  1        2 0.16705458E+00 0.47681553E+04</pdfrwt>
<pdfrwt beam="2">  1       -2 0.80529630E+00 0.47681553E+04</pdfrwt>
<totfact> 0.18956467E-03</totfact>
</mgrwt>
<rwgt>
<wgt id='morphing_basis_vector_1'> +5.3890911e-06 </wgt>
<wgt id='morphing_basis_vector_2'> +3.6748356e-06 </wgt>
<wgt id='morphing_basis_vector_3'> +5.9363789e-06 </wgt>
<wgt id='morphing_basis_vector_4'> +4.2644714e-06 </wgt>
<wgt id='morphing_basis_vector_5'> +6.8229521e-06 </wgt>
</rwgt>
</event>
<event>
 4      1 +7.6845000e-11 4.70872500e+03 7.81860800e-03 7.42594200e-02
        2 -1    0    0  501    0 +0.0000000000e+00 +0.0000000000e+00 +2.7378144911e+03 2.7378144911e+03 0.0000000000e+00 0.0000e+00 -1.0000e+00
       -2 -1    0    0    0  501 -0.0000000000e+00 -0.0000000000e+00 -2.0246162577e+03 2.0246162577e+03 0.0000000000e+00 0.0000e+00 1.0000e+00
      -13  1    1    2    0    0 +3.6352277106e+02 -4.2556528695e+02 -1.9563525997e+03 2.0348390877e+03 0.0000000000e+00 0.0000e+00 1.0000e+00
       13  1    1    2    0    0 -3.6352277106e+02 +4.2556528695e+02 +2.6695508331e+03 2.7275916610e+03 0.0000000000e+00 0.0000e+00 -1.0000e+00
<mgrwt>
<rscale>  0 0.47087254E+04</rscale>
<asrwt>0</asrwt>
<pdfrwt beam="1">  1        2 0.42120223E+00 0.47087254E+04</pdfrwt>
<pdfrwt beam="2">  1       -2 0.31147943E+00 0.47087254E+04</pdfrwt>
<totfact> 0.46198252E-02</totfact>
</mgrwt>
<rwgt>
<wgt id='morphing_basis_vector_1'> +5.1192667e-06 </wgt>
<wgt id='morphing_basis_vector_2'> +3.4745102e-06 </wgt>
<wgt id='morphing_basis_vector_3'> +5.6345257e-06 </wgt>
<wgt id='morphing_basis_vector_4'> +4.0701421e-06 </wgt>
<wgt id='morphing_basis_vector_5'> +6.4892055e-06 </wgt>
</rwgt>
</event>
<event>
 4      1 +7.6845000e-11 4.72377500e+03 7.81860800e-03 7.42373000e-02
        2 -1    0    0  501    0 +0.0000000000e+00 +0.0000000000e+00 +3.0104103066e+03 3.0104103066e+03 0.0000000000e+00 0.0000e+00 -1.0000e+00
       -2 -1    0    0    0  501 -0.0000000000e+00 -0.0000000000e+00 -1.8530737386e+03 1.8530737386e+03 0.0000000000e+00 0.0000e+00 1.0000e+00
      -13  1    1    2    0    0 -1.3523496082e+03 +1.3383724148e+03 -8.6215743966e+02 2.0888766441e+03 0.0000000000e+00 0.0000e+00 1.0000e+00
       13  1    1    2    0    0 +1.3523496082e+03 -1.3383724148e+03 +2.0194940076e+03 2.7746074011e+03 0.0000000000e+00 0.0000e+00 -1.0000e+00
<mgrwt>
<rscale>  0 0.47237749E+04</rscale>
<asrwt>0</asrwt>
<pdfrwt beam="1">  1        2 0.46314004E+00 0.47237749E+04</pdfrwt>
<pdfrwt beam="2">  1       -2 0.28508827E+00 0.47237749E+04</pdfrwt>
<totfact> 0.46606529E-02</totfact>
</mgrwt>
<rwgt>
<wgt id='morphing_basis_vector_1'> +5.1985082e-06 </wgt>
<wgt id='morphing_basis_vector_2'> +3.5593915e-06 </wgt>
<wgt id='morphing_basis_vector_3'> +5.7291065e-06 </wgt>
<wgt id='morphing_basis_vector_4'> +4.0934113e-06 </wgt>
<wgt id='morphing_basis_vector_5'> +6.5704189e-06 </wgt>
</rwgt>
</event>
<event>
 4      1 +7.6845000e-11 5.49116900e+03 7.81860800e-03 7.32087100e-02
        2 -1    0    0  501    0 +0.0000000000e+00 +0.0000000000e+00 +3.9323666391e+03 3.9323666391e+03 0.0000000000e+00 0.0000e+00 1.0000e+00
       -2 -1    0    0    0  501 -0.0000000000e+00 -0.0000000000e+00 -1.9169711297e+03 1.9169711297e+03 0.0000000000e+00 0.0000e+00 -1.0000e+00
      -13  1    1    2    0    0 +2.3855055151e+02 -2.3932921795e+03 -4.0286451500e+02 2.4386581638e+03 0.0000000000e+00 0.0000e+00 -1.0000e+00
       13  1    1    2    0    0 -2.3855055151e+02 +2.3932921795e+03 +2.4182600244e+03 3.4106796050e+03 0.0000000000e+00 0.0000e+00 1.0000e+00
<mgrwt>
<rscale>  0 0.54911687E+04</rscale>
<asrwt>0</asrwt>
<pdfrwt beam="1">  1        2 0.60497948E+00 0.54911687E+04</pdfrwt>
<pdfrwt beam="2">  1       -2 0.29491864E+00 0.54911687E+04</pdfrwt>
<totfact> 0.79488874E-03</totfact>
</mgrwt>
<rwgt>
<wgt id='morphing_basis_vector_1'> +9.4957403e-06 </wgt>
<wgt id='morphing_basis_vector_2'> +6.5572585e-06 </wgt>
<wgt id='morphing_basis_vector_3'> +1.0495042e-05 </wgt>
<wgt id='morphing_basis_vector_4'> +7.4424282e-06 </wgt>
<wgt id='morphing_basis_vector_5'> +1.2015963e-05 </wgt>
</rwgt>
</event>
<event>
 4      1 +7.6845000e-11 4.63077800e+03 7.81860800e-03 7.43753200e-02
        2 -1    0    0  501    0 +0.0000000000e+00 +0.0000000000e+00 +3.6274863779e+03 3.6274863779e+03 0.0000000000e+00 0.0000e+00 -1.0000e+00
       -2 -1    0    0    0  501 -0.0000000000e+00 -0.0000000000e+00 -1.4778900300e+03 1.4778900300e+03 0.0000000000e+00 0.0000e+00 1.0000e+00
      -13  1    1    2    0    0 +6.4613790856e+02 +5.0487350333e+02 -1.3124469017e+03 1.5475491336e+03 0.0000000000e+00 0.0000e+00 1.0000e+00
       13  1    1    2    0    0 -6.4613790856e+02 -5.0487350333e+02 +3.4620432496e+03 3.5578272742e+03 0.0000000000e+00 0.0000e+00 -1.0000e+00
<mgrwt>
<rscale>  0 0.46307779E+04</rscale>
<asrwt>0</asrwt>
<pdfrwt beam="1">  1        2 0.55807483E+00 0.46307779E+04</pdfrwt>
<pdfrwt beam="2">  1       -2 0.22736770E+00 0.46307779E+04</pdfrwt>
<totfact> 0.43281180E-02</totfact>
</mgrwt>
<rwgt>
<wgt id='morphing_basis_vector_1'> +4.7899995e-06 </wgt>
<wgt id='morphing_basis_vector_2'> +3.2509390e-06 </wgt>
<wgt id='morphing_basis_vector_3'> +5.2709732e-06 </wgt>
<wgt id='morphing_basis_vector_4'> +3.8059725e-06 </wgt>
<wgt id='morphing_basis_vector_5'> +6.0685664e-06 </wgt>
</rwgt>
</event>
<event>
 4      1 +7.6845000e-11 4.86625000e+03 7.81860800e-03 7.40319400e-02
        2 -1    0    0  501    0 +0.0000000000e+00 +0.0000000000e+00 +3.2755217131e+03 3.2755217131e+03 0.0000000000e+00 0.0000e+00 -1.0000e+00
       -2 -1    0    0    0  501 -0.0000000000e+00 -0.0000000000e+00 -1.8073750599e+03 1.8073750599e+03 0.0000000000e+00 0.0000e+00 1.0000e+00
      -13  1    1    2    0    0 +1.8296928816e+03 +8.8813015550e+02 -6.6087766713e+02 2.1385299869e+03 0.0000000000e+00 0.0000e+00 1.0000e+00
       13  1    1    2    0    0 -1.8296928816e+03 -8.8813015550e+02 +2.1290243204e+03 2.9443667860e+03 0.0000000000e+00 0.0000e+00 -1.0000e+00
<mgrwt>
<rscale>  0 0.48662496E+04</rscale>
<asrwt>0</asrwt>
<pdfrwt beam="1">  1        2 0.50392641E+00 0.48662496E+04</pdfrwt>
<pdfrwt beam="2">  1       -2 0.27805770E+00 0.48662496E+04</pdfrwt>
<totfact> 0.34129126E-02</totfact>
</mgrwt>
<rwgt>
<wgt id='morphing_basis_vector_1'> +5.8566852e-06 </wgt>
<wgt id='morphing_basis_vector_2'> +4.0212866e-06 </wgt>
<wgt id='morphing_basis_vector_3'> +6.4593974e-06 </wgt>
<wgt id='morphing_basis_vector_4'> +4.6022333e-06 </wgt>
<wgt id='morphing_basis_vector_5'> +7.4019184e-06 </wgt>
</rwgt>
</event>
<event>
 4      1 +7.6845000e-11 5.10410600e+03 7.81860800e-03 7.37044200e-02
        2 -1    0    0  501    0 +0.0000000000e+00 +0.0000000000e+00 +3.1431487580e+03 3.1431487580e+03 0.0000000000e+00 0.0000e+00 -1.0000e+00
       -2 -1    0    0    0  501 -0.0000000000e+00 -0.0000000000e+00 -2.0721182067e+03 2.0721182067e+03 0.0000000000e+00 0.0000e+00 1.0000e+00
      -13  1    1    2    0    0 -2.1756526174e+03 +1.3034347398e+03 +8.2554446482e+02 2.6671951739e+03 0.0000000000e+00 0.0000e+00 1.0000e+00
       13  1    1    2    0    0 +2.1756526174e+03 -1.3034347398e+03 +2.4548608654e+02 2.5480717908e+03 0.0000000000e+00 0.0000e+00 -1.0000e+00
<mgrwt>
<rscale>  0 0.51041065E+04</rscale>
<asrwt>0</asrwt>
<pdfrwt beam="1">  1        2 0.48356135E+00 0.51041065E+04</pdfrwt>
<pdfrwt beam="2">  1       -2 0.31878742E+00 0.51041065E+04</pdfrwt>
<totfact> 0.21933068E-02</totfact>
</mgrwt>
<rwgt>
<wgt id='morphing_basis_vector_1'> +7.4444904e-06 </wgt>
<wgt id='morphing_basis_vector_2'> +5.9243629e-06 </wgt>
<wgt id='morphing_basis_vector_3'> +8.4031606e-06 </wgt>
<wgt id='morphing_basis_vector_4'> +4.8050264e-06 </wgt>
<wgt id='morphing_basis_vector_5'> +8.8997209e-06 </wgt>
</rwgt>
</event>
<event>
 4      1 +7.6845000e-11 4.89799500e+03 7.81860800e-03 7.39871400e-02
        2 -1    0    0  501    0 +0.0000000000e+00 +0.0000000000e+00 +2.3842511118e+03 2.3842511118e+03 0.0000000000e+00 0.0000e+00 -1.0000e+00
       -2 -1    0    0    0  501 -0.0000000000e+00 -0.0000000000e+00 -2.5155025918e+03 2.5155025918e+03 0.0000000000e+00 0.0000e+00 1.0000e+00
      -13  1    1    2    0    0 -1.5790421295e+03 -8.9975130698e+02 -1.7077580029e+03 2.4938652445e+03 0.0000000000e+00 0.0000e+00 1.0000e+00
       13  1    1    2    0    0 +1.5790421295e+03 +8.9975130698e+02 +1.5765065229e+03 2.4058884592e+03 0.0000000000e+00 0.0000e+00 -1.0000e+00
<mgrwt>
<rscale>  0 0.48979954E+04</rscale>
<asrwt>0</asrwt>
<pdfrwt beam="1">  1        2 0.36680786E+00 0.48979954E+04</pdfrwt>
<pdfrwt beam="2">  1       -2 0.38700040E+00 0.48979954E+04</pdfrwt>
<totfact> 0.23941024E-02</totfact>
</mgrwt>
<rwgt>
<wgt id='morphing_basis_vector_1'> +5.9994037e-06 </wgt>
<wgt id='morphing_basis_vector_2'> +4.0945814e-06 </wgt>
<wgt id='morphing_basis_vector_3'> +6.6116219e-06 </wgt>
<wgt id='morphing_basis_vector_4'> +4.7474878e-06 </wgt>
<wgt id='morphing_basis_vector_5'> +7.5996005e-06 </wgt>
</rwgt>
</event>
<event>
 4      1 +7.6845000e-11 4.86954300e+03 7.81860800e-03 7.40272800e-02
        2 -1    0    0  501    0 +0.0000000000e+00 +0.0000000000e+00 +2.3076923009e+03 2.3076923009e+03 0.0000000000e+00 0.0000e+00 1.0000e+00
       -2 -1    0    0    0  501 -0.0000000000e+00 -0.0000000000e+00 -2.5688487732e+03 2.5688487732e+03 0.0000000000e+00 0.0000e+00 -1.0000e+00
      -13  1    1    2    0    0 -1.2200016730e+03 +8.8550869933e+02 -2.0452837310e+03 2.5408099651e+03 0.0000000000e+00 0.0000e+00 -1.0000e+00
       13  1    1    2    0    0 +1.2200016730e+03 -8.8550869933e+02 +1.7841272587e+03 2.3357311091e+03 0.0000000000e+00 0.0000e+00 1.0000e+00
<mgrwt>
<rscale>  0 0.48695431E+04</rscale>
<asrwt>0</asrwt>
<pdfrwt beam="1">  1        2 0.35502959E+00 0.48695431E+04</pdfrwt>
<pdfrwt beam="2">  1       -2 0.39520750E+00 0.48695431E+04</pdfrwt>
<totfact> 0.23524512E-02</totfact>
</mgrwt>
<rwgt>
<wgt id='morphing_basis_vector_1'> +5.8558587e-06 </wgt>
<wgt id='morphing_basis_vector_2'> +3.9832896e-06 </wgt>
<wgt id='morphing_basis_vector_3'> +6.4499197e-06 </wgt>
<wgt id='morphing_basis_vector_4'> +4.6501823e-06 </wgt>
<wgt id='morphing_basis_vector_5'> +7.4250136e-06 </wgt>
</rwgt>
</event>
<event>
 4      1 +7.6845000e-11 4.71857300e+03 7.81860800e-03 7.42449400e-02
        2 -1    0    0  501    0 +0.0000000000e+00 +0.0000000000e+00 +3.0955110802e+03 3.0955110802e+03 0.0000000000e+00 0.0000e+00 -1.0000e+00
       -2 -1    0    0    0  501 -0.0000000000e+00 -0.0000000000e+00 -1.7981624991e+03 1.7981624991e+03 0.0000000000e+00 0.0000e+00 1.0000e+00
      -13  1    1    2    0    0 +2.0268636928e+03 -9.6788567612e+02 +1.3974445126e+03 2.6453412402e+03 0.0000000000e+00 0.0000e+00 1.0000e+00
       13  1    1    2    0    0 -2.0268636928e+03 +9.6788567612e+02 -1.0009593151e+02 2.2483323390e+03 0.0000000000e+00 0.0000e+00 -1.0000e+00
<mgrwt>
<rscale>  0 0.47185726E+04</rscale>
<asrwt>0</asrwt>
<pdfrwt beam="1">  1        2 0.47623247E+00 0.47185726E+04</pdfrwt>
<pdfrwt beam="2">  1       -2 0.27664038E+00 0.47185726E+04</pdfrwt>
<totfact> 0.46768231E-02</totfact>
</mgrwt>
<rwgt>
<wgt id='morphing_basis_vector_1'> +5.6993447e-06 </wgt>
<wgt id='morphing_basis_vector_2'> +5.0817549e-06 </wgt>
<wgt id='morphing_basis_vector_3'> +6.5515480e-06 </wgt>
<wgt id='morphing_basis_vector_4'> +2.9614603e-06 </wgt>
<wgt id='morphing_basis_vector_5'> +6.4481677e-06 </wgt>
</rwgt>
</event>
<event>
 4      1 +7.6845000e-11 5.25689900e+03 7.81860800e-03 7.35035300e-02
        2 -1    0    0  501    0 +0.0000000000e+00 +0.0000000000e+00 +2.7794999624e+03 2.7794999624e+03 0.0000000000e+00 0.0000e+00 -1.0000e+00
       -2 -1    0    0    0  501 -0.0000000000e+00 -0.0000000000e+00 -2.4856076674e+03 2.4856076674e+03 0.0000000000e+00 0.0000e+00 1.0000e+00
      -13  1    1    2    0    0 +5.4795938592e+02 +4.3943047749e+02 -2.3898705528e+03 2.4909516038e+03 0.0000000000e+00 0.0000e+00 1.0000e+00
       13  1    1    2    0    0 -5.4795938592e+02 -4.3943047749e+02 +2.6837628478e+03 2.7741560260e+03 0.0000000000e+00 0.0000e+00 -1.0000e+00
<mgrwt>
<rscale>  0 0.52568989E+04</rscale>
<asrwt>0</asrwt>
<pdfrwt beam="1">  1        2 0.42761538E+00 0.52568989E+04</pdfrwt>
<pdfrwt beam="2">  1       -2 0.38240118E+00 0.52568989E+04</pdfrwt>
<totfact> 0.14380681E-02</totfact>
</mgrwt>
<rwgt>
<wgt id='morphing_basis_vector_1'> +7.9410664e-06 </wgt>
<wgt id='morphing_basis_vector_2'> +5.3945926e-06 </wgt>
<wgt id='morphing_basis_vector_3'> +8.7523193e-06 </wgt>
<wgt id='morphing_basis_vector_4'> +6.3315267e-06 </wgt>
<wgt id='morphing_basis_vector_5'> +1.0095092e-05 </wgt>
</rwgt>
</event>
<event>
 4      1 +7.6845000e-11 4.90678800e+03 7.81860800e-03 7.39748000e-02
        2 -1    0    0  501    0 +0.0000000000e+00 +0.0000000000e+00 +2.2130714089e+03 2.2130714089e+03 0.0000000000e+00 0.0000e+00 -1.0000e+00
       -2 -1    0    0    0  501 -0.0000000000e+00 -0.0000000000e+00 -2.7198138722e+03 2.7198138722e+03 0.0000000000e+00 0.0000e+00 1.0000e+00
      -13  1    1    2    0    0 +7.1331695201e+02 -7.3061496526e+01 -2.6121201574e+03 2.7087507772e+03 0.0000000000e+00 0.0000e+00 1.0000e+00
       13  1    1    2    0    0 -7.1331695201e+02 +7.3061496526e+01 +2.1053776942e+03 2.2241345039e+03 0.0000000000e+00 0.0000e+00 -1.0000e+00
<mgrwt>
<rscale>  0 0.49067881E+04</rscale>
<asrwt>0</asrwt>
<pdfrwt beam="1">  1        2 0.34047252E+00 0.49067881E+04</pdfrwt>
<pdfrwt beam="2">  1       -2 0.41843290E+00 0.49067881E+04</pdfrwt>
<totfact> 0.18721037E-02</totfact>
</mgrwt>
<rwgt>
<wgt id='morphing_basis_vector_1'> +6.0330099e-06 </wgt>
<wgt id='morphing_basis_vector_2'> +4.0962949e-06 </wgt>
<wgt id='morphing_basis_vector_3'> +6.6439058e-06 </wgt>
<wgt id='morphing_basis_vector_4'> +4.8018861e-06 </wgt>
<wgt id='morphing_basis_vector_5'> +7.6561833e-06 </wgt>
</rwgt>
</event>
<event>
 4      1 +7.6845000e-11 4.91577500e+03 7.81860800e-03 7.39622000e-02
        2 -1    0    0  501    0 +0.0000000000e+00 +0.0000000000e+00 +2.5864018185e+03 2.5864018185e+03 0.0000000000e+00 0.0000e+00 -1.0000e+00
       -2 -1    0    0    0  501 -0.0000000000e+00 -0.0000000000e+00 -2.3357591678e+03 2.3357591678e+03 0.0000000000e+00 0.0000e+00 1.0000e+00
      -13  1    1    2    0    0 -1.5890937571e+03 -1.6847171021e+03 -6.9898623751e+02 2.4191057115e+03 0.0000000000e+00 0.0000e+00 1.0000e+00
       13  1    1    2    0    0 +1.5890937571e+03 +1.6847171021e+03 +9.4962888824e+02 2.5030552748e+03 0.0000000000e+00 0.0000e+00 -1.0000e+00
<mgrwt>
<rscale>  0 0.49157753E+04</rscale>
<asrwt>0</asrwt>
<pdfrwt beam="1">  1        2 0.39790797E+00 0.49157753E+04</pdfrwt>
<pdfrwt beam="2">  1       -2 0.35934756E+00 0.49157753E+04</pdfrwt>
<totfact> 0.27309047E-02</totfact>
</mgrwt>
<rwgt>
<wgt id='morphing_basis_vector_1'> +6.1370465e-06 </wgt>
<wgt id='morphing_basis_vector_2'> +4.3021660e-06 </wgt>
<wgt id='morphing_basis_vector_3'> +6.7897894e-06 </wgt>
<wgt id='morphing_basis_vector_4'> +4.7097772e-06 </wgt>
<wgt id='morphing_basis_vector_5'> +7.7019308e-06 </wgt>
</rwgt>
</event>
<event>
 4      1 +7.6845000e-11 5.38823800e+03 7.81860800e-03 7.33363500e-02
        2 -1    0    0  501    0 +0.0000000000e+00 +0.0000000000e+00 +3.0158195765e+03 3.0158195765e+03 0.0000000000e+00 0.0000e+00 -1.0000e+00
       -2 -1    0    0    0  501 -0.0000000000e+00 -0.0000000000e+00 -2.4067342225e+03 2.4067342225e+03 0.0000000000e+00 0.0000e+00 1.0000e+00
      -13  1    1    2    0    0 -8.0547656298e+02 -1.9390499113e+02 -2.2753526843e+03 2.4214915810e+03 0.0000000000e+00 0.0000e+00 1.0000e+00
       13  1    1    2    0    0 +8.0547656298e+02 +1.9390499113e+02 +2.8844380383e+03 3.0010622179e+03 0.0000000000e+00 0.0000e+00 -1.0000e+00
<mgrwt>
<rscale>  0 0.53882376E+04</rscale>
<asrwt>0</asrwt>
<pdfrwt beam="1">  1        2 0.46397225E+00 0.53882376E+04</pdfrwt>
<pdfrwt beam="2">  1       -2 0.37026680E+00 0.53882376E+04</pdfrwt>
<totfact> 0.12038938E-02</totfact>
</mgrwt>
<rwgt>
<wgt id='morphing_basis_vector_1'> +8.7624941e-06 </wgt>
<wgt id='morphing_basis_vector_2'> +5.9538693e-06 </wgt>
<wgt id='morphing_basis_vector_3'> +9.6602977e-06 </wgt>
<wgt id='morphing_basis_vector_4'> +6.9900647e-06 </wgt>
<wgt id='morphing_basis_vector_5'> +1.1145461e-05 </wgt>
</rwgt>
</event>
<event>
 4      1 +7.6845000e-11 5.07427100e+03 7.81860800e-03 7.37444900e-02
        2 -1    0    0  501    0 +0.0000000000e+00 +0.0000000000e+00 +3.9121272918e+03 3.9121272918e+03 0.0000000000e+00 0.0000e+00 -1.0000e+00
       -2 -1    0    0    0  501 -0.0000000000e+00 -0.0000000000e+00 -1.6454107787e+03 1.6454107787e+03 0.0000000000e+00 0.0000e+00 1.0000e+00
      -13  1    1    2    0    0 -8.9486972467e+02 -2.1159010014e+02 -1.4564805447e+03 1.7224685111e+03 0.0000000000e+00 0.0000e+00 1.0000e+00
       13  1    1    2    0    0 +8.9486972467e+02 +2.1159010014e+02 +3.7231970578e+03 3.8350695594e+03 0.0000000000e+00 0.0000e+00 -1.0000e+00
<mgrwt>
<rscale>  0 0.50742709E+04</rscale>
<asrwt>0</asrwt>
<pdfrwt beam="1">  1        2 0.60186574E+00 0.50742709E+04</pdfrwt>
<pdfrwt beam="2">  1       -2 0.25314012E+00 0.50742709E+04</pdfrwt>
<totfact> 0.16450165E-02</totfact>
</mgrwt>
<rwgt>
<wgt id='morphing_basis_vector_1'> +6.8969984e-06 </wgt>
<wgt id='morphing_basis_vector_2'> +4.6846568e-06 </wgt>
<wgt id='morphing_basis_vector_3'> +7.5986307e-06 </wgt>
<wgt id='morphing_basis_vector_4'> +5.4936831e-06 </wgt>
<wgt id='morphing_basis_vector_5'> +8.7599491e-06 </wgt>
</rwgt>
</event>
<event>
 4      1 +7.6845000e-11 4.66730200e+03 7.81860800e-03 7.43207300e-02
        2 -1    0    0  501    0 +0.0000000000e+00 +0.0000000000e+00 +2.1430823597e+03 2.1430823597e+03 0.0000000000e+00 0.0000e+00 -1.0000e+00
       -2 -1    0    0    0  501 -0.0000000000e+00 -0.0000000000e+00 -2.5411654929e+03 2.5411654929e+03 0.0000000000e+00 0.0000e+00 1.0000e+00
      -13  1    1    2    0    0 -7.1004576954e+02 -2.2018443554e+03 +1.0808155082e+02 2.3160235711e+03 0.0000000000e+00 0.0000e+00 1.0000e+00
       13  1    1    2    0    0 +7.1004576954e+02 +2.2018443554e+03 -5.0616468399e+02 2.3682242815e+03 0.0000000000e+00 0.0000e+00 -1.0000e+00
<mgrwt>
<rscale>  0 0.46673020E+04</rscale>
<asrwt>0</asrwt>
<pdfrwt beam="1">  1        2 0.32970498E+00 0.46673020E+04</pdfrwt>
<pdfrwt beam="2">  1       -2 0.39094854E+00 0.46673020E+04</pdfrwt>
<totfact> 0.31670594E-02</totfact>
</mgrwt>
<rwgt>
<wgt id='morphing_basis_vector_1'> +5.2304615e-06 </wgt>
<wgt id='morphing_basis_vector_2'> +4.2009280e-06 </wgt>
<wgt id='morphing_basis_vector_3'> +5.9054032e-06 </wgt>
<wgt id='morphing_basis_vector_4'> +3.3151645e-06 </wgt>
<wgt id='morphing_basis_vector_5'> +6.2117383e-06 </wgt>
</rwgt>
</event>
<event>
 4      1 +7.6845000e-11 5.23947500e+03 7.81860800e-03 7.35260800e-02
        2 -1    0    0  501    0 +0.0000000000e+00 +0.0000000000e+00 +3.2880286494e+03 3.2880286494e+03 0.0000000000e+00 0.0000e+00 -1.0000e+00
       -2 -1    0    0    0  501 -0.0000000000e+00 -0.0000000000e+00 -2.0872760799e+03 2.0872760799e+03 0.0000000000e+00 0.0000e+00 1.0000e+00
      -13  1    1    2    0    0 +5.3068982930e+02 +2.4762736919e+03 -8.7422009710e+01 2.5340098065e+03 0.0000000000e+00 0.0000e+00 1.0000e+00
       13  1    1    2    0    0 -5.3068982930e+02 -2.4762736919e+03 +1.2881745792e+03 2.8412949228e+03 0.0000000000e+00 0.0000e+00 -1.0000e+00
<mgrwt>
<rscale>  0 0.52394746E+04</rscale>
<asrwt>0</asrwt>
<pdfrwt beam="1">  1        2 0.50585056E+00 0.52394746E+04</pdfrwt>
<pdfrwt beam="2">  1       -2 0.32111940E+00 0.52394746E+04</pdfrwt>
<totfact> 0.16675483E-02</totfact>
</mgrwt>
<rwgt>
<wgt id='morphing_basis_vector_1'> +7.9447353e-06 </wgt>
<wgt id='morphing_basis_vector_2'> +5.6409741e-06 </wgt>
<wgt id='morphing_basis_vector_3'> +8.8126543e-06 </wgt>
<wgt id='morphing_basis_vector_4'> +6.0171277e-06 </wgt>
<wgt id='morphing_basis_vector_5'> +9.9421786e-06 </wgt>
</rwgt>
</event>
<event>
 4      1 +7.6845000e-11 4.87248500e+03 7.81860800e-03 7.40231200e-02
        2 -1    0    0  501    0 +0.0000000000e+00 +0.0000000000e+00 +3.2711675937e+03 3.2711675937e+03 0.0000000000e+00 0.0000e+00 -1.0000e+00
       -2 -1    0    0    0  501 -0.0000000000e+00 -0.0000000000e+00 -1.8144214759e+03 1.8144214759e+03 0.0000000000e+00 0.0000e+00 1.0000e+00
      -13  1    1    2    0    0 +6.4673435861e+02 -1.6855699138e+03 +2.4357244804e+03 3.0318583426e+03 0.0000000000e+00 0.0000e+00 -1.0000e+00
       13  1    1    2    0    0 -6.4673435861e+02 +1.6855699138e+03 -9.7897836262e+02 2.0537307271e+03 0.0000000000e+00 0.0000e+00 1.0000e+00
<mgrwt>
<rscale>  0 0.48724847E+04</rscale>
<asrwt>0</asrwt>
<pdfrwt beam="1">  1        2 0.50325655E+00 0.48724847E+04</pdfrwt>
<pdfrwt beam="2">  1       -2 0.27914177E+00 0.48724847E+04</pdfrwt>
<totfact> 0.33772085E-02</totfact>
</mgrwt>
<rwgt>
<wgt id='morphing_basis_vector_1'> +7.4776580e-06 </wgt>
<wgt id='morphing_basis_vector_2'> +8.7145623e-06 </wgt>
<wgt id='morphing_basis_vector_3'> +9.0717199e-06 </wgt>
<wgt id='morphing_basis_vector_4'> +1.2383386e-06 </wgt>
<wgt id='morphing_basis_vector_5'> +7.1562322e-06 </wgt>
</rwgt>
</event>
<event>
 4      1 +7.6845000e-11 4.80151000e+03 7.81860800e-03 7.41243700e-02
        2 -1    0    0  501    0 +0.0000000000e+00 +0.0000000000e+00 +2.6163760815e+03 2.6163760815e+03 0.0000000000e+00 0.0000e+00 1.0000e+00
       -2 -1    0    0    0  501 -0.0000000000e+00 -0.0000000000e+00 -2.2029038498e+03 2.2029038498e+03 0.0000000000e+00 0.0000e+00 -1.0000e+00
      -13  1    1    2    0    0 -1.3287597950e+03 +6.4588317831e+02 -1.6925824215e+03 2.2466871002e+03 0.0000000000e+00 0.0000e+00 -1.0000e+00
       13  1    1    2    0    0 +1.3287597950e+03 -6.4588317831e+02 +2.1060546531e+03 2.5725928311e+03 0.0000000000e+00 0.0000e+00 1.0000e+00
<mgrwt>
<rscale>  0 0.48015102E+04</rscale>
<asrwt>0</asrwt>
<pdfrwt beam="1">  1        2 0.40251940E+00 0.48015102E+04</pdfrwt>
<pdfrwt beam="2">  1       -2 0.33890828E+00 0.48015102E+04</pdfrwt>
<totfact> 0.35853561E-02</totfact>
</mgrwt>
<rwgt>
<wgt id='morphing_basis_vector_1'> +5.5363969e-06 </wgt>
<wgt id='morphing_basis_vector_2'> +3.7653098e-06 </wgt>
<wgt id='morphing_basis_vector_3'> +6.0968710e-06 </wgt>
<wgt id='morphing_basis_vector_4'> +4.3950965e-06 </wgt>
<wgt id='morphing_basis_vector_5'> +7.0173640e-06 </wgt>
</rwgt>
</event>
<event>
 4      1 +7.6845000e-11 4.85121500e+03 7.81860800e-03 7.40532800e-02
        2 -1    0    0  501    0 +0.0000000000e+00 +0.0000000000e+00 +3.2626550283e+03 3.2626550283e+03 0.0000000000e+00 0.0000e+00 -1.0000e+00
       -2 -1    0    0    0  501 -0.0000000000e+00 -0.0000000000e+00 -1.8033078362e+03 1.8033078362e+03 0.0000000000e+00 0.0000e+00 1.0000e+00
      -13  1    1    2    0    0 -1.3356710190e+03 -1.9452782309e+03 +1.3161825324e+03 2.7019365139e+03 0.0000000000e+00 0.0000e+00 1.0000e+00
       13  1    1    2    0    0 +1.3356710190e+03 +1.9452782309e+03 +1.4316465968e+02 2.3640263506e+03 0.0000000000e+00 0.0000e+00 -1.0000e+00
<mgrwt>
<rscale>  0 0.48512148E+04</rscale>
<asrwt>0</asrwt>
<pdfrwt beam="1">  1        2 0.50194693E+00 0.48512148E+04</pdfrwt>
<pdfrwt beam="2">  1       -2 0.27743197E+00 0.48512148E+04</pdfrwt>
<totfact> 0.35220574E-02</totfact>
</mgrwt>
<rwgt>
<wgt id='morphing_basis_vector_1'> +6.2366913e-06 </wgt>
<wgt id='morphing_basis_vector_2'> +5.2988158e-06 </wgt>
<wgt id='morphing_basis_vector_3'> +7.1122285e-06 </wgt>
<wgt id='morphing_basis_vector_4'> +3.5835638e-06 </wgt>
<wgt id='morphing_basis_vector_5'> +7.2299820e-06 </wgt>
</rwgt>
</event>
<event>
 4      1 +7.6845000e-11 4.70634900e+03 7.81860800e-03 7.42629200e-02
        2 -1    0    0  501    0 +0.0000000000e+00 +0.0000000000e+00 +3.1287481055e+03 3.1287481055e+03 0.0000000000e+00 0.0000e+00 1.0000e+00
       -2 -1    0    0    0  501 -0.0000000000e+00 -0.0000000000e+00 -1.7698548252e+03 1.7698548252e+03 0.0000000000e+00 0.0000e+00 -1.0000e+00
      -13  1    1    2    0    0 +3.2608352919e+02 -2.3199358098e+03 +9.0984225119e+02 2.5132141874e+03 0.0000000000e+00 0.0000e+00 -1.0000e+00
       13  1    1    2    0    0 -3.2608352919e+02 +2.3199358098e+03 +4.4905102905e+02 2.3853887433e+03 0.0000000000e+00 0.0000e+00 1.0000e+00
<mgrwt>
<rscale>  0 0.47063489E+04</rscale>
<asrwt>0</asrwt>
<pdfrwt beam="1">  1        2 0.48134586E+00 0.47063489E+04</pdfrwt>
<pdfrwt beam="2">  1       -2 0.27228536E+00 0.47063489E+04</pdfrwt>
<totfact> 0.47632314E-02</totfact>
</mgrwt>
<rwgt>
<wgt id='morphing_basis_vector_1'> +5.3712201e-06 </wgt>
<wgt id='morphing_basis_vector_2'> +4.2377927e-06 </wgt>
<wgt id='morphing_basis_vector_3'> +6.0476317e-06 </wgt>
<wgt id='morphing_basis_vector_4'> +3.5040769e-06 </wgt>
<wgt id='morphing_basis_vector_5'> +6.4293708e-06 </wgt>
</rwgt>
</event>
<event>
 4      1 +7.6845000e-11 4.79450300e+03 7.81860800e-03 7.41344600e-02
        2 -1    0    0  501    0 +0.0000000000e+00 +0.0000000000e+00 +1.8086249820e+03 1.8086249820e+03 0.0000000000e+00 0.0000e+00 -1.0000e+00
       -2 -1    0    0    0  501 -0.0000000000e+00 -0.0000000000e+00 -3.1774499905e+03 3.1774499905e+03 0.0000000000e+00 0.0000e+00 1.0000e+00
      -13  1    1    2    0    0 -6.4061719383e+02 +3.0563654805e+02 -3.0656657379e+03 3.1467619079e+03 0.0000000000e+00 0.0000e+00 1.0000e+00
       13  1    1    2    0    0 +6.4061719383e+02 -3.0563654805e+02 +1.6968407294e+03 1.8393130646e+03 0.0000000000e+00 0.0000e+00 -1.0000e+00
<mgrwt>
<rscale>  0 0.47945033E+04</rscale>
<asrwt>0</asrwt>
<pdfrwt beam="1">  1        2 0.27825000E+00 0.47945033E+04</pdfrwt>
<pdfrwt beam="2">  1       -2 0.48883845E+00 0.47945033E+04</pdfrwt>
<totfact> 0.10192849E-02</totfact>
</mgrwt>
<rwgt>
<wgt id='morphing_basis_vector_1'> +5.5012356e-06 </wgt>
<wgt id='morphing_basis_vector_2'> +3.7345120e-06 </wgt>
<wgt id='morphing_basis_vector_3'> +6.0564607e-06 </wgt>
<wgt id='morphing_basis_vector_4'> +4.3758591e-06 </wgt>
<wgt id='morphing_basis_vector_5'> +6.9768912e-06 </wgt>
</rwgt>
</event>
<event>
 4      1 +7.6845000e-11 4.85661800e+03 7.81860800e-03 7.40456000e-02
        2 -1    0    0  501    0 +0.0000000000e+00 +0.0000000000e+00 +3.9956464139e+03 3.9956464139e+03 0.0000000000e+00 0.0000e+00 -1.0000e+00
       -2 -1    0    0    0  501 -0.0000000000e+00 -0.0000000000e+00 -1.4757774182e+03 1.4757774182e+03 0.0000000000e+00 0.0000e+00 1.0000e+00
      -13  1    1    2    0    0 +1.1175083097e+03 -1.5510529585e+03 -4.2698119356e+02 1.9588014299e+03 0.0000000000e+00 0.0000e+00 1.0000e+00
       13  1    1    2    0    0 -1.1175083097e+03 +1.5510529585e+03 +2.9468501893e+03 3.5126224022e+03 0.0000000000e+00 0.0000e+00 -1.0000e+00
<mgrwt>
<rscale>  0 0.48566181E+04</rscale>
<asrwt>0</asrwt>
<pdfrwt beam="1">  1        2 0.61471483E+00 0.48566181E+04</pdfrwt>
<pdfrwt beam="2">  1       -2 0.22704268E+00 0.48566181E+04</pdfrwt>
<totfact> 0.21638843E-02</totfact>
</mgrwt>
<rwgt>
<wgt id='morphing_basis_vector_1'> +5.8039541e-06 </wgt>
<wgt id='morphing_basis_vector_2'> +3.9700252e-06 </wgt>
<wgt id='morphing_basis_vector_3'> +6.3976229e-06 </wgt>
<wgt id='morphing_basis_vector_4'> +4.5799689e-06 </wgt>
<wgt id='morphing_basis_vector_5'> +7.3444842e-06 </wgt>
</rwgt>
</event>
<event>
 4      1 +7.6845000e-11 4.71839400e+03 7.81860800e-03 7.42452000e-02
        2 -1    0    0  501    0 +0.0000000000e+00 +0.0000000000e+00 +2.6404438360e+03 2.6404438360e+03 0.0000000000e+00 0.0000e+00 -1.0000e+00
       -2 -1    0    0    0  501 -0.0000000000e+00 -0.0000000000e+00 -2.1079067703e+03 2.1079067703e+03 0.0000000000e+00 0.0000e+00 1.0000e+00
      -13  1    1    2    0    0 -2.7803811790e+02 +1.0774563306e+03 -1.8272257353e+03 2.1393857126e+03 0.0000000000e+00 0.0000e+00 1.0000e+00
       13  1    1    2    0    0 +2.7803811790e+02 -1.0774563306e+03 +2.3597628011e+03 2.6089648937e+03 0.0000000000e+00 0.0000e+00 -1.0000e+00
<mgrwt>
<rscale>  0 0.47183936E+04</rscale>
<asrwt>0</asrwt>
<pdfrwt beam="1">  1        2 0.40622213E+00 0.47183936E+04</pdfrwt>
<pdfrwt beam="2">  1       -2 0.32429335E+00 0.47183936E+04</pdfrwt>
<totfact> 0.43545103E-02</totfact>
</mgrwt>
<rwgt>
<wgt id='morphing_basis_vector_1'> +5.1620715e-06 </wgt>
<wgt id='morphing_basis_vector_2'> +3.5054050e-06 </wgt>
<wgt id='morphing_basis_vector_3'> +5.6822074e-06 </wgt>
<wgt id='morphing_basis_vector_4'> +4.1021157e-06 </wgt>
<wgt id='morphing_basis_vector_5'> +6.5427170e-06 </wgt>
</rwgt>
</event>
<event>
 4      1 +7.6845000e-11 4.72870800e+03 7.81860800e-03 7.42300700e-02
        2 -1    0    0  501    0 +0.0000000000e+00 +0.0000000000e+00 +3.9256318689e+03 3.9256318689e+03 0.0000000000e+00 0.0000e+00 1.0000e+00
       -2 -1    0    0    0  501 -0.0000000000e+00 -0.0000000000e+00 -1.4240178659e+03 1.4240178659e+03 0.0000000000e+00 0.0000e+00 -1.0000e+00
      -13  1    1    2    0    0 +7.6124816051e+02 +1.3027582406e+03 -8.0852239433e+02 1.7118371002e+03 0.0000000000e+00 0.0000e+00 -1.0000e+00
       13  1    1    2    0    0 -7.6124816051e+02 -1.3027582406e+03 +3.3101363973e+03 3.6378126346e+03 0.0000000000e+00 0.0000e+00 1.0000e+00
<mgrwt>
<rscale>  0 0.47287080E+04</rscale>
<asrwt>0</asrwt>
<pdfrwt beam="1">  1        2 0.60394336E+00 0.47287080E+04</pdfrwt>
<pdfrwt beam="2">  1       -2 0.21907967E+00 0.47287080E+04</pdfrwt>
<totfact> 0.28496149E-02</totfact>
</mgrwt>
<rwgt>
<wgt id='morphing_basis_vector_1'> +5.2099393e-06 </wgt>
<wgt id='morphing_basis_vector_2'> +3.5441883e-06 </wgt>
<wgt id='morphing_basis_vector_3'> +5.7364952e-06 </wgt>
<wgt id='morphing_basis_vector_4'> +4.1323788e-06 </wgt>
<wgt id='morphing_basis_vector_5'> +6.5998299e-06 </wgt>
</rwgt>
</event>
<event>
 4      1 +7.6845000e-11 4.79048700e+03 7.81860800e-03 7.41402500e-02
        2 -1    0    0  501    0 +0.0000000000e+00 +0.0000000000e+00 +2.8451774321e+03 2.8451774321e+03 0.0000000000e+00 0.0000e+00 -1.0000e+00
       -2 -1    0    0    0  501 -0.0000000000e+00 -0.0000000000e+00 -2.0164617770e+03 2.0164617770e+03 0.0000000000e+00 0.0000e+00 1.0000e+00
      -13  1    1    2    0    0 -1.3331836594e+03 -4.6826449683e+02 -1.5484160925e+03 2.0962449056e+03 0.0000000000e+00 0.0000e+00 1.0000e+00
       13  1    1    2    0    0 +1.3331836594e+03 +4.6826449683e+02 +2.3771317475e+03 2.7653943035e+03 0.0000000000e+00 0.0000e+00 -1.0000e+00
<mgrwt>
<rscale>  0 0.47904870E+04</rscale>
<asrwt>0</asrwt>
<pdfrwt beam="1">  1        2 0.43771961E+00 0.47904870E+04</pdfrwt>
<pdfrwt beam="2">  1       -2 0.31022489E+00 0.47904870E+04</pdfrwt>
<totfact> 0.40083477E-02</totfact>
</mgrwt>
<rwgt>
<wgt id='morphing_basis_vector_1'> +5.4853127e-06 </wgt>
<wgt id='morphing_basis_vector_2'> +3.7291432e-06 </wgt>
<wgt id='morphing_basis_vector_3'> +6.0401197e-06 </wgt>
<wgt id='morphing_basis_vector_4'> +4.3560132e-06 </wgt>
<wgt id='morphing_basis_vector_5'> +6.9530311e-06 </wgt>
</rwgt>
</event>
<event>
 4      1 +7.6845000e-11 5.40475800e+03 7.81860800e-03 7.33156700e-02
        2 -1    0    0  501    0 +0.0000000000e+00 +0.0000000000e+00 +3.2656602866e+03 3.2656602866e+03 0.0000000000e+00 0.0000e+00 -1.0000e+00
       -2 -1    0    0    0  501 -0.0000000000e+00 -0.0000000000e+00 -2.2362560785e+03 2.2362560785e+03 0.0000000000e+00 0.0000e+00 1.0000e+00
      -13  1    1    2    0    0 -8.2545887111e+02 -2.5298517200e+03 +9.9360628864e+02 2.8405607774e+03 0.0000000000e+00 0.0000e+00 1.0000e+00
       13  1    1    2    0    0 +8.2545887111e+02 +2.5298517200e+03 +3.5797919529e+01 2.6613555877e+03 0.0000000000e+00 0.0000e+00 -1.0000e+00
<mgrwt>
<rscale>  0 0.54047582E+04</rscale>
<asrwt>0</asrwt>
<pdfrwt beam="1">  1        2 0.50240927E+00 0.54047582E+04</pdfrwt>
<pdfrwt beam="2">  1       -2 0.34403940E+00 0.54047582E+04</pdfrwt>
<totfact> 0.12059676E-02</totfact>
</mgrwt>
<rwgt>
<wgt id='morphing_basis_vector_1'> +9.4691148e-06 </wgt>
<wgt id='morphing_basis_vector_2'> +7.7856934e-06 </wgt>
<wgt id='morphing_basis_vector_3'> +1.0754144e-05 </wgt>
<wgt id='morphing_basis_vector_4'> +5.7978178e-06 </wgt>
<wgt id='morphing_basis_vector_5'> +1.1175800e-05 </wgt>
</rwgt>
</event>
<event>
 4      1 +7.6845000e-11 4.98784600e+03 7.81860800e-03 7.38621800e-02
        2 -1    0    0  501    0 +0.0000000000e+00 +0.0000000000e+00 +3.0496616269e+03 3.0496616269e+03 0.0000000000e+00 0.0000e+00 -1.0000e+00
       -2 -1    0    0    0  501 -0.0000000000e+00 -0.0000000000e+00 -2.0394561985e+03 2.0394561985e+03 0.0000000000e+00 0.0000e+00 1.0000e+00
      -13  1    1    2    0    0 -1.8549857490e+03 +7.5918523726e+02 -1.0090490351e+03 2.2439951668e+03 0.0000000000e+00 0.0000e+00 1.0000e+00
       13  1    1    2    0    0 +1.8549857490e+03 -7.5918523726e+02 +2.0192544635e+03 2.8451226585e+03 0.0000000000e+00 0.0000e+00 -1.0000e+00
<mgrwt>
<rscale>  0 0.49878458E+04</rscale>
<asrwt>0</asrwt>
<pdfrwt beam="1">  1        2 0.46917871E+00 0.49878458E+04</pdfrwt>
<pdfrwt beam="2">  1       -2 0.31376249E+00 0.49878458E+04</pdfrwt>
<totfact> 0.27584294E-02</totfact>
</mgrwt>
<rwgt>
<wgt id='morphing_basis_vector_1'> +6.4569395e-06 </wgt>
<wgt id='morphing_basis_vector_2'> +4.4224455e-06 </wgt>
<wgt id='morphing_basis_vector_3'> +7.1209309e-06 </wgt>
<wgt id='morphing_basis_vector_4'> +5.0925965e-06 </wgt>
<wgt id='morphing_basis_vector_5'> +8.1735146e-06 </wgt>
</rwgt>
</event>
<event>
 4      1 +7.6845000e-11 4.79437400e+03 7.81860800e-03 7.41346500e-02
        2 -1    0    0  501    0 +0.0000000000e+00 +0.0000000000e+00 +2.4453276836e+03 2.4453276836e+03 0.0000000000e+00 0.0000e+00 1.0000e+00
       -2 -1    0    0    0  501 -0.0000000000e+00 -0.0000000000e+00 -2.3499942269e+03 2.3499942269e+03 0.0000000000e+00 0.0000e+00 -1.0000e+00
      -13  1    1    2    0    0 +1.9782682558e+03 -1.1243538994e+03 -7.0666333900e+02 2.3826644870e+03 0.0000000000e+00 0.0000e+00 -1.0000e+00
       13  1    1    2    0    0 -1.9782682558e+03 +1.1243538994e+03 +8.0199679568e+02 2.4126574235e+03 0.0000000000e+00 0.0000e+00 1.0000e+00
<mgrwt>
<rscale>  0 0.47943742E+04</rscale>
<asrwt>0</asrwt>
<pdfrwt beam="1">  1        2 0.37620426E+00 0.47943742E+04</pdfrwt>
<pdfrwt beam="2">  1       -2 0.36153757E+00 0.47943742E+04</pdfrwt>
<totfact> 0.32412998E-02</totfact>
</mgrwt>
<rwgt>
<wgt id='morphing_basis_vector_1'> +5.5598386e-06 </wgt>
<wgt id='morphing_basis_vector_2'> +3.9079666e-06 </wgt>
<wgt id='morphing_basis_vector_3'> +6.1516994e-06 </wgt>
<wgt id='morphing_basis_vector_4'> +4.2494066e-06 </wgt>
<wgt id='morphing_basis_vector_5'> +6.9655863e-06 </wgt>
</rwgt>
</event>
<event>
 4      1 +7.6845000e-11 5.51384500e+03 7.81860800e-03 7.31809700e-02
        2 -1    0    0  501    0 +0.0000000000e+00 +0.0000000000e+00 +3.6569579767e+03 3.6569579767e+03 0.0000000000e+00 0.0000e+00 -1.0000e+00
       -2 -1    0    0    0  501 -0.0000000000e+00 -0.0000000000e+00 -2.0784003433e+03 2.0784003433e+03 0.0000000000e+00 0.0000e+00 1.0000e+00
      -13  1    1    2    0    0 -1.5206851018e+02 -2.6393558024e+03 -2.3987443396e+01 2.6438417655e+03 0.0000000000e+00 0.0000e+00 1.0000e+00
       13  1    1    2    0    0 +1.5206851018e+02 +2.6393558024e+03 +1.6025450768e+03 3.0915165545e+03 0.0000000000e+00 0.0000e+00 -1.0000e+00
<mgrwt>
<rscale>  0 0.55138454E+04</rscale>
<asrwt>0</asrwt>
<pdfrwt beam="1">  1        2 0.56260892E+00 0.55138454E+04</pdfrwt>
<pdfrwt beam="2">  1       -2 0.31975390E+00 0.55138454E+04</pdfrwt>
<totfact> 0.89770764E-03</totfact>
</mgrwt>
<rwgt>
<wgt id='morphing_basis_vector_1'> +9.7241241e-06 </wgt>
<wgt id='morphing_basis_vector_2'> +6.8745229e-06 </wgt>
<wgt id='morphing_basis_vector_3'> +1.0785067e-05 </wgt>
<wgt id='morphing_basis_vector_4'> +7.4148556e-06 </wgt>
<wgt id='morphing_basis_vector_5'> +1.2203477e-05 </wgt>
</rwgt>
</event>
<event>
 4      1 +7.6845000e-11 4.93397100e+03 7.81860800e-03 7.39367900e-02
        2 -1    0    0  501    0 +0.0000000000e+00 +0.0000000000e+00 +3.1579299060e+03 3.1579299060e+03 0.0000000000e+00 0.0000e+00 -1.0000e+00
       -2 -1    0    0    0  501 -0.0000000000e+00 -0.0000000000e+00 -1.9272173151e+03 1.9272173151e+03 0.0000000000e+00 0.0000e+00 1.0000e+00
      -13  1    1    2    0    0 +1.6685443918e+03 -2.2111457114e+02 -1.2435378663e+03 2.0926821225e+03 0.0000000000e+00 0.0000e+00 1.0000e+00
       13  1    1    2    0    0 -1.6685443918e+03 +2.2111457114e+02 +2.4742504572e+03 2.9924650985e+03 0.0000000000e+00 0.0000e+00 -1.0000e+00
<mgrwt>
<rscale>  0 0.49339709E+04</rscale>
<asrwt>0</asrwt>
<pdfrwt beam="1">  1        2 0.48583537E+00 0.49339709E+04</pdfrwt>
<pdfrwt beam="2">  1       -2 0.29649497E+00 0.49339709E+04</pdfrwt>
<totfact> 0.30634604E-02</totfact>
</mgrwt>
<rwgt>
<wgt id='morphing_basis_vector_1'> +6.1732883e-06 </wgt>
<wgt id='morphing_basis_vector_2'> +4.2051394e-06 </wgt>
<wgt id='morphing_basis_vector_3'> +6.8019558e-06 </wgt>
<wgt id='morphing_basis_vector_4'> +4.8968792e-06 </wgt>
<wgt id='morphing_basis_vector_5'> +7.8267609e-06 </wgt>
</rwgt>
</event>
<event>
 4      1 +7.6845000e-11 5.06431500e+03 7.81860800e-03 7.37579300e-02
        2 -1    0    0  501    0 +0.0000000000e+00 +0.0000000000e+00 +3.1890833305e+03 3.1890833305e+03 0.0000000000e+00 0.0000e+00 -1.0000e+00
       -2 -1    0    0    0  501 -0.0000000000e+00 -0.0000000000e+00 -2.0105534834e+03 2.0105534834e+03 0.0000000000e+00 0.0000e+00 1.0000e+00
      -13  1    1    2    0    0 -5.5264780965e+01 +2.4920937739e+03 +1.3212973691e+02 2.4962058892e+03 0.0000000000e+00 0.0000e+00 1.0000e+00
       13  1    1    2    0    0 +5.5264780965e+01 -2.4920937739e+03 +1.0464001102e+03 2.7034309247e+03 0.0000000000e+00 0.0000e+00 -1.0000e+00
<mgrwt>
<rscale>  0 0.50643154E+04</rscale>
<asrwt>0</asrwt>
<pdfrwt beam="1">  1        2 0.49062820E+00 0.50643154E+04</pdfrwt>
<pdfrwt beam="2">  1       -2 0.30931592E+00 0.50643154E+04</pdfrwt>
<totfact> 0.23693448E-02</totfact>
</mgrwt>
<rwgt>
<wgt id='morphing_basis_vector_1'> +6.9731789e-06 </wgt>
<wgt id='morphing_basis_vector_2'> +5.0297275e-06 </wgt>
<wgt id='morphing_basis_vector_3'> +7.7502217e-06 </wgt>
<wgt id='morphing_basis_vector_4'> +5.1735373e-06 </wgt>
<wgt id='morphing_basis_vector_5'> +8.6679634e-06 </wgt>
</rwgt>
</event>
<event>
 4      1 +7.6845000e-11 4.80443000e+03 7.81860800e-03 7.41201700e-02
        2 -1    0    0  501    0 +0.0000000000e+00 +0.0000000000e+00 +2.5260750024e+03 2.5260750024e+03 0.0000000000e+00 0.0000e+00 1.0000e+00
       -2 -1    0    0    0  501 -0.0000000000e+00 -0.0000000000e+00 -2.2844280992e+03 2.2844280992e+03 0.0000000000e+00 0.0000e+00 -1.0000e+00
      -13  1    1    2    0    0 +5.8692278981e+01 -2.3847469038e+03 +4.0433175594e+02 2.4194930766e+03 0.0000000000e+00 0.0000e+00 1.0000e+00
       13  1    1    2    0    0 -5.8692278981e+01 +2.3847469038e+03 -1.6268485272e+02 2.3910100251e+03 0.0000000000e+00 0.0000e+00 -1.0000e+00
<mgrwt>
<rscale>  0 0.48044299E+04</rscale>
<asrwt>0</asrwt>
<pdfrwt beam="1">  1        2 0.38862692E+00 0.48044299E+04</pdfrwt>
<pdfrwt beam="2">  1       -2 0.35145048E+00 0.48044299E+04</pdfrwt>
<totfact> 0.33678767E-02</totfact>
</mgrwt>
<rwgt>
<wgt id='morphing_basis_vector_1'> +5.8558909e-06 </wgt>
<wgt id='morphing_basis_vector_2'> +4.6733929e-06 </wgt>
<wgt id='morphing_basis_vector_3'> +6.6075664e-06 </wgt>
<wgt id='morphing_basis_vector_4'> +3.7544087e-06 </wgt>
<wgt id='morphing_basis_vector_5'> +6.9799472e-06 </wgt>
</rwgt>
</event>
<event>
 4      1 +7.6845000e-11 4.83286900e+03 7.81860800e-03 7.40794200e-02
        2 -1    0    0  501    0 +0.0000000000e+00 +0.0000000000e+00 +2.3881364742e+03 2.3881364742e+03 0.0000000000e+00 0.0000e+00 1.0000e+00
       -2 -1    0    0    0  501 -0.0000000000e+00 -0.0000000000e+00 -2.4450675026e+03 2.4450675026e+03 0.0000000000e+00 0.0000e+00 -1.0000e+00
      -13  1    1    2    0    0 -5.2111874618e+01 +8.4851350360e+02 -2.2905826798e+03 2.4432478029e+03 0.0000000000e+00 0.0000e+00 -1.0000e+00
       13  1    1    2    0    0 +5.2111874618e+01 -8.4851350360e+02 +2.2336516514e+03 2.3899561739e+03 0.0000000000e+00 0.0000e+00 1.0000e+00
<mgrwt>
<rscale>  0 0.48328687E+04</rscale>
<asrwt>0</asrwt>
<pdfrwt beam="1">  1        2 0.36740561E+00 0.48328687E+04</pdfrwt>
<pdfrwt beam="2">  1       -2 0.37616423E+00 0.48328687E+04</pdfrwt>
<totfact> 0.28123543E-02</totfact>
</mgrwt>
<rwgt>
<wgt id='morphing_basis_vector_1'> +5.6789319e-06 </wgt>
<wgt id='morphing_basis_vector_2'> +3.8557010e-06 </wgt>
<wgt id='morphing_basis_vector_3'> +6.2528186e-06 </wgt>
<wgt id='morphing_basis_vector_4'> +4.5178139e-06 </wgt>
<wgt id='morphing_basis_vector_5'> +7.2036636e-06 </wgt>
</rwgt>
</event>
<event>
 4      1 +7.6845000e-11 4.69689500e+03 7.81860800e-03 7.42768700e-02
        2 -1    0    0  501    0 +0.0000000000e+00 +0.0000000000e+00 +2.3906076247e+03 2.3906076247e+03 0.0000000000e+00 0.0000e+00 1.0000e+00
       -2 -1    0    0    0  501 -0.0000000000e+00 -0.0000000000e+00 -2.3070305357e+03 2.3070305357e+03 0.0000000000e+00 0.0000e+00 -1.0000e+00
      -13  1    1    2    0    0 -1.4977320621e+03 -1.7306825078e+03 -4.8435700692e+02 2.3394582669e+03 0.0000000000e+00 0.0000e+00 -1.0000e+00
       13  1    1    2    0    0 +1.4977320621e+03 +1.7306825078e+03 +5.6793409589e+02 2.3581798934e+03 0.0000000000e+00 0.0000e+00 1.0000e+00
<mgrwt>
<rscale>  0 0.46968946E+04</rscale>
<asrwt>0</asrwt>
<pdfrwt beam="1">  1        2 0.36778579E+00 0.46968946E+04</pdfrwt>
<pdfrwt beam="2">  1       -2 0.35492778E+00 0.46968946E+04</pdfrwt>
<totfact> 0.38803836E-02</totfact>
</mgrwt>
<rwgt>
<wgt id='morphing_basis_vector_1'> +5.1478518e-06 </wgt>
<wgt id='morphing_basis_vector_2'> +3.6737335e-06 </wgt>
<wgt id='morphing_basis_vector_3'> +5.7070383e-06 </wgt>
<wgt id='morphing_basis_vector_4'> +3.8598294e-06 </wgt>
<wgt id='morphing_basis_vector_5'> +6.4098201e-06 </wgt>
</rwgt>
</event>
<event>
 4      1 +7.6845000e-11 4.84583300e+03 7.81860800e-03 7.40609300e-02
        2 -1    0    0  501    0 +0.0000000000e+00 +0.0000000000e+00 +2.1315576176e+03 2.1315576176e+03 0.0000000000e+00 0.0000e+00 -1.0000e+00
       -2 -1    0    0    0  501 -0.0000000000e+00 -0.0000000000e+00 -2.7541009265e+03 2.7541009265e+03 0.0000000000e+00 0.0000e+00 1.0000e+00
      -13  1    1    2    0    0 +1.0393735638e+03 +9.2720761352e+01 -2.5159368567e+03 2.7237534418e+03 0.0000000000e+00 0.0000e+00 1.0000e+00
       13  1    1    2    0    0 -1.0393735638e+03 -9.2720761352e+01 +1.8933935478e+03 2.1619051023e+03 0.0000000000e+00 0.0000e+00 -1.0000e+00
<mgrwt>
<rscale>  0 0.48458332E+04</rscale>
<asrwt>0</asrwt>
<pdfrwt beam="1">  1        2 0.32793194E+00 0.48458332E+04</pdfrwt>
<pdfrwt beam="2">  1       -2 0.42370783E+00 0.48458332E+04</pdfrwt>
<totfact> 0.19312760E-02</totfact>
</mgrwt>
<rwgt>
<wgt id='morphing_basis_vector_1'> +5.7402584e-06 </wgt>
<wgt id='morphing_basis_vector_2'> +3.8982403e-06 </wgt>
<wgt id='morphing_basis_vector_3'> +6.3207511e-06 </wgt>
<wgt id='morphing_basis_vector_4'> +4.5658822e-06 </wgt>
<wgt id='morphing_basis_vector_5'> +7.2814726e-06 </wgt>
</rwgt>
</event>
<event>
 4      1 +7.6845000e-11 5.37547000e+03 7.81860800e-03 7.33523900e-02
        2 -1    0    0  501    0 +0.0000000000e+00 +0.0000000000e+00 +2.8825047231e+03 2.8825047231e+03 0.0000000000e+00 0.0000e+00 -1.0000e+00
       -2 -1    0    0    0  501 -0.0000000000e+00 -0.0000000000e+00 -2.5061256247e+03 2.5061256247e+03 0.0000000000e+00 0.0000e+00 1.0000e+00
      -13  1    1    2    0    0 +1.7584115088e+03 +5.8356465582e+02 -1.7637191000e+03 2.5579804154e+03 0.0000000000e+00 0.0000e+00 1.0000e+00
       13  1    1    2    0    0 -1.7584115088e+03 -5.8356465582e+02 +2.1400981983e+03 2.8306499325e+03 0.0000000000e+00 0.0000e+00 -1.0000e+00
<mgrwt>
<rscale>  0 0.53754698E+04</rscale>
<asrwt>0</asrwt>
<pdfrwt beam="1">  1        2 0.44346227E+00 0.53754698E+04</pdfrwt>
<pdfrwt beam="2">  1       -2 0.38555779E+00 0.53754698E+04</pdfrwt>
<totfact> 0.11706163E-02</totfact>
</mgrwt>
<rwgt>
<wgt id='morphing_basis_vector_1'> +8.6887821e-06 </wgt>
<wgt id='morphing_basis_vector_2'> +5.9235743e-06 </wgt>
<wgt id='morphing_basis_vector_3'> +9.5834174e-06 </wgt>
<wgt id='morphing_basis_vector_4'> +6.9050599e-06 </wgt>
<wgt id='morphing_basis_vector_5'> +1.1038330e-05 </wgt>
</rwgt>
</event>
<event>
 4      1 +7.6845000e-11 4.68619600e+03 7.81860800e-03 7.42926900e-02
        2 -1    0    0  501    0 +0.0000000000e+00 +0.0000000000e+00 +2.3000309227e+03 2.3000309227e+03 0.0000000000e+00 0.0000e+00 -1.0000e+00
       -2 -1    0    0    0  501 -0.0000000000e+00 -0.0000000000e+00 -2.3869710088e+03 2.3869710088e+03 0.0000000000e+00 0.0000e+00 1.0000e+00
      -13  1    1    2    0    0 -7.5410448869e+01 -2.1880826020e+03 +7.9136810048e+02 2.3280153950e+03 0.0000000000e+00 0.0000e+00 1.0000e+00
       13  1    1    2    0    0 +7.5410448869e+01 +2.1880826020e+03 -8.7830818653e+02 2.3589865365e+03 0.0000000000e+00 0.0000e+00 -1.0000e+00
<mgrwt>
<rscale>  0 0.46861955E+04</rscale>
<asrwt>0</asrwt>
<pdfrwt beam="1">  1        2 0.35385091E+00 0.46861955E+04</pdfrwt>
<pdfrwt beam="2">  1       -2 0.36722631E+00 0.46861955E+04</pdfrwt>
<totfact> 0.36552748E-02</totfact>
</mgrwt>
<rwgt>
<wgt id='morphing_basis_vector_1'> +5.6339856e-06 </wgt>
<wgt id='morphing_basis_vector_2'> +5.2051649e-06 </wgt>
<wgt id='morphing_basis_vector_3'> +6.5172958e-06 </wgt>
<wgt id='morphing_basis_vector_4'> +2.6916614e-06 </wgt>
<wgt id='morphing_basis_vector_5'> +6.2565711e-06 </wgt>
</rwgt>
</event>
<event>
 4      1 +7.6845000e-11 4.75918000e+03 7.81860800e-03 7.41856000e-02
        2 -1    0    0  501    0 +0.0000000000e+00 +0.0000000000e+00 +2.2632248078e+03 2.2632248078e+03 0.0000000000e+00 0.0000e+00 1.0000e+00
       -2 -1    0    0    0  501 -0.0000000000e+00 -0.0000000000e+00 -2.5019379848e+03 2.5019379848e+03 0.0000000000e+00 0.0000e+00 -1.0000e+00
      -13  1    1    2    0    0 -9.6410185387e+02 +9.3886985885e+01 -2.2955979121e+03 2.4916012772e+03 0.0000000000e+00 0.0000e+00 -1.0000e+00
       13  1    1    2    0    0 +9.6410185387e+02 -9.3886985885e+01 +2.0568847351e+03 2.2735615154e+03 0.0000000000e+00 0.0000e+00 1.0000e+00
<mgrwt>
<rscale>  0 0.47591798E+04</rscale>
<asrwt>0</asrwt>
<pdfrwt beam="1">  1        2 0.34818843E+00 0.47591798E+04</pdfrwt>
<pdfrwt beam="2">  1       -2 0.38491354E+00 0.47591798E+04</pdfrwt>
<totfact> 0.29360018E-02</totfact>
</mgrwt>
<rwgt>
<wgt id='morphing_basis_vector_1'> +5.3417982e-06 </wgt>
<wgt id='morphing_basis_vector_2'> +3.6267939e-06 </wgt>
<wgt id='morphing_basis_vector_3'> +5.8805198e-06 </wgt>
<wgt id='morphing_basis_vector_4'> +4.2471871e-06 </wgt>
<wgt id='morphing_basis_vector_5'> +6.7727880e-06 </wgt>
</rwgt>
</event>
<event>
 4      1 +7.6845000e-11 4.87265100e+03 7.81860800e-03 7.40228800e-02
        2 -1    0    0  501    0 +0.0000000000e+00 +0.0000000000e+00 +1.9389443122e+03 1.9389443122e+03 0.0000000000e+00 0.0000e+00 -1.0000e+00
       -2 -1    0    0    0  501 -0.0000000000e+00 -0.0000000000e+00 -3.0612960532e+03 3.0612960532e+03 0.0000000000e+00 0.0000e+00 1.0000e+00
      -13  1    1    2    0    0 -1.3541000593e+03 +1.5084384550e+03 +8.2577232455e+02 2.1888064042e+03 0.0000000000e+00 0.0000e+00 1.0000e+00
       13  1    1    2    0    0 +1.3541000593e+03 -1.5084384550e+03 -1.9481240656e+03 2.8114339612e+03 0.0000000000e+00 0.0000e+00 -1.0000e+00
<mgrwt>
<rscale>  0 0.48726513E+04</rscale>
<asrwt>0</asrwt>
<pdfrwt beam="1">  1        2 0.29829912E+00 0.48726513E+04</pdfrwt>
<pdfrwt beam="2">  1       -2 0.47096862E+00 0.48726513E+04</pdfrwt>
<totfact> 0.11614147E-02</totfact>
</mgrwt>
<rwgt>
<wgt id='morphing_basis_vector_1'> +7.1149443e-06 </wgt>
<wgt id='morphing_basis_vector_2'> +7.6474950e-06 </wgt>
<wgt id='morphing_basis_vector_3'> +8.4833183e-06 </wgt>
<wgt id='morphing_basis_vector_4'> +2.0129784e-06 </wgt>
<wgt id='morphing_basis_vector_5'> +7.2221011e-06 </wgt>
</rwgt>
</event>
<event>
 4      1 +7.6845000e-11 5.03924800e+03 7.81860800e-03 7.37918900e-02
        2 -1    0    0  501    0 +0.0000000000e+00 +0.0000000000e+00 +3.8180567521e+03 3.8180567521e+03 0.0000000000e+00 0.0000e+00 -1.0000e+00
       -2 -1    0    0    0  501 -0.0000000000e+00 -0.0000000000e+00 -1.6627580846e+03 1.6627580846e+03 0.0000000000e+00 0.0000e+00 1.0000e+00
      -13  1    1    2    0    0 -7.8235184123e+02 -2.2939002320e+03 +3.2848761681e+02 2.4458039153e+03 0.0000000000e+00 0.0000e+00 1.0000e+00
       13  1    1    2    0    0 +7.8235184123e+02 +2.2939002320e+03 +1.8268110507e+03 3.0350109214e+03 0.0000000000e+00 0.0000e+00 -1.0000e+00
<mgrwt>
<rscale>  0 0.50392479E+04</rscale>
<asrwt>0</asrwt>
<pdfrwt beam="1">  1        2 0.58739334E+00 0.50392479E+04</pdfrwt>
<pdfrwt beam="2">  1       -2 0.25580894E+00 0.50392479E+04</pdfrwt>
<totfact> 0.18865891E-02</totfact>
</mgrwt>
<rwgt>
<wgt id='morphing_basis_vector_1'> +6.7949771e-06 </wgt>
<wgt id='morphing_basis_vector_2'> +4.8088728e-06 </wgt>
<wgt id='morphing_basis_vector_3'> +7.5303879e-06 </wgt>
<wgt id='morphing_basis_vector_4'> +5.1602036e-06 </wgt>
<wgt id='morphing_basis_vector_5'> +8.5045244e-06 </wgt>
</rwgt>
</event>
<event>
 4      1 +7.6845000e-11 4.70955300e+03 7.81860800e-03 7.42582000e-02
        2 -1    0    0  501    0 +0.0000000000e+00 +0.0000000000e+00 +3.3154610405e+03 3.3154610405e+03 0.0000000000e+00 0.0000e+00 -1.0000e+00
       -2 -1    0    0    0  501 -0.0000000000e+00 -0.0000000000e+00 -1.6724586021e+03 1.6724586021e+03 0.0000000000e+00 0.0000e+00 1.0000e+00
      -13  1    1    2    0    0 -2.3447270892e+02 +2.2050029130e+03 -1.7774039696e+01 2.2175056288e+03 0.0000000000e+00 0.0000e+00 1.0000e+00
       13  1    1    2    0    0 +2.3447270892e+02 -2.2050029130e+03 +1.6607764781e+03 2.7704140138e+03 0.0000000000e+00 0.0000e+00 -1.0000e+00
<mgrwt>
<rscale>  0 0.47095526E+04</rscale>
<asrwt>0</asrwt>
<pdfrwt beam="1">  1        2 0.51007093E+00 0.47095526E+04</pdfrwt>
<pdfrwt beam="2">  1       -2 0.25730132E+00 0.47095526E+04</pdfrwt>
<totfact> 0.44949373E-02</totfact>
</mgrwt>
<rwgt>
<wgt id='morphing_basis_vector_1'> +5.1730205e-06 </wgt>
<wgt id='morphing_basis_vector_2'> +3.6243095e-06 </wgt>
<wgt id='morphing_basis_vector_3'> +5.7196920e-06 </wgt>
<wgt id='morphing_basis_vector_4'> +3.9662940e-06 </wgt>
<wgt id='morphing_basis_vector_5'> +6.4848489e-06 </wgt>
</rwgt>
</event>
<event>
 4      1 +7.6845000e-11 5.30393400e+03 7.81860800e-03 7.34430900e-02
        2 -1    0    0  501    0 +0.0000000000e+00 +0.0000000000e+00 +3.4727495392e+03 3.4727495392e+03 0.0000000000e+00 0.0000e+00 -1.0000e+00
       -2 -1    0    0    0  501 -0.0000000000e+00 -0.0000000000e+00 -2.0251760490e+03 2.0251760490e+03 0.0000000000e+00 0.0000e+00 1.0000e+00
      -13  1    1    2    0    0 -1.1878250470e+03 -2.0203574012e+03 -5.6263452173e+02 2.4102551682e+03 0.0000000000e+00 0.0000e+00 1.0000e+00
       13  1    1    2    0    0 +1.1878250470e+03 +2.0203574012e+03 +2.0102080120e+03 3.0876704200e+03 0.0000000000e+00 0.0000e+00 -1.0000e+00
<mgrwt>
<rscale>  0 0.53039341E+04</rscale>
<asrwt>0</asrwt>
<pdfrwt beam="1">  1        2 0.53426916E+00 0.53039341E+04</pdfrwt>
<pdfrwt beam="2">  1       -2 0.31156555E+00 0.53039341E+04</pdfrwt>
<totfact> 0.14199978E-02</totfact>
</mgrwt>
<rwgt>
<wgt id='morphing_basis_vector_1'> +8.2716694e-06 </wgt>
<wgt id='morphing_basis_vector_2'> +5.7175385e-06 </wgt>
<wgt id='morphing_basis_vector_3'> +9.1403537e-06 </wgt>
<wgt id='morphing_basis_vector_4'> +6.4691786e-06 </wgt>
<wgt id='morphing_basis_vector_5'> +1.0454549e-05 </wgt>
</rwgt>
</event>
<event>
 4      1 +7.6845000e-11 4.68295700e+03 7.81860800e-03 7.42974800e-02
        2 -1    0    0  501    0 +0.0000000000e+00 +0.0000000000e+00 +2.4746215130e+03 2.4746215130e+03 0.0000000000e+00 0.0000e+00 1.0000e+00
       -2 -1    0    0    0  501 -0.0000000000e+00 -0.0000000000e+00 -2.2154991554e+03 2.2154991554e+03 0.0000000000e+00 0.0000e+00 -1.0000e+00
      -13  1    1    2    0    0 -2.1277983461e+03 -9.4220750096e+02 -1.3014436705e+02 2.3307119798e+03 0.0000000000e+00 0.0000e+00 -1.0000e+00
       13  1    1    2    0    0 +2.1277983461e+03 +9.4220750096e+02 +3.8926672465e+02 2.3594086885e+03 0.0000000000e+00 0.0000e+00 1.0000e+00
<mgrwt>
<rscale>  0 0.46829571E+04</rscale>
<asrwt>0</asrwt>
<pdfrwt beam="1">  1        2 0.38071100E+00 0.46829571E+04</pdfrwt>
<pdfrwt beam="2">  1       -2 0.34084602E+00 0.46829571E+04</pdfrwt>
<totfact> 0.42765262E-02</totfact>
</mgrwt>
<rwgt>
<wgt id='morphing_basis_vector_1'> +5.1309914e-06 </wgt>
<wgt id='morphing_basis_vector_2'> +3.7588881e-06 </wgt>
<wgt id='morphing_basis_vector_3'> +5.7103943e-06 </wgt>
<wgt id='morphing_basis_vector_4'> +3.7210208e-06 </wgt>
<wgt id='morphing_basis_vector_5'> +6.3260184e-06 </wgt>
</rwgt>
</event>
<event>
 4      1 +7.6845000e-11 4.87088300e+03 7.81860800e-03 7.40253800e-02
        2 -1    0    0  501    0 +0.0000000000e+00 +0.0000000000e+00 +3.3750814146e+03 3.3750814146e+03 0.0000000000e+00 0.0000e+00 -1.0000e+00
       -2 -1    0    0    0  501 -0.0000000000e+00 -0.0000000000e+00 -1.7574022634e+03 1.7574022634e+03 0.0000000000e+00 0.0000e+00 1.0000e+00
      -13  1    1    2    0    0 -1.1821153631e+03 -2.0744309833e+03 +3.0271449919e+02 2.4067190747e+03 0.0000000000e+00 0.0000e+00 1.0000e+00
       13  1    1    2    0    0 +1.1821153631e+03 +2.0744309833e+03 +1.3149646520e+03 2.7257646033e+03 0.0000000000e+00 0.0000e+00 -1.0000e+00
<mgrwt>
<rscale>  0 0.48708832E+04</rscale>
<asrwt>0</asrwt>
<pdfrwt beam="1">  1        2 0.51924329E+00 0.48708832E+04</pdfrwt>
<pdfrwt beam="2">  1       -2 0.27036958E+00 0.48708832E+04</pdfrwt>
<totfact> 0.32781319E-02</totfact>
</mgrwt>
<rwgt>
<wgt id='morphing_basis_vector_1'> +5.9613791e-06 </wgt>
<wgt id='morphing_basis_vector_2'> +4.2787024e-06 </wgt>
<wgt id='morphing_basis_vector_3'> +6.6176593e-06 </wgt>
<wgt id='morphing_basis_vector_4'> +4.4443280e-06 </wgt>
<wgt id='morphing_basis_vector_5'> +7.4155402e-06 </wgt>
</rwgt>
</event>
<event>
 4      1 +7.6845000e-11 4.63952500e+03 7.81860800e-03 7.43622000e-02
        2 -1    0    0  501    0 +0.0000000000e+00 +0.0000000000e+00 +3.5665211795e+03 3.5665211795e+03 0.0000000000e+00 0.0000e+00 -1.0000e+00
       -2 -1    0    0    0  501 -0.0000000000e+00 -0.0000000000e+00 -1.5088365177e+03 1.5088365177e+03 0.0000000000e+00 0.0000e+00 1.0000e+00
      -13  1    1    2    0    0 -5.1841685577e+02 +2.1641000474e+03 +3.1215576256e+02 2.2471150998e+03 0.0000000000e+00 0.0000e+00 1.0000e+00
       13  1    1    2    0    0 +5.1841685577e+02 -2.1641000474e+03 +1.7455288993e+03 2.8282425974e+03 0.0000000000e+00 0.0000e+00 -1.0000e+00
<mgrwt>
<rscale>  0 0.46395247E+04</rscale>
<asrwt>0</asrwt>
<pdfrwt beam="1">  1        2 0.54869556E+00 0.46395247E+04</pdfrwt>
<pdfrwt beam="2">  1       -2 0.23212870E+00 0.46395247E+04</pdfrwt>
<totfact> 0.44513536E-02</totfact>
</mgrwt>
<rwgt>
<wgt id='morphing_basis_vector_1'> +4.8856034e-06 </wgt>
<wgt id='morphing_basis_vector_2'> +3.4501651e-06 </wgt>
<wgt id='morphing_basis_vector_3'> +5.4070635e-06 </wgt>
<wgt id='morphing_basis_vector_4'> +3.7085091e-06 </wgt>
<wgt id='morphing_basis_vector_5'> +6.1041394e-06 </wgt>
</rwgt>
</event>
<event>
 4      1 +7.6845000e-11 4.78458700e+03 7.81860800e-03 7.41487700e-02
        2 -1    0    0  501    0 +0.0000000000e+00 +0.0000000000e+00 +2.4194358754e+03 2.4194358754e+03 0.0000000000e+00 0.0000e+00 1.0000e+00
       -2 -1    0    0    0  501 -0.0000000000e+00 -0.0000000000e+00 -2.3654557123e+03 2.3654557123e+03 0.0000000000e+00 0.0000e+00 -1.0000e+00
      -13  1    1    2    0    0 +1.4904657275e+03 +1.8428633327e+03 +3.5171840570e+02 2.3961091763e+03 0.0000000000e+00 0.0000e+00 -1.0000e+00
       13  1    1    2    0    0 -1.4904657275e+03 -1.8428633327e+03 -2.9773824259e+02 2.3887824114e+03 0.0000000000e+00 0.0000e+00 1.0000e+00
<mgrwt>
<rscale>  0 0.47845871E+04</rscale>
<asrwt>0</asrwt>
<pdfrwt beam="1">  1        2 0.37222090E+00 0.47845871E+04</pdfrwt>
<pdfrwt beam="2">  1       -2 0.36391626E+00 0.47845871E+04</pdfrwt>
<totfact> 0.32438663E-02</totfact>
</mgrwt>
<rwgt>
<wgt id='morphing_basis_vector_1'> +5.7793314e-06 </wgt>
<wgt id='morphing_basis_vector_2'> +4.6533373e-06 </wgt>
<wgt id='morphing_basis_vector_3'> +6.5302161e-06 </wgt>
<wgt id='morphing_basis_vector_4'> +3.6516084e-06 </wgt>
<wgt id='morphing_basis_vector_5'> +6.8615313e-06 </wgt>
</rwgt>
</event>
<event>
 4      1 +7.6845000e-11 4.86969300e+03 7.81860800e-03 7.40270700e-02
        2 -1    0    0  501    0 +0.0000000000e+00 +0.0000000000e+00 +5.0055383134e+03 5.0055383134e+03 0.0000000000e+00 0.0000e+00 -1.0000e+00
       -2 -1    0    0    0  501 -0.0000000000e+00 -0.0000000000e+00 -1.1843834681e+03 1.1843834681e+03 0.0000000000e+00 0.0000e+00 1.0000e+00
      -13  1    1    2    0    0 -1.4434890791e+03 -3.4357245155e+02 -5.4328457605e+02 1.5801458419e+03 0.0000000000e+00 0.0000e+00 1.0000e+00
       13  1    1    2    0    0 +1.4434890791e+03 +3.4357245155e+02 +4.3644394214e+03 4.6097759397e+03 0.0000000000e+00 0.0000e+00 -1.0000e+00
<mgrwt>
<rscale>  0 0.48696927E+04</rscale>
<asrwt>0</asrwt>
<pdfrwt beam="1">  1        2 0.77008281E+00 0.48696927E+04</pdfrwt>
<pdfrwt beam="2">  1       -2 0.18221284E+00 0.48696927E+04</pdfrwt>
<totfact> 0.39420110E-03</totfact>
</mgrwt>
<rwgt>
<wgt id='morphing_basis_vector_1'> +5.8563094e-06 </wgt>
<wgt id='morphing_basis_vector_2'> +3.9829958e-06 </wgt>
<wgt id='morphing_basis_vector_3'> +6.4502803e-06 </wgt>
<wgt id='morphing_basis_vector_4'> +4.6513231e-06 </wgt>
<wgt id='morphing_basis_vector_5'> +7.4259768e-06 </wgt>
</rwgt>
</event>
<event>
 4      1 +7.6845000e-11 4.75631900e+03 7.81860800e-03 7.41897600e-02
        2 -1    0    0  501    0 +0.0000000000e+00 +0.0000000000e+00 +2.8135849643e+03 2.8135849643e+03 0.0000000000e+00 0.0000e+00 -1.0000e+00
       -2 -1    0    0    0  501 -0.0000000000e+00 -0.0000000000e+00 -2.0101201179e+03 2.0101201179e+03 0.0000000000e+00 0.0000e+00 1.0000e+00
      -13  1    1    2    0    0 +7.4606532713e+02 -1.7261774995e+03 -1.0746885351e+03 2.1659311346e+03 0.0000000000e+00 0.0000e+00 1.0000e+00
       13  1    1    2    0    0 -7.4606532713e+02 +1.7261774995e+03 +1.8781533815e+03 2.6577739477e+03 0.0000000000e+00 0.0000e+00 -1.0000e+00
<mgrwt>
<rscale>  0 0.47563195E+04</rscale>
<asrwt>0</asrwt>
<pdfrwt beam="1">  1        2 0.43285922E+00 0.47563195E+04</pdfrwt>
<pdfrwt beam="2">  1       -2 0.30924925E+00 0.47563195E+04</pdfrwt>
<totfact> 0.42715935E-02</totfact>
</mgrwt>
<rwgt>
<wgt id='morphing_basis_vector_1'> +5.3410887e-06 </wgt>
<wgt id='morphing_basis_vector_2'> +3.6535600e-06 </wgt>
<wgt id='morphing_basis_vector_3'> +5.8859522e-06 </wgt>
<wgt id='morphing_basis_vector_4'> +4.2112591e-06 </wgt>
<wgt id='morphing_basis_vector_5'> +6.7543122e-06 </wgt>
</rwgt>
</event>
<event>
 4      1 +7.6845000e-11 5.16589100e+03 7.81860800e-03 7.36223300e-02
        2 -1    0    0  501    0 +0.0000000000e+00 +0.0000000000e+00 +3.3967080319e+03 3.3967080319e+03 0.0000000000e+00 0.0000e+00 -1.0000e+00
       -2 -1    0    0    0  501 -0.0000000000e+00 -0.0000000000e+00 -1.9641390667e+03 1.9641390667e+03 0.0000000000e+00 0.0000e+00 1.0000e+00
      -13  1    1    2    0    0 +1.0657720516e+03 -9.2862881995e+02 -1.5271014756e+03 2.0809277902e+03 0.0000000000e+00 0.0000e+00 1.0000e+00
       13  1    1    2    0    0 -1.0657720516e+03 +9.2862881995e+02 +2.9596704408e+03 3.2799193084e+03 0.0000000000e+00 0.0000e+00 -1.0000e+00
<mgrwt>
<rscale>  0 0.51658908E+04</rscale>
<asrwt>0</asrwt>
<pdfrwt beam="1">  1        2 0.52257047E+00 0.51658908E+04</pdfrwt>
<pdfrwt beam="2">  1       -2 0.30217524E+00 0.51658908E+04</pdfrwt>
<totfact> 0.18820234E-02</totfact>
</mgrwt>
<rwgt>
<wgt id='morphing_basis_vector_1'> +7.4091202e-06 </wgt>
<wgt id='morphing_basis_vector_2'> +5.0377233e-06 </wgt>
<wgt id='morphing_basis_vector_3'> +8.1656104e-06 </wgt>
<wgt id='morphing_basis_vector_4'> +5.8982971e-06 </wgt>
<wgt id='morphing_basis_vector_5'> +9.4116399e-06 </wgt>
</rwgt>
</event>
<event>
 4      1 +7.6845000e-11 5.04075000e+03 7.81860800e-03 7.37898500e-02
        2 -1    0    0  501    0 +0.0000000000e+00 +0.0000000000e+00 +2.1979015793e+03 2.1979015793e+03 0.0000000000e+00 0.0000e+00 1.0000e+00
       -2 -1    0    0    0  501 -0.0000000000e+00 -0.0000000000e+00 -2.8901613172e+03 2.8901613172e+03 0.0000000000e+00 0.0000e+00 -1.0000e+00
      -13  1    1    2    0    0 +2.6078202505e+02 +1.2011765025e+03 -2.5671136724e+03 2.8462088578e+03 0.0000000000e+00 0.0000e+00 -1.0000e+00
       13  1    1    2    0    0 -2.6078202505e+02 -1.2011765025e+03 +1.8748539345e+03 2.2418540387e+03 0.0000000000e+00 0.0000e+00 1.0000e+00
<mgrwt>
<rscale>  0 0.50407500E+04</rscale>
<asrwt>0</asrwt>
<pdfrwt beam="1">  1        2 0.33813870E+00 0.50407500E+04</pdfrwt>
<pdfrwt beam="2">  1       -2 0.44464020E+00 0.50407500E+04</pdfrwt>
<totfact> 0.12580404E-02</totfact>
</mgrwt>
<rwgt>
<wgt id='morphing_basis_vector_1'> +6.7180415e-06 </wgt>
<wgt id='morphing_basis_vector_2'> +4.5649468e-06 </wgt>
<wgt id='morphing_basis_vector_3'> +7.4013606e-06 </wgt>
<wgt id='morphing_basis_vector_4'> +5.3475563e-06 </wgt>
<wgt id='morphing_basis_vector_5'> +8.5298921e-06 </wgt>
</rwgt>
</event>
<event>
 4      1 +7.6845000e-11 5.17676400e+03 7.81860800e-03 7.36080000e-02
        2 -1    0    0  501    0 +0.0000000000e+00 +0.0000000000e+00 +2.7067455371e+03 2.7067455371e+03 0.0000000000e+00 0.0000e+00 -1.0000e+00
       -2 -1    0    0    0  501 -0.0000000000e+00 -0.0000000000e+00 -2.4751947996e+03 2.4751947996e+03 0.0000000000e+00 0.0000e+00 1.0000e+00
      -13  1    1    2    0    0 -1.0962124153e+03 -2.5022747503e+02 -2.2179558767e+03 2.4866893090e+03 0.0000000000e+00 0.0000e+00 1.0000e+00
       13  1    1    2    0    0 +1.0962124153e+03 +2.5022747503e+02 +2.4495066143e+03 2.6952510276e+03 0.0000000000e+00 0.0000e+00 -1.0000e+00
<mgrwt>
<rscale>  0 0.51767644E+04</rscale>
<asrwt>0</asrwt>
<pdfrwt beam="1">  1        2 0.41642239E+00 0.51767644E+04</pdfrwt>
<pdfrwt beam="2">  1       -2 0.38079920E+00 0.51767644E+04</pdfrwt>
<totfact> 0.16443085E-02</totfact>
</mgrwt>
<rwgt>
<wgt id='morphing_basis_vector_1'> +7.4699357e-06 </wgt>
<wgt id='morphing_basis_vector_2'> +5.0756109e-06 </wgt>
<wgt id='morphing_basis_vector_3'> +8.2320132e-06 </wgt>
<wgt id='morphing_basis_vector_4'> +5.9516083e-06 </wgt>
<wgt id='morphing_basis_vector_5'> +9.4916497e-06 </wgt>
</rwgt>
</event>
<event>
 4      1 +7.6845000e-11 4.73824400e+03 7.81860800e-03 7.42161200e-02
        2 -1    0    0  501    0 +0.0000000000e+00 +0.0000000000e+00 +2.4864969781e+03 2.4864969781e+03 0.0000000000e+00 0.0000e+00 1.0000e+00
       -2 -1    0    0    0  501 -0.0000000000e+00 -0.0000000000e+00 -2.2572873252e+03 2.2572873252e+03 0.0000000000e+00 0.0000e+00 -1.0000e+00
      -13  1    1    2    0    0 -3.2503566283e+02 +1.2727229485e+03 -1.8593158275e+03 2.2765164687e+03 0.0000000000e+00 0.0000e+00 -1.0000e+00
       13  1    1    2    0    0 +3.2503566283e+02 -1.2727229485e+03 +2.0885254804e+03 2.4672678346e+03 0.0000000000e+00 0.0000e+00 1.0000e+00
<mgrwt>
<rscale>  0 0.47382436E+04</rscale>
<asrwt>0</asrwt>
<pdfrwt beam="1">  1        2 0.38253800E+00 0.47382436E+04</pdfrwt>
<pdfrwt beam="2">  1       -2 0.34727497E+00 0.47382436E+04</pdfrwt>
<totfact> 0.38041766E-02</totfact>
</mgrwt>
<rwgt>
<wgt id='morphing_basis_vector_1'> +5.2501143e-06 </wgt>
<wgt id='morphing_basis_vector_2'> +3.5674719e-06 </wgt>
<wgt id='morphing_basis_vector_3'> +5.7799468e-06 </wgt>
<wgt id='morphing_basis_vector_4'> +4.1698026e-06 </wgt>
<wgt id='morphing_basis_vector_5'> +6.6537403e-06 </wgt>
</rwgt>
</event>
<event>
 4      1 +7.6845000e-11 4.68982400e+03 7.81860800e-03 7.42873200e-02
        2 -1    0    0  501    0 +0.0000000000e+00 +0.0000000000e+00 +2.4975420881e+03 2.4975420881e+03 0.0000000000e+00 0.0000e+00 -1.0000e+00
       -2 -1    0    0    0  501 -0.0000000000e+00 -0.0000000000e+00 -2.2016096096e+03 2.2016096096e+03 0.0000000000e+00 0.0000e+00 1.0000e+00
      -13  1    1    2    0    0 +1.5444783154e+03 -5.3340806840e+01 -1.6191610207e+03 2.2382897309e+03 0.0000000000e+00 0.0000e+00 1.0000e+00
       13  1    1    2    0    0 -1.5444783154e+03 +5.3340806840e+01 +1.9150934993e+03 2.4608619667e+03 0.0000000000e+00 0.0000e+00 -1.0000e+00
<mgrwt>
<rscale>  0 0.46898242E+04</rscale>
<asrwt>0</asrwt>
<pdfrwt beam="1">  1        2 0.38423724E+00 0.46898242E+04</pdfrwt>
<pdfrwt beam="2">  1       -2 0.33870917E+00 0.46898242E+04</pdfrwt>
<totfact> 0.42775942E-02</totfact>
</mgrwt>
<rwgt>
<wgt id='morphing_basis_vector_1'> +5.0419324e-06 </wgt>
<wgt id='morphing_basis_vector_2'> +3.4310850e-06 </wgt>
<wgt id='morphing_basis_vector_3'> +5.5512039e-06 </wgt>
<wgt id='morphing_basis_vector_4'> +3.9963057e-06 </wgt>
<wgt id='morphing_basis_vector_5'> +6.3845451e-06 </wgt>
</rwgt>
</event>
<event>
 4      1 +7.6845000e-11 4.63862800e+03 7.81860800e-03 7.43635400e-02
        2 -1    0    0  501    0 +0.0000000000e+00 +0.0000000000e+00 +2.0102464654e+03 2.0102464654e+03 0.0000000000e+00 0.0000e+00 -1.0000e+00
       -2 -1    0    0    0  501 -0.0000000000e+00 -0.0000000000e+00 -2.6758995262e+03 2.6758995262e+03 0.0000000000e+00 0.0000e+00 1.0000e+00
      -13  1    1    2    0    0 +1.5362982963e+03 +1.2409627838e+03 -1.5614329216e+03 2.5175928691e+03 0.0000000000e+00 0.0000e+00 1.0000e+00
       13  1    1    2    0    0 -1.5362982963e+03 -1.2409627838e+03 +8.9577986085e+02 2.1685531225e+03 0.0000000000e+00 0.0000e+00 -1.0000e+00
<mgrwt>
<rscale>  0 0.46386281E+04</rscale>
<asrwt>0</asrwt>
<pdfrwt beam="1">  1        2 0.30926869E+00 0.46386281E+04</pdfrwt>
<pdfrwt beam="2">  1       -2 0.41167685E+00 0.46386281E+04</pdfrwt>
<totfact> 0.27621461E-02</totfact>
</mgrwt>
<rwgt>
<wgt id='morphing_basis_vector_1'> +4.8411937e-06 </wgt>
<wgt id='morphing_basis_vector_2'> +3.3281007e-06 </wgt>
<wgt id='morphing_basis_vector_3'> +5.3371352e-06 </wgt>
<wgt id='morphing_basis_vector_4'> +3.7920602e-06 </wgt>
<wgt id='morphing_basis_vector_5'> +6.1066370e-06 </wgt>
</rwgt>
</event>
<event>
 4      1 +7.6845000e-11 4.82327900e+03 7.81860800e-03 7.40931300e-02
        2 -1    0    0  501    0 +0.0000000000e+00 +0.0000000000e+00 +2.4217646896e+03 2.4217646896e+03 0.0000000000e+00 0.0000e+00 1.0000e+00
       -2 -1    0    0    0  501 -0.0000000000e+00 -0.0000000000e+00 -2.4015566160e+03 2.4015566160e+03 0.0000000000e+00 0.0000e+00 -1.0000e+00
      -13  1    1    2    0    0 -6.5641269566e+02 -8.4848688617e+02 -2.1498217213e+03 2.4026112995e+03 0.0000000000e+00 0.0000e+00 -1.0000e+00
       13  1    1    2    0    0 +6.5641269566e+02 +8.4848688617e+02 +2.1700297949e+03 2.4207100061e+03 0.0000000000e+00 0.0000e+00 1.0000e+00
<mgrwt>
<rscale>  0 0.48232790E+04</rscale>
<asrwt>0</asrwt>
<pdfrwt beam="1">  1        2 0.37257918E+00 0.48232790E+04</pdfrwt>
<pdfrwt beam="2">  1       -2 0.36947025E+00 0.48232790E+04</pdfrwt>
<totfact> 0.29694325E-02</totfact>
</mgrwt>
<rwgt>
<wgt id='morphing_basis_vector_1'> +5.6345965e-06 </wgt>
<wgt id='morphing_basis_vector_2'> +3.8265434e-06 </wgt>
<wgt id='morphing_basis_vector_3'> +6.2040727e-06 </wgt>
<wgt id='morphing_basis_vector_4'> +4.4809929e-06 </wgt>
<wgt id='morphing_basis_vector_5'> +7.1463848e-06 </wgt>
</rwgt>
</event>
<event>
 4      1 +7.6845000e-11 5.30162100e+03 7.81860800e-03 7.34460500e-02
        2 -1    0    0  501    0 +0.0000000000e+00 +0.0000000000e+00 +2.3074263764e+03 2.3074263764e+03 0.0000000000e+00 0.0000e+00 -1.0000e+00
       -2 -1    0    0    0  501 -0.0000000000e+00 -0.0000000000e+00 -3.0452956402e+03 3.0452956402e+03 0.0000000000e+00 0.0000e+00 1.0000e+00
      -13  1    1    2    0    0 -2.2662230299e+03 -9.5548070129e+02 -1.3674491908e+03 2.8140055936e+03 0.0000000000e+00 0.0000e+00 1.0000e+00
       13  1    1    2    0    0 +2.2662230299e+03 +9.5548070129e+02 +6.2957992704e+02 2.5387164229e+03 0.0000000000e+00 0.0000e+00 -1.0000e+00
<mgrwt>
<rscale>  0 0.53016207E+04</rscale>
<asrwt>0</asrwt>
<pdfrwt beam="1">  1        2 0.35498867E+00 0.53016207E+04</pdfrwt>
<pdfrwt beam="2">  1       -2 0.46850702E+00 0.53016207E+04</pdfrwt>
<totfact> 0.72264396E-03</totfact>
</mgrwt>
<rwgt>
<wgt id='morphing_basis_vector_1'> +8.2822298e-06 </wgt>
<wgt id='morphing_basis_vector_2'> +5.7808094e-06 </wgt>
<wgt id='morphing_basis_vector_3'> +9.1649834e-06 </wgt>
<wgt id='morphing_basis_vector_4'> +6.4046525e-06 </wgt>
<wgt id='morphing_basis_vector_5'> +1.0431803e-05 </wgt>
</rwgt>
</event>
<event>
 4      1 +7.6845000e-11 4.92571000e+03 7.81860800e-03 7.39483100e-02
        2 -1    0    0  501    0 +0.0000000000e+00 +0.0000000000e+00 +3.0108905723e+03 3.0108905723e+03 0.0000000000e+00 0.0000e+00 1.0000e+00
       -2 -1    0    0    0  501 -0.0000000000e+00 -0.0000000000e+00 -2.0145714400e+03 2.0145714400e+03 0.0000000000e+00 0.0000e+00 -1.0000e+00
      -13  1    1    2    0    0 +2.3137132075e+03 -4.4939882065e+02 +1.2270690344e+03 2.6572403959e+03 0.0000000000e+00 0.0000e+00 -1.0000e+00
       13  1    1    2    0    0 -2.3137132075e+03 +4.4939882065e+02 -2.3074990214e+02 2.3682216163e+03 0.0000000000e+00 0.0000e+00 1.0000e+00
<mgrwt>
<rscale>  0 0.49257098E+04</rscale>
<asrwt>0</asrwt>
<pdfrwt beam="1">  1        2 0.46321393E+00 0.49257098E+04</pdfrwt>
<pdfrwt beam="2">  1       -2 0.30993407E+00 0.49257098E+04</pdfrwt>
<totfact> 0.31174265E-02</totfact>
</mgrwt>
<rwgt>
<wgt id='morphing_basis_vector_1'> +6.7323260e-06 </wgt>
<wgt id='morphing_basis_vector_2'> +5.9395836e-06 </wgt>
<wgt id='morphing_basis_vector_3'> +7.7298499e-06 </wgt>
<wgt id='morphing_basis_vector_4'> +3.5858535e-06 </wgt>
<wgt id='morphing_basis_vector_5'> +7.6671855e-06 </wgt>
</rwgt>
</event>
<event>
 4      1 +7.6845000e-11 4.83266300e+03 7.81860800e-03 7.40797100e-02
        2 -1    0    0  501    0 +0.0000000000e+00 +0.0000000000e+00 +2.1856828993e+03 2.1856828993e+03 0.0000000000e+00 0.0000e+00 1.0000e+00
       -2 -1    0    0    0  501 -0.0000000000e+00 -0.0000000000e+00 -2.6713193447e+03 2.6713193447e+03 0.0000000000e+00 0.0000e+00 -1.0000e+00
      -13  1    1    2    0    0 -1.3385149887e+03 -1.4409926990e+03 -1.6536598833e+03 2.5695667618e+03 0.0000000000e+00 0.0000e+00 -1.0000e+00
       13  1    1    2    0    0 +1.3385149887e+03 +1.4409926990e+03 +1.1680234379e+03 2.2874354822e+03 0.0000000000e+00 0.0000e+00 1.0000e+00
<mgrwt>
<rscale>  0 0.48326626E+04</rscale>
<asrwt>0</asrwt>
<pdfrwt beam="1">  1        2 0.33625891E+00 0.48326626E+04</pdfrwt>
<pdfrwt beam="2">  1       -2 0.41097221E+00 0.48326626E+04</pdfrwt>
<totfact> 0.21868322E-02</totfact>
</mgrwt>
<rwgt>
<wgt id='morphing_basis_vector_1'> +5.6938872e-06 </wgt>
<wgt id='morphing_basis_vector_2'> +3.9018021e-06 </wgt>
<wgt id='morphing_basis_vector_3'> +6.2775516e-06 </wgt>
<wgt id='morphing_basis_vector_4'> +4.4831510e-06 </wgt>
<wgt id='morphing_basis_vector_5'> +7.1995922e-06 </wgt>
</rwgt>
</event>
<event>
 4      1 +7.6845000e-11 4.66775700e+03 7.81860800e-03 7.43200500e-02
        2 -1    0    0  501    0 +0.0000000000e+00 +0.0000000000e+00 +2.5082815192e+03 2.5082815192e+03 0.0000000000e+00 0.0000e+00 1.0000e+00
       -2 -1    0    0    0  501 -0.0000000000e+00 -0.0000000000e+00 -2.1716014410e+03 2.1716014410e+03 0.0000000000e+00 0.0000e+00 -1.0000e+00
      -13  1    1    2    0    0 +8.0325285661e+02 -2.1912640273e+03 +1.5670936622e+02 2.3391047464e+03 0.0000000000e+00 0.0000e+00 -1.0000e+00
       13  1    1    2    0    0 -8.0325285661e+02 +2.1912640273e+03 +1.7997071190e+02 2.3407782138e+03 0.0000000000e+00 0.0000e+00 1.0000e+00
<mgrwt>
<rscale>  0 0.46677565E+04</rscale>
<asrwt>0</asrwt>
<pdfrwt beam="1">  1        2 0.38588946E+00 0.46677565E+04</pdfrwt>
<pdfrwt beam="2">  1       -2 0.33409253E+00 0.46677565E+04</pdfrwt>
<totfact> 0.45275479E-02</totfact>
</mgrwt>
<rwgt>
<wgt id='morphing_basis_vector_1'> +5.1227294e-06 </wgt>
<wgt id='morphing_basis_vector_2'> +3.8801475e-06 </wgt>
<wgt id='morphing_basis_vector_3'> +5.7301089e-06 </wgt>
<wgt id='morphing_basis_vector_4'> +3.5498839e-06 </wgt>
<wgt id='morphing_basis_vector_5'> +6.2337037e-06 </wgt>
</rwgt>
</event>
<event>
 4      1 +7.6845000e-11 4.70341300e+03 7.81860800e-03 7.42672500e-02
        2 -1    0    0  501    0 +0.0000000000e+00 +0.0000000000e+00 +2.7862545965e+03 2.7862545965e+03 0.0000000000e+00 0.0000e+00 -1.0000e+00
       -2 -1    0    0    0  501 -0.0000000000e+00 -0.0000000000e+00 -1.9849307823e+03 1.9849307823e+03 0.0000000000e+00 0.0000e+00 1.0000e+00
      -13  1    1    2    0    0 -5.3987440064e+01 -1.6257694407e+03 -1.3221866328e+03 2.0962391108e+03 0.0000000000e+00 0.0000e+00 1.0000e+00
       13  1    1    2    0    0 +5.3987440064e+01 +1.6257694407e+03 +2.1235104470e+03 2.6749462679e+03 0.0000000000e+00 0.0000e+00 -1.0000e+00
<mgrwt>
<rscale>  0 0.47034126E+04</rscale>
<asrwt>0</asrwt>
<pdfrwt beam="1">  1        2 0.42865456E+00 0.47034126E+04</pdfrwt>
<pdfrwt beam="2">  1       -2 0.30537397E+00 0.47034126E+04</pdfrwt>
<totfact> 0.47371224E-02</totfact>
</mgrwt>
<rwgt>
<wgt id='morphing_basis_vector_1'> +5.1016454e-06 </wgt>
<wgt id='morphing_basis_vector_2'> +3.4746176e-06 </wgt>
<wgt id='morphing_basis_vector_3'> +5.6178184e-06 </wgt>
<wgt id='morphing_basis_vector_4'> +4.0403422e-06 </wgt>
<wgt id='morphing_basis_vector_5'> +6.4589097e-06 </wgt>
</rwgt>
</event>
<event>
 4      1 +7.6845000e-11 4.68648500e+03 7.81860800e-03 7.42922600e-02
        2 -1    0    0  501    0 +0.0000000000e+00 +0.0000000000e+00 +2.1990502738e+03 2.1990502738e+03 0.0000000000e+00 0.0000e+00 1.0000e+00
       -2 -1    0    0    0  501 -0.0000000000e+00 -0.0000000000e+00 -2.4968899745e+03 2.4968899745e+03 0.0000000000e+00 0.0000e+00 -1.0000e+00
      -13  1    1    2    0    0 +1.0676989314e+03 -1.4102795093e+03 -1.6888734186e+03 2.4456415777e+03 0.0000000000e+00 0.0000e+00 -1.0000e+00
       13  1    1    2    0    0 -1.0676989314e+03 +1.4102795093e+03 +1.3910337179e+03 2.2502986706e+03 0.0000000000e+00 0.0000e+00 1.0000e+00
<mgrwt>
<rscale>  0 0.46864855E+04</rscale>
<asrwt>0</asrwt>
<pdfrwt beam="1">  1        2 0.33831543E+00 0.46864855E+04</pdfrwt>
<pdfrwt beam="2">  1       -2 0.38413692E+00 0.46864855E+04</pdfrwt>
<totfact> 0.32518669E-02</totfact>
</mgrwt>
<rwgt>
<wgt id='morphing_basis_vector_1'> +5.0323671e-06 </wgt>
<wgt id='morphing_basis_vector_2'> +3.4352133e-06 </wgt>
<wgt id='morphing_basis_vector_3'> +5.5430606e-06 </wgt>
<wgt id='morphing_basis_vector_4'> +3.9748524e-06 </wgt>
<wgt id='morphing_basis_vector_5'> +6.3654777e-06 </wgt>
</rwgt>
</event>
<event>
 4      1 +7.6845000e-11 4.62715300e+03 7.81860800e-03 7.43807700e-02
        2 -1    0    0  501    0 +0.0000000000e+00 +0.0000000000e+00 +2.9925688864e+03 2.9925688864e+03 0.0000000000e+00 0.0000e+00 -1.0000e+00
       -2 -1    0    0    0  501 -0.0000000000e+00 -0.0000000000e+00 -1.7886425007e+03 1.7886425007e+03 0.0000000000e+00 0.0000e+00 1.0000e+00
      -13  1    1    2    0    0 -9.1565311927e+02 +1.5654094064e+03 -8.8242773311e+02 2.0168306693e+03 0.0000000000e+00 0.0000e+00 1.0000e+00
       13  1    1    2    0    0 +9.1565311927e+02 -1.5654094064e+03 +2.0863541188e+03 2.7643807179e+03 0.0000000000e+00 0.0000e+00 -1.0000e+00
<mgrwt>
<rscale>  0 0.46271529E+04</rscale>
<asrwt>0</asrwt>
<pdfrwt beam="1">  1        2 0.46039522E+00 0.46271529E+04</pdfrwt>
<pdfrwt beam="2">  1       -2 0.27517577E+00 0.46271529E+04</pdfrwt>
<totfact> 0.56336260E-02</totfact>
</mgrwt>
<rwgt>
<wgt id='morphing_basis_vector_1'> +4.7854616e-06 </wgt>
<wgt id='morphing_basis_vector_2'> +3.2712947e-06 </wgt>
<wgt id='morphing_basis_vector_3'> +5.2712895e-06 </wgt>
<wgt id='morphing_basis_vector_4'> +3.7719453e-06 </wgt>
<wgt id='morphing_basis_vector_5'> +6.0476688e-06 </wgt>
</rwgt>
</event>
<event>
 4      1 +7.6845000e-11 4.83688900e+03 7.81860800e-03 7.40736800e-02
        2 -1    0    0  501    0 +0.0000000000e+00 +0.0000000000e+00 +3.8529897205e+03 3.8529897205e+03 0.0000000000e+00 0.0000e+00 -1.0000e+00
       -2 -1    0    0    0  501 -0.0000000000e+00 -0.0000000000e+00 -1.5180094882e+03 1.5180094882e+03 0.0000000000e+00 0.0000e+00 1.0000e+00
      -13  1    1    2    0    0 -1.4523188977e+03 +1.8904997890e+03 +7.1553883748e+02 2.4890189756e+03 0.0000000000e+00 0.0000e+00 1.0000e+00
       13  1    1    2    0    0 +1.4523188977e+03 -1.8904997890e+03 +1.6194413949e+03 2.8819802331e+03 0.0000000000e+00 0.0000e+00 -1.0000e+00
<mgrwt>
<rscale>  0 0.48368895E+04</rscale>
<asrwt>0</asrwt>
<pdfrwt beam="1">  1        2 0.59276765E+00 0.48368895E+04</pdfrwt>
<pdfrwt beam="2">  1       -2 0.23353992E+00 0.48368895E+04</pdfrwt>
<totfact> 0.25637261E-02</totfact>
</mgrwt>
<rwgt>
<wgt id='morphing_basis_vector_1'> +5.8092748e-06 </wgt>
<wgt id='morphing_basis_vector_2'> +4.1959678e-06 </wgt>
<wgt id='morphing_basis_vector_3'> +6.4543221e-06 </wgt>
<wgt id='morphing_basis_vector_4'> +4.2955843e-06 </wgt>
<wgt id='morphing_basis_vector_5'> +7.2078671e-06 </wgt>
</rwgt>
</event>
<event>
 4      1 +7.6845000e-11 5.18140400e+03 7.81860800e-03 7.36019000e-02
        2 -1    0    0  501    0 +0.0000000000e+00 +0.0000000000e+00 +1.7976363979e+03 1.7976363979e+03 0.0000000000e+00 0.0000e+00 -1.0000e+00
       -2 -1    0    0    0  501 -0.0000000000e+00 -0.0000000000e+00 -3.7336452736e+03 3.7336452736e+03 0.0000000000e+00 0.0000e+00 1.0000e+00
      -13  1    1    2    0    0 +1.9176923388e+03 -1.6940695005e+03 -5.3526626582e+02 2.6141777587e+03 0.0000000000e+00 0.0000e+00 1.0000e+00
       13  1    1    2    0    0 -1.9176923388e+03 +1.6940695005e+03 -1.4007426099e+03 2.9171039128e+03 0.0000000000e+00 0.0000e+00 -1.0000e+00
<mgrwt>
<rscale>  0 0.51814039E+04</rscale>
<asrwt>0</asrwt>
<pdfrwt beam="1">  1        2 0.27655945E+00 0.51814039E+04</pdfrwt>
<pdfrwt beam="2">  1       -2 0.57440696E+00 0.51814039E+04</pdfrwt>
<totfact> 0.23622071E-03</totfact>
</mgrwt>
<rwgt>
<wgt id='morphing_basis_vector_1'> +7.9728383e-06 </wgt>
<wgt id='morphing_basis_vector_2'> +6.4920037e-06 </wgt>
<wgt id='morphing_basis_vector_3'> +9.0353708e-06 </wgt>
<wgt id='morphing_basis_vector_4'> +4.9575591e-06 </wgt>
<wgt id='morphing_basis_vector_5'> +9.4406295e-06 </wgt>
</rwgt>
</event>
<event>
 4      1 +7.6845000e-11 5.05073200e+03 7.81860800e-03 7.37763100e-02
        2 -1    0    0  501    0 +0.0000000000e+00 +0.0000000000e+00 +2.2066723275e+03 2.2066723275e+03 0.0000000000e+00 0.0000e+00 -1.0000e+00
       -2 -1    0    0    0  501 -0.0000000000e+00 -0.0000000000e+00 -2.8900868278e+03 2.8900868278e+03 0.0000000000e+00 0.0000e+00 1.0000e+00
      -13  1    1    2    0    0 -1.8730167764e+03 +5.4082104121e+02 -1.9615755749e+03 2.7655845638e+03 0.0000000000e+00 0.0000e+00 1.0000e+00
       13  1    1    2    0    0 +1.8730167764e+03 -5.4082104121e+02 +1.2781610746e+03 2.3311745915e+03 0.0000000000e+00 0.0000e+00 -1.0000e+00
<mgrwt>
<rscale>  0 0.50507325E+04</rscale>
<asrwt>0</asrwt>
<pdfrwt beam="1">  1        2 0.33948805E+00 0.50507325E+04</pdfrwt>
<pdfrwt beam="2">  1       -2 0.44462874E+00 0.50507325E+04</pdfrwt>
<totfact> 0.12428374E-02</totfact>
</mgrwt>
<rwgt>
<wgt id='morphing_basis_vector_1'> +6.7836250e-06 </wgt>
<wgt id='morphing_basis_vector_2'> +4.6375288e-06 </wgt>
<wgt id='morphing_basis_vector_3'> +7.4802532e-06 </wgt>
<wgt id='morphing_basis_vector_4'> +5.3637840e-06 </wgt>
<wgt id='morphing_basis_vector_5'> +8.5956612e-06 </wgt>
</rwgt>
</event>
<event>
 4      1 +7.6845000e-11 4.67549600e+03 7.81860800e-03 7.43085500e-02
        2 -1    0    0  501    0 +0.0000000000e+00 +0.0000000000e+00 +2.7728333964e+03 2.7728333964e+03 0.0000000000e+00 0.0000e+00 -1.0000e+00
       -2 -1    0    0    0  501 -0.0000000000e+00 -0.0000000000e+00 -1.9709320212e+03 1.9709320212e+03 0.0000000000e+00 0.0000e+00 1.0000e+00
      -13  1    1    2    0    0 +2.5189522004e+02 +2.2371065711e+03 -2.3830390924e+02 2.2638210542e+03 0.0000000000e+00 0.0000e+00 1.0000e+00
       13  1    1    2    0    0 -2.5189522004e+02 -2.2371065711e+03 +1.0402052844e+03 2.4799443635e+03 0.0000000000e+00 0.0000e+00 -1.0000e+00
<mgrwt>
<rscale>  0 0.46754962E+04</rscale>
<asrwt>0</asrwt>
<pdfrwt beam="1">  1        2 0.42658976E+00 0.46754962E+04</pdfrwt>
<pdfrwt beam="2">  1       -2 0.30322031E+00 0.46754962E+04</pdfrwt>
<totfact> 0.50039599E-02</totfact>
</mgrwt>
<rwgt>
<wgt id='morphing_basis_vector_1'> +5.0417161e-06 </wgt>
<wgt id='morphing_basis_vector_2'> +3.5682602e-06 </wgt>
<wgt id='morphing_basis_vector_3'> +5.5822174e-06 </wgt>
<wgt id='morphing_basis_vector_4'> +3.8180284e-06 </wgt>
<wgt id='morphing_basis_vector_5'> +6.2957620e-06 </wgt>
</rwgt>
</event>
<event>
 4      1 +7.6845000e-11 4.87943800e+03 7.81860800e-03 7.40132900e-02
        2 -1    0    0  501    0 +0.0000000000e+00 +0.0000000000e+00 +3.8717172044e+03 3.8717172044e+03 0.0000000000e+00 0.0000e+00 1.0000e+00
       -2 -1    0    0    0  501 -0.0000000000e+00 -0.0000000000e+00 -1.5373616199e+03 1.5373616199e+03 0.0000000000e+00 0.0000e+00 -1.0000e+00
      -13  1    1    2    0    0 +7.5709699619e+02 +7.1618207563e+02 -1.2781931531e+03 1.6492090115e+03 0.0000000000e+00 0.0000e+00 -1.0000e+00
       13  1    1    2    0    0 -7.5709699619e+02 -7.1618207563e+02 +3.6125487376e+03 3.7598698127e+03 0.0000000000e+00 0.0000e+00 1.0000e+00
<mgrwt>
<rscale>  0 0.48794383E+04</rscale>
<asrwt>0</asrwt>
<pdfrwt beam="1">  1        2 0.59564879E+00 0.48794383E+04</pdfrwt>
<pdfrwt beam="2">  1       -2 0.23651717E+00 0.48794383E+04</pdfrwt>
<totfact> 0.23516013E-02</totfact>
</mgrwt>
<rwgt>
<wgt id='morphing_basis_vector_1'> +5.9005643e-06 </wgt>
<wgt id='morphing_basis_vector_2'> +4.0072874e-06 </wgt>
<wgt id='morphing_basis_vector_3'> +6.4978388e-06 </wgt>
<wgt id='morphing_basis_vector_4'> +4.6943337e-06 </wgt>
<wgt id='morphing_basis_vector_5'> +7.4862649e-06 </wgt>
</rwgt>
</event>
<event>
 4      1 +7.6845000e-11 5.53007000e+03 7.81860800e-03 7.31612100e-02
        2 -1    0    0  501    0 +0.0000000000e+00 +0.0000000000e+00 +2.2569619497e+03 2.2569619497e+03 0.0000000000e+00 0.0000e+00 1.0000e+00
       -2 -1    0    0    0  501 -0.0000000000e+00 -0.0000000000e+00 -3.3874825860e+03 3.3874825860e+03 0.0000000000e+00 0.0000e+00 -1.0000e+00
      -13  1    1    2    0    0 +1.7661117072e+03 -1.8608954389e+03 +4.8724913073e+02 2.6114161124e+03 0.0000000000e+00 0.0000e+00 1.0000e+00
       13  1    1    2    0    0 -1.7661117072e+03 +1.8608954389e+03 -1.6177697670e+03 3.0330284232e+03 0.0000000000e+00 0.0000e+00 -1.0000e+00
<mgrwt>
<rscale>  0 0.55300703E+04</rscale>
<asrwt>0</asrwt>
<pdfrwt beam="1">  1        2 0.34722492E+00 0.55300703E+04</pdfrwt>
<pdfrwt beam="2">  1       -2 0.52115116E+00 0.55300703E+04</pdfrwt>
<totfact> 0.30810288E-03</totfact>
</mgrwt>
<rwgt>
<wgt id='morphing_basis_vector_1'> +1.0965334e-05 </wgt>
<wgt id='morphing_basis_vector_2'> +1.0263035e-05 </wgt>
<wgt id='morphing_basis_vector_3'> +1.2747507e-05 </wgt>
<wgt id='morphing_basis_vector_4'> +5.0967094e-06 </wgt>
<wgt id='morphing_basis_vector_5'> +1.2146021e-05 </wgt>
</rwgt>
</event>
<event>
 4      1 +7.6845000e-11 5.22828100e+03 7.81860800e-03 7.35406200e-02
        2 -1    0    0  501    0 +0.0000000000e+00 +0.0000000000e+00 +2.3859540966e+03 2.3859540966e+03 0.0000000000e+00 0.0000e+00 -1.0000e+00
       -2 -1    0    0    0  501 -0.0000000000e+00 -0.0000000000e+00 -2.8641502198e+03 2.8641502198e+03 0.0000000000e+00 0.0000e+00 1.0000e+00
      -13  1    1    2    0    0 -8.0759629504e+02 +7.0984104296e+02 -2.6318248453e+03 2.8429892892e+03 0.0000000000e+00 0.0000e+00 1.0000e+00
       13  1    1    2    0    0 +8.0759629504e+02 -7.0984104296e+02 +2.1536287220e+03 2.4071150272e+03 0.0000000000e+00 0.0000e+00 -1.0000e+00
<mgrwt>
<rscale>  0 0.52282812E+04</rscale>
<asrwt>0</asrwt>
<pdfrwt beam="1">  1        2 0.36706986E+00 0.52282812E+04</pdfrwt>
<pdfrwt beam="2">  1       -2 0.44063850E+00 0.52282812E+04</pdfrwt>
<totfact> 0.10277996E-02</totfact>
</mgrwt>
<rwgt>
<wgt id='morphing_basis_vector_1'> +7.7706327e-06 </wgt>
<wgt id='morphing_basis_vector_2'> +5.2798929e-06 </wgt>
<wgt id='morphing_basis_vector_3'> +8.5642516e-06 </wgt>
<wgt id='morphing_basis_vector_4'> +6.1931766e-06 </wgt>
<wgt id='morphing_basis_vector_5'> +9.8763318e-06 </wgt>
</rwgt>
</event>
<event>
 4      1 +7.6845000e-11 4.66540800e+03 7.81860800e-03 7.43235500e-02
        2 -1    0    0  501    0 +0.0000000000e+00 +0.0000000000e+00 +3.9725995587e+03 3.9725995587e+03 0.0000000000e+00 0.0000e+00 1.0000e+00
       -2 -1    0    0    0  501 -0.0000000000e+00 -0.0000000000e+00 -1.3697598648e+03 1.3697598648e+03 0.0000000000e+00 0.0000e+00 -1.0000e+00
      -13  1    1    2    0    0 +2.4274762293e+02 +2.1034770498e+03 +1.8064496527e+02 2.1251293398e+03 0.0000000000e+00 0.0000e+00 -1.0000e+00
       13  1    1    2    0    0 -2.4274762293e+02 -2.1034770498e+03 +2.4221947287e+03 3.2172300836e+03 0.0000000000e+00 0.0000e+00 1.0000e+00
<mgrwt>
<rscale>  0 0.46654078E+04</rscale>
<asrwt>0</asrwt>
<pdfrwt beam="1">  1        2 0.61116916E+00 0.46654078E+04</pdfrwt>
<pdfrwt beam="2">  1       -2 0.21073229E+00 0.46654078E+04</pdfrwt>
<totfact> 0.30008718E-02</totfact>
</mgrwt>
<rwgt>
<wgt id='morphing_basis_vector_1'> +4.9672008e-06 </wgt>
<wgt id='morphing_basis_vector_2'> +3.4456608e-06 </wgt>
<wgt id='morphing_basis_vector_3'> +5.4835495e-06 </wgt>
<wgt id='morphing_basis_vector_4'> +3.8516370e-06 </wgt>
<wgt id='morphing_basis_vector_5'> +6.2469759e-06 </wgt>
</rwgt>
</event>
<event>
 4      1 +7.6845000e-11 5.13113800e+03 7.81860800e-03 7.36683600e-02
        2 -1    0    0  501    0 +0.0000000000e+00 +0.0000000000e+00 +4.3484591425e+03 4.3484591425e+03 0.0000000000e+00 0.0000e+00 1.0000e+00
       -2 -1    0    0    0  501 -0.0000000000e+00 -0.0000000000e+00 -1.5136725367e+03 1.5136725367e+03 0.0000000000e+00 0.0000e+00 -1.0000e+00
      -13  1    1    2    0    0 -2.4405343322e+03 +3.9996552765e+02 +6.3753159680e+02 2.5539433798e+03 0.0000000000e+00 0.0000e+00 -1.0000e+00
       13  1    1    2    0    0 +2.4405343322e+03 -3.9996552765e+02 +2.1972550090e+03 3.3081882995e+03 0.0000000000e+00 0.0000e+00 1.0000e+00
<mgrwt>
<rscale>  0 0.51311376E+04</rscale>
<asrwt>0</asrwt>
<pdfrwt beam="1">  1        2 0.66899371E+00 0.51311376E+04</pdfrwt>
<pdfrwt beam="2">  1       -2 0.23287270E+00 0.51311376E+04</pdfrwt>
<totfact> 0.92144609E-03</totfact>
</mgrwt>
<rwgt>
<wgt id='morphing_basis_vector_1'> +7.3055063e-06 </wgt>
<wgt id='morphing_basis_vector_2'> +5.1772317e-06 </wgt>
<wgt id='morphing_basis_vector_3'> +8.0994586e-06 </wgt>
<wgt id='morphing_basis_vector_4'> +5.5420979e-06 </wgt>
<wgt id='morphing_basis_vector_5'> +9.1435197e-06 </wgt>
</rwgt>
</event>
<event>
 4      1 +7.6845000e-11 4.83306000e+03 7.81860800e-03 7.40791400e-02
        2 -1    0    0  501    0 +0.0000000000e+00 +0.0000000000e+00 +1.4685397792e+03 1.4685397792e+03 0.0000000000e+00 0.0000e+00 -1.0000e+00
       -2 -1    0    0    0  501 -0.0000000000e+00 -0.0000000000e+00 -3.9764787582e+03 3.9764787582e+03 0.0000000000e+00 0.0000e+00 1.0000e+00
      -13  1    1    2    0    0 -2.1278445254e+03 +1.1408205118e+03 -1.3689921490e+03 2.7754879334e+03 0.0000000000e+00 0.0000e+00 1.0000e+00
       13  1    1    2    0    0 +2.1278445254e+03 -1.1408205118e+03 -1.1389468299e+03 2.6695306040e+03 0.0000000000e+00 0.0000e+00 -1.0000e+00
<mgrwt>
<rscale>  0 0.48330600E+04</rscale>
<asrwt>0</asrwt>
<pdfrwt beam="1">  1        2 0.22592920E+00 0.48330600E+04</pdfrwt>
<pdfrwt beam="2">  1       -2 0.61176595E+00 0.48330600E+04</pdfrwt>
<totfact> 0.17276531E-03</totfact>
</mgrwt>
<rwgt>
<wgt id='morphing_basis_vector_1'> +5.8588558e-06 </wgt>
<wgt id='morphing_basis_vector_2'> +4.3821164e-06 </wgt>
<wgt id='morphing_basis_vector_3'> +6.5439276e-06 </wgt>
<wgt id='morphing_basis_vector_4'> +4.1374266e-06 </wgt>
<wgt id='morphing_basis_vector_5'> +7.1728844e-06 </wgt>
</rwgt>
</event>
<event>
 4      1 +7.6845000e-11 5.31765600e+03 7.81860800e-03 7.34255800e-02
        2 -1    0    0  501    0 +0.0000000000e+00 +0.0000000000e+00 +3.1340729630e+03 3.1340729630e+03 0.0000000000e+00 0.0000e+00 1.0000e+00
       -2 -1    0    0    0  501 -0.0000000000e+00 -0.0000000000e+00 -2.2556485375e+03 2.2556485375e+03 0.0000000000e+00 0.0000e+00 -1.0000e+00
      -13  1    1    2    0    0 -8.9159054799e+02 +8.7778366776e+02 +2.8170514123e+03 3.0824043427e+03 0.0000000000e+00 0.0000e+00 1.0000e+00
       13  1    1    2    0    0 +8.9159054799e+02 -8.7778366776e+02 -1.9386269868e+03 2.3073171578e+03 0.0000000000e+00 0.0000e+00 -1.0000e+00
<mgrwt>
<rscale>  0 0.53176563E+04</rscale>
<asrwt>0</asrwt>
<pdfrwt beam="1">  1        2 0.48216507E+00 0.53176563E+04</pdfrwt>
<pdfrwt beam="2">  1       -2 0.34702285E+00 0.53176563E+04</pdfrwt>
<totfact> 0.14269955E-02</totfact>
</mgrwt>
<rwgt>
<wgt id='morphing_basis_vector_1'> +1.1292151e-05 </wgt>
<wgt id='morphing_basis_vector_2'> +1.4393750e-05 </wgt>
<wgt id='morphing_basis_vector_3'> +1.4009104e-05 </wgt>
<wgt id='morphing_basis_vector_4'> +2.7402891e-07 </wgt>
<wgt id='morphing_basis_vector_5'> +1.0037801e-05 </wgt>
</rwgt>
</event>
<event>
 4      1 +7.6845000e-11 4.99298500e+03 7.81860800e-03 7.38551200e-02
        2 -1    0    0  501    0 +0.0000000000e+00 +0.0000000000e+00 +3.5730785613e+03 3.5730785613e+03 0.0000000000e+00 0.0000e+00 -1.0000e+00
       -2 -1    0    0    0  501 -0.0000000000e+00 -0.0000000000e+00 -1.7442867928e+03 1.7442867928e+03 0.0000000000e+00 0.0000e+00 1.0000e+00
      -13  1    1    2    0    0 +2.0285033058e+03 -7.4027987856e+02 -4.1984869132e+02 2.1997983735e+03 0.0000000000e+00 0.0000e+00 1.0000e+00
       13  1    1    2    0    0 -2.0285033058e+03 +7.4027987856e+02 +2.2486404598e+03 3.1175669805e+03 0.0000000000e+00 0.0000e+00 -1.0000e+00
<mgrwt>
<rscale>  0 0.49929846E+04</rscale>
<asrwt>0</asrwt>
<pdfrwt beam="1">  1        2 0.54970439E+00 0.49929846E+04</pdfrwt>
<pdfrwt beam="2">  1       -2 0.26835182E+00 0.49929846E+04</pdfrwt>
<totfact> 0.24044877E-02</totfact>
</mgrwt>
<rwgt>
<wgt id='morphing_basis_vector_1'> +6.4953152e-06 </wgt>
<wgt id='morphing_basis_vector_2'> +4.4753659e-06 </wgt>
<wgt id='morphing_basis_vector_3'> +7.1694859e-06 </wgt>
<wgt id='morphing_basis_vector_4'> +5.0885124e-06 </wgt>
<wgt id='morphing_basis_vector_5'> +8.2052481e-06 </wgt>
</rwgt>
</event>
<event>
 4      1 +7.6845000e-11 5.07010900e+03 7.81860800e-03 7.37501000e-02
        2 -1    0    0  501    0 +0.0000000000e+00 +0.0000000000e+00 +2.1003041195e+03 2.1003041195e+03 0.0000000000e+00 0.0000e+00 -1.0000e+00
       -2 -1    0    0    0  501 -0.0000000000e+00 -0.0000000000e+00 -3.0597960891e+03 3.0597960891e+03 0.0000000000e+00 0.0000e+00 1.0000e+00
      -13  1    1    2    0    0 -8.2030549609e+02 -2.0467215186e+03 -1.7527596484e+03 2.8167599235e+03 0.0000000000e+00 0.0000e+00 1.0000e+00
       13  1    1    2    0    0 +8.2030549609e+02 +2.0467215186e+03 +7.9326767882e+02 2.3433402852e+03 0.0000000000e+00 0.0000e+00 -1.0000e+00
<mgrwt>
<rscale>  0 0.50701094E+04</rscale>
<asrwt>0</asrwt>
<pdfrwt beam="1">  1        2 0.32312371E+00 0.50701094E+04</pdfrwt>
<pdfrwt beam="2">  1       -2 0.47073786E+00 0.50701094E+04</pdfrwt>
<totfact> 0.93142633E-03</totfact>
</mgrwt>
<rwgt>
<wgt id='morphing_basis_vector_1'> +6.9060433e-06 </wgt>
<wgt id='morphing_basis_vector_2'> +4.7620353e-06 </wgt>
<wgt id='morphing_basis_vector_3'> +7.6250013e-06 </wgt>
<wgt id='morphing_basis_vector_4'> +5.4083378e-06 </wgt>
<wgt id='morphing_basis_vector_5'> +8.7255162e-06 </wgt>
</rwgt>
</event>
<event>
 4      1 +7.6845000e-11 5.24552700e+03 7.81860800e-03 7.35182400e-02
        2 -1    0    0  501    0 +0.0000000000e+00 +0.0000000000e+00 +3.2762399614e+03 3.2762399614e+03 0.0000000000e+00 0.0000e+00 -1.0000e+00
       -2 -1    0    0    0  501 -0.0000000000e+00 -0.0000000000e+00 -2.0996290108e+03 2.0996290108e+03 0.0000000000e+00 0.0000e+00 1.0000e+00
      -13  1    1    2    0    0 +2.1815583316e+03 -1.4311678899e+03 +8.6224911893e+02 2.7478922516e+03 0.0000000000e+00 0.0000e+00 1.0000e+00
       13  1    1    2    0    0 -2.1815583316e+03 +1.4311678899e+03 +3.1436183165e+02 2.6279767207e+03 0.0000000000e+00 0.0000e+00 -1.0000e+00
<mgrwt>
<rscale>  0 0.52455270E+04</rscale>
<asrwt>0</asrwt>
<pdfrwt beam="1">  1        2 0.50403692E+00 0.52455270E+04</pdfrwt>
<pdfrwt beam="2">  1       -2 0.32301985E+00 0.52455270E+04</pdfrwt>
<totfact> 0.16499099E-02</totfact>
</mgrwt>
<rwgt>
<wgt id='morphing_basis_vector_1'> +8.2881219e-06 </wgt>
<wgt id='morphing_basis_vector_2'> +6.5676587e-06 </wgt>
<wgt id='morphing_basis_vector_3'> +9.3521186e-06 </wgt>
<wgt id='morphing_basis_vector_4'> +5.3907506e-06 </wgt>
<wgt id='morphing_basis_vector_5'> +9.9334235e-06 </wgt>
</rwgt>
</event>
<event>
 4      1 +7.6845000e-11 4.83441100e+03 7.81860800e-03 7.40772100e-02
        2 -1    0    0  501    0 +0.0000000000e+00 +0.0000000000e+00 +3.2768790834e+03 3.2768790834e+03 0.0000000000e+00 0.0000e+00 1.0000e+00
       -2 -1    0    0    0  501 -0.0000000000e+00 -0.0000000000e+00 -1.7830634046e+03 1.7830634046e+03 0.0000000000e+00 0.0000e+00 -1.0000e+00
      -13  1    1    2    0    0 +9.5640837063e+02 -2.1153048496e+03 +4.1949901096e+01 2.3218508506e+03 0.0000000000e+00 0.0000e+00 -1.0000e+00
       13  1    1    2    0    0 -9.5640837063e+02 +2.1153048496e+03 +1.4518657777e+03 2.7380916374e+03 0.0000000000e+00 0.0000e+00 1.0000e+00
<mgrwt>
<rscale>  0 0.48344113E+04</rscale>
<asrwt>0</asrwt>
<pdfrwt beam="1">  1        2 0.50413524E+00 0.48344113E+04</pdfrwt>
<pdfrwt beam="2">  1       -2 0.27431745E+00 0.48344113E+04</pdfrwt>
<totfact> 0.36202522E-02</totfact>
</mgrwt>
<rwgt>
<wgt id='morphing_basis_vector_1'> +5.7573432e-06 </wgt>
<wgt id='morphing_basis_vector_2'> +4.0696826e-06 </wgt>
<wgt id='morphing_basis_vector_3'> +6.3761585e-06 </wgt>
<wgt id='morphing_basis_vector_4'> +4.3720733e-06 </wgt>
<wgt id='morphing_basis_vector_5'> +7.2002035e-06 </wgt>
</rwgt>
</event>
<event>
 4      1 +7.6845000e-11 5.22456200e+03 7.81860800e-03 7.35454600e-02
        2 -1    0    0  501    0 +0.0000000000e+00 +0.0000000000e+00 +2.7908810600e+03 2.7908810600e+03 0.0000000000e+00 0.0000e+00 -1.0000e+00
       -2 -1    0    0    0  501 -0.0000000000e+00 -0.0000000000e+00 -2.4451107169e+03 2.4451107169e+03 0.0000000000e+00 0.0000e+00 1.0000e+00
      -13  1    1    2    0    0 +1.0718107278e+03 +1.8309592953e+03 -1.3545299694e+03 2.5171296381e+03 0.0000000000e+00 0.0000e+00 1.0000e+00
       13  1    1    2    0    0 -1.0718107278e+03 -1.8309592953e+03 +1.7003003125e+03 2.7188621388e+03 0.0000000000e+00 0.0000e+00 -1.0000e+00
<mgrwt>
<rscale>  0 0.52245624E+04</rscale>
<asrwt>0</asrwt>
<pdfrwt beam="1">  1        2 0.42936632E+00 0.52245624E+04</pdfrwt>
<pdfrwt beam="2">  1       -2 0.37617088E+00 0.52245624E+04</pdfrwt>
<totfact> 0.15558255E-02</totfact>
</mgrwt>
<rwgt>
<wgt id='morphing_basis_vector_1'> +7.7696847e-06 </wgt>
<wgt id='morphing_basis_vector_2'> +5.3267722e-06 </wgt>
<wgt id='morphing_basis_vector_3'> +8.5741676e-06 </wgt>
<wgt id='morphing_basis_vector_4'> +6.1305828e-06 </wgt>
<wgt id='morphing_basis_vector_5'> +9.8444104e-06 </wgt>
</rwgt>
</event>
<event>
 4      1 +7.6845000e-11 4.75725700e+03 7.81860800e-03 7.41883900e-02
        2 -1    0    0  501    0 +0.0000000000e+00 +0.0000000000e+00 +2.3803640685e+03 2.3803640685e+03 0.0000000000e+00 0.0000e+00 -1.0000e+00
       -2 -1    0    0    0  501 -0.0000000000e+00 -0.0000000000e+00 -2.3768944606e+03 2.3768944606e+03 0.0000000000e+00 0.0000e+00 1.0000e+00
      -13  1    1    2    0    0 +1.1976643344e+03 +2.0115274872e+03 +4.2272360814e+02 2.3789363040e+03 0.0000000000e+00 0.0000e+00 1.0000e+00
       13  1    1    2    0    0 -1.1976643344e+03 -2.0115274872e+03 -4.1925400027e+02 2.3783222251e+03 0.0000000000e+00 0.0000e+00 -1.0000e+00
<mgrwt>
<rscale>  0 0.47572573E+04</rscale>
<asrwt>0</asrwt>
<pdfrwt beam="1">  1        2 0.36620986E+00 0.47572573E+04</pdfrwt>
<pdfrwt beam="2">  1       -2 0.36567607E+00 0.47572573E+04</pdfrwt>
<totfact> 0.33392094E-02</totfact>
</mgrwt>
<rwgt>
<wgt id='morphing_basis_vector_1'> +5.6964358e-06 </wgt>
<wgt id='morphing_basis_vector_2'> +4.6878230e-06 </wgt>
<wgt id='morphing_basis_vector_3'> +6.4592457e-06 </wgt>
<wgt id='morphing_basis_vector_4'> +3.4674177e-06 </wgt>
<wgt id='morphing_basis_vector_5'> +6.6970946e-06 </wgt>
</rwgt>
</event>
<event>
 4      1 +7.6845000e-11 4.71160400e+03 7.81860800e-03 7.42551800e-02
        2 -1    0    0  501    0 +0.0000000000e+00 +0.0000000000e+00 +2.8260531075e+03 2.8260531075e+03 0.0000000000e+00 0.0000e+00 -1.0000e+00
       -2 -1    0    0    0  501 -0.0000000000e+00 -0.0000000000e+00 -1.9638000520e+03 1.9638000520e+03 0.0000000000e+00 0.0000e+00 1.0000e+00
      -13  1    1    2    0    0 -1.6171602964e+03 -6.2267764667e+02 -1.1912687005e+03 2.1028685153e+03 0.0000000000e+00 0.0000e+00 1.0000e+00
       13  1    1    2    0    0 +1.6171602964e+03 +6.2267764667e+02 +2.0535217560e+03 2.6869846442e+03 0.0000000000e+00 0.0000e+00 -1.0000e+00
<mgrwt>
<rscale>  0 0.47116041E+04</rscale>
<asrwt>0</asrwt>
<pdfrwt beam="1">  1        2 0.43477740E+00 0.47116041E+04</pdfrwt>
<pdfrwt beam="2">  1       -2 0.30212308E+00 0.47116041E+04</pdfrwt>
<totfact> 0.46995311E-02</totfact>
</mgrwt>
<rwgt>
<wgt id='morphing_basis_vector_1'> +5.1394275e-06 </wgt>
<wgt id='morphing_basis_vector_2'> +3.5055519e-06 </wgt>
<wgt id='morphing_basis_vector_3'> +5.6607404e-06 </wgt>
<wgt id='morphing_basis_vector_4'> +4.0638084e-06 </wgt>
<wgt id='morphing_basis_vector_5'> +6.5037785e-06 </wgt>
</rwgt>
</event>
<event>
 4      1 +7.6845000e-11 4.98589300e+03 7.81860800e-03 7.38648700e-02
        2 -1    0    0  501    0 +0.0000000000e+00 +0.0000000000e+00 +2.7681840180e+03 2.7681840180e+03 0.0000000000e+00 0.0000e+00 1.0000e+00
       -2 -1    0    0    0  501 -0.0000000000e+00 -0.0000000000e+00 -2.2450755404e+03 2.2450755404e+03 0.0000000000e+00 0.0000e+00 -1.0000e+00
      -13  1    1    2    0    0 -2.1063145293e+03 -1.2971595689e+03 -4.9332730023e+01 2.4741902841e+03 0.0000000000e+00 0.0000e+00 -1.0000e+00
       13  1    1    2    0    0 +2.1063145293e+03 +1.2971595689e+03 +5.7244120764e+02 2.5390692743e+03 0.0000000000e+00 0.0000e+00 1.0000e+00
<mgrwt>
<rscale>  0 0.49858930E+04</rscale>
<asrwt>0</asrwt>
<pdfrwt beam="1">  1        2 0.42587446E+00 0.49858930E+04</pdfrwt>
<pdfrwt beam="2">  1       -2 0.34539624E+00 0.49858930E+04</pdfrwt>
<totfact> 0.25851243E-02</totfact>
</mgrwt>
<rwgt>
<wgt id='morphing_basis_vector_1'> +6.5796194e-06 </wgt>
<wgt id='morphing_basis_vector_2'> +4.8053862e-06 </wgt>
<wgt id='morphing_basis_vector_3'> +7.3251972e-06 </wgt>
<wgt id='morphing_basis_vector_4'> +4.8017682e-06 </wgt>
<wgt id='morphing_basis_vector_5'> +8.1369727e-06 </wgt>
</rwgt>
</event>
<event>
 4      1 +7.6845000e-11 4.70903600e+03 7.81860800e-03 7.42589600e-02
        2 -1    0    0  501    0 +0.0000000000e+00 +0.0000000000e+00 +3.1526683800e+03 3.1526683800e+03 0.0000000000e+00 0.0000e+00 -1.0000e+00
       -2 -1    0    0    0  501 -0.0000000000e+00 -0.0000000000e+00 -1.7584326276e+03 1.7584326276e+03 0.0000000000e+00 0.0000e+00 1.0000e+00
      -13  1    1    2    0    0 +1.0914152773e+03 -2.0584694772e+03 +3.4303332578e+02 2.3550277618e+03 0.0000000000e+00 0.0000e+00 1.0000e+00
       13  1    1    2    0    0 -1.0914152773e+03 +2.0584694772e+03 +1.0512024266e+03 2.5560732458e+03 0.0000000000e+00 0.0000e+00 -1.0000e+00
<mgrwt>
<rscale>  0 0.47090360E+04</rscale>
<asrwt>0</asrwt>
<pdfrwt beam="1">  1        2 0.48502590E+00 0.47090360E+04</pdfrwt>
<pdfrwt beam="2">  1       -2 0.27052810E+00 0.47090360E+04</pdfrwt>
<totfact> 0.47181051E-02</totfact>
</mgrwt>
<rwgt>
<wgt id='morphing_basis_vector_1'> +5.2308085e-06 </wgt>
<wgt id='morphing_basis_vector_2'> +3.7991027e-06 </wgt>
<wgt id='morphing_basis_vector_3'> +5.8143818e-06 </wgt>
<wgt id='morphing_basis_vector_4'> +3.8368135e-06 </wgt>
<wgt id='morphing_basis_vector_5'> +6.4713007e-06 </wgt>
</rwgt>
</event>
<event>
 4      1 +7.6845000e-11 4.88056000e+03 7.81860800e-03 7.40117000e-02
        2 -1    0    0  501    0 +0.0000000000e+00 +0.0000000000e+00 +2.2698737404e+03 2.2698737404e+03 0.0000000000e+00 0.0000e+00 1.0000e+00
       -2 -1    0    0    0  501 -0.0000000000e+00 -0.0000000000e+00 -2.6234795740e+03 2.6234795740e+03 0.0000000000e+00 0.0000e+00 -1.0000e+00
      -13  1    1    2    0    0 +2.3969733728e+01 -2.1906961349e+03 +9.0083685677e+02 2.3688037373e+03 0.0000000000e+00 0.0000e+00 -1.0000e+00
       13  1    1    2    0    0 -2.3969733728e+01 +2.1906961349e+03 -1.2544426903e+03 2.5245495770e+03 0.0000000000e+00 0.0000e+00 1.0000e+00
<mgrwt>
<rscale>  0 0.48805604E+04</rscale>
<asrwt>0</asrwt>
<pdfrwt beam="1">  1        2 0.34921134E+00 0.48805604E+04</pdfrwt>
<pdfrwt beam="2">  1       -2 0.40361225E+00 0.48805604E+04</pdfrwt>
<totfact> 0.21787472E-02</totfact>
</mgrwt>
<rwgt>
<wgt id='morphing_basis_vector_1'> +6.8297183e-06 </wgt>
<wgt id='morphing_basis_vector_2'> +6.7239179e-06 </wgt>
<wgt id='morphing_basis_vector_3'> +8.0013930e-06 </wgt>
<wgt id='morphing_basis_vector_4'> +2.7317209e-06 </wgt>
<wgt id='morphing_basis_vector_5'> +7.3283742e-06 </wgt>
</rwgt>
</event>
<event>
 4      1 +7.6845000e-11 5.20301500e+03 7.81860800e-03 7.35735700e-02
        2 -1    0    0  501    0 +0.0000000000e+00 +0.0000000000e+00 +3.0575419560e+03 3.0575419560e+03 0.0000000000e+00 0.0000e+00 -1.0000e+00
       -2 -1    0    0    0  501 -0.0000000000e+00 -0.0000000000e+00 -2.2134911619e+03 2.2134911619e+03 0.0000000000e+00 0.0000e+00 1.0000e+00
      -13  1    1    2    0    0 +3.8767036583e+01 +2.4355845668e+03 +1.3473480221e+03 2.7836885167e+03 0.0000000000e+00 0.0000e+00 -1.0000e+00
       13  1    1    2    0    0 -3.8767036583e+01 -2.4355845668e+03 -5.0329722796e+02 2.4873446012e+03 0.0000000000e+00 0.0000e+00 1.0000e+00
<mgrwt>
<rscale>  0 0.52030153E+04</rscale>
<asrwt>0</asrwt>
<pdfrwt beam="1">  1        2 0.47039107E+00 0.52030153E+04</pdfrwt>
<pdfrwt beam="2">  1       -2 0.34053710E+00 0.52030153E+04</pdfrwt>
<totfact> 0.17839423E-02</totfact>
</mgrwt>
<rwgt>
<wgt id='morphing_basis_vector_1'> +8.5351305e-06 </wgt>
<wgt id='morphing_basis_vector_2'> +7.8600374e-06 </wgt>
<wgt id='morphing_basis_vector_3'> +9.8841410e-06 </wgt>
<wgt id='morphing_basis_vector_4'> +4.1263725e-06 </wgt>
<wgt id='morphing_basis_vector_5'> +9.5228446e-06 </wgt>
</rwgt>
</event>
<event>
 4      1 +7.6845000e-11 4.71282400e+03 7.81860800e-03 7.42533900e-02
        2 -1    0    0  501    0 +0.0000000000e+00 +0.0000000000e+00 +2.6168114954e+03 2.6168114954e+03 0.0000000000e+00 0.0000e+00 -1.0000e+00
       -2 -1    0    0    0  501 -0.0000000000e+00 -0.0000000000e+00 -2.1219248935e+03 2.1219248935e+03 0.0000000000e+00 0.0000e+00 1.0000e+00
      -13  1    1    2    0    0 +1.8688698743e+03 +1.3658589538e+03 -1.9592576333e+02 2.3230652581e+03 0.0000000000e+00 0.0000e+00 1.0000e+00
       13  1    1    2    0    0 -1.8688698743e+03 -1.3658589538e+03 +6.9081236520e+02 2.4156711309e+03 0.0000000000e+00 0.0000e+00 -1.0000e+00
<mgrwt>
<rscale>  0 0.47128240E+04</rscale>
<asrwt>0</asrwt>
<pdfrwt beam="1">  1        2 0.40258638E+00 0.47128240E+04</pdfrwt>
<pdfrwt beam="2">  1       -2 0.32644998E+00 0.47128240E+04</pdfrwt>
<totfact> 0.43578854E-02</totfact>
</mgrwt>
<rwgt>
<wgt id='morphing_basis_vector_1'> +5.2305741e-06 </wgt>
<wgt id='morphing_basis_vector_2'> +3.7613188e-06 </wgt>
<wgt id='morphing_basis_vector_3'> +5.8055572e-06 </wgt>
<wgt id='morphing_basis_vector_4'> +3.8854291e-06 </wgt>
<wgt id='morphing_basis_vector_5'> +6.4952540e-06 </wgt>
</rwgt>
</event>
<event>
 4      1 +7.6845000e-11 4.67773800e+03 7.81860800e-03 7.43052200e-02
        2 -1    0    0  501    0 +0.0000000000e+00 +0.0000000000e+00 +2.5829241338e+03 2.5829241338e+03 0.0000000000e+00 0.0000e+00 -1.0000e+00
       -2 -1    0    0    0  501 -0.0000000000e+00 -0.0000000000e+00 -2.1178740749e+03 2.1178740749e+03 0.0000000000e+00 0.0000e+00 1.0000e+00
      -13  1    1    2    0    0 +8.4713614692e+02 -1.9928280025e+03 -6.5574705107e+02 2.2625223300e+03 0.0000000000e+00 0.0000e+00 1.0000e+00
       13  1    1    2    0    0 -8.4713614692e+02 +1.9928280025e+03 +1.1207971099e+03 2.4382758787e+03 0.0000000000e+00 0.0000e+00 -1.0000e+00
<mgrwt>
<rscale>  0 0.46777379E+04</rscale>
<asrwt>0</asrwt>
<pdfrwt beam="1">  1        2 0.39737294E+00 0.46777379E+04</pdfrwt>
<pdfrwt beam="2">  1       -2 0.32582678E+00 0.46777379E+04</pdfrwt>
<totfact> 0.46253236E-02</totfact>
</mgrwt>
<rwgt>
<wgt id='morphing_basis_vector_1'> +5.0268899e-06 </wgt>
<wgt id='morphing_basis_vector_2'> +3.5032314e-06 </wgt>
<wgt id='morphing_basis_vector_3'> +5.5533397e-06 </wgt>
<wgt id='morphing_basis_vector_4'> +3.8774159e-06 </wgt>
<wgt id='morphing_basis_vector_5'> +6.3122442e-06 </wgt>
</rwgt>
</event>
<event>
 4      1 +7.6845000e-11 5.16147700e+03 7.81860800e-03 7.36281600e-02
        2 -1    0    0  501    0 +0.0000000000e+00 +0.0000000000e+00 +3.9475338870e+03 3.9475338870e+03 0.0000000000e+00 0.0000e+00 -1.0000e+00
       -2 -1    0    0    0  501 -0.0000000000e+00 -0.0000000000e+00 -1.6871829973e+03 1.6871829973e+03 0.0000000000e+00 0.0000e+00 1.0000e+00
      -13  1    1    2    0    0 +8.3693792347e+02 -2.3904574165e+03 +5.8931065183e+02 2.6003920459e+03 0.0000000000e+00 0.0000e+00 1.0000e+00
       13  1    1    2    0    0 -8.3693792347e+02 +2.3904574165e+03 +1.6710402379e+03 3.0343248384e+03 0.0000000000e+00 0.0000e+00 -1.0000e+00
<mgrwt>
<rscale>  0 0.51614773E+04</rscale>
<asrwt>0</asrwt>
<pdfrwt beam="1">  1        2 0.60731290E+00 0.51614773E+04</pdfrwt>
<pdfrwt beam="2">  1       -2 0.25956662E+00 0.51614773E+04</pdfrwt>
<totfact> 0.13788185E-02</totfact>
</mgrwt>
<rwgt>
<wgt id='morphing_basis_vector_1'> +7.5134737e-06 </wgt>
<wgt id='morphing_basis_vector_2'> +5.4009955e-06 </wgt>
<wgt id='morphing_basis_vector_3'> +8.3482662e-06 </wgt>
<wgt id='morphing_basis_vector_4'> +5.6018285e-06 </wgt>
<wgt id='morphing_basis_vector_5'> +9.3562459e-06 </wgt>
</rwgt>
</event>
<event>
 4      1 +7.6845000e-11 4.76755800e+03 7.81860800e-03 7.41734300e-02
        2 -1    0    0  501    0 +0.0000000000e+00 +0.0000000000e+00 +2.7679664300e+03 2.7679664300e+03 0.0000000000e+00 0.0000e+00 -1.0000e+00
       -2 -1    0    0    0  501 -0.0000000000e+00 -0.0000000000e+00 -2.0529155359e+03 2.0529155359e+03 0.0000000000e+00 0.0000e+00 1.0000e+00
      -13  1    1    2    0    0 -1.5032596390e+03 -1.2673772692e+03 -1.0052751233e+03 2.2083054042e+03 0.0000000000e+00 0.0000e+00 1.0000e+00
       13  1    1    2    0    0 +1.5032596390e+03 +1.2673772692e+03 +1.7203260174e+03 2.6125765617e+03 0.0000000000e+00 0.0000e+00 -1.0000e+00
<mgrwt>
<rscale>  0 0.47675576E+04</rscale>
<asrwt>0</asrwt>
<pdfrwt beam="1">  1        2 0.42584099E+00 0.47675576E+04</pdfrwt>
<pdfrwt beam="2">  1       -2 0.31583316E+00 0.47675576E+04</pdfrwt>
<totfact> 0.41189381E-02</totfact>
</mgrwt>
<rwgt>
<wgt id='morphing_basis_vector_1'> +5.3957227e-06 </wgt>
<wgt id='morphing_basis_vector_2'> +3.7003807e-06 </wgt>
<wgt id='morphing_basis_vector_3'> +5.9485035e-06 </wgt>
<wgt id='morphing_basis_vector_4'> +4.2424861e-06 </wgt>
<wgt id='morphing_basis_vector_5'> +6.8178581e-06 </wgt>
</rwgt>
</event>
<event>
 4      1 +7.6845000e-11 5.05646700e+03 7.81860800e-03 7.37685400e-02
        2 -1    0    0  501    0 +0.0000000000e+00 +0.0000000000e+00 +2.7105356842e+03 2.7105356842e+03 0.0000000000e+00 0.0000e+00 -1.0000e+00
       -2 -1    0    0    0  501 -0.0000000000e+00 -0.0000000000e+00 -2.3581922690e+03 2.3581922690e+03 0.0000000000e+00 0.0000e+00 1.0000e+00
      -13  1    1    2    0    0 +9.7424288297e+02 +9.7735845156e+02 -1.9473572495e+03 2.3867507190e+03 0.0000000000e+00 0.0000e+00 1.0000e+00
       13  1    1    2    0    0 -9.7424288297e+02 -9.7735845156e+02 +2.2997006646e+03 2.6819772342e+03 0.0000000000e+00 0.0000e+00 -1.0000e+00
<mgrwt>
<rscale>  0 0.50564669E+04</rscale>
<asrwt>0</asrwt>
<pdfrwt beam="1">  1        2 0.41700549E+00 0.50564669E+04</pdfrwt>
<pdfrwt beam="2">  1       -2 0.36279881E+00 0.50564669E+04</pdfrwt>
<totfact> 0.21553684E-02</totfact>
</mgrwt>
<rwgt>
<wgt id='morphing_basis_vector_1'> +6.8028309e-06 </wgt>
<wgt id='morphing_basis_vector_2'> +4.6246682e-06 </wgt>
<wgt id='morphing_basis_vector_3'> +7.4955163e-06 </wgt>
<wgt id='morphing_basis_vector_4'> +5.4128850e-06 </wgt>
<wgt id='morphing_basis_vector_5'> +8.6369509e-06 </wgt>
</rwgt>
</event>
<event>
 4      1 +7.6845000e-11 4.94601700e+03 7.81860800e-03 7.39200200e-02
        2 -1    0    0  501    0 +0.0000000000e+00 +0.0000000000e+00 +2.3560352019e+03 2.3560352019e+03 0.0000000000e+00 0.0000e+00 -1.0000e+00
       -2 -1    0    0    0  501 -0.0000000000e+00 -0.0000000000e+00 -2.5957890997e+03 2.5957890997e+03 0.0000000000e+00 0.0000e+00 1.0000e+00
      -13  1    1    2    0    0 -8.3593601968e+02 -2.3121042240e+03 +1.4718619230e+02 2.4629816781e+03 0.0000000000e+00 0.0000e+00 1.0000e+00
       13  1    1    2    0    0 +8.3593601968e+02 +2.3121042240e+03 -3.8694009006e+02 2.4888426235e+03 0.0000000000e+00 0.0000e+00 -1.0000e+00
<mgrwt>
<rscale>  0 0.49460168E+04</rscale>
<asrwt>0</asrwt>
<pdfrwt beam="1">  1        2 0.36246696E+00 0.49460168E+04</pdfrwt>
<pdfrwt beam="2">  1       -2 0.39935217E+00 0.49460168E+04</pdfrwt>
<totfact> 0.20595874E-02</totfact>
</mgrwt>
<rwgt>
<wgt id='morphing_basis_vector_1'> +6.5628952e-06 </wgt>
<wgt id='morphing_basis_vector_2'> +5.2133928e-06 </wgt>
<wgt id='morphing_basis_vector_3'> +7.4027774e-06 </wgt>
<wgt id='morphing_basis_vector_4'> +4.2435836e-06 </wgt>
<wgt id='morphing_basis_vector_5'> +7.8449362e-06 </wgt>
</rwgt>
</event>
<event>
 4      1 +7.6845000e-11 4.84219600e+03 7.81860800e-03 7.40661100e-02
        2 -1    0    0  501    0 +0.0000000000e+00 +0.0000000000e+00 +2.6902418528e+03 2.6902418528e+03 0.0000000000e+00 0.0000e+00 1.0000e+00
       -2 -1    0    0    0  501 -0.0000000000e+00 -0.0000000000e+00 -2.1788804954e+03 2.1788804954e+03 0.0000000000e+00 0.0000e+00 -1.0000e+00
      -13  1    1    2    0    0 -2.2305099790e+03 +3.4305192479e+02 +1.1374010178e+03 2.5271605539e+03 0.0000000000e+00 0.0000e+00 -1.0000e+00
       13  1    1    2    0    0 +2.2305099790e+03 -3.4305192479e+02 -6.2603966044e+02 2.3419617943e+03 0.0000000000e+00 0.0000e+00 1.0000e+00
<mgrwt>
<rscale>  0 0.48421960E+04</rscale>
<asrwt>0</asrwt>
<pdfrwt beam="1">  1        2 0.41388336E+00 0.48421960E+04</pdfrwt>
<pdfrwt beam="2">  1       -2 0.33521238E+00 0.48421960E+04</pdfrwt>
<totfact> 0.34058907E-02</totfact>
</mgrwt>
<rwgt>
<wgt id='morphing_basis_vector_1'> +6.4323155e-06 </wgt>
<wgt id='morphing_basis_vector_2'> +5.9695119e-06 </wgt>
<wgt id='morphing_basis_vector_3'> +7.4511897e-06 </wgt>
<wgt id='morphing_basis_vector_4'> +3.0423311e-06 </wgt>
<wgt id='morphing_basis_vector_5'> +7.1330843e-06 </wgt>
</rwgt>
</event>
<event>
 4      1 +7.6845000e-11 4.97432000e+03 7.81860800e-03 7.38808200e-02
        2 -1    0    0  501    0 +0.0000000000e+00 +0.0000000000e+00 +2.7628215861e+03 2.7628215861e+03 0.0000000000e+00 0.0000e+00 1.0000e+00
       -2 -1    0    0    0  501 -0.0000000000e+00 -0.0000000000e+00 -2.2390024502e+03 2.2390024502e+03 0.0000000000e+00 0.0000e+00 -1.0000e+00
      -13  1    1    2    0    0 -5.8950561381e+01 -2.2481177780e+03 -8.0625199144e+02 2.3890481339e+03 0.0000000000e+00 0.0000e+00 -1.0000e+00
       13  1    1    2    0    0 +5.8950561381e+01 +2.2481177780e+03 +1.3300711273e+03 2.6127759024e+03 0.0000000000e+00 0.0000e+00 1.0000e+00
<mgrwt>
<rscale>  0 0.49743198E+04</rscale>
<asrwt>0</asrwt>
<pdfrwt beam="1">  1        2 0.42504947E+00 0.49743198E+04</pdfrwt>
<pdfrwt beam="2">  1       -2 0.34446192E+00 0.49743198E+04</pdfrwt>
<totfact> 0.26441995E-02</totfact>
</mgrwt>
<rwgt>
<wgt id='morphing_basis_vector_1'> +6.4119726e-06 </wgt>
<wgt id='morphing_basis_vector_2'> +4.4468538e-06 </wgt>
<wgt id='morphing_basis_vector_3'> +7.0838633e-06 </wgt>
<wgt id='morphing_basis_vector_4'> +4.9850905e-06 </wgt>
<wgt id='morphing_basis_vector_5'> +8.0805493e-06 </wgt>
</rwgt>
</event>
<event>
 4      1 +7.6845000e-11 4.75395900e+03 7.81860800e-03 7.41931900e-02
        2 -1    0    0  501    0 +0.0000000000e+00 +0.0000000000e+00 +1.0775606637e+03 1.0775606637e+03 0.0000000000e+00 0.0000e+00 1.0000e+00
       -2 -1    0    0    0  501 -0.0000000000e+00 -0.0000000000e+00 -5.2433535009e+03 5.2433535009e+03 0.0000000000e+00 0.0000e+00 -1.0000e+00
      -13  1    1    2    0    0 +1.8996519995e+03 +9.5590192210e+02 -3.4947934102e+03 4.0909665342e+03 0.0000000000e+00 0.0000e+00 -1.0000e+00
       13  1    1    2    0    0 -1.8996519995e+03 -9.5590192210e+02 -6.7099942700e+02 2.2299476305e+03 0.0000000000e+00 0.0000e+00 1.0000e+00
<mgrwt>
<rscale>  0 0.47539590E+04</rscale>
<asrwt>0</asrwt>
<pdfrwt beam="1">  1        2 0.16577857E+00 0.47539590E+04</pdfrwt>
<pdfrwt beam="2">  1       -2 0.80666976E+00 0.47539590E+04</pdfrwt>
<totfact> 0.19050706E-03</totfact>
</mgrwt>
<rwgt>
<wgt id='morphing_basis_vector_1'> +5.3493080e-06 </wgt>
<wgt id='morphing_basis_vector_2'> +3.7014711e-06 </wgt>
<wgt id='morphing_basis_vector_3'> +5.9046836e-06 </wgt>
<wgt id='morphing_basis_vector_4'> +4.1629262e-06 </wgt>
<wgt id='morphing_basis_vector_5'> +6.7375218e-06 </wgt>
</rwgt>
</event>
<event>
 4      1 +7.6845000e-11 4.85029600e+03 7.81860800e-03 7.40545800e-02
        2 -1    0    0  501    0 +0.0000000000e+00 +0.0000000000e+00 +4.3096477083e+03 4.3096477083e+03 0.0000000000e+00 0.0000e+00 -1.0000e+00
       -2 -1    0    0    0  501 -0.0000000000e+00 -0.0000000000e+00 -1.3646922047e+03 1.3646922047e+03 0.0000000000e+00 0.0000e+00 1.0000e+00
      -13  1    1    2    0    0 -1.6513543750e+03 +1.5515320691e+03 +2.4836896631e+03 3.3619841427e+03 0.0000000000e+00 0.0000e+00 1.0000e+00
       13  1    1    2    0    0 +1.6513543750e+03 -1.5515320691e+03 +4.6126584048e+02 2.3123557704e+03 0.0000000000e+00 0.0000e+00 -1.0000e+00
<mgrwt>
<rscale>  0 0.48502959E+04</rscale>
<asrwt>0</asrwt>
<pdfrwt beam="1">  1        2 0.66302272E+00 0.48502959E+04</pdfrwt>
<pdfrwt beam="2">  1       -2 0.20995265E+00 0.48502959E+04</pdfrwt>
<totfact> 0.14928808E-02</totfact>
</mgrwt>
<rwgt>
<wgt id='morphing_basis_vector_1'> +6.4628030e-06 </wgt>
<wgt id='morphing_basis_vector_2'> +5.9727204e-06 </wgt>
<wgt id='morphing_basis_vector_3'> +7.4809443e-06 </wgt>
<wgt id='morphing_basis_vector_4'> +3.0894356e-06 </wgt>
<wgt id='morphing_basis_vector_5'> +7.1833206e-06 </wgt>
</rwgt>
</event>
<event>
 4      1 +7.6845000e-11 4.66468100e+03 7.81860800e-03 7.43246300e-02
        2 -1    0    0  501    0 +0.0000000000e+00 +0.0000000000e+00 +2.4474025663e+03 2.4474025663e+03 0.0000000000e+00 0.0000e+00 -1.0000e+00
       -2 -1    0    0    0  501 -0.0000000000e+00 -0.0000000000e+00 -2.2226877976e+03 2.2226877976e+03 0.0000000000e+00 0.0000e+00 1.0000e+00
      -13  1    1    2    0    0 +1.5086370958e+03 -1.4253635072e+03 -9.5290888400e+02 2.2837868455e+03 0.0000000000e+00 0.0000e+00 1.0000e+00
       13  1    1    2    0    0 -1.5086370958e+03 +1.4253635072e+03 +1.1776236528e+03 2.3863035184e+03 0.0000000000e+00 0.0000e+00 -1.0000e+00
<mgrwt>
<rscale>  0 0.46646808E+04</rscale>
<asrwt>0</asrwt>
<pdfrwt beam="1">  1        2 0.37652347E+00 0.46646808E+04</pdfrwt>
<pdfrwt beam="2">  1       -2 0.34195197E+00 0.46646808E+04</pdfrwt>
<totfact> 0.43714696E-02</totfact>
</mgrwt>
<rwgt>
<wgt id='morphing_basis_vector_1'> +4.9587166e-06 </wgt>
<wgt id='morphing_basis_vector_2'> +3.4276531e-06 </wgt>
<wgt id='morphing_basis_vector_3'> +5.4713951e-06 </wgt>
<wgt id='morphing_basis_vector_4'> +3.8607136e-06 </wgt>
<wgt id='morphing_basis_vector_5'> +6.2440304e-06 </wgt>
</rwgt>
</event>
<event>
 4      1 +7.6845000e-11 4.68102500e+03 7.81860800e-03 7.43003500e-02
        2 -1    0    0  501    0 +0.0000000000e+00 +0.0000000000e+00 +1.9917200483e+03 1.9917200483e+03 0.0000000000e+00 0.0000e+00 -1.0000e+00
       -2 -1    0    0    0  501 -0.0000000000e+00 -0.0000000000e+00 -2.7503857225e+03 2.7503857225e+03 0.0000000000e+00 0.0000e+00 1.0000e+00
      -13  1    1    2    0    0 -3.5673772214e+02 -6.2619434536e+02 +1.8765190581e+03 2.0101504759e+03 0.0000000000e+00 0.0000e+00 -1.0000e+00
       13  1    1    2    0    0 +3.5673772214e+02 +6.2619434536e+02 -2.6351847322e+03 2.7319552949e+03 0.0000000000e+00 0.0000e+00 1.0000e+00
<mgrwt>
<rscale>  0 0.46810248E+04</rscale>
<asrwt>0</asrwt>
<pdfrwt beam="1">  1        2 0.30641847E+00 0.46810248E+04</pdfrwt>
<pdfrwt beam="2">  1       -2 0.42313627E+00 0.46810248E+04</pdfrwt>
<totfact> 0.23673941E-02</totfact>
</mgrwt>
<rwgt>
<wgt id='morphing_basis_vector_1'> +6.8448111e-06 </wgt>
<wgt id='morphing_basis_vector_2'> +8.8115526e-06 </wgt>
<wgt id='morphing_basis_vector_3'> +8.4879516e-06 </wgt>
<wgt id='morphing_basis_vector_4'> +5.1974032e-08 </wgt>
<wgt id='morphing_basis_vector_5'> +6.0089563e-06 </wgt>
</rwgt>
</event>
<event>
 4      1 +7.6845000e-11 4.90890400e+03 7.81860800e-03 7.39718300e-02
        2 -1    0    0  501    0 +0.0000000000e+00 +0.0000000000e+00 +2.7040871763e+03 2.7040871763e+03 0.0000000000e+00 0.0000e+00 1.0000e+00
       -2 -1    0    0    0  501 -0.0000000000e+00 -0.0000000000e+00 -2.2278621859e+03 2.2278621859e+03 0.0000000000e+00 0.0000e+00 -1.0000e+00
      -13  1    1    2    0    0 +1.2202497009e+03 -1.9756698661e+03 +1.0368623511e+03 2.5431013129e+03 0.0000000000e+00 0.0000e+00 1.0000e+00
       13  1    1    2    0    0 -1.2202497009e+03 +1.9756698661e+03 -5.6063736060e+02 2.3888480493e+03 0.0000000000e+00 0.0000e+00 -1.0000e+00
<mgrwt>
<rscale>  0 0.49089036E+04</rscale>
<asrwt>0</asrwt>
<pdfrwt beam="1">  1        2 0.41601341E+00 0.49089036E+04</pdfrwt>
<pdfrwt beam="2">  1       -2 0.34274803E+00 0.49089036E+04</pdfrwt>
<totfact> 0.29653669E-02</totfact>
</mgrwt>
<rwgt>
<wgt id='morphing_basis_vector_1'> +6.7089552e-06 </wgt>
<wgt id='morphing_basis_vector_2'> +6.0580327e-06 </wgt>
<wgt id='morphing_basis_vector_3'> +7.7346563e-06 </wgt>
<wgt id='morphing_basis_vector_4'> +3.3927645e-06 </wgt>
<wgt id='morphing_basis_vector_5'> +7.5506619e-06 </wgt>
</rwgt>
</event>
<event>
 4      1 +7.6845000e-11 5.27249600e+03 7.81860800e-03 7.34834200e-02
        2 -1    0    0  501    0 +0.0000000000e+00 +0.0000000000e+00 +3.9566356898e+03 3.9566356898e+03 0.0000000000e+00 0.0000e+00 -1.0000e+00
       -2 -1    0    0    0  501 -0.0000000000e+00 -0.0000000000e+00 -1.7564928849e+03 1.7564928849e+03 0.0000000000e+00 0.0000e+00 1.0000e+00
      -13  1    1    2    0    0 -9.3852299456e+02 -1.7967701515e+03 -7.2618755568e+02 2.1532665313e+03 0.0000000000e+00 0.0000e+00 1.0000e+00
       13  1    1    2    0    0 +9.3852299456e+02 +1.7967701515e+03 +2.9263303606e+03 3.5598620434e+03 0.0000000000e+00 0.0000e+00 -1.0000e+00
<mgrwt>
<rscale>  0 0.52724956E+04</rscale>
<asrwt>0</asrwt>
<pdfrwt beam="1">  1        2 0.60871318E+00 0.52724956E+04</pdfrwt>
<pdfrwt beam="2">  1       -2 0.27022967E+00 0.52724956E+04</pdfrwt>
<totfact> 0.11351309E-02</totfact>
</mgrwt>
<rwgt>
<wgt id='morphing_basis_vector_1'> +8.0511451e-06 </wgt>
<wgt id='morphing_basis_vector_2'> +5.5049198e-06 </wgt>
<wgt id='morphing_basis_vector_3'> +8.8821600e-06 </wgt>
<wgt id='morphing_basis_vector_4'> +6.3737202e-06 </wgt>
<wgt id='morphing_basis_vector_5'> +1.0212966e-05 </wgt>
</rwgt>
</event>
<event>
 4      1 +7.6845000e-11 4.73672000e+03 7.81860800e-03 7.42183500e-02
        2 -1    0    0  501    0 +0.0000000000e+00 +0.0000000000e+00 +1.6493278354e+03 1.6493278354e+03 0.0000000000e+00 0.0000e+00 -1.0000e+00
       -2 -1    0    0    0  501 -0.0000000000e+00 -0.0000000000e+00 -3.4008572166e+03 3.4008572166e+03 0.0000000000e+00 0.0000e+00 1.0000e+00
      -13  1    1    2    0    0 +3.6903677273e+02 -6.8359287322e+02 -3.2611550375e+03 3.3524050374e+03 0.0000000000e+00 0.0000e+00 1.0000e+00
       13  1    1    2    0    0 -3.6903677273e+02 +6.8359287322e+02 +1.5096256563e+03 1.6977800147e+03 0.0000000000e+00 0.0000e+00 -1.0000e+00
<mgrwt>
<rscale>  0 0.47367197E+04</rscale>
<asrwt>0</asrwt>
<pdfrwt beam="1">  1        2 0.25374275E+00 0.47367197E+04</pdfrwt>
<pdfrwt beam="2">  1       -2 0.52320880E+00 0.47367197E+04</pdfrwt>
<totfact> 0.69410921E-03</totfact>
</mgrwt>
<rwgt>
<wgt id='morphing_basis_vector_1'> +5.2417673e-06 </wgt>
<wgt id='morphing_basis_vector_2'> +3.5581305e-06 </wgt>
<wgt id='morphing_basis_vector_3'> +5.7698923e-06 </wgt>
<wgt id='morphing_basis_vector_4'> +4.1678710e-06 </wgt>
<wgt id='morphing_basis_vector_5'> +6.6454433e-06 </wgt>
</rwgt>
</event>
<event>
 4      1 +7.6845000e-11 5.00167200e+03 7.81860800e-03 7.38431900e-02
        2 -1    0    0  501    0 +0.0000000000e+00 +0.0000000000e+00 +2.8891428574e+03 2.8891428574e+03 0.0000000000e+00 0.0000e+00 -1.0000e+00
       -2 -1    0    0    0  501 -0.0000000000e+00 -0.0000000000e+00 -2.1647188120e+03 2.1647188120e+03 0.0000000000e+00 0.0000e+00 1.0000e+00
      -13  1    1    2    0    0 -7.8615000458e+02 +3.4985001011e+01 -2.0363569633e+03 2.1831182886e+03 0.0000000000e+00 0.0000e+00 1.0000e+00
       13  1    1    2    0    0 +7.8615000458e+02 -3.4985001011e+01 +2.7607810088e+03 2.8707433808e+03 0.0000000000e+00 0.0000e+00 -1.0000e+00
<mgrwt>
<rscale>  0 0.50016725E+04</rscale>
<asrwt>0</asrwt>
<pdfrwt beam="1">  1        2 0.44448352E+00 0.50016725E+04</pdfrwt>
<pdfrwt beam="2">  1       -2 0.33303366E+00 0.50016725E+04</pdfrwt>
<totfact> 0.26096795E-02</totfact>
</mgrwt>
<rwgt>
<wgt id='morphing_basis_vector_1'> +6.5117489e-06 </wgt>
<wgt id='morphing_basis_vector_2'> +4.4221463e-06 </wgt>
<wgt id='morphing_basis_vector_3'> +7.1728627e-06 </wgt>
<wgt id='morphing_basis_vector_4'> +5.1853743e-06 </wgt>
<wgt id='morphing_basis_vector_5'> +8.2678228e-06 </wgt>
</rwgt>
</event>
<event>
 4      1 +7.6845000e-11 5.17801200e+03 7.81860800e-03 7.36063600e-02
        2 -1    0    0  501    0 +0.0000000000e+00 +0.0000000000e+00 +2.3452728037e+03 2.3452728037e+03 0.0000000000e+00 0.0000e+00 -1.0000e+00
       -2 -1    0    0    0  501 -0.0000000000e+00 -0.0000000000e+00 -2.8580693948e+03 2.8580693948e+03 0.0000000000e+00 0.0000e+00 1.0000e+00
      -13  1    1    2    0    0 -1.5855582764e+03 -1.6876402988e+03 -1.4200038728e+03 2.7163460429e+03 0.0000000000e+00 0.0000e+00 1.0000e+00
       13  1    1    2    0    0 +1.5855582764e+03 +1.6876402988e+03 +9.0720728176e+02 2.4869961556e+03 0.0000000000e+00 0.0000e+00 -1.0000e+00
<mgrwt>
<rscale>  0 0.51780121E+04</rscale>
<asrwt>0</asrwt>
<pdfrwt beam="1">  1        2 0.36081120E+00 0.51780121E+04</pdfrwt>
<pdfrwt beam="2">  1       -2 0.43970299E+00 0.51780121E+04</pdfrwt>
<totfact> 0.11060562E-02</totfact>
</mgrwt>
<rwgt>
<wgt id='morphing_basis_vector_1'> +7.5201459e-06 </wgt>
<wgt id='morphing_basis_vector_2'> +5.2068450e-06 </wgt>
<wgt id='morphing_basis_vector_3'> +8.3098729e-06 </wgt>
<wgt id='morphing_basis_vector_4'> +5.8656052e-06 </wgt>
<wgt id='morphing_basis_vector_5'> +9.4931329e-06 </wgt>
</rwgt>
</event>
<event>
 4      1 +7.6845000e-11 4.71791800e+03 7.81860800e-03 7.42459000e-02
        2 -1    0    0  501    0 +0.0000000000e+00 +0.0000000000e+00 +1.9287548081e+03 1.9287548081e+03 0.0000000000e+00 0.0000e+00 -1.0000e+00
       -2 -1    0    0    0  501 -0.0000000000e+00 -0.0000000000e+00 -2.8851187588e+03 2.8851187588e+03 0.0000000000e+00 0.0000e+00 1.0000e+00
      -13  1    1    2    0    0 -5.1519679355e+02 -1.3585128888e+03 -2.3743933017e+03 2.7836538140e+03 0.0000000000e+00 0.0000e+00 1.0000e+00
       13  1    1    2    0    0 +5.1519679355e+02 +1.3585128888e+03 +1.4180293509e+03 2.0302197529e+03 0.0000000000e+00 0.0000e+00 -1.0000e+00
<mgrwt>
<rscale>  0 0.47179176E+04</rscale>
<asrwt>0</asrwt>
<pdfrwt beam="1">  1        2 0.29673151E+00 0.47179176E+04</pdfrwt>
<pdfrwt beam="2">  1       -2 0.44386442E+00 0.47179176E+04</pdfrwt>
<totfact> 0.18540481E-02</totfact>
</mgrwt>
<rwgt>
<wgt id='morphing_basis_vector_1'> +5.1621297e-06 </wgt>
<wgt id='morphing_basis_vector_2'> +3.5102579e-06 </wgt>
<wgt id='morphing_basis_vector_3'> +5.6833686e-06 </wgt>
<wgt id='morphing_basis_vector_4'> +4.0959178e-06 </wgt>
<wgt id='morphing_basis_vector_5'> +6.5396883e-06 </wgt>
</rwgt>
</event>
<event>
 4      1 +7.6845000e-11 4.69478100e+03 7.81860800e-03 7.42799900e-02
        2 -1    0    0  501    0 +0.0000000000e+00 +0.0000000000e+00 +2.6583003646e+03 2.6583003646e+03 0.0000000000e+00 0.0000e+00 1.0000e+00
       -2 -1    0    0    0  501 -0.0000000000e+00 -0.0000000000e+00 -2.0728439274e+03 2.0728439274e+03 0.0000000000e+00 0.0000e+00 -1.0000e+00
      -13  1    1    2    0    0 -1.6811905326e+03 -1.5726392241e+03 -1.6978858124e+02 2.3083379081e+03 0.0000000000e+00 0.0000e+00 -1.0000e+00
       13  1    1    2    0    0 +1.6811905326e+03 +1.5726392241e+03 +7.5524501841e+02 2.4228063839e+03 0.0000000000e+00 0.0000e+00 1.0000e+00
<mgrwt>
<rscale>  0 0.46947808E+04</rscale>
<asrwt>0</asrwt>
<pdfrwt beam="1">  1        2 0.40896929E+00 0.46947808E+04</pdfrwt>
<pdfrwt beam="2">  1       -2 0.31889907E+00 0.46947808E+04</pdfrwt>
<totfact> 0.46197147E-02</totfact>
</mgrwt>
<rwgt>
<wgt id='morphing_basis_vector_1'> +5.1482172e-06 </wgt>
<wgt id='morphing_basis_vector_2'> +3.6953094e-06 </wgt>
<wgt id='morphing_basis_vector_3'> +5.7122958e-06 </wgt>
<wgt id='morphing_basis_vector_4'> +3.8324600e-06 </wgt>
<wgt id='morphing_basis_vector_5'> +6.3965401e-06 </wgt>
</rwgt>
</event>
<event>
 4      1 +7.6845000e-11 4.80761300e+03 7.81860800e-03 7.41155900e-02
        2 -1    0    0  501    0 +0.0000000000e+00 +0.0000000000e+00 +2.8817523879e+03 2.8817523879e+03 0.0000000000e+00 0.0000e+00 1.0000e+00
       -2 -1    0    0    0  501 -0.0000000000e+00 -0.0000000000e+00 -2.0051290202e+03 2.0051290202e+03 0.0000000000e+00 0.0000e+00 -1.0000e+00
      -13  1    1    2    0    0 +2.0621121598e+03 -1.1604457715e+03 +7.8383885209e+00 2.3662211200e+03 0.0000000000e+00 0.0000e+00 -1.0000e+00
       13  1    1    2    0    0 -2.0621121598e+03 +1.1604457715e+03 +8.6878497916e+02 2.5206602881e+03 0.0000000000e+00 0.0000e+00 1.0000e+00
<mgrwt>
<rscale>  0 0.48076129E+04</rscale>
<asrwt>0</asrwt>
<pdfrwt beam="1">  1        2 0.44334652E+00 0.48076129E+04</pdfrwt>
<pdfrwt beam="2">  1       -2 0.30848139E+00 0.48076129E+04</pdfrwt>
<totfact> 0.38978670E-02</totfact>
</mgrwt>
<rwgt>
<wgt id='morphing_basis_vector_1'> +5.6670741e-06 </wgt>
<wgt id='morphing_basis_vector_2'> +4.0857377e-06 </wgt>
<wgt id='morphing_basis_vector_3'> +6.2941102e-06 </wgt>
<wgt id='morphing_basis_vector_4'> +4.1992301e-06 </wgt>
<wgt id='morphing_basis_vector_5'> +7.0349449e-06 </wgt>
</rwgt>
</event>
<event>
 4      1 +7.6845000e-11 4.74101300e+03 7.81860800e-03 7.42120700e-02
        2 -1    0    0  501    0 +0.0000000000e+00 +0.0000000000e+00 +3.1307141875e+03 3.1307141875e+03 0.0000000000e+00 0.0000e+00 1.0000e+00
       -2 -1    0    0    0  501 -0.0000000000e+00 -0.0000000000e+00 -1.7948945351e+03 1.7948945351e+03 0.0000000000e+00 0.0000e+00 -1.0000e+00
      -13  1    1    2    0    0 -5.8875109743e+02 -1.5529143718e+03 -1.0894374736e+03 1.9862137120e+03 0.0000000000e+00 0.0000e+00 -1.0000e+00
       13  1    1    2    0    0 +5.8875109743e+02 +1.5529143718e+03 +2.4252571261e+03 2.9393950106e+03 0.0000000000e+00 0.0000e+00 1.0000e+00
<mgrwt>
<rscale>  0 0.47410133E+04</rscale>
<asrwt>0</asrwt>
<pdfrwt beam="1">  1        2 0.48164834E+00 0.47410133E+04</pdfrwt>
<pdfrwt beam="2">  1       -2 0.27613762E+00 0.47410133E+04</pdfrwt>
<totfact> 0.44578001E-02</totfact>
</mgrwt>
<rwgt>
<wgt id='morphing_basis_vector_1'> +5.2665423e-06 </wgt>
<wgt id='morphing_basis_vector_2'> +3.5881055e-06 </wgt>
<wgt id='morphing_basis_vector_3'> +5.8002486e-06 </wgt>
<wgt id='morphing_basis_vector_4'> +4.1706871e-06 </wgt>
<wgt id='morphing_basis_vector_5'> +6.6686207e-06 </wgt>
</rwgt>
</event>
<event>
 4      1 +7.6845000e-11 4.85559500e+03 7.81860800e-03 7.40470500e-02
        2 -1    0    0  501    0 +0.0000000000e+00 +0.0000000000e+00 +2.3678853929e+03 2.3678853929e+03 0.0000000000e+00 0.0000e+00 1.0000e+00
       -2 -1    0    0    0  501 -0.0000000000e+00 -0.0000000000e+00 -2.4892252814e+03 2.4892252814e+03 0.0000000000e+00 0.0000e+00 -1.0000e+00
      -13  1    1    2    0    0 -4.2455481960e+02 -2.2646425675e+03 -8.2598881316e+02 2.4476744622e+03 0.0000000000e+00 0.0000e+00 -1.0000e+00
       13  1    1    2    0    0 +4.2455481960e+02 +2.2646425675e+03 +7.0464892471e+02 2.4094362121e+03 0.0000000000e+00 0.0000e+00 1.0000e+00
<mgrwt>
<rscale>  0 0.48555948E+04</rscale>
<asrwt>0</asrwt>
<pdfrwt beam="1">  1        2 0.36429006E+00 0.48555948E+04</pdfrwt>
<pdfrwt beam="2">  1       -2 0.38295773E+00 0.48555948E+04</pdfrwt>
<totfact> 0.26080016E-02</totfact>
</mgrwt>
<rwgt>
<wgt id='morphing_basis_vector_1'> +5.8481187e-06 </wgt>
<wgt id='morphing_basis_vector_2'> +4.1107063e-06 </wgt>
<wgt id='morphing_basis_vector_3'> +6.4717164e-06 </wgt>
<wgt id='morphing_basis_vector_4'> +4.4716955e-06 </wgt>
<wgt id='morphing_basis_vector_5'> +7.3295291e-06 </wgt>
</rwgt>
</event>
<event>
 4      1 +7.6845000e-11 5.41219200e+03 7.81860800e-03 7.33063900e-02
        2 -1    0    0  501    0 +0.0000000000e+00 +0.0000000000e+00 +2.6671874409e+03 2.6671874409e+03 0.0000000000e+00 0.0000e+00 1.0000e+00
       -2 -1    0    0    0  501 -0.0000000000e+00 -0.0000000000e+00 -2.7455721684e+03 2.7455721684e+03 0.0000000000e+00 0.0000e+00 -1.0000e+00
      -13  1    1    2    0    0 -2.5218793431e+02 -2.6910004436e+03 -1.7289806065e+02 2.7083160600e+03 0.0000000000e+00 0.0000e+00 -1.0000e+00
       13  1    1    2    0    0 +2.5218793431e+02 +2.6910004436e+03 +9.4513333128e+01 2.7044435493e+03 0.0000000000e+00 0.0000e+00 1.0000e+00
<mgrwt>
<rscale>  0 0.54121920E+04</rscale>
<asrwt>0</asrwt>
<pdfrwt beam="1">  1        2 0.41033653E+00 0.54121920E+04</pdfrwt>
<pdfrwt beam="2">  1       -2 0.42239572E+00 0.54121920E+04</pdfrwt>
<totfact> 0.91249611E-03</totfact>
</mgrwt>
<rwgt>
<wgt id='morphing_basis_vector_1'> +9.1929879e-06 </wgt>
<wgt id='morphing_basis_vector_2'> +6.8650121e-06 </wgt>
<wgt id='morphing_basis_vector_3'> +1.0279294e-05 </wgt>
<wgt id='morphing_basis_vector_4'> +6.5304522e-06 </wgt>
<wgt id='morphing_basis_vector_5'> +1.1296403e-05 </wgt>
</rwgt>
</event>
<event>
 4      1 +7.6845000e-11 4.85855100e+03 7.81860800e-03 7.40428600e-02
        2 -1    0    0  501    0 +0.0000000000e+00 +0.0000000000e+00 +2.2344367148e+03 2.2344367148e+03 0.0000000000e+00 0.0000e+00 1.0000e+00
       -2 -1    0    0    0  501 -0.0000000000e+00 -0.0000000000e+00 -2.6411038293e+03 2.6411038293e+03 0.0000000000e+00 0.0000e+00 -1.0000e+00
      -13  1    1    2    0    0 -1.9385645146e+03 -1.3643451093e+02 -1.6660769720e+03 2.5597771836e+03 0.0000000000e+00 0.0000e+00 -1.0000e+00
       13  1    1    2    0    0 +1.9385645146e+03 +1.3643451093e+02 +1.2594098575e+03 2.3157633605e+03 0.0000000000e+00 0.0000e+00 1.0000e+00
<mgrwt>
<rscale>  0 0.48585510E+04</rscale>
<asrwt>0</asrwt>
<pdfrwt beam="1">  1        2 0.34375950E+00 0.48585510E+04</pdfrwt>
<pdfrwt beam="2">  1       -2 0.40632366E+00 0.48585510E+04</pdfrwt>
<totfact> 0.21957534E-02</totfact>
</mgrwt>
<rwgt>
<wgt id='morphing_basis_vector_1'> +5.8146291e-06 </wgt>
<wgt id='morphing_basis_vector_2'> +3.9806340e-06 </wgt>
<wgt id='morphing_basis_vector_3'> +6.4101814e-06 </wgt>
<wgt id='morphing_basis_vector_4'> +4.5841759e-06 </wgt>
<wgt id='morphing_basis_vector_5'> +7.3559619e-06 </wgt>
</rwgt>
</event>
<event>
 4      1 +7.6845000e-11 4.84894000e+03 7.81860800e-03 7.40565100e-02
        2 -1    0    0  501    0 +0.0000000000e+00 +0.0000000000e+00 +2.1061123405e+03 2.1061123405e+03 0.0000000000e+00 0.0000e+00 1.0000e+00
       -2 -1    0    0    0  501 -0.0000000000e+00 -0.0000000000e+00 -2.7909507222e+03 2.7909507222e+03 0.0000000000e+00 0.0000e+00 -1.0000e+00
      -13  1    1    2    0    0 -7.0153435970e+02 +2.1582171583e+03 +5.1928009369e+02 2.3280256820e+03 0.0000000000e+00 0.0000e+00 -1.0000e+00
       13  1    1    2    0    0 +7.0153435970e+02 -2.1582171583e+03 -1.2041184754e+03 2.5690373807e+03 0.0000000000e+00 0.0000e+00 1.0000e+00
<mgrwt>
<rscale>  0 0.48489404E+04</rscale>
<asrwt>0</asrwt>
<pdfrwt beam="1">  1        2 0.32401728E+00 0.48489404E+04</pdfrwt>
<pdfrwt beam="2">  1       -2 0.42937703E+00 0.48489404E+04</pdfrwt>
<totfact> 0.18292864E-02</totfact>
</mgrwt>
<rwgt>
<wgt id='morphing_basis_vector_1'> +6.4459682e-06 </wgt>
<wgt id='morphing_basis_vector_2'> +5.9377549e-06 </wgt>
<wgt id='morphing_basis_vector_3'> +7.4569560e-06 </wgt>
<wgt id='morphing_basis_vector_4'> +3.1064917e-06 </wgt>
<wgt id='morphing_basis_vector_5'> +7.1769866e-06 </wgt>
</rwgt>
</event>
<event>
 4      1 +7.6845000e-11 4.69477300e+03 7.81860800e-03 7.42800000e-02
        2 -1    0    0  501    0 +0.0000000000e+00 +0.0000000000e+00 +3.2949224987e+03 3.2949224987e+03 0.0000000000e+00 0.0000e+00 -1.0000e+00
       -2 -1    0    0    0  501 -0.0000000000e+00 -0.0000000000e+00 -1.6723378813e+03 1.6723378813e+03 0.0000000000e+00 0.0000e+00 1.0000e+00
      -13  1    1    2    0    0 +2.2748763877e+03 -4.0087231964e+02 +3.6936241609e+02 2.3392712092e+03 0.0000000000e+00 0.0000e+00 1.0000e+00
       13  1    1    2    0    0 -2.2748763877e+03 +4.0087231964e+02 +1.2532222013e+03 2.6279891708e+03 0.0000000000e+00 0.0000e+00 -1.0000e+00
<mgrwt>
<rscale>  0 0.46947731E+04</rscale>
<asrwt>0</asrwt>
<pdfrwt beam="1">  1        2 0.50691115E+00 0.46947731E+04</pdfrwt>
<pdfrwt beam="2">  1       -2 0.25728275E+00 0.46947731E+04</pdfrwt>
<totfact> 0.46525078E-02</totfact>
</mgrwt>
<rwgt>
<wgt id='morphing_basis_vector_1'> +5.1545794e-06 </wgt>
<wgt id='morphing_basis_vector_2'> +3.7140718e-06 </wgt>
<wgt id='morphing_basis_vector_3'> +5.7226096e-06 </wgt>
<wgt id='morphing_basis_vector_4'> +3.8188310e-06 </wgt>
<wgt id='morphing_basis_vector_5'> +6.3953593e-06 </wgt>
</rwgt>
</event>
<event>
 4      1 +7.6845000e-11 5.35319500e+03 7.81860800e-03 7.33804800e-02
        2 -1    0    0  501    0 +0.0000000000e+00 +0.0000000000e+00 +3.1008138987e+03 3.1008138987e+03 0.0000000000e+00 0.0000e+00 1.0000e+00
       -2 -1    0    0    0  501 -0.0000000000e+00 -0.0000000000e+00 -2.3104173845e+03 2.3104173845e+03 0.0000000000e+00 0.0000e+00 -1.0000e+00
      -13  1    1    2    0    0 -1.7725271023e+03 +1.6367530814e+03 -7.7640198882e+02 2.5344847654e+03 0.0000000000e+00 0.0000e+00 -1.0000e+00
       13  1    1    2    0    0 +1.7725271023e+03 -1.6367530814e+03 +1.5667985031e+03 2.8767465177e+03 0.0000000000e+00 0.0000e+00 1.0000e+00
<mgrwt>
<rscale>  0 0.53531951E+04</rscale>
<asrwt>0</asrwt>
<pdfrwt beam="1">  1        2 0.47704829E+00 0.53531951E+04</pdfrwt>
<pdfrwt beam="2">  1       -2 0.35544883E+00 0.53531951E+04</pdfrwt>
<totfact> 0.13212942E-02</totfact>
</mgrwt>
<rwgt>
<wgt id='morphing_basis_vector_1'> +8.5908702e-06 </wgt>
<wgt id='morphing_basis_vector_2'> +5.9576653e-06 </wgt>
<wgt id='morphing_basis_vector_3'> +9.4984860e-06 </wgt>
<wgt id='morphing_basis_vector_4'> +6.6953847e-06 </wgt>
<wgt id='morphing_basis_vector_5'> +1.0847978e-05 </wgt>
</rwgt>
</event>
<event>
 4      1 +7.6845000e-11 4.63828700e+03 7.81860800e-03 7.43640600e-02
        2 -1    0    0  501    0 +0.0000000000e+00 +0.0000000000e+00 +1.7452134660e+03 1.7452134660e+03 0.0000000000e+00 0.0000e+00 -1.0000e+00
       -2 -1    0    0    0  501 -0.0000000000e+00 -0.0000000000e+00 -3.0818153047e+03 3.0818153047e+03 0.0000000000e+00 0.0000e+00 1.0000e+00
      -13  1    1    2    0    0 +2.3157698043e+02 -2.2982118971e+03 -8.8415300021e+02 2.4732837180e+03 0.0000000000e+00 0.0000e+00 1.0000e+00
       13  1    1    2    0    0 -2.3157698043e+02 +2.2982118971e+03 -4.5244883849e+02 2.3537450527e+03 0.0000000000e+00 0.0000e+00 -1.0000e+00
<mgrwt>
<rscale>  0 0.46382866E+04</rscale>
<asrwt>0</asrwt>
<pdfrwt beam="1">  1        2 0.26849438E+00 0.46382866E+04</pdfrwt>
<pdfrwt beam="2">  1       -2 0.47412543E+00 0.46382866E+04</pdfrwt>
<totfact> 0.14383062E-02</totfact>
</mgrwt>
<rwgt>
<wgt id='morphing_basis_vector_1'> +4.9485557e-06 </wgt>
<wgt id='morphing_basis_vector_2'> +3.6466642e-06 </wgt>
<wgt id='morphing_basis_vector_3'> +5.5115219e-06 </wgt>
<wgt id='morphing_basis_vector_4'> +3.5596451e-06 </wgt>
<wgt id='morphing_basis_vector_5'> +6.0854771e-06 </wgt>
</rwgt>
</event>
<event>
 4      1 +7.6845000e-11 4.77844300e+03 7.81860800e-03 7.41576500e-02
        2 -1    0    0  501    0 +0.0000000000e+00 +0.0000000000e+00 +2.3095483707e+03 2.3095483707e+03 0.0000000000e+00 0.0000e+00 -1.0000e+00
       -2 -1    0    0    0  501 -0.0000000000e+00 -0.0000000000e+00 -2.4716433489e+03 2.4716433489e+03 0.0000000000e+00 0.0000e+00 1.0000e+00
      -13  1    1    2    0    0 +1.3154065150e+03 -9.2186130885e+02 -1.8507528366e+03 2.4505935270e+03 0.0000000000e+00 0.0000e+00 1.0000e+00
       13  1    1    2    0    0 -1.3154065150e+03 +9.2186130885e+02 +1.6886578584e+03 2.3305981925e+03 0.0000000000e+00 0.0000e+00 -1.0000e+00
<mgrwt>
<rscale>  0 0.47784432E+04</rscale>
<asrwt>0</asrwt>
<pdfrwt beam="1">  1        2 0.35531513E+00 0.47784432E+04</pdfrwt>
<pdfrwt beam="2">  1       -2 0.38025282E+00 0.47784432E+04</pdfrwt>
<totfact> 0.29540118E-02</totfact>
</mgrwt>
<rwgt>
<wgt id='morphing_basis_vector_1'> +5.4329676e-06 </wgt>
<wgt id='morphing_basis_vector_2'> +3.6989247e-06 </wgt>
<wgt id='morphing_basis_vector_3'> +5.9835301e-06 </wgt>
<wgt id='morphing_basis_vector_4'> +4.3070883e-06 </wgt>
<wgt id='morphing_basis_vector_5'> +6.8827012e-06 </wgt>
</rwgt>
</event>
<event>
 4      1 +7.6845000e-11 4.73083200e+03 7.81860800e-03 7.42269600e-02
        2 -1    0    0  501    0 +0.0000000000e+00 +0.0000000000e+00 +1.8568315470e+03 1.8568315470e+03 0.0000000000e+00 0.0000e+00 -1.0000e+00
       -2 -1    0    0    0  501 -0.0000000000e+00 -0.0000000000e+00 -3.0133018183e+03 3.0133018183e+03 0.0000000000e+00 0.0000e+00 1.0000e+00
      -13  1    1    2    0    0 -1.1435884139e+03 -1.7704737905e+02 -2.7020019742e+03 2.9393800203e+03 0.0000000000e+00 0.0000e+00 1.0000e+00
       13  1    1    2    0    0 +1.1435884139e+03 +1.7704737905e+02 +1.5455317029e+03 1.9307533451e+03 0.0000000000e+00 0.0000e+00 -1.0000e+00
<mgrwt>
<rscale>  0 0.47308324E+04</rscale>
<asrwt>0</asrwt>
<pdfrwt beam="1">  1        2 0.28566639E+00 0.47308324E+04</pdfrwt>
<pdfrwt beam="2">  1       -2 0.46358489E+00 0.47308324E+04</pdfrwt>
<totfact> 0.14764207E-02</totfact>
</mgrwt>
<rwgt>
<wgt id='morphing_basis_vector_1'> +5.2166715e-06 </wgt>
<wgt id='morphing_basis_vector_2'> +3.5429095e-06 </wgt>
<wgt id='morphing_basis_vector_3'> +5.7425956e-06 </wgt>
<wgt id='morphing_basis_vector_4'> +4.1453713e-06 </wgt>
<wgt id='morphing_basis_vector_5'> +6.6122036e-06 </wgt>
</rwgt>
</event>
<event>
 4      1 +7.6845000e-11 4.89035600e+03 7.81860800e-03 7.39978900e-02
        2 -1    0    0  501    0 +0.0000000000e+00 +0.0000000000e+00 +2.8374465301e+03 2.8374465301e+03 0.0000000000e+00 0.0000e+00 -1.0000e+00
       -2 -1    0    0    0  501 -0.0000000000e+00 -0.0000000000e+00 -2.1071393194e+03 2.1071393194e+03 0.0000000000e+00 0.0000e+00 1.0000e+00
      -13  1    1    2    0    0 -2.8019373382e+02 -1.0772474925e+03 -1.8361257854e+03 2.1471675734e+03 0.0000000000e+00 0.0000e+00 1.0000e+00
       13  1    1    2    0    0 +2.8019373382e+02 +1.0772474925e+03 +2.5664329960e+03 2.7974182761e+03 0.0000000000e+00 0.0000e+00 -1.0000e+00
<mgrwt>
<rscale>  0 0.48903559E+04</rscale>
<asrwt>0</asrwt>
<pdfrwt beam="1">  1        2 0.43653024E+00 0.48903559E+04</pdfrwt>
<pdfrwt beam="2">  1       -2 0.32417528E+00 0.48903559E+04</pdfrwt>
<totfact> 0.32477669E-02</totfact>
</mgrwt>
<rwgt>
<wgt id='morphing_basis_vector_1'> +5.9535697e-06 </wgt>
<wgt id='morphing_basis_vector_2'> +4.0438164e-06 </wgt>
<wgt id='morphing_basis_vector_3'> +6.5565029e-06 </wgt>
<wgt id='morphing_basis_vector_4'> +4.7361966e-06 </wgt>
<wgt id='morphing_basis_vector_5'> +7.5536798e-06 </wgt>
</rwgt>
</event>
<event>
 4      1 +7.6845000e-11 4.62144100e+03 7.81860800e-03 7.43893600e-02
        2 -1    0    0  501    0 +0.0000000000e+00 +0.0000000000e+00 +4.0840692159e+03 4.0840692159e+03 0.0000000000e+00 0.0000e+00 -1.0000e+00
       -2 -1    0    0    0  501 -0.0000000000e+00 -0.0000000000e+00 -1.3073795985e+03 1.3073795985e+03 0.0000000000e+00 0.0000e+00 1.0000e+00
      -13  1    1    2    0    0 +6.2002631393e+02 -2.1645272959e+03 +7.8235777487e+02 2.3836305780e+03 0.0000000000e+00 0.0000e+00 1.0000e+00
       13  1    1    2    0    0 -6.2002631393e+02 +2.1645272959e+03 +1.9943318425e+03 3.0078182363e+03 0.0000000000e+00 0.0000e+00 -1.0000e+00
<mgrwt>
<rscale>  0 0.46214408E+04</rscale>
<asrwt>0</asrwt>
<pdfrwt beam="1">  1        2 0.62831833E+00 0.46214408E+04</pdfrwt>
<pdfrwt beam="2">  1       -2 0.20113533E+00 0.46214408E+04</pdfrwt>
<totfact> 0.28332973E-02</totfact>
</mgrwt>
<rwgt>
<wgt id='morphing_basis_vector_1'> +4.8258858e-06 </wgt>
<wgt id='morphing_basis_vector_2'> +3.4429611e-06 </wgt>
<wgt id='morphing_basis_vector_3'> +5.3486896e-06 </wgt>
<wgt id='morphing_basis_vector_4'> +3.6173939e-06 </wgt>
<wgt id='morphing_basis_vector_5'> +6.0063804e-06 </wgt>
</rwgt>
</event>
<event>
 4      1 +7.6845000e-11 4.79326000e+03 7.81860800e-03 7.41362500e-02
        2 -1    0    0  501    0 +0.0000000000e+00 +0.0000000000e+00 +2.9294233287e+03 2.9294233287e+03 0.0000000000e+00 0.0000e+00 1.0000e+00
       -2 -1    0    0    0  501 -0.0000000000e+00 -0.0000000000e+00 -1.9607390223e+03 1.9607390223e+03 0.0000000000e+00 0.0000e+00 -1.0000e+00
      -13  1    1    2    0    0 -6.1160494822e+02 -2.7682321565e+02 +2.8315369225e+03 2.9100331697e+03 0.0000000000e+00 0.0000e+00 1.0000e+00
       13  1    1    2    0    0 +6.1160494822e+02 +2.7682321565e+02 -1.8628526160e+03 1.9801291813e+03 0.0000000000e+00 0.0000e+00 -1.0000e+00
<mgrwt>
<rscale>  0 0.47932597E+04</rscale>
<asrwt>0</asrwt>
<pdfrwt beam="1">  1        2 0.45068051E+00 0.47932597E+04</pdfrwt>
<pdfrwt beam="2">  1       -2 0.30165216E+00 0.47932597E+04</pdfrwt>
<totfact> 0.40422882E-02</totfact>
</mgrwt>
<rwgt>
<wgt id='morphing_basis_vector_1'> +7.5264244e-06 </wgt>
<wgt id='morphing_basis_vector_2'> +9.6955114e-06 </wgt>
<wgt id='morphing_basis_vector_3'> +9.3400804e-06 </wgt>
<wgt id='morphing_basis_vector_4'> +4.9082785e-08 </wgt>
<wgt id='morphing_basis_vector_5'> +6.6076428e-06 </wgt>
</rwgt>
</event>
<event>
 4      1 +7.6845000e-11 4.78569000e+03 7.81860800e-03 7.41471800e-02
        2 -1    0    0  501    0 +0.0000000000e+00 +0.0000000000e+00 +2.3754177801e+03 2.3754177801e+03 0.0000000000e+00 0.0000e+00 -1.0000e+00
       -2 -1    0    0    0  501 -0.0000000000e+00 -0.0000000000e+00 -2.4104001719e+03 2.4104001719e+03 0.0000000000e+00 0.0000e+00 1.0000e+00
      -13  1    1    2    0    0 +1.1566956320e+03 -6.1031617996e+02 -2.0213602907e+03 2.4075564478e+03 0.0000000000e+00 0.0000e+00 1.0000e+00
       13  1    1    2    0    0 -1.1566956320e+03 +6.1031617996e+02 +1.9863778990e+03 2.3782615042e+03 0.0000000000e+00 0.0000e+00 -1.0000e+00
<mgrwt>
<rscale>  0 0.47856901E+04</rscale>
<asrwt>0</asrwt>
<pdfrwt beam="1">  1        2 0.36544889E+00 0.47856901E+04</pdfrwt>
<pdfrwt beam="2">  1       -2 0.37083079E+00 0.47856901E+04</pdfrwt>
<totfact> 0.31076083E-02</totfact>
</mgrwt>
<rwgt>
<wgt id='morphing_basis_vector_1'> +5.4626697e-06 </wgt>
<wgt id='morphing_basis_vector_2'> +3.7119486e-06 </wgt>
<wgt id='morphing_basis_vector_3'> +6.0146994e-06 </wgt>
<wgt id='morphing_basis_vector_4'> +4.3402006e-06 </wgt>
<wgt id='morphing_basis_vector_5'> +6.9252669e-06 </wgt>
</rwgt>
</event>
<event>
 4      1 +7.6845000e-11 4.73412100e+03 7.81860800e-03 7.42221500e-02
        2 -1    0    0  501    0 +0.0000000000e+00 +0.0000000000e+00 +5.0388754187e+03 5.0388754187e+03 0.0000000000e+00 0.0000e+00 -1.0000e+00
       -2 -1    0    0    0  501 -0.0000000000e+00 -0.0000000000e+00 -1.1119495411e+03 1.1119495411e+03 0.0000000000e+00 0.0000e+00 1.0000e+00
      -13  1    1    2    0    0 -9.4875043288e+01 +1.7052489730e+03 +4.0928524000e+03 4.4348975300e+03 0.0000000000e+00 0.0000e+00 1.0000e+00
       13  1    1    2    0    0 +9.4875043288e+01 -1.7052489730e+03 -1.6592652238e+02 1.7159274298e+03 0.0000000000e+00 0.0000e+00 -1.0000e+00
<mgrwt>
<rscale>  0 0.47341209E+04</rscale>
<asrwt>0</asrwt>
<pdfrwt beam="1">  1        2 0.77521159E+00 0.47341209E+04</pdfrwt>
<pdfrwt beam="2">  1       -2 0.17106916E+00 0.47341209E+04</pdfrwt>
<totfact> 0.43766019E-03</totfact>
</mgrwt>
<rwgt>
<wgt id='morphing_basis_vector_1'> +6.7226613e-06 </wgt>
<wgt id='morphing_basis_vector_2'> +7.9336974e-06 </wgt>
<wgt id='morphing_basis_vector_3'> +8.1734240e-06 </wgt>
<wgt id='morphing_basis_vector_4'> +9.8372872e-07 </wgt>
<wgt id='morphing_basis_vector_5'> +6.3649946e-06 </wgt>
</rwgt>
</event>
<event>
 4      1 +7.6845000e-11 4.75074600e+03 7.81860800e-03 7.41978700e-02
        2 -1    0    0  501    0 +0.0000000000e+00 +0.0000000000e+00 +3.0956660207e+03 3.0956660207e+03 0.0000000000e+00 0.0000e+00 1.0000e+00
       -2 -1    0    0    0  501 -0.0000000000e+00 -0.0000000000e+00 -1.8226762350e+03 1.8226762350e+03 0.0000000000e+00 0.0000e+00 -1.0000e+00
      -13  1    1    2    0    0 +9.7497280553e+02 -1.0612044664e+03 -1.3184184418e+03 1.9531907431e+03 0.0000000000e+00 0.0000e+00 -1.0000e+00
       13  1    1    2    0    0 -9.7497280553e+02 +1.0612044664e+03 +2.5914082275e+03 2.9651515126e+03 0.0000000000e+00 0.0000e+00 1.0000e+00
<mgrwt>
<rscale>  0 0.47507460E+04</rscale>
<asrwt>0</asrwt>
<pdfrwt beam="1">  1        2 0.47625631E+00 0.47507460E+04</pdfrwt>
<pdfrwt beam="2">  1       -2 0.28041173E+00 0.47507460E+04</pdfrwt>
<totfact> 0.43964353E-02</totfact>
</mgrwt>
<rwgt>
<wgt id='morphing_basis_vector_1'> +5.3065503e-06 </wgt>
<wgt id='morphing_basis_vector_2'> +3.6081808e-06 </wgt>
<wgt id='morphing_basis_vector_3'> +5.8428107e-06 </wgt>
<wgt id='morphing_basis_vector_4'> +4.2119946e-06 </wgt>
<wgt id='morphing_basis_vector_5'> +6.7243154e-06 </wgt>
</rwgt>
</event>
<event>
 4      1 +7.6845000e-11 5.46742800e+03 7.81860800e-03 7.32379000e-02
        2 -1    0    0  501    0 +0.0000000000e+00 +0.0000000000e+00 +2.5008898071e+03 2.5008898071e+03 0.0000000000e+00 0.0000e+00 -1.0000e+00
       -2 -1    0    0    0  501 -0.0000000000e+00 -0.0000000000e+00 -2.9882129363e+03 2.9882129363e+03 0.0000000000e+00 0.0000e+00 1.0000e+00
      -13  1    1    2    0    0 +1.3952648710e+03 +1.8079356537e+03 -1.7522148459e+03 2.8784808935e+03 0.0000000000e+00 0.0000e+00 1.0000e+00
       13  1    1    2    0    0 -1.3952648710e+03 -1.8079356537e+03 +1.2648917167e+03 2.6106218499e+03 0.0000000000e+00 0.0000e+00 -1.0000e+00
<mgrwt>
<rscale>  0 0.54674276E+04</rscale>
<asrwt>0</asrwt>
<pdfrwt beam="1">  1        2 0.38475228E+00 0.54674276E+04</pdfrwt>
<pdfrwt beam="2">  1       -2 0.45972507E+00 0.54674276E+04</pdfrwt>
<totfact> 0.63508748E-03</totfact>
</mgrwt>
<rwgt>
<wgt id='morphing_basis_vector_1'> +9.3191004e-06 </wgt>
<wgt id='morphing_basis_vector_2'> +6.4038317e-06 </wgt>
<wgt id='morphing_basis_vector_3'> +1.0292066e-05 </wgt>
<wgt id='morphing_basis_vector_4'> +7.3439591e-06 </wgt>
<wgt id='morphing_basis_vector_5'> +1.1811460e-05 </wgt>
</rwgt>
</event>
<event>
 4      1 +7.6845000e-11 4.92995400e+03 7.81860800e-03 7.39423900e-02
        2 -1    0    0  501    0 +0.0000000000e+00 +0.0000000000e+00 +2.2008747293e+03 2.2008747293e+03 0.0000000000e+00 0.0000e+00 1.0000e+00
       -2 -1    0    0    0  501 -0.0000000000e+00 -0.0000000000e+00 -2.7607711629e+03 2.7607711629e+03 0.0000000000e+00 0.0000e+00 -1.0000e+00
      -13  1    1    2    0    0 +6.4740317776e+02 -1.5507928566e+03 -2.0948772551e+03 2.6856284316e+03 0.0000000000e+00 0.0000e+00 -1.0000e+00
       13  1    1    2    0    0 -6.4740317776e+02 +1.5507928566e+03 +1.5349808214e+03 2.2760174606e+03 0.0000000000e+00 0.0000e+00 1.0000e+00
<mgrwt>
<rscale>  0 0.49299539E+04</rscale>
<asrwt>0</asrwt>
<pdfrwt beam="1">  1        2 0.33859612E+00 0.49299539E+04</pdfrwt>
<pdfrwt beam="2">  1       -2 0.42473402E+00 0.49299539E+04</pdfrwt>
<totfact> 0.17242571E-02</totfact>
</mgrwt>
<rwgt>
<wgt id='morphing_basis_vector_1'> +6.1532522e-06 </wgt>
<wgt id='morphing_basis_vector_2'> +4.1914077e-06 </wgt>
<wgt id='morphing_basis_vector_3'> +6.7797967e-06 </wgt>
<wgt id='morphing_basis_vector_4'> +4.8809535e-06 </wgt>
<wgt id='morphing_basis_vector_5'> +7.8012252e-06 </wgt>
</rwgt>
</event>
<event>
 4      1 +7.6845000e-11 5.02735200e+03 7.81860800e-03 7.38080800e-02
        2 -1    0    0  501    0 +0.0000000000e+00 +0.0000000000e+00 +4.5580691711e+03 4.5580691711e+03 0.0000000000e+00 0.0000e+00 1.0000e+00
       -2 -1    0    0    0  501 -0.0000000000e+00 -0.0000000000e+00 -1.3862376134e+03 1.3862376134e+03 0.0000000000e+00 0.0000e+00 -1.0000e+00
      -13  1    1    2    0    0 -2.2281965504e+03 +1.1486552911e+03 +1.3669396078e+03 2.8553095693e+03 0.0000000000e+00 0.0000e+00 -1.0000e+00
       13  1    1    2    0    0 +2.2281965504e+03 -1.1486552911e+03 +1.8048919499e+03 3.0889972152e+03 0.0000000000e+00 0.0000e+00 1.0000e+00
<mgrwt>
<rscale>  0 0.50273520E+04</rscale>
<asrwt>0</asrwt>
<pdfrwt beam="1">  1        2 0.70124141E+00 0.50273520E+04</pdfrwt>
<pdfrwt beam="2">  1       -2 0.21326733E+00 0.50273520E+04</pdfrwt>
<totfact> 0.78331343E-03</totfact>
</mgrwt>
<rwgt>
<wgt id='morphing_basis_vector_1'> +6.8327073e-06 </wgt>
<wgt id='morphing_basis_vector_2'> +5.0616354e-06 </wgt>
<wgt id='morphing_basis_vector_3'> +7.6242256e-06 </wgt>
<wgt id='morphing_basis_vector_4'> +4.8952942e-06 </wgt>
<wgt id='morphing_basis_vector_5'> +8.4061279e-06 </wgt>
</rwgt>
</event>
<event>
 4      1 +7.6845000e-11 4.87776400e+03 7.81860800e-03 7.40156500e-02
        2 -1    0    0  501    0 +0.0000000000e+00 +0.0000000000e+00 +2.9694302980e+03 2.9694302980e+03 0.0000000000e+00 0.0000e+00 -1.0000e+00
       -2 -1    0    0    0  501 -0.0000000000e+00 -0.0000000000e+00 -2.0031265035e+03 2.0031265035e+03 0.0000000000e+00 0.0000e+00 1.0000e+00
      -13  1    1    2    0    0 +1.2148368565e+03 -1.2696856284e+03 -1.2409315855e+03 2.1512418234e+03 0.0000000000e+00 0.0000e+00 1.0000e+00
       13  1    1    2    0    0 -1.2148368565e+03 +1.2696856284e+03 +2.2072353801e+03 2.8213149781e+03 0.0000000000e+00 0.0000e+00 -1.0000e+00
<mgrwt>
<rscale>  0 0.48777636E+04</rscale>
<asrwt>0</asrwt>
<pdfrwt beam="1">  1        2 0.45683543E+00 0.48777636E+04</pdfrwt>
<pdfrwt beam="2">  1       -2 0.30817331E+00 0.48777636E+04</pdfrwt>
<totfact> 0.34212942E-02</totfact>
</mgrwt>
<rwgt>
<wgt id='morphing_basis_vector_1'> +5.8997474e-06 </wgt>
<wgt id='morphing_basis_vector_2'> +4.0230930e-06 </wgt>
<wgt id='morphing_basis_vector_3'> +6.5006808e-06 </wgt>
<wgt id='morphing_basis_vector_4'> +4.6724315e-06 </wgt>
<wgt id='morphing_basis_vector_5'> +7.4746652e-06 </wgt>
</rwgt>
</event>
<event>
 4      1 +7.6845000e-11 4.67716700e+03 7.81860800e-03 7.43060700e-02
        2 -1    0    0  501    0 +0.0000000000e+00 +0.0000000000e+00 +2.3423540669e+03 2.3423540669e+03 0.0000000000e+00 0.0000e+00 -1.0000e+00
       -2 -1    0    0    0  501 -0.0000000000e+00 -0.0000000000e+00 -2.3348186388e+03 2.3348186388e+03 0.0000000000e+00 0.0000e+00 1.0000e+00
      -13  1    1    2    0    0 +1.1156865085e+03 +7.6045558635e+02 -1.9056647445e+03 2.3355100519e+03 0.0000000000e+00 0.0000e+00 1.0000e+00
       13  1    1    2    0    0 -1.1156865085e+03 -7.6045558635e+02 +1.9132001725e+03 2.3416626538e+03 0.0000000000e+00 0.0000e+00 -1.0000e+00
<mgrwt>
<rscale>  0 0.46771666E+04</rscale>
<asrwt>0</asrwt>
<pdfrwt beam="1">  1        2 0.36036216E+00 0.46771666E+04</pdfrwt>
<pdfrwt beam="2">  1       -2 0.35920287E+00 0.46771666E+04</pdfrwt>
<totfact> 0.38921007E-02</totfact>
</mgrwt>
<rwgt>
<wgt id='morphing_basis_vector_1'> +4.9859317e-06 </wgt>
<wgt id='morphing_basis_vector_2'> +3.3883993e-06 </wgt>
<wgt id='morphing_basis_vector_3'> +5.4883091e-06 </wgt>
<wgt id='morphing_basis_vector_4'> +3.9574208e-06 </wgt>
<wgt id='morphing_basis_vector_5'> +6.3160054e-06 </wgt>
</rwgt>
</event>
<event>
 4      1 +7.6845000e-11 4.74678200e+03 7.81860800e-03 7.42036500e-02
        2 -1    0    0  501    0 +0.0000000000e+00 +0.0000000000e+00 +3.0646519535e+03 3.0646519535e+03 0.0000000000e+00 0.0000e+00 -1.0000e+00
       -2 -1    0    0    0  501 -0.0000000000e+00 -0.0000000000e+00 -1.8380506276e+03 1.8380506276e+03 0.0000000000e+00 0.0000e+00 1.0000e+00
      -13  1    1    2    0    0 +1.3782654396e+03 -3.2650931672e+02 -1.3536602757e+03 1.9592396734e+03 0.0000000000e+00 0.0000e+00 1.0000e+00
       13  1    1    2    0    0 -1.3782654396e+03 +3.2650931672e+02 +2.5802616016e+03 2.9434629076e+03 0.0000000000e+00 0.0000e+00 -1.0000e+00
<mgrwt>
<rscale>  0 0.47467823E+04</rscale>
<asrwt>0</asrwt>
<pdfrwt beam="1">  1        2 0.47148492E+00 0.47467823E+04</pdfrwt>
<pdfrwt beam="2">  1       -2 0.28277702E+00 0.47467823E+04</pdfrwt>
<totfact> 0.44434766E-02</totfact>
</mgrwt>
<rwgt>
<wgt id='morphing_basis_vector_1'> +5.2887048e-06 </wgt>
<wgt id='morphing_basis_vector_2'> +3.5955190e-06 </wgt>
<wgt id='morphing_basis_vector_3'> +5.8229806e-06 </wgt>
<wgt id='morphing_basis_vector_4'> +4.1983795e-06 </wgt>
<wgt id='morphing_basis_vector_5'> +6.7018629e-06 </wgt>
</rwgt>
</event>
<event>
 4      1 +7.6845000e-11 4.88545600e+03 7.81860800e-03 7.40048000e-02
        2 -1    0    0  501    0 +0.0000000000e+00 +0.0000000000e+00 +2.8294030572e+03 2.8294030572e+03 0.0000000000e+00 0.0000e+00 -1.0000e+00
       -2 -1    0    0    0  501 -0.0000000000e+00 -0.0000000000e+00 -2.1088969873e+03 2.1088969873e+03 0.0000000000e+00 0.0000e+00 1.0000e+00
      -13  1    1    2    0    0 +9.9901217458e+02 -5.1845668195e+02 -1.8311678312e+03 2.1494181264e+03 0.0000000000e+00 0.0000e+00 1.0000e+00
       13  1    1    2    0    0 -9.9901217458e+02 +5.1845668195e+02 +2.5516739011e+03 2.7888819182e+03 0.0000000000e+00 0.0000e+00 -1.0000e+00
<mgrwt>
<rscale>  0 0.48854558E+04</rscale>
<asrwt>0</asrwt>
<pdfrwt beam="1">  1        2 0.43529278E+00 0.48854558E+04</pdfrwt>
<pdfrwt beam="2">  1       -2 0.32444569E+00 0.48854558E+04</pdfrwt>
<totfact> 0.32737095E-02</totfact>
</mgrwt>
<rwgt>
<wgt id='morphing_basis_vector_1'> +5.9298713e-06 </wgt>
<wgt id='morphing_basis_vector_2'> +4.0277891e-06 </wgt>
<wgt id='morphing_basis_vector_3'> +6.5303441e-06 </wgt>
<wgt id='morphing_basis_vector_4'> +4.7170841e-06 </wgt>
<wgt id='morphing_basis_vector_5'> +7.5233422e-06 </wgt>
</rwgt>
</event>
<event>
 4      1 +7.6845000e-11 4.64286300e+03 7.81860800e-03 7.43572000e-02
        2 -1    0    0  501    0 +0.0000000000e+00 +0.0000000000e+00 +3.8974460732e+03 3.8974460732e+03 0.0000000000e+00 0.0000e+00 -1.0000e+00
       -2 -1    0    0    0  501 -0.0000000000e+00 -0.0000000000e+00 -1.3827117842e+03 1.3827117842e+03 0.0000000000e+00 0.0000e+00 1.0000e+00
      -13  1    1    2    0    0 -6.3129105171e+02 -1.7580138749e+03 -3.1020228597e+02 1.8935064390e+03 0.0000000000e+00 0.0000e+00 1.0000e+00
       13  1    1    2    0    0 +6.3129105171e+02 +1.7580138749e+03 +2.8249365750e+03 3.3866514183e+03 0.0000000000e+00 0.0000e+00 -1.0000e+00
<mgrwt>
<rscale>  0 0.46428632E+04</rscale>
<asrwt>0</asrwt>
<pdfrwt beam="1">  1        2 0.59960709E+00 0.46428632E+04</pdfrwt>
<pdfrwt beam="2">  1       -2 0.21272489E+00 0.46428632E+04</pdfrwt>
<totfact> 0.33601469E-02</totfact>
</mgrwt>
<rwgt>
<wgt id='morphing_basis_vector_1'> +4.8525393e-06 </wgt>
<wgt id='morphing_basis_vector_2'> +3.3217728e-06 </wgt>
<wgt id='morphing_basis_vector_3'> +5.3464726e-06 </wgt>
<wgt id='morphing_basis_vector_4'> +3.8193548e-06 </wgt>
<wgt id='morphing_basis_vector_5'> +6.1301710e-06 </wgt>
</rwgt>
</event>
<event>
 4      1 +7.6845000e-11 5.29667300e+03 7.81860800e-03 7.34523800e-02
        2 -1    0    0  501    0 +0.0000000000e+00 +0.0000000000e+00 +2.5185716626e+03 2.5185716626e+03 0.0000000000e+00 0.0000e+00 1.0000e+00
       -2 -1    0    0    0  501 -0.0000000000e+00 -0.0000000000e+00 -2.7847877322e+03 2.7847877322e+03 0.0000000000e+00 0.0000e+00 -1.0000e+00
      -13  1    1    2    0    0 -8.7956688657e+01 +1.8050939925e+03 -2.0714201355e+03 2.7489783699e+03 0.0000000000e+00 0.0000e+00 -1.0000e+00
       13  1    1    2    0    0 +8.7956688657e+01 -1.8050939925e+03 +1.8052040658e+03 2.5543810248e+03 0.0000000000e+00 0.0000e+00 1.0000e+00
<mgrwt>
<rscale>  0 0.52966735E+04</rscale>
<asrwt>0</asrwt>
<pdfrwt beam="1">  1        2 0.38747257E+00 0.52966735E+04</pdfrwt>
<pdfrwt beam="2">  1       -2 0.42842888E+00 0.52966735E+04</pdfrwt>
<totfact> 0.10322601E-02</totfact>
</mgrwt>
<rwgt>
<wgt id='morphing_basis_vector_1'> +8.1913553e-06 </wgt>
<wgt id='morphing_basis_vector_2'> +5.5828452e-06 </wgt>
<wgt id='morphing_basis_vector_3'> +9.0330903e-06 </wgt>
<wgt id='morphing_basis_vector_4'> +6.5089359e-06 </wgt>
<wgt id='morphing_basis_vector_5'> +1.0403572e-05 </wgt>
</rwgt>
</event>
<event>
 4      1 +7.6845000e-11 5.10986700e+03 7.81860800e-03 7.36967200e-02
        2 -1    0    0  501    0 +0.0000000000e+00 +0.0000000000e+00 +4.0165192032e+03 4.0165192032e+03 0.0000000000e+00 0.0000e+00 -1.0000e+00
       -2 -1    0    0    0  501 -0.0000000000e+00 -0.0000000000e+00 -1.6252094766e+03 1.6252094766e+03 0.0000000000e+00 0.0000e+00 1.0000e+00
      -13  1    1    2    0    0 -8.5536013949e+02 +1.6060665963e+03 -7.8450722137e+02 1.9815505192e+03 0.0000000000e+00 0.0000e+00 1.0000e+00
       13  1    1    2    0    0 +8.5536013949e+02 -1.6060665963e+03 +3.1758169479e+03 3.6601781605e+03 0.0000000000e+00 0.0000e+00 -1.0000e+00
<mgrwt>
<rscale>  0 0.51098670E+04</rscale>
<asrwt>0</asrwt>
<pdfrwt beam="1">  1        2 0.61792603E+00 0.51098670E+04</pdfrwt>
<pdfrwt beam="2">  1       -2 0.25003223E+00 0.51098670E+04</pdfrwt>
<totfact> 0.14076904E-02</totfact>
</mgrwt>
<rwgt>
<wgt id='morphing_basis_vector_1'> +7.1004427e-06 </wgt>
<wgt id='morphing_basis_vector_2'> +4.8422817e-06 </wgt>
<wgt id='morphing_basis_vector_3'> +7.8278573e-06 </wgt>
<wgt id='morphing_basis_vector_4'> +5.6318229e-06 </wgt>
<wgt id='morphing_basis_vector_5'> +9.0076028e-06 </wgt>
</rwgt>
</event>
<event>
 4      1 +7.6845000e-11 5.08666400e+03 7.81860800e-03 7.37278200e-02
        2 -1    0    0  501    0 +0.0000000000e+00 +0.0000000000e+00 +4.2636318728e+03 4.2636318728e+03 0.0000000000e+00 0.0000e+00 -1.0000e+00
       -2 -1    0    0    0  501 -0.0000000000e+00 -0.0000000000e+00 -1.5171423458e+03 1.5171423458e+03 0.0000000000e+00 0.0000e+00 1.0000e+00
      -13  1    1    2    0    0 +1.0394161680e+03 -2.3034889639e+03 +1.0476362885e+03 2.7356880616e+03 0.0000000000e+00 0.0000e+00 1.0000e+00
       13  1    1    2    0    0 -1.0394161680e+03 +2.3034889639e+03 +1.6988532385e+03 3.0450861569e+03 0.0000000000e+00 0.0000e+00 -1.0000e+00
<mgrwt>
<rscale>  0 0.50866635E+04</rscale>
<asrwt>0</asrwt>
<pdfrwt beam="1">  1        2 0.65594336E+00 0.50866635E+04</pdfrwt>
<pdfrwt beam="2">  1       -2 0.23340652E+00 0.50866635E+04</pdfrwt>
<totfact> 0.11048038E-02</totfact>
</mgrwt>
<rwgt>
<wgt id='morphing_basis_vector_1'> +7.1331992e-06 </wgt>
<wgt id='morphing_basis_vector_2'> +5.2261938e-06 </wgt>
<wgt id='morphing_basis_vector_3'> +7.9472267e-06 </wgt>
<wgt id='morphing_basis_vector_4'> +5.1879063e-06 </wgt>
<wgt id='morphing_basis_vector_5'> +8.8159297e-06 </wgt>
</rwgt>
</event>
<event>
 4      1 +7.6845000e-11 4.77521700e+03 7.81860800e-03 7.41623300e-02
        2 -1    0    0  501    0 +0.0000000000e+00 +0.0000000000e+00 +3.0133045961e+03 3.0133045961e+03 0.0000000000e+00 0.0000e+00 -1.0000e+00
       -2 -1    0    0    0  501 -0.0000000000e+00 -0.0000000000e+00 -1.8918344769e+03 1.8918344769e+03 0.0000000000e+00 0.0000e+00 1.0000e+00
      -13  1    1    2    0    0 -1.1007550353e+03 -8.5575461378e+02 -1.4302191244e+03 1.9973743641e+03 0.0000000000e+00 0.0000e+00 1.0000e+00
       13  1    1    2    0    0 +1.1007550353e+03 +8.5575461378e+02 +2.5516892436e+03 2.9077647089e+03 0.0000000000e+00 0.0000e+00 -1.0000e+00
<mgrwt>
<rscale>  0 0.47752167E+04</rscale>
<asrwt>0</asrwt>
<pdfrwt beam="1">  1        2 0.46358532E+00 0.47752167E+04</pdfrwt>
<pdfrwt beam="2">  1       -2 0.29105146E+00 0.47752167E+04</pdfrwt>
<totfact> 0.42106953E-02</totfact>
</mgrwt>
<rwgt>
<wgt id='morphing_basis_vector_1'> +5.4158310e-06 </wgt>
<wgt id='morphing_basis_vector_2'> +3.6815274e-06 </wgt>
<wgt id='morphing_basis_vector_3'> +5.9632912e-06 </wgt>
<wgt id='morphing_basis_vector_4'> +4.3008116e-06 </wgt>
<wgt id='morphing_basis_vector_5'> +6.8645168e-06 </wgt>
</rwgt>
</event>
<event>
 4      1 +7.6845000e-11 5.00579800e+03 7.81860800e-03 7.38375300e-02
        2 -1    0    0  501    0 +0.0000000000e+00 +0.0000000000e+00 +2.3014246935e+03 2.3014246935e+03 0.0000000000e+00 0.0000e+00 1.0000e+00
       -2 -1    0    0    0  501 -0.0000000000e+00 -0.0000000000e+00 -2.7220114241e+03 2.7220114241e+03 0.0000000000e+00 0.0000e+00 -1.0000e+00
      -13  1    1    2    0    0 -1.2816935563e+03 +2.1699861132e+02 -2.3566791104e+03 2.6914240095e+03 0.0000000000e+00 0.0000e+00 -1.0000e+00
       13  1    1    2    0    0 +1.2816935563e+03 -2.1699861132e+02 +1.9360923797e+03 2.3320121081e+03 0.0000000000e+00 0.0000e+00 1.0000e+00
<mgrwt>
<rscale>  0 0.50057984E+04</rscale>
<asrwt>0</asrwt>
<pdfrwt beam="1">  1        2 0.35406534E+00 0.50057984E+04</pdfrwt>
<pdfrwt beam="2">  1       -2 0.41877099E+00 0.50057984E+04</pdfrwt>
<totfact> 0.16435716E-02</totfact>
</mgrwt>
<rwgt>
<wgt id='morphing_basis_vector_1'> +6.5346506e-06 </wgt>
<wgt id='morphing_basis_vector_2'> +4.4410234e-06 </wgt>
<wgt id='morphing_basis_vector_3'> +7.1989233e-06 </wgt>
<wgt id='morphing_basis_vector_4'> +5.1994481e-06 </wgt>
<wgt id='morphing_basis_vector_5'> +8.2949630e-06 </wgt>
</rwgt>
</event>
<event>
 4      1 +7.6845000e-11 5.02516100e+03 7.81860800e-03 7.38110700e-02
        2 -1    0    0  501    0 +0.0000000000e+00 +0.0000000000e+00 +3.0833836830e+03 3.0833836830e+03 0.0000000000e+00 0.0000e+00 -1.0000e+00
       -2 -1    0    0    0  501 -0.0000000000e+00 -0.0000000000e+00 -2.0474454202e+03 2.0474454202e+03 0.0000000000e+00 0.0000e+00 1.0000e+00
      -13  1    1    2    0    0 -1.4418737032e+03 -1.3044939725e+02 -1.5787565561e+03 2.1420758821e+03 0.0000000000e+00 0.0000e+00 1.0000e+00
       13  1    1    2    0    0 +1.4418737032e+03 +1.3044939725e+02 +2.6146948189e+03 2.9887532212e+03 0.0000000000e+00 0.0000e+00 -1.0000e+00
<mgrwt>
<rscale>  0 0.50251606E+04</rscale>
<asrwt>0</asrwt>
<pdfrwt beam="1">  1        2 0.47436672E+00 0.50251606E+04</pdfrwt>
<pdfrwt beam="2">  1       -2 0.31499160E+00 0.50251606E+04</pdfrwt>
<totfact> 0.25639548E-02</totfact>
</mgrwt>
<rwgt>
<wgt id='morphing_basis_vector_1'> +6.6370775e-06 </wgt>
<wgt id='morphing_basis_vector_2'> +4.5131876e-06 </wgt>
<wgt id='morphing_basis_vector_3'> +7.3126648e-06 </wgt>
<wgt id='morphing_basis_vector_4'> +5.2783315e-06 </wgt>
<wgt id='morphing_basis_vector_5'> +8.4242669e-06 </wgt>
</rwgt>
</event>
<event>
 4      1 +7.6845000e-11 4.97820500e+03 7.81860800e-03 7.38754600e-02
        2 -1    0    0  501    0 +0.0000000000e+00 +0.0000000000e+00 +3.0584306701e+03 3.0584306701e+03 0.0000000000e+00 0.0000e+00 1.0000e+00
       -2 -1    0    0    0  501 -0.0000000000e+00 -0.0000000000e+00 -2.0257553986e+03 2.0257553986e+03 0.0000000000e+00 0.0000e+00 -1.0000e+00
      -13  1    1    2    0    0 +7.9658225758e+02 -2.0364689172e+03 -6.9804467036e+02 2.2954335769e+03 0.0000000000e+00 0.0000e+00 -1.0000e+00
       13  1    1    2    0    0 -7.9658225758e+02 +2.0364689172e+03 +1.7307199418e+03 2.7887524919e+03 0.0000000000e+00 0.0000e+00 1.0000e+00
<mgrwt>
<rscale>  0 0.49782055E+04</rscale>
<asrwt>0</asrwt>
<pdfrwt beam="1">  1        2 0.47052780E+00 0.49782055E+04</pdfrwt>
<pdfrwt beam="2">  1       -2 0.31165468E+00 0.49782055E+04</pdfrwt>
<totfact> 0.28138054E-02</totfact>
</mgrwt>
<rwgt>
<wgt id='morphing_basis_vector_1'> +6.4227960e-06 </wgt>
<wgt id='morphing_basis_vector_2'> +4.4338205e-06 </wgt>
<wgt id='morphing_basis_vector_3'> +7.0911440e-06 </wgt>
<wgt id='morphing_basis_vector_4'> +5.0202669e-06 </wgt>
<wgt id='morphing_basis_vector_5'> +8.1075457e-06 </wgt>
</rwgt>
</event>
<event>
 4      1 +7.6845000e-11 4.90196800e+03 7.81860800e-03 7.39815600e-02
        2 -1    0    0  501    0 +0.0000000000e+00 +0.0000000000e+00 +2.3440628359e+03 2.3440628359e+03 0.0000000000e+00 0.0000e+00 -1.0000e+00
       -2 -1    0    0    0  501 -0.0000000000e+00 -0.0000000000e+00 -2.5627823284e+03 2.5627823284e+03 0.0000000000e+00 0.0000e+00 1.0000e+00
      -13  1    1    2    0    0 -2.3477373283e+03 +3.0116919273e+02 -7.4619187005e+02 2.4818089677e+03 0.0000000000e+00 0.0000e+00 1.0000e+00
       13  1    1    2    0    0 +2.3477373283e+03 -3.0116919273e+02 +5.2747237756e+02 2.4250361965e+03 0.0000000000e+00 0.0000e+00 -1.0000e+00
<mgrwt>
<rscale>  0 0.49019681E+04</rscale>
<asrwt>0</asrwt>
<pdfrwt beam="1">  1        2 0.36062505E+00 0.49019681E+04</pdfrwt>
<pdfrwt beam="2">  1       -2 0.39427420E+00 0.49019681E+04</pdfrwt>
<totfact> 0.22663762E-02</totfact>
</mgrwt>
<rwgt>
<wgt id='morphing_basis_vector_1'> +6.0910353e-06 </wgt>
<wgt id='morphing_basis_vector_2'> +4.3199366e-06 </wgt>
<wgt id='morphing_basis_vector_3'> +6.7501835e-06 </wgt>
<wgt id='morphing_basis_vector_4'> +4.6091806e-06 </wgt>
<wgt id='morphing_basis_vector_5'> +7.6114819e-06 </wgt>
</rwgt>
</event>
<event>
 4      1 +7.6845000e-11 4.70273600e+03 7.81860800e-03 7.42682500e-02
        2 -1    0    0  501    0 +0.0000000000e+00 +0.0000000000e+00 +3.1183898430e+03 3.1183898430e+03 0.0000000000e+00 0.0000e+00 -1.0000e+00
       -2 -1    0    0    0  501 -0.0000000000e+00 -0.0000000000e+00 -1.7730082955e+03 1.7730082955e+03 0.0000000000e+00 0.0000e+00 1.0000e+00
      -13  1    1    2    0    0 -1.0399994523e+03 -1.4341839596e+03 -9.3544285192e+02 2.0033810970e+03 0.0000000000e+00 0.0000e+00 1.0000e+00
       13  1    1    2    0    0 +1.0399994523e+03 +1.4341839596e+03 +2.2808243995e+03 2.8880170415e+03 0.0000000000e+00 0.0000e+00 -1.0000e+00
<mgrwt>
<rscale>  0 0.47027358E+04</rscale>
<asrwt>0</asrwt>
<pdfrwt beam="1">  1        2 0.47975228E+00 0.47027358E+04</pdfrwt>
<pdfrwt beam="2">  1       -2 0.27277051E+00 0.47027358E+04</pdfrwt>
<totfact> 0.48043534E-02</totfact>
</mgrwt>
<rwgt>
<wgt id='morphing_basis_vector_1'> +5.1021626e-06 </wgt>
<wgt id='morphing_basis_vector_2'> +3.4827310e-06 </wgt>
<wgt id='morphing_basis_vector_3'> +5.6201574e-06 </wgt>
<wgt id='morphing_basis_vector_4'> +4.0306879e-06 </wgt>
<wgt id='morphing_basis_vector_5'> +6.4545668e-06 </wgt>
</rwgt>
</event>
<event>
 4      1 +7.6845000e-11 5.13975300e+03 7.81860800e-03 7.36569100e-02
        2 -1    0    0  501    0 +0.0000000000e+00 +0.0000000000e+00 +3.8264794083e+03 3.8264794083e+03 0.0000000000e+00 0.0000e+00 1.0000e+00
       -2 -1    0    0    0  501 -0.0000000000e+00 -0.0000000000e+00 -1.7259377583e+03 1.7259377583e+03 0.0000000000e+00 0.0000e+00 -1.0000e+00
      -13  1    1    2    0    0 -2.3388840497e+03 -4.0933148728e+02 -1.1677938601e+01 2.3744614629e+03 0.0000000000e+00 0.0000e+00 -1.0000e+00
       13  1    1    2    0    0 +2.3388840497e+03 +4.0933148728e+02 +2.1122195886e+03 3.1779557038e+03 0.0000000000e+00 0.0000e+00 1.0000e+00
<mgrwt>
<rscale>  0 0.51397530E+04</rscale>
<asrwt>0</asrwt>
<pdfrwt beam="1">  1        2 0.58868914E+00 0.51397530E+04</pdfrwt>
<pdfrwt beam="2">  1       -2 0.26552889E+00 0.51397530E+04</pdfrwt>
<totfact> 0.15804292E-02</totfact>
</mgrwt>
<rwgt>
<wgt id='morphing_basis_vector_1'> +7.3163216e-06 </wgt>
<wgt id='morphing_basis_vector_2'> +5.0998134e-06 </wgt>
<wgt id='morphing_basis_vector_3'> +8.0918976e-06 </wgt>
<wgt id='morphing_basis_vector_4'> +5.6610151e-06 </wgt>
<wgt id='morphing_basis_vector_5'> +9.2121051e-06 </wgt>
</rwgt>
</event>
<event>
 4      1 +7.6845000e-11 4.88321000e+03 7.81860800e-03 7.40079600e-02
        2 -1    0    0  501    0 +0.0000000000e+00 +0.0000000000e+00 +2.5225706708e+03 2.5225706708e+03 0.0000000000e+00 0.0000e+00 -1.0000e+00
       -2 -1    0    0    0  501 -0.0000000000e+00 -0.0000000000e+00 -2.3632381153e+03 2.3632381153e+03 0.0000000000e+00 0.0000e+00 1.0000e+00
      -13  1    1    2    0    0 +1.2402967646e+03 -2.0677759050e+03 -3.0446759050e+02 2.4303772898e+03 0.0000000000e+00 0.0000e+00 1.0000e+00
       13  1    1    2    0    0 -1.2402967646e+03 +2.0677759050e+03 +4.6380014608e+02 2.4554314963e+03 0.0000000000e+00 0.0000e+00 -1.0000e+00
<mgrwt>
<rscale>  0 0.48832101E+04</rscale>
<asrwt>0</asrwt>
<pdfrwt beam="1">  1        2 0.38808779E+00 0.48832101E+04</pdfrwt>
<pdfrwt beam="2">  1       -2 0.36357510E+00 0.48832101E+04</pdfrwt>
<totfact> 0.28096080E-02</totfact>
</mgrwt>
<rwgt>
<wgt id='morphing_basis_vector_1'> +6.0393185e-06 </wgt>
<wgt id='morphing_basis_vector_2'> +4.3737237e-06 </wgt>
<wgt id='morphing_basis_vector_3'> +6.7133921e-06 </wgt>
<wgt id='morphing_basis_vector_4'> +4.4522158e-06 </wgt>
<wgt id='morphing_basis_vector_5'> +7.4880087e-06 </wgt>
</rwgt>
</event>
<event>
 4      1 +7.6845000e-11 4.62885500e+03 7.81860800e-03 7.43782100e-02
        2 -1    0    0  501    0 +0.0000000000e+00 +0.0000000000e+00 +3.8816811075e+03 3.8816811075e+03 0.0000000000e+00 0.0000e+00 1.0000e+00
       -2 -1    0    0    0  501 -0.0000000000e+00 -0.0000000000e+00 -1.3799625552e+03 1.3799625552e+03 0.0000000000e+00 0.0000e+00 -1.0000e+00
      -13  1    1    2    0    0 +1.8608753925e+03 +1.1778632381e+03 +4.4199501966e+02 2.2462365484e+03 0.0000000000e+00 0.0000e+00 -1.0000e+00
       13  1    1    2    0    0 -1.8608753925e+03 -1.1778632381e+03 +2.0597235326e+03 3.0154071143e+03 0.0000000000e+00 0.0000e+00 1.0000e+00
<mgrwt>
<rscale>  0 0.46288550E+04</rscale>
<asrwt>0</asrwt>
<pdfrwt beam="1">  1        2 0.59718170E+00 0.46288550E+04</pdfrwt>
<pdfrwt beam="2">  1       -2 0.21230193E+00 0.46288550E+04</pdfrwt>
<totfact> 0.34900715E-02</totfact>
</mgrwt>
<rwgt>
<wgt id='morphing_basis_vector_1'> +4.8350264e-06 </wgt>
<wgt id='morphing_basis_vector_2'> +3.4010828e-06 </wgt>
<wgt id='morphing_basis_vector_3'> +5.3478619e-06 </wgt>
<wgt id='morphing_basis_vector_4'> +3.6870607e-06 </wgt>
<wgt id='morphing_basis_vector_5'> +6.0490359e-06 </wgt>
</rwgt>
</event>
<event>
 4      1 +7.6845000e-11 5.16233700e+03 7.81860800e-03 7.36270200e-02
        2 -1    0    0  501    0 +0.0000000000e+00 +0.0000000000e+00 +2.7567778004e+03 2.7567778004e+03 0.0000000000e+00 0.0000e+00 1.0000e+00
       -2 -1    0    0    0  501 -0.0000000000e+00 -0.0000000000e+00 -2.4167454736e+03 2.4167454736e+03 0.0000000000e+00 0.0000e+00 -1.0000e+00
      -13  1    1    2    0    0 -1.4106677431e+03 +1.5250174063e+03 -1.3652200877e+03 2.4858574896e+03 0.0000000000e+00 0.0000e+00 -1.0000e+00
       13  1    1    2    0    0 +1.4106677431e+03 -1.5250174063e+03 +1.7052524146e+03 2.6876657843e+03 0.0000000000e+00 0.0000e+00 1.0000e+00
<mgrwt>
<rscale>  0 0.51623368E+04</rscale>
<asrwt>0</asrwt>
<pdfrwt beam="1">  1        2 0.42411966E+00 0.51623368E+04</pdfrwt>
<pdfrwt beam="2">  1       -2 0.37180700E+00 0.51623368E+04</pdfrwt>
<totfact> 0.17514948E-02</totfact>
</mgrwt>
<rwgt>
<wgt id='morphing_basis_vector_1'> +7.4059420e-06 </wgt>
<wgt id='morphing_basis_vector_2'> +5.0741832e-06 </wgt>
<wgt id='morphing_basis_vector_3'> +8.1709965e-06 </wgt>
<wgt id='morphing_basis_vector_4'> +5.8455129e-06 </wgt>
<wgt id='morphing_basis_vector_5'> +9.3826260e-06 </wgt>
</rwgt>
</event>
<event>
 4      1 +7.6845000e-11 4.71883900e+03 7.81860800e-03 7.42445500e-02
        2 -1    0    0  501    0 +0.0000000000e+00 +0.0000000000e+00 +3.1621560480e+03 3.1621560480e+03 0.0000000000e+00 0.0000e+00 -1.0000e+00
       -2 -1    0    0    0  501 -0.0000000000e+00 -0.0000000000e+00 -1.7604634647e+03 1.7604634647e+03 0.0000000000e+00 0.0000e+00 1.0000e+00
      -13  1    1    2    0    0 +9.1714605931e+02 +1.5614755074e+03 -8.7691549631e+02 2.0120495625e+03 0.0000000000e+00 0.0000e+00 1.0000e+00
       13  1    1    2    0    0 -9.1714605931e+02 -1.5614755074e+03 +2.2786080796e+03 2.9105699502e+03 0.0000000000e+00 0.0000e+00 -1.0000e+00
<mgrwt>
<rscale>  0 0.47188389E+04</rscale>
<asrwt>0</asrwt>
<pdfrwt beam="1">  1        2 0.48648554E+00 0.47188389E+04</pdfrwt>
<pdfrwt beam="2">  1       -2 0.27084053E+00 0.47188389E+04</pdfrwt>
<totfact> 0.46227396E-02</totfact>
</mgrwt>
<rwgt>
<wgt id='morphing_basis_vector_1'> +5.1732223e-06 </wgt>
<wgt id='morphing_basis_vector_2'> +3.5337753e-06 </wgt>
<wgt id='morphing_basis_vector_3'> +5.6992598e-06 </wgt>
<wgt id='morphing_basis_vector_4'> +4.0840803e-06 </wgt>
<wgt id='morphing_basis_vector_5'> +6.5435563e-06 </wgt>
</rwgt>
</event>
<event>
 4      1 +7.6845000e-11 4.76970800e+03 7.81860800e-03 7.41703100e-02
        2 -1    0    0  501    0 +0.0000000000e+00 +0.0000000000e+00 +2.2530408681e+03 2.2530408681e+03 0.0000000000e+00 0.0000e+00 1.0000e+00
       -2 -1    0    0    0  501 -0.0000000000e+00 -0.0000000000e+00 -2.5243785214e+03 2.5243785214e+03 0.0000000000e+00 0.0000e+00 -1.0000e+00
      -13  1    1    2    0    0 +1.7554398991e+03 -4.2834385274e+02 +1.4232795152e+03 2.3001678796e+03 0.0000000000e+00 0.0000e+00 -1.0000e+00
       13  1    1    2    0    0 -1.7554398991e+03 +4.2834385274e+02 -1.6946171686e+03 2.4772515100e+03 0.0000000000e+00 0.0000e+00 1.0000e+00
<mgrwt>
<rscale>  0 0.47697077E+04</rscale>
<asrwt>0</asrwt>
<pdfrwt beam="1">  1        2 0.34662167E+00 0.47697077E+04</pdfrwt>
<pdfrwt beam="2">  1       -2 0.38836592E+00 0.47697077E+04</pdfrwt>
<totfact> 0.28244895E-02</totfact>
</mgrwt>
<rwgt>
<wgt id='morphing_basis_vector_1'> +6.8153063e-06 </wgt>
<wgt id='morphing_basis_vector_2'> +7.8480697e-06 </wgt>
<wgt id='morphing_basis_vector_3'> +8.2426656e-06 </wgt>
<wgt id='morphing_basis_vector_4'> +1.2500051e-06 </wgt>
<wgt id='morphing_basis_vector_5'> +6.5789736e-06 </wgt>
</rwgt>
</event>
<event>
 4      1 +7.6845000e-11 4.84781600e+03 7.81860800e-03 7.40581100e-02
        2 -1    0    0  501    0 +0.0000000000e+00 +0.0000000000e+00 +1.9178358981e+03 1.9178358981e+03 0.0000000000e+00 0.0000e+00 -1.0000e+00
       -2 -1    0    0    0  501 -0.0000000000e+00 -0.0000000000e+00 -3.0635212375e+03 3.0635212375e+03 0.0000000000e+00 0.0000e+00 1.0000e+00
      -13  1    1    2    0    0 +1.4153354220e+03 -1.2142643358e+03 -2.1639542471e+03 2.8566256698e+03 0.0000000000e+00 0.0000e+00 1.0000e+00
       13  1    1    2    0    0 -1.4153354220e+03 +1.2142643358e+03 +1.0182689077e+03 2.1247314659e+03 0.0000000000e+00 0.0000e+00 -1.0000e+00
<mgrwt>
<rscale>  0 0.48478164E+04</rscale>
<asrwt>0</asrwt>
<pdfrwt beam="1">  1        2 0.29505168E+00 0.48478164E+04</pdfrwt>
<pdfrwt beam="2">  1       -2 0.47131096E+00 0.48478164E+04</pdfrwt>
<totfact> 0.11889054E-02</totfact>
</mgrwt>
<rwgt>
<wgt id='morphing_basis_vector_1'> +5.7603598e-06 </wgt>
<wgt id='morphing_basis_vector_2'> +3.9361348e-06 </wgt>
<wgt id='morphing_basis_vector_3'> +6.3484953e-06 </wgt>
<wgt id='morphing_basis_vector_4'> +4.5505398e-06 </wgt>
<wgt id='morphing_basis_vector_5'> +7.2915266e-06 </wgt>
</rwgt>
</event>
<event>
 4      1 +7.6845000e-11 5.30741500e+03 7.81860800e-03 7.34386400e-02
        2 -1    0    0  501    0 +0.0000000000e+00 +0.0000000000e+00 +2.2874982370e+03 2.2874982370e+03 0.0000000000e+00 0.0000e+00 1.0000e+00
       -2 -1    0    0    0  501 -0.0000000000e+00 -0.0000000000e+00 -3.0785440029e+03 3.0785440029e+03 0.0000000000e+00 0.0000e+00 -1.0000e+00
      -13  1    1    2    0    0 +2.4031846462e+03 -2.8977090952e+02 -1.4951491508e+03 2.8451247085e+03 0.0000000000e+00 0.0000e+00 -1.0000e+00
       13  1    1    2    0    0 -2.4031846462e+03 +2.8977090952e+02 +7.0410338498e+02 2.5209175314e+03 0.0000000000e+00 0.0000e+00 1.0000e+00
<mgrwt>
<rscale>  0 0.53074152E+04</rscale>
<asrwt>0</asrwt>
<pdfrwt beam="1">  1        2 0.35192281E+00 0.53074152E+04</pdfrwt>
<pdfrwt beam="2">  1       -2 0.47362215E+00 0.53074152E+04</pdfrwt>
<totfact> 0.68068833E-03</totfact>
</mgrwt>
<rwgt>
<wgt id='morphing_basis_vector_1'> +8.3076452e-06 </wgt>
<wgt id='morphing_basis_vector_2'> +5.7745391e-06 </wgt>
<wgt id='morphing_basis_vector_3'> +9.1876330e-06 </wgt>
<wgt id='morphing_basis_vector_4'> +6.4557072e-06 </wgt>
<wgt id='morphing_basis_vector_5'> +1.0479538e-05 </wgt>
</rwgt>
</event>
<event>
 4      1 +7.6845000e-11 4.75449200e+03 7.81860800e-03 7.41924200e-02
        2 -1    0    0  501    0 +0.0000000000e+00 +0.0000000000e+00 +2.8996248501e+03 2.8996248501e+03 0.0000000000e+00 0.0000e+00 -1.0000e+00
       -2 -1    0    0    0  501 -0.0000000000e+00 -0.0000000000e+00 -1.9489757048e+03 1.9489757048e+03 0.0000000000e+00 0.0000e+00 1.0000e+00
      -13  1    1    2    0    0 +5.4016672350e+02 -8.1989823809e+02 -1.7325427940e+03 1.9914109930e+03 0.0000000000e+00 0.0000e+00 1.0000e+00
       13  1    1    2    0    0 -5.4016672350e+02 +8.1989823809e+02 +2.6831919392e+03 2.8571895619e+03 0.0000000000e+00 0.0000e+00 -1.0000e+00
<mgrwt>
<rscale>  0 0.47544919E+04</rscale>
<asrwt>0</asrwt>
<pdfrwt beam="1">  1        2 0.44609613E+00 0.47544919E+04</pdfrwt>
<pdfrwt beam="2">  1       -2 0.29984242E+00 0.47544919E+04</pdfrwt>
<totfact> 0.43572378E-02</totfact>
</mgrwt>
<rwgt>
<wgt id='morphing_basis_vector_1'> +5.3208876e-06 </wgt>
<wgt id='morphing_basis_vector_2'> +3.6126313e-06 </wgt>
<wgt id='morphing_basis_vector_3'> +5.8574373e-06 </wgt>
<wgt id='morphing_basis_vector_4'> +4.2303583e-06 </wgt>
<wgt id='morphing_basis_vector_5'> +6.7460437e-06 </wgt>
</rwgt>
</event>
<event>
 4      1 +7.6845000e-11 4.65261100e+03 7.81860800e-03 7.43426300e-02
        2 -1    0    0  501    0 +0.0000000000e+00 +0.0000000000e+00 +2.3029914078e+03 2.3029914078e+03 0.0000000000e+00 0.0000e+00 1.0000e+00
       -2 -1    0    0    0  501 -0.0000000000e+00 -0.0000000000e+00 -2.3498553735e+03 2.3498553735e+03 0.0000000000e+00 0.0000e+00 -1.0000e+00
      -13  1    1    2    0    0 +1.1995940339e+03 +1.9868024686e+03 +1.3559444493e+02 2.3248216596e+03 0.0000000000e+00 0.0000e+00 -1.0000e+00
       13  1    1    2    0    0 -1.1995940339e+03 -1.9868024686e+03 -1.8245841062e+02 2.3280251217e+03 0.0000000000e+00 0.0000e+00 1.0000e+00
<mgrwt>
<rscale>  0 0.46526108E+04</rscale>
<asrwt>0</asrwt>
<pdfrwt beam="1">  1        2 0.35430637E+00 0.46526108E+04</pdfrwt>
<pdfrwt beam="2">  1       -2 0.36151621E+00 0.46526108E+04</pdfrwt>
<totfact> 0.39721927E-02</totfact>
</mgrwt>
<rwgt>
<wgt id='morphing_basis_vector_1'> +5.1094233e-06 </wgt>
<wgt id='morphing_basis_vector_2'> +3.9846667e-06 </wgt>
<wgt id='morphing_basis_vector_3'> +5.7411989e-06 </wgt>
<wgt id='morphing_basis_vector_4'> +3.3919994e-06 </wgt>
<wgt id='morphing_basis_vector_5'> +6.1435370e-06 </wgt>
</rwgt>
</event>
<event>
 4      1 +7.6845000e-11 4.90657100e+03 7.81860800e-03 7.39751000e-02
        2 -1    0    0  501    0 +0.0000000000e+00 +0.0000000000e+00 +2.6199308414e+03 2.6199308414e+03 0.0000000000e+00 0.0000e+00 -1.0000e+00
       -2 -1    0    0    0  501 -0.0000000000e+00 -0.0000000000e+00 -2.2972401106e+03 2.2972401106e+03 0.0000000000e+00 0.0000e+00 1.0000e+00
      -13  1    1    2    0    0 -6.1394271791e+02 -1.7770946537e+02 -2.2123372826e+03 2.3028118826e+03 0.0000000000e+00 0.0000e+00 1.0000e+00
       13  1    1    2    0    0 +6.1394271791e+02 +1.7770946537e+02 +2.5350280134e+03 2.6143590694e+03 0.0000000000e+00 0.0000e+00 -1.0000e+00
<mgrwt>
<rscale>  0 0.49065712E+04</rscale>
<asrwt>0</asrwt>
<pdfrwt beam="1">  1        2 0.40306628E+00 0.49065712E+04</pdfrwt>
<pdfrwt beam="2">  1       -2 0.35342156E+00 0.49065712E+04</pdfrwt>
<totfact> 0.28478627E-02</totfact>
</mgrwt>
<rwgt>
<wgt id='morphing_basis_vector_1'> +6.0319002e-06 </wgt>
<wgt id='morphing_basis_vector_2'> +4.0954345e-06 </wgt>
<wgt id='morphing_basis_vector_3'> +6.6426557e-06 </wgt>
<wgt id='morphing_basis_vector_4'> +4.8011338e-06 </wgt>
<wgt id='morphing_basis_vector_5'> +7.6548335e-06 </wgt>
</rwgt>
</event>
<event>
 4      1 +7.6845000e-11 4.64789700e+03 7.81860800e-03 7.43496700e-02
        2 -1    0    0  501    0 +0.0000000000e+00 +0.0000000000e+00 +2.6565163258e+03 2.6565163258e+03 0.0000000000e+00 0.0000e+00 -1.0000e+00
       -2 -1    0    0    0  501 -0.0000000000e+00 -0.0000000000e+00 -2.0330144169e+03 2.0330144169e+03 0.0000000000e+00 0.0000e+00 1.0000e+00
      -13  1    1    2    0    0 +1.2736916250e+03 -1.3011821156e+03 -1.1452658312e+03 2.1510460427e+03 0.0000000000e+00 0.0000e+00 1.0000e+00
       13  1    1    2    0    0 -1.2736916250e+03 +1.3011821156e+03 +1.7687677401e+03 2.5384847000e+03 0.0000000000e+00 0.0000e+00 -1.0000e+00
<mgrwt>
<rscale>  0 0.46478967E+04</rscale>
<asrwt>0</asrwt>
<pdfrwt beam="1">  1        2 0.40869482E+00 0.46478967E+04</pdfrwt>
<pdfrwt beam="2">  1       -2 0.31277145E+00 0.46478967E+04</pdfrwt>
<totfact> 0.51069098E-02</totfact>
</mgrwt>
<rwgt>
<wgt id='morphing_basis_vector_1'> +4.8714895e-06 </wgt>
<wgt id='morphing_basis_vector_2'> +3.3301659e-06 </wgt>
<wgt id='morphing_basis_vector_3'> +5.3663789e-06 </wgt>
<wgt id='morphing_basis_vector_4'> +3.8403573e-06 </wgt>
<wgt id='morphing_basis_vector_5'> +6.1572607e-06 </wgt>
</rwgt>
</event>
<event>
 4      1 +7.6845000e-11 4.87500100e+03 7.81860800e-03 7.40195600e-02
        2 -1    0    0  501    0 +0.0000000000e+00 +0.0000000000e+00 +4.4113182515e+03 4.4113182515e+03 0.0000000000e+00 0.0000e+00 -1.0000e+00
       -2 -1    0    0    0  501 -0.0000000000e+00 -0.0000000000e+00 -1.3468555623e+03 1.3468555623e+03 0.0000000000e+00 0.0000e+00 1.0000e+00
      -13  1    1    2    0    0 +7.4581297453e+01 -1.2935447098e+03 -9.0640340552e+02 1.5812613382e+03 0.0000000000e+00 0.0000e+00 1.0000e+00
       13  1    1    2    0    0 -7.4581297453e+01 +1.2935447098e+03 +3.9708660948e+03 4.1769124756e+03 0.0000000000e+00 0.0000e+00 -1.0000e+00
<mgrwt>
<rscale>  0 0.48750009E+04</rscale>
<asrwt>0</asrwt>
<pdfrwt beam="1">  1        2 0.67866434E+00 0.48750009E+04</pdfrwt>
<pdfrwt beam="2">  1       -2 0.20720855E+00 0.48750009E+04</pdfrwt>
<totfact> 0.12407321E-02</totfact>
</mgrwt>
<rwgt>
<wgt id='morphing_basis_vector_1'> +5.8802421e-06 </wgt>
<wgt id='morphing_basis_vector_2'> +3.9958000e-06 </wgt>
<wgt id='morphing_basis_vector_3'> +6.4759235e-06 </wgt>
<wgt id='morphing_basis_vector_4'> +4.6750145e-06 </wgt>
<wgt id='morphing_basis_vector_5'> +7.4587944e-06 </wgt>
</rwgt>
</event>
<event>
 4      1 +7.6845000e-11 4.99319400e+03 7.81860800e-03 7.38548300e-02
        2 -1    0    0  501    0 +0.0000000000e+00 +0.0000000000e+00 +3.0177854062e+03 3.0177854062e+03 0.0000000000e+00 0.0000e+00 -1.0000e+00
       -2 -1    0    0    0  501 -0.0000000000e+00 -0.0000000000e+00 -2.0654209888e+03 2.0654209888e+03 0.0000000000e+00 0.0000e+00 1.0000e+00
      -13  1    1    2    0    0 +1.8509395068e+03 +1.6711751552e+03 +3.5489652417e+02 2.5188797113e+03 0.0000000000e+00 0.0000e+00 1.0000e+00
       13  1    1    2    0    0 -1.8509395068e+03 -1.6711751552e+03 +5.9746789323e+02 2.5643266837e+03 0.0000000000e+00 0.0000e+00 -1.0000e+00
<mgrwt>
<rscale>  0 0.49931943E+04</rscale>
<asrwt>0</asrwt>
<pdfrwt beam="1">  1        2 0.46427468E+00 0.49931943E+04</pdfrwt>
<pdfrwt beam="2">  1       -2 0.31775708E+00 0.49931943E+04</pdfrwt>
<totfact> 0.27213140E-02</totfact>
</mgrwt>
<rwgt>
<wgt id='morphing_basis_vector_1'> +6.6677902e-06 </wgt>
<wgt id='morphing_basis_vector_2'> +4.9794265e-06 </wgt>
<wgt id='morphing_basis_vector_3'> +7.4488066e-06 </wgt>
<wgt id='morphing_basis_vector_4'> +4.7242100e-06 </wgt>
<wgt id='morphing_basis_vector_5'> +8.1760201e-06 </wgt>
</rwgt>
</event>
<event>
 4      1 +7.6845000e-11 4.72630300e+03 7.81860800e-03 7.42336000e-02
        2 -1    0    0  501    0 +0.0000000000e+00 +0.0000000000e+00 +3.1484144553e+03 3.1484144553e+03 0.0000000000e+00 0.0000e+00 1.0000e+00
       -2 -1    0    0    0  501 -0.0000000000e+00 -0.0000000000e+00 -1.7737454963e+03 1.7737454963e+03 0.0000000000e+00 0.0000e+00 -1.0000e+00
      -13  1    1    2    0    0 -1.8039278039e+03 +1.0421539301e+02 -8.9875785667e+02 2.0181134891e+03 0.0000000000e+00 0.0000e+00 -1.0000e+00
       13  1    1    2    0    0 +1.8039278039e+03 -1.0421539301e+02 +2.2734268157e+03 2.9040464625e+03 0.0000000000e+00 0.0000e+00 1.0000e+00
<mgrwt>
<rscale>  0 0.47263034E+04</rscale>
<asrwt>0</asrwt>
<pdfrwt beam="1">  1        2 0.48437145E+00 0.47263034E+04</pdfrwt>
<pdfrwt beam="2">  1       -2 0.27288392E+00 0.47263034E+04</pdfrwt>
<totfact> 0.45701804E-02</totfact>
</mgrwt>
<rwgt>
<wgt id='morphing_basis_vector_1'> +5.2056786e-06 </wgt>
<wgt id='morphing_basis_vector_2'> +3.5554697e-06 </wgt>
<wgt id='morphing_basis_vector_3'> +5.7350211e-06 </wgt>
<wgt id='morphing_basis_vector_4'> +4.1105697e-06 </wgt>
<wgt id='morphing_basis_vector_5'> +6.5852478e-06 </wgt>
</rwgt>
</event>
<event>
 4      1 +7.6845000e-11 4.97176000e+03 7.81860800e-03 7.38843600e-02
        2 -1    0    0  501    0 +0.0000000000e+00 +0.0000000000e+00 +3.1733343231e+03 3.1733343231e+03 0.0000000000e+00 0.0000e+00 1.0000e+00
       -2 -1    0    0    0  501 -0.0000000000e+00 -0.0000000000e+00 -1.9473523402e+03 1.9473523402e+03 0.0000000000e+00 0.0000e+00 -1.0000e+00
      -13  1    1    2    0    0 -1.2881336907e+03 -1.7569406258e+03 -6.2014938305e+02 2.2651079500e+03 0.0000000000e+00 0.0000e+00 -1.0000e+00
       13  1    1    2    0    0 +1.2881336907e+03 +1.7569406258e+03 +1.8461313660e+03 2.8555787133e+03 0.0000000000e+00 0.0000e+00 1.0000e+00
<mgrwt>
<rscale>  0 0.49717603E+04</rscale>
<asrwt>0</asrwt>
<pdfrwt beam="1">  1        2 0.48820528E+00 0.49717603E+04</pdfrwt>
<pdfrwt beam="2">  1       -2 0.29959267E+00 0.49717603E+04</pdfrwt>
<totfact> 0.28423118E-02</totfact>
</mgrwt>
<rwgt>
<wgt id='morphing_basis_vector_1'> +6.3890713e-06 </wgt>
<wgt id='morphing_basis_vector_2'> +4.4090637e-06 </wgt>
<wgt id='morphing_basis_vector_3'> +7.0534646e-06 </wgt>
<wgt id='morphing_basis_vector_4'> +4.9955949e-06 </wgt>
<wgt id='morphing_basis_vector_5'> +8.0656203e-06 </wgt>
</rwgt>
</event>
<event>
 4      1 +7.6845000e-11 4.96941900e+03 7.81860800e-03 7.38875900e-02
        2 -1    0    0  501    0 +0.0000000000e+00 +0.0000000000e+00 +3.2346022555e+03 3.2346022555e+03 0.0000000000e+00 0.0000e+00 -1.0000e+00
       -2 -1    0    0    0  501 -0.0000000000e+00 -0.0000000000e+00 -1.9086675725e+03 1.9086675725e+03 0.0000000000e+00 0.0000e+00 1.0000e+00
      -13  1    1    2    0    0 -2.2789742153e+03 -9.8078119026e+02 +5.2362749148e+02 2.5357131082e+03 0.0000000000e+00 0.0000e+00 1.0000e+00
       13  1    1    2    0    0 +2.2789742153e+03 +9.8078119026e+02 +8.0230719144e+02 2.6075567198e+03 0.0000000000e+00 0.0000e+00 -1.0000e+00
<mgrwt>
<rscale>  0 0.49694187E+04</rscale>
<asrwt>0</asrwt>
<pdfrwt beam="1">  1        2 0.49763111E+00 0.49694187E+04</pdfrwt>
<pdfrwt beam="2">  1       -2 0.29364117E+00 0.49694187E+04</pdfrwt>
<totfact> 0.28321483E-02</totfact>
</mgrwt>
<rwgt>
<wgt id='morphing_basis_vector_1'> +6.5374932e-06 </wgt>
<wgt id='morphing_basis_vector_2'> +4.8718549e-06 </wgt>
<wgt id='morphing_basis_vector_3'> +7.3004406e-06 </wgt>
<wgt id='morphing_basis_vector_4'> +4.6444316e-06 </wgt>
<wgt id='morphing_basis_vector_5'> +8.0217436e-06 </wgt>
</rwgt>
</event>
<event>
 4      1 +7.6845000e-11 5.38272800e+03 7.81860800e-03 7.33432700e-02
        2 -1    0    0  501    0 +0.0000000000e+00 +0.0000000000e+00 +3.7591997935e+03 3.7591997935e+03 0.0000000000e+00 0.0000e+00 -1.0000e+00
       -2 -1    0    0    0  501 -0.0000000000e+00 -0.0000000000e+00 -1.9268571395e+03 1.9268571395e+03 0.0000000000e+00 0.0000e+00 1.0000e+00
      -13  1    1    2    0    0 -3.6055815653e+02 -2.6300651588e+03 +1.3840722061e+03 2.9938104141e+03 0.0000000000e+00 0.0000e+00 1.0000e+00
       13  1    1    2    0    0 +3.6055815653e+02 +2.6300651588e+03 +4.4827044795e+02 2.6922465189e+03 0.0000000000e+00 0.0000e+00 -1.0000e+00
<mgrwt>
<rscale>  0 0.53827283E+04</rscale>
<asrwt>0</asrwt>
<pdfrwt beam="1">  1        2 0.57833843E+00 0.53827283E+04</pdfrwt>
<pdfrwt beam="2">  1       -2 0.29643956E+00 0.53827283E+04</pdfrwt>
<totfact> 0.10816266E-02</totfact>
</mgrwt>
<rwgt>
<wgt id='morphing_basis_vector_1'> +9.2974514e-06 </wgt>
<wgt id='morphing_basis_vector_2'> +7.6049803e-06 </wgt>
<wgt id='morphing_basis_vector_3'> +1.0549466e-05 </wgt>
<wgt id='morphing_basis_vector_4'> +5.7434275e-06 </wgt>
<wgt id='morphing_basis_vector_5'> +1.0997561e-05 </wgt>
</rwgt>
</event>
<event>
 4      1 +7.6845000e-11 5.00210600e+03 7.81860800e-03 7.38425900e-02
        2 -1    0    0  501    0 +0.0000000000e+00 +0.0000000000e+00 +2.0496073734e+03 2.0496073734e+03 0.0000000000e+00 0.0000e+00 -1.0000e+00
       -2 -1    0    0    0  501 -0.0000000000e+00 -0.0000000000e+00 -3.0519339120e+03 3.0519339120e+03 0.0000000000e+00 0.0000e+00 1.0000e+00
      -13  1    1    2    0    0 +8.2639409294e+02 +2.2305991403e+03 +2.8669978973e+02 2.3959750606e+03 0.0000000000e+00 0.0000e+00 1.0000e+00
       13  1    1    2    0    0 -8.2639409294e+02 -2.2305991403e+03 -1.2890263284e+03 2.7055662248e+03 0.0000000000e+00 0.0000e+00 -1.0000e+00
<mgrwt>
<rscale>  0 0.50021061E+04</rscale>
<asrwt>0</asrwt>
<pdfrwt beam="1">  1        2 0.31532421E+00 0.50021061E+04</pdfrwt>
<pdfrwt beam="2">  1       -2 0.46952829E+00 0.50021061E+04</pdfrwt>
<totfact> 0.10207578E-02</totfact>
</mgrwt>
<rwgt>
<wgt id='morphing_basis_vector_1'> +7.1981216e-06 </wgt>
<wgt id='morphing_basis_vector_2'> +6.4327140e-06 </wgt>
<wgt id='morphing_basis_vector_3'> +8.2855789e-06 </wgt>
<wgt id='morphing_basis_vector_4'> +3.7295109e-06 </wgt>
<wgt id='morphing_basis_vector_5'> +8.1484996e-06 </wgt>
</rwgt>
</event>
<event>
 4      1 +7.6845000e-11 4.82635900e+03 7.81860800e-03 7.40887200e-02
        2 -1    0    0  501    0 +0.0000000000e+00 +0.0000000000e+00 +1.8583839133e+03 1.8583839133e+03 0.0000000000e+00 0.0000e+00 1.0000e+00
       -2 -1    0    0    0  501 -0.0000000000e+00 -0.0000000000e+00 -3.1336019364e+03 3.1336019364e+03 0.0000000000e+00 0.0000e+00 -1.0000e+00
      -13  1    1    2    0    0 +2.0259049363e+03 +1.1939374386e+03 -1.1981077563e+03 2.6391740401e+03 0.0000000000e+00 0.0000e+00 1.0000e+00
       13  1    1    2    0    0 -2.0259049363e+03 -1.1939374386e+03 -7.7110266805e+01 2.3528118096e+03 0.0000000000e+00 0.0000e+00 -1.0000e+00
<mgrwt>
<rscale>  0 0.48263591E+04</rscale>
<asrwt>0</asrwt>
<pdfrwt beam="1">  1        2 0.28590522E+00 0.48263591E+04</pdfrwt>
<pdfrwt beam="2">  1       -2 0.48209260E+00 0.48263591E+04</pdfrwt>
<totfact> 0.10707410E-02</totfact>
</mgrwt>
<rwgt>
<wgt id='morphing_basis_vector_1'> +5.7368776e-06 </wgt>
<wgt id='morphing_basis_vector_2'> +4.0945528e-06 </wgt>
<wgt id='morphing_basis_vector_3'> +6.3624087e-06 </wgt>
<wgt id='morphing_basis_vector_4'> +4.3053237e-06 </wgt>
<wgt id='morphing_basis_vector_5'> +7.1490414e-06 </wgt>
</rwgt>
</event>
<event>
 4      1 +7.6845000e-11 4.68827300e+03 7.81860800e-03 7.42896100e-02
        2 -1    0    0  501    0 +0.0000000000e+00 +0.0000000000e+00 +2.8574957075e+03 2.8574957075e+03 0.0000000000e+00 0.0000e+00 -1.0000e+00
       -2 -1    0    0    0  501 -0.0000000000e+00 -0.0000000000e+00 -1.9230041772e+03 1.9230041772e+03 0.0000000000e+00 0.0000e+00 1.0000e+00
      -13  1    1    2    0    0 -1.4048893911e+03 +4.2030085779e+02 -1.3975578279e+03 2.0257183651e+03 0.0000000000e+00 0.0000e+00 1.0000e+00
       13  1    1    2    0    0 +1.4048893911e+03 -4.2030085779e+02 +2.3320493582e+03 2.7547815197e+03 0.0000000000e+00 0.0000e+00 -1.0000e+00
<mgrwt>
<rscale>  0 0.46882731E+04</rscale>
<asrwt>0</asrwt>
<pdfrwt beam="1">  1        2 0.43961472E+00 0.46882731E+04</pdfrwt>
<pdfrwt beam="2">  1       -2 0.29584680E+00 0.46882731E+04</pdfrwt>
<totfact> 0.49569623E-02</totfact>
</mgrwt>
<rwgt>
<wgt id='morphing_basis_vector_1'> +5.0343142e-06 </wgt>
<wgt id='morphing_basis_vector_2'> +3.4236871e-06 </wgt>
<wgt id='morphing_basis_vector_3'> +5.5422855e-06 </wgt>
<wgt id='morphing_basis_vector_4'> +3.9930796e-06 </wgt>
<wgt id='morphing_basis_vector_5'> +6.3762465e-06 </wgt>
</rwgt>
</event>
<event>
 4      1 +7.6845000e-11 4.63488100e+03 7.81860800e-03 7.43691600e-02
        2 -1    0    0  501    0 +0.0000000000e+00 +0.0000000000e+00 +3.6363414031e+03 3.6363414031e+03 0.0000000000e+00 0.0000e+00 -1.0000e+00
       -2 -1    0    0    0  501 -0.0000000000e+00 -0.0000000000e+00 -1.4769049174e+03 1.4769049174e+03 0.0000000000e+00 0.0000e+00 1.0000e+00
      -13  1    1    2    0    0 +1.9544403602e+03 +9.4664596736e+02 +1.8717117418e+02 2.1796808844e+03 0.0000000000e+00 0.0000e+00 1.0000e+00
       13  1    1    2    0    0 -1.9544403602e+03 -9.4664596736e+02 +1.9722653114e+03 2.9335654361e+03 0.0000000000e+00 0.0000e+00 -1.0000e+00
<mgrwt>
<rscale>  0 0.46348810E+04</rscale>
<asrwt>0</asrwt>
<pdfrwt beam="1">  1        2 0.55943714E+00 0.46348810E+04</pdfrwt>
<pdfrwt beam="2">  1       -2 0.22721614E+00 0.46348810E+04</pdfrwt>
<totfact> 0.42705872E-02</totfact>
</mgrwt>
<rwgt>
<wgt id='morphing_basis_vector_1'> +4.8512786e-06 </wgt>
<wgt id='morphing_basis_vector_2'> +3.3927200e-06 </wgt>
<wgt id='morphing_basis_vector_3'> +5.3614012e-06 </wgt>
<wgt id='morphing_basis_vector_4'> +3.7252438e-06 </wgt>
<wgt id='morphing_basis_vector_5'> +6.0822933e-06 </wgt>
</rwgt>
</event>
<event>
 4      1 +7.6845000e-11 4.73096300e+03 7.81860800e-03 7.42267700e-02
        2 -1    0    0  501    0 +0.0000000000e+00 +0.0000000000e+00 +3.2752841538e+03 3.2752841538e+03 0.0000000000e+00 0.0000e+00 -1.0000e+00
       -2 -1    0    0    0  501 -0.0000000000e+00 -0.0000000000e+00 -1.7084019515e+03 1.7084019515e+03 0.0000000000e+00 0.0000e+00 1.0000e+00
      -13  1    1    2    0    0 +6.9713346136e+02 +2.0912716727e+03 -1.2034674127e+02 2.2076901074e+03 0.0000000000e+00 0.0000e+00 1.0000e+00
       13  1    1    2    0    0 -6.9713346136e+02 -2.0912716727e+03 +1.6872289436e+03 2.7759959979e+03 0.0000000000e+00 0.0000e+00 -1.0000e+00
<mgrwt>
<rscale>  0 0.47309626E+04</rscale>
<asrwt>0</asrwt>
<pdfrwt beam="1">  1        2 0.50388987E+00 0.47309626E+04</pdfrwt>
<pdfrwt beam="2">  1       -2 0.26283107E+00 0.47309626E+04</pdfrwt>
<totfact> 0.43852929E-02</totfact>
</mgrwt>
<rwgt>
<wgt id='morphing_basis_vector_1'> +5.2617660e-06 </wgt>
<wgt id='morphing_basis_vector_2'> +3.6740714e-06 </wgt>
<wgt id='morphing_basis_vector_3'> +5.8153093e-06 </wgt>
<wgt id='morphing_basis_vector_4'> +4.0511096e-06 </wgt>
<wgt id='morphing_basis_vector_5'> +6.6050038e-06 </wgt>
</rwgt>
</event>
<event>
 4      1 +7.6845000e-11 4.63125500e+03 7.81860800e-03 7.43746000e-02
        2 -1    0    0  501    0 +0.0000000000e+00 +0.0000000000e+00 +3.2888550041e+03 3.2888550041e+03 0.0000000000e+00 0.0000e+00 -1.0000e+00
       -2 -1    0    0    0  501 -0.0000000000e+00 -0.0000000000e+00 -1.6303944397e+03 1.6303944397e+03 0.0000000000e+00 0.0000e+00 1.0000e+00
      -13  1    1    2    0    0 -1.0840392233e+03 +1.5598070080e+03 -5.7751006510e+02 1.9853606259e+03 0.0000000000e+00 0.0000e+00 1.0000e+00
       13  1    1    2    0    0 +1.0840392233e+03 -1.5598070080e+03 +2.2359706295e+03 2.9338888179e+03 0.0000000000e+00 0.0000e+00 -1.0000e+00
<mgrwt>
<rscale>  0 0.46312551E+04</rscale>
<asrwt>0</asrwt>
<pdfrwt beam="1">  1        2 0.50597769E+00 0.46312551E+04</pdfrwt>
<pdfrwt beam="2">  1       -2 0.25082992E+00 0.46312551E+04</pdfrwt>
<totfact> 0.52310673E-02</totfact>
</mgrwt>
<rwgt>
<wgt id='morphing_basis_vector_1'> +4.8061463e-06 </wgt>
<wgt id='morphing_basis_vector_2'> +3.2939294e-06 </wgt>
<wgt id='morphing_basis_vector_3'> +5.2960800e-06 </wgt>
<wgt id='morphing_basis_vector_4'> +3.7773996e-06 </wgt>
<wgt id='morphing_basis_vector_5'> +6.0685548e-06 </wgt>
</rwgt>
</event>
<event>
 4      1 +7.6845000e-11 4.74049900e+03 7.81860800e-03 7.42128200e-02
        2 -1    0    0  501    0 +0.0000000000e+00 +0.0000000000e+00 +2.9827500474e+03 2.9827500474e+03 0.0000000000e+00 0.0000e+00 1.0000e+00
       -2 -1    0    0    0  501 -0.0000000000e+00 -0.0000000000e+00 -1.8835242712e+03 1.8835242712e+03 0.0000000000e+00 0.0000e+00 -1.0000e+00
      -13  1    1    2    0    0 +1.9497591691e+03 +1.3384796896e+03 +7.1190048356e+02 2.4697957396e+03 0.0000000000e+00 0.0000e+00 -1.0000e+00
       13  1    1    2    0    0 -1.9497591691e+03 -1.3384796896e+03 +3.8732529259e+02 2.3964785789e+03 0.0000000000e+00 0.0000e+00 1.0000e+00
<mgrwt>
<rscale>  0 0.47404988E+04</rscale>
<asrwt>0</asrwt>
<pdfrwt beam="1">  1        2 0.45888462E+00 0.47404988E+04</pdfrwt>
<pdfrwt beam="2">  1       -2 0.28977296E+00 0.47404988E+04</pdfrwt>
<totfact> 0.45093608E-02</totfact>
</mgrwt>
<rwgt>
<wgt id='morphing_basis_vector_1'> +5.5036156e-06 </wgt>
<wgt id='morphing_basis_vector_2'> +4.2895747e-06 </wgt>
<wgt id='morphing_basis_vector_3'> +6.1852759e-06 </wgt>
<wgt id='morphing_basis_vector_4'> +3.6596308e-06 </wgt>
<wgt id='morphing_basis_vector_5'> +6.6230784e-06 </wgt>
</rwgt>
</event>
<event>
 4      1 +7.6845000e-11 4.93970600e+03 7.81860800e-03 7.39288000e-02
        2 -1    0    0  501    0 +0.0000000000e+00 +0.0000000000e+00 +2.5965862320e+03 2.5965862320e+03 0.0000000000e+00 0.0000e+00 1.0000e+00
       -2 -1    0    0    0  501 -0.0000000000e+00 -0.0000000000e+00 -2.3493056847e+03 2.3493056847e+03 0.0000000000e+00 0.0000e+00 -1.0000e+00
      -13  1    1    2    0    0 -2.2571057050e+03 -7.2046691948e+01 -8.7784114619e+02 2.4228747320e+03 0.0000000000e+00 0.0000e+00 1.0000e+00
       13  1    1    2    0    0 +2.2571057050e+03 +7.2046691948e+01 +1.1251216935e+03 2.5230171847e+03 0.0000000000e+00 0.0000e+00 -1.0000e+00
<mgrwt>
<rscale>  0 0.49397064E+04</rscale>
<asrwt>0</asrwt>
<pdfrwt beam="1">  1        2 0.39947481E+00 0.49397064E+04</pdfrwt>
<pdfrwt beam="2">  1       -2 0.36143164E+00 0.49397064E+04</pdfrwt>
<totfact> 0.26057325E-02</totfact>
</mgrwt>
<rwgt>
<wgt id='morphing_basis_vector_1'> +6.2403825e-06 </wgt>
<wgt id='morphing_basis_vector_2'> +4.3375808e-06 </wgt>
<wgt id='morphing_basis_vector_3'> +6.8959771e-06 </wgt>
<wgt id='morphing_basis_vector_4'> +4.8378904e-06 </wgt>
<wgt id='morphing_basis_vector_5'> +7.8564746e-06 </wgt>
</rwgt>
</event>
<event>
 4      1 +7.6845000e-11 4.99389800e+03 7.81860800e-03 7.38538600e-02
        2 -1    0    0  501    0 +0.0000000000e+00 +0.0000000000e+00 +4.0297041879e+03 4.0297041879e+03 0.0000000000e+00 0.0000e+00 -1.0000e+00
       -2 -1    0    0    0  501 -0.0000000000e+00 -0.0000000000e+00 -1.5471990360e+03 1.5471990360e+03 0.0000000000e+00 0.0000e+00 1.0000e+00
      -13  1    1    2    0    0 +9.7324360907e+02 +5.9954938132e+02 -1.2378405038e+03 1.6849070289e+03 0.0000000000e+00 0.0000e+00 1.0000e+00
       13  1    1    2    0    0 -9.7324360907e+02 -5.9954938132e+02 +3.7203456557e+03 3.8919961949e+03 0.0000000000e+00 0.0000e+00 -1.0000e+00
<mgrwt>
<rscale>  0 0.49938981E+04</rscale>
<asrwt>0</asrwt>
<pdfrwt beam="1">  1        2 0.61995449E+00 0.49938981E+04</pdfrwt>
<pdfrwt beam="2">  1       -2 0.23803062E+00 0.49938981E+04</pdfrwt>
<totfact> 0.16765496E-02</totfact>
</mgrwt>
<rwgt>
<wgt id='morphing_basis_vector_1'> +6.4722212e-06 </wgt>
<wgt id='morphing_basis_vector_2'> +4.3969012e-06 </wgt>
<wgt id='morphing_basis_vector_3'> +7.1295674e-06 </wgt>
<wgt id='morphing_basis_vector_4'> +5.1515502e-06 </wgt>
<wgt id='morphing_basis_vector_5'> +8.2162446e-06 </wgt>
</rwgt>
</event>
<event>
 4      1 +7.6845000e-11 5.10522300e+03 7.81860800e-03 7.37029300e-02
        2 -1    0    0  501    0 +0.0000000000e+00 +0.0000000000e+00 +2.9082173460e+03 2.9082173460e+03 0.0000000000e+00 0.0000e+00 1.0000e+00
       -2 -1    0    0    0  501 -0.0000000000e+00 -0.0000000000e+00 -2.2404876876e+03 2.2404876876e+03 0.0000000000e+00 0.0000e+00 -1.0000e+00
      -13  1    1    2    0    0 +2.0332085208e+03 -1.4551470413e+03 -1.8474777314e+02 2.5070942424e+03 0.0000000000e+00 0.0000e+00 1.0000e+00
       13  1    1    2    0    0 -2.0332085208e+03 +1.4551470413e+03 +8.5247743149e+02 2.6416107911e+03 0.0000000000e+00 0.0000e+00 -1.0000e+00
<mgrwt>
<rscale>  0 0.51052229E+04</rscale>
<asrwt>0</asrwt>
<pdfrwt beam="1">  1        2 0.44741805E+00 0.51052229E+04</pdfrwt>
<pdfrwt beam="2">  1       -2 0.34469041E+00 0.51052229E+04</pdfrwt>
<totfact> 0.21113743E-02</totfact>
</mgrwt>
<rwgt>
<wgt id='morphing_basis_vector_1'> +7.1875580e-06 </wgt>
<wgt id='morphing_basis_vector_2'> +5.1559927e-06 </wgt>
<wgt id='morphing_basis_vector_3'> +7.9826690e-06 </wgt>
<wgt id='morphing_basis_vector_4'> +5.3708223e-06 </wgt>
<wgt id='morphing_basis_vector_5'> +8.9546322e-06 </wgt>
</rwgt>
</event>
<event>
 4      1 +7.6845000e-11 4.66699700e+03 7.81860800e-03 7.43211800e-02
        2 -1    0    0  501    0 +0.0000000000e+00 +0.0000000000e+00 +2.9068005257e+03 2.9068005257e+03 0.0000000000e+00 0.0000e+00 1.0000e+00
       -2 -1    0    0    0  501 -0.0000000000e+00 -0.0000000000e+00 -1.8732679519e+03 1.8732679519e+03 0.0000000000e+00 0.0000e+00 -1.0000e+00
      -13  1    1    2    0    0 +6.9481118197e+02 +1.3129764121e+03 -1.3264301967e+03 1.9915036289e+03 0.0000000000e+00 0.0000e+00 -1.0000e+00
       13  1    1    2    0    0 -6.9481118197e+02 -1.3129764121e+03 +2.3599627705e+03 2.7885648487e+03 0.0000000000e+00 0.0000e+00 1.0000e+00
<mgrwt>
<rscale>  0 0.46669974E+04</rscale>
<asrwt>0</asrwt>
<pdfrwt beam="1">  1        2 0.44720008E+00 0.46669974E+04</pdfrwt>
<pdfrwt beam="2">  1       -2 0.28819507E+00 0.46669974E+04</pdfrwt>
<totfact> 0.52034794E-02</totfact>
</mgrwt>
<rwgt>
<wgt id='morphing_basis_vector_1'> +4.9441770e-06 </wgt>
<wgt id='morphing_basis_vector_2'> +3.3629014e-06 </wgt>
<wgt id='morphing_basis_vector_3'> +5.4428555e-06 </wgt>
<wgt id='morphing_basis_vector_4'> +3.9202206e-06 </wgt>
<wgt id='morphing_basis_vector_5'> +6.2608244e-06 </wgt>
</rwgt>
</event>
<event>
 4      1 +7.6845000e-11 5.20039100e+03 7.81860800e-03 7.35770000e-02
        2 -1    0    0  501    0 +0.0000000000e+00 +0.0000000000e+00 +2.6381711661e+03 2.6381711661e+03 0.0000000000e+00 0.0000e+00 1.0000e+00
       -2 -1    0    0    0  501 -0.0000000000e+00 -0.0000000000e+00 -2.5627664486e+03 2.5627664486e+03 0.0000000000e+00 0.0000e+00 -1.0000e+00
      -13  1    1    2    0    0 +1.6286378231e+03 +6.3454898868e+02 -1.8875721980e+03 2.5725556127e+03 0.0000000000e+00 0.0000e+00 -1.0000e+00
       13  1    1    2    0    0 -1.6286378231e+03 -6.3454898868e+02 +1.9629769154e+03 2.6283820020e+03 0.0000000000e+00 0.0000e+00 1.0000e+00
<mgrwt>
<rscale>  0 0.52003910E+04</rscale>
<asrwt>0</asrwt>
<pdfrwt beam="1">  1        2 0.40587248E+00 0.52003910E+04</pdfrwt>
<pdfrwt beam="2">  1       -2 0.39427176E+00 0.52003910E+04</pdfrwt>
<totfact> 0.14790067E-02</totfact>
</mgrwt>
<rwgt>
<wgt id='morphing_basis_vector_1'> +7.6128725e-06 </wgt>
<wgt id='morphing_basis_vector_2'> +5.1865685e-06 </wgt>
<wgt id='morphing_basis_vector_3'> +8.3931351e-06 </wgt>
<wgt id='morphing_basis_vector_4'> +6.0484130e-06 </wgt>
<wgt id='morphing_basis_vector_5'> +9.6655528e-06 </wgt>
</rwgt>
</event>
<event>
 4      1 +7.6845000e-11 4.62317700e+03 7.81860800e-03 7.43867400e-02
        2 -1    0    0  501    0 +0.0000000000e+00 +0.0000000000e+00 +3.8785061367e+03 3.8785061367e+03 0.0000000000e+00 0.0000e+00 -1.0000e+00
       -2 -1    0    0    0  501 -0.0000000000e+00 -0.0000000000e+00 -1.3777062701e+03 1.3777062701e+03 0.0000000000e+00 0.0000e+00 1.0000e+00
      -13  1    1    2    0    0 +1.6840804295e+03 +4.2223185359e+00 -5.4986029232e+02 1.7715786920e+03 0.0000000000e+00 0.0000e+00 1.0000e+00
       13  1    1    2    0    0 -1.6840804295e+03 -4.2223185359e+00 +3.0506601589e+03 3.4846337147e+03 0.0000000000e+00 0.0000e+00 -1.0000e+00
<mgrwt>
<rscale>  0 0.46231774E+04</rscale>
<asrwt>0</asrwt>
<pdfrwt beam="1">  1        2 0.59669325E+00 0.46231774E+04</pdfrwt>
<pdfrwt beam="2">  1       -2 0.21195481E+00 0.46231774E+04</pdfrwt>
<totfact> 0.35328480E-02</totfact>
</mgrwt>
<rwgt>
<wgt id='morphing_basis_vector_1'> +4.7652990e-06 </wgt>
<wgt id='morphing_basis_vector_2'> +3.2489197e-06 </wgt>
<wgt id='morphing_basis_vector_3'> +5.2470546e-06 </wgt>
<wgt id='morphing_basis_vector_4'> +3.7670325e-06 </wgt>
<wgt id='morphing_basis_vector_5'> +6.0275110e-06 </wgt>
</rwgt>
</event>
<event>
 4      1 +7.6845000e-11 4.98288100e+03 7.81860800e-03 7.38690200e-02
        2 -1    0    0  501    0 +0.0000000000e+00 +0.0000000000e+00 +3.4049620557e+03 3.4049620557e+03 0.0000000000e+00 0.0000e+00 1.0000e+00
       -2 -1    0    0    0  501 -0.0000000000e+00 -0.0000000000e+00 -1.8230084580e+03 1.8230084580e+03 0.0000000000e+00 0.0000e+00 -1.0000e+00
      -13  1    1    2    0    0 +2.0667565275e+03 -6.2882744220e+02 -5.1118489699e+02 2.2199586696e+03 0.0000000000e+00 0.0000e+00 -1.0000e+00
       13  1    1    2    0    0 -2.0667565275e+03 +6.2882744220e+02 +2.0931384948e+03 3.0080118441e+03 0.0000000000e+00 0.0000e+00 1.0000e+00
<mgrwt>
<rscale>  0 0.49828805E+04</rscale>
<asrwt>0</asrwt>
<pdfrwt beam="1">  1        2 0.52384032E+00 0.49828805E+04</pdfrwt>
<pdfrwt beam="2">  1       -2 0.28046284E+00 0.49828805E+04</pdfrwt>
<totfact> 0.26408556E-02</totfact>
</mgrwt>
<rwgt>
<wgt id='morphing_basis_vector_1'> +6.4436297e-06 </wgt>
<wgt id='morphing_basis_vector_2'> +4.4409414e-06 </wgt>
<wgt id='morphing_basis_vector_3'> +7.1125459e-06 </wgt>
<wgt id='morphing_basis_vector_4'> +5.0461284e-06 </wgt>
<wgt id='morphing_basis_vector_5'> +8.1387215e-06 </wgt>
</rwgt>
</event>
<event>
 4      1 +7.6845000e-11 4.76115100e+03 7.81860800e-03 7.41827300e-02
        2 -1    0    0  501    0 +0.0000000000e+00 +0.0000000000e+00 +2.5684156974e+03 2.5684156974e+03 0.0000000000e+00 0.0000e+00 1.0000e+00
       -2 -1    0    0    0  501 -0.0000000000e+00 -0.0000000000e+00 -2.2064725170e+03 2.2064725170e+03 0.0000000000e+00 0.0000e+00 -1.0000e+00
      -13  1    1    2    0    0 +2.1525211963e+03 -8.9106471861e+02 +6.7207300852e+02 2.4246702791e+03 0.0000000000e+00 0.0000e+00 -1.0000e+00
       13  1    1    2    0    0 -2.1525211963e+03 +8.9106471861e+02 -3.1012982816e+02 2.3502179354e+03 0.0000000000e+00 0.0000e+00 1.0000e+00
<mgrwt>
<rscale>  0 0.47611506E+04</rscale>
<asrwt>0</asrwt>
<pdfrwt beam="1">  1        2 0.39514088E+00 0.47611506E+04</pdfrwt>
<pdfrwt beam="2">  1       -2 0.33945731E+00 0.47611506E+04</pdfrwt>
<totfact> 0.38137680E-02</totfact>
</mgrwt>
<rwgt>
<wgt id='morphing_basis_vector_1'> +5.7518906e-06 </wgt>
<wgt id='morphing_basis_vector_2'> +4.8113956e-06 </wgt>
<wgt id='morphing_basis_vector_3'> +6.5401068e-06 </wgt>
<wgt id='morphing_basis_vector_4'> +3.4004054e-06 </wgt>
<wgt id='morphing_basis_vector_5'> +6.7125542e-06 </wgt>
</rwgt>
</event>
<event>
 4      1 +7.6845000e-11 4.94071500e+03 7.81860800e-03 7.39274000e-02
        2 -1    0    0  501    0 +0.0000000000e+00 +0.0000000000e+00 +3.1101547981e+03 3.1101547981e+03 0.0000000000e+00 0.0000e+00 -1.0000e+00
       -2 -1    0    0    0  501 -0.0000000000e+00 -0.0000000000e+00 -1.9621744830e+03 1.9621744830e+03 0.0000000000e+00 0.0000e+00 1.0000e+00
      -13  1    1    2    0    0 +1.2458658334e+03 -1.5649293918e+03 -9.1427506183e+02 2.1993373013e+03 0.0000000000e+00 0.0000e+00 1.0000e+00
       13  1    1    2    0    0 -1.2458658334e+03 +1.5649293918e+03 +2.0622553769e+03 2.8729919798e+03 0.0000000000e+00 0.0000e+00 -1.0000e+00
<mgrwt>
<rscale>  0 0.49407151E+04</rscale>
<asrwt>0</asrwt>
<pdfrwt beam="1">  1        2 0.47848535E+00 0.49407151E+04</pdfrwt>
<pdfrwt beam="2">  1       -2 0.30187300E+00 0.49407151E+04</pdfrwt>
<totfact> 0.30325981E-02</totfact>
</mgrwt>
<rwgt>
<wgt id='morphing_basis_vector_1'> +6.2179503e-06 </wgt>
<wgt id='morphing_basis_vector_2'> +4.2603179e-06 </wgt>
<wgt id='morphing_basis_vector_3'> +6.8569824e-06 </wgt>
<wgt id='morphing_basis_vector_4'> +4.9004607e-06 </wgt>
<wgt id='morphing_basis_vector_5'> +7.8678263e-06 </wgt>
</rwgt>
</event>
<event>
 4      1 +7.6845000e-11 4.81063200e+03 7.81860800e-03 7.41112600e-02
        2 -1    0    0  501    0 +0.0000000000e+00 +0.0000000000e+00 +3.2962722245e+03 3.2962722245e+03 0.0000000000e+00 0.0000e+00 1.0000e+00
       -2 -1    0    0    0  501 -0.0000000000e+00 -0.0000000000e+00 -1.7551778432e+03 1.7551778432e+03 0.0000000000e+00 0.0000e+00 -1.0000e+00
      -13  1    1    2    0    0 +1.9385771729e+02 +2.3970095641e+03 +7.2009722226e+02 2.5103337775e+03 0.0000000000e+00 0.0000e+00 -1.0000e+00
       13  1    1    2    0    0 -1.9385771729e+02 -2.3970095641e+03 +8.2099715905e+02 2.5411162902e+03 0.0000000000e+00 0.0000e+00 1.0000e+00
<mgrwt>
<rscale>  0 0.48106315E+04</rscale>
<asrwt>0</asrwt>
<pdfrwt beam="1">  1        2 0.50711880E+00 0.48106315E+04</pdfrwt>
<pdfrwt beam="2">  1       -2 0.27002736E+00 0.48106315E+04</pdfrwt>
<totfact> 0.37617642E-02</totfact>
</mgrwt>
<rwgt>
<wgt id='morphing_basis_vector_1'> +5.7661329e-06 </wgt>
<wgt id='morphing_basis_vector_2'> +4.3452386e-06 </wgt>
<wgt id='morphing_basis_vector_3'> +6.4474272e-06 </wgt>
<wgt id='morphing_basis_vector_4'> +4.0291942e-06 </wgt>
<wgt id='morphing_basis_vector_5'> +7.0375619e-06 </wgt>
</rwgt>
</event>
<event>
 4      1 +7.6845000e-11 5.06414500e+03 7.81860800e-03 7.37581600e-02
        2 -1    0    0  501    0 +0.0000000000e+00 +0.0000000000e+00 +2.0760925932e+03 2.0760925932e+03 0.0000000000e+00 0.0000e+00 1.0000e+00
       -2 -1    0    0    0  501 -0.0000000000e+00 -0.0000000000e+00 -3.0882008488e+03 3.0882008488e+03 0.0000000000e+00 0.0000e+00 -1.0000e+00
      -13  1    1    2    0    0 -1.0326291973e+03 -7.3119770978e+02 -2.7426946265e+03 3.0204878685e+03 0.0000000000e+00 0.0000e+00 -1.0000e+00
       13  1    1    2    0    0 +1.0326291973e+03 +7.3119770978e+02 +1.7305863708e+03 2.1438055734e+03 0.0000000000e+00 0.0000e+00 1.0000e+00
<mgrwt>
<rscale>  0 0.50641449E+04</rscale>
<asrwt>0</asrwt>
<pdfrwt beam="1">  1        2 0.31939886E+00 0.50641449E+04</pdfrwt>
<pdfrwt beam="2">  1       -2 0.47510782E+00 0.50641449E+04</pdfrwt>
<totfact> 0.89341913E-03</totfact>
</mgrwt>
<rwgt>
<wgt id='morphing_basis_vector_1'> +6.8433745e-06 </wgt>
<wgt id='morphing_basis_vector_2'> +4.6506228e-06 </wgt>
<wgt id='morphing_basis_vector_3'> +7.5399408e-06 </wgt>
<wgt id='morphing_basis_vector_4'> +5.4475071e-06 </wgt>
<wgt id='morphing_basis_vector_5'> +8.6898249e-06 </wgt>
</rwgt>
</event>
<event>
 4      1 +7.6845000e-11 4.98890300e+03 7.81860800e-03 7.38607300e-02
        2 -1    0    0  501    0 +0.0000000000e+00 +0.0000000000e+00 +5.4339556752e+03 5.4339556752e+03 0.0000000000e+00 0.0000e+00 1.0000e+00
       -2 -1    0    0    0  501 -0.0000000000e+00 -0.0000000000e+00 -1.1450754705e+03 1.1450754705e+03 0.0000000000e+00 0.0000e+00 -1.0000e+00
      -13  1    1    2    0    0 -1.5923747837e+03 -1.6158103868e+03 +7.7664724012e+02 2.3978493684e+03 0.0000000000e+00 0.0000e+00 -1.0000e+00
       13  1    1    2    0    0 +1.5923747837e+03 +1.6158103868e+03 +3.5122329646e+03 4.1811817774e+03 0.0000000000e+00 0.0000e+00 1.0000e+00
<mgrwt>
<rscale>  0 0.49889034E+04</rscale>
<asrwt>0</asrwt>
<pdfrwt beam="1">  1        2 0.83599317E+00 0.49889034E+04</pdfrwt>
<pdfrwt beam="2">  1       -2 0.17616546E+00 0.49889034E+04</pdfrwt>
<totfact> 0.94656448E-04</totfact>
</mgrwt>
<rwgt>
<wgt id='morphing_basis_vector_1'> +6.4895609e-06 </wgt>
<wgt id='morphing_basis_vector_2'> +4.5059563e-06 </wgt>
<wgt id='morphing_basis_vector_3'> +7.1710452e-06 </wgt>
<wgt id='morphing_basis_vector_4'> +5.0390626e-06 </wgt>
<wgt id='morphing_basis_vector_5'> +8.1756208e-06 </wgt>
</rwgt>
</event>
<event>
 4      1 +7.6845000e-11 4.67420100e+03 7.81860800e-03 7.43104700e-02
        2 -1    0    0  501    0 +0.0000000000e+00 +0.0000000000e+00 +2.6796299004e+03 2.6796299004e+03 0.0000000000e+00 0.0000e+00 -1.0000e+00
       -2 -1    0    0    0  501 -0.0000000000e+00 -0.0000000000e+00 -2.0383556794e+03 2.0383556794e+03 0.0000000000e+00 0.0000e+00 1.0000e+00
      -13  1    1    2    0    0 -9.8589067811e+02 -1.2636410666e+03 -1.3962576601e+03 2.1256304071e+03 0.0000000000e+00 0.0000e+00 1.0000e+00
       13  1    1    2    0    0 +9.8589067811e+02 +1.2636410666e+03 +2.0375318811e+03 2.5923551726e+03 0.0000000000e+00 0.0000e+00 -1.0000e+00
<mgrwt>
<rscale>  0 0.46742010E+04</rscale>
<asrwt>0</asrwt>
<pdfrwt beam="1">  1        2 0.41225076E+00 0.46742010E+04</pdfrwt>
<pdfrwt beam="2">  1       -2 0.31359318E+00 0.46742010E+04</pdfrwt>
<totfact> 0.48707199E-02</totfact>
</mgrwt>
<rwgt>
<wgt id='morphing_basis_vector_1'> +4.9763017e-06 </wgt>
<wgt id='morphing_basis_vector_2'> +3.3885097e-06 </wgt>
<wgt id='morphing_basis_vector_3'> +5.4791895e-06 </wgt>
<wgt id='morphing_basis_vector_4'> +3.9410710e-06 </wgt>
<wgt id='morphing_basis_vector_5'> +6.2994175e-06 </wgt>
</rwgt>
</event>
<event>
 4      1 +7.6845000e-11 4.84892700e+03 7.81860800e-03 7.40565300e-02
        2 -1    0    0  501    0 +0.0000000000e+00 +0.0000000000e+00 +2.9069759603e+03 2.9069759603e+03 0.0000000000e+00 0.0000e+00 1.0000e+00
       -2 -1    0    0    0  501 -0.0000000000e+00 -0.0000000000e+00 -2.0220404718e+03 2.0220404718e+03 0.0000000000e+00 0.0000e+00 -1.0000e+00
      -13  1    1    2    0    0 +1.0686262685e+03 +2.0973287487e+03 -1.4787666535e+02 2.3585201907e+03 0.0000000000e+00 0.0000e+00 -1.0000e+00
       13  1    1    2    0    0 -1.0686262685e+03 -2.0973287487e+03 +1.0328121538e+03 2.5704962414e+03 0.0000000000e+00 0.0000e+00 1.0000e+00
<mgrwt>
<rscale>  0 0.48489269E+04</rscale>
<asrwt>0</asrwt>
<pdfrwt beam="1">  1        2 0.44722707E+00 0.48489269E+04</pdfrwt>
<pdfrwt beam="2">  1       -2 0.31108315E+00 0.48489269E+04</pdfrwt>
<totfact> 0.35966432E-02</totfact>
</mgrwt>
<rwgt>
<wgt id='morphing_basis_vector_1'> +5.8392325e-06 </wgt>
<wgt id='morphing_basis_vector_2'> +4.1559319e-06 </wgt>
<wgt id='morphing_basis_vector_3'> +6.4736188e-06 </wgt>
<wgt id='morphing_basis_vector_4'> +4.3980105e-06 </wgt>
<wgt id='morphing_basis_vector_5'> +7.2851041e-06 </wgt>
</rwgt>
</event>
<event>
 4      1 +7.6845000e-11 5.32665300e+03 7.81860800e-03 7.34141300e-02
        2 -1    0    0  501    0 +0.0000000000e+00 +0.0000000000e+00 +4.2781279932e+03 4.2781279932e+03 0.0000000000e+00 0.0000e+00 -1.0000e+00
       -2 -1    0    0    0  501 -0.0000000000e+00 -0.0000000000e+00 -1.6580402209e+03 1.6580402209e+03 0.0000000000e+00 0.0000e+00 1.0000e+00
      -13  1    1    2    0    0 +9.2337190552e+02 -1.7408279018e+03 -6.8668252828e+02 2.0867751087e+03 0.0000000000e+00 0.0000e+00 1.0000e+00
       13  1    1    2    0    0 -9.2337190552e+02 +1.7408279018e+03 +3.3067703005e+03 3.8493931054e+03 0.0000000000e+00 0.0000e+00 -1.0000e+00
<mgrwt>
<rscale>  0 0.53266531E+04</rscale>
<asrwt>0</asrwt>
<pdfrwt beam="1">  1        2 0.65817353E+00 0.53266531E+04</pdfrwt>
<pdfrwt beam="2">  1       -2 0.25508311E+00 0.53266531E+04</pdfrwt>
<totfact> 0.74307745E-03</totfact>
</mgrwt>
<rwgt>
<wgt id='morphing_basis_vector_1'> +8.3826378e-06 </wgt>
<wgt id='morphing_basis_vector_2'> +5.7242586e-06 </wgt>
<wgt id='morphing_basis_vector_3'> +9.2471118e-06 </wgt>
<wgt id='morphing_basis_vector_4'> +6.6477301e-06 </wgt>
<wgt id='morphing_basis_vector_5'> +1.0640935e-05 </wgt>
</rwgt>
</event>
<event>
 4      1 +7.6845000e-11 4.62116200e+03 7.81860800e-03 7.43897800e-02
        2 -1    0    0  501    0 +0.0000000000e+00 +0.0000000000e+00 +2.9515058708e+03 2.9515058708e+03 0.0000000000e+00 0.0000e+00 -1.0000e+00
       -2 -1    0    0    0  501 -0.0000000000e+00 -0.0000000000e+00 -1.8088342617e+03 1.8088342617e+03 0.0000000000e+00 0.0000e+00 1.0000e+00
      -13  1    1    2    0    0 -4.4797694638e+02 +1.5099496973e+03 +2.3128601540e+03 2.7982054115e+03 0.0000000000e+00 0.0000e+00 1.0000e+00
       13  1    1    2    0    0 +4.4797694638e+02 -1.5099496973e+03 -1.1701885449e+03 1.9621347211e+03 0.0000000000e+00 0.0000e+00 -1.0000e+00
<mgrwt>
<rscale>  0 0.46211622E+04</rscale>
<asrwt>0</asrwt>
<pdfrwt beam="1">  1        2 0.45407783E+00 0.46211622E+04</pdfrwt>
<pdfrwt beam="2">  1       -2 0.27828219E+00 0.46211622E+04</pdfrwt>
<totfact> 0.57078435E-02</totfact>
</mgrwt>
<rwgt>
<wgt id='morphing_basis_vector_1'> +6.1970306e-06 </wgt>
<wgt id='morphing_basis_vector_2'> +7.4732651e-06 </wgt>
<wgt id='morphing_basis_vector_3'> +7.5667518e-06 </wgt>
<wgt id='morphing_basis_vector_4'> +6.9902499e-07 </wgt>
<wgt id='morphing_basis_vector_5'> +5.7608074e-06 </wgt>
</rwgt>
</event>
<event>
 4      1 +7.6845000e-11 4.69718500e+03 7.81860800e-03 7.42764400e-02
        2 -1    0    0  501    0 +0.0000000000e+00 +0.0000000000e+00 +3.9069745502e+03 3.9069745502e+03 0.0000000000e+00 0.0000e+00 1.0000e+00
       -2 -1    0    0    0  501 -0.0000000000e+00 -0.0000000000e+00 -1.4118048651e+03 1.4118048651e+03 0.0000000000e+00 0.0000e+00 -1.0000e+00
      -13  1    1    2    0    0 +9.4628151921e+02 +7.0704502762e+01 -1.1850717648e+03 1.5181709153e+03 0.0000000000e+00 0.0000e+00 -1.0000e+00
       13  1    1    2    0    0 -9.4628151921e+02 -7.0704502762e+01 +3.6802414500e+03 3.8006085000e+03 0.0000000000e+00 0.0000e+00 1.0000e+00
<mgrwt>
<rscale>  0 0.46971846E+04</rscale>
<asrwt>0</asrwt>
<pdfrwt beam="1">  1        2 0.60107301E+00 0.46971846E+04</pdfrwt>
<pdfrwt beam="2">  1       -2 0.21720075E+00 0.46971846E+04</pdfrwt>
<totfact> 0.30525178E-02</totfact>
</mgrwt>
<rwgt>
<wgt id='morphing_basis_vector_1'> +5.0698142e-06 </wgt>
<wgt id='morphing_basis_vector_2'> +3.4416984e-06 </wgt>
<wgt id='morphing_basis_vector_3'> +5.5800959e-06 </wgt>
<wgt id='morphing_basis_vector_4'> +4.0294670e-06 </wgt>
<wgt id='morphing_basis_vector_5'> +6.4255287e-06 </wgt>
</rwgt>
</event>
<event>
 4      1 +7.6845000e-11 4.74752600e+03 7.81860800e-03 7.42025700e-02
        2 -1    0    0  501    0 +0.0000000000e+00 +0.0000000000e+00 +1.7095968926e+03 1.7095968926e+03 0.0000000000e+00 0.0000e+00 -1.0000e+00
       -2 -1    0    0    0  501 -0.0000000000e+00 -0.0000000000e+00 -3.2959523462e+03 3.2959523462e+03 0.0000000000e+00 0.0000e+00 1.0000e+00
      -13  1    1    2    0    0 -1.7079745776e+03 +7.6844332879e+02 -2.3308899432e+03 2.9901053885e+03 0.0000000000e+00 0.0000e+00 1.0000e+00
       13  1    1    2    0    0 +1.7079745776e+03 -7.6844332879e+02 +7.4453448958e+02 2.0154438502e+03 0.0000000000e+00 0.0000e+00 -1.0000e+00
<mgrwt>
<rscale>  0 0.47475256E+04</rscale>
<asrwt>0</asrwt>
<pdfrwt beam="1">  1        2 0.26301491E+00 0.47475256E+04</pdfrwt>
<pdfrwt beam="2">  1       -2 0.50706959E+00 0.47475256E+04</pdfrwt>
<totfact> 0.84731721E-03</totfact>
</mgrwt>
<rwgt>
<wgt id='morphing_basis_vector_1'> +5.3016638e-06 </wgt>
<wgt id='morphing_basis_vector_2'> +3.6261342e-06 </wgt>
<wgt id='morphing_basis_vector_3'> +5.8422659e-06 </wgt>
<wgt id='morphing_basis_vector_4'> +4.1804714e-06 </wgt>
<wgt id='morphing_basis_vector_5'> +6.7043563e-06 </wgt>
</rwgt>
</event>
<event>
 4      1 +7.6845000e-11 4.74244500e+03 7.81860800e-03 7.42099800e-02
        2 -1    0    0  501    0 +0.0000000000e+00 +0.0000000000e+00 +2.8761630377e+03 2.8761630377e+03 0.0000000000e+00 0.0000e+00 -1.0000e+00
       -2 -1    0    0    0  501 -0.0000000000e+00 -0.0000000000e+00 -1.9549291809e+03 1.9549291809e+03 0.0000000000e+00 0.0000e+00 1.0000e+00
      -13  1    1    2    0    0 +1.3208021568e+03 -2.8021554171e+02 -1.5250902453e+03 2.0368945342e+03 0.0000000000e+00 0.0000e+00 1.0000e+00
       13  1    1    2    0    0 -1.3208021568e+03 +2.8021554171e+02 +2.4463241021e+03 2.7941976845e+03 0.0000000000e+00 0.0000e+00 -1.0000e+00
<mgrwt>
<rscale>  0 0.47424445E+04</rscale>
<asrwt>0</asrwt>
<pdfrwt beam="1">  1        2 0.44248662E+00 0.47424445E+04</pdfrwt>
<pdfrwt beam="2">  1       -2 0.30075834E+00 0.47424445E+04</pdfrwt>
<totfact> 0.44507058E-02</totfact>
</mgrwt>
<rwgt>
<wgt id='morphing_basis_vector_1'> +5.2689372e-06 </wgt>
<wgt id='morphing_basis_vector_2'> +3.5808487e-06 </wgt>
<wgt id='morphing_basis_vector_3'> +5.8008677e-06 </wgt>
<wgt id='morphing_basis_vector_4'> +4.1841349e-06 </wgt>
<wgt id='morphing_basis_vector_5'> +6.6774080e-06 </wgt>
</rwgt>
</event>
<event>
 4      1 +7.6845000e-11 5.12640800e+03 7.81860800e-03 7.36746500e-02
        2 -1    0    0  501    0 +0.0000000000e+00 +0.0000000000e+00 +3.5824404949e+03 3.5824404949e+03 0.0000000000e+00 0.0000e+00 -1.0000e+00
       -2 -1    0    0    0  501 -0.0000000000e+00 -0.0000000000e+00 -1.8339496835e+03 1.8339496835e+03 0.0000000000e+00 0.0000e+00 1.0000e+00
      -13  1    1    2    0    0 -2.5472987275e+03 -2.6830476624e+02 +9.7612248664e+02 2.7410825168e+03 0.0000000000e+00 0.0000e+00 1.0000e+00
       13  1    1    2    0    0 +2.5472987275e+03 +2.6830476624e+02 +7.7236832479e+02 2.6753076616e+03 0.0000000000e+00 0.0000e+00 -1.0000e+00
<mgrwt>
<rscale>  0 0.51264083E+04</rscale>
<asrwt>0</asrwt>
<pdfrwt beam="1">  1        2 0.55114469E+00 0.51264083E+04</pdfrwt>
<pdfrwt beam="2">  1       -2 0.28214611E+00 0.51264083E+04</pdfrwt>
<totfact> 0.18855668E-02</totfact>
</mgrwt>
<rwgt>
<wgt id='morphing_basis_vector_1'> +7.4860786e-06 </wgt>
<wgt id='morphing_basis_vector_2'> +5.7671674e-06 </wgt>
<wgt id='morphing_basis_vector_3'> +8.4065213e-06 </wgt>
<wgt id='morphing_basis_vector_4'> +5.0794836e-06 </wgt>
<wgt id='morphing_basis_vector_5'> +9.0726701e-06 </wgt>
</rwgt>
</event>
<event>
 4      1 +7.6845000e-11 4.75048800e+03 7.81860800e-03 7.41982500e-02
        2 -1    0    0  501    0 +0.0000000000e+00 +0.0000000000e+00 +3.2133125684e+03 3.2133125684e+03 0.0000000000e+00 0.0000e+00 -1.0000e+00
       -2 -1    0    0    0  501 -0.0000000000e+00 -0.0000000000e+00 -1.7557530000e+03 1.7557530000e+03 0.0000000000e+00 0.0000e+00 1.0000e+00
      -13  1    1    2    0    0 +2.3321163626e+03 +1.8662092599e+02 +1.1577581965e+03 2.6103636031e+03 0.0000000000e+00 0.0000e+00 1.0000e+00
       13  1    1    2    0    0 -2.3321163626e+03 -1.8662092599e+02 +2.9980137193e+02 2.3587019653e+03 0.0000000000e+00 0.0000e+00 -1.0000e+00
<mgrwt>
<rscale>  0 0.47504876E+04</rscale>
<asrwt>0</asrwt>
<pdfrwt beam="1">  1        2 0.49435578E+00 0.47504876E+04</pdfrwt>
<pdfrwt beam="2">  1       -2 0.27011585E+00 0.47504876E+04</pdfrwt>
<totfact> 0.43057173E-02</totfact>
</mgrwt>
<rwgt>
<wgt id='morphing_basis_vector_1'> +5.6589551e-06 </wgt>
<wgt id='morphing_basis_vector_2'> +4.6458546e-06 </wgt>
<wgt id='morphing_basis_vector_3'> +6.4140513e-06 </wgt>
<wgt id='morphing_basis_vector_4'> +3.4588112e-06 </wgt>
<wgt id='morphing_basis_vector_5'> +6.6598588e-06 </wgt>
</rwgt>
</event>
<event>
 4      1 +7.6845000e-11 4.83574000e+03 7.81860800e-03 7.40753200e-02
        2 -1    0    0  501    0 +0.0000000000e+00 +0.0000000000e+00 +4.0118721923e+03 4.0118721923e+03 0.0000000000e+00 0.0000e+00 1.0000e+00
       -2 -1    0    0    0  501 -0.0000000000e+00 -0.0000000000e+00 -1.4571986019e+03 1.4571986019e+03 0.0000000000e+00 0.0000e+00 -1.0000e+00
      -13  1    1    2    0    0 -1.4480525217e+03 -1.7676996299e+03 +3.8360199495e+02 2.3170603310e+03 0.0000000000e+00 0.0000e+00 -1.0000e+00
       13  1    1    2    0    0 +1.4480525217e+03 +1.7676996299e+03 +2.1710715954e+03 3.1520104631e+03 0.0000000000e+00 0.0000e+00 1.0000e+00
<mgrwt>
<rscale>  0 0.48357397E+04</rscale>
<asrwt>0</asrwt>
<pdfrwt beam="1">  1        2 0.61721110E+00 0.48357397E+04</pdfrwt>
<pdfrwt beam="2">  1       -2 0.22418440E+00 0.48357397E+04</pdfrwt>
<totfact> 0.21992508E-02</totfact>
</mgrwt>
<rwgt>
<wgt id='morphing_basis_vector_1'> +5.7503511e-06 </wgt>
<wgt id='morphing_basis_vector_2'> +4.0350876e-06 </wgt>
<wgt id='morphing_basis_vector_3'> +6.3616147e-06 </wgt>
<wgt id='morphing_basis_vector_4'> +4.4052100e-06 </wgt>
<wgt id='morphing_basis_vector_5'> +7.2105190e-06 </wgt>
</rwgt>
</event>
<event>
 4      1 +7.6845000e-11 4.83821900e+03 7.81860800e-03 7.40717800e-02
        2 -1    0    0  501    0 +0.0000000000e+00 +0.0000000000e+00 +2.9745062366e+03 2.9745062366e+03 0.0000000000e+00 0.0000e+00 -1.0000e+00
       -2 -1    0    0    0  501 -0.0000000000e+00 -0.0000000000e+00 -1.9674161775e+03 1.9674161775e+03 0.0000000000e+00 0.0000e+00 1.0000e+00
      -13  1    1    2    0    0 -8.9226092315e+02 +1.7606975009e+03 -9.2496865511e+02 2.1798514302e+03 0.0000000000e+00 0.0000e+00 1.0000e+00
       13  1    1    2    0    0 +8.9226092315e+02 -1.7606975009e+03 +1.9320587142e+03 2.7620709838e+03 0.0000000000e+00 0.0000e+00 -1.0000e+00
<mgrwt>
<rscale>  0 0.48382194E+04</rscale>
<asrwt>0</asrwt>
<pdfrwt beam="1">  1        2 0.45761635E+00 0.48382194E+04</pdfrwt>
<pdfrwt beam="2">  1       -2 0.30267941E+00 0.48382194E+04</pdfrwt>
<totfact> 0.37075523E-02</totfact>
</mgrwt>
<rwgt>
<wgt id='morphing_basis_vector_1'> +5.7203053e-06 </wgt>
<wgt id='morphing_basis_vector_2'> +3.9205675e-06 </wgt>
<wgt id='morphing_basis_vector_3'> +6.3069173e-06 </wgt>
<wgt id='morphing_basis_vector_4'> +4.5032844e-06 </wgt>
<wgt id='morphing_basis_vector_5'> +7.2328259e-06 </wgt>
</rwgt>
</event>
<event>
 4      1 +7.6845000e-11 4.95196600e+03 7.81860800e-03 7.39117600e-02
        2 -1    0    0  501    0 +0.0000000000e+00 +0.0000000000e+00 +1.8804733262e+03 1.8804733262e+03 0.0000000000e+00 0.0000e+00 1.0000e+00
       -2 -1    0    0    0  501 -0.0000000000e+00 -0.0000000000e+00 -3.2600785860e+03 3.2600785860e+03 0.0000000000e+00 0.0000e+00 -1.0000e+00
      -13  1    1    2    0    0 -1.7099685540e+03 +1.5207357392e+03 +2.9164508469e+02 2.3068780851e+03 0.0000000000e+00 0.0000e+00 1.0000e+00
       13  1    1    2    0    0 +1.7099685540e+03 -1.5207357392e+03 -1.6712503445e+03 2.8336738271e+03 0.0000000000e+00 0.0000e+00 -1.0000e+00
<mgrwt>
<rscale>  0 0.49519656E+04</rscale>
<asrwt>0</asrwt>
<pdfrwt beam="1">  1        2 0.28930359E+00 0.49519656E+04</pdfrwt>
<pdfrwt beam="2">  1       -2 0.50155055E+00 0.49519656E+04</pdfrwt>
<totfact> 0.73701973E-03</totfact>
</mgrwt>
<rwgt>
<wgt id='morphing_basis_vector_1'> +7.0814870e-06 </wgt>
<wgt id='morphing_basis_vector_2'> +6.6688728e-06 </wgt>
<wgt id='morphing_basis_vector_3'> +8.2285812e-06 </wgt>
<wgt id='morphing_basis_vector_4'> +3.2265744e-06 </wgt>
<wgt id='morphing_basis_vector_5'> +7.7959086e-06 </wgt>
</rwgt>
</event>
<event>
 4      1 +7.6845000e-11 4.93370400e+03 7.81860800e-03 7.39371600e-02
        2 -1    0    0  501    0 +0.0000000000e+00 +0.0000000000e+00 +2.4317899295e+03 2.4317899295e+03 0.0000000000e+00 0.0000e+00 -1.0000e+00
       -2 -1    0    0    0  501 -0.0000000000e+00 -0.0000000000e+00 -2.5024192038e+03 2.5024192038e+03 0.0000000000e+00 0.0000e+00 1.0000e+00
      -13  1    1    2    0    0 +9.1095928194e+02 -9.4351323193e+02 -2.1248572673e+03 2.4970147054e+03 0.0000000000e+00 0.0000e+00 1.0000e+00
       13  1    1    2    0    0 -9.1095928194e+02 +9.4351323193e+02 +2.0542279930e+03 2.4371944279e+03 0.0000000000e+00 0.0000e+00 -1.0000e+00
<mgrwt>
<rscale>  0 0.49337036E+04</rscale>
<asrwt>0</asrwt>
<pdfrwt beam="1">  1        2 0.37412153E+00 0.49337036E+04</pdfrwt>
<pdfrwt beam="2">  1       -2 0.38498757E+00 0.49337036E+04</pdfrwt>
<totfact> 0.23066715E-02</totfact>
</mgrwt>
<rwgt>
<wgt id='morphing_basis_vector_1'> +6.1676211e-06 </wgt>
<wgt id='morphing_basis_vector_2'> +4.1915011e-06 </wgt>
<wgt id='morphing_basis_vector_3'> +6.7934527e-06 </wgt>
<wgt id='morphing_basis_vector_4'> +4.9050462e-06 </wgt>
<wgt id='morphing_basis_vector_5'> +7.8258331e-06 </wgt>
</rwgt>
</event>
<event>
 4      1 +7.6845000e-11 5.51845200e+03 7.81860800e-03 7.31753600e-02
        2 -1    0    0  501    0 +0.0000000000e+00 +0.0000000000e+00 +4.5934189821e+03 4.5934189821e+03 0.0000000000e+00 0.0000e+00 -1.0000e+00
       -2 -1    0    0    0  501 -0.0000000000e+00 -0.0000000000e+00 -1.6574423402e+03 1.6574423402e+03 0.0000000000e+00 0.0000e+00 1.0000e+00
      -13  1    1    2    0    0 +8.6997212923e+02 -1.1987866992e+03 -1.1689360139e+03 1.8868896259e+03 0.0000000000e+00 0.0000e+00 1.0000e+00
       13  1    1    2    0    0 -8.6997212923e+02 +1.1987866992e+03 +4.1049126558e+03 4.3639716965e+03 0.0000000000e+00 0.0000e+00 -1.0000e+00
<mgrwt>
<rscale>  0 0.55184516E+04</rscale>
<asrwt>0</asrwt>
<pdfrwt beam="1">  1        2 0.70667984E+00 0.55184516E+04</pdfrwt>
<pdfrwt beam="2">  1       -2 0.25499113E+00 0.55184516E+04</pdfrwt>
<totfact> 0.35240501E-03</totfact>
</mgrwt>
<rwgt>
<wgt id='morphing_basis_vector_1'> +9.6407660e-06 </wgt>
<wgt id='morphing_basis_vector_2'> +6.5575167e-06 </wgt>
<wgt id='morphing_basis_vector_3'> +1.0632538e-05 </wgt>
<wgt id='morphing_basis_vector_4'> +7.6870444e-06 </wgt>
<wgt id='morphing_basis_vector_5'> +1.2265187e-05 </wgt>
</rwgt>
</event>
<event>
 4      1 +7.6845000e-11 5.03724800e+03 7.81860800e-03 7.37946100e-02
        2 -1    0    0  501    0 +0.0000000000e+00 +0.0000000000e+00 +2.5032120964e+03 2.5032120964e+03 0.0000000000e+00 0.0000e+00 -1.0000e+00
       -2 -1    0    0    0  501 -0.0000000000e+00 -0.0000000000e+00 -2.5341303600e+03 2.5341303600e+03 0.0000000000e+00 0.0000e+00 1.0000e+00
      -13  1    1    2    0    0 -6.9938223982e+02 +2.2986221476e+03 -7.7089806101e+02 2.5233079707e+03 0.0000000000e+00 0.0000e+00 1.0000e+00
       13  1    1    2    0    0 +6.9938223982e+02 -2.2986221476e+03 +7.3997979743e+02 2.5140344857e+03 0.0000000000e+00 0.0000e+00 -1.0000e+00
<mgrwt>
<rscale>  0 0.50372476E+04</rscale>
<asrwt>0</asrwt>
<pdfrwt beam="1">  1        2 0.38510955E+00 0.50372476E+04</pdfrwt>
<pdfrwt beam="2">  1       -2 0.38986621E+00 0.50372476E+04</pdfrwt>
<totfact> 0.19297726E-02</totfact>
</mgrwt>
<rwgt>
<wgt id='morphing_basis_vector_1'> +6.7751159e-06 </wgt>
<wgt id='morphing_basis_vector_2'> +4.7744895e-06 </wgt>
<wgt id='morphing_basis_vector_3'> +7.5036452e-06 </wgt>
<wgt id='morphing_basis_vector_4'> +5.1714125e-06 </wgt>
<wgt id='morphing_basis_vector_5'> +8.4926158e-06 </wgt>
</rwgt>
</event>
<event>
 4      1 +7.6845000e-11 5.13796600e+03 7.81860800e-03 7.36592900e-02
        2 -1    0    0  501    0 +0.0000000000e+00 +0.0000000000e+00 +2.3302686388e+03 2.3302686388e+03 0.0000000000e+00 0.0000e+00 -1.0000e+00
       -2 -1    0    0    0  501 -0.0000000000e+00 -0.0000000000e+00 -2.8321513742e+03 2.8321513742e+03 0.0000000000e+00 0.0000e+00 1.0000e+00
      -13  1    1    2    0    0 -3.9158111948e+02 +9.2707585470e+02 -2.6258468144e+03 2.8120947541e+03 0.0000000000e+00 0.0000e+00 1.0000e+00
       13  1    1    2    0    0 +3.9158111948e+02 -9.2707585470e+02 +2.1239640790e+03 2.3503252588e+03 0.0000000000e+00 0.0000e+00 -1.0000e+00
<mgrwt>
<rscale>  0 0.51379660E+04</rscale>
<asrwt>0</asrwt>
<pdfrwt beam="1">  1        2 0.35850287E+00 0.51379660E+04</pdfrwt>
<pdfrwt beam="2">  1       -2 0.43571560E+00 0.51379660E+04</pdfrwt>
<totfact> 0.12050871E-02</totfact>
</mgrwt>
<rwgt>
<wgt id='morphing_basis_vector_1'> +7.2488792e-06 </wgt>
<wgt id='morphing_basis_vector_2'> +4.9244658e-06 </wgt>
<wgt id='morphing_basis_vector_3'> +7.9875572e-06 </wgt>
<wgt id='morphing_basis_vector_4'> +5.7753035e-06 </wgt>
<wgt id='morphing_basis_vector_5'> +9.2095099e-06 </wgt>
</rwgt>
</event>
<event>
 4      1 +7.6845000e-11 4.77623300e+03 7.81860800e-03 7.41608500e-02
        2 -1    0    0  501    0 +0.0000000000e+00 +0.0000000000e+00 +2.6995485500e+03 2.6995485500e+03 0.0000000000e+00 0.0000e+00 -1.0000e+00
       -2 -1    0    0    0  501 -0.0000000000e+00 -0.0000000000e+00 -2.1126125996e+03 2.1126125996e+03 0.0000000000e+00 0.0000e+00 1.0000e+00
      -13  1    1    2    0    0 -1.3951662473e+03 +1.4510922855e+03 -1.0010874528e+03 2.2481845491e+03 0.0000000000e+00 0.0000e+00 1.0000e+00
       13  1    1    2    0    0 +1.3951662473e+03 -1.4510922855e+03 +1.5880234033e+03 2.5639766005e+03 0.0000000000e+00 0.0000e+00 -1.0000e+00
<mgrwt>
<rscale>  0 0.47762329E+04</rscale>
<asrwt>0</asrwt>
<pdfrwt beam="1">  1        2 0.41531516E+00 0.47762329E+04</pdfrwt>
<pdfrwt beam="2">  1       -2 0.32501732E+00 0.47762329E+04</pdfrwt>
<totfact> 0.39439132E-02</totfact>
</mgrwt>
<rwgt>
<wgt id='morphing_basis_vector_1'> +5.4378142e-06 </wgt>
<wgt id='morphing_basis_vector_2'> +3.7357285e-06 </wgt>
<wgt id='morphing_basis_vector_3'> +5.9965312e-06 </wgt>
<wgt id='morphing_basis_vector_4'> +4.2674844e-06 </wgt>
<wgt id='morphing_basis_vector_5'> +6.8672841e-06 </wgt>
</rwgt>
</event>
<event>
 4      1 +7.6845000e-11 4.64233400e+03 7.81860800e-03 7.43579900e-02
        2 -1    0    0  501    0 +0.0000000000e+00 +0.0000000000e+00 +3.4320097908e+03 3.4320097908e+03 0.0000000000e+00 0.0000e+00 1.0000e+00
       -2 -1    0    0    0  501 -0.0000000000e+00 -0.0000000000e+00 -1.5698719624e+03 1.5698719624e+03 0.0000000000e+00 0.0000e+00 -1.0000e+00
      -13  1    1    2    0    0 +2.0013027263e+03 +1.0779910705e+03 +4.2508192333e+02 2.3125682675e+03 0.0000000000e+00 0.0000e+00 1.0000e+00
       13  1    1    2    0    0 -2.0013027263e+03 -1.0779910705e+03 +1.4370559050e+03 2.6893134857e+03 0.0000000000e+00 0.0000e+00 -1.0000e+00
<mgrwt>
<rscale>  0 0.46423339E+04</rscale>
<asrwt>0</asrwt>
<pdfrwt beam="1">  1        2 0.52800150E+00 0.46423339E+04</pdfrwt>
<pdfrwt beam="2">  1       -2 0.24151876E+00 0.46423339E+04</pdfrwt>
<totfact> 0.48029041E-02</totfact>
</mgrwt>
<rwgt>
<wgt id='morphing_basis_vector_1'> +4.9205548e-06 </wgt>
<wgt id='morphing_basis_vector_2'> +3.5265263e-06 </wgt>
<wgt id='morphing_basis_vector_3'> +5.4576221e-06 </wgt>
<wgt id='morphing_basis_vector_4'> +3.6683011e-06 </wgt>
<wgt id='morphing_basis_vector_5'> +6.1148713e-06 </wgt>
</rwgt>
</event>
<event>
 4      1 +7.6845000e-11 5.08909000e+03 7.81860800e-03 7.37245500e-02
        2 -1    0    0  501    0 +0.0000000000e+00 +0.0000000000e+00 +1.2048301684e+03 1.2048301684e+03 0.0000000000e+00 0.0000e+00 -1.0000e+00
       -2 -1    0    0    0  501 -0.0000000000e+00 -0.0000000000e+00 -5.3739606987e+03 5.3739606987e+03 0.0000000000e+00 0.0000e+00 1.0000e+00
      -13  1    1    2    0    0 -4.4628854778e+02 +2.0334599713e+03 -3.9759128880e+03 4.4879857638e+03 0.0000000000e+00 0.0000e+00 1.0000e+00
       13  1    1    2    0    0 +4.4628854778e+02 -2.0334599713e+03 -1.9321764228e+02 2.0908051033e+03 0.0000000000e+00 0.0000e+00 -1.0000e+00
<mgrwt>
<rscale>  0 0.50890903E+04</rscale>
<asrwt>0</asrwt>
<pdfrwt beam="1">  1        2 0.18535849E+00 0.50890903E+04</pdfrwt>
<pdfrwt beam="2">  1       -2 0.82676318E+00 0.50890903E+04</pdfrwt>
<totfact> 0.13334069E-03</totfact>
</mgrwt>
<rwgt>
<wgt id='morphing_basis_vector_1'> +6.9979078e-06 </wgt>
<wgt id='morphing_basis_vector_2'> +4.7990016e-06 </wgt>
<wgt id='morphing_basis_vector_3'> +7.7206442e-06 </wgt>
<wgt id='morphing_basis_vector_4'> +5.5151822e-06 </wgt>
<wgt id='morphing_basis_vector_5'> +8.8594299e-06 </wgt>
</rwgt>
</event>
<event>
 4      1 +7.6845000e-11 4.82676500e+03 7.81860800e-03 7.40881400e-02
        2 -1    0    0  501    0 +0.0000000000e+00 +0.0000000000e+00 +2.4674810070e+03 2.4674810070e+03 0.0000000000e+00 0.0000e+00 -1.0000e+00
       -2 -1    0    0    0  501 -0.0000000000e+00 -0.0000000000e+00 -2.3604700743e+03 2.3604700743e+03 0.0000000000e+00 0.0000e+00 1.0000e+00
      -13  1    1    2    0    0 +2.3823668424e+03 -5.0663926436e+01 +4.3592973283e+02 2.4224519267e+03 0.0000000000e+00 0.0000e+00 1.0000e+00
       13  1    1    2    0    0 -2.3823668424e+03 +5.0663926436e+01 -3.2891880006e+02 2.4054991545e+03 0.0000000000e+00 0.0000e+00 -1.0000e+00
<mgrwt>
<rscale>  0 0.48267650E+04</rscale>
<asrwt>0</asrwt>
<pdfrwt beam="1">  1        2 0.37961247E+00 0.48267650E+04</pdfrwt>
<pdfrwt beam="2">  1       -2 0.36314924E+00 0.48267650E+04</pdfrwt>
<totfact> 0.30629507E-02</totfact>
</mgrwt>
<rwgt>
<wgt id='morphing_basis_vector_1'> +6.0120290e-06 </wgt>
<wgt id='morphing_basis_vector_2'> +4.8984042e-06 </wgt>
<wgt id='morphing_basis_vector_3'> +6.8072973e-06 </wgt>
<wgt id='morphing_basis_vector_4'> +3.7251645e-06 </wgt>
<wgt id='morphing_basis_vector_5'> +7.1027367e-06 </wgt>
</rwgt>
</event>
<event>
 4      1 +7.6845000e-11 4.72045100e+03 7.81860800e-03 7.42421800e-02
        2 -1    0    0  501    0 +0.0000000000e+00 +0.0000000000e+00 +4.7706015971e+03 4.7706015971e+03 0.0000000000e+00 0.0000e+00 -1.0000e+00
       -2 -1    0    0    0  501 -0.0000000000e+00 -0.0000000000e+00 -1.1677068695e+03 1.1677068695e+03 0.0000000000e+00 0.0000e+00 1.0000e+00
      -13  1    1    2    0    0 +1.3180934177e+03 +1.9557450190e+03 +1.6864564844e+03 2.8993868853e+03 0.0000000000e+00 0.0000e+00 1.0000e+00
       13  1    1    2    0    0 -1.3180934177e+03 -1.9557450190e+03 +1.9164382432e+03 3.0389215813e+03 0.0000000000e+00 0.0000e+00 -1.0000e+00
<mgrwt>
<rscale>  0 0.47204509E+04</rscale>
<asrwt>0</asrwt>
<pdfrwt beam="1">  1        2 0.73393870E+00 0.47204509E+04</pdfrwt>
<pdfrwt beam="2">  1       -2 0.17964721E+00 0.47204509E+04</pdfrwt>
<totfact> 0.82211156E-03</totfact>
</mgrwt>
<rwgt>
<wgt id='morphing_basis_vector_1'> +5.3355239e-06 </wgt>
<wgt id='morphing_basis_vector_2'> +3.9946235e-06 </wgt>
<wgt id='morphing_basis_vector_3'> +5.9583825e-06 </wgt>
<wgt id='morphing_basis_vector_4'> +3.7594053e-06 </wgt>
<wgt id='morphing_basis_vector_5'> +6.5248836e-06 </wgt>
</rwgt>
</event>
<event>
 4      1 +7.6845000e-11 5.11794300e+03 7.81860800e-03 7.36859400e-02
        2 -1    0    0  501    0 +0.0000000000e+00 +0.0000000000e+00 +3.4758541759e+03 3.4758541759e+03 0.0000000000e+00 0.0000e+00 1.0000e+00
       -2 -1    0    0    0  501 -0.0000000000e+00 -0.0000000000e+00 -1.8839496642e+03 1.8839496642e+03 0.0000000000e+00 0.0000e+00 -1.0000e+00
      -13  1    1    2    0    0 -7.6350151443e+02 -9.0023294564e+02 -1.5818021061e+03 1.9736899001e+03 0.0000000000e+00 0.0000e+00 -1.0000e+00
       13  1    1    2    0    0 +7.6350151443e+02 +9.0023294564e+02 +3.1737066177e+03 3.3861139400e+03 0.0000000000e+00 0.0000e+00 1.0000e+00
<mgrwt>
<rscale>  0 0.51179427E+04</rscale>
<asrwt>0</asrwt>
<pdfrwt beam="1">  1        2 0.53474680E+00 0.51179427E+04</pdfrwt>
<pdfrwt beam="2">  1       -2 0.28983841E+00 0.51179427E+04</pdfrwt>
<totfact> 0.20063329E-02</totfact>
</mgrwt>
<rwgt>
<wgt id='morphing_basis_vector_1'> +7.1374225e-06 </wgt>
<wgt id='morphing_basis_vector_2'> +4.8498129e-06 </wgt>
<wgt id='morphing_basis_vector_3'> +7.8646641e-06 </wgt>
<wgt id='morphing_basis_vector_4'> +5.6843976e-06 </wgt>
<wgt id='morphing_basis_vector_5'> +9.0662620e-06 </wgt>
</rwgt>
</event>
<event>
 4      1 +7.6845000e-11 5.30114500e+03 7.81860800e-03 7.34466600e-02
        2 -1    0    0  501    0 +0.0000000000e+00 +0.0000000000e+00 +4.5381936053e+03 4.5381936053e+03 0.0000000000e+00 0.0000e+00 1.0000e+00
       -2 -1    0    0    0  501 -0.0000000000e+00 -0.0000000000e+00 -1.5480903807e+03 1.5480903807e+03 0.0000000000e+00 0.0000e+00 -1.0000e+00
      -13  1    1    2    0    0 -2.4284939726e+03 +8.9036254578e+02 +2.1597705816e+03 3.3697088009e+03 0.0000000000e+00 0.0000e+00 -1.0000e+00
       13  1    1    2    0    0 +2.4284939726e+03 -8.9036254578e+02 +8.3033264305e+02 2.7165751850e+03 0.0000000000e+00 0.0000e+00 1.0000e+00
<mgrwt>
<rscale>  0 0.53011447E+04</rscale>
<asrwt>0</asrwt>
<pdfrwt beam="1">  1        2 0.69818363E+00 0.53011447E+04</pdfrwt>
<pdfrwt beam="2">  1       -2 0.23816775E+00 0.53011447E+04</pdfrwt>
<totfact> 0.53690950E-03</totfact>
</mgrwt>
<rwgt>
<wgt id='morphing_basis_vector_1'> +8.8541956e-06 </wgt>
<wgt id='morphing_basis_vector_2'> +7.4668097e-06 </wgt>
<wgt id='morphing_basis_vector_3'> +1.0096783e-05 </wgt>
<wgt id='morphing_basis_vector_4'> +5.1755945e-06 </wgt>
<wgt id='morphing_basis_vector_5'> +1.0325082e-05 </wgt>
</rwgt>
</event>
<event>
 4      1 +7.6845000e-11 4.63878500e+03 7.81860800e-03 7.43633100e-02
        2 -1    0    0  501    0 +0.0000000000e+00 +0.0000000000e+00 +1.6913116234e+03 1.6913116234e+03 0.0000000000e+00 0.0000e+00 -1.0000e+00
       -2 -1    0    0    0  501 -0.0000000000e+00 -0.0000000000e+00 -3.1807162487e+03 3.1807162487e+03 0.0000000000e+00 0.0000e+00 1.0000e+00
      -13  1    1    2    0    0 +2.2954464857e+03 -1.1109810019e+02 -1.0737689369e+03 2.5366113392e+03 0.0000000000e+00 0.0000e+00 1.0000e+00
       13  1    1    2    0    0 -2.2954464857e+03 +1.1109810019e+02 -4.1563568845e+02 2.3354165328e+03 0.0000000000e+00 0.0000e+00 -1.0000e+00
<mgrwt>
<rscale>  0 0.46387853E+04</rscale>
<asrwt>0</asrwt>
<pdfrwt beam="1">  1        2 0.26020179E+00 0.46387853E+04</pdfrwt>
<pdfrwt beam="2">  1       -2 0.48934096E+00 0.46387853E+04</pdfrwt>
<totfact> 0.11886256E-02</totfact>
</mgrwt>
<rwgt>
<wgt id='morphing_basis_vector_1'> +4.9303914e-06 </wgt>
<wgt id='morphing_basis_vector_2'> +3.5886437e-06 </wgt>
<wgt id='morphing_basis_vector_3'> +5.4810812e-06 </wgt>
<wgt id='morphing_basis_vector_4'> +3.6043127e-06 </wgt>
<wgt id='morphing_basis_vector_5'> +6.0917140e-06 </wgt>
</rwgt>
</event>
<event>
 4      1 +7.6845000e-11 4.90477500e+03 7.81860800e-03 7.39776200e-02
        2 -1    0    0  501    0 +0.0000000000e+00 +0.0000000000e+00 +3.5155803249e+03 3.5155803249e+03 0.0000000000e+00 0.0000e+00 -1.0000e+00
       -2 -1    0    0    0  501 -0.0000000000e+00 -0.0000000000e+00 -1.7107286163e+03 1.7107286163e+03 0.0000000000e+00 0.0000e+00 1.0000e+00
      -13  1    1    2    0    0 -1.1507714478e+03 -2.1655213852e+03 +9.2493076812e+02 2.6209263097e+03 0.0000000000e+00 0.0000e+00 1.0000e+00
       13  1    1    2    0    0 +1.1507714478e+03 +2.1655213852e+03 +8.7992094050e+02 2.6053826315e+03 0.0000000000e+00 0.0000e+00 -1.0000e+00
<mgrwt>
<rscale>  0 0.49047748E+04</rscale>
<asrwt>0</asrwt>
<pdfrwt beam="1">  1        2 0.54085851E+00 0.49047748E+04</pdfrwt>
<pdfrwt beam="2">  1       -2 0.26318902E+00 0.49047748E+04</pdfrwt>
<totfact> 0.28990820E-02</totfact>
</mgrwt>
<rwgt>
<wgt id='morphing_basis_vector_1'> +6.2516827e-06 </wgt>
<wgt id='morphing_basis_vector_2'> +4.7607588e-06 </wgt>
<wgt id='morphing_basis_vector_3'> +7.0035894e-06 </wgt>
<wgt id='morphing_basis_vector_4'> +4.3072954e-06 </wgt>
<wgt id='morphing_basis_vector_5'> +7.6028016e-06 </wgt>
</rwgt>
</event>
<event>
 4      1 +7.6845000e-11 5.08363400e+03 7.81860800e-03 7.37318900e-02
        2 -1    0    0  501    0 +0.0000000000e+00 +0.0000000000e+00 +3.2283201572e+03 3.2283201572e+03 0.0000000000e+00 0.0000e+00 -1.0000e+00
       -2 -1    0    0    0  501 -0.0000000000e+00 -0.0000000000e+00 -2.0012992434e+03 2.0012992434e+03 0.0000000000e+00 0.0000e+00 1.0000e+00
      -13  1    1    2    0    0 +1.5165653833e+03 -1.1078939496e+03 -1.1484007450e+03 2.2014140539e+03 0.0000000000e+00 0.0000e+00 1.0000e+00
       13  1    1    2    0    0 -1.5165653833e+03 +1.1078939496e+03 +2.3754216587e+03 3.0282053468e+03 0.0000000000e+00 0.0000e+00 -1.0000e+00
<mgrwt>
<rscale>  0 0.50836344E+04</rscale>
<asrwt>0</asrwt>
<pdfrwt beam="1">  1        2 0.49666464E+00 0.50836344E+04</pdfrwt>
<pdfrwt beam="2">  1       -2 0.30789219E+00 0.50836344E+04</pdfrwt>
<totfact> 0.22737702E-02</totfact>
</mgrwt>
<rwgt>
<wgt id='morphing_basis_vector_1'> +6.9582685e-06 </wgt>
<wgt id='morphing_basis_vector_2'> +4.7497817e-06 </wgt>
<wgt id='morphing_basis_vector_3'> +7.6717241e-06 </wgt>
<wgt id='morphing_basis_vector_4'> +5.5123318e-06 </wgt>
<wgt id='morphing_basis_vector_5'> +8.8231303e-06 </wgt>
</rwgt>
</event>
<event>
 4      1 +7.6845000e-11 4.95303700e+03 7.81860800e-03 7.39102700e-02
        2 -1    0    0  501    0 +0.0000000000e+00 +0.0000000000e+00 +2.5444436122e+03 2.5444436122e+03 0.0000000000e+00 0.0000e+00 -1.0000e+00
       -2 -1    0    0    0  501 -0.0000000000e+00 -0.0000000000e+00 -2.4104068495e+03 2.4104068495e+03 0.0000000000e+00 0.0000e+00 1.0000e+00
      -13  1    1    2    0    0 +1.2709108145e+03 -1.4797143700e+03 -1.4594417481e+03 2.4361320020e+03 0.0000000000e+00 0.0000e+00 1.0000e+00
       13  1    1    2    0    0 -1.2709108145e+03 +1.4797143700e+03 +1.5934785108e+03 2.5187184598e+03 0.0000000000e+00 0.0000e+00 -1.0000e+00
<mgrwt>
<rscale>  0 0.49530372E+04</rscale>
<asrwt>0</asrwt>
<pdfrwt beam="1">  1        2 0.39145286E+00 0.49530372E+04</pdfrwt>
<pdfrwt beam="2">  1       -2 0.37083182E+00 0.49530372E+04</pdfrwt>
<totfact> 0.24350795E-02</totfact>
</mgrwt>
<rwgt>
<wgt id='morphing_basis_vector_1'> +6.2771279e-06 </wgt>
<wgt id='morphing_basis_vector_2'> +4.2944772e-06 </wgt>
<wgt id='morphing_basis_vector_3'> +6.9209665e-06 </wgt>
<wgt id='morphing_basis_vector_4'> +4.9558107e-06 </wgt>
<wgt id='morphing_basis_vector_5'> +7.9473791e-06 </wgt>
</rwgt>
</event>
<event>
 4      1 +7.6845000e-11 4.63078100e+03 7.81860800e-03 7.43753200e-02
        2 -1    0    0  501    0 +0.0000000000e+00 +0.0000000000e+00 +2.2500829023e+03 2.2500829023e+03 0.0000000000e+00 0.0000e+00 1.0000e+00
       -2 -1    0    0    0  501 -0.0000000000e+00 -0.0000000000e+00 -2.3825937103e+03 2.3825937103e+03 0.0000000000e+00 0.0000e+00 -1.0000e+00
      -13  1    1    2    0    0 -4.9144244446e+02 +7.0044203341e+02 -2.2186236198e+03 2.3779035903e+03 0.0000000000e+00 0.0000e+00 -1.0000e+00
       13  1    1    2    0    0 +4.9144244446e+02 -7.0044203341e+02 +2.0861128118e+03 2.2547730223e+03 0.0000000000e+00 0.0000e+00 1.0000e+00
<mgrwt>
<rscale>  0 0.46307811E+04</rscale>
<asrwt>0</asrwt>
<pdfrwt beam="1">  1        2 0.34616660E+00 0.46307811E+04</pdfrwt>
<pdfrwt beam="2">  1       -2 0.36655288E+00 0.46307811E+04</pdfrwt>
<totfact> 0.39628645E-02</totfact>
</mgrwt>
<rwgt>
<wgt id='morphing_basis_vector_1'> +4.7900567e-06 </wgt>
<wgt id='morphing_basis_vector_2'> +3.2510771e-06 </wgt>
<wgt id='morphing_basis_vector_3'> +5.2710589e-06 </wgt>
<wgt id='morphing_basis_vector_4'> +3.8058896e-06 </wgt>
<wgt id='morphing_basis_vector_5'> +6.0685755e-06 </wgt>
</rwgt>
</event>
<event>
 4      1 +7.6845000e-11 4.71181700e+03 7.81860800e-03 7.42548700e-02
        2 -1    0    0  501    0 +0.0000000000e+00 +0.0000000000e+00 +2.7560036840e+03 2.7560036840e+03 0.0000000000e+00 0.0000e+00 -1.0000e+00
       -2 -1    0    0    0  501 -0.0000000000e+00 -0.0000000000e+00 -2.0138964016e+03 2.0138964016e+03 0.0000000000e+00 0.0000e+00 1.0000e+00
      -13  1    1    2    0    0 -5.9250413186e+02 -1.7312615030e+03 -1.1311449496e+03 2.1512360250e+03 0.0000000000e+00 0.0000e+00 1.0000e+00
       13  1    1    2    0    0 +5.9250413186e+02 +1.7312615030e+03 +1.8732522320e+03 2.6186640607e+03 0.0000000000e+00 0.0000e+00 -1.0000e+00
<mgrwt>
<rscale>  0 0.47118174E+04</rscale>
<asrwt>0</asrwt>
<pdfrwt beam="1">  1        2 0.42400057E+00 0.47118174E+04</pdfrwt>
<pdfrwt beam="2">  1       -2 0.30983022E+00 0.47118174E+04</pdfrwt>
<totfact> 0.46158996E-02</totfact>
</mgrwt>
<rwgt>
<wgt id='morphing_basis_vector_1'> +5.1433854e-06 </wgt>
<wgt id='morphing_basis_vector_2'> +3.5150871e-06 </wgt>
<wgt id='morphing_basis_vector_3'> +5.6666709e-06 </wgt>
<wgt id='morphing_basis_vector_4'> +4.0581009e-06 </wgt>
<wgt id='morphing_basis_vector_5'> +6.5044212e-06 </wgt>
</rwgt>
</event>
<event>
 4      1 +7.6845000e-11 5.13406400e+03 7.81860800e-03 7.36644700e-02
        2 -1    0    0  501    0 +0.0000000000e+00 +0.0000000000e+00 +3.8945649402e+03 3.8945649402e+03 0.0000000000e+00 0.0000e+00 -1.0000e+00
       -2 -1    0    0    0  501 -0.0000000000e+00 -0.0000000000e+00 -1.6920129878e+03 1.6920129878e+03 0.0000000000e+00 0.0000e+00 1.0000e+00
      -13  1    1    2    0    0 -2.3773817746e+03 -9.1292763071e+02 +7.4990044158e+02 2.6547564169e+03 0.0000000000e+00 0.0000e+00 1.0000e+00
       13  1    1    2    0    0 +2.3773817746e+03 +9.1292763071e+02 +1.4526515108e+03 2.9318215111e+03 0.0000000000e+00 0.0000e+00 -1.0000e+00
<mgrwt>
<rscale>  0 0.51340645E+04</rscale>
<asrwt>0</asrwt>
<pdfrwt beam="1">  1        2 0.59916383E+00 0.51340645E+04</pdfrwt>
<pdfrwt beam="2">  1       -2 0.26030969E+00 0.51340645E+04</pdfrwt>
<totfact> 0.15111147E-02</totfact>
</mgrwt>
<rwgt>
<wgt id='morphing_basis_vector_1'> +7.3934200e-06 </wgt>
<wgt id='morphing_basis_vector_2'> +5.3983543e-06 </wgt>
<wgt id='morphing_basis_vector_3'> +8.2337529e-06 </wgt>
<wgt id='morphing_basis_vector_4'> +5.4028083e-06 </wgt>
<wgt id='morphing_basis_vector_5'> +9.1517146e-06 </wgt>
</rwgt>
</event>
<event>
 4      1 +7.6845000e-11 4.76641400e+03 7.81860800e-03 7.41750900e-02
        2 -1    0    0  501    0 +0.0000000000e+00 +0.0000000000e+00 +3.3402916984e+03 3.3402916984e+03 0.0000000000e+00 0.0000e+00 -1.0000e+00
       -2 -1    0    0    0  501 -0.0000000000e+00 -0.0000000000e+00 -1.7003532732e+03 1.7003532732e+03 0.0000000000e+00 0.0000e+00 1.0000e+00
      -13  1    1    2    0    0 -1.0884391858e+02 +1.0604343245e+03 -1.4341683930e+03 1.7869546538e+03 0.0000000000e+00 0.0000e+00 1.0000e+00
       13  1    1    2    0    0 +1.0884391858e+02 -1.0604343245e+03 +3.0741068181e+03 3.2536903178e+03 0.0000000000e+00 0.0000e+00 -1.0000e+00
<mgrwt>
<rscale>  0 0.47664141E+04</rscale>
<asrwt>0</asrwt>
<pdfrwt beam="1">  1        2 0.51389103E+00 0.47664141E+04</pdfrwt>
<pdfrwt beam="2">  1       -2 0.26159281E+00 0.47664141E+04</pdfrwt>
<totfact> 0.40169810E-02</totfact>
</mgrwt>
<rwgt>
<wgt id='morphing_basis_vector_1'> +5.3744664e-06 </wgt>
<wgt id='morphing_basis_vector_2'> +3.6495476e-06 </wgt>
<wgt id='morphing_basis_vector_3'> +5.9167247e-06 </wgt>
<wgt id='morphing_basis_vector_4'> +4.2726642e-06 </wgt>
<wgt id='morphing_basis_vector_5'> +6.8141659e-06 </wgt>
</rwgt>
</event>
<event>
 4      1 +7.6845000e-11 4.67630500e+03 7.81860800e-03 7.43073500e-02
        2 -1    0    0  501    0 +0.0000000000e+00 +0.0000000000e+00 +2.6649568381e+03 2.6649568381e+03 0.0000000000e+00 0.0000e+00 -1.0000e+00
       -2 -1    0    0    0  501 -0.0000000000e+00 -0.0000000000e+00 -2.0514244785e+03 2.0514244785e+03 0.0000000000e+00 0.0000e+00 1.0000e+00
      -13  1    1    2    0    0 -5.3071091546e+02 -2.0210667974e+03 +1.3648482512e+03 2.4958316899e+03 0.0000000000e+00 0.0000e+00 1.0000e+00
       13  1    1    2    0    0 +5.3071091546e+02 +2.0210667974e+03 -7.5131589164e+02 2.2205496267e+03 0.0000000000e+00 0.0000e+00 -1.0000e+00
<mgrwt>
<rscale>  0 0.46763052E+04</rscale>
<asrwt>0</asrwt>
<pdfrwt beam="1">  1        2 0.40999336E+00 0.46763052E+04</pdfrwt>
<pdfrwt beam="2">  1       -2 0.31560376E+00 0.46763052E+04</pdfrwt>
<totfact> 0.48206921E-02</totfact>
</mgrwt>
<rwgt>
<wgt id='morphing_basis_vector_1'> +5.7782191e-06 </wgt>
<wgt id='morphing_basis_vector_2'> +5.7238865e-06 </wgt>
<wgt id='morphing_basis_vector_3'> +6.7722209e-06 </wgt>
<wgt id='morphing_basis_vector_4'> +2.2617279e-06 </wgt>
<wgt id='morphing_basis_vector_5'> +6.1696529e-06 </wgt>
</rwgt>
</event>
<event>
 4      1 +7.6845000e-11 4.72416600e+03 7.81860800e-03 7.42367300e-02
        2 -1    0    0  501    0 +0.0000000000e+00 +0.0000000000e+00 +3.9968602561e+03 3.9968602561e+03 0.0000000000e+00 0.0000e+00 -1.0000e+00
       -2 -1    0    0    0  501 -0.0000000000e+00 -0.0000000000e+00 -1.3959547287e+03 1.3959547287e+03 0.0000000000e+00 0.0000e+00 1.0000e+00
      -13  1    1    2    0    0 +2.2436763545e+02 +6.0623680565e+02 -1.2930181048e+03 1.4456001244e+03 0.0000000000e+00 0.0000e+00 1.0000e+00
       13  1    1    2    0    0 -2.2436763545e+02 -6.0623680565e+02 +3.8939236322e+03 3.9472148603e+03 0.0000000000e+00 0.0000e+00 -1.0000e+00
<mgrwt>
<rscale>  0 0.47241659E+04</rscale>
<asrwt>0</asrwt>
<pdfrwt beam="1">  1        2 0.61490157E+00 0.47241659E+04</pdfrwt>
<pdfrwt beam="2">  1       -2 0.21476227E+00 0.47241659E+04</pdfrwt>
<totfact> 0.26653148E-02</totfact>
</mgrwt>
<rwgt>
<wgt id='morphing_basis_vector_1'> +5.1865294e-06 </wgt>
<wgt id='morphing_basis_vector_2'> +3.5203455e-06 </wgt>
<wgt id='morphing_basis_vector_3'> +5.7088342e-06 </wgt>
<wgt id='morphing_basis_vector_4'> +4.1239042e-06 </wgt>
<wgt id='morphing_basis_vector_5'> +6.5750417e-06 </wgt>
</rwgt>
</event>
<event>
 4      1 +7.6845000e-11 4.65353000e+03 7.81860800e-03 7.43412500e-02
        2 -1    0    0  501    0 +0.0000000000e+00 +0.0000000000e+00 +2.3247241183e+03 2.3247241183e+03 0.0000000000e+00 0.0000e+00 1.0000e+00
       -2 -1    0    0    0  501 -0.0000000000e+00 -0.0000000000e+00 -2.3288076477e+03 2.3288076477e+03 0.0000000000e+00 0.0000e+00 -1.0000e+00
      -13  1    1    2    0    0 -1.4121115017e+03 +4.8108870500e+02 -1.7876320104e+03 2.3283327597e+03 0.0000000000e+00 0.0000e+00 -1.0000e+00
       13  1    1    2    0    0 +1.4121115017e+03 -4.8108870500e+02 +1.7835484809e+03 2.3251990064e+03 0.0000000000e+00 0.0000e+00 1.0000e+00
<mgrwt>
<rscale>  0 0.46535300E+04</rscale>
<asrwt>0</asrwt>
<pdfrwt beam="1">  1        2 0.35764987E+00 0.46535300E+04</pdfrwt>
<pdfrwt beam="2">  1       -2 0.35827810E+00 0.46535300E+04</pdfrwt>
<totfact> 0.40477394E-02</totfact>
</mgrwt>
<rwgt>
<wgt id='morphing_basis_vector_1'> +4.8876934e-06 </wgt>
<wgt id='morphing_basis_vector_2'> +3.3246781e-06 </wgt>
<wgt id='morphing_basis_vector_3'> +5.3805198e-06 </wgt>
<wgt id='morphing_basis_vector_4'> +3.8747396e-06 </wgt>
<wgt id='morphing_basis_vector_5'> +6.1885861e-06 </wgt>
</rwgt>
</event>
<event>
 4      1 +7.6845000e-11 4.74603100e+03 7.81860800e-03 7.42047500e-02
        2 -1    0    0  501    0 +0.0000000000e+00 +0.0000000000e+00 +2.4453308563e+03 2.4453308563e+03 0.0000000000e+00 0.0000e+00 -1.0000e+00
       -2 -1    0    0    0  501 -0.0000000000e+00 -0.0000000000e+00 -2.3028387158e+03 2.3028387158e+03 0.0000000000e+00 0.0000e+00 1.0000e+00
      -13  1    1    2    0    0 +1.2217365518e+03 +6.5564278364e+02 -1.8554189107e+03 2.3162657438e+03 0.0000000000e+00 0.0000e+00 1.0000e+00
       13  1    1    2    0    0 -1.2217365518e+03 -6.5564278364e+02 +1.9979110512e+03 2.4319038283e+03 0.0000000000e+00 0.0000e+00 -1.0000e+00
<mgrwt>
<rscale>  0 0.47460310E+04</rscale>
<asrwt>0</asrwt>
<pdfrwt beam="1">  1        2 0.37620475E+00 0.47460310E+04</pdfrwt>
<pdfrwt beam="2">  1       -2 0.35428288E+00 0.47460310E+04</pdfrwt>
<totfact> 0.36234759E-02</totfact>
</mgrwt>
<rwgt>
<wgt id='morphing_basis_vector_1'> +5.2851121e-06 </wgt>
<wgt id='morphing_basis_vector_2'> +3.5924901e-06 </wgt>
<wgt id='morphing_basis_vector_3'> +5.8188790e-06 </wgt>
<wgt id='morphing_basis_vector_4'> +4.1962612e-06 </wgt>
<wgt id='morphing_basis_vector_5'> +6.6976521e-06 </wgt>
</rwgt>
</event>
<event>
 4      1 +7.6845000e-11 5.34829800e+03 7.81860800e-03 7.33866700e-02
        2 -1    0    0  501    0 +0.0000000000e+00 +0.0000000000e+00 +3.5995904314e+03 3.5995904314e+03 0.0000000000e+00 0.0000e+00 -1.0000e+00
       -2 -1    0    0    0  501 -0.0000000000e+00 -0.0000000000e+00 -1.9866347888e+03 1.9866347888e+03 0.0000000000e+00 0.0000e+00 1.0000e+00
      -13  1    1    2    0    0 -1.0031710053e+03 -1.2393316674e+03 -1.4358324602e+03 2.1456723658e+03 0.0000000000e+00 0.0000e+00 1.0000e+00
       13  1    1    2    0    0 +1.0031710053e+03 +1.2393316674e+03 +3.0487881028e+03 3.4405528543e+03 0.0000000000e+00 0.0000e+00 -1.0000e+00
<mgrwt>
<rscale>  0 0.53482975E+04</rscale>
<asrwt>0</asrwt>
<pdfrwt beam="1">  1        2 0.55378314E+00 0.53482975E+04</pdfrwt>
<pdfrwt beam="2">  1       -2 0.30563612E+00 0.53482975E+04</pdfrwt>
<totfact> 0.12488821E-02</totfact>
</mgrwt>
<rwgt>
<wgt id='morphing_basis_vector_1'> +8.5102237e-06 </wgt>
<wgt id='morphing_basis_vector_2'> +5.7910506e-06 </wgt>
<wgt id='morphing_basis_vector_3'> +9.3835028e-06 </wgt>
<wgt id='morphing_basis_vector_4'> +6.7761526e-06 </wgt>
<wgt id='morphing_basis_vector_5'> +1.0817064e-05 </wgt>
</rwgt>
</event>
<event>
 4      1 +7.6845000e-11 4.80196600e+03 7.81860800e-03 7.41237100e-02
        2 -1    0    0  501    0 +0.0000000000e+00 +0.0000000000e+00 +2.5046526334e+03 2.5046526334e+03 0.0000000000e+00 0.0000e+00 -1.0000e+00
       -2 -1    0    0    0  501 -0.0000000000e+00 -0.0000000000e+00 -2.3016045296e+03 2.3016045296e+03 0.0000000000e+00 0.0000e+00 1.0000e+00
      -13  1    1    2    0    0 +4.4854516813e+02 +2.1599219976e+03 -8.4709078549e+02 2.3630528141e+03 0.0000000000e+00 0.0000e+00 1.0000e+00
       13  1    1    2    0    0 -4.4854516813e+02 -2.1599219976e+03 +1.0501388893e+03 2.4432043489e+03 0.0000000000e+00 0.0000e+00 -1.0000e+00
<mgrwt>
<rscale>  0 0.48019662E+04</rscale>
<asrwt>0</asrwt>
<pdfrwt beam="1">  1        2 0.38533118E+00 0.48019662E+04</pdfrwt>
<pdfrwt beam="2">  1       -2 0.35409300E+00 0.48019662E+04</pdfrwt>
<totfact> 0.33357615E-02</totfact>
</mgrwt>
<rwgt>
<wgt id='morphing_basis_vector_1'> +5.5770502e-06 </wgt>
<wgt id='morphing_basis_vector_2'> +3.8799835e-06 </wgt>
<wgt id='morphing_basis_vector_3'> +6.1616523e-06 </wgt>
<wgt id='morphing_basis_vector_4'> +4.3147086e-06 </wgt>
<wgt id='morphing_basis_vector_5'> +7.0131664e-06 </wgt>
</rwgt>
</event>
<event>
 4      1 +7.6845000e-11 5.16635100e+03 7.81860800e-03 7.36217200e-02
        2 -1    0    0  501    0 +0.0000000000e+00 +0.0000000000e+00 +3.9211222394e+03 3.9211222394e+03 0.0000000000e+00 0.0000e+00 -1.0000e+00
       -2 -1    0    0    0  501 -0.0000000000e+00 -0.0000000000e+00 -1.7017563513e+03 1.7017563513e+03 0.0000000000e+00 0.0000e+00 1.0000e+00
      -13  1    1    2    0    0 +6.0556147519e+01 +1.3688967526e+03 -1.2736264541e+03 1.8707404178e+03 0.0000000000e+00 0.0000e+00 1.0000e+00
       13  1    1    2    0    0 -6.0556147519e+01 -1.3688967526e+03 +3.4929923422e+03 3.7521381730e+03 0.0000000000e+00 0.0000e+00 -1.0000e+00
<mgrwt>
<rscale>  0 0.51663506E+04</rscale>
<asrwt>0</asrwt>
<pdfrwt beam="1">  1        2 0.60324957E+00 0.51663506E+04</pdfrwt>
<pdfrwt beam="2">  1       -2 0.26180867E+00 0.51663506E+04</pdfrwt>
<totfact> 0.13995050E-02</totfact>
</mgrwt>
<rwgt>
<wgt id='morphing_basis_vector_1'> +7.4114220e-06 </wgt>
<wgt id='morphing_basis_vector_2'> +5.0385510e-06 </wgt>
<wgt id='morphing_basis_vector_3'> +8.1679840e-06 </wgt>
<wgt id='morphing_basis_vector_4'> +5.9011036e-06 </wgt>
<wgt id='morphing_basis_vector_5'> +9.4150599e-06 </wgt>
</rwgt>
</event>
<event>
 4      1 +7.6845000e-11 4.63370200e+03 7.81860800e-03 7.43709300e-02
        2 -1    0    0  501    0 +0.0000000000e+00 +0.0000000000e+00 +1.9998680372e+03 1.9998680372e+03 0.0000000000e+00 0.0000e+00 -1.0000e+00
       -2 -1    0    0    0  501 -0.0000000000e+00 -0.0000000000e+00 -2.6840762467e+03 2.6840762467e+03 0.0000000000e+00 0.0000e+00 1.0000e+00
      -13  1    1    2    0    0 +2.0752807394e+03 +4.4752701517e+02 -1.2799177021e+03 2.4789634731e+03 0.0000000000e+00 0.0000e+00 1.0000e+00
       13  1    1    2    0    0 -2.0752807394e+03 -4.4752701517e+02 +5.9570949260e+02 2.2049808109e+03 0.0000000000e+00 0.0000e+00 -1.0000e+00
<mgrwt>
<rscale>  0 0.46337019E+04</rscale>
<asrwt>0</asrwt>
<pdfrwt beam="1">  1        2 0.30767201E+00 0.46337019E+04</pdfrwt>
<pdfrwt beam="2">  1       -2 0.41293480E+00 0.46337019E+04</pdfrwt>
<totfact> 0.27476263E-02</totfact>
</mgrwt>
<rwgt>
<wgt id='morphing_basis_vector_1'> +4.8370872e-06 </wgt>
<wgt id='morphing_basis_vector_2'> +3.3620283e-06 </wgt>
<wgt id='morphing_basis_vector_3'> +5.3409458e-06 </wgt>
<wgt id='morphing_basis_vector_4'> +3.7411617e-06 </wgt>
<wgt id='morphing_basis_vector_5'> +6.0777338e-06 </wgt>
</rwgt>
</event>
<event>
 4      1 +7.6845000e-11 4.83388600e+03 7.81860800e-03 7.40779600e-02
        2 -1    0    0  501    0 +0.0000000000e+00 +0.0000000000e+00 +2.8695110715e+03 2.8695110715e+03 0.0000000000e+00 0.0000e+00 -1.0000e+00
       -2 -1    0    0    0  501 -0.0000000000e+00 -0.0000000000e+00 -2.0357517924e+03 2.0357517924e+03 0.0000000000e+00 0.0000e+00 1.0000e+00
      -13  1    1    2    0    0 -1.7311017505e+03 -1.6753869712e+03 +6.1463547259e+02 2.4862444646e+03 0.0000000000e+00 0.0000e+00 -1.0000e+00
       13  1    1    2    0    0 +1.7311017505e+03 +1.6753869712e+03 +2.1912380648e+02 2.4190183993e+03 0.0000000000e+00 0.0000e+00 1.0000e+00
<mgrwt>
<rscale>  0 0.48338855E+04</rscale>
<asrwt>0</asrwt>
<pdfrwt beam="1">  1        2 0.44146324E+00 0.48338855E+04</pdfrwt>
<pdfrwt beam="2">  1       -2 0.31319258E+00 0.48338855E+04</pdfrwt>
<totfact> 0.36830089E-02</totfact>
</mgrwt>
<rwgt>
<wgt id='morphing_basis_vector_1'> +5.9618936e-06 </wgt>
<wgt id='morphing_basis_vector_2'> +4.6760102e-06 </wgt>
<wgt id='morphing_basis_vector_3'> +6.7089112e-06 </wgt>
<wgt id='morphing_basis_vector_4'> +3.9294143e-06 </wgt>
<wgt id='morphing_basis_vector_5'> +7.1601406e-06 </wgt>
</rwgt>
</event>
<event>
 4      1 +7.6845000e-11 5.39481800e+03 7.81860800e-03 7.33281100e-02
        2 -1    0    0  501    0 +0.0000000000e+00 +0.0000000000e+00 +2.5636800782e+03 2.5636800782e+03 0.0000000000e+00 0.0000e+00 -1.0000e+00
       -2 -1    0    0    0  501 -0.0000000000e+00 -0.0000000000e+00 -2.8381135023e+03 2.8381135023e+03 0.0000000000e+00 0.0000e+00 1.0000e+00
      -13  1    1    2    0    0 -1.4262188278e+03 +1.1810114141e+03 -2.1011623071e+03 2.8006733379e+03 0.0000000000e+00 0.0000e+00 1.0000e+00
       13  1    1    2    0    0 +1.4262188278e+03 -1.1810114141e+03 +1.8267288830e+03 2.6011202427e+03 0.0000000000e+00 0.0000e+00 -1.0000e+00
<mgrwt>
<rscale>  0 0.53948179E+04</rscale>
<asrwt>0</asrwt>
<pdfrwt beam="1">  1        2 0.39441232E+00 0.53948179E+04</pdfrwt>
<pdfrwt beam="2">  1       -2 0.43663285E+00 0.53948179E+04</pdfrwt>
<totfact> 0.84727416E-03</totfact>
</mgrwt>
<rwgt>
<wgt id='morphing_basis_vector_1'> +8.8139897e-06 </wgt>
<wgt id='morphing_basis_vector_2'> +6.0086193e-06 </wgt>
<wgt id='morphing_basis_vector_3'> +9.7217802e-06 </wgt>
<wgt id='morphing_basis_vector_4'> +7.0057197e-06 </wgt>
<wgt id='morphing_basis_vector_5'> +1.1198589e-05 </wgt>
</rwgt>
</event>
<event>
 4      1 +7.6845000e-11 4.72741000e+03 7.81860800e-03 7.42319700e-02
        2 -1    0    0  501    0 +0.0000000000e+00 +0.0000000000e+00 +3.7397247339e+03 3.7397247339e+03 0.0000000000e+00 0.0000e+00 1.0000e+00
       -2 -1    0    0    0  501 -0.0000000000e+00 -0.0000000000e+00 -1.4939873669e+03 1.4939873669e+03 0.0000000000e+00 0.0000e+00 -1.0000e+00
      -13  1    1    2    0    0 -9.1592277871e+02 +1.2890064109e+03 +3.0679161616e+03 3.4514579005e+03 0.0000000000e+00 0.0000e+00 1.0000e+00
       13  1    1    2    0    0 +9.1592277871e+02 -1.2890064109e+03 -8.2217879462e+02 1.7822542003e+03 0.0000000000e+00 0.0000e+00 -1.0000e+00
<mgrwt>
<rscale>  0 0.47274101E+04</rscale>
<asrwt>0</asrwt>
<pdfrwt beam="1">  1        2 0.57534226E+00 0.47274101E+04</pdfrwt>
<pdfrwt beam="2">  1       -2 0.22984421E+00 0.47274101E+04</pdfrwt>
<totfact> 0.33800088E-02</totfact>
</mgrwt>
<rwgt>
<wgt id='morphing_basis_vector_1'> +6.8125422e-06 </wgt>
<wgt id='morphing_basis_vector_2'> +8.2642692e-06 </wgt>
<wgt id='morphing_basis_vector_3'> +8.3339501e-06 </wgt>
<wgt id='morphing_basis_vector_4'> +7.0630507e-07 </wgt>
<wgt id='morphing_basis_vector_5'> +6.3061034e-06 </wgt>
</rwgt>
</event>
<event>
 4      1 +7.6845000e-11 4.69573400e+03 7.81860800e-03 7.42785800e-02
        2 -1    0    0  501    0 +0.0000000000e+00 +0.0000000000e+00 +3.0154447348e+03 3.0154447348e+03 0.0000000000e+00 0.0000e+00 1.0000e+00
       -2 -1    0    0    0  501 -0.0000000000e+00 -0.0000000000e+00 -1.8280820048e+03 1.8280820048e+03 0.0000000000e+00 0.0000e+00 -1.0000e+00
      -13  1    1    2    0    0 +5.6132836978e+02 -1.0613736171e+03 +2.6748255033e+03 2.9319438888e+03 0.0000000000e+00 0.0000e+00 1.0000e+00
       13  1    1    2    0    0 -5.6132836978e+02 +1.0613736171e+03 -1.4874627732e+03 1.9115828508e+03 0.0000000000e+00 0.0000e+00 -1.0000e+00
<mgrwt>
<rscale>  0 0.46957343E+04</rscale>
<asrwt>0</asrwt>
<pdfrwt beam="1">  1        2 0.46391457E+00 0.46957343E+04</pdfrwt>
<pdfrwt beam="2">  1       -2 0.28124339E+00 0.46957343E+04</pdfrwt>
<totfact> 0.49230433E-02</totfact>
</mgrwt>
<rwgt>
<wgt id='morphing_basis_vector_1'> +6.8486777e-06 </wgt>
<wgt id='morphing_basis_vector_2'> +8.6808518e-06 </wgt>
<wgt id='morphing_basis_vector_3'> +8.4623025e-06 </wgt>
<wgt id='morphing_basis_vector_4'> +2.2757397e-07 </wgt>
<wgt id='morphing_basis_vector_5'> +6.0997364e-06 </wgt>
</rwgt>
</event>
<event>
 4      1 +7.6845000e-11 4.94046100e+03 7.81860800e-03 7.39277500e-02
        2 -1    0    0  501    0 +0.0000000000e+00 +0.0000000000e+00 +3.5427135837e+03 3.5427135837e+03 0.0000000000e+00 0.0000e+00 -1.0000e+00
       -2 -1    0    0    0  501 -0.0000000000e+00 -0.0000000000e+00 -1.7224196616e+03 1.7224196616e+03 0.0000000000e+00 0.0000e+00 1.0000e+00
      -13  1    1    2    0    0 -7.3770236160e+01 -2.4315812362e+03 +4.5299268893e+02 2.4745164643e+03 0.0000000000e+00 0.0000e+00 1.0000e+00
       13  1    1    2    0    0 +7.3770236160e+01 +2.4315812362e+03 +1.3673012332e+03 2.7906167810e+03 0.0000000000e+00 0.0000e+00 -1.0000e+00
<mgrwt>
<rscale>  0 0.49404613E+04</rscale>
<asrwt>0</asrwt>
<pdfrwt beam="1">  1        2 0.54503286E+00 0.49404613E+04</pdfrwt>
<pdfrwt beam="2">  1       -2 0.26498764E+00 0.49404613E+04</pdfrwt>
<totfact> 0.26832800E-02</totfact>
</mgrwt>
<rwgt>
<wgt id='morphing_basis_vector_1'> +6.3187058e-06 </wgt>
<wgt id='morphing_basis_vector_2'> +4.5590796e-06 </wgt>
<wgt id='morphing_basis_vector_3'> +7.0210675e-06 </wgt>
<wgt id='morphing_basis_vector_4'> +4.6821282e-06 </wgt>
<wgt id='morphing_basis_vector_5'> +7.8479911e-06 </wgt>
</rwgt>
</event>
<event>
 4      1 +7.6845000e-11 5.06663100e+03 7.81860800e-03 7.37548000e-02
        2 -1    0    0  501    0 +0.0000000000e+00 +0.0000000000e+00 +2.0744040740e+03 2.0744040740e+03 0.0000000000e+00 0.0000e+00 1.0000e+00
       -2 -1    0    0    0  501 -0.0000000000e+00 -0.0000000000e+00 -3.0937495773e+03 3.0937495773e+03 0.0000000000e+00 0.0000e+00 -1.0000e+00
      -13  1    1    2    0    0 -2.0636488872e+02 -1.2705623174e+03 -2.7353123535e+03 3.0230528842e+03 0.0000000000e+00 0.0000e+00 -1.0000e+00
       13  1    1    2    0    0 +2.0636488872e+02 +1.2705623174e+03 +1.7159668502e+03 2.1451007670e+03 0.0000000000e+00 0.0000e+00 1.0000e+00
<mgrwt>
<rscale>  0 0.50666307E+04</rscale>
<asrwt>0</asrwt>
<pdfrwt beam="1">  1        2 0.31913909E+00 0.50666307E+04</pdfrwt>
<pdfrwt beam="2">  1       -2 0.47596148E+00 0.50666307E+04</pdfrwt>
<totfact> 0.88236865E-03</totfact>
</mgrwt>
<rwgt>
<wgt id='morphing_basis_vector_1'> +6.8568935e-06 </wgt>
<wgt id='morphing_basis_vector_2'> +4.6600886e-06 </wgt>
<wgt id='morphing_basis_vector_3'> +7.5549406e-06 </wgt>
<wgt id='morphing_basis_vector_4'> +5.4579970e-06 </wgt>
<wgt id='morphing_basis_vector_5'> +8.7069318e-06 </wgt>
</rwgt>
</event>
<event>
 4      1 +7.6845000e-11 4.82781700e+03 7.81860800e-03 7.40866300e-02
        2 -1    0    0  501    0 +0.0000000000e+00 +0.0000000000e+00 +1.7655043199e+03 1.7655043199e+03 0.0000000000e+00 0.0000e+00 1.0000e+00
       -2 -1    0    0    0  501 -0.0000000000e+00 -0.0000000000e+00 -3.3004473755e+03 3.3004473755e+03 0.0000000000e+00 0.0000e+00 -1.0000e+00
      -13  1    1    2    0    0 +2.7173628798e+02 +2.3724439177e+03 -3.9703828444e+02 2.4207375224e+03 0.0000000000e+00 0.0000e+00 -1.0000e+00
       13  1    1    2    0    0 -2.7173628798e+02 -2.3724439177e+03 -1.1379047712e+03 2.6452141730e+03 0.0000000000e+00 0.0000e+00 1.0000e+00
<mgrwt>
<rscale>  0 0.48278169E+04</rscale>
<asrwt>0</asrwt>
<pdfrwt beam="1">  1        2 0.27161605E+00 0.48278169E+04</pdfrwt>
<pdfrwt beam="2">  1       -2 0.50776113E+00 0.48278169E+04</pdfrwt>
<totfact> 0.77462002E-03</totfact>
</mgrwt>
<rwgt>
<wgt id='morphing_basis_vector_1'> +6.0025538e-06 </wgt>
<wgt id='morphing_basis_vector_2'> +4.8594946e-06 </wgt>
<wgt id='morphing_basis_vector_3'> +6.7894163e-06 </wgt>
<wgt id='morphing_basis_vector_4'> +3.7597143e-06 </wgt>
<wgt id='morphing_basis_vector_5'> +7.1115724e-06 </wgt>
</rwgt>
</event>
<event>
 4      1 +7.6845000e-11 4.72981600e+03 7.81860800e-03 7.42284500e-02
        2 -1    0    0  501    0 +0.0000000000e+00 +0.0000000000e+00 +2.9116549607e+03 2.9116549607e+03 0.0000000000e+00 0.0000e+00 1.0000e+00
       -2 -1    0    0    0  501 -0.0000000000e+00 -0.0000000000e+00 -1.9208281037e+03 1.9208281037e+03 0.0000000000e+00 0.0000e+00 -1.0000e+00
      -13  1    1    2    0    0 +7.1391268967e+02 +1.0810295755e+03 +2.5168674494e+03 2.8307098101e+03 0.0000000000e+00 0.0000e+00 1.0000e+00
       13  1    1    2    0    0 -7.1391268967e+02 -1.0810295755e+03 -1.5260405924e+03 2.0017732542e+03 0.0000000000e+00 0.0000e+00 -1.0000e+00
<mgrwt>
<rscale>  0 0.47298155E+04</rscale>
<asrwt>0</asrwt>
<pdfrwt beam="1">  1        2 0.44794691E+00 0.47298155E+04</pdfrwt>
<pdfrwt beam="2">  1       -2 0.29551202E+00 0.47298155E+04</pdfrwt>
<totfact> 0.45869658E-02</totfact>
</mgrwt>
<rwgt>
<wgt id='morphing_basis_vector_1'> +7.0148150e-06 </wgt>
<wgt id='morphing_basis_vector_2'> +8.8345626e-06 </wgt>
<wgt id='morphing_basis_vector_3'> +8.6560560e-06 </wgt>
<wgt id='morphing_basis_vector_4'> +3.0683563e-07 </wgt>
<wgt id='morphing_basis_vector_5'> +6.2854244e-06 </wgt>
</rwgt>
</event>
<event>
 4      1 +7.6845000e-11 4.91090600e+03 7.81860800e-03 7.39690200e-02
        2 -1    0    0  501    0 +0.0000000000e+00 +0.0000000000e+00 +1.9937073679e+03 1.9937073679e+03 0.0000000000e+00 0.0000e+00 1.0000e+00
       -2 -1    0    0    0  501 -0.0000000000e+00 -0.0000000000e+00 -3.0241401579e+03 3.0241401579e+03 0.0000000000e+00 0.0000e+00 -1.0000e+00
      -13  1    1    2    0    0 -4.7437724328e+01 +2.1470944663e+03 -1.7315102369e+03 2.7586940181e+03 0.0000000000e+00 0.0000e+00 -1.0000e+00
       13  1    1    2    0    0 +4.7437724328e+01 -2.1470944663e+03 +7.0107744690e+02 2.2591535077e+03 0.0000000000e+00 0.0000e+00 1.0000e+00
<mgrwt>
<rscale>  0 0.49109064E+04</rscale>
<asrwt>0</asrwt>
<pdfrwt beam="1">  1        2 0.30672421E+00 0.49109064E+04</pdfrwt>
<pdfrwt beam="2">  1       -2 0.46525233E+00 0.49109064E+04</pdfrwt>
<totfact> 0.11870822E-02</totfact>
</mgrwt>
<rwgt>
<wgt id='morphing_basis_vector_1'> +6.0824872e-06 </wgt>
<wgt id='morphing_basis_vector_2'> +4.1959975e-06 </wgt>
<wgt id='morphing_basis_vector_3'> +6.7136936e-06 </wgt>
<wgt id='morphing_basis_vector_4'> +4.7557512e-06 </wgt>
<wgt id='morphing_basis_vector_5'> +7.6767814e-06 </wgt>
</rwgt>
</event>
<event>
 4      1 +7.6845000e-11 5.04653500e+03 7.81860800e-03 7.37820000e-02
        2 -1    0    0  501    0 +0.0000000000e+00 +0.0000000000e+00 +3.0512192171e+03 3.0512192171e+03 0.0000000000e+00 0.0000e+00 -1.0000e+00
       -2 -1    0    0    0  501 -0.0000000000e+00 -0.0000000000e+00 -2.0866669265e+03 2.0866669265e+03 0.0000000000e+00 0.0000e+00 1.0000e+00
      -13  1    1    2    0    0 +8.4082430510e+02 +9.8595993775e+02 -1.7220437527e+03 2.1551188360e+03 0.0000000000e+00 0.0000e+00 1.0000e+00
       13  1    1    2    0    0 -8.4082430510e+02 -9.8595993775e+02 +2.6865960434e+03 2.9827673076e+03 0.0000000000e+00 0.0000e+00 -1.0000e+00
<mgrwt>
<rscale>  0 0.50465347E+04</rscale>
<asrwt>0</asrwt>
<pdfrwt beam="1">  1        2 0.46941834E+00 0.50465347E+04</pdfrwt>
<pdfrwt beam="2">  1       -2 0.32102568E+00 0.50465347E+04</pdfrwt>
<totfact> 0.24508176E-02</totfact>
</mgrwt>
<rwgt>
<wgt id='morphing_basis_vector_1'> +6.7491742e-06 </wgt>
<wgt id='morphing_basis_vector_2'> +4.5869131e-06 </wgt>
<wgt id='morphing_basis_vector_3'> +7.4359409e-06 </wgt>
<wgt id='morphing_basis_vector_4'> +5.3714938e-06 </wgt>
<wgt id='morphing_basis_vector_5'> +8.5691766e-06 </wgt>
</rwgt>
</event>
<event>
 4      1 +7.6845000e-11 4.82248100e+03 7.81860800e-03 7.40942700e-02
        2 -1    0    0  501    0 +0.0000000000e+00 +0.0000000000e+00 +4.2170789859e+03 4.2170789859e+03 0.0000000000e+00 0.0000e+00 1.0000e+00
       -2 -1    0    0    0  501 -0.0000000000e+00 -0.0000000000e+00 -1.3786986326e+03 1.3786986326e+03 0.0000000000e+00 0.0000e+00 -1.0000e+00
      -13  1    1    2    0    0 -1.9817044797e+03 -1.3116631642e+03 +9.4576051779e+02 2.5577482007e+03 0.0000000000e+00 0.0000e+00 -1.0000e+00
       13  1    1    2    0    0 +1.9817044797e+03 +1.3116631642e+03 +1.8926198355e+03 3.0380294178e+03 0.0000000000e+00 0.0000e+00 1.0000e+00
<mgrwt>
<rscale>  0 0.48224811E+04</rscale>
<asrwt>0</asrwt>
<pdfrwt beam="1">  1        2 0.64878138E+00 0.48224811E+04</pdfrwt>
<pdfrwt beam="2">  1       -2 0.21210748E+00 0.48224811E+04</pdfrwt>
<totfact> 0.17636718E-02</totfact>
</mgrwt>
<rwgt>
<wgt id='morphing_basis_vector_1'> +5.7402101e-06 </wgt>
<wgt id='morphing_basis_vector_2'> +4.1451147e-06 </wgt>
<wgt id='morphing_basis_vector_3'> +6.3771214e-06 </wgt>
<wgt id='morphing_basis_vector_4'> +4.2453014e-06 </wgt>
<wgt id='morphing_basis_vector_5'> +7.1221484e-06 </wgt>
</rwgt>
</event>
<event>
 4      1 +7.6845000e-11 4.81590700e+03 7.81860800e-03 7.41036900e-02
        2 -1    0    0  501    0 +0.0000000000e+00 +0.0000000000e+00 +4.9110820002e+03 4.9110820002e+03 0.0000000000e+00 0.0000e+00 1.0000e+00
       -2 -1    0    0    0  501 -0.0000000000e+00 -0.0000000000e+00 -1.1806442631e+03 1.1806442631e+03 0.0000000000e+00 0.0000e+00 -1.0000e+00
      -13  1    1    2    0    0 +1.7340726269e+03 +2.4757196629e+01 -2.4784493908e+02 1.7518698319e+03 0.0000000000e+00 0.0000e+00 -1.0000e+00
       13  1    1    2    0    0 -1.7340726269e+03 -2.4757196629e+01 +3.9782826761e+03 4.3398564314e+03 0.0000000000e+00 0.0000e+00 1.0000e+00
<mgrwt>
<rscale>  0 0.48159073E+04</rscale>
<asrwt>0</asrwt>
<pdfrwt beam="1">  1        2 0.75555107E+00 0.48159073E+04</pdfrwt>
<pdfrwt beam="2">  1       -2 0.18163758E+00 0.48159073E+04</pdfrwt>
<totfact> 0.53092209E-03</totfact>
</mgrwt>
<rwgt>
<wgt id='morphing_basis_vector_1'> +5.6071094e-06 </wgt>
<wgt id='morphing_basis_vector_2'> +3.8230890e-06 </wgt>
<wgt id='morphing_basis_vector_3'> +6.1771927e-06 </wgt>
<wgt id='morphing_basis_vector_4'> +4.4391828e-06 </wgt>
<wgt id='morphing_basis_vector_5'> +7.1014426e-06 </wgt>
</rwgt>
</event>
<event>
 4      1 +7.6845000e-11 4.64636100e+03 7.81860800e-03 7.43519700e-02
        2 -1    0    0  501    0 +0.0000000000e+00 +0.0000000000e+00 +4.0907940040e+03 4.0907940040e+03 0.0000000000e+00 0.0000e+00 -1.0000e+00
       -2 -1    0    0    0  501 -0.0000000000e+00 -0.0000000000e+00 -1.3193449083e+03 1.3193449083e+03 0.0000000000e+00 0.0000e+00 1.0000e+00
      -13  1    1    2    0    0 +1.9630740689e+02 -1.8001741096e+03 -3.0884311415e+02 1.8369941459e+03 0.0000000000e+00 0.0000e+00 1.0000e+00
       13  1    1    2    0    0 -1.9630740689e+02 +1.8001741096e+03 +3.0802922099e+03 3.5731447664e+03 0.0000000000e+00 0.0000e+00 -1.0000e+00
<mgrwt>
<rscale>  0 0.46463613E+04</rscale>
<asrwt>0</asrwt>
<pdfrwt beam="1">  1        2 0.62935292E+00 0.46463613E+04</pdfrwt>
<pdfrwt beam="2">  1       -2 0.20297614E+00 0.46463613E+04</pdfrwt>
<totfact> 0.27047676E-02</totfact>
</mgrwt>
<rwgt>
<wgt id='morphing_basis_vector_1'> +4.8647321e-06 </wgt>
<wgt id='morphing_basis_vector_2'> +3.3247529e-06 </wgt>
<wgt id='morphing_basis_vector_3'> +5.3587303e-06 </wgt>
<wgt id='morphing_basis_vector_4'> +3.8360062e-06 </wgt>
<wgt id='morphing_basis_vector_5'> +6.1491604e-06 </wgt>
</rwgt>
</event>
<event>
 4      1 +7.6845000e-11 5.05264900e+03 7.81860800e-03 7.37737100e-02
        2 -1    0    0  501    0 +0.0000000000e+00 +0.0000000000e+00 +2.7492607662e+03 2.7492607662e+03 0.0000000000e+00 0.0000e+00 1.0000e+00
       -2 -1    0    0    0  501 -0.0000000000e+00 -0.0000000000e+00 -2.3214655733e+03 2.3214655733e+03 0.0000000000e+00 0.0000e+00 -1.0000e+00
      -13  1    1    2    0    0 +2.2918177569e+03 -8.1127015863e+02 -4.7538313835e+02 2.4772115431e+03 0.0000000000e+00 0.0000e+00 -1.0000e+00
       13  1    1    2    0    0 -2.2918177569e+03 +8.1127015863e+02 +9.0317833128e+02 2.5935147964e+03 0.0000000000e+00 0.0000e+00 1.0000e+00
<mgrwt>
<rscale>  0 0.50526485E+04</rscale>
<asrwt>0</asrwt>
<pdfrwt beam="1">  1        2 0.42296319E+00 0.50526485E+04</pdfrwt>
<pdfrwt beam="2">  1       -2 0.35714855E+00 0.50526485E+04</pdfrwt>
<totfact> 0.22183179E-02</totfact>
</mgrwt>
<rwgt>
<wgt id='morphing_basis_vector_1'> +6.8678594e-06 </wgt>
<wgt id='morphing_basis_vector_2'> +4.8617732e-06 </wgt>
<wgt id='morphing_basis_vector_3'> +7.6116957e-06 </wgt>
<wgt id='morphing_basis_vector_4'> +5.2143071e-06 </wgt>
<wgt id='morphing_basis_vector_5'> +8.5955338e-06 </wgt>
</rwgt>
</event>
<event>
 4      1 +7.6845000e-11 4.69510200e+03 7.81860800e-03 7.42795100e-02
        2 -1    0    0  501    0 +0.0000000000e+00 +0.0000000000e+00 +3.6103122603e+03 3.6103122603e+03 0.0000000000e+00 0.0000e+00 1.0000e+00
       -2 -1    0    0    0  501 -0.0000000000e+00 -0.0000000000e+00 -1.5264596312e+03 1.5264596312e+03 0.0000000000e+00 0.0000e+00 -1.0000e+00
      -13  1    1    2    0    0 +1.3213101354e+03 -8.8000661646e+02 +2.9339797324e+03 3.3359420242e+03 0.0000000000e+00 0.0000e+00 1.0000e+00
       13  1    1    2    0    0 -1.3213101354e+03 +8.8000661646e+02 -8.5012710330e+02 1.8008298672e+03 0.0000000000e+00 0.0000e+00 -1.0000e+00
<mgrwt>
<rscale>  0 0.46951021E+04</rscale>
<asrwt>0</asrwt>
<pdfrwt beam="1">  1        2 0.55543266E+00 0.46951021E+04</pdfrwt>
<pdfrwt beam="2">  1       -2 0.23483994E+00 0.46951021E+04</pdfrwt>
<totfact> 0.39328218E-02</totfact>
</mgrwt>
<rwgt>
<wgt id='morphing_basis_vector_1'> +6.6134981e-06 </wgt>
<wgt id='morphing_basis_vector_2'> +7.9961884e-06 </wgt>
<wgt id='morphing_basis_vector_3'> +8.0830567e-06 </wgt>
<wgt id='morphing_basis_vector_4'> +7.1986122e-07 </wgt>
<wgt id='morphing_basis_vector_5'> +6.1376598e-06 </wgt>
</rwgt>
</event>
<event>
 4      1 +7.6845000e-11 4.87401900e+03 7.81860800e-03 7.40209500e-02
        2 -1    0    0  501    0 +0.0000000000e+00 +0.0000000000e+00 +2.6452390302e+03 2.6452390302e+03 0.0000000000e+00 0.0000e+00 -1.0000e+00
       -2 -1    0    0    0  501 -0.0000000000e+00 -0.0000000000e+00 -2.2451713736e+03 2.2451713736e+03 0.0000000000e+00 0.0000e+00 1.0000e+00
      -13  1    1    2    0    0 +1.1490962364e+03 -1.7344236743e+03 -1.0732363696e+03 2.3410433459e+03 0.0000000000e+00 0.0000e+00 1.0000e+00
       13  1    1    2    0    0 -1.1490962364e+03 +1.7344236743e+03 +1.4733040262e+03 2.5493670579e+03 0.0000000000e+00 0.0000e+00 -1.0000e+00
<mgrwt>
<rscale>  0 0.48740189E+04</rscale>
<asrwt>0</asrwt>
<pdfrwt beam="1">  1        2 0.40695985E+00 0.48740189E+04</pdfrwt>
<pdfrwt beam="2">  1       -2 0.34541098E+00 0.48740189E+04</pdfrwt>
<totfact> 0.31047639E-02</totfact>
</mgrwt>
<rwgt>
<wgt id='morphing_basis_vector_1'> +5.8974573e-06 </wgt>
<wgt id='morphing_basis_vector_2'> +4.0570091e-06 </wgt>
<wgt id='morphing_basis_vector_3'> +6.5062682e-06 </wgt>
<wgt id='morphing_basis_vector_4'> +4.6245296e-06 </wgt>
<wgt id='morphing_basis_vector_5'> +7.4488526e-06 </wgt>
</rwgt>
</event>
<event>
 4      1 +7.6845000e-11 4.77590900e+03 7.81860800e-03 7.41613200e-02
        2 -1    0    0  501    0 +0.0000000000e+00 +0.0000000000e+00 +2.9123423157e+03 2.9123423157e+03 0.0000000000e+00 0.0000e+00 1.0000e+00
       -2 -1    0    0    0  501 -0.0000000000e+00 -0.0000000000e+00 -1.9579862260e+03 1.9579862260e+03 0.0000000000e+00 0.0000e+00 -1.0000e+00
      -13  1    1    2    0    0 +1.7798947646e+03 +4.8038690300e+01 +2.0998603166e+03 2.7531339303e+03 0.0000000000e+00 0.0000e+00 1.0000e+00
       13  1    1    2    0    0 -1.7798947646e+03 -4.8038690300e+01 -1.1455042270e+03 2.1171946114e+03 0.0000000000e+00 0.0000e+00 -1.0000e+00
<mgrwt>
<rscale>  0 0.47759088E+04</rscale>
<asrwt>0</asrwt>
<pdfrwt beam="1">  1        2 0.44805266E+00 0.47759088E+04</pdfrwt>
<pdfrwt beam="2">  1       -2 0.30122865E+00 0.47759088E+04</pdfrwt>
<totfact> 0.41785057E-02</totfact>
</mgrwt>
<rwgt>
<wgt id='morphing_basis_vector_1'> +6.8897394e-06 </wgt>
<wgt id='morphing_basis_vector_2'> +8.0035322e-06 </wgt>
<wgt id='morphing_basis_vector_3'> +8.3489458e-06 </wgt>
<wgt id='morphing_basis_vector_4'> +1.1734381e-06 </wgt>
<wgt id='morphing_basis_vector_5'> +6.6064058e-06 </wgt>
</rwgt>
</event>
<event>
 4      1 +7.6845000e-11 4.65357200e+03 7.81860800e-03 7.43411900e-02
        2 -1    0    0  501    0 +0.0000000000e+00 +0.0000000000e+00 +2.6332037480e+03 2.6332037480e+03 0.0000000000e+00 0.0000e+00 -1.0000e+00
       -2 -1    0    0    0  501 -0.0000000000e+00 -0.0000000000e+00 -2.0560253927e+03 2.0560253927e+03 0.0000000000e+00 0.0000e+00 1.0000e+00
      -13  1    1    2    0    0 +9.9717734872e+02 -2.9317430598e+01 -1.8295906044e+03 2.0838963401e+03 0.0000000000e+00 0.0000e+00 1.0000e+00
       13  1    1    2    0    0 -9.9717734872e+02 +2.9317430598e+01 +2.4067689597e+03 2.6053328006e+03 0.0000000000e+00 0.0000e+00 -1.0000e+00
<mgrwt>
<rscale>  0 0.46535723E+04</rscale>
<asrwt>0</asrwt>
<pdfrwt beam="1">  1        2 0.40510827E+00 0.46535723E+04</pdfrwt>
<pdfrwt beam="2">  1       -2 0.31631160E+00 0.46535723E+04</pdfrwt>
<totfact> 0.49954625E-02</totfact>
</mgrwt>
<rwgt>
<wgt id='morphing_basis_vector_1'> +4.8849349e-06 </wgt>
<wgt id='morphing_basis_vector_2'> +3.3161759e-06 </wgt>
<wgt id='morphing_basis_vector_3'> +5.3759664e-06 </wgt>
<wgt id='morphing_basis_vector_4'> +3.8811233e-06 </wgt>
<wgt id='morphing_basis_vector_5'> +6.1893345e-06 </wgt>
</rwgt>
</event>
<event>
 4      1 +7.6845000e-11 5.06005400e+03 7.81860800e-03 7.37636900e-02
        2 -1    0    0  501    0 +0.0000000000e+00 +0.0000000000e+00 +3.5609284999e+03 3.5609284999e+03 0.0000000000e+00 0.0000e+00 -1.0000e+00
       -2 -1    0    0    0  501 -0.0000000000e+00 -0.0000000000e+00 -1.7975749037e+03 1.7975749037e+03 0.0000000000e+00 0.0000e+00 1.0000e+00
      -13  1    1    2    0    0 -2.2109319845e+02 +1.7758433230e+03 +2.7756065908e+03 3.3024980935e+03 0.0000000000e+00 0.0000e+00 1.0000e+00
       13  1    1    2    0    0 +2.2109319845e+02 -1.7758433230e+03 -1.0122529946e+03 2.0560053102e+03 0.0000000000e+00 0.0000e+00 -1.0000e+00
<mgrwt>
<rscale>  0 0.50600536E+04</rscale>
<asrwt>0</asrwt>
<pdfrwt beam="1">  1        2 0.54783515E+00 0.50600536E+04</pdfrwt>
<pdfrwt beam="2">  1       -2 0.27654999E+00 0.50600536E+04</pdfrwt>
<totfact> 0.21474840E-02</totfact>
</mgrwt>
<rwgt>
<wgt id='morphing_basis_vector_1'> +8.8157662e-06 </wgt>
<wgt id='morphing_basis_vector_2'> +1.0492320e-05 </wgt>
<wgt id='morphing_basis_vector_3'> +1.0753727e-05 </wgt>
<wgt id='morphing_basis_vector_4'> +1.1791060e-06 </wgt>
<wgt id='morphing_basis_vector_5'> +8.3052502e-06 </wgt>
</rwgt>
</event>
<event>
 4      1 +7.6845000e-11 5.45286200e+03 7.81860800e-03 7.32558800e-02
        2 -1    0    0  501    0 +0.0000000000e+00 +0.0000000000e+00 +2.9213533889e+03 2.9213533889e+03 0.0000000000e+00 0.0000e+00 -1.0000e+00
       -2 -1    0    0    0  501 -0.0000000000e+00 -0.0000000000e+00 -2.5445141860e+03 2.5445141860e+03 0.0000000000e+00 0.0000e+00 1.0000e+00
      -13  1    1    2    0    0 +9.6845647574e+02 -5.8106167630e+02 -2.2990076845e+03 2.5614404055e+03 0.0000000000e+00 0.0000e+00 1.0000e+00
       13  1    1    2    0    0 -9.6845647574e+02 +5.8106167630e+02 +2.6758468875e+03 2.9044271694e+03 0.0000000000e+00 0.0000e+00 -1.0000e+00
<mgrwt>
<rscale>  0 0.54528617E+04</rscale>
<asrwt>0</asrwt>
<pdfrwt beam="1">  1        2 0.44943899E+00 0.54528617E+04</pdfrwt>
<pdfrwt beam="2">  1       -2 0.39146372E+00 0.54528617E+04</pdfrwt>
<totfact> 0.10063251E-02</totfact>
</mgrwt>
<rwgt>
<wgt id='morphing_basis_vector_1'> +9.1898634e-06 </wgt>
<wgt id='morphing_basis_vector_2'> +6.2461126e-06 </wgt>
<wgt id='morphing_basis_vector_3'> +1.0133032e-05 </wgt>
<wgt id='morphing_basis_vector_4'> +7.3311319e-06 </wgt>
<wgt id='morphing_basis_vector_5'> +1.1691248e-05 </wgt>
</rwgt>
</event>
<event>
 4      1 +7.6845000e-11 4.62587300e+03 7.81860800e-03 7.43826900e-02
        2 -1    0    0  501    0 +0.0000000000e+00 +0.0000000000e+00 +2.8133742811e+03 2.8133742811e+03 0.0000000000e+00 0.0000e+00 -1.0000e+00
       -2 -1    0    0    0  501 -0.0000000000e+00 -0.0000000000e+00 -1.9015154803e+03 1.9015154803e+03 0.0000000000e+00 0.0000e+00 1.0000e+00
      -13  1    1    2    0    0 -3.6349032378e+02 +1.0776848118e+03 -1.5968136615e+03 1.9604447553e+03 0.0000000000e+00 0.0000e+00 1.0000e+00
       13  1    1    2    0    0 +3.6349032378e+02 -1.0776848118e+03 +2.5086724623e+03 2.7544450062e+03 0.0000000000e+00 0.0000e+00 -1.0000e+00
<mgrwt>
<rscale>  0 0.46258728E+04</rscale>
<asrwt>0</asrwt>
<pdfrwt beam="1">  1        2 0.43282681E+00 0.46258728E+04</pdfrwt>
<pdfrwt beam="2">  1       -2 0.29254084E+00 0.46258728E+04</pdfrwt>
<totfact> 0.55917712E-02</totfact>
</mgrwt>
<rwgt>
<wgt id='morphing_basis_vector_1'> +4.7705254e-06 </wgt>
<wgt id='morphing_basis_vector_2'> +3.2392963e-06 </wgt>
<wgt id='morphing_basis_vector_3'> +5.2498316e-06 </wgt>
<wgt id='morphing_basis_vector_4'> +3.7883024e-06 </wgt>
<wgt id='morphing_basis_vector_5'> +6.0426736e-06 </wgt>
</rwgt>
</event>
<event>
 4      1 +7.6845000e-11 5.35774800e+03 7.81860800e-03 7.33747200e-02
        2 -1    0    0  501    0 +0.0000000000e+00 +0.0000000000e+00 +2.4521753002e+03 2.4521753002e+03 0.0000000000e+00 0.0000e+00 -1.0000e+00
       -2 -1    0    0    0  501 -0.0000000000e+00 -0.0000000000e+00 -2.9265305597e+03 2.9265305597e+03 0.0000000000e+00 0.0000e+00 1.0000e+00
      -13  1    1    2    0    0 -1.1459493904e+02 -9.2869182136e+02 -2.7571290443e+03 2.9115908136e+03 0.0000000000e+00 0.0000e+00 1.0000e+00
       13  1    1    2    0    0 +1.1459493904e+02 +9.2869182136e+02 +2.2827737847e+03 2.4671150462e+03 0.0000000000e+00 0.0000e+00 -1.0000e+00
<mgrwt>
<rscale>  0 0.53577480E+04</rscale>
<asrwt>0</asrwt>
<pdfrwt beam="1">  1        2 0.37725774E+00 0.53577480E+04</pdfrwt>
<pdfrwt beam="2">  1       -2 0.45023547E+00 0.53577480E+04</pdfrwt>
<totfact> 0.79862818E-03</totfact>
</mgrwt>
<rwgt>
<wgt id='morphing_basis_vector_1'> +8.5665471e-06 </wgt>
<wgt id='morphing_basis_vector_2'> +5.8208485e-06 </wgt>
<wgt id='morphing_basis_vector_3'> +9.4437852e-06 </wgt>
<wgt id='morphing_basis_vector_4'> +6.8324424e-06 </wgt>
<wgt id='morphing_basis_vector_5'> +1.0894619e-05 </wgt>
</rwgt>
</event>
<event>
 4      1 +7.6845000e-11 4.70221000e+03 7.81860800e-03 7.42690200e-02
        2 -1    0    0  501    0 +0.0000000000e+00 +0.0000000000e+00 +3.2073080173e+03 3.2073080173e+03 0.0000000000e+00 0.0000e+00 1.0000e+00
       -2 -1    0    0    0  501 -0.0000000000e+00 -0.0000000000e+00 -1.7234687028e+03 1.7234687028e+03 0.0000000000e+00 0.0000e+00 -1.0000e+00
      -13  1    1    2    0    0 +1.6716935033e+03 -3.4452457371e+02 -9.5359884033e+02 1.9551488688e+03 0.0000000000e+00 0.0000e+00 -1.0000e+00
       13  1    1    2    0    0 -1.6716935033e+03 +3.4452457371e+02 +2.4374381548e+03 2.9756278513e+03 0.0000000000e+00 0.0000e+00 1.0000e+00
<mgrwt>
<rscale>  0 0.47022101E+04</rscale>
<asrwt>0</asrwt>
<pdfrwt beam="1">  1        2 0.49343200E+00 0.47022101E+04</pdfrwt>
<pdfrwt beam="2">  1       -2 0.26514903E+00 0.47022101E+04</pdfrwt>
<totfact> 0.47186323E-02</totfact>
</mgrwt>
<rwgt>
<wgt id='morphing_basis_vector_1'> +5.0981464e-06 </wgt>
<wgt id='morphing_basis_vector_2'> +3.4760549e-06 </wgt>
<wgt id='morphing_basis_vector_3'> +5.6148233e-06 </wgt>
<wgt id='morphing_basis_vector_4'> +4.0325882e-06 </wgt>
<wgt id='morphing_basis_vector_5'> +6.4519812e-06 </wgt>
</rwgt>
</event>
<event>
 4      1 +7.6845000e-11 5.22581600e+03 7.81860800e-03 7.35438200e-02
        2 -1    0    0  501    0 +0.0000000000e+00 +0.0000000000e+00 +2.1931195292e+03 2.1931195292e+03 0.0000000000e+00 0.0000e+00 -1.0000e+00
       -2 -1    0    0    0  501 -0.0000000000e+00 -0.0000000000e+00 -3.1130492094e+03 3.1130492094e+03 0.0000000000e+00 0.0000e+00 1.0000e+00
      -13  1    1    2    0    0 -2.5948979584e+03 +1.3585472009e+01 -7.7062517457e+02 2.7069435050e+03 0.0000000000e+00 0.0000e+00 1.0000e+00
       13  1    1    2    0    0 +2.5948979584e+03 -1.3585472009e+01 -1.4930450564e+02 2.5992252336e+03 0.0000000000e+00 0.0000e+00 -1.0000e+00
<mgrwt>
<rscale>  0 0.52258163E+04</rscale>
<asrwt>0</asrwt>
<pdfrwt beam="1">  1        2 0.33740301E+00 0.52258163E+04</pdfrwt>
<pdfrwt beam="2">  1       -2 0.47893065E+00 0.52258163E+04</pdfrwt>
<totfact> 0.70943669E-03</totfact>
</mgrwt>
<rwgt>
<wgt id='morphing_basis_vector_1'> +7.9405867e-06 </wgt>
<wgt id='morphing_basis_vector_2'> +5.8118510e-06 </wgt>
<wgt id='morphing_basis_vector_3'> +8.8481245e-06 </wgt>
<wgt id='morphing_basis_vector_4'> +5.7878162e-06 </wgt>
<wgt id='morphing_basis_vector_5'> +9.8246349e-06 </wgt>
</rwgt>
</event>
<event>
 4      1 +7.6845000e-11 4.68429900e+03 7.81860800e-03 7.42955000e-02
        2 -1    0    0  501    0 +0.0000000000e+00 +0.0000000000e+00 +4.2420138365e+03 4.2420138365e+03 0.0000000000e+00 0.0000e+00 -1.0000e+00
       -2 -1    0    0    0  501 -0.0000000000e+00 -0.0000000000e+00 -1.2931746981e+03 1.2931746981e+03 0.0000000000e+00 0.0000e+00 1.0000e+00
      -13  1    1    2    0    0 -1.4724298595e+03 -1.8160410467e+03 +1.3089459913e+03 2.6794391918e+03 0.0000000000e+00 0.0000e+00 1.0000e+00
       13  1    1    2    0    0 +1.4724298595e+03 +1.8160410467e+03 +1.6398931472e+03 2.8557493428e+03 0.0000000000e+00 0.0000e+00 -1.0000e+00
<mgrwt>
<rscale>  0 0.46842993E+04</rscale>
<asrwt>0</asrwt>
<pdfrwt beam="1">  1        2 0.65261751E+00 0.46842993E+04</pdfrwt>
<pdfrwt beam="2">  1       -2 0.19894996E+00 0.46842993E+04</pdfrwt>
<totfact> 0.21053900E-02</totfact>
</mgrwt>
<rwgt>
<wgt id='morphing_basis_vector_1'> +5.1625830e-06 </wgt>
<wgt id='morphing_basis_vector_2'> +3.8387657e-06 </wgt>
<wgt id='morphing_basis_vector_3'> +5.7585799e-06 </wgt>
<wgt id='morphing_basis_vector_4'> +3.6705824e-06 </wgt>
<wgt id='morphing_basis_vector_5'> +6.3287196e-06 </wgt>
</rwgt>
</event>
<event>
 4      1 +7.6845000e-11 4.78164500e+03 7.81860800e-03 7.41530200e-02
        2 -1    0    0  501    0 +0.0000000000e+00 +0.0000000000e+00 +1.9521389060e+03 1.9521389060e+03 0.0000000000e+00 0.0000e+00 -1.0000e+00
       -2 -1    0    0    0  501 -0.0000000000e+00 -0.0000000000e+00 -2.9280873406e+03 2.9280873406e+03 0.0000000000e+00 0.0000e+00 1.0000e+00
      -13  1    1    2    0    0 +1.8980249856e+03 -9.8012337547e+02 -1.5838390829e+03 2.6592643565e+03 0.0000000000e+00 0.0000e+00 1.0000e+00
       13  1    1    2    0    0 -1.8980249856e+03 +9.8012337547e+02 +6.0789064826e+02 2.2209618901e+03 0.0000000000e+00 0.0000e+00 -1.0000e+00
<mgrwt>
<rscale>  0 0.47816454E+04</rscale>
<asrwt>0</asrwt>
<pdfrwt beam="1">  1        2 0.30032906E+00 0.47816454E+04</pdfrwt>
<pdfrwt beam="2">  1       -2 0.45047497E+00 0.47816454E+04</pdfrwt>
<totfact> 0.16109372E-02</totfact>
</mgrwt>
<rwgt>
<wgt id='morphing_basis_vector_1'> +5.4741858e-06 </wgt>
<wgt id='morphing_basis_vector_2'> +3.7872357e-06 </wgt>
<wgt id='morphing_basis_vector_3'> +6.0428178e-06 </wgt>
<wgt id='morphing_basis_vector_4'> +4.2618792e-06 </wgt>
<wgt id='morphing_basis_vector_5'> +6.8964761e-06 </wgt>
</rwgt>
</event>
<event>
 4      1 +7.6845000e-11 4.93935400e+03 7.81860800e-03 7.39292900e-02
        2 -1    0    0  501    0 +0.0000000000e+00 +0.0000000000e+00 +2.0918515383e+03 2.0918515383e+03 0.0000000000e+00 0.0000e+00 -1.0000e+00
       -2 -1    0    0    0  501 -0.0000000000e+00 -0.0000000000e+00 -2.9157444176e+03 2.9157444176e+03 0.0000000000e+00 0.0000e+00 1.0000e+00
      -13  1    1    2    0    0 +8.4474251582e+02 -1.7256378064e+03 -1.9851225103e+03 2.7626304744e+03 0.0000000000e+00 0.0000e+00 1.0000e+00
       13  1    1    2    0    0 -8.4474251582e+02 +1.7256378064e+03 +1.1612296310e+03 2.2449654815e+03 0.0000000000e+00 0.0000e+00 -1.0000e+00
<mgrwt>
<rscale>  0 0.49393540E+04</rscale>
<asrwt>0</asrwt>
<pdfrwt beam="1">  1        2 0.32182332E+00 0.49393540E+04</pdfrwt>
<pdfrwt beam="2">  1       -2 0.44857606E+00 0.49393540E+04</pdfrwt>
<totfact> 0.13686165E-02</totfact>
</mgrwt>
<rwgt>
<wgt id='morphing_basis_vector_1'> +6.2072037e-06 </wgt>
<wgt id='morphing_basis_vector_2'> +4.2441175e-06 </wgt>
<wgt id='morphing_basis_vector_3'> +6.8430716e-06 </wgt>
<wgt id='morphing_basis_vector_4'> +4.9033968e-06 </wgt>
<wgt id='morphing_basis_vector_5'> +7.8598317e-06 </wgt>
</rwgt>
</event>
<event>
 4      1 +7.6845000e-11 4.79019900e+03 7.81860800e-03 7.41406700e-02
        2 -1    0    0  501    0 +0.0000000000e+00 +0.0000000000e+00 +3.0389408355e+03 3.0389408355e+03 0.0000000000e+00 0.0000e+00 1.0000e+00
       -2 -1    0    0    0  501 -0.0000000000e+00 -0.0000000000e+00 -1.8876650559e+03 1.8876650559e+03 0.0000000000e+00 0.0000e+00 -1.0000e+00
      -13  1    1    2    0    0 -9.3994934106e+02 +1.4211772773e+02 -1.6853261568e+03 1.9349486988e+03 0.0000000000e+00 0.0000e+00 -1.0000e+00
       13  1    1    2    0    0 +9.3994934106e+02 -1.4211772773e+02 +2.8366019364e+03 2.9916571925e+03 0.0000000000e+00 0.0000e+00 1.0000e+00
<mgrwt>
<rscale>  0 0.47901993E+04</rscale>
<asrwt>0</asrwt>
<pdfrwt beam="1">  1        2 0.46752936E+00 0.47901993E+04</pdfrwt>
<pdfrwt beam="2">  1       -2 0.29041001E+00 0.47901993E+04</pdfrwt>
<totfact> 0.40868379E-02</totfact>
</mgrwt>
<rwgt>
<wgt id='morphing_basis_vector_1'> +5.4818721e-06 </wgt>
<wgt id='morphing_basis_vector_2'> +3.7219996e-06 </wgt>
<wgt id='morphing_basis_vector_3'> +6.0352226e-06 </wgt>
<wgt id='morphing_basis_vector_4'> +4.3594914e-06 </wgt>
<wgt id='morphing_basis_vector_5'> +6.9517343e-06 </wgt>
</rwgt>
</event>
<event>
 4      1 +7.6845000e-11 4.68118600e+03 7.81860800e-03 7.43001100e-02
        2 -1    0    0  501    0 +0.0000000000e+00 +0.0000000000e+00 +1.5232028944e+03 1.5232028944e+03 0.0000000000e+00 0.0000e+00 1.0000e+00
       -2 -1    0    0    0  501 -0.0000000000e+00 -0.0000000000e+00 -3.5966152496e+03 3.5966152496e+03 0.0000000000e+00 0.0000e+00 -1.0000e+00
      -13  1    1    2    0    0 +1.3107849678e+03 -1.2811149700e+02 -3.1528992041e+03 3.4169201306e+03 0.0000000000e+00 0.0000e+00 -1.0000e+00
       13  1    1    2    0    0 -1.3107849678e+03 +1.2811149700e+02 +1.0794868489e+03 1.7028980135e+03 0.0000000000e+00 0.0000e+00 1.0000e+00
<mgrwt>
<rscale>  0 0.46811856E+04</rscale>
<asrwt>0</asrwt>
<pdfrwt beam="1">  1        2 0.23433891E+00 0.46811856E+04</pdfrwt>
<pdfrwt beam="2">  1       -2 0.55332542E+00 0.46811856E+04</pdfrwt>
<totfact> 0.49548482E-03</totfact>
</mgrwt>
<rwgt>
<wgt id='morphing_basis_vector_1'> +5.0027816e-06 </wgt>
<wgt id='morphing_basis_vector_2'> +3.3993237e-06 </wgt>
<wgt id='morphing_basis_vector_3'> +5.5067963e-06 </wgt>
<wgt id='morphing_basis_vector_4'> +3.9716099e-06 </wgt>
<wgt id='morphing_basis_vector_5'> +6.3378648e-06 </wgt>
</rwgt>
</event>
<event>
 4      1 +7.6845000e-11 5.08989100e+03 7.81860800e-03 7.37234800e-02
        2 -1    0    0  501    0 +0.0000000000e+00 +0.0000000000e+00 +2.1037040893e+03 2.1037040893e+03 0.0000000000e+00 0.0000e+00 1.0000e+00
       -2 -1    0    0    0  501 -0.0000000000e+00 -0.0000000000e+00 -3.0787354025e+03 3.0787354025e+03 0.0000000000e+00 0.0000e+00 -1.0000e+00
      -13  1    1    2    0    0 -1.4766149401e+03 -6.8200750254e+02 -2.4804565305e+03 2.9661743904e+03 0.0000000000e+00 0.0000e+00 -1.0000e+00
       13  1    1    2    0    0 +1.4766149401e+03 +6.8200750254e+02 +1.5054252173e+03 2.2162651014e+03 0.0000000000e+00 0.0000e+00 1.0000e+00
<mgrwt>
<rscale>  0 0.50898913E+04</rscale>
<asrwt>0</asrwt>
<pdfrwt beam="1">  1        2 0.32364678E+00 0.50898913E+04</pdfrwt>
<pdfrwt beam="2">  1       -2 0.47365160E+00 0.50898913E+04</pdfrwt>
<totfact> 0.88154582E-03</totfact>
</mgrwt>
<rwgt>
<wgt id='morphing_basis_vector_1'> +6.9865404e-06 </wgt>
<wgt id='morphing_basis_vector_2'> +4.7557402e-06 </wgt>
<wgt id='morphing_basis_vector_3'> +7.6999111e-06 </wgt>
<wgt id='morphing_basis_vector_4'> +5.5522607e-06 </wgt>
<wgt id='morphing_basis_vector_5'> +8.8678432e-06 </wgt>
</rwgt>
</event>
<event>
 4      1 +7.6845000e-11 5.12031700e+03 7.81860800e-03 7.36827700e-02
        2 -1    0    0  501    0 +0.0000000000e+00 +0.0000000000e+00 +4.4300540164e+03 4.4300540164e+03 0.0000000000e+00 0.0000e+00 -1.0000e+00
       -2 -1    0    0    0  501 -0.0000000000e+00 -0.0000000000e+00 -1.4795329959e+03 1.4795329959e+03 0.0000000000e+00 0.0000e+00 1.0000e+00
      -13  1    1    2    0    0 -1.2626266838e+03 +9.4827598984e+02 -8.5055104996e+02 1.7935692304e+03 0.0000000000e+00 0.0000e+00 1.0000e+00
       13  1    1    2    0    0 +1.2626266838e+03 -9.4827598984e+02 +3.8010720705e+03 4.1160177819e+03 0.0000000000e+00 0.0000e+00 -1.0000e+00
<mgrwt>
<rscale>  0 0.51203168E+04</rscale>
<asrwt>0</asrwt>
<pdfrwt beam="1">  1        2 0.68154677E+00 0.51203168E+04</pdfrwt>
<pdfrwt beam="2">  1       -2 0.22762046E+00 0.51203168E+04</pdfrwt>
<totfact> 0.83390667E-03</totfact>
</mgrwt>
<rwgt>
<wgt id='morphing_basis_vector_1'> +7.1537303e-06 </wgt>
<wgt id='morphing_basis_vector_2'> +4.8678993e-06 </wgt>
<wgt id='morphing_basis_vector_3'> +7.8842940e-06 </wgt>
<wgt id='morphing_basis_vector_4'> +5.6883826e-06 </wgt>
<wgt id='morphing_basis_vector_5'> +9.0825939e-06 </wgt>
</rwgt>
</event>
<event>
 4      1 +7.6845000e-11 4.77283300e+03 7.81860800e-03 7.41657800e-02
        2 -1    0    0  501    0 +0.0000000000e+00 +0.0000000000e+00 +2.8416314181e+03 2.8416314181e+03 0.0000000000e+00 0.0000e+00 -1.0000e+00
       -2 -1    0    0    0  501 -0.0000000000e+00 -0.0000000000e+00 -2.0041247667e+03 2.0041247667e+03 0.0000000000e+00 0.0000e+00 1.0000e+00
      -13  1    1    2    0    0 +1.3296369454e+03 +1.9626025013e+03 +1.4026156161e+02 2.3747455212e+03 0.0000000000e+00 0.0000e+00 1.0000e+00
       13  1    1    2    0    0 -1.3296369454e+03 -1.9626025013e+03 +6.9724508974e+02 2.4710106636e+03 0.0000000000e+00 0.0000e+00 -1.0000e+00
<mgrwt>
<rscale>  0 0.47728331E+04</rscale>
<asrwt>0</asrwt>
<pdfrwt beam="1">  1        2 0.43717407E+00 0.47728331E+04</pdfrwt>
<pdfrwt beam="2">  1       -2 0.30832689E+00 0.47728331E+04</pdfrwt>
<totfact> 0.41544902E-02</totfact>
</mgrwt>
<rwgt>
<wgt id='morphing_basis_vector_1'> +5.5327524e-06 </wgt>
<wgt id='morphing_basis_vector_2'> +4.0492294e-06 </wgt>
<wgt id='morphing_basis_vector_3'> +6.1582044e-06 </wgt>
<wgt id='morphing_basis_vector_4'> +4.0204823e-06 </wgt>
<wgt id='morphing_basis_vector_5'> +6.8280193e-06 </wgt>
</rwgt>
</event>
<event>
 4      1 +7.6845000e-11 4.81295700e+03 7.81860800e-03 7.41079200e-02
        2 -1    0    0  501    0 +0.0000000000e+00 +0.0000000000e+00 +2.7369109874e+03 2.7369109874e+03 0.0000000000e+00 0.0000e+00 -1.0000e+00
       -2 -1    0    0    0  501 -0.0000000000e+00 -0.0000000000e+00 -2.1159399547e+03 2.1159399547e+03 0.0000000000e+00 0.0000e+00 1.0000e+00
      -13  1    1    2    0    0 +1.6112872261e+03 +1.7353289804e+03 -1.2146488944e+02 2.3711530770e+03 0.0000000000e+00 0.0000e+00 1.0000e+00
       13  1    1    2    0    0 -1.6112872261e+03 -1.7353289804e+03 +7.4243592209e+02 2.4816978651e+03 0.0000000000e+00 0.0000e+00 -1.0000e+00
<mgrwt>
<rscale>  0 0.48129572E+04</rscale>
<asrwt>0</asrwt>
<pdfrwt beam="1">  1        2 0.42106323E+00 0.48129572E+04</pdfrwt>
<pdfrwt beam="2">  1       -2 0.32552922E+00 0.48129572E+04</pdfrwt>
<totfact> 0.36999749E-02</totfact>
</mgrwt>
<rwgt>
<wgt id='morphing_basis_vector_1'> +5.6914609e-06 </wgt>
<wgt id='morphing_basis_vector_2'> +4.1016603e-06 </wgt>
<wgt id='morphing_basis_vector_3'> +6.3209045e-06 </wgt>
<wgt id='morphing_basis_vector_4'> +4.2196235e-06 </wgt>
<wgt id='morphing_basis_vector_5'> +7.0665220e-06 </wgt>
</rwgt>
</event>
<event>
 4      1 +7.6845000e-11 4.71633100e+03 7.81860800e-03 7.42482300e-02
        2 -1    0    0  501    0 +0.0000000000e+00 +0.0000000000e+00 +3.2932016500e+03 3.2932016500e+03 0.0000000000e+00 0.0000e+00 -1.0000e+00
       -2 -1    0    0    0  501 -0.0000000000e+00 -0.0000000000e+00 -1.6886133313e+03 1.6886133313e+03 0.0000000000e+00 0.0000e+00 1.0000e+00
      -13  1    1    2    0    0 -1.6164210921e+03 +1.0423917203e+02 -1.0080227922e+03 1.9078241276e+03 0.0000000000e+00 0.0000e+00 1.0000e+00
       13  1    1    2    0    0 +1.6164210921e+03 -1.0423917203e+02 +2.6126111109e+03 3.0739908538e+03 0.0000000000e+00 0.0000e+00 -1.0000e+00
<mgrwt>
<rscale>  0 0.47163309E+04</rscale>
<asrwt>0</asrwt>
<pdfrwt beam="1">  1        2 0.50664641E+00 0.47163309E+04</pdfrwt>
<pdfrwt beam="2">  1       -2 0.25978667E+00 0.47163309E+04</pdfrwt>
<totfact> 0.44765362E-02</totfact>
</mgrwt>
<rwgt>
<wgt id='morphing_basis_vector_1'> +5.1575094e-06 </wgt>
<wgt id='morphing_basis_vector_2'> +3.5122864e-06 </wgt>
<wgt id='morphing_basis_vector_3'> +5.6794438e-06 </wgt>
<wgt id='morphing_basis_vector_4'> +4.0855086e-06 </wgt>
<wgt id='morphing_basis_vector_5'> +6.5304548e-06 </wgt>
</rwgt>
</event>
<event>
 4      1 +7.6845000e-11 4.86865100e+03 7.81860800e-03 7.40285400e-02
        2 -1    0    0  501    0 +0.0000000000e+00 +0.0000000000e+00 +2.9042596225e+03 2.9042596225e+03 0.0000000000e+00 0.0000e+00 1.0000e+00
       -2 -1    0    0    0  501 -0.0000000000e+00 -0.0000000000e+00 -2.0404310004e+03 2.0404310004e+03 0.0000000000e+00 0.0000e+00 -1.0000e+00
      -13  1    1    2    0    0 +2.2260032927e+03 -6.0533856253e+02 +1.2214984312e+03 2.6102842473e+03 0.0000000000e+00 0.0000e+00 -1.0000e+00
       13  1    1    2    0    0 -2.2260032927e+03 +6.0533856253e+02 -3.5766980914e+02 2.3344063757e+03 0.0000000000e+00 0.0000e+00 1.0000e+00
<mgrwt>
<rscale>  0 0.48686513E+04</rscale>
<asrwt>0</asrwt>
<pdfrwt beam="1">  1        2 0.44680917E+00 0.48686513E+04</pdfrwt>
<pdfrwt beam="2">  1       -2 0.31391246E+00 0.48686513E+04</pdfrwt>
<totfact> 0.34518478E-02</totfact>
</mgrwt>
<rwgt>
<wgt id='morphing_basis_vector_1'> +6.4831801e-06 </wgt>
<wgt id='morphing_basis_vector_2'> +5.8353287e-06 </wgt>
<wgt id='morphing_basis_vector_3'> +7.4690358e-06 </wgt>
<wgt id='morphing_basis_vector_4'> +3.3019856e-06 </wgt>
<wgt id='morphing_basis_vector_5'> +7.3068904e-06 </wgt>
</rwgt>
</event>
<event>
 4      1 +7.6845000e-11 4.82037300e+03 7.81860800e-03 7.40972900e-02
        2 -1    0    0  501    0 +0.0000000000e+00 +0.0000000000e+00 +2.8564140029e+03 2.8564140029e+03 0.0000000000e+00 0.0000e+00 1.0000e+00
       -2 -1    0    0    0  501 -0.0000000000e+00 -0.0000000000e+00 -2.0336683545e+03 2.0336683545e+03 0.0000000000e+00 0.0000e+00 -1.0000e+00
      -13  1    1    2    0    0 +7.0463385248e+02 -6.3422155829e+02 -1.8365814177e+03 2.0668278000e+03 0.0000000000e+00 0.0000e+00 -1.0000e+00
       13  1    1    2    0    0 -7.0463385248e+02 +6.3422155829e+02 +2.6593270661e+03 2.8232545573e+03 0.0000000000e+00 0.0000e+00 1.0000e+00
<mgrwt>
<rscale>  0 0.48203729E+04</rscale>
<asrwt>0</asrwt>
<pdfrwt beam="1">  1        2 0.43944831E+00 0.48203729E+04</pdfrwt>
<pdfrwt beam="2">  1       -2 0.31287205E+00 0.48203729E+04</pdfrwt>
<totfact> 0.37767756E-02</totfact>
</mgrwt>
<rwgt>
<wgt id='morphing_basis_vector_1'> +5.6207859e-06 </wgt>
<wgt id='morphing_basis_vector_2'> +3.8164874e-06 </wgt>
<wgt id='morphing_basis_vector_3'> +6.1886661e-06 </wgt>
<wgt id='morphing_basis_vector_4'> +4.4707871e-06 </wgt>
<wgt id='morphing_basis_vector_5'> +7.1291707e-06 </wgt>
</rwgt>
</event>
<event>
 4      1 +7.6845000e-11 5.39349800e+03 7.81860800e-03 7.33297600e-02
        2 -1    0    0  501    0 +0.0000000000e+00 +0.0000000000e+00 +4.6153810308e+03 4.6153810308e+03 0.0000000000e+00 0.0000e+00 -1.0000e+00
       -2 -1    0    0    0  501 -0.0000000000e+00 -0.0000000000e+00 -1.5756999966e+03 1.5756999966e+03 0.0000000000e+00 0.0000e+00 1.0000e+00
      -13  1    1    2    0    0 +1.5863700832e+03 -1.2298580878e+03 -5.4740397612e+02 2.0805701310e+03 0.0000000000e+00 0.0000e+00 1.0000e+00
       13  1    1    2    0    0 -1.5863700832e+03 +1.2298580878e+03 +3.5870850103e+03 4.1105108963e+03 0.0000000000e+00 0.0000e+00 -1.0000e+00
<mgrwt>
<rscale>  0 0.53934983E+04</rscale>
<asrwt>0</asrwt>
<pdfrwt beam="1">  1        2 0.71005862E+00 0.53934983E+04</pdfrwt>
<pdfrwt beam="2">  1       -2 0.24241538E+00 0.53934983E+04</pdfrwt>
<totfact> 0.41158640E-03</totfact>
</mgrwt>
<rwgt>
<wgt id='morphing_basis_vector_1'> +8.8106451e-06 </wgt>
<wgt id='morphing_basis_vector_2'> +6.0181684e-06 </wgt>
<wgt id='morphing_basis_vector_3'> +9.7208202e-06 </wgt>
<wgt id='morphing_basis_vector_4'> +6.9876386e-06 </wgt>
<wgt id='morphing_basis_vector_5'> +1.1186664e-05 </wgt>
</rwgt>
</event>
</LesHouchesEvents>
