<LesHouchesEvents version="3.0">
<header>
<!--
#*********************************************************************
#                                                                    *
#                        MadGraph5_aMC@NLO                           *
#                                                                    *
#                           Going Beyond                             *
#                                                                    *
#                   http://madgraph.hep.uiuc.edu                     *
#                   http://madgraph.phys.ucl.ac.be                   *
#                   http://amcatnlo.cern.ch                          *
#                                                                    *
#                     The MadGraph5_aMC@NLO team                     *
#                                                                    *
#....................................................................*
#                                                                    *
# This file contains all the information necessary to reproduce      *
# the events generated:                                              *
#                                                                    *
# 1. software version                                                *
# 2. proc_card          : code generation info including model       *
# 3. param_card         : model primary parameters in the LH format  *
# 4. run_card           : running parameters (collider and cuts)     *
# 5. pythia_card        : present only if pythia has been run        *
# 6. pgs_card           : present only if pgs has been run           *
# 7. delphes_cards      : present only if delphes has been run       *
#                                                                    *
#                                                                    *
#*********************************************************************
-->
<MGVersion>
2.6.4
</MGVersion>
<MG5ProcCard>
<![CDATA[
#************************************************************
#*                     MadGraph5_aMC@NLO                    *
#*                                                          *
#*                *                       *                 *
#*                  *        * *        *                   *
#*                    * * * * 5 * * * *                     *
#*                  *        * *        *                   *
#*                *                       *                 *
#*                                                          *
#*                                                          *
#*         VERSION 2.6.4                 2018-11-09         *
#*                                                          *
#*    The MadGraph5_aMC@NLO Development Team - Find us at   *
#*    https://server06.fynu.ucl.ac.be/projects/madgraph     *
#*                                                          *
#************************************************************
#*                                                          *
#*               Command File for MadGraph5_aMC@NLO         *
#*                                                          *
#*     run as ./bin/mg5_aMC  filename                       *
#*                                                          *
#************************************************************
set default_unset_couplings 99
set group_subprocesses Auto
set ignore_six_quark_processes False
set loop_optimized_output True
set loop_color_flows False
set gauge unitary
set complex_mass_scheme False
set max_npoint_for_channel 0
import model SM4fLL_UFO
define p = g u c d s u~ c~ d~ s~
define j = g u c d s u~ c~ d~ s~
define l+ = e+ mu+
define l- = e- mu-
define vl = ve vm vt
define vl~ = ve~ vm~ vt~
generate u u~ > mu+ mu- NP=2 QED=99 QCD=0
output /Users/dpappadopulo/Projects/~Physics/madminer/examples/example\
4_systematics_DY/data/mg_processes/DY_sys/
]]>
</MG5ProcCard>
<MGProcCard>
#*********************************************************************
#                        MadGraph/MadEvent                           *
#                   http://madgraph.hep.uiuc.edu                     *
#                                                                    *
#                          proc_card.dat                             *
#*********************************************************************
#                                                                    *
#            This Files is generated by MADGRAPH 5                   *
#                                                                    *
# WARNING: This Files is generated for MADEVENT (compatibility issue)*
#          This files is NOT a valid MG4 proc_card.dat               *
#          Running this in MG4 will NEVER reproduce the result of MG5*
#                                                                    *
#*********************************************************************
#*********************************************************************
# Process(es) requested : mg2 input                                  *
#*********************************************************************
# Begin PROCESS # This is TAG. Do not modify this line
u u~ > mu+ mu-           #Process
# Be carefull the coupling are here in MG5 convention
NP=2
QED=99
QCD=0
          
end_coup           # End the couplings input

done               # this tells MG there are no more procs
# End PROCESS  # This is TAG. Do not modify this line
#*********************************************************************
# Model information                                                  *
#*********************************************************************
# Begin MODEL  # This is TAG. Do not modify this line
SM4fLL_UFO
# End   MODEL  # This is TAG. Do not modify this line
#*********************************************************************
# Start multiparticle definitions                                    *
#*********************************************************************
# Begin MULTIPARTICLES # This is TAG. Do not modify this line

# End  MULTIPARTICLES # This is TAG. Do not modify this line
</MGProcCard>
<MGRunCard>
<![CDATA[
#*********************************************************************
#                       MadGraph5_aMC@NLO                            *
#                                                                    *
#                     run_card.dat MadEvent                          *
#                                                                    *
#  This file is used to set the parameters of the run.               *
#                                                                    *
#  Some notation/conventions:                                        *
#                                                                    *
#   Lines starting with a '# ' are info or comments                  *
#                                                                    *
#   mind the format:   value    = variable     ! comment             *
#*********************************************************************
#
#*******************                                                 
# Running parameters
#*******************                                                 
#                                                                    
#*********************************************************************
# Tag name for the run (one word)                                    *
#*********************************************************************
  tag_1     = run_tag ! name of the run 
#*********************************************************************
# Run to generate the grid pack                                      *
#*********************************************************************
  False     = gridpack  !True = setting up the grid pack
#*********************************************************************
# Number of events and rnd seed                                      *
# Warning: Do not generate more than 1M events in a single run       *
# If you want to run Pythia, avoid more than 50k events in a run.    *
#*********************************************************************
  1000 = nevents ! Number of unweighted events requested
 120 = iseed   ! rnd seed (0=assigned automatically=default))
#*********************************************************************
# Collider type and energy                                           *
# lpp: 0=No PDF, 1=proton, -1=antiproton, 2=photon from proton,      *
#                                         3=photon from electron     *
#*********************************************************************
     1        = lpp1    ! beam 1 type 
     1        = lpp2    ! beam 2 type
     6500.0     = ebeam1  ! beam 1 total energy in GeV
     6500.0     = ebeam2  ! beam 2 total energy in GeV
#*********************************************************************
# Beam polarization from -100 (left-handed) to 100 (right-handed)    *
#*********************************************************************
     0.0     = polbeam1 ! beam polarization for beam 1
     0.0     = polbeam2 ! beam polarization for beam 2
#*********************************************************************
# PDF CHOICE: this automatically fixes also alpha_s and its evol.    *
#*********************************************************************
     lhapdf    = pdlabel     ! PDF set
     90900   = lhaid     ! if pdlabel=lhapdf, this is the lhapdf number
#*********************************************************************
# Renormalization and factorization scales                           *
#*********************************************************************
 False = fixed_ren_scale  ! if .true. use fixed ren scale
 False        = fixed_fac_scale  ! if .true. use fixed fac scale
 91.188  = scale            ! fixed ren scale
 91.188  = dsqrt_q2fact1    ! fixed fact scale for pdf1
 91.188  = dsqrt_q2fact2    ! fixed fact scale for pdf2
 -1 = dynamical_scale_choice ! Choose one of the preselected dynamical choices
 1.0  = scalefact        ! scale factor for event-by-event scales
#*********************************************************************
# Type and output format
#*********************************************************************
  False     = gridpack  !True = setting up the grid pack
  -1.0 = time_of_flight ! threshold (in mm) below which the invariant livetime is not written (-1 means not written)
  3.0 = lhe_version       ! Change the way clustering information pass to shower.        
  True = clusinfo         ! include clustering tag in output
  sum =  event_norm       ! average/sum. Normalization of the weight in the LHEF
#*********************************************************************
# Matching - Warning! ickkw > 1 is still beta
#*********************************************************************
 0 = ickkw            ! 0 no matching, 1 MLM, 2 CKKW matching
 1 = highestmult      ! for ickkw=2, highest mult group
 1 = ktscheme         ! for ickkw=1, 1 Durham kT, 2 Pythia pTE
 1.0 = alpsfact         ! scale factor for QCD emission vx
 False = chcluster        ! cluster only according to channel diag
 True = pdfwgt           ! for ickkw=1, perform pdf reweighting
 4 = asrwgtflavor     ! highest quark flavor for a_s reweight    
#*********************************************************************
#**********************************************************
#
#**********************************************************
# Automatic ptj and mjj cuts if xqcut > 0
# (turn off for VBF and single top processes)
#**********************************************************
   False  = auto_ptj_mjj  ! Automatic setting of ptj and mjj
#**********************************************************
#                                                                    
#**********************************
# BW cutoff (M+/-bwcutoff*Gamma)
#**********************************
  15.0  = bwcutoff      ! (M+/-bwcutoff*Gamma)
#**********************************************************
# Apply pt/E/eta/dr/mij/kt_durham cuts on decay products or not
# (note that etmiss/ptll/ptheavy/ht/sorted cuts always apply)
#*************************************************************
   False  = cut_decays    ! Cut decay products 
#*************************************************************
# Number of helicities to sum per event (0 = all helicities)
# 0 gives more stable result, but longer run time (needed for
# long decay chains e.g.).
# Use >=2 if most helicities contribute, e.g. pure QCD.
#*************************************************************
   0  = nhel          ! Number of helicities used per event
#*******************                                                 
# Standard Cuts
#*******************                                                 
#                                                                    
#*********************************************************************
# Minimum and maximum pt's (for max, -1 means no cut)                *
#*********************************************************************
 15.0  = ptj       ! minimum pt for the jets
 0.0  = ptb       ! minimum pt for the b 
 0.0 = pta       ! minimum pt for the photons
 25.0  = ptl       ! minimum pt for the charged leptons
 0.0  = misset    ! minimum missing Et (sum of neutrino's momenta)
 0.0  = ptheavy   ! minimum pt for one heavy final state
 -1.0  = ptjmax    ! maximum pt for the jets
 -1.0  = ptbmax    ! maximum pt for the b
 -1.0 = ptamax       ! maximum pt for the photons
 -1.0  = ptlmax    ! maximum pt for the charged leptons
 -1.0  = missetmax ! maximum missing Et (sum of neutrino's momenta)
#*********************************************************************
# Minimum and maximum E's (in the center of mass frame)              *
#*********************************************************************
  0.0  = ej     ! minimum E for the jets 
  0.0  = eb     ! minimum E for the b 
  0.0  = ea     ! minimum E for the photons 
  0.0  = el     ! minimum E for the charged leptons 
  -1.0   = ejmax ! maximum E for the jets
 -1.0   = ebmax ! maximum E for the b
 -1.0   = eamax ! maximum E for the photons
 -1.0   = elmax ! maximum E for the charged leptons
#*********************************************************************
# Maximum and minimum absolute rapidity (for max, -1 means no cut)   *
#*********************************************************************
 2.5 = etaj    ! max rap for the jets
  -1.0  = etab    ! max rap for the b
 3.0  = etaa    ! max rap for the photons
 2.5  = etal    ! max rap for the charged leptons
 0.0  = etajmin ! min rap for the jets
 0.0  = etabmin ! min rap for the b
 0.0  = etaamin ! min rap for the photons
 0.0  = etalmin ! main rap for the charged leptons
#*********************************************************************
# Minimum and maximum DeltaR distance                                *
#*********************************************************************
 0.0 = drjj    ! min distance between jets
 0.0 = drbb    ! min distance between b's
 0.0 = drll    ! min distance between leptons
 0.0 = draa    ! min distance between gammas
 0.0 = drbj    ! min distance between b and jet
 0.0 = draj    ! min distance between gamma and jet
 0.0 = drjl    ! min distance between jet and lepton
 0.0 = drab    ! min distance between gamma and b
 0.0 = drbl    ! min distance between b and lepton
 0.0 = dral    ! min distance between gamma and lepton
 -1.0  = drjjmax ! max distance between jets
 -1.0  = drbbmax ! max distance between b's
 -1.0  = drllmax ! max distance between leptons
 -1.0  = draamax ! max distance between gammas
 -1.0  = drbjmax ! max distance between b and jet
 -1.0  = drajmax ! max distance between gamma and jet
 -1.0  = drjlmax ! max distance between jet and lepton
 -1.0  = drabmax ! max distance between gamma and b
 -1.0  = drblmax ! max distance between b and lepton
 -1.0  = dralmax ! maxdistance between gamma and lepton
#*********************************************************************
# Minimum and maximum invariant mass for pairs                       *
# WARNING: for four lepton final state mmll cut require to have      *
#          different lepton masses for each flavor!                  *           
#*********************************************************************
 0.0   = mmjj    ! min invariant mass of a jet pair 
 0.0   = mmbb    ! min invariant mass of a b pair 
 0.0   = mmaa    ! min invariant mass of gamma gamma pair
 2230   = mmll    ! min invariant mass of l+l- (same flavour) lepton pair
 -1.0  = mmjjmax ! max invariant mass of a jet pair
 -1.0  = mmbbmax ! max invariant mass of a b pair
 -1.0  = mmaamax ! max invariant mass of gamma gamma pair
 2670  = mmllmax ! max invariant mass of l+l- (same flavour) lepton pair
#*********************************************************************
# Minimum and maximum invariant mass for all letpons                 *
#*********************************************************************
 0.0   = mmnl    ! min invariant mass for all letpons (l+- and vl) 
 -1.0  = mmnlmax ! max invariant mass for all letpons (l+- and vl) 
#*********************************************************************
# Minimum and maximum pt for 4-momenta sum of leptons                *
#*********************************************************************
 0.0   = ptllmin  ! Minimum pt for 4-momenta sum of leptons(l and vl)
 -1.0  = ptllmax  ! Maximum pt for 4-momenta sum of leptons(l and vl)
#*********************************************************************
# Inclusive cuts                                                     *
#*********************************************************************
 0.0  = xptj ! minimum pt for at least one jet  
 0.0  = xptb ! minimum pt for at least one b 
 0.0  = xpta ! minimum pt for at least one photon 
 0.0  = xptl ! minimum pt for at least one charged lepton 
#*********************************************************************
# Control the pt's of the jets sorted by pt                          *
#*********************************************************************
 0.0   = ptj1min ! minimum pt for the leading jet in pt
 0.0   = ptj2min ! minimum pt for the second jet in pt
 0.0   = ptj3min ! minimum pt for the third jet in pt
 0.0   = ptj4min ! minimum pt for the fourth jet in pt
 -1.0  = ptj1max ! maximum pt for the leading jet in pt 
 -1.0  = ptj2max ! maximum pt for the second jet in pt
 -1.0  = ptj3max ! maximum pt for the third jet in pt
 -1.0  = ptj4max ! maximum pt for the fourth jet in pt
 0   = cutuse  ! reject event if fails any (0) / all (1) jet pt cuts
#*********************************************************************
# Control the pt's of leptons sorted by pt                           *
#*********************************************************************
 0.0   = ptl1min ! minimum pt for the leading lepton in pt
 0.0   = ptl2min ! minimum pt for the second lepton in pt
 0.0   = ptl3min ! minimum pt for the third lepton in pt
 0.0   = ptl4min ! minimum pt for the fourth lepton in pt
 -1.0  = ptl1max ! maximum pt for the leading lepton in pt 
 -1.0  = ptl2max ! maximum pt for the second lepton in pt
 -1.0  = ptl3max ! maximum pt for the third lepton in pt
 -1.0  = ptl4max ! maximum pt for the fourth lepton in pt
#*********************************************************************
# Control the Ht(k)=Sum of k leading jets                            *
#*********************************************************************
 0.0   = htjmin ! minimum jet HT=Sum(jet pt)
 -1.0  = htjmax ! maximum jet HT=Sum(jet pt)
 0.0   = ihtmin  !inclusive Ht for all partons (including b)
 -1.0  = ihtmax  !inclusive Ht for all partons (including b)
 0.0   = ht2min ! minimum Ht for the two leading jets
 0.0   = ht3min ! minimum Ht for the three leading jets
 0.0   = ht4min ! minimum Ht for the four leading jets
 -1.0  = ht2max ! maximum Ht for the two leading jets
 -1.0  = ht3max ! maximum Ht for the three leading jets
 -1.0  = ht4max ! maximum Ht for the four leading jets
#***********************************************************************
# Photon-isolation cuts, according to hep-ph/9801442                   *
# When ptgmin=0, all the other parameters are ignored                  *
# When ptgmin>0, pta and draj are not going to be used                 *
#***********************************************************************
 0.0 = ptgmin ! Min photon transverse momentum
 0.4 = R0gamma ! Radius of isolation code
 1.0 = xn ! n parameter of eq.(3.4) in hep-ph/9801442
 1.0 = epsgamma ! epsilon_gamma parameter of eq.(3.4) in hep-ph/9801442
 True = isoEM ! isolate photons from EM energy (photons and leptons)
#*********************************************************************
# WBF cuts                                                           *
#*********************************************************************
 0.0   = xetamin ! minimum rapidity for two jets in the WBF case  
 0.0   = deltaeta ! minimum rapidity for two jets in the WBF case 
#*********************************************************************
# KT DURHAM CUT                                                      *
#*********************************************************************
 -1.0    =  ktdurham        
 0.4  =  dparameter 
#*********************************************************************
# maximal pdg code for quark to be considered as a light jet         *
# (otherwise b cuts are applied)                                     *
#*********************************************************************
 4 = maxjetflavor    ! Maximum jet pdg code
#*********************************************************************
# Jet measure cuts                                                   *
#*********************************************************************
 0.0   = xqcut   ! minimum kt jet measure between partons
#*********************************************************************
#
#*********************************************************************
# Store info for systematics studies                                 *
# WARNING: If use_syst is T, matched Pythia output is                *
#          meaningful ONLY if plotted taking matchscale              *
#          reweighting into account!                                 *
#*********************************************************************
#    False  = use_syst      ! Enable systematics studies # Commented out by MadMiner
#
#**************************************
# Parameter of the systematics study
#  will be used by SysCalc (if installed)
#**************************************                                  
#
0.5 1 2 = sys_scalefact  # factorization/renormalization scale factor
None = sys_alpsfact  # \alpha_s emission scale factors
30 50 = sys_matchscale # variation of merging scale
# PDF sets and number of members (0 or none for all members).
NNPDF23_lo_as_0130_qed = sys_pdf # matching scales
# MSTW2008nlo68cl.LHgrid 1  = sys_pdf


#*********************************************************************
# MadMiner systematics setup                                         *
#*********************************************************************
True = use_syst
systematics = systematics_program
['--pdf=90900'] = systematics_arguments
]]>
</MGRunCard>
<slha>
######################################################################
## PARAM_CARD AUTOMATICALY GENERATED BY MG5 FOLLOWING UFO MODEL   ####
######################################################################
##                                                                  ##
##  Width set on Auto will be computed following the information    ##
##        present in the decay.py files of the model.               ##
##        See  arXiv:1402.1178 for more details.                    ##
##                                                                  ##
######################################################################

###################################
## INFORMATION FOR CKMBLOCK
###################################
Block ckmblock 
    1 2.277360e-01 # cabi 

###################################
## INFORMATION FOR MASS
###################################
Block mass 
    5 4.700000e+00 # MB 
    6 1.720000e+02 # MT 
   15 1.777000e+00 # MTA 
   23 9.118760e+01 # MZ 
   25 1.250000e+02 # MH 
## Dependent parameters, given by model restrictions.
## Those values should be edited following the 
## analytical expression. MG5 ignores those values 
## but they are important for interfacing the output of MG5
## to external program such as Pythia.
  1 0.000000 # d : 0.0 
  2 0.000000 # u : 0.0 
  3 0.000000 # s : 0.0 
  4 0.000000 # c : 0.0 
  11 0.000000 # e- : 0.0 
  12 0.000000 # ve : 0.0 
  13 0.000000 # mu- : 0.0 
  14 0.000000 # vm : 0.0 
  16 0.000000 # vt : 0.0 
  21 0.000000 # g : 0.0 
  22 0.000000 # a : 0.0 
  24 79.824360 # w+ : cmath.sqrt(MZ__exp__2/2. + cmath.sqrt(MZ__exp__4/4. - (aEW*cmath.pi*MZ__exp__2)/(Gf*sqrt__2))) 

###################################
## INFORMATION FOR OBLIQUE
###################################
Block oblique 
    1    0.0    # MadMiner
    2    0.0    # MadMiner

###################################
## INFORMATION FOR SMINPUTS
###################################
Block sminputs 
    1 1.279000e+02 # aEWM1 
    2 1.166370e-05 # Gf 
    3 1.184000e-01 # aS 

###################################
## INFORMATION FOR YUKAWA
###################################
Block yukawa 
    5 4.700000e+00 # ymb 
    6 1.720000e+02 # ymt 
   15 1.777000e+00 # ymtau 

###################################
## INFORMATION FOR DECAY
###################################
DECAY   6 1.508336e+00 # WT 
DECAY  23 2.495200e+00 # WZ 
DECAY  24 2.085000e+00 # WW 
DECAY  25 4.070000e-03 # WH 
## Dependent parameters, given by model restrictions.
## Those values should be edited following the 
## analytical expression. MG5 ignores those values 
## but they are important for interfacing the output of MG5
## to external program such as Pythia.
DECAY  1 0.000000 # d : 0.0 
DECAY  2 0.000000 # u : 0.0 
DECAY  3 0.000000 # s : 0.0 
DECAY  4 0.000000 # c : 0.0 
DECAY  5 0.000000 # b : 0.0 
DECAY  11 0.000000 # e- : 0.0 
DECAY  12 0.000000 # ve : 0.0 
DECAY  13 0.000000 # mu- : 0.0 
DECAY  14 0.000000 # vm : 0.0 
DECAY  15 0.000000 # ta- : 0.0 
DECAY  16 0.000000 # vt : 0.0 
DECAY  21 0.000000 # g : 0.0 
DECAY  22 0.000000 # a : 0.0
</slha>
<initrwgt>
<weightgroup name='mg_reweighting' weight_name_strategy='includeIdInWeightName'>
<weight id='morphing_basis_vector_1'>set param_card oblique 1 -0.06391685 # orig: 0.0
set param_card oblique 2 -0.08653588 # orig: 0.0
</weight>
<weight id='morphing_basis_vector_2'>set param_card oblique 1 0.0342439 # orig: 0.0
set param_card oblique 2 -0.09831893 # orig: 0.0
</weight>
<weight id='morphing_basis_vector_3'>set param_card oblique 1 -0.08145691 # orig: 0.0
set param_card oblique 2 0.09700122 # orig: 0.0
</weight>
<weight id='morphing_basis_vector_4'>set param_card oblique 1 0.09132942 # orig: 0.0
set param_card oblique 2 -0.005442744 # orig: 0.0
</weight>
<weight id='morphing_basis_vector_5'>set param_card oblique 1 0.08535809 # orig: 0.0
set param_card oblique 2 0.08156918 # orig: 0.0
</weight>
</weightgroup>
</initrwgt>
<MGGenerationInfo>
#  Number of Events        :       1000
#  Integrated weight (pb)  :       2.20164e-05
</MGGenerationInfo>
</header>
<init>
2212 2212 6.500000e+03 6.500000e+03 0 0 90900 90900 -3 1
2.201640e-05 1.595592e-07 2.201640e-08 1
<generator name='MadGraph5_aMC@NLO' version='2.6.4'>please cite 1405.0301 </generator>
</init>
<event>
 4      1 +2.2016400e-08 2.66439400e+03 7.81860800e-03 7.84302500e-02
        2 -1    0    0  501    0 +0.0000000000e+00 +0.0000000000e+00 +1.7717373424e+03 1.7717373424e+03 0.0000000000e+00 0.0000e+00 -1.0000e+00
       -2 -1    0    0    0  501 -0.0000000000e+00 -0.0000000000e+00 -1.0016997976e+03 1.0016997976e+03 0.0000000000e+00 0.0000e+00 1.0000e+00
      -13  1    1    2    0    0 +1.2467616465e+03 +4.4830669582e+02 +5.2983639094e+02 1.4269268018e+03 0.0000000000e+00 0.0000e+00 1.0000e+00
       13  1    1    2    0    0 -1.2467616465e+03 -4.4830669582e+02 +2.4020115389e+02 1.3465103382e+03 0.0000000000e+00 0.0000e+00 -1.0000e+00
<mgrwt>
<rscale>  0 0.26643941E+04</rscale>
<asrwt>0</asrwt>
<pdfrwt beam="1">  1        2 0.27257497E+00 0.26643941E+04</pdfrwt>
<pdfrwt beam="2">  1       -2 0.15410766E+00 0.26643941E+04</pdfrwt>
<totfact> 0.26477500E+00</totfact>
</mgrwt>
<rwgt>
<wgt id='morphing_basis_vector_1'> +1.6083318e-04 </wgt>
<wgt id='morphing_basis_vector_2'> +1.2658253e-04 </wgt>
<wgt id='morphing_basis_vector_3'> +1.7816503e-04 </wgt>
<wgt id='morphing_basis_vector_4'> +1.0106937e-04 </wgt>
<wgt id='morphing_basis_vector_5'> +1.8634502e-04 </wgt>
</rwgt>
</event>
<event>
 4      1 +2.2016400e-08 2.30931700e+03 7.81860800e-03 7.95530900e-02
        2 -1    0    0  501    0 +0.0000000000e+00 +0.0000000000e+00 +1.9462380726e+03 1.9462380726e+03 0.0000000000e+00 0.0000e+00 -1.0000e+00
       -2 -1    0    0    0  501 -0.0000000000e+00 -0.0000000000e+00 -6.8503250751e+02 6.8503250751e+02 0.0000000000e+00 0.0000e+00 1.0000e+00
      -13  1    1    2    0    0 -6.8841646595e+02 -7.5513514140e+02 +1.7972440622e+01 1.0219928185e+03 0.0000000000e+00 0.0000e+00 1.0000e+00
       13  1    1    2    0    0 +6.8841646595e+02 +7.5513514140e+02 +1.2432331245e+03 1.6092777617e+03 0.0000000000e+00 0.0000e+00 -1.0000e+00
<mgrwt>
<rscale>  0 0.23093171E+04</rscale>
<asrwt>0</asrwt>
<pdfrwt beam="1">  1        2 0.29942124E+00 0.23093171E+04</pdfrwt>
<pdfrwt beam="2">  1       -2 0.10538962E+00 0.23093171E+04</pdfrwt>
<totfact> 0.60048477E+00</totfact>
</mgrwt>
<rwgt>
<wgt id='morphing_basis_vector_1'> +8.7310097e-05 </wgt>
<wgt id='morphing_basis_vector_2'> +5.9496590e-05 </wgt>
<wgt id='morphing_basis_vector_3'> +9.4246936e-05 </wgt>
<wgt id='morphing_basis_vector_4'> +6.5048262e-05 </wgt>
<wgt id='morphing_basis_vector_5'> +1.0506637e-04 </wgt>
</rwgt>
</event>
<event>
 4      1 +2.2016400e-08 2.48647300e+03 7.81860800e-03 7.89688600e-02
        2 -1    0    0  501    0 +0.0000000000e+00 +0.0000000000e+00 +1.1267079445e+03 1.1267079445e+03 0.0000000000e+00 0.0000e+00 -1.0000e+00
       -2 -1    0    0    0  501 -0.0000000000e+00 -0.0000000000e+00 -1.3718168339e+03 1.3718168339e+03 0.0000000000e+00 0.0000e+00 1.0000e+00
      -13  1    1    2    0    0 +4.7013935705e+02 +8.2099897229e+02 -9.3304097863e+02 1.3287722887e+03 0.0000000000e+00 0.0000e+00 1.0000e+00
       13  1    1    2    0    0 -4.7013935705e+02 -8.2099897229e+02 +6.8793208928e+02 1.1697524896e+03 0.0000000000e+00 0.0000e+00 -1.0000e+00
<mgrwt>
<rscale>  0 0.24864729E+04</rscale>
<asrwt>0</asrwt>
<pdfrwt beam="1">  1        2 0.17333968E+00 0.24864729E+04</pdfrwt>
<pdfrwt beam="2">  1       -2 0.21104874E+00 0.24864729E+04</pdfrwt>
<totfact> 0.23043548E+00</totfact>
</mgrwt>
<rwgt>
<wgt id='morphing_basis_vector_1'> +1.1644905e-04 </wgt>
<wgt id='morphing_basis_vector_2'> +7.8622981e-05 </wgt>
<wgt id='morphing_basis_vector_3'> +1.2601700e-04 </wgt>
<wgt id='morphing_basis_vector_4'> +8.8606770e-05 </wgt>
<wgt id='morphing_basis_vector_5'> +1.4186063e-04 </wgt>
</rwgt>
</event>
<event>
 4      1 +2.2016400e-08 2.38897100e+03 7.81860800e-03 7.92839700e-02
        2 -1    0    0  501    0 +0.0000000000e+00 +0.0000000000e+00 +8.9237439626e+02 8.9237439626e+02 0.0000000000e+00 0.0000e+00 1.0000e+00
       -2 -1    0    0    0  501 -0.0000000000e+00 -0.0000000000e+00 -1.5988752824e+03 1.5988752824e+03 0.0000000000e+00 0.0000e+00 -1.0000e+00
      -13  1    1    2    0    0 +5.9651338276e+02 +6.8864245694e+02 -1.1588116107e+03 1.4740763204e+03 0.0000000000e+00 0.0000e+00 -1.0000e+00
       13  1    1    2    0    0 -5.9651338276e+02 -6.8864245694e+02 +4.5231072451e+02 1.0171733583e+03 0.0000000000e+00 0.0000e+00 1.0000e+00
<mgrwt>
<rscale>  0 0.23889708E+04</rscale>
<asrwt>0</asrwt>
<pdfrwt beam="1">  1        2 0.13728837E+00 0.23889708E+04</pdfrwt>
<pdfrwt beam="2">  1       -2 0.24598081E+00 0.23889708E+04</pdfrwt>
<totfact> 0.18446748E+00</totfact>
</mgrwt>
<rwgt>
<wgt id='morphing_basis_vector_1'> +9.9450492e-05 </wgt>
<wgt id='morphing_basis_vector_2'> +6.7066012e-05 </wgt>
<wgt id='morphing_basis_vector_3'> +1.0740435e-04 </wgt>
<wgt id='morphing_basis_vector_4'> +7.5341754e-05 </wgt>
<wgt id='morphing_basis_vector_5'> +1.2062347e-04 </wgt>
</rwgt>
</event>
<event>
 4      1 +2.2016400e-08 2.53354700e+03 7.81860800e-03 7.88219700e-02
        2 -1    0    0  501    0 +0.0000000000e+00 +0.0000000000e+00 +2.3370856223e+03 2.3370856223e+03 0.0000000000e+00 0.0000e+00 -1.0000e+00
       -2 -1    0    0    0  501 -0.0000000000e+00 -0.0000000000e+00 -6.8663080319e+02 6.8663080319e+02 0.0000000000e+00 0.0000e+00 1.0000e+00
      -13  1    1    2    0    0 +4.2818047515e+00 -4.2027482562e+02 -6.0099155407e+02 7.3337583200e+02 0.0000000000e+00 0.0000e+00 1.0000e+00
       13  1    1    2    0    0 -4.2818047515e+00 +4.2027482562e+02 +2.2514463732e+03 2.2903405935e+03 0.0000000000e+00 0.0000e+00 -1.0000e+00
<mgrwt>
<rscale>  0 0.25335469E+04</rscale>
<asrwt>0</asrwt>
<pdfrwt beam="1">  1        2 0.35955163E+00 0.25335469E+04</pdfrwt>
<pdfrwt beam="2">  1       -2 0.10563551E+00 0.25335469E+04</pdfrwt>
<totfact> 0.35048637E+00</totfact>
</mgrwt>
<rwgt>
<wgt id='morphing_basis_vector_1'> +1.2517383e-04 </wgt>
<wgt id='morphing_basis_vector_2'> +8.4048223e-05 </wgt>
<wgt id='morphing_basis_vector_3'> +1.3547984e-04 </wgt>
<wgt id='morphing_basis_vector_4'> +9.6061341e-05 </wgt>
<wgt id='morphing_basis_vector_5'> +1.5309575e-04 </wgt>
</rwgt>
</event>
<event>
 4      1 +2.2016400e-08 2.46294500e+03 7.81860800e-03 7.90435200e-02
        2 -1    0    0  501    0 +0.0000000000e+00 +0.0000000000e+00 +2.1073771953e+03 2.1073771953e+03 0.0000000000e+00 0.0000e+00 -1.0000e+00
       -2 -1    0    0    0  501 -0.0000000000e+00 -0.0000000000e+00 -7.1962648467e+02 7.1962648467e+02 0.0000000000e+00 0.0000e+00 1.0000e+00
      -13  1    1    2    0    0 +8.3103297585e+02 -7.5004141825e+02 +1.0484801709e+02 1.1243536111e+03 0.0000000000e+00 0.0000e+00 1.0000e+00
       13  1    1    2    0    0 -8.3103297585e+02 +7.5004141825e+02 +1.2829026936e+03 1.7026500689e+03 0.0000000000e+00 0.0000e+00 -1.0000e+00
<mgrwt>
<rscale>  0 0.24629449E+04</rscale>
<asrwt>0</asrwt>
<pdfrwt beam="1">  1        2 0.32421187E+00 0.24629449E+04</pdfrwt>
<pdfrwt beam="2">  1       -2 0.11071177E+00 0.24629449E+04</pdfrwt>
<totfact> 0.42519618E+00</totfact>
</mgrwt>
<rwgt>
<wgt id='morphing_basis_vector_1'> +1.1271271e-04 </wgt>
<wgt id='morphing_basis_vector_2'> +7.7335295e-05 </wgt>
<wgt id='morphing_basis_vector_3'> +1.2215994e-04 </wgt>
<wgt id='morphing_basis_vector_4'> +8.4129005e-05 </wgt>
<wgt id='morphing_basis_vector_5'> +1.3640767e-04 </wgt>
</rwgt>
</event>
<event>
 4      1 +2.2016400e-08 2.31005800e+03 7.81860800e-03 7.95505300e-02
        2 -1    0    0  501    0 +0.0000000000e+00 +0.0000000000e+00 +9.9084228598e+02 9.9084228598e+02 0.0000000000e+00 0.0000e+00 -1.0000e+00
       -2 -1    0    0    0  501 -0.0000000000e+00 -0.0000000000e+00 -1.3464220802e+03 1.3464220802e+03 0.0000000000e+00 0.0000e+00 1.0000e+00
      -13  1    1    2    0    0 -5.4309561015e+02 -9.9142206465e+02 -4.1769291619e+02 1.2051298371e+03 0.0000000000e+00 0.0000e+00 1.0000e+00
       13  1    1    2    0    0 +5.4309561015e+02 +9.9142206465e+02 +6.2113121972e+01 1.1321345291e+03 0.0000000000e+00 0.0000e+00 -1.0000e+00
<mgrwt>
<rscale>  0 0.23100579E+04</rscale>
<asrwt>0</asrwt>
<pdfrwt beam="1">  1        2 0.15243728E+00 0.23100579E+04</pdfrwt>
<pdfrwt beam="2">  1       -2 0.20714186E+00 0.23100579E+04</pdfrwt>
<totfact> 0.30203480E+00</totfact>
</mgrwt>
<rwgt>
<wgt id='morphing_basis_vector_1'> +8.8424451e-05 </wgt>
<wgt id='morphing_basis_vector_2'> +6.2538051e-05 </wgt>
<wgt id='morphing_basis_vector_3'> +9.5878389e-05 </wgt>
<wgt id='morphing_basis_vector_4'> +6.3094016e-05 </wgt>
<wgt id='morphing_basis_vector_5'> +1.0503936e-04 </wgt>
</rwgt>
</event>
<event>
 4      1 +2.2016400e-08 2.27160100e+03 7.81860800e-03 7.96844400e-02
        2 -1    0    0  501    0 +0.0000000000e+00 +0.0000000000e+00 +1.4662849817e+03 1.4662849817e+03 0.0000000000e+00 0.0000e+00 1.0000e+00
       -2 -1    0    0    0  501 -0.0000000000e+00 -0.0000000000e+00 -8.7980382694e+02 8.7980382694e+02 0.0000000000e+00 0.0000e+00 -1.0000e+00
      -13  1    1    2    0    0 +4.7073698206e+02 +4.4832789030e+02 +1.2551519195e+03 1.4135054102e+03 0.0000000000e+00 0.0000e+00 1.0000e+00
       13  1    1    2    0    0 -4.7073698206e+02 -4.4832789030e+02 -6.6867076475e+02 9.3258339849e+02 0.0000000000e+00 0.0000e+00 -1.0000e+00
<mgrwt>
<rscale>  0 0.22716013E+04</rscale>
<asrwt>0</asrwt>
<pdfrwt beam="1">  1        2 0.22558230E+00 0.22716013E+04</pdfrwt>
<pdfrwt beam="2">  1       -2 0.13535444E+00 0.22716013E+04</pdfrwt>
<totfact> 0.58360121E+00</totfact>
</mgrwt>
<rwgt>
<wgt id='morphing_basis_vector_1'> +1.0906553e-04 </wgt>
<wgt id='morphing_basis_vector_2'> +1.3620431e-04 </wgt>
<wgt id='morphing_basis_vector_3'> +1.2908973e-04 </wgt>
<wgt id='morphing_basis_vector_4'> +5.6403052e-06 </wgt>
<wgt id='morphing_basis_vector_5'> +9.3840303e-05 </wgt>
</rwgt>
</event>
<event>
 4      1 +2.2016400e-08 2.50671200e+03 7.81860800e-03 7.89053000e-02
        2 -1    0    0  501    0 +0.0000000000e+00 +0.0000000000e+00 +1.7229506424e+03 1.7229506424e+03 0.0000000000e+00 0.0000e+00 -1.0000e+00
       -2 -1    0    0    0  501 -0.0000000000e+00 -0.0000000000e+00 -9.1175024967e+02 9.1175024967e+02 0.0000000000e+00 0.0000e+00 1.0000e+00
      -13  1    1    2    0    0 -2.6869809108e+02 -1.1444923742e+03 -5.1144021173e+01 1.1767230641e+03 0.0000000000e+00 0.0000e+00 1.0000e+00
       13  1    1    2    0    0 +2.6869809108e+02 +1.1444923742e+03 +8.6234441387e+02 1.4579778279e+03 0.0000000000e+00 0.0000e+00 -1.0000e+00
<mgrwt>
<rscale>  0 0.25067115E+04</rscale>
<asrwt>0</asrwt>
<pdfrwt beam="1">  1        2 0.26506933E+00 0.25067115E+04</pdfrwt>
<pdfrwt beam="2">  1       -2 0.14026927E+00 0.25067115E+04</pdfrwt>
<totfact> 0.37279388E+00</totfact>
</mgrwt>
<rwgt>
<wgt id='morphing_basis_vector_1'> +1.2113595e-04 </wgt>
<wgt id='morphing_basis_vector_2'> +8.3855311e-05 </wgt>
<wgt id='morphing_basis_vector_3'> +1.3154036e-04 </wgt>
<wgt id='morphing_basis_vector_4'> +8.9719435e-05 </wgt>
<wgt id='morphing_basis_vector_5'> +1.4644750e-04 </wgt>
</rwgt>
</event>
<event>
 4      1 +2.2016400e-08 2.43698400e+03 7.81860800e-03 7.91269100e-02
        2 -1    0    0  501    0 +0.0000000000e+00 +0.0000000000e+00 +2.7495132565e+03 2.7495132565e+03 0.0000000000e+00 0.0000e+00 1.0000e+00
       -2 -1    0    0    0  501 -0.0000000000e+00 -0.0000000000e+00 -5.3999487904e+02 5.3999487904e+02 0.0000000000e+00 0.0000e+00 -1.0000e+00
      -13  1    1    2    0    0 +6.5962772216e+01 -1.1560854389e+03 +1.6166952647e+03 1.9886146455e+03 0.0000000000e+00 0.0000e+00 -1.0000e+00
       13  1    1    2    0    0 -6.5962772216e+01 +1.1560854389e+03 +5.9282311274e+02 1.3008934900e+03 0.0000000000e+00 0.0000e+00 1.0000e+00
<mgrwt>
<rscale>  0 0.24369843E+04</rscale>
<asrwt>0</asrwt>
<pdfrwt beam="1">  1        2 0.42300203E+00 0.24369843E+04</pdfrwt>
<pdfrwt beam="2">  1       -2 0.83076137E-01 0.24369843E+04</pdfrwt>
<totfact> 0.35274297E+00</totfact>
</mgrwt>
<rwgt>
<wgt id='morphing_basis_vector_1'> +1.1869508e-04 </wgt>
<wgt id='morphing_basis_vector_2'> +1.0542630e-04 </wgt>
<wgt id='morphing_basis_vector_3'> +1.3319855e-04 </wgt>
<wgt id='morphing_basis_vector_4'> +5.8935818e-05 </wgt>
<wgt id='morphing_basis_vector_5'> +1.2892204e-04 </wgt>
</rwgt>
</event>
<event>
 4      1 +2.2016400e-08 2.26859100e+03 7.81860800e-03 7.96950400e-02
        2 -1    0    0  501    0 +0.0000000000e+00 +0.0000000000e+00 +2.5411743790e+03 2.5411743790e+03 0.0000000000e+00 0.0000e+00 1.0000e+00
       -2 -1    0    0    0  501 -0.0000000000e+00 -0.0000000000e+00 -5.0631166168e+02 5.0631166168e+02 0.0000000000e+00 0.0000e+00 -1.0000e+00
      -13  1    1    2    0    0 +1.6202332407e+02 +6.6972781156e+02 -1.9294538881e+02 7.1555211004e+02 0.0000000000e+00 0.0000e+00 -1.0000e+00
       13  1    1    2    0    0 -1.6202332407e+02 -6.6972781156e+02 +2.2278081061e+03 2.3319339307e+03 0.0000000000e+00 0.0000e+00 1.0000e+00
<mgrwt>
<rscale>  0 0.22685909E+04</rscale>
<asrwt>0</asrwt>
<pdfrwt beam="1">  1        2 0.39094990E+00 0.22685909E+04</pdfrwt>
<pdfrwt beam="2">  1       -2 0.77894104E-01 0.22685909E+04</pdfrwt>
<totfact> 0.55527514E+00</totfact>
</mgrwt>
<rwgt>
<wgt id='morphing_basis_vector_1'> +8.1013638e-05 </wgt>
<wgt id='morphing_basis_vector_2'> +5.4288856e-05 </wgt>
<wgt id='morphing_basis_vector_3'> +8.7196584e-05 </wgt>
<wgt id='morphing_basis_vector_4'> +6.1302110e-05 </wgt>
<wgt id='morphing_basis_vector_5'> +9.7805130e-05 </wgt>
</rwgt>
</event>
<event>
 4      1 +2.2016400e-08 2.26138100e+03 7.81860800e-03 7.97204900e-02
        2 -1    0    0  501    0 +0.0000000000e+00 +0.0000000000e+00 +3.2907140831e+03 3.2907140831e+03 0.0000000000e+00 0.0000e+00 1.0000e+00
       -2 -1    0    0    0  501 -0.0000000000e+00 -0.0000000000e+00 -3.8850568547e+02 3.8850568547e+02 0.0000000000e+00 0.0000e+00 -1.0000e+00
      -13  1    1    2    0    0 +3.4698463190e+01 -9.0465104731e+02 +3.4899712924e+02 9.7025589252e+02 0.0000000000e+00 0.0000e+00 -1.0000e+00
       13  1    1    2    0    0 -3.4698463190e+01 +9.0465104731e+02 +2.5532112684e+03 2.7089638761e+03 0.0000000000e+00 0.0000e+00 1.0000e+00
<mgrwt>
<rscale>  0 0.22613811E+04</rscale>
<asrwt>0</asrwt>
<pdfrwt beam="1">  1        2 0.50626369E+00 0.22613811E+04</pdfrwt>
<pdfrwt beam="2">  1       -2 0.59770108E-01 0.22613811E+04</pdfrwt>
<totfact> 0.32305490E+00</totfact>
</mgrwt>
<rwgt>
<wgt id='morphing_basis_vector_1'> +8.0165033e-05 </wgt>
<wgt id='morphing_basis_vector_2'> +5.4080032e-05 </wgt>
<wgt id='morphing_basis_vector_3'> +8.6334854e-05 </wgt>
<wgt id='morphing_basis_vector_4'> +6.0190201e-05 </wgt>
<wgt id='morphing_basis_vector_5'> +9.6522430e-05 </wgt>
</rwgt>
</event>
<event>
 4      1 +2.2016400e-08 2.36707100e+03 7.81860800e-03 7.93568700e-02
        2 -1    0    0  501    0 +0.0000000000e+00 +0.0000000000e+00 +1.6170198584e+03 1.6170198584e+03 0.0000000000e+00 0.0000e+00 1.0000e+00
       -2 -1    0    0    0  501 -0.0000000000e+00 -0.0000000000e+00 -8.6625778118e+02 8.6625778118e+02 0.0000000000e+00 0.0000e+00 -1.0000e+00
      -13  1    1    2    0    0 +5.3492360043e+02 -1.0440063418e+03 +2.1062486764e+02 1.1918285677e+03 0.0000000000e+00 0.0000e+00 1.0000e+00
       13  1    1    2    0    0 -5.3492360043e+02 +1.0440063418e+03 +5.4013720956e+02 1.2914490718e+03 0.0000000000e+00 0.0000e+00 -1.0000e+00
<mgrwt>
<rscale>  0 0.23670708E+04</rscale>
<asrwt>0</asrwt>
<pdfrwt beam="1">  1        2 0.24877229E+00 0.23670708E+04</pdfrwt>
<pdfrwt beam="2">  1       -2 0.13327043E+00 0.23670708E+04</pdfrwt>
<totfact> 0.49744720E+00</totfact>
</mgrwt>
<rwgt>
<wgt id='morphing_basis_vector_1'> +9.7870758e-05 </wgt>
<wgt id='morphing_basis_vector_2'> +7.0461125e-05 </wgt>
<wgt id='morphing_basis_vector_3'> +1.0649623e-04 </wgt>
<wgt id='morphing_basis_vector_4'> +6.8574848e-05 </wgt>
<wgt id='morphing_basis_vector_5'> +1.1587732e-04 </wgt>
</rwgt>
</event>
<event>
 4      1 +2.2016400e-08 2.48624400e+03 7.81860800e-03 7.89695800e-02
        2 -1    0    0  501    0 +0.0000000000e+00 +0.0000000000e+00 +7.1463950374e+02 7.1463950374e+02 0.0000000000e+00 0.0000e+00 1.0000e+00
       -2 -1    0    0    0  501 -0.0000000000e+00 -0.0000000000e+00 -2.1624215844e+03 2.1624215844e+03 0.0000000000e+00 0.0000e+00 -1.0000e+00
      -13  1    1    2    0    0 -4.0253050860e+02 +1.1068206359e+03 -1.1842573561e+03 1.6701940653e+03 0.0000000000e+00 0.0000e+00 -1.0000e+00
       13  1    1    2    0    0 +4.0253050860e+02 -1.1068206359e+03 -2.6352472458e+02 1.2068670228e+03 0.0000000000e+00 0.0000e+00 1.0000e+00
<mgrwt>
<rscale>  0 0.24862437E+04</rscale>
<asrwt>0</asrwt>
<pdfrwt beam="1">  1        2 0.10994454E+00 0.24862437E+04</pdfrwt>
<pdfrwt beam="2">  1       -2 0.33268025E+00 0.24862437E+04</pdfrwt>
<totfact> 0.62914191E-01</totfact>
</mgrwt>
<rwgt>
<wgt id='morphing_basis_vector_1'> +1.1741236e-04 </wgt>
<wgt id='morphing_basis_vector_2'> +8.1561904e-05 </wgt>
<wgt id='morphing_basis_vector_3'> +1.2750406e-04 </wgt>
<wgt id='morphing_basis_vector_4'> +8.6514039e-05 </wgt>
<wgt id='morphing_basis_vector_5'> +1.4164080e-04 </wgt>
</rwgt>
</event>
<event>
 4      1 +2.2016400e-08 2.38648800e+03 7.81860800e-03 7.92922000e-02
        2 -1    0    0  501    0 +0.0000000000e+00 +0.0000000000e+00 +1.4521992161e+03 1.4521992161e+03 0.0000000000e+00 0.0000e+00 1.0000e+00
       -2 -1    0    0    0  501 -0.0000000000e+00 -0.0000000000e+00 -9.8046518752e+02 9.8046518752e+02 0.0000000000e+00 0.0000e+00 -1.0000e+00
      -13  1    1    2    0    0 +3.2622461355e+02 +7.7983513096e+02 -6.2260752230e+02 1.0498597320e+03 0.0000000000e+00 0.0000e+00 -1.0000e+00
       13  1    1    2    0    0 -3.2622461355e+02 -7.7983513096e+02 +1.0943415509e+03 1.3828046716e+03 0.0000000000e+00 0.0000e+00 1.0000e+00
<mgrwt>
<rscale>  0 0.23864876E+04</rscale>
<asrwt>0</asrwt>
<pdfrwt beam="1">  1        2 0.22341526E+00 0.23864876E+04</pdfrwt>
<pdfrwt beam="2">  1       -2 0.15084080E+00 0.23864876E+04</pdfrwt>
<totfact> 0.43480620E+00</totfact>
</mgrwt>
<rwgt>
<wgt id='morphing_basis_vector_1'> +9.8978593e-05 </wgt>
<wgt id='morphing_basis_vector_2'> +6.6597559e-05 </wgt>
<wgt id='morphing_basis_vector_3'> +1.0686065e-04 </wgt>
<wgt id='morphing_basis_vector_4'> +7.5157103e-05 </wgt>
<wgt id='morphing_basis_vector_5'> +1.2012639e-04 </wgt>
</rwgt>
</event>
<event>
 4      1 +2.2016400e-08 2.37810000e+03 7.81860800e-03 7.93200600e-02
        2 -1    0    0  501    0 +0.0000000000e+00 +0.0000000000e+00 +1.2184722720e+03 1.2184722720e+03 0.0000000000e+00 0.0000e+00 -1.0000e+00
       -2 -1    0    0    0  501 -0.0000000000e+00 -0.0000000000e+00 -1.1603382715e+03 1.1603382715e+03 0.0000000000e+00 0.0000e+00 1.0000e+00
      -13  1    1    2    0    0 +4.7067604097e+02 -1.0916606937e+03 +5.3178231534e+01 1.1899945084e+03 0.0000000000e+00 0.0000e+00 1.0000e+00
       13  1    1    2    0    0 -4.7067604097e+02 +1.0916606937e+03 +4.9557689309e+00 1.1888160351e+03 0.0000000000e+00 0.0000e+00 -1.0000e+00
<mgrwt>
<rscale>  0 0.23781001E+04</rscale>
<asrwt>0</asrwt>
<pdfrwt beam="1">  1        2 0.18745727E+00 0.23781001E+04</pdfrwt>
<pdfrwt beam="2">  1       -2 0.17851358E+00 0.23781001E+04</pdfrwt>
<totfact> 0.35710814E+00</totfact>
</mgrwt>
<rwgt>
<wgt id='morphing_basis_vector_1'> +1.0133957e-04 </wgt>
<wgt id='morphing_basis_vector_2'> +7.6671752e-05 </wgt>
<wgt id='morphing_basis_vector_3'> +1.1100419e-04 </wgt>
<wgt id='morphing_basis_vector_4'> +6.6499496e-05 </wgt>
<wgt id='morphing_basis_vector_5'> +1.1781066e-04 </wgt>
</rwgt>
</event>
<event>
 4      1 +2.2016400e-08 2.26891700e+03 7.81860800e-03 7.96938900e-02
        2 -1    0    0  501    0 +0.0000000000e+00 +0.0000000000e+00 +1.2394397112e+03 1.2394397112e+03 0.0000000000e+00 0.0000e+00 -1.0000e+00
       -2 -1    0    0    0  501 -0.0000000000e+00 -0.0000000000e+00 -1.0383689777e+03 1.0383689777e+03 0.0000000000e+00 0.0000e+00 1.0000e+00
      -13  1    1    2    0    0 -8.9529834240e+01 +6.7125328217e+02 -8.1319598292e+02 1.0582458442e+03 0.0000000000e+00 0.0000e+00 1.0000e+00
       13  1    1    2    0    0 +8.9529834240e+01 -6.7125328217e+02 +1.0142667165e+03 1.2195628447e+03 0.0000000000e+00 0.0000e+00 -1.0000e+00
<mgrwt>
<rscale>  0 0.22689167E+04</rscale>
<asrwt>0</asrwt>
<pdfrwt beam="1">  1        2 0.19068303E+00 0.22689167E+04</pdfrwt>
<pdfrwt beam="2">  1       -2 0.15974907E+00 0.22689167E+04</pdfrwt>
<totfact> 0.49123572E+00</totfact>
</mgrwt>
<rwgt>
<wgt id='morphing_basis_vector_1'> +8.1055825e-05 </wgt>
<wgt id='morphing_basis_vector_2'> +5.4309144e-05 </wgt>
<wgt id='morphing_basis_vector_3'> +8.7241188e-05 </wgt>
<wgt id='morphing_basis_vector_4'> +6.1345196e-05 </wgt>
<wgt id='morphing_basis_vector_5'> +9.7862783e-05 </wgt>
</rwgt>
</event>
<event>
 4      1 +2.2016400e-08 2.31426100e+03 7.81860800e-03 7.95360600e-02
        2 -1    0    0  501    0 +0.0000000000e+00 +0.0000000000e+00 +8.5590544856e+02 8.5590544856e+02 0.0000000000e+00 0.0000e+00 -1.0000e+00
       -2 -1    0    0    0  501 -0.0000000000e+00 -0.0000000000e+00 -1.5643680200e+03 1.5643680200e+03 0.0000000000e+00 0.0000e+00 1.0000e+00
      -13  1    1    2    0    0 +2.3699985245e+02 +9.2447686286e+02 -1.0385166205e+03 1.4104407719e+03 0.0000000000e+00 0.0000e+00 1.0000e+00
       13  1    1    2    0    0 -2.3699985245e+02 -9.2447686286e+02 +3.3005404901e+02 1.0098326967e+03 0.0000000000e+00 0.0000e+00 -1.0000e+00
<mgrwt>
<rscale>  0 0.23142611E+04</rscale>
<asrwt>0</asrwt>
<pdfrwt beam="1">  1        2 0.13167776E+00 0.23142611E+04</pdfrwt>
<pdfrwt beam="2">  1       -2 0.24067200E+00 0.23142611E+04</pdfrwt>
<totfact> 0.21365492E+00</totfact>
</mgrwt>
<rwgt>
<wgt id='morphing_basis_vector_1'> +8.7854301e-05 </wgt>
<wgt id='morphing_basis_vector_2'> +5.9430020e-05 </wgt>
<wgt id='morphing_basis_vector_3'> +9.4763180e-05 </wgt>
<wgt id='morphing_basis_vector_4'> +6.6010260e-05 </wgt>
<wgt id='morphing_basis_vector_5'> +1.0601436e-04 </wgt>
</rwgt>
</event>
<event>
 4      1 +2.2016400e-08 2.56511100e+03 7.81860800e-03 7.87253000e-02
        2 -1    0    0  501    0 +0.0000000000e+00 +0.0000000000e+00 +1.3963377872e+03 1.3963377872e+03 0.0000000000e+00 0.0000e+00 1.0000e+00
       -2 -1    0    0    0  501 -0.0000000000e+00 -0.0000000000e+00 -1.1780445587e+03 1.1780445587e+03 0.0000000000e+00 0.0000e+00 -1.0000e+00
      -13  1    1    2    0    0 +5.3312177391e+02 +7.7153309422e+01 -1.0590092775e+03 1.1881380849e+03 0.0000000000e+00 0.0000e+00 -1.0000e+00
       13  1    1    2    0    0 -5.3312177391e+02 -7.7153309422e+01 +1.2773025061e+03 1.3862442609e+03 0.0000000000e+00 0.0000e+00 1.0000e+00
<mgrwt>
<rscale>  0 0.25651106E+04</rscale>
<asrwt>0</asrwt>
<pdfrwt beam="1">  1        2 0.21482120E+00 0.25651106E+04</pdfrwt>
<pdfrwt beam="2">  1       -2 0.18123763E+00 0.25651106E+04</pdfrwt>
<totfact> 0.26506601E+00</totfact>
</mgrwt>
<rwgt>
<wgt id='morphing_basis_vector_1'> +1.3145564e-04 </wgt>
<wgt id='morphing_basis_vector_2'> +8.8316856e-05 </wgt>
<wgt id='morphing_basis_vector_3'> +1.4236397e-04 </wgt>
<wgt id='morphing_basis_vector_4'> +1.0098193e-04 </wgt>
<wgt id='morphing_basis_vector_5'> +1.6096555e-04 </wgt>
</rwgt>
</event>
<event>
 4      1 +2.2016400e-08 2.28564500e+03 7.81860800e-03 7.96352300e-02
        2 -1    0    0  501    0 +0.0000000000e+00 +0.0000000000e+00 +3.0619675948e+03 3.0619675948e+03 0.0000000000e+00 0.0000e+00 1.0000e+00
       -2 -1    0    0    0  501 -0.0000000000e+00 -0.0000000000e+00 -4.2653728687e+02 4.2653728687e+02 0.0000000000e+00 0.0000e+00 -1.0000e+00
      -13  1    1    2    0    0 +1.9365055073e+02 -7.5188403171e+02 +3.7820998978e+01 7.7734198452e+02 0.0000000000e+00 0.0000e+00 -1.0000e+00
       13  1    1    2    0    0 -1.9365055073e+02 +7.5188403171e+02 +2.5976093089e+03 2.7111628971e+03 0.0000000000e+00 0.0000e+00 1.0000e+00
<mgrwt>
<rscale>  0 0.22856451E+04</rscale>
<asrwt>0</asrwt>
<pdfrwt beam="1">  1        2 0.47107192E+00 0.22856451E+04</pdfrwt>
<pdfrwt beam="2">  1       -2 0.65621123E-01 0.22856451E+04</pdfrwt>
<totfact> 0.37884446E+00</totfact>
</mgrwt>
<rwgt>
<wgt id='morphing_basis_vector_1'> +8.3473454e-05 </wgt>
<wgt id='morphing_basis_vector_2'> +5.6033111e-05 </wgt>
<wgt id='morphing_basis_vector_3'> +8.9897928e-05 </wgt>
<wgt id='morphing_basis_vector_4'> +6.3123244e-05 </wgt>
<wgt id='morphing_basis_vector_5'> +1.0082046e-04 </wgt>
</rwgt>
</event>
<event>
 4      1 +2.2016400e-08 2.44149000e+03 7.81860800e-03 7.91123600e-02
        2 -1    0    0  501    0 +0.0000000000e+00 +0.0000000000e+00 +2.2686859403e+03 2.2686859403e+03 0.0000000000e+00 0.0000e+00 -1.0000e+00
       -2 -1    0    0    0  501 -0.0000000000e+00 -0.0000000000e+00 -6.5686387649e+02 6.5686387649e+02 0.0000000000e+00 0.0000e+00 1.0000e+00
      -13  1    1    2    0    0 +7.2668181691e+02 -9.2930844117e+02 +4.2976825176e+02 1.2555402790e+03 0.0000000000e+00 0.0000e+00 1.0000e+00
       13  1    1    2    0    0 -7.2668181691e+02 +9.2930844117e+02 +1.1820538121e+03 1.6700095378e+03 0.0000000000e+00 0.0000e+00 -1.0000e+00
<mgrwt>
<rscale>  0 0.24414896E+04</rscale>
<asrwt>0</asrwt>
<pdfrwt beam="1">  1        2 0.34902860E+00 0.24414896E+04</pdfrwt>
<pdfrwt beam="2">  1       -2 0.10105598E+00 0.24414896E+04</pdfrwt>
<totfact> 0.43147341E+00</totfact>
</mgrwt>
<rwgt>
<wgt id='morphing_basis_vector_1'> +1.0963522e-04 </wgt>
<wgt id='morphing_basis_vector_2'> +7.6897057e-05 </wgt>
<wgt id='morphing_basis_vector_3'> +1.1909790e-04 </wgt>
<wgt id='morphing_basis_vector_4'> +7.9671118e-05 </wgt>
<wgt id='morphing_basis_vector_5'> +1.3153147e-04 </wgt>
</rwgt>
</event>
<event>
 4      1 +2.2016400e-08 2.36439600e+03 7.81860800e-03 7.93658300e-02
        2 -1    0    0  501    0 +0.0000000000e+00 +0.0000000000e+00 +1.5919923456e+03 1.5919923456e+03 0.0000000000e+00 0.0000e+00 -1.0000e+00
       -2 -1    0    0    0  501 -0.0000000000e+00 -0.0000000000e+00 -8.7788877313e+02 8.7788877313e+02 0.0000000000e+00 0.0000e+00 1.0000e+00
      -13  1    1    2    0    0 -1.0397946524e+03 -1.7805275805e+02 -2.0034202174e+02 1.0737842565e+03 0.0000000000e+00 0.0000e+00 1.0000e+00
       13  1    1    2    0    0 +1.0397946524e+03 +1.7805275805e+02 +9.1444559419e+02 1.3960968622e+03 0.0000000000e+00 0.0000e+00 -1.0000e+00
<mgrwt>
<rscale>  0 0.23643961E+04</rscale>
<asrwt>0</asrwt>
<pdfrwt beam="1">  1        2 0.24492190E+00 0.23643961E+04</pdfrwt>
<pdfrwt beam="2">  1       -2 0.13505981E+00 0.23643961E+04</pdfrwt>
<totfact> 0.49540376E+00</totfact>
</mgrwt>
<rwgt>
<wgt id='morphing_basis_vector_1'> +9.5845738e-05 </wgt>
<wgt id='morphing_basis_vector_2'> +6.5450890e-05 </wgt>
<wgt id='morphing_basis_vector_3'> +1.0361309e-04 </wgt>
<wgt id='morphing_basis_vector_4'> +7.1498912e-05 </wgt>
<wgt id='morphing_basis_vector_5'> +1.1560798e-04 </wgt>
</rwgt>
</event>
<event>
 4      1 +2.2016400e-08 2.29366700e+03 7.81860800e-03 7.96072800e-02
        2 -1    0    0  501    0 +0.0000000000e+00 +0.0000000000e+00 +1.7485209492e+03 1.7485209492e+03 0.0000000000e+00 0.0000e+00 -1.0000e+00
       -2 -1    0    0    0  501 -0.0000000000e+00 -0.0000000000e+00 -7.5219382495e+02 7.5219382495e+02 0.0000000000e+00 0.0000e+00 1.0000e+00
      -13  1    1    2    0    0 -9.3918661043e+02 +5.8302657316e+02 +8.3107121933e+02 1.3829934367e+03 0.0000000000e+00 0.0000e+00 1.0000e+00
       13  1    1    2    0    0 +9.3918661043e+02 -5.8302657316e+02 +1.6525590494e+02 1.1177213375e+03 0.0000000000e+00 0.0000e+00 -1.0000e+00
<mgrwt>
<rscale>  0 0.22936666E+04</rscale>
<asrwt>0</asrwt>
<pdfrwt beam="1">  1        2 0.26900322E+00 0.22936666E+04</pdfrwt>
<pdfrwt beam="2">  1       -2 0.11572213E+00 0.22936666E+04</pdfrwt>
<totfact> 0.61302175E+00</totfact>
</mgrwt>
<rwgt>
<wgt id='morphing_basis_vector_1'> +9.2267307e-05 </wgt>
<wgt id='morphing_basis_vector_2'> +7.9371472e-05 </wgt>
<wgt id='morphing_basis_vector_3'> +1.0263539e-04 </wgt>
<wgt id='morphing_basis_vector_4'> +4.8536462e-05 </wgt>
<wgt id='morphing_basis_vector_5'> +1.0102076e-04 </wgt>
</rwgt>
</event>
<event>
 4      1 +2.2016400e-08 2.42373000e+03 7.81860800e-03 7.91698900e-02
        2 -1    0    0  501    0 +0.0000000000e+00 +0.0000000000e+00 +1.7708377816e+03 1.7708377816e+03 0.0000000000e+00 0.0000e+00 -1.0000e+00
       -2 -1    0    0    0  501 -0.0000000000e+00 -0.0000000000e+00 -8.2933471509e+02 8.2933471509e+02 0.0000000000e+00 0.0000e+00 1.0000e+00
      -13  1    1    2    0    0 -2.9085896341e+02 -1.0480491902e+03 +1.0440825979e+03 1.5076851504e+03 0.0000000000e+00 0.0000e+00 -1.0000e+00
       13  1    1    2    0    0 +2.9085896341e+02 +1.0480491902e+03 -1.0257953134e+02 1.0924873463e+03 0.0000000000e+00 0.0000e+00 1.0000e+00
<mgrwt>
<rscale>  0 0.24237304E+04</rscale>
<asrwt>0</asrwt>
<pdfrwt beam="1">  1        2 0.27243658E+00 0.24237304E+04</pdfrwt>
<pdfrwt beam="2">  1       -2 0.12758996E+00 0.24237304E+04</pdfrwt>
<totfact> 0.45669419E+00</totfact>
</mgrwt>
<rwgt>
<wgt id='morphing_basis_vector_1'> +1.2150702e-04 </wgt>
<wgt id='morphing_basis_vector_2'> +1.1893031e-04 </wgt>
<wgt id='morphing_basis_vector_3'> +1.3842010e-04 </wgt>
<wgt id='morphing_basis_vector_4'> +4.6745399e-05 </wgt>
<wgt id='morphing_basis_vector_5'> +1.2522295e-04 </wgt>
</rwgt>
</event>
<event>
 4      1 +2.2016400e-08 2.43166600e+03 7.81860800e-03 7.91441200e-02
        2 -1    0    0  501    0 +0.0000000000e+00 +0.0000000000e+00 +1.9464774308e+03 1.9464774308e+03 0.0000000000e+00 0.0000e+00 -1.0000e+00
       -2 -1    0    0    0  501 -0.0000000000e+00 -0.0000000000e+00 -7.5944898545e+02 7.5944898545e+02 0.0000000000e+00 0.0000e+00 1.0000e+00
      -13  1    1    2    0    0 +2.3863966681e+02 -6.4377438984e+02 -5.2308075154e+02 8.6313835984e+02 0.0000000000e+00 0.0000e+00 1.0000e+00
       13  1    1    2    0    0 -2.3863966681e+02 +6.4377438984e+02 +1.7101091969e+03 1.8427880564e+03 0.0000000000e+00 0.0000e+00 -1.0000e+00
<mgrwt>
<rscale>  0 0.24316664E+04</rscale>
<asrwt>0</asrwt>
<pdfrwt beam="1">  1        2 0.29945807E+00 0.24316664E+04</pdfrwt>
<pdfrwt beam="2">  1       -2 0.11683831E+00 0.24316664E+04</pdfrwt>
<totfact> 0.45822389E+00</totfact>
</mgrwt>
<rwgt>
<wgt id='morphing_basis_vector_1'> +1.0648838e-04 </wgt>
<wgt id='morphing_basis_vector_2'> +7.1492335e-05 </wgt>
<wgt id='morphing_basis_vector_3'> +1.1504141e-04 </wgt>
<wgt id='morphing_basis_vector_4'> +8.1274825e-05 </wgt>
<wgt id='morphing_basis_vector_5'> +1.2963327e-04 </wgt>
</rwgt>
</event>
<event>
 4      1 +2.2016400e-08 2.46394300e+03 7.81860800e-03 7.90403400e-02
        2 -1    0    0  501    0 +0.0000000000e+00 +0.0000000000e+00 +1.8723182442e+03 1.8723182442e+03 0.0000000000e+00 0.0000e+00 1.0000e+00
       -2 -1    0    0    0  501 -0.0000000000e+00 -0.0000000000e+00 -8.1062821025e+02 8.1062821025e+02 0.0000000000e+00 0.0000e+00 -1.0000e+00
      -13  1    1    2    0    0 +6.4422908566e+02 -3.9928218205e+02 -5.2671605291e+02 9.2297734322e+02 0.0000000000e+00 0.0000e+00 -1.0000e+00
       13  1    1    2    0    0 -6.4422908566e+02 +3.9928218205e+02 +1.5884060868e+03 1.7599691112e+03 0.0000000000e+00 0.0000e+00 1.0000e+00
<mgrwt>
<rscale>  0 0.24639432E+04</rscale>
<asrwt>0</asrwt>
<pdfrwt beam="1">  1        2 0.28804896E+00 0.24639432E+04</pdfrwt>
<pdfrwt beam="2">  1       -2 0.12471203E+00 0.24639432E+04</pdfrwt>
<totfact> 0.42426178E+00</totfact>
</mgrwt>
<rwgt>
<wgt id='morphing_basis_vector_1'> +1.1219757e-04 </wgt>
<wgt id='morphing_basis_vector_2'> +7.5407313e-05 </wgt>
<wgt id='morphing_basis_vector_3'> +1.2129903e-04 </wgt>
<wgt id='morphing_basis_vector_4'> +8.5690288e-05 </wgt>
<wgt id='morphing_basis_vector_5'> +1.3674703e-04 </wgt>
</rwgt>
</event>
<event>
 4      1 +2.2016400e-08 2.30620300e+03 7.81860800e-03 7.95638300e-02
        2 -1    0    0  501    0 +0.0000000000e+00 +0.0000000000e+00 +2.1156853566e+03 2.1156853566e+03 0.0000000000e+00 0.0000e+00 1.0000e+00
       -2 -1    0    0    0  501 -0.0000000000e+00 -0.0000000000e+00 -6.2846918498e+02 6.2846918498e+02 0.0000000000e+00 0.0000e+00 -1.0000e+00
      -13  1    1    2    0    0 -1.8968355292e+02 -8.3204259311e+02 -1.7913608526e+02 8.7198879812e+02 0.0000000000e+00 0.0000e+00 -1.0000e+00
       13  1    1    2    0    0 +1.8968355292e+02 +8.3204259311e+02 +1.6663522569e+03 1.8721657435e+03 0.0000000000e+00 0.0000e+00 1.0000e+00
<mgrwt>
<rscale>  0 0.23062030E+04</rscale>
<asrwt>0</asrwt>
<pdfrwt beam="1">  1        2 0.32549005E+00 0.23062030E+04</pdfrwt>
<pdfrwt beam="2">  1       -2 0.96687568E-01 0.23062030E+04</pdfrwt>
<totfact> 0.59391406E+00</totfact>
</mgrwt>
<rwgt>
<wgt id='morphing_basis_vector_1'> +8.6521172e-05 </wgt>
<wgt id='morphing_basis_vector_2'> +5.8215216e-05 </wgt>
<wgt id='morphing_basis_vector_3'> +9.3249633e-05 </wgt>
<wgt id='morphing_basis_vector_4'> +6.5355099e-05 </wgt>
<wgt id='morphing_basis_vector_5'> +1.0454552e-04 </wgt>
</rwgt>
</event>
<event>
 4      1 +2.2016400e-08 2.37606300e+03 7.81860800e-03 7.93268400e-02
        2 -1    0    0  501    0 +0.0000000000e+00 +0.0000000000e+00 +9.3422532421e+02 9.3422532421e+02 0.0000000000e+00 0.0000e+00 -1.0000e+00
       -2 -1    0    0    0  501 -0.0000000000e+00 -0.0000000000e+00 -1.5107908636e+03 1.5107908636e+03 0.0000000000e+00 0.0000e+00 1.0000e+00
      -13  1    1    2    0    0 +9.0680991928e+01 -1.0608466873e+03 -8.3064588079e+02 1.3504041305e+03 0.0000000000e+00 0.0000e+00 1.0000e+00
       13  1    1    2    0    0 -9.0680991928e+01 +1.0608466873e+03 +2.5408034139e+02 1.0946120574e+03 0.0000000000e+00 0.0000e+00 -1.0000e+00
<mgrwt>
<rscale>  0 0.23760632E+04</rscale>
<asrwt>0</asrwt>
<pdfrwt beam="1">  1        2 0.14372698E+00 0.23760632E+04</pdfrwt>
<pdfrwt beam="2">  1       -2 0.23242936E+00 0.23760632E+04</pdfrwt>
<totfact> 0.21559711E+00</totfact>
</mgrwt>
<rwgt>
<wgt id='morphing_basis_vector_1'> +9.7745286e-05 </wgt>
<wgt id='morphing_basis_vector_2'> +6.6807719e-05 </wgt>
<wgt id='morphing_basis_vector_3'> +1.0570412e-04 </wgt>
<wgt id='morphing_basis_vector_4'> +7.2896640e-05 </wgt>
<wgt id='morphing_basis_vector_5'> +1.1793635e-04 </wgt>
</rwgt>
</event>
<event>
 4      1 +2.2016400e-08 2.28567200e+03 7.81860800e-03 7.96351300e-02
        2 -1    0    0  501    0 +0.0000000000e+00 +0.0000000000e+00 +5.9728614261e+02 5.9728614261e+02 0.0000000000e+00 0.0000e+00 -1.0000e+00
       -2 -1    0    0    0  501 -0.0000000000e+00 -0.0000000000e+00 -2.1866809922e+03 2.1866809922e+03 0.0000000000e+00 0.0000e+00 1.0000e+00
      -13  1    1    2    0    0 -7.7509320682e+02 +8.9034991435e+01 -1.8118454353e+03 1.9726836011e+03 0.0000000000e+00 0.0000e+00 1.0000e+00
       13  1    1    2    0    0 +7.7509320682e+02 -8.9034991435e+01 +2.2245058566e+02 8.1128353368e+02 0.0000000000e+00 0.0000e+00 -1.0000e+00
<mgrwt>
<rscale>  0 0.22856721E+04</rscale>
<asrwt>0</asrwt>
<pdfrwt beam="1">  1        2 0.91890175E-01 0.22856721E+04</pdfrwt>
<pdfrwt beam="2">  1       -2 0.33641246E+00 0.22856721E+04</pdfrwt>
<totfact> 0.75028370E-01</totfact>
</mgrwt>
<rwgt>
<wgt id='morphing_basis_vector_1'> +8.3479470e-05 </wgt>
<wgt id='morphing_basis_vector_2'> +5.6042028e-05 </wgt>
<wgt id='morphing_basis_vector_3'> +8.9905370e-05 </wgt>
<wgt id='morphing_basis_vector_4'> +6.3121963e-05 </wgt>
<wgt id='morphing_basis_vector_5'> +1.0082495e-04 </wgt>
</rwgt>
</event>
<event>
 4      1 +2.2016400e-08 2.37813100e+03 7.81860800e-03 7.93199500e-02
        2 -1    0    0  501    0 +0.0000000000e+00 +0.0000000000e+00 +2.0699829229e+03 2.0699829229e+03 0.0000000000e+00 0.0000e+00 -1.0000e+00
       -2 -1    0    0    0  501 -0.0000000000e+00 -0.0000000000e+00 -6.8303814610e+02 6.8303814610e+02 0.0000000000e+00 0.0000e+00 1.0000e+00
      -13  1    1    2    0    0 +8.4614558518e+02 +2.7181454595e+02 -2.2101356547e+02 9.1580155865e+02 0.0000000000e+00 0.0000e+00 1.0000e+00
       13  1    1    2    0    0 -8.4614558518e+02 -2.7181454595e+02 +1.6079583423e+03 1.8372195103e+03 0.0000000000e+00 0.0000e+00 -1.0000e+00
<mgrwt>
<rscale>  0 0.23781314E+04</rscale>
<asrwt>0</asrwt>
<pdfrwt beam="1">  1        2 0.31845891E+00 0.23781314E+04</pdfrwt>
<pdfrwt beam="2">  1       -2 0.10508279E+00 0.23781314E+04</pdfrwt>
<totfact> 0.51209746E+00</totfact>
</mgrwt>
<rwgt>
<wgt id='morphing_basis_vector_1'> +9.7662174e-05 </wgt>
<wgt id='morphing_basis_vector_2'> +6.5802082e-05 </wgt>
<wgt id='morphing_basis_vector_3'> +1.0543844e-04 </wgt>
<wgt id='morphing_basis_vector_4'> +7.4008142e-05 </wgt>
<wgt id='morphing_basis_vector_5'> +1.1842221e-04 </wgt>
</rwgt>
</event>
<event>
 4      1 +2.2016400e-08 2.44758600e+03 7.81860800e-03 7.90927300e-02
        2 -1    0    0  501    0 +0.0000000000e+00 +0.0000000000e+00 +3.0593654347e+03 3.0593654347e+03 0.0000000000e+00 0.0000e+00 1.0000e+00
       -2 -1    0    0    0  501 -0.0000000000e+00 -0.0000000000e+00 -4.8953584430e+02 4.8953584430e+02 0.0000000000e+00 0.0000e+00 -1.0000e+00
      -13  1    1    2    0    0 -1.1408749779e+03 -1.6889576094e+02 +6.9140890309e+02 1.3446812873e+03 0.0000000000e+00 0.0000e+00 1.0000e+00
       13  1    1    2    0    0 +1.1408749779e+03 +1.6889576094e+02 +1.8784206873e+03 2.2042199917e+03 0.0000000000e+00 0.0000e+00 -1.0000e+00
<mgrwt>
<rscale>  0 0.24475858E+04</rscale>
<asrwt>0</asrwt>
<pdfrwt beam="1">  1        2 0.47067159E+00 0.24475858E+04</pdfrwt>
<pdfrwt beam="2">  1       -2 0.75313209E-01 0.24475858E+04</pdfrwt>
<totfact> 0.27872909E+00</totfact>
</mgrwt>
<rwgt>
<wgt id='morphing_basis_vector_1'> +1.1030083e-04 </wgt>
<wgt id='morphing_basis_vector_2'> +7.6428000e-05 </wgt>
<wgt id='morphing_basis_vector_3'> +1.1965491e-04 </wgt>
<wgt id='morphing_basis_vector_4'> +8.1335850e-05 </wgt>
<wgt id='morphing_basis_vector_5'> +1.3293699e-04 </wgt>
</rwgt>
</event>
<event>
 4      1 +2.2016400e-08 2.46725500e+03 7.81860800e-03 7.90297800e-02
        2 -1    0    0  501    0 +0.0000000000e+00 +0.0000000000e+00 +6.8215631448e+02 6.8215631448e+02 0.0000000000e+00 0.0000e+00 -1.0000e+00
       -2 -1    0    0    0  501 -0.0000000000e+00 -0.0000000000e+00 -2.2309206213e+03 2.2309206213e+03 0.0000000000e+00 0.0000e+00 1.0000e+00
      -13  1    1    2    0    0 +9.5272376012e+02 +4.3868928301e+02 -7.6517163290e+00 1.0488991367e+03 0.0000000000e+00 0.0000e+00 1.0000e+00
       13  1    1    2    0    0 -9.5272376012e+02 -4.3868928301e+02 -1.5411125904e+03 1.8641777991e+03 0.0000000000e+00 0.0000e+00 -1.0000e+00
<mgrwt>
<rscale>  0 0.24672548E+04</rscale>
<asrwt>0</asrwt>
<pdfrwt beam="1">  1        2 0.10494712E+00 0.24672548E+04</pdfrwt>
<pdfrwt beam="2">  1       -2 0.34321856E+00 0.24672548E+04</pdfrwt>
<totfact> 0.56853816E-01</totfact>
</mgrwt>
<rwgt>
<wgt id='morphing_basis_vector_1'> +1.3498402e-04 </wgt>
<wgt id='morphing_basis_vector_2'> +1.4129995e-04 </wgt>
<wgt id='morphing_basis_vector_3'> +1.5574378e-04 </wgt>
<wgt id='morphing_basis_vector_4'> +4.0749753e-05 </wgt>
<wgt id='morphing_basis_vector_5'> +1.3381806e-04 </wgt>
</rwgt>
</event>
<event>
 4      1 +2.2016400e-08 2.41693600e+03 7.81860800e-03 7.91920300e-02
        2 -1    0    0  501    0 +0.0000000000e+00 +0.0000000000e+00 +1.6093488574e+03 1.6093488574e+03 0.0000000000e+00 0.0000e+00 1.0000e+00
       -2 -1    0    0    0  501 -0.0000000000e+00 -0.0000000000e+00 -9.0744469007e+02 9.0744469007e+02 0.0000000000e+00 0.0000e+00 -1.0000e+00
      -13  1    1    2    0    0 +1.1421142796e+03 -3.1247590670e+02 +9.9460101983e+01 1.1882586131e+03 0.0000000000e+00 0.0000e+00 -1.0000e+00
       13  1    1    2    0    0 -1.1421142796e+03 +3.1247590670e+02 +6.0244406533e+02 1.3285349343e+03 0.0000000000e+00 0.0000e+00 1.0000e+00
<mgrwt>
<rscale>  0 0.24169361E+04</rscale>
<asrwt>0</asrwt>
<pdfrwt beam="1">  1        2 0.24759213E+00 0.24169361E+04</pdfrwt>
<pdfrwt beam="2">  1       -2 0.13960688E+00 0.24169361E+04</pdfrwt>
<totfact> 0.44029715E+00</totfact>
</mgrwt>
<rwgt>
<wgt id='morphing_basis_vector_1'> +1.0572048e-04 </wgt>
<wgt id='morphing_basis_vector_2'> +7.4963464e-05 </wgt>
<wgt id='morphing_basis_vector_3'> +1.1494362e-04 </wgt>
<wgt id='morphing_basis_vector_4'> +7.5716481e-05 </wgt>
<wgt id='morphing_basis_vector_5'> +1.2618940e-04 </wgt>
</rwgt>
</event>
<event>
 4      1 +2.2016400e-08 2.47543800e+03 7.81860800e-03 7.90037700e-02
        2 -1    0    0  501    0 +0.0000000000e+00 +0.0000000000e+00 +1.9627482937e+03 1.9627482937e+03 0.0000000000e+00 0.0000e+00 -1.0000e+00
       -2 -1    0    0    0  501 -0.0000000000e+00 -0.0000000000e+00 -7.8051160836e+02 7.8051160836e+02 0.0000000000e+00 0.0000e+00 1.0000e+00
      -13  1    1    2    0    0 +1.2154147175e+03 +1.4046554512e+01 +3.3236660072e+02 1.2601181685e+03 0.0000000000e+00 0.0000e+00 1.0000e+00
       13  1    1    2    0    0 -1.2154147175e+03 -1.4046554512e+01 +8.4987008461e+02 1.4831417336e+03 0.0000000000e+00 0.0000e+00 -1.0000e+00
<mgrwt>
<rscale>  0 0.24754376E+04</rscale>
<asrwt>0</asrwt>
<pdfrwt beam="1">  1        2 0.30196127E+00 0.24754376E+04</pdfrwt>
<pdfrwt beam="2">  1       -2 0.12007871E+00 0.24754376E+04</pdfrwt>
<totfact> 0.41647897E+00</totfact>
</mgrwt>
<rwgt>
<wgt id='morphing_basis_vector_1'> +1.1627262e-04 </wgt>
<wgt id='morphing_basis_vector_2'> +8.2704246e-05 </wgt>
<wgt id='morphing_basis_vector_3'> +1.2661597e-04 </wgt>
<wgt id='morphing_basis_vector_4'> +8.3237188e-05 </wgt>
<wgt id='morphing_basis_vector_5'> +1.3902005e-04 </wgt>
</rwgt>
</event>
<event>
 4      1 +2.2016400e-08 2.39534500e+03 7.81860800e-03 7.92629000e-02
        2 -1    0    0  501    0 +0.0000000000e+00 +0.0000000000e+00 +1.2066129776e+03 1.2066129776e+03 0.0000000000e+00 0.0000e+00 -1.0000e+00
       -2 -1    0    0    0  501 -0.0000000000e+00 -0.0000000000e+00 -1.1887979525e+03 1.1887979525e+03 0.0000000000e+00 0.0000e+00 1.0000e+00
      -13  1    1    2    0    0 +2.7688555876e+01 +1.0947081437e+03 +4.9396366902e+02 1.2013128994e+03 0.0000000000e+00 0.0000e+00 1.0000e+00
       13  1    1    2    0    0 -2.7688555876e+01 -1.0947081437e+03 -4.7614864398e+02 1.1940980308e+03 0.0000000000e+00 0.0000e+00 -1.0000e+00
<mgrwt>
<rscale>  0 0.23953447E+04</rscale>
<asrwt>0</asrwt>
<pdfrwt beam="1">  1        2 0.18563277E+00 0.23953447E+04</pdfrwt>
<pdfrwt beam="2">  1       -2 0.18289199E+00 0.23953447E+04</pdfrwt>
<totfact> 0.33564594E+00</totfact>
</mgrwt>
<rwgt>
<wgt id='morphing_basis_vector_1'> +1.1442464e-04 </wgt>
<wgt id='morphing_basis_vector_2'> +1.0888861e-04 </wgt>
<wgt id='morphing_basis_vector_3'> +1.2964744e-04 </wgt>
<wgt id='morphing_basis_vector_4'> +4.7760637e-05 </wgt>
<wgt id='morphing_basis_vector_5'> +1.1964216e-04 </wgt>
</rwgt>
</event>
<event>
 4      1 +2.2016400e-08 2.49996900e+03 7.81860800e-03 7.89264000e-02
        2 -1    0    0  501    0 +0.0000000000e+00 +0.0000000000e+00 +1.9859290945e+03 1.9859290945e+03 0.0000000000e+00 0.0000e+00 -1.0000e+00
       -2 -1    0    0    0  501 -0.0000000000e+00 -0.0000000000e+00 -7.8676616965e+02 7.8676616965e+02 0.0000000000e+00 0.0000e+00 1.0000e+00
      -13  1    1    2    0    0 +1.0347341974e+03 -1.1138308376e+02 +1.3674869025e+03 1.7184590420e+03 0.0000000000e+00 0.0000e+00 1.0000e+00
       13  1    1    2    0    0 -1.0347341974e+03 +1.1138308376e+02 -1.6832397761e+02 1.0542362221e+03 0.0000000000e+00 0.0000e+00 -1.0000e+00
<mgrwt>
<rscale>  0 0.24999695E+04</rscale>
<asrwt>0</asrwt>
<pdfrwt beam="1">  1        2 0.30552755E+00 0.24999695E+04</pdfrwt>
<pdfrwt beam="2">  1       -2 0.12104095E+00 0.24999695E+04</pdfrwt>
<totfact> 0.39502462E+00</totfact>
</mgrwt>
<rwgt>
<wgt id='morphing_basis_vector_1'> +1.4387911e-04 </wgt>
<wgt id='morphing_basis_vector_2'> +1.5385216e-04 </wgt>
<wgt id='morphing_basis_vector_3'> +1.6679821e-04 </wgt>
<wgt id='morphing_basis_vector_4'> +3.9516179e-05 </wgt>
<wgt id='morphing_basis_vector_5'> +1.4086874e-04 </wgt>
</rwgt>
</event>
<event>
 4      1 +2.2016400e-08 2.38377000e+03 7.81860800e-03 7.93012100e-02
        2 -1    0    0  501    0 +0.0000000000e+00 +0.0000000000e+00 +1.3548656887e+03 1.3548656887e+03 0.0000000000e+00 0.0000e+00 -1.0000e+00
       -2 -1    0    0    0  501 -0.0000000000e+00 -0.0000000000e+00 -1.0485099545e+03 1.0485099545e+03 0.0000000000e+00 0.0000e+00 1.0000e+00
      -13  1    1    2    0    0 +3.9562288183e+02 -1.4403049221e+02 -9.7103900977e+02 1.0583850933e+03 0.0000000000e+00 0.0000e+00 1.0000e+00
       13  1    1    2    0    0 -3.9562288183e+02 +1.4403049221e+02 +1.2773947439e+03 1.3449905498e+03 0.0000000000e+00 0.0000e+00 -1.0000e+00
<mgrwt>
<rscale>  0 0.23837703E+04</rscale>
<asrwt>0</asrwt>
<pdfrwt beam="1">  1        2 0.20844088E+00 0.23837703E+04</pdfrwt>
<pdfrwt beam="2">  1       -2 0.16130922E+00 0.23837703E+04</pdfrwt>
<totfact> 0.40584702E+00</totfact>
</mgrwt>
<rwgt>
<wgt id='morphing_basis_vector_1'> +9.8420708e-05 </wgt>
<wgt id='morphing_basis_vector_2'> +6.5959169e-05 </wgt>
<wgt id='morphing_basis_vector_3'> +1.0620235e-04 </wgt>
<wgt id='morphing_basis_vector_4'> +7.5043649e-05 </wgt>
<wgt id='morphing_basis_vector_5'> +1.1959131e-04 </wgt>
</rwgt>
</event>
<event>
 4      1 +2.2016400e-08 2.47716300e+03 7.81860800e-03 7.89983000e-02
        2 -1    0    0  501    0 +0.0000000000e+00 +0.0000000000e+00 +2.4377856821e+03 2.4377856821e+03 0.0000000000e+00 0.0000e+00 -1.0000e+00
       -2 -1    0    0    0  501 -0.0000000000e+00 -0.0000000000e+00 -6.2929431772e+02 6.2929431772e+02 0.0000000000e+00 0.0000e+00 1.0000e+00
      -13  1    1    2    0    0 +4.9314761798e+01 +9.0157366663e+02 -1.4548963797e+02 9.1456779784e+02 0.0000000000e+00 0.0000e+00 1.0000e+00
       13  1    1    2    0    0 -4.9314761798e+01 -9.0157366663e+02 +1.9539810024e+03 2.1525122020e+03 0.0000000000e+00 0.0000e+00 -1.0000e+00
<mgrwt>
<rscale>  0 0.24771634E+04</rscale>
<asrwt>0</asrwt>
<pdfrwt beam="1">  1        2 0.37504395E+00 0.24771634E+04</pdfrwt>
<pdfrwt beam="2">  1       -2 0.96814512E-01 0.24771634E+04</pdfrwt>
<totfact> 0.37978427E+00</totfact>
</mgrwt>
<rwgt>
<wgt id='morphing_basis_vector_1'> +1.1468998e-04 </wgt>
<wgt id='morphing_basis_vector_2'> +7.7317981e-05 </wgt>
<wgt id='morphing_basis_vector_3'> +1.2406953e-04 </wgt>
<wgt id='morphing_basis_vector_4'> +8.7368145e-05 </wgt>
<wgt id='morphing_basis_vector_5'> +1.3972864e-04 </wgt>
</rwgt>
</event>
<event>
 4      1 +2.2016400e-08 2.49631500e+03 7.81860800e-03 7.89378700e-02
        2 -1    0    0  501    0 +0.0000000000e+00 +0.0000000000e+00 +9.1943453881e+02 9.1943453881e+02 0.0000000000e+00 0.0000e+00 -1.0000e+00
       -2 -1    0    0    0  501 -0.0000000000e+00 -0.0000000000e+00 -1.6944076186e+03 1.6944076186e+03 0.0000000000e+00 0.0000e+00 1.0000e+00
      -13  1    1    2    0    0 +5.1325459766e+02 -1.4933366562e+01 -1.5786956901e+03 1.6601004094e+03 0.0000000000e+00 0.0000e+00 1.0000e+00
       13  1    1    2    0    0 -5.1325459766e+02 +1.4933366562e+01 +8.0372261032e+02 9.5374174796e+02 0.0000000000e+00 0.0000e+00 -1.0000e+00
<mgrwt>
<rscale>  0 0.24963148E+04</rscale>
<asrwt>0</asrwt>
<pdfrwt beam="1">  1        2 0.14145147E+00 0.24963148E+04</pdfrwt>
<pdfrwt beam="2">  1       -2 0.26067809E+00 0.24963148E+04</pdfrwt>
<totfact> 0.13892503E+00</totfact>
</mgrwt>
<rwgt>
<wgt id='morphing_basis_vector_1'> +1.1807257e-04 </wgt>
<wgt id='morphing_basis_vector_2'> +7.9258545e-05 </wgt>
<wgt id='morphing_basis_vector_3'> +1.2770684e-04 </wgt>
<wgt id='morphing_basis_vector_4'> +9.0459209e-05 </wgt>
<wgt id='morphing_basis_vector_5'> +1.4418369e-04 </wgt>
</rwgt>
</event>
<event>
 4      1 +2.2016400e-08 2.29051400e+03 7.81860800e-03 7.96182500e-02
        2 -1    0    0  501    0 +0.0000000000e+00 +0.0000000000e+00 +1.4010723356e+03 1.4010723356e+03 0.0000000000e+00 0.0000e+00 -1.0000e+00
       -2 -1    0    0    0  501 -0.0000000000e+00 -0.0000000000e+00 -9.3614976348e+02 9.3614976348e+02 0.0000000000e+00 0.0000e+00 1.0000e+00
      -13  1    1    2    0    0 +3.5429186217e+01 +7.1945241562e+02 -6.7605814089e+02 9.8788745080e+02 0.0000000000e+00 0.0000e+00 1.0000e+00
       13  1    1    2    0    0 -3.5429186217e+01 -7.1945241562e+02 +1.1409807130e+03 1.3493346483e+03 0.0000000000e+00 0.0000e+00 -1.0000e+00
<mgrwt>
<rscale>  0 0.22905139E+04</rscale>
<asrwt>0</asrwt>
<pdfrwt beam="1">  1        2 0.21554959E+00 0.22905139E+04</pdfrwt>
<pdfrwt beam="2">  1       -2 0.14402304E+00 0.22905139E+04</pdfrwt>
<totfact> 0.53399239E+00</totfact>
</mgrwt>
<rwgt>
<wgt id='morphing_basis_vector_1'> +8.4148992e-05 </wgt>
<wgt id='morphing_basis_vector_2'> +5.6429547e-05 </wgt>
<wgt id='morphing_basis_vector_3'> +9.0625068e-05 </wgt>
<wgt id='morphing_basis_vector_4'> +6.3725431e-05 </wgt>
<wgt id='morphing_basis_vector_5'> +1.0169992e-04 </wgt>
</rwgt>
</event>
<event>
 4      1 +2.2016400e-08 2.59941000e+03 7.81860800e-03 7.86218500e-02
        2 -1    0    0  501    0 +0.0000000000e+00 +0.0000000000e+00 +1.4529320121e+03 1.4529320121e+03 0.0000000000e+00 0.0000e+00 1.0000e+00
       -2 -1    0    0    0  501 -0.0000000000e+00 -0.0000000000e+00 -1.1626374710e+03 1.1626374710e+03 0.0000000000e+00 0.0000e+00 -1.0000e+00
      -13  1    1    2    0    0 -2.8893961589e+01 -8.2316137007e+02 -8.6649012021e+02 1.1955060145e+03 0.0000000000e+00 0.0000e+00 -1.0000e+00
       13  1    1    2    0    0 +2.8893961589e+01 +8.2316137007e+02 +1.1567846613e+03 1.4200634686e+03 0.0000000000e+00 0.0000e+00 1.0000e+00
<mgrwt>
<rscale>  0 0.25994101E+04</rscale>
<asrwt>0</asrwt>
<pdfrwt beam="1">  1        2 0.22352800E+00 0.25994101E+04</pdfrwt>
<pdfrwt beam="2">  1       -2 0.17886730E+00 0.25994101E+04</pdfrwt>
<totfact> 0.25596064E+00</totfact>
</mgrwt>
<rwgt>
<wgt id='morphing_basis_vector_1'> +1.3861757e-04 </wgt>
<wgt id='morphing_basis_vector_2'> +9.3343145e-05 </wgt>
<wgt id='morphing_basis_vector_3'> +1.5024572e-04 </wgt>
<wgt id='morphing_basis_vector_4'> +1.0639680e-04 </wgt>
<wgt id='morphing_basis_vector_5'> +1.6984430e-04 </wgt>
</rwgt>
</event>
<event>
 4      1 +2.2016400e-08 2.48353800e+03 7.81860800e-03 7.89781200e-02
        2 -1    0    0  501    0 +0.0000000000e+00 +0.0000000000e+00 +2.4739384676e+03 2.4739384676e+03 0.0000000000e+00 0.0000e+00 1.0000e+00
       -2 -1    0    0    0  501 -0.0000000000e+00 -0.0000000000e+00 -6.2329344958e+02 6.2329344958e+02 0.0000000000e+00 0.0000e+00 -1.0000e+00
      -13  1    1    2    0    0 +6.9466411707e+02 -1.0238176627e+03 +7.9317174799e+02 1.4696537904e+03 0.0000000000e+00 0.0000e+00 1.0000e+00
       13  1    1    2    0    0 -6.9466411707e+02 +1.0238176627e+03 +1.0574732701e+03 1.6275781268e+03 0.0000000000e+00 0.0000e+00 -1.0000e+00
<mgrwt>
<rscale>  0 0.24835375E+04</rscale>
<asrwt>0</asrwt>
<pdfrwt beam="1">  1        2 0.38060591E+00 0.24835375E+04</pdfrwt>
<pdfrwt beam="2">  1       -2 0.95891301E-01 0.24835375E+04</pdfrwt>
<totfact> 0.36961644E+00</totfact>
</mgrwt>
<rwgt>
<wgt id='morphing_basis_vector_1'> +1.1879666e-04 </wgt>
<wgt id='morphing_basis_vector_2'> +8.6780786e-05 </wgt>
<wgt id='morphing_basis_vector_3'> +1.2982840e-04 </wgt>
<wgt id='morphing_basis_vector_4'> +8.2267233e-05 </wgt>
<wgt id='morphing_basis_vector_5'> +1.4070407e-04 </wgt>
</rwgt>
</event>
<event>
 4      1 +2.2016400e-08 2.39449400e+03 7.81860800e-03 7.92657100e-02
        2 -1    0    0  501    0 +0.0000000000e+00 +0.0000000000e+00 +1.7841640805e+03 1.7841640805e+03 0.0000000000e+00 0.0000e+00 1.0000e+00
       -2 -1    0    0    0  501 -0.0000000000e+00 -0.0000000000e+00 -8.0340167430e+02 8.0340167430e+02 0.0000000000e+00 0.0000e+00 -1.0000e+00
      -13  1    1    2    0    0 +1.0761871982e+03 +3.7448285127e+02 +9.3355179937e+01 1.1432985092e+03 0.0000000000e+00 0.0000e+00 -1.0000e+00
       13  1    1    2    0    0 -1.0761871982e+03 -3.7448285127e+02 +8.8740722623e+02 1.4442672456e+03 0.0000000000e+00 0.0000e+00 1.0000e+00
<mgrwt>
<rscale>  0 0.23944940E+04</rscale>
<asrwt>0</asrwt>
<pdfrwt beam="1">  1        2 0.27448678E+00 0.23944940E+04</pdfrwt>
<pdfrwt beam="2">  1       -2 0.12360026E+00 0.23944940E+04</pdfrwt>
<totfact> 0.48935493E+00</totfact>
</mgrwt>
<rwgt>
<wgt id='morphing_basis_vector_1'> +1.0128553e-04 </wgt>
<wgt id='morphing_basis_vector_2'> +7.0416545e-05 </wgt>
<wgt id='morphing_basis_vector_3'> +1.0980170e-04 </wgt>
<wgt id='morphing_basis_vector_4'> +7.4163265e-05 </wgt>
<wgt id='morphing_basis_vector_5'> +1.2160630e-04 </wgt>
</rwgt>
</event>
<event>
 4      1 +2.2016400e-08 2.38718900e+03 7.81860800e-03 7.92898700e-02
        2 -1    0    0  501    0 +0.0000000000e+00 +0.0000000000e+00 +1.2876016726e+03 1.2876016726e+03 0.0000000000e+00 0.0000e+00 1.0000e+00
       -2 -1    0    0    0  501 -0.0000000000e+00 -0.0000000000e+00 -1.1064511563e+03 1.1064511563e+03 0.0000000000e+00 0.0000e+00 -1.0000e+00
      -13  1    1    2    0    0 +2.6452119789e+01 -6.2688482240e+02 +1.1088684043e+03 1.2740774832e+03 0.0000000000e+00 0.0000e+00 1.0000e+00
       13  1    1    2    0    0 -2.6452119789e+01 +6.2688482240e+02 -9.2771788804e+02 1.1199753457e+03 0.0000000000e+00 0.0000e+00 -1.0000e+00
<mgrwt>
<rscale>  0 0.23871894E+04</rscale>
<asrwt>0</asrwt>
<pdfrwt beam="1">  1        2 0.19809257E+00 0.23871894E+04</pdfrwt>
<pdfrwt beam="2">  1       -2 0.17022325E+00 0.23871894E+04</pdfrwt>
<totfact> 0.37712735E+00</totfact>
</mgrwt>
<rwgt>
<wgt id='morphing_basis_vector_1'> +1.3357683e-04 </wgt>
<wgt id='morphing_basis_vector_2'> +1.6848843e-04 </wgt>
<wgt id='morphing_basis_vector_3'> +1.5919365e-04 </wgt>
<wgt id='morphing_basis_vector_4'> +4.9404165e-06 </wgt>
<wgt id='morphing_basis_vector_5'> +1.1459764e-04 </wgt>
</rwgt>
</event>
<event>
 4      1 +2.2016400e-08 2.47358500e+03 7.81860800e-03 7.90096500e-02
        2 -1    0    0  501    0 +0.0000000000e+00 +0.0000000000e+00 +3.5858255370e+03 3.5858255370e+03 0.0000000000e+00 0.0000e+00 -1.0000e+00
       -2 -1    0    0    0  501 -0.0000000000e+00 -0.0000000000e+00 -4.2658402994e+02 4.2658402994e+02 0.0000000000e+00 0.0000e+00 1.0000e+00
      -13  1    1    2    0    0 -1.7373328044e+02 -5.6220711627e+02 -1.8496757226e+02 6.1682501336e+02 0.0000000000e+00 0.0000e+00 1.0000e+00
       13  1    1    2    0    0 +1.7373328044e+02 +5.6220711627e+02 +3.3442090794e+03 3.3955845536e+03 0.0000000000e+00 0.0000e+00 -1.0000e+00
<mgrwt>
<rscale>  0 0.24735852E+04</rscale>
<asrwt>0</asrwt>
<pdfrwt beam="1">  1        2 0.55166545E+00 0.24735852E+04</pdfrwt>
<pdfrwt beam="2">  1       -2 0.65628315E-01 0.24735852E+04</pdfrwt>
<totfact> 0.16010273E+00</totfact>
</mgrwt>
<rwgt>
<wgt id='morphing_basis_vector_1'> +1.1389459e-04 </wgt>
<wgt id='morphing_basis_vector_2'> +7.6452925e-05 </wgt>
<wgt id='morphing_basis_vector_3'> +1.2313719e-04 </wgt>
<wgt id='morphing_basis_vector_4'> +8.7150553e-05 </wgt>
<wgt id='morphing_basis_vector_5'> +1.3893622e-04 </wgt>
</rwgt>
</event>
<event>
 4      1 +2.2016400e-08 2.43117200e+03 7.81860800e-03 7.91457200e-02
        2 -1    0    0  501    0 +0.0000000000e+00 +0.0000000000e+00 +4.6414899176e+02 4.6414899176e+02 0.0000000000e+00 0.0000e+00 -1.0000e+00
       -2 -1    0    0    0  501 -0.0000000000e+00 -0.0000000000e+00 -3.1835664484e+03 3.1835664484e+03 0.0000000000e+00 0.0000e+00 1.0000e+00
      -13  1    1    2    0    0 -7.1595886108e+02 -6.1399530647e+02 -2.5102886370e+03 2.6816294241e+03 0.0000000000e+00 0.0000e+00 1.0000e+00
       13  1    1    2    0    0 +7.1595886108e+02 +6.1399530647e+02 -2.0912881955e+02 9.6608601599e+02 0.0000000000e+00 0.0000e+00 -1.0000e+00
<mgrwt>
<rscale>  0 0.24311719E+04</rscale>
<asrwt>0</asrwt>
<pdfrwt beam="1">  1        2 0.71407541E-01 0.24311719E+04</pdfrwt>
<pdfrwt beam="2">  1       -2 0.48977943E+00 0.24311719E+04</pdfrwt>
<totfact> 0.91436912E-02</totfact>
</mgrwt>
<rwgt>
<wgt id='morphing_basis_vector_1'> +1.0658386e-04 </wgt>
<wgt id='morphing_basis_vector_2'> +7.1968461e-05 </wgt>
<wgt id='morphing_basis_vector_3'> +1.1522272e-04 </wgt>
<wgt id='morphing_basis_vector_4'> +8.0838315e-05 </wgt>
<wgt id='morphing_basis_vector_5'> +1.2949656e-04 </wgt>
</rwgt>
</event>
<event>
 4      1 +2.2016400e-08 2.51102800e+03 7.81860800e-03 7.88918300e-02
        2 -1    0    0  501    0 +0.0000000000e+00 +0.0000000000e+00 +1.6660640360e+03 1.6660640360e+03 0.0000000000e+00 0.0000e+00 1.0000e+00
       -2 -1    0    0    0  501 -0.0000000000e+00 -0.0000000000e+00 -9.4613097327e+02 9.4613097327e+02 0.0000000000e+00 0.0000e+00 -1.0000e+00
      -13  1    1    2    0    0 +4.7606330083e+02 -1.1490672491e+03 +5.3810518533e+02 1.3551933441e+03 0.0000000000e+00 0.0000e+00 -1.0000e+00
       13  1    1    2    0    0 -4.7606330083e+02 +1.1490672491e+03 +1.8182787743e+02 1.2570016652e+03 0.0000000000e+00 0.0000e+00 1.0000e+00
<mgrwt>
<rscale>  0 0.25110275E+04</rscale>
<asrwt>0</asrwt>
<pdfrwt beam="1">  1        2 0.25631754E+00 0.25110275E+04</pdfrwt>
<pdfrwt beam="2">  1       -2 0.14555861E+00 0.25110275E+04</pdfrwt>
<totfact> 0.36151095E+00</totfact>
</mgrwt>
<rwgt>
<wgt id='morphing_basis_vector_1'> +1.2798777e-04 </wgt>
<wgt id='morphing_basis_vector_2'> +1.0221205e-04 </wgt>
<wgt id='morphing_basis_vector_3'> +1.4165214e-04 </wgt>
<wgt id='morphing_basis_vector_4'> +7.7992144e-05 </wgt>
<wgt id='morphing_basis_vector_5'> +1.4646994e-04 </wgt>
</rwgt>
</event>
<event>
 4      1 +2.2016400e-08 2.35474700e+03 7.81860800e-03 7.93982500e-02
        2 -1    0    0  501    0 +0.0000000000e+00 +0.0000000000e+00 +2.1293234517e+03 2.1293234517e+03 0.0000000000e+00 0.0000e+00 1.0000e+00
       -2 -1    0    0    0  501 -0.0000000000e+00 -0.0000000000e+00 -6.5100893936e+02 6.5100893936e+02 0.0000000000e+00 0.0000e+00 -1.0000e+00
      -13  1    1    2    0    0 -3.5343172131e+01 +6.0955344489e+02 -4.4946470149e+02 7.5817086456e+02 0.0000000000e+00 0.0000e+00 -1.0000e+00
       13  1    1    2    0    0 +3.5343172131e+01 -6.0955344489e+02 +1.9277792139e+03 2.0221615265e+03 0.0000000000e+00 0.0000e+00 1.0000e+00
<mgrwt>
<rscale>  0 0.23547472E+04</rscale>
<asrwt>0</asrwt>
<pdfrwt beam="1">  1        2 0.32758822E+00 0.23547472E+04</pdfrwt>
<pdfrwt beam="2">  1       -2 0.10015522E+00 0.23547472E+04</pdfrwt>
<totfact> 0.53393573E+00</totfact>
</mgrwt>
<rwgt>
<wgt id='morphing_basis_vector_1'> +9.3799891e-05 </wgt>
<wgt id='morphing_basis_vector_2'> +6.2879668e-05 </wgt>
<wgt id='morphing_basis_vector_3'> +1.0115831e-04 </wgt>
<wgt id='morphing_basis_vector_4'> +7.1367848e-05 </wgt>
<wgt id='morphing_basis_vector_5'> +1.1378980e-04 </wgt>
</rwgt>
</event>
<event>
 4      1 +2.2016400e-08 2.54504400e+03 7.81860800e-03 7.87866000e-02
        2 -1    0    0  501    0 +0.0000000000e+00 +0.0000000000e+00 +2.3128525109e+03 2.3128525109e+03 0.0000000000e+00 0.0000e+00 -1.0000e+00
       -2 -1    0    0    0  501 -0.0000000000e+00 -0.0000000000e+00 -7.0013632117e+02 7.0013632117e+02 0.0000000000e+00 0.0000e+00 1.0000e+00
      -13  1    1    2    0    0 +4.2305861069e+02 +1.0907826373e+03 +2.1380228545e+02 1.1893261820e+03 0.0000000000e+00 0.0000e+00 1.0000e+00
       13  1    1    2    0    0 -4.2305861069e+02 -1.0907826373e+03 +1.3989139043e+03 1.8236626501e+03 0.0000000000e+00 0.0000e+00 -1.0000e+00
<mgrwt>
<rscale>  0 0.25450438E+04</rscale>
<asrwt>0</asrwt>
<pdfrwt beam="1">  1        2 0.35582346E+00 0.25450438E+04</pdfrwt>
<pdfrwt beam="2">  1       -2 0.10771328E+00 0.25450438E+04</pdfrwt>
<totfact> 0.34464798E+00</totfact>
</mgrwt>
<rwgt>
<wgt id='morphing_basis_vector_1'> +1.2839120e-04 </wgt>
<wgt id='morphing_basis_vector_2'> +8.8405111e-05 </wgt>
<wgt id='morphing_basis_vector_3'> +1.3942112e-04 </wgt>
<wgt id='morphing_basis_vector_4'> +9.5869729e-05 </wgt>
<wgt id='morphing_basis_vector_5'> +1.5576890e-04 </wgt>
</rwgt>
</event>
<event>
 4      1 +2.2016400e-08 2.27328600e+03 7.81860800e-03 7.96785200e-02
        2 -1    0    0  501    0 +0.0000000000e+00 +0.0000000000e+00 +1.4935045743e+03 1.4935045743e+03 0.0000000000e+00 0.0000e+00 -1.0000e+00
       -2 -1    0    0    0  501 -0.0000000000e+00 -0.0000000000e+00 -8.6505114626e+02 8.6505114626e+02 0.0000000000e+00 0.0000e+00 1.0000e+00
      -13  1    1    2    0    0 -1.0964046703e+03 -2.2881350564e+02 +1.1331653186e+02 1.1257439575e+03 0.0000000000e+00 0.0000e+00 1.0000e+00
       13  1    1    2    0    0 +1.0964046703e+03 +2.2881350564e+02 +5.1513689615e+02 1.2328117631e+03 0.0000000000e+00 0.0000e+00 -1.0000e+00
<mgrwt>
<rscale>  0 0.22732865E+04</rscale>
<asrwt>0</asrwt>
<pdfrwt beam="1">  1        2 0.22976993E+00 0.22732865E+04</pdfrwt>
<pdfrwt beam="2">  1       -2 0.13308479E+00 0.22732865E+04</pdfrwt>
<totfact> 0.59004092E+00</totfact>
</mgrwt>
<rwgt>
<wgt id='morphing_basis_vector_1'> +8.3212691e-05 </wgt>
<wgt id='morphing_basis_vector_2'> +5.9277522e-05 </wgt>
<wgt id='morphing_basis_vector_3'> +9.0224842e-05 </wgt>
<wgt id='morphing_basis_vector_4'> +5.8703896e-05 </wgt>
<wgt id='morphing_basis_vector_5'> +9.8380102e-05 </wgt>
</rwgt>
</event>
<event>
 4      1 +2.2016400e-08 2.24039500e+03 7.81860800e-03 7.97951300e-02
        2 -1    0    0  501    0 +0.0000000000e+00 +0.0000000000e+00 +2.0854554056e+03 2.0854554056e+03 0.0000000000e+00 0.0000e+00 -1.0000e+00
       -2 -1    0    0    0  501 -0.0000000000e+00 -0.0000000000e+00 -6.0171137873e+02 6.0171137873e+02 0.0000000000e+00 0.0000e+00 1.0000e+00
      -13  1    1    2    0    0 -5.5030521945e+02 -9.2872840251e+02 +3.8310814351e+02 1.1454885987e+03 0.0000000000e+00 0.0000e+00 1.0000e+00
       13  1    1    2    0    0 +5.5030521945e+02 +9.2872840251e+02 +1.1006358834e+03 1.5416781856e+03 0.0000000000e+00 0.0000e+00 -1.0000e+00
<mgrwt>
<rscale>  0 0.22403948E+04</rscale>
<asrwt>0</asrwt>
<pdfrwt beam="1">  1        2 0.32083929E+00 0.22403948E+04</pdfrwt>
<pdfrwt beam="2">  1       -2 0.92570982E-01 0.22403948E+04</pdfrwt>
<totfact> 0.68858689E+00</totfact>
</mgrwt>
<rwgt>
<wgt id='morphing_basis_vector_1'> +7.8092302e-05 </wgt>
<wgt id='morphing_basis_vector_2'> +5.4524242e-05 </wgt>
<wgt id='morphing_basis_vector_3'> +8.4397800e-05 </wgt>
<wgt id='morphing_basis_vector_4'> +5.6303179e-05 </wgt>
<wgt id='morphing_basis_vector_5'> +9.2801838e-05 </wgt>
</rwgt>
</event>
<event>
 4      1 +2.2016400e-08 2.50259600e+03 7.81860800e-03 7.89181700e-02
        2 -1    0    0  501    0 +0.0000000000e+00 +0.0000000000e+00 +2.5610179323e+03 2.5610179323e+03 0.0000000000e+00 0.0000e+00 1.0000e+00
       -2 -1    0    0    0  501 -0.0000000000e+00 -0.0000000000e+00 -6.1137686185e+02 6.1137686185e+02 0.0000000000e+00 0.0000e+00 -1.0000e+00
      -13  1    1    2    0    0 -4.6319471777e+02 -1.8983793766e+02 -4.7891567124e+02 6.9278280096e+02 0.0000000000e+00 0.0000e+00 -1.0000e+00
       13  1    1    2    0    0 +4.6319471777e+02 +1.8983793766e+02 +2.4285567417e+03 2.4796119932e+03 0.0000000000e+00 0.0000e+00 1.0000e+00
<mgrwt>
<rscale>  0 0.25025963E+04</rscale>
<asrwt>0</asrwt>
<pdfrwt beam="1">  1        2 0.39400275E+00 0.25025963E+04</pdfrwt>
<pdfrwt beam="2">  1       -2 0.94057980E-01 0.25025963E+04</pdfrwt>
<totfact> 0.34256457E+00</totfact>
</mgrwt>
<rwgt>
<wgt id='morphing_basis_vector_1'> +1.1924869e-04 </wgt>
<wgt id='morphing_basis_vector_2'> +8.0051500e-05 </wgt>
<wgt id='morphing_basis_vector_3'> +1.2899398e-04 </wgt>
<wgt id='morphing_basis_vector_4'> +9.1387040e-05 </wgt>
<wgt id='morphing_basis_vector_5'> +1.4565939e-04 </wgt>
</rwgt>
</event>
<event>
 4      1 +2.2016400e-08 2.39249900e+03 7.81860800e-03 7.92723000e-02
        2 -1    0    0  501    0 +0.0000000000e+00 +0.0000000000e+00 +2.1798947528e+03 2.1798947528e+03 0.0000000000e+00 0.0000e+00 -1.0000e+00
       -2 -1    0    0    0  501 -0.0000000000e+00 -0.0000000000e+00 -6.5645967931e+02 6.5645967931e+02 0.0000000000e+00 0.0000e+00 1.0000e+00
      -13  1    1    2    0    0 +6.8733425404e+02 +5.7275707599e+02 -1.7965810301e+02 9.1255469910e+02 0.0000000000e+00 0.0000e+00 1.0000e+00
       13  1    1    2    0    0 -6.8733425404e+02 -5.7275707599e+02 +1.7030931765e+03 1.9237997330e+03 0.0000000000e+00 0.0000e+00 -1.0000e+00
<mgrwt>
<rscale>  0 0.23924991E+04</rscale>
<asrwt>0</asrwt>
<pdfrwt beam="1">  1        2 0.33536842E+00 0.23924991E+04</pdfrwt>
<pdfrwt beam="2">  1       -2 0.10099380E+00 0.23924991E+04</pdfrwt>
<totfact> 0.48804708E+00</totfact>
</mgrwt>
<rwgt>
<wgt id='morphing_basis_vector_1'> +1.0001003e-04 </wgt>
<wgt id='morphing_basis_vector_2'> +6.7399040e-05 </wgt>
<wgt id='morphing_basis_vector_3'> +1.0800796e-04 </wgt>
<wgt id='morphing_basis_vector_4'> +7.5836538e-05 </wgt>
<wgt id='morphing_basis_vector_5'> +1.2135114e-04 </wgt>
</rwgt>
</event>
<event>
 4      1 +2.2016400e-08 2.31057000e+03 7.81860800e-03 7.95487700e-02
        2 -1    0    0  501    0 +0.0000000000e+00 +0.0000000000e+00 +1.8269527272e+03 1.8269527272e+03 0.0000000000e+00 0.0000e+00 -1.0000e+00
       -2 -1    0    0    0  501 -0.0000000000e+00 -0.0000000000e+00 -7.3055141073e+02 7.3055141073e+02 0.0000000000e+00 0.0000e+00 1.0000e+00
      -13  1    1    2    0    0 -1.1098689141e+03 +1.5394723766e+01 +1.9359224066e+02 1.1267315384e+03 0.0000000000e+00 0.0000e+00 1.0000e+00
       13  1    1    2    0    0 +1.1098689141e+03 -1.5394723766e+01 +9.0280907583e+02 1.4307725995e+03 0.0000000000e+00 0.0000e+00 -1.0000e+00
<mgrwt>
<rscale>  0 0.23105695E+04</rscale>
<asrwt>0</asrwt>
<pdfrwt beam="1">  1        2 0.28106965E+00 0.23105695E+04</pdfrwt>
<pdfrwt beam="2">  1       -2 0.11239253E+00 0.23105695E+04</pdfrwt>
<totfact> 0.59621210E+00</totfact>
</mgrwt>
<rwgt>
<wgt id='morphing_basis_vector_1'> +8.8127576e-05 </wgt>
<wgt id='morphing_basis_vector_2'> +6.1488218e-05 </wgt>
<wgt id='morphing_basis_vector_3'> +9.5400513e-05 </wgt>
<wgt id='morphing_basis_vector_4'> +6.3910404e-05 </wgt>
<wgt id='morphing_basis_vector_5'> +1.0519491e-04 </wgt>
</rwgt>
</event>
<event>
 4      1 +2.2016400e-08 2.27733400e+03 7.81860800e-03 7.96643100e-02
        2 -1    0    0  501    0 +0.0000000000e+00 +0.0000000000e+00 +2.6420762346e+03 2.6420762346e+03 0.0000000000e+00 0.0000e+00 -1.0000e+00
       -2 -1    0    0    0  501 -0.0000000000e+00 -0.0000000000e+00 -4.9073629878e+02 4.9073629878e+02 0.0000000000e+00 0.0000e+00 1.0000e+00
      -13  1    1    2    0    0 -9.8035684559e+02 +3.7498489078e+02 +4.6843426921e+02 1.1494102303e+03 0.0000000000e+00 0.0000e+00 1.0000e+00
       13  1    1    2    0    0 +9.8035684559e+02 -3.7498489078e+02 +1.6829056666e+03 1.9834023030e+03 0.0000000000e+00 0.0000e+00 -1.0000e+00
<mgrwt>
<rscale>  0 0.22773342E+04</rscale>
<asrwt>0</asrwt>
<pdfrwt beam="1">  1        2 0.40647326E+00 0.22773342E+04</pdfrwt>
<pdfrwt beam="2">  1       -2 0.75497893E-01 0.22773342E+04</pdfrwt>
<totfact> 0.51689801E+00</totfact>
</mgrwt>
<rwgt>
<wgt id='morphing_basis_vector_1'> +8.2843225e-05 </wgt>
<wgt id='morphing_basis_vector_2'> +5.6878031e-05 </wgt>
<wgt id='morphing_basis_vector_3'> +8.9437095e-05 </wgt>
<wgt id='morphing_basis_vector_4'> +6.1064214e-05 </wgt>
<wgt id='morphing_basis_vector_5'> +9.9248837e-05 </wgt>
</rwgt>
</event>
<event>
 4      1 +2.2016400e-08 2.33536900e+03 7.81860800e-03 7.94638600e-02
        2 -1    0    0  501    0 +0.0000000000e+00 +0.0000000000e+00 +1.7860349182e+03 1.7860349182e+03 0.0000000000e+00 0.0000e+00 -1.0000e+00
       -2 -1    0    0    0  501 -0.0000000000e+00 -0.0000000000e+00 -7.6341556995e+02 7.6341556995e+02 0.0000000000e+00 0.0000e+00 1.0000e+00
      -13  1    1    2    0    0 -5.0527433615e+02 -5.2080663347e+02 -4.8740080887e+02 8.7412885362e+02 0.0000000000e+00 0.0000e+00 1.0000e+00
       13  1    1    2    0    0 +5.0527433615e+02 +5.2080663347e+02 +1.5100201571e+03 1.6753216345e+03 0.0000000000e+00 0.0000e+00 -1.0000e+00
<mgrwt>
<rscale>  0 0.23353688E+04</rscale>
<asrwt>0</asrwt>
<pdfrwt beam="1">  1        2 0.27477460E+00 0.23353688E+04</pdfrwt>
<pdfrwt beam="2">  1       -2 0.11744855E+00 0.23353688E+04</pdfrwt>
<totfact> 0.56041798E+00</totfact>
</mgrwt>
<rwgt>
<wgt id='morphing_basis_vector_1'> +9.0826203e-05 </wgt>
<wgt id='morphing_basis_vector_2'> +6.0941354e-05 </wgt>
<wgt id='morphing_basis_vector_3'> +9.7920952e-05 </wgt>
<wgt id='morphing_basis_vector_4'> +6.8950464e-05 </wgt>
<wgt id='morphing_basis_vector_5'> +1.1003180e-04 </wgt>
</rwgt>
</event>
<event>
 4      1 +2.2016400e-08 2.44333400e+03 7.81860800e-03 7.91064100e-02
        2 -1    0    0  501    0 +0.0000000000e+00 +0.0000000000e+00 +3.0546937488e+03 3.0546937488e+03 0.0000000000e+00 0.0000e+00 -1.0000e+00
       -2 -1    0    0    0  501 -0.0000000000e+00 -0.0000000000e+00 -4.8858261429e+02 4.8858261429e+02 0.0000000000e+00 0.0000e+00 1.0000e+00
      -13  1    1    2    0    0 +6.7580679923e+02 -1.0454572083e+00 -1.9282280521e+02 7.0277774373e+02 0.0000000000e+00 0.0000e+00 1.0000e+00
       13  1    1    2    0    0 -6.7580679923e+02 +1.0454572083e+00 +2.7589339397e+03 2.8404986193e+03 0.0000000000e+00 0.0000e+00 -1.0000e+00
<mgrwt>
<rscale>  0 0.24433340E+04</rscale>
<asrwt>0</asrwt>
<pdfrwt beam="1">  1        2 0.46995287E+00 0.24433340E+04</pdfrwt>
<pdfrwt beam="2">  1       -2 0.75166558E-01 0.24433340E+04</pdfrwt>
<totfact> 0.28202745E+00</totfact>
</mgrwt>
<rwgt>
<wgt id='morphing_basis_vector_1'> +1.0851469e-04 </wgt>
<wgt id='morphing_basis_vector_2'> +7.2855263e-05 </wgt>
<wgt id='morphing_basis_vector_3'> +1.1725716e-04 </wgt>
<wgt id='morphing_basis_vector_4'> +8.2874555e-05 </wgt>
<wgt id='morphing_basis_vector_5'> +1.3217401e-04 </wgt>
</rwgt>
</event>
<event>
 4      1 +2.2016400e-08 2.39258300e+03 7.81860800e-03 7.92720200e-02
        2 -1    0    0  501    0 +0.0000000000e+00 +0.0000000000e+00 +9.3973599093e+02 9.3973599093e+02 0.0000000000e+00 0.0000e+00 -1.0000e+00
       -2 -1    0    0    0  501 -0.0000000000e+00 -0.0000000000e+00 -1.5228882793e+03 1.5228882793e+03 0.0000000000e+00 0.0000e+00 1.0000e+00
      -13  1    1    2    0    0 +1.1160281436e+03 -1.5771522615e+02 -7.0421126675e+02 1.3290246116e+03 0.0000000000e+00 0.0000e+00 1.0000e+00
       13  1    1    2    0    0 -1.1160281436e+03 +1.5771522615e+02 +1.2105897838e+02 1.1335996587e+03 0.0000000000e+00 0.0000e+00 -1.0000e+00
<mgrwt>
<rscale>  0 0.23925826E+04</rscale>
<asrwt>0</asrwt>
<pdfrwt beam="1">  1        2 0.14457477E+00 0.23925826E+04</pdfrwt>
<pdfrwt beam="2">  1       -2 0.23429050E+00 0.23925826E+04</pdfrwt>
<totfact> 0.20723944E+00</totfact>
</mgrwt>
<rwgt>
<wgt id='morphing_basis_vector_1'> +1.0083936e-04 </wgt>
<wgt id='morphing_basis_vector_2'> +6.9816298e-05 </wgt>
<wgt id='morphing_basis_vector_3'> +1.0925829e-04 </wgt>
<wgt id='morphing_basis_vector_4'> +7.4184031e-05 </wgt>
<wgt id='morphing_basis_vector_5'> +1.2123410e-04 </wgt>
</rwgt>
</event>
<event>
 4      1 +2.2016400e-08 2.30496200e+03 7.81860800e-03 7.95681200e-02
        2 -1    0    0  501    0 +0.0000000000e+00 +0.0000000000e+00 +3.3484141255e+03 3.3484141255e+03 0.0000000000e+00 0.0000e+00 -1.0000e+00
       -2 -1    0    0    0  501 -0.0000000000e+00 -0.0000000000e+00 -3.9666898376e+02 3.9666898376e+02 0.0000000000e+00 0.0000e+00 1.0000e+00
      -13  1    1    2    0    0 +5.9562749491e+02 +3.8310232507e+02 -1.4131885778e+00 7.0819594836e+02 0.0000000000e+00 0.0000e+00 1.0000e+00
       13  1    1    2    0    0 -5.9562749491e+02 -3.8310232507e+02 +2.9531583303e+03 3.0368871609e+03 0.0000000000e+00 0.0000e+00 -1.0000e+00
<mgrwt>
<rscale>  0 0.23049616E+04</rscale>
<asrwt>0</asrwt>
<pdfrwt beam="1">  1        2 0.51514062E+00 0.23049616E+04</pdfrwt>
<pdfrwt beam="2">  1       -2 0.61026000E-01 0.23049616E+04</pdfrwt>
<totfact> 0.28102827E+00</totfact>
</mgrwt>
<rwgt>
<wgt id='morphing_basis_vector_1'> +8.6252781e-05 </wgt>
<wgt id='morphing_basis_vector_2'> +5.7839407e-05 </wgt>
<wgt id='morphing_basis_vector_3'> +9.2921273e-05 </wgt>
<wgt id='morphing_basis_vector_4'> +6.5385218e-05 </wgt>
<wgt id='morphing_basis_vector_5'> +1.0433111e-04 </wgt>
</rwgt>
</event>
<event>
 4      1 +2.2016400e-08 2.27291400e+03 7.81860800e-03 7.96798200e-02
        2 -1    0    0  501    0 +0.0000000000e+00 +0.0000000000e+00 +1.7946924068e+03 1.7946924068e+03 0.0000000000e+00 0.0000e+00 -1.0000e+00
       -2 -1    0    0    0  501 -0.0000000000e+00 -0.0000000000e+00 -7.1964125024e+02 7.1964125024e+02 0.0000000000e+00 0.0000e+00 1.0000e+00
      -13  1    1    2    0    0 +1.6027800413e+02 -1.0493634310e+03 +8.8611740229e+01 1.0652251825e+03 0.0000000000e+00 0.0000e+00 1.0000e+00
       13  1    1    2    0    0 -1.6027800413e+02 +1.0493634310e+03 +9.8643941636e+02 1.4491084746e+03 0.0000000000e+00 0.0000e+00 -1.0000e+00
<mgrwt>
<rscale>  0 0.22729142E+04</rscale>
<asrwt>0</asrwt>
<pdfrwt beam="1">  1        2 0.27610652E+00 0.22729142E+04</pdfrwt>
<pdfrwt beam="2">  1       -2 0.11071404E+00 0.22729142E+04</pdfrwt>
<totfact> 0.64753772E+00</totfact>
</mgrwt>
<rwgt>
<wgt id='morphing_basis_vector_1'> +8.2306113e-05 </wgt>
<wgt id='morphing_basis_vector_2'> +5.6718952e-05 </wgt>
<wgt id='morphing_basis_vector_3'> +8.8886581e-05 </wgt>
<wgt id='morphing_basis_vector_4'> +6.0393620e-05 </wgt>
<wgt id='morphing_basis_vector_5'> +9.8453404e-05 </wgt>
</rwgt>
</event>
<event>
 4      1 +2.2016400e-08 2.51652000e+03 7.81860800e-03 7.88747200e-02
        2 -1    0    0  501    0 +0.0000000000e+00 +0.0000000000e+00 +2.9828403370e+03 2.9828403370e+03 0.0000000000e+00 0.0000e+00 1.0000e+00
       -2 -1    0    0    0  501 -0.0000000000e+00 -0.0000000000e+00 -5.3077518994e+02 5.3077518994e+02 0.0000000000e+00 0.0000e+00 -1.0000e+00
      -13  1    1    2    0    0 +4.1959201659e+02 -1.0952175035e+03 +5.8978065122e+02 1.3127833244e+03 0.0000000000e+00 0.0000e+00 -1.0000e+00
       13  1    1    2    0    0 -4.1959201659e+02 +1.0952175035e+03 +1.8622844958e+03 2.2008322025e+03 0.0000000000e+00 0.0000e+00 1.0000e+00
<mgrwt>
<rscale>  0 0.25165195E+04</rscale>
<asrwt>0</asrwt>
<pdfrwt beam="1">  1        2 0.45889851E+00 0.25165195E+04</pdfrwt>
<pdfrwt beam="2">  1       -2 0.81657723E-01 0.25165195E+04</pdfrwt>
<totfact> 0.25911326E+00</totfact>
</mgrwt>
<rwgt>
<wgt id='morphing_basis_vector_1'> +1.2294241e-04 </wgt>
<wgt id='morphing_basis_vector_2'> +8.4944273e-05 </wgt>
<wgt id='morphing_basis_vector_3'> +1.3349412e-04 </wgt>
<wgt id='morphing_basis_vector_4'> +9.1304796e-05 </wgt>
<wgt id='morphing_basis_vector_5'> +1.4879502e-04 </wgt>
</rwgt>
</event>
<event>
 4      1 +2.2016400e-08 2.38680300e+03 7.81860800e-03 7.92911500e-02
        2 -1    0    0  501    0 +0.0000000000e+00 +0.0000000000e+00 +3.3569393588e+03 3.3569393588e+03 0.0000000000e+00 0.0000e+00 1.0000e+00
       -2 -1    0    0    0  501 -0.0000000000e+00 -0.0000000000e+00 -4.2425776831e+02 4.2425776831e+02 0.0000000000e+00 0.0000e+00 -1.0000e+00
      -13  1    1    2    0    0 -6.2776759849e+02 -9.3333788716e+02 +8.3464855355e+02 1.4006605503e+03 0.0000000000e+00 0.0000e+00 -1.0000e+00
       13  1    1    2    0    0 +6.2776759849e+02 +9.3333788716e+02 +2.0980330370e+03 2.3805365768e+03 0.0000000000e+00 0.0000e+00 1.0000e+00
<mgrwt>
<rscale>  0 0.23868034E+04</rscale>
<asrwt>0</asrwt>
<pdfrwt beam="1">  1        2 0.51645219E+00 0.23868034E+04</pdfrwt>
<pdfrwt beam="2">  1       -2 0.65270428E-01 0.23868034E+04</pdfrwt>
<totfact> 0.23921657E+00</totfact>
</mgrwt>
<rwgt>
<wgt id='morphing_basis_vector_1'> +9.9886551e-05 </wgt>
<wgt id='morphing_basis_vector_2'> +6.9160879e-05 </wgt>
<wgt id='morphing_basis_vector_3'> +1.0821356e-04 </wgt>
<wgt id='morphing_basis_vector_4'> +7.3451585e-05 </wgt>
<wgt id='morphing_basis_vector_5'> +1.2005003e-04 </wgt>
</rwgt>
</event>
<event>
 4      1 +2.2016400e-08 2.25277800e+03 7.81860800e-03 7.97509800e-02
        2 -1    0    0  501    0 +0.0000000000e+00 +0.0000000000e+00 +1.6642131361e+03 1.6642131361e+03 0.0000000000e+00 0.0000e+00 1.0000e+00
       -2 -1    0    0    0  501 -0.0000000000e+00 -0.0000000000e+00 -7.6237391866e+02 7.6237391866e+02 0.0000000000e+00 0.0000e+00 -1.0000e+00
      -13  1    1    2    0    0 -5.3059373580e+02 -2.8383232016e+02 -5.7473266137e+02 8.3211064798e+02 0.0000000000e+00 0.0000e+00 -1.0000e+00
       13  1    1    2    0    0 +5.3059373580e+02 +2.8383232016e+02 +1.4765718788e+03 1.5944764067e+03 0.0000000000e+00 0.0000e+00 1.0000e+00
<mgrwt>
<rscale>  0 0.22527785E+04</rscale>
<asrwt>0</asrwt>
<pdfrwt beam="1">  1        2 0.25603279E+00 0.22527785E+04</pdfrwt>
<pdfrwt beam="2">  1       -2 0.11728830E+00 0.22527785E+04</pdfrwt>
<totfact> 0.66211933E+00</totfact>
</mgrwt>
<rwgt>
<wgt id='morphing_basis_vector_1'> +7.8793895e-05 </wgt>
<wgt id='morphing_basis_vector_2'> +5.2743025e-05 </wgt>
<wgt id='morphing_basis_vector_3'> +8.4764515e-05 </wgt>
<wgt id='morphing_basis_vector_4'> +5.9624893e-05 </wgt>
<wgt id='morphing_basis_vector_5'> +9.5068013e-05 </wgt>
</rwgt>
</event>
<event>
 4      1 +2.2016400e-08 2.61587700e+03 7.81860800e-03 7.85727700e-02
        2 -1    0    0  501    0 +0.0000000000e+00 +0.0000000000e+00 +2.4291897117e+03 2.4291897117e+03 0.0000000000e+00 0.0000e+00 -1.0000e+00
       -2 -1    0    0    0  501 -0.0000000000e+00 -0.0000000000e+00 -7.0422769065e+02 7.0422769065e+02 0.0000000000e+00 0.0000e+00 1.0000e+00
      -13  1    1    2    0    0 +2.1133508492e+02 -9.5859710240e+02 +1.8978605601e+03 2.1366903446e+03 0.0000000000e+00 0.0000e+00 -1.0000e+00
       13  1    1    2    0    0 -2.1133508492e+02 +9.5859710240e+02 -1.7289853911e+02 9.9672705776e+02 0.0000000000e+00 0.0000e+00 1.0000e+00
<mgrwt>
<rscale>  0 0.26158766E+04</rscale>
<asrwt>0</asrwt>
<pdfrwt beam="1">  1        2 0.37372149E+00 0.26158766E+04</pdfrwt>
<pdfrwt beam="2">  1       -2 0.10834272E+00 0.26158766E+04</pdfrwt>
<totfact> 0.28859591E+00</totfact>
</mgrwt>
<rwgt>
<wgt id='morphing_basis_vector_1'> +1.8017233e-04 </wgt>
<wgt id='morphing_basis_vector_2'> +2.0794068e-04 </wgt>
<wgt id='morphing_basis_vector_3'> +2.1257976e-04 </wgt>
<wgt id='morphing_basis_vector_4'> +3.0821932e-05 </wgt>
<wgt id='morphing_basis_vector_5'> +1.6786749e-04 </wgt>
</rwgt>
</event>
<event>
 4      1 +2.2016400e-08 2.29917300e+03 7.81860800e-03 7.95881600e-02
        2 -1    0    0  501    0 +0.0000000000e+00 +0.0000000000e+00 +2.2071961726e+03 2.2071961726e+03 0.0000000000e+00 0.0000e+00 -1.0000e+00
       -2 -1    0    0    0  501 -0.0000000000e+00 -0.0000000000e+00 -5.9874571429e+02 5.9874571429e+02 0.0000000000e+00 0.0000e+00 1.0000e+00
      -13  1    1    2    0    0 +4.2050821583e+02 -8.5666237205e+02 +2.1968102198e+01 9.5455758170e+02 0.0000000000e+00 0.0000e+00 1.0000e+00
       13  1    1    2    0    0 -4.2050821583e+02 +8.5666237205e+02 +1.5864823561e+03 1.8513843052e+03 0.0000000000e+00 0.0000e+00 -1.0000e+00
<mgrwt>
<rscale>  0 0.22991731E+04</rscale>
<asrwt>0</asrwt>
<pdfrwt beam="1">  1        2 0.33956864E+00 0.22991731E+04</pdfrwt>
<pdfrwt beam="2">  1       -2 0.92114727E-01 0.22991731E+04</pdfrwt>
<totfact> 0.59076191E+00</totfact>
</mgrwt>
<rwgt>
<wgt id='morphing_basis_vector_1'> +8.5632072e-05 </wgt>
<wgt id='morphing_basis_vector_2'> +5.7941633e-05 </wgt>
<wgt id='morphing_basis_vector_3'> +9.2337169e-05 </wgt>
<wgt id='morphing_basis_vector_4'> +6.4255871e-05 </wgt>
<wgt id='morphing_basis_vector_5'> +1.0323388e-04 </wgt>
</rwgt>
</event>
<event>
 4      1 +2.2016400e-08 2.44431600e+03 7.81860800e-03 7.91032500e-02
        2 -1    0    0  501    0 +0.0000000000e+00 +0.0000000000e+00 +1.3227642204e+03 1.3227642204e+03 0.0000000000e+00 0.0000e+00 -1.0000e+00
       -2 -1    0    0    0  501 -0.0000000000e+00 -0.0000000000e+00 -1.1292031921e+03 1.1292031921e+03 0.0000000000e+00 0.0000e+00 1.0000e+00
      -13  1    1    2    0    0 +8.9922327037e+02 +7.4732079341e+02 -2.6011228307e+02 1.1978101928e+03 0.0000000000e+00 0.0000e+00 1.0000e+00
       13  1    1    2    0    0 -8.9922327037e+02 -7.4732079341e+02 +4.5367331133e+02 1.2541572197e+03 0.0000000000e+00 0.0000e+00 -1.0000e+00
<mgrwt>
<rscale>  0 0.24443155E+04</rscale>
<asrwt>0</asrwt>
<pdfrwt beam="1">  1        2 0.20350219E+00 0.24443155E+04</pdfrwt>
<pdfrwt beam="2">  1       -2 0.17372357E+00 0.24443155E+04</pdfrwt>
<totfact> 0.33655797E+00</totfact>
</mgrwt>
<rwgt>
<wgt id='morphing_basis_vector_1'> +1.0994016e-04 </wgt>
<wgt id='morphing_basis_vector_2'> +7.6671216e-05 </wgt>
<wgt id='morphing_basis_vector_3'> +1.1935110e-04 </wgt>
<wgt id='morphing_basis_vector_4'> +8.0447322e-05 </wgt>
<wgt id='morphing_basis_vector_5'> +1.3218218e-04 </wgt>
</rwgt>
</event>
<event>
 4      1 +2.2016400e-08 2.27187600e+03 7.81860800e-03 7.96834700e-02
        2 -1    0    0  501    0 +0.0000000000e+00 +0.0000000000e+00 +1.7306662617e+03 1.7306662617e+03 0.0000000000e+00 0.0000e+00 1.0000e+00
       -2 -1    0    0    0  501 -0.0000000000e+00 -0.0000000000e+00 -7.4558292944e+02 7.4558292944e+02 0.0000000000e+00 0.0000e+00 -1.0000e+00
      -13  1    1    2    0    0 +9.1267129254e+02 -7.6854920969e+01 -2.3982539138e+02 9.4677969215e+02 0.0000000000e+00 0.0000e+00 -1.0000e+00
       13  1    1    2    0    0 -9.1267129254e+02 +7.6854920969e+01 +1.2249087237e+03 1.5294694990e+03 0.0000000000e+00 0.0000e+00 1.0000e+00
<mgrwt>
<rscale>  0 0.22718761E+04</rscale>
<asrwt>0</asrwt>
<pdfrwt beam="1">  1        2 0.26625635E+00 0.22718761E+04</pdfrwt>
<pdfrwt beam="2">  1       -2 0.11470507E+00 0.22718761E+04</pdfrwt>
<totfact> 0.64272277E+00</totfact>
</mgrwt>
<rwgt>
<wgt id='morphing_basis_vector_1'> +8.1649591e-05 </wgt>
<wgt id='morphing_basis_vector_2'> +5.5113367e-05 </wgt>
<wgt id='morphing_basis_vector_3'> +8.7961707e-05 </wgt>
<wgt id='morphing_basis_vector_4'> +6.1312534e-05 </wgt>
<wgt id='morphing_basis_vector_5'> +9.8353600e-05 </wgt>
</rwgt>
</event>
<event>
 4      1 +2.2016400e-08 2.29288500e+03 7.81860800e-03 7.96099900e-02
        2 -1    0    0  501    0 +0.0000000000e+00 +0.0000000000e+00 +2.2628585711e+03 2.2628585711e+03 0.0000000000e+00 0.0000e+00 -1.0000e+00
       -2 -1    0    0    0  501 -0.0000000000e+00 -0.0000000000e+00 -5.8082767432e+02 5.8082767432e+02 0.0000000000e+00 0.0000e+00 1.0000e+00
      -13  1    1    2    0    0 -6.6511670551e+02 +3.4331682183e+02 -2.3596854560e+02 7.8481069477e+02 0.0000000000e+00 0.0000e+00 1.0000e+00
       13  1    1    2    0    0 +6.6511670551e+02 -3.4331682183e+02 +1.9179994424e+03 2.0588755507e+03 0.0000000000e+00 0.0000e+00 -1.0000e+00
<mgrwt>
<rscale>  0 0.22928854E+04</rscale>
<asrwt>0</asrwt>
<pdfrwt beam="1">  1        2 0.34813208E+00 0.22928854E+04</pdfrwt>
<pdfrwt beam="2">  1       -2 0.89358105E-01 0.22928854E+04</pdfrwt>
<totfact> 0.58953886E+00</totfact>
</mgrwt>
<rwgt>
<wgt id='morphing_basis_vector_1'> +8.4504137e-05 </wgt>
<wgt id='morphing_basis_vector_2'> +5.6696121e-05 </wgt>
<wgt id='morphing_basis_vector_3'> +9.1017811e-05 </wgt>
<wgt id='morphing_basis_vector_4'> +6.3970310e-05 </wgt>
<wgt id='morphing_basis_vector_5'> +1.0212633e-04 </wgt>
</rwgt>
</event>
<event>
 4      1 +2.2016400e-08 2.29770000e+03 7.81860800e-03 7.95932700e-02
        2 -1    0    0  501    0 +0.0000000000e+00 +0.0000000000e+00 +2.6780294487e+03 2.6780294487e+03 0.0000000000e+00 0.0000e+00 -1.0000e+00
       -2 -1    0    0    0  501 -0.0000000000e+00 -0.0000000000e+00 -4.9284593879e+02 4.9284593879e+02 0.0000000000e+00 0.0000e+00 1.0000e+00
      -13  1    1    2    0    0 -4.2054363303e+01 +6.5065460617e+02 -2.1277743544e+02 6.8585291648e+02 0.0000000000e+00 0.0000e+00 1.0000e+00
       13  1    1    2    0    0 +4.2054363303e+01 -6.5065460617e+02 +2.3979609453e+03 2.4850224710e+03 0.0000000000e+00 0.0000e+00 -1.0000e+00
<mgrwt>
<rscale>  0 0.22976997E+04</rscale>
<asrwt>0</asrwt>
<pdfrwt beam="1">  1        2 0.41200452E+00 0.22976997E+04</pdfrwt>
<pdfrwt beam="2">  1       -2 0.75822454E-01 0.22976997E+04</pdfrwt>
<totfact> 0.48586240E+00</totfact>
</mgrwt>
<rwgt>
<wgt id='morphing_basis_vector_1'> +8.5171740e-05 </wgt>
<wgt id='morphing_basis_vector_2'> +5.7072244e-05 </wgt>
<wgt id='morphing_basis_vector_3'> +9.1733618e-05 </wgt>
<wgt id='morphing_basis_vector_4'> +6.4584916e-05 </wgt>
<wgt id='morphing_basis_vector_5'> +1.0300535e-04 </wgt>
</rwgt>
</event>
<event>
 4      1 +2.2016400e-08 2.45077800e+03 7.81860800e-03 7.90824700e-02
        2 -1    0    0  501    0 +0.0000000000e+00 +0.0000000000e+00 +1.3984823504e+03 1.3984823504e+03 0.0000000000e+00 0.0000e+00 1.0000e+00
       -2 -1    0    0    0  501 -0.0000000000e+00 -0.0000000000e+00 -1.0737200072e+03 1.0737200072e+03 0.0000000000e+00 0.0000e+00 -1.0000e+00
      -13  1    1    2    0    0 +7.4199136356e+02 -1.0416015621e+02 -8.1572282937e+02 1.1076119610e+03 0.0000000000e+00 0.0000e+00 -1.0000e+00
       13  1    1    2    0    0 -7.4199136356e+02 +1.0416015621e+02 +1.1404851726e+03 1.3645903966e+03 0.0000000000e+00 0.0000e+00 1.0000e+00
<mgrwt>
<rscale>  0 0.24507782E+04</rscale>
<asrwt>0</asrwt>
<pdfrwt beam="1">  1        2 0.21515113E+00 0.24507782E+04</pdfrwt>
<pdfrwt beam="2">  1       -2 0.16518769E+00 0.24507782E+04</pdfrwt>
<totfact> 0.35517799E+00</totfact>
</mgrwt>
<rwgt>
<wgt id='morphing_basis_vector_1'> +1.0984861e-04 </wgt>
<wgt id='morphing_basis_vector_2'> +7.3811693e-05 </wgt>
<wgt id='morphing_basis_vector_3'> +1.1872701e-04 </wgt>
<wgt id='morphing_basis_vector_4'> +8.3854291e-05 </wgt>
<wgt id='morphing_basis_vector_5'> +1.3381008e-04 </wgt>
</rwgt>
</event>
<event>
 4      1 +2.2016400e-08 2.28837800e+03 7.81860800e-03 7.96256900e-02
        2 -1    0    0  501    0 +0.0000000000e+00 +0.0000000000e+00 +3.3420247609e+03 3.3420247609e+03 0.0000000000e+00 0.0000e+00 -1.0000e+00
       -2 -1    0    0    0  501 -0.0000000000e+00 -0.0000000000e+00 -3.9172913964e+02 3.9172913964e+02 0.0000000000e+00 0.0000e+00 1.0000e+00
      -13  1    1    2    0    0 -8.2927507466e+02 -5.4539535816e+02 +5.4639393254e+02 1.1330046671e+03 0.0000000000e+00 0.0000e+00 1.0000e+00
       13  1    1    2    0    0 +8.2927507466e+02 +5.4539535816e+02 +2.4039016887e+03 2.6007492334e+03 0.0000000000e+00 0.0000e+00 -1.0000e+00
<mgrwt>
<rscale>  0 0.22883780E+04</rscale>
<asrwt>0</asrwt>
<pdfrwt beam="1">  1        2 0.51415764E+00 0.22883780E+04</pdfrwt>
<pdfrwt beam="2">  1       -2 0.60266024E-01 0.22883780E+04</pdfrwt>
<totfact> 0.29180842E+00</totfact>
</mgrwt>
<rwgt>
<wgt id='morphing_basis_vector_1'> +8.4165988e-05 </wgt>
<wgt id='morphing_basis_vector_2'> +5.7182587e-05 </wgt>
<wgt id='morphing_basis_vector_3'> +9.0776885e-05 </wgt>
<wgt id='morphing_basis_vector_4'> +6.2824065e-05 </wgt>
<wgt id='morphing_basis_vector_5'> +1.0126227e-04 </wgt>
</rwgt>
</event>
<event>
 4      1 +2.2016400e-08 2.30695900e+03 7.81860800e-03 7.95612300e-02
        2 -1    0    0  501    0 +0.0000000000e+00 +0.0000000000e+00 +1.3983927397e+03 1.3983927397e+03 0.0000000000e+00 0.0000e+00 -1.0000e+00
       -2 -1    0    0    0  501 -0.0000000000e+00 -0.0000000000e+00 -9.5145981177e+02 9.5145981177e+02 0.0000000000e+00 0.0000e+00 1.0000e+00
      -13  1    1    2    0    0 +9.1768721124e+02 -9.4204384912e+01 +9.2879374710e+02 1.3090768153e+03 0.0000000000e+00 0.0000e+00 1.0000e+00
       13  1    1    2    0    0 -9.1768721124e+02 +9.4204384912e+01 -4.8186081919e+02 1.0407757361e+03 0.0000000000e+00 0.0000e+00 -1.0000e+00
<mgrwt>
<rscale>  0 0.23069586E+04</rscale>
<asrwt>0</asrwt>
<pdfrwt beam="1">  1        2 0.21513734E+00 0.23069586E+04</pdfrwt>
<pdfrwt beam="2">  1       -2 0.14637843E+00 0.23069586E+04</pdfrwt>
<totfact> 0.51126583E+00</totfact>
</mgrwt>
<rwgt>
<wgt id='morphing_basis_vector_1'> +1.0692451e-04 </wgt>
<wgt id='morphing_basis_vector_2'> +1.1823086e-04 </wgt>
<wgt id='morphing_basis_vector_3'> +1.2389453e-04 </wgt>
<wgt id='morphing_basis_vector_4'> +2.4238085e-05 </wgt>
<wgt id='morphing_basis_vector_5'> +1.0137253e-04 </wgt>
</rwgt>
</event>
<event>
 4      1 +2.2016400e-08 2.34180900e+03 7.81860800e-03 7.94419800e-02
        2 -1    0    0  501    0 +0.0000000000e+00 +0.0000000000e+00 +3.6948894058e+03 3.6948894058e+03 0.0000000000e+00 0.0000e+00 -1.0000e+00
       -2 -1    0    0    0  501 -0.0000000000e+00 -0.0000000000e+00 -3.7105789304e+02 3.7105789304e+02 0.0000000000e+00 0.0000e+00 1.0000e+00
      -13  1    1    2    0    0 -5.9741084897e+02 +9.8130374547e+02 +1.2691983153e+03 1.7119349073e+03 0.0000000000e+00 0.0000e+00 1.0000e+00
       13  1    1    2    0    0 +5.9741084897e+02 -9.8130374547e+02 +2.0546331974e+03 2.3540123915e+03 0.0000000000e+00 0.0000e+00 -1.0000e+00
<mgrwt>
<rscale>  0 0.23418095E+04</rscale>
<asrwt>0</asrwt>
<pdfrwt beam="1">  1        2 0.56844450E+00 0.23418095E+04</pdfrwt>
<pdfrwt beam="2">  1       -2 0.57085832E-01 0.23418095E+04</pdfrwt>
<totfact> 0.17868255E+00</totfact>
</mgrwt>
<rwgt>
<wgt id='morphing_basis_vector_1'> +9.3387162e-05 </wgt>
<wgt id='morphing_basis_vector_2'> +6.6248564e-05 </wgt>
<wgt id='morphing_basis_vector_3'> +1.0137267e-04 </wgt>
<wgt id='morphing_basis_vector_4'> +6.6531596e-05 </wgt>
<wgt id='morphing_basis_vector_5'> +1.1101148e-04 </wgt>
</rwgt>
</event>
<event>
 4      1 +2.2016400e-08 2.39889000e+03 7.81860800e-03 7.92512100e-02
        2 -1    0    0  501    0 +0.0000000000e+00 +0.0000000000e+00 +2.8118475918e+03 2.8118475918e+03 0.0000000000e+00 0.0000e+00 -1.0000e+00
       -2 -1    0    0    0  501 -0.0000000000e+00 -0.0000000000e+00 -5.1164506609e+02 5.1164506609e+02 0.0000000000e+00 0.0000e+00 1.0000e+00
      -13  1    1    2    0    0 -6.7889535656e+01 -7.5424077293e+02 -1.3855661571e+02 7.6986107082e+02 0.0000000000e+00 0.0000e+00 1.0000e+00
       13  1    1    2    0    0 +6.7889535656e+01 +7.5424077293e+02 +2.4387591414e+03 2.5536315871e+03 0.0000000000e+00 0.0000e+00 -1.0000e+00
<mgrwt>
<rscale>  0 0.23988897E+04</rscale>
<asrwt>0</asrwt>
<pdfrwt beam="1">  1        2 0.43259193E+00 0.23988897E+04</pdfrwt>
<pdfrwt beam="2">  1       -2 0.78714627E-01 0.23988897E+04</pdfrwt>
<totfact> 0.36579825E+00</totfact>
</mgrwt>
<rwgt>
<wgt id='morphing_basis_vector_1'> +1.0096625e-04 </wgt>
<wgt id='morphing_basis_vector_2'> +6.7818584e-05 </wgt>
<wgt id='morphing_basis_vector_3'> +1.0901182e-04 </wgt>
<wgt id='morphing_basis_vector_4'> +7.6867860e-05 </wgt>
<wgt id='morphing_basis_vector_5'> +1.2268785e-04 </wgt>
</rwgt>
</event>
<event>
 4      1 +2.2016400e-08 2.36048100e+03 7.81860800e-03 7.93789700e-02
        2 -1    0    0  501    0 +0.0000000000e+00 +0.0000000000e+00 +2.8189935314e+03 2.8189935314e+03 0.0000000000e+00 0.0000e+00 1.0000e+00
       -2 -1    0    0    0  501 -0.0000000000e+00 -0.0000000000e+00 -4.9413670589e+02 4.9413670589e+02 0.0000000000e+00 0.0000e+00 -1.0000e+00
      -13  1    1    2    0    0 -1.8206581145e+02 +8.4765996809e+02 +3.8428970698e+01 8.6784340003e+02 0.0000000000e+00 0.0000e+00 -1.0000e+00
       13  1    1    2    0    0 +1.8206581145e+02 -8.4765996809e+02 +2.2864278548e+03 2.4452868373e+03 0.0000000000e+00 0.0000e+00 1.0000e+00
<mgrwt>
<rscale>  0 0.23604815E+04</rscale>
<asrwt>0</asrwt>
<pdfrwt beam="1">  1        2 0.43369130E+00 0.23604815E+04</pdfrwt>
<pdfrwt beam="2">  1       -2 0.76021033E-01 0.23604815E+04</pdfrwt>
<totfact> 0.39271818E+00</totfact>
</mgrwt>
<rwgt>
<wgt id='morphing_basis_vector_1'> +9.4820642e-05 </wgt>
<wgt id='morphing_basis_vector_2'> +6.3836753e-05 </wgt>
<wgt id='morphing_basis_vector_3'> +1.0232319e-04 </wgt>
<wgt id='morphing_basis_vector_4'> +7.1836752e-05 </wgt>
<wgt id='morphing_basis_vector_5'> +1.1489915e-04 </wgt>
</rwgt>
</event>
<event>
 4      1 +2.2016400e-08 2.37286200e+03 7.81860800e-03 7.93375200e-02
        2 -1    0    0  501    0 +0.0000000000e+00 +0.0000000000e+00 +1.3541378280e+03 1.3541378280e+03 0.0000000000e+00 0.0000e+00 -1.0000e+00
       -2 -1    0    0    0  501 -0.0000000000e+00 -0.0000000000e+00 -1.0394942409e+03 1.0394942409e+03 0.0000000000e+00 0.0000e+00 1.0000e+00
      -13  1    1    2    0    0 -2.3362859961e+02 -1.4703956849e+02 -1.0066480459e+03 1.0438118822e+03 0.0000000000e+00 0.0000e+00 1.0000e+00
       13  1    1    2    0    0 +2.3362859961e+02 +1.4703956849e+02 +1.3212916329e+03 1.3498201867e+03 0.0000000000e+00 0.0000e+00 -1.0000e+00
<mgrwt>
<rscale>  0 0.23728620E+04</rscale>
<asrwt>0</asrwt>
<pdfrwt beam="1">  1        2 0.20832890E+00 0.23728620E+04</pdfrwt>
<pdfrwt beam="2">  1       -2 0.15992219E+00 0.23728620E+04</pdfrwt>
<totfact> 0.41713031E+00</totfact>
</mgrwt>
<rwgt>
<wgt id='morphing_basis_vector_1'> +9.6653390e-05 </wgt>
<wgt id='morphing_basis_vector_2'> +6.4756488e-05 </wgt>
<wgt id='morphing_basis_vector_3'> +1.0426842e-04 </wgt>
<wgt id='morphing_basis_vector_4'> +7.3668172e-05 </wgt>
<wgt id='morphing_basis_vector_5'> +1.1738733e-04 </wgt>
</rwgt>
</event>
<event>
 4      1 +2.2016400e-08 2.63691600e+03 7.81860800e-03 7.85105800e-02
        2 -1    0    0  501    0 +0.0000000000e+00 +0.0000000000e+00 +1.4485006681e+03 1.4485006681e+03 0.0000000000e+00 0.0000e+00 -1.0000e+00
       -2 -1    0    0    0  501 -0.0000000000e+00 -0.0000000000e+00 -1.2000898340e+03 1.2000898340e+03 0.0000000000e+00 0.0000e+00 1.0000e+00
      -13  1    1    2    0    0 +1.2110662489e+03 -5.0473328496e+02 -6.3461198333e+00 1.3120508455e+03 0.0000000000e+00 0.0000e+00 1.0000e+00
       13  1    1    2    0    0 -1.2110662489e+03 +5.0473328496e+02 +2.5475695390e+02 1.3365396566e+03 0.0000000000e+00 0.0000e+00 -1.0000e+00
<mgrwt>
<rscale>  0 0.26369156E+04</rscale>
<asrwt>0</asrwt>
<pdfrwt beam="1">  1        2 0.22284626E+00 0.26369156E+04</pdfrwt>
<pdfrwt beam="2">  1       -2 0.18462921E+00 0.26369156E+04</pdfrwt>
<totfact> 0.23211599E+00</totfact>
</mgrwt>
<rwgt>
<wgt id='morphing_basis_vector_1'> +1.5033760e-04 </wgt>
<wgt id='morphing_basis_vector_2'> +1.0956930e-04 </wgt>
<wgt id='morphing_basis_vector_3'> +1.6470834e-04 </wgt>
<wgt id='morphing_basis_vector_4'> +1.0523601e-04 </wgt>
<wgt id='morphing_basis_vector_5'> +1.7936974e-04 </wgt>
</rwgt>
</event>
<event>
 4      1 +2.2016400e-08 2.52497700e+03 7.81860800e-03 7.88484700e-02
        2 -1    0    0  501    0 +0.0000000000e+00 +0.0000000000e+00 +1.0543791049e+03 1.0543791049e+03 0.0000000000e+00 0.0000e+00 -1.0000e+00
       -2 -1    0    0    0  501 -0.0000000000e+00 -0.0000000000e+00 -1.5116740073e+03 1.5116740073e+03 0.0000000000e+00 0.0000e+00 1.0000e+00
      -13  1    1    2    0    0 +1.0828502737e+03 -1.1107800989e+02 -8.7856200794e+02 1.3988474689e+03 0.0000000000e+00 0.0000e+00 1.0000e+00
       13  1    1    2    0    0 -1.0828502737e+03 +1.1107800989e+02 +4.2126710558e+02 1.1672056433e+03 0.0000000000e+00 0.0000e+00 -1.0000e+00
<mgrwt>
<rscale>  0 0.25249772E+04</rscale>
<asrwt>0</asrwt>
<pdfrwt beam="1">  1        2 0.16221217E+00 0.25249772E+04</pdfrwt>
<pdfrwt beam="2">  1       -2 0.23256523E+00 0.25249772E+04</pdfrwt>
<totfact> 0.17869577E+00</totfact>
</mgrwt>
<rwgt>
<wgt id='morphing_basis_vector_1'> +1.2403887e-04 </wgt>
<wgt id='morphing_basis_vector_2'> +8.4482702e-05 </wgt>
<wgt id='morphing_basis_vector_3'> +1.3446618e-04 </wgt>
<wgt id='morphing_basis_vector_4'> +9.3667975e-05 </wgt>
<wgt id='morphing_basis_vector_5'> +1.5092128e-04 </wgt>
</rwgt>
</event>
<event>
 4      1 +2.2016400e-08 2.39279100e+03 7.81860800e-03 7.92713300e-02
        2 -1    0    0  501    0 +0.0000000000e+00 +0.0000000000e+00 +9.7305135591e+02 9.7305135591e+02 0.0000000000e+00 0.0000e+00 -1.0000e+00
       -2 -1    0    0    0  501 -0.0000000000e+00 -0.0000000000e+00 -1.4710038948e+03 1.4710038948e+03 0.0000000000e+00 0.0000e+00 1.0000e+00
      -13  1    1    2    0    0 -1.0756918631e+03 -5.1555168842e+02 -1.5505071832e+02 1.2028912058e+03 0.0000000000e+00 0.0000e+00 1.0000e+00
       13  1    1    2    0    0 +1.0756918631e+03 +5.1555168842e+02 -3.4290182057e+02 1.2411640449e+03 0.0000000000e+00 0.0000e+00 -1.0000e+00
<mgrwt>
<rscale>  0 0.23927911E+04</rscale>
<asrwt>0</asrwt>
<pdfrwt beam="1">  1        2 0.14970021E+00 0.23927911E+04</pdfrwt>
<pdfrwt beam="2">  1       -2 0.22630829E+00 0.23927911E+04</pdfrwt>
<totfact> 0.22459175E+00</totfact>
</mgrwt>
<rwgt>
<wgt id='morphing_basis_vector_1'> +1.0470351e-04 </wgt>
<wgt id='morphing_basis_vector_2'> +8.1146802e-05 </wgt>
<wgt id='morphing_basis_vector_3'> +1.1509663e-04 </wgt>
<wgt id='morphing_basis_vector_4'> +6.6400389e-05 </wgt>
<wgt id='morphing_basis_vector_5'> +1.2064673e-04 </wgt>
</rwgt>
</event>
<event>
 4      1 +2.2016400e-08 2.47421400e+03 7.81860800e-03 7.90076500e-02
        2 -1    0    0  501    0 +0.0000000000e+00 +0.0000000000e+00 +1.2684176465e+03 1.2684176465e+03 0.0000000000e+00 0.0000e+00 1.0000e+00
       -2 -1    0    0    0  501 -0.0000000000e+00 -0.0000000000e+00 -1.2065689370e+03 1.2065689370e+03 0.0000000000e+00 0.0000e+00 -1.0000e+00
      -13  1    1    2    0    0 +8.6707419257e+02 -7.9352901744e+02 -3.5510729434e+02 1.2278465488e+03 0.0000000000e+00 0.0000e+00 -1.0000e+00
       13  1    1    2    0    0 -8.6707419257e+02 +7.9352901744e+02 +4.1695600382e+02 1.2471400347e+03 0.0000000000e+00 0.0000e+00 1.0000e+00
<mgrwt>
<rscale>  0 0.24742137E+04</rscale>
<asrwt>0</asrwt>
<pdfrwt beam="1">  1        2 0.19514118E+00 0.24742137E+04</pdfrwt>
<pdfrwt beam="2">  1       -2 0.18562599E+00 0.24742137E+04</pdfrwt>
<totfact> 0.29280724E+00</totfact>
</mgrwt>
<rwgt>
<wgt id='morphing_basis_vector_1'> +1.1522828e-04 </wgt>
<wgt id='morphing_basis_vector_2'> +8.0128941e-05 </wgt>
<wgt id='morphing_basis_vector_3'> +1.2512014e-04 </wgt>
<wgt id='morphing_basis_vector_4'> +8.4744200e-05 </wgt>
<wgt id='morphing_basis_vector_5'> +1.3887724e-04 </wgt>
</rwgt>
</event>
<event>
 4      1 +2.2016400e-08 2.43519500e+03 7.81860800e-03 7.91326900e-02
        2 -1    0    0  501    0 +0.0000000000e+00 +0.0000000000e+00 +1.6893980440e+03 1.6893980440e+03 0.0000000000e+00 0.0000e+00 1.0000e+00
       -2 -1    0    0    0  501 -0.0000000000e+00 -0.0000000000e+00 -8.7755762233e+02 8.7755762233e+02 0.0000000000e+00 0.0000e+00 -1.0000e+00
      -13  1    1    2    0    0 -6.4470175139e+02 -9.6404496500e+02 +1.5017027523e+01 1.1598485047e+03 0.0000000000e+00 0.0000e+00 -1.0000e+00
       13  1    1    2    0    0 +6.4470175139e+02 +9.6404496500e+02 +7.9682339411e+02 1.4071071616e+03 0.0000000000e+00 0.0000e+00 1.0000e+00
<mgrwt>
<rscale>  0 0.24351954E+04</rscale>
<asrwt>0</asrwt>
<pdfrwt beam="1">  1        2 0.25990739E+00 0.24351954E+04</pdfrwt>
<pdfrwt beam="2">  1       -2 0.13500887E+00 0.24351954E+04</pdfrwt>
<totfact> 0.43503947E+00</totfact>
</mgrwt>
<rwgt>
<wgt id='morphing_basis_vector_1'> +1.0825988e-04 </wgt>
<wgt id='morphing_basis_vector_2'> +7.5331415e-05 </wgt>
<wgt id='morphing_basis_vector_3'> +1.1747325e-04 </wgt>
<wgt id='morphing_basis_vector_4'> +7.9382506e-05 </wgt>
<wgt id='morphing_basis_vector_5'> +1.3020598e-04 </wgt>
</rwgt>
</event>
<event>
 4      1 +2.2016400e-08 2.47430200e+03 7.81860800e-03 7.90073700e-02
        2 -1    0    0  501    0 +0.0000000000e+00 +0.0000000000e+00 +2.1152969213e+03 2.1152969213e+03 0.0000000000e+00 0.0000e+00 -1.0000e+00
       -2 -1    0    0    0  501 -0.0000000000e+00 -0.0000000000e+00 -7.2355944835e+02 7.2355944835e+02 0.0000000000e+00 0.0000e+00 1.0000e+00
      -13  1    1    2    0    0 -4.1686461448e+02 -4.7247723994e+02 -5.2567095155e+02 8.2057345702e+02 0.0000000000e+00 0.0000e+00 1.0000e+00
       13  1    1    2    0    0 +4.1686461448e+02 +4.7247723994e+02 +1.9174084245e+03 2.0182829126e+03 0.0000000000e+00 0.0000e+00 -1.0000e+00
<mgrwt>
<rscale>  0 0.24743024E+04</rscale>
<asrwt>0</asrwt>
<pdfrwt beam="1">  1        2 0.32543029E+00 0.24743024E+04</pdfrwt>
<pdfrwt beam="2">  1       -2 0.11131684E+00 0.24743024E+04</pdfrwt>
<totfact> 0.41468111E+00</totfact>
</mgrwt>
<rwgt>
<wgt id='morphing_basis_vector_1'> +1.1403197e-04 </wgt>
<wgt id='morphing_basis_vector_2'> +7.6561785e-05 </wgt>
<wgt id='morphing_basis_vector_3'> +1.2329057e-04 </wgt>
<wgt id='morphing_basis_vector_4'> +8.7238645e-05 </wgt>
<wgt id='morphing_basis_vector_5'> +1.3909838e-04 </wgt>
</rwgt>
</event>
<event>
 4      1 +2.2016400e-08 2.26180000e+03 7.81860800e-03 7.97190100e-02
        2 -1    0    0  501    0 +0.0000000000e+00 +0.0000000000e+00 +2.0702846009e+03 2.0702846009e+03 0.0000000000e+00 0.0000e+00 1.0000e+00
       -2 -1    0    0    0  501 -0.0000000000e+00 -0.0000000000e+00 -6.1775805848e+02 6.1775805848e+02 0.0000000000e+00 0.0000e+00 -1.0000e+00
      -13  1    1    2    0    0 +4.5973596591e+02 +2.8917216299e+02 -4.5261795329e+02 7.0699413707e+02 0.0000000000e+00 0.0000e+00 -1.0000e+00
       13  1    1    2    0    0 -4.5973596591e+02 -2.8917216299e+02 +1.9051444957e+03 1.9810485223e+03 0.0000000000e+00 0.0000e+00 1.0000e+00
<mgrwt>
<rscale>  0 0.22618002E+04</rscale>
<asrwt>0</asrwt>
<pdfrwt beam="1">  1        2 0.31850532E+00 0.22618002E+04</pdfrwt>
<pdfrwt beam="2">  1       -2 0.95039702E-01 0.22618002E+04</pdfrwt>
<totfact> 0.65890698E+00</totfact>
</mgrwt>
<rwgt>
<wgt id='morphing_basis_vector_1'> +8.0034404e-05 </wgt>
<wgt id='morphing_basis_vector_2'> +5.3561043e-05 </wgt>
<wgt id='morphing_basis_vector_3'> +8.6115437e-05 </wgt>
<wgt id='morphing_basis_vector_4'> +6.0618591e-05 </wgt>
<wgt id='morphing_basis_vector_5'> +9.6625844e-05 </wgt>
</rwgt>
</event>
<event>
 4      1 +2.2016400e-08 2.26674300e+03 7.81860800e-03 7.97015500e-02
        2 -1    0    0  501    0 +0.0000000000e+00 +0.0000000000e+00 +2.4567417405e+03 2.4567417405e+03 0.0000000000e+00 0.0000e+00 1.0000e+00
       -2 -1    0    0    0  501 -0.0000000000e+00 -0.0000000000e+00 -5.2285965167e+02 5.2285965167e+02 0.0000000000e+00 0.0000e+00 -1.0000e+00
      -13  1    1    2    0    0 -4.2361739576e+02 +1.1483091582e+02 -4.0661364251e+02 5.9830802392e+02 0.0000000000e+00 0.0000e+00 -1.0000e+00
       13  1    1    2    0    0 +4.2361739576e+02 -1.1483091582e+02 +2.3404957313e+03 2.3812933682e+03 0.0000000000e+00 0.0000e+00 1.0000e+00
<mgrwt>
<rscale>  0 0.22667432E+04</rscale>
<asrwt>0</asrwt>
<pdfrwt beam="1">  1        2 0.37796026E+00 0.22667432E+04</pdfrwt>
<pdfrwt beam="2">  1       -2 0.80439948E-01 0.22667432E+04</pdfrwt>
<totfact> 0.57993040E+00</totfact>
</mgrwt>
<rwgt>
<wgt id='morphing_basis_vector_1'> +8.0716535e-05 </wgt>
<wgt id='morphing_basis_vector_2'> +5.4002160e-05 </wgt>
<wgt id='morphing_basis_vector_3'> +8.6856785e-05 </wgt>
<wgt id='morphing_basis_vector_4'> +6.1175862e-05 </wgt>
<wgt id='morphing_basis_vector_5'> +9.7488023e-05 </wgt>
</rwgt>
</event>
<event>
 4      1 +2.2016400e-08 2.54680300e+03 7.81860800e-03 7.87812000e-02
        2 -1    0    0  501    0 +0.0000000000e+00 +0.0000000000e+00 +1.4558514210e+03 1.4558514210e+03 0.0000000000e+00 0.0000e+00 -1.0000e+00
       -2 -1    0    0    0  501 -0.0000000000e+00 -0.0000000000e+00 -1.1138165726e+03 1.1138165726e+03 0.0000000000e+00 0.0000e+00 1.0000e+00
      -13  1    1    2    0    0 +6.0595985672e+02 +9.3857426607e+02 -4.4556833494e+02 1.2027635437e+03 0.0000000000e+00 0.0000e+00 1.0000e+00
       13  1    1    2    0    0 -6.0595985672e+02 -9.3857426607e+02 +7.8760318338e+02 1.3669044500e+03 0.0000000000e+00 0.0000e+00 -1.0000e+00
<mgrwt>
<rscale>  0 0.25468030E+04</rscale>
<asrwt>0</asrwt>
<pdfrwt beam="1">  1        2 0.22397714E+00 0.25468030E+04</pdfrwt>
<pdfrwt beam="2">  1       -2 0.17135639E+00 0.25468030E+04</pdfrwt>
<totfact> 0.29262601E+00</totfact>
</mgrwt>
<rwgt>
<wgt id='morphing_basis_vector_1'> +1.2840999e-04 </wgt>
<wgt id='morphing_basis_vector_2'> +8.7668754e-05 </wgt>
<wgt id='morphing_basis_vector_3'> +1.3929837e-04 </wgt>
<wgt id='morphing_basis_vector_4'> +9.6820067e-05 </wgt>
<wgt id='morphing_basis_vector_5'> +1.5626070e-04 </wgt>
</rwgt>
</event>
<event>
 4      1 +2.2016400e-08 2.36692100e+03 7.81860800e-03 7.93573700e-02
        2 -1    0    0  501    0 +0.0000000000e+00 +0.0000000000e+00 +2.4366487629e+03 2.4366487629e+03 0.0000000000e+00 0.0000e+00 -1.0000e+00
       -2 -1    0    0    0  501 -0.0000000000e+00 -0.0000000000e+00 -5.7479732453e+02 5.7479732453e+02 0.0000000000e+00 0.0000e+00 1.0000e+00
      -13  1    1    2    0    0 +9.1460535290e+02 -4.4101648596e+02 +1.5745139335e+02 1.0275161477e+03 0.0000000000e+00 0.0000e+00 1.0000e+00
       13  1    1    2    0    0 -9.1460535290e+02 +4.4101648596e+02 +1.7044000450e+03 1.9839299397e+03 0.0000000000e+00 0.0000e+00 -1.0000e+00
<mgrwt>
<rscale>  0 0.23669214E+04</rscale>
<asrwt>0</asrwt>
<pdfrwt beam="1">  1        2 0.37486903E+00 0.23669214E+04</pdfrwt>
<pdfrwt beam="2">  1       -2 0.88430359E-01 0.23669214E+04</pdfrwt>
<totfact> 0.47514244E+00</totfact>
</mgrwt>
<rwgt>
<wgt id='morphing_basis_vector_1'> +9.6099519e-05 </wgt>
<wgt id='morphing_basis_vector_2'> +6.5285147e-05 </wgt>
<wgt id='morphing_basis_vector_3'> +1.0382874e-04 </wgt>
<wgt id='morphing_basis_vector_4'> +7.2115417e-05 </wgt>
<wgt id='morphing_basis_vector_5'> +1.1613446e-04 </wgt>
</rwgt>
</event>
<event>
 4      1 +2.2016400e-08 2.37448700e+03 7.81860800e-03 7.93320900e-02
        2 -1    0    0  501    0 +0.0000000000e+00 +0.0000000000e+00 +1.0738312167e+03 1.0738312167e+03 0.0000000000e+00 0.0000e+00 1.0000e+00
       -2 -1    0    0    0  501 -0.0000000000e+00 -0.0000000000e+00 -1.3126337100e+03 1.3126337100e+03 0.0000000000e+00 0.0000e+00 -1.0000e+00
      -13  1    1    2    0    0 +4.4407054523e+02 +3.2181817795e+02 -1.1776999159e+03 1.2991315102e+03 0.0000000000e+00 0.0000e+00 -1.0000e+00
       13  1    1    2    0    0 -4.4407054523e+02 -3.2181817795e+02 +9.3889742257e+02 1.0873334166e+03 0.0000000000e+00 0.0000e+00 1.0000e+00
<mgrwt>
<rscale>  0 0.23744869E+04</rscale>
<asrwt>0</asrwt>
<pdfrwt beam="1">  1        2 0.16520480E+00 0.23744869E+04</pdfrwt>
<pdfrwt beam="2">  1       -2 0.20194365E+00 0.23744869E+04</pdfrwt>
<totfact> 0.29128379E+00</totfact>
</mgrwt>
<rwgt>
<wgt id='morphing_basis_vector_1'> +9.6927983e-05 </wgt>
<wgt id='morphing_basis_vector_2'> +6.4972536e-05 </wgt>
<wgt id='morphing_basis_vector_3'> +1.0457426e-04 </wgt>
<wgt id='morphing_basis_vector_4'> +7.3845688e-05 </wgt>
<wgt id='morphing_basis_vector_5'> +1.1771160e-04 </wgt>
</rwgt>
</event>
<event>
 4      1 +2.2016400e-08 2.51758300e+03 7.81860800e-03 7.88714200e-02
        2 -1    0    0  501    0 +0.0000000000e+00 +0.0000000000e+00 +1.7750353804e+03 1.7750353804e+03 0.0000000000e+00 0.0000e+00 -1.0000e+00
       -2 -1    0    0    0  501 -0.0000000000e+00 -0.0000000000e+00 -8.9268974405e+02 8.9268974405e+02 0.0000000000e+00 0.0000e+00 1.0000e+00
      -13  1    1    2    0    0 -7.1807648952e+02 +5.7473457688e+02 -4.6950047904e+02 1.0326588878e+03 0.0000000000e+00 0.0000e+00 1.0000e+00
       13  1    1    2    0    0 +7.1807648952e+02 -5.7473457688e+02 +1.3518461153e+03 1.6350662366e+03 0.0000000000e+00 0.0000e+00 -1.0000e+00
<mgrwt>
<rscale>  0 0.25175829E+04</rscale>
<asrwt>0</asrwt>
<pdfrwt beam="1">  1        2 0.27308237E+00 0.25175829E+04</pdfrwt>
<pdfrwt beam="2">  1       -2 0.13733688E+00 0.25175829E+04</pdfrwt>
<totfact> 0.36929346E+00</totfact>
</mgrwt>
<rwgt>
<wgt id='morphing_basis_vector_1'> +1.2225973e-04 </wgt>
<wgt id='morphing_basis_vector_2'> +8.2467290e-05 </wgt>
<wgt id='morphing_basis_vector_3'> +1.3236300e-04 </wgt>
<wgt id='morphing_basis_vector_4'> +9.3281945e-05 </wgt>
<wgt id='morphing_basis_vector_5'> +1.4919750e-04 </wgt>
</rwgt>
</event>
<event>
 4      1 +2.2016400e-08 2.29447700e+03 7.81860800e-03 7.96044600e-02
        2 -1    0    0  501    0 +0.0000000000e+00 +0.0000000000e+00 +1.6244340451e+03 1.6244340451e+03 0.0000000000e+00 0.0000e+00 -1.0000e+00
       -2 -1    0    0    0  501 -0.0000000000e+00 -0.0000000000e+00 -8.1022431781e+02 8.1022431781e+02 0.0000000000e+00 0.0000e+00 1.0000e+00
      -13  1    1    2    0    0 -9.0678757585e+02 -3.5070663068e+02 -2.3911616106e+02 1.0012169530e+03 0.0000000000e+00 0.0000e+00 1.0000e+00
       13  1    1    2    0    0 +9.0678757585e+02 +3.5070663068e+02 +1.0533258883e+03 1.4334414099e+03 0.0000000000e+00 0.0000e+00 -1.0000e+00
<mgrwt>
<rscale>  0 0.22944768E+04</rscale>
<asrwt>0</asrwt>
<pdfrwt beam="1">  1        2 0.24991293E+00 0.22944768E+04</pdfrwt>
<pdfrwt beam="2">  1       -2 0.12464990E+00 0.22944768E+04</pdfrwt>
<totfact> 0.59241072E+00</totfact>
</mgrwt>
<rwgt>
<wgt id='morphing_basis_vector_1'> +8.4989948e-05 </wgt>
<wgt id='morphing_basis_vector_2'> +5.7604778e-05 </wgt>
<wgt id='morphing_basis_vector_3'> +9.1653006e-05 </wgt>
<wgt id='morphing_basis_vector_4'> +6.3634100e-05 </wgt>
<wgt id='morphing_basis_vector_5'> +1.0237299e-04 </wgt>
</rwgt>
</event>
<event>
 4      1 +2.2016400e-08 2.64842800e+03 7.81860800e-03 7.84768000e-02
        2 -1    0    0  501    0 +0.0000000000e+00 +0.0000000000e+00 +1.8891043089e+03 1.8891043089e+03 0.0000000000e+00 0.0000e+00 -1.0000e+00
       -2 -1    0    0    0  501 -0.0000000000e+00 -0.0000000000e+00 -9.2824021555e+02 9.2824021555e+02 0.0000000000e+00 0.0000e+00 1.0000e+00
      -13  1    1    2    0    0 -1.1242215637e+03 -6.7357851915e+02 +2.7870490565e+02 1.3398725948e+03 0.0000000000e+00 0.0000e+00 1.0000e+00
       13  1    1    2    0    0 +1.1242215637e+03 +6.7357851915e+02 +6.8215918774e+02 1.4774719297e+03 0.0000000000e+00 0.0000e+00 -1.0000e+00
<mgrwt>
<rscale>  0 0.26484279E+04</rscale>
<asrwt>0</asrwt>
<pdfrwt beam="1">  1        2 0.29063143E+00 0.26484279E+04</pdfrwt>
<pdfrwt beam="2">  1       -2 0.14280619E+00 0.26484279E+04</pdfrwt>
<totfact> 0.28309563E+00</totfact>
</mgrwt>
<rwgt>
<wgt id='morphing_basis_vector_1'> +1.5235509e-04 </wgt>
<wgt id='morphing_basis_vector_2'> +1.0973249e-04 </wgt>
<wgt id='morphing_basis_vector_3'> +1.6668881e-04 </wgt>
<wgt id='morphing_basis_vector_4'> +1.0833080e-04 </wgt>
<wgt id='morphing_basis_vector_5'> +1.8265861e-04 </wgt>
</rwgt>
</event>
<event>
 4      1 +2.2016400e-08 2.31272500e+03 7.81860800e-03 7.95413500e-02
        2 -1    0    0  501    0 +0.0000000000e+00 +0.0000000000e+00 +2.2146532804e+03 2.2146532804e+03 0.0000000000e+00 0.0000e+00 1.0000e+00
       -2 -1    0    0    0  501 -0.0000000000e+00 -0.0000000000e+00 -6.0378472732e+02 6.0378472732e+02 0.0000000000e+00 0.0000e+00 -1.0000e+00
      -13  1    1    2    0    0 -4.9279047858e+02 +7.5896580487e+02 -7.1922260716e+01 9.0776889148e+02 0.0000000000e+00 0.0000e+00 -1.0000e+00
       13  1    1    2    0    0 +4.9279047858e+02 -7.5896580487e+02 +1.6827908138e+03 1.9106691162e+03 0.0000000000e+00 0.0000e+00 1.0000e+00
<mgrwt>
<rscale>  0 0.23127247E+04</rscale>
<asrwt>0</asrwt>
<pdfrwt beam="1">  1        2 0.34071588E+00 0.23127247E+04</pdfrwt>
<pdfrwt beam="2">  1       -2 0.92889959E-01 0.23127247E+04</pdfrwt>
<totfact> 0.57290266E+00</totfact>
</mgrwt>
<rwgt>
<wgt id='morphing_basis_vector_1'> +8.7544410e-05 </wgt>
<wgt id='morphing_basis_vector_2'> +5.9036037e-05 </wgt>
<wgt id='morphing_basis_vector_3'> +9.4391125e-05 </wgt>
<wgt id='morphing_basis_vector_4'> +6.5995794e-05 </wgt>
<wgt id='morphing_basis_vector_5'> +1.0574202e-04 </wgt>
</rwgt>
</event>
<event>
 4      1 +2.2016400e-08 2.56212100e+03 7.81860800e-03 7.87344000e-02
        2 -1    0    0  501    0 +0.0000000000e+00 +0.0000000000e+00 +4.0331984237e+03 4.0331984237e+03 0.0000000000e+00 0.0000e+00 -1.0000e+00
       -2 -1    0    0    0  501 -0.0000000000e+00 -0.0000000000e+00 -4.0690182053e+02 4.0690182053e+02 0.0000000000e+00 0.0000e+00 1.0000e+00
      -13  1    1    2    0    0 +8.1623851306e+02 +5.0097605512e+02 +3.3869678595e+02 1.0158434086e+03 0.0000000000e+00 0.0000e+00 1.0000e+00
       13  1    1    2    0    0 -8.1623851306e+02 -5.0097605512e+02 +3.2875998172e+03 3.4242568356e+03 0.0000000000e+00 0.0000e+00 -1.0000e+00
<mgrwt>
<rscale>  0 0.25621208E+04</rscale>
<asrwt>0</asrwt>
<pdfrwt beam="1">  1        2 0.62049204E+00 0.25621208E+04</pdfrwt>
<pdfrwt beam="2">  1       -2 0.62600283E-01 0.25621208E+04</pdfrwt>
<totfact> 0.76957942E-01</totfact>
</mgrwt>
<rwgt>
<wgt id='morphing_basis_vector_1'> +1.3105484e-04 </wgt>
<wgt id='morphing_basis_vector_2'> +8.8508055e-05 </wgt>
<wgt id='morphing_basis_vector_3'> +1.4201377e-04 </wgt>
<wgt id='morphing_basis_vector_4'> +1.0008845e-04 </wgt>
<wgt id='morphing_basis_vector_5'> +1.6017336e-04 </wgt>
</rwgt>
</event>
<event>
 4      1 +2.2016400e-08 2.43830200e+03 7.81860800e-03 7.91226500e-02
        2 -1    0    0  501    0 +0.0000000000e+00 +0.0000000000e+00 +1.2569905278e+03 1.2569905278e+03 0.0000000000e+00 0.0000e+00 -1.0000e+00
       -2 -1    0    0    0  501 -0.0000000000e+00 -0.0000000000e+00 -1.1824509542e+03 1.1824509542e+03 0.0000000000e+00 0.0000e+00 1.0000e+00
      -13  1    1    2    0    0 -6.8619228629e+02 +9.5198668512e+02 +3.6786499293e+02 1.2298224081e+03 0.0000000000e+00 0.0000e+00 1.0000e+00
       13  1    1    2    0    0 +6.8619228629e+02 -9.5198668512e+02 -2.9332541926e+02 1.2096190739e+03 0.0000000000e+00 0.0000e+00 -1.0000e+00
<mgrwt>
<rscale>  0 0.24383024E+04</rscale>
<asrwt>0</asrwt>
<pdfrwt beam="1">  1        2 0.19338316E+00 0.24383024E+04</pdfrwt>
<pdfrwt beam="2">  1       -2 0.18191553E+00 0.24383024E+04</pdfrwt>
<totfact> 0.31800664E+00</totfact>
</mgrwt>
<rwgt>
<wgt id='morphing_basis_vector_1'> +1.1757720e-04 </wgt>
<wgt id='morphing_basis_vector_2'> +1.0160462e-04 </wgt>
<wgt id='morphing_basis_vector_3'> +1.3140370e-04 </wgt>
<wgt id='morphing_basis_vector_4'> +6.1867730e-05 </wgt>
<wgt id='morphing_basis_vector_5'> +1.2943146e-04 </wgt>
</rwgt>
</event>
<event>
 4      1 +2.2016400e-08 2.52627600e+03 7.81860800e-03 7.88444500e-02
        2 -1    0    0  501    0 +0.0000000000e+00 +0.0000000000e+00 +1.0340097713e+03 1.0340097713e+03 0.0000000000e+00 0.0000e+00 -1.0000e+00
       -2 -1    0    0    0  501 -0.0000000000e+00 -0.0000000000e+00 -1.5430394111e+03 1.5430394111e+03 0.0000000000e+00 0.0000e+00 1.0000e+00
      -13  1    1    2    0    0 -1.1813658909e+03 -6.9141159076e+01 -7.0510718336e+02 1.3775274981e+03 0.0000000000e+00 0.0000e+00 1.0000e+00
       13  1    1    2    0    0 +1.1813658909e+03 +6.9141159076e+01 +1.9607754357e+02 1.1995216843e+03 0.0000000000e+00 0.0000e+00 -1.0000e+00
<mgrwt>
<rscale>  0 0.25262762E+04</rscale>
<asrwt>0</asrwt>
<pdfrwt beam="1">  1        2 0.15907843E+00 0.25262762E+04</pdfrwt>
<pdfrwt beam="2">  1       -2 0.23739068E+00 0.25262762E+04</pdfrwt>
<totfact> 0.17014124E+00</totfact>
</mgrwt>
<rwgt>
<wgt id='morphing_basis_vector_1'> +1.2489724e-04 </wgt>
<wgt id='morphing_basis_vector_2'> +8.6444245e-05 </wgt>
<wgt id='morphing_basis_vector_3'> +1.3566965e-04 </wgt>
<wgt id='morphing_basis_vector_4'> +9.2619686e-05 </wgt>
<wgt id='morphing_basis_vector_5'> +1.5113510e-04 </wgt>
</rwgt>
</event>
<event>
 4      1 +2.2016400e-08 2.51618200e+03 7.81860800e-03 7.88757700e-02
        2 -1    0    0  501    0 +0.0000000000e+00 +0.0000000000e+00 +2.4335229877e+03 2.4335229877e+03 0.0000000000e+00 0.0000e+00 1.0000e+00
       -2 -1    0    0    0  501 -0.0000000000e+00 -0.0000000000e+00 -6.5041224128e+02 6.5041224128e+02 0.0000000000e+00 0.0000e+00 -1.0000e+00
      -13  1    1    2    0    0 +5.9037562329e+02 +7.4608242209e+02 -1.1735671857e+02 9.5862138330e+02 0.0000000000e+00 0.0000e+00 -1.0000e+00
       13  1    1    2    0    0 -5.9037562329e+02 -7.4608242209e+02 +1.9004674649e+03 2.1253138456e+03 0.0000000000e+00 0.0000e+00 1.0000e+00
<mgrwt>
<rscale>  0 0.25161821E+04</rscale>
<asrwt>0</asrwt>
<pdfrwt beam="1">  1        2 0.37438815E+00 0.25161821E+04</pdfrwt>
<pdfrwt beam="2">  1       -2 0.10006342E+00 0.25161821E+04</pdfrwt>
<totfact> 0.35176275E+00</totfact>
</mgrwt>
<rwgt>
<wgt id='morphing_basis_vector_1'> +1.2203127e-04 </wgt>
<wgt id='morphing_basis_vector_2'> +8.2402643e-05 </wgt>
<wgt id='morphing_basis_vector_3'> +1.3212993e-04 </wgt>
<wgt id='morphing_basis_vector_4'> +9.2990135e-05 </wgt>
<wgt id='morphing_basis_vector_5'> +1.4885491e-04 </wgt>
</rwgt>
</event>
<event>
 4      1 +2.2016400e-08 2.42428500e+03 7.81860800e-03 7.91680900e-02
        2 -1    0    0  501    0 +0.0000000000e+00 +0.0000000000e+00 +1.4487985815e+03 1.4487985815e+03 0.0000000000e+00 0.0000e+00 -1.0000e+00
       -2 -1    0    0    0  501 -0.0000000000e+00 -0.0000000000e+00 -1.0141432285e+03 1.0141432285e+03 0.0000000000e+00 0.0000e+00 1.0000e+00
      -13  1    1    2    0    0 -3.1254407608e+02 +3.9736920336e+01 -9.7181777105e+02 1.0216127458e+03 0.0000000000e+00 0.0000e+00 1.0000e+00
       13  1    1    2    0    0 +3.1254407608e+02 -3.9736920336e+01 +1.4064731241e+03 1.4413290641e+03 0.0000000000e+00 0.0000e+00 -1.0000e+00
<mgrwt>
<rscale>  0 0.24242849E+04</rscale>
<asrwt>0</asrwt>
<pdfrwt beam="1">  1        2 0.22289209E+00 0.24242849E+04</pdfrwt>
<pdfrwt beam="2">  1       -2 0.15602203E+00 0.24242849E+04</pdfrwt>
<totfact> 0.39479938E+00</totfact>
</mgrwt>
<rwgt>
<wgt id='morphing_basis_vector_1'> +1.0518104e-04 </wgt>
<wgt id='morphing_basis_vector_2'> +7.0521329e-05 </wgt>
<wgt id='morphing_basis_vector_3'> +1.1359490e-04 </wgt>
<wgt id='morphing_basis_vector_4'> +8.0356881e-05 </wgt>
<wgt id='morphing_basis_vector_5'> +1.2805147e-04 </wgt>
</rwgt>
</event>
<event>
 4      1 +2.2016400e-08 2.64821100e+03 7.81860800e-03 7.84774400e-02
        2 -1    0    0  501    0 +0.0000000000e+00 +0.0000000000e+00 +1.3147077345e+03 1.3147077345e+03 0.0000000000e+00 0.0000e+00 1.0000e+00
       -2 -1    0    0    0  501 -0.0000000000e+00 -0.0000000000e+00 -1.3335706335e+03 1.3335706335e+03 0.0000000000e+00 0.0000e+00 -1.0000e+00
      -13  1    1    2    0    0 +1.0505368293e+03 +6.3819595729e+02 -5.0171816641e+02 1.3276455958e+03 0.0000000000e+00 0.0000e+00 -1.0000e+00
       13  1    1    2    0    0 -1.0505368293e+03 -6.3819595729e+02 +4.8285526746e+02 1.3206327722e+03 0.0000000000e+00 0.0000e+00 1.0000e+00
<mgrwt>
<rscale>  0 0.26482112E+04</rscale>
<asrwt>0</asrwt>
<pdfrwt beam="1">  1        2 0.20226273E+00 0.26482112E+04</pdfrwt>
<pdfrwt beam="2">  1       -2 0.20516471E+00 0.26482112E+04</pdfrwt>
<totfact> 0.19479985E+00</totfact>
</mgrwt>
<rwgt>
<wgt id='morphing_basis_vector_1'> +1.5033842e-04 </wgt>
<wgt id='morphing_basis_vector_2'> +1.0389538e-04 </wgt>
<wgt id='morphing_basis_vector_3'> +1.6360439e-04 </wgt>
<wgt id='morphing_basis_vector_4'> +1.1234944e-04 </wgt>
<wgt id='morphing_basis_vector_5'> +1.8292839e-04 </wgt>
</rwgt>
</event>
<event>
 4      1 +2.2016400e-08 2.53450000e+03 7.81860800e-03 7.88190300e-02
        2 -1    0    0  501    0 +0.0000000000e+00 +0.0000000000e+00 +1.9579685717e+03 1.9579685717e+03 0.0000000000e+00 0.0000e+00 -1.0000e+00
       -2 -1    0    0    0  501 -0.0000000000e+00 -0.0000000000e+00 -8.2019845820e+02 8.2019845820e+02 0.0000000000e+00 0.0000e+00 1.0000e+00
      -13  1    1    2    0    0 -8.8576390700e+02 -6.4068820952e+02 -1.3372590861e+02 1.1013363244e+03 0.0000000000e+00 0.0000e+00 1.0000e+00
       13  1    1    2    0    0 +8.8576390700e+02 +6.4068820952e+02 +1.2714960221e+03 1.6768307056e+03 0.0000000000e+00 0.0000e+00 -1.0000e+00
<mgrwt>
<rscale>  0 0.25345002E+04</rscale>
<asrwt>0</asrwt>
<pdfrwt beam="1">  1        2 0.30122593E+00 0.25345002E+04</pdfrwt>
<pdfrwt beam="2">  1       -2 0.12618438E+00 0.25345002E+04</pdfrwt>
<totfact> 0.36611681E+00</totfact>
</mgrwt>
<rwgt>
<wgt id='morphing_basis_vector_1'> +1.2589877e-04 </wgt>
<wgt id='morphing_basis_vector_2'> +8.5763821e-05 </wgt>
<wgt id='morphing_basis_vector_3'> +1.3650788e-04 </wgt>
<wgt id='morphing_basis_vector_4'> +9.5102045e-05 </wgt>
<wgt id='morphing_basis_vector_5'> +1.5323946e-04 </wgt>
</rwgt>
</event>
<event>
 4      1 +2.2016400e-08 2.53195500e+03 7.81860800e-03 7.88268900e-02
        2 -1    0    0  501    0 +0.0000000000e+00 +0.0000000000e+00 +2.8707442508e+03 2.8707442508e+03 0.0000000000e+00 0.0000e+00 1.0000e+00
       -2 -1    0    0    0  501 -0.0000000000e+00 -0.0000000000e+00 -5.5828708499e+02 5.5828708499e+02 0.0000000000e+00 0.0000e+00 -1.0000e+00
      -13  1    1    2    0    0 -6.4094099337e+02 +9.7225053154e+02 +1.8287903756e+03 2.1680753425e+03 0.0000000000e+00 0.0000e+00 -1.0000e+00
       13  1    1    2    0    0 +6.4094099337e+02 -9.7225053154e+02 +4.8366679027e+02 1.2609559933e+03 0.0000000000e+00 0.0000e+00 1.0000e+00
<mgrwt>
<rscale>  0 0.25319553E+04</rscale>
<asrwt>0</asrwt>
<pdfrwt beam="1">  1        2 0.44165295E+00 0.25319553E+04</pdfrwt>
<pdfrwt beam="2">  1       -2 0.85890322E-01 0.25319553E+04</pdfrwt>
<totfact> 0.27189267E+00</totfact>
</mgrwt>
<rwgt>
<wgt id='morphing_basis_vector_1'> +1.4177690e-04 </wgt>
<wgt id='morphing_basis_vector_2'> +1.3373780e-04 </wgt>
<wgt id='morphing_basis_vector_3'> +1.6100734e-04 </wgt>
<wgt id='morphing_basis_vector_4'> +6.1113513e-05 </wgt>
<wgt id='morphing_basis_vector_5'> +1.4989092e-04 </wgt>
</rwgt>
</event>
<event>
 4      1 +2.2016400e-08 2.31067800e+03 7.81860800e-03 7.95484000e-02
        2 -1    0    0  501    0 +0.0000000000e+00 +0.0000000000e+00 +9.9513924027e+02 9.9513924027e+02 0.0000000000e+00 0.0000e+00 1.0000e+00
       -2 -1    0    0    0  501 -0.0000000000e+00 -0.0000000000e+00 -1.3413280427e+03 1.3413280427e+03 0.0000000000e+00 0.0000e+00 -1.0000e+00
      -13  1    1    2    0    0 +8.7900531643e+02 -6.3058516318e+02 -5.8323226191e+02 1.2290027932e+03 0.0000000000e+00 0.0000e+00 -1.0000e+00
       13  1    1    2    0    0 -8.7900531643e+02 +6.3058516318e+02 +2.3704345953e+02 1.1074644897e+03 0.0000000000e+00 0.0000e+00 1.0000e+00
<mgrwt>
<rscale>  0 0.23106780E+04</rscale>
<asrwt>0</asrwt>
<pdfrwt beam="1">  1        2 0.15309834E+00 0.23106780E+04</pdfrwt>
<pdfrwt beam="2">  1       -2 0.20635816E+00 0.23106780E+04</pdfrwt>
<totfact> 0.30410035E+00</totfact>
</mgrwt>
<rwgt>
<wgt id='morphing_basis_vector_1'> +8.7845624e-05 </wgt>
<wgt id='morphing_basis_vector_2'> +6.0618710e-05 </wgt>
<wgt id='morphing_basis_vector_3'> +9.4969648e-05 </wgt>
<wgt id='morphing_basis_vector_4'> +6.4528310e-05 </wgt>
<wgt id='morphing_basis_vector_5'> +1.0526365e-04 </wgt>
</rwgt>
</event>
<event>
 4      1 +2.2016400e-08 2.62467300e+03 7.81860800e-03 7.85466900e-02
        2 -1    0    0  501    0 +0.0000000000e+00 +0.0000000000e+00 +1.7396572781e+03 1.7396572781e+03 0.0000000000e+00 0.0000e+00 -1.0000e+00
       -2 -1    0    0    0  501 -0.0000000000e+00 -0.0000000000e+00 -9.8998074671e+02 9.8998074671e+02 0.0000000000e+00 0.0000e+00 1.0000e+00
      -13  1    1    2    0    0 -4.9148898944e+02 -5.0580786868e+02 -7.7613892419e+02 1.0487109499e+03 0.0000000000e+00 0.0000e+00 1.0000e+00
       13  1    1    2    0    0 +4.9148898944e+02 +5.0580786868e+02 +1.5258154556e+03 1.6809270749e+03 0.0000000000e+00 0.0000e+00 -1.0000e+00
<mgrwt>
<rscale>  0 0.26246731E+04</rscale>
<asrwt>0</asrwt>
<pdfrwt beam="1">  1        2 0.26763958E+00 0.26246731E+04</pdfrwt>
<pdfrwt beam="2">  1       -2 0.15230473E+00 0.26246731E+04</pdfrwt>
<totfact> 0.28640003E+00</totfact>
</mgrwt>
<rwgt>
<wgt id='morphing_basis_vector_1'> +1.4396580e-04 </wgt>
<wgt id='morphing_basis_vector_2'> +9.6850291e-05 </wgt>
<wgt id='morphing_basis_vector_3'> +1.5608527e-04 </wgt>
<wgt id='morphing_basis_vector_4'> +1.1075167e-04 </wgt>
<wgt id='morphing_basis_vector_5'> +1.7663282e-04 </wgt>
</rwgt>
</event>
<event>
 4      1 +2.2016400e-08 2.39732500e+03 7.81860800e-03 7.92563700e-02
        2 -1    0    0  501    0 +0.0000000000e+00 +0.0000000000e+00 +9.7644761658e+02 9.7644761658e+02 0.0000000000e+00 0.0000e+00 -1.0000e+00
       -2 -1    0    0    0  501 -0.0000000000e+00 -0.0000000000e+00 -1.4714483988e+03 1.4714483988e+03 0.0000000000e+00 0.0000e+00 1.0000e+00
      -13  1    1    2    0    0 +5.1651160945e+02 +9.6525322675e+02 -7.4595171715e+02 1.3247422386e+03 0.0000000000e+00 0.0000e+00 1.0000e+00
       13  1    1    2    0    0 -5.1651160945e+02 -9.6525322675e+02 +2.5095093497e+02 1.1231537767e+03 0.0000000000e+00 0.0000e+00 -1.0000e+00
<mgrwt>
<rscale>  0 0.23973254E+04</rscale>
<asrwt>0</asrwt>
<pdfrwt beam="1">  1        2 0.15022271E+00 0.23973254E+04</pdfrwt>
<pdfrwt beam="2">  1       -2 0.22637668E+00 0.23973254E+04</pdfrwt>
<totfact> 0.22315407E+00</totfact>
</mgrwt>
<rwgt>
<wgt id='morphing_basis_vector_1'> +1.0135400e-04 </wgt>
<wgt id='morphing_basis_vector_2'> +6.9553477e-05 </wgt>
<wgt id='morphing_basis_vector_3'> +1.0970858e-04 </wgt>
<wgt id='morphing_basis_vector_4'> +7.5344796e-05 </wgt>
<wgt id='morphing_basis_vector_5'> +1.2225716e-04 </wgt>
</rwgt>
</event>
<event>
 4      1 +2.2016400e-08 2.34075800e+03 7.81860800e-03 7.94455500e-02
        2 -1    0    0  501    0 +0.0000000000e+00 +0.0000000000e+00 +7.5944053249e+02 7.5944053249e+02 0.0000000000e+00 0.0000e+00 -1.0000e+00
       -2 -1    0    0    0  501 -0.0000000000e+00 -0.0000000000e+00 -1.8036791587e+03 1.8036791587e+03 0.0000000000e+00 0.0000e+00 1.0000e+00
      -13  1    1    2    0    0 +1.7021227011e+02 -8.8611291271e+02 -1.3383272398e+03 1.6140904905e+03 0.0000000000e+00 0.0000e+00 1.0000e+00
       13  1    1    2    0    0 -1.7021227011e+02 +8.8611291271e+02 +2.9408861360e+02 9.4902920061e+02 0.0000000000e+00 0.0000e+00 -1.0000e+00
<mgrwt>
<rscale>  0 0.23407580E+04</rscale>
<asrwt>0</asrwt>
<pdfrwt beam="1">  1        2 0.11683701E+00 0.23407580E+04</pdfrwt>
<pdfrwt beam="2">  1       -2 0.27748910E+00 0.23407580E+04</pdfrwt>
<totfact> 0.13870993E+00</totfact>
</mgrwt>
<rwgt>
<wgt id='morphing_basis_vector_1'> +9.1782449e-05 </wgt>
<wgt id='morphing_basis_vector_2'> +6.1878926e-05 </wgt>
<wgt id='morphing_basis_vector_3'> +9.9019252e-05 </wgt>
<wgt id='morphing_basis_vector_4'> +6.9338882e-05 </wgt>
<wgt id='morphing_basis_vector_5'> +1.1104512e-04 </wgt>
</rwgt>
</event>
<event>
 4      1 +2.2016400e-08 2.33868000e+03 7.81860800e-03 7.94526000e-02
        2 -1    0    0  501    0 +0.0000000000e+00 +0.0000000000e+00 +1.0075508681e+03 1.0075508681e+03 0.0000000000e+00 0.0000e+00 -1.0000e+00
       -2 -1    0    0    0  501 -0.0000000000e+00 -0.0000000000e+00 -1.3571086349e+03 1.3571086349e+03 0.0000000000e+00 0.0000e+00 1.0000e+00
      -13  1    1    2    0    0 +6.1225818766e+02 -5.1425146240e+02 -1.0375107445e+03 1.3098638097e+03 0.0000000000e+00 0.0000e+00 1.0000e+00
       13  1    1    2    0    0 -6.1225818766e+02 +5.1425146240e+02 +6.8795297770e+02 1.0547956932e+03 0.0000000000e+00 0.0000e+00 -1.0000e+00
<mgrwt>
<rscale>  0 0.23386800E+04</rscale>
<asrwt>0</asrwt>
<pdfrwt beam="1">  1        2 0.15500782E+00 0.23386800E+04</pdfrwt>
<pdfrwt beam="2">  1       -2 0.20878595E+00 0.23386800E+04</pdfrwt>
<totfact> 0.28623037E+00</totfact>
</mgrwt>
<rwgt>
<wgt id='morphing_basis_vector_1'> +9.1370495e-05 </wgt>
<wgt id='morphing_basis_vector_2'> +6.1391271e-05 </wgt>
<wgt id='morphing_basis_vector_3'> +9.8530809e-05 </wgt>
<wgt id='morphing_basis_vector_4'> +6.9275138e-05 </wgt>
<wgt id='morphing_basis_vector_5'> +1.1066050e-04 </wgt>
</rwgt>
</event>
<event>
 4      1 +2.2016400e-08 2.31688900e+03 7.81860800e-03 7.95270300e-02
        2 -1    0    0  501    0 +0.0000000000e+00 +0.0000000000e+00 +2.7674415959e+03 2.7674415959e+03 0.0000000000e+00 0.0000e+00 1.0000e+00
       -2 -1    0    0    0  501 -0.0000000000e+00 -0.0000000000e+00 -4.8492206835e+02 4.8492206835e+02 0.0000000000e+00 0.0000e+00 -1.0000e+00
      -13  1    1    2    0    0 +9.6341486750e+01 +1.1314110921e+03 +8.1924746287e+02 1.4001925392e+03 0.0000000000e+00 0.0000e+00 -1.0000e+00
       13  1    1    2    0    0 -9.6341486750e+01 -1.1314110921e+03 +1.4632720647e+03 1.8521711251e+03 0.0000000000e+00 0.0000e+00 1.0000e+00
<mgrwt>
<rscale>  0 0.23168889E+04</rscale>
<asrwt>0</asrwt>
<pdfrwt beam="1">  1        2 0.42576024E+00 0.23168889E+04</pdfrwt>
<pdfrwt beam="2">  1       -2 0.74603397E-01 0.23168889E+04</pdfrwt>
<totfact> 0.44267470E+00</totfact>
</mgrwt>
<rwgt>
<wgt id='morphing_basis_vector_1'> +8.9502546e-05 </wgt>
<wgt id='morphing_basis_vector_2'> +6.3404454e-05 </wgt>
<wgt id='morphing_basis_vector_3'> +9.7082633e-05 </wgt>
<wgt id='morphing_basis_vector_4'> +6.3766010e-05 </wgt>
<wgt id='morphing_basis_vector_5'> +1.0629892e-04 </wgt>
</rwgt>
</event>
<event>
 4      1 +2.2016400e-08 2.27129600e+03 7.81860800e-03 7.96855100e-02
        2 -1    0    0  501    0 +0.0000000000e+00 +0.0000000000e+00 +2.4740027596e+03 2.4740027596e+03 0.0000000000e+00 0.0000e+00 -1.0000e+00
       -2 -1    0    0    0  501 -0.0000000000e+00 -0.0000000000e+00 -5.2129971082e+02 5.2129971082e+02 0.0000000000e+00 0.0000e+00 1.0000e+00
      -13  1    1    2    0    0 -1.0093884632e+03 -3.3299451394e+02 +4.4893438685e+02 1.1538164931e+03 0.0000000000e+00 0.0000e+00 1.0000e+00
       13  1    1    2    0    0 +1.0093884632e+03 +3.3299451394e+02 +1.5037686619e+03 1.8414859773e+03 0.0000000000e+00 0.0000e+00 -1.0000e+00
<mgrwt>
<rscale>  0 0.22712965E+04</rscale>
<asrwt>0</asrwt>
<pdfrwt beam="1">  1        2 0.38061580E+00 0.22712965E+04</pdfrwt>
<pdfrwt beam="2">  1       -2 0.80199957E-01 0.22712965E+04</pdfrwt>
<totfact> 0.57004809E+00</totfact>
</mgrwt>
<rwgt>
<wgt id='morphing_basis_vector_1'> +8.2091806e-05 </wgt>
<wgt id='morphing_basis_vector_2'> +5.6606297e-05 </wgt>
<wgt id='morphing_basis_vector_3'> +8.8658127e-05 </wgt>
<wgt id='morphing_basis_vector_4'> +6.0186693e-05 </wgt>
<wgt id='morphing_basis_vector_5'> +9.8166466e-05 </wgt>
</rwgt>
</event>
<event>
 4      1 +2.2016400e-08 2.36636400e+03 7.81860800e-03 7.93592400e-02
        2 -1    0    0  501    0 +0.0000000000e+00 +0.0000000000e+00 +1.0064779181e+03 1.0064779181e+03 0.0000000000e+00 0.0000e+00 -1.0000e+00
       -2 -1    0    0    0  501 -0.0000000000e+00 -0.0000000000e+00 -1.3909099006e+03 1.3909099006e+03 0.0000000000e+00 0.0000e+00 1.0000e+00
      -13  1    1    2    0    0 +7.2818921666e+02 -7.7371129860e+02 -7.1964798685e+02 1.2832700159e+03 0.0000000000e+00 0.0000e+00 1.0000e+00
       13  1    1    2    0    0 -7.2818921666e+02 +7.7371129860e+02 +3.3521600442e+02 1.1141178028e+03 0.0000000000e+00 0.0000e+00 -1.0000e+00
<mgrwt>
<rscale>  0 0.23663644E+04</rscale>
<asrwt>0</asrwt>
<pdfrwt beam="1">  1        2 0.15484276E+00 0.23663644E+04</pdfrwt>
<pdfrwt beam="2">  1       -2 0.21398614E+00 0.23663644E+04</pdfrwt>
<totfact> 0.26239305E+00</totfact>
</mgrwt>
<rwgt>
<wgt id='morphing_basis_vector_1'> +9.6192016e-05 </wgt>
<wgt id='morphing_basis_vector_2'> +6.5760369e-05 </wgt>
<wgt id='morphing_basis_vector_3'> +1.0400565e-04 </wgt>
<wgt id='morphing_basis_vector_4'> +7.1676718e-05 </wgt>
<wgt id='morphing_basis_vector_5'> +1.1599380e-04 </wgt>
</rwgt>
</event>
<event>
 4      1 +2.2016400e-08 2.44752100e+03 7.81860800e-03 7.90929300e-02
        2 -1    0    0  501    0 +0.0000000000e+00 +0.0000000000e+00 +1.1351018471e+03 1.1351018471e+03 0.0000000000e+00 0.0000e+00 1.0000e+00
       -2 -1    0    0    0  501 -0.0000000000e+00 -0.0000000000e+00 -1.3193442841e+03 1.3193442841e+03 0.0000000000e+00 0.0000e+00 -1.0000e+00
      -13  1    1    2    0    0 +2.2575590886e+02 +8.4164063153e+02 -9.5377598845e+02 1.2919029837e+03 0.0000000000e+00 0.0000e+00 -1.0000e+00
       13  1    1    2    0    0 -2.2575590886e+02 -8.4164063153e+02 +7.6953355150e+02 1.1625431475e+03 0.0000000000e+00 0.0000e+00 1.0000e+00
<mgrwt>
<rscale>  0 0.24475213E+04</rscale>
<asrwt>0</asrwt>
<pdfrwt beam="1">  1        2 0.17463105E+00 0.24475213E+04</pdfrwt>
<pdfrwt beam="2">  1       -2 0.20297604E+00 0.24475213E+04</pdfrwt>
<totfact> 0.26143154E+00</totfact>
</mgrwt>
<rwgt>
<wgt id='morphing_basis_vector_1'> +1.0934913e-04 </wgt>
<wgt id='morphing_basis_vector_2'> +7.3644850e-05 </wgt>
<wgt id='morphing_basis_vector_3'> +1.1821247e-04 </wgt>
<wgt id='morphing_basis_vector_4'> +8.3249513e-05 </wgt>
<wgt id='morphing_basis_vector_5'> +1.3307827e-04 </wgt>
</rwgt>
</event>
<event>
 4      1 +2.2016400e-08 2.31866400e+03 7.81860800e-03 7.95209300e-02
        2 -1    0    0  501    0 +0.0000000000e+00 +0.0000000000e+00 +2.1274625806e+03 2.1274625806e+03 0.0000000000e+00 0.0000e+00 -1.0000e+00
       -2 -1    0    0    0  501 -0.0000000000e+00 -0.0000000000e+00 -6.3176226481e+02 6.3176226481e+02 0.0000000000e+00 0.0000e+00 1.0000e+00
      -13  1    1    2    0    0 +7.8582989773e+02 +5.2839655884e+02 -4.8048873024e+01 9.4817732822e+02 0.0000000000e+00 0.0000e+00 1.0000e+00
       13  1    1    2    0    0 -7.8582989773e+02 -5.2839655884e+02 +1.5437491889e+03 1.8110475172e+03 0.0000000000e+00 0.0000e+00 -1.0000e+00
<mgrwt>
<rscale>  0 0.23186639E+04</rscale>
<asrwt>0</asrwt>
<pdfrwt beam="1">  1        2 0.32730193E+00 0.23186639E+04</pdfrwt>
<pdfrwt beam="2">  1       -2 0.97194196E-01 0.23186639E+04</pdfrwt>
<totfact> 0.57697584E+00</totfact>
</mgrwt>
<rwgt>
<wgt id='morphing_basis_vector_1'> +8.8496732e-05 </wgt>
<wgt id='morphing_basis_vector_2'> +5.9827914e-05 </wgt>
<wgt id='morphing_basis_vector_3'> +9.5458725e-05 </wgt>
<wgt id='morphing_basis_vector_4'> +6.6557632e-05 </wgt>
<wgt id='morphing_basis_vector_5'> +1.0683847e-04 </wgt>
</rwgt>
</event>
<event>
 4      1 +2.2016400e-08 2.53129800e+03 7.81860800e-03 7.88289200e-02
        2 -1    0    0  501    0 +0.0000000000e+00 +0.0000000000e+00 +1.3039184562e+03 1.3039184562e+03 0.0000000000e+00 0.0000e+00 1.0000e+00
       -2 -1    0    0    0  501 -0.0000000000e+00 -0.0000000000e+00 -1.2285026218e+03 1.2285026218e+03 0.0000000000e+00 0.0000e+00 -1.0000e+00
      -13  1    1    2    0    0 -2.9854940223e+02 -1.2261847468e+03 +1.3370080907e+02 1.2690692200e+03 0.0000000000e+00 0.0000e+00 -1.0000e+00
       13  1    1    2    0    0 +2.9854940223e+02 +1.2261847468e+03 -5.8284974682e+01 1.2633518580e+03 0.0000000000e+00 0.0000e+00 1.0000e+00
<mgrwt>
<rscale>  0 0.25312979E+04</rscale>
<asrwt>0</asrwt>
<pdfrwt beam="1">  1        2 0.20060284E+00 0.25312979E+04</pdfrwt>
<pdfrwt beam="2">  1       -2 0.18900040E+00 0.25312979E+04</pdfrwt>
<totfact> 0.26233365E+00</totfact>
</mgrwt>
<rwgt>
<wgt id='morphing_basis_vector_1'> +1.3071931e-04 </wgt>
<wgt id='morphing_basis_vector_2'> +1.0140559e-04 </wgt>
<wgt id='morphing_basis_vector_3'> +1.4415103e-04 </wgt>
<wgt id='morphing_basis_vector_4'> +8.3439151e-05 </wgt>
<wgt id='morphing_basis_vector_5'> +1.5154999e-04 </wgt>
</rwgt>
</event>
<event>
 4      1 +2.2016400e-08 2.51199000e+03 7.81860800e-03 7.88888300e-02
        2 -1    0    0  501    0 +0.0000000000e+00 +0.0000000000e+00 +1.4939103710e+03 1.4939103710e+03 0.0000000000e+00 0.0000e+00 -1.0000e+00
       -2 -1    0    0    0  501 -0.0000000000e+00 -0.0000000000e+00 -1.0559688992e+03 1.0559688992e+03 0.0000000000e+00 0.0000e+00 1.0000e+00
      -13  1    1    2    0    0 -1.2521904264e+03 -3.7339436905e+01 +1.2734409525e+02 1.2592027701e+03 0.0000000000e+00 0.0000e+00 1.0000e+00
       13  1    1    2    0    0 +1.2521904264e+03 +3.7339436905e+01 +3.1059737662e+02 1.2906765001e+03 0.0000000000e+00 0.0000e+00 -1.0000e+00
<mgrwt>
<rscale>  0 0.25119896E+04</rscale>
<asrwt>0</asrwt>
<pdfrwt beam="1">  1        2 0.22983236E+00 0.25119896E+04</pdfrwt>
<pdfrwt beam="2">  1       -2 0.16245675E+00 0.25119896E+04</pdfrwt>
<totfact> 0.32816975E+00</totfact>
</mgrwt>
<rwgt>
<wgt id='morphing_basis_vector_1'> +1.2442828e-04 </wgt>
<wgt id='morphing_basis_vector_2'> +9.1293419e-05 </wgt>
<wgt id='morphing_basis_vector_3'> +1.3613686e-04 </wgt>
<wgt id='morphing_basis_vector_4'> +8.5808009e-05 </wgt>
<wgt id='morphing_basis_vector_5'> +1.4732122e-04 </wgt>
</rwgt>
</event>
<event>
 4      1 +2.2016400e-08 2.59538700e+03 7.81860800e-03 7.86339000e-02
        2 -1    0    0  501    0 +0.0000000000e+00 +0.0000000000e+00 +1.2636818511e+03 1.2636818511e+03 0.0000000000e+00 0.0000e+00 -1.0000e+00
       -2 -1    0    0    0  501 -0.0000000000e+00 -0.0000000000e+00 -1.3326200865e+03 1.3326200865e+03 0.0000000000e+00 0.0000e+00 1.0000e+00
      -13  1    1    2    0    0 +2.8286098966e+02 -5.7144251058e+02 -1.1651115090e+03 1.3281723196e+03 0.0000000000e+00 0.0000e+00 1.0000e+00
       13  1    1    2    0    0 -2.8286098966e+02 +5.7144251058e+02 +1.0961732736e+03 1.2681296180e+03 0.0000000000e+00 0.0000e+00 -1.0000e+00
<mgrwt>
<rscale>  0 0.25953865E+04</rscale>
<asrwt>0</asrwt>
<pdfrwt beam="1">  1        2 0.19441259E+00 0.25953865E+04</pdfrwt>
<pdfrwt beam="2">  1       -2 0.20501848E+00 0.25953865E+04</pdfrwt>
<totfact> 0.20983823E+00</totfact>
</mgrwt>
<rwgt>
<wgt id='morphing_basis_vector_1'> +1.3770704e-04 </wgt>
<wgt id='morphing_basis_vector_2'> +9.2578939e-05 </wgt>
<wgt id='morphing_basis_vector_3'> +1.4921932e-04 </wgt>
<wgt id='morphing_basis_vector_4'> +1.0586485e-04 </wgt>
<wgt id='morphing_basis_vector_5'> +1.6879355e-04 </wgt>
</rwgt>
</event>
<event>
 4      1 +2.2016400e-08 2.54878200e+03 7.81860800e-03 7.87751300e-02
        2 -1    0    0  501    0 +0.0000000000e+00 +0.0000000000e+00 +2.4609623730e+03 2.4609623730e+03 0.0000000000e+00 0.0000e+00 1.0000e+00
       -2 -1    0    0    0  501 -0.0000000000e+00 -0.0000000000e+00 -6.5993394066e+02 6.5993394066e+02 0.0000000000e+00 0.0000e+00 -1.0000e+00
      -13  1    1    2    0    0 -2.2193866514e+02 +9.0171947317e+02 -1.6815594262e+02 9.4373258946e+02 0.0000000000e+00 0.0000e+00 -1.0000e+00
       13  1    1    2    0    0 +2.2193866514e+02 -9.0171947317e+02 +1.9691843750e+03 2.1771637242e+03 0.0000000000e+00 0.0000e+00 1.0000e+00
<mgrwt>
<rscale>  0 0.25487821E+04</rscale>
<asrwt>0</asrwt>
<pdfrwt beam="1">  1        2 0.37860959E+00 0.25487821E+04</pdfrwt>
<pdfrwt beam="2">  1       -2 0.10152830E+00 0.25487821E+04</pdfrwt>
<totfact> 0.32619847E+00</totfact>
</mgrwt>
<rwgt>
<wgt id='morphing_basis_vector_1'> +1.2835064e-04 </wgt>
<wgt id='morphing_basis_vector_2'> +8.6600950e-05 </wgt>
<wgt id='morphing_basis_vector_3'> +1.3903653e-04 </wgt>
<wgt id='morphing_basis_vector_4'> +9.8057035e-05 </wgt>
<wgt id='morphing_basis_vector_5'> +1.5682864e-04 </wgt>
</rwgt>
</event>
<event>
 4      1 +2.2016400e-08 2.24839100e+03 7.81860800e-03 7.97665900e-02
        2 -1    0    0  501    0 +0.0000000000e+00 +0.0000000000e+00 +1.3411468071e+03 1.3411468071e+03 0.0000000000e+00 0.0000e+00 1.0000e+00
       -2 -1    0    0    0  501 -0.0000000000e+00 -0.0000000000e+00 -9.4233938370e+02 9.4233938370e+02 0.0000000000e+00 0.0000e+00 -1.0000e+00
      -13  1    1    2    0    0 +6.6073512712e+02 +7.6041405083e+02 -3.0739947089e+02 1.0532306830e+03 0.0000000000e+00 0.0000e+00 -1.0000e+00
       13  1    1    2    0    0 -6.6073512712e+02 -7.6041405083e+02 +7.0620689426e+02 1.2302555078e+03 0.0000000000e+00 0.0000e+00 1.0000e+00
<mgrwt>
<rscale>  0 0.22483909E+04</rscale>
<asrwt>0</asrwt>
<pdfrwt beam="1">  1        2 0.20633028E+00 0.22483909E+04</pdfrwt>
<pdfrwt beam="2">  1       -2 0.14497529E+00 0.22483909E+04</pdfrwt>
<totfact> 0.56891223E+00</totfact>
</mgrwt>
<rwgt>
<wgt id='morphing_basis_vector_1'> +7.8633107e-05 </wgt>
<wgt id='morphing_basis_vector_2'> +5.3640667e-05 </wgt>
<wgt id='morphing_basis_vector_3'> +8.4767588e-05 </wgt>
<wgt id='morphing_basis_vector_4'> +5.8261070e-05 </wgt>
<wgt id='morphing_basis_vector_5'> +9.4246276e-05 </wgt>
</rwgt>
</event>
<event>
 4      1 +2.2016400e-08 2.54546200e+03 7.81860800e-03 7.87853100e-02
        2 -1    0    0  501    0 +0.0000000000e+00 +0.0000000000e+00 +2.6446149360e+03 2.6446149360e+03 0.0000000000e+00 0.0000e+00 1.0000e+00
       -2 -1    0    0    0  501 -0.0000000000e+00 -0.0000000000e+00 -6.1250662809e+02 6.1250662809e+02 0.0000000000e+00 0.0000e+00 -1.0000e+00
      -13  1    1    2    0    0 +8.1628029991e+01 +4.6334051365e+02 -4.9715187053e+02 6.8447611298e+02 0.0000000000e+00 0.0000e+00 -1.0000e+00
       13  1    1    2    0    0 -8.1628029991e+01 -4.6334051365e+02 +2.5292601785e+03 2.5726454511e+03 0.0000000000e+00 0.0000e+00 1.0000e+00
<mgrwt>
<rscale>  0 0.25454620E+04</rscale>
<asrwt>0</asrwt>
<pdfrwt beam="1">  1        2 0.40686383E+00 0.25454620E+04</pdfrwt>
<pdfrwt beam="2">  1       -2 0.94231790E-01 0.25454620E+04</pdfrwt>
<totfact> 0.30237337E+00</totfact>
</mgrwt>
<rwgt>
<wgt id='morphing_basis_vector_1'> +1.2751760e-04 </wgt>
<wgt id='morphing_basis_vector_2'> +8.5639848e-05 </wgt>
<wgt id='morphing_basis_vector_3'> +1.3804792e-04 </wgt>
<wgt id='morphing_basis_vector_4'> +9.7898047e-05 </wgt>
<wgt id='morphing_basis_vector_5'> +1.5603202e-04 </wgt>
</rwgt>
</event>
<event>
 4      1 +2.2016400e-08 2.41295200e+03 7.81860800e-03 7.92050500e-02
        2 -1    0    0  501    0 +0.0000000000e+00 +0.0000000000e+00 +2.4194559047e+03 2.4194559047e+03 0.0000000000e+00 0.0000e+00 1.0000e+00
       -2 -1    0    0    0  501 -0.0000000000e+00 -0.0000000000e+00 -6.0161660517e+02 6.0161660517e+02 0.0000000000e+00 0.0000e+00 -1.0000e+00
      -13  1    1    2    0    0 -2.5039730809e+02 -1.1271423224e+03 +4.7082560603e+02 1.2469263724e+03 0.0000000000e+00 0.0000e+00 -1.0000e+00
       13  1    1    2    0    0 +2.5039730809e+02 +1.1271423224e+03 +1.3470136935e+03 1.7741461375e+03 0.0000000000e+00 0.0000e+00 1.0000e+00
<mgrwt>
<rscale>  0 0.24129524E+04</rscale>
<asrwt>0</asrwt>
<pdfrwt beam="1">  1        2 0.37222398E+00 0.24129524E+04</pdfrwt>
<pdfrwt beam="2">  1       -2 0.92556402E-01 0.24129524E+04</pdfrwt>
<totfact> 0.43541695E+00</totfact>
</mgrwt>
<rwgt>
<wgt id='morphing_basis_vector_1'> +1.0448508e-04 </wgt>
<wgt id='morphing_basis_vector_2'> +7.2850703e-05 </wgt>
<wgt id='morphing_basis_vector_3'> +1.1335398e-04 </wgt>
<wgt id='morphing_basis_vector_4'> +7.6334160e-05 </wgt>
<wgt id='morphing_basis_vector_5'> +1.2543881e-04 </wgt>
</rwgt>
</event>
<event>
 4      1 +2.2016400e-08 2.61952300e+03 7.81860800e-03 7.85619500e-02
        2 -1    0    0  501    0 +0.0000000000e+00 +0.0000000000e+00 +1.2739163783e+03 1.2739163783e+03 0.0000000000e+00 0.0000e+00 -1.0000e+00
       -2 -1    0    0    0  501 -0.0000000000e+00 -0.0000000000e+00 -1.3466152203e+03 1.3466152203e+03 0.0000000000e+00 0.0000e+00 1.0000e+00
      -13  1    1    2    0    0 -5.1303602437e+02 -2.8371681740e+02 -1.2080279380e+03 1.3427705291e+03 0.0000000000e+00 0.0000e+00 1.0000e+00
       13  1    1    2    0    0 +5.1303602437e+02 +2.8371681740e+02 +1.1353290959e+03 1.2777610696e+03 0.0000000000e+00 0.0000e+00 -1.0000e+00
<mgrwt>
<rscale>  0 0.26195230E+04</rscale>
<asrwt>0</asrwt>
<pdfrwt beam="1">  1        2 0.19598714E+00 0.26195230E+04</pdfrwt>
<pdfrwt beam="2">  1       -2 0.20717157E+00 0.26195230E+04</pdfrwt>
<totfact> 0.19930837E+00</totfact>
</mgrwt>
<rwgt>
<wgt id='morphing_basis_vector_1'> +1.4282861e-04 </wgt>
<wgt id='morphing_basis_vector_2'> +9.6025669e-05 </wgt>
<wgt id='morphing_basis_vector_3'> +1.5482821e-04 </wgt>
<wgt id='morphing_basis_vector_4'> +1.0992431e-04 </wgt>
<wgt id='morphing_basis_vector_5'> +1.7523854e-04 </wgt>
</rwgt>
</event>
<event>
 4      1 +2.2016400e-08 2.62593200e+03 7.81860800e-03 7.85429700e-02
        2 -1    0    0  501    0 +0.0000000000e+00 +0.0000000000e+00 +3.0937683104e+03 3.0937683104e+03 0.0000000000e+00 0.0000e+00 1.0000e+00
       -2 -1    0    0    0  501 -0.0000000000e+00 -0.0000000000e+00 -5.5721025580e+02 5.5721025580e+02 0.0000000000e+00 0.0000e+00 -1.0000e+00
      -13  1    1    2    0    0 -7.6212014098e+02 +9.3386692848e+02 +5.4456611741e+02 1.3226816721e+03 0.0000000000e+00 0.0000e+00 -1.0000e+00
       13  1    1    2    0    0 +7.6212014098e+02 -9.3386692848e+02 +1.9919919372e+03 2.3282968941e+03 0.0000000000e+00 0.0000e+00 1.0000e+00
<mgrwt>
<rscale>  0 0.26259318E+04</rscale>
<asrwt>0</asrwt>
<pdfrwt beam="1">  1        2 0.47596434E+00 0.26259318E+04</pdfrwt>
<pdfrwt beam="2">  1       -2 0.85724657E-01 0.26259318E+04</pdfrwt>
<totfact> 0.19412636E+00</totfact>
</mgrwt>
<rwgt>
<wgt id='morphing_basis_vector_1'> +1.4527124e-04 </wgt>
<wgt id='morphing_basis_vector_2'> +1.0007978e-04 </wgt>
<wgt id='morphing_basis_vector_3'> +1.5797251e-04 </wgt>
<wgt id='morphing_basis_vector_4'> +1.0884083e-04 </wgt>
<wgt id='morphing_basis_vector_5'> +1.7680280e-04 </wgt>
</rwgt>
</event>
<event>
 4      1 +2.2016400e-08 2.60011400e+03 7.81860800e-03 7.86197500e-02
        2 -1    0    0  501    0 +0.0000000000e+00 +0.0000000000e+00 +1.2660742807e+03 1.2660742807e+03 0.0000000000e+00 0.0000e+00 1.0000e+00
       -2 -1    0    0    0  501 -0.0000000000e+00 -0.0000000000e+00 -1.3349521525e+03 1.3349521525e+03 0.0000000000e+00 0.0000e+00 -1.0000e+00
      -13  1    1    2    0    0 +6.7976436336e+02 -9.5755118376e+02 -5.9245603508e+02 1.3152900869e+03 0.0000000000e+00 0.0000e+00 -1.0000e+00
       13  1    1    2    0    0 -6.7976436336e+02 +9.5755118376e+02 +5.2357816329e+02 1.2857363463e+03 0.0000000000e+00 0.0000e+00 1.0000e+00
<mgrwt>
<rscale>  0 0.26001143E+04</rscale>
<asrwt>0</asrwt>
<pdfrwt beam="1">  1        2 0.19478066E+00 0.26001143E+04</pdfrwt>
<pdfrwt beam="2">  1       -2 0.20537725E+00 0.26001143E+04</pdfrwt>
<totfact> 0.20784207E+00</totfact>
</mgrwt>
<rwgt>
<wgt id='morphing_basis_vector_1'> +1.3955977e-04 </wgt>
<wgt id='morphing_basis_vector_2'> +9.5784887e-05 </wgt>
<wgt id='morphing_basis_vector_3'> +1.5162749e-04 </wgt>
<wgt id='morphing_basis_vector_4'> +1.0488053e-04 </wgt>
<wgt id='morphing_basis_vector_5'> +1.6989780e-04 </wgt>
</rwgt>
</event>
<event>
 4      1 +2.2016400e-08 2.57415000e+03 7.81860800e-03 7.86978800e-02
        2 -1    0    0  501    0 +0.0000000000e+00 +0.0000000000e+00 +1.9033139946e+03 1.9033139946e+03 0.0000000000e+00 0.0000e+00 -1.0000e+00
       -2 -1    0    0    0  501 -0.0000000000e+00 -0.0000000000e+00 -8.7035635053e+02 8.7035635053e+02 0.0000000000e+00 0.0000e+00 1.0000e+00
      -13  1    1    2    0    0 +9.8876431128e+02 -8.1560578596e+02 +3.9038829908e+02 1.3398771158e+03 0.0000000000e+00 0.0000e+00 1.0000e+00
       13  1    1    2    0    0 -9.8876431128e+02 +8.1560578596e+02 +6.4256934497e+02 1.4337932293e+03 0.0000000000e+00 0.0000e+00 -1.0000e+00
<mgrwt>
<rscale>  0 0.25741495E+04</rscale>
<asrwt>0</asrwt>
<pdfrwt beam="1">  1        2 0.29281754E+00 0.25741495E+04</pdfrwt>
<pdfrwt beam="2">  1       -2 0.13390098E+00 0.25741495E+04</pdfrwt>
<totfact> 0.33411942E+00</totfact>
</mgrwt>
<rwgt>
<wgt id='morphing_basis_vector_1'> +1.3678325e-04 </wgt>
<wgt id='morphing_basis_vector_2'> +9.9850734e-05 </wgt>
<wgt id='morphing_basis_vector_3'> +1.4972799e-04 </wgt>
<wgt id='morphing_basis_vector_4'> +9.5260962e-05 </wgt>
<wgt id='morphing_basis_vector_5'> +1.6269173e-04 </wgt>
</rwgt>
</event>
<event>
 4      1 +2.2016400e-08 2.38106100e+03 7.81860800e-03 7.93102100e-02
        2 -1    0    0  501    0 +0.0000000000e+00 +0.0000000000e+00 +2.0853304351e+03 2.0853304351e+03 0.0000000000e+00 0.0000e+00 -1.0000e+00
       -2 -1    0    0    0  501 -0.0000000000e+00 -0.0000000000e+00 -6.7968252753e+02 6.7968252753e+02 0.0000000000e+00 0.0000e+00 1.0000e+00
      -13  1    1    2    0    0 -7.0001061874e+02 -9.1273164708e+02 +3.4628209713e+02 1.2012515210e+03 0.0000000000e+00 0.0000e+00 1.0000e+00
       13  1    1    2    0    0 +7.0001061874e+02 +9.1273164708e+02 +1.0593658104e+03 1.5637614416e+03 0.0000000000e+00 0.0000e+00 -1.0000e+00
<mgrwt>
<rscale>  0 0.23810608E+04</rscale>
<asrwt>0</asrwt>
<pdfrwt beam="1">  1        2 0.32082006E+00 0.23810608E+04</pdfrwt>
<pdfrwt beam="2">  1       -2 0.10456654E+00 0.23810608E+04</pdfrwt>
<totfact> 0.50794884E+00</totfact>
</mgrwt>
<rwgt>
<wgt id='morphing_basis_vector_1'> +9.9311992e-05 </wgt>
<wgt id='morphing_basis_vector_2'> +6.9593289e-05 </wgt>
<wgt id='morphing_basis_vector_3'> +1.0773595e-04 </wgt>
<wgt id='morphing_basis_vector_4'> +7.1984250e-05 </wgt>
<wgt id='morphing_basis_vector_5'> +1.1882196e-04 </wgt>
</rwgt>
</event>
<event>
 4      1 +2.2016400e-08 2.27487500e+03 7.81860800e-03 7.96729400e-02
        2 -1    0    0  501    0 +0.0000000000e+00 +0.0000000000e+00 +1.1016559836e+03 1.1016559836e+03 0.0000000000e+00 0.0000e+00 1.0000e+00
       -2 -1    0    0    0  501 -0.0000000000e+00 -0.0000000000e+00 -1.1743811049e+03 1.1743811049e+03 0.0000000000e+00 0.0000e+00 -1.0000e+00
      -13  1    1    2    0    0 +6.6130202112e+01 +4.3596769872e+02 -1.0853842234e+03 1.1715374302e+03 0.0000000000e+00 0.0000e+00 -1.0000e+00
       13  1    1    2    0    0 -6.6130202112e+01 -4.3596769872e+02 +1.0126591022e+03 1.1044996583e+03 0.0000000000e+00 0.0000e+00 1.0000e+00
<mgrwt>
<rscale>  0 0.22748749E+04</rscale>
<asrwt>0</asrwt>
<pdfrwt beam="1">  1        2 0.16948554E+00 0.22748749E+04</pdfrwt>
<pdfrwt beam="2">  1       -2 0.18067402E+00 0.22748749E+04</pdfrwt>
<totfact> 0.40663575E+00</totfact>
</mgrwt>
<rwgt>
<wgt id='morphing_basis_vector_1'> +8.1862609e-05 </wgt>
<wgt id='morphing_basis_vector_2'> +5.4776222e-05 </wgt>
<wgt id='morphing_basis_vector_3'> +8.8108318e-05 </wgt>
<wgt id='morphing_basis_vector_4'> +6.2071821e-05 </wgt>
<wgt id='morphing_basis_vector_5'> +9.8916541e-05 </wgt>
</rwgt>
</event>
<event>
 4      1 +2.2016400e-08 2.36912300e+03 7.81860800e-03 7.93500100e-02
        2 -1    0    0  501    0 +0.0000000000e+00 +0.0000000000e+00 +2.7345189955e+03 2.7345189955e+03 0.0000000000e+00 0.0000e+00 -1.0000e+00
       -2 -1    0    0    0  501 -0.0000000000e+00 -0.0000000000e+00 -5.1313810643e+02 5.1313810643e+02 0.0000000000e+00 0.0000e+00 1.0000e+00
      -13  1    1    2    0    0 -6.3438787716e+02 +4.2577257832e+02 -1.3023385662e+02 7.7504265982e+02 0.0000000000e+00 0.0000e+00 1.0000e+00
       13  1    1    2    0    0 +6.3438787716e+02 -4.2577257832e+02 +2.3516147457e+03 2.4726144421e+03 0.0000000000e+00 0.0000e+00 -1.0000e+00
<mgrwt>
<rscale>  0 0.23691230E+04</rscale>
<asrwt>0</asrwt>
<pdfrwt beam="1">  1        2 0.42069522E+00 0.23691230E+04</pdfrwt>
<pdfrwt beam="2">  1       -2 0.78944325E-01 0.23691230E+04</pdfrwt>
<totfact> 0.40713817E+00</totfact>
</mgrwt>
<rwgt>
<wgt id='morphing_basis_vector_1'> +9.6123290e-05 </wgt>
<wgt id='morphing_basis_vector_2'> +6.4555173e-05 </wgt>
<wgt id='morphing_basis_vector_3'> +1.0371770e-04 </wgt>
<wgt id='morphing_basis_vector_4'> +7.3058188e-05 </wgt>
<wgt id='morphing_basis_vector_5'> +1.1662738e-04 </wgt>
</rwgt>
</event>
<event>
 4      1 +2.2016400e-08 2.47515100e+03 7.81860800e-03 7.90046800e-02
        2 -1    0    0  501    0 +0.0000000000e+00 +0.0000000000e+00 +2.4958914001e+03 2.4958914001e+03 0.0000000000e+00 0.0000e+00 -1.0000e+00
       -2 -1    0    0    0  501 -0.0000000000e+00 -0.0000000000e+00 -6.1364598215e+02 6.1364598215e+02 0.0000000000e+00 0.0000e+00 1.0000e+00
      -13  1    1    2    0    0 +3.2295298651e+02 -4.8353473821e+02 +2.3135939514e+03 2.3855442663e+03 0.0000000000e+00 0.0000e+00 -1.0000e+00
       13  1    1    2    0    0 -3.2295298651e+02 +4.8353473821e+02 -4.3134853348e+02 7.2399311592e+02 0.0000000000e+00 0.0000e+00 1.0000e+00
<mgrwt>
<rscale>  0 0.24751515E+04</rscale>
<asrwt>0</asrwt>
<pdfrwt beam="1">  1        2 0.38398329E+00 0.24751515E+04</pdfrwt>
<pdfrwt beam="2">  1       -2 0.94407075E-01 0.24751515E+04</pdfrwt>
<totfact> 0.37240615E+00</totfact>
</mgrwt>
<rwgt>
<wgt id='morphing_basis_vector_1'> +1.5500288e-04 </wgt>
<wgt id='morphing_basis_vector_2'> +1.9712082e-04 </wgt>
<wgt id='morphing_basis_vector_3'> +1.8565021e-04 </wgt>
<wgt id='morphing_basis_vector_4'> +3.8082109e-06 </wgt>
<wgt id='morphing_basis_vector_5'> +1.3252712e-04 </wgt>
</rwgt>
</event>
<event>
 4      1 +2.2016400e-08 2.25751100e+03 7.81860800e-03 7.97341900e-02
        2 -1    0    0  501    0 +0.0000000000e+00 +0.0000000000e+00 +1.8476899080e+03 1.8476899080e+03 0.0000000000e+00 0.0000e+00 -1.0000e+00
       -2 -1    0    0    0  501 -0.0000000000e+00 -0.0000000000e+00 -6.8955794710e+02 6.8955794710e+02 0.0000000000e+00 0.0000e+00 1.0000e+00
      -13  1    1    2    0    0 +7.1787176145e+02 -8.5005616435e+02 +3.6536298204e+02 1.1710787578e+03 0.0000000000e+00 0.0000e+00 1.0000e+00
       13  1    1    2    0    0 -7.1787176145e+02 +8.5005616435e+02 +7.9276897884e+02 1.3661690972e+03 0.0000000000e+00 0.0000e+00 -1.0000e+00
<mgrwt>
<rscale>  0 0.22575112E+04</rscale>
<asrwt>0</asrwt>
<pdfrwt beam="1">  1        2 0.28425998E+00 0.22575112E+04</pdfrwt>
<pdfrwt beam="2">  1       -2 0.10608584E+00 0.22575112E+04</pdfrwt>
<totfact> 0.67377070E+00</totfact>
</mgrwt>
<rwgt>
<wgt id='morphing_basis_vector_1'> +8.0973889e-05 </wgt>
<wgt id='morphing_basis_vector_2'> +5.7694987e-05 </wgt>
<wgt id='morphing_basis_vector_3'> +8.7764212e-05 </wgt>
<wgt id='morphing_basis_vector_4'> +5.7044181e-05 </wgt>
<wgt id='morphing_basis_vector_5'> +9.5634277e-05 </wgt>
</rwgt>
</event>
<event>
 4      1 +2.2016400e-08 2.46094800e+03 7.81860800e-03 7.90499000e-02
        2 -1    0    0  501    0 +0.0000000000e+00 +0.0000000000e+00 +2.5540240354e+03 2.5540240354e+03 0.0000000000e+00 0.0000e+00 -1.0000e+00
       -2 -1    0    0    0  501 -0.0000000000e+00 -0.0000000000e+00 -5.9281610475e+02 5.9281610475e+02 0.0000000000e+00 0.0000e+00 1.0000e+00
      -13  1    1    2    0    0 +1.7693344589e+01 +5.1987211468e+02 -4.4530808091e+02 6.8474765935e+02 0.0000000000e+00 0.0000e+00 1.0000e+00
       13  1    1    2    0    0 -1.7693344589e+01 -5.1987211468e+02 +2.4065160116e+03 2.4620924808e+03 0.0000000000e+00 0.0000e+00 -1.0000e+00
<mgrwt>
<rscale>  0 0.24609483E+04</rscale>
<asrwt>0</asrwt>
<pdfrwt beam="1">  1        2 0.39292677E+00 0.24609483E+04</pdfrwt>
<pdfrwt beam="2">  1       -2 0.91202479E-01 0.24609483E+04</pdfrwt>
<totfact> 0.37322246E+00</totfact>
</mgrwt>
<rwgt>
<wgt id='morphing_basis_vector_1'> +1.1160783e-04 </wgt>
<wgt id='morphing_basis_vector_2'> +7.4888356e-05 </wgt>
<wgt id='morphing_basis_vector_3'> +1.2063100e-04 </wgt>
<wgt id='morphing_basis_vector_4'> +8.5376549e-05 </wgt>
<wgt id='morphing_basis_vector_5'> +1.3608333e-04 </wgt>
</rwgt>
</event>
<event>
 4      1 +2.2016400e-08 2.29431600e+03 7.81860800e-03 7.96050200e-02
        2 -1    0    0  501    0 +0.0000000000e+00 +0.0000000000e+00 +3.3307710120e+03 3.3307710120e+03 0.0000000000e+00 0.0000e+00 -1.0000e+00
       -2 -1    0    0    0  501 -0.0000000000e+00 -0.0000000000e+00 -3.9509515838e+02 3.9509515838e+02 0.0000000000e+00 0.0000e+00 1.0000e+00
      -13  1    1    2    0    0 -8.3497618800e+02 -7.5749721017e+02 +1.1234053506e+03 1.5915485666e+03 0.0000000000e+00 0.0000e+00 1.0000e+00
       13  1    1    2    0    0 +8.3497618800e+02 +7.5749721017e+02 +1.8122705031e+03 2.1343176039e+03 0.0000000000e+00 0.0000e+00 -1.0000e+00
<mgrwt>
<rscale>  0 0.22943160E+04</rscale>
<asrwt>0</asrwt>
<pdfrwt beam="1">  1        2 0.51242629E+00 0.22943160E+04</pdfrwt>
<pdfrwt beam="2">  1       -2 0.60783873E-01 0.22943160E+04</pdfrwt>
<totfact> 0.29179716E+00</totfact>
</mgrwt>
<rwgt>
<wgt id='morphing_basis_vector_1'> +8.6194811e-05 </wgt>
<wgt id='morphing_basis_vector_2'> +6.1217375e-05 </wgt>
<wgt id='morphing_basis_vector_3'> +9.3472980e-05 </wgt>
<wgt id='morphing_basis_vector_4'> +6.1123483e-05 </wgt>
<wgt id='morphing_basis_vector_5'> +1.0214362e-04 </wgt>
</rwgt>
</event>
<event>
 4      1 +2.2016400e-08 2.41558500e+03 7.81860800e-03 7.91964400e-02
        2 -1    0    0  501    0 +0.0000000000e+00 +0.0000000000e+00 +1.8238449786e+03 1.8238449786e+03 0.0000000000e+00 0.0000e+00 1.0000e+00
       -2 -1    0    0    0  501 -0.0000000000e+00 -0.0000000000e+00 -7.9982853964e+02 7.9982853964e+02 0.0000000000e+00 0.0000e+00 -1.0000e+00
      -13  1    1    2    0    0 -7.2992585106e+02 -6.6577563410e+02 +1.2666354620e+03 1.6063668126e+03 0.0000000000e+00 0.0000e+00 1.0000e+00
       13  1    1    2    0    0 +7.2992585106e+02 +6.6577563410e+02 -2.4261902304e+02 1.0173067056e+03 0.0000000000e+00 0.0000e+00 -1.0000e+00
<mgrwt>
<rscale>  0 0.24155854E+04</rscale>
<asrwt>0</asrwt>
<pdfrwt beam="1">  1        2 0.28059153E+00 0.24155854E+04</pdfrwt>
<pdfrwt beam="2">  1       -2 0.12305055E+00 0.24155854E+04</pdfrwt>
<totfact> 0.46967123E+00</totfact>
</mgrwt>
<rwgt>
<wgt id='morphing_basis_vector_1'> +1.2680833e-04 </wgt>
<wgt id='morphing_basis_vector_2'> +1.3773698e-04 </wgt>
<wgt id='morphing_basis_vector_3'> +1.4703520e-04 </wgt>
<wgt id='morphing_basis_vector_4'> +3.2017282e-05 </wgt>
<wgt id='morphing_basis_vector_5'> +1.2238781e-04 </wgt>
</rwgt>
</event>
<event>
 4      1 +2.2016400e-08 2.40191800e+03 7.81860800e-03 7.92412400e-02
        2 -1    0    0  501    0 +0.0000000000e+00 +0.0000000000e+00 +2.6290452425e+03 2.6290452425e+03 0.0000000000e+00 0.0000e+00 -1.0000e+00
       -2 -1    0    0    0  501 -0.0000000000e+00 -0.0000000000e+00 -5.4860324215e+02 5.4860324215e+02 0.0000000000e+00 0.0000e+00 1.0000e+00
      -13  1    1    2    0    0 -4.8980513169e+02 +1.0964381731e+03 +1.0207321244e+03 1.5760646574e+03 0.0000000000e+00 0.0000e+00 1.0000e+00
       13  1    1    2    0    0 +4.8980513169e+02 -1.0964381731e+03 +1.0597098760e+03 1.6015838273e+03 0.0000000000e+00 0.0000e+00 -1.0000e+00
<mgrwt>
<rscale>  0 0.24019182E+04</rscale>
<asrwt>0</asrwt>
<pdfrwt beam="1">  1        2 0.40446849E+00 0.24019182E+04</pdfrwt>
<pdfrwt beam="2">  1       -2 0.84400500E-01 0.24019182E+04</pdfrwt>
<totfact> 0.40463623E+00</totfact>
</mgrwt>
<rwgt>
<wgt id='morphing_basis_vector_1'> +1.0495980e-04 </wgt>
<wgt id='morphing_basis_vector_2'> +7.8463005e-05 </wgt>
<wgt id='morphing_basis_vector_3'> +1.1485240e-04 </wgt>
<wgt id='morphing_basis_vector_4'> +7.0141569e-05 </wgt>
<wgt id='morphing_basis_vector_5'> +1.2274242e-04 </wgt>
</rwgt>
</event>
<event>
 4      1 +2.2016400e-08 2.45222300e+03 7.81860800e-03 7.90778300e-02
        2 -1    0    0  501    0 +0.0000000000e+00 +0.0000000000e+00 +2.6937921009e+03 2.6937921009e+03 0.0000000000e+00 0.0000e+00 -1.0000e+00
       -2 -1    0    0    0  501 -0.0000000000e+00 -0.0000000000e+00 -5.5807925667e+02 5.5807925667e+02 0.0000000000e+00 0.0000e+00 1.0000e+00
      -13  1    1    2    0    0 -6.6159339734e+02 +8.5266654303e+02 +2.9620872585e+02 1.1191450604e+03 0.0000000000e+00 0.0000e+00 1.0000e+00
       13  1    1    2    0    0 +6.6159339734e+02 -8.5266654303e+02 +1.8395041184e+03 2.1327262971e+03 0.0000000000e+00 0.0000e+00 -1.0000e+00
<mgrwt>
<rscale>  0 0.24522231E+04</rscale>
<asrwt>0</asrwt>
<pdfrwt beam="1">  1        2 0.41442955E+00 0.24522231E+04</pdfrwt>
<pdfrwt beam="2">  1       -2 0.85858349E-01 0.24522231E+04</pdfrwt>
<totfact> 0.35348146E+00</totfact>
</mgrwt>
<rwgt>
<wgt id='morphing_basis_vector_1'> +1.1060433e-04 </wgt>
<wgt id='morphing_basis_vector_2'> +7.5460566e-05 </wgt>
<wgt id='morphing_basis_vector_3'> +1.1976751e-04 </wgt>
<wgt id='morphing_basis_vector_4'> +8.3032365e-05 </wgt>
<wgt id='morphing_basis_vector_5'> +1.3404741e-04 </wgt>
</rwgt>
</event>
<event>
 4      1 +2.2016400e-08 2.51297500e+03 7.81860800e-03 7.88857600e-02
        2 -1    0    0  501    0 +0.0000000000e+00 +0.0000000000e+00 +3.1926686540e+03 3.1926686540e+03 0.0000000000e+00 0.0000e+00 1.0000e+00
       -2 -1    0    0    0  501 -0.0000000000e+00 -0.0000000000e+00 -4.9449559227e+02 4.9449559227e+02 0.0000000000e+00 0.0000e+00 -1.0000e+00
      -13  1    1    2    0    0 -1.1178308966e+03 +4.6085880744e+02 +8.4758754489e+02 1.4765979141e+03 0.0000000000e+00 0.0000e+00 -1.0000e+00
       13  1    1    2    0    0 +1.1178308966e+03 -4.6085880744e+02 +1.8505855169e+03 2.2105663322e+03 0.0000000000e+00 0.0000e+00 1.0000e+00
<mgrwt>
<rscale>  0 0.25129748E+04</rscale>
<asrwt>0</asrwt>
<pdfrwt beam="1">  1        2 0.49117978E+00 0.25129748E+04</pdfrwt>
<pdfrwt beam="2">  1       -2 0.76076247E-01 0.25129748E+04</pdfrwt>
<totfact> 0.22077821E+00</totfact>
</mgrwt>
<rwgt>
<wgt id='morphing_basis_vector_1'> +1.2276342e-04 </wgt>
<wgt id='morphing_basis_vector_2'> +8.5954640e-05 </wgt>
<wgt id='morphing_basis_vector_3'> +1.3351296e-04 </wgt>
<wgt id='morphing_basis_vector_4'> +8.9753075e-05 </wgt>
<wgt id='morphing_basis_vector_5'> +1.4786421e-04 </wgt>
</rwgt>
</event>
<event>
 4      1 +2.2016400e-08 2.54955900e+03 7.81860800e-03 7.87727600e-02
        2 -1    0    0  501    0 +0.0000000000e+00 +0.0000000000e+00 +1.4134641359e+03 1.4134641359e+03 0.0000000000e+00 0.0000e+00 -1.0000e+00
       -2 -1    0    0    0  501 -0.0000000000e+00 -0.0000000000e+00 -1.1497019449e+03 1.1497019449e+03 0.0000000000e+00 0.0000e+00 1.0000e+00
      -13  1    1    2    0    0 -4.0832310274e+02 -1.1956891163e+03 -3.8321758994e+01 1.2640683432e+03 0.0000000000e+00 0.0000e+00 1.0000e+00
       13  1    1    2    0    0 +4.0832310274e+02 +1.1956891163e+03 +3.0208395004e+02 1.2990977376e+03 0.0000000000e+00 0.0000e+00 -1.0000e+00
<mgrwt>
<rscale>  0 0.25495588E+04</rscale>
<asrwt>0</asrwt>
<pdfrwt beam="1">  1        2 0.21745602E+00 0.25495588E+04</pdfrwt>
<pdfrwt beam="2">  1       -2 0.17687722E+00 0.25495588E+04</pdfrwt>
<totfact> 0.28018314E+00</totfact>
</mgrwt>
<rwgt>
<wgt id='morphing_basis_vector_1'> +1.3119914e-04 </wgt>
<wgt id='morphing_basis_vector_2'> +9.4653344e-05 </wgt>
<wgt id='morphing_basis_vector_3'> +1.4333064e-04 </wgt>
<wgt id='morphing_basis_vector_4'> +9.2646539e-05 </wgt>
<wgt id='morphing_basis_vector_5'> +1.5657315e-04 </wgt>
</rwgt>
</event>
<event>
 4      1 +2.2016400e-08 2.34462000e+03 7.81860800e-03 7.94324600e-02
        2 -1    0    0  501    0 +0.0000000000e+00 +0.0000000000e+00 +1.7383637675e+03 1.7383637675e+03 0.0000000000e+00 0.0000e+00 -1.0000e+00
       -2 -1    0    0    0  501 -0.0000000000e+00 -0.0000000000e+00 -7.9057689635e+02 7.9057689635e+02 0.0000000000e+00 0.0000e+00 1.0000e+00
      -13  1    1    2    0    0 +7.5118133775e+02 +3.3383354804e+02 -4.2763214776e+02 9.2659996426e+02 0.0000000000e+00 0.0000e+00 1.0000e+00
       13  1    1    2    0    0 -7.5118133775e+02 -3.3383354804e+02 +1.3754190189e+03 1.6023406996e+03 0.0000000000e+00 0.0000e+00 -1.0000e+00
<mgrwt>
<rscale>  0 0.23446196E+04</rscale>
<asrwt>0</asrwt>
<pdfrwt beam="1">  1        2 0.26744058E+00 0.23446196E+04</pdfrwt>
<pdfrwt beam="2">  1       -2 0.12162722E+00 0.23446196E+04</pdfrwt>
<totfact> 0.54362705E+00</totfact>
</mgrwt>
<rwgt>
<wgt id='morphing_basis_vector_1'> +9.2302020e-05 </wgt>
<wgt id='morphing_basis_vector_2'> +6.2053699e-05 </wgt>
<wgt id='morphing_basis_vector_3'> +9.9555018e-05 </wgt>
<wgt id='morphing_basis_vector_4'> +6.9963931e-05 </wgt>
<wgt id='morphing_basis_vector_5'> +1.1180333e-04 </wgt>
</rwgt>
</event>
<event>
 4      1 +2.2016400e-08 2.61922000e+03 7.81860800e-03 7.85628400e-02
        2 -1    0    0  501    0 +0.0000000000e+00 +0.0000000000e+00 +4.1594970991e+03 4.1594970991e+03 0.0000000000e+00 0.0000e+00 1.0000e+00
       -2 -1    0    0    0  501 -0.0000000000e+00 -0.0000000000e+00 -4.1232844557e+02 4.1232844557e+02 0.0000000000e+00 0.0000e+00 -1.0000e+00
      -13  1    1    2    0    0 +1.1891438341e+03 +3.4255321989e+02 +1.1255173265e+03 1.6727806248e+03 0.0000000000e+00 0.0000e+00 -1.0000e+00
       13  1    1    2    0    0 -1.1891438341e+03 -3.4255321989e+02 +2.6216513271e+03 2.8990449199e+03 0.0000000000e+00 0.0000e+00 1.0000e+00
<mgrwt>
<rscale>  0 0.26192205E+04</rscale>
<asrwt>0</asrwt>
<pdfrwt beam="1">  1        2 0.63992260E+00 0.26192205E+04</pdfrwt>
<pdfrwt beam="2">  1       -2 0.63435148E-01 0.26192205E+04</pdfrwt>
<totfact> 0.57707409E-01</totfact>
</mgrwt>
<rwgt>
<wgt id='morphing_basis_vector_1'> +1.4419761e-04 </wgt>
<wgt id='morphing_basis_vector_2'> +1.0021114e-04 </wgt>
<wgt id='morphing_basis_vector_3'> +1.5696185e-04 </wgt>
<wgt id='morphing_basis_vector_4'> +1.0692040e-04 </wgt>
<wgt id='morphing_basis_vector_5'> +1.7491639e-04 </wgt>
</rwgt>
</event>
<event>
 4      1 +2.2016400e-08 2.33497300e+03 7.81860800e-03 7.94652000e-02
        2 -1    0    0  501    0 +0.0000000000e+00 +0.0000000000e+00 +9.5450694153e+02 9.5450694153e+02 0.0000000000e+00 0.0000e+00 1.0000e+00
       -2 -1    0    0    0  501 -0.0000000000e+00 -0.0000000000e+00 -1.4279882874e+03 1.4279882874e+03 0.0000000000e+00 0.0000e+00 -1.0000e+00
      -13  1    1    2    0    0 +4.6215692844e+02 -5.2980405779e+02 -1.1877744168e+03 1.3802497714e+03 0.0000000000e+00 0.0000e+00 -1.0000e+00
       13  1    1    2    0    0 -4.6215692844e+02 +5.2980405779e+02 +7.1429307089e+02 1.0022454576e+03 0.0000000000e+00 0.0000e+00 1.0000e+00
<mgrwt>
<rscale>  0 0.23349730E+04</rscale>
<asrwt>0</asrwt>
<pdfrwt beam="1">  1        2 0.14684722E+00 0.23349730E+04</pdfrwt>
<pdfrwt beam="2">  1       -2 0.21969050E+00 0.23349730E+04</pdfrwt>
<totfact> 0.25829217E+00</totfact>
</mgrwt>
<rwgt>
<wgt id='morphing_basis_vector_1'> +9.0757592e-05 </wgt>
<wgt id='morphing_basis_vector_2'> +6.0876767e-05 </wgt>
<wgt id='morphing_basis_vector_3'> +9.7842646e-05 </wgt>
<wgt id='morphing_basis_vector_4'> +6.8919274e-05 </wgt>
<wgt id='morphing_basis_vector_5'> +1.0995743e-04 </wgt>
</rwgt>
</event>
<event>
 4      1 +2.2016400e-08 2.57331900e+03 7.81860800e-03 7.87004000e-02
        2 -1    0    0  501    0 +0.0000000000e+00 +0.0000000000e+00 +3.4369127499e+03 3.4369127499e+03 0.0000000000e+00 0.0000e+00 -1.0000e+00
       -2 -1    0    0    0  501 -0.0000000000e+00 -0.0000000000e+00 -4.8168004353e+02 4.8168004353e+02 0.0000000000e+00 0.0000e+00 1.0000e+00
      -13  1    1    2    0    0 +6.9823315784e+01 -1.2847503011e+03 +1.4687827468e+03 1.9526344739e+03 0.0000000000e+00 0.0000e+00 1.0000e+00
       13  1    1    2    0    0 -6.9823315784e+01 +1.2847503011e+03 +1.4864499596e+03 1.9659583195e+03 0.0000000000e+00 0.0000e+00 -1.0000e+00
<mgrwt>
<rscale>  0 0.25733187E+04</rscale>
<asrwt>0</asrwt>
<pdfrwt beam="1">  1        2 0.52875579E+00 0.25733187E+04</pdfrwt>
<pdfrwt beam="2">  1       -2 0.74104624E-01 0.25733187E+04</pdfrwt>
<totfact> 0.15720540E+00</totfact>
</mgrwt>
<rwgt>
<wgt id='morphing_basis_vector_1'> +1.3791640e-04 </wgt>
<wgt id='morphing_basis_vector_2'> +1.0357939e-04 </wgt>
<wgt id='morphing_basis_vector_3'> +1.5153960e-04 </wgt>
<wgt id='morphing_basis_vector_4'> +9.2449485e-05 </wgt>
<wgt id='morphing_basis_vector_5'> +1.6226095e-04 </wgt>
</rwgt>
</event>
<event>
 4      1 +2.2016400e-08 2.36585300e+03 7.81860800e-03 7.93609500e-02
        2 -1    0    0  501    0 +0.0000000000e+00 +0.0000000000e+00 +7.2732106942e+02 7.2732106942e+02 0.0000000000e+00 0.0000e+00 -1.0000e+00
       -2 -1    0    0    0  501 -0.0000000000e+00 -0.0000000000e+00 -1.9239305602e+03 1.9239305602e+03 0.0000000000e+00 0.0000e+00 1.0000e+00
      -13  1    1    2    0    0 -5.2008744647e+02 +3.1460031179e+02 -1.7355401022e+03 1.8389028671e+03 0.0000000000e+00 0.0000e+00 1.0000e+00
       13  1    1    2    0    0 +5.2008744647e+02 -3.1460031179e+02 +5.3893061140e+02 8.1234876258e+02 0.0000000000e+00 0.0000e+00 -1.0000e+00
<mgrwt>
<rscale>  0 0.23658531E+04</rscale>
<asrwt>0</asrwt>
<pdfrwt beam="1">  1        2 0.11189555E+00 0.23658531E+04</pdfrwt>
<pdfrwt beam="2">  1       -2 0.29598932E+00 0.23658531E+04</pdfrwt>
<totfact> 0.10938771E+00</totfact>
</mgrwt>
<rwgt>
<wgt id='morphing_basis_vector_1'> +9.5554807e-05 </wgt>
<wgt id='morphing_basis_vector_2'> +6.4064151e-05 </wgt>
<wgt id='morphing_basis_vector_3'> +1.0307653e-04 </wgt>
<wgt id='morphing_basis_vector_4'> +7.2744946e-05 </wgt>
<wgt id='morphing_basis_vector_5'> +1.1598332e-04 </wgt>
</rwgt>
</event>
<event>
 4      1 +2.2016400e-08 2.29535900e+03 7.81860800e-03 7.96014000e-02
        2 -1    0    0  501    0 +0.0000000000e+00 +0.0000000000e+00 +1.1925079492e+03 1.1925079492e+03 0.0000000000e+00 0.0000e+00 -1.0000e+00
       -2 -1    0    0    0  501 -0.0000000000e+00 -0.0000000000e+00 -1.1045361353e+03 1.1045361353e+03 0.0000000000e+00 0.0000e+00 1.0000e+00
      -13  1    1    2    0    0 +6.3707595111e+02 +1.7474945643e+02 -8.9519390456e+02 1.1125534894e+03 0.0000000000e+00 0.0000e+00 1.0000e+00
       13  1    1    2    0    0 -6.3707595111e+02 -1.7474945643e+02 +9.8316571849e+02 1.1844905952e+03 0.0000000000e+00 0.0000e+00 -1.0000e+00
<mgrwt>
<rscale>  0 0.22953589E+04</rscale>
<asrwt>0</asrwt>
<pdfrwt beam="1">  1        2 0.18346276E+00 0.22953589E+04</pdfrwt>
<pdfrwt beam="2">  1       -2 0.16992864E+00 0.22953589E+04</pdfrwt>
<totfact> 0.43380145E+00</totfact>
</mgrwt>
<rwgt>
<wgt id='morphing_basis_vector_1'> +8.4832821e-05 </wgt>
<wgt id='morphing_basis_vector_2'> +5.6848305e-05 </wgt>
<wgt id='morphing_basis_vector_3'> +9.1364286e-05 </wgt>
<wgt id='morphing_basis_vector_4'> +6.4313598e-05 </wgt>
<wgt id='morphing_basis_vector_5'> +1.0257951e-04 </wgt>
</rwgt>
</event>
<event>
 4      1 +2.2016400e-08 2.43605200e+03 7.81860800e-03 7.91299200e-02
        2 -1    0    0  501    0 +0.0000000000e+00 +0.0000000000e+00 +1.4552268214e+03 1.4552268214e+03 0.0000000000e+00 0.0000e+00 -1.0000e+00
       -2 -1    0    0    0  501 -0.0000000000e+00 -0.0000000000e+00 -1.0194885782e+03 1.0194885782e+03 0.0000000000e+00 0.0000e+00 1.0000e+00
      -13  1    1    2    0    0 -4.3128929918e+02 +1.0903314931e+03 -1.1714348883e+02 1.1783699850e+03 0.0000000000e+00 0.0000e+00 1.0000e+00
       13  1    1    2    0    0 +4.3128929918e+02 -1.0903314931e+03 +5.5288173204e+02 1.2963454147e+03 0.0000000000e+00 0.0000e+00 -1.0000e+00
<mgrwt>
<rscale>  0 0.24360518E+04</rscale>
<asrwt>0</asrwt>
<pdfrwt beam="1">  1        2 0.22388105E+00 0.24360518E+04</pdfrwt>
<pdfrwt beam="2">  1       -2 0.15684440E+00 0.24360518E+04</pdfrwt>
<totfact> 0.38516916E+00</totfact>
</mgrwt>
<rwgt>
<wgt id='morphing_basis_vector_1'> +1.0859453e-04 </wgt>
<wgt id='morphing_basis_vector_2'> +7.5980997e-05 </wgt>
<wgt id='morphing_basis_vector_3'> +1.1791864e-04 </wgt>
<wgt id='morphing_basis_vector_4'> +7.9118949e-05 </wgt>
<wgt id='morphing_basis_vector_5'> +1.3036126e-04 </wgt>
</rwgt>
</event>
<event>
 4      1 +2.2016400e-08 2.32421700e+03 7.81860800e-03 7.95019000e-02
        2 -1    0    0  501    0 +0.0000000000e+00 +0.0000000000e+00 +2.3667478401e+03 2.3667478401e+03 0.0000000000e+00 0.0000e+00 -1.0000e+00
       -2 -1    0    0    0  501 -0.0000000000e+00 -0.0000000000e+00 -5.7061272469e+02 5.7061272469e+02 0.0000000000e+00 0.0000e+00 1.0000e+00
      -13  1    1    2    0    0 +9.6479450000e+02 -6.2294793420e+02 +6.7339463760e+02 1.3312974476e+03 0.0000000000e+00 0.0000e+00 1.0000e+00
       13  1    1    2    0    0 -9.6479450000e+02 +6.2294793420e+02 +1.1227404778e+03 1.6060631172e+03 0.0000000000e+00 0.0000e+00 -1.0000e+00
<mgrwt>
<rscale>  0 0.23242172E+04</rscale>
<asrwt>0</asrwt>
<pdfrwt beam="1">  1        2 0.36411505E+00 0.23242172E+04</pdfrwt>
<pdfrwt beam="2">  1       -2 0.87786574E-01 0.23242172E+04</pdfrwt>
<totfact> 0.53323159E+00</totfact>
</mgrwt>
<rwgt>
<wgt id='morphing_basis_vector_1'> +9.0921557e-05 </wgt>
<wgt id='morphing_basis_vector_2'> +6.5086355e-05 </wgt>
<wgt id='morphing_basis_vector_3'> +9.8765951e-05 </wgt>
<wgt id='morphing_basis_vector_4'> +6.3981698e-05 </wgt>
<wgt id='morphing_basis_vector_5'> +1.0762158e-04 </wgt>
</rwgt>
</event>
<event>
 4      1 +2.2016400e-08 2.55377900e+03 7.81860800e-03 7.87598400e-02
        2 -1    0    0  501    0 +0.0000000000e+00 +0.0000000000e+00 +1.4034095315e+03 1.4034095315e+03 0.0000000000e+00 0.0000e+00 -1.0000e+00
       -2 -1    0    0    0  501 -0.0000000000e+00 -0.0000000000e+00 -1.1617753769e+03 1.1617753769e+03 0.0000000000e+00 0.0000e+00 1.0000e+00
      -13  1    1    2    0    0 -1.2557987331e+03 +1.9280420325e+02 -7.1990681472e+00 1.2705336459e+03 0.0000000000e+00 0.0000e+00 1.0000e+00
       13  1    1    2    0    0 +1.2557987331e+03 -1.9280420325e+02 +2.4883322282e+02 1.2946512625e+03 0.0000000000e+00 0.0000e+00 -1.0000e+00
<mgrwt>
<rscale>  0 0.25537789E+04</rscale>
<asrwt>0</asrwt>
<pdfrwt beam="1">  1        2 0.21590916E+00 0.25537789E+04</pdfrwt>
<pdfrwt beam="2">  1       -2 0.17873467E+00 0.25537789E+04</pdfrwt>
<totfact> 0.27464956E+00</totfact>
</mgrwt>
<rwgt>
<wgt id='morphing_basis_vector_1'> +1.3244514e-04 </wgt>
<wgt id='morphing_basis_vector_2'> +9.6416792e-05 </wgt>
<wgt id='morphing_basis_vector_3'> +1.4487321e-04 </wgt>
<wgt id='morphing_basis_vector_4'> +9.2475905e-05 </wgt>
<wgt id='morphing_basis_vector_5'> +1.5756075e-04 </wgt>
</rwgt>
</event>
<event>
 4      1 +2.2016400e-08 2.64082200e+03 7.81860800e-03 7.84991000e-02
        2 -1    0    0  501    0 +0.0000000000e+00 +0.0000000000e+00 +9.0094062622e+02 9.0094062622e+02 0.0000000000e+00 0.0000e+00 1.0000e+00
       -2 -1    0    0    0  501 -0.0000000000e+00 -0.0000000000e+00 -1.9351836515e+03 1.9351836515e+03 0.0000000000e+00 0.0000e+00 -1.0000e+00
      -13  1    1    2    0    0 +4.9849898011e+02 +1.1308482878e+03 -1.7800013154e+01 1.2359756971e+03 0.0000000000e+00 0.0000e+00 1.0000e+00
       13  1    1    2    0    0 -4.9849898011e+02 -1.1308482878e+03 -1.0164430121e+03 1.6001485806e+03 0.0000000000e+00 0.0000e+00 -1.0000e+00
<mgrwt>
<rscale>  0 0.26408223E+04</rscale>
<asrwt>0</asrwt>
<pdfrwt beam="1">  1        2 0.13860625E+00 0.26408223E+04</pdfrwt>
<pdfrwt beam="2">  1       -2 0.29772056E+00 0.26408223E+04</pdfrwt>
<totfact> 0.78875088E-01</totfact>
</mgrwt>
<rwgt>
<wgt id='morphing_basis_vector_1'> +1.6514200e-04 </wgt>
<wgt id='morphing_basis_vector_2'> +1.5127028e-04 </wgt>
<wgt id='morphing_basis_vector_3'> +1.8711821e-04 </wgt>
<wgt id='morphing_basis_vector_4'> +7.7184569e-05 </wgt>
<wgt id='morphing_basis_vector_5'> +1.7811155e-04 </wgt>
</rwgt>
</event>
<event>
 4      1 +2.2016400e-08 2.23805700e+03 7.81860800e-03 7.98034900e-02
        2 -1    0    0  501    0 +0.0000000000e+00 +0.0000000000e+00 +3.5200634702e+03 3.5200634702e+03 0.0000000000e+00 0.0000e+00 -1.0000e+00
       -2 -1    0    0    0  501 -0.0000000000e+00 -0.0000000000e+00 -3.5573936598e+02 3.5573936598e+02 0.0000000000e+00 0.0000e+00 1.0000e+00
      -13  1    1    2    0    0 +1.0502064866e+03 +3.6843909125e+02 +1.3806199214e+03 1.7733562517e+03 0.0000000000e+00 0.0000e+00 1.0000e+00
       13  1    1    2    0    0 -1.0502064866e+03 -3.6843909125e+02 +1.7837041828e+03 2.1024465844e+03 0.0000000000e+00 0.0000e+00 -1.0000e+00
<mgrwt>
<rscale>  0 0.22380573E+04</rscale>
<asrwt>0</asrwt>
<pdfrwt beam="1">  1        2 0.54154820E+00 0.22380573E+04</pdfrwt>
<pdfrwt beam="2">  1       -2 0.54729136E-01 0.22380573E+04</pdfrwt>
<totfact> 0.26598542E+00</totfact>
</mgrwt>
<rwgt>
<wgt id='morphing_basis_vector_1'> +7.8681528e-05 </wgt>
<wgt id='morphing_basis_vector_2'> +5.6986136e-05 </wgt>
<wgt id='morphing_basis_vector_3'> +8.5405846e-05 </wgt>
<wgt id='morphing_basis_vector_4'> +5.4225463e-05 </wgt>
<wgt id='morphing_basis_vector_5'> +9.2261633e-05 </wgt>
</rwgt>
</event>
<event>
 4      1 +2.2016400e-08 2.30416800e+03 7.81860800e-03 7.95708700e-02
        2 -1    0    0  501    0 +0.0000000000e+00 +0.0000000000e+00 +2.4426113100e+03 2.4426113100e+03 0.0000000000e+00 0.0000e+00 -1.0000e+00
       -2 -1    0    0    0  501 -0.0000000000e+00 -0.0000000000e+00 -5.4339305656e+02 5.4339305656e+02 0.0000000000e+00 0.0000e+00 1.0000e+00
      -13  1    1    2    0    0 -8.4959222709e+02 -1.0653923470e+02 -4.9288047272e+01 8.5766361265e+02 0.0000000000e+00 0.0000e+00 1.0000e+00
       13  1    1    2    0    0 +8.4959222709e+02 +1.0653923470e+02 +1.9485063007e+03 2.1283407539e+03 0.0000000000e+00 0.0000e+00 -1.0000e+00
<mgrwt>
<rscale>  0 0.23041684E+04</rscale>
<asrwt>0</asrwt>
<pdfrwt beam="1">  1        2 0.37578635E+00 0.23041684E+04</pdfrwt>
<pdfrwt beam="2">  1       -2 0.83598933E-01 0.23041684E+04</pdfrwt>
<totfact> 0.53968000E+00</totfact>
</mgrwt>
<rwgt>
<wgt id='morphing_basis_vector_1'> +8.6224299e-05 </wgt>
<wgt id='morphing_basis_vector_2'> +5.8021385e-05 </wgt>
<wgt id='morphing_basis_vector_3'> +9.2926482e-05 </wgt>
<wgt id='morphing_basis_vector_4'> +6.5114521e-05 </wgt>
<wgt id='morphing_basis_vector_5'> +1.0417098e-04 </wgt>
</rwgt>
</event>
<event>
 4      1 +2.2016400e-08 2.24133700e+03 7.81860800e-03 7.97917600e-02
        2 -1    0    0  501    0 +0.0000000000e+00 +0.0000000000e+00 +1.5297488729e+03 1.5297488729e+03 0.0000000000e+00 0.0000e+00 -1.0000e+00
       -2 -1    0    0    0  501 -0.0000000000e+00 -0.0000000000e+00 -8.2098332382e+02 8.2098332382e+02 0.0000000000e+00 0.0000e+00 1.0000e+00
      -13  1    1    2    0    0 -4.8733586696e+00 -6.8011176584e+02 -5.7977626570e+02 8.9370928267e+02 0.0000000000e+00 0.0000e+00 1.0000e+00
       13  1    1    2    0    0 +4.8733586696e+00 +6.8011176584e+02 +1.2885418148e+03 1.4570229141e+03 0.0000000000e+00 0.0000e+00 -1.0000e+00
<mgrwt>
<rscale>  0 0.22413374E+04</rscale>
<asrwt>0</asrwt>
<pdfrwt beam="1">  1        2 0.23534598E+00 0.22413374E+04</pdfrwt>
<pdfrwt beam="2">  1       -2 0.12630513E+00 0.22413374E+04</pdfrwt>
<totfact> 0.64917236E+00</totfact>
</mgrwt>
<rwgt>
<wgt id='morphing_basis_vector_1'> +7.7249594e-05 </wgt>
<wgt id='morphing_basis_vector_2'> +5.1742709e-05 </wgt>
<wgt id='morphing_basis_vector_3'> +8.3086136e-05 </wgt>
<wgt id='morphing_basis_vector_4'> +5.8366162e-05 </wgt>
<wgt id='morphing_basis_vector_5'> +9.3118173e-05 </wgt>
</rwgt>
</event>
<event>
 4      1 +2.2016400e-08 2.57794900e+03 7.81860800e-03 7.86863900e-02
        2 -1    0    0  501    0 +0.0000000000e+00 +0.0000000000e+00 +1.7090350244e+03 1.7090350244e+03 0.0000000000e+00 0.0000e+00 -1.0000e+00
       -2 -1    0    0    0  501 -0.0000000000e+00 -0.0000000000e+00 -9.7216004816e+02 9.7216004816e+02 0.0000000000e+00 0.0000e+00 1.0000e+00
      -13  1    1    2    0    0 +4.4635362100e+02 -1.2298328574e+01 -8.8915097549e+02 9.9497349768e+02 0.0000000000e+00 0.0000e+00 1.0000e+00
       13  1    1    2    0    0 -4.4635362100e+02 +1.2298328574e+01 +1.6260259517e+03 1.6862215749e+03 0.0000000000e+00 0.0000e+00 -1.0000e+00
<mgrwt>
<rscale>  0 0.25779492E+04</rscale>
<asrwt>0</asrwt>
<pdfrwt beam="1">  1        2 0.26292846E+00 0.25779492E+04</pdfrwt>
<pdfrwt beam="2">  1       -2 0.14956308E+00 0.25779492E+04</pdfrwt>
<totfact> 0.31503721E+00</totfact>
</mgrwt>
<rwgt>
<wgt id='morphing_basis_vector_1'> +1.3406702e-04 </wgt>
<wgt id='morphing_basis_vector_2'> +9.0067873e-05 </wgt>
<wgt id='morphing_basis_vector_3'> +1.4522176e-04 </wgt>
<wgt id='morphing_basis_vector_4'> +1.0305796e-04 </wgt>
<wgt id='morphing_basis_vector_5'> +1.6425331e-04 </wgt>
</rwgt>
</event>
<event>
 4      1 +2.2016400e-08 2.61838000e+03 7.81860800e-03 7.85653300e-02
        2 -1    0    0  501    0 +0.0000000000e+00 +0.0000000000e+00 +1.3695838020e+03 1.3695838020e+03 0.0000000000e+00 0.0000e+00 1.0000e+00
       -2 -1    0    0    0  501 -0.0000000000e+00 -0.0000000000e+00 -1.2514597660e+03 1.2514597660e+03 0.0000000000e+00 0.0000e+00 -1.0000e+00
      -13  1    1    2    0    0 -2.6139723958e+02 -3.2571687915e+02 -1.1829896562e+03 1.2545455467e+03 0.0000000000e+00 0.0000e+00 -1.0000e+00
       13  1    1    2    0    0 +2.6139723958e+02 +3.2571687915e+02 +1.3011136921e+03 1.3664980212e+03 0.0000000000e+00 0.0000e+00 1.0000e+00
<mgrwt>
<rscale>  0 0.26183804E+04</rscale>
<asrwt>0</asrwt>
<pdfrwt beam="1">  1        2 0.21070520E+00 0.26183804E+04</pdfrwt>
<pdfrwt beam="2">  1       -2 0.19253227E+00 0.26183804E+04</pdfrwt>
<totfact> 0.22487981E+00</totfact>
</mgrwt>
<rwgt>
<wgt id='morphing_basis_vector_1'> +1.4256862e-04 </wgt>
<wgt id='morphing_basis_vector_2'> +9.5818011e-05 </wgt>
<wgt id='morphing_basis_vector_3'> +1.5453710e-04 </wgt>
<wgt id='morphing_basis_vector_4'> +1.0975914e-04 </wgt>
<wgt id='morphing_basis_vector_5'> +1.7493177e-04 </wgt>
</rwgt>
</event>
<event>
 4      1 +2.2016400e-08 2.55381200e+03 7.81860800e-03 7.87597400e-02
        2 -1    0    0  501    0 +0.0000000000e+00 +0.0000000000e+00 +3.4705907218e+03 3.4705907218e+03 0.0000000000e+00 0.0000e+00 1.0000e+00
       -2 -1    0    0    0  501 -0.0000000000e+00 -0.0000000000e+00 -4.6980154497e+02 4.6980154497e+02 0.0000000000e+00 0.0000e+00 -1.0000e+00
      -13  1    1    2    0    0 -7.5396785820e+02 +1.0012149146e+03 +1.8770440960e+03 2.2570319835e+03 0.0000000000e+00 0.0000e+00 -1.0000e+00
       13  1    1    2    0    0 +7.5396785820e+02 -1.0012149146e+03 +1.1237450809e+03 1.6833602833e+03 0.0000000000e+00 0.0000e+00 1.0000e+00
<mgrwt>
<rscale>  0 0.25538120E+04</rscale>
<asrwt>0</asrwt>
<pdfrwt beam="1">  1        2 0.53393702E+00 0.25538120E+04</pdfrwt>
<pdfrwt beam="2">  1       -2 0.72277163E-01 0.25538120E+04</pdfrwt>
<totfact> 0.15725217E+00</totfact>
</mgrwt>
<rwgt>
<wgt id='morphing_basis_vector_1'> +1.3838041e-04 </wgt>
<wgt id='morphing_basis_vector_2'> +1.1391081e-04 </wgt>
<wgt id='morphing_basis_vector_3'> +1.5396027e-04 </wgt>
<wgt id='morphing_basis_vector_4'> +8.0305779e-05 </wgt>
<wgt id='morphing_basis_vector_5'> +1.5658043e-04 </wgt>
</rwgt>
</event>
<event>
 4      1 +2.2016400e-08 2.25312900e+03 7.81860800e-03 7.97497400e-02
        2 -1    0    0  501    0 +0.0000000000e+00 +0.0000000000e+00 +2.5451070805e+03 2.5451070805e+03 0.0000000000e+00 0.0000e+00 -1.0000e+00
       -2 -1    0    0    0  501 -0.0000000000e+00 -0.0000000000e+00 -4.9866183469e+02 4.9866183469e+02 0.0000000000e+00 0.0000e+00 1.0000e+00
      -13  1    1    2    0    0 -7.7019395225e+02 +6.7242195683e+02 +3.8414523875e+02 1.0922076618e+03 0.0000000000e+00 0.0000e+00 1.0000e+00
       13  1    1    2    0    0 +7.7019395225e+02 -6.7242195683e+02 +1.6623000070e+03 1.9515612533e+03 0.0000000000e+00 0.0000e+00 -1.0000e+00
<mgrwt>
<rscale>  0 0.22531292E+04</rscale>
<asrwt>0</asrwt>
<pdfrwt beam="1">  1        2 0.39155493E+00 0.22531292E+04</pdfrwt>
<pdfrwt beam="2">  1       -2 0.76717207E-01 0.22531292E+04</pdfrwt>
<totfact> 0.57218405E+00</totfact>
</mgrwt>
<rwgt>
<wgt id='morphing_basis_vector_1'> +7.9344799e-05 </wgt>
<wgt id='morphing_basis_vector_2'> +5.4260839e-05 </wgt>
<wgt id='morphing_basis_vector_3'> +8.5569687e-05 </wgt>
<wgt id='morphing_basis_vector_4'> +5.8645035e-05 </wgt>
<wgt id='morphing_basis_vector_5'> +9.5046588e-05 </wgt>
</rwgt>
</event>
<event>
 4      1 +2.2016400e-08 2.26887400e+03 7.81860800e-03 7.96940400e-02
        2 -1    0    0  501    0 +0.0000000000e+00 +0.0000000000e+00 +2.7192085516e+03 2.7192085516e+03 0.0000000000e+00 0.0000e+00 -1.0000e+00
       -2 -1    0    0    0  501 -0.0000000000e+00 -0.0000000000e+00 -4.7327991638e+02 4.7327991638e+02 0.0000000000e+00 0.0000e+00 1.0000e+00
      -13  1    1    2    0    0 -8.8102149859e+02 +5.1808404233e+02 +4.3029051075e+02 1.1089453907e+03 0.0000000000e+00 0.0000e+00 1.0000e+00
       13  1    1    2    0    0 +8.8102149859e+02 -5.1808404233e+02 +1.8156381245e+03 2.0835430773e+03 0.0000000000e+00 0.0000e+00 -1.0000e+00
<mgrwt>
<rscale>  0 0.22688735E+04</rscale>
<asrwt>0</asrwt>
<pdfrwt beam="1">  1        2 0.41833977E+00 0.22688735E+04</pdfrwt>
<pdfrwt beam="2">  1       -2 0.72812296E-01 0.22688735E+04</pdfrwt>
<totfact> 0.50223485E+00</totfact>
</mgrwt>
<rwgt>
<wgt id='morphing_basis_vector_1'> +8.1514754e-05 </wgt>
<wgt id='morphing_basis_vector_2'> +5.5678934e-05 </wgt>
<wgt id='morphing_basis_vector_3'> +8.7931687e-05 </wgt>
<wgt id='morphing_basis_vector_4'> +6.0398203e-05 </wgt>
<wgt id='morphing_basis_vector_5'> +9.7779622e-05 </wgt>
</rwgt>
</event>
<event>
 4      1 +2.2016400e-08 2.53117000e+03 7.81860800e-03 7.88293100e-02
        2 -1    0    0  501    0 +0.0000000000e+00 +0.0000000000e+00 +2.7057725825e+03 2.7057725825e+03 0.0000000000e+00 0.0000e+00 1.0000e+00
       -2 -1    0    0    0  501 -0.0000000000e+00 -0.0000000000e+00 -5.9195853041e+02 5.9195853041e+02 0.0000000000e+00 0.0000e+00 -1.0000e+00
      -13  1    1    2    0    0 -1.1523056509e+03 -2.7533586975e+02 +4.7704862460e+02 1.2771818760e+03 0.0000000000e+00 0.0000e+00 -1.0000e+00
       13  1    1    2    0    0 +1.1523056509e+03 +2.7533586975e+02 +1.6367654275e+03 2.0205492369e+03 0.0000000000e+00 0.0000e+00 1.0000e+00
<mgrwt>
<rscale>  0 0.25311698E+04</rscale>
<asrwt>0</asrwt>
<pdfrwt beam="1">  1        2 0.41627270E+00 0.25311698E+04</pdfrwt>
<pdfrwt beam="2">  1       -2 0.91070544E-01 0.25311698E+04</pdfrwt>
<totfact> 0.30086451E+00</totfact>
</mgrwt>
<rwgt>
<wgt id='morphing_basis_vector_1'> +1.2584538e-04 </wgt>
<wgt id='morphing_basis_vector_2'> +8.7082634e-05 </wgt>
<wgt id='morphing_basis_vector_3'> +1.3670795e-04 </wgt>
<wgt id='morphing_basis_vector_4'> +9.3368775e-05 </wgt>
<wgt id='morphing_basis_vector_5'> +1.5232595e-04 </wgt>
</rwgt>
</event>
<event>
 4      1 +2.2016400e-08 2.55700400e+03 7.81860800e-03 7.87500000e-02
        2 -1    0    0  501    0 +0.0000000000e+00 +0.0000000000e+00 +7.5817488636e+02 7.5817488636e+02 0.0000000000e+00 0.0000e+00 -1.0000e+00
       -2 -1    0    0    0  501 -0.0000000000e+00 -0.0000000000e+00 -2.1559239450e+03 2.1559239450e+03 0.0000000000e+00 0.0000e+00 1.0000e+00
      -13  1    1    2    0    0 +9.6208149686e+02 -2.6073496010e+02 -1.6112979293e+03 1.8946937861e+03 0.0000000000e+00 0.0000e+00 1.0000e+00
       13  1    1    2    0    0 -9.6208149686e+02 +2.6073496010e+02 +2.1354887074e+02 1.0194050452e+03 0.0000000000e+00 0.0000e+00 -1.0000e+00
<mgrwt>
<rscale>  0 0.25570040E+04</rscale>
<asrwt>0</asrwt>
<pdfrwt beam="1">  1        2 0.11664229E+00 0.25570040E+04</pdfrwt>
<pdfrwt beam="2">  1       -2 0.33168060E+00 0.25570040E+04</pdfrwt>
<totfact> 0.58987270E-01</totfact>
</mgrwt>
<rwgt>
<wgt id='morphing_basis_vector_1'> +1.3008728e-04 </wgt>
<wgt id='morphing_basis_vector_2'> +8.7993478e-05 </wgt>
<wgt id='morphing_basis_vector_3'> +1.4098067e-04 </wgt>
<wgt id='morphing_basis_vector_4'> +9.9151865e-05 </wgt>
<wgt id='morphing_basis_vector_5'> +1.5887159e-04 </wgt>
</rwgt>
</event>
<event>
 4      1 +2.2016400e-08 2.48231000e+03 7.81860800e-03 7.89820000e-02
        2 -1    0    0  501    0 +0.0000000000e+00 +0.0000000000e+00 +2.3129119856e+03 2.3129119856e+03 0.0000000000e+00 0.0000e+00 1.0000e+00
       -2 -1    0    0    0  501 -0.0000000000e+00 -0.0000000000e+00 -6.6602860835e+02 6.6602860835e+02 0.0000000000e+00 0.0000e+00 -1.0000e+00
      -13  1    1    2    0    0 +1.8118682780e+02 +1.0735171218e+03 +1.5386639612e+03 1.8848751849e+03 0.0000000000e+00 0.0000e+00 -1.0000e+00
       13  1    1    2    0    0 -1.8118682780e+02 -1.0735171218e+03 +1.0821941609e+02 1.0940654091e+03 0.0000000000e+00 0.0000e+00 1.0000e+00
<mgrwt>
<rscale>  0 0.24823099E+04</rscale>
<asrwt>0</asrwt>
<pdfrwt beam="1">  1        2 0.35583261E+00 0.24823099E+04</pdfrwt>
<pdfrwt beam="2">  1       -2 0.10246594E+00 0.24823099E+04</pdfrwt>
<totfact> 0.39187342E+00</totfact>
</mgrwt>
<rwgt>
<wgt id='morphing_basis_vector_1'> +1.3561979e-04 </wgt>
<wgt id='morphing_basis_vector_2'> +1.3693941e-04 </wgt>
<wgt id='morphing_basis_vector_3'> +1.5557029e-04 </wgt>
<wgt id='morphing_basis_vector_4'> +4.7180595e-05 </wgt>
<wgt id='morphing_basis_vector_5'> +1.3759424e-04 </wgt>
</rwgt>
</event>
<event>
 4      1 +2.2016400e-08 2.27609400e+03 7.81860800e-03 7.96686600e-02
        2 -1    0    0  501    0 +0.0000000000e+00 +0.0000000000e+00 +2.3503338558e+03 2.3503338558e+03 0.0000000000e+00 0.0000e+00 -1.0000e+00
       -2 -1    0    0    0  501 -0.0000000000e+00 -0.0000000000e+00 -5.5104982460e+02 5.5104982460e+02 0.0000000000e+00 0.0000e+00 1.0000e+00
      -13  1    1    2    0    0 +1.0706605654e+03 -2.1123951136e+02 +4.8813255369e+02 1.1954955321e+03 0.0000000000e+00 0.0000e+00 1.0000e+00
       13  1    1    2    0    0 -1.0706605654e+03 +2.1123951136e+02 +1.3111514775e+03 1.7058881482e+03 0.0000000000e+00 0.0000e+00 -1.0000e+00
<mgrwt>
<rscale>  0 0.22760941E+04</rscale>
<asrwt>0</asrwt>
<pdfrwt beam="1">  1        2 0.36158982E+00 0.22760941E+04</pdfrwt>
<pdfrwt beam="2">  1       -2 0.84776897E-01 0.22760941E+04</pdfrwt>
<totfact> 0.59350193E+00</totfact>
</mgrwt>
<rwgt>
<wgt id='morphing_basis_vector_1'> +8.3034138e-05 </wgt>
<wgt id='morphing_basis_vector_2'> +5.7843499e-05 </wgt>
<wgt id='morphing_basis_vector_3'> +8.9795266e-05 </wgt>
<wgt id='morphing_basis_vector_4'> +6.0182534e-05 </wgt>
<wgt id='morphing_basis_vector_5'> +9.8969562e-05 </wgt>
</rwgt>
</event>
<event>
 4      1 +2.2016400e-08 2.63678500e+03 7.81860800e-03 7.85109700e-02
        2 -1    0    0  501    0 +0.0000000000e+00 +0.0000000000e+00 +2.6145417629e+03 2.6145417629e+03 0.0000000000e+00 0.0000e+00 -1.0000e+00
       -2 -1    0    0    0  501 -0.0000000000e+00 -0.0000000000e+00 -6.6480441611e+02 6.6480441611e+02 0.0000000000e+00 0.0000e+00 1.0000e+00
      -13  1    1    2    0    0 +2.5496971055e+02 -3.4825913914e+02 +2.5241828284e+03 2.5608188012e+03 0.0000000000e+00 0.0000e+00 -1.0000e+00
       13  1    1    2    0    0 -2.5496971055e+02 +3.4825913914e+02 -5.7444548163e+02 7.1852737781e+02 0.0000000000e+00 0.0000e+00 1.0000e+00
<mgrwt>
<rscale>  0 0.26367851E+04</rscale>
<asrwt>0</asrwt>
<pdfrwt beam="1">  1        2 0.40223719E+00 0.26367851E+04</pdfrwt>
<pdfrwt beam="2">  1       -2 0.10227760E+00 0.26367851E+04</pdfrwt>
<totfact> 0.25716084E+00</totfact>
</mgrwt>
<rwgt>
<wgt id='morphing_basis_vector_1'> +2.0047402e-04 </wgt>
<wgt id='morphing_basis_vector_2'> +2.5748237e-04 </wgt>
<wgt id='morphing_basis_vector_3'> +2.4188384e-04 </wgt>
<wgt id='morphing_basis_vector_4'> +1.8730024e-06 </wgt>
<wgt id='morphing_basis_vector_5'> +1.7091966e-04 </wgt>
</rwgt>
</event>
<event>
 4      1 +2.2016400e-08 2.34799800e+03 7.81860800e-03 7.94210300e-02
        2 -1    0    0  501    0 +0.0000000000e+00 +0.0000000000e+00 +1.8606581164e+03 1.8606581164e+03 0.0000000000e+00 0.0000e+00 1.0000e+00
       -2 -1    0    0    0  501 -0.0000000000e+00 -0.0000000000e+00 -7.4074499403e+02 7.4074499403e+02 0.0000000000e+00 0.0000e+00 -1.0000e+00
      -13  1    1    2    0    0 -4.4227388221e+01 +5.6668985493e+02 +1.6980377011e+03 1.7906494598e+03 0.0000000000e+00 0.0000e+00 1.0000e+00
       13  1    1    2    0    0 +4.4227388221e+01 -5.6668985493e+02 -5.7812457871e+02 8.1075365066e+02 0.0000000000e+00 0.0000e+00 -1.0000e+00
<mgrwt>
<rscale>  0 0.23479976E+04</rscale>
<asrwt>0</asrwt>
<pdfrwt beam="1">  1        2 0.28625509E+00 0.23479976E+04</pdfrwt>
<pdfrwt beam="2">  1       -2 0.11396077E+00 0.23479976E+04</pdfrwt>
<totfact> 0.54945515E+00</totfact>
</mgrwt>
<rwgt>
<wgt id='morphing_basis_vector_1'> +1.2572101e-04 </wgt>
<wgt id='morphing_basis_vector_2'> +1.5955137e-04 </wgt>
<wgt id='morphing_basis_vector_3'> +1.4977690e-04 </wgt>
<wgt id='morphing_basis_vector_4'> +3.4376736e-06 </wgt>
<wgt id='morphing_basis_vector_5'> +1.0706760e-04 </wgt>
</rwgt>
</event>
<event>
 4      1 +2.2016400e-08 2.35856100e+03 7.81860800e-03 7.93854200e-02
        2 -1    0    0  501    0 +0.0000000000e+00 +0.0000000000e+00 +3.2352360514e+03 3.2352360514e+03 0.0000000000e+00 0.0000e+00 -1.0000e+00
       -2 -1    0    0    0  501 -0.0000000000e+00 -0.0000000000e+00 -4.2986122564e+02 4.2986122564e+02 0.0000000000e+00 0.0000e+00 1.0000e+00
      -13  1    1    2    0    0 -8.6496151832e+02 -7.7764509313e+02 +1.7048595721e+03 2.0638402263e+03 0.0000000000e+00 0.0000e+00 1.0000e+00
       13  1    1    2    0    0 +8.6496151832e+02 +7.7764509313e+02 +1.1005152536e+03 1.6012570507e+03 0.0000000000e+00 0.0000e+00 -1.0000e+00
<mgrwt>
<rscale>  0 0.23585610E+04</rscale>
<asrwt>0</asrwt>
<pdfrwt beam="1">  1        2 0.49772861E+00 0.23585610E+04</pdfrwt>
<pdfrwt beam="2">  1       -2 0.66132498E-01 0.23585610E+04</pdfrwt>
<totfact> 0.28334673E+00</totfact>
</mgrwt>
<rwgt>
<wgt id='morphing_basis_vector_1'> +1.0053038e-04 </wgt>
<wgt id='morphing_basis_vector_2'> +8.1388262e-05 </wgt>
<wgt id='morphing_basis_vector_3'> +1.1107493e-04 </wgt>
<wgt id='morphing_basis_vector_4'> +5.9356660e-05 </wgt>
<wgt id='morphing_basis_vector_5'> +1.1353380e-04 </wgt>
</rwgt>
</event>
<event>
 4      1 +2.2016400e-08 2.41288800e+03 7.81860800e-03 7.92052600e-02
        2 -1    0    0  501    0 +0.0000000000e+00 +0.0000000000e+00 +1.6589026081e+03 1.6589026081e+03 0.0000000000e+00 0.0000e+00 -1.0000e+00
       -2 -1    0    0    0  501 -0.0000000000e+00 -0.0000000000e+00 -8.7739147976e+02 8.7739147976e+02 0.0000000000e+00 0.0000e+00 1.0000e+00
      -13  1    1    2    0    0 +7.7092771936e+02 -4.6886141419e+02 -4.5104421315e+02 1.0087623389e+03 0.0000000000e+00 0.0000e+00 1.0000e+00
       13  1    1    2    0    0 -7.7092771936e+02 +4.6886141419e+02 +1.2325553415e+03 1.5275317490e+03 0.0000000000e+00 0.0000e+00 -1.0000e+00
<mgrwt>
<rscale>  0 0.24128879E+04</rscale>
<asrwt>0</asrwt>
<pdfrwt beam="1">  1        2 0.25521579E+00 0.24128879E+04</pdfrwt>
<pdfrwt beam="2">  1       -2 0.13498330E+00 0.24128879E+04</pdfrwt>
<totfact> 0.45348466E+00</totfact>
</mgrwt>
<rwgt>
<wgt id='morphing_basis_vector_1'> +1.0341354e-04 </wgt>
<wgt id='morphing_basis_vector_2'> +6.9712191e-05 </wgt>
<wgt id='morphing_basis_vector_3'> +1.1173313e-04 </wgt>
<wgt id='morphing_basis_vector_4'> +7.8490758e-05 </wgt>
<wgt id='morphing_basis_vector_5'> +1.2560006e-04 </wgt>
</rwgt>
</event>
<event>
 4      1 +2.2016400e-08 2.39781300e+03 7.81860800e-03 7.92547600e-02
        2 -1    0    0  501    0 +0.0000000000e+00 +0.0000000000e+00 +1.4466996251e+03 1.4466996251e+03 0.0000000000e+00 0.0000e+00 1.0000e+00
       -2 -1    0    0    0  501 -0.0000000000e+00 -0.0000000000e+00 -9.9355581283e+02 9.9355581283e+02 0.0000000000e+00 0.0000e+00 -1.0000e+00
      -13  1    1    2    0    0 +1.4393937794e+02 -3.5855487650e+02 -9.2846059510e+02 1.0056436847e+03 0.0000000000e+00 0.0000e+00 -1.0000e+00
       13  1    1    2    0    0 -1.4393937794e+02 +3.5855487650e+02 +1.3816044074e+03 1.4346117532e+03 0.0000000000e+00 0.0000e+00 1.0000e+00
<mgrwt>
<rscale>  0 0.23978130E+04</rscale>
<asrwt>0</asrwt>
<pdfrwt beam="1">  1        2 0.22256917E+00 0.23978130E+04</pdfrwt>
<pdfrwt beam="2">  1       -2 0.15285474E+00 0.23978130E+04</pdfrwt>
<totfact> 0.42110924E+00</totfact>
</mgrwt>
<rwgt>
<wgt id='morphing_basis_vector_1'> +1.0072534e-04 </wgt>
<wgt id='morphing_basis_vector_2'> +6.7513610e-05 </wgt>
<wgt id='morphing_basis_vector_3'> +1.0872201e-04 </wgt>
<wgt id='morphing_basis_vector_4'> +7.6855230e-05 </wgt>
<wgt id='morphing_basis_vector_5'> +1.2247494e-04 </wgt>
</rwgt>
</event>
<event>
 4      1 +2.2016400e-08 2.25525000e+03 7.81860800e-03 7.97422100e-02
        2 -1    0    0  501    0 +0.0000000000e+00 +0.0000000000e+00 +2.1453951568e+03 2.1453951568e+03 0.0000000000e+00 0.0000e+00 -1.0000e+00
       -2 -1    0    0    0  501 -0.0000000000e+00 -0.0000000000e+00 -5.9268234411e+02 5.9268234411e+02 0.0000000000e+00 0.0000e+00 1.0000e+00
      -13  1    1    2    0    0 -6.2033296667e+02 -9.1417440077e+02 +5.0214924971e+02 1.2135409732e+03 0.0000000000e+00 0.0000e+00 1.0000e+00
       13  1    1    2    0    0 +6.2033296667e+02 +9.1417440077e+02 +1.0505635630e+03 1.5245365278e+03 0.0000000000e+00 0.0000e+00 -1.0000e+00
<mgrwt>
<rscale>  0 0.22552497E+04</rscale>
<asrwt>0</asrwt>
<pdfrwt beam="1">  1        2 0.33006079E+00 0.22552497E+04</pdfrwt>
<pdfrwt beam="2">  1       -2 0.91181900E-01 0.22552497E+04</pdfrwt>
<totfact> 0.65877892E+00</totfact>
</mgrwt>
<rwgt>
<wgt id='morphing_basis_vector_1'> +8.0473299e-05 </wgt>
<wgt id='morphing_basis_vector_2'> +5.6928822e-05 </wgt>
<wgt id='morphing_basis_vector_3'> +8.7141010e-05 </wgt>
<wgt id='morphing_basis_vector_4'> +5.7180499e-05 </wgt>
<wgt id='morphing_basis_vector_5'> +9.5275151e-05 </wgt>
</rwgt>
</event>
<event>
 4      1 +2.2016400e-08 2.49551900e+03 7.81860800e-03 7.89403700e-02
        2 -1    0    0  501    0 +0.0000000000e+00 +0.0000000000e+00 +1.3673928885e+03 1.3673928885e+03 0.0000000000e+00 0.0000e+00 1.0000e+00
       -2 -1    0    0    0  501 -0.0000000000e+00 -0.0000000000e+00 -1.1385927314e+03 1.1385927314e+03 0.0000000000e+00 0.0000e+00 -1.0000e+00
      -13  1    1    2    0    0 -7.7377439831e+02 +3.9550512581e+02 +1.0135619300e+03 1.3350876038e+03 0.0000000000e+00 0.0000e+00 1.0000e+00
       13  1    1    2    0    0 +7.7377439831e+02 -3.9550512581e+02 -7.8476177284e+02 1.1708980161e+03 0.0000000000e+00 0.0000e+00 -1.0000e+00
<mgrwt>
<rscale>  0 0.24955189E+04</rscale>
<asrwt>0</asrwt>
<pdfrwt beam="1">  1        2 0.21036814E+00 0.24955189E+04</pdfrwt>
<pdfrwt beam="2">  1       -2 0.17516811E+00 0.24955189E+04</pdfrwt>
<totfact> 0.30805152E+00</totfact>
</mgrwt>
<rwgt>
<wgt id='morphing_basis_vector_1'> +1.5296641e-04 </wgt>
<wgt id='morphing_basis_vector_2'> +1.8256211e-04 </wgt>
<wgt id='morphing_basis_vector_3'> +1.8101068e-04 </wgt>
<wgt id='morphing_basis_vector_4'> +1.8548006e-05 </wgt>
<wgt id='morphing_basis_vector_5'> +1.3818019e-04 </wgt>
</rwgt>
</event>
<event>
 4      1 +2.2016400e-08 2.32002600e+03 7.81860800e-03 7.95162600e-02
        2 -1    0    0  501    0 +0.0000000000e+00 +0.0000000000e+00 +2.0272403781e+03 2.0272403781e+03 0.0000000000e+00 0.0000e+00 1.0000e+00
       -2 -1    0    0    0  501 -0.0000000000e+00 -0.0000000000e+00 -6.6377441320e+02 6.6377441320e+02 0.0000000000e+00 0.0000e+00 -1.0000e+00
      -13  1    1    2    0    0 +4.1518685890e+02 +1.0875131424e+02 -5.6829139306e+02 7.1215313212e+02 0.0000000000e+00 0.0000e+00 -1.0000e+00
       13  1    1    2    0    0 -4.1518685890e+02 -1.0875131424e+02 +1.9317573580e+03 1.9788616592e+03 0.0000000000e+00 0.0000e+00 1.0000e+00
<mgrwt>
<rscale>  0 0.23200261E+04</rscale>
<asrwt>0</asrwt>
<pdfrwt beam="1">  1        2 0.31188313E+00 0.23200261E+04</pdfrwt>
<pdfrwt beam="2">  1       -2 0.10211914E+00 0.23200261E+04</pdfrwt>
<totfact> 0.58361821E+00</totfact>
</mgrwt>
<rwgt>
<wgt id='morphing_basis_vector_1'> +8.8449717e-05 </wgt>
<wgt id='morphing_basis_vector_2'> +5.9223351e-05 </wgt>
<wgt id='morphing_basis_vector_3'> +9.5303504e-05 </wgt>
<wgt id='morphing_basis_vector_4'> +6.7228546e-05 </wgt>
<wgt id='morphing_basis_vector_5'> +1.0713470e-04 </wgt>
</rwgt>
</event>
<event>
 4      1 +2.2016400e-08 2.34557400e+03 7.81860800e-03 7.94292300e-02
        2 -1    0    0  501    0 +0.0000000000e+00 +0.0000000000e+00 +2.4599980949e+03 2.4599980949e+03 0.0000000000e+00 0.0000e+00 -1.0000e+00
       -2 -1    0    0    0  501 -0.0000000000e+00 -0.0000000000e+00 -5.5911824410e+02 5.5911824410e+02 0.0000000000e+00 0.0000e+00 1.0000e+00
      -13  1    1    2    0    0 +6.7519778825e+02 -9.0232381037e+02 +5.3266066011e+02 1.2465182272e+03 0.0000000000e+00 0.0000e+00 1.0000e+00
       13  1    1    2    0    0 -6.7519778825e+02 +9.0232381037e+02 +1.3682191907e+03 1.7725981118e+03 0.0000000000e+00 0.0000e+00 -1.0000e+00
<mgrwt>
<rscale>  0 0.23455744E+04</rscale>
<asrwt>0</asrwt>
<pdfrwt beam="1">  1        2 0.37846124E+00 0.23455744E+04</pdfrwt>
<pdfrwt beam="2">  1       -2 0.86018193E-01 0.23455744E+04</pdfrwt>
<totfact> 0.49171247E+00</totfact>
</mgrwt>
<rwgt>
<wgt id='morphing_basis_vector_1'> +9.3509236e-05 </wgt>
<wgt id='morphing_basis_vector_2'> +6.5281663e-05 </wgt>
<wgt id='morphing_basis_vector_3'> +1.0131516e-04 </wgt>
<wgt id='morphing_basis_vector_4'> +6.7924893e-05 </wgt>
<wgt id='morphing_basis_vector_5'> +1.1181471e-04 </wgt>
</rwgt>
</event>
<event>
 4      1 +2.2016400e-08 2.39482100e+03 7.81860800e-03 7.92646300e-02
        2 -1    0    0  501    0 +0.0000000000e+00 +0.0000000000e+00 +2.4357935358e+03 2.4357935358e+03 0.0000000000e+00 0.0000e+00 1.0000e+00
       -2 -1    0    0    0  501 -0.0000000000e+00 -0.0000000000e+00 -5.8863453936e+02 5.8863453936e+02 0.0000000000e+00 0.0000e+00 -1.0000e+00
      -13  1    1    2    0    0 -7.3507147079e+01 -8.3307231751e+02 +2.0058365050e+03 2.1731987649e+03 0.0000000000e+00 0.0000e+00 1.0000e+00
       13  1    1    2    0    0 +7.3507147079e+01 +8.3307231751e+02 -1.5867750861e+02 8.5122931024e+02 0.0000000000e+00 0.0000e+00 -1.0000e+00
<mgrwt>
<rscale>  0 0.23948213E+04</rscale>
<asrwt>0</asrwt>
<pdfrwt beam="1">  1        2 0.37473746E+00 0.23948213E+04</pdfrwt>
<pdfrwt beam="2">  1       -2 0.90559161E-01 0.23948213E+04</pdfrwt>
<totfact> 0.44890033E+00</totfact>
</mgrwt>
<rwgt>
<wgt id='morphing_basis_vector_1'> +1.2992166e-04 </wgt>
<wgt id='morphing_basis_vector_2'> +1.5483875e-04 </wgt>
<wgt id='morphing_basis_vector_3'> +1.5315890e-04 </wgt>
<wgt id='morphing_basis_vector_4'> +1.5909772e-05 </wgt>
<wgt id='morphing_basis_vector_5'> +1.1696915e-04 </wgt>
</rwgt>
</event>
<event>
 4      1 +2.2016400e-08 2.49074300e+03 7.81860800e-03 7.89554000e-02
        2 -1    0    0  501    0 +0.0000000000e+00 +0.0000000000e+00 +2.5339412196e+03 2.5339412196e+03 0.0000000000e+00 0.0000e+00 -1.0000e+00
       -2 -1    0    0    0  501 -0.0000000000e+00 -0.0000000000e+00 -6.1207011781e+02 6.1207011781e+02 0.0000000000e+00 0.0000e+00 1.0000e+00
      -13  1    1    2    0    0 +1.7922893868e+02 +4.5168444774e+02 -4.8737793593e+02 6.8824349268e+02 0.0000000000e+00 0.0000e+00 1.0000e+00
       13  1    1    2    0    0 -1.7922893868e+02 -4.5168444774e+02 +2.4092490377e+03 2.4577678447e+03 0.0000000000e+00 0.0000e+00 -1.0000e+00
<mgrwt>
<rscale>  0 0.24907426E+04</rscale>
<asrwt>0</asrwt>
<pdfrwt beam="1">  1        2 0.38983711E+00 0.24907426E+04</pdfrwt>
<pdfrwt beam="2">  1       -2 0.94164635E-01 0.24907426E+04</pdfrwt>
<totfact> 0.35505827E+00</totfact>
</mgrwt>
<rwgt>
<wgt id='morphing_basis_vector_1'> +1.1703345e-04 </wgt>
<wgt id='morphing_basis_vector_2'> +7.8550789e-05 </wgt>
<wgt id='morphing_basis_vector_3'> +1.2656834e-04 </wgt>
<wgt id='morphing_basis_vector_4'> +8.9648521e-05 </wgt>
<wgt id='morphing_basis_vector_5'> +1.4288454e-04 </wgt>
</rwgt>
</event>
<event>
 4      1 +2.2016400e-08 2.28969700e+03 7.81860800e-03 7.96210900e-02
        2 -1    0    0  501    0 +0.0000000000e+00 +0.0000000000e+00 +7.7277392914e+02 7.7277392914e+02 0.0000000000e+00 0.0000e+00 1.0000e+00
       -2 -1    0    0    0  501 -0.0000000000e+00 -0.0000000000e+00 -1.6960698676e+03 1.6960698676e+03 0.0000000000e+00 0.0000e+00 -1.0000e+00
      -13  1    1    2    0    0 +4.3304100142e+02 +7.7338348120e+02 -1.2429310653e+03 1.5266054340e+03 0.0000000000e+00 0.0000e+00 -1.0000e+00
       13  1    1    2    0    0 -4.3304100142e+02 -7.7338348120e+02 +3.1963512688e+02 9.4223836275e+02 0.0000000000e+00 0.0000e+00 1.0000e+00
<mgrwt>
<rscale>  0 0.22896974E+04</rscale>
<asrwt>0</asrwt>
<pdfrwt beam="1">  1        2 0.11888830E+00 0.22896974E+04</pdfrwt>
<pdfrwt beam="2">  1       -2 0.26093383E+00 0.22896974E+04</pdfrwt>
<totfact> 0.17696698E+00</totfact>
</mgrwt>
<rwgt>
<wgt id='morphing_basis_vector_1'> +8.4149077e-05 </wgt>
<wgt id='morphing_basis_vector_2'> +5.6698700e-05 </wgt>
<wgt id='morphing_basis_vector_3'> +9.0673535e-05 </wgt>
<wgt id='morphing_basis_vector_4'> +6.3393564e-05 </wgt>
<wgt id='morphing_basis_vector_5'> +1.0153351e-04 </wgt>
</rwgt>
</event>
<event>
 4      1 +2.2016400e-08 2.30113200e+03 7.81860800e-03 7.95813700e-02
        2 -1    0    0  501    0 +0.0000000000e+00 +0.0000000000e+00 +3.3634398367e+03 3.3634398367e+03 0.0000000000e+00 0.0000e+00 -1.0000e+00
       -2 -1    0    0    0  501 -0.0000000000e+00 -0.0000000000e+00 -3.9358570656e+02 3.9358570656e+02 0.0000000000e+00 0.0000e+00 1.0000e+00
      -13  1    1    2    0    0 -2.9780007925e+02 -1.1110205508e+03 +1.4402053819e+03 1.8431611686e+03 0.0000000000e+00 0.0000e+00 1.0000e+00
       13  1    1    2    0    0 +2.9780007925e+02 +1.1110205508e+03 +1.5296487482e+03 1.9138643746e+03 0.0000000000e+00 0.0000e+00 -1.0000e+00
<mgrwt>
<rscale>  0 0.23011318E+04</rscale>
<asrwt>0</asrwt>
<pdfrwt beam="1">  1        2 0.51745226E+00 0.23011318E+04</pdfrwt>
<pdfrwt beam="2">  1       -2 0.60551649E-01 0.23011318E+04</pdfrwt>
<totfact> 0.27882073E+00</totfact>
</mgrwt>
<rwgt>
<wgt id='morphing_basis_vector_1'> +8.8519719e-05 </wgt>
<wgt id='morphing_basis_vector_2'> +6.5818408e-05 </wgt>
<wgt id='morphing_basis_vector_3'> +9.6560816e-05 </wgt>
<wgt id='morphing_basis_vector_4'> +5.9200512e-05 </wgt>
<wgt id='morphing_basis_vector_5'> +1.0316732e-04 </wgt>
</rwgt>
</event>
<event>
 4      1 +2.2016400e-08 2.29027700e+03 7.81860800e-03 7.96190700e-02
        2 -1    0    0  501    0 +0.0000000000e+00 +0.0000000000e+00 +1.7789723580e+03 1.7789723580e+03 0.0000000000e+00 0.0000e+00 1.0000e+00
       -2 -1    0    0    0  501 -0.0000000000e+00 -0.0000000000e+00 -7.3713454138e+02 7.3713454138e+02 0.0000000000e+00 0.0000e+00 -1.0000e+00
      -13  1    1    2    0    0 -2.4470241755e+02 -7.2049531127e+02 -4.1923773564e+02 8.6876524200e+02 0.0000000000e+00 0.0000e+00 -1.0000e+00
       13  1    1    2    0    0 +2.4470241755e+02 +7.2049531127e+02 +1.4610755522e+03 1.6473416574e+03 0.0000000000e+00 0.0000e+00 1.0000e+00
<mgrwt>
<rscale>  0 0.22902768E+04</rscale>
<asrwt>0</asrwt>
<pdfrwt beam="1">  1        2 0.27368805E+00 0.22902768E+04</pdfrwt>
<pdfrwt beam="2">  1       -2 0.11340531E+00 0.22902768E+04</pdfrwt>
<totfact> 0.62092901E+00</totfact>
</mgrwt>
<rwgt>
<wgt id='morphing_basis_vector_1'> +8.4132508e-05 </wgt>
<wgt id='morphing_basis_vector_2'> +5.6458973e-05 </wgt>
<wgt id='morphing_basis_vector_3'> +9.0614355e-05 </wgt>
<wgt id='morphing_basis_vector_4'> +6.3662504e-05 </wgt>
<wgt id='morphing_basis_vector_5'> +1.0165426e-04 </wgt>
</rwgt>
</event>
<event>
 4      1 +2.2016400e-08 2.48017400e+03 7.81860800e-03 7.89887600e-02
        2 -1    0    0  501    0 +0.0000000000e+00 +0.0000000000e+00 +1.7202697389e+03 1.7202697389e+03 0.0000000000e+00 0.0000e+00 -1.0000e+00
       -2 -1    0    0    0  501 -0.0000000000e+00 -0.0000000000e+00 -8.9393840640e+02 8.9393840640e+02 0.0000000000e+00 0.0000e+00 1.0000e+00
      -13  1    1    2    0    0 -5.8536377073e+02 -9.9479749915e+02 -6.4703254162e+01 1.1560533377e+03 0.0000000000e+00 0.0000e+00 1.0000e+00
       13  1    1    2    0    0 +5.8536377073e+02 +9.9479749915e+02 +8.9103458662e+02 1.4581548076e+03 0.0000000000e+00 0.0000e+00 -1.0000e+00
<mgrwt>
<rscale>  0 0.24801735E+04</rscale>
<asrwt>0</asrwt>
<pdfrwt beam="1">  1        2 0.26465688E+00 0.24801735E+04</pdfrwt>
<pdfrwt beam="2">  1       -2 0.13752899E+00 0.24801735E+04</pdfrwt>
<totfact> 0.39589033E+00</totfact>
</mgrwt>
<rwgt>
<wgt id='morphing_basis_vector_1'> +1.1606471e-04 </wgt>
<wgt id='morphing_basis_vector_2'> +8.0123113e-05 </wgt>
<wgt id='morphing_basis_vector_3'> +1.2592852e-04 </wgt>
<wgt id='morphing_basis_vector_4'> +8.6112535e-05 </wgt>
<wgt id='morphing_basis_vector_5'> +1.4028135e-04 </wgt>
</rwgt>
</event>
<event>
 4      1 +2.2016400e-08 2.36983000e+03 7.81860800e-03 7.93476400e-02
        2 -1    0    0  501    0 +0.0000000000e+00 +0.0000000000e+00 +2.0850850087e+03 2.0850850087e+03 0.0000000000e+00 0.0000e+00 1.0000e+00
       -2 -1    0    0    0  501 -0.0000000000e+00 -0.0000000000e+00 -6.7336493579e+02 6.7336493579e+02 0.0000000000e+00 0.0000e+00 -1.0000e+00
      -13  1    1    2    0    0 -8.9158324198e+02 -7.5159289044e+02 +4.6111657422e+02 1.2539701134e+03 0.0000000000e+00 0.0000e+00 -1.0000e+00
       13  1    1    2    0    0 +8.9158324198e+02 +7.5159289044e+02 +9.5060349867e+02 1.5044798310e+03 0.0000000000e+00 0.0000e+00 1.0000e+00
<mgrwt>
<rscale>  0 0.23698296E+04</rscale>
<asrwt>0</asrwt>
<pdfrwt beam="1">  1        2 0.32078231E+00 0.23698296E+04</pdfrwt>
<pdfrwt beam="2">  1       -2 0.10359461E+00 0.23698296E+04</pdfrwt>
<totfact> 0.52040286E+00</totfact>
</mgrwt>
<rwgt>
<wgt id='morphing_basis_vector_1'> +9.7978431e-05 </wgt>
<wgt id='morphing_basis_vector_2'> +6.9775745e-05 </wgt>
<wgt id='morphing_basis_vector_3'> +1.0647527e-04 </wgt>
<wgt id='morphing_basis_vector_4'> +6.9597806e-05 </wgt>
<wgt id='morphing_basis_vector_5'> +1.1648249e-04 </wgt>
</rwgt>
</event>
<event>
 4      1 +2.2016400e-08 2.31664300e+03 7.81860800e-03 7.95278700e-02
        2 -1    0    0  501    0 +0.0000000000e+00 +0.0000000000e+00 +4.0158157163e+03 4.0158157163e+03 0.0000000000e+00 0.0000e+00 -1.0000e+00
       -2 -1    0    0    0  501 -0.0000000000e+00 -0.0000000000e+00 -3.3410625569e+02 3.3410625569e+02 0.0000000000e+00 0.0000e+00 1.0000e+00
      -13  1    1    2    0    0 -6.5075609696e+02 +1.4519642815e+02 +6.2357168388e+01 6.6966701944e+02 0.0000000000e+00 0.0000e+00 1.0000e+00
       13  1    1    2    0    0 +6.5075609696e+02 -1.4519642815e+02 +3.6193522922e+03 3.6802549526e+03 0.0000000000e+00 0.0000e+00 -1.0000e+00
<mgrwt>
<rscale>  0 0.23166434E+04</rscale>
<asrwt>0</asrwt>
<pdfrwt beam="1">  1        2 0.61781777E+00 0.23166434E+04</pdfrwt>
<pdfrwt beam="2">  1       -2 0.51400965E-01 0.23166434E+04</pdfrwt>
<totfact> 0.12160973E+00</totfact>
</mgrwt>
<rwgt>
<wgt id='morphing_basis_vector_1'> +8.7973825e-05 </wgt>
<wgt id='morphing_basis_vector_2'> +5.8972656e-05 </wgt>
<wgt id='morphing_basis_vector_3'> +9.4796347e-05 </wgt>
<wgt id='morphing_basis_vector_4'> +6.6768514e-05 </wgt>
<wgt id='morphing_basis_vector_5'> +1.0649688e-04 </wgt>
</rwgt>
</event>
<event>
 4      1 +2.2016400e-08 2.45406100e+03 7.81860800e-03 7.90719400e-02
        2 -1    0    0  501    0 +0.0000000000e+00 +0.0000000000e+00 +2.9683573455e+03 2.9683573455e+03 0.0000000000e+00 0.0000e+00 1.0000e+00
       -2 -1    0    0    0  501 -0.0000000000e+00 -0.0000000000e+00 -5.0721782175e+02 5.0721782175e+02 0.0000000000e+00 0.0000e+00 -1.0000e+00
      -13  1    1    2    0    0 -1.0536723116e+03 +6.2128426081e+02 +1.0933736866e+03 1.6406356973e+03 0.0000000000e+00 0.0000e+00 -1.0000e+00
       13  1    1    2    0    0 +1.0536723116e+03 -6.2128426081e+02 +1.3677658372e+03 1.8349394699e+03 0.0000000000e+00 0.0000e+00 1.0000e+00
<mgrwt>
<rscale>  0 0.24540609E+04</rscale>
<asrwt>0</asrwt>
<pdfrwt beam="1">  1        2 0.45667035E+00 0.24540609E+04</pdfrwt>
<pdfrwt beam="2">  1       -2 0.78033513E-01 0.24540609E+04</pdfrwt>
<totfact> 0.29507455E+00</totfact>
</mgrwt>
<rwgt>
<wgt id='morphing_basis_vector_1'> +1.1339961e-04 </wgt>
<wgt id='morphing_basis_vector_2'> +8.2969379e-05 </wgt>
<wgt id='morphing_basis_vector_3'> +1.2388129e-04 </wgt>
<wgt id='morphing_basis_vector_4'> +7.8237764e-05 </wgt>
<wgt id='morphing_basis_vector_5'> +1.3404677e-04 </wgt>
</rwgt>
</event>
<event>
 4      1 +2.2016400e-08 2.40471900e+03 7.81860800e-03 7.92320400e-02
        2 -1    0    0  501    0 +0.0000000000e+00 +0.0000000000e+00 +2.5060620079e+03 2.5060620079e+03 0.0000000000e+00 0.0000e+00 1.0000e+00
       -2 -1    0    0    0  501 -0.0000000000e+00 -0.0000000000e+00 -5.7686841275e+02 5.7686841275e+02 0.0000000000e+00 0.0000e+00 -1.0000e+00
      -13  1    1    2    0    0 +2.7214981986e+02 +5.4370816092e+02 -3.6525220821e+02 7.0929067688e+02 0.0000000000e+00 0.0000e+00 -1.0000e+00
       13  1    1    2    0    0 -2.7214981986e+02 -5.4370816092e+02 +2.2944458033e+03 2.3736397437e+03 0.0000000000e+00 0.0000e+00 1.0000e+00
<mgrwt>
<rscale>  0 0.24047187E+04</rscale>
<asrwt>0</asrwt>
<pdfrwt beam="1">  1        2 0.38554799E+00 0.24047187E+04</pdfrwt>
<pdfrwt beam="2">  1       -2 0.88748988E-01 0.24047187E+04</pdfrwt>
<totfact> 0.42709563E+00</totfact>
</mgrwt>
<rwgt>
<wgt id='morphing_basis_vector_1'> +1.0189357e-04 </wgt>
<wgt id='morphing_basis_vector_2'> +6.8347408e-05 </wgt>
<wgt id='morphing_basis_vector_3'> +1.1000789e-04 </wgt>
<wgt id='morphing_basis_vector_4'> +7.7716945e-05 </wgt>
<wgt id='morphing_basis_vector_5'> +1.2390857e-04 </wgt>
</rwgt>
</event>
<event>
 4      1 +2.2016400e-08 2.38353300e+03 7.81860800e-03 7.93020000e-02
        2 -1    0    0  501    0 +0.0000000000e+00 +0.0000000000e+00 +3.5435149830e+03 3.5435149830e+03 0.0000000000e+00 0.0000e+00 1.0000e+00
       -2 -1    0    0    0  501 -0.0000000000e+00 -0.0000000000e+00 -4.0081881018e+02 4.0081881018e+02 0.0000000000e+00 0.0000e+00 -1.0000e+00
      -13  1    1    2    0    0 +8.8761842071e+02 -5.5996334551e+01 +2.5859450096e+02 9.2621442776e+02 0.0000000000e+00 0.0000e+00 -1.0000e+00
       13  1    1    2    0    0 -8.8761842071e+02 +5.5996334551e+01 +2.8841016719e+03 3.0181193654e+03 0.0000000000e+00 0.0000e+00 1.0000e+00
<mgrwt>
<rscale>  0 0.23835331E+04</rscale>
<asrwt>0</asrwt>
<pdfrwt beam="1">  1        2 0.54515613E+00 0.23835331E+04</pdfrwt>
<pdfrwt beam="2">  1       -2 0.61664435E-01 0.23835331E+04</pdfrwt>
<totfact> 0.19770152E+00</totfact>
</mgrwt>
<rwgt>
<wgt id='morphing_basis_vector_1'> +9.8538206e-05 </wgt>
<wgt id='morphing_basis_vector_2'> +6.6393990e-05 </wgt>
<wgt id='morphing_basis_vector_3'> +1.0639641e-04 </wgt>
<wgt id='morphing_basis_vector_4'> +7.4695155e-05 </wgt>
<wgt id='morphing_basis_vector_5'> +1.1951738e-04 </wgt>
</rwgt>
</event>
<event>
 4      1 +2.2016400e-08 2.33516800e+03 7.81860800e-03 7.94645400e-02
        2 -1    0    0  501    0 +0.0000000000e+00 +0.0000000000e+00 +9.6567016686e+02 9.6567016686e+02 0.0000000000e+00 0.0000e+00 -1.0000e+00
       -2 -1    0    0    0  501 -0.0000000000e+00 -0.0000000000e+00 -1.4117169332e+03 1.4117169332e+03 0.0000000000e+00 0.0000e+00 1.0000e+00
      -13  1    1    2    0    0 +6.4296528547e+02 +3.5929913331e+02 -1.1453565949e+03 1.3617422499e+03 0.0000000000e+00 0.0000e+00 1.0000e+00
       13  1    1    2    0    0 -6.4296528547e+02 -3.5929913331e+02 +6.9930982854e+02 1.0156448502e+03 0.0000000000e+00 0.0000e+00 -1.0000e+00
<mgrwt>
<rscale>  0 0.23351685E+04</rscale>
<asrwt>0</asrwt>
<pdfrwt beam="1">  1        2 0.14856464E+00 0.23351685E+04</pdfrwt>
<pdfrwt beam="2">  1       -2 0.21718722E+00 0.23351685E+04</pdfrwt>
<totfact> 0.26473457E+00</totfact>
</mgrwt>
<rwgt>
<wgt id='morphing_basis_vector_1'> +9.0799843e-05 </wgt>
<wgt id='morphing_basis_vector_2'> +6.0933393e-05 </wgt>
<wgt id='morphing_basis_vector_3'> +9.7893937e-05 </wgt>
<wgt id='morphing_basis_vector_4'> +6.8917642e-05 </wgt>
<wgt id='morphing_basis_vector_5'> +1.0999278e-04 </wgt>
</rwgt>
</event>
<event>
 4      1 +2.2016400e-08 2.33794400e+03 7.81860800e-03 7.94551000e-02
        2 -1    0    0  501    0 +0.0000000000e+00 +0.0000000000e+00 +1.3553733781e+03 1.3553733781e+03 0.0000000000e+00 0.0000e+00 -1.0000e+00
       -2 -1    0    0    0  501 -0.0000000000e+00 -0.0000000000e+00 -1.0082058326e+03 1.0082058326e+03 0.0000000000e+00 0.0000e+00 1.0000e+00
      -13  1    1    2    0    0 -5.7409121080e+02 +9.4157080491e+02 -2.1842958753e+02 1.1242098486e+03 0.0000000000e+00 0.0000e+00 1.0000e+00
       13  1    1    2    0    0 +5.7409121080e+02 -9.4157080491e+02 +5.6559713296e+02 1.2393693621e+03 0.0000000000e+00 0.0000e+00 -1.0000e+00
<mgrwt>
<rscale>  0 0.23379438E+04</rscale>
<asrwt>0</asrwt>
<pdfrwt beam="1">  1        2 0.20851898E+00 0.23379438E+04</pdfrwt>
<pdfrwt beam="2">  1       -2 0.15510859E+00 0.23379438E+04</pdfrwt>
<totfact> 0.45687979E+00</totfact>
</mgrwt>
<rwgt>
<wgt id='morphing_basis_vector_1'> +9.2075463e-05 </wgt>
<wgt id='morphing_basis_vector_2'> +6.3731064e-05 </wgt>
<wgt id='morphing_basis_vector_3'> +9.9640948e-05 </wgt>
<wgt id='morphing_basis_vector_4'> +6.7522511e-05 </wgt>
<wgt id='morphing_basis_vector_5'> +1.1038523e-04 </wgt>
</rwgt>
</event>
<event>
 4      1 +2.2016400e-08 2.51492900e+03 7.81860800e-03 7.88796700e-02
        2 -1    0    0  501    0 +0.0000000000e+00 +0.0000000000e+00 +1.2316802326e+03 1.2316802326e+03 0.0000000000e+00 0.0000e+00 -1.0000e+00
       -2 -1    0    0    0  501 -0.0000000000e+00 -0.0000000000e+00 -1.2837887888e+03 1.2837887888e+03 0.0000000000e+00 0.0000e+00 1.0000e+00
      -13  1    1    2    0    0 +1.0121315618e+03 +2.4898353078e+02 -7.2963554803e+02 1.2723093688e+03 0.0000000000e+00 0.0000e+00 1.0000e+00
       13  1    1    2    0    0 -1.0121315618e+03 -2.4898353078e+02 +6.7752699190e+02 1.2431596526e+03 0.0000000000e+00 0.0000e+00 -1.0000e+00
<mgrwt>
<rscale>  0 0.25149292E+04</rscale>
<asrwt>0</asrwt>
<pdfrwt beam="1">  1        2 0.18948927E+00 0.25149292E+04</pdfrwt>
<pdfrwt beam="2">  1       -2 0.19750597E+00 0.25149292E+04</pdfrwt>
<totfact> 0.25008282E+00</totfact>
</mgrwt>
<rwgt>
<wgt id='morphing_basis_vector_1'> +1.2196805e-04 </wgt>
<wgt id='morphing_basis_vector_2'> +8.2760393e-05 </wgt>
<wgt id='morphing_basis_vector_3'> +1.3213689e-04 </wgt>
<wgt id='morphing_basis_vector_4'> +9.2440813e-05 </wgt>
<wgt id='morphing_basis_vector_5'> +1.4852556e-04 </wgt>
</rwgt>
</event>
<event>
 4      1 +2.2016400e-08 2.43213200e+03 7.81860800e-03 7.91426100e-02
        2 -1    0    0  501    0 +0.0000000000e+00 +0.0000000000e+00 +1.0065721431e+03 1.0065721431e+03 0.0000000000e+00 0.0000e+00 -1.0000e+00
       -2 -1    0    0    0  501 -0.0000000000e+00 -0.0000000000e+00 -1.4691614072e+03 1.4691614072e+03 0.0000000000e+00 0.0000e+00 1.0000e+00
      -13  1    1    2    0    0 +7.0602502166e+02 +3.5296340480e+02 -1.1729528701e+03 1.4138150275e+03 0.0000000000e+00 0.0000e+00 1.0000e+00
       13  1    1    2    0    0 -7.0602502166e+02 -3.5296340480e+02 +7.1036360606e+02 1.0619185228e+03 0.0000000000e+00 0.0000e+00 -1.0000e+00
<mgrwt>
<rscale>  0 0.24321324E+04</rscale>
<asrwt>0</asrwt>
<pdfrwt beam="1">  1        2 0.15485725E+00 0.24321324E+04</pdfrwt>
<pdfrwt beam="2">  1       -2 0.22602483E+00 0.24321324E+04</pdfrwt>
<totfact> 0.21427822E+00</totfact>
</mgrwt>
<rwgt>
<wgt id='morphing_basis_vector_1'> +1.0660914e-04 </wgt>
<wgt id='morphing_basis_vector_2'> +7.1665586e-05 </wgt>
<wgt id='morphing_basis_vector_3'> +1.1519064e-04 </wgt>
<wgt id='morphing_basis_vector_4'> +8.1255776e-05 </wgt>
<wgt id='morphing_basis_vector_5'> +1.2972738e-04 </wgt>
</rwgt>
</event>
<event>
 4      1 +2.2016400e-08 2.51924100e+03 7.81860800e-03 7.88662600e-02
        2 -1    0    0  501    0 +0.0000000000e+00 +0.0000000000e+00 +2.2999019609e+03 2.2999019609e+03 0.0000000000e+00 0.0000e+00 -1.0000e+00
       -2 -1    0    0    0  501 -0.0000000000e+00 -0.0000000000e+00 -6.8987445329e+02 6.8987445329e+02 0.0000000000e+00 0.0000e+00 1.0000e+00
      -13  1    1    2    0    0 -5.5212052665e+02 -1.1167517461e+03 +1.0259967743e+03 1.6138899960e+03 0.0000000000e+00 0.0000e+00 1.0000e+00
       13  1    1    2    0    0 +5.5212052665e+02 +1.1167517461e+03 +5.8403073333e+02 1.3758864182e+03 0.0000000000e+00 0.0000e+00 -1.0000e+00
<mgrwt>
<rscale>  0 0.25192408E+04</rscale>
<asrwt>0</asrwt>
<pdfrwt beam="1">  1        2 0.35383107E+00 0.25192408E+04</pdfrwt>
<pdfrwt beam="2">  1       -2 0.10613453E+00 0.25192408E+04</pdfrwt>
<totfact> 0.36455992E+00</totfact>
</mgrwt>
<rwgt>
<wgt id='morphing_basis_vector_1'> +1.2993778e-04 </wgt>
<wgt id='morphing_basis_vector_2'> +1.0439861e-04 </wgt>
<wgt id='morphing_basis_vector_3'> +1.4395861e-04 </wgt>
<wgt id='morphing_basis_vector_4'> +7.8437409e-05 </wgt>
<wgt id='morphing_basis_vector_5'> +1.4837182e-04 </wgt>
</rwgt>
</event>
<event>
 4      1 +2.2016400e-08 2.37871800e+03 7.81860800e-03 7.93180000e-02
        2 -1    0    0  501    0 +0.0000000000e+00 +0.0000000000e+00 +1.7235682135e+03 1.7235682135e+03 0.0000000000e+00 0.0000e+00 1.0000e+00
       -2 -1    0    0    0  501 -0.0000000000e+00 -0.0000000000e+00 -8.2072448281e+02 8.2072448281e+02 0.0000000000e+00 0.0000e+00 -1.0000e+00
      -13  1    1    2    0    0 -5.9525342500e+02 +8.4799717941e+02 -1.7331344144e+02 1.0504586642e+03 0.0000000000e+00 0.0000e+00 -1.0000e+00
       13  1    1    2    0    0 +5.9525342500e+02 -8.4799717941e+02 +1.0761571721e+03 1.4938340321e+03 0.0000000000e+00 0.0000e+00 1.0000e+00
<mgrwt>
<rscale>  0 0.23787178E+04</rscale>
<asrwt>0</asrwt>
<pdfrwt beam="1">  1        2 0.26516434E+00 0.23787178E+04</pdfrwt>
<pdfrwt beam="2">  1       -2 0.12626531E+00 0.23787178E+04</pdfrwt>
<totfact> 0.50069815E+00</totfact>
</mgrwt>
<rwgt>
<wgt id='morphing_basis_vector_1'> +9.8053008e-05 </wgt>
<wgt id='morphing_basis_vector_2'> +6.6740191e-05 </wgt>
<wgt id='morphing_basis_vector_3'> +1.0599000e-04 </wgt>
<wgt id='morphing_basis_vector_4'> +7.3479201e-05 </wgt>
<wgt id='morphing_basis_vector_5'> +1.1849208e-04 </wgt>
</rwgt>
</event>
<event>
 4      1 +2.2016400e-08 2.23449600e+03 7.81860800e-03 7.98162600e-02
        2 -1    0    0  501    0 +0.0000000000e+00 +0.0000000000e+00 +2.3109068563e+03 2.3109068563e+03 0.0000000000e+00 0.0000e+00 -1.0000e+00
       -2 -1    0    0    0  501 -0.0000000000e+00 -0.0000000000e+00 -5.4015269844e+02 5.4015269844e+02 0.0000000000e+00 0.0000e+00 1.0000e+00
      -13  1    1    2    0    0 -1.1885979780e+02 +9.3094973942e+02 +1.1194095966e+02 9.4515916507e+02 0.0000000000e+00 0.0000e+00 1.0000e+00
       13  1    1    2    0    0 +1.1885979780e+02 -9.3094973942e+02 +1.6588131982e+03 1.9059003897e+03 0.0000000000e+00 0.0000e+00 -1.0000e+00
<mgrwt>
<rscale>  0 0.22344955E+04</rscale>
<asrwt>0</asrwt>
<pdfrwt beam="1">  1        2 0.35552413E+00 0.22344955E+04</pdfrwt>
<pdfrwt beam="2">  1       -2 0.83100416E-01 0.22344955E+04</pdfrwt>
<totfact> 0.65747780E+00</totfact>
</mgrwt>
<rwgt>
<wgt id='morphing_basis_vector_1'> +7.6555357e-05 </wgt>
<wgt id='morphing_basis_vector_2'> +5.1796484e-05 </wgt>
<wgt id='morphing_basis_vector_3'> +8.2420654e-05 </wgt>
<wgt id='morphing_basis_vector_4'> +5.7181499e-05 </wgt>
<wgt id='morphing_basis_vector_5'> +9.1931149e-05 </wgt>
</rwgt>
</event>
<event>
 4      1 +2.2016400e-08 2.60656000e+03 7.81860800e-03 7.86004900e-02
        2 -1    0    0  501    0 +0.0000000000e+00 +0.0000000000e+00 +1.8805413389e+03 1.8805413389e+03 0.0000000000e+00 0.0000e+00 1.0000e+00
       -2 -1    0    0    0  501 -0.0000000000e+00 -0.0000000000e+00 -9.0321791068e+02 9.0321791068e+02 0.0000000000e+00 0.0000e+00 -1.0000e+00
      -13  1    1    2    0    0 -8.4591827691e+02 -7.0074751912e+02 -2.6038425062e+02 1.1289042363e+03 0.0000000000e+00 0.0000e+00 -1.0000e+00
       13  1    1    2    0    0 +8.4591827691e+02 +7.0074751912e+02 +1.2377076789e+03 1.6548550133e+03 0.0000000000e+00 0.0000e+00 1.0000e+00
<mgrwt>
<rscale>  0 0.26065599E+04</rscale>
<asrwt>0</asrwt>
<pdfrwt beam="1">  1        2 0.28931405E+00 0.26065599E+04</pdfrwt>
<pdfrwt beam="2">  1       -2 0.13895660E+00 0.26065599E+04</pdfrwt>
<totfact> 0.30988235E+00</totfact>
</mgrwt>
<rwgt>
<wgt id='morphing_basis_vector_1'> +1.4054668e-04 </wgt>
<wgt id='morphing_basis_vector_2'> +9.5596827e-05 </wgt>
<wgt id='morphing_basis_vector_3'> +1.5254358e-04 </wgt>
<wgt id='morphing_basis_vector_4'> +1.0672932e-04 </wgt>
<wgt id='morphing_basis_vector_5'> +1.7167328e-04 </wgt>
</rwgt>
</event>
<event>
 4      1 +2.2016400e-08 2.63678000e+03 7.81860800e-03 7.85109800e-02
        2 -1    0    0  501    0 +0.0000000000e+00 +0.0000000000e+00 +1.0680797774e+03 1.0680797774e+03 0.0000000000e+00 0.0000e+00 1.0000e+00
       -2 -1    0    0    0  501 -0.0000000000e+00 -0.0000000000e+00 -1.6273612012e+03 1.6273612012e+03 0.0000000000e+00 0.0000e+00 -1.0000e+00
      -13  1    1    2    0    0 +7.2410831707e+02 -6.8346075481e+02 -1.1629831994e+03 1.5310066558e+03 0.0000000000e+00 0.0000e+00 -1.0000e+00
       13  1    1    2    0    0 -7.2410831707e+02 +6.8346075481e+02 +6.0370177556e+02 1.1644343228e+03 0.0000000000e+00 0.0000e+00 1.0000e+00
<mgrwt>
<rscale>  0 0.26367795E+04</rscale>
<asrwt>0</asrwt>
<pdfrwt beam="1">  1        2 0.16431997E+00 0.26367795E+04</pdfrwt>
<pdfrwt beam="2">  1       -2 0.25036326E+00 0.26367795E+04</pdfrwt>
<totfact> 0.13055786E+00</totfact>
</mgrwt>
<rwgt>
<wgt id='morphing_basis_vector_1'> +1.4682291e-04 </wgt>
<wgt id='morphing_basis_vector_2'> +9.9272698e-05 </wgt>
<wgt id='morphing_basis_vector_3'> +1.5931222e-04 </wgt>
<wgt id='morphing_basis_vector_4'> +1.1239120e-04 </wgt>
<wgt id='morphing_basis_vector_5'> +1.7991668e-04 </wgt>
</rwgt>
</event>
<event>
 4      1 +2.2016400e-08 2.44150600e+03 7.81860800e-03 7.91123100e-02
        2 -1    0    0  501    0 +0.0000000000e+00 +0.0000000000e+00 +3.0798016713e+03 3.0798016713e+03 0.0000000000e+00 0.0000e+00 1.0000e+00
       -2 -1    0    0    0  501 -0.0000000000e+00 -0.0000000000e+00 -4.8387470666e+02 4.8387470666e+02 0.0000000000e+00 0.0000e+00 -1.0000e+00
      -13  1    1    2    0    0 +5.9928773107e+02 +2.0705680310e+02 -2.2468180942e+02 6.7268136574e+02 0.0000000000e+00 0.0000e+00 -1.0000e+00
       13  1    1    2    0    0 -5.9928773107e+02 -2.0705680310e+02 +2.8206087740e+03 2.8909950122e+03 0.0000000000e+00 0.0000e+00 1.0000e+00
<mgrwt>
<rscale>  0 0.24415062E+04</rscale>
<asrwt>0</asrwt>
<pdfrwt beam="1">  1        2 0.47381563E+00 0.24415062E+04</pdfrwt>
<pdfrwt beam="2">  1       -2 0.74442264E-01 0.24415062E+04</pdfrwt>
<totfact> 0.27737735E+00</totfact>
</mgrwt>
<rwgt>
<wgt id='morphing_basis_vector_1'> +1.0818535e-04 </wgt>
<wgt id='morphing_basis_vector_2'> +7.2610942e-05 </wgt>
<wgt id='morphing_basis_vector_3'> +1.1689274e-04 </wgt>
<wgt id='morphing_basis_vector_4'> +8.2642859e-05 </wgt>
<wgt id='morphing_basis_vector_5'> +1.3177521e-04 </wgt>
</rwgt>
</event>
<event>
 4      1 +2.2016400e-08 2.41790700e+03 7.81860800e-03 7.91888600e-02
        2 -1    0    0  501    0 +0.0000000000e+00 +0.0000000000e+00 +2.8467155330e+03 2.8467155330e+03 0.0000000000e+00 0.0000e+00 1.0000e+00
       -2 -1    0    0    0  501 -0.0000000000e+00 -0.0000000000e+00 -5.1342294271e+02 5.1342294271e+02 0.0000000000e+00 0.0000e+00 -1.0000e+00
      -13  1    1    2    0    0 +8.8294770134e+02 +3.3195382563e+02 +1.1581828740e+02 9.5037038114e+02 0.0000000000e+00 0.0000e+00 -1.0000e+00
       13  1    1    2    0    0 -8.8294770134e+02 -3.3195382563e+02 +2.2174743029e+03 2.4097680946e+03 0.0000000000e+00 0.0000e+00 1.0000e+00
<mgrwt>
<rscale>  0 0.24179074E+04</rscale>
<asrwt>0</asrwt>
<pdfrwt beam="1">  1        2 0.43795623E+00 0.24179074E+04</pdfrwt>
<pdfrwt beam="2">  1       -2 0.78988147E-01 0.24179074E+04</pdfrwt>
<totfact> 0.34447247E+00</totfact>
</mgrwt>
<rwgt>
<wgt id='morphing_basis_vector_1'> +1.0431607e-04 </wgt>
<wgt id='morphing_basis_vector_2'> +7.0442422e-05 </wgt>
<wgt id='morphing_basis_vector_3'> +1.1274282e-04 </wgt>
<wgt id='morphing_basis_vector_4'> +7.9049764e-05 </wgt>
<wgt id='morphing_basis_vector_5'> +1.2665444e-04 </wgt>
</rwgt>
</event>
<event>
 4      1 +2.2016400e-08 2.48491700e+03 7.81860800e-03 7.89737700e-02
        2 -1    0    0  501    0 +0.0000000000e+00 +0.0000000000e+00 +1.8709922321e+03 1.8709922321e+03 0.0000000000e+00 0.0000e+00 -1.0000e+00
       -2 -1    0    0    0  501 -0.0000000000e+00 -0.0000000000e+00 -8.2507206564e+02 8.2507206564e+02 0.0000000000e+00 0.0000e+00 1.0000e+00
      -13  1    1    2    0    0 -4.1592116702e+02 +5.4122527781e+02 -6.0342017326e+02 9.1106043927e+02 0.0000000000e+00 0.0000e+00 1.0000e+00
       13  1    1    2    0    0 +4.1592116702e+02 -5.4122527781e+02 +1.6493403397e+03 1.7850038584e+03 0.0000000000e+00 0.0000e+00 -1.0000e+00
<mgrwt>
<rscale>  0 0.24849172E+04</rscale>
<asrwt>0</asrwt>
<pdfrwt beam="1">  1        2 0.28784496E+00 0.24849172E+04</pdfrwt>
<pdfrwt beam="2">  1       -2 0.12693416E+00 0.24849172E+04</pdfrwt>
<totfact> 0.40494289E+00</totfact>
</mgrwt>
<rwgt>
<wgt id='morphing_basis_vector_1'> +1.1598648e-04 </wgt>
<wgt id='morphing_basis_vector_2'> +7.7910346e-05 </wgt>
<wgt id='morphing_basis_vector_3'> +1.2543503e-04 </wgt>
<wgt id='morphing_basis_vector_4'> +8.8741308e-05 </wgt>
<wgt id='morphing_basis_vector_5'> +1.4153041e-04 </wgt>
</rwgt>
</event>
<event>
 4      1 +2.2016400e-08 2.37987600e+03 7.81860800e-03 7.93141500e-02
        2 -1    0    0  501    0 +0.0000000000e+00 +0.0000000000e+00 +1.9864331453e+03 1.9864331453e+03 0.0000000000e+00 0.0000e+00 -1.0000e+00
       -2 -1    0    0    0  501 -0.0000000000e+00 -0.0000000000e+00 -7.1281146160e+02 7.1281146160e+02 0.0000000000e+00 0.0000e+00 1.0000e+00
      -13  1    1    2    0    0 -5.3807518341e+02 +9.4910682210e+02 +1.1755521099e+03 1.6038240009e+03 0.0000000000e+00 0.0000e+00 -1.0000e+00
       13  1    1    2    0    0 +5.3807518341e+02 -9.4910682210e+02 +9.8069573807e+01 1.0954206060e+03 0.0000000000e+00 0.0000e+00 1.0000e+00
<mgrwt>
<rscale>  0 0.23798759E+04</rscale>
<asrwt>0</asrwt>
<pdfrwt beam="1">  1        2 0.30560510E+00 0.23798759E+04</pdfrwt>
<pdfrwt beam="2">  1       -2 0.10966330E+00 0.23798759E+04</pdfrwt>
<totfact> 0.51330421E+00</totfact>
</mgrwt>
<rwgt>
<wgt id='morphing_basis_vector_1'> +1.1130220e-04 </wgt>
<wgt id='morphing_basis_vector_2'> +1.0543346e-04 </wgt>
<wgt id='morphing_basis_vector_3'> +1.2595916e-04 </wgt>
<wgt id='morphing_basis_vector_4'> +4.7004712e-05 </wgt>
<wgt id='morphing_basis_vector_5'> +1.1657935e-04 </wgt>
</rwgt>
</event>
<event>
 4      1 +2.2016400e-08 2.55738400e+03 7.81860800e-03 7.87488400e-02
        2 -1    0    0  501    0 +0.0000000000e+00 +0.0000000000e+00 +2.6481717043e+03 2.6481717043e+03 0.0000000000e+00 0.0000e+00 -1.0000e+00
       -2 -1    0    0    0  501 -0.0000000000e+00 -0.0000000000e+00 -6.1742714805e+02 6.1742714805e+02 0.0000000000e+00 0.0000e+00 1.0000e+00
      -13  1    1    2    0    0 +4.0583903255e+02 +1.2124311390e+03 +1.0395503127e+03 1.6478347732e+03 0.0000000000e+00 0.0000e+00 1.0000e+00
       13  1    1    2    0    0 -4.0583903255e+02 -1.2124311390e+03 +9.9119424350e+02 1.6177640791e+03 0.0000000000e+00 0.0000e+00 -1.0000e+00
<mgrwt>
<rscale>  0 0.25573839E+04</rscale>
<asrwt>0</asrwt>
<pdfrwt beam="1">  1        2 0.40741103E+00 0.25573839E+04</pdfrwt>
<pdfrwt beam="2">  1       -2 0.94988793E-01 0.25573839E+04</pdfrwt>
<totfact> 0.29493133E+00</totfact>
</mgrwt>
<rwgt>
<wgt id='morphing_basis_vector_1'> +1.3491021e-04 </wgt>
<wgt id='morphing_basis_vector_2'> +1.0204768e-04 </wgt>
<wgt id='morphing_basis_vector_3'> +1.4833544e-04 </wgt>
<wgt id='morphing_basis_vector_4'> +8.9462392e-05 </wgt>
<wgt id='morphing_basis_vector_5'> +1.5817547e-04 </wgt>
</rwgt>
</event>
<event>
 4      1 +2.2016400e-08 2.44065800e+03 7.81860800e-03 7.91150400e-02
        2 -1    0    0  501    0 +0.0000000000e+00 +0.0000000000e+00 +1.8780030345e+03 1.8780030345e+03 0.0000000000e+00 0.0000e+00 -1.0000e+00
       -2 -1    0    0    0  501 -0.0000000000e+00 -0.0000000000e+00 -7.9297147120e+02 7.9297147120e+02 0.0000000000e+00 0.0000e+00 1.0000e+00
      -13  1    1    2    0    0 -7.7246914718e+02 +5.9273937648e+02 -2.6253517149e+02 1.0084509250e+03 0.0000000000e+00 0.0000e+00 1.0000e+00
       13  1    1    2    0    0 +7.7246914718e+02 -5.9273937648e+02 +1.3475667348e+03 1.6625235807e+03 0.0000000000e+00 0.0000e+00 -1.0000e+00
<mgrwt>
<rscale>  0 0.24406580E+04</rscale>
<asrwt>0</asrwt>
<pdfrwt beam="1">  1        2 0.28892354E+00 0.24406580E+04</pdfrwt>
<pdfrwt beam="2">  1       -2 0.12199561E+00 0.24406580E+04</pdfrwt>
<totfact> 0.44712311E+00</totfact>
</mgrwt>
<rwgt>
<wgt id='morphing_basis_vector_1'> +1.0827818e-04 </wgt>
<wgt id='morphing_basis_vector_2'> +7.3222128e-05 </wgt>
<wgt id='morphing_basis_vector_3'> +1.1709694e-04 </wgt>
<wgt id='morphing_basis_vector_4'> +8.2033904e-05 </wgt>
<wgt id='morphing_basis_vector_5'> +1.3154989e-04 </wgt>
</rwgt>
</event>
<event>
 4      1 +2.2016400e-08 2.35022200e+03 7.81860800e-03 7.94135200e-02
        2 -1    0    0  501    0 +0.0000000000e+00 +0.0000000000e+00 +1.7899970733e+03 1.7899970733e+03 0.0000000000e+00 0.0000e+00 1.0000e+00
       -2 -1    0    0    0  501 -0.0000000000e+00 -0.0000000000e+00 -7.7144594123e+02 7.7144594123e+02 0.0000000000e+00 0.0000e+00 -1.0000e+00
      -13  1    1    2    0    0 +7.2646967244e+02 +7.6637942711e+02 -5.2606810219e+01 1.0572904463e+03 0.0000000000e+00 0.0000e+00 -1.0000e+00
       13  1    1    2    0    0 -7.2646967244e+02 -7.6637942711e+02 +1.0711579423e+03 1.5041525683e+03 0.0000000000e+00 0.0000e+00 1.0000e+00
<mgrwt>
<rscale>  0 0.23502221E+04</rscale>
<asrwt>0</asrwt>
<pdfrwt beam="1">  1        2 0.27538416E+00 0.23502221E+04</pdfrwt>
<pdfrwt beam="2">  1       -2 0.11868399E+00 0.23502221E+04</pdfrwt>
<totfact> 0.54201846E+00</totfact>
</mgrwt>
<rwgt>
<wgt id='morphing_basis_vector_1'> +9.3634964e-05 </wgt>
<wgt id='morphing_basis_vector_2'> +6.4005670e-05 </wgt>
<wgt id='morphing_basis_vector_3'> +1.0120433e-04 </wgt>
<wgt id='morphing_basis_vector_4'> +6.9707069e-05 </wgt>
<wgt id='morphing_basis_vector_5'> +1.1281596e-04 </wgt>
</rwgt>
</event>
<event>
 4      1 +2.2016400e-08 2.28166800e+03 7.81860800e-03 7.96491300e-02
        2 -1    0    0  501    0 +0.0000000000e+00 +0.0000000000e+00 +2.0193713641e+03 2.0193713641e+03 0.0000000000e+00 0.0000e+00 1.0000e+00
       -2 -1    0    0    0  501 -0.0000000000e+00 -0.0000000000e+00 -6.4450873942e+02 6.4450873942e+02 0.0000000000e+00 0.0000e+00 -1.0000e+00
      -13  1    1    2    0    0 +7.0895036694e+01 -9.0951964173e+02 -1.1233757574e+02 9.1916908990e+02 0.0000000000e+00 0.0000e+00 -1.0000e+00
       13  1    1    2    0    0 -7.0895036694e+01 +9.0951964173e+02 +1.4872002004e+03 1.7447110136e+03 0.0000000000e+00 0.0000e+00 1.0000e+00
<mgrwt>
<rscale>  0 0.22816682E+04</rscale>
<asrwt>0</asrwt>
<pdfrwt beam="1">  1        2 0.31067251E+00 0.22816682E+04</pdfrwt>
<pdfrwt beam="2">  1       -2 0.99155192E-01 0.22816682E+04</pdfrwt>
<totfact> 0.63529630E+00</totfact>
</mgrwt>
<rwgt>
<wgt id='morphing_basis_vector_1'> +8.3032251e-05 </wgt>
<wgt id='morphing_basis_vector_2'> +5.6028501e-05 </wgt>
<wgt id='morphing_basis_vector_3'> +8.9468629e-05 </wgt>
<wgt id='morphing_basis_vector_4'> +6.2416477e-05 </wgt>
<wgt id='morphing_basis_vector_5'> +1.0008884e-04 </wgt>
</rwgt>
</event>
<event>
 4      1 +2.2016400e-08 2.35542600e+03 7.81860800e-03 7.93959700e-02
        2 -1    0    0  501    0 +0.0000000000e+00 +0.0000000000e+00 +6.9823218785e+02 6.9823218785e+02 0.0000000000e+00 0.0000e+00 1.0000e+00
       -2 -1    0    0    0  501 -0.0000000000e+00 -0.0000000000e+00 -1.9864569102e+03 1.9864569102e+03 0.0000000000e+00 0.0000e+00 -1.0000e+00
      -13  1    1    2    0    0 +4.7249317898e+02 +4.6981194761e+02 -1.7509614746e+03 1.8734564729e+03 0.0000000000e+00 0.0000e+00 -1.0000e+00
       13  1    1    2    0    0 -4.7249317898e+02 -4.6981194761e+02 +4.6273675222e+02 8.1123262518e+02 0.0000000000e+00 0.0000e+00 1.0000e+00
<mgrwt>
<rscale>  0 0.23554262E+04</rscale>
<asrwt>0</asrwt>
<pdfrwt beam="1">  1        2 0.10742034E+00 0.23554262E+04</pdfrwt>
<pdfrwt beam="2">  1       -2 0.30560875E+00 0.23554262E+04</pdfrwt>
<totfact> 0.99180774E-01</totfact>
</mgrwt>
<rwgt>
<wgt id='morphing_basis_vector_1'> +9.3918500e-05 </wgt>
<wgt id='morphing_basis_vector_2'> +6.2987102e-05 </wgt>
<wgt id='morphing_basis_vector_3'> +1.0129296e-04 </wgt>
<wgt id='morphing_basis_vector_4'> +7.1427012e-05 </wgt>
<wgt id='morphing_basis_vector_5'> +1.1392104e-04 </wgt>
</rwgt>
</event>
<event>
 4      1 +2.2016400e-08 2.36417200e+03 7.81860800e-03 7.93665800e-02
        2 -1    0    0  501    0 +0.0000000000e+00 +0.0000000000e+00 +9.6352502737e+02 9.6352502737e+02 0.0000000000e+00 0.0000e+00 1.0000e+00
       -2 -1    0    0    0  501 -0.0000000000e+00 -0.0000000000e+00 -1.4502244321e+03 1.4502244321e+03 0.0000000000e+00 0.0000e+00 -1.0000e+00
      -13  1    1    2    0    0 -2.3026180271e+02 -3.2007936201e+02 -1.3811046876e+03 1.4362873855e+03 0.0000000000e+00 0.0000e+00 -1.0000e+00
       13  1    1    2    0    0 +2.3026180271e+02 +3.2007936201e+02 +8.9440528292e+02 9.7746207388e+02 0.0000000000e+00 0.0000e+00 1.0000e+00
<mgrwt>
<rscale>  0 0.23641722E+04</rscale>
<asrwt>0</asrwt>
<pdfrwt beam="1">  1        2 0.14823462E+00 0.23641722E+04</pdfrwt>
<pdfrwt beam="2">  1       -2 0.22311145E+00 0.23641722E+04</pdfrwt>
<totfact> 0.24047904E+00</totfact>
</mgrwt>
<rwgt>
<wgt id='morphing_basis_vector_1'> +9.5268178e-05 </wgt>
<wgt id='morphing_basis_vector_2'> +6.3826403e-05 </wgt>
<wgt id='morphing_basis_vector_3'> +1.0275509e-04 </wgt>
<wgt id='morphing_basis_vector_4'> +7.2574845e-05 </wgt>
<wgt id='morphing_basis_vector_5'> +1.1565250e-04 </wgt>
</rwgt>
</event>
<event>
 4      1 +2.2016400e-08 2.28061400e+03 7.81860800e-03 7.96528100e-02
        2 -1    0    0  501    0 +0.0000000000e+00 +0.0000000000e+00 +8.8103564537e+02 8.8103564537e+02 0.0000000000e+00 0.0000e+00 -1.0000e+00
       -2 -1    0    0    0  501 -0.0000000000e+00 -0.0000000000e+00 -1.4758771089e+03 1.4758771089e+03 0.0000000000e+00 0.0000e+00 1.0000e+00
      -13  1    1    2    0    0 +8.2550088237e+02 -8.1754861782e+00 -1.1103643702e+03 1.3836284111e+03 0.0000000000e+00 0.0000e+00 1.0000e+00
       13  1    1    2    0    0 -8.2550088237e+02 +8.1754861782e+00 +5.1552290666e+02 9.7328434317e+02 0.0000000000e+00 0.0000e+00 -1.0000e+00
<mgrwt>
<rscale>  0 0.22806143E+04</rscale>
<asrwt>0</asrwt>
<pdfrwt beam="1">  1        2 0.13554395E+00 0.22806143E+04</pdfrwt>
<pdfrwt beam="2">  1       -2 0.22705801E+00 0.22806143E+04</pdfrwt>
<totfact> 0.25679773E+00</totfact>
</mgrwt>
<rwgt>
<wgt id='morphing_basis_vector_1'> +8.2786087e-05 </wgt>
<wgt id='morphing_basis_vector_2'> +5.5644358e-05 </wgt>
<wgt id='morphing_basis_vector_3'> +8.9160685e-05 </wgt>
<wgt id='morphing_basis_vector_4'> +6.2492616e-05 </wgt>
<wgt id='morphing_basis_vector_5'> +9.9916683e-05 </wgt>
</rwgt>
</event>
<event>
 4      1 +2.2016400e-08 2.23909600e+03 7.81860800e-03 7.97997800e-02
        2 -1    0    0  501    0 +0.0000000000e+00 +0.0000000000e+00 +1.2759487708e+03 1.2759487708e+03 0.0000000000e+00 0.0000e+00 -1.0000e+00
       -2 -1    0    0    0  501 -0.0000000000e+00 -0.0000000000e+00 -9.8231791172e+02 9.8231791172e+02 0.0000000000e+00 0.0000e+00 1.0000e+00
      -13  1    1    2    0    0 +4.9685882315e+02 +3.3866518127e+02 -8.0563479718e+02 1.0052911129e+03 0.0000000000e+00 0.0000e+00 1.0000e+00
       13  1    1    2    0    0 -4.9685882315e+02 -3.3866518127e+02 +1.0992656563e+03 1.2529755697e+03 0.0000000000e+00 0.0000e+00 -1.0000e+00
<mgrwt>
<rscale>  0 0.22390956E+04</rscale>
<asrwt>0</asrwt>
<pdfrwt beam="1">  1        2 0.19629981E+00 0.22390956E+04</pdfrwt>
<pdfrwt beam="2">  1       -2 0.15112583E+00 0.22390956E+04</pdfrwt>
<totfact> 0.55147642E+00</totfact>
</mgrwt>
<rwgt>
<wgt id='morphing_basis_vector_1'> +7.6927675e-05 </wgt>
<wgt id='morphing_basis_vector_2'> +5.1483297e-05 </wgt>
<wgt id='morphing_basis_vector_3'> +8.2727284e-05 </wgt>
<wgt id='morphing_basis_vector_4'> +5.8166431e-05 </wgt>
<wgt id='morphing_basis_vector_5'> +9.2743220e-05 </wgt>
</rwgt>
</event>
<event>
 4      1 +2.2016400e-08 2.41083300e+03 7.81860800e-03 7.92119900e-02
        2 -1    0    0  501    0 +0.0000000000e+00 +0.0000000000e+00 +1.4871373931e+03 1.4871373931e+03 0.0000000000e+00 0.0000e+00 1.0000e+00
       -2 -1    0    0    0  501 -0.0000000000e+00 -0.0000000000e+00 -9.7706406637e+02 9.7706406637e+02 0.0000000000e+00 0.0000e+00 -1.0000e+00
      -13  1    1    2    0    0 -8.4214006238e+02 +8.6245267658e+02 +2.5708208984e+02 1.2325241194e+03 0.0000000000e+00 0.0000e+00 1.0000e+00
       13  1    1    2    0    0 +8.4214006238e+02 -8.6245267658e+02 +2.5299123686e+02 1.2316773400e+03 0.0000000000e+00 0.0000e+00 -1.0000e+00
<mgrwt>
<rscale>  0 0.24108326E+04</rscale>
<asrwt>0</asrwt>
<pdfrwt beam="1">  1        2 0.22879037E+00 0.24108326E+04</pdfrwt>
<pdfrwt beam="2">  1       -2 0.15031755E+00 0.24108326E+04</pdfrwt>
<totfact> 0.41890229E+00</totfact>
</mgrwt>
<rwgt>
<wgt id='morphing_basis_vector_1'> +1.0669080e-04 </wgt>
<wgt id='morphing_basis_vector_2'> +8.0175610e-05 </wgt>
<wgt id='morphing_basis_vector_3'> +1.1685017e-04 </wgt>
<wgt id='morphing_basis_vector_4'> +7.0822557e-05 </wgt>
<wgt id='morphing_basis_vector_5'> +1.2456938e-04 </wgt>
</rwgt>
</event>
<event>
 4      1 +2.2016400e-08 2.63760600e+03 7.81860800e-03 7.85085500e-02
        2 -1    0    0  501    0 +0.0000000000e+00 +0.0000000000e+00 +1.1002060360e+03 1.1002060360e+03 0.0000000000e+00 0.0000e+00 1.0000e+00
       -2 -1    0    0    0  501 -0.0000000000e+00 -0.0000000000e+00 -1.5808321074e+03 1.5808321074e+03 0.0000000000e+00 0.0000e+00 -1.0000e+00
      -13  1    1    2    0    0 -7.8924118151e+01 -1.1673976751e+03 -8.5876816678e+02 1.4513886842e+03 0.0000000000e+00 0.0000e+00 -1.0000e+00
       13  1    1    2    0    0 +7.8924118151e+01 +1.1673976751e+03 +3.7814209533e+02 1.2296494592e+03 0.0000000000e+00 0.0000e+00 1.0000e+00
<mgrwt>
<rscale>  0 0.26376058E+04</rscale>
<asrwt>0</asrwt>
<pdfrwt beam="1">  1        2 0.16926247E+00 0.26376058E+04</pdfrwt>
<pdfrwt beam="2">  1       -2 0.24320494E+00 0.26376058E+04</pdfrwt>
<totfact> 0.13996128E+00</totfact>
</mgrwt>
<rwgt>
<wgt id='morphing_basis_vector_1'> +1.4754712e-04 </wgt>
<wgt id='morphing_basis_vector_2'> +1.0099564e-04 </wgt>
<wgt id='morphing_basis_vector_3'> +1.6034643e-04 </wgt>
<wgt id='morphing_basis_vector_4'> +1.1141663e-04 </wgt>
<wgt id='morphing_basis_vector_5'> +1.8005392e-04 </wgt>
</rwgt>
</event>
<event>
 4      1 +2.2016400e-08 2.25543100e+03 7.81860800e-03 7.97415600e-02
        2 -1    0    0  501    0 +0.0000000000e+00 +0.0000000000e+00 +1.7602926452e+03 1.7602926452e+03 0.0000000000e+00 0.0000e+00 1.0000e+00
       -2 -1    0    0    0  501 -0.0000000000e+00 -0.0000000000e+00 -7.2246083625e+02 7.2246083625e+02 0.0000000000e+00 0.0000e+00 -1.0000e+00
      -13  1    1    2    0    0 -6.8490499940e+02 +2.4524749353e+02 -4.2961748389e+02 8.4487417628e+02 0.0000000000e+00 0.0000e+00 -1.0000e+00
       13  1    1    2    0    0 +6.8490499940e+02 -2.4524749353e+02 +1.4674492929e+03 1.6378793052e+03 0.0000000000e+00 0.0000e+00 1.0000e+00
<mgrwt>
<rscale>  0 0.22554312E+04</rscale>
<asrwt>0</asrwt>
<pdfrwt beam="1">  1        2 0.27081425E+00 0.22554312E+04</pdfrwt>
<pdfrwt beam="2">  1       -2 0.11114782E+00 0.22554312E+04</pdfrwt>
<totfact> 0.67113553E+00</totfact>
</mgrwt>
<rwgt>
<wgt id='morphing_basis_vector_1'> +7.9194572e-05 </wgt>
<wgt id='morphing_basis_vector_2'> +5.3093177e-05 </wgt>
<wgt id='morphing_basis_vector_3'> +8.5216130e-05 </wgt>
<wgt id='morphing_basis_vector_4'> +5.9840021e-05 </wgt>
<wgt id='morphing_basis_vector_5'> +9.5518045e-05 </wgt>
</rwgt>
</event>
<event>
 4      1 +2.2016400e-08 2.24406800e+03 7.81860800e-03 7.97820000e-02
        2 -1    0    0  501    0 +0.0000000000e+00 +0.0000000000e+00 +1.9119729308e+03 1.9119729308e+03 0.0000000000e+00 0.0000e+00 -1.0000e+00
       -2 -1    0    0    0  501 -0.0000000000e+00 -0.0000000000e+00 -6.5846144874e+02 6.5846144874e+02 0.0000000000e+00 0.0000e+00 1.0000e+00
      -13  1    1    2    0    0 +5.9927994640e+02 +3.7311321318e+02 -3.7221242655e+02 7.9805514501e+02 0.0000000000e+00 0.0000e+00 1.0000e+00
       13  1    1    2    0    0 -5.9927994640e+02 -3.7311321318e+02 +1.6257239086e+03 1.7723792346e+03 0.0000000000e+00 0.0000e+00 -1.0000e+00
<mgrwt>
<rscale>  0 0.22440682E+04</rscale>
<asrwt>0</asrwt>
<pdfrwt beam="1">  1        2 0.29414968E+00 0.22440682E+04</pdfrwt>
<pdfrwt beam="2">  1       -2 0.10130176E+00 0.22440682E+04</pdfrwt>
<totfact> 0.69538773E+00</totfact>
</mgrwt>
<rwgt>
<wgt id='morphing_basis_vector_1'> +7.7628927e-05 </wgt>
<wgt id='morphing_basis_vector_2'> +5.2018074e-05 </wgt>
<wgt id='morphing_basis_vector_3'> +8.3503643e-05 </wgt>
<wgt id='morphing_basis_vector_4'> +5.8638816e-05 </wgt>
<wgt id='morphing_basis_vector_5'> +9.3578746e-05 </wgt>
</rwgt>
</event>
<event>
 4      1 +2.2016400e-08 2.57920800e+03 7.81860800e-03 7.86825900e-02
        2 -1    0    0  501    0 +0.0000000000e+00 +0.0000000000e+00 +2.5270271329e+03 2.5270271329e+03 0.0000000000e+00 0.0000e+00 -1.0000e+00
       -2 -1    0    0    0  501 -0.0000000000e+00 -0.0000000000e+00 -6.5811642471e+02 6.5811642471e+02 0.0000000000e+00 0.0000e+00 1.0000e+00
      -13  1    1    2    0    0 +1.2062697575e+03 -3.8978071364e+02 +6.4205474916e+02 1.4210031786e+03 0.0000000000e+00 0.0000e+00 1.0000e+00
       13  1    1    2    0    0 -1.2062697575e+03 +3.8978071364e+02 +1.2268559590e+03 1.7641403790e+03 0.0000000000e+00 0.0000e+00 -1.0000e+00
<mgrwt>
<rscale>  0 0.25792077E+04</rscale>
<asrwt>0</asrwt>
<pdfrwt beam="1">  1        2 0.38877340E+00 0.25792077E+04</pdfrwt>
<pdfrwt beam="2">  1       -2 0.10124868E+00 0.25792077E+04</pdfrwt>
<totfact> 0.29912927E+00</totfact>
</mgrwt>
<rwgt>
<wgt id='morphing_basis_vector_1'> +1.3679262e-04 </wgt>
<wgt id='morphing_basis_vector_2'> +9.7519306e-05 </wgt>
<wgt id='morphing_basis_vector_3'> +1.4928913e-04 </wgt>
<wgt id='morphing_basis_vector_4'> +9.8190745e-05 </wgt>
<wgt id='morphing_basis_vector_5'> +1.6416602e-04 </wgt>
</rwgt>
</event>
<event>
 4      1 +2.2016400e-08 2.33078700e+03 7.81860800e-03 7.94794600e-02
        2 -1    0    0  501    0 +0.0000000000e+00 +0.0000000000e+00 +1.5415000497e+03 1.5415000497e+03 0.0000000000e+00 0.0000e+00 -1.0000e+00
       -2 -1    0    0    0  501 -0.0000000000e+00 -0.0000000000e+00 -8.8105214235e+02 8.8105214235e+02 0.0000000000e+00 0.0000e+00 1.0000e+00
      -13  1    1    2    0    0 -4.7961363582e+02 -7.8990410849e+02 -4.0777638833e+02 1.0100788698e+03 0.0000000000e+00 0.0000e+00 1.0000e+00
       13  1    1    2    0    0 +4.7961363582e+02 +7.8990410849e+02 +1.0682242957e+03 1.4124733223e+03 0.0000000000e+00 0.0000e+00 -1.0000e+00
<mgrwt>
<rscale>  0 0.23307869E+04</rscale>
<asrwt>0</asrwt>
<pdfrwt beam="1">  1        2 0.23715385E+00 0.23307869E+04</pdfrwt>
<pdfrwt beam="2">  1       -2 0.13554648E+00 0.23307869E+04</pdfrwt>
<totfact> 0.52491631E+00</totfact>
</mgrwt>
<rwgt>
<wgt id='morphing_basis_vector_1'> +9.0286708e-05 </wgt>
<wgt id='morphing_basis_vector_2'> +6.0941870e-05 </wgt>
<wgt id='morphing_basis_vector_3'> +9.7397740e-05 </wgt>
<wgt id='morphing_basis_vector_4'> +6.8076673e-05 </wgt>
<wgt id='morphing_basis_vector_5'> +1.0913191e-04 </wgt>
</rwgt>
</event>
<event>
 4      1 +2.2016400e-08 2.41064500e+03 7.81860800e-03 7.92126000e-02
        2 -1    0    0  501    0 +0.0000000000e+00 +0.0000000000e+00 +3.8068680092e+03 3.8068680092e+03 0.0000000000e+00 0.0000e+00 -1.0000e+00
       -2 -1    0    0    0  501 -0.0000000000e+00 -0.0000000000e+00 -3.8162663228e+02 3.8162663228e+02 0.0000000000e+00 0.0000e+00 1.0000e+00
      -13  1    1    2    0    0 +1.0216782096e+03 -2.3982385623e+02 +6.8255978526e+02 1.2518904531e+03 0.0000000000e+00 0.0000e+00 1.0000e+00
       13  1    1    2    0    0 -1.0216782096e+03 +2.3982385623e+02 +2.7426815917e+03 2.9366041884e+03 0.0000000000e+00 0.0000e+00 -1.0000e+00
<mgrwt>
<rscale>  0 0.24106449E+04</rscale>
<asrwt>0</asrwt>
<pdfrwt beam="1">  1        2 0.58567197E+00 0.24106449E+04</pdfrwt>
<pdfrwt beam="2">  1       -2 0.58711792E-01 0.24106449E+04</pdfrwt>
<totfact> 0.13699917E+00</totfact>
</mgrwt>
<rwgt>
<wgt id='morphing_basis_vector_1'> +1.0334421e-04 </wgt>
<wgt id='morphing_basis_vector_2'> +7.0367937e-05 </wgt>
<wgt id='morphing_basis_vector_3'> +1.1178778e-04 </wgt>
<wgt id='morphing_basis_vector_4'> +7.7564102e-05 </wgt>
<wgt id='morphing_basis_vector_5'> +1.2507629e-04 </wgt>
</rwgt>
</event>
<event>
 4      1 +2.2016400e-08 2.58564100e+03 7.81860800e-03 7.86631900e-02
        2 -1    0    0  501    0 +0.0000000000e+00 +0.0000000000e+00 +3.0653705054e+03 3.0653705054e+03 0.0000000000e+00 0.0000e+00 -1.0000e+00
       -2 -1    0    0    0  501 -0.0000000000e+00 -0.0000000000e+00 -5.4524707938e+02 5.4524707938e+02 0.0000000000e+00 0.0000e+00 1.0000e+00
      -13  1    1    2    0    0 -1.1532599294e+03 -3.0911364487e+02 +5.6771121131e+02 1.3220649491e+03 0.0000000000e+00 0.0000e+00 1.0000e+00
       13  1    1    2    0    0 +1.1532599294e+03 +3.0911364487e+02 +1.9524122147e+03 2.2885526357e+03 0.0000000000e+00 0.0000e+00 -1.0000e+00
<mgrwt>
<rscale>  0 0.25856406E+04</rscale>
<asrwt>0</asrwt>
<pdfrwt beam="1">  1        2 0.47159545E+00 0.25856406E+04</pdfrwt>
<pdfrwt beam="2">  1       -2 0.83884168E-01 0.25856406E+04</pdfrwt>
<totfact> 0.21386684E+00</totfact>
</mgrwt>
<rwgt>
<wgt id='morphing_basis_vector_1'> +1.3672193e-04 </wgt>
<wgt id='morphing_basis_vector_2'> +9.4290902e-05 </wgt>
<wgt id='morphing_basis_vector_3'> +1.4859909e-04 </wgt>
<wgt id='morphing_basis_vector_4'> +1.0211287e-04 </wgt>
<wgt id='morphing_basis_vector_5'> +1.6606765e-04 </wgt>
</rwgt>
</event>
<event>
 4      1 +2.2016400e-08 2.44424300e+03 7.81860800e-03 7.91034900e-02
        2 -1    0    0  501    0 +0.0000000000e+00 +0.0000000000e+00 +1.1773310384e+03 1.1773310384e+03 0.0000000000e+00 0.0000e+00 -1.0000e+00
       -2 -1    0    0    0  501 -0.0000000000e+00 -0.0000000000e+00 -1.2686155667e+03 1.2686155667e+03 0.0000000000e+00 0.0000e+00 1.0000e+00
      -13  1    1    2    0    0 +4.0011252405e+01 -1.1715216961e+03 -3.9159485776e+02 1.2358845081e+03 0.0000000000e+00 0.0000e+00 1.0000e+00
       13  1    1    2    0    0 -4.0011252405e+01 +1.1715216961e+03 +3.0031032945e+02 1.2100620970e+03 0.0000000000e+00 0.0000e+00 -1.0000e+00
<mgrwt>
<rscale>  0 0.24442426E+04</rscale>
<asrwt>0</asrwt>
<pdfrwt beam="1">  1        2 0.18112785E+00 0.24442426E+04</pdfrwt>
<pdfrwt beam="2">  1       -2 0.19517163E+00 0.24442426E+04</pdfrwt>
<totfact> 0.28158465E+00</totfact>
</mgrwt>
<rwgt>
<wgt id='morphing_basis_vector_1'> +1.0997277e-04 </wgt>
<wgt id='morphing_basis_vector_2'> +7.6796554e-05 </wgt>
<wgt id='morphing_basis_vector_3'> +1.1940612e-04 </wgt>
<wgt id='morphing_basis_vector_4'> +8.0344496e-05 </wgt>
<wgt id='morphing_basis_vector_5'> +1.3215867e-04 </wgt>
</rwgt>
</event>
<event>
 4      1 +2.2016400e-08 2.53104800e+03 7.81860800e-03 7.88296900e-02
        2 -1    0    0  501    0 +0.0000000000e+00 +0.0000000000e+00 +2.8720892046e+03 2.8720892046e+03 0.0000000000e+00 0.0000e+00 -1.0000e+00
       -2 -1    0    0    0  501 -0.0000000000e+00 -0.0000000000e+00 -5.5762599847e+02 5.5762599847e+02 0.0000000000e+00 0.0000e+00 1.0000e+00
      -13  1    1    2    0    0 +9.0990196607e+02 -8.3829256194e+02 +7.9643100857e+02 1.4713797466e+03 0.0000000000e+00 0.0000e+00 1.0000e+00
       13  1    1    2    0    0 -9.0990196607e+02 +8.3829256194e+02 +1.5180321975e+03 1.9583354565e+03 0.0000000000e+00 0.0000e+00 -1.0000e+00
<mgrwt>
<rscale>  0 0.25310485E+04</rscale>
<asrwt>0</asrwt>
<pdfrwt beam="1">  1        2 0.44185987E+00 0.25310485E+04</pdfrwt>
<pdfrwt beam="2">  1       -2 0.85788617E-01 0.25310485E+04</pdfrwt>
<totfact> 0.27212496E+00</totfact>
</mgrwt>
<rwgt>
<wgt id='morphing_basis_vector_1'> +1.2674603e-04 </wgt>
<wgt id='morphing_basis_vector_2'> +8.9793529e-05 </wgt>
<wgt id='morphing_basis_vector_3'> +1.3809557e-04 </wgt>
<wgt id='morphing_basis_vector_4'> +9.1453832e-05 </wgt>
<wgt id='morphing_basis_vector_5'> +1.5214249e-04 </wgt>
</rwgt>
</event>
<event>
 4      1 +2.2016400e-08 2.34665700e+03 7.81860800e-03 7.94255600e-02
        2 -1    0    0  501    0 +0.0000000000e+00 +0.0000000000e+00 +2.5518246845e+03 2.5518246845e+03 0.0000000000e+00 0.0000e+00 -1.0000e+00
       -2 -1    0    0    0  501 -0.0000000000e+00 -0.0000000000e+00 -5.3949604837e+02 5.3949604837e+02 0.0000000000e+00 0.0000e+00 1.0000e+00
      -13  1    1    2    0    0 -3.7669294519e+02 +6.1502609880e+02 -2.1302044083e+02 7.5201887302e+02 0.0000000000e+00 0.0000e+00 1.0000e+00
       13  1    1    2    0    0 +3.7669294519e+02 -6.1502609880e+02 +2.2253490770e+03 2.3393018599e+03 0.0000000000e+00 0.0000e+00 -1.0000e+00
<mgrwt>
<rscale>  0 0.23466566E+04</rscale>
<asrwt>0</asrwt>
<pdfrwt beam="1">  1        2 0.39258841E+00 0.23466566E+04</pdfrwt>
<pdfrwt beam="2">  1       -2 0.82999394E-01 0.23466566E+04</pdfrwt>
<totfact> 0.47051380E+00</totfact>
</mgrwt>
<rwgt>
<wgt id='morphing_basis_vector_1'> +9.2565528e-05 </wgt>
<wgt id='morphing_basis_vector_2'> +6.2111973e-05 </wgt>
<wgt id='morphing_basis_vector_3'> +9.9821173e-05 </wgt>
<wgt id='morphing_basis_vector_4'> +7.0318556e-05 </wgt>
<wgt id='morphing_basis_vector_5'> +1.1220674e-04 </wgt>
</rwgt>
</event>
<event>
 4      1 +2.2016400e-08 2.46897700e+03 7.81860800e-03 7.90243000e-02
        2 -1    0    0  501    0 +0.0000000000e+00 +0.0000000000e+00 +2.2332434625e+03 2.2332434625e+03 0.0000000000e+00 0.0000e+00 -1.0000e+00
       -2 -1    0    0    0  501 -0.0000000000e+00 -0.0000000000e+00 -6.8239830305e+02 6.8239830305e+02 0.0000000000e+00 0.0000e+00 1.0000e+00
      -13  1    1    2    0    0 -5.7109024742e+02 -8.3602703997e+02 -5.8668706485e+01 1.0141633495e+03 0.0000000000e+00 0.0000e+00 1.0000e+00
       13  1    1    2    0    0 +5.7109024742e+02 +8.3602703997e+02 +1.6095138659e+03 1.9014784161e+03 0.0000000000e+00 0.0000e+00 -1.0000e+00
<mgrwt>
<rscale>  0 0.24689768E+04</rscale>
<asrwt>0</asrwt>
<pdfrwt beam="1">  1        2 0.34357592E+00 0.24689768E+04</pdfrwt>
<pdfrwt beam="2">  1       -2 0.10498435E+00 0.24689768E+04</pdfrwt>
<totfact> 0.41100609E+00</totfact>
</mgrwt>
<rwgt>
<wgt id='morphing_basis_vector_1'> +1.1337848e-04 </wgt>
<wgt id='morphing_basis_vector_2'> +7.6829478e-05 </wgt>
<wgt id='morphing_basis_vector_3'> +1.2270898e-04 </wgt>
<wgt id='morphing_basis_vector_4'> +8.5841738e-05 </wgt>
<wgt id='morphing_basis_vector_5'> +1.3783739e-04 </wgt>
</rwgt>
</event>
<event>
 4      1 +2.2016400e-08 2.46604400e+03 7.81860800e-03 7.90336400e-02
        2 -1    0    0  501    0 +0.0000000000e+00 +0.0000000000e+00 +2.5022332924e+03 2.5022332924e+03 0.0000000000e+00 0.0000e+00 -1.0000e+00
       -2 -1    0    0    0  501 -0.0000000000e+00 -0.0000000000e+00 -6.0759436142e+02 6.0759436142e+02 0.0000000000e+00 0.0000e+00 1.0000e+00
      -13  1    1    2    0    0 +5.9545284837e+02 -1.7456702202e+01 -4.1408401103e+02 7.2548907592e+02 0.0000000000e+00 0.0000e+00 1.0000e+00
       13  1    1    2    0    0 -5.9545284837e+02 +1.7456702202e+01 +2.3087229420e+03 2.3843385779e+03 0.0000000000e+00 0.0000e+00 -1.0000e+00
<mgrwt>
<rscale>  0 0.24660437E+04</rscale>
<asrwt>0</asrwt>
<pdfrwt beam="1">  1        2 0.38495896E+00 0.24660437E+04</pdfrwt>
<pdfrwt beam="2">  1       -2 0.93476057E-01 0.24660437E+04</pdfrwt>
<totfact> 0.37819483E+00</totfact>
</mgrwt>
<rwgt>
<wgt id='morphing_basis_vector_1'> +1.1253164e-04 </wgt>
<wgt id='morphing_basis_vector_2'> +7.5533871e-05 </wgt>
<wgt id='morphing_basis_vector_3'> +1.2164595e-04 </wgt>
<wgt id='morphing_basis_vector_4'> +8.6076392e-05 </wgt>
<wgt id='morphing_basis_vector_5'> +1.3722736e-04 </wgt>
</rwgt>
</event>
<event>
 4      1 +2.2016400e-08 2.41991700e+03 7.81860800e-03 7.91823100e-02
        2 -1    0    0  501    0 +0.0000000000e+00 +0.0000000000e+00 +1.1681663857e+03 1.1681663857e+03 0.0000000000e+00 0.0000e+00 1.0000e+00
       -2 -1    0    0    0  501 -0.0000000000e+00 -0.0000000000e+00 -1.2532462218e+03 1.2532462218e+03 0.0000000000e+00 0.0000e+00 -1.0000e+00
      -13  1    1    2    0    0 +7.7916830996e+02 -1.3584439016e+02 -9.5877108536e+02 1.2428994117e+03 0.0000000000e+00 0.0000e+00 -1.0000e+00
       13  1    1    2    0    0 -7.7916830996e+02 +1.3584439016e+02 +8.7369124925e+02 1.1785131958e+03 0.0000000000e+00 0.0000e+00 1.0000e+00
<mgrwt>
<rscale>  0 0.24199174E+04</rscale>
<asrwt>0</asrwt>
<pdfrwt beam="1">  1        2 0.17971791E+00 0.24199174E+04</pdfrwt>
<pdfrwt beam="2">  1       -2 0.19280711E+00 0.24199174E+04</pdfrwt>
<totfact> 0.29744174E+00</totfact>
</mgrwt>
<rwgt>
<wgt id='morphing_basis_vector_1'> +1.0451555e-04 </wgt>
<wgt id='morphing_basis_vector_2'> +7.0253470e-05 </wgt>
<wgt id='morphing_basis_vector_3'> +1.1290079e-04 </wgt>
<wgt id='morphing_basis_vector_4'> +7.9608448e-05 </wgt>
<wgt id='morphing_basis_vector_5'> +1.2710549e-04 </wgt>
</rwgt>
</event>
<event>
 4      1 +2.2016400e-08 2.26643400e+03 7.81860800e-03 7.97026400e-02
        2 -1    0    0  501    0 +0.0000000000e+00 +0.0000000000e+00 +2.9016836353e+03 2.9016836353e+03 0.0000000000e+00 0.0000e+00 -1.0000e+00
       -2 -1    0    0    0  501 -0.0000000000e+00 -0.0000000000e+00 -4.4256401184e+02 4.4256401184e+02 0.0000000000e+00 0.0000e+00 1.0000e+00
      -13  1    1    2    0    0 -1.7814069910e+02 +7.0533894831e+02 -5.2512772696e+01 7.2937968985e+02 0.0000000000e+00 0.0000e+00 1.0000e+00
       13  1    1    2    0    0 +1.7814069910e+02 -7.0533894831e+02 +2.5116323962e+03 2.6148679573e+03 0.0000000000e+00 0.0000e+00 -1.0000e+00
<mgrwt>
<rscale>  0 0.22664340E+04</rscale>
<asrwt>0</asrwt>
<pdfrwt beam="1">  1        2 0.44641286E+00 0.22664340E+04</pdfrwt>
<pdfrwt beam="2">  1       -2 0.68086773E-01 0.22664340E+04</pdfrwt>
<totfact> 0.44580014E+00</totfact>
</mgrwt>
<rwgt>
<wgt id='morphing_basis_vector_1'> +8.0724857e-05 </wgt>
<wgt id='morphing_basis_vector_2'> +5.4125519e-05 </wgt>
<wgt id='morphing_basis_vector_3'> +8.6886891e-05 </wgt>
<wgt id='morphing_basis_vector_4'> +6.1037331e-05 </wgt>
<wgt id='morphing_basis_vector_5'> +9.7425620e-05 </wgt>
</rwgt>
</event>
<event>
 4      1 +2.2016400e-08 2.30480000e+03 7.81860800e-03 7.95686800e-02
        2 -1    0    0  501    0 +0.0000000000e+00 +0.0000000000e+00 +2.8963491185e+03 2.8963491185e+03 0.0000000000e+00 0.0000e+00 1.0000e+00
       -2 -1    0    0    0  501 -0.0000000000e+00 -0.0000000000e+00 -4.5851725283e+02 4.5851725283e+02 0.0000000000e+00 0.0000e+00 -1.0000e+00
      -13  1    1    2    0    0 +5.8322493051e+02 -6.2572453702e+02 +9.4854132259e+01 8.6062757462e+02 0.0000000000e+00 0.0000e+00 -1.0000e+00
       13  1    1    2    0    0 -5.8322493051e+02 +6.2572453702e+02 +2.3429777334e+03 2.4942387967e+03 0.0000000000e+00 0.0000e+00 1.0000e+00
<mgrwt>
<rscale>  0 0.23048002E+04</rscale>
<asrwt>0</asrwt>
<pdfrwt beam="1">  1        2 0.44559216E+00 0.23048002E+04</pdfrwt>
<pdfrwt beam="2">  1       -2 0.70541117E-01 0.23048002E+04</pdfrwt>
<totfact> 0.41511349E+00</totfact>
</mgrwt>
<rwgt>
<wgt id='morphing_basis_vector_1'> +8.6316423e-05 </wgt>
<wgt id='morphing_basis_vector_2'> +5.8081569e-05 </wgt>
<wgt id='morphing_basis_vector_3'> +9.3026767e-05 </wgt>
<wgt id='morphing_basis_vector_4'> +6.5189131e-05 </wgt>
<wgt id='morphing_basis_vector_5'> +1.0428718e-04 </wgt>
</rwgt>
</event>
<event>
 4      1 +2.2016400e-08 2.25094300e+03 7.81860800e-03 7.97575100e-02
        2 -1    0    0  501    0 +0.0000000000e+00 +0.0000000000e+00 +7.8996312619e+02 7.8996312619e+02 0.0000000000e+00 0.0000e+00 -1.0000e+00
       -2 -1    0    0    0  501 -0.0000000000e+00 -0.0000000000e+00 -1.6034749024e+03 1.6034749024e+03 0.0000000000e+00 0.0000e+00 1.0000e+00
      -13  1    1    2    0    0 -9.1385945429e+02 +6.4574061665e+02 -2.7842598729e+02 1.1531006359e+03 0.0000000000e+00 0.0000e+00 1.0000e+00
       13  1    1    2    0    0 +9.1385945429e+02 -6.4574061665e+02 -5.3508578895e+02 1.2403373927e+03 0.0000000000e+00 0.0000e+00 -1.0000e+00
<mgrwt>
<rscale>  0 0.22509430E+04</rscale>
<asrwt>0</asrwt>
<pdfrwt beam="1">  1        2 0.12153279E+00 0.22509430E+04</pdfrwt>
<pdfrwt beam="2">  1       -2 0.24668845E+00 0.22509430E+04</pdfrwt>
<totfact> 0.21655460E+00</totfact>
</mgrwt>
<rwgt>
<wgt id='morphing_basis_vector_1'> +8.2719181e-05 </wgt>
<wgt id='morphing_basis_vector_2'> +6.4917413e-05 </wgt>
<wgt id='morphing_basis_vector_3'> +9.0741964e-05 </wgt>
<wgt id='morphing_basis_vector_4'> +5.0970915e-05 </wgt>
<wgt id='morphing_basis_vector_5'> +9.4075757e-05 </wgt>
</rwgt>
</event>
<event>
 4      1 +2.2016400e-08 2.43268000e+03 7.81860800e-03 7.91408300e-02
        2 -1    0    0  501    0 +0.0000000000e+00 +0.0000000000e+00 +2.8999665419e+03 2.8999665419e+03 0.0000000000e+00 0.0000e+00 -1.0000e+00
       -2 -1    0    0    0  501 -0.0000000000e+00 -0.0000000000e+00 -5.1017259685e+02 5.1017259685e+02 0.0000000000e+00 0.0000e+00 1.0000e+00
      -13  1    1    2    0    0 -2.3725001077e+02 -6.1033704721e+02 -2.4199204707e+02 6.9811104393e+02 0.0000000000e+00 0.0000e+00 1.0000e+00
       13  1    1    2    0    0 +2.3725001077e+02 +6.1033704721e+02 +2.6317859921e+03 2.7120280948e+03 0.0000000000e+00 0.0000e+00 -1.0000e+00
<mgrwt>
<rscale>  0 0.24326804E+04</rscale>
<asrwt>0</asrwt>
<pdfrwt beam="1">  1        2 0.44614869E+00 0.24326804E+04</pdfrwt>
<pdfrwt beam="2">  1       -2 0.78488094E-01 0.24326804E+04</pdfrwt>
<totfact> 0.32283905E+00</totfact>
</mgrwt>
<rwgt>
<wgt id='morphing_basis_vector_1'> +1.0665555e-04 </wgt>
<wgt id='morphing_basis_vector_2'> +7.1587013e-05 </wgt>
<wgt id='morphing_basis_vector_3'> +1.1522089e-04 </wgt>
<wgt id='morphing_basis_vector_4'> +8.1428859e-05 </wgt>
<wgt id='morphing_basis_vector_5'> +1.2985392e-04 </wgt>
</rwgt>
</event>
<event>
 4      1 +2.2016400e-08 2.48581100e+03 7.81860800e-03 7.89709400e-02
        2 -1    0    0  501    0 +0.0000000000e+00 +0.0000000000e+00 +2.2300254671e+03 2.2300254671e+03 0.0000000000e+00 0.0000e+00 -1.0000e+00
       -2 -1    0    0    0  501 -0.0000000000e+00 -0.0000000000e+00 -6.9273375603e+02 6.9273375603e+02 0.0000000000e+00 0.0000e+00 1.0000e+00
      -13  1    1    2    0    0 -1.8566973701e+02 -3.6466800239e+02 -6.1125651809e+02 7.3558856307e+02 0.0000000000e+00 0.0000e+00 1.0000e+00
       13  1    1    2    0    0 +1.8566973701e+02 +3.6466800239e+02 +2.1485482291e+03 2.1871706600e+03 0.0000000000e+00 0.0000e+00 -1.0000e+00
<mgrwt>
<rscale>  0 0.24858109E+04</rscale>
<asrwt>0</asrwt>
<pdfrwt beam="1">  1        2 0.34308084E+00 0.24858109E+04</pdfrwt>
<pdfrwt beam="2">  1       -2 0.10657443E+00 0.24858109E+04</pdfrwt>
<totfact> 0.39713330E+00</totfact>
</mgrwt>
<rwgt>
<wgt id='morphing_basis_vector_1'> +1.1611722e-04 </wgt>
<wgt id='morphing_basis_vector_2'> +7.7921544e-05 </wgt>
<wgt id='morphing_basis_vector_3'> +1.2556354e-04 </wgt>
<wgt id='morphing_basis_vector_4'> +8.8940266e-05 </wgt>
<wgt id='morphing_basis_vector_5'> +1.4174239e-04 </wgt>
</rwgt>
</event>
<event>
 4      1 +2.2016400e-08 2.30341100e+03 7.81860800e-03 7.95734900e-02
        2 -1    0    0  501    0 +0.0000000000e+00 +0.0000000000e+00 +1.1036400971e+03 1.1036400971e+03 0.0000000000e+00 0.0000e+00 1.0000e+00
       -2 -1    0    0    0  501 -0.0000000000e+00 -0.0000000000e+00 -1.2018637677e+03 1.2018637677e+03 0.0000000000e+00 0.0000e+00 -1.0000e+00
      -13  1    1    2    0    0 +1.0853075574e+03 -2.4357189981e+02 +2.4983212561e+02 1.1400157260e+03 0.0000000000e+00 0.0000e+00 -1.0000e+00
       13  1    1    2    0    0 -1.0853075574e+03 +2.4357189981e+02 -3.4805579617e+02 1.1654881388e+03 0.0000000000e+00 0.0000e+00 1.0000e+00
<mgrwt>
<rscale>  0 0.23034106E+04</rscale>
<asrwt>0</asrwt>
<pdfrwt beam="1">  1        2 0.16979078E+00 0.23034106E+04</pdfrwt>
<pdfrwt beam="2">  1       -2 0.18490212E+00 0.23034106E+04</pdfrwt>
<totfact> 0.37587902E+00</totfact>
</mgrwt>
<rwgt>
<wgt id='morphing_basis_vector_1'> +9.3646668e-05 </wgt>
<wgt id='morphing_basis_vector_2'> +8.0200949e-05 </wgt>
<wgt id='morphing_basis_vector_3'> +1.0413370e-04 </wgt>
<wgt id='morphing_basis_vector_4'> +4.9732032e-05 </wgt>
<wgt id='morphing_basis_vector_5'> +1.0280261e-04 </wgt>
</rwgt>
</event>
<event>
 4      1 +2.2016400e-08 2.25267600e+03 7.81860800e-03 7.97513500e-02
        2 -1    0    0  501    0 +0.0000000000e+00 +0.0000000000e+00 +7.6627594178e+02 7.6627594178e+02 0.0000000000e+00 0.0000e+00 -1.0000e+00
       -2 -1    0    0    0  501 -0.0000000000e+00 -0.0000000000e+00 -1.6555879211e+03 1.6555879211e+03 0.0000000000e+00 0.0000e+00 1.0000e+00
      -13  1    1    2    0    0 -3.5971368112e+02 +7.0196263865e+02 -1.3090912895e+03 1.5283538474e+03 0.0000000000e+00 0.0000e+00 1.0000e+00
       13  1    1    2    0    0 +3.5971368112e+02 -7.0196263865e+02 +4.1977931024e+02 8.9351001548e+02 0.0000000000e+00 0.0000e+00 -1.0000e+00
<mgrwt>
<rscale>  0 0.22526759E+04</rscale>
<asrwt>0</asrwt>
<pdfrwt beam="1">  1        2 0.11788861E+00 0.22526759E+04</pdfrwt>
<pdfrwt beam="2">  1       -2 0.25470583E+00 0.22526759E+04</pdfrwt>
<totfact> 0.19806396E+00</totfact>
</mgrwt>
<rwgt>
<wgt id='morphing_basis_vector_1'> +7.8846277e-05 </wgt>
<wgt id='morphing_basis_vector_2'> +5.2929982e-05 </wgt>
<wgt id='morphing_basis_vector_3'> +8.4848649e-05 </wgt>
<wgt id='morphing_basis_vector_4'> +5.9479247e-05 </wgt>
<wgt id='morphing_basis_vector_5'> +9.5039639e-05 </wgt>
</rwgt>
</event>
<event>
 4      1 +2.2016400e-08 2.34098400e+03 7.81860800e-03 7.94447800e-02
        2 -1    0    0  501    0 +0.0000000000e+00 +0.0000000000e+00 +3.0468462591e+03 3.0468462591e+03 0.0000000000e+00 0.0000e+00 -1.0000e+00
       -2 -1    0    0    0  501 -0.0000000000e+00 -0.0000000000e+00 -4.4966209067e+02 4.4966209067e+02 0.0000000000e+00 0.0000e+00 1.0000e+00
      -13  1    1    2    0    0 +6.8384851923e+02 -1.5523643196e+01 -1.2006785621e+02 6.9448259218e+02 0.0000000000e+00 0.0000e+00 1.0000e+00
       13  1    1    2    0    0 -6.8384851923e+02 +1.5523643196e+01 +2.7172520246e+03 2.8020257576e+03 0.0000000000e+00 0.0000e+00 -1.0000e+00
<mgrwt>
<rscale>  0 0.23409838E+04</rscale>
<asrwt>0</asrwt>
<pdfrwt beam="1">  1        2 0.46874556E+00 0.23409838E+04</pdfrwt>
<pdfrwt beam="2">  1       -2 0.69178785E-01 0.23409838E+04</pdfrwt>
<totfact> 0.34483498E+00</totfact>
</mgrwt>
<rwgt>
<wgt id='morphing_basis_vector_1'> +9.1675248e-05 </wgt>
<wgt id='morphing_basis_vector_2'> +6.1483031e-05 </wgt>
<wgt id='morphing_basis_vector_3'> +9.8843081e-05 </wgt>
<wgt id='morphing_basis_vector_4'> +6.9655038e-05 </wgt>
<wgt id='morphing_basis_vector_5'> +1.1111186e-04 </wgt>
</rwgt>
</event>
<event>
 4      1 +2.2016400e-08 2.41094000e+03 7.81860800e-03 7.92116400e-02
        2 -1    0    0  501    0 +0.0000000000e+00 +0.0000000000e+00 +1.7115987666e+03 1.7115987666e+03 0.0000000000e+00 0.0000e+00 -1.0000e+00
       -2 -1    0    0    0  501 -0.0000000000e+00 -0.0000000000e+00 -8.4900605383e+02 8.4900605383e+02 0.0000000000e+00 0.0000e+00 1.0000e+00
      -13  1    1    2    0    0 +7.6595818417e+02 +7.5142102009e+01 -5.5410287688e+02 9.4835029054e+02 0.0000000000e+00 0.0000e+00 1.0000e+00
       13  1    1    2    0    0 -7.6595818417e+02 -7.5142102009e+01 +1.4166955896e+03 1.6122545299e+03 0.0000000000e+00 0.0000e+00 -1.0000e+00
<mgrwt>
<rscale>  0 0.24109398E+04</rscale>
<asrwt>0</asrwt>
<pdfrwt beam="1">  1        2 0.26332289E+00 0.24109398E+04</pdfrwt>
<pdfrwt beam="2">  1       -2 0.13061632E+00 0.24109398E+04</pdfrwt>
<totfact> 0.46344922E+00</totfact>
</mgrwt>
<rwgt>
<wgt id='morphing_basis_vector_1'> +1.0298524e-04 </wgt>
<wgt id='morphing_basis_vector_2'> +6.9195229e-05 </wgt>
<wgt id='morphing_basis_vector_3'> +1.1122236e-04 </wgt>
<wgt id='morphing_basis_vector_4'> +7.8437070e-05 </wgt>
<wgt id='morphing_basis_vector_5'> +1.2520574e-04 </wgt>
</rwgt>
</event>
<event>
 4      1 +2.2016400e-08 2.65528700e+03 7.81860800e-03 7.84567600e-02
        2 -1    0    0  501    0 +0.0000000000e+00 +0.0000000000e+00 +2.3602422524e+03 2.3602422524e+03 0.0000000000e+00 0.0000e+00 -1.0000e+00
       -2 -1    0    0    0  501 -0.0000000000e+00 -0.0000000000e+00 -7.4680342861e+02 7.4680342861e+02 0.0000000000e+00 0.0000e+00 1.0000e+00
      -13  1    1    2    0    0 -1.2533824071e+02 -6.0595247344e+02 -5.6775365488e+02 8.3978109486e+02 0.0000000000e+00 0.0000e+00 1.0000e+00
       13  1    1    2    0    0 +1.2533824071e+02 +6.0595247344e+02 +2.1811924787e+03 2.2672645862e+03 0.0000000000e+00 0.0000e+00 -1.0000e+00
<mgrwt>
<rscale>  0 0.26552868E+04</rscale>
<asrwt>0</asrwt>
<pdfrwt beam="1">  1        2 0.36311419E+00 0.26552868E+04</pdfrwt>
<pdfrwt beam="2">  1       -2 0.11489284E+00 0.26552868E+04</pdfrwt>
<totfact> 0.27231026E+00</totfact>
</mgrwt>
<rwgt>
<wgt id='morphing_basis_vector_1'> +1.5069787e-04 </wgt>
<wgt id='morphing_basis_vector_2'> +1.0136313e-04 </wgt>
<wgt id='morphing_basis_vector_3'> +1.6345631e-04 </wgt>
<wgt id='morphing_basis_vector_4'> +1.1611398e-04 </wgt>
<wgt id='morphing_basis_vector_5'> +1.8512104e-04 </wgt>
</rwgt>
</event>
<event>
 4      1 +2.2016400e-08 2.52321300e+03 7.81860800e-03 7.88539400e-02
        2 -1    0    0  501    0 +0.0000000000e+00 +0.0000000000e+00 +1.2202674347e+03 1.2202674347e+03 0.0000000000e+00 0.0000e+00 -1.0000e+00
       -2 -1    0    0    0  501 -0.0000000000e+00 -0.0000000000e+00 -1.3043455144e+03 1.3043455144e+03 0.0000000000e+00 0.0000e+00 1.0000e+00
      -13  1    1    2    0    0 +9.9811394591e+02 -7.0016488104e+02 -3.6654611251e+02 1.2731136486e+03 0.0000000000e+00 0.0000e+00 1.0000e+00
       13  1    1    2    0    0 -9.9811394591e+02 +7.0016488104e+02 +2.8246803281e+02 1.2514993005e+03 0.0000000000e+00 0.0000e+00 -1.0000e+00
<mgrwt>
<rscale>  0 0.25232125E+04</rscale>
<asrwt>0</asrwt>
<pdfrwt beam="1">  1        2 0.18773345E+00 0.25232125E+04</pdfrwt>
<pdfrwt beam="2">  1       -2 0.20066854E+00 0.25232125E+04</pdfrwt>
<totfact> 0.24059682E+00</totfact>
</mgrwt>
<rwgt>
<wgt id='morphing_basis_vector_1'> +1.2485159e-04 </wgt>
<wgt id='morphing_basis_vector_2'> +8.7654928e-05 </wgt>
<wgt id='morphing_basis_vector_3'> +1.3585599e-04 </wgt>
<wgt id='morphing_basis_vector_4'> +9.1034748e-05 </wgt>
<wgt id='morphing_basis_vector_5'> +1.5030242e-04 </wgt>
</rwgt>
</event>
<event>
 4      1 +2.2016400e-08 2.37113300e+03 7.81860800e-03 7.93432900e-02
        2 -1    0    0  501    0 +0.0000000000e+00 +0.0000000000e+00 +8.3957265139e+02 8.3957265139e+02 0.0000000000e+00 0.0000e+00 1.0000e+00
       -2 -1    0    0    0  501 -0.0000000000e+00 -0.0000000000e+00 -1.6741466860e+03 1.6741466860e+03 0.0000000000e+00 0.0000e+00 -1.0000e+00
      -13  1    1    2    0    0 +2.1209444638e+02 +4.9682785751e+02 +7.0151678650e+02 8.8540825382e+02 0.0000000000e+00 0.0000e+00 1.0000e+00
       13  1    1    2    0    0 -2.1209444638e+02 -4.9682785751e+02 -1.5360908211e+03 1.6283110835e+03 0.0000000000e+00 0.0000e+00 -1.0000e+00
<mgrwt>
<rscale>  0 0.23711329E+04</rscale>
<asrwt>0</asrwt>
<pdfrwt beam="1">  1        2 0.12916502E+00 0.23711329E+04</pdfrwt>
<pdfrwt beam="2">  1       -2 0.25756103E+00 0.23711329E+04</pdfrwt>
<totfact> 0.16659476E+00</totfact>
</mgrwt>
<rwgt>
<wgt id='morphing_basis_vector_1'> +1.3100056e-04 </wgt>
<wgt id='morphing_basis_vector_2'> +1.6680797e-04 </wgt>
<wgt id='morphing_basis_vector_3'> +1.5632107e-04 </wgt>
<wgt id='morphing_basis_vector_4'> +2.9116356e-06 </wgt>
<wgt id='morphing_basis_vector_5'> +1.1135376e-04 </wgt>
</rwgt>
</event>
<event>
 4      1 +2.2016400e-08 2.51827600e+03 7.81860800e-03 7.88692600e-02
        2 -1    0    0  501    0 +0.0000000000e+00 +0.0000000000e+00 +2.2047072510e+03 2.2047072510e+03 0.0000000000e+00 0.0000e+00 1.0000e+00
       -2 -1    0    0    0  501 -0.0000000000e+00 -0.0000000000e+00 -7.1911071387e+02 7.1911071387e+02 0.0000000000e+00 0.0000e+00 -1.0000e+00
      -13  1    1    2    0    0 +3.1485271458e+02 +9.7979607980e+02 -9.9492480119e+01 1.0339397195e+03 0.0000000000e+00 0.0000e+00 -1.0000e+00
       13  1    1    2    0    0 -3.1485271458e+02 -9.7979607980e+02 +1.5850890172e+03 1.8898782454e+03 0.0000000000e+00 0.0000e+00 1.0000e+00
<mgrwt>
<rscale>  0 0.25182761E+04</rscale>
<asrwt>0</asrwt>
<pdfrwt beam="1">  1        2 0.33918573E+00 0.25182761E+04</pdfrwt>
<pdfrwt beam="2">  1       -2 0.11063242E+00 0.25182761E+04</pdfrwt>
<totfact> 0.37305474E+00</totfact>
</mgrwt>
<rwgt>
<wgt id='morphing_basis_vector_1'> +1.2257344e-04 </wgt>
<wgt id='morphing_basis_vector_2'> +8.3090922e-05 </wgt>
<wgt id='morphing_basis_vector_3'> +1.3278488e-04 </wgt>
<wgt id='morphing_basis_vector_4'> +9.3015357e-05 </wgt>
<wgt id='morphing_basis_vector_5'> +1.4933391e-04 </wgt>
</rwgt>
</event>
<event>
 4      1 +2.2016400e-08 2.61754400e+03 7.81860800e-03 7.85678200e-02
        2 -1    0    0  501    0 +0.0000000000e+00 +0.0000000000e+00 +1.2297712342e+03 1.2297712342e+03 0.0000000000e+00 0.0000e+00 -1.0000e+00
       -2 -1    0    0    0  501 -0.0000000000e+00 -0.0000000000e+00 -1.3928473160e+03 1.3928473160e+03 0.0000000000e+00 0.0000e+00 1.0000e+00
      -13  1    1    2    0    0 -1.0582660725e+03 +3.1807879947e+02 -7.8416965335e+02 1.3549993536e+03 0.0000000000e+00 0.0000e+00 1.0000e+00
       13  1    1    2    0    0 +1.0582660725e+03 -3.1807879947e+02 +6.2109357161e+02 1.2676191966e+03 0.0000000000e+00 0.0000e+00 -1.0000e+00
<mgrwt>
<rscale>  0 0.26175436E+04</rscale>
<asrwt>0</asrwt>
<pdfrwt beam="1">  1        2 0.18919558E+00 0.26175436E+04</pdfrwt>
<pdfrwt beam="2">  1       -2 0.21428420E+00 0.26175436E+04</pdfrwt>
<totfact> 0.18789245E+00</totfact>
</mgrwt>
<rwgt>
<wgt id='morphing_basis_vector_1'> +1.4290874e-04 </wgt>
<wgt id='morphing_basis_vector_2'> +9.7230142e-05 </wgt>
<wgt id='morphing_basis_vector_3'> +1.5513946e-04 </wgt>
<wgt id='morphing_basis_vector_4'> +1.0854653e-04 </wgt>
<wgt id='morphing_basis_vector_5'> +1.7461850e-04 </wgt>
</rwgt>
</event>
<event>
 4      1 +2.2016400e-08 2.29614400e+03 7.81860800e-03 7.95986700e-02
        2 -1    0    0  501    0 +0.0000000000e+00 +0.0000000000e+00 +8.8293100759e+02 8.8293100759e+02 0.0000000000e+00 0.0000e+00 -1.0000e+00
       -2 -1    0    0    0  501 -0.0000000000e+00 -0.0000000000e+00 -1.4928334163e+03 1.4928334163e+03 0.0000000000e+00 0.0000e+00 1.0000e+00
      -13  1    1    2    0    0 -4.1463718474e+02 +1.0705128341e+03 -3.1750406030e+02 1.1911047609e+03 0.0000000000e+00 0.0000e+00 1.0000e+00
       13  1    1    2    0    0 +4.1463718474e+02 -1.0705128341e+03 -2.9239834840e+02 1.1846596630e+03 0.0000000000e+00 0.0000e+00 -1.0000e+00
<mgrwt>
<rscale>  0 0.22961436E+04</rscale>
<asrwt>0</asrwt>
<pdfrwt beam="1">  1        2 0.13583554E+00 0.22961436E+04</pdfrwt>
<pdfrwt beam="2">  1       -2 0.22966667E+00 0.22961436E+04</pdfrwt>
<totfact> 0.24512433E+00</totfact>
</mgrwt>
<rwgt>
<wgt id='morphing_basis_vector_1'> +8.7906786e-05 </wgt>
<wgt id='morphing_basis_vector_2'> +6.5668841e-05 </wgt>
<wgt id='morphing_basis_vector_3'> +9.5936984e-05 </wgt>
<wgt id='morphing_basis_vector_4'> +5.8396478e-05 </wgt>
<wgt id='morphing_basis_vector_5'> +1.0223943e-04 </wgt>
</rwgt>
</event>
<event>
 4      1 +2.2016400e-08 2.41107900e+03 7.81860800e-03 7.92111800e-02
        2 -1    0    0  501    0 +0.0000000000e+00 +0.0000000000e+00 +2.7584761020e+03 2.7584761020e+03 0.0000000000e+00 0.0000e+00 -1.0000e+00
       -2 -1    0    0    0  501 -0.0000000000e+00 -0.0000000000e+00 -5.2685828151e+02 5.2685828151e+02 0.0000000000e+00 0.0000e+00 1.0000e+00
      -13  1    1    2    0    0 +2.0543483895e+02 -6.8203793272e+02 -2.0945207488e+02 7.4246170702e+02 0.0000000000e+00 0.0000e+00 1.0000e+00
       13  1    1    2    0    0 -2.0543483895e+02 +6.8203793272e+02 +2.4410698954e+03 2.5428726765e+03 0.0000000000e+00 0.0000e+00 -1.0000e+00
<mgrwt>
<rscale>  0 0.24110794E+04</rscale>
<asrwt>0</asrwt>
<pdfrwt beam="1">  1        2 0.42438093E+00 0.24110794E+04</pdfrwt>
<pdfrwt beam="2">  1       -2 0.81055122E-01 0.24110794E+04</pdfrwt>
<totfact> 0.36922772E+00</totfact>
</mgrwt>
<rwgt>
<wgt id='morphing_basis_vector_1'> +1.0298578e-04 </wgt>
<wgt id='morphing_basis_vector_2'> +6.9143325e-05 </wgt>
<wgt id='morphing_basis_vector_3'> +1.1121324e-04 </wgt>
<wgt id='morphing_basis_vector_4'> +7.8502382e-05 </wgt>
<wgt id='morphing_basis_vector_5'> +1.2523893e-04 </wgt>
</rwgt>
</event>
<event>
 4      1 +2.2016400e-08 2.49319100e+03 7.81860800e-03 7.89476900e-02
        2 -1    0    0  501    0 +0.0000000000e+00 +0.0000000000e+00 +1.6732574704e+03 1.6732574704e+03 0.0000000000e+00 0.0000e+00 1.0000e+00
       -2 -1    0    0    0  501 -0.0000000000e+00 -0.0000000000e+00 -9.2872769858e+02 9.2872769858e+02 0.0000000000e+00 0.0000e+00 -1.0000e+00
      -13  1    1    2    0    0 -9.0383007259e+02 +1.3744815235e+02 -5.1218221971e+02 1.0479176594e+03 0.0000000000e+00 0.0000e+00 -1.0000e+00
       13  1    1    2    0    0 +9.0383007259e+02 -1.3744815235e+02 +1.2567119916e+03 1.5540675096e+03 0.0000000000e+00 0.0000e+00 1.0000e+00
<mgrwt>
<rscale>  0 0.24931912E+04</rscale>
<asrwt>0</asrwt>
<pdfrwt beam="1">  1        2 0.25742423E+00 0.24931912E+04</pdfrwt>
<pdfrwt beam="2">  1       -2 0.14288118E+00 0.24931912E+04</pdfrwt>
<totfact> 0.37788452E+00</totfact>
</mgrwt>
<rwgt>
<wgt id='morphing_basis_vector_1'> +1.1765315e-04 </wgt>
<wgt id='morphing_basis_vector_2'> +7.9344944e-05 </wgt>
<wgt id='morphing_basis_vector_3'> +1.2731776e-04 </wgt>
<wgt id='morphing_basis_vector_4'> +8.9668261e-05 </wgt>
<wgt id='morphing_basis_vector_5'> +1.4342713e-04 </wgt>
</rwgt>
</event>
<event>
 4      1 +2.2016400e-08 2.43651500e+03 7.81860800e-03 7.91284200e-02
        2 -1    0    0  501    0 +0.0000000000e+00 +0.0000000000e+00 +1.6594920684e+03 1.6594920684e+03 0.0000000000e+00 0.0000e+00 1.0000e+00
       -2 -1    0    0    0  501 -0.0000000000e+00 -0.0000000000e+00 -8.9434073254e+02 8.9434073254e+02 0.0000000000e+00 0.0000e+00 -1.0000e+00
      -13  1    1    2    0    0 +6.6217305917e+02 -7.3973553757e+02 -3.5744299995e+02 1.0552001346e+03 0.0000000000e+00 0.0000e+00 -1.0000e+00
       13  1    1    2    0    0 -6.6217305917e+02 +7.3973553757e+02 +1.1225943358e+03 1.4986326664e+03 0.0000000000e+00 0.0000e+00 1.0000e+00
<mgrwt>
<rscale>  0 0.24365150E+04</rscale>
<asrwt>0</asrwt>
<pdfrwt beam="1">  1        2 0.25530647E+00 0.24365150E+04</pdfrwt>
<pdfrwt beam="2">  1       -2 0.13759088E+00 0.24365150E+04</pdfrwt>
<totfact> 0.42903679E+00</totfact>
</mgrwt>
<rwgt>
<wgt id='morphing_basis_vector_1'> +1.0759551e-04 </wgt>
<wgt id='morphing_basis_vector_2'> +7.2849083e-05 </wgt>
<wgt id='morphing_basis_vector_3'> +1.1636643e-04 </wgt>
<wgt id='morphing_basis_vector_4'> +8.1387980e-05 </wgt>
<wgt id='morphing_basis_vector_5'> +1.3064028e-04 </wgt>
</rwgt>
</event>
<event>
 4      1 +2.2016400e-08 2.29875000e+03 7.81860800e-03 7.95896300e-02
        2 -1    0    0  501    0 +0.0000000000e+00 +0.0000000000e+00 +1.8121021978e+03 1.8121021978e+03 0.0000000000e+00 0.0000e+00 1.0000e+00
       -2 -1    0    0    0  501 -0.0000000000e+00 -0.0000000000e+00 -7.2902256478e+02 7.2902256478e+02 0.0000000000e+00 0.0000e+00 -1.0000e+00
      -13  1    1    2    0    0 +2.3650280895e+02 -8.7190350470e+02 -2.4395425124e+02 9.3576865563e+02 0.0000000000e+00 0.0000e+00 -1.0000e+00
       13  1    1    2    0    0 -2.3650280895e+02 +8.7190350470e+02 +1.3270338843e+03 1.6053561070e+03 0.0000000000e+00 0.0000e+00 1.0000e+00
<mgrwt>
<rscale>  0 0.22987504E+04</rscale>
<asrwt>0</asrwt>
<pdfrwt beam="1">  1        2 0.27878495E+00 0.22987504E+04</pdfrwt>
<pdfrwt beam="2">  1       -2 0.11215732E+00 0.22987504E+04</pdfrwt>
<totfact> 0.61154023E+00</totfact>
</mgrwt>
<rwgt>
<wgt id='morphing_basis_vector_1'> +8.5484583e-05 </wgt>
<wgt id='morphing_basis_vector_2'> +5.7646734e-05 </wgt>
<wgt id='morphing_basis_vector_3'> +9.2140836e-05 </wgt>
<wgt id='morphing_basis_vector_4'> +6.4381483e-05 </wgt>
<wgt id='morphing_basis_vector_5'> +1.0317078e-04 </wgt>
</rwgt>
</event>
<event>
 4      1 +2.2016400e-08 2.34670500e+03 7.81860800e-03 7.94254000e-02
        2 -1    0    0  501    0 +0.0000000000e+00 +0.0000000000e+00 +1.8374195027e+03 1.8374195027e+03 0.0000000000e+00 0.0000e+00 1.0000e+00
       -2 -1    0    0    0  501 -0.0000000000e+00 -0.0000000000e+00 -7.4928805628e+02 7.4928805628e+02 0.0000000000e+00 0.0000e+00 -1.0000e+00
      -13  1    1    2    0    0 -4.6534641751e+02 +3.6384292675e+02 -5.7343777781e+02 8.2326171334e+02 0.0000000000e+00 0.0000e+00 -1.0000e+00
       13  1    1    2    0    0 +4.6534641751e+02 -3.6384292675e+02 +1.6615692242e+03 1.7634458456e+03 0.0000000000e+00 0.0000e+00 1.0000e+00
<mgrwt>
<rscale>  0 0.23467053E+04</rscale>
<asrwt>0</asrwt>
<pdfrwt beam="1">  1        2 0.28267992E+00 0.23467053E+04</pdfrwt>
<pdfrwt beam="2">  1       -2 0.11527509E+00 0.23467053E+04</pdfrwt>
<totfact> 0.54986057E+00</totfact>
</mgrwt>
<rwgt>
<wgt id='morphing_basis_vector_1'> +9.2540723e-05 </wgt>
<wgt id='morphing_basis_vector_2'> +6.2021482e-05 </wgt>
<wgt id='morphing_basis_vector_3'> +9.9780590e-05 </wgt>
<wgt id='morphing_basis_vector_4'> +7.0390358e-05 </wgt>
<wgt id='morphing_basis_vector_5'> +1.1222150e-04 </wgt>
</rwgt>
</event>
<event>
 4      1 +2.2016400e-08 2.23487300e+03 7.81860800e-03 7.98149100e-02
        2 -1    0    0  501    0 +0.0000000000e+00 +0.0000000000e+00 +1.7466794452e+03 1.7466794452e+03 0.0000000000e+00 0.0000e+00 1.0000e+00
       -2 -1    0    0    0  501 -0.0000000000e+00 -0.0000000000e+00 -7.1487883299e+02 7.1487883299e+02 0.0000000000e+00 0.0000e+00 -1.0000e+00
      -13  1    1    2    0    0 -1.0139380239e+03 +3.0412301538e+02 +1.2168179022e+02 1.0655362888e+03 0.0000000000e+00 0.0000e+00 -1.0000e+00
       13  1    1    2    0    0 +1.0139380239e+03 -3.0412301538e+02 +9.1011882200e+02 1.3960219894e+03 0.0000000000e+00 0.0000e+00 1.0000e+00
<mgrwt>
<rscale>  0 0.22348728E+04</rscale>
<asrwt>0</asrwt>
<pdfrwt beam="1">  1        2 0.26871991E+00 0.22348728E+04</pdfrwt>
<pdfrwt beam="2">  1       -2 0.10998136E+00 0.22348728E+04</pdfrwt>
<totfact> 0.70251801E+00</totfact>
</mgrwt>
<rwgt>
<wgt id='morphing_basis_vector_1'> +7.7135041e-05 </wgt>
<wgt id='morphing_basis_vector_2'> +5.3394007e-05 </wgt>
<wgt id='morphing_basis_vector_3'> +8.3266591e-05 </wgt>
<wgt id='morphing_basis_vector_4'> +5.6151266e-05 </wgt>
<wgt id='morphing_basis_vector_5'> +9.1908600e-05 </wgt>
</rwgt>
</event>
<event>
 4      1 +2.2016400e-08 2.40510300e+03 7.81860800e-03 7.92307800e-02
        2 -1    0    0  501    0 +0.0000000000e+00 +0.0000000000e+00 +2.8910328426e+03 2.8910328426e+03 0.0000000000e+00 0.0000e+00 -1.0000e+00
       -2 -1    0    0    0  501 -0.0000000000e+00 -0.0000000000e+00 -5.0021216966e+02 5.0021216966e+02 0.0000000000e+00 0.0000e+00 1.0000e+00
      -13  1    1    2    0    0 -9.8100281464e+02 +5.5539183032e+02 +6.0504553143e+02 1.2794165477e+03 0.0000000000e+00 0.0000e+00 1.0000e+00
       13  1    1    2    0    0 +9.8100281464e+02 -5.5539183032e+02 +1.7857751416e+03 2.1118284646e+03 0.0000000000e+00 0.0000e+00 -1.0000e+00
<mgrwt>
<rscale>  0 0.24051028E+04</rscale>
<asrwt>0</asrwt>
<pdfrwt beam="1">  1        2 0.44477427E+00 0.24051028E+04</pdfrwt>
<pdfrwt beam="2">  1       -2 0.76955720E-01 0.24051028E+04</pdfrwt>
<totfact> 0.34273071E+00</totfact>
</mgrwt>
<rwgt>
<wgt id='morphing_basis_vector_1'> +1.0288038e-04 </wgt>
<wgt id='morphing_basis_vector_2'> +7.1114602e-05 </wgt>
<wgt id='morphing_basis_vector_3'> +1.1147683e-04 </wgt>
<wgt id='morphing_basis_vector_4'> +7.5884598e-05 </wgt>
<wgt id='morphing_basis_vector_5'> +1.2383684e-04 </wgt>
</rwgt>
</event>
<event>
 4      1 +2.2016400e-08 2.65745600e+03 7.81860800e-03 7.84504400e-02
        2 -1    0    0  501    0 +0.0000000000e+00 +0.0000000000e+00 +2.3798735399e+03 2.3798735399e+03 0.0000000000e+00 0.0000e+00 -1.0000e+00
       -2 -1    0    0    0  501 -0.0000000000e+00 -0.0000000000e+00 -7.4185348307e+02 7.4185348307e+02 0.0000000000e+00 0.0000e+00 1.0000e+00
      -13  1    1    2    0    0 +3.2108566929e+02 +1.2831659272e+03 +6.7085425943e+02 1.4831238118e+03 0.0000000000e+00 0.0000e+00 1.0000e+00
       13  1    1    2    0    0 -3.2108566929e+02 -1.2831659272e+03 +9.6716579742e+02 1.6386032111e+03 0.0000000000e+00 0.0000e+00 -1.0000e+00
<mgrwt>
<rscale>  0 0.26574555E+04</rscale>
<asrwt>0</asrwt>
<pdfrwt beam="1">  1        2 0.36613439E+00 0.26574555E+04</pdfrwt>
<pdfrwt beam="2">  1       -2 0.11413131E+00 0.26574555E+04</pdfrwt>
<totfact> 0.26967916E+00</totfact>
</mgrwt>
<rwgt>
<wgt id='morphing_basis_vector_1'> +1.5507456e-04 </wgt>
<wgt id='morphing_basis_vector_2'> +1.1316180e-04 </wgt>
<wgt id='morphing_basis_vector_3'> +1.6998351e-04 </wgt>
<wgt id='morphing_basis_vector_4'> +1.0847986e-04 </wgt>
<wgt id='morphing_basis_vector_5'> +1.8508018e-04 </wgt>
</rwgt>
</event>
<event>
 4      1 +2.2016400e-08 2.23306600e+03 7.81860800e-03 7.98213900e-02
        2 -1    0    0  501    0 +0.0000000000e+00 +0.0000000000e+00 +9.8852331710e+02 9.8852331710e+02 0.0000000000e+00 0.0000e+00 -1.0000e+00
       -2 -1    0    0    0  501 -0.0000000000e+00 -0.0000000000e+00 -1.2611189618e+03 1.2611189618e+03 0.0000000000e+00 0.0000e+00 1.0000e+00
      -13  1    1    2    0    0 -9.9547210176e+02 +1.3638615881e+02 -6.2682049376e+02 1.1842591866e+03 0.0000000000e+00 0.0000e+00 1.0000e+00
       13  1    1    2    0    0 +9.9547210176e+02 -1.3638615881e+02 +3.5422484904e+02 1.0653830923e+03 0.0000000000e+00 0.0000e+00 -1.0000e+00
<mgrwt>
<rscale>  0 0.22330656E+04</rscale>
<asrwt>0</asrwt>
<pdfrwt beam="1">  1        2 0.15208051E+00 0.22330656E+04</pdfrwt>
<pdfrwt beam="2">  1       -2 0.19401830E+00 0.22330656E+04</pdfrwt>
<totfact> 0.38033832E+00</totfact>
</mgrwt>
<rwgt>
<wgt id='morphing_basis_vector_1'> +7.6562322e-05 </wgt>
<wgt id='morphing_basis_vector_2'> +5.2254711e-05 </wgt>
<wgt id='morphing_basis_vector_3'> +8.2508319e-05 </wgt>
<wgt id='morphing_basis_vector_4'> +5.6629439e-05 </wgt>
<wgt id='morphing_basis_vector_5'> +9.1659960e-05 </wgt>
</rwgt>
</event>
<event>
 4      1 +2.2016400e-08 2.62113000e+03 7.81860800e-03 7.85571800e-02
        2 -1    0    0  501    0 +0.0000000000e+00 +0.0000000000e+00 +2.0014139971e+03 2.0014139971e+03 0.0000000000e+00 0.0000e+00 -1.0000e+00
       -2 -1    0    0    0  501 -0.0000000000e+00 -0.0000000000e+00 -8.5818385624e+02 8.5818385624e+02 0.0000000000e+00 0.0000e+00 1.0000e+00
      -13  1    1    2    0    0 -7.9297972047e+02 -9.7066070710e+02 +1.5392240047e+02 1.2628108135e+03 0.0000000000e+00 0.0000e+00 1.0000e+00
       13  1    1    2    0    0 +7.9297972047e+02 +9.7066070710e+02 +9.8930774043e+02 1.5967870399e+03 0.0000000000e+00 0.0000e+00 -1.0000e+00
<mgrwt>
<rscale>  0 0.26211304E+04</rscale>
<asrwt>0</asrwt>
<pdfrwt beam="1">  1        2 0.30790984E+00 0.26211304E+04</pdfrwt>
<pdfrwt beam="2">  1       -2 0.13202829E+00 0.26211304E+04</pdfrwt>
<totfact> 0.30456036E+00</totfact>
</mgrwt>
<rwgt>
<wgt id='morphing_basis_vector_1'> +1.4485072e-04 </wgt>
<wgt id='morphing_basis_vector_2'> +1.0120132e-04 </wgt>
<wgt id='morphing_basis_vector_3'> +1.5778446e-04 </wgt>
<wgt id='morphing_basis_vector_4'> +1.0674808e-04 </wgt>
<wgt id='morphing_basis_vector_5'> +1.7539337e-04 </wgt>
</rwgt>
</event>
<event>
 4      1 +2.2016400e-08 2.54466400e+03 7.81860800e-03 7.87877600e-02
        2 -1    0    0  501    0 +0.0000000000e+00 +0.0000000000e+00 +3.1435987148e+03 3.1435987148e+03 0.0000000000e+00 0.0000e+00 1.0000e+00
       -2 -1    0    0    0  501 -0.0000000000e+00 -0.0000000000e+00 -5.1496035580e+02 5.1496035580e+02 0.0000000000e+00 0.0000e+00 -1.0000e+00
      -13  1    1    2    0    0 +3.5805462006e+02 -9.1503508487e+02 +1.5220700106e+02 9.9431347606e+02 0.0000000000e+00 0.0000e+00 -1.0000e+00
       13  1    1    2    0    0 -3.5805462006e+02 +9.1503508487e+02 +2.4764313579e+03 2.6642455946e+03 0.0000000000e+00 0.0000e+00 1.0000e+00
<mgrwt>
<rscale>  0 0.25446640E+04</rscale>
<asrwt>0</asrwt>
<pdfrwt beam="1">  1        2 0.48363056E+00 0.25446640E+04</pdfrwt>
<pdfrwt beam="2">  1       -2 0.79224672E-01 0.25446640E+04</pdfrwt>
<totfact> 0.21692378E+00</totfact>
</mgrwt>
<rwgt>
<wgt id='morphing_basis_vector_1'> +1.2760926e-04 </wgt>
<wgt id='morphing_basis_vector_2'> +8.6269047e-05 </wgt>
<wgt id='morphing_basis_vector_3'> +1.3825692e-04 </wgt>
<wgt id='morphing_basis_vector_4'> +9.7261720e-05 </wgt>
<wgt id='morphing_basis_vector_5'> +1.5579247e-04 </wgt>
</rwgt>
</event>
<event>
 4      1 +2.2016400e-08 2.35957800e+03 7.81860800e-03 7.93820000e-02
        2 -1    0    0  501    0 +0.0000000000e+00 +0.0000000000e+00 +7.1719866112e+02 7.1719866112e+02 0.0000000000e+00 0.0000e+00 1.0000e+00
       -2 -1    0    0    0  501 -0.0000000000e+00 -0.0000000000e+00 -1.9407480903e+03 1.9407480903e+03 0.0000000000e+00 0.0000e+00 -1.0000e+00
      -13  1    1    2    0    0 -2.7652245770e+02 +6.8871272018e+02 -1.6448664552e+03 1.8045430270e+03 0.0000000000e+00 0.0000e+00 -1.0000e+00
       13  1    1    2    0    0 +2.7652245770e+02 -6.8871272018e+02 +4.2131702603e+02 8.5340372450e+02 0.0000000000e+00 0.0000e+00 1.0000e+00
<mgrwt>
<rscale>  0 0.23595779E+04</rscale>
<asrwt>0</asrwt>
<pdfrwt beam="1">  1        2 0.11033826E+00 0.23595779E+04</pdfrwt>
<pdfrwt beam="2">  1       -2 0.29857662E+00 0.23595779E+04</pdfrwt>
<totfact> 0.10697492E+00</totfact>
</mgrwt>
<rwgt>
<wgt id='morphing_basis_vector_1'> +9.4597393e-05 </wgt>
<wgt id='morphing_basis_vector_2'> +6.3502653e-05 </wgt>
<wgt id='morphing_basis_vector_3'> +1.0204553e-04 </wgt>
<wgt id='morphing_basis_vector_4'> +7.1888700e-05 </wgt>
<wgt id='morphing_basis_vector_5'> +1.1473396e-04 </wgt>
</rwgt>
</event>
<event>
 4      1 +2.2016400e-08 2.48132100e+03 7.81860800e-03 7.89851300e-02
        2 -1    0    0  501    0 +0.0000000000e+00 +0.0000000000e+00 +2.2045821603e+03 2.2045821603e+03 0.0000000000e+00 0.0000e+00 -1.0000e+00
       -2 -1    0    0    0  501 -0.0000000000e+00 -0.0000000000e+00 -6.9819953545e+02 6.9819953545e+02 0.0000000000e+00 0.0000e+00 1.0000e+00
      -13  1    1    2    0    0 -7.4297141358e+02 -2.7007315048e+02 -3.6540650684e+02 8.7090065062e+02 0.0000000000e+00 0.0000e+00 1.0000e+00
       13  1    1    2    0    0 +7.4297141358e+02 +2.7007315048e+02 +1.8717891317e+03 2.0318810451e+03 0.0000000000e+00 0.0000e+00 -1.0000e+00
<mgrwt>
<rscale>  0 0.24813208E+04</rscale>
<asrwt>0</asrwt>
<pdfrwt beam="1">  1        2 0.33916648E+00 0.24813208E+04</pdfrwt>
<pdfrwt beam="2">  1       -2 0.10741531E+00 0.24813208E+04</pdfrwt>
<totfact> 0.40294093E+00</totfact>
</mgrwt>
<rwgt>
<wgt id='morphing_basis_vector_1'> +1.1536620e-04 </wgt>
<wgt id='morphing_basis_vector_2'> +7.7583448e-05 </wgt>
<wgt id='morphing_basis_vector_3'> +1.2477353e-04 </wgt>
<wgt id='morphing_basis_vector_4'> +8.8138462e-05 </wgt>
<wgt id='morphing_basis_vector_5'> +1.4069547e-04 </wgt>
</rwgt>
</event>
<event>
 4      1 +2.2016400e-08 2.52891200e+03 7.81860800e-03 7.88362900e-02
        2 -1    0    0  501    0 +0.0000000000e+00 +0.0000000000e+00 +1.1258866539e+03 1.1258866539e+03 0.0000000000e+00 0.0000e+00 -1.0000e+00
       -2 -1    0    0    0  501 -0.0000000000e+00 -0.0000000000e+00 -1.4200801102e+03 1.4200801102e+03 0.0000000000e+00 0.0000e+00 1.0000e+00
      -13  1    1    2    0    0 -9.3066347868e+02 +7.9420704749e+02 -4.6854594789e+02 1.3101277228e+03 0.0000000000e+00 0.0000e+00 1.0000e+00
       13  1    1    2    0    0 +9.3066347868e+02 -7.9420704749e+02 +1.7435249159e+02 1.2358390414e+03 0.0000000000e+00 0.0000e+00 -1.0000e+00
<mgrwt>
<rscale>  0 0.25289122E+04</rscale>
<asrwt>0</asrwt>
<pdfrwt beam="1">  1        2 0.17321333E+00 0.25289122E+04</pdfrwt>
<pdfrwt beam="2">  1       -2 0.21847386E+00 0.25289122E+04</pdfrwt>
<totfact> 0.20340827E+00</totfact>
</mgrwt>
<rwgt>
<wgt id='morphing_basis_vector_1'> +1.2600131e-04 </wgt>
<wgt id='morphing_basis_vector_2'> +8.8540225e-05 </wgt>
<wgt id='morphing_basis_vector_3'> +1.3713651e-04 </wgt>
<wgt id='morphing_basis_vector_4'> +9.1803956e-05 </wgt>
<wgt id='morphing_basis_vector_5'> +1.5167684e-04 </wgt>
</rwgt>
</event>
<event>
 4      1 +2.2016400e-08 2.38471300e+03 7.81860800e-03 7.92980800e-02
        2 -1    0    0  501    0 +0.0000000000e+00 +0.0000000000e+00 +2.3401480120e+03 2.3401480120e+03 0.0000000000e+00 0.0000e+00 -1.0000e+00
       -2 -1    0    0    0  501 -0.0000000000e+00 -0.0000000000e+00 -6.0753187646e+02 6.0753187646e+02 0.0000000000e+00 0.0000e+00 1.0000e+00
      -13  1    1    2    0    0 -1.4254252201e+02 -7.8660612162e+02 -2.2721279549e+02 8.3107954829e+02 0.0000000000e+00 0.0000e+00 1.0000e+00
       13  1    1    2    0    0 +1.4254252201e+02 +7.8660612162e+02 +1.9598289310e+03 2.1166003402e+03 0.0000000000e+00 0.0000e+00 -1.0000e+00
<mgrwt>
<rscale>  0 0.23847134E+04</rscale>
<asrwt>0</asrwt>
<pdfrwt beam="1">  1        2 0.36002277E+00 0.23847134E+04</pdfrwt>
<pdfrwt beam="2">  1       -2 0.93466444E-01 0.23847134E+04</pdfrwt>
<totfact> 0.47475536E+00</totfact>
</mgrwt>
<rwgt>
<wgt id='morphing_basis_vector_1'> +9.8657661e-05 </wgt>
<wgt id='morphing_basis_vector_2'> +6.6309037e-05 </wgt>
<wgt id='morphing_basis_vector_3'> +1.0649647e-04 </wgt>
<wgt id='morphing_basis_vector_4'> +7.4994240e-05 </wgt>
<wgt id='morphing_basis_vector_5'> +1.1976966e-04 </wgt>
</rwgt>
</event>
<event>
 4      1 +2.2016400e-08 2.30826300e+03 7.81860800e-03 7.95567200e-02
        2 -1    0    0  501    0 +0.0000000000e+00 +0.0000000000e+00 +3.1424392925e+03 3.1424392925e+03 0.0000000000e+00 0.0000e+00 -1.0000e+00
       -2 -1    0    0    0  501 -0.0000000000e+00 -0.0000000000e+00 -4.2388079821e+02 4.2388079821e+02 0.0000000000e+00 0.0000e+00 1.0000e+00
      -13  1    1    2    0    0 -4.6471159326e+02 +2.7084232162e+02 -2.1839087375e+02 5.8052304159e+02 0.0000000000e+00 0.0000e+00 1.0000e+00
       13  1    1    2    0    0 +4.6471159326e+02 -2.7084232162e+02 +2.9369493680e+03 2.9857970491e+03 0.0000000000e+00 0.0000e+00 -1.0000e+00
<mgrwt>
<rscale>  0 0.23082631E+04</rscale>
<asrwt>0</asrwt>
<pdfrwt beam="1">  1        2 0.48345218E+00 0.23082631E+04</pdfrwt>
<pdfrwt beam="2">  1       -2 0.65212433E-01 0.23082631E+04</pdfrwt>
<totfact> 0.33874725E+00</totfact>
</mgrwt>
<rwgt>
<wgt id='morphing_basis_vector_1'> +8.6704613e-05 </wgt>
<wgt id='morphing_basis_vector_2'> +5.8063564e-05 </wgt>
<wgt id='morphing_basis_vector_3'> +9.3400262e-05 </wgt>
<wgt id='morphing_basis_vector_4'> +6.5838906e-05 </wgt>
<wgt id='morphing_basis_vector_5'> +1.0494505e-04 </wgt>
</rwgt>
</event>
<event>
 4      1 +2.2016400e-08 2.52774200e+03 7.81860800e-03 7.88399100e-02
        2 -1    0    0  501    0 +0.0000000000e+00 +0.0000000000e+00 +3.5158006674e+03 3.5158006674e+03 0.0000000000e+00 0.0000e+00 1.0000e+00
       -2 -1    0    0    0  501 -0.0000000000e+00 -0.0000000000e+00 -4.5434015421e+02 4.5434015421e+02 0.0000000000e+00 0.0000e+00 -1.0000e+00
      -13  1    1    2    0    0 -4.2677905657e+02 +8.1856383971e+02 +1.7490257359e+02 9.3956268182e+02 0.0000000000e+00 0.0000e+00 -1.0000e+00
       13  1    1    2    0    0 +4.2677905657e+02 -8.1856383971e+02 +2.8865579396e+03 3.0305781398e+03 0.0000000000e+00 0.0000e+00 1.0000e+00
<mgrwt>
<rscale>  0 0.25277416E+04</rscale>
<asrwt>0</asrwt>
<pdfrwt beam="1">  1        2 0.54089239E+00 0.25277416E+04</pdfrwt>
<pdfrwt beam="2">  1       -2 0.69898488E-01 0.25277416E+04</pdfrwt>
<totfact> 0.15708075E+00</totfact>
</mgrwt>
<rwgt>
<wgt id='morphing_basis_vector_1'> +1.2421908e-04 </wgt>
<wgt id='morphing_basis_vector_2'> +8.3798211e-05 </wgt>
<wgt id='morphing_basis_vector_3'> +1.3450980e-04 </wgt>
<wgt id='morphing_basis_vector_4'> +9.4816101e-05 </wgt>
<wgt id='morphing_basis_vector_5'> +1.5165100e-04 </wgt>
</rwgt>
</event>
<event>
 4      1 +2.2016400e-08 2.58200000e+03 7.81860800e-03 7.86741600e-02
        2 -1    0    0  501    0 +0.0000000000e+00 +0.0000000000e+00 +4.3398216525e+03 4.3398216525e+03 0.0000000000e+00 0.0000e+00 -1.0000e+00
       -2 -1    0    0    0  501 -0.0000000000e+00 -0.0000000000e+00 -3.8404378518e+02 3.8404378518e+02 0.0000000000e+00 0.0000e+00 1.0000e+00
      -13  1    1    2    0    0 -7.7453430843e+02 +2.5208160489e+02 +1.4539681322e+02 8.2739879366e+02 0.0000000000e+00 0.0000e+00 1.0000e+00
       13  1    1    2    0    0 +7.7453430843e+02 -2.5208160489e+02 +3.8103810541e+03 3.8964666441e+03 0.0000000000e+00 0.0000e+00 -1.0000e+00
<mgrwt>
<rscale>  0 0.25820004E+04</rscale>
<asrwt>0</asrwt>
<pdfrwt beam="1">  1        2 0.66766484E+00 0.25820004E+04</pdfrwt>
<pdfrwt beam="2">  1       -2 0.59083662E-01 0.25820004E+04</pdfrwt>
<totfact> 0.45605645E-01</totfact>
</mgrwt>
<rwgt>
<wgt id='morphing_basis_vector_1'> +1.3498312e-04 </wgt>
<wgt id='morphing_basis_vector_2'> +9.0873637e-05 </wgt>
<wgt id='morphing_basis_vector_3'> +1.4626131e-04 </wgt>
<wgt id='morphing_basis_vector_4'> +1.0354685e-04 </wgt>
<wgt id='morphing_basis_vector_5'> +1.6528704e-04 </wgt>
</rwgt>
</event>
<event>
 4      1 +2.2016400e-08 2.59188400e+03 7.81860800e-03 7.86444100e-02
        2 -1    0    0  501    0 +0.0000000000e+00 +0.0000000000e+00 +8.9193200302e+02 8.9193200302e+02 0.0000000000e+00 0.0000e+00 -1.0000e+00
       -2 -1    0    0    0  501 -0.0000000000e+00 -0.0000000000e+00 -1.8829518641e+03 1.8829518641e+03 0.0000000000e+00 0.0000e+00 1.0000e+00
      -13  1    1    2    0    0 +1.0827759743e+03 -7.0835773280e+02 -4.1763829123e+02 1.3596309170e+03 0.0000000000e+00 0.0000e+00 1.0000e+00
       13  1    1    2    0    0 -1.0827759743e+03 +7.0835773280e+02 -5.7338156980e+02 1.4152529501e+03 0.0000000000e+00 0.0000e+00 -1.0000e+00
<mgrwt>
<rscale>  0 0.25918835E+04</rscale>
<asrwt>0</asrwt>
<pdfrwt beam="1">  1        2 0.13722031E+00 0.25918835E+04</pdfrwt>
<pdfrwt beam="2">  1       -2 0.28968490E+00 0.25918835E+04</pdfrwt>
<totfact> 0.91001911E-01</totfact>
</mgrwt>
<rwgt>
<wgt id='morphing_basis_vector_1'> +1.4308394e-04 </wgt>
<wgt id='morphing_basis_vector_2'> +1.1010365e-04 </wgt>
<wgt id='morphing_basis_vector_3'> +1.5779513e-04 </wgt>
<wgt id='morphing_basis_vector_4'> +9.2722072e-05 </wgt>
<wgt id='morphing_basis_vector_5'> +1.6685168e-04 </wgt>
</rwgt>
</event>
<event>
 4      1 +2.2016400e-08 2.28257700e+03 7.81860800e-03 7.96459500e-02
        2 -1    0    0  501    0 +0.0000000000e+00 +0.0000000000e+00 +1.4371616282e+03 1.4371616282e+03 0.0000000000e+00 0.0000e+00 1.0000e+00
       -2 -1    0    0    0  501 -0.0000000000e+00 -0.0000000000e+00 -9.0632796842e+02 9.0632796842e+02 0.0000000000e+00 0.0000e+00 -1.0000e+00
      -13  1    1    2    0    0 -1.7104388140e+02 -9.3875052889e+02 -3.7741572162e+02 1.0261341003e+03 0.0000000000e+00 0.0000e+00 -1.0000e+00
       13  1    1    2    0    0 +1.7104388140e+02 +9.3875052889e+02 +9.0824938142e+02 1.3173554963e+03 0.0000000000e+00 0.0000e+00 1.0000e+00
<mgrwt>
<rscale>  0 0.22825773E+04</rscale>
<asrwt>0</asrwt>
<pdfrwt beam="1">  1        2 0.22110179E+00 0.22825773E+04</pdfrwt>
<pdfrwt beam="2">  1       -2 0.13943507E+00 0.22825773E+04</pdfrwt>
<totfact> 0.55792591E+00</totfact>
</mgrwt>
<rwgt>
<wgt id='morphing_basis_vector_1'> +8.3237719e-05 </wgt>
<wgt id='morphing_basis_vector_2'> +5.6339213e-05 </wgt>
<wgt id='morphing_basis_vector_3'> +8.9723906e-05 </wgt>
<wgt id='morphing_basis_vector_4'> +6.2365143e-05 </wgt>
<wgt id='morphing_basis_vector_5'> +1.0023867e-04 </wgt>
</rwgt>
</event>
<event>
 4      1 +2.2016400e-08 2.39348100e+03 7.81860800e-03 7.92690500e-02
        2 -1    0    0  501    0 +0.0000000000e+00 +0.0000000000e+00 +2.2667032892e+03 2.2667032892e+03 0.0000000000e+00 0.0000e+00 1.0000e+00
       -2 -1    0    0    0  501 -0.0000000000e+00 -0.0000000000e+00 -6.3183752667e+02 6.3183752667e+02 0.0000000000e+00 0.0000e+00 -1.0000e+00
      -13  1    1    2    0    0 -3.6556896872e+02 -2.8577618503e+02 -5.1846470965e+02 6.9578326652e+02 0.0000000000e+00 0.0000e+00 -1.0000e+00
       13  1    1    2    0    0 +3.6556896872e+02 +2.8577618503e+02 +2.1533304722e+03 2.2027575494e+03 0.0000000000e+00 0.0000e+00 1.0000e+00
<mgrwt>
<rscale>  0 0.23934813E+04</rscale>
<asrwt>0</asrwt>
<pdfrwt beam="1">  1        2 0.34872358E+00 0.23934813E+04</pdfrwt>
<pdfrwt beam="2">  1       -2 0.97205774E-01 0.23934813E+04</pdfrwt>
<totfact> 0.47692777E+00</totfact>
</mgrwt>
<rwgt>
<wgt id='morphing_basis_vector_1'> +1.0001338e-04 </wgt>
<wgt id='morphing_basis_vector_2'> +6.7040769e-05 </wgt>
<wgt id='morphing_basis_vector_3'> +1.0794495e-04 </wgt>
<wgt id='morphing_basis_vector_4'> +7.6286375e-05 </wgt>
<wgt id='morphing_basis_vector_5'> +1.2157943e-04 </wgt>
</rwgt>
</event>
<event>
 4      1 +2.2016400e-08 2.28212800e+03 7.81860800e-03 7.96475200e-02
        2 -1    0    0  501    0 +0.0000000000e+00 +0.0000000000e+00 +1.3752655643e+03 1.3752655643e+03 0.0000000000e+00 0.0000e+00 -1.0000e+00
       -2 -1    0    0    0  501 -0.0000000000e+00 -0.0000000000e+00 -9.4674596733e+02 9.4674596733e+02 0.0000000000e+00 0.0000e+00 1.0000e+00
      -13  1    1    2    0    0 -4.9850005261e+02 -4.7961733043e+02 -7.0906407167e+02 9.9060938004e+02 0.0000000000e+00 0.0000e+00 1.0000e+00
       13  1    1    2    0    0 +4.9850005261e+02 +4.7961733043e+02 +1.1375836686e+03 1.3314021515e+03 0.0000000000e+00 0.0000e+00 -1.0000e+00
<mgrwt>
<rscale>  0 0.22821281E+04</rscale>
<asrwt>0</asrwt>
<pdfrwt beam="1">  1        2 0.21157932E+00 0.22821281E+04</pdfrwt>
<pdfrwt beam="2">  1       -2 0.14565322E+00 0.22821281E+04</pdfrwt>
<totfact> 0.53545819E+00</totfact>
</mgrwt>
<rwgt>
<wgt id='morphing_basis_vector_1'> +8.2933323e-05 </wgt>
<wgt id='morphing_basis_vector_2'> +5.5586388e-05 </wgt>
<wgt id='morphing_basis_vector_3'> +8.9293274e-05 </wgt>
<wgt id='morphing_basis_vector_4'> +6.2801829e-05 </wgt>
<wgt id='morphing_basis_vector_5'> +1.0019763e-04 </wgt>
</rwgt>
</event>
<event>
 4      1 +2.2016400e-08 2.47280200e+03 7.81860800e-03 7.90121400e-02
        2 -1    0    0  501    0 +0.0000000000e+00 +0.0000000000e+00 +2.0960878716e+03 2.0960878716e+03 0.0000000000e+00 0.0000e+00 -1.0000e+00
       -2 -1    0    0    0  501 -0.0000000000e+00 -0.0000000000e+00 -7.2930523160e+02 7.2930523160e+02 0.0000000000e+00 0.0000e+00 1.0000e+00
      -13  1    1    2    0    0 -5.3380793017e+02 +2.1746299512e+02 -5.6639616795e+02 8.0811241770e+02 0.0000000000e+00 0.0000e+00 1.0000e+00
       13  1    1    2    0    0 +5.3380793017e+02 -2.1746299512e+02 +1.9331788080e+03 2.0172806855e+03 0.0000000000e+00 0.0000e+00 -1.0000e+00
<mgrwt>
<rscale>  0 0.24728023E+04</rscale>
<asrwt>0</asrwt>
<pdfrwt beam="1">  1        2 0.32247505E+00 0.24728023E+04</pdfrwt>
<pdfrwt beam="2">  1       -2 0.11220081E+00 0.24728023E+04</pdfrwt>
<totfact> 0.41688344E+00</totfact>
</mgrwt>
<rwgt>
<wgt id='morphing_basis_vector_1'> +1.1375072e-04 </wgt>
<wgt id='morphing_basis_vector_2'> +7.6351776e-05 </wgt>
<wgt id='morphing_basis_vector_3'> +1.2297899e-04 </wgt>
<wgt id='morphing_basis_vector_4'> +8.7042304e-05 </wgt>
<wgt id='morphing_basis_vector_5'> +1.3875840e-04 </wgt>
</rwgt>
</event>
<event>
 4      1 +2.2016400e-08 2.40381900e+03 7.81860800e-03 7.92349900e-02
        2 -1    0    0  501    0 +0.0000000000e+00 +0.0000000000e+00 +2.5541716037e+03 2.5541716037e+03 0.0000000000e+00 0.0000e+00 1.0000e+00
       -2 -1    0    0    0  501 -0.0000000000e+00 -0.0000000000e+00 -5.6557933961e+02 5.6557933961e+02 0.0000000000e+00 0.0000e+00 -1.0000e+00
      -13  1    1    2    0    0 +2.7388780712e+02 +9.9905004959e+02 +1.7853037636e+03 2.0640797128e+03 0.0000000000e+00 0.0000e+00 1.0000e+00
       13  1    1    2    0    0 -2.7388780712e+02 -9.9905004959e+02 +2.0328850049e+02 1.0556712305e+03 0.0000000000e+00 0.0000e+00 -1.0000e+00
<mgrwt>
<rscale>  0 0.24038192E+04</rscale>
<asrwt>0</asrwt>
<pdfrwt beam="1">  1        2 0.39294947E+00 0.24038192E+04</pdfrwt>
<pdfrwt beam="2">  1       -2 0.87012208E-01 0.24038192E+04</pdfrwt>
<totfact> 0.41849966E+00</totfact>
</mgrwt>
<rwgt>
<wgt id='morphing_basis_vector_1'> +1.2080720e-04 </wgt>
<wgt id='morphing_basis_vector_2'> +1.2452698e-04 </wgt>
<wgt id='morphing_basis_vector_3'> +1.3874236e-04 </wgt>
<wgt id='morphing_basis_vector_4'> +3.8700189e-05 </wgt>
<wgt id='morphing_basis_vector_5'> +1.2058024e-04 </wgt>
</rwgt>
</event>
<event>
 4      1 +2.2016400e-08 2.30623300e+03 7.81860800e-03 7.95637300e-02
        2 -1    0    0  501    0 +0.0000000000e+00 +0.0000000000e+00 +9.1200519426e+02 9.1200519426e+02 0.0000000000e+00 0.0000e+00 -1.0000e+00
       -2 -1    0    0    0  501 -0.0000000000e+00 -0.0000000000e+00 -1.4579711642e+03 1.4579711642e+03 0.0000000000e+00 0.0000e+00 1.0000e+00
      -13  1    1    2    0    0 -7.6945033486e+02 -4.6189592115e+02 -1.0170648572e+03 1.3564005985e+03 0.0000000000e+00 0.0000e+00 1.0000e+00
       13  1    1    2    0    0 +7.6945033486e+02 +4.6189592115e+02 +4.7109888721e+02 1.0135757600e+03 0.0000000000e+00 0.0000e+00 -1.0000e+00
<mgrwt>
<rscale>  0 0.23062327E+04</rscale>
<asrwt>0</asrwt>
<pdfrwt beam="1">  1        2 0.14030849E+00 0.23062327E+04</pdfrwt>
<pdfrwt beam="2">  1       -2 0.22430325E+00 0.23062327E+04</pdfrwt>
<totfact> 0.25575301E+00</totfact>
</mgrwt>
<rwgt>
<wgt id='morphing_basis_vector_1'> +8.6573905e-05 </wgt>
<wgt id='morphing_basis_vector_2'> +5.8361008e-05 </wgt>
<wgt id='morphing_basis_vector_3'> +9.3327147e-05 </wgt>
<wgt id='morphing_basis_vector_4'> +6.5260344e-05 </wgt>
<wgt id='morphing_basis_vector_5'> +1.0454309e-04 </wgt>
</rwgt>
</event>
<event>
 4      1 +2.2016400e-08 2.36313000e+03 7.81860800e-03 7.93700800e-02
        2 -1    0    0  501    0 +0.0000000000e+00 +0.0000000000e+00 +2.1524980554e+03 2.1524980554e+03 0.0000000000e+00 0.0000e+00 1.0000e+00
       -2 -1    0    0    0  501 -0.0000000000e+00 -0.0000000000e+00 -6.4859348773e+02 6.4859348773e+02 0.0000000000e+00 0.0000e+00 -1.0000e+00
      -13  1    1    2    0    0 -5.7972202869e+02 -9.0051549509e+01 -4.6375433200e+02 7.4783353266e+02 0.0000000000e+00 0.0000e+00 -1.0000e+00
       13  1    1    2    0    0 +5.7972202869e+02 +9.0051549509e+01 +1.9676588996e+03 2.0532580104e+03 0.0000000000e+00 0.0000e+00 1.0000e+00
<mgrwt>
<rscale>  0 0.23631303E+04</rscale>
<asrwt>0</asrwt>
<pdfrwt beam="1">  1        2 0.33115354E+00 0.23631303E+04</pdfrwt>
<pdfrwt beam="2">  1       -2 0.99783615E-01 0.23631303E+04</pdfrwt>
<totfact> 0.52223825E+00</totfact>
</mgrwt>
<rwgt>
<wgt id='morphing_basis_vector_1'> +9.5118726e-05 </wgt>
<wgt id='morphing_basis_vector_2'> +6.3761694e-05 </wgt>
<wgt id='morphing_basis_vector_3'> +1.0259836e-04 </wgt>
<wgt id='morphing_basis_vector_4'> +7.2412766e-05 </wgt>
<wgt id='morphing_basis_vector_5'> +1.1544323e-04 </wgt>
</rwgt>
</event>
<event>
 4      1 +2.2016400e-08 2.54732800e+03 7.81860800e-03 7.87795900e-02
        2 -1    0    0  501    0 +0.0000000000e+00 +0.0000000000e+00 +2.2498941070e+03 2.2498941070e+03 0.0000000000e+00 0.0000e+00 1.0000e+00
       -2 -1    0    0    0  501 -0.0000000000e+00 -0.0000000000e+00 -7.2102080580e+02 7.2102080580e+02 0.0000000000e+00 0.0000e+00 -1.0000e+00
      -13  1    1    2    0    0 +1.1227666127e+02 -5.0387378645e+02 -5.9353649681e+02 7.8662596854e+02 0.0000000000e+00 0.0000e+00 -1.0000e+00
       13  1    1    2    0    0 -1.1227666127e+02 +5.0387378645e+02 +2.1224097980e+03 2.1842889443e+03 0.0000000000e+00 0.0000e+00 1.0000e+00
<mgrwt>
<rscale>  0 0.25473284E+04</rscale>
<asrwt>0</asrwt>
<pdfrwt beam="1">  1        2 0.34613755E+00 0.25473284E+04</pdfrwt>
<pdfrwt beam="2">  1       -2 0.11092628E+00 0.25473284E+04</pdfrwt>
<totfact> 0.34819286E+00</totfact>
</mgrwt>
<rwgt>
<wgt id='morphing_basis_vector_1'> +1.2789075e-04 </wgt>
<wgt id='morphing_basis_vector_2'> +8.5900169e-05 </wgt>
<wgt id='morphing_basis_vector_3'> +1.3845813e-04 </wgt>
<wgt id='morphing_basis_vector_4'> +9.8181866e-05 </wgt>
<wgt id='morphing_basis_vector_5'> +1.5649524e-04 </wgt>
</rwgt>
</event>
<event>
 4      1 +2.2016400e-08 2.41280800e+03 7.81860800e-03 7.92055200e-02
        2 -1    0    0  501    0 +0.0000000000e+00 +0.0000000000e+00 +2.3094477354e+03 2.3094477354e+03 0.0000000000e+00 0.0000e+00 -1.0000e+00
       -2 -1    0    0    0  501 -0.0000000000e+00 -0.0000000000e+00 -6.3019861990e+02 6.3019861990e+02 0.0000000000e+00 0.0000e+00 1.0000e+00
      -13  1    1    2    0    0 -5.9028380118e+02 -3.6095764515e+02 -3.6443964170e+02 7.8201127867e+02 0.0000000000e+00 0.0000e+00 1.0000e+00
       13  1    1    2    0    0 +5.9028380118e+02 +3.6095764515e+02 +2.0436887572e+03 2.1576350766e+03 0.0000000000e+00 0.0000e+00 -1.0000e+00
<mgrwt>
<rscale>  0 0.24128081E+04</rscale>
<asrwt>0</asrwt>
<pdfrwt beam="1">  1        2 0.35529965E+00 0.24128081E+04</pdfrwt>
<pdfrwt beam="2">  1       -2 0.96953635E-01 0.24128081E+04</pdfrwt>
<totfact> 0.45253282E+00</totfact>
</mgrwt>
<rwgt>
<wgt id='morphing_basis_vector_1'> +1.0327079e-04 </wgt>
<wgt id='morphing_basis_vector_2'> +6.9321414e-05 </wgt>
<wgt id='morphing_basis_vector_3'> +1.1152228e-04 </wgt>
<wgt id='morphing_basis_vector_4'> +7.8744117e-05 </wgt>
<wgt id='morphing_basis_vector_5'> +1.2560453e-04 </wgt>
</rwgt>
</event>
<event>
 4      1 +2.2016400e-08 2.28466100e+03 7.81860800e-03 7.96386600e-02
        2 -1    0    0  501    0 +0.0000000000e+00 +0.0000000000e+00 +5.6833739553e+02 5.6833739553e+02 0.0000000000e+00 0.0000e+00 1.0000e+00
       -2 -1    0    0    0  501 -0.0000000000e+00 -0.0000000000e+00 -2.2960283656e+03 2.2960283656e+03 0.0000000000e+00 0.0000e+00 -1.0000e+00
      -13  1    1    2    0    0 +5.8968109853e+02 -7.0150982092e+02 -1.7188532934e+03 1.9478953953e+03 0.0000000000e+00 0.0000e+00 -1.0000e+00
       13  1    1    2    0    0 -5.8968109853e+02 +7.0150982092e+02 -8.8376766235e+00 9.1647036577e+02 0.0000000000e+00 0.0000e+00 1.0000e+00
<mgrwt>
<rscale>  0 0.22846608E+04</rscale>
<asrwt>0</asrwt>
<pdfrwt beam="1">  1        2 0.87436524E-01 0.22846608E+04</pdfrwt>
<pdfrwt beam="2">  1       -2 0.35323513E+00 0.22846608E+04</pdfrwt>
<totfact> 0.61753632E-01</totfact>
</mgrwt>
<rwgt>
<wgt id='morphing_basis_vector_1'> +8.3466447e-05 </wgt>
<wgt id='morphing_basis_vector_2'> +5.6334489e-05 </wgt>
<wgt id='morphing_basis_vector_3'> +8.9945216e-05 </wgt>
<wgt id='morphing_basis_vector_4'> +6.2740286e-05 </wgt>
<wgt id='morphing_basis_vector_5'> +1.0062235e-04 </wgt>
</rwgt>
</event>
<event>
 4      1 +2.2016400e-08 2.55691800e+03 7.81860800e-03 7.87502600e-02
        2 -1    0    0  501    0 +0.0000000000e+00 +0.0000000000e+00 +1.0957171154e+03 1.0957171154e+03 0.0000000000e+00 0.0000e+00 -1.0000e+00
       -2 -1    0    0    0  501 -0.0000000000e+00 -0.0000000000e+00 -1.4916785952e+03 1.4916785952e+03 0.0000000000e+00 0.0000e+00 1.0000e+00
      -13  1    1    2    0    0 +8.7865586661e+02 +9.2488162038e+02 -2.8273843804e+02 1.3066687292e+03 0.0000000000e+00 0.0000e+00 1.0000e+00
       13  1    1    2    0    0 -8.7865586661e+02 -9.2488162038e+02 -1.1322304182e+02 1.2807269814e+03 0.0000000000e+00 0.0000e+00 -1.0000e+00
<mgrwt>
<rscale>  0 0.25569183E+04</rscale>
<asrwt>0</asrwt>
<pdfrwt beam="1">  1        2 0.16857186E+00 0.25569183E+04</pdfrwt>
<pdfrwt beam="2">  1       -2 0.22948902E+00 0.25569183E+04</pdfrwt>
<totfact> 0.17680446E+00</totfact>
</mgrwt>
<rwgt>
<wgt id='morphing_basis_vector_1'> +1.3353982e-04 </wgt>
<wgt id='morphing_basis_vector_2'> +9.8217410e-05 </wgt>
<wgt id='morphing_basis_vector_3'> +1.4627679e-04 </wgt>
<wgt id='morphing_basis_vector_4'> +9.2011895e-05 </wgt>
<wgt id='morphing_basis_vector_5'> +1.5827130e-04 </wgt>
</rwgt>
</event>
<event>
 4      1 +2.2016400e-08 2.38040700e+03 7.81860800e-03 7.93123800e-02
        2 -1    0    0  501    0 +0.0000000000e+00 +0.0000000000e+00 +2.7749234726e+03 2.7749234726e+03 0.0000000000e+00 0.0000e+00 -1.0000e+00
       -2 -1    0    0    0  501 -0.0000000000e+00 -0.0000000000e+00 -5.1049514211e+02 5.1049514211e+02 0.0000000000e+00 0.0000e+00 1.0000e+00
      -13  1    1    2    0    0 -2.7006551356e+02 -9.0589953807e+02 +1.3408114691e+02 9.5476023621e+02 0.0000000000e+00 0.0000e+00 1.0000e+00
       13  1    1    2    0    0 +2.7006551356e+02 +9.0589953807e+02 +2.1303471836e+03 2.3306583785e+03 0.0000000000e+00 0.0000e+00 -1.0000e+00
<mgrwt>
<rscale>  0 0.23804075E+04</rscale>
<asrwt>0</asrwt>
<pdfrwt beam="1">  1        2 0.42691129E+00 0.23804075E+04</pdfrwt>
<pdfrwt beam="2">  1       -2 0.78537716E-01 0.23804075E+04</pdfrwt>
<totfact> 0.38838408E+00</totfact>
</mgrwt>
<rwgt>
<wgt id='morphing_basis_vector_1'> +9.8105643e-05 </wgt>
<wgt id='morphing_basis_vector_2'> +6.6272629e-05 </wgt>
<wgt id='morphing_basis_vector_3'> +1.0595488e-04 </wgt>
<wgt id='morphing_basis_vector_4'> +7.4144061e-05 </wgt>
<wgt id='morphing_basis_vector_5'> +1.1887042e-04 </wgt>
</rwgt>
</event>
<event>
 4      1 +2.2016400e-08 2.53384000e+03 7.81860800e-03 7.88210700e-02
        2 -1    0    0  501    0 +0.0000000000e+00 +0.0000000000e+00 +2.5440529070e+03 2.5440529070e+03 0.0000000000e+00 0.0000e+00 1.0000e+00
       -2 -1    0    0    0  501 -0.0000000000e+00 -0.0000000000e+00 -6.3091699896e+02 6.3091699896e+02 0.0000000000e+00 0.0000e+00 -1.0000e+00
      -13  1    1    2    0    0 -9.0893748216e+02 -1.4487830836e+02 +2.0474423290e+03 2.2448111639e+03 0.0000000000e+00 0.0000e+00 1.0000e+00
       13  1    1    2    0    0 +9.0893748216e+02 +1.4487830836e+02 -1.3430642102e+02 9.3015874206e+02 0.0000000000e+00 0.0000e+00 -1.0000e+00
<mgrwt>
<rscale>  0 0.25338400E+04</rscale>
<asrwt>0</asrwt>
<pdfrwt beam="1">  1        2 0.39139275E+00 0.25338400E+04</pdfrwt>
<pdfrwt beam="2">  1       -2 0.97064155E-01 0.25338400E+04</pdfrwt>
<totfact> 0.32464940E+00</totfact>
</mgrwt>
<rwgt>
<wgt id='morphing_basis_vector_1'> +1.6055981e-04 </wgt>
<wgt id='morphing_basis_vector_2'> +1.8831668e-04 </wgt>
<wgt id='morphing_basis_vector_3'> +1.8958089e-04 </wgt>
<wgt id='morphing_basis_vector_4'> +2.3611192e-05 </wgt>
<wgt id='morphing_basis_vector_5'> +1.4728515e-04 </wgt>
</rwgt>
</event>
<event>
 4      1 +2.2016400e-08 2.33595800e+03 7.81860800e-03 7.94618500e-02
        2 -1    0    0  501    0 +0.0000000000e+00 +0.0000000000e+00 +1.1219506251e+03 1.1219506251e+03 0.0000000000e+00 0.0000e+00 -1.0000e+00
       -2 -1    0    0    0  501 -0.0000000000e+00 -0.0000000000e+00 -1.2158959930e+03 1.2158959930e+03 0.0000000000e+00 0.0000e+00 1.0000e+00
      -13  1    1    2    0    0 +7.4524199667e+02 -7.8604536857e+02 -4.8427248307e+02 1.1864960147e+03 0.0000000000e+00 0.0000e+00 1.0000e+00
       13  1    1    2    0    0 -7.4524199667e+02 +7.8604536857e+02 +3.9032711514e+02 1.1513506034e+03 0.0000000000e+00 0.0000e+00 -1.0000e+00
<mgrwt>
<rscale>  0 0.23359583E+04</rscale>
<asrwt>0</asrwt>
<pdfrwt beam="1">  1        2 0.17260779E+00 0.23359583E+04</pdfrwt>
<pdfrwt beam="2">  1       -2 0.18706092E+00 0.23359583E+04</pdfrwt>
<totfact> 0.35213947E+00</totfact>
</mgrwt>
<rwgt>
<wgt id='morphing_basis_vector_1'> +9.1611763e-05 </wgt>
<wgt id='morphing_basis_vector_2'> +6.3055699e-05 </wgt>
<wgt id='morphing_basis_vector_3'> +9.9067984e-05 </wgt>
<wgt id='morphing_basis_vector_4'> +6.7607314e-05 </wgt>
<wgt id='morphing_basis_vector_5'> +1.1003077e-04 </wgt>
</rwgt>
</event>
<event>
 4      1 +2.2016400e-08 2.36078400e+03 7.81860800e-03 7.93779500e-02
        2 -1    0    0  501    0 +0.0000000000e+00 +0.0000000000e+00 +2.6795587609e+03 2.6795587609e+03 0.0000000000e+00 0.0000e+00 1.0000e+00
       -2 -1    0    0    0  501 -0.0000000000e+00 -0.0000000000e+00 -5.1998327015e+02 5.1998327015e+02 0.0000000000e+00 0.0000e+00 -1.0000e+00
      -13  1    1    2    0    0 -1.0375686244e+03 +1.7273800557e+02 +1.8057700370e+03 2.0897828824e+03 0.0000000000e+00 0.0000e+00 1.0000e+00
       13  1    1    2    0    0 +1.0375686244e+03 -1.7273800557e+02 +3.5380545368e+02 1.1097591486e+03 0.0000000000e+00 0.0000e+00 -1.0000e+00
<mgrwt>
<rscale>  0 0.23607844E+04</rscale>
<asrwt>0</asrwt>
<pdfrwt beam="1">  1        2 0.41223980E+00 0.23607844E+04</pdfrwt>
<pdfrwt beam="2">  1       -2 0.79997428E-01 0.23607844E+04</pdfrwt>
<totfact> 0.42747782E+00</totfact>
</mgrwt>
<rwgt>
<wgt id='morphing_basis_vector_1'> +1.1007877e-04 </wgt>
<wgt id='morphing_basis_vector_2'> +1.0878439e-04 </wgt>
<wgt id='morphing_basis_vector_3'> +1.2535628e-04 </wgt>
<wgt id='morphing_basis_vector_4'> +4.0902955e-05 </wgt>
<wgt id='morphing_basis_vector_5'> +1.1246321e-04 </wgt>
</rwgt>
</event>
<event>
 4      1 +2.2016400e-08 2.24948300e+03 7.81860800e-03 7.97627000e-02
        2 -1    0    0  501    0 +0.0000000000e+00 +0.0000000000e+00 +1.4435689881e+03 1.4435689881e+03 0.0000000000e+00 0.0000e+00 -1.0000e+00
       -2 -1    0    0    0  501 -0.0000000000e+00 -0.0000000000e+00 -8.7633010301e+02 8.7633010301e+02 0.0000000000e+00 0.0000e+00 1.0000e+00
      -13  1    1    2    0    0 +7.3627109540e+02 -3.2940072374e+02 -5.2478233825e+02 9.6228710127e+02 0.0000000000e+00 0.0000e+00 1.0000e+00
       13  1    1    2    0    0 -7.3627109540e+02 +3.2940072374e+02 +1.0920212233e+03 1.3576119898e+03 0.0000000000e+00 0.0000e+00 -1.0000e+00
<mgrwt>
<rscale>  0 0.22494826E+04</rscale>
<asrwt>0</asrwt>
<pdfrwt beam="1">  1        2 0.22208754E+00 0.22494826E+04</pdfrwt>
<pdfrwt beam="2">  1       -2 0.13482002E+00 0.22494826E+04</pdfrwt>
<totfact> 0.60874134E+00</totfact>
</mgrwt>
<rwgt>
<wgt id='morphing_basis_vector_1'> +7.8419990e-05 </wgt>
<wgt id='morphing_basis_vector_2'> +5.2670087e-05 </wgt>
<wgt id='morphing_basis_vector_3'> +8.4388187e-05 </wgt>
<wgt id='morphing_basis_vector_4'> +5.9111789e-05 </wgt>
<wgt id='morphing_basis_vector_5'> +9.4491322e-05 </wgt>
</rwgt>
</event>
<event>
 4      1 +2.2016400e-08 2.25480700e+03 7.81860800e-03 7.97437800e-02
        2 -1    0    0  501    0 +0.0000000000e+00 +0.0000000000e+00 +1.8167711354e+03 1.8167711354e+03 0.0000000000e+00 0.0000e+00 1.0000e+00
       -2 -1    0    0    0  501 -0.0000000000e+00 -0.0000000000e+00 -6.9961424140e+02 6.9961424140e+02 0.0000000000e+00 0.0000e+00 -1.0000e+00
      -13  1    1    2    0    0 -5.9877160061e+02 +9.1747986974e+02 +8.5540794925e+02 1.3899710431e+03 0.0000000000e+00 0.0000e+00 -1.0000e+00
       13  1    1    2    0    0 +5.9877160061e+02 -9.1747986974e+02 +2.6174894476e+02 1.1264143337e+03 0.0000000000e+00 0.0000e+00 1.0000e+00
<mgrwt>
<rscale>  0 0.22548073E+04</rscale>
<asrwt>0</asrwt>
<pdfrwt beam="1">  1        2 0.27950325E+00 0.22548073E+04</pdfrwt>
<pdfrwt beam="2">  1       -2 0.10763296E+00 0.22548073E+04</pdfrwt>
<totfact> 0.67649596E+00</totfact>
</mgrwt>
<rwgt>
<wgt id='morphing_basis_vector_1'> +8.5582246e-05 </wgt>
<wgt id='morphing_basis_vector_2'> +7.2164523e-05 </wgt>
<wgt id='morphing_basis_vector_3'> +9.4815326e-05 </wgt>
<wgt id='morphing_basis_vector_4'> +4.6664765e-05 </wgt>
<wgt id='morphing_basis_vector_5'> +9.4359771e-05 </wgt>
</rwgt>
</event>
<event>
 4      1 +2.2016400e-08 2.44904200e+03 7.81860800e-03 7.90880400e-02
        2 -1    0    0  501    0 +0.0000000000e+00 +0.0000000000e+00 +1.9133572845e+03 1.9133572845e+03 0.0000000000e+00 0.0000e+00 -1.0000e+00
       -2 -1    0    0    0  501 -0.0000000000e+00 -0.0000000000e+00 -7.8367585143e+02 7.8367585143e+02 0.0000000000e+00 0.0000e+00 1.0000e+00
      -13  1    1    2    0    0 +1.0567893626e+03 -5.2909711364e+02 +2.1191401814e+02 1.2006894119e+03 0.0000000000e+00 0.0000e+00 1.0000e+00
       13  1    1    2    0    0 -1.0567893626e+03 +5.2909711364e+02 +9.1776741496e+02 1.4963437241e+03 0.0000000000e+00 0.0000e+00 -1.0000e+00
<mgrwt>
<rscale>  0 0.24490422E+04</rscale>
<asrwt>0</asrwt>
<pdfrwt beam="1">  1        2 0.29436266E+00 0.24490422E+04</pdfrwt>
<pdfrwt beam="2">  1       -2 0.12056552E+00 0.24490422E+04</pdfrwt>
<totfact> 0.44025780E+00</totfact>
</mgrwt>
<rwgt>
<wgt id='morphing_basis_vector_1'> +1.1095150e-04 </wgt>
<wgt id='morphing_basis_vector_2'> +7.7764430e-05 </wgt>
<wgt id='morphing_basis_vector_3'> +1.2053517e-04 </wgt>
<wgt id='morphing_basis_vector_4'> +8.0731681e-05 </wgt>
<wgt id='morphing_basis_vector_5'> +1.3319317e-04 </wgt>
</rwgt>
</event>
<event>
 4      1 +2.2016400e-08 2.28237700e+03 7.81860800e-03 7.96466500e-02
        2 -1    0    0  501    0 +0.0000000000e+00 +0.0000000000e+00 +2.6580901005e+03 2.6580901005e+03 0.0000000000e+00 0.0000e+00 -1.0000e+00
       -2 -1    0    0    0  501 -0.0000000000e+00 -0.0000000000e+00 -4.8994230014e+02 4.8994230014e+02 0.0000000000e+00 0.0000e+00 1.0000e+00
      -13  1    1    2    0    0 -8.4783473903e+02 +7.2092739270e+02 +7.3582123135e+02 1.3341637586e+03 0.0000000000e+00 0.0000e+00 1.0000e+00
       13  1    1    2    0    0 +8.4783473903e+02 -7.2092739270e+02 +1.4323265690e+03 1.8138686420e+03 0.0000000000e+00 0.0000e+00 -1.0000e+00
<mgrwt>
<rscale>  0 0.22823766E+04</rscale>
<asrwt>0</asrwt>
<pdfrwt beam="1">  1        2 0.40893693E+00 0.22823766E+04</pdfrwt>
<pdfrwt beam="2">  1       -2 0.75375740E-01 0.22823766E+04</pdfrwt>
<totfact> 0.50698363E+00</totfact>
</mgrwt>
<rwgt>
<wgt id='morphing_basis_vector_1'> +8.4237397e-05 </wgt>
<wgt id='morphing_basis_vector_2'> +5.9358076e-05 </wgt>
<wgt id='morphing_basis_vector_3'> +9.1236162e-05 </wgt>
<wgt id='morphing_basis_vector_4'> +6.0257227e-05 </wgt>
<wgt id='morphing_basis_vector_5'> +1.0003543e-04 </wgt>
</rwgt>
</event>
<event>
 4      1 +2.2016400e-08 2.25194700e+03 7.81860800e-03 7.97539400e-02
        2 -1    0    0  501    0 +0.0000000000e+00 +0.0000000000e+00 +2.4835409372e+03 2.4835409372e+03 0.0000000000e+00 0.0000e+00 -1.0000e+00
       -2 -1    0    0    0  501 -0.0000000000e+00 -0.0000000000e+00 -5.1048750240e+02 5.1048750240e+02 0.0000000000e+00 0.0000e+00 1.0000e+00
      -13  1    1    2    0    0 +2.0246211680e+02 +7.3955154264e+02 -1.0974139981e+02 7.7457767060e+02 0.0000000000e+00 0.0000e+00 1.0000e+00
       13  1    1    2    0    0 -2.0246211680e+02 -7.3955154264e+02 +2.0827948346e+03 2.2194507690e+03 0.0000000000e+00 0.0000e+00 -1.0000e+00
<mgrwt>
<rscale>  0 0.22519473E+04</rscale>
<asrwt>0</asrwt>
<pdfrwt beam="1">  1        2 0.38208321E+00 0.22519473E+04</pdfrwt>
<pdfrwt beam="2">  1       -2 0.78536540E-01 0.22519473E+04</pdfrwt>
<totfact> 0.59096383E+00</totfact>
</mgrwt>
<rwgt>
<wgt id='morphing_basis_vector_1'> +7.8733241e-05 </wgt>
<wgt id='morphing_basis_vector_2'> +5.2824463e-05 </wgt>
<wgt id='morphing_basis_vector_3'> +8.4720047e-05 </wgt>
<wgt id='morphing_basis_vector_4'> +5.9426856e-05 </wgt>
<wgt id='morphing_basis_vector_5'> +9.4916849e-05 </wgt>
</rwgt>
</event>
<event>
 4      1 +2.2016400e-08 2.36335200e+03 7.81860800e-03 7.93693300e-02
        2 -1    0    0  501    0 +0.0000000000e+00 +0.0000000000e+00 +2.4311047876e+03 2.4311047876e+03 0.0000000000e+00 0.0000e+00 -1.0000e+00
       -2 -1    0    0    0  501 -0.0000000000e+00 -0.0000000000e+00 -5.7437207032e+02 5.7437207032e+02 0.0000000000e+00 0.0000e+00 1.0000e+00
      -13  1    1    2    0    0 -6.1631509553e+02 -3.3377965583e+02 -2.8149193729e+02 7.5530845777e+02 0.0000000000e+00 0.0000e+00 1.0000e+00
       13  1    1    2    0    0 +6.1631509553e+02 +3.3377965583e+02 +2.1382246546e+03 2.2501684002e+03 0.0000000000e+00 0.0000e+00 -1.0000e+00
<mgrwt>
<rscale>  0 0.23633524E+04</rscale>
<asrwt>0</asrwt>
<pdfrwt beam="1">  1        2 0.37401611E+00 0.23633524E+04</pdfrwt>
<pdfrwt beam="2">  1       -2 0.88364936E-01 0.23633524E+04</pdfrwt>
<totfact> 0.47971400E+00</totfact>
</mgrwt>
<rwgt>
<wgt id='morphing_basis_vector_1'> +9.5179721e-05 </wgt>
<wgt id='morphing_basis_vector_2'> +6.3861556e-05 </wgt>
<wgt id='morphing_basis_vector_3'> +1.0267581e-04 </wgt>
<wgt id='morphing_basis_vector_4'> +7.2387942e-05 </wgt>
<wgt id='morphing_basis_vector_5'> +1.1548304e-04 </wgt>
</rwgt>
</event>
<event>
 4      1 +2.2016400e-08 2.42564200e+03 7.81860800e-03 7.91636700e-02
        2 -1    0    0  501    0 +0.0000000000e+00 +0.0000000000e+00 +1.5868763439e+03 1.5868763439e+03 0.0000000000e+00 0.0000e+00 1.0000e+00
       -2 -1    0    0    0  501 -0.0000000000e+00 -0.0000000000e+00 -9.2693692819e+02 9.2693692819e+02 0.0000000000e+00 0.0000e+00 -1.0000e+00
      -13  1    1    2    0    0 -4.6466318948e+02 +4.0085411161e+01 -8.3028656619e+02 9.5231008702e+02 0.0000000000e+00 0.0000e+00 -1.0000e+00
       13  1    1    2    0    0 +4.6466318948e+02 -4.0085411161e+01 +1.4902259819e+03 1.5615031850e+03 0.0000000000e+00 0.0000e+00 1.0000e+00
<mgrwt>
<rscale>  0 0.24256416E+04</rscale>
<asrwt>0</asrwt>
<pdfrwt beam="1">  1        2 0.24413482E+00 0.24256416E+04</pdfrwt>
<pdfrwt beam="2">  1       -2 0.14260568E+00 0.24256416E+04</pdfrwt>
<totfact> 0.42689253E+00</totfact>
</mgrwt>
<rwgt>
<wgt id='morphing_basis_vector_1'> +1.0541897e-04 </wgt>
<wgt id='morphing_basis_vector_2'> +7.0694798e-05 </wgt>
<wgt id='morphing_basis_vector_3'> +1.1385754e-04 </wgt>
<wgt id='morphing_basis_vector_4'> +8.0527977e-05 </wgt>
<wgt id='morphing_basis_vector_5'> +1.2834136e-04 </wgt>
</rwgt>
</event>
<event>
 4      1 +2.2016400e-08 2.58539700e+03 7.81860800e-03 7.86639200e-02
        2 -1    0    0  501    0 +0.0000000000e+00 +0.0000000000e+00 +2.7433253931e+03 2.7433253931e+03 0.0000000000e+00 0.0000e+00 -1.0000e+00
       -2 -1    0    0    0  501 -0.0000000000e+00 -0.0000000000e+00 -6.0914003022e+02 6.0914003022e+02 0.0000000000e+00 0.0000e+00 1.0000e+00
      -13  1    1    2    0    0 +4.6993160249e+02 -6.0806244783e+01 -4.9246604553e+02 6.8341489332e+02 0.0000000000e+00 0.0000e+00 1.0000e+00
       13  1    1    2    0    0 -4.6993160249e+02 +6.0806244783e+01 +2.6266514084e+03 2.6690505300e+03 0.0000000000e+00 0.0000e+00 -1.0000e+00
<mgrwt>
<rscale>  0 0.25853969E+04</rscale>
<asrwt>0</asrwt>
<pdfrwt beam="1">  1        2 0.42205005E+00 0.25853969E+04</pdfrwt>
<pdfrwt beam="2">  1       -2 0.93713852E-01 0.25853969E+04</pdfrwt>
<totfact> 0.26541892E+00</totfact>
</mgrwt>
<rwgt>
<wgt id='morphing_basis_vector_1'> +1.3560544e-04 </wgt>
<wgt id='morphing_basis_vector_2'> +9.1112525e-05 </wgt>
<wgt id='morphing_basis_vector_3'> +1.4690801e-04 </wgt>
<wgt id='morphing_basis_vector_4'> +1.0426493e-04 </wgt>
<wgt id='morphing_basis_vector_5'> +1.6618241e-04 </wgt>
</rwgt>
</event>
<event>
 4      1 +2.2016400e-08 2.23686600e+03 7.81860800e-03 7.98077600e-02
        2 -1    0    0  501    0 +0.0000000000e+00 +0.0000000000e+00 +1.4924503687e+03 1.4924503687e+03 0.0000000000e+00 0.0000e+00 1.0000e+00
       -2 -1    0    0    0  501 -0.0000000000e+00 -0.0000000000e+00 -8.3814663508e+02 8.3814663508e+02 0.0000000000e+00 0.0000e+00 -1.0000e+00
      -13  1    1    2    0    0 -1.2291817759e+02 -2.5538383383e+02 -8.0010927103e+02 8.4882543939e+02 0.0000000000e+00 0.0000e+00 -1.0000e+00
       13  1    1    2    0    0 +1.2291817759e+02 +2.5538383383e+02 +1.4544130046e+03 1.4817715644e+03 0.0000000000e+00 0.0000e+00 1.0000e+00
<mgrwt>
<rscale>  0 0.22368659E+04</rscale>
<asrwt>0</asrwt>
<pdfrwt beam="1">  1        2 0.22960775E+00 0.22368659E+04</pdfrwt>
<pdfrwt beam="2">  1       -2 0.12894564E+00 0.22368659E+04</pdfrwt>
<totfact> 0.64511789E+00</totfact>
</mgrwt>
<rwgt>
<wgt id='morphing_basis_vector_1'> +7.6605094e-05 </wgt>
<wgt id='morphing_basis_vector_2'> +5.1216196e-05 </wgt>
<wgt id='morphing_basis_vector_3'> +8.2366448e-05 </wgt>
<wgt id='morphing_basis_vector_4'> +5.7975096e-05 </wgt>
<wgt id='morphing_basis_vector_5'> +9.2371937e-05 </wgt>
</rwgt>
</event>
<event>
 4      1 +2.2016400e-08 2.47443100e+03 7.81860800e-03 7.90069600e-02
        2 -1    0    0  501    0 +0.0000000000e+00 +0.0000000000e+00 +3.8293652611e+03 3.8293652611e+03 0.0000000000e+00 0.0000e+00 1.0000e+00
       -2 -1    0    0    0  501 -0.0000000000e+00 -0.0000000000e+00 -3.9972750247e+02 3.9972750247e+02 0.0000000000e+00 0.0000e+00 -1.0000e+00
      -13  1    1    2    0    0 -6.1765591872e+02 -1.0226783720e+03 +2.2642215245e+03 2.5600915996e+03 0.0000000000e+00 0.0000e+00 -1.0000e+00
       13  1    1    2    0    0 +6.1765591872e+02 +1.0226783720e+03 +1.1654162341e+03 1.6690011639e+03 0.0000000000e+00 0.0000e+00 1.0000e+00
<mgrwt>
<rscale>  0 0.24744313E+04</rscale>
<asrwt>0</asrwt>
<pdfrwt beam="1">  1        2 0.58913309E+00 0.24744313E+04</pdfrwt>
<pdfrwt beam="2">  1       -2 0.61496541E-01 0.24744313E+04</pdfrwt>
<totfact> 0.11878639E+00</totfact>
</mgrwt>
<rwgt>
<wgt id='morphing_basis_vector_1'> +1.2422672e-04 </wgt>
<wgt id='morphing_basis_vector_2'> +1.0659456e-04 </wgt>
<wgt id='morphing_basis_vector_3'> +1.3881311e-04 </wgt>
<wgt id='morphing_basis_vector_4'> +6.6436930e-05 </wgt>
<wgt id='morphing_basis_vector_5'> +1.3744210e-04 </wgt>
</rwgt>
</event>
<event>
 4      1 +2.2016400e-08 2.32745600e+03 7.81860800e-03 7.94908300e-02
        2 -1    0    0  501    0 +0.0000000000e+00 +0.0000000000e+00 +1.9948511612e+03 1.9948511612e+03 0.0000000000e+00 0.0000e+00 -1.0000e+00
       -2 -1    0    0    0  501 -0.0000000000e+00 -0.0000000000e+00 -6.7887932052e+02 6.7887932052e+02 0.0000000000e+00 0.0000e+00 1.0000e+00
      -13  1    1    2    0    0 +8.5608371937e+02 +4.5900439309e+02 -7.8217494175e+01 9.7451646669e+02 0.0000000000e+00 0.0000e+00 1.0000e+00
       13  1    1    2    0    0 -8.5608371937e+02 -4.5900439309e+02 +1.3941893349e+03 1.6992140151e+03 0.0000000000e+00 0.0000e+00 -1.0000e+00
<mgrwt>
<rscale>  0 0.23274563E+04</rscale>
<asrwt>0</asrwt>
<pdfrwt beam="1">  1        2 0.30690018E+00 0.23274563E+04</pdfrwt>
<pdfrwt beam="2">  1       -2 0.10444297E+00 0.23274563E+04</pdfrwt>
<totfact> 0.57566043E+00</totfact>
</mgrwt>
<rwgt>
<wgt id='morphing_basis_vector_1'> +8.9869083e-05 </wgt>
<wgt id='morphing_basis_vector_2'> +6.0861249e-05 </wgt>
<wgt id='morphing_basis_vector_3'> +9.6977900e-05 </wgt>
<wgt id='morphing_basis_vector_4'> +6.7500596e-05 </wgt>
<wgt id='morphing_basis_vector_5'> +1.0848563e-04 </wgt>
</rwgt>
</event>
<event>
 4      1 +2.2016400e-08 2.24752100e+03 7.81860800e-03 7.97696900e-02
        2 -1    0    0  501    0 +0.0000000000e+00 +0.0000000000e+00 +2.9727780178e+03 2.9727780178e+03 0.0000000000e+00 0.0000e+00 1.0000e+00
       -2 -1    0    0    0  501 -0.0000000000e+00 -0.0000000000e+00 -4.2480068150e+02 4.2480068150e+02 0.0000000000e+00 0.0000e+00 -1.0000e+00
      -13  1    1    2    0    0 +1.0305704869e+03 +4.3412271882e+02 +1.1063325601e+03 1.5730574678e+03 0.0000000000e+00 0.0000e+00 -1.0000e+00
       13  1    1    2    0    0 -1.0305704869e+03 -4.3412271882e+02 +1.4416447763e+03 1.8245212316e+03 0.0000000000e+00 0.0000e+00 1.0000e+00
<mgrwt>
<rscale>  0 0.22475214E+04</rscale>
<asrwt>0</asrwt>
<pdfrwt beam="1">  1        2 0.45735045E+00 0.22475214E+04</pdfrwt>
<pdfrwt beam="2">  1       -2 0.65353953E-01 0.22475214E+04</pdfrwt>
<totfact> 0.43837852E+00</totfact>
</mgrwt>
<rwgt>
<wgt id='morphing_basis_vector_1'> +8.0038557e-05 </wgt>
<wgt id='morphing_basis_vector_2'> +5.8064965e-05 </wgt>
<wgt id='morphing_basis_vector_3'> +8.6918622e-05 </wgt>
<wgt id='morphing_basis_vector_4'> +5.5083001e-05 </wgt>
<wgt id='morphing_basis_vector_5'> +9.3850879e-05 </wgt>
</rwgt>
</event>
<event>
 4      1 +2.2016400e-08 2.52240600e+03 7.81860800e-03 7.88564400e-02
        2 -1    0    0  501    0 +0.0000000000e+00 +0.0000000000e+00 +2.9382825262e+03 2.9382825262e+03 0.0000000000e+00 0.0000e+00 1.0000e+00
       -2 -1    0    0    0  501 -0.0000000000e+00 -0.0000000000e+00 -5.4134777065e+02 5.4134777065e+02 0.0000000000e+00 0.0000e+00 -1.0000e+00
      -13  1    1    2    0    0 -4.9938173090e+02 +1.9067977417e+02 +2.7742830205e+03 2.8253118708e+03 0.0000000000e+00 0.0000e+00 1.0000e+00
       13  1    1    2    0    0 +4.9938173090e+02 -1.9067977417e+02 -3.7734826504e+02 6.5431842596e+02 0.0000000000e+00 0.0000e+00 -1.0000e+00
<mgrwt>
<rscale>  0 0.25224058E+04</rscale>
<asrwt>0</asrwt>
<pdfrwt beam="1">  1        2 0.45204346E+00 0.25224058E+04</pdfrwt>
<pdfrwt beam="2">  1       -2 0.83284274E-01 0.25224058E+04</pdfrwt>
<totfact> 0.26451570E+00</totfact>
</mgrwt>
<rwgt>
<wgt id='morphing_basis_vector_1'> +1.6758301e-04 </wgt>
<wgt id='morphing_basis_vector_2'> +2.1408489e-04 </wgt>
<wgt id='morphing_basis_vector_3'> +2.0123665e-04 </wgt>
<wgt id='morphing_basis_vector_4'> +2.9488266e-06 </wgt>
<wgt id='morphing_basis_vector_5'> +1.4297298e-04 </wgt>
</rwgt>
</event>
<event>
 4      1 +2.2016400e-08 2.31914700e+03 7.81860800e-03 7.95192800e-02
        2 -1    0    0  501    0 +0.0000000000e+00 +0.0000000000e+00 +3.2332975181e+03 3.2332975181e+03 0.0000000000e+00 0.0000e+00 -1.0000e+00
       -2 -1    0    0    0  501 -0.0000000000e+00 -0.0000000000e+00 -4.1586353948e+02 4.1586353948e+02 0.0000000000e+00 0.0000e+00 1.0000e+00
      -13  1    1    2    0    0 +6.6505845411e+02 +1.1805731688e+02 -7.4353480028e+01 6.7953566311e+02 0.0000000000e+00 0.0000e+00 1.0000e+00
       13  1    1    2    0    0 -6.6505845411e+02 -1.1805731688e+02 +2.8917874587e+03 2.9696253945e+03 0.0000000000e+00 0.0000e+00 -1.0000e+00
<mgrwt>
<rscale>  0 0.23191469E+04</rscale>
<asrwt>0</asrwt>
<pdfrwt beam="1">  1        2 0.49743037E+00 0.23191469E+04</pdfrwt>
<pdfrwt beam="2">  1       -2 0.63979008E-01 0.23191469E+04</pdfrwt>
<totfact> 0.30573428E+00</totfact>
</mgrwt>
<rwgt>
<wgt id='morphing_basis_vector_1'> +8.8351110e-05 </wgt>
<wgt id='morphing_basis_vector_2'> +5.9232773e-05 </wgt>
<wgt id='morphing_basis_vector_3'> +9.5209547e-05 </wgt>
<wgt id='morphing_basis_vector_4'> +6.7057396e-05 </wgt>
<wgt id='morphing_basis_vector_5'> +1.0696451e-04 </wgt>
</rwgt>
</event>
<event>
 4      1 +2.2016400e-08 2.33338700e+03 7.81860800e-03 7.94706000e-02
        2 -1    0    0  501    0 +0.0000000000e+00 +0.0000000000e+00 +1.9309922352e+03 1.9309922352e+03 0.0000000000e+00 0.0000e+00 1.0000e+00
       -2 -1    0    0    0  501 -0.0000000000e+00 -0.0000000000e+00 -7.0490924465e+02 7.0490924465e+02 0.0000000000e+00 0.0000e+00 -1.0000e+00
      -13  1    1    2    0    0 +1.9437992385e+02 +1.0943321411e+03 +2.1233095597e+02 1.1315612333e+03 0.0000000000e+00 0.0000e+00 -1.0000e+00
       13  1    1    2    0    0 -1.9437992385e+02 -1.0943321411e+03 +1.0137520346e+03 1.5043402466e+03 0.0000000000e+00 0.0000e+00 1.0000e+00
<mgrwt>
<rscale>  0 0.23333875E+04</rscale>
<asrwt>0</asrwt>
<pdfrwt beam="1">  1        2 0.29707573E+00 0.23333875E+04</pdfrwt>
<pdfrwt beam="2">  1       -2 0.10844758E+00 0.23333875E+04</pdfrwt>
<totfact> 0.56929381E+00</totfact>
</mgrwt>
<rwgt>
<wgt id='morphing_basis_vector_1'> +9.1484938e-05 </wgt>
<wgt id='morphing_basis_vector_2'> +6.3577263e-05 </wgt>
<wgt id='morphing_basis_vector_3'> +9.9039687e-05 </wgt>
<wgt id='morphing_basis_vector_4'> +6.6757328e-05 </wgt>
<wgt id='morphing_basis_vector_5'> +1.0949595e-04 </wgt>
</rwgt>
</event>
<event>
 4      1 +2.2016400e-08 2.62260300e+03 7.81860800e-03 7.85528200e-02
        2 -1    0    0  501    0 +0.0000000000e+00 +0.0000000000e+00 +9.0961563953e+02 9.0961563953e+02 0.0000000000e+00 0.0000e+00 1.0000e+00
       -2 -1    0    0    0  501 -0.0000000000e+00 -0.0000000000e+00 -1.8903719616e+03 1.8903719616e+03 0.0000000000e+00 0.0000e+00 -1.0000e+00
      -13  1    1    2    0    0 +5.0986109182e+02 -2.8328093248e+02 -1.7442517382e+03 1.8391901875e+03 0.0000000000e+00 0.0000e+00 -1.0000e+00
       13  1    1    2    0    0 -5.0986109182e+02 +2.8328093248e+02 +7.6349541609e+02 9.6079741364e+02 0.0000000000e+00 0.0000e+00 1.0000e+00
<mgrwt>
<rscale>  0 0.26226032E+04</rscale>
<asrwt>0</asrwt>
<pdfrwt beam="1">  1        2 0.13994087E+00 0.26226032E+04</pdfrwt>
<pdfrwt beam="2">  1       -2 0.29082646E+00 0.26226032E+04</pdfrwt>
<totfact> 0.86816853E-01</totfact>
</mgrwt>
<rwgt>
<wgt id='morphing_basis_vector_1'> +1.4349308e-04 </wgt>
<wgt id='morphing_basis_vector_2'> +9.6474442e-05 </wgt>
<wgt id='morphing_basis_vector_3'> +1.5555629e-04 </wgt>
<wgt id='morphing_basis_vector_4'> +1.1044917e-04 </wgt>
<wgt id='morphing_basis_vector_5'> +1.7607394e-04 </wgt>
</rwgt>
</event>
<event>
 4      1 +2.2016400e-08 2.44658300e+03 7.81860800e-03 7.90959500e-02
        2 -1    0    0  501    0 +0.0000000000e+00 +0.0000000000e+00 +1.7610953596e+03 1.7610953596e+03 0.0000000000e+00 0.0000e+00 -1.0000e+00
       -2 -1    0    0    0  501 -0.0000000000e+00 -0.0000000000e+00 -8.4972256079e+02 8.4972256079e+02 0.0000000000e+00 0.0000e+00 1.0000e+00
      -13  1    1    2    0    0 -9.0084319083e+02 +5.6783348883e+02 +1.0981729994e+03 1.5296853474e+03 0.0000000000e+00 0.0000e+00 1.0000e+00
       13  1    1    2    0    0 +9.0084319083e+02 -5.6783348883e+02 -1.8680020055e+02 1.0811325730e+03 0.0000000000e+00 0.0000e+00 -1.0000e+00
<mgrwt>
<rscale>  0 0.24465833E+04</rscale>
<asrwt>0</asrwt>
<pdfrwt beam="1">  1        2 0.27093775E+00 0.24465833E+04</pdfrwt>
<pdfrwt beam="2">  1       -2 0.13072655E+00 0.24465833E+04</pdfrwt>
<totfact> 0.43266276E+00</totfact>
</mgrwt>
<rwgt>
<wgt id='morphing_basis_vector_1'> +1.2870926e-04 </wgt>
<wgt id='morphing_basis_vector_2'> +1.3116314e-04 </wgt>
<wgt id='morphing_basis_vector_3'> +1.4772247e-04 </wgt>
<wgt id='morphing_basis_vector_4'> +4.3201513e-05 </wgt>
<wgt id='morphing_basis_vector_5'> +1.2964322e-04 </wgt>
</rwgt>
</event>
<event>
 4      1 +2.2016400e-08 2.34470700e+03 7.81860800e-03 7.94321600e-02
        2 -1    0    0  501    0 +0.0000000000e+00 +0.0000000000e+00 +2.3667089650e+03 2.3667089650e+03 0.0000000000e+00 0.0000e+00 -1.0000e+00
       -2 -1    0    0    0  501 -0.0000000000e+00 -0.0000000000e+00 -5.8072754544e+02 5.8072754544e+02 0.0000000000e+00 0.0000e+00 1.0000e+00
      -13  1    1    2    0    0 -2.8015321576e+02 +3.0417346767e+02 -4.8600166926e+02 6.3812612018e+02 0.0000000000e+00 0.0000e+00 1.0000e+00
       13  1    1    2    0    0 +2.8015321576e+02 -3.0417346767e+02 +2.2719830888e+03 2.3093103902e+03 0.0000000000e+00 0.0000e+00 -1.0000e+00
<mgrwt>
<rscale>  0 0.23447073E+04</rscale>
<asrwt>0</asrwt>
<pdfrwt beam="1">  1        2 0.36410907E+00 0.23447073E+04</pdfrwt>
<pdfrwt beam="2">  1       -2 0.89342700E-01 0.23447073E+04</pdfrwt>
<totfact> 0.51095110E+00</totfact>
</mgrwt>
<rwgt>
<wgt id='morphing_basis_vector_1'> +9.2214794e-05 </wgt>
<wgt id='morphing_basis_vector_2'> +6.1765129e-05 </wgt>
<wgt id='morphing_basis_vector_3'> +9.9417746e-05 </wgt>
<wgt id='morphing_basis_vector_4'> +7.0179716e-05 </wgt>
<wgt id='morphing_basis_vector_5'> +1.1183683e-04 </wgt>
</rwgt>
</event>
<event>
 4      1 +2.2016400e-08 2.31200500e+03 7.81860800e-03 7.95438300e-02
        2 -1    0    0  501    0 +0.0000000000e+00 +0.0000000000e+00 +1.2878579770e+03 1.2878579770e+03 0.0000000000e+00 0.0000e+00 1.0000e+00
       -2 -1    0    0    0  501 -0.0000000000e+00 -0.0000000000e+00 -1.0376465226e+03 1.0376465226e+03 0.0000000000e+00 0.0000e+00 -1.0000e+00
      -13  1    1    2    0    0 +2.3263023582e+02 -7.2710547359e+01 -1.0115091588e+03 1.0404587587e+03 0.0000000000e+00 0.0000e+00 -1.0000e+00
       13  1    1    2    0    0 -2.3263023582e+02 +7.2710547359e+01 +1.2617206132e+03 1.2850457409e+03 0.0000000000e+00 0.0000e+00 1.0000e+00
<mgrwt>
<rscale>  0 0.23120046E+04</rscale>
<asrwt>0</asrwt>
<pdfrwt beam="1">  1        2 0.19813200E+00 0.23120046E+04</pdfrwt>
<pdfrwt beam="2">  1       -2 0.15963793E+00 0.23120046E+04</pdfrwt>
<totfact> 0.45990545E+00</totfact>
</mgrwt>
<rwgt>
<wgt id='morphing_basis_vector_1'> +8.7246744e-05 </wgt>
<wgt id='morphing_basis_vector_2'> +5.8400760e-05 </wgt>
<wgt id='morphing_basis_vector_3'> +9.3987315e-05 </wgt>
<wgt id='morphing_basis_vector_4'> +6.6299079e-05 </wgt>
<wgt id='morphing_basis_vector_5'> +1.0563951e-04 </wgt>
</rwgt>
</event>
<event>
 4      1 +2.2016400e-08 2.54932700e+03 7.81860800e-03 7.87734600e-02
        2 -1    0    0  501    0 +0.0000000000e+00 +0.0000000000e+00 +1.9281039198e+03 1.9281039198e+03 0.0000000000e+00 0.0000e+00 -1.0000e+00
       -2 -1    0    0    0  501 -0.0000000000e+00 -0.0000000000e+00 -8.4267608962e+02 8.4267608962e+02 0.0000000000e+00 0.0000e+00 1.0000e+00
      -13  1    1    2    0    0 -3.5505575763e+02 -5.7216580042e+02 -6.3358014009e+02 9.2458752323e+02 0.0000000000e+00 0.0000e+00 1.0000e+00
       13  1    1    2    0    0 +3.5505575763e+02 +5.7216580042e+02 +1.7190079703e+03 1.8461924862e+03 0.0000000000e+00 0.0000e+00 -1.0000e+00
<mgrwt>
<rscale>  0 0.25493270E+04</rscale>
<asrwt>0</asrwt>
<pdfrwt beam="1">  1        2 0.29663137E+00 0.25493270E+04</pdfrwt>
<pdfrwt beam="2">  1       -2 0.12964248E+00 0.25493270E+04</pdfrwt>
<totfact> 0.35378195E+00</totfact>
</mgrwt>
<rwgt>
<wgt id='morphing_basis_vector_1'> +1.2831182e-04 </wgt>
<wgt id='morphing_basis_vector_2'> +8.6240294e-05 </wgt>
<wgt id='morphing_basis_vector_3'> +1.3892992e-04 </wgt>
<wgt id='morphing_basis_vector_4'> +9.8444231e-05 </wgt>
<wgt id='morphing_basis_vector_5'> +1.5698899e-04 </wgt>
</rwgt>
</event>
<event>
 4      1 +2.2016400e-08 2.42477600e+03 7.81860800e-03 7.91664900e-02
        2 -1    0    0  501    0 +0.0000000000e+00 +0.0000000000e+00 +2.2735249082e+03 2.2735249082e+03 0.0000000000e+00 0.0000e+00 1.0000e+00
       -2 -1    0    0    0  501 -0.0000000000e+00 -0.0000000000e+00 -6.4652221427e+02 6.4652221427e+02 0.0000000000e+00 0.0000e+00 -1.0000e+00
      -13  1    1    2    0    0 +4.0530274361e+01 +7.8877664579e+02 -2.9419879913e+02 8.4283108242e+02 0.0000000000e+00 0.0000e+00 -1.0000e+00
       13  1    1    2    0    0 -4.0530274361e+01 -7.8877664579e+02 +1.9212014931e+03 2.0772160401e+03 0.0000000000e+00 0.0000e+00 1.0000e+00
<mgrwt>
<rscale>  0 0.24247757E+04</rscale>
<asrwt>0</asrwt>
<pdfrwt beam="1">  1        2 0.34977306E+00 0.24247757E+04</pdfrwt>
<pdfrwt beam="2">  1       -2 0.99464957E-01 0.24247757E+04</pdfrwt>
<totfact> 0.44611289E+00</totfact>
</mgrwt>
<rwgt>
<wgt id='morphing_basis_vector_1'> +1.0534423e-04 </wgt>
<wgt id='morphing_basis_vector_2'> +7.0811801e-05 </wgt>
<wgt id='morphing_basis_vector_3'> +1.1380701e-04 </wgt>
<wgt id='morphing_basis_vector_4'> +8.0261178e-05 </wgt>
<wgt id='morphing_basis_vector_5'> +1.2814357e-04 </wgt>
</rwgt>
</event>
<event>
 4      1 +2.2016400e-08 2.26777700e+03 7.81860800e-03 7.96979100e-02
        2 -1    0    0  501    0 +0.0000000000e+00 +0.0000000000e+00 +1.7367356981e+03 1.7367356981e+03 0.0000000000e+00 0.0000e+00 -1.0000e+00
       -2 -1    0    0    0  501 -0.0000000000e+00 -0.0000000000e+00 -7.4029848488e+02 7.4029848488e+02 0.0000000000e+00 0.0000e+00 1.0000e+00
      -13  1    1    2    0    0 -1.7050714999e+02 -2.6568649773e+02 -6.9132816697e+02 7.5999778797e+02 0.0000000000e+00 0.0000e+00 1.0000e+00
       13  1    1    2    0    0 +1.7050714999e+02 +2.6568649773e+02 +1.6877653802e+03 1.7170363950e+03 0.0000000000e+00 0.0000e+00 -1.0000e+00
<mgrwt>
<rscale>  0 0.22677767E+04</rscale>
<asrwt>0</asrwt>
<pdfrwt beam="1">  1        2 0.26719011E+00 0.22677767E+04</pdfrwt>
<pdfrwt beam="2">  1       -2 0.11389207E+00 0.22677767E+04</pdfrwt>
<totfact> 0.64963156E+00</totfact>
</mgrwt>
<rwgt>
<wgt id='morphing_basis_vector_1'> +8.0857445e-05 </wgt>
<wgt id='morphing_basis_vector_2'> +5.4088022e-05 </wgt>
<wgt id='morphing_basis_vector_3'> +8.7008991e-05 </wgt>
<wgt id='morphing_basis_vector_4'> +6.1297474e-05 </wgt>
<wgt id='morphing_basis_vector_5'> +9.7669394e-05 </wgt>
</rwgt>
</event>
<event>
 4      1 +2.2016400e-08 2.44698300e+03 7.81860800e-03 7.90946700e-02
        2 -1    0    0  501    0 +0.0000000000e+00 +0.0000000000e+00 +1.5262440117e+03 1.5262440117e+03 0.0000000000e+00 0.0000e+00 1.0000e+00
       -2 -1    0    0    0  501 -0.0000000000e+00 -0.0000000000e+00 -9.8079402646e+02 9.8079402646e+02 0.0000000000e+00 0.0000e+00 -1.0000e+00
      -13  1    1    2    0    0 +1.0941354086e+03 -4.6578088992e+02 -2.2170485769e+01 1.1893593486e+03 0.0000000000e+00 0.0000e+00 -1.0000e+00
       13  1    1    2    0    0 -1.0941354086e+03 +4.6578088992e+02 +5.6762047098e+02 1.3176786895e+03 0.0000000000e+00 0.0000e+00 1.0000e+00
<mgrwt>
<rscale>  0 0.24469826E+04</rscale>
<asrwt>0</asrwt>
<pdfrwt beam="1">  1        2 0.23480677E+00 0.24469826E+04</pdfrwt>
<pdfrwt beam="2">  1       -2 0.15089139E+00 0.24469826E+04</pdfrwt>
<totfact> 0.39276409E+00</totfact>
</mgrwt>
<rwgt>
<wgt id='morphing_basis_vector_1'> +1.1075169e-04 </wgt>
<wgt id='morphing_basis_vector_2'> +7.8000326e-05 </wgt>
<wgt id='morphing_basis_vector_3'> +1.2038573e-04 </wgt>
<wgt id='morphing_basis_vector_4'> +8.0113697e-05 </wgt>
<wgt id='morphing_basis_vector_5'> +1.3271198e-04 </wgt>
</rwgt>
</event>
<event>
 4      1 +2.2016400e-08 2.25254900e+03 7.81860800e-03 7.97518000e-02
        2 -1    0    0  501    0 +0.0000000000e+00 +0.0000000000e+00 +6.0602490505e+02 6.0602490505e+02 0.0000000000e+00 0.0000e+00 -1.0000e+00
       -2 -1    0    0    0  501 -0.0000000000e+00 -0.0000000000e+00 -2.0931394045e+03 2.0931394045e+03 0.0000000000e+00 0.0000e+00 1.0000e+00
      -13  1    1    2    0    0 -4.6084263253e+02 -5.6548100164e-01 -1.9749917305e+03 2.0280455092e+03 0.0000000000e+00 0.0000e+00 1.0000e+00
       13  1    1    2    0    0 +4.6084263253e+02 +5.6548100164e-01 +4.8787723102e+02 6.7111880041e+02 0.0000000000e+00 0.0000e+00 -1.0000e+00
<mgrwt>
<rscale>  0 0.22525493E+04</rscale>
<asrwt>0</asrwt>
<pdfrwt beam="1">  1        2 0.93234600E-01 0.22525493E+04</pdfrwt>
<pdfrwt beam="2">  1       -2 0.32202145E+00 0.22525493E+04</pdfrwt>
<totfact> 0.92114131E-01</totfact>
</mgrwt>
<rwgt>
<wgt id='morphing_basis_vector_1'> +7.8746597e-05 </wgt>
<wgt id='morphing_basis_vector_2'> +5.2675147e-05 </wgt>
<wgt id='morphing_basis_vector_3'> +8.4706488e-05 </wgt>
<wgt id='morphing_basis_vector_4'> +5.9632170e-05 </wgt>
<wgt id='morphing_basis_vector_5'> +9.5031287e-05 </wgt>
</rwgt>
</event>
<event>
 4      1 +2.2016400e-08 2.25610300e+03 7.81860800e-03 7.97391800e-02
        2 -1    0    0  501    0 +0.0000000000e+00 +0.0000000000e+00 +1.1165004156e+03 1.1165004156e+03 0.0000000000e+00 0.0000e+00 -1.0000e+00
       -2 -1    0    0    0  501 -0.0000000000e+00 -0.0000000000e+00 -1.1397220402e+03 1.1397220402e+03 0.0000000000e+00 0.0000e+00 1.0000e+00
      -13  1    1    2    0    0 +1.1270777193e+03 +4.6628270978e+01 -6.9468007768e+00 1.1280632247e+03 0.0000000000e+00 0.0000e+00 1.0000e+00
       13  1    1    2    0    0 -1.1270777193e+03 -4.6628270978e+01 -1.6274823818e+01 1.1281592311e+03 0.0000000000e+00 0.0000e+00 -1.0000e+00
<mgrwt>
<rscale>  0 0.22561030E+04</rscale>
<asrwt>0</asrwt>
<pdfrwt beam="1">  1        2 0.17176930E+00 0.22561030E+04</pdfrwt>
<pdfrwt beam="2">  1       -2 0.17534185E+00 0.22561030E+04</pdfrwt>
<totfact> 0.43825605E+00</totfact>
</mgrwt>
<rwgt>
<wgt id='morphing_basis_vector_1'> +8.2175566e-05 </wgt>
<wgt id='morphing_basis_vector_2'> +6.1690059e-05 </wgt>
<wgt id='morphing_basis_vector_3'> +8.9642451e-05 </wgt>
<wgt id='morphing_basis_vector_4'> +5.4064262e-05 </wgt>
<wgt id='morphing_basis_vector_5'> +9.5164769e-05 </wgt>
</rwgt>
</event>
<event>
 4      1 +2.2016400e-08 2.27590700e+03 7.81860800e-03 7.96693100e-02
        2 -1    0    0  501    0 +0.0000000000e+00 +0.0000000000e+00 +1.8937187049e+03 1.8937187049e+03 0.0000000000e+00 0.0000e+00 -1.0000e+00
       -2 -1    0    0    0  501 -0.0000000000e+00 -0.0000000000e+00 -6.8380674237e+02 6.8380674237e+02 0.0000000000e+00 0.0000e+00 1.0000e+00
      -13  1    1    2    0    0 -4.7300807699e+02 +1.1180860478e+02 -5.6033654358e+02 7.4176468443e+02 0.0000000000e+00 0.0000e+00 1.0000e+00
       13  1    1    2    0    0 +4.7300807699e+02 -1.1180860478e+02 +1.7702485061e+03 1.8357607628e+03 0.0000000000e+00 0.0000e+00 -1.0000e+00
<mgrwt>
<rscale>  0 0.22759065E+04</rscale>
<asrwt>0</asrwt>
<pdfrwt beam="1">  1        2 0.29134134E+00 0.22759065E+04</pdfrwt>
<pdfrwt beam="2">  1       -2 0.10520104E+00 0.22759065E+04</pdfrwt>
<totfact> 0.64728488E+00</totfact>
</mgrwt>
<rwgt>
<wgt id='morphing_basis_vector_1'> +8.2011787e-05 </wgt>
<wgt id='morphing_basis_vector_2'> +5.4883622e-05 </wgt>
<wgt id='morphing_basis_vector_3'> +8.8272422e-05 </wgt>
<wgt id='morphing_basis_vector_4'> +6.2180272e-05 </wgt>
<wgt id='morphing_basis_vector_5'> +9.9098399e-05 </wgt>
</rwgt>
</event>
<event>
 4      1 +2.2016400e-08 2.28973800e+03 7.81860800e-03 7.96209500e-02
        2 -1    0    0  501    0 +0.0000000000e+00 +0.0000000000e+00 +2.1103624325e+03 2.1103624325e+03 0.0000000000e+00 0.0000e+00 -1.0000e+00
       -2 -1    0    0    0  501 -0.0000000000e+00 -0.0000000000e+00 -6.2109014840e+02 6.2109014840e+02 0.0000000000e+00 0.0000e+00 1.0000e+00
      -13  1    1    2    0    0 -6.1337931356e+02 +4.2399550770e+02 -2.9169953930e+02 8.0068407882e+02 0.0000000000e+00 0.0000e+00 1.0000e+00
       13  1    1    2    0    0 +6.1337931356e+02 -4.2399550770e+02 +1.7809718234e+03 1.9307685020e+03 0.0000000000e+00 0.0000e+00 -1.0000e+00
<mgrwt>
<rscale>  0 0.22897383E+04</rscale>
<asrwt>0</asrwt>
<pdfrwt beam="1">  1        2 0.32467114E+00 0.22897383E+04</pdfrwt>
<pdfrwt beam="2">  1       -2 0.95552332E-01 0.22897383E+04</pdfrwt>
<totfact> 0.61593342E+00</totfact>
</mgrwt>
<rwgt>
<wgt id='morphing_basis_vector_1'> +8.4047452e-05 </wgt>
<wgt id='morphing_basis_vector_2'> +5.6385038e-05 </wgt>
<wgt id='morphing_basis_vector_3'> +9.0518482e-05 </wgt>
<wgt id='morphing_basis_vector_4'> +6.3616306e-05 </wgt>
<wgt id='morphing_basis_vector_5'> +1.0155839e-04 </wgt>
</rwgt>
</event>
<event>
 4      1 +2.2016400e-08 2.54338800e+03 7.81860800e-03 7.87916800e-02
        2 -1    0    0  501    0 +0.0000000000e+00 +0.0000000000e+00 +2.3328424134e+03 2.3328424134e+03 0.0000000000e+00 0.0000e+00 -1.0000e+00
       -2 -1    0    0    0  501 -0.0000000000e+00 -0.0000000000e+00 -6.9323383743e+02 6.9323383743e+02 0.0000000000e+00 0.0000e+00 1.0000e+00
      -13  1    1    2    0    0 +1.7872883235e+02 +9.3242886104e+02 -1.8683663985e+02 9.6761330417e+02 0.0000000000e+00 0.0000e+00 1.0000e+00
       13  1    1    2    0    0 -1.7872883235e+02 -9.3242886104e+02 +1.8264452159e+03 2.0584629467e+03 0.0000000000e+00 0.0000e+00 -1.0000e+00
<mgrwt>
<rscale>  0 0.25433877E+04</rscale>
<asrwt>0</asrwt>
<pdfrwt beam="1">  1        2 0.35889883E+00 0.25433877E+04</pdfrwt>
<pdfrwt beam="2">  1       -2 0.10665136E+00 0.25433877E+04</pdfrwt>
<totfact> 0.34394730E+00</totfact>
</mgrwt>
<rwgt>
<wgt id='morphing_basis_vector_1'> +1.2730876e-04 </wgt>
<wgt id='morphing_basis_vector_2'> +8.5955692e-05 </wgt>
<wgt id='morphing_basis_vector_3'> +1.3790669e-04 </wgt>
<wgt id='morphing_basis_vector_4'> +9.7162737e-05 </wgt>
<wgt id='morphing_basis_vector_5'> +1.5548428e-04 </wgt>
</rwgt>
</event>
<event>
 4      1 +2.2016400e-08 2.60408100e+03 7.81860800e-03 7.86078900e-02
        2 -1    0    0  501    0 +0.0000000000e+00 +0.0000000000e+00 +2.0616075160e+03 2.0616075160e+03 0.0000000000e+00 0.0000e+00 -1.0000e+00
       -2 -1    0    0    0  501 -0.0000000000e+00 -0.0000000000e+00 -8.2232391230e+02 8.2232391230e+02 0.0000000000e+00 0.0000e+00 1.0000e+00
      -13  1    1    2    0    0 +8.5209133021e+02 +7.4542750659e+02 -9.2578102275e+01 1.1359104312e+03 0.0000000000e+00 0.0000e+00 1.0000e+00
       13  1    1    2    0    0 -8.5209133021e+02 -7.4542750659e+02 +1.3318617060e+03 1.7480209972e+03 0.0000000000e+00 0.0000e+00 -1.0000e+00
<mgrwt>
<rscale>  0 0.26040808E+04</rscale>
<asrwt>0</asrwt>
<pdfrwt beam="1">  1        2 0.31717039E+00 0.26040808E+04</pdfrwt>
<pdfrwt beam="2">  1       -2 0.12651137E+00 0.26040808E+04</pdfrwt>
<totfact> 0.31599830E+00</totfact>
</mgrwt>
<rwgt>
<wgt id='morphing_basis_vector_1'> +1.4015578e-04 </wgt>
<wgt id='morphing_basis_vector_2'> +9.5638479e-05 </wgt>
<wgt id='morphing_basis_vector_3'> +1.5217442e-04 </wgt>
<wgt id='morphing_basis_vector_4'> +1.0603807e-04 </wgt>
<wgt id='morphing_basis_vector_5'> +1.7099056e-04 </wgt>
</rwgt>
</event>
<event>
 4      1 +2.2016400e-08 2.64875100e+03 7.81860800e-03 7.84758600e-02
        2 -1    0    0  501    0 +0.0000000000e+00 +0.0000000000e+00 +2.9964909156e+03 2.9964909156e+03 0.0000000000e+00 0.0000e+00 -1.0000e+00
       -2 -1    0    0    0  501 -0.0000000000e+00 -0.0000000000e+00 -5.8534161879e+02 5.8534161879e+02 0.0000000000e+00 0.0000e+00 1.0000e+00
      -13  1    1    2    0    0 +7.1043058741e+02 -3.3937657554e+02 -2.3450486231e+02 8.2151117461e+02 0.0000000000e+00 0.0000e+00 1.0000e+00
       13  1    1    2    0    0 -7.1043058741e+02 +3.3937657554e+02 +2.6456541591e+03 2.7603213597e+03 0.0000000000e+00 0.0000e+00 -1.0000e+00
<mgrwt>
<rscale>  0 0.26487513E+04</rscale>
<asrwt>0</asrwt>
<pdfrwt beam="1">  1        2 0.46099859E+00 0.26487513E+04</pdfrwt>
<pdfrwt beam="2">  1       -2 0.90052559E-01 0.26487513E+04</pdfrwt>
<totfact> 0.20014096E+00</totfact>
</mgrwt>
<rwgt>
<wgt id='morphing_basis_vector_1'> +1.4928556e-04 </wgt>
<wgt id='morphing_basis_vector_2'> +1.0051754e-04 </wgt>
<wgt id='morphing_basis_vector_3'> +1.6192958e-04 </wgt>
<wgt id='morphing_basis_vector_4'> +1.1486185e-04 </wgt>
<wgt id='morphing_basis_vector_5'> +1.8327645e-04 </wgt>
</rwgt>
</event>
<event>
 4      1 +2.2016400e-08 2.40138500e+03 7.81860800e-03 7.92430000e-02
        2 -1    0    0  501    0 +0.0000000000e+00 +0.0000000000e+00 +1.6086511546e+03 1.6086511546e+03 0.0000000000e+00 0.0000e+00 1.0000e+00
       -2 -1    0    0    0  501 -0.0000000000e+00 -0.0000000000e+00 -8.9619298533e+02 8.9619298533e+02 0.0000000000e+00 0.0000e+00 -1.0000e+00
      -13  1    1    2    0    0 +6.2808496579e+02 +7.3814516383e+02 -3.8304615155e+02 1.0421484354e+03 0.0000000000e+00 0.0000e+00 -1.0000e+00
       13  1    1    2    0    0 -6.2808496579e+02 -7.3814516383e+02 +1.0955043208e+03 1.4626957045e+03 0.0000000000e+00 0.0000e+00 1.0000e+00
<mgrwt>
<rscale>  0 0.24013845E+04</rscale>
<asrwt>0</asrwt>
<pdfrwt beam="1">  1        2 0.24748479E+00 0.24013845E+04</pdfrwt>
<pdfrwt beam="2">  1       -2 0.13787584E+00 0.24013845E+04</pdfrwt>
<totfact> 0.45671271E+00</totfact>
</mgrwt>
<rwgt>
<wgt id='morphing_basis_vector_1'> +1.0158679e-04 </wgt>
<wgt id='morphing_basis_vector_2'> +6.8707136e-05 </wgt>
<wgt id='morphing_basis_vector_3'> +1.0977746e-04 </wgt>
<wgt id='morphing_basis_vector_4'> +7.6772538e-05 </wgt>
<wgt id='morphing_basis_vector_5'> +1.2317225e-04 </wgt>
</rwgt>
</event>
<event>
 4      1 +2.2016400e-08 2.29723600e+03 7.81860800e-03 7.95948800e-02
        2 -1    0    0  501    0 +0.0000000000e+00 +0.0000000000e+00 +2.1224244096e+03 2.1224244096e+03 0.0000000000e+00 0.0000e+00 1.0000e+00
       -2 -1    0    0    0  501 -0.0000000000e+00 -0.0000000000e+00 -6.2161120296e+02 6.2161120296e+02 0.0000000000e+00 0.0000e+00 -1.0000e+00
      -13  1    1    2    0    0 -3.7202029008e+02 +1.0567347142e+03 +4.4766538079e+02 1.2064375846e+03 0.0000000000e+00 0.0000e+00 1.0000e+00
       13  1    1    2    0    0 +3.7202029008e+02 -1.0567347142e+03 +1.0531478258e+03 1.5375980279e+03 0.0000000000e+00 0.0000e+00 -1.0000e+00
<mgrwt>
<rscale>  0 0.22972355E+04</rscale>
<asrwt>0</asrwt>
<pdfrwt beam="1">  1        2 0.32652683E+00 0.22972355E+04</pdfrwt>
<pdfrwt beam="2">  1       -2 0.95632493E-01 0.22972355E+04</pdfrwt>
<totfact> 0.60469258E+00</totfact>
</mgrwt>
<rwgt>
<wgt id='morphing_basis_vector_1'> +8.6421159e-05 </wgt>
<wgt id='morphing_basis_vector_2'> +6.0917450e-05 </wgt>
<wgt id='morphing_basis_vector_3'> +9.3639237e-05 </wgt>
<wgt id='morphing_basis_vector_4'> +6.1858767e-05 </wgt>
<wgt id='morphing_basis_vector_5'> +1.0270610e-04 </wgt>
</rwgt>
</event>
<event>
 4      1 +2.2016400e-08 2.65582800e+03 7.81860800e-03 7.84551900e-02
        2 -1    0    0  501    0 +0.0000000000e+00 +0.0000000000e+00 +2.0556821349e+03 2.0556821349e+03 0.0000000000e+00 0.0000e+00 -1.0000e+00
       -2 -1    0    0    0  501 -0.0000000000e+00 -0.0000000000e+00 -8.5779557084e+02 8.5779557084e+02 0.0000000000e+00 0.0000e+00 1.0000e+00
      -13  1    1    2    0    0 +2.5338819084e+02 -4.4152459638e+02 -7.4650003884e+02 9.0355511866e+02 0.0000000000e+00 0.0000e+00 1.0000e+00
       13  1    1    2    0    0 -2.5338819084e+02 +4.4152459638e+02 +1.9443866029e+03 2.0099225870e+03 0.0000000000e+00 0.0000e+00 -1.0000e+00
<mgrwt>
<rscale>  0 0.26558276E+04</rscale>
<asrwt>0</asrwt>
<pdfrwt beam="1">  1        2 0.31625879E+00 0.26558276E+04</pdfrwt>
<pdfrwt beam="2">  1       -2 0.13196855E+00 0.26558276E+04</pdfrwt>
<totfact> 0.28333841E+00</totfact>
</mgrwt>
<rwgt>
<wgt id='morphing_basis_vector_1'> +1.5080598e-04 </wgt>
<wgt id='morphing_basis_vector_2'> +1.0140622e-04 </wgt>
<wgt id='morphing_basis_vector_3'> +1.6356895e-04 </wgt>
<wgt id='morphing_basis_vector_4'> +1.1623700e-04 </wgt>
<wgt id='morphing_basis_vector_5'> +1.8527583e-04 </wgt>
</rwgt>
</event>
<event>
 4      1 +2.2016400e-08 2.57244100e+03 7.81860800e-03 7.87030500e-02
        2 -1    0    0  501    0 +0.0000000000e+00 +0.0000000000e+00 +1.2545780017e+03 1.2545780017e+03 0.0000000000e+00 0.0000e+00 -1.0000e+00
       -2 -1    0    0    0  501 -0.0000000000e+00 -0.0000000000e+00 -1.3186615616e+03 1.3186615616e+03 0.0000000000e+00 0.0000e+00 1.0000e+00
      -13  1    1    2    0    0 +1.0431117651e+03 +2.9154372728e+02 -7.2600328160e+02 1.3039020915e+03 0.0000000000e+00 0.0000e+00 1.0000e+00
       13  1    1    2    0    0 -1.0431117651e+03 -2.9154372728e+02 +6.6191972170e+02 1.2693374718e+03 0.0000000000e+00 0.0000e+00 -1.0000e+00
<mgrwt>
<rscale>  0 0.25724415E+04</rscale>
<asrwt>0</asrwt>
<pdfrwt beam="1">  1        2 0.19301200E+00 0.25724415E+04</pdfrwt>
<pdfrwt beam="2">  1       -2 0.20287101E+00 0.25724415E+04</pdfrwt>
<totfact> 0.22057785E+00</totfact>
</mgrwt>
<rwgt>
<wgt id='morphing_basis_vector_1'> +1.3341326e-04 </wgt>
<wgt id='morphing_basis_vector_2'> +9.0703624e-05 </wgt>
<wgt id='morphing_basis_vector_3'> +1.4471312e-04 </wgt>
<wgt id='morphing_basis_vector_4'> +1.0119498e-04 </wgt>
<wgt id='morphing_basis_vector_5'> +1.6275809e-04 </wgt>
</rwgt>
</event>
<event>
 4      1 +2.2016400e-08 2.25395100e+03 7.81860800e-03 7.97468200e-02
        2 -1    0    0  501    0 +0.0000000000e+00 +0.0000000000e+00 +1.5030968269e+03 1.5030968269e+03 0.0000000000e+00 0.0000e+00 -1.0000e+00
       -2 -1    0    0    0  501 -0.0000000000e+00 -0.0000000000e+00 -8.4497126292e+02 8.4497126292e+02 0.0000000000e+00 0.0000e+00 1.0000e+00
      -13  1    1    2    0    0 +1.2277565980e+02 +8.5139308349e+02 -4.2944014432e+02 9.6143792458e+02 0.0000000000e+00 0.0000e+00 1.0000e+00
       13  1    1    2    0    0 -1.2277565980e+02 -8.5139308349e+02 +1.0875657083e+03 1.3866301652e+03 0.0000000000e+00 0.0000e+00 -1.0000e+00
<mgrwt>
<rscale>  0 0.22539509E+04</rscale>
<asrwt>0</asrwt>
<pdfrwt beam="1">  1        2 0.23124567E+00 0.22539509E+04</pdfrwt>
<pdfrwt beam="2">  1       -2 0.12999558E+00 0.22539509E+04</pdfrwt>
<totfact> 0.62181564E+00</totfact>
</mgrwt>
<rwgt>
<wgt id='morphing_basis_vector_1'> +7.9080498e-05 </wgt>
<wgt id='morphing_basis_vector_2'> +5.3221761e-05 </wgt>
<wgt id='morphing_basis_vector_3'> +8.5128141e-05 </wgt>
<wgt id='morphing_basis_vector_4'> +5.9497786e-05 </wgt>
<wgt id='morphing_basis_vector_5'> +9.5248905e-05 </wgt>
</rwgt>
</event>
<event>
 4      1 +2.2016400e-08 2.24430000e+03 7.81860800e-03 7.97811800e-02
        2 -1    0    0  501    0 +0.0000000000e+00 +0.0000000000e+00 +3.2919066068e+03 3.2919066068e+03 0.0000000000e+00 0.0000e+00 -1.0000e+00
       -2 -1    0    0    0  501 -0.0000000000e+00 -0.0000000000e+00 -3.8252014901e+02 3.8252014901e+02 0.0000000000e+00 0.0000e+00 1.0000e+00
      -13  1    1    2    0    0 +5.4482993384e+02 -3.8988067702e+01 -1.5017339113e+02 5.6649075335e+02 0.0000000000e+00 0.0000e+00 1.0000e+00
       13  1    1    2    0    0 -5.4482993384e+02 +3.8988067702e+01 +3.0595598490e+03 3.1079360025e+03 0.0000000000e+00 0.0000e+00 -1.0000e+00
<mgrwt>
<rscale>  0 0.22443000E+04</rscale>
<asrwt>0</asrwt>
<pdfrwt beam="1">  1        2 0.50644715E+00 0.22443000E+04</pdfrwt>
<pdfrwt beam="2">  1       -2 0.58849256E-01 0.22443000E+04</pdfrwt>
<totfact> 0.33339071E+00</totfact>
</mgrwt>
<rwgt>
<wgt id='morphing_basis_vector_1'> +7.7625405e-05 </wgt>
<wgt id='morphing_basis_vector_2'> +5.1935734e-05 </wgt>
<wgt id='morphing_basis_vector_3'> +8.3485622e-05 </wgt>
<wgt id='morphing_basis_vector_4'> +5.8734433e-05 </wgt>
<wgt id='morphing_basis_vector_5'> +9.3623729e-05 </wgt>
</rwgt>
</event>
<event>
 4      1 +2.2016400e-08 2.65261300e+03 7.81860800e-03 7.84645700e-02
        2 -1    0    0  501    0 +0.0000000000e+00 +0.0000000000e+00 +1.5567464849e+03 1.5567464849e+03 0.0000000000e+00 0.0000e+00 -1.0000e+00
       -2 -1    0    0    0  501 -0.0000000000e+00 -0.0000000000e+00 -1.1299773937e+03 1.1299773937e+03 0.0000000000e+00 0.0000e+00 1.0000e+00
      -13  1    1    2    0    0 -8.1209357811e+02 -4.3981404600e+02 -7.5077896429e+02 1.1902106653e+03 0.0000000000e+00 0.0000e+00 1.0000e+00
       13  1    1    2    0    0 +8.1209357811e+02 +4.3981404600e+02 +1.1775480555e+03 1.4965132133e+03 0.0000000000e+00 0.0000e+00 -1.0000e+00
<mgrwt>
<rscale>  0 0.26526126E+04</rscale>
<asrwt>0</asrwt>
<pdfrwt beam="1">  1        2 0.23949946E+00 0.26526126E+04</pdfrwt>
<pdfrwt beam="2">  1       -2 0.17384268E+00 0.26526126E+04</pdfrwt>
<totfact> 0.24357405E+00</totfact>
</mgrwt>
<rwgt>
<wgt id='morphing_basis_vector_1'> +1.5024040e-04 </wgt>
<wgt id='morphing_basis_vector_2'> +1.0137517e-04 </wgt>
<wgt id='morphing_basis_vector_3'> +1.6301767e-04 </wgt>
<wgt id='morphing_basis_vector_4'> +1.1534969e-04 </wgt>
<wgt id='morphing_basis_vector_5'> +1.8434416e-04 </wgt>
</rwgt>
</event>
<event>
 4      1 +2.2016400e-08 2.55439600e+03 7.81860800e-03 7.87579600e-02
        2 -1    0    0  501    0 +0.0000000000e+00 +0.0000000000e+00 +1.6554635075e+03 1.6554635075e+03 0.0000000000e+00 0.0000e+00 -1.0000e+00
       -2 -1    0    0    0  501 -0.0000000000e+00 -0.0000000000e+00 -9.8536455402e+02 9.8536455402e+02 0.0000000000e+00 0.0000e+00 1.0000e+00
      -13  1    1    2    0    0 -1.4783533156e+02 -1.0532531539e+03 +1.0661097332e+03 1.5059174794e+03 0.0000000000e+00 0.0000e+00 1.0000e+00
       13  1    1    2    0    0 +1.4783533156e+02 +1.0532531539e+03 -3.9601077978e+02 1.1349105821e+03 0.0000000000e+00 0.0000e+00 -1.0000e+00
<mgrwt>
<rscale>  0 0.25543963E+04</rscale>
<asrwt>0</asrwt>
<pdfrwt beam="1">  1        2 0.25468669E+00 0.25543963E+04</pdfrwt>
<pdfrwt beam="2">  1       -2 0.15159455E+00 0.25543963E+04</pdfrwt>
<totfact> 0.32529744E+00</totfact>
</mgrwt>
<rwgt>
<wgt id='morphing_basis_vector_1'> +1.5663906e-04 </wgt>
<wgt id='morphing_basis_vector_2'> +1.6750816e-04 </wgt>
<wgt id='morphing_basis_vector_3'> +1.8187419e-04 </wgt>
<wgt id='morphing_basis_vector_4'> +4.3139566e-05 </wgt>
<wgt id='morphing_basis_vector_5'> +1.5370158e-04 </wgt>
</rwgt>
</event>
<event>
 4      1 +2.2016400e-08 2.43931500e+03 7.81860800e-03 7.91193800e-02
        2 -1    0    0  501    0 +0.0000000000e+00 +0.0000000000e+00 +1.1686460140e+03 1.1686460140e+03 0.0000000000e+00 0.0000e+00 -1.0000e+00
       -2 -1    0    0    0  501 -0.0000000000e+00 -0.0000000000e+00 -1.2728951295e+03 1.2728951295e+03 0.0000000000e+00 0.0000e+00 1.0000e+00
      -13  1    1    2    0    0 -1.0953845080e+02 -1.1469958184e+03 -4.5244681565e+02 1.2378635630e+03 0.0000000000e+00 0.0000e+00 1.0000e+00
       13  1    1    2    0    0 +1.0953845080e+02 +1.1469958184e+03 +3.4819770015e+02 1.2036775805e+03 0.0000000000e+00 0.0000e+00 -1.0000e+00
<mgrwt>
<rscale>  0 0.24393145E+04</rscale>
<asrwt>0</asrwt>
<pdfrwt beam="1">  1        2 0.17979170E+00 0.24393145E+04</pdfrwt>
<pdfrwt beam="2">  1       -2 0.19583002E+00 0.24393145E+04</pdfrwt>
<totfact> 0.28187085E+00</totfact>
</mgrwt>
<rwgt>
<wgt id='morphing_basis_vector_1'> +1.0886824e-04 </wgt>
<wgt id='morphing_basis_vector_2'> +7.5497167e-05 </wgt>
<wgt id='morphing_basis_vector_3'> +1.1809348e-04 </wgt>
<wgt id='morphing_basis_vector_4'> +8.0164901e-05 </wgt>
<wgt id='morphing_basis_vector_5'> +1.3112026e-04 </wgt>
</rwgt>
</event>
<event>
 4      1 +2.2016400e-08 2.53188400e+03 7.81860800e-03 7.88271100e-02
        2 -1    0    0  501    0 +0.0000000000e+00 +0.0000000000e+00 +1.0892634224e+03 1.0892634224e+03 0.0000000000e+00 0.0000e+00 -1.0000e+00
       -2 -1    0    0    0  501 -0.0000000000e+00 -0.0000000000e+00 -1.4712780672e+03 1.4712780672e+03 0.0000000000e+00 0.0000e+00 1.0000e+00
      -13  1    1    2    0    0 -1.2027532424e+03 +3.6984128699e+02 -3.3118148657e+02 1.3011837367e+03 0.0000000000e+00 0.0000e+00 1.0000e+00
       13  1    1    2    0    0 +1.2027532424e+03 -3.6984128699e+02 -5.0833158319e+01 1.2593577529e+03 0.0000000000e+00 0.0000e+00 -1.0000e+00
<mgrwt>
<rscale>  0 0.25318842E+04</rscale>
<asrwt>0</asrwt>
<pdfrwt beam="1">  1        2 0.16757899E+00 0.25318842E+04</pdfrwt>
<pdfrwt beam="2">  1       -2 0.22635047E+00 0.25318842E+04</pdfrwt>
<totfact> 0.18811721E+00</totfact>
</mgrwt>
<rwgt>
<wgt id='morphing_basis_vector_1'> +1.2790274e-04 </wgt>
<wgt id='morphing_basis_vector_2'> +9.2836293e-05 </wgt>
<wgt id='morphing_basis_vector_3'> +1.3979416e-04 </wgt>
<wgt id='morphing_basis_vector_4'> +8.9542017e-05 </wgt>
<wgt id='morphing_basis_vector_5'> +1.5218099e-04 </wgt>
</rwgt>
</event>
<event>
 4      1 +2.2016400e-08 2.53969900e+03 7.81860800e-03 7.88030200e-02
        2 -1    0    0  501    0 +0.0000000000e+00 +0.0000000000e+00 +4.9138778937e+02 4.9138778937e+02 0.0000000000e+00 0.0000e+00 1.0000e+00
       -2 -1    0    0    0  501 -0.0000000000e+00 -0.0000000000e+00 -3.2815583918e+03 3.2815583918e+03 0.0000000000e+00 0.0000e+00 -1.0000e+00
      -13  1    1    2    0    0 -2.2082584169e+02 -7.2379594151e+02 -2.9100012558e+03 3.0067843165e+03 0.0000000000e+00 0.0000e+00 -1.0000e+00
       13  1    1    2    0    0 +2.2082584169e+02 +7.2379594151e+02 +1.1983065339e+02 7.6616186462e+02 0.0000000000e+00 0.0000e+00 1.0000e+00
<mgrwt>
<rscale>  0 0.25396990E+04</rscale>
<asrwt>0</asrwt>
<pdfrwt beam="1">  1        2 0.75598119E-01 0.25396990E+04</pdfrwt>
<pdfrwt beam="2">  1       -2 0.50485516E+00 0.25396990E+04</pdfrwt>
<totfact> 0.65372909E-02</totfact>
</mgrwt>
<rwgt>
<wgt id='morphing_basis_vector_1'> +1.2643550e-04 </wgt>
<wgt id='morphing_basis_vector_2'> +8.5031269e-05 </wgt>
<wgt id='morphing_basis_vector_3'> +1.3688638e-04 </wgt>
<wgt id='morphing_basis_vector_4'> +9.6892305e-05 </wgt>
<wgt id='morphing_basis_vector_5'> +1.5459736e-04 </wgt>
</rwgt>
</event>
<event>
 4      1 +2.2016400e-08 2.34664500e+03 7.81860800e-03 7.94256000e-02
        2 -1    0    0  501    0 +0.0000000000e+00 +0.0000000000e+00 +3.0129406593e+03 3.0129406593e+03 0.0000000000e+00 0.0000e+00 -1.0000e+00
       -2 -1    0    0    0  501 -0.0000000000e+00 -0.0000000000e+00 -4.5692445290e+02 4.5692445290e+02 0.0000000000e+00 0.0000e+00 1.0000e+00
      -13  1    1    2    0    0 -8.1859854022e+02 -8.2358890989e+02 +1.0293311600e+03 1.5517489808e+03 0.0000000000e+00 0.0000e+00 1.0000e+00
       13  1    1    2    0    0 +8.1859854022e+02 +8.2358890989e+02 +1.5266850465e+03 1.9181161314e+03 0.0000000000e+00 0.0000e+00 -1.0000e+00
<mgrwt>
<rscale>  0 0.23466455E+04</rscale>
<asrwt>0</asrwt>
<pdfrwt beam="1">  1        2 0.46352932E+00 0.23466455E+04</pdfrwt>
<pdfrwt beam="2">  1       -2 0.70296072E-01 0.23466455E+04</pdfrwt>
<totfact> 0.35047689E+00</totfact>
</mgrwt>
<rwgt>
<wgt id='morphing_basis_vector_1'> +9.4500983e-05 </wgt>
<wgt id='morphing_basis_vector_2'> +6.7831720e-05 </wgt>
<wgt id='morphing_basis_vector_3'> +1.0274281e-04 </wgt>
<wgt id='morphing_basis_vector_4'> +6.6375461e-05 </wgt>
<wgt id='morphing_basis_vector_5'> +1.1188714e-04 </wgt>
</rwgt>
</event>
<event>
 4      1 +2.2016400e-08 2.45405200e+03 7.81860800e-03 7.90719700e-02
        2 -1    0    0  501    0 +0.0000000000e+00 +0.0000000000e+00 +1.6515165102e+03 1.6515165102e+03 0.0000000000e+00 0.0000e+00 1.0000e+00
       -2 -1    0    0    0  501 -0.0000000000e+00 -0.0000000000e+00 -9.1164242576e+02 9.1164242576e+02 0.0000000000e+00 0.0000e+00 -1.0000e+00
      -13  1    1    2    0    0 +1.1191661067e+03 -5.0304867790e+02 +3.7132692368e+02 1.2819806672e+03 0.0000000000e+00 0.0000e+00 -1.0000e+00
       13  1    1    2    0    0 -1.1191661067e+03 +5.0304867790e+02 +3.6854716074e+02 1.2811782688e+03 0.0000000000e+00 0.0000e+00 1.0000e+00
<mgrwt>
<rscale>  0 0.24540518E+04</rscale>
<asrwt>0</asrwt>
<pdfrwt beam="1">  1        2 0.25407946E+00 0.24540518E+04</pdfrwt>
<pdfrwt beam="2">  1       -2 0.14025268E+00 0.24540518E+04</pdfrwt>
<totfact> 0.41051798E+00</totfact>
</mgrwt>
<rwgt>
<wgt id='morphing_basis_vector_1'> +1.1443009e-04 </wgt>
<wgt id='morphing_basis_vector_2'> +8.6014492e-05 </wgt>
<wgt id='morphing_basis_vector_3'> +1.2544979e-04 </wgt>
<wgt id='morphing_basis_vector_4'> +7.6125696e-05 </wgt>
<wgt id='morphing_basis_vector_5'> +1.3387398e-04 </wgt>
</rwgt>
</event>
<event>
 4      1 +2.2016400e-08 2.26619100e+03 7.81860800e-03 7.97035000e-02
        2 -1    0    0  501    0 +0.0000000000e+00 +0.0000000000e+00 +7.3565509002e+02 7.3565509002e+02 0.0000000000e+00 0.0000e+00 1.0000e+00
       -2 -1    0    0    0  501 -0.0000000000e+00 -0.0000000000e+00 -1.7452553065e+03 1.7452553065e+03 0.0000000000e+00 0.0000e+00 -1.0000e+00
      -13  1    1    2    0    0 -6.9959036765e+02 +1.5649359852e+02 -1.4654314325e+03 1.6313816881e+03 0.0000000000e+00 0.0000e+00 -1.0000e+00
       13  1    1    2    0    0 +6.9959036765e+02 -1.5649359852e+02 +4.5583121604e+02 8.4952870841e+02 0.0000000000e+00 0.0000e+00 1.0000e+00
<mgrwt>
<rscale>  0 0.22661915E+04</rscale>
<asrwt>0</asrwt>
<pdfrwt beam="1">  1        2 0.11317771E+00 0.22661915E+04</pdfrwt>
<pdfrwt beam="2">  1       -2 0.26850082E+00 0.22661915E+04</pdfrwt>
<totfact> 0.16735829E+00</totfact>
</mgrwt>
<rwgt>
<wgt id='morphing_basis_vector_1'> +8.0686708e-05 </wgt>
<wgt id='morphing_basis_vector_2'> +5.4090247e-05 </wgt>
<wgt id='morphing_basis_vector_3'> +8.6843535e-05 </wgt>
<wgt id='morphing_basis_vector_4'> +6.1019223e-05 </wgt>
<wgt id='morphing_basis_vector_5'> +9.7383952e-05 </wgt>
</rwgt>
</event>
<event>
 4      1 +2.2016400e-08 2.44302300e+03 7.81860800e-03 7.91074100e-02
        2 -1    0    0  501    0 +0.0000000000e+00 +0.0000000000e+00 +2.0018337283e+03 2.0018337283e+03 0.0000000000e+00 0.0000e+00 1.0000e+00
       -2 -1    0    0    0  501 -0.0000000000e+00 -0.0000000000e+00 -7.4536199921e+02 7.4536199921e+02 0.0000000000e+00 0.0000e+00 -1.0000e+00
      -13  1    1    2    0    0 +8.0646632457e+02 -8.3706148482e+02 +1.0505339996e+03 1.5667423356e+03 0.0000000000e+00 0.0000e+00 -1.0000e+00
       13  1    1    2    0    0 -8.0646632457e+02 +8.3706148482e+02 +2.0593772957e+02 1.1804533919e+03 0.0000000000e+00 0.0000e+00 1.0000e+00
<mgrwt>
<rscale>  0 0.24430234E+04</rscale>
<asrwt>0</asrwt>
<pdfrwt beam="1">  1        2 0.30797442E+00 0.24430234E+04</pdfrwt>
<pdfrwt beam="2">  1       -2 0.11467108E+00 0.24430234E+04</pdfrwt>
<totfact> 0.44706211E+00</totfact>
</mgrwt>
<rwgt>
<wgt id='morphing_basis_vector_1'> +1.1972256e-04 </wgt>
<wgt id='morphing_basis_vector_2'> +1.0606045e-04 </wgt>
<wgt id='morphing_basis_vector_3'> +1.3431906e-04 </wgt>
<wgt id='morphing_basis_vector_4'> +5.9810274e-05 </wgt>
<wgt id='morphing_basis_vector_5'> +1.3024430e-04 </wgt>
</rwgt>
</event>
<event>
 4      1 +2.2016400e-08 2.33536500e+03 7.81860800e-03 7.94638700e-02
        2 -1    0    0  501    0 +0.0000000000e+00 +0.0000000000e+00 +1.1533808609e+03 1.1533808609e+03 0.0000000000e+00 0.0000e+00 1.0000e+00
       -2 -1    0    0    0  501 -0.0000000000e+00 -0.0000000000e+00 -1.1821619777e+03 1.1821619777e+03 0.0000000000e+00 0.0000e+00 -1.0000e+00
      -13  1    1    2    0    0 +2.3313026010e+02 -9.2029804533e+02 +6.6550280567e+02 1.1593930286e+03 0.0000000000e+00 0.0000e+00 1.0000e+00
       13  1    1    2    0    0 -2.3313026010e+02 +9.2029804533e+02 -6.9428392250e+02 1.1761498100e+03 0.0000000000e+00 0.0000e+00 -1.0000e+00
<mgrwt>
<rscale>  0 0.23353655E+04</rscale>
<asrwt>0</asrwt>
<pdfrwt beam="1">  1        2 0.17744321E+00 0.23353655E+04</pdfrwt>
<pdfrwt beam="2">  1       -2 0.18187107E+00 0.23353655E+04</pdfrwt>
<totfact> 0.36906021E+00</totfact>
</mgrwt>
<rwgt>
<wgt id='morphing_basis_vector_1'> +1.1133110e-04 </wgt>
<wgt id='morphing_basis_vector_2'> +1.2150182e-04 </wgt>
<wgt id='morphing_basis_vector_3'> +1.2883802e-04 </wgt>
<wgt id='morphing_basis_vector_4'> +2.7250137e-05 </wgt>
<wgt id='morphing_basis_vector_5'> +1.0667468e-04 </wgt>
</rwgt>
</event>
<event>
 4      1 +2.2016400e-08 2.45386200e+03 7.81860800e-03 7.90725800e-02
        2 -1    0    0  501    0 +0.0000000000e+00 +0.0000000000e+00 +3.0866340081e+03 3.0866340081e+03 0.0000000000e+00 0.0000e+00 -1.0000e+00
       -2 -1    0    0    0  501 -0.0000000000e+00 -0.0000000000e+00 -4.8770252158e+02 4.8770252158e+02 0.0000000000e+00 0.0000e+00 1.0000e+00
      -13  1    1    2    0    0 +1.0621160991e+03 -2.2646438901e+02 +4.6781210383e+02 1.1824655986e+03 0.0000000000e+00 0.0000e+00 1.0000e+00
       13  1    1    2    0    0 -1.0621160991e+03 +2.2646438901e+02 +2.1311193827e+03 2.3918709311e+03 0.0000000000e+00 0.0000e+00 -1.0000e+00
<mgrwt>
<rscale>  0 0.24538616E+04</rscale>
<asrwt>0</asrwt>
<pdfrwt beam="1">  1        2 0.47486676E+00 0.24538616E+04</pdfrwt>
<pdfrwt beam="2">  1       -2 0.75031159E-01 0.24538616E+04</pdfrwt>
<totfact> 0.26948676E+00</totfact>
</mgrwt>
<rwgt>
<wgt id='morphing_basis_vector_1'> +1.1092316e-04 </wgt>
<wgt id='morphing_basis_vector_2'> +7.5740737e-05 </wgt>
<wgt id='morphing_basis_vector_3'> +1.2012863e-04 </wgt>
<wgt id='morphing_basis_vector_4'> +8.3202331e-05 </wgt>
<wgt id='morphing_basis_vector_5'> +1.3440636e-04 </wgt>
</rwgt>
</event>
<event>
 4      1 +2.2016400e-08 2.49249900e+03 7.81860800e-03 7.89498700e-02
        2 -1    0    0  501    0 +0.0000000000e+00 +0.0000000000e+00 +1.3816270805e+03 1.3816270805e+03 0.0000000000e+00 0.0000e+00 -1.0000e+00
       -2 -1    0    0    0  501 -0.0000000000e+00 -0.0000000000e+00 -1.1241365033e+03 1.1241365033e+03 0.0000000000e+00 0.0000e+00 1.0000e+00
      -13  1    1    2    0    0 -9.4757852526e+02 -4.0493405273e+02 -5.7588483134e+02 1.1804744756e+03 0.0000000000e+00 0.0000e+00 1.0000e+00
       13  1    1    2    0    0 +9.4757852526e+02 +4.0493405273e+02 +8.3337540859e+02 1.3252891082e+03 0.0000000000e+00 0.0000e+00 -1.0000e+00
<mgrwt>
<rscale>  0 0.24924987E+04</rscale>
<asrwt>0</asrwt>
<pdfrwt beam="1">  1        2 0.21255801E+00 0.24924987E+04</pdfrwt>
<pdfrwt beam="2">  1       -2 0.17294408E+00 0.24924987E+04</pdfrwt>
<totfact> 0.31467580E+00</totfact>
</mgrwt>
<rwgt>
<wgt id='morphing_basis_vector_1'> +1.1772282e-04 </wgt>
<wgt id='morphing_basis_vector_2'> +7.9843412e-05 </wgt>
<wgt id='morphing_basis_vector_3'> +1.2747950e-04 </wgt>
<wgt id='morphing_basis_vector_4'> +8.9160555e-05 </wgt>
<wgt id='morphing_basis_vector_5'> +1.4323283e-04 </wgt>
</rwgt>
</event>
<event>
 4      1 +2.2016400e-08 2.41435000e+03 7.81860800e-03 7.92004800e-02
        2 -1    0    0  501    0 +0.0000000000e+00 +0.0000000000e+00 +2.2406710246e+03 2.2406710246e+03 0.0000000000e+00 0.0000e+00 -1.0000e+00
       -2 -1    0    0    0  501 -0.0000000000e+00 -0.0000000000e+00 -6.5037265800e+02 6.5037265800e+02 0.0000000000e+00 0.0000e+00 1.0000e+00
      -13  1    1    2    0    0 +1.1616030641e+03 +1.0013735649e+02 +4.2043976244e+02 1.2394025829e+03 0.0000000000e+00 0.0000e+00 1.0000e+00
       13  1    1    2    0    0 -1.1616030641e+03 -1.0013735649e+02 +1.1698586042e+03 1.6516410998e+03 0.0000000000e+00 0.0000e+00 -1.0000e+00
<mgrwt>
<rscale>  0 0.24143497E+04</rscale>
<asrwt>0</asrwt>
<pdfrwt beam="1">  1        2 0.34471862E+00 0.24143497E+04</pdfrwt>
<pdfrwt beam="2">  1       -2 0.10005733E+00 0.24143497E+04</pdfrwt>
<totfact> 0.45980701E+00</totfact>
</mgrwt>
<rwgt>
<wgt id='morphing_basis_vector_1'> +1.0489347e-04 </wgt>
<wgt id='morphing_basis_vector_2'> +7.3519000e-05 </wgt>
<wgt id='morphing_basis_vector_3'> +1.1387381e-04 </wgt>
<wgt id='morphing_basis_vector_4'> +7.6167404e-05 </wgt>
<wgt id='morphing_basis_vector_5'> +1.2570567e-04 </wgt>
</rwgt>
</event>
<event>
 4      1 +2.2016400e-08 2.25934800e+03 7.81860800e-03 7.97276800e-02
        2 -1    0    0  501    0 +0.0000000000e+00 +0.0000000000e+00 +2.5480389818e+03 2.5480389818e+03 0.0000000000e+00 0.0000e+00 -1.0000e+00
       -2 -1    0    0    0  501 -0.0000000000e+00 -0.0000000000e+00 -5.0084135361e+02 5.0084135361e+02 0.0000000000e+00 0.0000e+00 1.0000e+00
      -13  1    1    2    0    0 -3.7119001314e+02 +1.0663632815e+03 +9.7587669353e+02 1.4923967284e+03 0.0000000000e+00 0.0000e+00 1.0000e+00
       13  1    1    2    0    0 +3.7119001314e+02 -1.0663632815e+03 +1.0713209347e+03 1.5564836070e+03 0.0000000000e+00 0.0000e+00 -1.0000e+00
<mgrwt>
<rscale>  0 0.22593480E+04</rscale>
<asrwt>0</asrwt>
<pdfrwt beam="1">  1        2 0.39200599E+00 0.22593480E+04</pdfrwt>
<pdfrwt beam="2">  1       -2 0.77052517E-01 0.22593480E+04</pdfrwt>
<totfact> 0.56403884E+00</totfact>
</mgrwt>
<rwgt>
<wgt id='morphing_basis_vector_1'> +8.2284811e-05 </wgt>
<wgt id='morphing_basis_vector_2'> +6.0987892e-05 </wgt>
<wgt id='morphing_basis_vector_3'> +8.9624828e-05 </wgt>
<wgt id='morphing_basis_vector_4'> +5.5103737e-05 </wgt>
<wgt id='morphing_basis_vector_5'> +9.5780030e-05 </wgt>
</rwgt>
</event>
<event>
 4      1 +2.2016400e-08 2.38609700e+03 7.81860800e-03 7.92934900e-02
        2 -1    0    0  501    0 +0.0000000000e+00 +0.0000000000e+00 +1.5976091959e+03 1.5976091959e+03 0.0000000000e+00 0.0000e+00 -1.0000e+00
       -2 -1    0    0    0  501 -0.0000000000e+00 -0.0000000000e+00 -8.9093414788e+02 8.9093414788e+02 0.0000000000e+00 0.0000e+00 1.0000e+00
      -13  1    1    2    0    0 -6.8088216085e+01 -4.6155235864e+02 -7.9184946757e+02 9.1907135971e+02 0.0000000000e+00 0.0000e+00 1.0000e+00
       13  1    1    2    0    0 +6.8088216085e+01 +4.6155235864e+02 +1.4985245156e+03 1.5694719840e+03 0.0000000000e+00 0.0000e+00 -1.0000e+00
<mgrwt>
<rscale>  0 0.23860969E+04</rscale>
<asrwt>0</asrwt>
<pdfrwt beam="1">  1        2 0.24578603E+00 0.23860969E+04</pdfrwt>
<pdfrwt beam="2">  1       -2 0.13706679E+00 0.23860969E+04</pdfrwt>
<totfact> 0.47140045E+00</totfact>
</mgrwt>
<rwgt>
<wgt id='morphing_basis_vector_1'> +9.8802458e-05 </wgt>
<wgt id='morphing_basis_vector_2'> +6.6222778e-05 </wgt>
<wgt id='morphing_basis_vector_3'> +1.0662082e-04 </wgt>
<wgt id='morphing_basis_vector_4'> +7.5336081e-05 </wgt>
<wgt id='morphing_basis_vector_5'> +1.2006509e-04 </wgt>
</rwgt>
</event>
<event>
 4      1 +2.2016400e-08 2.39640500e+03 7.81860800e-03 7.92594100e-02
        2 -1    0    0  501    0 +0.0000000000e+00 +0.0000000000e+00 +3.6696082618e+03 3.6696082618e+03 0.0000000000e+00 0.0000e+00 -1.0000e+00
       -2 -1    0    0    0  501 -0.0000000000e+00 -0.0000000000e+00 -3.9123757598e+02 3.9123757598e+02 0.0000000000e+00 0.0000e+00 1.0000e+00
      -13  1    1    2    0    0 +8.3253445787e+02 -8.1879283857e+02 +1.1840039615e+03 1.6629494030e+03 0.0000000000e+00 0.0000e+00 1.0000e+00
       13  1    1    2    0    0 -8.3253445787e+02 +8.1879283857e+02 +2.0943667244e+03 2.3978964349e+03 0.0000000000e+00 0.0000e+00 -1.0000e+00
<mgrwt>
<rscale>  0 0.23964045E+04</rscale>
<asrwt>0</asrwt>
<pdfrwt beam="1">  1        2 0.56455509E+00 0.23964045E+04</pdfrwt>
<pdfrwt beam="2">  1       -2 0.60190399E-01 0.23964045E+04</pdfrwt>
<totfact> 0.16681457E+00</totfact>
</mgrwt>
<rwgt>
<wgt id='morphing_basis_vector_1'> +1.0206161e-04 </wgt>
<wgt id='morphing_basis_vector_2'> +7.1989459e-05 </wgt>
<wgt id='morphing_basis_vector_3'> +1.1084477e-04 </wgt>
<wgt id='morphing_basis_vector_4'> +7.3471208e-05 </wgt>
<wgt id='morphing_basis_vector_5'> +1.2192505e-04 </wgt>
</rwgt>
</event>
<event>
 4      1 +2.2016400e-08 2.36979400e+03 7.81860800e-03 7.93477600e-02
        2 -1    0    0  501    0 +0.0000000000e+00 +0.0000000000e+00 +7.0566078502e+02 7.0566078502e+02 0.0000000000e+00 0.0000e+00 -1.0000e+00
       -2 -1    0    0    0  501 -0.0000000000e+00 -0.0000000000e+00 -1.9895975191e+03 1.9895975191e+03 0.0000000000e+00 0.0000e+00 1.0000e+00
      -13  1    1    2    0    0 +5.8219188168e+02 -9.7886196994e+02 -1.0137629627e+03 1.5247404657e+03 0.0000000000e+00 0.0000e+00 1.0000e+00
       13  1    1    2    0    0 -5.8219188168e+02 +9.7886196994e+02 -2.7017377139e+02 1.1705178384e+03 0.0000000000e+00 0.0000e+00 -1.0000e+00
<mgrwt>
<rscale>  0 0.23697940E+04</rscale>
<asrwt>0</asrwt>
<pdfrwt beam="1">  1        2 0.10856320E+00 0.23697940E+04</pdfrwt>
<pdfrwt beam="2">  1       -2 0.30609192E+00 0.23697940E+04</pdfrwt>
<totfact> 0.97053804E-01</totfact>
</mgrwt>
<rwgt>
<wgt id='morphing_basis_vector_1'> +9.7377706e-05 </wgt>
<wgt id='morphing_basis_vector_2'> +6.8014889e-05 </wgt>
<wgt id='morphing_basis_vector_3'> +1.0556939e-04 </wgt>
<wgt id='morphing_basis_vector_4'> +7.0805495e-05 </wgt>
<wgt id='morphing_basis_vector_5'> +1.1657310e-04 </wgt>
</rwgt>
</event>
<event>
 4      1 +2.2016400e-08 2.39734500e+03 7.81860800e-03 7.92563000e-02
        2 -1    0    0  501    0 +0.0000000000e+00 +0.0000000000e+00 +1.1685508171e+03 1.1685508171e+03 0.0000000000e+00 0.0000e+00 1.0000e+00
       -2 -1    0    0    0  501 -0.0000000000e+00 -0.0000000000e+00 -1.2295703798e+03 1.2295703798e+03 0.0000000000e+00 0.0000e+00 -1.0000e+00
      -13  1    1    2    0    0 -1.4339392998e+02 -7.9359696424e+02 +8.5660183554e+02 1.1764882768e+03 0.0000000000e+00 0.0000e+00 1.0000e+00
       13  1    1    2    0    0 +1.4339392998e+02 +7.9359696424e+02 -9.1762139825e+02 1.2216329200e+03 0.0000000000e+00 0.0000e+00 -1.0000e+00
<mgrwt>
<rscale>  0 0.23973448E+04</rscale>
<asrwt>0</asrwt>
<pdfrwt beam="1">  1        2 0.17977705E+00 0.23973448E+04</pdfrwt>
<pdfrwt beam="2">  1       -2 0.18916467E+00 0.23973448E+04</pdfrwt>
<totfact> 0.31704051E+00</totfact>
</mgrwt>
<rwgt>
<wgt id='morphing_basis_vector_1'> +1.3161361e-04 </wgt>
<wgt id='morphing_basis_vector_2'> +1.5888317e-04 </wgt>
<wgt id='morphing_basis_vector_3'> +1.5555523e-04 </wgt>
<wgt id='morphing_basis_vector_4'> +1.3629301e-05 </wgt>
<wgt id='morphing_basis_vector_5'> +1.1727978e-04 </wgt>
</rwgt>
</event>
<event>
 4      1 +2.2016400e-08 2.23979800e+03 7.81860800e-03 7.97972600e-02
        2 -1    0    0  501    0 +0.0000000000e+00 +0.0000000000e+00 +3.0632650956e+03 3.0632650956e+03 0.0000000000e+00 0.0000e+00 -1.0000e+00
       -2 -1    0    0    0  501 -0.0000000000e+00 -0.0000000000e+00 -4.0942389907e+02 4.0942389907e+02 0.0000000000e+00 0.0000e+00 1.0000e+00
      -13  1    1    2    0    0 -3.5415588578e+02 -9.9668153893e+02 +7.5646247341e+02 1.3003983833e+03 0.0000000000e+00 0.0000e+00 1.0000e+00
       13  1    1    2    0    0 +3.5415588578e+02 +9.9668153893e+02 +1.8973787231e+03 2.1722906114e+03 0.0000000000e+00 0.0000e+00 -1.0000e+00
<mgrwt>
<rscale>  0 0.22397982E+04</rscale>
<asrwt>0</asrwt>
<pdfrwt beam="1">  1        2 0.47127154E+00 0.22397982E+04</pdfrwt>
<pdfrwt beam="2">  1       -2 0.62988294E-01 0.22397982E+04</pdfrwt>
<totfact> 0.41358255E+00</totfact>
</mgrwt>
<rwgt>
<wgt id='morphing_basis_vector_1'> +7.7777830e-05 </wgt>
<wgt id='morphing_basis_vector_2'> +5.3779063e-05 </wgt>
<wgt id='morphing_basis_vector_3'> +8.3960109e-05 </wgt>
<wgt id='morphing_basis_vector_4'> +5.6712961e-05 </wgt>
<wgt id='morphing_basis_vector_5'> +9.2739147e-05 </wgt>
</rwgt>
</event>
<event>
 4      1 +2.2016400e-08 2.37856100e+03 7.81860800e-03 7.93185200e-02
        2 -1    0    0  501    0 +0.0000000000e+00 +0.0000000000e+00 +1.1274111696e+03 1.1274111696e+03 0.0000000000e+00 0.0000e+00 1.0000e+00
       -2 -1    0    0    0  501 -0.0000000000e+00 -0.0000000000e+00 -1.2545450335e+03 1.2545450335e+03 0.0000000000e+00 0.0000e+00 -1.0000e+00
      -13  1    1    2    0    0 -7.1328955701e+02 +8.5248126898e+02 -4.8711483172e+02 1.2135844286e+03 0.0000000000e+00 0.0000e+00 -1.0000e+00
       13  1    1    2    0    0 +7.1328955701e+02 -8.5248126898e+02 +3.5998096781e+02 1.1683717744e+03 0.0000000000e+00 0.0000e+00 1.0000e+00
<mgrwt>
<rscale>  0 0.23785610E+04</rscale>
<asrwt>0</asrwt>
<pdfrwt beam="1">  1        2 0.17344787E+00 0.23785610E+04</pdfrwt>
<pdfrwt beam="2">  1       -2 0.19300693E+00 0.23785610E+04</pdfrwt>
<totfact> 0.31447647E+00</totfact>
</mgrwt>
<rwgt>
<wgt id='morphing_basis_vector_1'> +9.8446033e-05 </wgt>
<wgt id='morphing_basis_vector_2'> +6.7958427e-05 </wgt>
<wgt id='morphing_basis_vector_3'> +1.0659527e-04 </wgt>
<wgt id='morphing_basis_vector_4'> +7.2606627e-05 </wgt>
<wgt id='morphing_basis_vector_5'> +1.1839160e-04 </wgt>
</rwgt>
</event>
<event>
 4      1 +2.2016400e-08 2.45031100e+03 7.81860800e-03 7.90839700e-02
        2 -1    0    0  501    0 +0.0000000000e+00 +0.0000000000e+00 +1.4726165251e+03 1.4726165251e+03 0.0000000000e+00 0.0000e+00 -1.0000e+00
       -2 -1    0    0    0  501 -0.0000000000e+00 -0.0000000000e+00 -1.0192778766e+03 1.0192778766e+03 0.0000000000e+00 0.0000e+00 1.0000e+00
      -13  1    1    2    0    0 +2.6257503453e+02 -1.4101179336e+02 -9.8184787803e+02 1.0260873404e+03 0.0000000000e+00 0.0000e+00 1.0000e+00
       13  1    1    2    0    0 -2.6257503453e+02 +1.4101179336e+02 +1.4351865266e+03 1.4658070612e+03 0.0000000000e+00 0.0000e+00 -1.0000e+00
<mgrwt>
<rscale>  0 0.24503105E+04</rscale>
<asrwt>0</asrwt>
<pdfrwt beam="1">  1        2 0.22655639E+00 0.24503105E+04</pdfrwt>
<pdfrwt beam="2">  1       -2 0.15681198E+00 0.24503105E+04</pdfrwt>
<totfact> 0.37637904E+00</totfact>
</mgrwt>
<rwgt>
<wgt id='morphing_basis_vector_1'> +1.0970644e-04 </wgt>
<wgt id='morphing_basis_vector_2'> +7.3580134e-05 </wgt>
<wgt id='morphing_basis_vector_3'> +1.1854604e-04 </wgt>
<wgt id='morphing_basis_vector_4'> +8.3911093e-05 </wgt>
<wgt id='morphing_basis_vector_5'> +1.3371644e-04 </wgt>
</rwgt>
</event>
<event>
 4      1 +2.2016400e-08 2.26381000e+03 7.81860800e-03 7.97119000e-02
        2 -1    0    0  501    0 +0.0000000000e+00 +0.0000000000e+00 +1.9631785455e+03 1.9631785455e+03 0.0000000000e+00 0.0000e+00 -1.0000e+00
       -2 -1    0    0    0  501 -0.0000000000e+00 -0.0000000000e+00 -6.5261950251e+02 6.5261950251e+02 0.0000000000e+00 0.0000e+00 1.0000e+00
      -13  1    1    2    0    0 -3.8075924893e+02 +8.6267674271e+02 -6.8186792582e+01 9.4543017021e+02 0.0000000000e+00 0.0000e+00 1.0000e+00
       13  1    1    2    0    0 +3.8075924893e+02 -8.6267674271e+02 +1.3787458356e+03 1.6703678778e+03 0.0000000000e+00 0.0000e+00 -1.0000e+00
<mgrwt>
<rscale>  0 0.22638097E+04</rscale>
<asrwt>0</asrwt>
<pdfrwt beam="1">  1        2 0.30202747E+00 0.22638097E+04</pdfrwt>
<pdfrwt beam="2">  1       -2 0.10040300E+00 0.22638097E+04</pdfrwt>
<totfact> 0.66398392E+00</totfact>
</mgrwt>
<rwgt>
<wgt id='morphing_basis_vector_1'> +8.0568486e-05 </wgt>
<wgt id='morphing_basis_vector_2'> +5.4500276e-05 </wgt>
<wgt id='morphing_basis_vector_3'> +8.6801813e-05 </wgt>
<wgt id='morphing_basis_vector_4'> +6.0323468e-05 </wgt>
<wgt id='morphing_basis_vector_5'> +9.6933861e-05 </wgt>
</rwgt>
</event>
<event>
 4      1 +2.2016400e-08 2.31552800e+03 7.81860800e-03 7.95317000e-02
        2 -1    0    0  501    0 +0.0000000000e+00 +0.0000000000e+00 +8.6706408031e+02 8.6706408031e+02 0.0000000000e+00 0.0000e+00 -1.0000e+00
       -2 -1    0    0    0  501 -0.0000000000e+00 -0.0000000000e+00 -1.5459270508e+03 1.5459270508e+03 0.0000000000e+00 0.0000e+00 1.0000e+00
      -13  1    1    2    0    0 +6.9090646376e+02 -4.1161343582e+02 -1.2073377859e+03 1.4506694632e+03 0.0000000000e+00 0.0000e+00 1.0000e+00
       13  1    1    2    0    0 -6.9090646376e+02 +4.1161343582e+02 +5.2847481534e+02 9.6232166797e+02 0.0000000000e+00 0.0000e+00 -1.0000e+00
<mgrwt>
<rscale>  0 0.23155283E+04</rscale>
<asrwt>0</asrwt>
<pdfrwt beam="1">  1        2 0.13339448E+00 0.23155283E+04</pdfrwt>
<pdfrwt beam="2">  1       -2 0.23783493E+00 0.23155283E+04</pdfrwt>
<totfact> 0.21977960E+00</totfact>
</mgrwt>
<rwgt>
<wgt id='morphing_basis_vector_1'> +8.7866079e-05 </wgt>
<wgt id='morphing_basis_vector_2'> +5.9034042e-05 </wgt>
<wgt id='morphing_basis_vector_3'> +9.4702922e-05 </wgt>
<wgt id='morphing_basis_vector_4'> +6.6518422e-05 </wgt>
<wgt id='morphing_basis_vector_5'> +1.0627929e-04 </wgt>
</rwgt>
</event>
<event>
 4      1 +2.2016400e-08 2.50400700e+03 7.81860800e-03 7.89137600e-02
        2 -1    0    0  501    0 +0.0000000000e+00 +0.0000000000e+00 +1.9908949460e+03 1.9908949460e+03 0.0000000000e+00 0.0000e+00 1.0000e+00
       -2 -1    0    0    0  501 -0.0000000000e+00 -0.0000000000e+00 -7.8734084686e+02 7.8734084686e+02 0.0000000000e+00 0.0000e+00 -1.0000e+00
      -13  1    1    2    0    0 -2.5561542821e+02 +1.2245626376e+03 +5.4498530493e+02 1.3645152557e+03 0.0000000000e+00 0.0000e+00 -1.0000e+00
       13  1    1    2    0    0 +2.5561542821e+02 -1.2245626376e+03 +6.5856879417e+02 1.4137205371e+03 0.0000000000e+00 0.0000e+00 1.0000e+00
<mgrwt>
<rscale>  0 0.25040071E+04</rscale>
<asrwt>0</asrwt>
<pdfrwt beam="1">  1        2 0.30629153E+00 0.25040071E+04</pdfrwt>
<pdfrwt beam="2">  1       -2 0.12112936E+00 0.25040071E+04</pdfrwt>
<totfact> 0.39160932E+00</totfact>
</mgrwt>
<rwgt>
<wgt id='morphing_basis_vector_1'> +1.2328236e-04 </wgt>
<wgt id='morphing_basis_vector_2'> +9.1349603e-05 </wgt>
<wgt id='morphing_basis_vector_3'> +1.3503721e-04 </wgt>
<wgt id='morphing_basis_vector_4'> +8.3873169e-05 </wgt>
<wgt id='morphing_basis_vector_5'> +1.4536638e-04 </wgt>
</rwgt>
</event>
<event>
 4      1 +2.2016400e-08 2.39919600e+03 7.81860800e-03 7.92502000e-02
        2 -1    0    0  501    0 +0.0000000000e+00 +0.0000000000e+00 +3.9733314490e+03 3.9733314490e+03 0.0000000000e+00 0.0000e+00 1.0000e+00
       -2 -1    0    0    0  501 -0.0000000000e+00 -0.0000000000e+00 -3.6217352255e+02 3.6217352255e+02 0.0000000000e+00 0.0000e+00 -1.0000e+00
      -13  1    1    2    0    0 -6.7807363967e+02 +5.3217586527e+02 +2.9796142226e+02 9.1201755550e+02 0.0000000000e+00 0.0000e+00 -1.0000e+00
       13  1    1    2    0    0 +6.7807363967e+02 -5.3217586527e+02 +3.3131965042e+03 3.4234874160e+03 0.0000000000e+00 0.0000e+00 1.0000e+00
<mgrwt>
<rscale>  0 0.23991961E+04</rscale>
<asrwt>0</asrwt>
<pdfrwt beam="1">  1        2 0.61128173E+00 0.23991961E+04</pdfrwt>
<pdfrwt beam="2">  1       -2 0.55719006E-01 0.23991961E+04</pdfrwt>
<totfact> 0.11152089E+00</totfact>
</mgrwt>
<rwgt>
<wgt id='morphing_basis_vector_1'> +1.0108357e-04 </wgt>
<wgt id='morphing_basis_vector_2'> +6.8049252e-05 </wgt>
<wgt id='morphing_basis_vector_3'> +1.0916817e-04 </wgt>
<wgt id='morphing_basis_vector_4'> +7.6772084e-05 </wgt>
<wgt id='morphing_basis_vector_5'> +1.2274047e-04 </wgt>
</rwgt>
</event>
<event>
 4      1 +2.2016400e-08 2.26930800e+03 7.81860800e-03 7.96925100e-02
        2 -1    0    0  501    0 +0.0000000000e+00 +0.0000000000e+00 +1.1791366569e+03 1.1791366569e+03 0.0000000000e+00 0.0000e+00 -1.0000e+00
       -2 -1    0    0    0  501 -0.0000000000e+00 -0.0000000000e+00 -1.0918498109e+03 1.0918498109e+03 0.0000000000e+00 0.0000e+00 1.0000e+00
      -13  1    1    2    0    0 -1.5108099753e+02 -8.1469961831e+02 -7.3209376948e+02 1.1056772690e+03 0.0000000000e+00 0.0000e+00 1.0000e+00
       13  1    1    2    0    0 +1.5108099753e+02 +8.1469961831e+02 +8.1938061540e+02 1.1653091988e+03 0.0000000000e+00 0.0000e+00 -1.0000e+00
<mgrwt>
<rscale>  0 0.22693084E+04</rscale>
<asrwt>0</asrwt>
<pdfrwt beam="1">  1        2 0.18140564E+00 0.22693084E+04</pdfrwt>
<pdfrwt beam="2">  1       -2 0.16797689E+00 0.22693084E+04</pdfrwt>
<totfact> 0.45850129E+00</totfact>
</mgrwt>
<rwgt>
<wgt id='morphing_basis_vector_1'> +8.1187642e-05 </wgt>
<wgt id='morphing_basis_vector_2'> +5.4573069e-05 </wgt>
<wgt id='morphing_basis_vector_3'> +8.7416385e-05 </wgt>
<wgt id='morphing_basis_vector_4'> +6.1232754e-05 </wgt>
<wgt id='morphing_basis_vector_5'> +9.7918959e-05 </wgt>
</rwgt>
</event>
<event>
 4      1 +2.2016400e-08 2.28100100e+03 7.81860800e-03 7.96514600e-02
        2 -1    0    0  501    0 +0.0000000000e+00 +0.0000000000e+00 +1.3981313558e+03 1.3981313558e+03 0.0000000000e+00 0.0000e+00 1.0000e+00
       -2 -1    0    0    0  501 -0.0000000000e+00 -0.0000000000e+00 -9.3034281121e+02 9.3034281121e+02 0.0000000000e+00 0.0000e+00 -1.0000e+00
      -13  1    1    2    0    0 -2.6879866053e+02 -5.0960163553e+02 +1.2386531715e+03 1.3660923198e+03 0.0000000000e+00 0.0000e+00 1.0000e+00
       13  1    1    2    0    0 +2.6879866053e+02 +5.0960163553e+02 -7.7086462693e+02 9.6238184724e+02 0.0000000000e+00 0.0000e+00 -1.0000e+00
<mgrwt>
<rscale>  0 0.22810011E+04</rscale>
<asrwt>0</asrwt>
<pdfrwt beam="1">  1        2 0.21509713E+00 0.22810011E+04</pdfrwt>
<pdfrwt beam="2">  1       -2 0.14312966E+00 0.22810011E+04</pdfrwt>
<totfact> 0.54588943E+00</totfact>
</mgrwt>
<rwgt>
<wgt id='morphing_basis_vector_1'> +1.1192169e-04 </wgt>
<wgt id='morphing_basis_vector_2'> +1.4159677e-04 </wgt>
<wgt id='morphing_basis_vector_3'> +1.3286558e-04 </wgt>
<wgt id='morphing_basis_vector_4'> +3.5684415e-06 </wgt>
<wgt id='morphing_basis_vector_5'> +9.5251501e-05 </wgt>
</rwgt>
</event>
<event>
 4      1 +2.2016400e-08 2.37962500e+03 7.81860800e-03 7.93149800e-02
        2 -1    0    0  501    0 +0.0000000000e+00 +0.0000000000e+00 +2.1912158939e+03 2.1912158939e+03 0.0000000000e+00 0.0000e+00 -1.0000e+00
       -2 -1    0    0    0  501 -0.0000000000e+00 -0.0000000000e+00 -6.4605867089e+02 6.4605867089e+02 0.0000000000e+00 0.0000e+00 1.0000e+00
      -13  1    1    2    0    0 -6.0576075477e+02 -9.7305061694e+02 +3.9200541729e+02 1.2113801395e+03 0.0000000000e+00 0.0000e+00 1.0000e+00
       13  1    1    2    0    0 +6.0576075477e+02 +9.7305061694e+02 +1.1531518057e+03 1.6258944253e+03 0.0000000000e+00 0.0000e+00 -1.0000e+00
<mgrwt>
<rscale>  0 0.23796252E+04</rscale>
<asrwt>0</asrwt>
<pdfrwt beam="1">  1        2 0.33711013E+00 0.23796252E+04</pdfrwt>
<pdfrwt beam="2">  1       -2 0.99393643E-01 0.23796252E+04</pdfrwt>
<totfact> 0.50030014E+00</totfact>
</mgrwt>
<rwgt>
<wgt id='morphing_basis_vector_1'> +9.9020061e-05 </wgt>
<wgt id='morphing_basis_vector_2'> +6.9261169e-05 </wgt>
<wgt id='morphing_basis_vector_3'> +1.0739166e-04 </wgt>
<wgt id='morphing_basis_vector_4'> +7.1922686e-05 </wgt>
<wgt id='morphing_basis_vector_5'> +1.1854084e-04 </wgt>
</rwgt>
</event>
<event>
 4      1 +2.2016400e-08 2.37653600e+03 7.81860800e-03 7.93252700e-02
        2 -1    0    0  501    0 +0.0000000000e+00 +0.0000000000e+00 +2.8202203170e+03 2.8202203170e+03 0.0000000000e+00 0.0000e+00 1.0000e+00
       -2 -1    0    0    0  501 -0.0000000000e+00 -0.0000000000e+00 -5.0066315773e+02 5.0066315773e+02 0.0000000000e+00 0.0000e+00 -1.0000e+00
      -13  1    1    2    0    0 +4.2827566876e+02 -1.0440491405e+03 +6.3970080387e+02 1.2971799315e+03 0.0000000000e+00 0.0000e+00 -1.0000e+00
       13  1    1    2    0    0 -4.2827566876e+02 +1.0440491405e+03 +1.6798563554e+03 2.0237035433e+03 0.0000000000e+00 0.0000e+00 1.0000e+00
<mgrwt>
<rscale>  0 0.23765356E+04</rscale>
<asrwt>0</asrwt>
<pdfrwt beam="1">  1        2 0.43388004E+00 0.23765356E+04</pdfrwt>
<pdfrwt beam="2">  1       -2 0.77025103E-01 0.23765356E+04</pdfrwt>
<totfact> 0.38018596E+00</totfact>
</mgrwt>
<rwgt>
<wgt id='morphing_basis_vector_1'> +9.8294200e-05 </wgt>
<wgt id='morphing_basis_vector_2'> +6.8255010e-05 </wgt>
<wgt id='morphing_basis_vector_3'> +1.0650257e-04 </wgt>
<wgt id='morphing_basis_vector_4'> +7.1993041e-05 </wgt>
<wgt id='morphing_basis_vector_5'> +1.1795390e-04 </wgt>
</rwgt>
</event>
<event>
 4      1 +2.2016400e-08 2.64335200e+03 7.81860800e-03 7.84916800e-02
        2 -1    0    0  501    0 +0.0000000000e+00 +0.0000000000e+00 +3.8603416197e+03 3.8603416197e+03 0.0000000000e+00 0.0000e+00 -1.0000e+00
       -2 -1    0    0    0  501 -0.0000000000e+00 -0.0000000000e+00 -4.5250593489e+02 4.5250593489e+02 0.0000000000e+00 0.0000e+00 1.0000e+00
      -13  1    1    2    0    0 -5.0411720651e+02 +1.0381228626e+03 +6.5285145867e+02 1.3259141235e+03 0.0000000000e+00 0.0000e+00 1.0000e+00
       13  1    1    2    0    0 +5.0411720651e+02 -1.0381228626e+03 +2.7549842261e+03 2.9869334311e+03 0.0000000000e+00 0.0000e+00 -1.0000e+00
<mgrwt>
<rscale>  0 0.26433520E+04</rscale>
<asrwt>0</asrwt>
<pdfrwt beam="1">  1        2 0.59389869E+00 0.26433520E+04</pdfrwt>
<pdfrwt beam="2">  1       -2 0.69616300E-01 0.26433520E+04</pdfrwt>
<totfact> 0.85063232E-01</totfact>
</mgrwt>
<rwgt>
<wgt id='morphing_basis_vector_1'> +1.4872174e-04 </wgt>
<wgt id='morphing_basis_vector_2'> +1.0157868e-04 </wgt>
<wgt id='morphing_basis_vector_3'> +1.6159305e-04 </wgt>
<wgt id='morphing_basis_vector_4'> +1.1260814e-04 </wgt>
<wgt id='morphing_basis_vector_5'> +1.8166304e-04 </wgt>
</rwgt>
</event>
<event>
 4      1 +2.2016400e-08 2.46213600e+03 7.81860800e-03 7.90461100e-02
        2 -1    0    0  501    0 +0.0000000000e+00 +0.0000000000e+00 +2.9031261957e+03 2.9031261957e+03 0.0000000000e+00 0.0000e+00 -1.0000e+00
       -2 -1    0    0    0  501 -0.0000000000e+00 -0.0000000000e+00 -5.2203307727e+02 5.2203307727e+02 0.0000000000e+00 0.0000e+00 1.0000e+00
      -13  1    1    2    0    0 -4.6844358170e+02 +3.4911485026e+01 -3.9245681976e+02 6.1211155552e+02 0.0000000000e+00 0.0000e+00 1.0000e+00
       13  1    1    2    0    0 +4.6844358170e+02 -3.4911485026e+01 +2.7735499382e+03 2.8130477175e+03 0.0000000000e+00 0.0000e+00 -1.0000e+00
<mgrwt>
<rscale>  0 0.24621356E+04</rscale>
<asrwt>0</asrwt>
<pdfrwt beam="1">  1        2 0.44663479E+00 0.24621356E+04</pdfrwt>
<pdfrwt beam="2">  1       -2 0.80312783E-01 0.24621356E+04</pdfrwt>
<totfact> 0.30427367E+00</totfact>
</mgrwt>
<rwgt>
<wgt id='morphing_basis_vector_1'> +1.1181650e-04 </wgt>
<wgt id='morphing_basis_vector_2'> +7.5020473e-05 </wgt>
<wgt id='morphing_basis_vector_3'> +1.2085768e-04 </wgt>
<wgt id='morphing_basis_vector_4'> +8.5551672e-05 </wgt>
<wgt id='morphing_basis_vector_5'> +1.3635028e-04 </wgt>
</rwgt>
</event>
<event>
 4      1 +2.2016400e-08 2.57573600e+03 7.81860800e-03 7.86930800e-02
        2 -1    0    0  501    0 +0.0000000000e+00 +0.0000000000e+00 +2.1927882809e+03 2.1927882809e+03 0.0000000000e+00 0.0000e+00 -1.0000e+00
       -2 -1    0    0    0  501 -0.0000000000e+00 -0.0000000000e+00 -7.5639022108e+02 7.5639022108e+02 0.0000000000e+00 0.0000e+00 1.0000e+00
      -13  1    1    2    0    0 -6.6687427906e+02 -7.3148526431e+02 -2.2515431399e+02 1.0151287904e+03 0.0000000000e+00 0.0000e+00 1.0000e+00
       13  1    1    2    0    0 +6.6687427906e+02 +7.3148526431e+02 +1.6615523738e+03 1.9340497116e+03 0.0000000000e+00 0.0000e+00 -1.0000e+00
<mgrwt>
<rscale>  0 0.25757357E+04</rscale>
<asrwt>0</asrwt>
<pdfrwt beam="1">  1        2 0.33735204E+00 0.25757357E+04</pdfrwt>
<pdfrwt beam="2">  1       -2 0.11636773E+00 0.25757357E+04</pdfrwt>
<totfact> 0.33169314E+00</totfact>
</mgrwt>
<rwgt>
<wgt id='morphing_basis_vector_1'> +1.3386841e-04 </wgt>
<wgt id='morphing_basis_vector_2'> +9.0514484e-05 </wgt>
<wgt id='morphing_basis_vector_3'> +1.4511612e-04 </wgt>
<wgt id='morphing_basis_vector_4'> +1.0217492e-04 </wgt>
<wgt id='morphing_basis_vector_5'> +1.6364043e-04 </wgt>
</rwgt>
</event>
<event>
 4      1 +2.2016400e-08 2.53693600e+03 7.81860800e-03 7.88115300e-02
        2 -1    0    0  501    0 +0.0000000000e+00 +0.0000000000e+00 +1.3383041593e+03 1.3383041593e+03 0.0000000000e+00 0.0000e+00 -1.0000e+00
       -2 -1    0    0    0  501 -0.0000000000e+00 -0.0000000000e+00 -1.2022759430e+03 1.2022759430e+03 0.0000000000e+00 0.0000e+00 1.0000e+00
      -13  1    1    2    0    0 -9.9374496390e+02 +5.7528839238e+02 +6.0779218239e+02 1.2991909500e+03 0.0000000000e+00 0.0000e+00 1.0000e+00
       13  1    1    2    0    0 +9.9374496390e+02 -5.7528839238e+02 -4.7176396611e+02 1.2413891523e+03 0.0000000000e+00 0.0000e+00 -1.0000e+00
<mgrwt>
<rscale>  0 0.25369359E+04</rscale>
<asrwt>0</asrwt>
<pdfrwt beam="1">  1        2 0.20589295E+00 0.25369359E+04</pdfrwt>
<pdfrwt beam="2">  1       -2 0.18496553E+00 0.25369359E+04</pdfrwt>
<totfact> 0.26865183E+00</totfact>
</mgrwt>
<rwgt>
<wgt id='morphing_basis_vector_1'> +1.4461018e-04 </wgt>
<wgt id='morphing_basis_vector_2'> +1.3988355e-04 </wgt>
<wgt id='morphing_basis_vector_3'> +1.6492724e-04 </wgt>
<wgt id='morphing_basis_vector_4'> +5.8053789e-05 </wgt>
<wgt id='morphing_basis_vector_5'> +1.5080018e-04 </wgt>
</rwgt>
</event>
<event>
 4      1 +2.2016400e-08 2.27171900e+03 7.81860800e-03 7.96840300e-02
        2 -1    0    0  501    0 +0.0000000000e+00 +0.0000000000e+00 +1.1022437796e+03 1.1022437796e+03 0.0000000000e+00 0.0000e+00 -1.0000e+00
       -2 -1    0    0    0  501 -0.0000000000e+00 -0.0000000000e+00 -1.1705003057e+03 1.1705003057e+03 0.0000000000e+00 0.0000e+00 1.0000e+00
      -13  1    1    2    0    0 -6.7174602290e+02 +6.8174123753e+02 -6.4609283011e+02 1.1547509599e+03 0.0000000000e+00 0.0000e+00 1.0000e+00
       13  1    1    2    0    0 +6.7174602290e+02 -6.8174123753e+02 +5.7783630400e+02 1.1179931254e+03 0.0000000000e+00 0.0000e+00 -1.0000e+00
<mgrwt>
<rscale>  0 0.22717189E+04</rscale>
<asrwt>0</asrwt>
<pdfrwt beam="1">  1        2 0.16957597E+00 0.22717189E+04</pdfrwt>
<pdfrwt beam="2">  1       -2 0.18007697E+00 0.22717189E+04</pdfrwt>
<totfact> 0.41067529E+00</totfact>
</mgrwt>
<rwgt>
<wgt id='morphing_basis_vector_1'> +8.1705738e-05 </wgt>
<wgt id='morphing_basis_vector_2'> +5.5329810e-05 </wgt>
<wgt id='morphing_basis_vector_3'> +8.8054939e-05 </wgt>
<wgt id='morphing_basis_vector_4'> +6.1136452e-05 </wgt>
<wgt id='morphing_basis_vector_5'> +9.8313214e-05 </wgt>
</rwgt>
</event>
<event>
 4      1 +2.2016400e-08 2.29742100e+03 7.81860800e-03 7.95942400e-02
        2 -1    0    0  501    0 +0.0000000000e+00 +0.0000000000e+00 +1.4473488451e+03 1.4473488451e+03 0.0000000000e+00 0.0000e+00 -1.0000e+00
       -2 -1    0    0    0  501 -0.0000000000e+00 -0.0000000000e+00 -9.1169173318e+02 9.1169173318e+02 0.0000000000e+00 0.0000e+00 1.0000e+00
      -13  1    1    2    0    0 -1.0094992654e+03 -5.2254013335e+02 +4.3779465504e+02 1.2181137540e+03 0.0000000000e+00 0.0000e+00 1.0000e+00
       13  1    1    2    0    0 +1.0094992654e+03 +5.2254013335e+02 +9.7862456886e+01 1.1409268242e+03 0.0000000000e+00 0.0000e+00 -1.0000e+00
<mgrwt>
<rscale>  0 0.22974211E+04</rscale>
<asrwt>0</asrwt>
<pdfrwt beam="1">  1        2 0.22266905E+00 0.22974211E+04</pdfrwt>
<pdfrwt beam="2">  1       -2 0.14026027E+00 0.22974211E+04</pdfrwt>
<totfact> 0.54099913E+00</totfact>
</mgrwt>
<rwgt>
<wgt id='morphing_basis_vector_1'> +9.0267002e-05 </wgt>
<wgt id='morphing_basis_vector_2'> +7.2216736e-05 </wgt>
<wgt id='morphing_basis_vector_3'> +9.9408363e-05 </wgt>
<wgt id='morphing_basis_vector_4'> +5.4129531e-05 </wgt>
<wgt id='morphing_basis_vector_5'> +1.0211715e-04 </wgt>
</rwgt>
</event>
<event>
 4      1 +2.2016400e-08 2.56398500e+03 7.81860800e-03 7.87287300e-02
        2 -1    0    0  501    0 +0.0000000000e+00 +0.0000000000e+00 +1.3091442537e+03 1.3091442537e+03 0.0000000000e+00 0.0000e+00 1.0000e+00
       -2 -1    0    0    0  501 -0.0000000000e+00 -0.0000000000e+00 -1.2554037450e+03 1.2554037450e+03 0.0000000000e+00 0.0000e+00 -1.0000e+00
      -13  1    1    2    0    0 +2.2282387340e+02 +1.2149857105e+03 -3.1622672135e+02 1.2750843480e+03 0.0000000000e+00 0.0000e+00 -1.0000e+00
       13  1    1    2    0    0 -2.2282387340e+02 -1.2149857105e+03 +3.6996722998e+02 1.2894636507e+03 0.0000000000e+00 0.0000e+00 1.0000e+00
<mgrwt>
<rscale>  0 0.25639849E+04</rscale>
<asrwt>0</asrwt>
<pdfrwt beam="1">  1        2 0.20140681E+00 0.25639849E+04</pdfrwt>
<pdfrwt beam="2">  1       -2 0.19313904E+00 0.25639849E+04</pdfrwt>
<totfact> 0.24202871E+00</totfact>
</mgrwt>
<rwgt>
<wgt id='morphing_basis_vector_1'> +1.3293569e-04 </wgt>
<wgt id='morphing_basis_vector_2'> +9.3200529e-05 </wgt>
<wgt id='morphing_basis_vector_3'> +1.4473164e-04 </wgt>
<wgt id='morphing_basis_vector_4'> +9.7294053e-05 </wgt>
<wgt id='morphing_basis_vector_5'> +1.6039474e-04 </wgt>
</rwgt>
</event>
<event>
 4      1 +2.2016400e-08 2.27105500e+03 7.81860800e-03 7.96863600e-02
        2 -1    0    0  501    0 +0.0000000000e+00 +0.0000000000e+00 +2.0047138309e+03 2.0047138309e+03 0.0000000000e+00 0.0000e+00 -1.0000e+00
       -2 -1    0    0    0  501 -0.0000000000e+00 -0.0000000000e+00 -6.4319546573e+02 6.4319546573e+02 0.0000000000e+00 0.0000e+00 1.0000e+00
      -13  1    1    2    0    0 +2.8372176711e+02 +4.2511873394e+02 -5.0150351976e+02 7.1605150611e+02 0.0000000000e+00 0.0000e+00 1.0000e+00
       13  1    1    2    0    0 -2.8372176711e+02 -4.2511873394e+02 +1.8630218849e+03 1.9318577905e+03 0.0000000000e+00 0.0000e+00 -1.0000e+00
<mgrwt>
<rscale>  0 0.22710551E+04</rscale>
<asrwt>0</asrwt>
<pdfrwt beam="1">  1        2 0.30841751E+00 0.22710551E+04</pdfrwt>
<pdfrwt beam="2">  1       -2 0.98953149E-01 0.22710551E+04</pdfrwt>
<totfact> 0.65126484E+00</totfact>
</mgrwt>
<rwgt>
<wgt id='morphing_basis_vector_1'> +8.1327840e-05 </wgt>
<wgt id='morphing_basis_vector_2'> +5.4426658e-05 </wgt>
<wgt id='morphing_basis_vector_3'> +8.7526403e-05 </wgt>
<wgt id='morphing_basis_vector_4'> +6.1639406e-05 </wgt>
<wgt id='morphing_basis_vector_5'> +9.8242752e-05 </wgt>
</rwgt>
</event>
<event>
 4      1 +2.2016400e-08 2.45934500e+03 7.81860800e-03 7.90550200e-02
        2 -1    0    0  501    0 +0.0000000000e+00 +0.0000000000e+00 +8.1356997467e+02 8.1356997467e+02 0.0000000000e+00 0.0000e+00 1.0000e+00
       -2 -1    0    0    0  501 -0.0000000000e+00 -0.0000000000e+00 -1.8585921575e+03 1.8585921575e+03 0.0000000000e+00 0.0000e+00 -1.0000e+00
      -13  1    1    2    0    0 +4.5249505367e+02 -3.9822161238e+00 -1.7648367135e+03 1.8219265235e+03 0.0000000000e+00 0.0000e+00 -1.0000e+00
       13  1    1    2    0    0 -4.5249505367e+02 +3.9822161238e+00 +7.1981453070e+02 8.5023560867e+02 0.0000000000e+00 0.0000e+00 1.0000e+00
<mgrwt>
<rscale>  0 0.24593453E+04</rscale>
<asrwt>0</asrwt>
<pdfrwt beam="1">  1        2 0.12516461E+00 0.24593453E+04</pdfrwt>
<pdfrwt beam="2">  1       -2 0.28593725E+00 0.24593453E+04</pdfrwt>
<totfact> 0.11017489E+00</totfact>
</mgrwt>
<rwgt>
<wgt id='morphing_basis_vector_1'> +1.1131625e-04 </wgt>
<wgt id='morphing_basis_vector_2'> +7.4679845e-05 </wgt>
<wgt id='morphing_basis_vector_3'> +1.2030977e-04 </wgt>
<wgt id='morphing_basis_vector_4'> +8.5161621e-05 </wgt>
<wgt id='morphing_basis_vector_5'> +1.3572526e-04 </wgt>
</rwgt>
</event>
<event>
 4      1 +2.2016400e-08 2.31902100e+03 7.81860800e-03 7.95197100e-02
        2 -1    0    0  501    0 +0.0000000000e+00 +0.0000000000e+00 +1.2198403137e+03 1.2198403137e+03 0.0000000000e+00 0.0000e+00 1.0000e+00
       -2 -1    0    0    0  501 -0.0000000000e+00 -0.0000000000e+00 -1.1021644902e+03 1.1021644902e+03 0.0000000000e+00 0.0000e+00 -1.0000e+00
      -13  1    1    2    0    0 -5.3505013071e+02 -9.2763106098e+02 +5.0402964428e+02 1.1835640709e+03 0.0000000000e+00 0.0000e+00 -1.0000e+00
       13  1    1    2    0    0 +5.3505013071e+02 +9.2763106098e+02 -3.8635382085e+02 1.1384407330e+03 0.0000000000e+00 0.0000e+00 1.0000e+00
<mgrwt>
<rscale>  0 0.23190211E+04</rscale>
<asrwt>0</asrwt>
<pdfrwt beam="1">  1        2 0.18766774E+00 0.23190211E+04</pdfrwt>
<pdfrwt beam="2">  1       -2 0.16956377E+00 0.23190211E+04</pdfrwt>
<totfact> 0.42004690E+00</totfact>
</mgrwt>
<rwgt>
<wgt id='morphing_basis_vector_1'> +9.9934926e-05 </wgt>
<wgt id='morphing_basis_vector_2'> +9.3490879e-05 </wgt>
<wgt id='morphing_basis_vector_3'> +1.1265954e-04 </wgt>
<wgt id='morphing_basis_vector_4'> +4.3467303e-05 </wgt>
<wgt id='morphing_basis_vector_5'> +1.0504479e-04 </wgt>
</rwgt>
</event>
<event>
 4      1 +2.2016400e-08 2.46577100e+03 7.81860800e-03 7.90345100e-02
        2 -1    0    0  501    0 +0.0000000000e+00 +0.0000000000e+00 +3.0365254821e+03 3.0365254821e+03 0.0000000000e+00 0.0000e+00 -1.0000e+00
       -2 -1    0    0    0  501 -0.0000000000e+00 -0.0000000000e+00 -5.0057415756e+02 5.0057415756e+02 0.0000000000e+00 0.0000e+00 1.0000e+00
      -13  1    1    2    0    0 -1.0747344427e+03 +1.7493984918e+02 +2.0974330095e+03 2.3632357695e+03 0.0000000000e+00 0.0000e+00 -1.0000e+00
       13  1    1    2    0    0 +1.0747344427e+03 -1.7493984918e+02 +4.3851831512e+02 1.1738638702e+03 0.0000000000e+00 0.0000e+00 1.0000e+00
<mgrwt>
<rscale>  0 0.24657706E+04</rscale>
<asrwt>0</asrwt>
<pdfrwt beam="1">  1        2 0.46715776E+00 0.24657706E+04</pdfrwt>
<pdfrwt beam="2">  1       -2 0.77011411E-01 0.24657706E+04</pdfrwt>
<totfact> 0.27412636E+00</totfact>
</mgrwt>
<rwgt>
<wgt id='morphing_basis_vector_1'> +1.3148921e-04 </wgt>
<wgt id='morphing_basis_vector_2'> +1.3159464e-04 </wgt>
<wgt id='morphing_basis_vector_3'> +1.5053332e-04 </wgt>
<wgt id='morphing_basis_vector_4'> +4.7146503e-05 </wgt>
<wgt id='morphing_basis_vector_5'> +1.3401808e-04 </wgt>
</rwgt>
</event>
<event>
 4      1 +2.2016400e-08 2.35808900e+03 7.81860800e-03 7.93870100e-02
        2 -1    0    0  501    0 +0.0000000000e+00 +0.0000000000e+00 +1.9101726204e+03 1.9101726204e+03 0.0000000000e+00 0.0000e+00 -1.0000e+00
       -2 -1    0    0    0  501 -0.0000000000e+00 -0.0000000000e+00 -7.2775902888e+02 7.2775902888e+02 0.0000000000e+00 0.0000e+00 1.0000e+00
      -13  1    1    2    0    0 +6.9708996662e+02 +8.7698055651e+02 +1.8000319479e+02 1.1346499320e+03 0.0000000000e+00 0.0000e+00 1.0000e+00
       13  1    1    2    0    0 -6.9708996662e+02 -8.7698055651e+02 +1.0024103968e+03 1.5032817173e+03 0.0000000000e+00 0.0000e+00 -1.0000e+00
<mgrwt>
<rscale>  0 0.23580885E+04</rscale>
<asrwt>0</asrwt>
<pdfrwt beam="1">  1        2 0.29387271E+00 0.23580885E+04</pdfrwt>
<pdfrwt beam="2">  1       -2 0.11196293E+00 0.23580885E+04</pdfrwt>
<totfact> 0.53868580E+00</totfact>
</mgrwt>
<rwgt>
<wgt id='morphing_basis_vector_1'> +9.5327011e-05 </wgt>
<wgt id='morphing_basis_vector_2'> +6.6192357e-05 </wgt>
<wgt id='morphing_basis_vector_3'> +1.0324572e-04 </wgt>
<wgt id='morphing_basis_vector_4'> +6.9740662e-05 </wgt>
<wgt id='morphing_basis_vector_5'> +1.1428213e-04 </wgt>
</rwgt>
</event>
<event>
 4      1 +2.2016400e-08 2.45195000e+03 7.81860800e-03 7.90787100e-02
        2 -1    0    0  501    0 +0.0000000000e+00 +0.0000000000e+00 +3.4568185541e+03 3.4568185541e+03 0.0000000000e+00 0.0000e+00 1.0000e+00
       -2 -1    0    0    0  501 -0.0000000000e+00 -0.0000000000e+00 -4.3479717153e+02 4.3479717153e+02 0.0000000000e+00 0.0000e+00 -1.0000e+00
      -13  1    1    2    0    0 +7.5464859501e+02 +7.1325532455e+00 -2.2434950858e+01 7.5501569672e+02 0.0000000000e+00 0.0000e+00 -1.0000e+00
       13  1    1    2    0    0 -7.5464859501e+02 -7.1325532455e+00 +3.0444563334e+03 3.1366000289e+03 0.0000000000e+00 0.0000e+00 1.0000e+00
<mgrwt>
<rscale>  0 0.24519502E+04</rscale>
<asrwt>0</asrwt>
<pdfrwt beam="1">  1        2 0.53181822E+00 0.24519502E+04</pdfrwt>
<pdfrwt beam="2">  1       -2 0.66891875E-01 0.24519502E+04</pdfrwt>
<totfact> 0.19168062E+00</totfact>
</mgrwt>
<rwgt>
<wgt id='morphing_basis_vector_1'> +1.1005813e-04 </wgt>
<wgt id='morphing_basis_vector_2'> +7.3958389e-05 </wgt>
<wgt id='morphing_basis_vector_3'> +1.1895723e-04 </wgt>
<wgt id='morphing_basis_vector_4'> +8.4012590e-05 </wgt>
<wgt id='morphing_basis_vector_5'> +1.3406928e-04 </wgt>
</rwgt>
</event>
<event>
 4      1 +2.2016400e-08 2.50152500e+03 7.81860800e-03 7.89215300e-02
        2 -1    0    0  501    0 +0.0000000000e+00 +0.0000000000e+00 +1.9182586098e+03 1.9182586098e+03 0.0000000000e+00 0.0000e+00 -1.0000e+00
       -2 -1    0    0    0  501 -0.0000000000e+00 -0.0000000000e+00 -8.1553498881e+02 8.1553498881e+02 0.0000000000e+00 0.0000e+00 1.0000e+00
      -13  1    1    2    0    0 -7.1594731756e+02 -4.6556318882e+02 +1.5500368758e+03 1.7697299118e+03 0.0000000000e+00 0.0000e+00 -1.0000e+00
       13  1    1    2    0    0 +7.1594731756e+02 +4.6556318882e+02 -4.4731325483e+02 9.6406368682e+02 0.0000000000e+00 0.0000e+00 1.0000e+00
<mgrwt>
<rscale>  0 0.25015251E+04</rscale>
<asrwt>0</asrwt>
<pdfrwt beam="1">  1        2 0.29511671E+00 0.25015251E+04</pdfrwt>
<pdfrwt beam="2">  1       -2 0.12546692E+00 0.25015251E+04</pdfrwt>
<totfact> 0.39232110E+00</totfact>
</mgrwt>
<rwgt>
<wgt id='morphing_basis_vector_1'> +1.5516443e-04 </wgt>
<wgt id='morphing_basis_vector_2'> +1.8648752e-04 </wgt>
<wgt id='morphing_basis_vector_3'> +1.8390179e-04 </wgt>
<wgt id='morphing_basis_vector_4'> +1.7213770e-05 </wgt>
<wgt id='morphing_basis_vector_5'> +1.3940838e-04 </wgt>
</rwgt>
</event>
<event>
 4      1 +2.2016400e-08 2.32493900e+03 7.81860800e-03 7.94994400e-02
        2 -1    0    0  501    0 +0.0000000000e+00 +0.0000000000e+00 +1.4457023334e+03 1.4457023334e+03 0.0000000000e+00 0.0000e+00 -1.0000e+00
       -2 -1    0    0    0  501 -0.0000000000e+00 -0.0000000000e+00 -9.3472588741e+02 9.3472588741e+02 0.0000000000e+00 0.0000e+00 1.0000e+00
      -13  1    1    2    0    0 +3.6697422732e+02 -9.0954661562e+02 -3.8341644951e+02 1.0530685178e+03 0.0000000000e+00 0.0000e+00 1.0000e+00
       13  1    1    2    0    0 -3.6697422732e+02 +9.0954661562e+02 +8.9439289547e+02 1.3273597029e+03 0.0000000000e+00 0.0000e+00 -1.0000e+00
<mgrwt>
<rscale>  0 0.23249390E+04</rscale>
<asrwt>0</asrwt>
<pdfrwt beam="1">  1        2 0.22241574E+00 0.23249390E+04</pdfrwt>
<pdfrwt beam="2">  1       -2 0.14380398E+00 0.23249390E+04</pdfrwt>
<totfact> 0.50458575E+00</totfact>
</mgrwt>
<rwgt>
<wgt id='morphing_basis_vector_1'> +8.9511263e-05 </wgt>
<wgt id='morphing_basis_vector_2'> +6.0672488e-05 </wgt>
<wgt id='morphing_basis_vector_3'> +9.6596417e-05 </wgt>
<wgt id='morphing_basis_vector_4'> +6.7155020e-05 </wgt>
<wgt id='morphing_basis_vector_5'> +1.0800612e-04 </wgt>
</rwgt>
</event>
<event>
 4      1 +2.2016400e-08 2.27345200e+03 7.81860800e-03 7.96779300e-02
        2 -1    0    0  501    0 +0.0000000000e+00 +0.0000000000e+00 +1.9966848363e+03 1.9966848363e+03 0.0000000000e+00 0.0000e+00 -1.0000e+00
       -2 -1    0    0    0  501 -0.0000000000e+00 -0.0000000000e+00 -6.4714580941e+02 6.4714580941e+02 0.0000000000e+00 0.0000e+00 1.0000e+00
      -13  1    1    2    0    0 -7.2535317752e+02 -1.8158199710e+02 -3.2088976358e+02 8.1368267413e+02 0.0000000000e+00 0.0000e+00 1.0000e+00
       13  1    1    2    0    0 +7.2535317752e+02 +1.8158199710e+02 +1.6704287905e+03 1.8301479716e+03 0.0000000000e+00 0.0000e+00 -1.0000e+00
<mgrwt>
<rscale>  0 0.22734522E+04</rscale>
<asrwt>0</asrwt>
<pdfrwt beam="1">  1        2 0.30718228E+00 0.22734522E+04</pdfrwt>
<pdfrwt beam="2">  1       -2 0.99560895E-01 0.22734522E+04</pdfrwt>
<totfact> 0.64832432E+00</totfact>
</mgrwt>
<rwgt>
<wgt id='morphing_basis_vector_1'> +8.1721366e-05 </wgt>
<wgt id='morphing_basis_vector_2'> +5.4817919e-05 </wgt>
<wgt id='morphing_basis_vector_3'> +8.7978600e-05 </wgt>
<wgt id='morphing_basis_vector_4'> +6.1792441e-05 </wgt>
<wgt id='morphing_basis_vector_5'> +9.8655706e-05 </wgt>
</rwgt>
</event>
<event>
 4      1 +2.2016400e-08 2.25769900e+03 7.81860800e-03 7.97335200e-02
        2 -1    0    0  501    0 +0.0000000000e+00 +0.0000000000e+00 +1.4020735848e+03 1.4020735848e+03 0.0000000000e+00 0.0000e+00 1.0000e+00
       -2 -1    0    0    0  501 -0.0000000000e+00 -0.0000000000e+00 -9.0886883045e+02 9.0886883045e+02 0.0000000000e+00 0.0000e+00 -1.0000e+00
      -13  1    1    2    0    0 -6.4506889821e+02 +8.4691775930e+02 -1.3764015691e+02 1.0734655967e+03 0.0000000000e+00 0.0000e+00 -1.0000e+00
       13  1    1    2    0    0 +6.4506889821e+02 -8.4691775930e+02 +6.3084491128e+02 1.2374768186e+03 0.0000000000e+00 0.0000e+00 1.0000e+00
<mgrwt>
<rscale>  0 0.22576988E+04</rscale>
<asrwt>0</asrwt>
<pdfrwt beam="1">  1        2 0.21570363E+00 0.22576988E+04</pdfrwt>
<pdfrwt beam="2">  1       -2 0.13982597E+00 0.22576988E+04</pdfrwt>
<totfact> 0.58068018E+00</totfact>
</mgrwt>
<rwgt>
<wgt id='morphing_basis_vector_1'> +8.0239388e-05 </wgt>
<wgt id='morphing_basis_vector_2'> +5.5465418e-05 </wgt>
<wgt id='morphing_basis_vector_3'> +8.6653648e-05 </wgt>
<wgt id='morphing_basis_vector_4'> +5.8604500e-05 </wgt>
<wgt id='morphing_basis_vector_5'> +9.5790137e-05 </wgt>
</rwgt>
</event>
<event>
 4      1 +2.2016400e-08 2.34747600e+03 7.81860800e-03 7.94227900e-02
        2 -1    0    0  501    0 +0.0000000000e+00 +0.0000000000e+00 +1.9765437324e+03 1.9765437324e+03 0.0000000000e+00 0.0000e+00 1.0000e+00
       -2 -1    0    0    0  501 -0.0000000000e+00 -0.0000000000e+00 -6.9700481464e+02 6.9700481464e+02 0.0000000000e+00 0.0000e+00 -1.0000e+00
      -13  1    1    2    0    0 +9.1549529814e+02 +5.2752361140e+02 +1.2218903838e+03 1.6153726851e+03 0.0000000000e+00 0.0000e+00 1.0000e+00
       13  1    1    2    0    0 -9.1549529814e+02 -5.2752361140e+02 +5.7648533950e+01 1.0581758620e+03 0.0000000000e+00 0.0000e+00 -1.0000e+00
<mgrwt>
<rscale>  0 0.23474757E+04</rscale>
<asrwt>0</asrwt>
<pdfrwt beam="1">  1        2 0.30408365E+00 0.23474757E+04</pdfrwt>
<pdfrwt beam="2">  1       -2 0.10723151E+00 0.23474757E+04</pdfrwt>
<totfact> 0.55135422E+00</totfact>
</mgrwt>
<rwgt>
<wgt id='morphing_basis_vector_1'> +1.0688539e-04 </wgt>
<wgt id='morphing_basis_vector_2'> +1.0411134e-04 </wgt>
<wgt id='morphing_basis_vector_3'> +1.2138065e-04 </wgt>
<wgt id='morphing_basis_vector_4'> +4.1538457e-05 </wgt>
<wgt id='morphing_basis_vector_5'> +1.1003991e-04 </wgt>
</rwgt>
</event>
<event>
 4      1 +2.2016400e-08 2.33086500e+03 7.81860800e-03 7.94792000e-02
        2 -1    0    0  501    0 +0.0000000000e+00 +0.0000000000e+00 +2.3143211927e+03 2.3143211927e+03 0.0000000000e+00 0.0000e+00 -1.0000e+00
       -2 -1    0    0    0  501 -0.0000000000e+00 -0.0000000000e+00 -5.8688181196e+02 5.8688181196e+02 0.0000000000e+00 0.0000e+00 1.0000e+00
      -13  1    1    2    0    0 -5.3346497222e+02 -1.4044187325e+01 -4.2587154728e+02 6.8275082612e+02 0.0000000000e+00 0.0000e+00 1.0000e+00
       13  1    1    2    0    0 +5.3346497222e+02 +1.4044187325e+01 +2.1533109280e+03 2.2184521785e+03 0.0000000000e+00 0.0000e+00 -1.0000e+00
<mgrwt>
<rscale>  0 0.23308651E+04</rscale>
<asrwt>0</asrwt>
<pdfrwt beam="1">  1        2 0.35604941E+00 0.23308651E+04</pdfrwt>
<pdfrwt beam="2">  1       -2 0.90289511E-01 0.23308651E+04</pdfrwt>
<totfact> 0.53548800E+00</totfact>
</mgrwt>
<rwgt>
<wgt id='morphing_basis_vector_1'> +9.0096715e-05 </wgt>
<wgt id='morphing_basis_vector_2'> +6.0353613e-05 </wgt>
<wgt id='morphing_basis_vector_3'> +9.7106447e-05 </wgt>
<wgt id='morphing_basis_vector_4'> +6.8496476e-05 </wgt>
<wgt id='morphing_basis_vector_5'> +1.0917981e-04 </wgt>
</rwgt>
</event>
<event>
 4      1 +2.2016400e-08 2.28036100e+03 7.81860800e-03 7.96537000e-02
        2 -1    0    0  501    0 +0.0000000000e+00 +0.0000000000e+00 +3.5136114933e+03 3.5136114933e+03 0.0000000000e+00 0.0000e+00 -1.0000e+00
       -2 -1    0    0    0  501 -0.0000000000e+00 -0.0000000000e+00 -3.6999290292e+02 3.6999290292e+02 0.0000000000e+00 0.0000e+00 1.0000e+00
      -13  1    1    2    0    0 -6.2339715572e+02 +1.0588877952e+02 -4.4017716936e+01 6.3385645599e+02 0.0000000000e+00 0.0000e+00 1.0000e+00
       13  1    1    2    0    0 +6.2339715572e+02 -1.0588877952e+02 +3.1876363073e+03 3.2497479402e+03 0.0000000000e+00 0.0000e+00 -1.0000e+00
<mgrwt>
<rscale>  0 0.22803608E+04</rscale>
<asrwt>0</asrwt>
<pdfrwt beam="1">  1        2 0.54055559E+00 0.22803608E+04</pdfrwt>
<pdfrwt beam="2">  1       -2 0.56921987E-01 0.22803608E+04</pdfrwt>
<totfact> 0.24738588E+00</totfact>
</mgrwt>
<rwgt>
<wgt id='morphing_basis_vector_1'> +8.2665276e-05 </wgt>
<wgt id='morphing_basis_vector_2'> +5.5369883e-05 </wgt>
<wgt id='morphing_basis_vector_3'> +8.8994158e-05 </wgt>
<wgt id='morphing_basis_vector_4'> +6.2635935e-05 </wgt>
<wgt id='morphing_basis_vector_5'> +9.9885354e-05 </wgt>
</rwgt>
</event>
<event>
 4      1 +2.2016400e-08 2.26576200e+03 7.81860800e-03 7.97050100e-02
        2 -1    0    0  501    0 +0.0000000000e+00 +0.0000000000e+00 +1.8602468711e+03 1.8602468711e+03 0.0000000000e+00 0.0000e+00 -1.0000e+00
       -2 -1    0    0    0  501 -0.0000000000e+00 -0.0000000000e+00 -6.8991888327e+02 6.8991888327e+02 0.0000000000e+00 0.0000e+00 1.0000e+00
      -13  1    1    2    0    0 +9.9453551391e+02 -1.4131603534e+01 -2.5237430591e+01 9.9495603850e+02 0.0000000000e+00 0.0000e+00 1.0000e+00
       13  1    1    2    0    0 -9.9453551391e+02 +1.4131603534e+01 +1.1955654184e+03 1.5552097159e+03 0.0000000000e+00 0.0000e+00 -1.0000e+00
<mgrwt>
<rscale>  0 0.22657621E+04</rscale>
<asrwt>0</asrwt>
<pdfrwt beam="1">  1        2 0.28619182E+00 0.22657621E+04</pdfrwt>
<pdfrwt beam="2">  1       -2 0.10614137E+00 0.22657621E+04</pdfrwt>
<totfact> 0.66165467E+00</totfact>
</mgrwt>
<rwgt>
<wgt id='morphing_basis_vector_1'> +8.0975272e-05 </wgt>
<wgt id='morphing_basis_vector_2'> +5.5079937e-05 </wgt>
<wgt id='morphing_basis_vector_3'> +8.7300496e-05 </wgt>
<wgt id='morphing_basis_vector_4'> +6.0265744e-05 </wgt>
<wgt id='morphing_basis_vector_5'> +9.7252330e-05 </wgt>
</rwgt>
</event>
<event>
 4      1 +2.2016400e-08 2.28485500e+03 7.81860800e-03 7.96379800e-02
        2 -1    0    0  501    0 +0.0000000000e+00 +0.0000000000e+00 +2.2645921946e+03 2.2645921946e+03 0.0000000000e+00 0.0000e+00 -1.0000e+00
       -2 -1    0    0    0  501 -0.0000000000e+00 -0.0000000000e+00 -5.7632493328e+02 5.7632493328e+02 0.0000000000e+00 0.0000e+00 1.0000e+00
      -13  1    1    2    0    0 +1.6849475611e+02 -1.1262650657e+03 +9.5725600732e+02 1.4876836171e+03 0.0000000000e+00 0.0000e+00 1.0000e+00
       13  1    1    2    0    0 -1.6849475611e+02 +1.1262650657e+03 +7.3101125398e+02 1.3532335107e+03 0.0000000000e+00 0.0000e+00 -1.0000e+00
<mgrwt>
<rscale>  0 0.22848553E+04</rscale>
<asrwt>0</asrwt>
<pdfrwt beam="1">  1        2 0.34839879E+00 0.22848553E+04</pdfrwt>
<pdfrwt beam="2">  1       -2 0.88665376E-01 0.22848553E+04</pdfrwt>
<totfact> 0.59937599E+00</totfact>
</mgrwt>
<rwgt>
<wgt id='morphing_basis_vector_1'> +8.7327913e-05 </wgt>
<wgt id='morphing_basis_vector_2'> +6.7678923e-05 </wgt>
<wgt id='morphing_basis_vector_3'> +9.5731155e-05 </wgt>
<wgt id='morphing_basis_vector_4'> +5.4987022e-05 </wgt>
<wgt id='morphing_basis_vector_5'> +1.0003283e-04 </wgt>
</rwgt>
</event>
<event>
 4      1 +2.2016400e-08 2.43568500e+03 7.81860800e-03 7.91311100e-02
        2 -1    0    0  501    0 +0.0000000000e+00 +0.0000000000e+00 +9.9133080048e+02 9.9133080048e+02 0.0000000000e+00 0.0000e+00 -1.0000e+00
       -2 -1    0    0    0  501 -0.0000000000e+00 -0.0000000000e+00 -1.4961105807e+03 1.4961105807e+03 0.0000000000e+00 0.0000e+00 1.0000e+00
      -13  1    1    2    0    0 -2.5555275749e+02 -4.0364951577e+02 +8.9163726589e+02 1.0115617417e+03 0.0000000000e+00 0.0000e+00 -1.0000e+00
       13  1    1    2    0    0 +2.5555275749e+02 +4.0364951577e+02 -1.3964170461e+03 1.4758796394e+03 0.0000000000e+00 0.0000e+00 1.0000e+00
<mgrwt>
<rscale>  0 0.24356851E+04</rscale>
<asrwt>0</asrwt>
<pdfrwt beam="1">  1        2 0.15251243E+00 0.24356851E+04</pdfrwt>
<pdfrwt beam="2">  1       -2 0.23017086E+00 0.24356851E+04</pdfrwt>
<totfact> 0.20470014E+00</totfact>
</mgrwt>
<rwgt>
<wgt id='morphing_basis_vector_1'> +1.4620737e-04 </wgt>
<wgt id='morphing_basis_vector_2'> +1.8714903e-04 </wgt>
<wgt id='morphing_basis_vector_3'> +1.7509639e-04 </wgt>
<wgt id='morphing_basis_vector_4'> +2.0787622e-06 </wgt>
<wgt id='morphing_basis_vector_5'> +1.2405771e-04 </wgt>
</rwgt>
</event>
<event>
 4      1 +2.2016400e-08 2.57910400e+03 7.81860800e-03 7.86829000e-02
        2 -1    0    0  501    0 +0.0000000000e+00 +0.0000000000e+00 +1.2353644256e+03 1.2353644256e+03 0.0000000000e+00 0.0000e+00 1.0000e+00
       -2 -1    0    0    0  501 -0.0000000000e+00 -0.0000000000e+00 -1.3461167084e+03 1.3461167084e+03 0.0000000000e+00 0.0000e+00 -1.0000e+00
      -13  1    1    2    0    0 -8.6233450199e+02 -8.5965634629e+02 -4.8040246162e+02 1.3089753062e+03 0.0000000000e+00 0.0000e+00 -1.0000e+00
       13  1    1    2    0    0 +8.6233450199e+02 +8.5965634629e+02 +3.6965017879e+02 1.2725058278e+03 0.0000000000e+00 0.0000e+00 1.0000e+00
<mgrwt>
<rscale>  0 0.25791043E+04</rscale>
<asrwt>0</asrwt>
<pdfrwt beam="1">  1        2 0.19005607E+00 0.25791043E+04</pdfrwt>
<pdfrwt beam="2">  1       -2 0.20709488E+00 0.25791043E+04</pdfrwt>
<totfact> 0.21077647E+00</totfact>
</mgrwt>
<rwgt>
<wgt id='morphing_basis_vector_1'> +1.3565300e-04 </wgt>
<wgt id='morphing_basis_vector_2'> +9.4206196e-05 </wgt>
<wgt id='morphing_basis_vector_3'> +1.4755039e-04 </wgt>
<wgt id='morphing_basis_vector_4'> +1.0047291e-04 </wgt>
<wgt id='morphing_basis_vector_5'> +1.6432614e-04 </wgt>
</rwgt>
</event>
<event>
 4      1 +2.2016400e-08 2.37548500e+03 7.81860800e-03 7.93287700e-02
        2 -1    0    0  501    0 +0.0000000000e+00 +0.0000000000e+00 +1.6605162062e+03 1.6605162062e+03 0.0000000000e+00 0.0000e+00 -1.0000e+00
       -2 -1    0    0    0  501 -0.0000000000e+00 -0.0000000000e+00 -8.4957468614e+02 8.4957468614e+02 0.0000000000e+00 0.0000e+00 1.0000e+00
      -13  1    1    2    0    0 +2.6966982079e+02 -8.1637386992e+02 -4.6044269054e+02 9.7529256072e+02 0.0000000000e+00 0.0000e+00 1.0000e+00
       13  1    1    2    0    0 -2.6966982079e+02 +8.1637386992e+02 +1.2713842106e+03 1.5347983316e+03 0.0000000000e+00 0.0000e+00 -1.0000e+00
<mgrwt>
<rscale>  0 0.23754852E+04</rscale>
<asrwt>0</asrwt>
<pdfrwt beam="1">  1        2 0.25546403E+00 0.23754852E+04</pdfrwt>
<pdfrwt beam="2">  1       -2 0.13070380E+00 0.23754852E+04</pdfrwt>
<totfact> 0.49543008E+00</totfact>
</mgrwt>
<rwgt>
<wgt id='morphing_basis_vector_1'> +9.7206988e-05 </wgt>
<wgt id='morphing_basis_vector_2'> +6.5430375e-05 </wgt>
<wgt id='morphing_basis_vector_3'> +1.0492890e-04 </wgt>
<wgt id='morphing_basis_vector_4'> +7.3730715e-05 </wgt>
<wgt id='morphing_basis_vector_5'> +1.1789307e-04 </wgt>
</rwgt>
</event>
<event>
 4      1 +2.2016400e-08 2.38579300e+03 7.81860800e-03 7.92945000e-02
        2 -1    0    0  501    0 +0.0000000000e+00 +0.0000000000e+00 +1.2773188593e+03 1.2773188593e+03 0.0000000000e+00 0.0000e+00 -1.0000e+00
       -2 -1    0    0    0  501 -0.0000000000e+00 -0.0000000000e+00 -1.1140534621e+03 1.1140534621e+03 0.0000000000e+00 0.0000e+00 1.0000e+00
      -13  1    1    2    0    0 -7.5901704824e+02 -5.2436861821e+02 -6.7639798751e+02 1.1439333743e+03 0.0000000000e+00 0.0000e+00 1.0000e+00
       13  1    1    2    0    0 +7.5901704824e+02 +5.2436861821e+02 +8.3966338468e+02 1.2474389471e+03 0.0000000000e+00 0.0000e+00 -1.0000e+00
<mgrwt>
<rscale>  0 0.23857925E+04</rscale>
<asrwt>0</asrwt>
<pdfrwt beam="1">  1        2 0.19651059E+00 0.23857925E+04</pdfrwt>
<pdfrwt beam="2">  1       -2 0.17139284E+00 0.23857925E+04</pdfrwt>
<totfact> 0.37441391E+00</totfact>
</mgrwt>
<rwgt>
<wgt id='morphing_basis_vector_1'> +9.8946332e-05 </wgt>
<wgt id='morphing_basis_vector_2'> +6.6760676e-05 </wgt>
<wgt id='morphing_basis_vector_3'> +1.0685951e-04 </wgt>
<wgt id='morphing_basis_vector_4'> +7.4902522e-05 </wgt>
<wgt id='morphing_basis_vector_5'> +1.1997115e-04 </wgt>
</rwgt>
</event>
<event>
 4      1 +2.2016400e-08 2.33254800e+03 7.81860800e-03 7.94734600e-02
        2 -1    0    0  501    0 +0.0000000000e+00 +0.0000000000e+00 +2.8586541892e+03 2.8586541892e+03 0.0000000000e+00 0.0000e+00 1.0000e+00
       -2 -1    0    0    0  501 -0.0000000000e+00 -0.0000000000e+00 -4.7581643566e+02 4.7581643566e+02 0.0000000000e+00 0.0000e+00 -1.0000e+00
      -13  1    1    2    0    0 -3.6905265535e+01 +9.4984841731e+02 +2.1574122234e+03 2.3575414134e+03 0.0000000000e+00 0.0000e+00 -1.0000e+00
       13  1    1    2    0    0 +3.6905265535e+01 -9.4984841731e+02 +2.2542553016e+02 9.7692921143e+02 0.0000000000e+00 0.0000e+00 1.0000e+00
<mgrwt>
<rscale>  0 0.23325477E+04</rscale>
<asrwt>0</asrwt>
<pdfrwt beam="1">  1        2 0.43979294E+00 0.23325477E+04</pdfrwt>
<pdfrwt beam="2">  1       -2 0.73202530E-01 0.23325477E+04</pdfrwt>
<totfact> 0.40386439E+00</totfact>
</mgrwt>
<rwgt>
<wgt id='morphing_basis_vector_1'> +1.1066721e-04 </wgt>
<wgt id='morphing_basis_vector_2'> +1.2052341e-04 </wgt>
<wgt id='morphing_basis_vector_3'> +1.2800869e-04 </wgt>
<wgt id='morphing_basis_vector_4'> +2.7392685e-05 </wgt>
<wgt id='morphing_basis_vector_5'> +1.0617583e-04 </wgt>
</rwgt>
</event>
<event>
 4      1 +2.2016400e-08 2.43491000e+03 7.81860800e-03 7.91336200e-02
        2 -1    0    0  501    0 +0.0000000000e+00 +0.0000000000e+00 +2.0962551015e+03 2.0962551015e+03 0.0000000000e+00 0.0000e+00 1.0000e+00
       -2 -1    0    0    0  501 -0.0000000000e+00 -0.0000000000e+00 -7.0706870540e+02 7.0706870540e+02 0.0000000000e+00 0.0000e+00 -1.0000e+00
      -13  1    1    2    0    0 -5.8364992581e+02 -1.0620319828e+02 -5.2940703508e+02 7.9510890073e+02 0.0000000000e+00 0.0000e+00 -1.0000e+00
       13  1    1    2    0    0 +5.8364992581e+02 +1.0620319828e+02 +1.9185934312e+03 2.0082149062e+03 0.0000000000e+00 0.0000e+00 1.0000e+00
<mgrwt>
<rscale>  0 0.24349098E+04</rscale>
<asrwt>0</asrwt>
<pdfrwt beam="1">  1        2 0.32250078E+00 0.24349098E+04</pdfrwt>
<pdfrwt beam="2">  1       -2 0.10877980E+00 0.24349098E+04</pdfrwt>
<totfact> 0.45195216E+00</totfact>
</mgrwt>
<rwgt>
<wgt id='morphing_basis_vector_1'> +1.0702990e-04 </wgt>
<wgt id='morphing_basis_vector_2'> +7.1813561e-05 </wgt>
<wgt id='morphing_basis_vector_3'> +1.1562550e-04 </wgt>
<wgt id='morphing_basis_vector_4'> +8.1755749e-05 </wgt>
<wgt id='morphing_basis_vector_5'> +1.3033898e-04 </wgt>
</rwgt>
</event>
<event>
 4      1 +2.2016400e-08 2.37343600e+03 7.81860800e-03 7.93356000e-02
        2 -1    0    0  501    0 +0.0000000000e+00 +0.0000000000e+00 +1.3927568139e+03 1.3927568139e+03 0.0000000000e+00 0.0000e+00 1.0000e+00
       -2 -1    0    0    0  501 -0.0000000000e+00 -0.0000000000e+00 -1.0111594426e+03 1.0111594426e+03 0.0000000000e+00 0.0000e+00 -1.0000e+00
      -13  1    1    2    0    0 +4.6652651647e+02 +8.8517752062e+02 -4.5544950651e+02 1.0993727696e+03 0.0000000000e+00 0.0000e+00 -1.0000e+00
       13  1    1    2    0    0 -4.6652651647e+02 -8.8517752062e+02 +8.3704687782e+02 1.3045434869e+03 0.0000000000e+00 0.0000e+00 1.0000e+00
<mgrwt>
<rscale>  0 0.23734357E+04</rscale>
<asrwt>0</asrwt>
<pdfrwt beam="1">  1        2 0.21427028E+00 0.23734357E+04</pdfrwt>
<pdfrwt beam="2">  1       -2 0.15556299E+00 0.23734357E+04</pdfrwt>
<totfact> 0.43013643E+00</totfact>
</mgrwt>
<rwgt>
<wgt id='morphing_basis_vector_1'> +9.7097045e-05 </wgt>
<wgt id='morphing_basis_vector_2'> +6.5856651e-05 </wgt>
<wgt id='morphing_basis_vector_3'> +1.0490078e-04 </wgt>
<wgt id='morphing_basis_vector_4'> +7.3024254e-05 </wgt>
<wgt id='morphing_basis_vector_5'> +1.1744476e-04 </wgt>
</rwgt>
</event>
<event>
 4      1 +2.2016400e-08 2.25327900e+03 7.81860800e-03 7.97492000e-02
        2 -1    0    0  501    0 +0.0000000000e+00 +0.0000000000e+00 +3.3325887832e+03 3.3325887832e+03 0.0000000000e+00 0.0000e+00 1.0000e+00
       -2 -1    0    0    0  501 -0.0000000000e+00 -0.0000000000e+00 -3.8088017785e+02 3.8088017785e+02 0.0000000000e+00 0.0000e+00 -1.0000e+00
      -13  1    1    2    0    0 -2.9283703738e+02 -1.0878539189e+03 +1.4565414676e+03 1.8413833730e+03 0.0000000000e+00 0.0000e+00 1.0000e+00
       13  1    1    2    0    0 +2.9283703738e+02 +1.0878539189e+03 +1.4951671377e+03 1.8720855880e+03 0.0000000000e+00 0.0000e+00 -1.0000e+00
<mgrwt>
<rscale>  0 0.22532794E+04</rscale>
<asrwt>0</asrwt>
<pdfrwt beam="1">  1        2 0.51270595E+00 0.22532794E+04</pdfrwt>
<pdfrwt beam="2">  1       -2 0.58596953E-01 0.22532794E+04</pdfrwt>
<totfact> 0.31485626E+00</totfact>
</mgrwt>
<rwgt>
<wgt id='morphing_basis_vector_1'> +8.1621663e-05 </wgt>
<wgt id='morphing_basis_vector_2'> +6.0941657e-05 </wgt>
<wgt id='morphing_basis_vector_3'> +8.8969985e-05 </wgt>
<wgt id='morphing_basis_vector_4'> +5.4093374e-05 </wgt>
<wgt id='morphing_basis_vector_5'> +9.4706160e-05 </wgt>
</rwgt>
</event>
<event>
 4      1 +2.2016400e-08 2.46371800e+03 7.81860800e-03 7.90410500e-02
        2 -1    0    0  501    0 +0.0000000000e+00 +0.0000000000e+00 +5.5535850299e+02 5.5535850299e+02 0.0000000000e+00 0.0000e+00 -1.0000e+00
       -2 -1    0    0    0  501 -0.0000000000e+00 -0.0000000000e+00 -2.7324272697e+03 2.7324272697e+03 0.0000000000e+00 0.0000e+00 1.0000e+00
      -13  1    1    2    0    0 +3.7752856530e+02 +2.3214285395e+02 -2.6223513534e+03 2.6595384455e+03 0.0000000000e+00 0.0000e+00 1.0000e+00
       13  1    1    2    0    0 -3.7752856530e+02 -2.3214285395e+02 +4.4528258664e+02 6.2824732727e+02 0.0000000000e+00 0.0000e+00 -1.0000e+00
<mgrwt>
<rscale>  0 0.24637181E+04</rscale>
<asrwt>0</asrwt>
<pdfrwt beam="1">  1        2 0.85439771E-01 0.24637181E+04</pdfrwt>
<pdfrwt beam="2">  1       -2 0.42037342E+00 0.24637181E+04</pdfrwt>
<totfact> 0.22908088E-01</totfact>
</mgrwt>
<rwgt>
<wgt id='morphing_basis_vector_1'> +1.1209882e-04 </wgt>
<wgt id='morphing_basis_vector_2'> +7.5207816e-05 </wgt>
<wgt id='morphing_basis_vector_3'> +1.2116598e-04 </wgt>
<wgt id='morphing_basis_vector_4'> +8.5777890e-05 </wgt>
<wgt id='morphing_basis_vector_5'> +1.3670607e-04 </wgt>
</rwgt>
</event>
<event>
 4      1 +2.2016400e-08 2.26482200e+03 7.81860800e-03 7.97083300e-02
        2 -1    0    0  501    0 +0.0000000000e+00 +0.0000000000e+00 +2.3391603767e+03 2.3391603767e+03 0.0000000000e+00 0.0000e+00 1.0000e+00
       -2 -1    0    0    0  501 -0.0000000000e+00 -0.0000000000e+00 -5.4821133629e+02 5.4821133629e+02 0.0000000000e+00 0.0000e+00 -1.0000e+00
      -13  1    1    2    0    0 -9.3139176650e+02 -1.9095828271e+02 +1.6797044750e+03 1.9301198957e+03 0.0000000000e+00 0.0000e+00 1.0000e+00
       13  1    1    2    0    0 +9.3139176650e+02 +1.9095828271e+02 +1.1124456545e+02 9.5725181733e+02 0.0000000000e+00 0.0000e+00 -1.0000e+00
<mgrwt>
<rscale>  0 0.22648216E+04</rscale>
<asrwt>0</asrwt>
<pdfrwt beam="1">  1        2 0.35987082E+00 0.22648216E+04</pdfrwt>
<pdfrwt beam="2">  1       -2 0.84340207E-01 0.22648216E+04</pdfrwt>
<totfact> 0.61028529E+00</totfact>
</mgrwt>
<rwgt>
<wgt id='morphing_basis_vector_1'> +9.7007022e-05 </wgt>
<wgt id='morphing_basis_vector_2'> +1.0274906e-04 </wgt>
<wgt id='morphing_basis_vector_3'> +1.1138014e-04 </wgt>
<wgt id='morphing_basis_vector_4'> +2.7417437e-05 </wgt>
<wgt id='morphing_basis_vector_5'> +9.4461585e-05 </wgt>
</rwgt>
</event>
<event>
 4      1 +2.2016400e-08 2.51660700e+03 7.81860800e-03 7.88744500e-02
        2 -1    0    0  501    0 +0.0000000000e+00 +0.0000000000e+00 +6.6851522808e+02 6.6851522808e+02 0.0000000000e+00 0.0000e+00 -1.0000e+00
       -2 -1    0    0    0  501 -0.0000000000e+00 -0.0000000000e+00 -2.3684242193e+03 2.3684242193e+03 0.0000000000e+00 0.0000e+00 1.0000e+00
      -13  1    1    2    0    0 +1.0854882704e+03 +3.2746975857e+02 -1.5085030076e+03 1.8870883794e+03 0.0000000000e+00 0.0000e+00 1.0000e+00
       13  1    1    2    0    0 -1.0854882704e+03 -3.2746975857e+02 -1.9140598364e+02 1.1498510680e+03 0.0000000000e+00 0.0000e+00 -1.0000e+00
<mgrwt>
<rscale>  0 0.25166070E+04</rscale>
<asrwt>0</asrwt>
<pdfrwt beam="1">  1        2 0.10284850E+00 0.25166070E+04</pdfrwt>
<pdfrwt beam="2">  1       -2 0.36437296E+00 0.25166070E+04</pdfrwt>
<totfact> 0.42323908E-01</totfact>
</mgrwt>
<rwgt>
<wgt id='morphing_basis_vector_1'> +1.2265808e-04 </wgt>
<wgt id='morphing_basis_vector_2'> +8.4067332e-05 </wgt>
<wgt id='morphing_basis_vector_3'> +1.3305247e-04 </wgt>
<wgt id='morphing_basis_vector_4'> +9.1935263e-05 </wgt>
<wgt id='morphing_basis_vector_5'> +1.4886604e-04 </wgt>
</rwgt>
</event>
<event>
 4      1 +2.2016400e-08 2.23618900e+03 7.81860800e-03 7.98101900e-02
        2 -1    0    0  501    0 +0.0000000000e+00 +0.0000000000e+00 +2.2035102624e+03 2.2035102624e+03 0.0000000000e+00 0.0000e+00 -1.0000e+00
       -2 -1    0    0    0  501 -0.0000000000e+00 -0.0000000000e+00 -5.6733825345e+02 5.6733825345e+02 0.0000000000e+00 0.0000e+00 1.0000e+00
      -13  1    1    2    0    0 -7.2796922787e+02 +7.9727380823e+02 +4.5778668677e+02 1.1726693364e+03 0.0000000000e+00 0.0000e+00 1.0000e+00
       13  1    1    2    0    0 +7.2796922787e+02 -7.9727380823e+02 +1.1783853222e+03 1.5981791794e+03 0.0000000000e+00 0.0000e+00 -1.0000e+00
<mgrwt>
<rscale>  0 0.22361893E+04</rscale>
<asrwt>0</asrwt>
<pdfrwt beam="1">  1        2 0.33900157E+00 0.22361893E+04</pdfrwt>
<pdfrwt beam="2">  1       -2 0.87282809E-01 0.22361893E+04</pdfrwt>
<totfact> 0.67693339E+00</totfact>
</mgrwt>
<rwgt>
<wgt id='morphing_basis_vector_1'> +7.7546360e-05 </wgt>
<wgt id='morphing_basis_vector_2'> +5.4205712e-05 </wgt>
<wgt id='morphing_basis_vector_3'> +8.3810130e-05 </wgt>
<wgt id='morphing_basis_vector_4'> +5.5815769e-05 </wgt>
<wgt id='morphing_basis_vector_5'> +9.2091182e-05 </wgt>
</rwgt>
</event>
<event>
 4      1 +2.2016400e-08 2.38194600e+03 7.81860800e-03 7.93072700e-02
        2 -1    0    0  501    0 +0.0000000000e+00 +0.0000000000e+00 +4.1660479633e+03 4.1660479633e+03 0.0000000000e+00 0.0000e+00 -1.0000e+00
       -2 -1    0    0    0  501 -0.0000000000e+00 -0.0000000000e+00 -3.4047049063e+02 3.4047049063e+02 0.0000000000e+00 0.0000e+00 1.0000e+00
      -13  1    1    2    0    0 -1.0005829276e+03 +6.4111622253e+02 +1.7635742289e+03 2.1265912317e+03 0.0000000000e+00 0.0000e+00 1.0000e+00
       13  1    1    2    0    0 +1.0005829276e+03 -6.4111622253e+02 +2.0620032437e+03 2.3799272222e+03 0.0000000000e+00 0.0000e+00 -1.0000e+00
<mgrwt>
<rscale>  0 0.23819458E+04</rscale>
<asrwt>0</asrwt>
<pdfrwt beam="1">  1        2 0.64093042E+00 0.23819458E+04</pdfrwt>
<pdfrwt beam="2">  1       -2 0.52380078E-01 0.23819458E+04</pdfrwt>
<totfact> 0.86028852E-01</totfact>
</mgrwt>
<rwgt>
<wgt id='morphing_basis_vector_1'> +1.0094299e-04 </wgt>
<wgt id='morphing_basis_vector_2'> +7.4081923e-05 </wgt>
<wgt id='morphing_basis_vector_3'> +1.1014408e-04 </wgt>
<wgt id='morphing_basis_vector_4'> +6.9065057e-05 </wgt>
<wgt id='morphing_basis_vector_5'> +1.1875698e-04 </wgt>
</rwgt>
</event>
<event>
 4      1 +2.2016400e-08 2.35606800e+03 7.81860800e-03 7.93938100e-02
        2 -1    0    0  501    0 +0.0000000000e+00 +0.0000000000e+00 +1.1708453192e+03 1.1708453192e+03 0.0000000000e+00 0.0000e+00 -1.0000e+00
       -2 -1    0    0    0  501 -0.0000000000e+00 -0.0000000000e+00 -1.1852672943e+03 1.1852672943e+03 0.0000000000e+00 0.0000e+00 1.0000e+00
      -13  1    1    2    0    0 -1.5545764507e+02 +1.1095699876e+03 +3.5673542291e+02 1.1758285584e+03 0.0000000000e+00 0.0000e+00 1.0000e+00
       13  1    1    2    0    0 +1.5545764507e+02 -1.1095699876e+03 -3.7115739795e+02 1.1802840551e+03 0.0000000000e+00 0.0000e+00 -1.0000e+00
<mgrwt>
<rscale>  0 0.23560685E+04</rscale>
<asrwt>0</asrwt>
<pdfrwt beam="1">  1        2 0.18013005E+00 0.23560685E+04</pdfrwt>
<pdfrwt beam="2">  1       -2 0.18234881E+00 0.23560685E+04</pdfrwt>
<totfact> 0.35678757E+00</totfact>
</mgrwt>
<rwgt>
<wgt id='morphing_basis_vector_1'> +1.0382157e-04 </wgt>
<wgt id='morphing_basis_vector_2'> +9.2001444e-05 </wgt>
<wgt id='morphing_basis_vector_3'> +1.1620752e-04 </wgt>
<wgt id='morphing_basis_vector_4'> +5.1551535e-05 </wgt>
<wgt id='morphing_basis_vector_5'> +1.1243947e-04 </wgt>
</rwgt>
</event>
<event>
 4      1 +2.2016400e-08 2.45589800e+03 7.81860800e-03 7.90660500e-02
        2 -1    0    0  501    0 +0.0000000000e+00 +0.0000000000e+00 +3.2714322321e+03 3.2714322321e+03 0.0000000000e+00 0.0000e+00 -1.0000e+00
       -2 -1    0    0    0  501 -0.0000000000e+00 -0.0000000000e+00 -4.6091692232e+02 4.6091692232e+02 0.0000000000e+00 0.0000e+00 1.0000e+00
      -13  1    1    2    0    0 -1.1456539413e+02 -8.4536672528e+02 +6.2975325318e+01 8.5541570090e+02 0.0000000000e+00 0.0000e+00 1.0000e+00
       13  1    1    2    0    0 +1.1456539413e+02 +8.4536672528e+02 +2.7475399845e+03 2.8769334535e+03 0.0000000000e+00 0.0000e+00 -1.0000e+00
<mgrwt>
<rscale>  0 0.24558978E+04</rscale>
<asrwt>0</asrwt>
<pdfrwt beam="1">  1        2 0.50329725E+00 0.24558978E+04</pdfrwt>
<pdfrwt beam="2">  1       -2 0.70910298E-01 0.24558978E+04</pdfrwt>
<totfact> 0.22859611E+00</totfact>
</mgrwt>
<rwgt>
<wgt id='morphing_basis_vector_1'> +1.1081555e-04 </wgt>
<wgt id='morphing_basis_vector_2'> +7.4600123e-05 </wgt>
<wgt id='morphing_basis_vector_3'> +1.1981045e-04 </wgt>
<wgt id='morphing_basis_vector_4'> +8.4446259e-05 </wgt>
<wgt id='morphing_basis_vector_5'> +1.3493695e-04 </wgt>
</rwgt>
</event>
<event>
 4      1 +2.2016400e-08 2.40150000e+03 7.81860800e-03 7.92426200e-02
        2 -1    0    0  501    0 +0.0000000000e+00 +0.0000000000e+00 +2.0033074938e+03 2.0033074938e+03 0.0000000000e+00 0.0000e+00 -1.0000e+00
       -2 -1    0    0    0  501 -0.0000000000e+00 -0.0000000000e+00 -7.1971000010e+02 7.1971000010e+02 0.0000000000e+00 0.0000e+00 1.0000e+00
      -13  1    1    2    0    0 -3.8867884355e+02 +3.4193566278e+02 -5.8667707447e+02 7.8242011133e+02 0.0000000000e+00 0.0000e+00 1.0000e+00
       13  1    1    2    0    0 +3.8867884355e+02 -3.4193566278e+02 +1.8702745682e+03 1.9405973826e+03 0.0000000000e+00 0.0000e+00 -1.0000e+00
<mgrwt>
<rscale>  0 0.24014999E+04</rscale>
<asrwt>0</asrwt>
<pdfrwt beam="1">  1        2 0.30820115E+00 0.24014999E+04</pdfrwt>
<pdfrwt beam="2">  1       -2 0.11072462E+00 0.24014999E+04</pdfrwt>
<totfact> 0.48930890E+00</totfact>
</mgrwt>
<rwgt>
<wgt id='morphing_basis_vector_1'> +1.0134525e-04 </wgt>
<wgt id='morphing_basis_vector_2'> +6.7950342e-05 </wgt>
<wgt id='morphing_basis_vector_3'> +1.0940328e-04 </wgt>
<wgt id='morphing_basis_vector_4'> +7.7319566e-05 </wgt>
<wgt id='morphing_basis_vector_5'> +1.2323921e-04 </wgt>
</rwgt>
</event>
<event>
 4      1 +2.2016400e-08 2.63546800e+03 7.81860800e-03 7.85148400e-02
        2 -1    0    0  501    0 +0.0000000000e+00 +0.0000000000e+00 +7.3089741077e+02 7.3089741077e+02 0.0000000000e+00 0.0000e+00 1.0000e+00
       -2 -1    0    0    0  501 -0.0000000000e+00 -0.0000000000e+00 -2.3757406382e+03 2.3757406382e+03 0.0000000000e+00 0.0000e+00 -1.0000e+00
      -13  1    1    2    0    0 +1.3546887151e+02 -5.4688590054e+02 -2.2265993906e+03 2.2967761862e+03 0.0000000000e+00 0.0000e+00 -1.0000e+00
       13  1    1    2    0    0 -1.3546887151e+02 +5.4688590054e+02 +5.8175616317e+02 8.0986186276e+02 0.0000000000e+00 0.0000e+00 1.0000e+00
<mgrwt>
<rscale>  0 0.26354678E+04</rscale>
<asrwt>0</asrwt>
<pdfrwt beam="1">  1        2 0.11244576E+00 0.26354678E+04</pdfrwt>
<pdfrwt beam="2">  1       -2 0.36549855E+00 0.26354678E+04</pdfrwt>
<totfact> 0.36938570E-01</totfact>
</mgrwt>
<rwgt>
<wgt id='morphing_basis_vector_1'> +1.4629270e-04 </wgt>
<wgt id='morphing_basis_vector_2'> +9.8363537e-05 </wgt>
<wgt id='morphing_basis_vector_3'> +1.5862377e-04 </wgt>
<wgt id='morphing_basis_vector_4'> +1.1266309e-04 </wgt>
<wgt id='morphing_basis_vector_5'> +1.7959536e-04 </wgt>
</rwgt>
</event>
<event>
 4      1 +2.2016400e-08 2.35356900e+03 7.81860800e-03 7.94022300e-02
        2 -1    0    0  501    0 +0.0000000000e+00 +0.0000000000e+00 +1.9834612715e+03 1.9834612715e+03 0.0000000000e+00 0.0000e+00 -1.0000e+00
       -2 -1    0    0    0  501 -0.0000000000e+00 -0.0000000000e+00 -6.9818415034e+02 6.9818415034e+02 0.0000000000e+00 0.0000e+00 1.0000e+00
      -13  1    1    2    0    0 +1.0221497921e+03 +4.3721968378e+02 +2.0301793784e+02 1.1301183710e+03 0.0000000000e+00 0.0000e+00 1.0000e+00
       13  1    1    2    0    0 -1.0221497921e+03 -4.3721968378e+02 +1.0822591833e+03 1.5515270508e+03 0.0000000000e+00 0.0000e+00 -1.0000e+00
<mgrwt>
<rscale>  0 0.23535685E+04</rscale>
<asrwt>0</asrwt>
<pdfrwt beam="1">  1        2 0.30514789E+00 0.23535685E+04</pdfrwt>
<pdfrwt beam="2">  1       -2 0.10741295E+00 0.23535685E+04</pdfrwt>
<totfact> 0.54386368E+00</totfact>
</mgrwt>
<rwgt>
<wgt id='morphing_basis_vector_1'> +9.4540294e-05 </wgt>
<wgt id='morphing_basis_vector_2'> +6.5487175e-05 </wgt>
<wgt id='morphing_basis_vector_3'> +1.0235339e-04 </wgt>
<wgt id='morphing_basis_vector_4'> +6.9339587e-05 </wgt>
<wgt id='morphing_basis_vector_5'> +1.1340712e-04 </wgt>
</rwgt>
</event>
<event>
 4      1 +2.2016400e-08 2.27159800e+03 7.81860800e-03 7.96844500e-02
        2 -1    0    0  501    0 +0.0000000000e+00 +0.0000000000e+00 +2.6898939671e+03 2.6898939671e+03 0.0000000000e+00 0.0000e+00 -1.0000e+00
       -2 -1    0    0    0  501 -0.0000000000e+00 -0.0000000000e+00 -4.7958734025e+02 4.7958734025e+02 0.0000000000e+00 0.0000e+00 1.0000e+00
      -13  1    1    2    0    0 +1.7413040856e+02 -1.0446390776e+03 +5.3250463332e+02 1.1853916594e+03 0.0000000000e+00 0.0000e+00 1.0000e+00
       13  1    1    2    0    0 -1.7413040856e+02 +1.0446390776e+03 +1.6778019936e+03 1.9840896480e+03 0.0000000000e+00 0.0000e+00 -1.0000e+00
<mgrwt>
<rscale>  0 0.22715978E+04</rscale>
<asrwt>0</asrwt>
<pdfrwt beam="1">  1        2 0.41382983E+00 0.22715978E+04</pdfrwt>
<pdfrwt beam="2">  1       -2 0.73782669E-01 0.22715978E+04</pdfrwt>
<totfact> 0.50853000E+00</totfact>
</mgrwt>
<rwgt>
<wgt id='morphing_basis_vector_1'> +8.2104853e-05 </wgt>
<wgt id='morphing_basis_vector_2'> +5.6547982e-05 </wgt>
<wgt id='morphing_basis_vector_3'> +8.8660402e-05 </wgt>
<wgt id='morphing_basis_vector_4'> +6.0279577e-05 </wgt>
<wgt id='morphing_basis_vector_5'> +9.8224223e-05 </wgt>
</rwgt>
</event>
<event>
 4      1 +2.2016400e-08 2.43774600e+03 7.81860800e-03 7.91244400e-02
        2 -1    0    0  501    0 +0.0000000000e+00 +0.0000000000e+00 +2.3369323389e+03 2.3369323389e+03 0.0000000000e+00 0.0000e+00 1.0000e+00
       -2 -1    0    0    0  501 -0.0000000000e+00 -0.0000000000e+00 -6.3572708348e+02 6.3572708348e+02 0.0000000000e+00 0.0000e+00 -1.0000e+00
      -13  1    1    2    0    0 -8.6763406476e+02 -8.3105683534e+02 +6.0007929300e+02 1.3429592294e+03 0.0000000000e+00 0.0000e+00 1.0000e+00
       13  1    1    2    0    0 +8.6763406476e+02 +8.3105683534e+02 +1.1011259624e+03 1.6297001930e+03 0.0000000000e+00 0.0000e+00 -1.0000e+00
<mgrwt>
<rscale>  0 0.24377458E+04</rscale>
<asrwt>0</asrwt>
<pdfrwt beam="1">  1        2 0.35952805E+00 0.24377458E+04</pdfrwt>
<pdfrwt beam="2">  1       -2 0.97804168E-01 0.24377458E+04</pdfrwt>
<totfact> 0.42626638E+00</totfact>
</mgrwt>
<rwgt>
<wgt id='morphing_basis_vector_1'> +1.0960029e-04 </wgt>
<wgt id='morphing_basis_vector_2'> +7.8279662e-05 </wgt>
<wgt id='morphing_basis_vector_3'> +1.1932203e-04 </wgt>
<wgt id='morphing_basis_vector_4'> +7.7896196e-05 </wgt>
<wgt id='morphing_basis_vector_5'> +1.3061224e-04 </wgt>
</rwgt>
</event>
<event>
 4      1 +2.2016400e-08 2.29180600e+03 7.81860800e-03 7.96137500e-02
        2 -1    0    0  501    0 +0.0000000000e+00 +0.0000000000e+00 +3.1665431662e+03 3.1665431662e+03 0.0000000000e+00 0.0000e+00 -1.0000e+00
       -2 -1    0    0    0  501 -0.0000000000e+00 -0.0000000000e+00 -4.1467740382e+02 4.1467740382e+02 0.0000000000e+00 0.0000e+00 1.0000e+00
      -13  1    1    2    0    0 -5.6110459599e+02 +4.7301079579e+01 -1.8357224568e+02 5.9226221318e+02 0.0000000000e+00 0.0000e+00 1.0000e+00
       13  1    1    2    0    0 +5.6110459599e+02 -4.7301079579e+01 +2.9354380080e+03 2.9889583568e+03 0.0000000000e+00 0.0000e+00 -1.0000e+00
<mgrwt>
<rscale>  0 0.22918062E+04</rscale>
<asrwt>0</asrwt>
<pdfrwt beam="1">  1        2 0.48716047E+00 0.22918062E+04</pdfrwt>
<pdfrwt beam="2">  1       -2 0.63796526E-01 0.22918062E+04</pdfrwt>
<totfact> 0.34220189E+00</totfact>
</mgrwt>
<rwgt>
<wgt id='morphing_basis_vector_1'> +8.4298771e-05 </wgt>
<wgt id='morphing_basis_vector_2'> +5.6445876e-05 </wgt>
<wgt id='morphing_basis_vector_3'> +9.0773415e-05 </wgt>
<wgt id='morphing_basis_vector_4'> +6.3947252e-05 </wgt>
<wgt id='morphing_basis_vector_5'> +1.0193922e-04 </wgt>
</rwgt>
</event>
<event>
 4      1 +2.2016400e-08 2.46432200e+03 7.81860800e-03 7.90391300e-02
        2 -1    0    0  501    0 +0.0000000000e+00 +0.0000000000e+00 +8.0870871378e+02 8.0870871378e+02 0.0000000000e+00 0.0000e+00 -1.0000e+00
       -2 -1    0    0    0  501 -0.0000000000e+00 -0.0000000000e+00 -1.8773399686e+03 1.8773399686e+03 0.0000000000e+00 0.0000e+00 1.0000e+00
      -13  1    1    2    0    0 -8.4756269425e+02 -8.9287715507e+02 -4.7842791574e+02 1.3207896900e+03 0.0000000000e+00 0.0000e+00 1.0000e+00
       13  1    1    2    0    0 +8.4756269425e+02 +8.9287715507e+02 -5.9020333906e+02 1.3652589923e+03 0.0000000000e+00 0.0000e+00 -1.0000e+00
<mgrwt>
<rscale>  0 0.24643224E+04</rscale>
<asrwt>0</asrwt>
<pdfrwt beam="1">  1        2 0.12441673E+00 0.24643224E+04</pdfrwt>
<pdfrwt beam="2">  1       -2 0.28882153E+00 0.24643224E+04</pdfrwt>
<totfact> 0.10608705E+00</totfact>
</mgrwt>
<rwgt>
<wgt id='morphing_basis_vector_1'> +1.1697559e-04 </wgt>
<wgt id='morphing_basis_vector_2'> +8.9353664e-05 </wgt>
<wgt id='morphing_basis_vector_3'> +1.2854453e-04 </wgt>
<wgt id='morphing_basis_vector_4'> +7.6107096e-05 </wgt>
<wgt id='morphing_basis_vector_5'> +1.3605244e-04 </wgt>
</rwgt>
</event>
<event>
 4      1 +2.2016400e-08 2.32005500e+03 7.81860800e-03 7.95161600e-02
        2 -1    0    0  501    0 +0.0000000000e+00 +0.0000000000e+00 +2.2158030887e+03 2.2158030887e+03 0.0000000000e+00 0.0000e+00 -1.0000e+00
       -2 -1    0    0    0  501 -0.0000000000e+00 -0.0000000000e+00 -6.0730309743e+02 6.0730309743e+02 0.0000000000e+00 0.0000e+00 1.0000e+00
      -13  1    1    2    0    0 +6.6047506010e+02 -2.2844818305e+02 -3.2238225638e+02 7.6964030338e+02 0.0000000000e+00 0.0000e+00 1.0000e+00
       13  1    1    2    0    0 -6.6047506010e+02 +2.2844818305e+02 +1.9308822476e+03 2.0534658827e+03 0.0000000000e+00 0.0000e+00 -1.0000e+00
<mgrwt>
<rscale>  0 0.23200552E+04</rscale>
<asrwt>0</asrwt>
<pdfrwt beam="1">  1        2 0.34089278E+00 0.23200552E+04</pdfrwt>
<pdfrwt beam="2">  1       -2 0.93431247E-01 0.23200552E+04</pdfrwt>
<totfact> 0.56391358E+00</totfact>
</mgrwt>
<rwgt>
<wgt id='morphing_basis_vector_1'> +8.8494485e-05 </wgt>
<wgt id='morphing_basis_vector_2'> +5.9345613e-05 </wgt>
<wgt id='morphing_basis_vector_3'> +9.5369110e-05 </wgt>
<wgt id='morphing_basis_vector_4'> +6.7149893e-05 </wgt>
<wgt id='morphing_basis_vector_5'> +1.0713356e-04 </wgt>
</rwgt>
</event>
<event>
 4      1 +2.2016400e-08 2.45062700e+03 7.81860800e-03 7.90829500e-02
        2 -1    0    0  501    0 +0.0000000000e+00 +0.0000000000e+00 +2.2609356947e+03 2.2609356947e+03 0.0000000000e+00 0.0000e+00 -1.0000e+00
       -2 -1    0    0    0  501 -0.0000000000e+00 -0.0000000000e+00 -6.6405841552e+02 6.6405841552e+02 0.0000000000e+00 0.0000e+00 1.0000e+00
      -13  1    1    2    0    0 -5.5217648065e+02 -3.0759991488e+02 -4.5445519621e+02 7.7848962663e+02 0.0000000000e+00 0.0000e+00 1.0000e+00
       13  1    1    2    0    0 +5.5217648065e+02 +3.0759991488e+02 +2.0513324754e+03 2.1465044836e+03 0.0000000000e+00 0.0000e+00 -1.0000e+00
<mgrwt>
<rscale>  0 0.24506272E+04</rscale>
<asrwt>0</asrwt>
<pdfrwt beam="1">  1        2 0.34783626E+00 0.24506272E+04</pdfrwt>
<pdfrwt beam="2">  1       -2 0.10216283E+00 0.24506272E+04</pdfrwt>
<totfact> 0.42420918E+00</totfact>
</mgrwt>
<rwgt>
<wgt id='morphing_basis_vector_1'> +1.0978794e-04 </wgt>
<wgt id='morphing_basis_vector_2'> +7.3693388e-05 </wgt>
<wgt id='morphing_basis_vector_3'> +1.1864613e-04 </wgt>
<wgt id='morphing_basis_vector_4'> +8.3902777e-05 </wgt>
<wgt id='morphing_basis_vector_5'> +1.3378227e-04 </wgt>
</rwgt>
</event>
<event>
 4      1 +2.2016400e-08 2.33656100e+03 7.81860800e-03 7.94598000e-02
        2 -1    0    0  501    0 +0.0000000000e+00 +0.0000000000e+00 +1.9116545796e+03 1.9116545796e+03 0.0000000000e+00 0.0000e+00 1.0000e+00
       -2 -1    0    0    0  501 -0.0000000000e+00 -0.0000000000e+00 -7.1397791491e+02 7.1397791491e+02 0.0000000000e+00 0.0000e+00 -1.0000e+00
      -13  1    1    2    0    0 -4.5688029692e+01 +4.7112165074e+02 -6.0140272593e+02 7.6532884737e+02 0.0000000000e+00 0.0000e+00 -1.0000e+00
       13  1    1    2    0    0 +4.5688029692e+01 -4.7112165074e+02 +1.7990793907e+03 1.8603036472e+03 0.0000000000e+00 0.0000e+00 1.0000e+00
<mgrwt>
<rscale>  0 0.23365608E+04</rscale>
<asrwt>0</asrwt>
<pdfrwt beam="1">  1        2 0.29410070E+00 0.23365608E+04</pdfrwt>
<pdfrwt beam="2">  1       -2 0.10984276E+00 0.23365608E+04</pdfrwt>
<totfact> 0.56517119E+00</totfact>
</mgrwt>
<rwgt>
<wgt id='morphing_basis_vector_1'> +9.0962009e-05 </wgt>
<wgt id='morphing_basis_vector_2'> +6.0926259e-05 </wgt>
<wgt id='morphing_basis_vector_3'> +9.8049909e-05 </wgt>
<wgt id='morphing_basis_vector_4'> +6.9188973e-05 </wgt>
<wgt id='morphing_basis_vector_5'> +1.1026763e-04 </wgt>
</rwgt>
</event>
<event>
 4      1 +2.2016400e-08 2.32556600e+03 7.81860800e-03 7.94972900e-02
        2 -1    0    0  501    0 +0.0000000000e+00 +0.0000000000e+00 +2.8675424327e+03 2.8675424327e+03 0.0000000000e+00 0.0000e+00 -1.0000e+00
       -2 -1    0    0    0  501 -0.0000000000e+00 -0.0000000000e+00 -4.7150635983e+02 4.7150635983e+02 0.0000000000e+00 0.0000e+00 1.0000e+00
      -13  1    1    2    0    0 +4.6583545801e+02 +1.0035057508e+02 -3.2487254950e+02 5.7672791269e+02 0.0000000000e+00 0.0000e+00 1.0000e+00
       13  1    1    2    0    0 -4.6583545801e+02 -1.0035057508e+02 +2.7209086224e+03 2.7623208798e+03 0.0000000000e+00 0.0000e+00 -1.0000e+00
<mgrwt>
<rscale>  0 0.23255662E+04</rscale>
<asrwt>0</asrwt>
<pdfrwt beam="1">  1        2 0.44116036E+00 0.23255662E+04</pdfrwt>
<pdfrwt beam="2">  1       -2 0.72539442E-01 0.23255662E+04</pdfrwt>
<totfact> 0.40688430E+00</totfact>
</mgrwt>
<rwgt>
<wgt id='morphing_basis_vector_1'> +8.9287517e-05 </wgt>
<wgt id='morphing_basis_vector_2'> +5.9795631e-05 </wgt>
<wgt id='morphing_basis_vector_3'> +9.6220116e-05 </wgt>
<wgt id='morphing_basis_vector_4'> +6.7876758e-05 </wgt>
<wgt id='morphing_basis_vector_5'> +1.0817658e-04 </wgt>
</rwgt>
</event>
<event>
 4      1 +2.2016400e-08 2.59067800e+03 7.81860800e-03 7.86480400e-02
        2 -1    0    0  501    0 +0.0000000000e+00 +0.0000000000e+00 +1.5133998239e+03 1.5133998239e+03 0.0000000000e+00 0.0000e+00 -1.0000e+00
       -2 -1    0    0    0  501 -0.0000000000e+00 -0.0000000000e+00 -1.1086975489e+03 1.1086975489e+03 0.0000000000e+00 0.0000e+00 1.0000e+00
      -13  1    1    2    0    0 +6.4720122692e+02 +9.6095039615e+02 -3.8399128804e+02 1.2205508598e+03 0.0000000000e+00 0.0000e+00 1.0000e+00
       13  1    1    2    0    0 -6.4720122692e+02 -9.6095039615e+02 +7.8869356297e+02 1.4015465131e+03 0.0000000000e+00 0.0000e+00 -1.0000e+00
<mgrwt>
<rscale>  0 0.25906777E+04</rscale>
<asrwt>0</asrwt>
<pdfrwt beam="1">  1        2 0.23283074E+00 0.25906777E+04</pdfrwt>
<pdfrwt beam="2">  1       -2 0.17056885E+00 0.25906777E+04</pdfrwt>
<totfact> 0.27451066E+00</totfact>
</mgrwt>
<rwgt>
<wgt id='morphing_basis_vector_1'> +1.3749505e-04 </wgt>
<wgt id='morphing_basis_vector_2'> +9.4191094e-05 </wgt>
<wgt id='morphing_basis_vector_3'> +1.4932629e-04 </wgt>
<wgt id='morphing_basis_vector_4'> +1.0350085e-04 </wgt>
<wgt id='morphing_basis_vector_5'> +1.6742823e-04 </wgt>
</rwgt>
</event>
<event>
 4      1 +2.2016400e-08 2.30590300e+03 7.81860800e-03 7.95648700e-02
        2 -1    0    0  501    0 +0.0000000000e+00 +0.0000000000e+00 +1.1344060583e+03 1.1344060583e+03 0.0000000000e+00 0.0000e+00 -1.0000e+00
       -2 -1    0    0    0  501 -0.0000000000e+00 -0.0000000000e+00 -1.1718005763e+03 1.1718005763e+03 0.0000000000e+00 0.0000e+00 1.0000e+00
      -13  1    1    2    0    0 -5.4888286673e+02 +1.0135780527e+03 -4.4869433754e+01 1.1535276921e+03 0.0000000000e+00 0.0000e+00 1.0000e+00
       13  1    1    2    0    0 +5.4888286673e+02 -1.0135780527e+03 +7.4749158181e+00 1.1526789426e+03 0.0000000000e+00 0.0000e+00 -1.0000e+00
<mgrwt>
<rscale>  0 0.23059034E+04</rscale>
<asrwt>0</asrwt>
<pdfrwt beam="1">  1        2 0.17452401E+00 0.23059034E+04</pdfrwt>
<pdfrwt beam="2">  1       -2 0.18027701E+00 0.23059034E+04</pdfrwt>
<totfact> 0.39040107E+00</totfact>
</mgrwt>
<rwgt>
<wgt id='morphing_basis_vector_1'> +8.9256729e-05 </wgt>
<wgt id='morphing_basis_vector_2'> +6.6396565e-05 </wgt>
<wgt id='morphing_basis_vector_3'> +9.7382284e-05 </wgt>
<wgt id='morphing_basis_vector_4'> +5.9676312e-05 </wgt>
<wgt id='morphing_basis_vector_5'> +1.0403670e-04 </wgt>
</rwgt>
</event>
<event>
 4      1 +2.2016400e-08 2.65949100e+03 7.81860800e-03 7.84445100e-02
        2 -1    0    0  501    0 +0.0000000000e+00 +0.0000000000e+00 +1.1073350121e+03 1.1073350121e+03 0.0000000000e+00 0.0000e+00 -1.0000e+00
       -2 -1    0    0    0  501 -0.0000000000e+00 -0.0000000000e+00 -1.5968277958e+03 1.5968277958e+03 0.0000000000e+00 0.0000e+00 1.0000e+00
      -13  1    1    2    0    0 -8.0433095010e+02 +7.9711004238e+02 -9.5351348180e+02 1.4803785519e+03 0.0000000000e+00 0.0000e+00 1.0000e+00
       13  1    1    2    0    0 +8.0433095010e+02 -7.9711004238e+02 +4.6402069816e+02 1.2237842560e+03 0.0000000000e+00 0.0000e+00 -1.0000e+00
<mgrwt>
<rscale>  0 0.26594912E+04</rscale>
<asrwt>0</asrwt>
<pdfrwt beam="1">  1        2 0.17035923E+00 0.26594912E+04</pdfrwt>
<pdfrwt beam="2">  1       -2 0.24566582E+00 0.26594912E+04</pdfrwt>
<totfact> 0.13299703E+00</totfact>
</mgrwt>
<rwgt>
<wgt id='morphing_basis_vector_1'> +1.5221574e-04 </wgt>
<wgt id='morphing_basis_vector_2'> +1.0369089e-04 </wgt>
<wgt id='morphing_basis_vector_3'> +1.6537492e-04 </wgt>
<wgt id='morphing_basis_vector_4'> +1.1567957e-04 </wgt>
<wgt id='morphing_basis_vector_5'> +1.8621353e-04 </wgt>
</rwgt>
</event>
<event>
 4      1 +2.2016400e-08 2.35055700e+03 7.81860800e-03 7.94123800e-02
        2 -1    0    0  501    0 +0.0000000000e+00 +0.0000000000e+00 +2.2057192619e+03 2.2057192619e+03 0.0000000000e+00 0.0000e+00 -1.0000e+00
       -2 -1    0    0    0  501 -0.0000000000e+00 -0.0000000000e+00 -6.2622647904e+02 6.2622647904e+02 0.0000000000e+00 0.0000e+00 1.0000e+00
      -13  1    1    2    0    0 +3.6090108770e+02 +4.7619924891e+02 -4.2958051900e+02 7.3590403048e+02 0.0000000000e+00 0.0000e+00 1.0000e+00
       13  1    1    2    0    0 -3.6090108770e+02 -4.7619924891e+02 +2.0090733018e+03 2.0960417104e+03 0.0000000000e+00 0.0000e+00 -1.0000e+00
<mgrwt>
<rscale>  0 0.23505572E+04</rscale>
<asrwt>0</asrwt>
<pdfrwt beam="1">  1        2 0.33934142E+00 0.23505572E+04</pdfrwt>
<pdfrwt beam="2">  1       -2 0.96342536E-01 0.23505572E+04</pdfrwt>
<totfact> 0.53011006E+00</totfact>
</mgrwt>
<rwgt>
<wgt id='morphing_basis_vector_1'> +9.3141744e-05 </wgt>
<wgt id='morphing_basis_vector_2'> +6.2429974e-05 </wgt>
<wgt id='morphing_basis_vector_3'> +1.0043797e-04 </wgt>
<wgt id='morphing_basis_vector_4'> +7.0858301e-05 </wgt>
<wgt id='morphing_basis_vector_5'> +1.1297073e-04 </wgt>
</rwgt>
</event>
<event>
 4      1 +2.2016400e-08 2.23575700e+03 7.81860800e-03 7.98117400e-02
        2 -1    0    0  501    0 +0.0000000000e+00 +0.0000000000e+00 +1.3160883538e+03 1.3160883538e+03 0.0000000000e+00 0.0000e+00 -1.0000e+00
       -2 -1    0    0    0  501 -0.0000000000e+00 -0.0000000000e+00 -9.4952047601e+02 9.4952047601e+02 0.0000000000e+00 0.0000e+00 1.0000e+00
      -13  1    1    2    0    0 -4.4041257749e+02 -1.0250549485e+03 +1.1197424745e+02 1.1212667470e+03 0.0000000000e+00 0.0000e+00 1.0000e+00
       13  1    1    2    0    0 +4.4041257749e+02 +1.0250549485e+03 +2.5459363036e+02 1.1443420828e+03 0.0000000000e+00 0.0000e+00 -1.0000e+00
<mgrwt>
<rscale>  0 0.22357574E+04</rscale>
<asrwt>0</asrwt>
<pdfrwt beam="1">  1        2 0.20247513E+00 0.22357574E+04</pdfrwt>
<pdfrwt beam="2">  1       -2 0.14608007E+00 0.22357574E+04</pdfrwt>
<totfact> 0.57615388E+00</totfact>
</mgrwt>
<rwgt>
<wgt id='morphing_basis_vector_1'> +7.8680103e-05 </wgt>
<wgt id='morphing_basis_vector_2'> +5.7688805e-05 </wgt>
<wgt id='morphing_basis_vector_3'> +8.5528067e-05 </wgt>
<wgt id='morphing_basis_vector_4'> +5.3359800e-05 </wgt>
<wgt id='morphing_basis_vector_5'> +9.1825715e-05 </wgt>
</rwgt>
</event>
<event>
 4      1 +2.2016400e-08 2.57114000e+03 7.81860800e-03 7.87070000e-02
        2 -1    0    0  501    0 +0.0000000000e+00 +0.0000000000e+00 +3.5060695458e+03 3.5060695458e+03 0.0000000000e+00 0.0000e+00 1.0000e+00
       -2 -1    0    0    0  501 -0.0000000000e+00 -0.0000000000e+00 -4.7137958382e+02 4.7137958382e+02 0.0000000000e+00 0.0000e+00 -1.0000e+00
      -13  1    1    2    0    0 +1.0475052920e+03 -6.9433881820e+02 +1.9362137619e+03 2.3083105214e+03 0.0000000000e+00 0.0000e+00 -1.0000e+00
       13  1    1    2    0    0 -1.0475052920e+03 +6.9433881820e+02 +1.0984762000e+03 1.6691386082e+03 0.0000000000e+00 0.0000e+00 1.0000e+00
<mgrwt>
<rscale>  0 0.25711395E+04</rscale>
<asrwt>0</asrwt>
<pdfrwt beam="1">  1        2 0.53939530E+00 0.25711395E+04</pdfrwt>
<pdfrwt beam="2">  1       -2 0.72519938E-01 0.25711395E+04</pdfrwt>
<totfact> 0.14689967E+00</totfact>
</mgrwt>
<rwgt>
<wgt id='morphing_basis_vector_1'> +1.4276206e-04 </wgt>
<wgt id='morphing_basis_vector_2'> +1.1888418e-04 </wgt>
<wgt id='morphing_basis_vector_3'> +1.5916238e-04 </wgt>
<wgt id='morphing_basis_vector_4'> +8.1228105e-05 </wgt>
<wgt id='morphing_basis_vector_5'> +1.6081946e-04 </wgt>
</rwgt>
</event>
<event>
 4      1 +2.2016400e-08 2.42069900e+03 7.81860800e-03 7.91797600e-02
        2 -1    0    0  501    0 +0.0000000000e+00 +0.0000000000e+00 +2.8139648399e+03 2.8139648399e+03 0.0000000000e+00 0.0000e+00 -1.0000e+00
       -2 -1    0    0    0  501 -0.0000000000e+00 -0.0000000000e+00 -5.2059868035e+02 5.2059868035e+02 0.0000000000e+00 0.0000e+00 1.0000e+00
      -13  1    1    2    0    0 +3.3522741726e+02 +6.5111791584e+02 -1.8075981141e+02 7.5432491079e+02 0.0000000000e+00 0.0000e+00 1.0000e+00
       13  1    1    2    0    0 -3.3522741726e+02 -6.5111791584e+02 +2.4741259710e+03 2.5802386095e+03 0.0000000000e+00 0.0000e+00 -1.0000e+00
<mgrwt>
<rscale>  0 0.24206994E+04</rscale>
<asrwt>0</asrwt>
<pdfrwt beam="1">  1        2 0.43291766E+00 0.24206994E+04</pdfrwt>
<pdfrwt beam="2">  1       -2 0.80092106E-01 0.24206994E+04</pdfrwt>
<totfact> 0.34997367E+00</totfact>
</mgrwt>
<rwgt>
<wgt id='morphing_basis_vector_1'> +1.0462216e-04 </wgt>
<wgt id='morphing_basis_vector_2'> +7.0265070e-05 </wgt>
<wgt id='morphing_basis_vector_3'> +1.1300615e-04 </wgt>
<wgt id='morphing_basis_vector_4'> +7.9767221e-05 </wgt>
<wgt id='morphing_basis_vector_5'> +1.2727651e-04 </wgt>
</rwgt>
</event>
<event>
 4      1 +2.2016400e-08 2.55024000e+03 7.81860800e-03 7.87706700e-02
        2 -1    0    0  501    0 +0.0000000000e+00 +0.0000000000e+00 +4.1610211042e+03 4.1610211042e+03 0.0000000000e+00 0.0000e+00 -1.0000e+00
       -2 -1    0    0    0  501 -0.0000000000e+00 -0.0000000000e+00 -3.9075278045e+02 3.9075278045e+02 0.0000000000e+00 0.0000e+00 1.0000e+00
      -13  1    1    2    0    0 +2.2694045642e+02 +7.1986146842e+02 +5.0799649990e+01 7.5649395828e+02 0.0000000000e+00 0.0000e+00 1.0000e+00
       13  1    1    2    0    0 -2.2694045642e+02 -7.1986146842e+02 +3.7194686737e+03 3.7952799263e+03 0.0000000000e+00 0.0000e+00 -1.0000e+00
<mgrwt>
<rscale>  0 0.25502396E+04</rscale>
<asrwt>0</asrwt>
<pdfrwt beam="1">  1        2 0.64015706E+00 0.25502396E+04</pdfrwt>
<pdfrwt beam="2">  1       -2 0.60115815E-01 0.25502396E+04</pdfrwt>
<totfact> 0.64715033E-01</totfact>
</mgrwt>
<rwgt>
<wgt id='morphing_basis_vector_1'> +1.2851881e-04 </wgt>
<wgt id='morphing_basis_vector_2'> +8.6438321e-05 </wgt>
<wgt id='morphing_basis_vector_3'> +1.3916776e-04 </wgt>
<wgt id='morphing_basis_vector_4'> +9.8534686e-05 </wgt>
<wgt id='morphing_basis_vector_5'> +1.5721244e-04 </wgt>
</rwgt>
</event>
<event>
 4      1 +2.2016400e-08 2.58860900e+03 7.81860800e-03 7.86542500e-02
        2 -1    0    0  501    0 +0.0000000000e+00 +0.0000000000e+00 +8.4612099435e+02 8.4612099435e+02 0.0000000000e+00 0.0000e+00 -1.0000e+00
       -2 -1    0    0    0  501 -0.0000000000e+00 -0.0000000000e+00 -1.9798868126e+03 1.9798868126e+03 0.0000000000e+00 0.0000e+00 1.0000e+00
      -13  1    1    2    0    0 +7.6599488864e+02 +6.3185107747e+02 -1.4732249653e+03 1.7766191916e+03 0.0000000000e+00 0.0000e+00 1.0000e+00
       13  1    1    2    0    0 -7.6599488864e+02 -6.3185107747e+02 +3.3945914705e+02 1.0493886154e+03 0.0000000000e+00 0.0000e+00 -1.0000e+00
<mgrwt>
<rscale>  0 0.25886087E+04</rscale>
<asrwt>0</asrwt>
<pdfrwt beam="1">  1        2 0.13017246E+00 0.25886087E+04</pdfrwt>
<pdfrwt beam="2">  1       -2 0.30459797E+00 0.25886087E+04</pdfrwt>
<totfact> 0.77426868E-01</totfact>
</mgrwt>
<rwgt>
<wgt id='morphing_basis_vector_1'> +1.3652846e-04 </wgt>
<wgt id='morphing_basis_vector_2'> +9.2319396e-05 </wgt>
<wgt id='morphing_basis_vector_3'> +1.4803183e-04 </wgt>
<wgt id='morphing_basis_vector_4'> +1.0426330e-04 </wgt>
<wgt id='morphing_basis_vector_5'> +1.6697683e-04 </wgt>
</rwgt>
</event>
<event>
 4      1 +2.2016400e-08 2.34414300e+03 7.81860800e-03 7.94340700e-02
        2 -1    0    0  501    0 +0.0000000000e+00 +0.0000000000e+00 +1.5997414071e+03 1.5997414071e+03 0.0000000000e+00 0.0000e+00 1.0000e+00
       -2 -1    0    0    0  501 -0.0000000000e+00 -0.0000000000e+00 -8.5873345552e+02 8.5873345552e+02 0.0000000000e+00 0.0000e+00 -1.0000e+00
      -13  1    1    2    0    0 +4.7485583094e+01 -1.0800588240e+03 -1.0431310827e+02 1.0861229988e+03 0.0000000000e+00 0.0000e+00 -1.0000e+00
       13  1    1    2    0    0 -4.7485583094e+01 +1.0800588240e+03 +8.4532105983e+02 1.3723518638e+03 0.0000000000e+00 0.0000e+00 1.0000e+00
<mgrwt>
<rscale>  0 0.23441429E+04</rscale>
<asrwt>0</asrwt>
<pdfrwt beam="1">  1        2 0.24611406E+00 0.23441429E+04</pdfrwt>
<pdfrwt beam="2">  1       -2 0.13211284E+00 0.23441429E+04</pdfrwt>
<totfact> 0.52177658E+00</totfact>
</mgrwt>
<rwgt>
<wgt id='morphing_basis_vector_1'> +9.2842079e-05 </wgt>
<wgt id='morphing_basis_vector_2'> +6.3816830e-05 </wgt>
<wgt id='morphing_basis_vector_3'> +1.0040060e-04 </wgt>
<wgt id='morphing_basis_vector_4'> +6.8657071e-05 </wgt>
<wgt id='morphing_basis_vector_5'> +1.1161052e-04 </wgt>
</rwgt>
</event>
<event>
 4      1 +2.2016400e-08 2.43459400e+03 7.81860800e-03 7.91346400e-02
        2 -1    0    0  501    0 +0.0000000000e+00 +0.0000000000e+00 +1.1515544292e+03 1.1515544292e+03 0.0000000000e+00 0.0000e+00 -1.0000e+00
       -2 -1    0    0    0  501 -0.0000000000e+00 -0.0000000000e+00 -1.2867926452e+03 1.2867926452e+03 0.0000000000e+00 0.0000e+00 1.0000e+00
      -13  1    1    2    0    0 +3.3782034870e+01 +9.5748247129e+02 -8.1970809839e+02 1.2608867020e+03 0.0000000000e+00 0.0000e+00 1.0000e+00
       13  1    1    2    0    0 -3.3782034870e+01 -9.5748247129e+02 +6.8446988241e+02 1.1774603724e+03 0.0000000000e+00 0.0000e+00 -1.0000e+00
<mgrwt>
<rscale>  0 0.24345938E+04</rscale>
<asrwt>0</asrwt>
<pdfrwt beam="1">  1        2 0.17716222E+00 0.24345938E+04</pdfrwt>
<pdfrwt beam="2">  1       -2 0.19796810E+00 0.24345938E+04</pdfrwt>
<totfact> 0.27836465E+00</totfact>
</mgrwt>
<rwgt>
<wgt id='morphing_basis_vector_1'> +1.0719804e-04 </wgt>
<wgt id='morphing_basis_vector_2'> +7.2434483e-05 </wgt>
<wgt id='morphing_basis_vector_3'> +1.1590424e-04 </wgt>
<wgt id='morphing_basis_vector_4'> +8.1257284e-05 </wgt>
<wgt id='morphing_basis_vector_5'> +1.3023361e-04 </wgt>
</rwgt>
</event>
<event>
 4      1 +2.2016400e-08 2.28099500e+03 7.81860800e-03 7.96514800e-02
        2 -1    0    0  501    0 +0.0000000000e+00 +0.0000000000e+00 +5.2557037106e+02 5.2557037106e+02 0.0000000000e+00 0.0000e+00 1.0000e+00
       -2 -1    0    0    0  501 -0.0000000000e+00 -0.0000000000e+00 -2.4749014429e+03 2.4749014429e+03 0.0000000000e+00 0.0000e+00 -1.0000e+00
      -13  1    1    2    0    0 -9.4760030096e+02 -6.1142042745e+02 -1.1984945856e+03 1.6456520110e+03 0.0000000000e+00 0.0000e+00 1.0000e+00
       13  1    1    2    0    0 +9.4760030096e+02 +6.1142042745e+02 -7.5083648620e+02 1.3548198030e+03 0.0000000000e+00 0.0000e+00 -1.0000e+00
<mgrwt>
<rscale>  0 0.22809953E+04</rscale>
<asrwt>0</asrwt>
<pdfrwt beam="1">  1        2 0.80856981E-01 0.22809953E+04</pdfrwt>
<pdfrwt beam="2">  1       -2 0.38075406E+00 0.22809953E+04</pdfrwt>
<totfact> 0.44998664E-01</totfact>
</mgrwt>
<rwgt>
<wgt id='morphing_basis_vector_1'> +8.4466518e-05 </wgt>
<wgt id='morphing_basis_vector_2'> +6.0485036e-05 </wgt>
<wgt id='morphing_basis_vector_3'> +9.1660488e-05 </wgt>
<wgt id='morphing_basis_vector_4'> +5.9238006e-05 </wgt>
<wgt id='morphing_basis_vector_5'> +9.9719812e-05 </wgt>
</rwgt>
</event>
<event>
 4      1 +2.2016400e-08 2.29173500e+03 7.81860800e-03 7.96140000e-02
        2 -1    0    0  501    0 +0.0000000000e+00 +0.0000000000e+00 +1.4324217373e+03 1.4324217373e+03 0.0000000000e+00 0.0000e+00 -1.0000e+00
       -2 -1    0    0    0  501 -0.0000000000e+00 -0.0000000000e+00 -9.1663770619e+02 9.1663770619e+02 0.0000000000e+00 0.0000e+00 1.0000e+00
      -13  1    1    2    0    0 +7.5371481511e+02 +8.3272963911e+02 +2.5308505073e+01 1.1234612565e+03 0.0000000000e+00 0.0000e+00 1.0000e+00
       13  1    1    2    0    0 -7.5371481511e+02 -8.3272963911e+02 +4.9047552602e+02 1.2255981870e+03 0.0000000000e+00 0.0000e+00 -1.0000e+00
<mgrwt>
<rscale>  0 0.22917345E+04</rscale>
<asrwt>0</asrwt>
<pdfrwt beam="1">  1        2 0.22037257E+00 0.22917345E+04</pdfrwt>
<pdfrwt beam="2">  1       -2 0.14102119E+00 0.22917345E+04</pdfrwt>
<totfact> 0.54361687E+00</totfact>
</mgrwt>
<rwgt>
<wgt id='morphing_basis_vector_1'> +8.5735493e-05 </wgt>
<wgt id='morphing_basis_vector_2'> +6.0713895e-05 </wgt>
<wgt id='morphing_basis_vector_3'> +9.2935968e-05 </wgt>
<wgt id='morphing_basis_vector_4'> +6.1003065e-05 </wgt>
<wgt id='morphing_basis_vector_5'> +1.0169043e-04 </wgt>
</rwgt>
</event>
<event>
 4      1 +2.2016400e-08 2.39728700e+03 7.81860800e-03 7.92565000e-02
        2 -1    0    0  501    0 +0.0000000000e+00 +0.0000000000e+00 +1.7849905433e+03 1.7849905433e+03 0.0000000000e+00 0.0000e+00 1.0000e+00
       -2 -1    0    0    0  501 -0.0000000000e+00 -0.0000000000e+00 -8.0490393046e+02 8.0490393046e+02 0.0000000000e+00 0.0000e+00 -1.0000e+00
      -13  1    1    2    0    0 -1.0452636493e+03 -1.8417219563e+02 +1.0917963165e+03 1.5226669665e+03 0.0000000000e+00 0.0000e+00 1.0000e+00
       13  1    1    2    0    0 +1.0452636493e+03 +1.8417219563e+02 -1.1170970367e+02 1.0672275072e+03 0.0000000000e+00 0.0000e+00 -1.0000e+00
<mgrwt>
<rscale>  0 0.23972867E+04</rscale>
<asrwt>0</asrwt>
<pdfrwt beam="1">  1        2 0.27461393E+00 0.23972867E+04</pdfrwt>
<pdfrwt beam="2">  1       -2 0.12383137E+00 0.23972867E+04</pdfrwt>
<totfact> 0.48632707E+00</totfact>
</mgrwt>
<rwgt>
<wgt id='morphing_basis_vector_1'> +1.1745341e-04 </wgt>
<wgt id='morphing_basis_vector_2'> +1.1709917e-04 </wgt>
<wgt id='morphing_basis_vector_3'> +1.3410426e-04 </wgt>
<wgt id='morphing_basis_vector_4'> +4.2486703e-05 </wgt>
<wgt id='morphing_basis_vector_5'> +1.1959752e-04 </wgt>
</rwgt>
</event>
<event>
 4      1 +2.2016400e-08 2.41420200e+03 7.81860800e-03 7.92009600e-02
        2 -1    0    0  501    0 +0.0000000000e+00 +0.0000000000e+00 +1.1848047947e+03 1.1848047947e+03 0.0000000000e+00 0.0000e+00 -1.0000e+00
       -2 -1    0    0    0  501 -0.0000000000e+00 -0.0000000000e+00 -1.2298169310e+03 1.2298169310e+03 0.0000000000e+00 0.0000e+00 1.0000e+00
      -13  1    1    2    0    0 -3.0732869034e+02 +1.1559586795e+03 -1.8502001148e+02 1.2103403642e+03 0.0000000000e+00 0.0000e+00 -1.0000e+00
       13  1    1    2    0    0 +3.0732869034e+02 -1.1559586795e+03 +1.4000787518e+02 1.2042813616e+03 0.0000000000e+00 0.0000e+00 1.0000e+00
<mgrwt>
<rscale>  0 0.24142021E+04</rscale>
<asrwt>0</asrwt>
<pdfrwt beam="1">  1        2 0.18227766E+00 0.24142021E+04</pdfrwt>
<pdfrwt beam="2">  1       -2 0.18920261E+00 0.24142021E+04</pdfrwt>
<totfact> 0.30949174E+00</totfact>
</mgrwt>
<rwgt>
<wgt id='morphing_basis_vector_1'> +1.0576644e-04 </wgt>
<wgt id='morphing_basis_vector_2'> +7.6152882e-05 </wgt>
<wgt id='morphing_basis_vector_3'> +1.1520871e-04 </wgt>
<wgt id='morphing_basis_vector_4'> +7.4314775e-05 </wgt>
<wgt id='morphing_basis_vector_5'> +1.2552640e-04 </wgt>
</rwgt>
</event>
<event>
 4      1 +2.2016400e-08 2.51156000e+03 7.81860800e-03 7.88901700e-02
        2 -1    0    0  501    0 +0.0000000000e+00 +0.0000000000e+00 +1.1509354144e+03 1.1509354144e+03 0.0000000000e+00 0.0000e+00 1.0000e+00
       -2 -1    0    0    0  501 -0.0000000000e+00 -0.0000000000e+00 -1.3701757205e+03 1.3701757205e+03 0.0000000000e+00 0.0000e+00 -1.0000e+00
      -13  1    1    2    0    0 -1.7242837186e+02 +5.0796655608e+02 -1.2493771609e+03 1.3596708630e+03 0.0000000000e+00 0.0000e+00 -1.0000e+00
       13  1    1    2    0    0 +1.7242837186e+02 -5.0796655608e+02 +1.0301368548e+03 1.1614402719e+03 0.0000000000e+00 0.0000e+00 1.0000e+00
<mgrwt>
<rscale>  0 0.25115603E+04</rscale>
<asrwt>0</asrwt>
<pdfrwt beam="1">  1        2 0.17706699E+00 0.25115603E+04</pdfrwt>
<pdfrwt beam="2">  1       -2 0.21079626E+00 0.25115603E+04</pdfrwt>
<totfact> 0.22338990E+00</totfact>
</mgrwt>
<rwgt>
<wgt id='morphing_basis_vector_1'> +1.2094714e-04 </wgt>
<wgt id='morphing_basis_vector_2'> +8.1207663e-05 </wgt>
<wgt id='morphing_basis_vector_3'> +1.3085497e-04 </wgt>
<wgt id='morphing_basis_vector_4'> +9.2713443e-05 </wgt>
<wgt id='morphing_basis_vector_5'> +1.4778395e-04 </wgt>
</rwgt>
</event>
<event>
 4      1 +2.2016400e-08 2.53026500e+03 7.81860800e-03 7.88321100e-02
        2 -1    0    0  501    0 +0.0000000000e+00 +0.0000000000e+00 +1.7187741222e+03 1.7187741222e+03 0.0000000000e+00 0.0000e+00 -1.0000e+00
       -2 -1    0    0    0  501 -0.0000000000e+00 -0.0000000000e+00 -9.3122205518e+02 9.3122205518e+02 0.0000000000e+00 0.0000e+00 1.0000e+00
      -13  1    1    2    0    0 +4.6988618687e+02 +2.4405671194e+02 -8.0959537513e+02 9.6736827460e+02 0.0000000000e+00 0.0000e+00 1.0000e+00
       13  1    1    2    0    0 -4.6988618687e+02 -2.4405671194e+02 +1.5971474422e+03 1.6826279028e+03 0.0000000000e+00 0.0000e+00 -1.0000e+00
<mgrwt>
<rscale>  0 0.25302651E+04</rscale>
<asrwt>0</asrwt>
<pdfrwt beam="1">  1        2 0.26442679E+00 0.25302651E+04</pdfrwt>
<pdfrwt beam="2">  1       -2 0.14326493E+00 0.25302651E+04</pdfrwt>
<totfact> 0.35269068E+00</totfact>
</mgrwt>
<rwgt>
<wgt id='morphing_basis_vector_1'> +1.2454214e-04 </wgt>
<wgt id='morphing_basis_vector_2'> +8.3637726e-05 </wgt>
<wgt id='morphing_basis_vector_3'> +1.3479127e-04 </wgt>
<wgt id='morphing_basis_vector_4'> +9.5543344e-05 </wgt>
<wgt id='morphing_basis_vector_5'> +1.5229296e-04 </wgt>
</rwgt>
</event>
<event>
 4      1 +2.2016400e-08 2.33677000e+03 7.81860800e-03 7.94590900e-02
        2 -1    0    0  501    0 +0.0000000000e+00 +0.0000000000e+00 +2.3213217440e+03 2.3213217440e+03 0.0000000000e+00 0.0000e+00 1.0000e+00
       -2 -1    0    0    0  501 -0.0000000000e+00 -0.0000000000e+00 -5.8808009645e+02 5.8808009645e+02 0.0000000000e+00 0.0000e+00 -1.0000e+00
      -13  1    1    2    0    0 +3.8547807783e+02 -8.4170659525e+02 -2.0831863326e+01 9.2601150506e+02 0.0000000000e+00 0.0000e+00 -1.0000e+00
       13  1    1    2    0    0 -3.8547807783e+02 +8.4170659525e+02 +1.7540735109e+03 1.9833903354e+03 0.0000000000e+00 0.0000e+00 1.0000e+00
<mgrwt>
<rscale>  0 0.23367697E+04</rscale>
<asrwt>0</asrwt>
<pdfrwt beam="1">  1        2 0.35712642E+00 0.23367697E+04</pdfrwt>
<pdfrwt beam="2">  1       -2 0.90473862E-01 0.23367697E+04</pdfrwt>
<totfact> 0.52769964E+00</totfact>
</mgrwt>
<rwgt>
<wgt id='morphing_basis_vector_1'> +9.1202275e-05 </wgt>
<wgt id='morphing_basis_vector_2'> +6.1562889e-05 </wgt>
<wgt id='morphing_basis_vector_3'> +9.8398922e-05 </wgt>
<wgt id='morphing_basis_vector_4'> +6.8790575e-05 </wgt>
<wgt id='morphing_basis_vector_5'> +1.1027354e-04 </wgt>
</rwgt>
</event>
<event>
 4      1 +2.2016400e-08 2.24900100e+03 7.81860800e-03 7.97644200e-02
        2 -1    0    0  501    0 +0.0000000000e+00 +0.0000000000e+00 +9.4127629028e+02 9.4127629028e+02 0.0000000000e+00 0.0000e+00 1.0000e+00
       -2 -1    0    0    0  501 -0.0000000000e+00 -0.0000000000e+00 -1.3433900508e+03 1.3433900508e+03 0.0000000000e+00 0.0000e+00 -1.0000e+00
      -13  1    1    2    0    0 +8.9396712905e+02 +5.9144347522e+02 +1.4421332761e+02 1.0815637272e+03 0.0000000000e+00 0.0000e+00 -1.0000e+00
       13  1    1    2    0    0 -8.9396712905e+02 -5.9144347522e+02 -5.4632708813e+02 1.2031026138e+03 0.0000000000e+00 0.0000e+00 1.0000e+00
<mgrwt>
<rscale>  0 0.22490008E+04</rscale>
<asrwt>0</asrwt>
<pdfrwt beam="1">  1        2 0.14481174E+00 0.22490008E+04</pdfrwt>
<pdfrwt beam="2">  1       -2 0.20667539E+00 0.22490008E+04</pdfrwt>
<totfact> 0.32888096E+00</totfact>
</mgrwt>
<rwgt>
<wgt id='morphing_basis_vector_1'> +8.6267459e-05 </wgt>
<wgt id='morphing_basis_vector_2'> +7.6009953e-05 </wgt>
<wgt id='morphing_basis_vector_3'> +9.6158654e-05 </wgt>
<wgt id='morphing_basis_vector_4'> +4.3042680e-05 </wgt>
<wgt id='morphing_basis_vector_5'> +9.3125269e-05 </wgt>
</rwgt>
</event>
<event>
 4      1 +2.2016400e-08 2.41068500e+03 7.81860800e-03 7.92124700e-02
        2 -1    0    0  501    0 +0.0000000000e+00 +0.0000000000e+00 +2.1492428047e+03 2.1492428047e+03 0.0000000000e+00 0.0000e+00 -1.0000e+00
       -2 -1    0    0    0  501 -0.0000000000e+00 -0.0000000000e+00 -6.7598223893e+02 6.7598223893e+02 0.0000000000e+00 0.0000e+00 1.0000e+00
      -13  1    1    2    0    0 -3.8563143051e+02 +1.1311558173e+03 +5.5272266048e+02 1.3167108348e+03 0.0000000000e+00 0.0000e+00 1.0000e+00
       13  1    1    2    0    0 +3.8563143051e+02 -1.1311558173e+03 +9.2053790533e+02 1.5085142088e+03 0.0000000000e+00 0.0000e+00 -1.0000e+00
<mgrwt>
<rscale>  0 0.24106845E+04</rscale>
<asrwt>0</asrwt>
<pdfrwt beam="1">  1        2 0.33065274E+00 0.24106845E+04</pdfrwt>
<pdfrwt beam="2">  1       -2 0.10399727E+00 0.24106845E+04</pdfrwt>
<totfact> 0.47229115E+00</totfact>
</mgrwt>
<rwgt>
<wgt id='morphing_basis_vector_1'> +1.0519889e-04 </wgt>
<wgt id='morphing_basis_vector_2'> +7.5828033e-05 </wgt>
<wgt id='morphing_basis_vector_3'> +1.1459790e-04 </wgt>
<wgt id='morphing_basis_vector_4'> +7.3797324e-05 </wgt>
<wgt id='morphing_basis_vector_5'> +1.2478001e-04 </wgt>
</rwgt>
</event>
<event>
 4      1 +2.2016400e-08 2.46592500e+03 7.81860800e-03 7.90340200e-02
        2 -1    0    0  501    0 +0.0000000000e+00 +0.0000000000e+00 +8.5033438265e+02 8.5033438265e+02 0.0000000000e+00 0.0000e+00 1.0000e+00
       -2 -1    0    0    0  501 -0.0000000000e+00 -0.0000000000e+00 -1.7877628857e+03 1.7877628857e+03 0.0000000000e+00 0.0000e+00 -1.0000e+00
      -13  1    1    2    0    0 +1.5889492929e+02 +1.0327553652e+03 +2.3147908459e+02 1.0702400710e+03 0.0000000000e+00 0.0000e+00 -1.0000e+00
       13  1    1    2    0    0 -1.5889492929e+02 -1.0327553652e+03 -1.1689075877e+03 1.5678571974e+03 0.0000000000e+00 0.0000e+00 1.0000e+00
<mgrwt>
<rscale>  0 0.24659248E+04</rscale>
<asrwt>0</asrwt>
<pdfrwt beam="1">  1        2 0.13082067E+00 0.24659248E+04</pdfrwt>
<pdfrwt beam="2">  1       -2 0.27504044E+00 0.24659248E+04</pdfrwt>
<totfact> 0.12329803E+00</totfact>
</mgrwt>
<rwgt>
<wgt id='morphing_basis_vector_1'> +1.3495159e-04 </wgt>
<wgt id='morphing_basis_vector_2'> +1.4174988e-04 </wgt>
<wgt id='morphing_basis_vector_3'> +1.5579390e-04 </wgt>
<wgt id='morphing_basis_vector_4'> +4.0140113e-05 </wgt>
<wgt id='morphing_basis_vector_5'> +1.3348399e-04 </wgt>
</rwgt>
</event>
<event>
 4      1 +2.2016400e-08 2.26536800e+03 7.81860800e-03 7.97064000e-02
        2 -1    0    0  501    0 +0.0000000000e+00 +0.0000000000e+00 +2.2755048860e+03 2.2755048860e+03 0.0000000000e+00 0.0000e+00 1.0000e+00
       -2 -1    0    0    0  501 -0.0000000000e+00 -0.0000000000e+00 -5.6381912109e+02 5.6381912109e+02 0.0000000000e+00 0.0000e+00 -1.0000e+00
      -13  1    1    2    0    0 -2.0191360518e+02 -4.8669656868e+02 -4.0085419227e+02 6.6206248752e+02 0.0000000000e+00 0.0000e+00 -1.0000e+00
       13  1    1    2    0    0 +2.0191360518e+02 +4.8669656868e+02 +2.1125399572e+03 2.1772615196e+03 0.0000000000e+00 0.0000e+00 1.0000e+00
<mgrwt>
<rscale>  0 0.22653681E+04</rscale>
<asrwt>0</asrwt>
<pdfrwt beam="1">  1        2 0.35007767E+00 0.22653681E+04</pdfrwt>
<pdfrwt beam="2">  1       -2 0.86741405E-01 0.22653681E+04</pdfrwt>
<totfact> 0.62271098E+00</totfact>
</mgrwt>
<rwgt>
<wgt id='morphing_basis_vector_1'> +8.0530683e-05 </wgt>
<wgt id='morphing_basis_vector_2'> +5.3892006e-05 </wgt>
<wgt id='morphing_basis_vector_3'> +8.6656585e-05 </wgt>
<wgt id='morphing_basis_vector_4'> +6.1011661e-05 </wgt>
<wgt id='morphing_basis_vector_5'> +9.7246901e-05 </wgt>
</rwgt>
</event>
<event>
 4      1 +2.2016400e-08 2.32258200e+03 7.81860800e-03 7.95075000e-02
        2 -1    0    0  501    0 +0.0000000000e+00 +0.0000000000e+00 +3.1154122734e+03 3.1154122734e+03 0.0000000000e+00 0.0000e+00 1.0000e+00
       -2 -1    0    0    0  501 -0.0000000000e+00 -0.0000000000e+00 -4.3287918976e+02 4.3287918976e+02 0.0000000000e+00 0.0000e+00 -1.0000e+00
      -13  1    1    2    0    0 -1.7629923029e+01 +5.5466310371e+02 -2.1719978381e+02 5.9593432431e+02 0.0000000000e+00 0.0000e+00 -1.0000e+00
       13  1    1    2    0    0 +1.7629923029e+01 -5.5466310371e+02 +2.8997328675e+03 2.9523571389e+03 0.0000000000e+00 0.0000e+00 1.0000e+00
<mgrwt>
<rscale>  0 0.23225823E+04</rscale>
<asrwt>0</asrwt>
<pdfrwt beam="1">  1        2 0.47929418E+00 0.23225823E+04</pdfrwt>
<pdfrwt beam="2">  1       -2 0.66596800E-01 0.23225823E+04</pdfrwt>
<totfact> 0.33739295E+00</totfact>
</mgrwt>
<rwgt>
<wgt id='morphing_basis_vector_1'> +8.8844513e-05 </wgt>
<wgt id='morphing_basis_vector_2'> +5.9513391e-05 </wgt>
<wgt id='morphing_basis_vector_3'> +9.5739127e-05 </wgt>
<wgt id='morphing_basis_vector_4'> +6.7508820e-05 </wgt>
<wgt id='morphing_basis_vector_5'> +1.0761303e-04 </wgt>
</rwgt>
</event>
<event>
 4      1 +2.2016400e-08 2.23481300e+03 7.81860800e-03 7.98151200e-02
        2 -1    0    0  501    0 +0.0000000000e+00 +0.0000000000e+00 +1.2274193744e+03 1.2274193744e+03 0.0000000000e+00 0.0000e+00 1.0000e+00
       -2 -1    0    0    0  501 -0.0000000000e+00 -0.0000000000e+00 -1.0172541739e+03 1.0172541739e+03 0.0000000000e+00 0.0000e+00 -1.0000e+00
      -13  1    1    2    0    0 -3.4568270541e+02 -8.2276897135e+02 -5.7030685366e+02 1.0591011379e+03 0.0000000000e+00 0.0000e+00 -1.0000e+00
       13  1    1    2    0    0 +3.4568270541e+02 +8.2276897135e+02 +7.8047205411e+02 1.1855724104e+03 0.0000000000e+00 0.0000e+00 1.0000e+00
<mgrwt>
<rscale>  0 0.22348132E+04</rscale>
<asrwt>0</asrwt>
<pdfrwt beam="1">  1        2 0.18883375E+00 0.22348132E+04</pdfrwt>
<pdfrwt beam="2">  1       -2 0.15650064E+00 0.22348132E+04</pdfrwt>
<totfact> 0.53181047E+00</totfact>
</mgrwt>
<rwgt>
<wgt id='morphing_basis_vector_1'> +7.6518447e-05 </wgt>
<wgt id='morphing_basis_vector_2'> +5.1590076e-05 </wgt>
<wgt id='morphing_basis_vector_3'> +8.2348299e-05 </wgt>
<wgt id='morphing_basis_vector_4'> +5.7375800e-05 </wgt>
<wgt id='morphing_basis_vector_5'> +9.1997190e-05 </wgt>
</rwgt>
</event>
<event>
 4      1 +2.2016400e-08 2.33590900e+03 7.81860800e-03 7.94620200e-02
        2 -1    0    0  501    0 +0.0000000000e+00 +0.0000000000e+00 +2.4643081284e+03 2.4643081284e+03 0.0000000000e+00 0.0000e+00 1.0000e+00
       -2 -1    0    0    0  501 -0.0000000000e+00 -0.0000000000e+00 -5.5355005457e+02 5.5355005457e+02 0.0000000000e+00 0.0000e+00 -1.0000e+00
      -13  1    1    2    0    0 +6.9559052520e+02 -8.6696966910e+02 +4.9201429800e+02 1.2155495281e+03 0.0000000000e+00 0.0000e+00 -1.0000e+00
       13  1    1    2    0    0 -6.9559052520e+02 +8.6696966910e+02 +1.4187437758e+03 1.8023086549e+03 0.0000000000e+00 0.0000e+00 1.0000e+00
<mgrwt>
<rscale>  0 0.23359092E+04</rscale>
<asrwt>0</asrwt>
<pdfrwt beam="1">  1        2 0.37912432E+00 0.23359092E+04</pdfrwt>
<pdfrwt beam="2">  1       -2 0.85161548E-01 0.23359092E+04</pdfrwt>
<totfact> 0.50069118E+00</totfact>
</mgrwt>
<rwgt>
<wgt id='morphing_basis_vector_1'> +9.1861953e-05 </wgt>
<wgt id='morphing_basis_vector_2'> +6.3811758e-05 </wgt>
<wgt id='morphing_basis_vector_3'> +9.9448351e-05 </wgt>
<wgt id='morphing_basis_vector_4'> +6.7077308e-05 </wgt>
<wgt id='morphing_basis_vector_5'> +1.0997918e-04 </wgt>
</rwgt>
</event>
<event>
 4      1 +2.2016400e-08 2.64030500e+03 7.81860800e-03 7.85006200e-02
        2 -1    0    0  501    0 +0.0000000000e+00 +0.0000000000e+00 +8.6989089869e+02 8.6989089869e+02 0.0000000000e+00 0.0000e+00 -1.0000e+00
       -2 -1    0    0    0  501 -0.0000000000e+00 -0.0000000000e+00 -2.0034730535e+03 2.0034730535e+03 0.0000000000e+00 0.0000e+00 1.0000e+00
      -13  1    1    2    0    0 -9.3598540320e+02 +8.5636956587e+02 -9.6421883054e+02 1.5934727677e+03 0.0000000000e+00 0.0000e+00 1.0000e+00
       13  1    1    2    0    0 +9.3598540320e+02 -8.5636956587e+02 -1.6936332423e+02 1.2798911844e+03 0.0000000000e+00 0.0000e+00 -1.0000e+00
<mgrwt>
<rscale>  0 0.26403053E+04</rscale>
<asrwt>0</asrwt>
<pdfrwt beam="1">  1        2 0.13382937E+00 0.26403053E+04</pdfrwt>
<pdfrwt beam="2">  1       -2 0.30822662E+00 0.26403053E+04</pdfrwt>
<totfact> 0.70263541E-01</totfact>
</mgrwt>
<rwgt>
<wgt id='morphing_basis_vector_1'> +1.4920255e-04 </wgt>
<wgt id='morphing_basis_vector_2'> +1.0452626e-04 </wgt>
<wgt id='morphing_basis_vector_3'> +1.6263139e-04 </wgt>
<wgt id='morphing_basis_vector_4'> +1.0969972e-04 </wgt>
<wgt id='morphing_basis_vector_5'> +1.8062324e-04 </wgt>
</rwgt>
</event>
<event>
 4      1 +2.2016400e-08 2.43165100e+03 7.81860800e-03 7.91441700e-02
        2 -1    0    0  501    0 +0.0000000000e+00 +0.0000000000e+00 +1.7580725191e+03 1.7580725191e+03 0.0000000000e+00 0.0000e+00 -1.0000e+00
       -2 -1    0    0    0  501 -0.0000000000e+00 -0.0000000000e+00 -8.4082484878e+02 8.4082484878e+02 0.0000000000e+00 0.0000e+00 1.0000e+00
      -13  1    1    2    0    0 -1.1869182503e+03 +1.0003827752e+02 +1.9803349484e+02 1.2074766478e+03 0.0000000000e+00 0.0000e+00 1.0000e+00
       13  1    1    2    0    0 +1.1869182503e+03 -1.0003827752e+02 +7.1921417547e+02 1.3914207200e+03 0.0000000000e+00 0.0000e+00 -1.0000e+00
<mgrwt>
<rscale>  0 0.24316505E+04</rscale>
<asrwt>0</asrwt>
<pdfrwt beam="1">  1        2 0.27047269E+00 0.24316505E+04</pdfrwt>
<pdfrwt beam="2">  1       -2 0.12935767E+00 0.24316505E+04</pdfrwt>
<totfact> 0.44728896E+00</totfact>
</mgrwt>
<rwgt>
<wgt id='morphing_basis_vector_1'> +1.0827734e-04 </wgt>
<wgt id='morphing_basis_vector_2'> +7.6779196e-05 </wgt>
<wgt id='morphing_basis_vector_3'> +1.1776001e-04 </wgt>
<wgt id='morphing_basis_vector_4'> +7.7612108e-05 </wgt>
<wgt id='morphing_basis_vector_5'> +1.2933398e-04 </wgt>
</rwgt>
</event>
<event>
 4      1 +2.2016400e-08 2.25498100e+03 7.81860800e-03 7.97431600e-02
        2 -1    0    0  501    0 +0.0000000000e+00 +0.0000000000e+00 +2.2370766437e+03 2.2370766437e+03 0.0000000000e+00 0.0000e+00 -1.0000e+00
       -2 -1    0    0    0  501 -0.0000000000e+00 -0.0000000000e+00 -5.6825735062e+02 5.6825735062e+02 0.0000000000e+00 0.0000e+00 1.0000e+00
      -13  1    1    2    0    0 -1.0605125559e+03 -2.4301523483e+02 +1.2023908974e+03 1.6215693497e+03 0.0000000000e+00 0.0000e+00 1.0000e+00
       13  1    1    2    0    0 +1.0605125559e+03 +2.4301523483e+02 +4.6642839568e+02 1.1837646447e+03 0.0000000000e+00 0.0000e+00 -1.0000e+00
<mgrwt>
<rscale>  0 0.22549814E+04</rscale>
<asrwt>0</asrwt>
<pdfrwt beam="1">  1        2 0.34416563E+00 0.22549814E+04</pdfrwt>
<pdfrwt beam="2">  1       -2 0.87424209E-01 0.22549814E+04</pdfrwt>
<totfact> 0.64407308E+00</totfact>
</mgrwt>
<rwgt>
<wgt id='morphing_basis_vector_1'> +8.6198080e-05 </wgt>
<wgt id='morphing_basis_vector_2'> +7.3929449e-05 </wgt>
<wgt id='morphing_basis_vector_3'> +9.5727839e-05 </wgt>
<wgt id='morphing_basis_vector_4'> +4.5485139e-05 </wgt>
<wgt id='morphing_basis_vector_5'> +9.4293616e-05 </wgt>
</rwgt>
</event>
<event>
 4      1 +2.2016400e-08 2.41815800e+03 7.81860800e-03 7.91880500e-02
        2 -1    0    0  501    0 +0.0000000000e+00 +0.0000000000e+00 +6.4112133056e+02 6.4112133056e+02 0.0000000000e+00 0.0000e+00 -1.0000e+00
       -2 -1    0    0    0  501 -0.0000000000e+00 -0.0000000000e+00 -2.2801797023e+03 2.2801797023e+03 0.0000000000e+00 0.0000e+00 1.0000e+00
      -13  1    1    2    0    0 -1.6189943579e+02 -6.5755792972e+02 -2.0295763755e+03 2.1395733505e+03 0.0000000000e+00 0.0000e+00 1.0000e+00
       13  1    1    2    0    0 +1.6189943579e+02 +6.5755792972e+02 +3.9051800369e+02 7.8172768241e+02 0.0000000000e+00 0.0000e+00 -1.0000e+00
<mgrwt>
<rscale>  0 0.24181578E+04</rscale>
<asrwt>0</asrwt>
<pdfrwt beam="1">  1        2 0.98634052E-01 0.24181578E+04</pdfrwt>
<pdfrwt beam="2">  1       -2 0.35079687E+00 0.24181578E+04</pdfrwt>
<totfact> 0.54915443E-01</totfact>
</mgrwt>
<rwgt>
<wgt id='morphing_basis_vector_1'> +1.0417234e-04 </wgt>
<wgt id='morphing_basis_vector_2'> +6.9921311e-05 </wgt>
<wgt id='morphing_basis_vector_3'> +1.1250669e-04 </wgt>
<wgt id='morphing_basis_vector_4'> +7.9463464e-05 </wgt>
<wgt id='morphing_basis_vector_5'> +1.2673838e-04 </wgt>
</rwgt>
</event>
<event>
 4      1 +2.2016400e-08 2.41603700e+03 7.81860800e-03 7.91949700e-02
        2 -1    0    0  501    0 +0.0000000000e+00 +0.0000000000e+00 +1.5884816794e+03 1.5884816794e+03 0.0000000000e+00 0.0000e+00 1.0000e+00
       -2 -1    0    0    0  501 -0.0000000000e+00 -0.0000000000e+00 -9.1868164528e+02 9.1868164528e+02 0.0000000000e+00 0.0000e+00 -1.0000e+00
      -13  1    1    2    0    0 +1.7346370018e+02 -9.3595019213e+02 -4.3693874597e+02 1.0473814421e+03 0.0000000000e+00 0.0000e+00 -1.0000e+00
       13  1    1    2    0    0 -1.7346370018e+02 +9.3595019213e+02 +1.1067387801e+03 1.4597818826e+03 0.0000000000e+00 0.0000e+00 1.0000e+00
<mgrwt>
<rscale>  0 0.24160372E+04</rscale>
<asrwt>0</asrwt>
<pdfrwt beam="1">  1        2 0.24438180E+00 0.24160372E+04</pdfrwt>
<pdfrwt beam="2">  1       -2 0.14133564E+00 0.24160372E+04</pdfrwt>
<totfact> 0.43710998E+00</totfact>
</mgrwt>
<rwgt>
<wgt id='morphing_basis_vector_1'> +1.0401270e-04 </wgt>
<wgt id='morphing_basis_vector_2'> +7.0268853e-05 </wgt>
<wgt id='morphing_basis_vector_3'> +1.1241679e-04 </wgt>
<wgt id='morphing_basis_vector_4'> +7.8772590e-05 </wgt>
<wgt id='morphing_basis_vector_5'> +1.2625529e-04 </wgt>
</rwgt>
</event>
<event>
 4      1 +2.2016400e-08 2.38248500e+03 7.81860800e-03 7.93054800e-02
        2 -1    0    0  501    0 +0.0000000000e+00 +0.0000000000e+00 +1.2195692250e+03 1.2195692250e+03 0.0000000000e+00 0.0000e+00 -1.0000e+00
       -2 -1    0    0    0  501 -0.0000000000e+00 -0.0000000000e+00 -1.1635732839e+03 1.1635732839e+03 0.0000000000e+00 0.0000e+00 1.0000e+00
      -13  1    1    2    0    0 +6.3574568789e+02 -6.2003198889e+02 -7.6622755083e+02 1.1729095901e+03 0.0000000000e+00 0.0000e+00 1.0000e+00
       13  1    1    2    0    0 -6.3574568789e+02 +6.2003198889e+02 +8.2222349193e+02 1.2102329187e+03 0.0000000000e+00 0.0000e+00 -1.0000e+00
<mgrwt>
<rscale>  0 0.23824846E+04</rscale>
<asrwt>0</asrwt>
<pdfrwt beam="1">  1        2 0.18762604E+00 0.23824846E+04</pdfrwt>
<pdfrwt beam="2">  1       -2 0.17901127E+00 0.23824846E+04</pdfrwt>
<totfact> 0.35335268E+00</totfact>
</mgrwt>
<rwgt>
<wgt id='morphing_basis_vector_1'> +9.8366387e-05 </wgt>
<wgt id='morphing_basis_vector_2'> +6.6274910e-05 </wgt>
<wgt id='morphing_basis_vector_3'> +1.0620796e-04 </wgt>
<wgt id='morphing_basis_vector_4'> +7.4564103e-05 </wgt>
<wgt id='morphing_basis_vector_5'> +1.1930442e-04 </wgt>
</rwgt>
</event>
<event>
 4      1 +2.2016400e-08 2.49366400e+03 7.81860800e-03 7.89462000e-02
        2 -1    0    0  501    0 +0.0000000000e+00 +0.0000000000e+00 +2.3110137068e+03 2.3110137068e+03 0.0000000000e+00 0.0000e+00 1.0000e+00
       -2 -1    0    0    0  501 -0.0000000000e+00 -0.0000000000e+00 -6.7268729210e+02 6.7268729210e+02 0.0000000000e+00 0.0000e+00 -1.0000e+00
      -13  1    1    2    0    0 +7.5523374992e+02 -8.9499641481e+02 +3.0704311728e+02 1.2106494436e+03 0.0000000000e+00 0.0000e+00 -1.0000e+00
       13  1    1    2    0    0 -7.5523374992e+02 +8.9499641481e+02 +1.3312832974e+03 1.7730515552e+03 0.0000000000e+00 0.0000e+00 1.0000e+00
<mgrwt>
<rscale>  0 0.24936636E+04</rscale>
<asrwt>0</asrwt>
<pdfrwt beam="1">  1        2 0.35554057E+00 0.24936636E+04</pdfrwt>
<pdfrwt beam="2">  1       -2 0.10349035E+00 0.24936636E+04</pdfrwt>
<totfact> 0.38305108E+00</totfact>
</mgrwt>
<rwgt>
<wgt id='morphing_basis_vector_1'> +1.1868243e-04 </wgt>
<wgt id='morphing_basis_vector_2'> +8.2182261e-05 </wgt>
<wgt id='morphing_basis_vector_3'> +1.2885015e-04 </wgt>
<wgt id='morphing_basis_vector_4'> +8.7808828e-05 </wgt>
<wgt id='morphing_basis_vector_5'> +1.4338104e-04 </wgt>
</rwgt>
</event>
<event>
 4      1 +2.2016400e-08 2.43142700e+03 7.81860800e-03 7.91448900e-02
        2 -1    0    0  501    0 +0.0000000000e+00 +0.0000000000e+00 +3.2723264614e+03 3.2723264614e+03 0.0000000000e+00 0.0000e+00 -1.0000e+00
       -2 -1    0    0    0  501 -0.0000000000e+00 -0.0000000000e+00 -4.5165417366e+02 4.5165417366e+02 0.0000000000e+00 0.0000e+00 1.0000e+00
      -13  1    1    2    0    0 -1.0145922506e+03 +5.3672148201e+02 +2.0239193861e+03 2.3267395784e+03 0.0000000000e+00 0.0000e+00 1.0000e+00
       13  1    1    2    0    0 +1.0145922506e+03 -5.3672148201e+02 +7.9675290157e+02 1.3972410566e+03 0.0000000000e+00 0.0000e+00 -1.0000e+00
<mgrwt>
<rscale>  0 0.24314275E+04</rscale>
<asrwt>0</asrwt>
<pdfrwt beam="1">  1        2 0.50343482E+00 0.24314275E+04</pdfrwt>
<pdfrwt beam="2">  1       -2 0.69485260E-01 0.24314275E+04</pdfrwt>
<totfact> 0.23896695E+00</totfact>
</mgrwt>
<rwgt>
<wgt id='morphing_basis_vector_1'> +1.1829599e-04 </wgt>
<wgt id='morphing_basis_vector_2'> +1.0643993e-04 </wgt>
<wgt id='morphing_basis_vector_3'> +1.3299447e-04 </wgt>
<wgt id='morphing_basis_vector_4'> +5.7034503e-05 </wgt>
<wgt id='morphing_basis_vector_5'> +1.2762502e-04 </wgt>
</rwgt>
</event>
<event>
 4      1 +2.2016400e-08 2.32529300e+03 7.81860800e-03 7.94982200e-02
        2 -1    0    0  501    0 +0.0000000000e+00 +0.0000000000e+00 +1.4751458922e+03 1.4751458922e+03 0.0000000000e+00 0.0000e+00 -1.0000e+00
       -2 -1    0    0    0  501 -0.0000000000e+00 -0.0000000000e+00 -9.1634800640e+02 9.1634800640e+02 0.0000000000e+00 0.0000e+00 1.0000e+00
      -13  1    1    2    0    0 -2.4059729552e+02 -7.0716310383e+02 -6.3690958487e+02 9.8164175406e+02 0.0000000000e+00 0.0000e+00 1.0000e+00
       13  1    1    2    0    0 +2.4059729552e+02 +7.0716310383e+02 +1.1957074707e+03 1.4098521445e+03 0.0000000000e+00 0.0000e+00 -1.0000e+00
<mgrwt>
<rscale>  0 0.23252931E+04</rscale>
<asrwt>0</asrwt>
<pdfrwt beam="1">  1        2 0.22694552E+00 0.23252931E+04</pdfrwt>
<pdfrwt beam="2">  1       -2 0.14097662E+00 0.23252931E+04</pdfrwt>
<totfact> 0.51335128E+00</totfact>
</mgrwt>
<rwgt>
<wgt id='morphing_basis_vector_1'> +8.9301966e-05 </wgt>
<wgt id='morphing_basis_vector_2'> +5.9932382e-05 </wgt>
<wgt id='morphing_basis_vector_3'> +9.6258972e-05 </wgt>
<wgt id='morphing_basis_vector_4'> +6.7731114e-05 </wgt>
<wgt id='morphing_basis_vector_5'> +1.0811592e-04 </wgt>
</rwgt>
</event>
<event>
 4      1 +2.2016400e-08 2.52081800e+03 7.81860800e-03 7.88613700e-02
        2 -1    0    0  501    0 +0.0000000000e+00 +0.0000000000e+00 +1.5136966416e+03 1.5136966416e+03 0.0000000000e+00 0.0000e+00 -1.0000e+00
       -2 -1    0    0    0  501 -0.0000000000e+00 -0.0000000000e+00 -1.0495037640e+03 1.0495037640e+03 0.0000000000e+00 0.0000e+00 1.0000e+00
      -13  1    1    2    0    0 +6.8137797637e+02 -7.9714765609e+01 -8.4303616495e+02 1.0868948275e+03 0.0000000000e+00 0.0000e+00 1.0000e+00
       13  1    1    2    0    0 -6.8137797637e+02 +7.9714765609e+01 +1.3072290425e+03 1.4763055782e+03 0.0000000000e+00 0.0000e+00 -1.0000e+00
<mgrwt>
<rscale>  0 0.25208176E+04</rscale>
<asrwt>0</asrwt>
<pdfrwt beam="1">  1        2 0.23287641E+00 0.25208176E+04</pdfrwt>
<pdfrwt beam="2">  1       -2 0.16146212E+00 0.25208176E+04</pdfrwt>
<totfact> 0.32553801E+00</totfact>
</mgrwt>
<rwgt>
<wgt id='morphing_basis_vector_1'> +1.2274264e-04 </wgt>
<wgt id='morphing_basis_vector_2'> +8.2480901e-05 </wgt>
<wgt id='morphing_basis_vector_3'> +1.3283220e-04 </wgt>
<wgt id='morphing_basis_vector_4'> +9.4052334e-05 </wgt>
<wgt id='morphing_basis_vector_5'> +1.4999852e-04 </wgt>
</rwgt>
</event>
<event>
 4      1 +2.2016400e-08 2.39312400e+03 7.81860800e-03 7.92702300e-02
        2 -1    0    0  501    0 +0.0000000000e+00 +0.0000000000e+00 +5.4892226816e+02 5.4892226816e+02 0.0000000000e+00 0.0000e+00 1.0000e+00
       -2 -1    0    0    0  501 -0.0000000000e+00 -0.0000000000e+00 -2.6083115415e+03 2.6083115415e+03 0.0000000000e+00 0.0000e+00 -1.0000e+00
      -13  1    1    2    0    0 -2.1116000373e+02 -4.4859412769e+02 -2.4664143315e+03 2.5157553325e+03 0.0000000000e+00 0.0000e+00 -1.0000e+00
       13  1    1    2    0    0 +2.1116000373e+02 +4.4859412769e+02 +4.0702505819e+02 6.4147847709e+02 0.0000000000e+00 0.0000e+00 1.0000e+00
<mgrwt>
<rscale>  0 0.23931237E+04</rscale>
<asrwt>0</asrwt>
<pdfrwt beam="1">  1        2 0.84449579E-01 0.23931237E+04</pdfrwt>
<pdfrwt beam="2">  1       -2 0.40127870E+00 0.23931237E+04</pdfrwt>
<totfact> 0.31221835E-01</totfact>
</mgrwt>
<rwgt>
<wgt id='morphing_basis_vector_1'> +9.9956742e-05 </wgt>
<wgt id='morphing_basis_vector_2'> +6.7007637e-05 </wgt>
<wgt id='morphing_basis_vector_3'> +1.0788396e-04 </wgt>
<wgt id='morphing_basis_vector_4'> +7.6235556e-05 </wgt>
<wgt id='morphing_basis_vector_5'> +1.2150540e-04 </wgt>
</rwgt>
</event>
<event>
 4      1 +2.2016400e-08 2.27967300e+03 7.81860800e-03 7.96561100e-02
        2 -1    0    0  501    0 +0.0000000000e+00 +0.0000000000e+00 +1.6686275074e+03 1.6686275074e+03 0.0000000000e+00 0.0000e+00 1.0000e+00
       -2 -1    0    0    0  501 -0.0000000000e+00 -0.0000000000e+00 -7.7862024181e+02 7.7862024181e+02 0.0000000000e+00 0.0000e+00 -1.0000e+00
      -13  1    1    2    0    0 -3.2388474798e+02 -1.0245358447e+03 +3.6714511278e+01 1.0751385875e+03 0.0000000000e+00 0.0000e+00 -1.0000e+00
       13  1    1    2    0    0 +3.2388474798e+02 +1.0245358447e+03 +8.5329275426e+02 1.3721091617e+03 0.0000000000e+00 0.0000e+00 1.0000e+00
<mgrwt>
<rscale>  0 0.22796729E+04</rscale>
<asrwt>0</asrwt>
<pdfrwt beam="1">  1        2 0.25671192E+00 0.22796729E+04</pdfrwt>
<pdfrwt beam="2">  1       -2 0.11978773E+00 0.22796729E+04</pdfrwt>
<totfact> 0.62199573E+00</totfact>
</mgrwt>
<rwgt>
<wgt id='morphing_basis_vector_1'> +8.3354277e-05 </wgt>
<wgt id='morphing_basis_vector_2'> +5.7629090e-05 </wgt>
<wgt id='morphing_basis_vector_3'> +9.0068185e-05 </wgt>
<wgt id='morphing_basis_vector_4'> +6.0963263e-05 </wgt>
<wgt id='morphing_basis_vector_5'> +9.9634908e-05 </wgt>
</rwgt>
</event>
<event>
 4      1 +2.2016400e-08 2.42375200e+03 7.81860800e-03 7.91698200e-02
        2 -1    0    0  501    0 +0.0000000000e+00 +0.0000000000e+00 +1.7856082486e+03 1.7856082486e+03 0.0000000000e+00 0.0000e+00 -1.0000e+00
       -2 -1    0    0    0  501 -0.0000000000e+00 -0.0000000000e+00 -8.2248885223e+02 8.2248885223e+02 0.0000000000e+00 0.0000e+00 1.0000e+00
      -13  1    1    2    0    0 +7.3273901080e+01 +1.1681365785e+03 +1.4344669514e+02 1.1791900123e+03 0.0000000000e+00 0.0000e+00 1.0000e+00
       13  1    1    2    0    0 -7.3273901080e+01 -1.1681365785e+03 +8.1967270125e+02 1.4289070886e+03 0.0000000000e+00 0.0000e+00 -1.0000e+00
<mgrwt>
<rscale>  0 0.24237515E+04</rscale>
<asrwt>0</asrwt>
<pdfrwt beam="1">  1        2 0.27470896E+00 0.24237515E+04</pdfrwt>
<pdfrwt beam="2">  1       -2 0.12653675E+00 0.24237515E+04</pdfrwt>
<totfact> 0.45804016E+00</totfact>
</mgrwt>
<rwgt>
<wgt id='morphing_basis_vector_1'> +1.0651362e-04 </wgt>
<wgt id='morphing_basis_vector_2'> +7.4662670e-05 </wgt>
<wgt id='morphing_basis_vector_3'> +1.1565663e-04 </wgt>
<wgt id='morphing_basis_vector_4'> +7.7377314e-05 </wgt>
<wgt id='morphing_basis_vector_5'> +1.2770233e-04 </wgt>
</rwgt>
</event>
<event>
 4      1 +2.2016400e-08 2.29191300e+03 7.81860800e-03 7.96133800e-02
        2 -1    0    0  501    0 +0.0000000000e+00 +0.0000000000e+00 +2.7307819773e+03 2.7307819773e+03 0.0000000000e+00 0.0000e+00 1.0000e+00
       -2 -1    0    0    0  501 -0.0000000000e+00 -0.0000000000e+00 -4.8089402271e+02 4.8089402271e+02 0.0000000000e+00 0.0000e+00 -1.0000e+00
      -13  1    1    2    0    0 -3.9896220325e+02 -8.7562298077e+02 +2.5282797457e+02 9.9489116430e+02 0.0000000000e+00 0.0000e+00 -1.0000e+00
       13  1    1    2    0    0 +3.9896220325e+02 +8.7562298077e+02 +1.9970599800e+03 2.2167848357e+03 0.0000000000e+00 0.0000e+00 1.0000e+00
<mgrwt>
<rscale>  0 0.22919134E+04</rscale>
<asrwt>0</asrwt>
<pdfrwt beam="1">  1        2 0.42012029E+00 0.22919134E+04</pdfrwt>
<pdfrwt beam="2">  1       -2 0.73983698E-01 0.22919134E+04</pdfrwt>
<totfact> 0.47614967E+00</totfact>
</mgrwt>
<rwgt>
<wgt id='morphing_basis_vector_1'> +8.4595629e-05 </wgt>
<wgt id='morphing_basis_vector_2'> +5.7287474e-05 </wgt>
<wgt id='morphing_basis_vector_3'> +9.1213009e-05 </wgt>
<wgt id='morphing_basis_vector_4'> +6.3388589e-05 </wgt>
<wgt id='morphing_basis_vector_5'> +1.0191273e-04 </wgt>
</rwgt>
</event>
<event>
 4      1 +2.2016400e-08 2.26344100e+03 7.81860800e-03 7.97132100e-02
        2 -1    0    0  501    0 +0.0000000000e+00 +0.0000000000e+00 +9.0286467141e+02 9.0286467141e+02 0.0000000000e+00 0.0000e+00 -1.0000e+00
       -2 -1    0    0    0  501 -0.0000000000e+00 -0.0000000000e+00 -1.4185857316e+03 1.4185857316e+03 0.0000000000e+00 0.0000e+00 1.0000e+00
      -13  1    1    2    0    0 -7.8121191593e+01 -1.0003237773e+03 -7.9476566232e+02 1.2800011867e+03 0.0000000000e+00 0.0000e+00 1.0000e+00
       13  1    1    2    0    0 +7.8121191593e+01 +1.0003237773e+03 +2.7904460213e+02 1.0414492163e+03 0.0000000000e+00 0.0000e+00 -1.0000e+00
<mgrwt>
<rscale>  0 0.22634407E+04</rscale>
<asrwt>0</asrwt>
<pdfrwt beam="1">  1        2 0.13890226E+00 0.22634407E+04</pdfrwt>
<pdfrwt beam="2">  1       -2 0.21824396E+00 0.22634407E+04</pdfrwt>
<totfact> 0.28727618E+00</totfact>
</mgrwt>
<rwgt>
<wgt id='morphing_basis_vector_1'> +8.0683268e-05 </wgt>
<wgt id='morphing_basis_vector_2'> +5.4956867e-05 </wgt>
<wgt id='morphing_basis_vector_3'> +8.6994744e-05 </wgt>
<wgt id='morphing_basis_vector_4'> +5.9946318e-05 </wgt>
<wgt id='morphing_basis_vector_5'> +9.6842633e-05 </wgt>
</rwgt>
</event>
<event>
 4      1 +2.2016400e-08 2.46635900e+03 7.81860800e-03 7.90326300e-02
        2 -1    0    0  501    0 +0.0000000000e+00 +0.0000000000e+00 +2.7753462077e+03 2.7753462077e+03 0.0000000000e+00 0.0000e+00 -1.0000e+00
       -2 -1    0    0    0  501 -0.0000000000e+00 -0.0000000000e+00 -5.4794314297e+02 5.4794314297e+02 0.0000000000e+00 0.0000e+00 1.0000e+00
      -13  1    1    2    0    0 +2.0175622767e+02 +1.1478957590e+03 +5.7075934240e+02 1.2977428388e+03 0.0000000000e+00 0.0000e+00 1.0000e+00
       13  1    1    2    0    0 -2.0175622767e+02 -1.1478957590e+03 +1.6566437224e+03 2.0255465119e+03 0.0000000000e+00 0.0000e+00 -1.0000e+00
<mgrwt>
<rscale>  0 0.24663592E+04</rscale>
<asrwt>0</asrwt>
<pdfrwt beam="1">  1        2 0.42697633E+00 0.24663592E+04</pdfrwt>
<pdfrwt beam="2">  1       -2 0.84298947E-01 0.24663592E+04</pdfrwt>
<totfact> 0.32785917E+00</totfact>
</mgrwt>
<rwgt>
<wgt id='morphing_basis_vector_1'> +1.1371540e-04 </wgt>
<wgt id='morphing_basis_vector_2'> +7.8898178e-05 </wgt>
<wgt id='morphing_basis_vector_3'> +1.2342417e-04 </wgt>
<wgt id='morphing_basis_vector_4'> +8.3815062e-05 </wgt>
<wgt id='morphing_basis_vector_5'> +1.3711189e-04 </wgt>
</rwgt>
</event>
<event>
 4      1 +2.2016400e-08 2.36078100e+03 7.81860800e-03 7.93779600e-02
        2 -1    0    0  501    0 +0.0000000000e+00 +0.0000000000e+00 +1.9725688067e+03 1.9725688067e+03 0.0000000000e+00 0.0000e+00 -1.0000e+00
       -2 -1    0    0    0  501 -0.0000000000e+00 -0.0000000000e+00 -7.0634868359e+02 7.0634868359e+02 0.0000000000e+00 0.0000e+00 1.0000e+00
      -13  1    1    2    0    0 -2.6102116469e+02 -6.8144488526e+02 -4.1972519707e+02 8.4182445980e+02 0.0000000000e+00 0.0000e+00 1.0000e+00
       13  1    1    2    0    0 +2.6102116469e+02 +6.8144488526e+02 +1.6859453202e+03 1.8370930305e+03 0.0000000000e+00 0.0000e+00 -1.0000e+00
<mgrwt>
<rscale>  0 0.23607807E+04</rscale>
<asrwt>0</asrwt>
<pdfrwt beam="1">  1        2 0.30347212E+00 0.23607807E+04</pdfrwt>
<pdfrwt beam="2">  1       -2 0.10866903E+00 0.23607807E+04</pdfrwt>
<totfact> 0.53551155E+00</totfact>
</mgrwt>
<rwgt>
<wgt id='morphing_basis_vector_1'> +9.4782480e-05 </wgt>
<wgt id='morphing_basis_vector_2'> +6.3616302e-05 </wgt>
<wgt id='morphing_basis_vector_3'> +1.0224578e-04 </wgt>
<wgt id='morphing_basis_vector_4'> +7.2047898e-05 </wgt>
<wgt id='morphing_basis_vector_5'> +1.1497230e-04 </wgt>
</rwgt>
</event>
<event>
 4      1 +2.2016400e-08 2.38773900e+03 7.81860800e-03 7.92880500e-02
        2 -1    0    0  501    0 +0.0000000000e+00 +0.0000000000e+00 +2.0964521421e+03 2.0964521421e+03 0.0000000000e+00 0.0000e+00 -1.0000e+00
       -2 -1    0    0    0  501 -0.0000000000e+00 -0.0000000000e+00 -6.7987431895e+02 6.7987431895e+02 0.0000000000e+00 0.0000e+00 1.0000e+00
      -13  1    1    2    0    0 -6.4241719758e+02 +9.9404023623e+02 +5.2626066390e+02 1.2952861203e+03 0.0000000000e+00 0.0000e+00 1.0000e+00
       13  1    1    2    0    0 +6.4241719758e+02 -9.9404023623e+02 +8.9031715928e+02 1.4810403408e+03 0.0000000000e+00 0.0000e+00 -1.0000e+00
<mgrwt>
<rscale>  0 0.23877387E+04</rscale>
<asrwt>0</asrwt>
<pdfrwt beam="1">  1        2 0.32253110E+00 0.23877387E+04</pdfrwt>
<pdfrwt beam="2">  1       -2 0.10459605E+00 0.23877387E+04</pdfrwt>
<totfact> 0.49999402E+00</totfact>
</mgrwt>
<rwgt>
<wgt id='morphing_basis_vector_1'> +1.0129686e-04 </wgt>
<wgt id='morphing_basis_vector_2'> +7.2976689e-05 </wgt>
<wgt id='morphing_basis_vector_3'> +1.1028464e-04 </wgt>
<wgt id='morphing_basis_vector_4'> +7.1007717e-05 </wgt>
<wgt id='morphing_basis_vector_5'> +1.2003436e-04 </wgt>
</rwgt>
</event>
<event>
 4      1 +2.2016400e-08 2.47766700e+03 7.81860800e-03 7.89967000e-02
        2 -1    0    0  501    0 +0.0000000000e+00 +0.0000000000e+00 +1.5915185375e+03 1.5915185375e+03 0.0000000000e+00 0.0000e+00 -1.0000e+00
       -2 -1    0    0    0  501 -0.0000000000e+00 -0.0000000000e+00 -9.6430457751e+02 9.6430457751e+02 0.0000000000e+00 0.0000e+00 1.0000e+00
      -13  1    1    2    0    0 +8.9508582576e+02 +7.6203063552e+02 -8.9671765147e+01 1.1789445917e+03 0.0000000000e+00 0.0000e+00 1.0000e+00
       13  1    1    2    0    0 -8.9508582576e+02 -7.6203063552e+02 +7.1688572516e+02 1.3768785233e+03 0.0000000000e+00 0.0000e+00 -1.0000e+00
<mgrwt>
<rscale>  0 0.24776671E+04</rscale>
<asrwt>0</asrwt>
<pdfrwt beam="1">  1        2 0.24484901E+00 0.24776671E+04</pdfrwt>
<pdfrwt beam="2">  1       -2 0.14835455E+00 0.24776671E+04</pdfrwt>
<totfact> 0.37804761E+00</totfact>
</mgrwt>
<rwgt>
<wgt id='morphing_basis_vector_1'> +1.1584508e-04 </wgt>
<wgt id='morphing_basis_vector_2'> +8.0517617e-05 </wgt>
<wgt id='morphing_basis_vector_3'> +1.2579034e-04 </wgt>
<wgt id='morphing_basis_vector_4'> +8.5263870e-05 </wgt>
<wgt id='morphing_basis_vector_5'> +1.3966759e-04 </wgt>
</rwgt>
</event>
<event>
 4      1 +2.2016400e-08 2.29369100e+03 7.81860800e-03 7.96071900e-02
        2 -1    0    0  501    0 +0.0000000000e+00 +0.0000000000e+00 +1.2548406834e+03 1.2548406834e+03 0.0000000000e+00 0.0000e+00 -1.0000e+00
       -2 -1    0    0    0  501 -0.0000000000e+00 -0.0000000000e+00 -1.0481442747e+03 1.0481442747e+03 0.0000000000e+00 0.0000e+00 1.0000e+00
      -13  1    1    2    0    0 +1.0053521207e+02 +7.0102375456e+02 +1.0090636128e+03 1.2327818168e+03 0.0000000000e+00 0.0000e+00 -1.0000e+00
       13  1    1    2    0    0 -1.0053521207e+02 -7.0102375456e+02 -8.0236720407e+02 1.0702031412e+03 0.0000000000e+00 0.0000e+00 1.0000e+00
<mgrwt>
<rscale>  0 0.22936905E+04</rscale>
<asrwt>0</asrwt>
<pdfrwt beam="1">  1        2 0.19305241E+00 0.22936905E+04</pdfrwt>
<pdfrwt beam="2">  1       -2 0.16125296E+00 0.22936905E+04</pdfrwt>
<totfact> 0.46712597E+00</totfact>
</mgrwt>
<rwgt>
<wgt id='morphing_basis_vector_1'> +1.1226223e-04 </wgt>
<wgt id='morphing_basis_vector_2'> +1.3843182e-04 </wgt>
<wgt id='morphing_basis_vector_3'> +1.3267619e-04 </wgt>
<wgt id='morphing_basis_vector_4'> +7.9736405e-06 </wgt>
<wgt id='morphing_basis_vector_5'> +9.7766360e-05 </wgt>
</rwgt>
</event>
<event>
 4      1 +2.2016400e-08 2.31928500e+03 7.81860800e-03 7.95188000e-02
        2 -1    0    0  501    0 +0.0000000000e+00 +0.0000000000e+00 +2.6577705986e+03 2.6577705986e+03 0.0000000000e+00 0.0000e+00 -1.0000e+00
       -2 -1    0    0    0  501 -0.0000000000e+00 -0.0000000000e+00 -5.0597694581e+02 5.0597694581e+02 0.0000000000e+00 0.0000e+00 1.0000e+00
      -13  1    1    2    0    0 +9.8048482804e+01 -1.0019238912e+03 +2.9072963679e+02 1.0478495648e+03 0.0000000000e+00 0.0000e+00 1.0000e+00
       13  1    1    2    0    0 -9.8048482804e+01 +1.0019238912e+03 +1.8610640160e+03 2.1158979797e+03 0.0000000000e+00 0.0000e+00 -1.0000e+00
<mgrwt>
<rscale>  0 0.23192849E+04</rscale>
<asrwt>0</asrwt>
<pdfrwt beam="1">  1        2 0.40888777E+00 0.23192849E+04</pdfrwt>
<pdfrwt beam="2">  1       -2 0.77842609E-01 0.23192849E+04</pdfrwt>
<totfact> 0.47054922E+00</totfact>
</mgrwt>
<rwgt>
<wgt id='morphing_basis_vector_1'> +8.8735519e-05 </wgt>
<wgt id='morphing_basis_vector_2'> +6.0321006e-05 </wgt>
<wgt id='morphing_basis_vector_3'> +9.5779821e-05 </wgt>
<wgt id='morphing_basis_vector_4'> +6.6334621e-05 </wgt>
<wgt id='morphing_basis_vector_5'> +1.0693093e-04 </wgt>
</rwgt>
</event>
<event>
 4      1 +2.2016400e-08 2.25766700e+03 7.81860800e-03 7.97336400e-02
        2 -1    0    0  501    0 +0.0000000000e+00 +0.0000000000e+00 +7.0560103385e+02 7.0560103385e+02 0.0000000000e+00 0.0000e+00 1.0000e+00
       -2 -1    0    0    0  501 -0.0000000000e+00 -0.0000000000e+00 -1.8059292933e+03 1.8059292933e+03 0.0000000000e+00 0.0000e+00 -1.0000e+00
      -13  1    1    2    0    0 +3.9946562537e+01 +3.4232023408e+02 -1.7459706912e+03 1.7796607894e+03 0.0000000000e+00 0.0000e+00 -1.0000e+00
       13  1    1    2    0    0 -3.9946562537e+01 -3.4232023408e+02 +6.4564243183e+02 7.3186953776e+02 0.0000000000e+00 0.0000e+00 1.0000e+00
<mgrwt>
<rscale>  0 0.22576674E+04</rscale>
<asrwt>0</asrwt>
<pdfrwt beam="1">  1        2 0.10855401E+00 0.22576674E+04</pdfrwt>
<pdfrwt beam="2">  1       -2 0.27783528E+00 0.22576674E+04</pdfrwt>
<totfact> 0.15224588E+00</totfact>
</mgrwt>
<rwgt>
<wgt id='morphing_basis_vector_1'> +7.9448393e-05 </wgt>
<wgt id='morphing_basis_vector_2'> +5.3138053e-05 </wgt>
<wgt id='morphing_basis_vector_3'> +8.5470742e-05 </wgt>
<wgt id='morphing_basis_vector_4'> +6.0194145e-05 </wgt>
<wgt id='morphing_basis_vector_5'> +9.5912467e-05 </wgt>
</rwgt>
</event>
<event>
 4      1 +2.2016400e-08 2.47917300e+03 7.81860800e-03 7.89919300e-02
        2 -1    0    0  501    0 +0.0000000000e+00 +0.0000000000e+00 +1.6614455504e+03 1.6614455504e+03 0.0000000000e+00 0.0000e+00 -1.0000e+00
       -2 -1    0    0    0  501 -0.0000000000e+00 -0.0000000000e+00 -9.2484202614e+02 9.2484202614e+02 0.0000000000e+00 0.0000e+00 1.0000e+00
      -13  1    1    2    0    0 +1.2356662773e+03 -1.3870691815e-01 +4.7106415606e+02 1.3224116633e+03 0.0000000000e+00 0.0000e+00 1.0000e+00
       13  1    1    2    0    0 -1.2356662773e+03 +1.3870691815e-01 +2.6553936819e+02 1.2638759133e+03 0.0000000000e+00 0.0000e+00 -1.0000e+00
<mgrwt>
<rscale>  0 0.24791730E+04</rscale>
<asrwt>0</asrwt>
<pdfrwt beam="1">  1        2 0.25560701E+00 0.24791730E+04</pdfrwt>
<pdfrwt beam="2">  1       -2 0.14228339E+00 0.24791730E+04</pdfrwt>
<totfact> 0.38862405E+00</totfact>
</mgrwt>
<rwgt>
<wgt id='morphing_basis_vector_1'> +1.2047996e-04 </wgt>
<wgt id='morphing_basis_vector_2'> +9.3569413e-05 </wgt>
<wgt id='morphing_basis_vector_3'> +1.3273627e-04 </wgt>
<wgt id='morphing_basis_vector_4'> +7.6554120e-05 </wgt>
<wgt id='morphing_basis_vector_5'> +1.3928955e-04 </wgt>
</rwgt>
</event>
<event>
 4      1 +2.2016400e-08 2.31108600e+03 7.81860800e-03 7.95469900e-02
        2 -1    0    0  501    0 +0.0000000000e+00 +0.0000000000e+00 +1.1777364447e+03 1.1777364447e+03 0.0000000000e+00 0.0000e+00 -1.0000e+00
       -2 -1    0    0    0  501 -0.0000000000e+00 -0.0000000000e+00 -1.1337677381e+03 1.1337677381e+03 0.0000000000e+00 0.0000e+00 1.0000e+00
      -13  1    1    2    0    0 +2.8615600175e+02 -2.7020868787e+02 -1.0646659300e+03 1.1350821710e+03 0.0000000000e+00 0.0000e+00 1.0000e+00
       13  1    1    2    0    0 -2.8615600175e+02 +2.7020868787e+02 +1.1086346367e+03 1.1764220118e+03 0.0000000000e+00 0.0000e+00 -1.0000e+00
<mgrwt>
<rscale>  0 0.23110860E+04</rscale>
<asrwt>0</asrwt>
<pdfrwt beam="1">  1        2 0.18119022E+00 0.23110860E+04</pdfrwt>
<pdfrwt beam="2">  1       -2 0.17442580E+00 0.23110860E+04</pdfrwt>
<totfact> 0.40782552E+00</totfact>
</mgrwt>
<rwgt>
<wgt id='morphing_basis_vector_1'> +8.7113168e-05 </wgt>
<wgt id='morphing_basis_vector_2'> +5.8317158e-05 </wgt>
<wgt id='morphing_basis_vector_3'> +9.3842575e-05 </wgt>
<wgt id='morphing_basis_vector_4'> +6.6186333e-05 </wgt>
<wgt id='morphing_basis_vector_5'> +1.0546872e-04 </wgt>
</rwgt>
</event>
<event>
 4      1 +2.2016400e-08 2.26273800e+03 7.81860800e-03 7.97156900e-02
        2 -1    0    0  501    0 +0.0000000000e+00 +0.0000000000e+00 +1.9674448173e+03 1.9674448173e+03 0.0000000000e+00 0.0000e+00 1.0000e+00
       -2 -1    0    0    0  501 -0.0000000000e+00 -0.0000000000e+00 -6.5058787265e+02 6.5058787265e+02 0.0000000000e+00 0.0000e+00 -1.0000e+00
      -13  1    1    2    0    0 -1.1200198938e+03 -1.1096816220e+02 +7.9154732709e+02 1.3759744426e+03 0.0000000000e+00 0.0000e+00 -1.0000e+00
       13  1    1    2    0    0 +1.1200198938e+03 +1.1096816220e+02 +5.2530961756e+02 1.2420582474e+03 0.0000000000e+00 0.0000e+00 1.0000e+00
<mgrwt>
<rscale>  0 0.22627379E+04</rscale>
<asrwt>0</asrwt>
<pdfrwt beam="1">  1        2 0.30268381E+00 0.22627379E+04</pdfrwt>
<pdfrwt beam="2">  1       -2 0.10009044E+00 0.22627379E+04</pdfrwt>
<totfact> 0.66538870E+00</totfact>
</mgrwt>
<rwgt>
<wgt id='morphing_basis_vector_1'> +8.4357251e-05 </wgt>
<wgt id='morphing_basis_vector_2'> +6.6036067e-05 </wgt>
<wgt id='morphing_basis_vector_3'> +9.2539581e-05 </wgt>
<wgt id='morphing_basis_vector_4'> +5.2228815e-05 </wgt>
<wgt id='morphing_basis_vector_5'> +9.6107584e-05 </wgt>
</rwgt>
</event>
<event>
 4      1 +2.2016400e-08 2.32834700e+03 7.81860800e-03 7.94877900e-02
        2 -1    0    0  501    0 +0.0000000000e+00 +0.0000000000e+00 +3.5387402796e+03 3.5387402796e+03 0.0000000000e+00 0.0000e+00 -1.0000e+00
       -2 -1    0    0    0  501 -0.0000000000e+00 -0.0000000000e+00 -3.8298931871e+02 3.8298931871e+02 0.0000000000e+00 0.0000e+00 1.0000e+00
      -13  1    1    2    0    0 -5.3697836129e+01 -6.3499775133e+02 -6.3120418747e+01 6.4038253338e+02 0.0000000000e+00 0.0000e+00 1.0000e+00
       13  1    1    2    0    0 +5.3697836129e+01 +6.3499775133e+02 +3.2188713797e+03 3.2813470650e+03 0.0000000000e+00 0.0000e+00 -1.0000e+00
<mgrwt>
<rscale>  0 0.23283468E+04</rscale>
<asrwt>0</asrwt>
<pdfrwt beam="1">  1        2 0.54442156E+00 0.23283468E+04</pdfrwt>
<pdfrwt beam="2">  1       -2 0.58921436E-01 0.23283468E+04</pdfrwt>
<totfact> 0.21999602E+00</totfact>
</mgrwt>
<rwgt>
<wgt id='morphing_basis_vector_1'> +8.9729942e-05 </wgt>
<wgt id='morphing_basis_vector_2'> +6.0142527e-05 </wgt>
<wgt id='morphing_basis_vector_3'> +9.6712310e-05 </wgt>
<wgt id='morphing_basis_vector_4'> +6.8163873e-05 </wgt>
<wgt id='morphing_basis_vector_5'> +1.0869915e-04 </wgt>
</rwgt>
</event>
<event>
 4      1 +2.2016400e-08 2.55665100e+03 7.81860800e-03 7.87510700e-02
        2 -1    0    0  501    0 +0.0000000000e+00 +0.0000000000e+00 +1.4221261848e+03 1.4221261848e+03 0.0000000000e+00 0.0000e+00 1.0000e+00
       -2 -1    0    0    0  501 -0.0000000000e+00 -0.0000000000e+00 -1.1490654629e+03 1.1490654629e+03 0.0000000000e+00 0.0000e+00 -1.0000e+00
      -13  1    1    2    0    0 +4.6001639290e+02 -4.6443364825e+02 +1.2413237866e+03 1.4029249583e+03 0.0000000000e+00 0.0000e+00 1.0000e+00
       13  1    1    2    0    0 -4.6001639290e+02 +4.6443364825e+02 -9.6826306467e+02 1.1682666895e+03 0.0000000000e+00 0.0000e+00 -1.0000e+00
<mgrwt>
<rscale>  0 0.25566510E+04</rscale>
<asrwt>0</asrwt>
<pdfrwt beam="1">  1        2 0.21878864E+00 0.25566510E+04</pdfrwt>
<pdfrwt beam="2">  1       -2 0.17677930E+00 0.25566510E+04</pdfrwt>
<totfact> 0.27735895E+00</totfact>
</mgrwt>
<rwgt>
<wgt id='morphing_basis_vector_1'> +1.7542143e-04 </wgt>
<wgt id='morphing_basis_vector_2'> +2.2188843e-04 </wgt>
<wgt id='morphing_basis_vector_3'> +2.1045355e-04 </wgt>
<wgt id='morphing_basis_vector_4'> +5.8405168e-06 </wgt>
<wgt id='morphing_basis_vector_5'> +1.5120986e-04 </wgt>
</rwgt>
</event>
<event>
 4      1 +2.2016400e-08 2.26054900e+03 7.81860800e-03 7.97234300e-02
        2 -1    0    0  501    0 +0.0000000000e+00 +0.0000000000e+00 +1.9401679511e+03 1.9401679511e+03 0.0000000000e+00 0.0000e+00 -1.0000e+00
       -2 -1    0    0    0  501 -0.0000000000e+00 -0.0000000000e+00 -6.5845878245e+02 6.5845878245e+02 0.0000000000e+00 0.0000e+00 1.0000e+00
      -13  1    1    2    0    0 +3.2402777941e+02 -1.0169591558e+03 +2.1331775166e+02 1.0884412660e+03 0.0000000000e+00 0.0000e+00 1.0000e+00
       13  1    1    2    0    0 -3.2402777941e+02 +1.0169591558e+03 +1.0683914170e+03 1.5101854675e+03 0.0000000000e+00 0.0000e+00 -1.0000e+00
<mgrwt>
<rscale>  0 0.22605492E+04</rscale>
<asrwt>0</asrwt>
<pdfrwt beam="1">  1        2 0.29848737E+00 0.22605492E+04</pdfrwt>
<pdfrwt beam="2">  1       -2 0.10130135E+00 0.22605492E+04</pdfrwt>
<totfact> 0.66959252E+00</totfact>
</mgrwt>
<rwgt>
<wgt id='morphing_basis_vector_1'> +8.0651100e-05 </wgt>
<wgt id='morphing_basis_vector_2'> +5.5780109e-05 </wgt>
<wgt id='morphing_basis_vector_3'> +8.7110019e-05 </wgt>
<wgt id='morphing_basis_vector_4'> +5.8880821e-05 </wgt>
<wgt id='morphing_basis_vector_5'> +9.6280437e-05 </wgt>
</rwgt>
</event>
<event>
 4      1 +2.2016400e-08 2.61727900e+03 7.81860800e-03 7.85686000e-02
        2 -1    0    0  501    0 +0.0000000000e+00 +0.0000000000e+00 +1.7953236169e+03 1.7953236169e+03 0.0000000000e+00 0.0000e+00 -1.0000e+00
       -2 -1    0    0    0  501 -0.0000000000e+00 -0.0000000000e+00 -9.5388755662e+02 9.5388755662e+02 0.0000000000e+00 0.0000e+00 1.0000e+00
      -13  1    1    2    0    0 -3.3936219281e+02 -1.2584455599e+03 +5.4359754241e+02 1.4122146485e+03 0.0000000000e+00 0.0000e+00 1.0000e+00
       13  1    1    2    0    0 +3.3936219281e+02 +1.2584455599e+03 +2.9783851784e+02 1.3369965250e+03 0.0000000000e+00 0.0000e+00 -1.0000e+00
<mgrwt>
<rscale>  0 0.26172786E+04</rscale>
<asrwt>0</asrwt>
<pdfrwt beam="1">  1        2 0.27620363E+00 0.26172786E+04</pdfrwt>
<pdfrwt beam="2">  1       -2 0.14675193E+00 0.26172786E+04</pdfrwt>
<totfact> 0.29664345E+00</totfact>
</mgrwt>
<rwgt>
<wgt id='morphing_basis_vector_1'> +1.4949442e-04 </wgt>
<wgt id='morphing_basis_vector_2'> +1.1678177e-04 </wgt>
<wgt id='morphing_basis_vector_3'> +1.6528905e-04 </wgt>
<wgt id='morphing_basis_vector_4'> +9.4827401e-05 </wgt>
<wgt id='morphing_basis_vector_5'> +1.7343428e-04 </wgt>
</rwgt>
</event>
<event>
 4      1 +2.2016400e-08 2.49578100e+03 7.81860800e-03 7.89395500e-02
        2 -1    0    0  501    0 +0.0000000000e+00 +0.0000000000e+00 +1.0119825752e+03 1.0119825752e+03 0.0000000000e+00 0.0000e+00 1.0000e+00
       -2 -1    0    0    0  501 -0.0000000000e+00 -0.0000000000e+00 -1.5387915182e+03 1.5387915182e+03 0.0000000000e+00 0.0000e+00 -1.0000e+00
      -13  1    1    2    0    0 -3.9402122692e+02 +3.2460455754e+02 -1.4271825391e+03 1.5157410221e+03 0.0000000000e+00 0.0000e+00 -1.0000e+00
       13  1    1    2    0    0 +3.9402122692e+02 -3.2460455754e+02 +9.0037359620e+02 1.0350330713e+03 0.0000000000e+00 0.0000e+00 1.0000e+00
<mgrwt>
<rscale>  0 0.24957806E+04</rscale>
<asrwt>0</asrwt>
<pdfrwt beam="1">  1        2 0.15568963E+00 0.24957806E+04</pdfrwt>
<pdfrwt beam="2">  1       -2 0.23673716E+00 0.24957806E+04</pdfrwt>
<totfact> 0.17786236E+00</totfact>
</mgrwt>
<rwgt>
<wgt id='morphing_basis_vector_1'> +1.1797261e-04 </wgt>
<wgt id='morphing_basis_vector_2'> +7.9190353e-05 </wgt>
<wgt id='morphing_basis_vector_3'> +1.2759729e-04 </wgt>
<wgt id='morphing_basis_vector_4'> +9.0381347e-05 </wgt>
<wgt id='morphing_basis_vector_5'> +1.4405877e-04 </wgt>
</rwgt>
</event>
<event>
 4      1 +2.2016400e-08 2.28499800e+03 7.81860800e-03 7.96374900e-02
        2 -1    0    0  501    0 +0.0000000000e+00 +0.0000000000e+00 +1.9433244928e+03 1.9433244928e+03 0.0000000000e+00 0.0000e+00 1.0000e+00
       -2 -1    0    0    0  501 -0.0000000000e+00 -0.0000000000e+00 -6.7168607521e+02 6.7168607521e+02 0.0000000000e+00 0.0000e+00 -1.0000e+00
      -13  1    1    2    0    0 -2.0790545145e+01 -1.1406005193e+03 +5.6432959653e+02 1.2727410125e+03 0.0000000000e+00 0.0000e+00 1.0000e+00
       13  1    1    2    0    0 +2.0790545145e+01 +1.1406005193e+03 +7.0730882109e+02 1.3422695555e+03 0.0000000000e+00 0.0000e+00 -1.0000e+00
<mgrwt>
<rscale>  0 0.22849980E+04</rscale>
<asrwt>0</asrwt>
<pdfrwt beam="1">  1        2 0.29897300E+00 0.22849980E+04</pdfrwt>
<pdfrwt beam="2">  1       -2 0.10333632E+00 0.22849980E+04</pdfrwt>
<totfact> 0.63394800E+00</totfact>
</mgrwt>
<rwgt>
<wgt id='morphing_basis_vector_1'> +8.5801066e-05 </wgt>
<wgt id='morphing_basis_vector_2'> +6.3121417e-05 </wgt>
<wgt id='morphing_basis_vector_3'> +9.3430511e-05 </wgt>
<wgt id='morphing_basis_vector_4'> +5.8141261e-05 </wgt>
<wgt id='morphing_basis_vector_5'> +1.0031036e-04 </wgt>
</rwgt>
</event>
<event>
 4      1 +2.2016400e-08 2.64557100e+03 7.81860800e-03 7.84851700e-02
        2 -1    0    0  501    0 +0.0000000000e+00 +0.0000000000e+00 +1.1266892486e+03 1.1266892486e+03 0.0000000000e+00 0.0000e+00 -1.0000e+00
       -2 -1    0    0    0  501 -0.0000000000e+00 -0.0000000000e+00 -1.5530119659e+03 1.5530119659e+03 0.0000000000e+00 0.0000e+00 1.0000e+00
      -13  1    1    2    0    0 +1.2501826862e+03 -1.4178886893e+02 +2.0039630443e+02 1.2740563218e+03 0.0000000000e+00 0.0000e+00 1.0000e+00
       13  1    1    2    0    0 -1.2501826862e+03 +1.4178886893e+02 -6.2671902170e+02 1.4056448927e+03 0.0000000000e+00 0.0000e+00 -1.0000e+00
<mgrwt>
<rscale>  0 0.26455713E+04</rscale>
<asrwt>0</asrwt>
<pdfrwt beam="1">  1        2 0.17333681E+00 0.26455713E+04</pdfrwt>
<pdfrwt beam="2">  1       -2 0.23892492E+00 0.26455713E+04</pdfrwt>
<totfact> 0.14443614E+00</totfact>
</mgrwt>
<rwgt>
<wgt id='morphing_basis_vector_1'> +1.6405353e-04 </wgt>
<wgt id='morphing_basis_vector_2'> +1.4567156e-04 </wgt>
<wgt id='morphing_basis_vector_3'> +1.8498313e-04 </wgt>
<wgt id='morphing_basis_vector_4'> +8.2416034e-05 </wgt>
<wgt id='morphing_basis_vector_5'> +1.7979075e-04 </wgt>
</rwgt>
</event>
<event>
 4      1 +2.2016400e-08 2.25697800e+03 7.81860800e-03 7.97360800e-02
        2 -1    0    0  501    0 +0.0000000000e+00 +0.0000000000e+00 +1.2255809663e+03 1.2255809663e+03 0.0000000000e+00 0.0000e+00 -1.0000e+00
       -2 -1    0    0    0  501 -0.0000000000e+00 -0.0000000000e+00 -1.0390886005e+03 1.0390886005e+03 0.0000000000e+00 0.0000e+00 1.0000e+00
      -13  1    1    2    0    0 +3.8825884519e+02 -1.5482321245e+00 -9.6995910896e+02 1.0447813173e+03 0.0000000000e+00 0.0000e+00 1.0000e+00
       13  1    1    2    0    0 -3.8825884519e+02 +1.5482321245e+00 +1.1564514748e+03 1.2198882495e+03 0.0000000000e+00 0.0000e+00 -1.0000e+00
<mgrwt>
<rscale>  0 0.22569778E+04</rscale>
<asrwt>0</asrwt>
<pdfrwt beam="1">  1        2 0.18855092E+00 0.22569778E+04</pdfrwt>
<pdfrwt beam="2">  1       -2 0.15985978E+00 0.22569778E+04</pdfrwt>
<totfact> 0.49990221E+00</totfact>
</mgrwt>
<rwgt>
<wgt id='morphing_basis_vector_1'> +7.9354176e-05 </wgt>
<wgt id='morphing_basis_vector_2'> +5.3077330e-05 </wgt>
<wgt id='morphing_basis_vector_3'> +8.5368390e-05 </wgt>
<wgt id='morphing_basis_vector_4'> +6.0116940e-05 </wgt>
<wgt id='morphing_basis_vector_5'> +9.5793279e-05 </wgt>
</rwgt>
</event>
<event>
 4      1 +2.2016400e-08 2.57866700e+03 7.81860800e-03 7.86842200e-02
        2 -1    0    0  501    0 +0.0000000000e+00 +0.0000000000e+00 +1.3526500653e+03 1.3526500653e+03 0.0000000000e+00 0.0000e+00 1.0000e+00
       -2 -1    0    0    0  501 -0.0000000000e+00 -0.0000000000e+00 -1.2289805721e+03 1.2289805721e+03 0.0000000000e+00 0.0000e+00 -1.0000e+00
      -13  1    1    2    0    0 -6.8945422613e+01 -5.2043311170e+02 -1.1171335280e+03 1.2343384521e+03 0.0000000000e+00 0.0000e+00 -1.0000e+00
       13  1    1    2    0    0 +6.8945422613e+01 +5.2043311170e+02 +1.2408030212e+03 1.3472921853e+03 0.0000000000e+00 0.0000e+00 1.0000e+00
<mgrwt>
<rscale>  0 0.25786668E+04</rscale>
<asrwt>0</asrwt>
<pdfrwt beam="1">  1        2 0.20810001E+00 0.25786668E+04</pdfrwt>
<pdfrwt beam="2">  1       -2 0.18907393E+00 0.25786668E+04</pdfrwt>
<totfact> 0.24477175E+00</totfact>
</mgrwt>
<rwgt>
<wgt id='morphing_basis_vector_1'> +1.3422015e-04 </wgt>
<wgt id='morphing_basis_vector_2'> +9.0184293e-05 </wgt>
<wgt id='morphing_basis_vector_3'> +1.4539200e-04 </wgt>
<wgt id='morphing_basis_vector_4'> +1.0316253e-04 </wgt>
<wgt id='morphing_basis_vector_5'> +1.6443753e-04 </wgt>
</rwgt>
</event>
<event>
 4      1 +2.2016400e-08 2.33437700e+03 7.81860800e-03 7.94672300e-02
        2 -1    0    0  501    0 +0.0000000000e+00 +0.0000000000e+00 +2.2166659405e+03 2.2166659405e+03 0.0000000000e+00 0.0000e+00 -1.0000e+00
       -2 -1    0    0    0  501 -0.0000000000e+00 -0.0000000000e+00 -6.1458455285e+02 6.1458455285e+02 0.0000000000e+00 0.0000e+00 1.0000e+00
      -13  1    1    2    0    0 +5.2506064786e+02 +7.1254640917e+02 -1.2177659592e+02 8.9344311988e+02 0.0000000000e+00 0.0000e+00 1.0000e+00
       13  1    1    2    0    0 -5.2506064786e+02 -7.1254640917e+02 +1.7238579835e+03 1.9378073734e+03 0.0000000000e+00 0.0000e+00 -1.0000e+00
<mgrwt>
<rscale>  0 0.23343767E+04</rscale>
<asrwt>0</asrwt>
<pdfrwt beam="1">  1        2 0.34102553E+00 0.23343767E+04</pdfrwt>
<pdfrwt beam="2">  1       -2 0.94551470E-01 0.23343767E+04</pdfrwt>
<totfact> 0.54699454E+00</totfact>
</mgrwt>
<rwgt>
<wgt id='morphing_basis_vector_1'> +9.0782902e-05 </wgt>
<wgt id='morphing_basis_vector_2'> +6.1159372e-05 </wgt>
<wgt id='morphing_basis_vector_3'> +9.7918653e-05 </wgt>
<wgt id='morphing_basis_vector_4'> +6.8610778e-05 </wgt>
<wgt id='morphing_basis_vector_5'> +1.0982442e-04 </wgt>
</rwgt>
</event>
<event>
 4      1 +2.2016400e-08 2.59293600e+03 7.81860800e-03 7.86412500e-02
        2 -1    0    0  501    0 +0.0000000000e+00 +0.0000000000e+00 +9.3666685045e+02 9.3666685045e+02 0.0000000000e+00 0.0000e+00 -1.0000e+00
       -2 -1    0    0    0  501 -0.0000000000e+00 -0.0000000000e+00 -1.7944794839e+03 1.7944794839e+03 0.0000000000e+00 0.0000e+00 1.0000e+00
      -13  1    1    2    0    0 -6.4485195512e+02 -1.4621581187e+02 -1.6035235282e+03 1.7345030450e+03 0.0000000000e+00 0.0000e+00 1.0000e+00
       13  1    1    2    0    0 +6.4485195512e+02 +1.4621581187e+02 +7.4571089473e+02 9.9664328934e+02 0.0000000000e+00 0.0000e+00 -1.0000e+00
<mgrwt>
<rscale>  0 0.25929361E+04</rscale>
<asrwt>0</asrwt>
<pdfrwt beam="1">  1        2 0.14410259E+00 0.25929361E+04</pdfrwt>
<pdfrwt beam="2">  1       -2 0.27607376E+00 0.25929361E+04</pdfrwt>
<totfact> 0.10534186E+00</totfact>
</mgrwt>
<rwgt>
<wgt id='morphing_basis_vector_1'> +1.3719899e-04 </wgt>
<wgt id='morphing_basis_vector_2'> +9.2246243e-05 </wgt>
<wgt id='morphing_basis_vector_3'> +1.4866476e-04 </wgt>
<wgt id='morphing_basis_vector_4'> +1.0545075e-04 </wgt>
<wgt id='morphing_basis_vector_5'> +1.6814861e-04 </wgt>
</rwgt>
</event>
<event>
 4      1 +2.2016400e-08 2.44395000e+03 7.81860800e-03 7.91044300e-02
        2 -1    0    0  501    0 +0.0000000000e+00 +0.0000000000e+00 +4.0722988286e+03 4.0722988286e+03 0.0000000000e+00 0.0000e+00 -1.0000e+00
       -2 -1    0    0    0  501 -0.0000000000e+00 -0.0000000000e+00 -3.6667817038e+02 3.6667817038e+02 0.0000000000e+00 0.0000e+00 1.0000e+00
      -13  1    1    2    0    0 +8.4528124875e+01 +8.2182185507e+02 +2.1743615893e+02 8.5429189893e+02 0.0000000000e+00 0.0000e+00 1.0000e+00
       13  1    1    2    0    0 -8.4528124875e+01 -8.2182185507e+02 +3.4881844993e+03 3.5846851000e+03 0.0000000000e+00 0.0000e+00 -1.0000e+00
<mgrwt>
<rscale>  0 0.24439501E+04</rscale>
<asrwt>0</asrwt>
<pdfrwt beam="1">  1        2 0.62650748E+00 0.24439501E+04</pdfrwt>
<pdfrwt beam="2">  1       -2 0.56412029E-01 0.24439501E+04</pdfrwt>
<totfact> 0.89157319E-01</totfact>
</mgrwt>
<rwgt>
<wgt id='morphing_basis_vector_1'> +1.0868728e-04 </wgt>
<wgt id='morphing_basis_vector_2'> +7.3118974e-05 </wgt>
<wgt id='morphing_basis_vector_3'> +1.1747353e-04 </wgt>
<wgt id='morphing_basis_vector_4'> +8.2827263e-05 </wgt>
<wgt id='morphing_basis_vector_5'> +1.3229850e-04 </wgt>
</rwgt>
</event>
<event>
 4      1 +2.2016400e-08 2.28144100e+03 7.81860800e-03 7.96499200e-02
        2 -1    0    0  501    0 +0.0000000000e+00 +0.0000000000e+00 +1.6435059820e+03 1.6435059820e+03 0.0000000000e+00 0.0000e+00 -1.0000e+00
       -2 -1    0    0    0  501 -0.0000000000e+00 -0.0000000000e+00 -7.9174859179e+02 7.9174859179e+02 0.0000000000e+00 0.0000e+00 1.0000e+00
      -13  1    1    2    0    0 -1.0745068169e+03 +9.1912532091e+01 +2.9018643619e+01 1.0788210671e+03 0.0000000000e+00 0.0000e+00 1.0000e+00
       13  1    1    2    0    0 +1.0745068169e+03 -9.1912532091e+01 +8.2273874656e+02 1.3564335067e+03 0.0000000000e+00 0.0000e+00 -1.0000e+00
<mgrwt>
<rscale>  0 0.22814413E+04</rscale>
<asrwt>0</asrwt>
<pdfrwt beam="1">  1        2 0.25284707E+00 0.22814413E+04</pdfrwt>
<pdfrwt beam="2">  1       -2 0.12180748E+00 0.22814413E+04</pdfrwt>
<totfact> 0.61486128E+00</totfact>
</mgrwt>
<rwgt>
<wgt id='morphing_basis_vector_1'> +8.3637291e-05 </wgt>
<wgt id='morphing_basis_vector_2'> +5.7889963e-05 </wgt>
<wgt id='morphing_basis_vector_3'> +9.0389977e-05 </wgt>
<wgt id='morphing_basis_vector_4'> +6.1098433e-05 </wgt>
<wgt id='morphing_basis_vector_5'> +9.9944606e-05 </wgt>
</rwgt>
</event>
<event>
 4      1 +2.2016400e-08 2.27925000e+03 7.81860800e-03 7.96575900e-02
        2 -1    0    0  501    0 +0.0000000000e+00 +0.0000000000e+00 +1.3535267155e+03 1.3535267155e+03 0.0000000000e+00 0.0000e+00 -1.0000e+00
       -2 -1    0    0    0  501 -0.0000000000e+00 -0.0000000000e+00 -9.5952677766e+02 9.5952677766e+02 0.0000000000e+00 0.0000e+00 1.0000e+00
      -13  1    1    2    0    0 -5.4273228546e+02 -3.9247148169e+02 +1.1327120642e+03 1.3159136819e+03 0.0000000000e+00 0.0000e+00 -1.0000e+00
       13  1    1    2    0    0 +5.4273228546e+02 +3.9247148169e+02 -7.3871212639e+02 9.9713981131e+02 0.0000000000e+00 0.0000e+00 1.0000e+00
<mgrwt>
<rscale>  0 0.22792500E+04</rscale>
<asrwt>0</asrwt>
<pdfrwt beam="1">  1        2 0.20823488E+00 0.22792500E+04</pdfrwt>
<pdfrwt beam="2">  1       -2 0.14761950E+00 0.22792500E+04</pdfrwt>
<totfact> 0.53055994E+00</totfact>
</mgrwt>
<rwgt>
<wgt id='morphing_basis_vector_1'> +1.1020410e-04 </wgt>
<wgt id='morphing_basis_vector_2'> +1.3709254e-04 </wgt>
<wgt id='morphing_basis_vector_3'> +1.3038344e-04 </wgt>
<wgt id='morphing_basis_vector_4'> +6.3548024e-06 </wgt>
<wgt id='morphing_basis_vector_5'> +9.5179819e-05 </wgt>
</rwgt>
</event>
<event>
 4      1 +2.2016400e-08 2.27026600e+03 7.81860800e-03 7.96891400e-02
        2 -1    0    0  501    0 +0.0000000000e+00 +0.0000000000e+00 +8.7624269346e+02 8.7624269346e+02 0.0000000000e+00 0.0000e+00 -1.0000e+00
       -2 -1    0    0    0  501 -0.0000000000e+00 -0.0000000000e+00 -1.4705138871e+03 1.4705138871e+03 0.0000000000e+00 0.0000e+00 1.0000e+00
      -13  1    1    2    0    0 -8.0659709674e+02 -1.1788984923e+02 -1.1137068136e+03 1.3801593240e+03 0.0000000000e+00 0.0000e+00 1.0000e+00
       13  1    1    2    0    0 +8.0659709674e+02 +1.1788984923e+02 +5.1943561998e+02 9.6659725653e+02 0.0000000000e+00 0.0000e+00 -1.0000e+00
<mgrwt>
<rscale>  0 0.22702661E+04</rscale>
<asrwt>0</asrwt>
<pdfrwt beam="1">  1        2 0.13480657E+00 0.22702661E+04</pdfrwt>
<pdfrwt beam="2">  1       -2 0.22623290E+00 0.22702661E+04</pdfrwt>
<totfact> 0.26239576E+00</totfact>
</mgrwt>
<rwgt>
<wgt id='morphing_basis_vector_1'> +8.1311870e-05 </wgt>
<wgt id='morphing_basis_vector_2'> +5.4632877e-05 </wgt>
<wgt id='morphing_basis_vector_3'> +8.7547750e-05 </wgt>
<wgt id='morphing_basis_vector_4'> +6.1359542e-05 </wgt>
<wgt id='morphing_basis_vector_5'> +9.8088690e-05 </wgt>
</rwgt>
</event>
<event>
 4      1 +2.2016400e-08 2.42515500e+03 7.81860800e-03 7.91652600e-02
        2 -1    0    0  501    0 +0.0000000000e+00 +0.0000000000e+00 +1.2913247577e+03 1.2913247577e+03 0.0000000000e+00 0.0000e+00 -1.0000e+00
       -2 -1    0    0    0  501 -0.0000000000e+00 -0.0000000000e+00 -1.1386323441e+03 1.1386323441e+03 0.0000000000e+00 0.0000e+00 1.0000e+00
      -13  1    1    2    0    0 +4.1675841702e+02 +9.0561569309e+02 -6.1532263266e+02 1.1715158147e+03 0.0000000000e+00 0.0000e+00 1.0000e+00
       13  1    1    2    0    0 -4.1675841702e+02 -9.0561569309e+02 +7.6801504626e+02 1.2584412871e+03 0.0000000000e+00 0.0000e+00 -1.0000e+00
<mgrwt>
<rscale>  0 0.24251550E+04</rscale>
<asrwt>0</asrwt>
<pdfrwt beam="1">  1        2 0.19866535E+00 0.24251550E+04</pdfrwt>
<pdfrwt beam="2">  1       -2 0.17517421E+00 0.24251550E+04</pdfrwt>
<totfact> 0.34242540E+00</totfact>
</mgrwt>
<rwgt>
<wgt id='morphing_basis_vector_1'> +1.0564889e-04 </wgt>
<wgt id='morphing_basis_vector_2'> +7.1563300e-05 </wgt>
<wgt id='morphing_basis_vector_3'> +1.1424201e-04 </wgt>
<wgt id='morphing_basis_vector_4'> +7.9822566e-05 </wgt>
<wgt id='morphing_basis_vector_5'> +1.2818528e-04 </wgt>
</rwgt>
</event>
<event>
 4      1 +2.2016400e-08 2.29715200e+03 7.81860800e-03 7.95951700e-02
        2 -1    0    0  501    0 +0.0000000000e+00 +0.0000000000e+00 +1.9247223124e+03 1.9247223124e+03 0.0000000000e+00 0.0000e+00 -1.0000e+00
       -2 -1    0    0    0  501 -0.0000000000e+00 -0.0000000000e+00 -6.8541164652e+02 6.8541164652e+02 0.0000000000e+00 0.0000e+00 1.0000e+00
      -13  1    1    2    0    0 +9.1296820953e+02 -6.6687507418e+02 +8.4971048682e+02 1.4142988466e+03 0.0000000000e+00 0.0000e+00 1.0000e+00
       13  1    1    2    0    0 -9.1296820953e+02 +6.6687507418e+02 +3.8960017902e+02 1.1958351122e+03 0.0000000000e+00 0.0000e+00 -1.0000e+00
<mgrwt>
<rscale>  0 0.22971522E+04</rscale>
<asrwt>0</asrwt>
<pdfrwt beam="1">  1        2 0.29611112E+00 0.22971522E+04</pdfrwt>
<pdfrwt beam="2">  1       -2 0.10544795E+00 0.22971522E+04</pdfrwt>
<totfact> 0.61720651E+00</totfact>
</mgrwt>
<rwgt>
<wgt id='morphing_basis_vector_1'> +9.0821589e-05 </wgt>
<wgt id='morphing_basis_vector_2'> +7.3944449e-05 </wgt>
<wgt id='morphing_basis_vector_3'> +1.0025780e-04 </wgt>
<wgt id='morphing_basis_vector_4'> +5.2893834e-05 </wgt>
<wgt id='morphing_basis_vector_5'> +1.0197141e-04 </wgt>
</rwgt>
</event>
<event>
 4      1 +2.2016400e-08 2.49814900e+03 7.81860800e-03 7.89321200e-02
        2 -1    0    0  501    0 +0.0000000000e+00 +0.0000000000e+00 +1.9966241483e+03 1.9966241483e+03 0.0000000000e+00 0.0000e+00 1.0000e+00
       -2 -1    0    0    0  501 -0.0000000000e+00 -0.0000000000e+00 -7.8141232077e+02 7.8141232077e+02 0.0000000000e+00 0.0000e+00 -1.0000e+00
      -13  1    1    2    0    0 +3.2972492105e+02 -1.0005019674e+03 -1.3875640293e+02 1.0625328464e+03 0.0000000000e+00 0.0000e+00 -1.0000e+00
       13  1    1    2    0    0 -3.2972492105e+02 +1.0005019674e+03 +1.3539682304e+03 1.7155036227e+03 0.0000000000e+00 0.0000e+00 1.0000e+00
<mgrwt>
<rscale>  0 0.24981487E+04</rscale>
<asrwt>0</asrwt>
<pdfrwt beam="1">  1        2 0.30717294E+00 0.24981487E+04</pdfrwt>
<pdfrwt beam="2">  1       -2 0.12021728E+00 0.24981487E+04</pdfrwt>
<totfact> 0.39664285E+00</totfact>
</mgrwt>
<rwgt>
<wgt id='morphing_basis_vector_1'> +1.1883721e-04 </wgt>
<wgt id='morphing_basis_vector_2'> +8.0735206e-05 </wgt>
<wgt id='morphing_basis_vector_3'> +1.2872588e-04 </wgt>
<wgt id='morphing_basis_vector_4'> +8.9864300e-05 </wgt>
<wgt id='morphing_basis_vector_5'> +1.4454326e-04 </wgt>
</rwgt>
</event>
<event>
 4      1 +2.2016400e-08 2.24270500e+03 7.81860800e-03 7.97868700e-02
        2 -1    0    0  501    0 +0.0000000000e+00 +0.0000000000e+00 +2.2171852808e+03 2.2171852808e+03 0.0000000000e+00 0.0000e+00 -1.0000e+00
       -2 -1    0    0    0  501 -0.0000000000e+00 -0.0000000000e+00 -5.6712962867e+02 5.6712962867e+02 0.0000000000e+00 0.0000e+00 1.0000e+00
      -13  1    1    2    0    0 +4.1793333553e+02 +2.6222915846e+02 -4.2513036807e+02 6.5128199296e+02 0.0000000000e+00 0.0000e+00 1.0000e+00
       13  1    1    2    0    0 -4.1793333553e+02 -2.6222915846e+02 +2.0751860202e+03 2.1330329165e+03 0.0000000000e+00 0.0000e+00 -1.0000e+00
<mgrwt>
<rscale>  0 0.22427050E+04</rscale>
<asrwt>0</asrwt>
<pdfrwt beam="1">  1        2 0.34110542E+00 0.22427050E+04</pdfrwt>
<pdfrwt beam="2">  1       -2 0.87250713E-01 0.22427050E+04</pdfrwt>
<totfact> 0.66501225E+00</totfact>
</mgrwt>
<rwgt>
<wgt id='morphing_basis_vector_1'> +7.7403279e-05 </wgt>
<wgt id='morphing_basis_vector_2'> +5.1773741e-05 </wgt>
<wgt id='morphing_basis_vector_3'> +8.3241015e-05 </wgt>
<wgt id='morphing_basis_vector_4'> +5.8575684e-05 </wgt>
<wgt id='morphing_basis_vector_5'> +9.3354486e-05 </wgt>
</rwgt>
</event>
<event>
 4      1 +2.2016400e-08 2.45604200e+03 7.81860800e-03 7.90655900e-02
        2 -1    0    0  501    0 +0.0000000000e+00 +0.0000000000e+00 +3.0124797412e+03 3.0124797412e+03 0.0000000000e+00 0.0000e+00 -1.0000e+00
       -2 -1    0    0    0  501 -0.0000000000e+00 -0.0000000000e+00 -5.0059616964e+02 5.0059616964e+02 0.0000000000e+00 0.0000e+00 1.0000e+00
      -13  1    1    2    0    0 -5.2831076907e+02 -1.1085431472e+03 +1.2452720949e+03 1.7489090223e+03 0.0000000000e+00 0.0000e+00 1.0000e+00
       13  1    1    2    0    0 +5.2831076907e+02 +1.1085431472e+03 +1.2666114767e+03 1.7641668886e+03 0.0000000000e+00 0.0000e+00 -1.0000e+00
<mgrwt>
<rscale>  0 0.24560422E+04</rscale>
<asrwt>0</asrwt>
<pdfrwt beam="1">  1        2 0.46345841E+00 0.24560422E+04</pdfrwt>
<pdfrwt beam="2">  1       -2 0.77014797E-01 0.24560422E+04</pdfrwt>
<totfact> 0.28444485E+00</totfact>
</mgrwt>
<rwgt>
<wgt id='morphing_basis_vector_1'> +1.1469289e-04 </wgt>
<wgt id='morphing_basis_vector_2'> +8.5985350e-05 </wgt>
<wgt id='morphing_basis_vector_3'> +1.2569942e-04 </wgt>
<wgt id='morphing_basis_vector_4'> +7.6588593e-05 </wgt>
<wgt id='morphing_basis_vector_5'> +1.3433176e-04 </wgt>
</rwgt>
</event>
<event>
 4      1 +2.2016400e-08 2.40562400e+03 7.81860800e-03 7.92290700e-02
        2 -1    0    0  501    0 +0.0000000000e+00 +0.0000000000e+00 +1.1055318026e+03 1.1055318026e+03 0.0000000000e+00 0.0000e+00 1.0000e+00
       -2 -1    0    0    0  501 -0.0000000000e+00 -0.0000000000e+00 -1.3086520733e+03 1.3086520733e+03 0.0000000000e+00 0.0000e+00 -1.0000e+00
      -13  1    1    2    0    0 -7.7918617100e+02 -7.4100304470e+02 +4.3937539708e+02 1.1615796748e+03 0.0000000000e+00 0.0000e+00 1.0000e+00
       13  1    1    2    0    0 +7.7918617100e+02 +7.4100304470e+02 -6.4249566785e+02 1.2526042011e+03 0.0000000000e+00 0.0000e+00 -1.0000e+00
<mgrwt>
<rscale>  0 0.24056238E+04</rscale>
<asrwt>0</asrwt>
<pdfrwt beam="1">  1        2 0.17008182E+00 0.24056238E+04</pdfrwt>
<pdfrwt beam="2">  1       -2 0.20133109E+00 0.24056238E+04</pdfrwt>
<totfact> 0.28087805E+00</totfact>
</mgrwt>
<rwgt>
<wgt id='morphing_basis_vector_1'> +1.1829369e-04 </wgt>
<wgt id='morphing_basis_vector_2'> +1.1641968e-04 </wgt>
<wgt id='morphing_basis_vector_3'> +1.3480818e-04 </wgt>
<wgt id='morphing_basis_vector_4'> +4.4677858e-05 </wgt>
<wgt id='morphing_basis_vector_5'> +1.2142065e-04 </wgt>
</rwgt>
</event>
<event>
 4      1 +2.2016400e-08 2.28733600e+03 7.81860800e-03 7.96293200e-02
        2 -1    0    0  501    0 +0.0000000000e+00 +0.0000000000e+00 +9.2949957828e+02 9.2949957828e+02 0.0000000000e+00 0.0000e+00 -1.0000e+00
       -2 -1    0    0    0  501 -0.0000000000e+00 -0.0000000000e+00 -1.4071838871e+03 1.4071838871e+03 0.0000000000e+00 0.0000e+00 1.0000e+00
      -13  1    1    2    0    0 -3.7796729590e+02 +7.3417679629e+02 -1.0471790548e+03 1.3335886989e+03 0.0000000000e+00 0.0000e+00 1.0000e+00
       13  1    1    2    0    0 +3.7796729590e+02 -7.3417679629e+02 +5.6949474594e+02 1.0030947665e+03 0.0000000000e+00 0.0000e+00 -1.0000e+00
<mgrwt>
<rscale>  0 0.22873363E+04</rscale>
<asrwt>0</asrwt>
<pdfrwt beam="1">  1        2 0.14299994E+00 0.22873363E+04</pdfrwt>
<pdfrwt beam="2">  1       -2 0.21648983E+00 0.22873363E+04</pdfrwt>
<totfact> 0.28355015E+00</totfact>
</mgrwt>
<rwgt>
<wgt id='morphing_basis_vector_1'> +8.3749358e-05 </wgt>
<wgt id='morphing_basis_vector_2'> +5.6293829e-05 </wgt>
<wgt id='morphing_basis_vector_3'> +9.0212655e-05 </wgt>
<wgt id='morphing_basis_vector_4'> +6.3247313e-05 </wgt>
<wgt id='morphing_basis_vector_5'> +1.0111850e-04 </wgt>
</rwgt>
</event>
<event>
 4      1 +2.2016400e-08 2.32293100e+03 7.81860800e-03 7.95063100e-02
        2 -1    0    0  501    0 +0.0000000000e+00 +0.0000000000e+00 +1.4959885854e+03 1.4959885854e+03 0.0000000000e+00 0.0000e+00 1.0000e+00
       -2 -1    0    0    0  501 -0.0000000000e+00 -0.0000000000e+00 -9.0174642038e+02 9.0174642038e+02 0.0000000000e+00 0.0000e+00 -1.0000e+00
      -13  1    1    2    0    0 +8.0852000372e+02 -8.2722437934e+02 +4.0536747522e+02 1.2256947255e+03 0.0000000000e+00 0.0000e+00 -1.0000e+00
       13  1    1    2    0    0 -8.0852000372e+02 +8.2722437934e+02 +1.8887468984e+02 1.1720402803e+03 0.0000000000e+00 0.0000e+00 1.0000e+00
<mgrwt>
<rscale>  0 0.23229312E+04</rscale>
<asrwt>0</asrwt>
<pdfrwt beam="1">  1        2 0.23015209E+00 0.23229312E+04</pdfrwt>
<pdfrwt beam="2">  1       -2 0.13873022E+00 0.23229312E+04</pdfrwt>
<totfact> 0.52254656E+00</totfact>
</mgrwt>
<rwgt>
<wgt id='morphing_basis_vector_1'> +9.3366318e-05 </wgt>
<wgt id='morphing_basis_vector_2'> +7.2749330e-05 </wgt>
<wgt id='morphing_basis_vector_3'> +1.0252826e-04 </wgt>
<wgt id='morphing_basis_vector_4'> +5.8467205e-05 </wgt>
<wgt id='morphing_basis_vector_5'> +1.0694800e-04 </wgt>
</rwgt>
</event>
<event>
 4      1 +2.2016400e-08 2.54001600e+03 7.81860800e-03 7.88020400e-02
        2 -1    0    0  501    0 +0.0000000000e+00 +0.0000000000e+00 +1.5913926093e+03 1.5913926093e+03 0.0000000000e+00 0.0000e+00 -1.0000e+00
       -2 -1    0    0    0  501 -0.0000000000e+00 -0.0000000000e+00 -1.0135277066e+03 1.0135277066e+03 0.0000000000e+00 0.0000e+00 1.0000e+00
      -13  1    1    2    0    0 +9.5888512914e+02 -3.9141753804e+02 -4.6486767630e+02 1.1352402109e+03 0.0000000000e+00 0.0000e+00 1.0000e+00
       13  1    1    2    0    0 -9.5888512914e+02 +3.9141753804e+02 +1.0427325790e+03 1.4696801051e+03 0.0000000000e+00 0.0000e+00 -1.0000e+00
<mgrwt>
<rscale>  0 0.25400161E+04</rscale>
<asrwt>0</asrwt>
<pdfrwt beam="1">  1        2 0.24482963E+00 0.25400161E+04</pdfrwt>
<pdfrwt beam="2">  1       -2 0.15592734E+00 0.25400161E+04</pdfrwt>
<totfact> 0.32588303E+00</totfact>
</mgrwt>
<rwgt>
<wgt id='morphing_basis_vector_1'> +1.2680011e-04 </wgt>
<wgt id='morphing_basis_vector_2'> +8.5965204e-05 </wgt>
<wgt id='morphing_basis_vector_3'> +1.3741719e-04 </wgt>
<wgt id='morphing_basis_vector_4'> +9.6320942e-05 </wgt>
<wgt id='morphing_basis_vector_5'> +1.5462521e-04 </wgt>
</rwgt>
</event>
<event>
 4      1 +2.2016400e-08 2.34214200e+03 7.81860800e-03 7.94408500e-02
        2 -1    0    0  501    0 +0.0000000000e+00 +0.0000000000e+00 +3.0141500945e+03 3.0141500945e+03 0.0000000000e+00 0.0000e+00 -1.0000e+00
       -2 -1    0    0    0  501 -0.0000000000e+00 -0.0000000000e+00 -4.5498954394e+02 4.5498954394e+02 0.0000000000e+00 0.0000e+00 1.0000e+00
      -13  1    1    2    0    0 -9.3887918193e+02 -5.6123905797e+02 +6.6009274587e+02 1.2775781117e+03 0.0000000000e+00 0.0000e+00 1.0000e+00
       13  1    1    2    0    0 +9.3887918193e+02 +5.6123905797e+02 +1.8990678047e+03 2.1915615267e+03 0.0000000000e+00 0.0000e+00 -1.0000e+00
<mgrwt>
<rscale>  0 0.23421416E+04</rscale>
<asrwt>0</asrwt>
<pdfrwt beam="1">  1        2 0.46371539E+00 0.23421416E+04</pdfrwt>
<pdfrwt beam="2">  1       -2 0.69998393E-01 0.23421416E+04</pdfrwt>
<totfact> 0.35318416E+00</totfact>
</mgrwt>
<rwgt>
<wgt id='morphing_basis_vector_1'> +9.2631325e-05 </wgt>
<wgt id='morphing_basis_vector_2'> +6.3899519e-05 </wgt>
<wgt id='morphing_basis_vector_3'> +1.0021115e-04 </wgt>
<wgt id='morphing_basis_vector_4'> +6.8213682e-05 </wgt>
<wgt id='morphing_basis_vector_5'> +1.1120774e-04 </wgt>
</rwgt>
</event>
<event>
 4      1 +2.2016400e-08 2.50731300e+03 7.81860800e-03 7.89034200e-02
        2 -1    0    0  501    0 +0.0000000000e+00 +0.0000000000e+00 +2.7126217171e+03 2.7126217171e+03 0.0000000000e+00 0.0000e+00 -1.0000e+00
       -2 -1    0    0    0  501 -0.0000000000e+00 -0.0000000000e+00 -5.7938565278e+02 5.7938565278e+02 0.0000000000e+00 0.0000e+00 1.0000e+00
      -13  1    1    2    0    0 -7.5144155983e+02 -8.7386865218e+02 +4.1893580007e+02 1.2263025906e+03 0.0000000000e+00 0.0000e+00 1.0000e+00
       13  1    1    2    0    0 +7.5144155983e+02 +8.7386865218e+02 +1.7143002642e+03 2.0657047793e+03 0.0000000000e+00 0.0000e+00 -1.0000e+00
<mgrwt>
<rscale>  0 0.25073126E+04</rscale>
<asrwt>0</asrwt>
<pdfrwt beam="1">  1        2 0.41732641E+00 0.25073126E+04</pdfrwt>
<pdfrwt beam="2">  1       -2 0.89136256E-01 0.25073126E+04</pdfrwt>
<totfact> 0.31394087E+00</totfact>
</mgrwt>
<rwgt>
<wgt id='morphing_basis_vector_1'> +1.2103648e-04 </wgt>
<wgt id='morphing_basis_vector_2'> +8.3303295e-05 </wgt>
<wgt id='morphing_basis_vector_3'> +1.3133943e-04 </wgt>
<wgt id='morphing_basis_vector_4'> +9.0245635e-05 </wgt>
<wgt id='morphing_basis_vector_5'> +1.4662538e-04 </wgt>
</rwgt>
</event>
<event>
 4      1 +2.2016400e-08 2.25818400e+03 7.81860800e-03 7.97318100e-02
        2 -1    0    0  501    0 +0.0000000000e+00 +0.0000000000e+00 +1.6731652586e+03 1.6731652586e+03 0.0000000000e+00 0.0000e+00 -1.0000e+00
       -2 -1    0    0    0  501 -0.0000000000e+00 -0.0000000000e+00 -7.6193838081e+02 7.6193838081e+02 0.0000000000e+00 0.0000e+00 1.0000e+00
      -13  1    1    2    0    0 +8.3741130219e+02 +5.3388228781e+02 -1.2365091958e+02 1.0007884573e+03 0.0000000000e+00 0.0000e+00 1.0000e+00
       13  1    1    2    0    0 -8.3741130219e+02 -5.3388228781e+02 +1.0348777974e+03 1.4343151822e+03 0.0000000000e+00 0.0000e+00 -1.0000e+00
<mgrwt>
<rscale>  0 0.22581841E+04</rscale>
<asrwt>0</asrwt>
<pdfrwt beam="1">  1        2 0.25741004E+00 0.22581841E+04</pdfrwt>
<pdfrwt beam="2">  1       -2 0.11722129E+00 0.22581841E+04</pdfrwt>
<totfact> 0.65522398E+00</totfact>
</mgrwt>
<rwgt>
<wgt id='morphing_basis_vector_1'> +7.9920376e-05 </wgt>
<wgt id='morphing_basis_vector_2'> +5.4369489e-05 </wgt>
<wgt id='morphing_basis_vector_3'> +8.6148598e-05 </wgt>
<wgt id='morphing_basis_vector_4'> +5.9439244e-05 </wgt>
<wgt id='morphing_basis_vector_5'> +9.5936649e-05 </wgt>
</rwgt>
</event>
<event>
 4      1 +2.2016400e-08 2.23839600e+03 7.81860800e-03 7.98022800e-02
        2 -1    0    0  501    0 +0.0000000000e+00 +0.0000000000e+00 +9.3560409716e+02 9.3560409716e+02 0.0000000000e+00 0.0000e+00 -1.0000e+00
       -2 -1    0    0    0  501 -0.0000000000e+00 -0.0000000000e+00 -1.3388183226e+03 1.3388183226e+03 0.0000000000e+00 0.0000e+00 1.0000e+00
      -13  1    1    2    0    0 +3.8845229328e+02 +9.4158472249e+02 -6.7288997234e+02 1.2207611923e+03 0.0000000000e+00 0.0000e+00 1.0000e+00
       13  1    1    2    0    0 -3.8845229328e+02 -9.4158472249e+02 +2.6967574690e+02 1.0536612275e+03 0.0000000000e+00 0.0000e+00 -1.0000e+00
<mgrwt>
<rscale>  0 0.22383958E+04</rscale>
<asrwt>0</asrwt>
<pdfrwt beam="1">  1        2 0.14393909E+00 0.22383958E+04</pdfrwt>
<pdfrwt beam="2">  1       -2 0.20597205E+00 0.22383958E+04</pdfrwt>
<totfact> 0.33585849E+00</totfact>
</mgrwt>
<rwgt>
<wgt id='morphing_basis_vector_1'> +7.7335857e-05 </wgt>
<wgt id='morphing_basis_vector_2'> +5.2905169e-05 </wgt>
<wgt id='morphing_basis_vector_3'> +8.3375679e-05 </wgt>
<wgt id='morphing_basis_vector_4'> +5.7075601e-05 </wgt>
<wgt id='morphing_basis_vector_5'> +9.2543993e-05 </wgt>
</rwgt>
</event>
<event>
 4      1 +2.2016400e-08 2.34274100e+03 7.81860800e-03 7.94388200e-02
        2 -1    0    0  501    0 +0.0000000000e+00 +0.0000000000e+00 +2.2706888575e+03 2.2706888575e+03 0.0000000000e+00 0.0000e+00 1.0000e+00
       -2 -1    0    0    0  501 -0.0000000000e+00 -0.0000000000e+00 -6.0427006102e+02 6.0427006102e+02 0.0000000000e+00 0.0000e+00 -1.0000e+00
      -13  1    1    2    0    0 -6.8656360875e+02 -4.6998636545e+02 -1.7863714173e+02 8.5098061139e+02 0.0000000000e+00 0.0000e+00 -1.0000e+00
       13  1    1    2    0    0 +6.8656360875e+02 +4.6998636545e+02 +1.8450559382e+03 2.0239783071e+03 0.0000000000e+00 0.0000e+00 1.0000e+00
<mgrwt>
<rscale>  0 0.23427414E+04</rscale>
<asrwt>0</asrwt>
<pdfrwt beam="1">  1        2 0.34933674E+00 0.23427414E+04</pdfrwt>
<pdfrwt beam="2">  1       -2 0.92964626E-01 0.23427414E+04</pdfrwt>
<totfact> 0.52950075E+00</totfact>
</mgrwt>
<rwgt>
<wgt id='morphing_basis_vector_1'> +9.2018851e-05 </wgt>
<wgt id='morphing_basis_vector_2'> +6.1879571e-05 </wgt>
<wgt id='morphing_basis_vector_3'> +9.9248636e-05 </wgt>
<wgt id='morphing_basis_vector_4'> +6.9720836e-05 </wgt>
<wgt id='morphing_basis_vector_5'> +1.1143901e-04 </wgt>
</rwgt>
</event>
<event>
 4      1 +2.2016400e-08 2.32849100e+03 7.81860800e-03 7.94873000e-02
        2 -1    0    0  501    0 +0.0000000000e+00 +0.0000000000e+00 +1.7331863790e+03 1.7331863790e+03 0.0000000000e+00 0.0000e+00 1.0000e+00
       -2 -1    0    0    0  501 -0.0000000000e+00 -0.0000000000e+00 -7.8206680260e+02 7.8206680260e+02 0.0000000000e+00 0.0000e+00 -1.0000e+00
      -13  1    1    2    0    0 -2.0348038059e+02 -2.3826946052e+02 +1.6867853934e+03 1.7156402782e+03 0.0000000000e+00 0.0000e+00 1.0000e+00
       13  1    1    2    0    0 +2.0348038059e+02 +2.3826946052e+02 -7.3566581691e+02 7.9961290340e+02 0.0000000000e+00 0.0000e+00 -1.0000e+00
<mgrwt>
<rscale>  0 0.23284910E+04</rscale>
<asrwt>0</asrwt>
<pdfrwt beam="1">  1        2 0.26664406E+00 0.23284910E+04</pdfrwt>
<pdfrwt beam="2">  1       -2 0.12031797E+00 0.23284910E+04</pdfrwt>
<totfact> 0.56369293E+00</totfact>
</mgrwt>
<rwgt>
<wgt id='morphing_basis_vector_1'> +1.2284015e-04 </wgt>
<wgt id='morphing_basis_vector_2'> +1.5788468e-04 </wgt>
<wgt id='morphing_basis_vector_3'> +1.4659789e-04 </wgt>
<wgt id='morphing_basis_vector_4'> +9.1617886e-07 </wgt>
<wgt id='morphing_basis_vector_5'> +1.0331395e-04 </wgt>
</rwgt>
</event>
<event>
 4      1 +2.2016400e-08 2.28158600e+03 7.81860800e-03 7.96494100e-02
        2 -1    0    0  501    0 +0.0000000000e+00 +0.0000000000e+00 +1.1313871996e+03 1.1313871996e+03 0.0000000000e+00 0.0000e+00 -1.0000e+00
       -2 -1    0    0    0  501 -0.0000000000e+00 -0.0000000000e+00 -1.1502768625e+03 1.1502768625e+03 0.0000000000e+00 0.0000e+00 1.0000e+00
      -13  1    1    2    0    0 +7.7099887908e+02 -8.4061886014e+02 -2.7588733043e+01 1.1409822425e+03 0.0000000000e+00 0.0000e+00 1.0000e+00
       13  1    1    2    0    0 -7.7099887908e+02 +8.4061886014e+02 +8.6990701322e+00 1.1406818195e+03 0.0000000000e+00 0.0000e+00 -1.0000e+00
<mgrwt>
<rscale>  0 0.22815859E+04</rscale>
<asrwt>0</asrwt>
<pdfrwt beam="1">  1        2 0.17405957E+00 0.22815859E+04</pdfrwt>
<pdfrwt beam="2">  1       -2 0.17696567E+00 0.22815859E+04</pdfrwt>
<totfact> 0.41633259E+00</totfact>
</mgrwt>
<rwgt>
<wgt id='morphing_basis_vector_1'> +8.5676194e-05 </wgt>
<wgt id='morphing_basis_vector_2'> +6.3866573e-05 </wgt>
<wgt id='morphing_basis_vector_3'> +9.3441741e-05 </wgt>
<wgt id='morphing_basis_vector_4'> +5.7022001e-05 </wgt>
<wgt id='morphing_basis_vector_5'> +9.9641802e-05 </wgt>
</rwgt>
</event>
<event>
 4      1 +2.2016400e-08 2.50914900e+03 7.81860800e-03 7.88976900e-02
        2 -1    0    0  501    0 +0.0000000000e+00 +0.0000000000e+00 +3.0041843305e+03 3.0041843305e+03 0.0000000000e+00 0.0000e+00 -1.0000e+00
       -2 -1    0    0    0  501 -0.0000000000e+00 -0.0000000000e+00 -5.2392145924e+02 5.2392145924e+02 0.0000000000e+00 0.0000e+00 1.0000e+00
      -13  1    1    2    0    0 +9.2533789714e+02 -4.5830363774e+02 +2.3827962733e+02 1.0597497955e+03 0.0000000000e+00 0.0000e+00 1.0000e+00
       13  1    1    2    0    0 -9.2533789714e+02 +4.5830363774e+02 +2.2419832440e+03 2.4683559943e+03 0.0000000000e+00 0.0000e+00 -1.0000e+00
<mgrwt>
<rscale>  0 0.25091486E+04</rscale>
<asrwt>0</asrwt>
<pdfrwt beam="1">  1        2 0.46218219E+00 0.25091486E+04</pdfrwt>
<pdfrwt beam="2">  1       -2 0.80603303E-01 0.25091486E+04</pdfrwt>
<totfact> 0.25867444E+00</totfact>
</mgrwt>
<rwgt>
<wgt id='morphing_basis_vector_1'> +1.2084610e-04 </wgt>
<wgt id='morphing_basis_vector_2'> +8.1950822e-05 </wgt>
<wgt id='morphing_basis_vector_3'> +1.3089857e-04 </wgt>
<wgt id='morphing_basis_vector_4'> +9.1621905e-05 </wgt>
<wgt id='morphing_basis_vector_5'> +1.4715064e-04 </wgt>
</rwgt>
</event>
<event>
 4      1 +2.2016400e-08 2.52162800e+03 7.81860800e-03 7.88588500e-02
        2 -1    0    0  501    0 +0.0000000000e+00 +0.0000000000e+00 +1.4412632436e+03 1.4412632436e+03 0.0000000000e+00 0.0000e+00 -1.0000e+00
       -2 -1    0    0    0  501 -0.0000000000e+00 -0.0000000000e+00 -1.1029572214e+03 1.1029572214e+03 0.0000000000e+00 0.0000e+00 1.0000e+00
      -13  1    1    2    0    0 -1.2241336421e+03 +2.0522490400e+02 -5.4260954183e+01 1.2424027873e+03 0.0000000000e+00 0.0000e+00 1.0000e+00
       13  1    1    2    0    0 +1.2241336421e+03 -2.0522490400e+02 +3.9256697640e+02 1.3018176776e+03 0.0000000000e+00 0.0000e+00 -1.0000e+00
<mgrwt>
<rscale>  0 0.25216278E+04</rscale>
<asrwt>0</asrwt>
<pdfrwt beam="1">  1        2 0.22173281E+00 0.25216278E+04</pdfrwt>
<pdfrwt beam="2">  1       -2 0.16968573E+00 0.25216278E+04</pdfrwt>
<totfact> 0.30792712E+00</totfact>
</mgrwt>
<rwgt>
<wgt id='morphing_basis_vector_1'> +1.2519304e-04 </wgt>
<wgt id='morphing_basis_vector_2'> +8.9356350e-05 </wgt>
<wgt id='morphing_basis_vector_3'> +1.3650983e-04 </wgt>
<wgt id='morphing_basis_vector_4'> +8.9468698e-05 </wgt>
<wgt id='morphing_basis_vector_5'> +1.4981220e-04 </wgt>
</rwgt>
</event>
<event>
 4      1 +2.2016400e-08 2.61715000e+03 7.81860800e-03 7.85689800e-02
        2 -1    0    0  501    0 +0.0000000000e+00 +0.0000000000e+00 +1.2042806398e+03 1.2042806398e+03 0.0000000000e+00 0.0000e+00 1.0000e+00
       -2 -1    0    0    0  501 -0.0000000000e+00 -0.0000000000e+00 -1.4219017838e+03 1.4219017838e+03 0.0000000000e+00 0.0000e+00 -1.0000e+00
      -13  1    1    2    0    0 +6.1013882661e+02 +9.6763177879e+02 -7.4644685845e+02 1.3659295588e+03 0.0000000000e+00 0.0000e+00 -1.0000e+00
       13  1    1    2    0    0 -6.1013882661e+02 -9.6763177879e+02 +5.2882571441e+02 1.2602528648e+03 0.0000000000e+00 0.0000e+00 1.0000e+00
<mgrwt>
<rscale>  0 0.26171502E+04</rscale>
<asrwt>0</asrwt>
<pdfrwt beam="1">  1        2 0.18527394E+00 0.26171502E+04</pdfrwt>
<pdfrwt beam="2">  1       -2 0.21875412E+00 0.26171502E+04</pdfrwt>
<totfact> 0.18067783E+00</totfact>
</mgrwt>
<rwgt>
<wgt id='morphing_basis_vector_1'> +1.4298553e-04 </wgt>
<wgt id='morphing_basis_vector_2'> +9.7648732e-05 </wgt>
<wgt id='morphing_basis_vector_3'> +1.5529480e-04 </wgt>
<wgt id='morphing_basis_vector_4'> +1.0814780e-04 </wgt>
<wgt id='morphing_basis_vector_5'> +1.7448526e-04 </wgt>
</rwgt>
</event>
<event>
 4      1 +2.2016400e-08 2.64478800e+03 7.81860800e-03 7.84874600e-02
        2 -1    0    0  501    0 +0.0000000000e+00 +0.0000000000e+00 +2.3284183486e+03 2.3284183486e+03 0.0000000000e+00 0.0000e+00 -1.0000e+00
       -2 -1    0    0    0  501 -0.0000000000e+00 -0.0000000000e+00 -7.5103613559e+02 7.5103613559e+02 0.0000000000e+00 0.0000e+00 1.0000e+00
      -13  1    1    2    0    0 +6.4216474025e+02 -1.1439042551e+02 -5.5069682415e+02 8.5365550148e+02 0.0000000000e+00 0.0000e+00 1.0000e+00
       13  1    1    2    0    0 -6.4216474025e+02 +1.1439042551e+02 +2.1280790372e+03 2.2257989827e+03 0.0000000000e+00 0.0000e+00 -1.0000e+00
<mgrwt>
<rscale>  0 0.26447883E+04</rscale>
<asrwt>0</asrwt>
<pdfrwt beam="1">  1        2 0.35821820E+00 0.26447883E+04</pdfrwt>
<pdfrwt beam="2">  1       -2 0.11554402E+00 0.26447883E+04</pdfrwt>
<totfact> 0.28038746E+00</totfact>
</mgrwt>
<rwgt>
<wgt id='morphing_basis_vector_1'> +1.4836258e-04 </wgt>
<wgt id='morphing_basis_vector_2'> +9.9796621e-05 </wgt>
<wgt id='morphing_basis_vector_3'> +1.6089898e-04 </wgt>
<wgt id='morphing_basis_vector_4'> +1.1425473e-04 </wgt>
<wgt id='morphing_basis_vector_5'> +1.8217664e-04 </wgt>
</rwgt>
</event>
<event>
 4      1 +2.2016400e-08 2.33850600e+03 7.81860800e-03 7.94531900e-02
        2 -1    0    0  501    0 +0.0000000000e+00 +0.0000000000e+00 +2.1956506873e+03 2.1956506873e+03 0.0000000000e+00 0.0000e+00 -1.0000e+00
       -2 -1    0    0    0  501 -0.0000000000e+00 -0.0000000000e+00 -6.2266403822e+02 6.2266403822e+02 0.0000000000e+00 0.0000e+00 1.0000e+00
      -13  1    1    2    0    0 -5.7746234992e+02 -8.6398642069e+02 +1.4060658453e+02 1.0486684473e+03 0.0000000000e+00 0.0000e+00 1.0000e+00
       13  1    1    2    0    0 +5.7746234992e+02 +8.6398642069e+02 +1.4323800645e+03 1.7696462782e+03 0.0000000000e+00 0.0000e+00 -1.0000e+00
<mgrwt>
<rscale>  0 0.23385061E+04</rscale>
<asrwt>0</asrwt>
<pdfrwt beam="1">  1        2 0.33779241E+00 0.23385061E+04</pdfrwt>
<pdfrwt beam="2">  1       -2 0.95794469E-01 0.23385061E+04</pdfrwt>
<totfact> 0.54508470E+00</totfact>
</mgrwt>
<rwgt>
<wgt id='morphing_basis_vector_1'> +9.1757642e-05 </wgt>
<wgt id='morphing_basis_vector_2'> +6.2595543e-05 </wgt>
<wgt id='morphing_basis_vector_3'> +9.9125790e-05 </wgt>
<wgt id='morphing_basis_vector_4'> +6.8412394e-05 </wgt>
<wgt id='morphing_basis_vector_5'> +1.1055935e-04 </wgt>
</rwgt>
</event>
<event>
 4      1 +2.2016400e-08 2.63586700e+03 7.81860800e-03 7.85136700e-02
        2 -1    0    0  501    0 +0.0000000000e+00 +0.0000000000e+00 +2.7894579145e+03 2.7894579145e+03 0.0000000000e+00 0.0000e+00 -1.0000e+00
       -2 -1    0    0    0  501 -0.0000000000e+00 -0.0000000000e+00 -6.2268324978e+02 6.2268324978e+02 0.0000000000e+00 0.0000e+00 1.0000e+00
      -13  1    1    2    0    0 +1.5237464209e+02 +8.0406121312e+02 -2.5391533695e+02 8.5685790207e+02 0.0000000000e+00 0.0000e+00 1.0000e+00
       13  1    1    2    0    0 -1.5237464209e+02 -8.0406121312e+02 +2.4206900017e+03 2.5552832623e+03 0.0000000000e+00 0.0000e+00 -1.0000e+00
<mgrwt>
<rscale>  0 0.26358670E+04</rscale>
<asrwt>0</asrwt>
<pdfrwt beam="1">  1        2 0.42914736E+00 0.26358670E+04</pdfrwt>
<pdfrwt beam="2">  1       -2 0.95797425E-01 0.26358670E+04</pdfrwt>
<totfact> 0.23481449E+00</totfact>
</mgrwt>
<rwgt>
<wgt id='morphing_basis_vector_1'> +1.4645253e-04 </wgt>
<wgt id='morphing_basis_vector_2'> +9.8635814e-05 </wgt>
<wgt id='morphing_basis_vector_3'> +1.5883094e-04 </wgt>
<wgt id='morphing_basis_vector_4'> +1.1258337e-04 </wgt>
<wgt id='morphing_basis_vector_5'> +1.7969333e-04 </wgt>
</rwgt>
</event>
<event>
 4      1 +2.2016400e-08 2.37181100e+03 7.81860800e-03 7.93410200e-02
        2 -1    0    0  501    0 +0.0000000000e+00 +0.0000000000e+00 +1.6778244157e+03 1.6778244157e+03 0.0000000000e+00 0.0000e+00 1.0000e+00
       -2 -1    0    0    0  501 -0.0000000000e+00 -0.0000000000e+00 -8.3821153436e+02 8.3821153436e+02 0.0000000000e+00 0.0000e+00 -1.0000e+00
      -13  1    1    2    0    0 +1.3386648239e+02 -2.6165319796e+02 -7.9896412008e+02 8.5130857877e+02 0.0000000000e+00 0.0000e+00 -1.0000e+00
       13  1    1    2    0    0 -1.3386648239e+02 +2.6165319796e+02 +1.6385770014e+03 1.6647273713e+03 0.0000000000e+00 0.0000e+00 1.0000e+00
<mgrwt>
<rscale>  0 0.23718109E+04</rscale>
<asrwt>0</asrwt>
<pdfrwt beam="1">  1        2 0.25812683E+00 0.23718109E+04</pdfrwt>
<pdfrwt beam="2">  1       -2 0.12895562E+00 0.23718109E+04</pdfrwt>
<totfact> 0.50243095E+00</totfact>
</mgrwt>
<rwgt>
<wgt id='morphing_basis_vector_1'> +9.6484953e-05 </wgt>
<wgt id='morphing_basis_vector_2'> +6.4643179e-05 </wgt>
<wgt id='morphing_basis_vector_3'> +1.0408436e-04 </wgt>
<wgt id='morphing_basis_vector_4'> +7.3535476e-05 </wgt>
<wgt id='morphing_basis_vector_5'> +1.1717649e-04 </wgt>
</rwgt>
</event>
<event>
 4      1 +2.2016400e-08 2.36125700e+03 7.81860800e-03 7.93763600e-02
        2 -1    0    0  501    0 +0.0000000000e+00 +0.0000000000e+00 +2.3201203703e+03 2.3201203703e+03 0.0000000000e+00 0.0000e+00 1.0000e+00
       -2 -1    0    0    0  501 -0.0000000000e+00 -0.0000000000e+00 -6.0078084576e+02 6.0078084576e+02 0.0000000000e+00 0.0000e+00 -1.0000e+00
      -13  1    1    2    0    0 -7.0531448779e+02 +9.1870092944e+02 +5.7649430910e+02 1.2937641257e+03 0.0000000000e+00 0.0000e+00 -1.0000e+00
       13  1    1    2    0    0 +7.0531448779e+02 -9.1870092944e+02 +1.1428452154e+03 1.6271370904e+03 0.0000000000e+00 0.0000e+00 1.0000e+00
<mgrwt>
<rscale>  0 0.23612572E+04</rscale>
<asrwt>0</asrwt>
<pdfrwt beam="1">  1        2 0.35694159E+00 0.23612572E+04</pdfrwt>
<pdfrwt beam="2">  1       -2 0.92427823E-01 0.23612572E+04</pdfrwt>
<totfact> 0.50167188E+00</totfact>
</mgrwt>
<rwgt>
<wgt id='morphing_basis_vector_1'> +9.6476650e-05 </wgt>
<wgt id='morphing_basis_vector_2'> +6.8447441e-05 </wgt>
<wgt id='morphing_basis_vector_3'> +1.0477406e-04 </wgt>
<wgt id='morphing_basis_vector_4'> +6.8810708e-05 </wgt>
<wgt id='morphing_basis_vector_5'> +1.1480086e-04 </wgt>
</rwgt>
</event>
<event>
 4      1 +2.2016400e-08 2.44006600e+03 7.81860800e-03 7.91169500e-02
        2 -1    0    0  501    0 +0.0000000000e+00 +0.0000000000e+00 +2.8952425978e+03 2.8952425978e+03 0.0000000000e+00 0.0000e+00 -1.0000e+00
       -2 -1    0    0    0  501 -0.0000000000e+00 -0.0000000000e+00 -5.1411233120e+02 5.1411233120e+02 0.0000000000e+00 0.0000e+00 1.0000e+00
      -13  1    1    2    0    0 +8.0724922029e+02 +9.0055857719e+02 +9.6603586735e+02 1.5478638027e+03 0.0000000000e+00 0.0000e+00 1.0000e+00
       13  1    1    2    0    0 -8.0724922029e+02 -9.0055857719e+02 +1.4150943992e+03 1.8614911263e+03 0.0000000000e+00 0.0000e+00 -1.0000e+00
<mgrwt>
<rscale>  0 0.24400655E+04</rscale>
<asrwt>0</asrwt>
<pdfrwt beam="1">  1        2 0.44542193E+00 0.24400655E+04</pdfrwt>
<pdfrwt beam="2">  1       -2 0.79094207E-01 0.24400655E+04</pdfrwt>
<totfact> 0.31928551E+00</totfact>
</mgrwt>
<rwgt>
<wgt id='morphing_basis_vector_1'> +1.1033419e-04 </wgt>
<wgt id='morphing_basis_vector_2'> +7.9526114e-05 </wgt>
<wgt id='morphing_basis_vector_3'> +1.2026594e-04 </wgt>
<wgt id='morphing_basis_vector_4'> +7.7539162e-05 </wgt>
<wgt id='morphing_basis_vector_5'> +1.3106359e-04 </wgt>
</rwgt>
</event>
<event>
 4      1 +2.2016400e-08 2.40471500e+03 7.81860800e-03 7.92320500e-02
        2 -1    0    0  501    0 +0.0000000000e+00 +0.0000000000e+00 +2.0346455830e+03 2.0346455830e+03 0.0000000000e+00 0.0000e+00 -1.0000e+00
       -2 -1    0    0    0  501 -0.0000000000e+00 -0.0000000000e+00 -7.1052324190e+02 7.1052324190e+02 0.0000000000e+00 0.0000e+00 1.0000e+00
      -13  1    1    2    0    0 -1.9951408498e+02 +9.1459561004e+02 -1.9933627003e+02 9.5709244514e+02 0.0000000000e+00 0.0000e+00 1.0000e+00
       13  1    1    2    0    0 +1.9951408498e+02 -9.1459561004e+02 +1.5234586111e+03 1.7880763797e+03 0.0000000000e+00 0.0000e+00 -1.0000e+00
<mgrwt>
<rscale>  0 0.24047145E+04</rscale>
<asrwt>0</asrwt>
<pdfrwt beam="1">  1        2 0.31302240E+00 0.24047145E+04</pdfrwt>
<pdfrwt beam="2">  1       -2 0.10931127E+00 0.24047145E+04</pdfrwt>
<totfact> 0.48504782E+00</totfact>
</mgrwt>
<rwgt>
<wgt id='morphing_basis_vector_1'> +1.0208613e-04 </wgt>
<wgt id='morphing_basis_vector_2'> +6.8917469e-05 </wgt>
<wgt id='morphing_basis_vector_3'> +1.1030010e-04 </wgt>
<wgt id='morphing_basis_vector_4'> +7.7322051e-05 </wgt>
<wgt id='morphing_basis_vector_5'> +1.2387586e-04 </wgt>
</rwgt>
</event>
<event>
 4      1 +2.2016400e-08 2.28678900e+03 7.81860800e-03 7.96312300e-02
        2 -1    0    0  501    0 +0.0000000000e+00 +0.0000000000e+00 +3.6742080266e+03 3.6742080266e+03 0.0000000000e+00 0.0000e+00 1.0000e+00
       -2 -1    0    0    0  501 -0.0000000000e+00 -0.0000000000e+00 -3.5581851140e+02 3.5581851140e+02 0.0000000000e+00 0.0000e+00 -1.0000e+00
      -13  1    1    2    0    0 +8.6028191786e+02 -5.9698391789e+02 +8.4992033319e+02 1.3486435219e+03 0.0000000000e+00 0.0000e+00 -1.0000e+00
       13  1    1    2    0    0 -8.6028191786e+02 +5.9698391789e+02 +2.4684691820e+03 2.6813830161e+03 0.0000000000e+00 0.0000e+00 1.0000e+00
<mgrwt>
<rscale>  0 0.22867892E+04</rscale>
<asrwt>0</asrwt>
<pdfrwt beam="1">  1        2 0.56526275E+00 0.22867892E+04</pdfrwt>
<pdfrwt beam="2">  1       -2 0.54741312E-01 0.22867892E+04</pdfrwt>
<totfact> 0.20278562E+00</totfact>
</mgrwt>
<rwgt>
<wgt id='morphing_basis_vector_1'> +8.4165254e-05 </wgt>
<wgt id='morphing_basis_vector_2'> +5.7701973e-05 </wgt>
<wgt id='morphing_basis_vector_3'> +9.0869389e-05 </wgt>
<wgt id='morphing_basis_vector_4'> +6.2182387e-05 </wgt>
<wgt id='morphing_basis_vector_5'> +1.0093972e-04 </wgt>
</rwgt>
</event>
<event>
 4      1 +2.2016400e-08 2.40642800e+03 7.81860800e-03 7.92264300e-02
        2 -1    0    0  501    0 +0.0000000000e+00 +0.0000000000e+00 +2.3115819511e+03 2.3115819511e+03 0.0000000000e+00 0.0000e+00 1.0000e+00
       -2 -1    0    0    0  501 -0.0000000000e+00 -0.0000000000e+00 -6.2629140387e+02 6.2629140387e+02 0.0000000000e+00 0.0000e+00 -1.0000e+00
      -13  1    1    2    0    0 +9.9757869784e+02 -6.6335666715e+02 +7.0604935588e+02 1.3905793826e+03 0.0000000000e+00 0.0000e+00 -1.0000e+00
       13  1    1    2    0    0 -9.9757869784e+02 +6.6335666715e+02 +9.7924119131e+02 1.5472939724e+03 0.0000000000e+00 0.0000e+00 1.0000e+00
<mgrwt>
<rscale>  0 0.24064280E+04</rscale>
<asrwt>0</asrwt>
<pdfrwt beam="1">  1        2 0.35562799E+00 0.24064280E+04</pdfrwt>
<pdfrwt beam="2">  1       -2 0.96352525E-01 0.24064280E+04</pdfrwt>
<totfact> 0.45821641E+00</totfact>
</mgrwt>
<rwgt>
<wgt id='morphing_basis_vector_1'> +1.0481762e-04 </wgt>
<wgt id='morphing_basis_vector_2'> +7.6329071e-05 </wgt>
<wgt id='morphing_basis_vector_3'> +1.1432054e-04 </wgt>
<wgt id='morphing_basis_vector_4'> +7.2557502e-05 </wgt>
<wgt id='morphing_basis_vector_5'> +1.2383144e-04 </wgt>
</rwgt>
</event>
<event>
 4      1 +2.2016400e-08 2.27356900e+03 7.81860800e-03 7.96775200e-02
        2 -1    0    0  501    0 +0.0000000000e+00 +0.0000000000e+00 +2.2681278427e+03 2.2681278427e+03 0.0000000000e+00 0.0000e+00 -1.0000e+00
       -2 -1    0    0    0  501 -0.0000000000e+00 -0.0000000000e+00 -5.6975567580e+02 5.6975567580e+02 0.0000000000e+00 0.0000e+00 1.0000e+00
      -13  1    1    2    0    0 -9.5072336168e+01 +7.2159173378e+02 -2.4079587282e+02 7.6662639645e+02 0.0000000000e+00 0.0000e+00 1.0000e+00
       13  1    1    2    0    0 +9.5072336168e+01 -7.2159173378e+02 +1.9391680398e+03 2.0712571221e+03 0.0000000000e+00 0.0000e+00 -1.0000e+00
<mgrwt>
<rscale>  0 0.22735687E+04</rscale>
<asrwt>0</asrwt>
<pdfrwt beam="1">  1        2 0.34894274E+00 0.22735687E+04</pdfrwt>
<pdfrwt beam="2">  1       -2 0.87654721E-01 0.22735687E+04</pdfrwt>
<totfact> 0.61330367E+00</totfact>
</mgrwt>
<rwgt>
<wgt id='morphing_basis_vector_1'> +8.1729178e-05 </wgt>
<wgt id='morphing_basis_vector_2'> +5.4803429e-05 </wgt>
<wgt id='morphing_basis_vector_3'> +8.7983595e-05 </wgt>
<wgt id='morphing_basis_vector_4'> +6.1822906e-05 </wgt>
<wgt id='morphing_basis_vector_5'> +9.8677664e-05 </wgt>
</rwgt>
</event>
<event>
 4      1 +2.2016400e-08 2.26427500e+03 7.81860800e-03 7.97102600e-02
        2 -1    0    0  501    0 +0.0000000000e+00 +0.0000000000e+00 +2.3062957340e+03 2.3062957340e+03 0.0000000000e+00 0.0000e+00 -1.0000e+00
       -2 -1    0    0    0  501 -0.0000000000e+00 -0.0000000000e+00 -5.5575503144e+02 5.5575503144e+02 0.0000000000e+00 0.0000e+00 1.0000e+00
      -13  1    1    2    0    0 -3.6626889813e+02 -7.0824220066e+02 -1.4064184386e+02 8.0965427732e+02 0.0000000000e+00 0.0000e+00 1.0000e+00
       13  1    1    2    0    0 +3.6626889813e+02 +7.0824220066e+02 +1.8911825464e+03 2.0523964881e+03 0.0000000000e+00 0.0000e+00 -1.0000e+00
<mgrwt>
<rscale>  0 0.22642751E+04</rscale>
<asrwt>0</asrwt>
<pdfrwt beam="1">  1        2 0.35481472E+00 0.22642751E+04</pdfrwt>
<pdfrwt beam="2">  1       -2 0.85500776E-01 0.22642751E+04</pdfrwt>
<totfact> 0.61798197E+00</totfact>
</mgrwt>
<rwgt>
<wgt id='morphing_basis_vector_1'> +8.0459453e-05 </wgt>
<wgt id='morphing_basis_vector_2'> +5.4029919e-05 </wgt>
<wgt id='morphing_basis_vector_3'> +8.6611994e-05 </wgt>
<wgt id='morphing_basis_vector_4'> +6.0726867e-05 </wgt>
<wgt id='morphing_basis_vector_5'> +9.7043165e-05 </wgt>
</rwgt>
</event>
<event>
 4      1 +2.2016400e-08 2.38403000e+03 7.81860800e-03 7.93003500e-02
        2 -1    0    0  501    0 +0.0000000000e+00 +0.0000000000e+00 +1.1572518857e+03 1.1572518857e+03 0.0000000000e+00 0.0000e+00 -1.0000e+00
       -2 -1    0    0    0  501 -0.0000000000e+00 -0.0000000000e+00 -1.2278222672e+03 1.2278222672e+03 0.0000000000e+00 0.0000e+00 1.0000e+00
      -13  1    1    2    0    0 -1.3389296446e+02 +8.5616734153e+02 -8.5414832100e+02 1.2167658760e+03 0.0000000000e+00 0.0000e+00 1.0000e+00
       13  1    1    2    0    0 +1.3389296446e+02 -8.5616734153e+02 +7.8357793955e+02 1.1683082769e+03 0.0000000000e+00 0.0000e+00 -1.0000e+00
<mgrwt>
<rscale>  0 0.23840299E+04</rscale>
<asrwt>0</asrwt>
<pdfrwt beam="1">  1        2 0.17803875E+00 0.23840299E+04</pdfrwt>
<pdfrwt beam="2">  1       -2 0.18889573E+00 0.23840299E+04</pdfrwt>
<totfact> 0.32380383E+00</totfact>
</mgrwt>
<rwgt>
<wgt id='morphing_basis_vector_1'> +9.8596244e-05 </wgt>
<wgt id='morphing_basis_vector_2'> +6.6381211e-05 </wgt>
<wgt id='morphing_basis_vector_3'> +1.0645028e-04 </wgt>
<wgt id='morphing_basis_vector_4'> +7.4805135e-05 </wgt>
<wgt id='morphing_basis_vector_5'> +1.1962224e-04 </wgt>
</rwgt>
</event>
<event>
 4      1 +2.2016400e-08 2.66590800e+03 7.81860800e-03 7.84258500e-02
        2 -1    0    0  501    0 +0.0000000000e+00 +0.0000000000e+00 +5.9300581657e+02 5.9300581657e+02 0.0000000000e+00 0.0000e+00 1.0000e+00
       -2 -1    0    0    0  501 -0.0000000000e+00 -0.0000000000e+00 -2.9962034815e+03 2.9962034815e+03 0.0000000000e+00 0.0000e+00 -1.0000e+00
      -13  1    1    2    0    0 -6.9893768459e+02 +8.4834298173e+02 -2.2167816339e+03 2.4743323370e+03 0.0000000000e+00 0.0000e+00 -1.0000e+00
       13  1    1    2    0    0 +6.9893768459e+02 -8.4834298173e+02 -1.8641603100e+02 1.1148769610e+03 0.0000000000e+00 0.0000e+00 1.0000e+00
<mgrwt>
<rscale>  0 0.26659078E+04</rscale>
<asrwt>0</asrwt>
<pdfrwt beam="1">  1        2 0.91231665E-01 0.26659078E+04</pdfrwt>
<pdfrwt beam="2">  1       -2 0.46095438E+00 0.26659078E+04</pdfrwt>
<totfact> 0.10993930E-01</totfact>
</mgrwt>
<rwgt>
<wgt id='morphing_basis_vector_1'> +1.5354772e-04 </wgt>
<wgt id='morphing_basis_vector_2'> +1.0432078e-04 </wgt>
<wgt id='morphing_basis_vector_3'> +1.6678233e-04 </wgt>
<wgt id='morphing_basis_vector_4'> +1.1707083e-04 </wgt>
<wgt id='morphing_basis_vector_5'> +1.8805865e-04 </wgt>
</rwgt>
</event>
<event>
 4      1 +2.2016400e-08 2.38397700e+03 7.81860800e-03 7.93005200e-02
        2 -1    0    0  501    0 +0.0000000000e+00 +0.0000000000e+00 +3.4316976802e+03 3.4316976802e+03 0.0000000000e+00 0.0000e+00 -1.0000e+00
       -2 -1    0    0    0  501 -0.0000000000e+00 -0.0000000000e+00 -4.1403330035e+02 4.1403330035e+02 0.0000000000e+00 0.0000e+00 1.0000e+00
      -13  1    1    2    0    0 -3.6158083895e+02 +9.7754381248e+02 +5.7584056379e+02 1.1907665444e+03 0.0000000000e+00 0.0000e+00 1.0000e+00
       13  1    1    2    0    0 +3.6158083895e+02 -9.7754381248e+02 +2.4418238161e+03 2.6549644362e+03 0.0000000000e+00 0.0000e+00 -1.0000e+00
<mgrwt>
<rscale>  0 0.23839774E+04</rscale>
<asrwt>0</asrwt>
<pdfrwt beam="1">  1        2 0.52795347E+00 0.23839774E+04</pdfrwt>
<pdfrwt beam="2">  1       -2 0.63697433E-01 0.23839774E+04</pdfrwt>
<totfact> 0.22282718E+00</totfact>
</mgrwt>
<rwgt>
<wgt id='morphing_basis_vector_1'> +9.8924855e-05 </wgt>
<wgt id='morphing_basis_vector_2'> +6.7370903e-05 </wgt>
<wgt id='morphing_basis_vector_3'> +1.0695126e-04 </wgt>
<wgt id='morphing_basis_vector_4'> +7.4111145e-05 </wgt>
<wgt id='morphing_basis_vector_5'> +1.1955613e-04 </wgt>
</rwgt>
</event>
<event>
 4      1 +2.2016400e-08 2.41024100e+03 7.81860800e-03 7.92139300e-02
        2 -1    0    0  501    0 +0.0000000000e+00 +0.0000000000e+00 +1.7313583415e+03 1.7313583415e+03 0.0000000000e+00 0.0000e+00 -1.0000e+00
       -2 -1    0    0    0  501 -0.0000000000e+00 -0.0000000000e+00 -8.3883000508e+02 8.3883000508e+02 0.0000000000e+00 0.0000e+00 1.0000e+00
      -13  1    1    2    0    0 -4.1123922540e+01 +1.1968557319e+03 +3.0256029572e+02 1.2351913020e+03 0.0000000000e+00 0.0000e+00 1.0000e+00
       13  1    1    2    0    0 +4.1123922540e+01 -1.1968557319e+03 +5.8996804073e+02 1.3349970446e+03 0.0000000000e+00 0.0000e+00 -1.0000e+00
<mgrwt>
<rscale>  0 0.24102409E+04</rscale>
<asrwt>0</asrwt>
<pdfrwt beam="1">  1        2 0.26636282E+00 0.24102409E+04</pdfrwt>
<pdfrwt beam="2">  1       -2 0.12905077E+00 0.24102409E+04</pdfrwt>
<totfact> 0.46665475E+00</totfact>
</mgrwt>
<rwgt>
<wgt id='morphing_basis_vector_1'> +1.0529079e-04 </wgt>
<wgt id='morphing_basis_vector_2'> +7.6269259e-05 </wgt>
<wgt id='morphing_basis_vector_3'> +1.1476873e-04 </wgt>
<wgt id='morphing_basis_vector_4'> +7.3398923e-05 </wgt>
<wgt id='morphing_basis_vector_5'> +1.2465920e-04 </wgt>
</rwgt>
</event>
<event>
 4      1 +2.2016400e-08 2.26532300e+03 7.81860800e-03 7.97065600e-02
        2 -1    0    0  501    0 +0.0000000000e+00 +0.0000000000e+00 +2.6053421764e+03 2.6053421764e+03 0.0000000000e+00 0.0000e+00 -1.0000e+00
       -2 -1    0    0    0  501 -0.0000000000e+00 -0.0000000000e+00 -4.9241999108e+02 4.9241999108e+02 0.0000000000e+00 0.0000e+00 1.0000e+00
      -13  1    1    2    0    0 +4.3295422879e+02 +7.6911733920e+02 +8.5719354158e+01 8.8675738134e+02 0.0000000000e+00 0.0000e+00 1.0000e+00
       13  1    1    2    0    0 -4.3295422879e+02 -7.6911733920e+02 +2.0272028312e+03 2.2110047862e+03 0.0000000000e+00 0.0000e+00 -1.0000e+00
<mgrwt>
<rscale>  0 0.22653234E+04</rscale>
<asrwt>0</asrwt>
<pdfrwt beam="1">  1        2 0.40082186E+00 0.22653234E+04</pdfrwt>
<pdfrwt beam="2">  1       -2 0.75756923E-01 0.22653234E+04</pdfrwt>
<totfact> 0.54063198E+00</totfact>
</mgrwt>
<rwgt>
<wgt id='morphing_basis_vector_1'> +8.0683632e-05 </wgt>
<wgt id='morphing_basis_vector_2'> +5.4358174e-05 </wgt>
<wgt id='morphing_basis_vector_3'> +8.6888358e-05 </wgt>
<wgt id='morphing_basis_vector_4'> +6.0684241e-05 </wgt>
<wgt id='morphing_basis_vector_5'> +9.7213238e-05 </wgt>
</rwgt>
</event>
<event>
 4      1 +2.2016400e-08 2.58426300e+03 7.81860800e-03 7.86673400e-02
        2 -1    0    0  501    0 +0.0000000000e+00 +0.0000000000e+00 +3.6890006681e+03 3.6890006681e+03 0.0000000000e+00 0.0000e+00 1.0000e+00
       -2 -1    0    0    0  501 -0.0000000000e+00 -0.0000000000e+00 -4.5258972732e+02 4.5258972732e+02 0.0000000000e+00 0.0000e+00 -1.0000e+00
      -13  1    1    2    0    0 +9.1537039398e+02 -5.8426125098e+02 +4.9598305912e+02 1.1938439440e+03 0.0000000000e+00 0.0000e+00 -1.0000e+00
       13  1    1    2    0    0 -9.1537039398e+02 +5.8426125098e+02 +2.7404278817e+03 2.9477464515e+03 0.0000000000e+00 0.0000e+00 1.0000e+00
<mgrwt>
<rscale>  0 0.25842630E+04</rscale>
<asrwt>0</asrwt>
<pdfrwt beam="1">  1        2 0.56753854E+00 0.25842630E+04</pdfrwt>
<pdfrwt beam="2">  1       -2 0.69629191E-01 0.25842630E+04</pdfrwt>
<totfact> 0.11673412E+00</totfact>
</mgrwt>
<rwgt>
<wgt id='morphing_basis_vector_1'> +1.3584513e-04 </wgt>
<wgt id='morphing_basis_vector_2'> +9.2353274e-05 </wgt>
<wgt id='morphing_basis_vector_3'> +1.4737880e-04 </wgt>
<wgt id='morphing_basis_vector_4'> +1.0310433e-04 </wgt>
<wgt id='morphing_basis_vector_5'> +1.6580827e-04 </wgt>
</rwgt>
</event>
<event>
 4      1 +2.2016400e-08 2.38392600e+03 7.81860800e-03 7.93006900e-02
        2 -1    0    0  501    0 +0.0000000000e+00 +0.0000000000e+00 +9.8104255262e+02 9.8104255262e+02 0.0000000000e+00 0.0000e+00 -1.0000e+00
       -2 -1    0    0    0  501 -0.0000000000e+00 -0.0000000000e+00 -1.4482303648e+03 1.4482303648e+03 0.0000000000e+00 0.0000e+00 1.0000e+00
      -13  1    1    2    0    0 -4.9976141158e+02 -1.0300974468e+03 -5.7143220209e+02 1.2796081353e+03 0.0000000000e+00 0.0000e+00 1.0000e+00
       13  1    1    2    0    0 +4.9976141158e+02 +1.0300974468e+03 +1.0424438991e+02 1.1496647821e+03 0.0000000000e+00 0.0000e+00 -1.0000e+00
<mgrwt>
<rscale>  0 0.23839258E+04</rscale>
<asrwt>0</asrwt>
<pdfrwt beam="1">  1        2 0.15092962E+00 0.23839258E+04</pdfrwt>
<pdfrwt beam="2">  1       -2 0.22280467E+00 0.23839258E+04</pdfrwt>
<totfact> 0.23522066E+00</totfact>
</mgrwt>
<rwgt>
<wgt id='morphing_basis_vector_1'> +9.9675631e-05 </wgt>
<wgt id='morphing_basis_vector_2'> +6.9606754e-05 </wgt>
<wgt id='morphing_basis_vector_3'> +1.0809117e-04 </wgt>
<wgt id='morphing_basis_vector_4'> +7.2556956e-05 </wgt>
<wgt id='morphing_basis_vector_5'> +1.1942079e-04 </wgt>
</rwgt>
</event>
<event>
 4      1 +2.2016400e-08 2.53984300e+03 7.81860800e-03 7.88025800e-02
        2 -1    0    0  501    0 +0.0000000000e+00 +0.0000000000e+00 +1.1149257738e+03 1.1149257738e+03 0.0000000000e+00 0.0000e+00 -1.0000e+00
       -2 -1    0    0    0  501 -0.0000000000e+00 -0.0000000000e+00 -1.4464642142e+03 1.4464642142e+03 0.0000000000e+00 0.0000e+00 1.0000e+00
      -13  1    1    2    0    0 -9.3912140546e+02 +2.8257077911e+02 -9.7940058646e+02 1.3860089351e+03 0.0000000000e+00 0.0000e+00 1.0000e+00
       13  1    1    2    0    0 +9.3912140546e+02 -2.8257077911e+02 +6.4786214602e+02 1.1753810530e+03 0.0000000000e+00 0.0000e+00 -1.0000e+00
<mgrwt>
<rscale>  0 0.25398427E+04</rscale>
<asrwt>0</asrwt>
<pdfrwt beam="1">  1        2 0.17152704E+00 0.25398427E+04</pdfrwt>
<pdfrwt beam="2">  1       -2 0.22253295E+00 0.25398427E+04</pdfrwt>
<totfact> 0.19307890E+00</totfact>
</mgrwt>
<rwgt>
<wgt id='morphing_basis_vector_1'> +1.2665695e-04 </wgt>
<wgt id='morphing_basis_vector_2'> +8.5620380e-05 </wgt>
<wgt id='morphing_basis_vector_3'> +1.3721296e-04 </wgt>
<wgt id='morphing_basis_vector_4'> +9.6517972e-05 </wgt>
<wgt id='morphing_basis_vector_5'> +1.5460061e-04 </wgt>
</rwgt>
</event>
<event>
 4      1 +2.2016400e-08 2.37776800e+03 7.81860800e-03 7.93211600e-02
        2 -1    0    0  501    0 +0.0000000000e+00 +0.0000000000e+00 +1.5279220535e+03 1.5279220535e+03 0.0000000000e+00 0.0000e+00 -1.0000e+00
       -2 -1    0    0    0  501 -0.0000000000e+00 -0.0000000000e+00 -9.2507702569e+02 9.2507702569e+02 0.0000000000e+00 0.0000e+00 1.0000e+00
      -13  1    1    2    0    0 +7.7801041038e+02 -1.8593769545e+02 -6.0593485620e+02 1.0035088815e+03 0.0000000000e+00 0.0000e+00 1.0000e+00
       13  1    1    2    0    0 -7.7801041038e+02 +1.8593769545e+02 +1.2087798840e+03 1.4494901977e+03 0.0000000000e+00 0.0000e+00 -1.0000e+00
<mgrwt>
<rscale>  0 0.23777684E+04</rscale>
<asrwt>0</asrwt>
<pdfrwt beam="1">  1        2 0.23506493E+00 0.23777684E+04</pdfrwt>
<pdfrwt beam="2">  1       -2 0.14231954E+00 0.23777684E+04</pdfrwt>
<totfact> 0.46500124E+00</totfact>
</mgrwt>
<rwgt>
<wgt id='morphing_basis_vector_1'> +9.7531357e-05 </wgt>
<wgt id='morphing_basis_vector_2'> +6.5549425e-05 </wgt>
<wgt id='morphing_basis_vector_3'> +1.0526514e-04 </wgt>
<wgt id='morphing_basis_vector_4'> +7.4109151e-05 </wgt>
<wgt id='morphing_basis_vector_5'> +1.1836072e-04 </wgt>
</rwgt>
</event>
<event>
 4      1 +2.2016400e-08 2.38659900e+03 7.81860800e-03 7.92918300e-02
        2 -1    0    0  501    0 +0.0000000000e+00 +0.0000000000e+00 +9.6656526973e+02 9.6656526973e+02 0.0000000000e+00 0.0000e+00 1.0000e+00
       -2 -1    0    0    0  501 -0.0000000000e+00 -0.0000000000e+00 -1.4732203203e+03 1.4732203203e+03 0.0000000000e+00 0.0000e+00 -1.0000e+00
      -13  1    1    2    0    0 +7.3848638482e+02 +8.2519768010e+02 +2.0115888402e+02 1.1255124381e+03 0.0000000000e+00 0.0000e+00 1.0000e+00
       13  1    1    2    0    0 -7.3848638482e+02 -8.2519768010e+02 -7.0781393463e+02 1.3142731519e+03 0.0000000000e+00 0.0000e+00 -1.0000e+00
<mgrwt>
<rscale>  0 0.23865989E+04</rscale>
<asrwt>0</asrwt>
<pdfrwt beam="1">  1        2 0.14870235E+00 0.23865989E+04</pdfrwt>
<pdfrwt beam="2">  1       -2 0.22664928E+00 0.23865989E+04</pdfrwt>
<totfact> 0.22558390E+00</totfact>
</mgrwt>
<rwgt>
<wgt id='morphing_basis_vector_1'> +1.1149372e-04 </wgt>
<wgt id='morphing_basis_vector_2'> +1.0350743e-04 </wgt>
<wgt id='morphing_basis_vector_3'> +1.2579986e-04 </wgt>
<wgt id='morphing_basis_vector_4'> +4.9692758e-05 </wgt>
<wgt id='morphing_basis_vector_5'> +1.1809363e-04 </wgt>
</rwgt>
</event>
<event>
 4      1 +2.2016400e-08 2.26073500e+03 7.81860800e-03 7.97227700e-02
        2 -1    0    0  501    0 +0.0000000000e+00 +0.0000000000e+00 +1.4544792272e+03 1.4544792272e+03 0.0000000000e+00 0.0000e+00 -1.0000e+00
       -2 -1    0    0    0  501 -0.0000000000e+00 -0.0000000000e+00 -8.7848006511e+02 8.7848006511e+02 0.0000000000e+00 0.0000e+00 1.0000e+00
      -13  1    1    2    0    0 -4.5946463200e+02 -1.0232095679e+03 +1.4328600898e+02 1.1307503917e+03 0.0000000000e+00 0.0000e+00 1.0000e+00
       13  1    1    2    0    0 +4.5946463200e+02 +1.0232095679e+03 +4.3271315313e+02 1.2022089006e+03 0.0000000000e+00 0.0000e+00 -1.0000e+00
<mgrwt>
<rscale>  0 0.22607353E+04</rscale>
<asrwt>0</asrwt>
<pdfrwt beam="1">  1        2 0.22376604E+00 0.22607353E+04</pdfrwt>
<pdfrwt beam="2">  1       -2 0.13515078E+00 0.22607353E+04</pdfrwt>
<totfact> 0.59559630E+00</totfact>
</mgrwt>
<rwgt>
<wgt id='morphing_basis_vector_1'> +8.1720708e-05 </wgt>
<wgt id='morphing_basis_vector_2'> +5.8881567e-05 </wgt>
<wgt id='morphing_basis_vector_3'> +8.8701912e-05 </wgt>
<wgt id='morphing_basis_vector_4'> +5.6787033e-05 </wgt>
<wgt id='morphing_basis_vector_5'> +9.6143145e-05 </wgt>
</rwgt>
</event>
<event>
 4      1 +2.2016400e-08 2.33658900e+03 7.81860800e-03 7.94597100e-02
        2 -1    0    0  501    0 +0.0000000000e+00 +0.0000000000e+00 +1.6180564655e+03 1.6180564655e+03 0.0000000000e+00 0.0000e+00 -1.0000e+00
       -2 -1    0    0    0  501 -0.0000000000e+00 -0.0000000000e+00 -8.4354996437e+02 8.4354996437e+02 0.0000000000e+00 0.0000e+00 1.0000e+00
      -13  1    1    2    0    0 -7.4863143917e+02 -1.1981444020e+02 -5.4918537418e+02 9.3616724308e+02 0.0000000000e+00 0.0000e+00 1.0000e+00
       13  1    1    2    0    0 +7.4863143917e+02 +1.1981444020e+02 +1.3236918753e+03 1.5254391868e+03 0.0000000000e+00 0.0000e+00 -1.0000e+00
<mgrwt>
<rscale>  0 0.23365885E+04</rscale>
<asrwt>0</asrwt>
<pdfrwt beam="1">  1        2 0.24893176E+00 0.23365885E+04</pdfrwt>
<pdfrwt beam="2">  1       -2 0.12977692E+00 0.23365885E+04</pdfrwt>
<totfact> 0.53496907E+00</totfact>
</mgrwt>
<rwgt>
<wgt id='morphing_basis_vector_1'> +9.1026936e-05 </wgt>
<wgt id='morphing_basis_vector_2'> +6.1108347e-05 </wgt>
<wgt id='morphing_basis_vector_3'> +9.8146053e-05 </wgt>
<wgt id='morphing_basis_vector_4'> +6.9068884e-05 </wgt>
<wgt id='morphing_basis_vector_5'> +1.1026299e-04 </wgt>
</rwgt>
</event>
<event>
 4      1 +2.2016400e-08 2.66348500e+03 7.81860800e-03 7.84328900e-02
        2 -1    0    0  501    0 +0.0000000000e+00 +0.0000000000e+00 +1.6265899347e+03 1.6265899347e+03 0.0000000000e+00 0.0000e+00 -1.0000e+00
       -2 -1    0    0    0  501 -0.0000000000e+00 -0.0000000000e+00 -1.0903411270e+03 1.0903411270e+03 0.0000000000e+00 0.0000e+00 1.0000e+00
      -13  1    1    2    0    0 -1.1042972755e+03 -5.1935199692e+02 -2.7581002778e+02 1.2511075656e+03 0.0000000000e+00 0.0000e+00 1.0000e+00
       13  1    1    2    0    0 +1.1042972755e+03 +5.1935199692e+02 +8.1205883545e+02 1.4658234960e+03 0.0000000000e+00 0.0000e+00 -1.0000e+00
<mgrwt>
<rscale>  0 0.26634849E+04</rscale>
<asrwt>0</asrwt>
<pdfrwt beam="1">  1        2 0.25024461E+00 0.26634849E+04</pdfrwt>
<pdfrwt beam="2">  1       -2 0.16774479E+00 0.26634849E+04</pdfrwt>
<totfact> 0.24815457E+00</totfact>
</mgrwt>
<rwgt>
<wgt id='morphing_basis_vector_1'> +1.5363889e-04 </wgt>
<wgt id='morphing_basis_vector_2'> +1.0583755e-04 </wgt>
<wgt id='morphing_basis_vector_3'> +1.6716720e-04 </wgt>
<wgt id='morphing_basis_vector_4'> +1.1531691e-04 </wgt>
<wgt id='morphing_basis_vector_5'> +1.8726033e-04 </wgt>
</rwgt>
</event>
<event>
 4      1 +2.2016400e-08 2.25492100e+03 7.81860800e-03 7.97433700e-02
        2 -1    0    0  501    0 +0.0000000000e+00 +0.0000000000e+00 +8.2430982520e+02 8.2430982520e+02 0.0000000000e+00 0.0000e+00 1.0000e+00
       -2 -1    0    0    0  501 -0.0000000000e+00 -0.0000000000e+00 -1.5420991815e+03 1.5420991815e+03 0.0000000000e+00 0.0000e+00 -1.0000e+00
      -13  1    1    2    0    0 +9.9344048554e+02 -4.6041111325e+02 -6.4100746558e+02 1.2687761672e+03 0.0000000000e+00 0.0000e+00 -1.0000e+00
       13  1    1    2    0    0 -9.9344048554e+02 +4.6041111325e+02 -7.6781890667e+01 1.0976328395e+03 0.0000000000e+00 0.0000e+00 1.0000e+00
<mgrwt>
<rscale>  0 0.22549213E+04</rscale>
<asrwt>0</asrwt>
<pdfrwt beam="1">  1        2 0.12681690E+00 0.22549213E+04</pdfrwt>
<pdfrwt beam="2">  1       -2 0.23724603E+00 0.22549213E+04</pdfrwt>
<totfact> 0.23836125E+00</totfact>
</mgrwt>
<rwgt>
<wgt id='morphing_basis_vector_1'> +8.0233721e-05 </wgt>
<wgt id='morphing_basis_vector_2'> +5.6324267e-05 </wgt>
<wgt id='morphing_basis_vector_3'> +8.6800614e-05 </wgt>
<wgt id='morphing_basis_vector_4'> +5.7538397e-05 </wgt>
<wgt id='morphing_basis_vector_5'> +9.5250197e-05 </wgt>
</rwgt>
</event>
<event>
 4      1 +2.2016400e-08 2.42889500e+03 7.81860800e-03 7.91531100e-02
        2 -1    0    0  501    0 +0.0000000000e+00 +0.0000000000e+00 +2.4211278707e+03 2.4211278707e+03 0.0000000000e+00 0.0000e+00 -1.0000e+00
       -2 -1    0    0    0  501 -0.0000000000e+00 -0.0000000000e+00 -6.0917186756e+02 6.0917186756e+02 0.0000000000e+00 0.0000e+00 1.0000e+00
      -13  1    1    2    0    0 +1.0691152332e+03 -5.7191391893e+02 +8.1963086843e+02 1.4635189350e+03 0.0000000000e+00 0.0000e+00 1.0000e+00
       13  1    1    2    0    0 -1.0691152332e+03 +5.7191391893e+02 +9.9232513466e+02 1.5667808032e+03 0.0000000000e+00 0.0000e+00 -1.0000e+00
<mgrwt>
<rscale>  0 0.24288952E+04</rscale>
<asrwt>0</asrwt>
<pdfrwt beam="1">  1        2 0.37248121E+00 0.24288952E+04</pdfrwt>
<pdfrwt beam="2">  1       -2 0.93718750E-01 0.24288952E+04</pdfrwt>
<totfact> 0.42128491E+00</totfact>
</mgrwt>
<rwgt>
<wgt id='morphing_basis_vector_1'> +1.0912687e-04 </wgt>
<wgt id='morphing_basis_vector_2'> +8.0368026e-05 </wgt>
<wgt id='morphing_basis_vector_3'> +1.1925137e-04 </wgt>
<wgt id='morphing_basis_vector_4'> +7.4533805e-05 </wgt>
<wgt id='morphing_basis_vector_5'> +1.2852087e-04 </wgt>
</rwgt>
</event>
<event>
 4      1 +2.2016400e-08 2.51684200e+03 7.81860800e-03 7.88737200e-02
        2 -1    0    0  501    0 +0.0000000000e+00 +0.0000000000e+00 +2.3843614294e+03 2.3843614294e+03 0.0000000000e+00 0.0000e+00 -1.0000e+00
       -2 -1    0    0    0  501 -0.0000000000e+00 -0.0000000000e+00 -6.6417070915e+02 6.6417070915e+02 0.0000000000e+00 0.0000e+00 1.0000e+00
      -13  1    1    2    0    0 -3.1247200043e+02 -1.0102940237e+03 +3.3873164250e+01 1.0580548930e+03 0.0000000000e+00 0.0000e+00 1.0000e+00
       13  1    1    2    0    0 +3.1247200043e+02 +1.0102940237e+03 +1.6863175560e+03 1.9904772455e+03 0.0000000000e+00 0.0000e+00 -1.0000e+00
<mgrwt>
<rscale>  0 0.25168417E+04</rscale>
<asrwt>0</asrwt>
<pdfrwt beam="1">  1        2 0.36682483E+00 0.25168417E+04</pdfrwt>
<pdfrwt beam="2">  1       -2 0.10218011E+00 0.25168417E+04</pdfrwt>
<totfact> 0.35735008E+00</totfact>
</mgrwt>
<rwgt>
<wgt id='morphing_basis_vector_1'> +1.2237546e-04 </wgt>
<wgt id='morphing_basis_vector_2'> +8.3131349e-05 </wgt>
<wgt id='morphing_basis_vector_3'> +1.3260123e-04 </wgt>
<wgt id='morphing_basis_vector_4'> +9.2642172e-05 </wgt>
<wgt id='morphing_basis_vector_5'> +1.4897680e-04 </wgt>
</rwgt>
</event>
<event>
 4      1 +2.2016400e-08 2.62800600e+03 7.81860800e-03 7.85368400e-02
        2 -1    0    0  501    0 +0.0000000000e+00 +0.0000000000e+00 +3.1489652474e+03 3.1489652474e+03 0.0000000000e+00 0.0000e+00 1.0000e+00
       -2 -1    0    0    0  501 -0.0000000000e+00 -0.0000000000e+00 -5.4830853930e+02 5.4830853930e+02 0.0000000000e+00 0.0000e+00 -1.0000e+00
      -13  1    1    2    0    0 -4.2614011307e+02 +4.2827900034e+02 -3.4131099691e+02 6.9391029299e+02 0.0000000000e+00 0.0000e+00 -1.0000e+00
       13  1    1    2    0    0 +4.2614011307e+02 -4.2827900034e+02 +2.9419677050e+03 3.0033634937e+03 0.0000000000e+00 0.0000e+00 1.0000e+00
<mgrwt>
<rscale>  0 0.26280065E+04</rscale>
<asrwt>0</asrwt>
<pdfrwt beam="1">  1        2 0.48445618E+00 0.26280065E+04</pdfrwt>
<pdfrwt beam="2">  1       -2 0.84355162E-01 0.26280065E+04</pdfrwt>
<totfact> 0.18506921E+00</totfact>
</mgrwt>
<rwgt>
<wgt id='morphing_basis_vector_1'> +1.4466806e-04 </wgt>
<wgt id='morphing_basis_vector_2'> +9.7276535e-05 </wgt>
<wgt id='morphing_basis_vector_3'> +1.5684545e-04 </wgt>
<wgt id='morphing_basis_vector_4'> +1.1136666e-04 </wgt>
<wgt id='morphing_basis_vector_5'> +1.7754595e-04 </wgt>
</rwgt>
</event>
<event>
 4      1 +2.2016400e-08 2.23122500e+03 7.81860800e-03 7.98280100e-02
        2 -1    0    0  501    0 +0.0000000000e+00 +0.0000000000e+00 +1.6805187963e+03 1.6805187963e+03 0.0000000000e+00 0.0000e+00 1.0000e+00
       -2 -1    0    0    0  501 -0.0000000000e+00 -0.0000000000e+00 -7.4059933623e+02 7.4059933623e+02 0.0000000000e+00 0.0000e+00 -1.0000e+00
      -13  1    1    2    0    0 +9.9378051357e+02 +2.1494105867e+02 -2.8235344754e+01 1.0171512191e+03 0.0000000000e+00 0.0000e+00 -1.0000e+00
       13  1    1    2    0    0 -9.9378051357e+02 -2.1494105867e+02 +9.6815480484e+02 1.4039669134e+03 0.0000000000e+00 0.0000e+00 1.0000e+00
<mgrwt>
<rscale>  0 0.22312249E+04</rscale>
<asrwt>0</asrwt>
<pdfrwt beam="1">  1        2 0.25854135E+00 0.22312249E+04</pdfrwt>
<pdfrwt beam="2">  1       -2 0.11393836E+00 0.22312249E+04</pdfrwt>
<totfact> 0.69963771E+00</totfact>
</mgrwt>
<rwgt>
<wgt id='morphing_basis_vector_1'> +7.6372608e-05 </wgt>
<wgt id='morphing_basis_vector_2'> +5.2256206e-05 </wgt>
<wgt id='morphing_basis_vector_3'> +8.2324010e-05 </wgt>
<wgt id='morphing_basis_vector_4'> +5.6322119e-05 </wgt>
<wgt id='morphing_basis_vector_5'> +9.1343816e-05 </wgt>
</rwgt>
</event>
<event>
 4      1 +2.2016400e-08 2.24385600e+03 7.81860800e-03 7.97827600e-02
        2 -1    0    0  501    0 +0.0000000000e+00 +0.0000000000e+00 +1.3809046974e+03 1.3809046974e+03 0.0000000000e+00 0.0000e+00 -1.0000e+00
       -2 -1    0    0    0  501 -0.0000000000e+00 -0.0000000000e+00 -9.1152023959e+02 9.1152023959e+02 0.0000000000e+00 0.0000e+00 1.0000e+00
      -13  1    1    2    0    0 -9.6142815450e+02 +1.7611993700e+02 -3.2801106206e+02 1.0309964041e+03 0.0000000000e+00 0.0000e+00 1.0000e+00
       13  1    1    2    0    0 +9.6142815450e+02 -1.7611993700e+02 +7.9739551988e+02 1.2614285329e+03 0.0000000000e+00 0.0000e+00 -1.0000e+00
<mgrwt>
<rscale>  0 0.22438561E+04</rscale>
<asrwt>0</asrwt>
<pdfrwt beam="1">  1        2 0.21244687E+00 0.22438561E+04</pdfrwt>
<pdfrwt beam="2">  1       -2 0.14023388E+00 0.22438561E+04</pdfrwt>
<totfact> 0.59281114E+00</totfact>
</mgrwt>
<rwgt>
<wgt id='morphing_basis_vector_1'> +7.7913512e-05 </wgt>
<wgt id='morphing_basis_vector_2'> +5.2924820e-05 </wgt>
<wgt id='morphing_basis_vector_3'> +8.3940979e-05 </wgt>
<wgt id='morphing_basis_vector_4'> +5.7982062e-05 </wgt>
<wgt id='morphing_basis_vector_5'> +9.3491998e-05 </wgt>
</rwgt>
</event>
<event>
 4      1 +2.2016400e-08 2.28777800e+03 7.81860800e-03 7.96277800e-02
        2 -1    0    0  501    0 +0.0000000000e+00 +0.0000000000e+00 +1.4540721153e+03 1.4540721153e+03 0.0000000000e+00 0.0000e+00 -1.0000e+00
       -2 -1    0    0    0  501 -0.0000000000e+00 -0.0000000000e+00 -8.9987400363e+02 8.9987400363e+02 0.0000000000e+00 0.0000e+00 1.0000e+00
      -13  1    1    2    0    0 +3.3287647688e+02 -1.0215078653e+03 -1.2693701110e+02 1.0818493761e+03 0.0000000000e+00 0.0000e+00 1.0000e+00
       13  1    1    2    0    0 -3.3287647688e+02 +1.0215078653e+03 +6.8113512279e+02 1.2720967429e+03 0.0000000000e+00 0.0000e+00 -1.0000e+00
<mgrwt>
<rscale>  0 0.22877777E+04</rscale>
<asrwt>0</asrwt>
<pdfrwt beam="1">  1        2 0.22370340E+00 0.22877777E+04</pdfrwt>
<pdfrwt beam="2">  1       -2 0.13844215E+00 0.22877777E+04</pdfrwt>
<totfact> 0.55645075E+00</totfact>
</mgrwt>
<rwgt>
<wgt id='morphing_basis_vector_1'> +8.4493114e-05 </wgt>
<wgt id='morphing_basis_vector_2'> +5.8346200e-05 </wgt>
<wgt id='morphing_basis_vector_3'> +9.1303539e-05 </wgt>
<wgt id='morphing_basis_vector_4'> +6.1917308e-05 </wgt>
<wgt id='morphing_basis_vector_5'> +1.0108698e-04 </wgt>
</rwgt>
</event>
<event>
 4      1 +2.2016400e-08 2.45990800e+03 7.81860800e-03 7.90532200e-02
        2 -1    0    0  501    0 +0.0000000000e+00 +0.0000000000e+00 +1.4357889163e+03 1.4357889163e+03 0.0000000000e+00 0.0000e+00 -1.0000e+00
       -2 -1    0    0    0  501 -0.0000000000e+00 -0.0000000000e+00 -1.0536276333e+03 1.0536276333e+03 0.0000000000e+00 0.0000e+00 1.0000e+00
      -13  1    1    2    0    0 -9.5216561594e+02 +6.1186287751e+02 -2.9614182104e+02 1.1699126118e+03 0.0000000000e+00 0.0000e+00 1.0000e+00
       13  1    1    2    0    0 +9.5216561594e+02 -6.1186287751e+02 +6.7830310401e+02 1.3195039378e+03 0.0000000000e+00 0.0000e+00 -1.0000e+00
<mgrwt>
<rscale>  0 0.24599080E+04</rscale>
<asrwt>0</asrwt>
<pdfrwt beam="1">  1        2 0.22089060E+00 0.24599080E+04</pdfrwt>
<pdfrwt beam="2">  1       -2 0.16209656E+00 0.24599080E+04</pdfrwt>
<totfact> 0.35769872E+00</totfact>
</mgrwt>
<rwgt>
<wgt id='morphing_basis_vector_1'> +1.1226017e-04 </wgt>
<wgt id='morphing_basis_vector_2'> +7.7236920e-05 </wgt>
<wgt id='morphing_basis_vector_3'> +1.2170347e-04 </wgt>
<wgt id='morphing_basis_vector_4'> +8.3515363e-05 </wgt>
<wgt id='morphing_basis_vector_5'> +1.3571157e-04 </wgt>
</rwgt>
</event>
<event>
 4      1 +2.2016400e-08 2.64085300e+03 7.81860800e-03 7.84990100e-02
        2 -1    0    0  501    0 +0.0000000000e+00 +0.0000000000e+00 +3.2827774156e+03 3.2827774156e+03 0.0000000000e+00 0.0000e+00 1.0000e+00
       -2 -1    0    0    0  501 -0.0000000000e+00 -0.0000000000e+00 -5.3111312173e+02 5.3111312173e+02 0.0000000000e+00 0.0000e+00 -1.0000e+00
      -13  1    1    2    0    0 +1.2616930526e+03 +3.1031869990e+02 +1.0360359365e+03 1.6617874462e+03 0.0000000000e+00 0.0000e+00 -1.0000e+00
       13  1    1    2    0    0 -1.2616930526e+03 -3.1031869990e+02 +1.7156283573e+03 2.1521030911e+03 0.0000000000e+00 0.0000e+00 1.0000e+00
<mgrwt>
<rscale>  0 0.26408530E+04</rscale>
<asrwt>0</asrwt>
<pdfrwt beam="1">  1        2 0.50504267E+00 0.26408530E+04</pdfrwt>
<pdfrwt beam="2">  1       -2 0.81709713E-01 0.26408530E+04</pdfrwt>
<totfact> 0.16118942E+00</totfact>
</mgrwt>
<rwgt>
<wgt id='morphing_basis_vector_1'> +1.5023600e-04 </wgt>
<wgt id='morphing_basis_vector_2'> +1.0729912e-04 </wgt>
<wgt id='morphing_basis_vector_3'> +1.6416880e-04 </wgt>
<wgt id='morphing_basis_vector_4'> +1.0791476e-04 </wgt>
<wgt id='morphing_basis_vector_5'> +1.8062203e-04 </wgt>
</rwgt>
</event>
<event>
 4      1 +2.2016400e-08 2.29728700e+03 7.81860800e-03 7.95947000e-02
        2 -1    0    0  501    0 +0.0000000000e+00 +0.0000000000e+00 +2.6966325397e+03 2.6966325397e+03 0.0000000000e+00 0.0000e+00 1.0000e+00
       -2 -1    0    0    0  501 -0.0000000000e+00 -0.0000000000e+00 -4.8927000204e+02 4.8927000204e+02 0.0000000000e+00 0.0000e+00 -1.0000e+00
      -13  1    1    2    0    0 -2.9228918155e+02 -1.0662707680e+03 +6.7172780559e+02 1.2936709632e+03 0.0000000000e+00 0.0000e+00 -1.0000e+00
       13  1    1    2    0    0 +2.9228918155e+02 +1.0662707680e+03 +1.5356347321e+03 1.8922315785e+03 0.0000000000e+00 0.0000e+00 1.0000e+00
<mgrwt>
<rscale>  0 0.22972866E+04</rscale>
<asrwt>0</asrwt>
<pdfrwt beam="1">  1        2 0.41486654E+00 0.22972866E+04</pdfrwt>
<pdfrwt beam="2">  1       -2 0.75272309E-01 0.22972866E+04</pdfrwt>
<totfact> 0.48095318E+00</totfact>
</mgrwt>
<rwgt>
<wgt id='morphing_basis_vector_1'> +8.6176588e-05 </wgt>
<wgt id='morphing_basis_vector_2'> +6.0178002e-05 </wgt>
<wgt id='morphing_basis_vector_3'> +9.3268609e-05 </wgt>
<wgt id='morphing_basis_vector_4'> +6.2376057e-05 </wgt>
<wgt id='morphing_basis_vector_5'> +1.0275648e-04 </wgt>
</rwgt>
</event>
<event>
 4      1 +2.2016400e-08 2.49191600e+03 7.81860800e-03 7.89517000e-02
        2 -1    0    0  501    0 +0.0000000000e+00 +0.0000000000e+00 +1.2817473309e+03 1.2817473309e+03 0.0000000000e+00 0.0000e+00 -1.0000e+00
       -2 -1    0    0    0  501 -0.0000000000e+00 -0.0000000000e+00 -1.2111675379e+03 1.2111675379e+03 0.0000000000e+00 0.0000e+00 1.0000e+00
      -13  1    1    2    0    0 +5.1026863260e+02 -1.0455346779e+03 +4.8144399076e+02 1.2590890184e+03 0.0000000000e+00 0.0000e+00 1.0000e+00
       13  1    1    2    0    0 -5.1026863260e+02 +1.0455346779e+03 -4.1086419779e+02 1.2338258504e+03 0.0000000000e+00 0.0000e+00 -1.0000e+00
<mgrwt>
<rscale>  0 0.24919155E+04</rscale>
<asrwt>0</asrwt>
<pdfrwt beam="1">  1        2 0.19719190E+00 0.24919155E+04</pdfrwt>
<pdfrwt beam="2">  1       -2 0.18633347E+00 0.24919155E+04</pdfrwt>
<totfact> 0.28376385E+00</totfact>
</mgrwt>
<rwgt>
<wgt id='morphing_basis_vector_1'> +1.3155323e-04 </wgt>
<wgt id='morphing_basis_vector_2'> +1.2090177e-04 </wgt>
<wgt id='morphing_basis_vector_3'> +1.4862302e-04 </wgt>
<wgt id='morphing_basis_vector_4'> +6.0522148e-05 </wgt>
<wgt id='morphing_basis_vector_5'> +1.4078376e-04 </wgt>
</rwgt>
</event>
<event>
 4      1 +2.2016400e-08 2.26171100e+03 7.81860800e-03 7.97193200e-02
        2 -1    0    0  501    0 +0.0000000000e+00 +0.0000000000e+00 +2.9059974417e+03 2.9059974417e+03 0.0000000000e+00 0.0000e+00 -1.0000e+00
       -2 -1    0    0    0  501 -0.0000000000e+00 -0.0000000000e+00 -4.4006712204e+02 4.4006712204e+02 0.0000000000e+00 0.0000e+00 1.0000e+00
      -13  1    1    2    0    0 -6.2812424525e+02 -6.8068303957e+02 +2.7307848434e+02 9.6563001529e+02 0.0000000000e+00 0.0000e+00 1.0000e+00
       13  1    1    2    0    0 +6.2812424525e+02 +6.8068303957e+02 +2.1928518354e+03 2.3804345485e+03 0.0000000000e+00 0.0000e+00 -1.0000e+00
<mgrwt>
<rscale>  0 0.22617108E+04</rscale>
<asrwt>0</asrwt>
<pdfrwt beam="1">  1        2 0.44707652E+00 0.22617108E+04</pdfrwt>
<pdfrwt beam="2">  1       -2 0.67702636E-01 0.22617108E+04</pdfrwt>
<totfact> 0.44853492E+00</totfact>
</mgrwt>
<rwgt>
<wgt id='morphing_basis_vector_1'> +8.0244731e-05 </wgt>
<wgt id='morphing_basis_vector_2'> +5.4210882e-05 </wgt>
<wgt id='morphing_basis_vector_3'> +8.6435615e-05 </wgt>
<wgt id='morphing_basis_vector_4'> +6.0157622e-05 </wgt>
<wgt id='morphing_basis_vector_5'> +9.6574142e-05 </wgt>
</rwgt>
</event>
<event>
 4      1 +2.2016400e-08 2.58346800e+03 7.81860800e-03 7.86697300e-02
        2 -1    0    0  501    0 +0.0000000000e+00 +0.0000000000e+00 +1.1150587196e+03 1.1150587196e+03 0.0000000000e+00 0.0000e+00 1.0000e+00
       -2 -1    0    0    0  501 -0.0000000000e+00 -0.0000000000e+00 -1.4964029326e+03 1.4964029326e+03 0.0000000000e+00 0.0000e+00 -1.0000e+00
      -13  1    1    2    0    0 +2.5448055290e+02 +1.9612983426e+02 -1.4553683371e+03 1.4904107689e+03 0.0000000000e+00 0.0000e+00 -1.0000e+00
       13  1    1    2    0    0 -2.5448055290e+02 -1.9612983426e+02 +1.0740241241e+03 1.1210508832e+03 0.0000000000e+00 0.0000e+00 1.0000e+00
<mgrwt>
<rscale>  0 0.25834683E+04</rscale>
<asrwt>0</asrwt>
<pdfrwt beam="1">  1        2 0.17154750E+00 0.25834683E+04</pdfrwt>
<pdfrwt beam="2">  1       -2 0.23021583E+00 0.25834683E+04</pdfrwt>
<totfact> 0.16975059E+00</totfact>
</mgrwt>
<rwgt>
<wgt id='morphing_basis_vector_1'> +1.3520044e-04 </wgt>
<wgt id='morphing_basis_vector_2'> +9.0825344e-05 </wgt>
<wgt id='morphing_basis_vector_3'> +1.4646173e-04 </wgt>
<wgt id='morphing_basis_vector_4'> +1.0396238e-04 </wgt>
<wgt id='morphing_basis_vector_5'> +1.6568214e-04 </wgt>
</rwgt>
</event>
<event>
 4      1 +2.2016400e-08 2.39183200e+03 7.81860800e-03 7.92745000e-02
        2 -1    0    0  501    0 +0.0000000000e+00 +0.0000000000e+00 +1.7715338950e+03 1.7715338950e+03 0.0000000000e+00 0.0000e+00 -1.0000e+00
       -2 -1    0    0    0  501 -0.0000000000e+00 -0.0000000000e+00 -8.0733166216e+02 8.0733166216e+02 0.0000000000e+00 0.0000e+00 1.0000e+00
      -13  1    1    2    0    0 -1.1734013765e+03 +2.1642366707e+02 +5.6906427806e+02 1.3219471043e+03 0.0000000000e+00 0.0000e+00 1.0000e+00
       13  1    1    2    0    0 +1.1734013765e+03 -2.1642366707e+02 +3.9513795479e+02 1.2569184529e+03 0.0000000000e+00 0.0000e+00 -1.0000e+00
<mgrwt>
<rscale>  0 0.23918323E+04</rscale>
<asrwt>0</asrwt>
<pdfrwt beam="1">  1        2 0.27254368E+00 0.23918323E+04</pdfrwt>
<pdfrwt beam="2">  1       -2 0.12420487E+00 0.23918323E+04</pdfrwt>
<totfact> 0.49112406E+00</totfact>
</mgrwt>
<rwgt>
<wgt id='morphing_basis_vector_1'> +1.0438213e-04 </wgt>
<wgt id='morphing_basis_vector_2'> +8.0557137e-05 </wgt>
<wgt id='morphing_basis_vector_3'> +1.1467576e-04 </wgt>
<wgt id='morphing_basis_vector_4'> +6.6610798e-05 </wgt>
<wgt id='morphing_basis_vector_5'> +1.2047647e-04 </wgt>
</rwgt>
</event>
<event>
 4      1 +2.2016400e-08 2.48183400e+03 7.81860800e-03 7.89835100e-02
        2 -1    0    0  501    0 +0.0000000000e+00 +0.0000000000e+00 +1.4397077204e+03 1.4397077204e+03 0.0000000000e+00 0.0000e+00 -1.0000e+00
       -2 -1    0    0    0  501 -0.0000000000e+00 -0.0000000000e+00 -1.0695743126e+03 1.0695743126e+03 0.0000000000e+00 0.0000e+00 1.0000e+00
      -13  1    1    2    0    0 -7.9349932753e+02 -3.8428995473e+02 -6.9783480790e+02 1.1244080092e+03 0.0000000000e+00 0.0000e+00 1.0000e+00
       13  1    1    2    0    0 +7.9349932753e+02 +3.8428995473e+02 +1.0679682157e+03 1.3848740238e+03 0.0000000000e+00 0.0000e+00 -1.0000e+00
<mgrwt>
<rscale>  0 0.24818335E+04</rscale>
<asrwt>0</asrwt>
<pdfrwt beam="1">  1        2 0.22149350E+00 0.24818335E+04</pdfrwt>
<pdfrwt beam="2">  1       -2 0.16454989E+00 0.24818335E+04</pdfrwt>
<totfact> 0.33967881E+00</totfact>
</mgrwt>
<rwgt>
<wgt id='morphing_basis_vector_1'> +1.1552327e-04 </wgt>
<wgt id='morphing_basis_vector_2'> +7.7833020e-05 </wgt>
<wgt id='morphing_basis_vector_3'> +1.2497255e-04 </wgt>
<wgt id='morphing_basis_vector_4'> +8.8083347e-05 </wgt>
<wgt id='morphing_basis_vector_5'> +1.4080286e-04 </wgt>
</rwgt>
</event>
<event>
 4      1 +2.2016400e-08 2.65212100e+03 7.81860800e-03 7.84660100e-02
        2 -1    0    0  501    0 +0.0000000000e+00 +0.0000000000e+00 +2.3667917081e+03 2.3667917081e+03 0.0000000000e+00 0.0000e+00 -1.0000e+00
       -2 -1    0    0    0  501 -0.0000000000e+00 -0.0000000000e+00 -7.4296185916e+02 7.4296185916e+02 0.0000000000e+00 0.0000e+00 1.0000e+00
      -13  1    1    2    0    0 -1.0984659295e+03 +4.6275321806e+02 +1.3055329784e+02 1.1990880295e+03 0.0000000000e+00 0.0000e+00 1.0000e+00
       13  1    1    2    0    0 +1.0984659295e+03 -4.6275321806e+02 +1.4932765511e+03 1.9106655378e+03 0.0000000000e+00 0.0000e+00 -1.0000e+00
<mgrwt>
<rscale>  0 0.26521206E+04</rscale>
<asrwt>0</asrwt>
<pdfrwt beam="1">  1        2 0.36412180E+00 0.26521206E+04</pdfrwt>
<pdfrwt beam="2">  1       -2 0.11430183E+00 0.26521206E+04</pdfrwt>
<totfact> 0.27356460E+00</totfact>
</mgrwt>
<rwgt>
<wgt id='morphing_basis_vector_1'> +1.5088230e-04 </wgt>
<wgt id='morphing_basis_vector_2'> +1.0351788e-04 </wgt>
<wgt id='morphing_basis_vector_3'> +1.6405529e-04 </wgt>
<wgt id='morphing_basis_vector_4'> +1.1371318e-04 </wgt>
<wgt id='morphing_basis_vector_5'> +1.8407964e-04 </wgt>
</rwgt>
</event>
<event>
 4      1 +2.2016400e-08 2.43451200e+03 7.81860800e-03 7.91349000e-02
        2 -1    0    0  501    0 +0.0000000000e+00 +0.0000000000e+00 +2.5468950477e+03 2.5468950477e+03 0.0000000000e+00 0.0000e+00 -1.0000e+00
       -2 -1    0    0    0  501 -0.0000000000e+00 -0.0000000000e+00 -5.8177177865e+02 5.8177177865e+02 0.0000000000e+00 0.0000e+00 1.0000e+00
      -13  1    1    2    0    0 +4.1020991472e+02 +3.8905974958e+02 -4.0280266082e+02 6.9418271834e+02 0.0000000000e+00 0.0000e+00 1.0000e+00
       13  1    1    2    0    0 -4.1020991472e+02 -3.8905974958e+02 +2.3679259299e+03 2.4344841080e+03 0.0000000000e+00 0.0000e+00 -1.0000e+00
<mgrwt>
<rscale>  0 0.24345116E+04</rscale>
<asrwt>0</asrwt>
<pdfrwt beam="1">  1        2 0.39183000E+00 0.24345116E+04</pdfrwt>
<pdfrwt beam="2">  1       -2 0.89503352E-01 0.24345116E+04</pdfrwt>
<totfact> 0.39477958E+00</totfact>
</mgrwt>
<rwgt>
<wgt id='morphing_basis_vector_1'> +1.0695697e-04 </wgt>
<wgt id='morphing_basis_vector_2'> +7.1755352e-05 </wgt>
<wgt id='morphing_basis_vector_3'> +1.1554404e-04 </wgt>
<wgt id='morphing_basis_vector_4'> +8.1709552e-05 </wgt>
<wgt id='morphing_basis_vector_5'> +1.3025324e-04 </wgt>
</rwgt>
</event>
<event>
 4      1 +2.2016400e-08 2.26308900e+03 7.81860800e-03 7.97144500e-02
        2 -1    0    0  501    0 +0.0000000000e+00 +0.0000000000e+00 +1.4418373639e+03 1.4418373639e+03 0.0000000000e+00 0.0000e+00 1.0000e+00
       -2 -1    0    0    0  501 -0.0000000000e+00 -0.0000000000e+00 -8.8802854054e+02 8.8802854054e+02 0.0000000000e+00 0.0000e+00 -1.0000e+00
      -13  1    1    2    0    0 +3.0334608515e+02 +8.3347162046e+02 -4.4646547930e+02 9.9298802294e+02 0.0000000000e+00 0.0000e+00 -1.0000e+00
       13  1    1    2    0    0 -3.0334608515e+02 -8.3347162046e+02 +1.0002743026e+03 1.3368778815e+03 0.0000000000e+00 0.0000e+00 1.0000e+00
<mgrwt>
<rscale>  0 0.22630888E+04</rscale>
<asrwt>0</asrwt>
<pdfrwt beam="1">  1        2 0.22182113E+00 0.22630888E+04</pdfrwt>
<pdfrwt beam="2">  1       -2 0.13661978E+00 0.22630888E+04</pdfrwt>
<totfact> 0.58755254E+00</totfact>
</mgrwt>
<rwgt>
<wgt id='morphing_basis_vector_1'> +8.0377308e-05 </wgt>
<wgt id='morphing_basis_vector_2'> +5.4164771e-05 </wgt>
<wgt id='morphing_basis_vector_3'> +8.6556228e-05 </wgt>
<wgt id='morphing_basis_vector_4'> +6.0428263e-05 </wgt>
<wgt id='morphing_basis_vector_5'> +9.6823173e-05 </wgt>
</rwgt>
</event>
<event>
 4      1 +2.2016400e-08 2.41188600e+03 7.81860800e-03 7.92085400e-02
        2 -1    0    0  501    0 +0.0000000000e+00 +0.0000000000e+00 +1.3539319589e+03 1.3539319589e+03 0.0000000000e+00 0.0000e+00 -1.0000e+00
       -2 -1    0    0    0  501 -0.0000000000e+00 -0.0000000000e+00 -1.0741296026e+03 1.0741296026e+03 0.0000000000e+00 0.0000e+00 1.0000e+00
      -13  1    1    2    0    0 -2.9439064987e+01 -2.6652231853e+02 -1.0437382397e+03 1.0776318099e+03 0.0000000000e+00 0.0000e+00 1.0000e+00
       13  1    1    2    0    0 +2.9439064987e+01 +2.6652231853e+02 +1.3235405959e+03 1.3504297516e+03 0.0000000000e+00 0.0000e+00 -1.0000e+00
<mgrwt>
<rscale>  0 0.24118859E+04</rscale>
<asrwt>0</asrwt>
<pdfrwt beam="1">  1        2 0.20829722E+00 0.24118859E+04</pdfrwt>
<pdfrwt beam="2">  1       -2 0.16525071E+00 0.24118859E+04</pdfrwt>
<totfact> 0.37724419E+00</totfact>
</mgrwt>
<rwgt>
<wgt id='morphing_basis_vector_1'> +1.0307449e-04 </wgt>
<wgt id='morphing_basis_vector_2'> +6.9095931e-05 </wgt>
<wgt id='morphing_basis_vector_3'> +1.1129032e-04 </wgt>
<wgt id='morphing_basis_vector_4'> +7.8705276e-05 </wgt>
<wgt id='morphing_basis_vector_5'> +1.2541668e-04 </wgt>
</rwgt>
</event>
<event>
 4      1 +2.2016400e-08 2.62606800e+03 7.81860800e-03 7.85425700e-02
        2 -1    0    0  501    0 +0.0000000000e+00 +0.0000000000e+00 +2.9560386941e+03 2.9560386941e+03 0.0000000000e+00 0.0000e+00 -1.0000e+00
       -2 -1    0    0    0  501 -0.0000000000e+00 -0.0000000000e+00 -5.8323286131e+02 5.8323286131e+02 0.0000000000e+00 0.0000e+00 1.0000e+00
      -13  1    1    2    0    0 -8.4051779619e+02 -6.0044898779e+02 +9.3939334946e+01 1.0372240603e+03 0.0000000000e+00 0.0000e+00 1.0000e+00
       13  1    1    2    0    0 +8.4051779619e+02 +6.0044898779e+02 +2.2788664978e+03 2.5020474951e+03 0.0000000000e+00 0.0000e+00 -1.0000e+00
<mgrwt>
<rscale>  0 0.26260685E+04</rscale>
<asrwt>0</asrwt>
<pdfrwt beam="1">  1        2 0.45477518E+00 0.26260685E+04</pdfrwt>
<pdfrwt beam="2">  1       -2 0.89728134E-01 0.26260685E+04</pdfrwt>
<totfact> 0.21481831E+00</totfact>
</mgrwt>
<rwgt>
<wgt id='morphing_basis_vector_1'> +1.4455291e-04 </wgt>
<wgt id='morphing_basis_vector_2'> +9.7893973e-05 </wgt>
<wgt id='morphing_basis_vector_3'> +1.5685453e-04 </wgt>
<wgt id='morphing_basis_vector_4'> +1.1040450e-04 </wgt>
<wgt id='morphing_basis_vector_5'> +1.7696545e-04 </wgt>
</rwgt>
</event>
<event>
 4      1 +2.2016400e-08 2.30596000e+03 7.81860800e-03 7.95646800e-02
        2 -1    0    0  501    0 +0.0000000000e+00 +0.0000000000e+00 +1.0723987341e+03 1.0723987341e+03 0.0000000000e+00 0.0000e+00 -1.0000e+00
       -2 -1    0    0    0  501 -0.0000000000e+00 -0.0000000000e+00 -1.2396157127e+03 1.2396157127e+03 0.0000000000e+00 0.0000e+00 1.0000e+00
      -13  1    1    2    0    0 -5.8684986404e+02 +6.0525384459e+02 -8.7220877629e+02 1.2130429212e+03 0.0000000000e+00 0.0000e+00 1.0000e+00
       13  1    1    2    0    0 +5.8684986404e+02 -6.0525384459e+02 +7.0499179766e+02 1.0989715256e+03 0.0000000000e+00 0.0000e+00 -1.0000e+00
<mgrwt>
<rscale>  0 0.23059595E+04</rscale>
<asrwt>0</asrwt>
<pdfrwt beam="1">  1        2 0.16498442E+00 0.23059595E+04</pdfrwt>
<pdfrwt beam="2">  1       -2 0.19071011E+00 0.23059595E+04</pdfrwt>
<totfact> 0.35513554E+00</totfact>
</mgrwt>
<rwgt>
<wgt id='morphing_basis_vector_1'> +8.6475998e-05 </wgt>
<wgt id='morphing_basis_vector_2'> +5.8163613e-05 </wgt>
<wgt id='morphing_basis_vector_3'> +9.3196467e-05 </wgt>
<wgt id='morphing_basis_vector_4'> +6.5345785e-05 </wgt>
<wgt id='morphing_basis_vector_5'> +1.0450222e-04 </wgt>
</rwgt>
</event>
<event>
 4      1 +2.2016400e-08 2.30667200e+03 7.81860800e-03 7.95622200e-02
        2 -1    0    0  501    0 +0.0000000000e+00 +0.0000000000e+00 +2.2192986616e+03 2.2192986616e+03 0.0000000000e+00 0.0000e+00 -1.0000e+00
       -2 -1    0    0    0  501 -0.0000000000e+00 -0.0000000000e+00 -5.9937112028e+02 5.9937112028e+02 0.0000000000e+00 0.0000e+00 1.0000e+00
      -13  1    1    2    0    0 -8.7356773617e+02 +1.5115272366e+02 +1.7114186433e+03 1.9274131649e+03 0.0000000000e+00 0.0000e+00 1.0000e+00
       13  1    1    2    0    0 +8.7356773617e+02 -1.5115272366e+02 -9.1491102006e+01 8.9125661697e+02 0.0000000000e+00 0.0000e+00 -1.0000e+00
<mgrwt>
<rscale>  0 0.23066716E+04</rscale>
<asrwt>0</asrwt>
<pdfrwt beam="1">  1        2 0.34143056E+00 0.23066716E+04</pdfrwt>
<pdfrwt beam="2">  1       -2 0.92210943E-01 0.23066716E+04</pdfrwt>
<totfact> 0.57959346E+00</totfact>
</mgrwt>
<rwgt>
<wgt id='morphing_basis_vector_1'> +1.0868884e-04 </wgt>
<wgt id='morphing_basis_vector_2'> +1.2353922e-04 </wgt>
<wgt id='morphing_basis_vector_3'> +1.2656507e-04 </wgt>
<wgt id='morphing_basis_vector_4'> +2.0536929e-05 </wgt>
<wgt id='morphing_basis_vector_5'> +1.0102486e-04 </wgt>
</rwgt>
</event>
<event>
 4      1 +2.2016400e-08 2.39760500e+03 7.81860800e-03 7.92554500e-02
        2 -1    0    0  501    0 +0.0000000000e+00 +0.0000000000e+00 +2.6619993571e+03 2.6619993571e+03 0.0000000000e+00 0.0000e+00 -1.0000e+00
       -2 -1    0    0    0  501 -0.0000000000e+00 -0.0000000000e+00 -5.3986788216e+02 5.3986788216e+02 0.0000000000e+00 0.0000e+00 1.0000e+00
      -13  1    1    2    0    0 -2.3281825191e+02 -1.1741039161e+03 +1.1496853984e+03 1.6596689005e+03 0.0000000000e+00 0.0000e+00 1.0000e+00
       13  1    1    2    0    0 +2.3281825191e+02 +1.1741039161e+03 +9.7244607653e+02 1.5421983387e+03 0.0000000000e+00 0.0000e+00 -1.0000e+00
<mgrwt>
<rscale>  0 0.23976054E+04</rscale>
<asrwt>0</asrwt>
<pdfrwt beam="1">  1        2 0.40953835E+00 0.23976054E+04</pdfrwt>
<pdfrwt beam="2">  1       -2 0.83056599E-01 0.23976054E+04</pdfrwt>
<totfact> 0.40098599E+00</totfact>
</mgrwt>
<rwgt>
<wgt id='morphing_basis_vector_1'> +1.0518382e-04 </wgt>
<wgt id='morphing_basis_vector_2'> +8.0754870e-05 </wgt>
<wgt id='morphing_basis_vector_3'> +1.1549193e-04 </wgt>
<wgt id='morphing_basis_vector_4'> +6.7663448e-05 </wgt>
<wgt id='morphing_basis_vector_5'> +1.2169222e-04 </wgt>
</rwgt>
</event>
<event>
 4      1 +2.2016400e-08 2.60822300e+03 7.81860800e-03 7.85955400e-02
        2 -1    0    0  501    0 +0.0000000000e+00 +0.0000000000e+00 +1.8061109004e+03 1.8061109004e+03 0.0000000000e+00 0.0000e+00 -1.0000e+00
       -2 -1    0    0    0  501 -0.0000000000e+00 -0.0000000000e+00 -9.4164040146e+02 9.4164040146e+02 0.0000000000e+00 0.0000e+00 1.0000e+00
      -13  1    1    2    0    0 -1.0451949539e+03 +3.8273814953e+01 -3.8841651063e+02 1.1156902627e+03 0.0000000000e+00 0.0000e+00 1.0000e+00
       13  1    1    2    0    0 +1.0451949539e+03 -3.8273814953e+01 +1.2528870096e+03 1.6320610391e+03 0.0000000000e+00 0.0000e+00 -1.0000e+00
<mgrwt>
<rscale>  0 0.26082231E+04</rscale>
<asrwt>0</asrwt>
<pdfrwt beam="1">  1        2 0.27786321E+00 0.26082231E+04</pdfrwt>
<pdfrwt beam="2">  1       -2 0.14486775E+00 0.26082231E+04</pdfrwt>
<totfact> 0.30362919E+00</totfact>
</mgrwt>
<rwgt>
<wgt id='morphing_basis_vector_1'> +1.4075191e-04 </wgt>
<wgt id='morphing_basis_vector_2'> +9.5398790e-05 </wgt>
<wgt id='morphing_basis_vector_3'> +1.5270322e-04 </wgt>
<wgt id='morphing_basis_vector_4'> +1.0731286e-04 </wgt>
<wgt id='morphing_basis_vector_5'> +1.7214208e-04 </wgt>
</rwgt>
</event>
<event>
 4      1 +2.2016400e-08 2.35296600e+03 7.81860800e-03 7.94042600e-02
        2 -1    0    0  501    0 +0.0000000000e+00 +0.0000000000e+00 +7.0350313550e+02 7.0350313550e+02 0.0000000000e+00 0.0000e+00 -1.0000e+00
       -2 -1    0    0    0  501 -0.0000000000e+00 -0.0000000000e+00 -1.9674577430e+03 1.9674577430e+03 0.0000000000e+00 0.0000e+00 1.0000e+00
      -13  1    1    2    0    0 +2.8993982896e+02 -4.2628387882e+02 -1.8324069819e+03 1.9035488954e+03 0.0000000000e+00 0.0000e+00 1.0000e+00
       13  1    1    2    0    0 -2.8993982896e+02 +4.2628387882e+02 +5.6845237445e+02 7.6741198308e+02 0.0000000000e+00 0.0000e+00 -1.0000e+00
<mgrwt>
<rscale>  0 0.23529664E+04</rscale>
<asrwt>0</asrwt>
<pdfrwt beam="1">  1        2 0.10823125E+00 0.23529664E+04</pdfrwt>
<pdfrwt beam="2">  1       -2 0.30268580E+00 0.23529664E+04</pdfrwt>
<totfact> 0.10284005E+00</totfact>
</mgrwt>
<rwgt>
<wgt id='morphing_basis_vector_1'> +9.3508179e-05 </wgt>
<wgt id='morphing_basis_vector_2'> +6.2654107e-05 </wgt>
<wgt id='morphing_basis_vector_3'> +1.0083423e-04 </wgt>
<wgt id='morphing_basis_vector_4'> +7.1174475e-05 </wgt>
<wgt id='morphing_basis_vector_5'> +1.1344304e-04 </wgt>
</rwgt>
</event>
<event>
 4      1 +2.2016400e-08 2.52484500e+03 7.81860800e-03 7.88488800e-02
        2 -1    0    0  501    0 +0.0000000000e+00 +0.0000000000e+00 +2.8743918974e+03 2.8743918974e+03 0.0000000000e+00 0.0000e+00 1.0000e+00
       -2 -1    0    0    0  501 -0.0000000000e+00 -0.0000000000e+00 -5.5445153532e+02 5.5445153532e+02 0.0000000000e+00 0.0000e+00 -1.0000e+00
      -13  1    1    2    0    0 -1.0708619857e+03 -3.9487542223e+02 +1.8926065531e+03 2.2101202584e+03 0.0000000000e+00 0.0000e+00 -1.0000e+00
       13  1    1    2    0    0 +1.0708619857e+03 +3.9487542223e+02 +4.2733380895e+02 1.2187231744e+03 0.0000000000e+00 0.0000e+00 1.0000e+00
<mgrwt>
<rscale>  0 0.25248453E+04</rscale>
<asrwt>0</asrwt>
<pdfrwt beam="1">  1        2 0.44221413E+00 0.25248453E+04</pdfrwt>
<pdfrwt beam="2">  1       -2 0.85300238E-01 0.25248453E+04</pdfrwt>
<totfact> 0.27496237E+00</totfact>
</mgrwt>
<rwgt>
<wgt id='morphing_basis_vector_1'> +1.4203674e-04 </wgt>
<wgt id='morphing_basis_vector_2'> +1.3764164e-04 </wgt>
<wgt id='morphing_basis_vector_3'> +1.6199065e-04 </wgt>
<wgt id='morphing_basis_vector_4'> +5.6677218e-05 </wgt>
<wgt id='morphing_basis_vector_5'> +1.4789046e-04 </wgt>
</rwgt>
</event>
<event>
 4      1 +2.2016400e-08 2.52155300e+03 7.81860800e-03 7.88590800e-02
        2 -1    0    0  501    0 +0.0000000000e+00 +0.0000000000e+00 +7.5727509866e+02 7.5727509866e+02 0.0000000000e+00 0.0000e+00 1.0000e+00
       -2 -1    0    0    0  501 -0.0000000000e+00 -0.0000000000e+00 -2.0990492351e+03 2.0990492351e+03 0.0000000000e+00 0.0000e+00 -1.0000e+00
      -13  1    1    2    0    0 +1.1721789953e+03 +1.7416348559e+01 -1.1964342974e+03 1.6750408813e+03 0.0000000000e+00 0.0000e+00 -1.0000e+00
       13  1    1    2    0    0 -1.1721789953e+03 -1.7416348559e+01 -1.4533983901e+02 1.1812834524e+03 0.0000000000e+00 0.0000e+00 1.0000e+00
<mgrwt>
<rscale>  0 0.25215533E+04</rscale>
<asrwt>0</asrwt>
<pdfrwt beam="1">  1        2 0.11650386E+00 0.25215533E+04</pdfrwt>
<pdfrwt beam="2">  1       -2 0.32293064E+00 0.25215533E+04</pdfrwt>
<totfact> 0.67724193E-01</totfact>
</mgrwt>
<rwgt>
<wgt id='morphing_basis_vector_1'> +1.2388861e-04 </wgt>
<wgt id='morphing_basis_vector_2'> +8.5540313e-05 </wgt>
<wgt id='morphing_basis_vector_3'> +1.3452237e-04 </wgt>
<wgt id='morphing_basis_vector_4'> +9.2103393e-05 </wgt>
<wgt id='morphing_basis_vector_5'> +1.5000882e-04 </wgt>
</rwgt>
</event>
<event>
 4      1 +2.2016400e-08 2.29712300e+03 7.81860800e-03 7.95952700e-02
        2 -1    0    0  501    0 +0.0000000000e+00 +0.0000000000e+00 +1.7048520229e+03 1.7048520229e+03 0.0000000000e+00 0.0000e+00 -1.0000e+00
       -2 -1    0    0    0  501 -0.0000000000e+00 -0.0000000000e+00 -7.7378763807e+02 7.7378763807e+02 0.0000000000e+00 0.0000e+00 1.0000e+00
      -13  1    1    2    0    0 -6.6746564406e+02 -2.8523632780e+02 -4.9493020485e+02 8.7853631477e+02 0.0000000000e+00 0.0000e+00 1.0000e+00
       13  1    1    2    0    0 +6.6746564406e+02 +2.8523632780e+02 +1.4259945896e+03 1.6001033462e+03 0.0000000000e+00 0.0000e+00 -1.0000e+00
<mgrwt>
<rscale>  0 0.22971229E+04</rscale>
<asrwt>0</asrwt>
<pdfrwt beam="1">  1        2 0.26228493E+00 0.22971229E+04</pdfrwt>
<pdfrwt beam="2">  1       -2 0.11904425E+00 0.22971229E+04</pdfrwt>
<totfact> 0.60253715E+00</totfact>
</mgrwt>
<rwgt>
<wgt id='morphing_basis_vector_1'> +8.5110618e-05 </wgt>
<wgt id='morphing_basis_vector_2'> +5.7083415e-05 </wgt>
<wgt id='morphing_basis_vector_3'> +9.1676300e-05 </wgt>
<wgt id='morphing_basis_vector_4'> +6.4472361e-05 </wgt>
<wgt id='morphing_basis_vector_5'> +1.0289664e-04 </wgt>
</rwgt>
</event>
<event>
 4      1 +2.2016400e-08 2.38892400e+03 7.81860800e-03 7.92841300e-02
        2 -1    0    0  501    0 +0.0000000000e+00 +0.0000000000e+00 +1.7098657881e+03 1.7098657881e+03 0.0000000000e+00 0.0000e+00 1.0000e+00
       -2 -1    0    0    0  501 -0.0000000000e+00 -0.0000000000e+00 -8.3441584858e+02 8.3441584858e+02 0.0000000000e+00 0.0000e+00 -1.0000e+00
      -13  1    1    2    0    0 +3.8784407346e+02 +2.8167372969e+02 -7.2748884513e+02 8.7120785987e+02 0.0000000000e+00 0.0000e+00 -1.0000e+00
       13  1    1    2    0    0 -3.8784407346e+02 -2.8167372969e+02 +1.6029387847e+03 1.6730737768e+03 0.0000000000e+00 0.0000e+00 1.0000e+00
<mgrwt>
<rscale>  0 0.23889237E+04</rscale>
<asrwt>0</asrwt>
<pdfrwt beam="1">  1        2 0.26305627E+00 0.23889237E+04</pdfrwt>
<pdfrwt beam="2">  1       -2 0.12837167E+00 0.23889237E+04</pdfrwt>
<totfact> 0.48733975E+00</totfact>
</mgrwt>
<rwgt>
<wgt id='morphing_basis_vector_1'> +9.9265622e-05 </wgt>
<wgt id='morphing_basis_vector_2'> +6.6537749e-05 </wgt>
<wgt id='morphing_basis_vector_3'> +1.0712766e-04 </wgt>
<wgt id='morphing_basis_vector_4'> +7.5696925e-05 </wgt>
<wgt id='morphing_basis_vector_5'> +1.2064297e-04 </wgt>
</rwgt>
</event>
<event>
 4      1 +2.2016400e-08 2.33389100e+03 7.81860800e-03 7.94688800e-02
        2 -1    0    0  501    0 +0.0000000000e+00 +0.0000000000e+00 +1.7231488641e+03 1.7231488641e+03 0.0000000000e+00 0.0000e+00 -1.0000e+00
       -2 -1    0    0    0  501 -0.0000000000e+00 -0.0000000000e+00 -7.9027537072e+02 7.9027537072e+02 0.0000000000e+00 0.0000e+00 1.0000e+00
      -13  1    1    2    0    0 -5.2158598099e+02 +9.7190653346e+02 +5.6203691236e+01 1.1044514929e+03 0.0000000000e+00 0.0000e+00 1.0000e+00
       13  1    1    2    0    0 +5.2158598099e+02 -9.7190653346e+02 +8.7666980210e+02 1.4089727418e+03 0.0000000000e+00 0.0000e+00 -1.0000e+00
<mgrwt>
<rscale>  0 0.23338913E+04</rscale>
<asrwt>0</asrwt>
<pdfrwt beam="1">  1        2 0.26509982E+00 0.23338913E+04</pdfrwt>
<pdfrwt beam="2">  1       -2 0.12158083E+00 0.23338913E+04</pdfrwt>
<totfact> 0.55539352E+00</totfact>
</mgrwt>
<rwgt>
<wgt id='morphing_basis_vector_1'> +9.1469161e-05 </wgt>
<wgt id='morphing_basis_vector_2'> +6.3355285e-05 </wgt>
<wgt id='morphing_basis_vector_3'> +9.8984033e-05 </wgt>
<wgt id='morphing_basis_vector_4'> +6.7006216e-05 </wgt>
<wgt id='morphing_basis_vector_5'> +1.0960726e-04 </wgt>
</rwgt>
</event>
<event>
 4      1 +2.2016400e-08 2.27930500e+03 7.81860800e-03 7.96574000e-02
        2 -1    0    0  501    0 +0.0000000000e+00 +0.0000000000e+00 +1.7985154254e+03 1.7985154254e+03 0.0000000000e+00 0.0000e+00 -1.0000e+00
       -2 -1    0    0    0  501 -0.0000000000e+00 -0.0000000000e+00 -7.2215559236e+02 7.2215559236e+02 0.0000000000e+00 0.0000e+00 1.0000e+00
      -13  1    1    2    0    0 +1.7704439656e+02 -3.5146285543e+02 -6.4462950429e+02 7.5526025640e+02 0.0000000000e+00 0.0000e+00 1.0000e+00
       13  1    1    2    0    0 -1.7704439656e+02 +3.5146285543e+02 +1.7209893373e+03 1.7654107613e+03 0.0000000000e+00 0.0000e+00 -1.0000e+00
<mgrwt>
<rscale>  0 0.22793051E+04</rscale>
<asrwt>0</asrwt>
<pdfrwt beam="1">  1        2 0.27669468E+00 0.22793051E+04</pdfrwt>
<pdfrwt beam="2">  1       -2 0.11110086E+00 0.22793051E+04</pdfrwt>
<totfact> 0.63839293E+00</totfact>
</mgrwt>
<rwgt>
<wgt id='morphing_basis_vector_1'> +8.2489944e-05 </wgt>
<wgt id='morphing_basis_vector_2'> +5.5194958e-05 </wgt>
<wgt id='morphing_basis_vector_3'> +8.8792541e-05 </wgt>
<wgt id='morphing_basis_vector_4'> +6.2568484e-05 </wgt>
<wgt id='morphing_basis_vector_5'> +9.9701701e-05 </wgt>
</rwgt>
</event>
<event>
 4      1 +2.2016400e-08 2.64482200e+03 7.81860800e-03 7.84873700e-02
        2 -1    0    0  501    0 +0.0000000000e+00 +0.0000000000e+00 +1.2248625288e+03 1.2248625288e+03 0.0000000000e+00 0.0000e+00 -1.0000e+00
       -2 -1    0    0    0  501 -0.0000000000e+00 -0.0000000000e+00 -1.4277279715e+03 1.4277279715e+03 0.0000000000e+00 0.0000e+00 1.0000e+00
      -13  1    1    2    0    0 -1.0266907837e+03 -9.2980051453e+01 -9.3213566924e+02 1.3898259464e+03 0.0000000000e+00 0.0000e+00 1.0000e+00
       13  1    1    2    0    0 +1.0266907837e+03 +9.2980051453e+01 +7.2927022655e+02 1.2627645540e+03 0.0000000000e+00 0.0000e+00 -1.0000e+00
<mgrwt>
<rscale>  0 0.26448217E+04</rscale>
<asrwt>0</asrwt>
<pdfrwt beam="1">  1        2 0.18844039E+00 0.26448217E+04</pdfrwt>
<pdfrwt beam="2">  1       -2 0.21965046E+00 0.26448217E+04</pdfrwt>
<totfact> 0.17279741E+00</totfact>
</mgrwt>
<rwgt>
<wgt id='morphing_basis_vector_1'> +1.4865780e-04 </wgt>
<wgt id='morphing_basis_vector_2'> +1.0065035e-04 </wgt>
<wgt id='morphing_basis_vector_3'> +1.6135027e-04 </wgt>
<wgt id='morphing_basis_vector_4'> +1.1366749e-04 </wgt>
<wgt id='morphing_basis_vector_5'> +1.8213765e-04 </wgt>
</rwgt>
</event>
<event>
 4      1 +2.2016400e-08 2.38831100e+03 7.81860800e-03 7.92861500e-02
        2 -1    0    0  501    0 +0.0000000000e+00 +0.0000000000e+00 +1.9151250289e+03 1.9151250289e+03 0.0000000000e+00 0.0000e+00 1.0000e+00
       -2 -1    0    0    0  501 -0.0000000000e+00 -0.0000000000e+00 -7.4460285690e+02 7.4460285690e+02 0.0000000000e+00 0.0000e+00 -1.0000e+00
      -13  1    1    2    0    0 -6.3059254355e+02 +9.3715175792e+02 +1.0167275543e+03 1.5197484308e+03 0.0000000000e+00 0.0000e+00 1.0000e+00
       13  1    1    2    0    0 +6.3059254355e+02 -9.3715175792e+02 +1.5379461774e+02 1.1399794550e+03 0.0000000000e+00 0.0000e+00 -1.0000e+00
<mgrwt>
<rscale>  0 0.23883112E+04</rscale>
<asrwt>0</asrwt>
<pdfrwt beam="1">  1        2 0.29463462E+00 0.23883112E+04</pdfrwt>
<pdfrwt beam="2">  1       -2 0.11455429E+00 0.23883112E+04</pdfrwt>
<totfact> 0.50376333E+00</totfact>
</mgrwt>
<rwgt>
<wgt id='morphing_basis_vector_1'> +1.1005874e-04 </wgt>
<wgt id='morphing_basis_vector_2'> +9.8632815e-05 </wgt>
<wgt id='morphing_basis_vector_3'> +1.2351187e-04 </wgt>
<wgt id='morphing_basis_vector_4'> +5.3407036e-05 </wgt>
<wgt id='morphing_basis_vector_5'> +1.1872552e-04 </wgt>
</rwgt>
</event>
<event>
 4      1 +2.2016400e-08 2.48976900e+03 7.81860800e-03 7.89584600e-02
        2 -1    0    0  501    0 +0.0000000000e+00 +0.0000000000e+00 +2.2678644857e+03 2.2678644857e+03 0.0000000000e+00 0.0000e+00 -1.0000e+00
       -2 -1    0    0    0  501 -0.0000000000e+00 -0.0000000000e+00 -6.8334652349e+02 6.8334652349e+02 0.0000000000e+00 0.0000e+00 1.0000e+00
      -13  1    1    2    0    0 -1.1432278882e+03 +1.5128855609e+02 +2.3644025054e+02 1.1771840228e+03 0.0000000000e+00 0.0000e+00 1.0000e+00
       13  1    1    2    0    0 +1.1432278882e+03 -1.5128855609e+02 +1.3480777117e+03 1.7740269863e+03 0.0000000000e+00 0.0000e+00 -1.0000e+00
<mgrwt>
<rscale>  0 0.24897689E+04</rscale>
<asrwt>0</asrwt>
<pdfrwt beam="1">  1        2 0.34890223E+00 0.24897689E+04</pdfrwt>
<pdfrwt beam="2">  1       -2 0.10513024E+00 0.24897689E+04</pdfrwt>
<totfact> 0.39050262E+00</totfact>
</mgrwt>
<rwgt>
<wgt id='morphing_basis_vector_1'> +1.1779825e-04 </wgt>
<wgt id='morphing_basis_vector_2'> +8.1218179e-05 </wgt>
<wgt id='morphing_basis_vector_3'> +1.2781248e-04 </wgt>
<wgt id='morphing_basis_vector_4'> +8.7570417e-05 </wgt>
<wgt id='morphing_basis_vector_5'> +1.4250150e-04 </wgt>
</rwgt>
</event>
<event>
 4      1 +2.2016400e-08 2.40745500e+03 7.81860800e-03 7.92230600e-02
        2 -1    0    0  501    0 +0.0000000000e+00 +0.0000000000e+00 +3.3368755635e+03 3.3368755635e+03 0.0000000000e+00 0.0000e+00 1.0000e+00
       -2 -1    0    0    0  501 -0.0000000000e+00 -0.0000000000e+00 -4.3422648456e+02 4.3422648456e+02 0.0000000000e+00 0.0000e+00 -1.0000e+00
      -13  1    1    2    0    0 +2.2268887803e+02 -5.4736498882e+02 -1.9137933697e+02 6.2114798398e+02 0.0000000000e+00 0.0000e+00 -1.0000e+00
       13  1    1    2    0    0 -2.2268887803e+02 +5.4736498882e+02 +3.0940284159e+03 3.1499540640e+03 0.0000000000e+00 0.0000e+00 1.0000e+00
<mgrwt>
<rscale>  0 0.24074549E+04</rscale>
<asrwt>0</asrwt>
<pdfrwt beam="1">  1        2 0.51336545E+00 0.24074549E+04</pdfrwt>
<pdfrwt beam="2">  1       -2 0.66804077E-01 0.24074549E+04</pdfrwt>
<totfact> 0.23485281E+00</totfact>
</mgrwt>
<rwgt>
<wgt id='morphing_basis_vector_1'> +1.0234869e-04 </wgt>
<wgt id='morphing_basis_vector_2'> +6.8648686e-05 </wgt>
<wgt id='morphing_basis_vector_3'> +1.1050450e-04 </wgt>
<wgt id='morphing_basis_vector_4'> +7.8081929e-05 </wgt>
<wgt id='morphing_basis_vector_5'> +1.2448180e-04 </wgt>
</rwgt>
</event>
<event>
 4      1 +2.2016400e-08 2.40839900e+03 7.81860800e-03 7.92199600e-02
        2 -1    0    0  501    0 +0.0000000000e+00 +0.0000000000e+00 +2.0037565513e+03 2.0037565513e+03 0.0000000000e+00 0.0000e+00 1.0000e+00
       -2 -1    0    0    0  501 -0.0000000000e+00 -0.0000000000e+00 -7.2368899991e+02 7.2368899991e+02 0.0000000000e+00 0.0000e+00 -1.0000e+00
      -13  1    1    2    0    0 -6.4451164769e+02 +1.0008319331e+02 +1.7863983291e+03 1.9017441730e+03 0.0000000000e+00 0.0000e+00 1.0000e+00
       13  1    1    2    0    0 +6.4451164769e+02 -1.0008319331e+02 -5.0633077764e+02 8.2570137821e+02 0.0000000000e+00 0.0000e+00 -1.0000e+00
<mgrwt>
<rscale>  0 0.24083991E+04</rscale>
<asrwt>0</asrwt>
<pdfrwt beam="1">  1        2 0.30827024E+00 0.24083991E+04</pdfrwt>
<pdfrwt beam="2">  1       -2 0.11133677E+00 0.24083991E+04</pdfrwt>
<totfact> 0.48200557E+00</totfact>
</mgrwt>
<rwgt>
<wgt id='morphing_basis_vector_1'> +1.3801799e-04 </wgt>
<wgt id='morphing_basis_vector_2'> +1.7359003e-04 </wgt>
<wgt id='morphing_basis_vector_3'> +1.6452695e-04 </wgt>
<wgt id='morphing_basis_vector_4'> +5.7321709e-06 </wgt>
<wgt id='morphing_basis_vector_5'> +1.1882767e-04 </wgt>
</rwgt>
</event>
<event>
 4      1 +2.2016400e-08 2.52986300e+03 7.81860800e-03 7.88333500e-02
        2 -1    0    0  501    0 +0.0000000000e+00 +0.0000000000e+00 +1.6947568418e+03 1.6947568418e+03 0.0000000000e+00 0.0000e+00 1.0000e+00
       -2 -1    0    0    0  501 -0.0000000000e+00 -0.0000000000e+00 -9.4411861981e+02 9.4411861981e+02 0.0000000000e+00 0.0000e+00 -1.0000e+00
      -13  1    1    2    0    0 +4.5516833934e+02 +1.1541747405e+03 +1.1821492393e+02 1.2463034610e+03 0.0000000000e+00 0.0000e+00 -1.0000e+00
       13  1    1    2    0    0 -4.5516833934e+02 -1.1541747405e+03 +6.3242329804e+02 1.3925720005e+03 0.0000000000e+00 0.0000e+00 1.0000e+00
<mgrwt>
<rscale>  0 0.25298628E+04</rscale>
<asrwt>0</asrwt>
<pdfrwt beam="1">  1        2 0.26073182E+00 0.25298628E+04</pdfrwt>
<pdfrwt beam="2">  1       -2 0.14524902E+00 0.25298628E+04</pdfrwt>
<totfact> 0.34998235E+00</totfact>
</mgrwt>
<rwgt>
<wgt id='morphing_basis_vector_1'> +1.2664306e-04 </wgt>
<wgt id='morphing_basis_vector_2'> +9.0013885e-05 </wgt>
<wgt id='morphing_basis_vector_3'> +1.3803792e-04 </wgt>
<wgt id='morphing_basis_vector_4'> +9.1011047e-05 </wgt>
<wgt id='morphing_basis_vector_5'> +1.5183221e-04 </wgt>
</rwgt>
</event>
<event>
 4      1 +2.2016400e-08 2.30506800e+03 7.81860800e-03 7.95677600e-02
        2 -1    0    0  501    0 +0.0000000000e+00 +0.0000000000e+00 +9.9658798632e+02 9.9658798632e+02 0.0000000000e+00 0.0000e+00 1.0000e+00
       -2 -1    0    0    0  501 -0.0000000000e+00 -0.0000000000e+00 -1.3328822193e+03 1.3328822193e+03 0.0000000000e+00 0.0000e+00 -1.0000e+00
      -13  1    1    2    0    0 -8.1475154893e+02 -7.6579332508e+02 -4.5052402685e+02 1.2055004778e+03 0.0000000000e+00 0.0000e+00 -1.0000e+00
       13  1    1    2    0    0 +8.1475154893e+02 +7.6579332508e+02 +1.1422979388e+02 1.1239697278e+03 0.0000000000e+00 0.0000e+00 1.0000e+00
<mgrwt>
<rscale>  0 0.23050678E+04</rscale>
<asrwt>0</asrwt>
<pdfrwt beam="1">  1        2 0.15332123E+00 0.23050678E+04</pdfrwt>
<pdfrwt beam="2">  1       -2 0.20505880E+00 0.23050678E+04</pdfrwt>
<totfact> 0.31026174E+00</totfact>
</mgrwt>
<rwgt>
<wgt id='morphing_basis_vector_1'> +8.7471952e-05 </wgt>
<wgt id='morphing_basis_vector_2'> +6.1405137e-05 </wgt>
<wgt id='morphing_basis_vector_3'> +9.4748423e-05 </wgt>
<wgt id='morphing_basis_vector_4'> +6.2953838e-05 </wgt>
<wgt id='morphing_basis_vector_5'> +1.0415421e-04 </wgt>
</rwgt>
</event>
<event>
 4      1 +2.2016400e-08 2.64492100e+03 7.81860800e-03 7.84870800e-02
        2 -1    0    0  501    0 +0.0000000000e+00 +0.0000000000e+00 +1.4934698976e+03 1.4934698976e+03 0.0000000000e+00 0.0000e+00 -1.0000e+00
       -2 -1    0    0    0  501 -0.0000000000e+00 -0.0000000000e+00 -1.1710321427e+03 1.1710321427e+03 0.0000000000e+00 0.0000e+00 1.0000e+00
      -13  1    1    2    0    0 -1.8901684142e+02 -2.2117392883e+02 -1.1383924262e+03 1.1749819527e+03 0.0000000000e+00 0.0000e+00 1.0000e+00
       13  1    1    2    0    0 +1.8901684142e+02 +2.2117392883e+02 +1.4608301811e+03 1.4895200875e+03 0.0000000000e+00 0.0000e+00 -1.0000e+00
<mgrwt>
<rscale>  0 0.26449206E+04</rscale>
<asrwt>0</asrwt>
<pdfrwt beam="1">  1        2 0.22976460E+00 0.26449206E+04</pdfrwt>
<pdfrwt beam="2">  1       -2 0.18015879E+00 0.26449206E+04</pdfrwt>
<totfact> 0.23656176E+00</totfact>
</mgrwt>
<rwgt>
<wgt id='morphing_basis_vector_1'> +1.4836361e-04 </wgt>
<wgt id='morphing_basis_vector_2'> +9.9733018e-05 </wgt>
<wgt id='morphing_basis_vector_3'> +1.6088756e-04 </wgt>
<wgt id='morphing_basis_vector_4'> +1.1433617e-04 </wgt>
<wgt id='morphing_basis_vector_5'> +1.8221826e-04 </wgt>
</rwgt>
</event>
<event>
 4      1 +2.2016400e-08 2.47488400e+03 7.81860800e-03 7.90055300e-02
        2 -1    0    0  501    0 +0.0000000000e+00 +0.0000000000e+00 +2.8189690337e+03 2.8189690337e+03 0.0000000000e+00 0.0000e+00 1.0000e+00
       -2 -1    0    0    0  501 -0.0000000000e+00 -0.0000000000e+00 -5.4319937811e+02 5.4319937811e+02 0.0000000000e+00 0.0000e+00 -1.0000e+00
      -13  1    1    2    0    0 -8.2532849541e+02 -5.7994173219e+01 -1.1219461250e+02 8.3493597391e+02 0.0000000000e+00 0.0000e+00 -1.0000e+00
       13  1    1    2    0    0 +8.2532849541e+02 +5.7994173219e+01 +2.3879642680e+03 2.5272324378e+03 0.0000000000e+00 0.0000e+00 1.0000e+00
<mgrwt>
<rscale>  0 0.24748836E+04</rscale>
<asrwt>0</asrwt>
<pdfrwt beam="1">  1        2 0.43368753E+00 0.24748836E+04</pdfrwt>
<pdfrwt beam="2">  1       -2 0.83569137E-01 0.24748836E+04</pdfrwt>
<totfact> 0.31384512E+00</totfact>
</mgrwt>
<rwgt>
<wgt id='morphing_basis_vector_1'> +1.1421184e-04 </wgt>
<wgt id='morphing_basis_vector_2'> +7.6852065e-05 </wgt>
<wgt id='morphing_basis_vector_3'> +1.2351925e-04 </wgt>
<wgt id='morphing_basis_vector_4'> +8.7169986e-05 </wgt>
<wgt id='morphing_basis_vector_5'> +1.3921855e-04 </wgt>
</rwgt>
</event>
<event>
 4      1 +2.2016400e-08 2.52729400e+03 7.81860800e-03 7.88413000e-02
        2 -1    0    0  501    0 +0.0000000000e+00 +0.0000000000e+00 +7.5581534166e+02 7.5581534166e+02 0.0000000000e+00 0.0000e+00 1.0000e+00
       -2 -1    0    0    0  501 -0.0000000000e+00 -0.0000000000e+00 -2.1126898410e+03 2.1126898410e+03 0.0000000000e+00 0.0000e+00 -1.0000e+00
      -13  1    1    2    0    0 -1.1012508423e+03 +6.1700296354e+02 -6.1267203408e+02 1.4031440040e+03 0.0000000000e+00 0.0000e+00 -1.0000e+00
       13  1    1    2    0    0 +1.1012508423e+03 -6.1700296354e+02 -7.4420246524e+02 1.4653611786e+03 0.0000000000e+00 0.0000e+00 1.0000e+00
<mgrwt>
<rscale>  0 0.25272937E+04</rscale>
<asrwt>0</asrwt>
<pdfrwt beam="1">  1        2 0.11627928E+00 0.25272937E+04</pdfrwt>
<pdfrwt beam="2">  1       -2 0.32502921E+00 0.25272937E+04</pdfrwt>
<totfact> 0.65711723E-01</totfact>
</mgrwt>
<rwgt>
<wgt id='morphing_basis_vector_1'> +1.2930878e-04 </wgt>
<wgt id='morphing_basis_vector_2'> +9.9012016e-05 </wgt>
<wgt id='morphing_basis_vector_3'> +1.4232931e-04 </wgt>
<wgt id='morphing_basis_vector_4'> +8.4128462e-05 </wgt>
<wgt id='morphing_basis_vector_5'> +1.5068071e-04 </wgt>
</rwgt>
</event>
<event>
 4      1 +2.2016400e-08 2.31553300e+03 7.81860800e-03 7.95316900e-02
        2 -1    0    0  501    0 +0.0000000000e+00 +0.0000000000e+00 +2.0583427442e+03 2.0583427442e+03 0.0000000000e+00 0.0000e+00 -1.0000e+00
       -2 -1    0    0    0  501 -0.0000000000e+00 -0.0000000000e+00 -6.5121470356e+02 6.5121470356e+02 0.0000000000e+00 0.0000e+00 1.0000e+00
      -13  1    1    2    0    0 -3.5832412620e+02 +7.8713388752e+02 -1.9711950708e+02 8.8703553276e+02 0.0000000000e+00 0.0000e+00 1.0000e+00
       13  1    1    2    0    0 +3.5832412620e+02 -7.8713388752e+02 +1.6042475477e+03 1.8225219150e+03 0.0000000000e+00 0.0000e+00 -1.0000e+00
<mgrwt>
<rscale>  0 0.23155328E+04</rscale>
<asrwt>0</asrwt>
<pdfrwt beam="1">  1        2 0.31666811E+00 0.23155328E+04</pdfrwt>
<pdfrwt beam="2">  1       -2 0.10018688E+00 0.23155328E+04</pdfrwt>
<totfact> 0.58732682E+00</totfact>
</mgrwt>
<rwgt>
<wgt id='morphing_basis_vector_1'> +8.7915977e-05 </wgt>
<wgt id='morphing_basis_vector_2'> +5.9179887e-05 </wgt>
<wgt id='morphing_basis_vector_3'> +9.4777754e-05 </wgt>
<wgt id='morphing_basis_vector_4'> +6.6418958e-05 </wgt>
<wgt id='morphing_basis_vector_5'> +1.0627209e-04 </wgt>
</rwgt>
</event>
<event>
 4      1 +2.2016400e-08 2.58318400e+03 7.81860800e-03 7.86705900e-02
        2 -1    0    0  501    0 +0.0000000000e+00 +0.0000000000e+00 +2.7729055753e+03 2.7729055753e+03 0.0000000000e+00 0.0000e+00 -1.0000e+00
       -2 -1    0    0    0  501 -0.0000000000e+00 -0.0000000000e+00 -6.0161095874e+02 6.0161095874e+02 0.0000000000e+00 0.0000e+00 1.0000e+00
      -13  1    1    2    0    0 -1.7393657210e+02 +8.7453161175e+02 -1.3502982912e+02 9.0182732595e+02 0.0000000000e+00 0.0000e+00 1.0000e+00
       13  1    1    2    0    0 +1.7393657210e+02 -8.7453161175e+02 +2.3063244456e+03 2.4726892081e+03 0.0000000000e+00 0.0000e+00 -1.0000e+00
<mgrwt>
<rscale>  0 0.25831844E+04</rscale>
<asrwt>0</asrwt>
<pdfrwt beam="1">  1        2 0.42660085E+00 0.25831844E+04</pdfrwt>
<pdfrwt beam="2">  1       -2 0.92555533E-01 0.25831844E+04</pdfrwt>
<totfact> 0.26200547E+00</totfact>
</mgrwt>
<rwgt>
<wgt id='morphing_basis_vector_1'> +1.3528158e-04 </wgt>
<wgt id='morphing_basis_vector_2'> +9.1198100e-05 </wgt>
<wgt id='morphing_basis_vector_3'> +1.4661197e-04 </wgt>
<wgt id='morphing_basis_vector_4'> +1.0362864e-04 </wgt>
<wgt id='morphing_basis_vector_5'> +1.6558507e-04 </wgt>
</rwgt>
</event>
<event>
 4      1 +2.2016400e-08 2.46396000e+03 7.81860800e-03 7.90402800e-02
        2 -1    0    0  501    0 +0.0000000000e+00 +0.0000000000e+00 +8.8630974644e+02 8.8630974644e+02 0.0000000000e+00 0.0000e+00 1.0000e+00
       -2 -1    0    0    0  501 -0.0000000000e+00 -0.0000000000e+00 -1.7124659671e+03 1.7124659671e+03 0.0000000000e+00 0.0000e+00 -1.0000e+00
      -13  1    1    2    0    0 +3.7557607831e+02 +1.0858461413e+03 -8.8198878117e+02 1.4484555372e+03 0.0000000000e+00 0.0000e+00 -1.0000e+00
       13  1    1    2    0    0 -3.7557607831e+02 -1.0858461413e+03 +5.5832560487e+01 1.1503201763e+03 0.0000000000e+00 0.0000e+00 1.0000e+00
<mgrwt>
<rscale>  0 0.24639605E+04</rscale>
<asrwt>0</asrwt>
<pdfrwt beam="1">  1        2 0.13635535E+00 0.24639605E+04</pdfrwt>
<pdfrwt beam="2">  1       -2 0.26345630E+00 0.24639605E+04</pdfrwt>
<totfact> 0.14012813E+00</totfact>
</mgrwt>
<rwgt>
<wgt id='morphing_basis_vector_1'> +1.1311954e-04 </wgt>
<wgt id='morphing_basis_vector_2'> +7.8121258e-05 </wgt>
<wgt id='morphing_basis_vector_3'> +1.2270139e-04 </wgt>
<wgt id='morphing_basis_vector_4'> +8.3812706e-05 </wgt>
<wgt id='morphing_basis_vector_5'> +1.3659877e-04 </wgt>
</rwgt>
</event>
<event>
 4      1 +2.2016400e-08 2.44716200e+03 7.81860800e-03 7.90940900e-02
        2 -1    0    0  501    0 +0.0000000000e+00 +0.0000000000e+00 +2.8601953961e+03 2.8601953961e+03 0.0000000000e+00 0.0000e+00 -1.0000e+00
       -2 -1    0    0    0  501 -0.0000000000e+00 -0.0000000000e+00 -5.2344351791e+02 5.2344351791e+02 0.0000000000e+00 0.0000e+00 1.0000e+00
      -13  1    1    2    0    0 -8.0551517677e+02 -3.7789023844e+02 +7.0123041601e+00 8.8977800867e+02 0.0000000000e+00 0.0000e+00 1.0000e+00
       13  1    1    2    0    0 +8.0551517677e+02 +3.7789023844e+02 +2.3297395740e+03 2.4938609053e+03 0.0000000000e+00 0.0000e+00 -1.0000e+00
<mgrwt>
<rscale>  0 0.24471622E+04</rscale>
<asrwt>0</asrwt>
<pdfrwt beam="1">  1        2 0.44003005E+00 0.24471622E+04</pdfrwt>
<pdfrwt beam="2">  1       -2 0.80529774E-01 0.24471622E+04</pdfrwt>
<totfact> 0.32246843E+00</totfact>
</mgrwt>
<rwgt>
<wgt id='morphing_basis_vector_1'> +1.0930321e-04 </wgt>
<wgt id='morphing_basis_vector_2'> +7.3653135e-05 </wgt>
<wgt id='morphing_basis_vector_3'> +1.1816958e-04 </wgt>
<wgt id='morphing_basis_vector_4'> +8.3164535e-05 </wgt>
<wgt id='morphing_basis_vector_5'> +1.3299628e-04 </wgt>
</rwgt>
</event>
<event>
 4      1 +2.2016400e-08 2.27335100e+03 7.81860800e-03 7.96782900e-02
        2 -1    0    0  501    0 +0.0000000000e+00 +0.0000000000e+00 +1.3247067104e+03 1.3247067104e+03 0.0000000000e+00 0.0000e+00 -1.0000e+00
       -2 -1    0    0    0  501 -0.0000000000e+00 -0.0000000000e+00 -9.7533400725e+02 9.7533400725e+02 0.0000000000e+00 0.0000e+00 1.0000e+00
      -13  1    1    2    0    0 +3.0631954241e+02 +2.6063696328e+01 -9.3247383477e+02 9.8184440257e+02 0.0000000000e+00 0.0000e+00 1.0000e+00
       13  1    1    2    0    0 -3.0631954241e+02 -2.6063696328e+01 +1.2818465379e+03 1.3181963150e+03 0.0000000000e+00 0.0000e+00 -1.0000e+00
<mgrwt>
<rscale>  0 0.22733513E+04</rscale>
<asrwt>0</asrwt>
<pdfrwt beam="1">  1        2 0.20380103E+00 0.22733513E+04</pdfrwt>
<pdfrwt beam="2">  1       -2 0.15005138E+00 0.22733513E+04</pdfrwt>
<totfact> 0.52623899E+00</totfact>
</mgrwt>
<rwgt>
<wgt id='morphing_basis_vector_1'> +8.1642648e-05 </wgt>
<wgt id='morphing_basis_vector_2'> +5.4617870e-05 </wgt>
<wgt id='morphing_basis_vector_3'> +8.7866356e-05 </wgt>
<wgt id='morphing_basis_vector_4'> +6.1911908e-05 </wgt>
<wgt id='morphing_basis_vector_5'> +9.8648398e-05 </wgt>
</rwgt>
</event>
<event>
 4      1 +2.2016400e-08 2.51061300e+03 7.81860800e-03 7.88931200e-02
        2 -1    0    0  501    0 +0.0000000000e+00 +0.0000000000e+00 +1.1801190032e+03 1.1801190032e+03 0.0000000000e+00 0.0000e+00 -1.0000e+00
       -2 -1    0    0    0  501 -0.0000000000e+00 -0.0000000000e+00 -1.3352843716e+03 1.3352843716e+03 0.0000000000e+00 0.0000e+00 1.0000e+00
      -13  1    1    2    0    0 -6.8327158601e+02 +9.6648926889e+02 -4.9651072677e+02 1.2835437152e+03 0.0000000000e+00 0.0000e+00 1.0000e+00
       13  1    1    2    0    0 +6.8327158601e+02 -9.6648926889e+02 +3.4134535837e+02 1.2318596595e+03 0.0000000000e+00 0.0000e+00 -1.0000e+00
<mgrwt>
<rscale>  0 0.25106130E+04</rscale>
<asrwt>0</asrwt>
<pdfrwt beam="1">  1        2 0.18155677E+00 0.25106130E+04</pdfrwt>
<pdfrwt beam="2">  1       -2 0.20542836E+00 0.25106130E+04</pdfrwt>
<totfact> 0.23476957E+00</totfact>
</mgrwt>
<rwgt>
<wgt id='morphing_basis_vector_1'> +1.2195181e-04 </wgt>
<wgt id='morphing_basis_vector_2'> +8.4581403e-05 </wgt>
<wgt id='morphing_basis_vector_3'> +1.3246723e-04 </wgt>
<wgt id='morphing_basis_vector_4'> +9.0143242e-05 </wgt>
<wgt id='morphing_basis_vector_5'> +1.4736140e-04 </wgt>
</rwgt>
</event>
<event>
 4      1 +2.2016400e-08 2.66747200e+03 7.81860800e-03 7.84213100e-02
        2 -1    0    0  501    0 +0.0000000000e+00 +0.0000000000e+00 +1.4197268343e+03 1.4197268343e+03 0.0000000000e+00 0.0000e+00 -1.0000e+00
       -2 -1    0    0    0  501 -0.0000000000e+00 -0.0000000000e+00 -1.2529533818e+03 1.2529533818e+03 0.0000000000e+00 0.0000e+00 1.0000e+00
      -13  1    1    2    0    0 +5.7362478919e+02 -1.0468543404e+03 -5.1267157306e+02 1.2991464701e+03 0.0000000000e+00 0.0000e+00 1.0000e+00
       13  1    1    2    0    0 -5.7362478919e+02 +1.0468543404e+03 +6.7944502558e+02 1.3735337461e+03 0.0000000000e+00 0.0000e+00 -1.0000e+00
<mgrwt>
<rscale>  0 0.26674719E+04</rscale>
<asrwt>0</asrwt>
<pdfrwt beam="1">  1        2 0.21841951E+00 0.26674719E+04</pdfrwt>
<pdfrwt beam="2">  1       -2 0.19276206E+00 0.26674719E+04</pdfrwt>
<totfact> 0.20897417E+00</totfact>
</mgrwt>
<rwgt>
<wgt id='morphing_basis_vector_1'> +1.5432991e-04 </wgt>
<wgt id='morphing_basis_vector_2'> +1.0581975e-04 </wgt>
<wgt id='morphing_basis_vector_3'> +1.6783003e-04 </wgt>
<wgt id='morphing_basis_vector_4'> +1.1647099e-04 </wgt>
<wgt id='morphing_basis_vector_5'> +1.8843379e-04 </wgt>
</rwgt>
</event>
<event>
 4      1 +2.2016400e-08 2.60921400e+03 7.81860800e-03 7.85925800e-02
        2 -1    0    0  501    0 +0.0000000000e+00 +0.0000000000e+00 +1.3119146302e+03 1.3119146302e+03 0.0000000000e+00 0.0000e+00 1.0000e+00
       -2 -1    0    0    0  501 -0.0000000000e+00 -0.0000000000e+00 -1.2973399250e+03 1.2973399250e+03 0.0000000000e+00 0.0000e+00 -1.0000e+00
      -13  1    1    2    0    0 -5.1113031693e+02 +5.7477419805e+01 -1.1916647833e+03 1.2979302025e+03 0.0000000000e+00 0.0000e+00 -1.0000e+00
       13  1    1    2    0    0 +5.1113031693e+02 -5.7477419805e+01 +1.2062394885e+03 1.3113243528e+03 0.0000000000e+00 0.0000e+00 1.0000e+00
<mgrwt>
<rscale>  0 0.26092138E+04</rscale>
<asrwt>0</asrwt>
<pdfrwt beam="1">  1        2 0.20183302E+00 0.26092138E+04</pdfrwt>
<pdfrwt beam="2">  1       -2 0.19959076E+00 0.26092138E+04</pdfrwt>
<totfact> 0.21535615E+00</totfact>
</mgrwt>
<rwgt>
<wgt id='morphing_basis_vector_1'> +1.4061222e-04 </wgt>
<wgt id='morphing_basis_vector_2'> +9.4507623e-05 </wgt>
<wgt id='morphing_basis_vector_3'> +1.5239568e-04 </wgt>
<wgt id='morphing_basis_vector_4'> +1.0820040e-04 </wgt>
<wgt id='morphing_basis_vector_5'> +1.7246562e-04 </wgt>
</rwgt>
</event>
<event>
 4      1 +2.2016400e-08 2.23807500e+03 7.81860800e-03 7.98034300e-02
        2 -1    0    0  501    0 +0.0000000000e+00 +0.0000000000e+00 +1.2903419926e+03 1.2903419926e+03 0.0000000000e+00 0.0000e+00 1.0000e+00
       -2 -1    0    0    0  501 -0.0000000000e+00 -0.0000000000e+00 -9.7047494681e+02 9.7047494681e+02 0.0000000000e+00 0.0000e+00 -1.0000e+00
      -13  1    1    2    0    0 -8.6043749754e+02 +7.0003384229e+02 +3.0923426563e+02 1.1515319790e+03 0.0000000000e+00 0.0000e+00 -1.0000e+00
       13  1    1    2    0    0 +8.6043749754e+02 -7.0003384229e+02 +1.0632780197e+01 1.1092849605e+03 0.0000000000e+00 0.0000e+00 1.0000e+00
<mgrwt>
<rscale>  0 0.22380747E+04</rscale>
<asrwt>0</asrwt>
<pdfrwt beam="1">  1        2 0.19851415E+00 0.22380747E+04</pdfrwt>
<pdfrwt beam="2">  1       -2 0.14930384E+00 0.22380747E+04</pdfrwt>
<totfact> 0.56021930E+00</totfact>
</mgrwt>
<rwgt>
<wgt id='morphing_basis_vector_1'> +8.1240352e-05 </wgt>
<wgt id='morphing_basis_vector_2'> +6.4542715e-05 </wgt>
<wgt id='morphing_basis_vector_3'> +8.9230310e-05 </wgt>
<wgt id='morphing_basis_vector_4'> +4.9056023e-05 </wgt>
<wgt id='morphing_basis_vector_5'> +9.1850300e-05 </wgt>
</rwgt>
</event>
<event>
 4      1 +2.2016400e-08 2.41486700e+03 7.81860800e-03 7.91987900e-02
        2 -1    0    0  501    0 +0.0000000000e+00 +0.0000000000e+00 +8.5221132595e+02 8.5221132595e+02 0.0000000000e+00 0.0000e+00 1.0000e+00
       -2 -1    0    0    0  501 -0.0000000000e+00 -0.0000000000e+00 -1.7107202058e+03 1.7107202058e+03 0.0000000000e+00 0.0000e+00 -1.0000e+00
      -13  1    1    2    0    0 +4.6467087898e+02 -7.3228677218e+02 -1.3208416492e+03 1.5801220221e+03 0.0000000000e+00 0.0000e+00 -1.0000e+00
       13  1    1    2    0    0 -4.6467087898e+02 +7.3228677218e+02 +4.6233276941e+02 9.8280950960e+02 0.0000000000e+00 0.0000e+00 1.0000e+00
<mgrwt>
<rscale>  0 0.24148666E+04</rscale>
<asrwt>0</asrwt>
<pdfrwt beam="1">  1        2 0.13110944E+00 0.24148666E+04</pdfrwt>
<pdfrwt beam="2">  1       -2 0.26318772E+00 0.24148666E+04</pdfrwt>
<totfact> 0.14887287E+00</totfact>
</mgrwt>
<rwgt>
<wgt id='morphing_basis_vector_1'> +1.0371231e-04 </wgt>
<wgt id='morphing_basis_vector_2'> +6.9833182e-05 </wgt>
<wgt id='morphing_basis_vector_3'> +1.1204491e-04 </wgt>
<wgt id='morphing_basis_vector_4'> +7.8825720e-05 </wgt>
<wgt id='morphing_basis_vector_5'> +1.2602419e-04 </wgt>
</rwgt>
</event>
<event>
 4      1 +2.2016400e-08 2.55002500e+03 7.81860800e-03 7.87713300e-02
        2 -1    0    0  501    0 +0.0000000000e+00 +0.0000000000e+00 +9.6096264308e+02 9.6096264308e+02 0.0000000000e+00 0.0000e+00 1.0000e+00
       -2 -1    0    0    0  501 -0.0000000000e+00 -0.0000000000e+00 -1.6916964384e+03 1.6916964384e+03 0.0000000000e+00 0.0000e+00 -1.0000e+00
      -13  1    1    2    0    0 -3.5016356192e+02 +6.6761677724e+02 -1.4350184653e+03 1.6209887961e+03 0.0000000000e+00 0.0000e+00 -1.0000e+00
       13  1    1    2    0    0 +3.5016356192e+02 -6.6761677724e+02 +7.0428466998e+02 1.0316702854e+03 0.0000000000e+00 0.0000e+00 1.0000e+00
<mgrwt>
<rscale>  0 0.25500252E+04</rscale>
<asrwt>0</asrwt>
<pdfrwt beam="1">  1        2 0.14784041E+00 0.25500252E+04</pdfrwt>
<pdfrwt beam="2">  1       -2 0.26026099E+00 0.25500252E+04</pdfrwt>
<totfact> 0.13094088E+00</totfact>
</mgrwt>
<rwgt>
<wgt id='morphing_basis_vector_1'> +1.2847578e-04 </wgt>
<wgt id='morphing_basis_vector_2'> +8.6408406e-05 </wgt>
<wgt id='morphing_basis_vector_3'> +1.3912048e-04 </wgt>
<wgt id='morphing_basis_vector_4'> +9.8501833e-05 </wgt>
<wgt id='morphing_basis_vector_5'> +1.5715896e-04 </wgt>
</rwgt>
</event>
<event>
 4      1 +2.2016400e-08 2.41705200e+03 7.81860800e-03 7.91916600e-02
        2 -1    0    0  501    0 +0.0000000000e+00 +0.0000000000e+00 +5.6155748409e+02 5.6155748409e+02 0.0000000000e+00 0.0000e+00 1.0000e+00
       -2 -1    0    0    0  501 -0.0000000000e+00 -0.0000000000e+00 -2.6008639900e+03 2.6008639900e+03 0.0000000000e+00 0.0000e+00 -1.0000e+00
      -13  1    1    2    0    0 -4.5864962207e+02 -6.0625822280e+02 -2.2488522984e+03 2.3738671337e+03 0.0000000000e+00 0.0000e+00 -1.0000e+00
       13  1    1    2    0    0 +4.5864962207e+02 +6.0625822280e+02 +2.0954579251e+02 7.8855434036e+02 0.0000000000e+00 0.0000e+00 1.0000e+00
<mgrwt>
<rscale>  0 0.24170516E+04</rscale>
<asrwt>0</asrwt>
<pdfrwt beam="1">  1        2 0.86393461E-01 0.24170516E+04</pdfrwt>
<pdfrwt beam="2">  1       -2 0.40013291E+00 0.24170516E+04</pdfrwt>
<totfact> 0.30874136E-01</totfact>
</mgrwt>
<rwgt>
<wgt id='morphing_basis_vector_1'> +1.0401352e-04 </wgt>
<wgt id='morphing_basis_vector_2'> +6.9879886e-05 </wgt>
<wgt id='morphing_basis_vector_3'> +1.1234524e-04 </wgt>
<wgt id='morphing_basis_vector_4'> +7.9256950e-05 </wgt>
<wgt id='morphing_basis_vector_5'> +1.2649866e-04 </wgt>
</rwgt>
</event>
<event>
 4      1 +2.2016400e-08 2.41482800e+03 7.81860800e-03 7.91989200e-02
        2 -1    0    0  501    0 +0.0000000000e+00 +0.0000000000e+00 +1.2937271172e+03 1.2937271172e+03 0.0000000000e+00 0.0000e+00 -1.0000e+00
       -2 -1    0    0    0  501 -0.0000000000e+00 -0.0000000000e+00 -1.1268597904e+03 1.1268597904e+03 0.0000000000e+00 0.0000e+00 1.0000e+00
      -13  1    1    2    0    0 +2.8547051719e+02 -1.1563511729e+03 -1.1504765015e+02 1.1966108026e+03 0.0000000000e+00 0.0000e+00 1.0000e+00
       13  1    1    2    0    0 -2.8547051719e+02 +1.1563511729e+03 +2.8191497700e+02 1.2239761049e+03 0.0000000000e+00 0.0000e+00 -1.0000e+00
<mgrwt>
<rscale>  0 0.24148284E+04</rscale>
<asrwt>0</asrwt>
<pdfrwt beam="1">  1        2 0.19903494E+00 0.24148284E+04</pdfrwt>
<pdfrwt beam="2">  1       -2 0.17336305E+00 0.24148284E+04</pdfrwt>
<totfact> 0.35282686E+00</totfact>
</mgrwt>
<rwgt>
<wgt id='morphing_basis_vector_1'> +1.0562769e-04 </wgt>
<wgt id='morphing_basis_vector_2'> +7.5502202e-05 </wgt>
<wgt id='morphing_basis_vector_3'> +1.1495354e-04 </wgt>
<wgt id='morphing_basis_vector_4'> +7.4897220e-05 </wgt>
<wgt id='morphing_basis_vector_5'> +1.2569921e-04 </wgt>
</rwgt>
</event>
<event>
 4      1 +2.2016400e-08 2.29654300e+03 7.81860800e-03 7.95972800e-02
        2 -1    0    0  501    0 +0.0000000000e+00 +0.0000000000e+00 +1.0043109198e+03 1.0043109198e+03 0.0000000000e+00 0.0000e+00 -1.0000e+00
       -2 -1    0    0    0  501 -0.0000000000e+00 -0.0000000000e+00 -1.3128682624e+03 1.3128682624e+03 0.0000000000e+00 0.0000e+00 1.0000e+00
      -13  1    1    2    0    0 -1.0016413739e+03 +5.5913321255e+02 -1.0270637095e+02 1.1517221843e+03 0.0000000000e+00 0.0000e+00 1.0000e+00
       13  1    1    2    0    0 +1.0016413739e+03 -5.5913321255e+02 -2.0585097166e+02 1.1654569978e+03 0.0000000000e+00 0.0000e+00 -1.0000e+00
<mgrwt>
<rscale>  0 0.22965434E+04</rscale>
<asrwt>0</asrwt>
<pdfrwt beam="1">  1        2 0.15450937E+00 0.22965434E+04</pdfrwt>
<pdfrwt beam="2">  1       -2 0.20197973E+00 0.22965434E+04</pdfrwt>
<totfact> 0.32329292E+00</totfact>
</mgrwt>
<rwgt>
<wgt id='morphing_basis_vector_1'> +8.8620356e-05 </wgt>
<wgt id='morphing_basis_vector_2'> +6.7644066e-05 </wgt>
<wgt id='morphing_basis_vector_3'> +9.6985628e-05 </wgt>
<wgt id='morphing_basis_vector_4'> +5.7111961e-05 </wgt>
<wgt id='morphing_basis_vector_5'> +1.0220521e-04 </wgt>
</rwgt>
</event>
<event>
 4      1 +2.2016400e-08 2.43523300e+03 7.81860800e-03 7.91325700e-02
        2 -1    0    0  501    0 +0.0000000000e+00 +0.0000000000e+00 +2.9419919985e+03 2.9419919985e+03 0.0000000000e+00 0.0000e+00 1.0000e+00
       -2 -1    0    0    0  501 -0.0000000000e+00 -0.0000000000e+00 -5.0394101195e+02 5.0394101195e+02 0.0000000000e+00 0.0000e+00 -1.0000e+00
      -13  1    1    2    0    0 +2.7233869953e+02 +4.8421805058e+02 -3.1415029600e+02 6.3822088358e+02 0.0000000000e+00 0.0000e+00 -1.0000e+00
       13  1    1    2    0    0 -2.7233869953e+02 -4.8421805058e+02 +2.7522012825e+03 2.8077121268e+03 0.0000000000e+00 0.0000e+00 1.0000e+00
<mgrwt>
<rscale>  0 0.24352334E+04</rscale>
<asrwt>0</asrwt>
<pdfrwt beam="1">  1        2 0.45261414E+00 0.24352334E+04</pdfrwt>
<pdfrwt beam="2">  1       -2 0.77529388E-01 0.24352334E+04</pdfrwt>
<totfact> 0.31186958E+00</totfact>
</mgrwt>
<rwgt>
<wgt id='morphing_basis_vector_1'> +1.0708090e-04 </wgt>
<wgt id='morphing_basis_vector_2'> +7.1836362e-05 </wgt>
<wgt id='morphing_basis_vector_3'> +1.1567911e-04 </wgt>
<wgt id='morphing_basis_vector_4'> +8.1810298e-05 </wgt>
<wgt id='morphing_basis_vector_5'> +1.3041008e-04 </wgt>
</rwgt>
</event>
<event>
 4      1 +2.2016400e-08 2.28187600e+03 7.81860800e-03 7.96484000e-02
        2 -1    0    0  501    0 +0.0000000000e+00 +0.0000000000e+00 +3.2583020353e+03 3.2583020353e+03 0.0000000000e+00 0.0000e+00 -1.0000e+00
       -2 -1    0    0    0  501 -0.0000000000e+00 -0.0000000000e+00 -3.9951459035e+02 3.9951459035e+02 0.0000000000e+00 0.0000e+00 1.0000e+00
      -13  1    1    2    0    0 -5.2298171094e+01 -9.3361398833e+02 +3.8146567853e+02 1.0098941736e+03 0.0000000000e+00 0.0000e+00 1.0000e+00
       13  1    1    2    0    0 +5.2298171094e+01 +9.3361398833e+02 +2.4773217664e+03 2.6479224521e+03 0.0000000000e+00 0.0000e+00 -1.0000e+00
<mgrwt>
<rscale>  0 0.22818757E+04</rscale>
<asrwt>0</asrwt>
<pdfrwt beam="1">  1        2 0.50127722E+00 0.22818757E+04</pdfrwt>
<pdfrwt beam="2">  1       -2 0.61463785E-01 0.22818757E+04</pdfrwt>
<totfact> 0.32050390E+00</totfact>
</mgrwt>
<rwgt>
<wgt id='morphing_basis_vector_1'> +8.3099734e-05 </wgt>
<wgt id='morphing_basis_vector_2'> +5.6160272e-05 </wgt>
<wgt id='morphing_basis_vector_3'> +8.9557797e-05 </wgt>
<wgt id='morphing_basis_vector_4'> +6.2362976e-05 </wgt>
<wgt id='morphing_basis_vector_5'> +1.0011966e-04 </wgt>
</rwgt>
</event>
<event>
 4      1 +2.2016400e-08 2.28734100e+03 7.81860800e-03 7.96293100e-02
        2 -1    0    0  501    0 +0.0000000000e+00 +0.0000000000e+00 +1.8284288470e+03 1.8284288470e+03 0.0000000000e+00 0.0000e+00 -1.0000e+00
       -2 -1    0    0    0  501 -0.0000000000e+00 -0.0000000000e+00 -7.1535837263e+02 7.1535837263e+02 0.0000000000e+00 0.0000e+00 1.0000e+00
      -13  1    1    2    0    0 +1.1384856434e+03 -7.7943608112e+01 +4.7215271726e+02 1.2349708315e+03 0.0000000000e+00 0.0000e+00 1.0000e+00
       13  1    1    2    0    0 -1.1384856434e+03 +7.7943608112e+01 +6.4091775712e+02 1.3088163881e+03 0.0000000000e+00 0.0000e+00 -1.0000e+00
<mgrwt>
<rscale>  0 0.22873407E+04</rscale>
<asrwt>0</asrwt>
<pdfrwt beam="1">  1        2 0.28129674E+00 0.22873407E+04</pdfrwt>
<pdfrwt beam="2">  1       -2 0.11005513E+00 0.22873407E+04</pdfrwt>
<totfact> 0.62865853E+00</totfact>
</mgrwt>
<rwgt>
<wgt id='morphing_basis_vector_1'> +8.6042060e-05 </wgt>
<wgt id='morphing_basis_vector_2'> +6.3065668e-05 </wgt>
<wgt id='morphing_basis_vector_3'> +9.3655256e-05 </wgt>
<wgt id='morphing_basis_vector_4'> +5.8598487e-05 </wgt>
<wgt id='morphing_basis_vector_5'> +1.0074592e-04 </wgt>
</rwgt>
</event>
<event>
 4      1 +2.2016400e-08 2.43743200e+03 7.81860800e-03 7.91254600e-02
        2 -1    0    0  501    0 +0.0000000000e+00 +0.0000000000e+00 +2.9472129247e+03 2.9472129247e+03 0.0000000000e+00 0.0000e+00 -1.0000e+00
       -2 -1    0    0    0  501 -0.0000000000e+00 -0.0000000000e+00 -5.0395690690e+02 5.0395690690e+02 0.0000000000e+00 0.0000e+00 1.0000e+00
      -13  1    1    2    0    0 -9.9379774990e+02 -4.7796060037e+02 +4.8700972838e+02 1.2055118327e+03 0.0000000000e+00 0.0000e+00 1.0000e+00
       13  1    1    2    0    0 +9.9379774990e+02 +4.7796060037e+02 +1.9562462894e+03 2.2456579989e+03 0.0000000000e+00 0.0000e+00 -1.0000e+00
<mgrwt>
<rscale>  0 0.24374317E+04</rscale>
<asrwt>0</asrwt>
<pdfrwt beam="1">  1        2 0.45341736E+00 0.24374317E+04</pdfrwt>
<pdfrwt beam="2">  1       -2 0.77531834E-01 0.24374317E+04</pdfrwt>
<totfact> 0.30938482E+00</totfact>
</mgrwt>
<rwgt>
<wgt id='morphing_basis_vector_1'> +1.0814480e-04 </wgt>
<wgt id='morphing_basis_vector_2'> +7.4107834e-05 </wgt>
<wgt id='morphing_basis_vector_3'> +1.1713339e-04 </wgt>
<wgt id='morphing_basis_vector_4'> +8.0716146e-05 </wgt>
<wgt id='morphing_basis_vector_5'> +1.3077529e-04 </wgt>
</rwgt>
</event>
<event>
 4      1 +2.2016400e-08 2.32168500e+03 7.81860800e-03 7.95105700e-02
        2 -1    0    0  501    0 +0.0000000000e+00 +0.0000000000e+00 +1.1894533727e+03 1.1894533727e+03 0.0000000000e+00 0.0000e+00 -1.0000e+00
       -2 -1    0    0    0  501 -0.0000000000e+00 -0.0000000000e+00 -1.1329198825e+03 1.1329198825e+03 0.0000000000e+00 0.0000e+00 1.0000e+00
      -13  1    1    2    0    0 +5.9121188989e+02 -4.7143941272e+02 -8.5277169614e+02 1.1397395248e+03 0.0000000000e+00 0.0000e+00 1.0000e+00
       13  1    1    2    0    0 -5.9121188989e+02 +4.7143941272e+02 +9.0930518630e+02 1.1826337305e+03 0.0000000000e+00 0.0000e+00 -1.0000e+00
<mgrwt>
<rscale>  0 0.23216851E+04</rscale>
<asrwt>0</asrwt>
<pdfrwt beam="1">  1        2 0.18299283E+00 0.23216851E+04</pdfrwt>
<pdfrwt beam="2">  1       -2 0.17429537E+00 0.23216851E+04</pdfrwt>
<totfact> 0.40198573E+00</totfact>
</mgrwt>
<rwgt>
<wgt id='morphing_basis_vector_1'> +8.8762001e-05 </wgt>
<wgt id='morphing_basis_vector_2'> +5.9577506e-05 </wgt>
<wgt id='morphing_basis_vector_3'> +9.5670714e-05 </wgt>
<wgt id='morphing_basis_vector_4'> +6.7296103e-05 </wgt>
<wgt id='morphing_basis_vector_5'> +1.0743576e-04 </wgt>
</rwgt>
</event>
<event>
 4      1 +2.2016400e-08 2.59737700e+03 7.81860800e-03 7.86279400e-02
        2 -1    0    0  501    0 +0.0000000000e+00 +0.0000000000e+00 +1.7366778620e+03 1.7366778620e+03 0.0000000000e+00 0.0000e+00 1.0000e+00
       -2 -1    0    0    0  501 -0.0000000000e+00 -0.0000000000e+00 -9.7115971298e+02 9.7115971298e+02 0.0000000000e+00 0.0000e+00 -1.0000e+00
      -13  1    1    2    0    0 +3.8331261249e+02 -1.1574925110e+03 -8.3326771286e+01 1.2221541731e+03 0.0000000000e+00 0.0000e+00 -1.0000e+00
       13  1    1    2    0    0 -3.8331261249e+02 +1.1574925110e+03 +8.4884492035e+02 1.4856834019e+03 0.0000000000e+00 0.0000e+00 1.0000e+00
<mgrwt>
<rscale>  0 0.25973768E+04</rscale>
<asrwt>0</asrwt>
<pdfrwt beam="1">  1        2 0.26718121E+00 0.25973768E+04</pdfrwt>
<pdfrwt beam="2">  1       -2 0.14940919E+00 0.25973768E+04</pdfrwt>
<totfact> 0.30446299E+00</totfact>
</mgrwt>
<rwgt>
<wgt id='morphing_basis_vector_1'> +1.3940199e-04 </wgt>
<wgt id='morphing_basis_vector_2'> +9.6628757e-05 </wgt>
<wgt id='morphing_basis_vector_3'> +1.5163832e-04 </wgt>
<wgt id='morphing_basis_vector_4'> +1.0356649e-04 </wgt>
<wgt id='morphing_basis_vector_5'> +1.6910443e-04 </wgt>
</rwgt>
</event>
<event>
 4      1 +2.2016400e-08 2.40229600e+03 7.81860800e-03 7.92400000e-02
        2 -1    0    0  501    0 +0.0000000000e+00 +0.0000000000e+00 +1.4503212119e+03 1.4503212119e+03 0.0000000000e+00 0.0000e+00 1.0000e+00
       -2 -1    0    0    0  501 -0.0000000000e+00 -0.0000000000e+00 -9.9478430800e+02 9.9478430800e+02 0.0000000000e+00 0.0000e+00 -1.0000e+00
      -13  1    1    2    0    0 +7.3507077275e+02 -9.0681105389e+02 -6.0333009301e+01 1.1688778381e+03 0.0000000000e+00 0.0000e+00 -1.0000e+00
       13  1    1    2    0    0 -7.3507077275e+02 +9.0681105389e+02 +5.1586991318e+02 1.2762276818e+03 0.0000000000e+00 0.0000e+00 1.0000e+00
<mgrwt>
<rscale>  0 0.24022962E+04</rscale>
<asrwt>0</asrwt>
<pdfrwt beam="1">  1        2 0.22312634E+00 0.24022962E+04</pdfrwt>
<pdfrwt beam="2">  1       -2 0.15304374E+00 0.24022962E+04</pdfrwt>
<totfact> 0.41748604E+00</totfact>
</mgrwt>
<rwgt>
<wgt id='morphing_basis_vector_1'> +1.0298268e-04 </wgt>
<wgt id='morphing_basis_vector_2'> +7.2482673e-05 </wgt>
<wgt id='morphing_basis_vector_3'> +1.1182921e-04 </wgt>
<wgt id='morphing_basis_vector_4'> +7.4353225e-05 </wgt>
<wgt id='morphing_basis_vector_5'> +1.2315716e-04 </wgt>
</rwgt>
</event>
<event>
 4      1 +2.2016400e-08 2.32531900e+03 7.81860800e-03 7.94981400e-02
        2 -1    0    0  501    0 +0.0000000000e+00 +0.0000000000e+00 +7.4935014530e+02 7.4935014530e+02 0.0000000000e+00 0.0000e+00 -1.0000e+00
       -2 -1    0    0    0  501 -0.0000000000e+00 -0.0000000000e+00 -1.8039323750e+03 1.8039323750e+03 0.0000000000e+00 0.0000e+00 1.0000e+00
      -13  1    1    2    0    0 +6.9268539846e+02 +8.5245239758e+02 -9.4582678213e+02 1.4495090387e+03 0.0000000000e+00 0.0000e+00 1.0000e+00
       13  1    1    2    0    0 -6.9268539846e+02 -8.5245239758e+02 -1.0875544758e+02 1.1037734816e+03 0.0000000000e+00 0.0000e+00 -1.0000e+00
<mgrwt>
<rscale>  0 0.23253189E+04</rscale>
<asrwt>0</asrwt>
<pdfrwt beam="1">  1        2 0.11528464E+00 0.23253189E+04</pdfrwt>
<pdfrwt beam="2">  1       -2 0.27752805E+00 0.23253189E+04</pdfrwt>
<totfact> 0.14115844E+00</totfact>
</mgrwt>
<rwgt>
<wgt id='morphing_basis_vector_1'> +9.0146936e-05 </wgt>
<wgt id='morphing_basis_vector_2'> +6.2419191e-05 </wgt>
<wgt id='morphing_basis_vector_3'> +9.7530332e-05 </wgt>
<wgt id='morphing_basis_vector_4'> +6.6024649e-05 </wgt>
<wgt id='morphing_basis_vector_5'> +1.0798325e-04 </wgt>
</rwgt>
</event>
<event>
 4      1 +2.2016400e-08 2.35723400e+03 7.81860800e-03 7.93898800e-02
        2 -1    0    0  501    0 +0.0000000000e+00 +0.0000000000e+00 +3.9045039624e+03 3.9045039624e+03 0.0000000000e+00 0.0000e+00 1.0000e+00
       -2 -1    0    0    0  501 -0.0000000000e+00 -0.0000000000e+00 -3.5577848044e+02 3.5577848044e+02 0.0000000000e+00 0.0000e+00 -1.0000e+00
      -13  1    1    2    0    0 +1.9423805118e+02 -7.9391178293e+02 +2.3961277408e+02 8.5172684654e+02 0.0000000000e+00 0.0000e+00 -1.0000e+00
       13  1    1    2    0    0 -1.9423805118e+02 +7.9391178293e+02 +3.3091127078e+03 3.4085555962e+03 0.0000000000e+00 0.0000e+00 1.0000e+00
<mgrwt>
<rscale>  0 0.23572344E+04</rscale>
<asrwt>0</asrwt>
<pdfrwt beam="1">  1        2 0.60069289E+00 0.23572344E+04</pdfrwt>
<pdfrwt beam="2">  1       -2 0.54735154E-01 0.23572344E+04</pdfrwt>
<totfact> 0.13237382E+00</totfact>
</mgrwt>
<rwgt>
<wgt id='morphing_basis_vector_1'> +9.4268411e-05 </wgt>
<wgt id='morphing_basis_vector_2'> +6.3372747e-05 </wgt>
<wgt id='morphing_basis_vector_3'> +1.0170281e-04 </wgt>
<wgt id='morphing_basis_vector_4'> +7.1516493e-05 </wgt>
<wgt id='morphing_basis_vector_5'> +1.1426559e-04 </wgt>
</rwgt>
</event>
<event>
 4      1 +2.2016400e-08 2.32270400e+03 7.81860800e-03 7.95070800e-02
        2 -1    0    0  501    0 +0.0000000000e+00 +0.0000000000e+00 +2.4203061843e+03 2.4203061843e+03 0.0000000000e+00 0.0000e+00 -1.0000e+00
       -2 -1    0    0    0  501 -0.0000000000e+00 -0.0000000000e+00 -5.5725943913e+02 5.5725943913e+02 0.0000000000e+00 0.0000e+00 1.0000e+00
      -13  1    1    2    0    0 -7.4129846057e+02 -8.4846945155e+02 +5.7049263614e+02 1.2628878279e+03 0.0000000000e+00 0.0000e+00 1.0000e+00
       13  1    1    2    0    0 +7.4129846057e+02 +8.4846945155e+02 +1.2925541090e+03 1.7146777956e+03 0.0000000000e+00 0.0000e+00 -1.0000e+00
<mgrwt>
<rscale>  0 0.23227040E+04</rscale>
<asrwt>0</asrwt>
<pdfrwt beam="1">  1        2 0.37235479E+00 0.23227040E+04</pdfrwt>
<pdfrwt beam="2">  1       -2 0.85732223E-01 0.23227040E+04</pdfrwt>
<totfact> 0.52406763E+00</totfact>
</mgrwt>
<rwgt>
<wgt id='morphing_basis_vector_1'> +9.0137944e-05 </wgt>
<wgt id='morphing_basis_vector_2'> +6.3291933e-05 </wgt>
<wgt id='morphing_basis_vector_3'> +9.7679712e-05 </wgt>
<wgt id='morphing_basis_vector_4'> +6.4931842e-05 </wgt>
<wgt id='morphing_basis_vector_5'> +1.0742746e-04 </wgt>
</rwgt>
</event>
<event>
 4      1 +2.2016400e-08 2.28780400e+03 7.81860800e-03 7.96276900e-02
        2 -1    0    0  501    0 +0.0000000000e+00 +0.0000000000e+00 +2.6580111221e+03 2.6580111221e+03 0.0000000000e+00 0.0000e+00 -1.0000e+00
       -2 -1    0    0    0  501 -0.0000000000e+00 -0.0000000000e+00 -4.9228977469e+02 4.9228977469e+02 0.0000000000e+00 0.0000e+00 1.0000e+00
      -13  1    1    2    0    0 -1.0846821523e+03 +3.5543463743e+02 +1.1862964284e+03 1.6462589010e+03 0.0000000000e+00 0.0000e+00 1.0000e+00
       13  1    1    2    0    0 +1.0846821523e+03 -3.5543463743e+02 +9.7942491903e+02 1.5040419958e+03 0.0000000000e+00 0.0000e+00 -1.0000e+00
<mgrwt>
<rscale>  0 0.22878039E+04</rscale>
<asrwt>0</asrwt>
<pdfrwt beam="1">  1        2 0.40892478E+00 0.22878039E+04</pdfrwt>
<pdfrwt beam="2">  1       -2 0.75736890E-01 0.22878039E+04</pdfrwt>
<totfact> 0.50146170E+00</totfact>
</mgrwt>
<rwgt>
<wgt id='morphing_basis_vector_1'> +8.7578129e-05 </wgt>
<wgt id='morphing_basis_vector_2'> +6.7451566e-05 </wgt>
<wgt id='morphing_basis_vector_3'> +9.5934830e-05 </wgt>
<wgt id='morphing_basis_vector_4'> +5.5669993e-05 </wgt>
<wgt id='morphing_basis_vector_5'> +1.0058974e-04 </wgt>
</rwgt>
</event>
<event>
 4      1 +2.2016400e-08 2.42632000e+03 7.81860800e-03 7.91614700e-02
        2 -1    0    0  501    0 +0.0000000000e+00 +0.0000000000e+00 +1.2342933703e+03 1.2342933703e+03 0.0000000000e+00 0.0000e+00 -1.0000e+00
       -2 -1    0    0    0  501 -0.0000000000e+00 -0.0000000000e+00 -1.1923885571e+03 1.1923885571e+03 0.0000000000e+00 0.0000e+00 1.0000e+00
      -13  1    1    2    0    0 +1.9869469024e+02 -3.8304619033e+01 -1.1753908789e+03 1.1926820791e+03 0.0000000000e+00 0.0000e+00 1.0000e+00
       13  1    1    2    0    0 -1.9869469024e+02 +3.8304619033e+01 +1.2172956920e+03 1.2339998483e+03 0.0000000000e+00 0.0000e+00 -1.0000e+00
<mgrwt>
<rscale>  0 0.24263201E+04</rscale>
<asrwt>0</asrwt>
<pdfrwt beam="1">  1        2 0.18989129E+00 0.24263201E+04</pdfrwt>
<pdfrwt beam="2">  1       -2 0.18344439E+00 0.24263201E+04</pdfrwt>
<totfact> 0.31949366E+00</totfact>
</mgrwt>
<rwgt>
<wgt id='morphing_basis_vector_1'> +1.0552869e-04 </wgt>
<wgt id='morphing_basis_vector_2'> +7.0753851e-05 </wgt>
<wgt id='morphing_basis_vector_3'> +1.1397475e-04 </wgt>
<wgt id='morphing_basis_vector_4'> +8.0632889e-05 </wgt>
<wgt id='morphing_basis_vector_5'> +1.2848807e-04 </wgt>
</rwgt>
</event>
<event>
 4      1 +2.2016400e-08 2.51119300e+03 7.81860800e-03 7.88913100e-02
        2 -1    0    0  501    0 +0.0000000000e+00 +0.0000000000e+00 +2.2496764852e+03 2.2496764852e+03 0.0000000000e+00 0.0000e+00 -1.0000e+00
       -2 -1    0    0    0  501 -0.0000000000e+00 -0.0000000000e+00 -7.0077722627e+02 7.0077722627e+02 0.0000000000e+00 0.0000e+00 1.0000e+00
      -13  1    1    2    0    0 -9.4429236099e+02 +1.3768731621e+02 -1.8430070316e+02 9.7191183204e+02 0.0000000000e+00 0.0000e+00 1.0000e+00
       13  1    1    2    0    0 +9.4429236099e+02 -1.3768731621e+02 +1.7331999621e+03 1.9785418794e+03 0.0000000000e+00 0.0000e+00 -1.0000e+00
<mgrwt>
<rscale>  0 0.25111926E+04</rscale>
<asrwt>0</asrwt>
<pdfrwt beam="1">  1        2 0.34610407E+00 0.25111926E+04</pdfrwt>
<pdfrwt beam="2">  1       -2 0.10781188E+00 0.25111926E+04</pdfrwt>
<totfact> 0.37516765E+00</totfact>
</mgrwt>
<rwgt>
<wgt id='morphing_basis_vector_1'> +1.2108519e-04 </wgt>
<wgt id='morphing_basis_vector_2'> +8.1773954e-05 </wgt>
<wgt id='morphing_basis_vector_3'> +1.3109605e-04 </wgt>
<wgt id='morphing_basis_vector_4'> +9.2232163e-05 </wgt>
<wgt id='morphing_basis_vector_5'> +1.4766177e-04 </wgt>
</rwgt>
</event>
<event>
 4      1 +2.2016400e-08 2.40355300e+03 7.81860800e-03 7.92358700e-02
        2 -1    0    0  501    0 +0.0000000000e+00 +0.0000000000e+00 +3.5417079949e+03 3.5417079949e+03 0.0000000000e+00 0.0000e+00 1.0000e+00
       -2 -1    0    0    0  501 -0.0000000000e+00 -0.0000000000e+00 -4.0778836714e+02 4.0778836714e+02 0.0000000000e+00 0.0000e+00 -1.0000e+00
      -13  1    1    2    0    0 +6.8366567619e+02 -8.7472667732e+01 -5.0741965512e+01 6.9110416832e+02 0.0000000000e+00 0.0000e+00 -1.0000e+00
       13  1    1    2    0    0 -6.8366567619e+02 +8.7472667732e+01 +3.1846615933e+03 3.2583921937e+03 0.0000000000e+00 0.0000e+00 1.0000e+00
<mgrwt>
<rscale>  0 0.24035535E+04</rscale>
<asrwt>0</asrwt>
<pdfrwt beam="1">  1        2 0.54487813E+00 0.24035535E+04</pdfrwt>
<pdfrwt beam="2">  1       -2 0.62736674E-01 0.24035535E+04</pdfrwt>
<totfact> 0.19100215E+00</totfact>
</mgrwt>
<rwgt>
<wgt id='morphing_basis_vector_1'> +1.0171736e-04 </wgt>
<wgt id='morphing_basis_vector_2'> +6.8270000e-05 </wgt>
<wgt id='morphing_basis_vector_3'> +1.0982289e-04 </wgt>
<wgt id='morphing_basis_vector_4'> +7.7526933e-05 </wgt>
<wgt id='morphing_basis_vector_5'> +1.2366223e-04 </wgt>
</rwgt>
</event>
<event>
 4      1 +2.2016400e-08 2.27707700e+03 7.81860800e-03 7.96652100e-02
        2 -1    0    0  501    0 +0.0000000000e+00 +0.0000000000e+00 +8.4080947440e+02 8.4080947440e+02 0.0000000000e+00 0.0000e+00 1.0000e+00
       -2 -1    0    0    0  501 -0.0000000000e+00 -0.0000000000e+00 -1.5416930694e+03 1.5416930694e+03 0.0000000000e+00 0.0000e+00 -1.0000e+00
      -13  1    1    2    0    0 -3.8116135871e+02 +7.4011208793e+02 -1.1630731556e+03 1.4303108226e+03 0.0000000000e+00 0.0000e+00 -1.0000e+00
       13  1    1    2    0    0 +3.8116135871e+02 -7.4011208793e+02 +4.6218956055e+02 9.5219172122e+02 0.0000000000e+00 0.0000e+00 1.0000e+00
<mgrwt>
<rscale>  0 0.22770772E+04</rscale>
<asrwt>0</asrwt>
<pdfrwt beam="1">  1        2 0.12935530E+00 0.22770772E+04</pdfrwt>
<pdfrwt beam="2">  1       -2 0.23718355E+00 0.22770772E+04</pdfrwt>
<totfact> 0.23205438E+00</totfact>
</mgrwt>
<rwgt>
<wgt id='morphing_basis_vector_1'> +8.2288348e-05 </wgt>
<wgt id='morphing_basis_vector_2'> +5.5321891e-05 </wgt>
<wgt id='morphing_basis_vector_3'> +8.8619496e-05 </wgt>
<wgt id='morphing_basis_vector_4'> +6.2086545e-05 </wgt>
<wgt id='morphing_basis_vector_5'> +9.9287662e-05 </wgt>
</rwgt>
</event>
<event>
 4      1 +2.2016400e-08 2.48915100e+03 7.81860800e-03 7.89604100e-02
        2 -1    0    0  501    0 +0.0000000000e+00 +0.0000000000e+00 +2.1930200532e+03 2.1930200532e+03 0.0000000000e+00 0.0000e+00 -1.0000e+00
       -2 -1    0    0    0  501 -0.0000000000e+00 -0.0000000000e+00 -7.0631750551e+02 7.0631750551e+02 0.0000000000e+00 0.0000e+00 1.0000e+00
      -13  1    1    2    0    0 -6.2289221400e+02 -9.6132028134e+02 +1.3102067284e+03 1.7403370549e+03 0.0000000000e+00 0.0000e+00 -1.0000e+00
       13  1    1    2    0    0 +6.2289221400e+02 +9.6132028134e+02 +1.7649581928e+02 1.1590005038e+03 0.0000000000e+00 0.0000e+00 1.0000e+00
<mgrwt>
<rscale>  0 0.24891512E+04</rscale>
<asrwt>0</asrwt>
<pdfrwt beam="1">  1        2 0.33738770E+00 0.24891512E+04</pdfrwt>
<pdfrwt beam="2">  1       -2 0.10866423E+00 0.24891512E+04</pdfrwt>
<totfact> 0.39725653E+00</totfact>
</mgrwt>
<rwgt>
<wgt id='morphing_basis_vector_1'> +1.3248527e-04 </wgt>
<wgt id='morphing_basis_vector_2'> +1.2481864e-04 </wgt>
<wgt id='morphing_basis_vector_3'> +1.5026105e-04 </wgt>
<wgt id='morphing_basis_vector_4'> +5.7163717e-05 </wgt>
<wgt id='morphing_basis_vector_5'> +1.3990224e-04 </wgt>
</rwgt>
</event>
<event>
 4      1 +2.2016400e-08 2.30067200e+03 7.81860800e-03 7.95829700e-02
        2 -1    0    0  501    0 +0.0000000000e+00 +0.0000000000e+00 +7.2788086635e+02 7.2788086635e+02 0.0000000000e+00 0.0000e+00 -1.0000e+00
       -2 -1    0    0    0  501 -0.0000000000e+00 -0.0000000000e+00 -1.8179801540e+03 1.8179801540e+03 0.0000000000e+00 0.0000e+00 1.0000e+00
      -13  1    1    2    0    0 +5.2237584717e+02 +2.5436127909e+02 -1.6436801270e+03 1.7433475115e+03 0.0000000000e+00 0.0000e+00 1.0000e+00
       13  1    1    2    0    0 -5.2237584717e+02 -2.5436127909e+02 +5.5358083941e+02 8.0251350878e+02 0.0000000000e+00 0.0000e+00 -1.0000e+00
<mgrwt>
<rscale>  0 0.23006720E+04</rscale>
<asrwt>0</asrwt>
<pdfrwt beam="1">  1        2 0.11198167E+00 0.23006720E+04</pdfrwt>
<pdfrwt beam="2">  1       -2 0.27968925E+00 0.23006720E+04</pdfrwt>
<totfact> 0.14178821E+00</totfact>
</mgrwt>
<rwgt>
<wgt id='morphing_basis_vector_1'> +8.5592680e-05 </wgt>
<wgt id='morphing_basis_vector_2'> +5.7325367e-05 </wgt>
<wgt id='morphing_basis_vector_3'> +9.2187833e-05 </wgt>
<wgt id='morphing_basis_vector_4'> +6.4952801e-05 </wgt>
<wgt id='morphing_basis_vector_5'> +1.0354978e-04 </wgt>
</rwgt>
</event>
<event>
 4      1 +2.2016400e-08 2.33754800e+03 7.81860800e-03 7.94564500e-02
        2 -1    0    0  501    0 +0.0000000000e+00 +0.0000000000e+00 +1.2711114280e+03 1.2711114280e+03 0.0000000000e+00 0.0000e+00 -1.0000e+00
       -2 -1    0    0    0  501 -0.0000000000e+00 -0.0000000000e+00 -1.0746760302e+03 1.0746760302e+03 0.0000000000e+00 0.0000e+00 1.0000e+00
      -13  1    1    2    0    0 +1.9325701485e+02 +9.5469163146e+02 +7.4644230838e+02 1.2271758247e+03 0.0000000000e+00 0.0000e+00 1.0000e+00
       13  1    1    2    0    0 -1.9325701485e+02 -9.5469163146e+02 -5.5000691063e+02 1.1186116335e+03 0.0000000000e+00 0.0000e+00 -1.0000e+00
<mgrwt>
<rscale>  0 0.23375483E+04</rscale>
<asrwt>0</asrwt>
<pdfrwt beam="1">  1        2 0.19555561E+00 0.23375483E+04</pdfrwt>
<pdfrwt beam="2">  1       -2 0.16533477E+00 0.23375483E+04</pdfrwt>
<totfact> 0.42275264E+00</totfact>
</mgrwt>
<rwgt>
<wgt id='morphing_basis_vector_1'> +1.1032066e-04 </wgt>
<wgt id='morphing_basis_vector_2'> +1.1775428e-04 </wgt>
<wgt id='morphing_basis_vector_3'> +1.2718077e-04 </wgt>
<wgt id='morphing_basis_vector_4'> +3.0243651e-05 </wgt>
<wgt id='morphing_basis_vector_5'> +1.0731225e-04 </wgt>
</rwgt>
</event>
<event>
 4      1 +2.2016400e-08 2.39244100e+03 7.81860800e-03 7.92724900e-02
        2 -1    0    0  501    0 +0.0000000000e+00 +0.0000000000e+00 +2.3302461058e+03 2.3302461058e+03 0.0000000000e+00 0.0000e+00 -1.0000e+00
       -2 -1    0    0    0  501 -0.0000000000e+00 -0.0000000000e+00 -6.1407378263e+02 6.1407378263e+02 0.0000000000e+00 0.0000e+00 1.0000e+00
      -13  1    1    2    0    0 +3.6030046272e+01 -1.1492549803e+03 +4.5204156737e+02 1.2354864437e+03 0.0000000000e+00 0.0000e+00 1.0000e+00
       13  1    1    2    0    0 -3.6030046272e+01 +1.1492549803e+03 +1.2641307558e+03 1.7088334447e+03 0.0000000000e+00 0.0000e+00 -1.0000e+00
<mgrwt>
<rscale>  0 0.23924406E+04</rscale>
<asrwt>0</asrwt>
<pdfrwt beam="1">  1        2 0.35849940E+00 0.23924406E+04</pdfrwt>
<pdfrwt beam="2">  1       -2 0.94472890E-01 0.23924406E+04</pdfrwt>
<totfact> 0.46880294E+00</totfact>
</mgrwt>
<rwgt>
<wgt id='morphing_basis_vector_1'> +1.0109908e-04 </wgt>
<wgt id='morphing_basis_vector_2'> +7.0636311e-05 </wgt>
<wgt id='morphing_basis_vector_3'> +1.0966148e-04 </wgt>
<wgt id='morphing_basis_vector_4'> +7.3588390e-05 </wgt>
<wgt id='morphing_basis_vector_5'> +1.2115829e-04 </wgt>
</rwgt>
</event>
<event>
 4      1 +2.2016400e-08 2.23390100e+03 7.81860800e-03 7.98184000e-02
        2 -1    0    0  501    0 +0.0000000000e+00 +0.0000000000e+00 +1.9745185221e+03 1.9745185221e+03 0.0000000000e+00 0.0000e+00 -1.0000e+00
       -2 -1    0    0    0  501 -0.0000000000e+00 -0.0000000000e+00 -6.3183916299e+02 6.3183916299e+02 0.0000000000e+00 0.0000e+00 1.0000e+00
      -13  1    1    2    0    0 -9.2360938617e+02 +2.9727744621e+02 +2.5778744752e+01 9.7061461041e+02 0.0000000000e+00 0.0000e+00 1.0000e+00
       13  1    1    2    0    0 +9.2360938617e+02 -2.9727744621e+02 +1.3169006144e+03 1.6357430747e+03 0.0000000000e+00 0.0000e+00 -1.0000e+00
<mgrwt>
<rscale>  0 0.22339007E+04</rscale>
<asrwt>0</asrwt>
<pdfrwt beam="1">  1        2 0.30377208E+00 0.22339007E+04</pdfrwt>
<pdfrwt beam="2">  1       -2 0.97206026E-01 0.22339007E+04</pdfrwt>
<totfact> 0.70898034E+00</totfact>
</mgrwt>
<rwgt>
<wgt id='morphing_basis_vector_1'> +7.6553790e-05 </wgt>
<wgt id='morphing_basis_vector_2'> +5.1973994e-05 </wgt>
<wgt id='morphing_basis_vector_3'> +8.2450475e-05 </wgt>
<wgt id='morphing_basis_vector_4'> +5.6960759e-05 </wgt>
<wgt id='morphing_basis_vector_5'> +9.1819003e-05 </wgt>
</rwgt>
</event>
<event>
 4      1 +2.2016400e-08 2.50347600e+03 7.81860800e-03 7.89154200e-02
        2 -1    0    0  501    0 +0.0000000000e+00 +0.0000000000e+00 +1.6305643188e+03 1.6305643188e+03 0.0000000000e+00 0.0000e+00 -1.0000e+00
       -2 -1    0    0    0  501 -0.0000000000e+00 -0.0000000000e+00 -9.6092382345e+02 9.6092382345e+02 0.0000000000e+00 0.0000e+00 1.0000e+00
      -13  1    1    2    0    0 +1.0755549568e+03 -6.3207104986e+02 +4.4097205722e+02 1.3231736970e+03 0.0000000000e+00 0.0000e+00 1.0000e+00
       13  1    1    2    0    0 -1.0755549568e+03 +6.3207104986e+02 +2.2866843809e+02 1.2683144452e+03 0.0000000000e+00 0.0000e+00 -1.0000e+00
<mgrwt>
<rscale>  0 0.25034761E+04</rscale>
<asrwt>0</asrwt>
<pdfrwt beam="1">  1        2 0.25085605E+00 0.25034761E+04</pdfrwt>
<pdfrwt beam="2">  1       -2 0.14783443E+00 0.25034761E+04</pdfrwt>
<totfact> 0.36237346E+00</totfact>
</mgrwt>
<rwgt>
<wgt id='morphing_basis_vector_1'> +1.2526064e-04 </wgt>
<wgt id='morphing_basis_vector_2'> +9.7414462e-05 </wgt>
<wgt id='morphing_basis_vector_3'> +1.3810017e-04 </wgt>
<wgt id='morphing_basis_vector_4'> +7.9535252e-05 </wgt>
<wgt id='morphing_basis_vector_5'> +1.4489578e-04 </wgt>
</rwgt>
</event>
<event>
 4      1 +2.2016400e-08 2.55908100e+03 7.81860800e-03 7.87436600e-02
        2 -1    0    0  501    0 +0.0000000000e+00 +0.0000000000e+00 +1.1511553673e+03 1.1511553673e+03 0.0000000000e+00 0.0000e+00 -1.0000e+00
       -2 -1    0    0    0  501 -0.0000000000e+00 -0.0000000000e+00 -1.4222440377e+03 1.4222440377e+03 0.0000000000e+00 0.0000e+00 1.0000e+00
      -13  1    1    2    0    0 -1.0301271398e+03 +6.2227755489e+02 +3.0143573447e+02 1.2406670712e+03 0.0000000000e+00 0.0000e+00 1.0000e+00
       13  1    1    2    0    0 +1.0301271398e+03 -6.2227755489e+02 -5.7252440490e+02 1.3327323338e+03 0.0000000000e+00 0.0000e+00 -1.0000e+00
<mgrwt>
<rscale>  0 0.25590810E+04</rscale>
<asrwt>0</asrwt>
<pdfrwt beam="1">  1        2 0.17710083E+00 0.25590810E+04</pdfrwt>
<pdfrwt beam="2">  1       -2 0.21880678E+00 0.25590810E+04</pdfrwt>
<totfact> 0.19493843E+00</totfact>
</mgrwt>
<rwgt>
<wgt id='morphing_basis_vector_1'> +1.4524861e-04 </wgt>
<wgt id='morphing_basis_vector_2'> +1.3177031e-04 </wgt>
<wgt id='morphing_basis_vector_3'> +1.6402598e-04 </wgt>
<wgt id='morphing_basis_vector_4'> +6.9194351e-05 </wgt>
<wgt id='morphing_basis_vector_5'> +1.5693529e-04 </wgt>
</rwgt>
</event>
<event>
 4      1 +2.2016400e-08 2.55804600e+03 7.81860800e-03 7.87468200e-02
        2 -1    0    0  501    0 +0.0000000000e+00 +0.0000000000e+00 +2.4178152433e+03 2.4178152433e+03 0.0000000000e+00 0.0000e+00 1.0000e+00
       -2 -1    0    0    0  501 -0.0000000000e+00 -0.0000000000e+00 -6.7660246566e+02 6.7660246566e+02 0.0000000000e+00 0.0000e+00 -1.0000e+00
      -13  1    1    2    0    0 -5.8422251079e+02 -2.7252089152e+01 -5.0537029891e+02 7.7295391680e+02 0.0000000000e+00 0.0000e+00 -1.0000e+00
       13  1    1    2    0    0 +5.8422251079e+02 +2.7252089152e+01 +2.2465830765e+03 2.3214637921e+03 0.0000000000e+00 0.0000e+00 1.0000e+00
<mgrwt>
<rscale>  0 0.25580459E+04</rscale>
<asrwt>0</asrwt>
<pdfrwt beam="1">  1        2 0.37197157E+00 0.25580459E+04</pdfrwt>
<pdfrwt beam="2">  1       -2 0.10409269E+00 0.25580459E+04</pdfrwt>
<totfact> 0.32521703E+00</totfact>
</mgrwt>
<rwgt>
<wgt id='morphing_basis_vector_1'> +1.3003693e-04 </wgt>
<wgt id='morphing_basis_vector_2'> +8.7369667e-05 </wgt>
<wgt id='morphing_basis_vector_3'> +1.4081231e-04 </wgt>
<wgt id='morphing_basis_vector_4'> +9.9849245e-05 </wgt>
<wgt id='morphing_basis_vector_5'> +1.5917721e-04 </wgt>
</rwgt>
</event>
<event>
 4      1 +2.2016400e-08 2.23923000e+03 7.81860800e-03 7.97993000e-02
        2 -1    0    0  501    0 +0.0000000000e+00 +0.0000000000e+00 +2.0202126042e+03 2.0202126042e+03 0.0000000000e+00 0.0000e+00 -1.0000e+00
       -2 -1    0    0    0  501 -0.0000000000e+00 -0.0000000000e+00 -6.2049799862e+02 6.2049799862e+02 0.0000000000e+00 0.0000e+00 1.0000e+00
      -13  1    1    2    0    0 -9.8619681292e+02 +5.1471844878e+02 +8.4911438078e+02 1.3994693519e+03 0.0000000000e+00 0.0000e+00 1.0000e+00
       13  1    1    2    0    0 +9.8619681292e+02 -5.1471844878e+02 +5.5060022477e+02 1.2412412509e+03 0.0000000000e+00 0.0000e+00 -1.0000e+00
<mgrwt>
<rscale>  0 0.22392301E+04</rscale>
<asrwt>0</asrwt>
<pdfrwt beam="1">  1        2 0.31080194E+00 0.22392301E+04</pdfrwt>
<pdfrwt beam="2">  1       -2 0.95461231E-01 0.22392301E+04</pdfrwt>
<totfact> 0.69726493E+00</totfact>
</mgrwt>
<rwgt>
<wgt id='morphing_basis_vector_1'> +8.1121286e-05 </wgt>
<wgt id='morphing_basis_vector_2'> +6.3834857e-05 </wgt>
<wgt id='morphing_basis_vector_3'> +8.8990013e-05 </wgt>
<wgt id='morphing_basis_vector_4'> +4.9733964e-05 </wgt>
<wgt id='morphing_basis_vector_5'> +9.2089185e-05 </wgt>
</rwgt>
</event>
<event>
 4      1 +2.2016400e-08 2.60408100e+03 7.81860800e-03 7.86078900e-02
        2 -1    0    0  501    0 +0.0000000000e+00 +0.0000000000e+00 +2.7948541527e+03 2.7948541527e+03 0.0000000000e+00 0.0000e+00 1.0000e+00
       -2 -1    0    0    0  501 -0.0000000000e+00 -0.0000000000e+00 -6.0658226647e+02 6.0658226647e+02 0.0000000000e+00 0.0000e+00 -1.0000e+00
      -13  1    1    2    0    0 -3.9052982699e+02 -9.1024537952e+02 +2.1980434400e+03 2.4109033910e+03 0.0000000000e+00 0.0000e+00 1.0000e+00
       13  1    1    2    0    0 +3.9052982699e+02 +9.1024537952e+02 -9.7715537012e+00 9.9053302821e+02 0.0000000000e+00 0.0000e+00 -1.0000e+00
<mgrwt>
<rscale>  0 0.26040806E+04</rscale>
<asrwt>0</asrwt>
<pdfrwt beam="1">  1        2 0.42997756E+00 0.26040806E+04</pdfrwt>
<pdfrwt beam="2">  1       -2 0.93320350E-01 0.26040806E+04</pdfrwt>
<totfact> 0.24854152E+00</totfact>
</mgrwt>
<rwgt>
<wgt id='morphing_basis_vector_1'> +1.7611566e-04 </wgt>
<wgt id='morphing_basis_vector_2'> +2.0169609e-04 </wgt>
<wgt id='morphing_basis_vector_3'> +2.0741480e-04 </wgt>
<wgt id='morphing_basis_vector_4'> +3.2048112e-05 </wgt>
<wgt id='morphing_basis_vector_5'> +1.6497251e-04 </wgt>
</rwgt>
</event>
<event>
 4      1 +2.2016400e-08 2.32015300e+03 7.81860800e-03 7.95158200e-02
        2 -1    0    0  501    0 +0.0000000000e+00 +0.0000000000e+00 +1.8403672365e+03 1.8403672365e+03 0.0000000000e+00 0.0000e+00 -1.0000e+00
       -2 -1    0    0    0  501 -0.0000000000e+00 -0.0000000000e+00 -7.3125511857e+02 7.3125511857e+02 0.0000000000e+00 0.0000e+00 1.0000e+00
      -13  1    1    2    0    0 -1.7922400570e+01 -1.0059936275e+03 -8.5466309087e+01 1.0097766491e+03 0.0000000000e+00 0.0000e+00 1.0000e+00
       13  1    1    2    0    0 +1.7922400570e+01 +1.0059936275e+03 +1.1945784270e+03 1.5618457060e+03 0.0000000000e+00 0.0000e+00 -1.0000e+00
<mgrwt>
<rscale>  0 0.23201534E+04</rscale>
<asrwt>0</asrwt>
<pdfrwt beam="1">  1        2 0.28313342E+00 0.23201534E+04</pdfrwt>
<pdfrwt beam="2">  1       -2 0.11250079E+00 0.23201534E+04</pdfrwt>
<totfact> 0.58411990E+00</totfact>
</mgrwt>
<rwgt>
<wgt id='morphing_basis_vector_1'> +8.8863541e-05 </wgt>
<wgt id='morphing_basis_vector_2'> +6.0402094e-05 </wgt>
<wgt id='morphing_basis_vector_3'> +9.5918772e-05 </wgt>
<wgt id='morphing_basis_vector_4'> +6.6441478e-05 </wgt>
<wgt id='morphing_basis_vector_5'> +1.0709405e-04 </wgt>
</rwgt>
</event>
<event>
 4      1 +2.2016400e-08 2.24604400e+03 7.81860800e-03 7.97749500e-02
        2 -1    0    0  501    0 +0.0000000000e+00 +0.0000000000e+00 +1.9604791788e+03 1.9604791788e+03 0.0000000000e+00 0.0000e+00 -1.0000e+00
       -2 -1    0    0    0  501 -0.0000000000e+00 -0.0000000000e+00 -6.4330124485e+02 6.4330124485e+02 0.0000000000e+00 0.0000e+00 1.0000e+00
      -13  1    1    2    0    0 +6.1180379869e+02 +3.8983569331e+02 -3.3521572147e+02 7.9915288637e+02 0.0000000000e+00 0.0000e+00 1.0000e+00
       13  1    1    2    0    0 -6.1180379869e+02 -3.8983569331e+02 +1.6523936554e+03 1.8046275373e+03 0.0000000000e+00 0.0000e+00 -1.0000e+00
<mgrwt>
<rscale>  0 0.22460443E+04</rscale>
<asrwt>0</asrwt>
<pdfrwt beam="1">  1        2 0.30161218E+00 0.22460443E+04</pdfrwt>
<pdfrwt beam="2">  1       -2 0.98969423E-01 0.22460443E+04</pdfrwt>
<totfact> 0.69086222E+00</totfact>
</mgrwt>
<rwgt>
<wgt id='morphing_basis_vector_1'> +7.7905580e-05 </wgt>
<wgt id='morphing_basis_vector_2'> +5.2221791e-05 </wgt>
<wgt id='morphing_basis_vector_3'> +8.3808662e-05 </wgt>
<wgt id='morphing_basis_vector_4'> +5.8834126e-05 </wgt>
<wgt id='morphing_basis_vector_5'> +9.3912887e-05 </wgt>
</rwgt>
</event>
<event>
 4      1 +2.2016400e-08 2.33184300e+03 7.81860800e-03 7.94758600e-02
        2 -1    0    0  501    0 +0.0000000000e+00 +0.0000000000e+00 +2.9286459563e+03 2.9286459563e+03 0.0000000000e+00 0.0000e+00 -1.0000e+00
       -2 -1    0    0    0  501 -0.0000000000e+00 -0.0000000000e+00 -4.6416441088e+02 4.6416441088e+02 0.0000000000e+00 0.0000e+00 1.0000e+00
      -13  1    1    2    0    0 -6.1222991386e+02 -9.1047796955e+02 +1.8061375727e+03 2.1132743626e+03 0.0000000000e+00 0.0000e+00 -1.0000e+00
       13  1    1    2    0    0 +6.1222991386e+02 +9.1047796955e+02 +6.5834397281e+02 1.2795360046e+03 0.0000000000e+00 0.0000e+00 1.0000e+00
<mgrwt>
<rscale>  0 0.23318432E+04</rscale>
<asrwt>0</asrwt>
<pdfrwt beam="1">  1        2 0.45056091E+00 0.23318432E+04</pdfrwt>
<pdfrwt beam="2">  1       -2 0.71409911E-01 0.23318432E+04</pdfrwt>
<totfact> 0.38461668E+00</totfact>
</mgrwt>
<rwgt>
<wgt id='morphing_basis_vector_1'> +1.0059056e-04 </wgt>
<wgt id='morphing_basis_vector_2'> +9.1007345e-05 </wgt>
<wgt id='morphing_basis_vector_3'> +1.1286248e-04 </wgt>
<wgt id='morphing_basis_vector_4'> +4.7579779e-05 </wgt>
<wgt id='morphing_basis_vector_5'> +1.0767317e-04 </wgt>
</rwgt>
</event>
<event>
 4      1 +2.2016400e-08 2.27578000e+03 7.81860800e-03 7.96697600e-02
        2 -1    0    0  501    0 +0.0000000000e+00 +0.0000000000e+00 +2.5180829960e+03 2.5180829960e+03 0.0000000000e+00 0.0000e+00 -1.0000e+00
       -2 -1    0    0    0  501 -0.0000000000e+00 -0.0000000000e+00 -5.1419827424e+02 5.1419827424e+02 0.0000000000e+00 0.0000e+00 1.0000e+00
      -13  1    1    2    0    0 -4.6069671937e+02 +5.4748197361e+02 -1.7693599393e+02 7.3707823507e+02 0.0000000000e+00 0.0000e+00 1.0000e+00
       13  1    1    2    0    0 +4.6069671937e+02 -5.4748197361e+02 +2.1808207157e+03 2.2952030351e+03 0.0000000000e+00 0.0000e+00 -1.0000e+00
<mgrwt>
<rscale>  0 0.22757802E+04</rscale>
<asrwt>0</asrwt>
<pdfrwt beam="1">  1        2 0.38739738E+00 0.22757802E+04</pdfrwt>
<pdfrwt beam="2">  1       -2 0.79107428E-01 0.22757802E+04</pdfrwt>
<totfact> 0.55328855E+00</totfact>
</mgrwt>
<rwgt>
<wgt id='morphing_basis_vector_1'> +8.2037546e-05 </wgt>
<wgt id='morphing_basis_vector_2'> +5.5000557e-05 </wgt>
<wgt id='morphing_basis_vector_3'> +8.8318374e-05 </wgt>
<wgt id='morphing_basis_vector_4'> +6.2077732e-05 </wgt>
<wgt id='morphing_basis_vector_5'> +9.9068962e-05 </wgt>
</rwgt>
</event>
<event>
 4      1 +2.2016400e-08 2.24176400e+03 7.81860800e-03 7.97902300e-02
        2 -1    0    0  501    0 +0.0000000000e+00 +0.0000000000e+00 +1.6791796424e+03 1.6791796424e+03 0.0000000000e+00 0.0000e+00 1.0000e+00
       -2 -1    0    0    0  501 -0.0000000000e+00 -0.0000000000e+00 -7.4820879897e+02 7.4820879897e+02 0.0000000000e+00 0.0000e+00 -1.0000e+00
      -13  1    1    2    0    0 +4.9998047109e+02 -2.3375152809e+02 +1.5218462235e+03 1.6188379092e+03 0.0000000000e+00 0.0000e+00 1.0000e+00
       13  1    1    2    0    0 -4.9998047109e+02 +2.3375152809e+02 -5.9087538004e+02 8.0855053218e+02 0.0000000000e+00 0.0000e+00 -1.0000e+00
<mgrwt>
<rscale>  0 0.22417645E+04</rscale>
<asrwt>0</asrwt>
<pdfrwt beam="1">  1        2 0.25833533E+00 0.22417645E+04</pdfrwt>
<pdfrwt beam="2">  1       -2 0.11510905E+00 0.22417645E+04</pdfrwt>
<totfact> 0.68219472E+00</totfact>
</mgrwt>
<rwgt>
<wgt id='morphing_basis_vector_1'> +1.0467309e-04 </wgt>
<wgt id='morphing_basis_vector_2'> +1.3265150e-04 </wgt>
<wgt id='morphing_basis_vector_3'> +1.2407459e-04 </wgt>
<wgt id='morphing_basis_vector_4'> +3.0442212e-06 </wgt>
<wgt id='morphing_basis_vector_5'> +8.8754182e-05 </wgt>
</rwgt>
</event>
<event>
 4      1 +2.2016400e-08 2.63470000e+03 7.81860800e-03 7.85171000e-02
        2 -1    0    0  501    0 +0.0000000000e+00 +0.0000000000e+00 +1.3272201031e+03 1.3272201031e+03 0.0000000000e+00 0.0000e+00 -1.0000e+00
       -2 -1    0    0    0  501 -0.0000000000e+00 -0.0000000000e+00 -1.3075533126e+03 1.3075533126e+03 0.0000000000e+00 0.0000e+00 1.0000e+00
      -13  1    1    2    0    0 -1.7807687165e+02 -1.2003801928e+03 -5.0280849258e+02 1.3135601850e+03 0.0000000000e+00 0.0000e+00 1.0000e+00
       13  1    1    2    0    0 +1.7807687165e+02 +1.2003801928e+03 +5.2247528308e+02 1.3212132307e+03 0.0000000000e+00 0.0000e+00 -1.0000e+00
<mgrwt>
<rscale>  0 0.26347000E+04</rscale>
<asrwt>0</asrwt>
<pdfrwt beam="1">  1        2 0.20418771E+00 0.26347000E+04</pdfrwt>
<pdfrwt beam="2">  1       -2 0.20116205E+00 0.26347000E+04</pdfrwt>
<totfact> 0.20512435E+00</totfact>
</mgrwt>
<rwgt>
<wgt id='morphing_basis_vector_1'> +1.4723573e-04 </wgt>
<wgt id='morphing_basis_vector_2'> +1.0152708e-04 </wgt>
<wgt id='morphing_basis_vector_3'> +1.6014953e-04 </wgt>
<wgt id='morphing_basis_vector_4'> +1.1024098e-04 </wgt>
<wgt id='morphing_basis_vector_5'> +1.7919736e-04 </wgt>
</rwgt>
</event>
<event>
 4      1 +2.2016400e-08 2.52161100e+03 7.81860800e-03 7.88589100e-02
        2 -1    0    0  501    0 +0.0000000000e+00 +0.0000000000e+00 +1.5511529141e+03 1.5511529141e+03 0.0000000000e+00 0.0000e+00 -1.0000e+00
       -2 -1    0    0    0  501 -0.0000000000e+00 -0.0000000000e+00 -1.0248054572e+03 1.0248054572e+03 0.0000000000e+00 0.0000e+00 1.0000e+00
      -13  1    1    2    0    0 -1.3300690839e+02 +1.0109959076e+03 -4.9431054585e+02 1.1332018702e+03 0.0000000000e+00 0.0000e+00 1.0000e+00
       13  1    1    2    0    0 +1.3300690839e+02 -1.0109959076e+03 +1.0206580027e+03 1.4427565011e+03 0.0000000000e+00 0.0000e+00 -1.0000e+00
<mgrwt>
<rscale>  0 0.25216106E+04</rscale>
<asrwt>0</asrwt>
<pdfrwt beam="1">  1        2 0.23863891E+00 0.25216106E+04</pdfrwt>
<pdfrwt beam="2">  1       -2 0.15766238E+00 0.25216106E+04</pdfrwt>
<totfact> 0.33276027E+00</totfact>
</mgrwt>
<rwgt>
<wgt id='morphing_basis_vector_1'> +1.2319073e-04 </wgt>
<wgt id='morphing_basis_vector_2'> +8.3456173e-05 </wgt>
<wgt id='morphing_basis_vector_3'> +1.3345096e-04 </wgt>
<wgt id='morphing_basis_vector_4'> +9.3566029e-05 </wgt>
<wgt id='morphing_basis_vector_5'> +1.5014057e-04 </wgt>
</rwgt>
</event>
<event>
 4      1 +2.2016400e-08 2.34760600e+03 7.81860800e-03 7.94223600e-02
        2 -1    0    0  501    0 +0.0000000000e+00 +0.0000000000e+00 +1.5415449415e+03 1.5415449415e+03 0.0000000000e+00 0.0000e+00 1.0000e+00
       -2 -1    0    0    0  501 -0.0000000000e+00 -0.0000000000e+00 -8.9378714006e+02 8.9378714006e+02 0.0000000000e+00 0.0000e+00 -1.0000e+00
      -13  1    1    2    0    0 +1.7189075406e+02 +1.1157215860e+03 -9.7475048230e+00 1.1289269696e+03 0.0000000000e+00 0.0000e+00 -1.0000e+00
       13  1    1    2    0    0 -1.7189075406e+02 -1.1157215860e+03 +6.5750530623e+02 1.3064051119e+03 0.0000000000e+00 0.0000e+00 1.0000e+00
<mgrwt>
<rscale>  0 0.23476056E+04</rscale>
<asrwt>0</asrwt>
<pdfrwt beam="1">  1        2 0.23716076E+00 0.23476056E+04</pdfrwt>
<pdfrwt beam="2">  1       -2 0.13750571E+00 0.23476056E+04</pdfrwt>
<totfact> 0.50384628E+00</totfact>
</mgrwt>
<rwgt>
<wgt id='morphing_basis_vector_1'> +9.3842377e-05 </wgt>
<wgt id='morphing_basis_vector_2'> +6.5546739e-05 </wgt>
<wgt id='morphing_basis_vector_3'> +1.0168689e-04 </wgt>
<wgt id='morphing_basis_vector_4'> +6.8136134e-05 </wgt>
<wgt id='morphing_basis_vector_5'> +1.1220594e-04 </wgt>
</rwgt>
</event>
<event>
 4      1 +2.2016400e-08 2.65224300e+03 7.81860800e-03 7.84656500e-02
        2 -1    0    0  501    0 +0.0000000000e+00 +0.0000000000e+00 +1.1733497440e+03 1.1733497440e+03 0.0000000000e+00 0.0000e+00 -1.0000e+00
       -2 -1    0    0    0  501 -0.0000000000e+00 -0.0000000000e+00 -1.4987848331e+03 1.4987848331e+03 0.0000000000e+00 0.0000e+00 1.0000e+00
      -13  1    1    2    0    0 +1.2297741842e+02 +8.4786617155e+02 -1.1825334061e+03 1.4602690666e+03 0.0000000000e+00 0.0000e+00 1.0000e+00
       13  1    1    2    0    0 -1.2297741842e+02 -8.4786617155e+02 +8.5709831704e+02 1.2118655104e+03 0.0000000000e+00 0.0000e+00 -1.0000e+00
<mgrwt>
<rscale>  0 0.26522434E+04</rscale>
<asrwt>0</asrwt>
<pdfrwt beam="1">  1        2 0.18051535E+00 0.26522434E+04</pdfrwt>
<pdfrwt beam="2">  1       -2 0.23058228E+00 0.26522434E+04</pdfrwt>
<totfact> 0.15493843E+00</totfact>
</mgrwt>
<rwgt>
<wgt id='morphing_basis_vector_1'> +1.5010315e-04 </wgt>
<wgt id='morphing_basis_vector_2'> +1.0115800e-04 </wgt>
<wgt id='morphing_basis_vector_3'> +1.6284291e-04 </wgt>
<wgt id='morphing_basis_vector_4'> +1.1539735e-04 </wgt>
<wgt id='morphing_basis_vector_5'> +1.8424958e-04 </wgt>
</rwgt>
</event>
<event>
 4      1 +2.2016400e-08 2.62227900e+03 7.81860800e-03 7.85537800e-02
        2 -1    0    0  501    0 +0.0000000000e+00 +0.0000000000e+00 +1.1895701087e+03 1.1895701087e+03 0.0000000000e+00 0.0000e+00 -1.0000e+00
       -2 -1    0    0    0  501 -0.0000000000e+00 -0.0000000000e+00 -1.4451329224e+03 1.4451329224e+03 0.0000000000e+00 0.0000e+00 1.0000e+00
      -13  1    1    2    0    0 -5.8387322824e+02 -5.5668473769e+02 -1.1662551628e+03 1.4180821375e+03 0.0000000000e+00 0.0000e+00 1.0000e+00
       13  1    1    2    0    0 +5.8387322824e+02 +5.5668473769e+02 +9.1069234917e+02 1.2166208936e+03 0.0000000000e+00 0.0000e+00 -1.0000e+00
<mgrwt>
<rscale>  0 0.26222791E+04</rscale>
<asrwt>0</asrwt>
<pdfrwt beam="1">  1        2 0.18301078E+00 0.26222791E+04</pdfrwt>
<pdfrwt beam="2">  1       -2 0.22232814E+00 0.26222791E+04</pdfrwt>
<totfact> 0.17377844E+00</totfact>
</mgrwt>
<rwgt>
<wgt id='morphing_basis_vector_1'> +1.4348701e-04 </wgt>
<wgt id='morphing_basis_vector_2'> +9.6615750e-05 </wgt>
<wgt id='morphing_basis_vector_3'> +1.5557791e-04 </wgt>
<wgt id='morphing_basis_vector_4'> +1.1026218e-04 </wgt>
<wgt id='morphing_basis_vector_5'> +1.7597518e-04 </wgt>
</rwgt>
</event>
<event>
 4      1 +2.2016400e-08 2.24692200e+03 7.81860800e-03 7.97718200e-02
        2 -1    0    0  501    0 +0.0000000000e+00 +0.0000000000e+00 +1.6603641280e+03 1.6603641280e+03 0.0000000000e+00 0.0000e+00 -1.0000e+00
       -2 -1    0    0    0  501 -0.0000000000e+00 -0.0000000000e+00 -7.6017332971e+02 7.6017332971e+02 0.0000000000e+00 0.0000e+00 1.0000e+00
      -13  1    1    2    0    0 +6.2446204813e+02 +7.7339215699e+02 -1.1387917932e+02 1.0005282332e+03 0.0000000000e+00 0.0000e+00 1.0000e+00
       13  1    1    2    0    0 -6.2446204813e+02 -7.7339215699e+02 +1.0140699776e+03 1.4200092244e+03 0.0000000000e+00 0.0000e+00 -1.0000e+00
<mgrwt>
<rscale>  0 0.22469219E+04</rscale>
<asrwt>0</asrwt>
<pdfrwt beam="1">  1        2 0.25544063E+00 0.22469219E+04</pdfrwt>
<pdfrwt beam="2">  1       -2 0.11694974E+00 0.22469219E+04</pdfrwt>
<totfact> 0.67070029E+00</totfact>
</mgrwt>
<rwgt>
<wgt id='morphing_basis_vector_1'> +7.8382981e-05 </wgt>
<wgt id='morphing_basis_vector_2'> +5.3359409e-05 </wgt>
<wgt id='morphing_basis_vector_3'> +8.4474496e-05 </wgt>
<wgt id='morphing_basis_vector_4'> +5.8203996e-05 </wgt>
<wgt id='morphing_basis_vector_5'> +9.4004113e-05 </wgt>
</rwgt>
</event>
<event>
 4      1 +2.2016400e-08 2.45184900e+03 7.81860800e-03 7.90790300e-02
        2 -1    0    0  501    0 +0.0000000000e+00 +0.0000000000e+00 +1.2274670242e+03 1.2274670242e+03 0.0000000000e+00 0.0000e+00 -1.0000e+00
       -2 -1    0    0    0  501 -0.0000000000e+00 -0.0000000000e+00 -1.2243835134e+03 1.2243835134e+03 0.0000000000e+00 0.0000e+00 1.0000e+00
      -13  1    1    2    0    0 -7.9710236729e+02 -1.0365185518e+02 -9.2408011757e+02 1.2247611827e+03 0.0000000000e+00 0.0000e+00 1.0000e+00
       13  1    1    2    0    0 +7.9710236729e+02 +1.0365185518e+02 +9.2716362842e+02 1.2270893549e+03 0.0000000000e+00 0.0000e+00 -1.0000e+00
<mgrwt>
<rscale>  0 0.24518486E+04</rscale>
<asrwt>0</asrwt>
<pdfrwt beam="1">  1        2 0.18884108E+00 0.24518486E+04</pdfrwt>
<pdfrwt beam="2">  1       -2 0.18836670E+00 0.24518486E+04</pdfrwt>
<totfact> 0.29551796E+00</totfact>
</mgrwt>
<rwgt>
<wgt id='morphing_basis_vector_1'> +1.1006436e-04 </wgt>
<wgt id='morphing_basis_vector_2'> +7.4017713e-05 </wgt>
<wgt id='morphing_basis_vector_3'> +1.1897440e-04 </wgt>
<wgt id='morphing_basis_vector_4'> +8.3948940e-05 </wgt>
<wgt id='morphing_basis_vector_5'> +1.3404276e-04 </wgt>
</rwgt>
</event>
<event>
 4      1 +2.2016400e-08 2.26703100e+03 7.81860800e-03 7.97005400e-02
        2 -1    0    0  501    0 +0.0000000000e+00 +0.0000000000e+00 +1.6051681866e+03 1.6051681866e+03 0.0000000000e+00 0.0000e+00 1.0000e+00
       -2 -1    0    0    0  501 -0.0000000000e+00 -0.0000000000e+00 -8.0045001485e+02 8.0045001485e+02 0.0000000000e+00 0.0000e+00 -1.0000e+00
      -13  1    1    2    0    0 +6.4518435357e+02 +6.6570230807e+02 +1.0944858930e+03 1.4343367049e+03 0.0000000000e+00 0.0000e+00 1.0000e+00
       13  1    1    2    0    0 -6.4518435357e+02 -6.6570230807e+02 -2.8976772133e+02 9.7128149647e+02 0.0000000000e+00 0.0000e+00 -1.0000e+00
<mgrwt>
<rscale>  0 0.22670306E+04</rscale>
<asrwt>0</asrwt>
<pdfrwt beam="1">  1        2 0.24694895E+00 0.22670306E+04</pdfrwt>
<pdfrwt beam="2">  1       -2 0.12314616E+00 0.22670306E+04</pdfrwt>
<totfact> 0.62838791E+00</totfact>
</mgrwt>
<rwgt>
<wgt id='morphing_basis_vector_1'> +9.8746048e-05 </wgt>
<wgt id='morphing_basis_vector_2'> +1.0718152e-04 </wgt>
<wgt id='morphing_basis_vector_3'> +1.1386590e-04 </wgt>
<wgt id='morphing_basis_vector_4'> +2.4758297e-05 </wgt>
<wgt id='morphing_basis_vector_5'> +9.4614077e-05 </wgt>
</rwgt>
</event>
<event>
 4      1 +2.2016400e-08 2.25158000e+03 7.81860800e-03 7.97552400e-02
        2 -1    0    0  501    0 +0.0000000000e+00 +0.0000000000e+00 +7.0883996744e+02 7.0883996744e+02 0.0000000000e+00 0.0000e+00 -1.0000e+00
       -2 -1    0    0    0  501 -0.0000000000e+00 -0.0000000000e+00 -1.7879958849e+03 1.7879958849e+03 0.0000000000e+00 0.0000e+00 1.0000e+00
      -13  1    1    2    0    0 +4.8253955401e+02 -4.1029344110e+02 -1.5716646933e+03 1.6944955111e+03 0.0000000000e+00 0.0000e+00 1.0000e+00
       13  1    1    2    0    0 -4.8253955401e+02 +4.1029344110e+02 +4.9250877580e+02 8.0234034127e+02 0.0000000000e+00 0.0000e+00 -1.0000e+00
<mgrwt>
<rscale>  0 0.22515798E+04</rscale>
<asrwt>0</asrwt>
<pdfrwt beam="1">  1        2 0.10905230E+00 0.22515798E+04</pdfrwt>
<pdfrwt beam="2">  1       -2 0.27507629E+00 0.22515798E+04</pdfrwt>
<totfact> 0.15817784E+00</totfact>
</mgrwt>
<rwgt>
<wgt id='morphing_basis_vector_1'> +7.8635313e-05 </wgt>
<wgt id='morphing_basis_vector_2'> +5.2650222e-05 </wgt>
<wgt id='morphing_basis_vector_3'> +8.4593918e-05 </wgt>
<wgt id='morphing_basis_vector_4'> +5.9483403e-05 </wgt>
<wgt id='morphing_basis_vector_5'> +9.4861629e-05 </wgt>
</rwgt>
</event>
<event>
 4      1 +2.2016400e-08 2.24250100e+03 7.81860800e-03 7.97876000e-02
        2 -1    0    0  501    0 +0.0000000000e+00 +0.0000000000e+00 +1.3034472586e+03 1.3034472586e+03 0.0000000000e+00 0.0000e+00 1.0000e+00
       -2 -1    0    0    0  501 -0.0000000000e+00 -0.0000000000e+00 -9.6452095996e+02 9.6452095996e+02 0.0000000000e+00 0.0000e+00 -1.0000e+00
      -13  1    1    2    0    0 +9.1102083562e+02 +3.7573488861e+02 -3.7146293918e+02 1.0531478456e+03 0.0000000000e+00 0.0000e+00 -1.0000e+00
       13  1    1    2    0    0 -9.1102083562e+02 -3.7573488861e+02 +7.1038923786e+02 1.2148203730e+03 0.0000000000e+00 0.0000e+00 1.0000e+00
<mgrwt>
<rscale>  0 0.22425006E+04</rscale>
<asrwt>0</asrwt>
<pdfrwt beam="1">  1        2 0.20053035E+00 0.22425006E+04</pdfrwt>
<pdfrwt beam="2">  1       -2 0.14838784E+00 0.22425006E+04</pdfrwt>
<totfact> 0.56011628E+00</totfact>
</mgrwt>
<rwgt>
<wgt id='morphing_basis_vector_1'> +7.7755345e-05 </wgt>
<wgt id='morphing_basis_vector_2'> +5.2877453e-05 </wgt>
<wgt id='morphing_basis_vector_3'> +8.3778783e-05 </wgt>
<wgt id='morphing_basis_vector_4'> +5.7785467e-05 </wgt>
<wgt id='morphing_basis_vector_5'> +9.3258325e-05 </wgt>
</rwgt>
</event>
<event>
 4      1 +2.2016400e-08 2.26945300e+03 7.81860800e-03 7.96920000e-02
        2 -1    0    0  501    0 +0.0000000000e+00 +0.0000000000e+00 +2.2252313272e+03 2.2252313272e+03 0.0000000000e+00 0.0000e+00 1.0000e+00
       -2 -1    0    0    0  501 -0.0000000000e+00 -0.0000000000e+00 -5.7863828923e+02 5.7863828923e+02 0.0000000000e+00 0.0000e+00 -1.0000e+00
      -13  1    1    2    0    0 +1.1050491131e+02 +1.0956146824e+03 +4.8489788658e+02 1.2032077244e+03 0.0000000000e+00 0.0000e+00 -1.0000e+00
       13  1    1    2    0    0 -1.1050491131e+02 -1.0956146824e+03 +1.1616951514e+03 1.6006618920e+03 0.0000000000e+00 0.0000e+00 1.0000e+00
<mgrwt>
<rscale>  0 0.22694528E+04</rscale>
<asrwt>0</asrwt>
<pdfrwt beam="1">  1        2 0.34234328E+00 0.22694528E+04</pdfrwt>
<pdfrwt beam="2">  1       -2 0.89021276E-01 0.22694528E+04</pdfrwt>
<totfact> 0.62645354E+00</totfact>
</mgrwt>
<rwgt>
<wgt id='morphing_basis_vector_1'> +8.2274287e-05 </wgt>
<wgt id='morphing_basis_vector_2'> +5.7737376e-05 </wgt>
<wgt id='morphing_basis_vector_3'> +8.9037302e-05 </wgt>
<wgt id='morphing_basis_vector_4'> +5.9087800e-05 </wgt>
<wgt id='morphing_basis_vector_5'> +9.7770909e-05 </wgt>
</rwgt>
</event>
<event>
 4      1 +2.2016400e-08 2.24774500e+03 7.81860800e-03 7.97688900e-02
        2 -1    0    0  501    0 +0.0000000000e+00 +0.0000000000e+00 +1.6249664526e+03 1.6249664526e+03 0.0000000000e+00 0.0000e+00 -1.0000e+00
       -2 -1    0    0    0  501 -0.0000000000e+00 -0.0000000000e+00 -7.7730170614e+02 7.7730170614e+02 0.0000000000e+00 0.0000e+00 1.0000e+00
      -13  1    1    2    0    0 -4.5098081775e+02 -3.3614438691e+02 -6.1604833932e+02 8.3420159627e+02 0.0000000000e+00 0.0000e+00 1.0000e+00
       13  1    1    2    0    0 +4.5098081775e+02 +3.3614438691e+02 +1.4637130858e+03 1.5680665625e+03 0.0000000000e+00 0.0000e+00 -1.0000e+00
<mgrwt>
<rscale>  0 0.22477448E+04</rscale>
<asrwt>0</asrwt>
<pdfrwt beam="1">  1        2 0.24999484E+00 0.22477448E+04</pdfrwt>
<pdfrwt beam="2">  1       -2 0.11958488E+00 0.22477448E+04</pdfrwt>
<totfact> 0.66251882E+00</totfact>
</mgrwt>
<rwgt>
<wgt id='morphing_basis_vector_1'> +7.8097364e-05 </wgt>
<wgt id='morphing_basis_vector_2'> +5.2259021e-05 </wgt>
<wgt id='morphing_basis_vector_3'> +8.4001661e-05 </wgt>
<wgt id='morphing_basis_vector_4'> +5.9097486e-05 </wgt>
<wgt id='morphing_basis_vector_5'> +9.4208756e-05 </wgt>
</rwgt>
</event>
<event>
 4      1 +2.2016400e-08 2.27000400e+03 7.81860800e-03 7.96900600e-02
        2 -1    0    0  501    0 +0.0000000000e+00 +0.0000000000e+00 +7.4447744243e+02 7.4447744243e+02 0.0000000000e+00 0.0000e+00 1.0000e+00
       -2 -1    0    0    0  501 -0.0000000000e+00 -0.0000000000e+00 -1.7303814730e+03 1.7303814730e+03 0.0000000000e+00 0.0000e+00 -1.0000e+00
      -13  1    1    2    0    0 -9.1852142696e+02 +2.7343946208e+02 -1.1559237346e+03 1.5015360240e+03 0.0000000000e+00 0.0000e+00 -1.0000e+00
       13  1    1    2    0    0 +9.1852142696e+02 -2.7343946208e+02 +1.7001970401e+02 9.7332289142e+02 0.0000000000e+00 0.0000e+00 1.0000e+00
<mgrwt>
<rscale>  0 0.22700044E+04</rscale>
<asrwt>0</asrwt>
<pdfrwt beam="1">  1        2 0.11453499E+00 0.22700044E+04</pdfrwt>
<pdfrwt beam="2">  1       -2 0.26621253E+00 0.22700044E+04</pdfrwt>
<totfact> 0.17090234E+00</totfact>
</mgrwt>
<rwgt>
<wgt id='morphing_basis_vector_1'> +8.1467777e-05 </wgt>
<wgt id='morphing_basis_vector_2'> +5.5177521e-05 </wgt>
<wgt id='morphing_basis_vector_3'> +8.7796520e-05 </wgt>
<wgt id='morphing_basis_vector_4'> +6.0940104e-05 </wgt>
<wgt id='morphing_basis_vector_5'> +9.8011411e-05 </wgt>
</rwgt>
</event>
<event>
 4      1 +2.2016400e-08 2.34908000e+03 7.81860800e-03 7.94173700e-02
        2 -1    0    0  501    0 +0.0000000000e+00 +0.0000000000e+00 +1.1756637866e+03 1.1756637866e+03 0.0000000000e+00 0.0000e+00 -1.0000e+00
       -2 -1    0    0    0  501 -0.0000000000e+00 -0.0000000000e+00 -1.1734177210e+03 1.1734177210e+03 0.0000000000e+00 0.0000e+00 1.0000e+00
      -13  1    1    2    0    0 +8.2731382686e+02 -7.0434732904e+02 -4.4496168459e+02 1.1741142316e+03 0.0000000000e+00 0.0000e+00 1.0000e+00
       13  1    1    2    0    0 -8.2731382686e+02 +7.0434732904e+02 +4.4720775014e+02 1.1749672761e+03 0.0000000000e+00 0.0000e+00 -1.0000e+00
<mgrwt>
<rscale>  0 0.23490804E+04</rscale>
<asrwt>0</asrwt>
<pdfrwt beam="1">  1        2 0.18087135E+00 0.23490804E+04</pdfrwt>
<pdfrwt beam="2">  1       -2 0.18052580E+00 0.23490804E+04</pdfrwt>
<totfact> 0.36612496E+00</totfact>
</mgrwt>
<rwgt>
<wgt id='morphing_basis_vector_1'> +9.3637027e-05 </wgt>
<wgt id='morphing_basis_vector_2'> +6.4417290e-05 </wgt>
<wgt id='morphing_basis_vector_3'> +1.0128151e-04 </wgt>
<wgt id='morphing_basis_vector_4'> +6.9201077e-05 </wgt>
<wgt id='morphing_basis_vector_5'> +1.1256404e-04 </wgt>
</rwgt>
</event>
<event>
 4      1 +2.2016400e-08 2.23635900e+03 7.81860800e-03 7.98095800e-02
        2 -1    0    0  501    0 +0.0000000000e+00 +0.0000000000e+00 +3.9287438727e+03 3.9287438727e+03 0.0000000000e+00 0.0000e+00 -1.0000e+00
       -2 -1    0    0    0  501 -0.0000000000e+00 -0.0000000000e+00 -3.1825056690e+02 3.1825056690e+02 0.0000000000e+00 0.0000e+00 1.0000e+00
      -13  1    1    2    0    0 -7.8417214063e+02 +7.2330534223e+02 +1.1690496307e+03 1.5826476561e+03 0.0000000000e+00 0.0000e+00 1.0000e+00
       13  1    1    2    0    0 +7.8417214063e+02 -7.2330534223e+02 +2.4414436751e+03 2.6643467836e+03 0.0000000000e+00 0.0000e+00 -1.0000e+00
<mgrwt>
<rscale>  0 0.22363586E+04</rscale>
<asrwt>0</asrwt>
<pdfrwt beam="1">  1        2 0.60442210E+00 0.22363586E+04</pdfrwt>
<pdfrwt beam="2">  1       -2 0.48961629E-01 0.22363586E+04</pdfrwt>
<totfact> 0.15955975E+00</totfact>
</mgrwt>
<rwgt>
<wgt id='morphing_basis_vector_1'> +7.7411521e-05 </wgt>
<wgt id='morphing_basis_vector_2'> +5.3755238e-05 </wgt>
<wgt id='morphing_basis_vector_3'> +8.3599411e-05 </wgt>
<wgt id='morphing_basis_vector_4'> +5.6152396e-05 </wgt>
<wgt id='morphing_basis_vector_5'> +9.2145108e-05 </wgt>
</rwgt>
</event>
<event>
 4      1 +2.2016400e-08 2.24173800e+03 7.81860800e-03 7.97903300e-02
        2 -1    0    0  501    0 +0.0000000000e+00 +0.0000000000e+00 +2.0057414631e+03 2.0057414631e+03 0.0000000000e+00 0.0000e+00 -1.0000e+00
       -2 -1    0    0    0  501 -0.0000000000e+00 -0.0000000000e+00 -6.2637561322e+02 6.2637561322e+02 0.0000000000e+00 0.0000e+00 1.0000e+00
      -13  1    1    2    0    0 -7.7266519591e+02 +2.5077412718e+02 -2.1710710997e+02 8.4085353363e+02 0.0000000000e+00 0.0000e+00 1.0000e+00
       13  1    1    2    0    0 +7.7266519591e+02 -2.5077412718e+02 +1.5964729599e+03 1.7912635427e+03 0.0000000000e+00 0.0000e+00 -1.0000e+00
<mgrwt>
<rscale>  0 0.22417382E+04</rscale>
<asrwt>0</asrwt>
<pdfrwt beam="1">  1        2 0.30857561E+00 0.22417382E+04</pdfrwt>
<pdfrwt beam="2">  1       -2 0.96365480E-01 0.22417382E+04</pdfrwt>
<totfact> 0.69462216E+00</totfact>
</mgrwt>
<rwgt>
<wgt id='morphing_basis_vector_1'> +7.7369041e-05 </wgt>
<wgt id='morphing_basis_vector_2'> +5.1971765e-05 </wgt>
<wgt id='morphing_basis_vector_3'> +8.3242816e-05 </wgt>
<wgt id='morphing_basis_vector_4'> +5.8276925e-05 </wgt>
<wgt id='morphing_basis_vector_5'> +9.3175317e-05 </wgt>
</rwgt>
</event>
<event>
 4      1 +2.2016400e-08 2.32576900e+03 7.81860800e-03 7.94966000e-02
        2 -1    0    0  501    0 +0.0000000000e+00 +0.0000000000e+00 +2.7455322579e+03 2.7455322579e+03 0.0000000000e+00 0.0000e+00 1.0000e+00
       -2 -1    0    0    0  501 -0.0000000000e+00 -0.0000000000e+00 -4.9254567500e+02 4.9254567500e+02 0.0000000000e+00 0.0000e+00 -1.0000e+00
      -13  1    1    2    0    0 +1.6689910766e+02 +9.1598071367e+02 +1.5647165845e+02 9.4411829759e+02 0.0000000000e+00 0.0000e+00 -1.0000e+00
       13  1    1    2    0    0 -1.6689910766e+02 -9.1598071367e+02 +2.0965149244e+03 2.2939596353e+03 0.0000000000e+00 0.0000e+00 1.0000e+00
<mgrwt>
<rscale>  0 0.23257687E+04</rscale>
<asrwt>0</asrwt>
<pdfrwt beam="1">  1        2 0.42238957E+00 0.23257687E+04</pdfrwt>
<pdfrwt beam="2">  1       -2 0.75776259E-01 0.23257687E+04</pdfrwt>
<totfact> 0.44095735E+00</totfact>
</mgrwt>
<rwgt>
<wgt id='morphing_basis_vector_1'> +8.9537159e-05 </wgt>
<wgt id='morphing_basis_vector_2'> +6.0463163e-05 </wgt>
<wgt id='morphing_basis_vector_3'> +9.6583542e-05 </wgt>
<wgt id='morphing_basis_vector_4'> +6.7455617e-05 </wgt>
<wgt id='morphing_basis_vector_5'> +1.0817902e-04 </wgt>
</rwgt>
</event>
<event>
 4      1 +2.2016400e-08 2.27427400e+03 7.81860800e-03 7.96750500e-02
        2 -1    0    0  501    0 +0.0000000000e+00 +0.0000000000e+00 +1.1152758691e+03 1.1152758691e+03 0.0000000000e+00 0.0000e+00 1.0000e+00
       -2 -1    0    0    0  501 -0.0000000000e+00 -0.0000000000e+00 -1.1594269915e+03 1.1594269915e+03 0.0000000000e+00 0.0000e+00 -1.0000e+00
      -13  1    1    2    0    0 -1.7281556577e+02 -8.7661934332e+02 -7.2559579087e+02 1.1510064920e+03 0.0000000000e+00 0.0000e+00 -1.0000e+00
       13  1    1    2    0    0 +1.7281556577e+02 +8.7661934332e+02 +6.8144466845e+02 1.1236963687e+03 0.0000000000e+00 0.0000e+00 1.0000e+00
<mgrwt>
<rscale>  0 0.22742743E+04</rscale>
<asrwt>0</asrwt>
<pdfrwt beam="1">  1        2 0.17158090E+00 0.22742743E+04</pdfrwt>
<pdfrwt beam="2">  1       -2 0.17837338E+00 0.22742743E+04</pdfrwt>
<totfact> 0.41548768E+00</totfact>
</mgrwt>
<rwgt>
<wgt id='morphing_basis_vector_1'> +8.1955558e-05 </wgt>
<wgt id='morphing_basis_vector_2'> +5.5244705e-05 </wgt>
<wgt id='morphing_basis_vector_3'> +8.8282428e-05 </wgt>
<wgt id='morphing_basis_vector_4'> +6.1644494e-05 </wgt>
<wgt id='morphing_basis_vector_5'> +9.8781548e-05 </wgt>
</rwgt>
</event>
<event>
 4      1 +2.2016400e-08 2.45053700e+03 7.81860800e-03 7.90832400e-02
        2 -1    0    0  501    0 +0.0000000000e+00 +0.0000000000e+00 +7.5142155621e+02 7.5142155621e+02 0.0000000000e+00 0.0000e+00 1.0000e+00
       -2 -1    0    0    0  501 -0.0000000000e+00 -0.0000000000e+00 -1.9979230846e+03 1.9979230846e+03 0.0000000000e+00 0.0000e+00 -1.0000e+00
      -13  1    1    2    0    0 +6.7721900535e+02 +9.7914482904e+02 -9.4828756337e+02 1.5220379365e+03 0.0000000000e+00 0.0000e+00 -1.0000e+00
       13  1    1    2    0    0 -6.7721900535e+02 -9.7914482904e+02 -2.9821396503e+02 1.2273067043e+03 0.0000000000e+00 0.0000e+00 1.0000e+00
<mgrwt>
<rscale>  0 0.24505367E+04</rscale>
<asrwt>0</asrwt>
<pdfrwt beam="1">  1        2 0.11560332E+00 0.24505367E+04</pdfrwt>
<pdfrwt beam="2">  1       -2 0.30737278E+00 0.24505367E+04</pdfrwt>
<totfact> 0.87405941E-01</totfact>
</mgrwt>
<rwgt>
<wgt id='morphing_basis_vector_1'> +1.1137983e-04 </wgt>
<wgt id='morphing_basis_vector_2'> +7.8428251e-05 </wgt>
<wgt id='morphing_basis_vector_3'> +1.2107431e-04 </wgt>
<wgt id='morphing_basis_vector_4'> +8.0602388e-05 </wgt>
<wgt id='morphing_basis_vector_5'> +1.3349629e-04 </wgt>
</rwgt>
</event>
<event>
 4      1 +2.2016400e-08 2.26571200e+03 7.81860800e-03 7.97051900e-02
        2 -1    0    0  501    0 +0.0000000000e+00 +0.0000000000e+00 +1.4115072305e+03 1.4115072305e+03 0.0000000000e+00 0.0000e+00 1.0000e+00
       -2 -1    0    0    0  501 -0.0000000000e+00 -0.0000000000e+00 -9.0921458532e+02 9.0921458532e+02 0.0000000000e+00 0.0000e+00 -1.0000e+00
      -13  1    1    2    0    0 +1.5011415796e+02 +7.9116447894e+02 -5.6499753419e+02 9.8371627353e+02 0.0000000000e+00 0.0000e+00 -1.0000e+00
       13  1    1    2    0    0 -1.5011415796e+02 -7.9116447894e+02 +1.0672901794e+03 1.3370055423e+03 0.0000000000e+00 0.0000e+00 1.0000e+00
<mgrwt>
<rscale>  0 0.22657122E+04</rscale>
<asrwt>0</asrwt>
<pdfrwt beam="1">  1        2 0.21715496E+00 0.22657122E+04</pdfrwt>
<pdfrwt beam="2">  1       -2 0.13987917E+00 0.22657122E+04</pdfrwt>
<totfact> 0.57260261E+00</totfact>
</mgrwt>
<rwgt>
<wgt id='morphing_basis_vector_1'> +8.0665718e-05 </wgt>
<wgt id='morphing_basis_vector_2'> +5.4181213e-05 </wgt>
<wgt id='morphing_basis_vector_3'> +8.6839380e-05 </wgt>
<wgt id='morphing_basis_vector_4'> +6.0873306e-05 </wgt>
<wgt id='morphing_basis_vector_5'> +9.7292808e-05 </wgt>
</rwgt>
</event>
<event>
 4      1 +2.2016400e-08 2.60413300e+03 7.81860800e-03 7.86077300e-02
        2 -1    0    0  501    0 +0.0000000000e+00 +0.0000000000e+00 +1.6165843843e+03 1.6165843843e+03 0.0000000000e+00 0.0000e+00 -1.0000e+00
       -2 -1    0    0    0  501 -0.0000000000e+00 -0.0000000000e+00 -1.0487406322e+03 1.0487406322e+03 0.0000000000e+00 0.0000e+00 1.0000e+00
      -13  1    1    2    0    0 +7.4601983474e+00 -2.6316758848e+02 -1.0212144570e+03 1.0546050452e+03 0.0000000000e+00 0.0000e+00 1.0000e+00
       13  1    1    2    0    0 -7.4601983474e+00 +2.6316758848e+02 +1.5890582091e+03 1.6107199713e+03 0.0000000000e+00 0.0000e+00 -1.0000e+00
<mgrwt>
<rscale>  0 0.26041334E+04</rscale>
<asrwt>0</asrwt>
<pdfrwt beam="1">  1        2 0.24870529E+00 0.26041334E+04</pdfrwt>
<pdfrwt beam="2">  1       -2 0.16134471E+00 0.26041334E+04</pdfrwt>
<totfact> 0.28379819E+00</totfact>
</mgrwt>
<rwgt>
<wgt id='morphing_basis_vector_1'> +1.3952381e-04 </wgt>
<wgt id='morphing_basis_vector_2'> +9.3749254e-05 </wgt>
<wgt id='morphing_basis_vector_3'> +1.5119870e-04 </wgt>
<wgt id='morphing_basis_vector_4'> +1.0737012e-04 </wgt>
<wgt id='morphing_basis_vector_5'> +1.7111219e-04 </wgt>
</rwgt>
</event>
<event>
 4      1 +2.2016400e-08 2.35024500e+03 7.81860800e-03 7.94134400e-02
        2 -1    0    0  501    0 +0.0000000000e+00 +0.0000000000e+00 +1.2228083974e+03 1.2228083974e+03 0.0000000000e+00 0.0000e+00 -1.0000e+00
       -2 -1    0    0    0  501 -0.0000000000e+00 -0.0000000000e+00 -1.1292964087e+03 1.1292964087e+03 0.0000000000e+00 0.0000e+00 1.0000e+00
      -13  1    1    2    0    0 +8.2995883087e+02 -8.3188624054e+02 +3.9912927255e+01 1.1757803451e+03 0.0000000000e+00 0.0000e+00 1.0000e+00
       13  1    1    2    0    0 -8.2995883087e+02 +8.3188624054e+02 +5.3599061407e+01 1.1763244610e+03 0.0000000000e+00 0.0000e+00 -1.0000e+00
<mgrwt>
<rscale>  0 0.23502452E+04</rscale>
<asrwt>0</asrwt>
<pdfrwt beam="1">  1        2 0.18812437E+00 0.23502452E+04</pdfrwt>
<pdfrwt beam="2">  1       -2 0.17373791E+00 0.23502452E+04</pdfrwt>
<totfact> 0.38724520E+00</totfact>
</mgrwt>
<rwgt>
<wgt id='morphing_basis_vector_1'> +9.6411800e-05 </wgt>
<wgt id='morphing_basis_vector_2'> +7.2197861e-05 </wgt>
<wgt id='morphing_basis_vector_3'> +1.0539475e-04 </wgt>
<wgt id='morphing_basis_vector_4'> +6.4065969e-05 </wgt>
<wgt id='morphing_basis_vector_5'> +1.1236587e-04 </wgt>
</rwgt>
</event>
<event>
 4      1 +2.2016400e-08 2.32383800e+03 7.81860800e-03 7.95032000e-02
        2 -1    0    0  501    0 +0.0000000000e+00 +0.0000000000e+00 +1.9500161605e+03 1.9500161605e+03 0.0000000000e+00 0.0000e+00 -1.0000e+00
       -2 -1    0    0    0  501 -0.0000000000e+00 -0.0000000000e+00 -6.9233026120e+02 6.9233026120e+02 0.0000000000e+00 0.0000e+00 1.0000e+00
      -13  1    1    2    0    0 -1.3851324250e+02 -1.0672948680e+03 +1.3093076780e+02 1.0841803907e+03 0.0000000000e+00 0.0000e+00 1.0000e+00
       13  1    1    2    0    0 +1.3851324250e+02 +1.0672948680e+03 +1.1267551315e+03 1.5581660309e+03 0.0000000000e+00 0.0000e+00 -1.0000e+00
<mgrwt>
<rscale>  0 0.23238375E+04</rscale>
<asrwt>0</asrwt>
<pdfrwt beam="1">  1        2 0.30000248E+00 0.23238375E+04</pdfrwt>
<pdfrwt beam="2">  1       -2 0.10651235E+00 0.23238375E+04</pdfrwt>
<totfact> 0.58137926E+00</totfact>
</mgrwt>
<rwgt>
<wgt id='morphing_basis_vector_1'> +8.9743801e-05 </wgt>
<wgt id='morphing_basis_vector_2'> +6.1738318e-05 </wgt>
<wgt id='morphing_basis_vector_3'> +9.7015468e-05 </wgt>
<wgt id='morphing_basis_vector_4'> +6.6214049e-05 </wgt>
<wgt id='morphing_basis_vector_5'> +1.0773323e-04 </wgt>
</rwgt>
</event>
<event>
 4      1 +2.2016400e-08 2.41927000e+03 7.81860800e-03 7.91844200e-02
        2 -1    0    0  501    0 +0.0000000000e+00 +0.0000000000e+00 +1.8938872434e+03 1.8938872434e+03 0.0000000000e+00 0.0000e+00 -1.0000e+00
       -2 -1    0    0    0  501 -0.0000000000e+00 -0.0000000000e+00 -7.7259946013e+02 7.7259946013e+02 0.0000000000e+00 0.0000e+00 1.0000e+00
      -13  1    1    2    0    0 +3.5638603738e+02 -6.6289599580e+02 -4.8310663684e+02 8.9433446285e+02 0.0000000000e+00 0.0000e+00 1.0000e+00
       13  1    1    2    0    0 -3.5638603738e+02 +6.6289599580e+02 +1.6043944201e+03 1.7721522407e+03 0.0000000000e+00 0.0000e+00 -1.0000e+00
<mgrwt>
<rscale>  0 0.24192695E+04</rscale>
<asrwt>0</asrwt>
<pdfrwt beam="1">  1        2 0.29136727E+00 0.24192695E+04</pdfrwt>
<pdfrwt beam="2">  1       -2 0.11886146E+00 0.24192695E+04</pdfrwt>
<totfact> 0.46964465E+00</totfact>
</mgrwt>
<rwgt>
<wgt id='morphing_basis_vector_1'> +1.0438688e-04 </wgt>
<wgt id='morphing_basis_vector_2'> +7.0124569e-05 </wgt>
<wgt id='morphing_basis_vector_3'> +1.1275223e-04 </wgt>
<wgt id='morphing_basis_vector_4'> +7.9559529e-05 </wgt>
<wgt id='morphing_basis_vector_5'> +1.2697058e-04 </wgt>
</rwgt>
</event>
<event>
 4      1 +2.2016400e-08 2.23406300e+03 7.81860800e-03 7.98178200e-02
        2 -1    0    0  501    0 +0.0000000000e+00 +0.0000000000e+00 +1.6653477230e+03 1.6653477230e+03 0.0000000000e+00 0.0000e+00 -1.0000e+00
       -2 -1    0    0    0  501 -0.0000000000e+00 -0.0000000000e+00 -7.4924827666e+02 7.4924827666e+02 0.0000000000e+00 0.0000e+00 1.0000e+00
      -13  1    1    2    0    0 +8.8687212269e+02 +5.7430027999e+02 +8.4982778253e+02 1.3559388753e+03 0.0000000000e+00 0.0000e+00 1.0000e+00
       13  1    1    2    0    0 -8.8687212269e+02 -5.7430027999e+02 +6.6271663841e+01 1.0586571244e+03 0.0000000000e+00 0.0000e+00 -1.0000e+00
<mgrwt>
<rscale>  0 0.22340626E+04</rscale>
<asrwt>0</asrwt>
<pdfrwt beam="1">  1        2 0.25620734E+00 0.22340626E+04</pdfrwt>
<pdfrwt beam="2">  1       -2 0.11526897E+00 0.22340626E+04</pdfrwt>
<totfact> 0.69239803E+00</totfact>
</mgrwt>
<rwgt>
<wgt id='morphing_basis_vector_1'> +8.4603434e-05 </wgt>
<wgt id='morphing_basis_vector_2'> +7.5713677e-05 </wgt>
<wgt id='morphing_basis_vector_3'> +9.4471304e-05 </wgt>
<wgt id='morphing_basis_vector_4'> +4.0742608e-05 </wgt>
<wgt id='morphing_basis_vector_5'> +9.0545799e-05 </wgt>
</rwgt>
</event>
<event>
 4      1 +2.2016400e-08 2.23309200e+03 7.81860800e-03 7.98213000e-02
        2 -1    0    0  501    0 +0.0000000000e+00 +0.0000000000e+00 +2.3541809857e+03 2.3541809857e+03 0.0000000000e+00 0.0000e+00 -1.0000e+00
       -2 -1    0    0    0  501 -0.0000000000e+00 -0.0000000000e+00 -5.2955764874e+02 5.2955764874e+02 0.0000000000e+00 0.0000e+00 1.0000e+00
      -13  1    1    2    0    0 -4.2431851814e+02 +1.0162343986e+03 +6.7456003250e+02 1.2914371046e+03 0.0000000000e+00 0.0000e+00 1.0000e+00
       13  1    1    2    0    0 +4.2431851814e+02 -1.0162343986e+03 +1.1500633045e+03 1.5923015299e+03 0.0000000000e+00 0.0000e+00 -1.0000e+00
<mgrwt>
<rscale>  0 0.22330916E+04</rscale>
<asrwt>0</asrwt>
<pdfrwt beam="1">  1        2 0.36218168E+00 0.22330916E+04</pdfrwt>
<pdfrwt beam="2">  1       -2 0.81470409E-01 0.22330916E+04</pdfrwt>
<totfact> 0.64921233E+00</totfact>
</mgrwt>
<rwgt>
<wgt id='morphing_basis_vector_1'> +7.7601556e-05 </wgt>
<wgt id='morphing_basis_vector_2'> +5.5318040e-05 </wgt>
<wgt id='morphing_basis_vector_3'> +8.4059830e-05 </wgt>
<wgt id='morphing_basis_vector_4'> +5.4537659e-05 </wgt>
<wgt id='morphing_basis_vector_5'> +9.1496565e-05 </wgt>
</rwgt>
</event>
<event>
 4      1 +2.2016400e-08 2.42048500e+03 7.81860800e-03 7.91804600e-02
        2 -1    0    0  501    0 +0.0000000000e+00 +0.0000000000e+00 +7.9123864937e+02 7.9123864937e+02 0.0000000000e+00 0.0000e+00 1.0000e+00
       -2 -1    0    0    0  501 -0.0000000000e+00 -0.0000000000e+00 -1.8511317220e+03 1.8511317220e+03 0.0000000000e+00 0.0000e+00 -1.0000e+00
      -13  1    1    2    0    0 +1.0067232680e+02 +1.0658003085e+03 -1.1461568963e+03 1.5683560967e+03 0.0000000000e+00 0.0000e+00 -1.0000e+00
       13  1    1    2    0    0 -1.0067232680e+02 -1.0658003085e+03 +8.6263823680e+01 1.0740142747e+03 0.0000000000e+00 0.0000e+00 1.0000e+00
<mgrwt>
<rscale>  0 0.24204850E+04</rscale>
<asrwt>0</asrwt>
<pdfrwt beam="1">  1        2 0.12172903E+00 0.24204850E+04</pdfrwt>
<pdfrwt beam="2">  1       -2 0.28478949E+00 0.24204850E+04</pdfrwt>
<totfact> 0.11664679E+00</totfact>
</mgrwt>
<rwgt>
<wgt id='morphing_basis_vector_1'> +1.0508596e-04 </wgt>
<wgt id='morphing_basis_vector_2'> +7.1717316e-05 </wgt>
<wgt id='morphing_basis_vector_3'> +1.1372557e-04 </wgt>
<wgt id='morphing_basis_vector_4'> +7.8716887e-05 </wgt>
<wgt id='morphing_basis_vector_5'> +1.2714827e-04 </wgt>
</rwgt>
</event>
<event>
 4      1 +2.2016400e-08 2.24307900e+03 7.81860800e-03 7.97855400e-02
        2 -1    0    0  501    0 +0.0000000000e+00 +0.0000000000e+00 +4.7071365490e+03 4.7071365490e+03 0.0000000000e+00 0.0000e+00 -1.0000e+00
       -2 -1    0    0    0  501 -0.0000000000e+00 -0.0000000000e+00 -2.6722200572e+02 2.6722200572e+02 0.0000000000e+00 0.0000e+00 1.0000e+00
      -13  1    1    2    0    0 -4.1210679313e+02 +8.4508337881e+02 +3.5759043899e+03 3.6974437293e+03 0.0000000000e+00 0.0000e+00 1.0000e+00
       13  1    1    2    0    0 +4.1210679313e+02 -8.4508337881e+02 +8.6401015338e+02 1.2769148254e+03 0.0000000000e+00 0.0000e+00 -1.0000e+00
<mgrwt>
<rscale>  0 0.22430787E+04</rscale>
<asrwt>0</asrwt>
<pdfrwt beam="1">  1        2 0.72417479E+00 0.22430787E+04</pdfrwt>
<pdfrwt beam="2">  1       -2 0.41111081E-01 0.22430787E+04</pdfrwt>
<totfact> 0.39918595E-01</totfact>
</mgrwt>
<rwgt>
<wgt id='morphing_basis_vector_1'> +9.3470177e-05 </wgt>
<wgt id='morphing_basis_vector_2'> +9.9137861e-05 </wgt>
<wgt id='morphing_basis_vector_3'> +1.0725149e-04 </wgt>
<wgt id='morphing_basis_vector_4'> +2.6208342e-05 </wgt>
<wgt id='morphing_basis_vector_5'> +9.0821017e-05 </wgt>
</rwgt>
</event>
<event>
 4      1 +2.2016400e-08 2.27877200e+03 7.81860800e-03 7.96592700e-02
        2 -1    0    0  501    0 +0.0000000000e+00 +0.0000000000e+00 +1.2461870148e+03 1.2461870148e+03 0.0000000000e+00 0.0000e+00 1.0000e+00
       -2 -1    0    0    0  501 -0.0000000000e+00 -0.0000000000e+00 -1.0417381541e+03 1.0417381541e+03 0.0000000000e+00 0.0000e+00 -1.0000e+00
      -13  1    1    2    0    0 -5.1222358278e+02 +8.7704490498e+02 -4.1620198294e+02 1.0976360302e+03 0.0000000000e+00 0.0000e+00 -1.0000e+00
       13  1    1    2    0    0 +5.1222358278e+02 -8.7704490498e+02 +6.2065084358e+02 1.1902891387e+03 0.0000000000e+00 0.0000e+00 1.0000e+00
<mgrwt>
<rscale>  0 0.22787721E+04</rscale>
<asrwt>0</asrwt>
<pdfrwt beam="1">  1        2 0.19172108E+00 0.22787721E+04</pdfrwt>
<pdfrwt beam="2">  1       -2 0.16026741E+00 0.22787721E+04</pdfrwt>
<totfact> 0.48179670E+00</totfact>
</mgrwt>
<rwgt>
<wgt id='morphing_basis_vector_1'> +8.2877768e-05 </wgt>
<wgt id='morphing_basis_vector_2'> +5.6513823e-05 </wgt>
<wgt id='morphing_basis_vector_3'> +8.9405495e-05 </wgt>
<wgt id='morphing_basis_vector_4'> +6.1568836e-05 </wgt>
<wgt id='morphing_basis_vector_5'> +9.9531550e-05 </wgt>
</rwgt>
</event>
<event>
 4      1 +2.2016400e-08 2.45330600e+03 7.81860800e-03 7.90743600e-02
        2 -1    0    0  501    0 +0.0000000000e+00 +0.0000000000e+00 +2.1740867374e+03 2.1740867374e+03 0.0000000000e+00 0.0000e+00 1.0000e+00
       -2 -1    0    0    0  501 -0.0000000000e+00 -0.0000000000e+00 -6.9209620037e+02 6.9209620037e+02 0.0000000000e+00 0.0000e+00 -1.0000e+00
      -13  1    1    2    0    0 +4.1632175532e+02 -2.2940262043e+02 -5.8012178615e+02 7.4999376862e+02 0.0000000000e+00 0.0000e+00 -1.0000e+00
       13  1    1    2    0    0 -4.1632175532e+02 +2.2940262043e+02 +2.0621123232e+03 2.1161891692e+03 0.0000000000e+00 0.0000e+00 1.0000e+00
<mgrwt>
<rscale>  0 0.24533057E+04</rscale>
<asrwt>0</asrwt>
<pdfrwt beam="1">  1        2 0.33447488E+00 0.24533057E+04</pdfrwt>
<pdfrwt beam="2">  1       -2 0.10647634E+00 0.24533057E+04</pdfrwt>
<totfact> 0.42973842E+00</totfact>
</mgrwt>
<rwgt>
<wgt id='morphing_basis_vector_1'> +1.1024290e-04 </wgt>
<wgt id='morphing_basis_vector_2'> +7.3957351e-05 </wgt>
<wgt id='morphing_basis_vector_3'> +1.1913579e-04 </wgt>
<wgt id='morphing_basis_vector_4'> +8.4314423e-05 </wgt>
<wgt id='morphing_basis_vector_5'> +1.3437913e-04 </wgt>
</rwgt>
</event>
<event>
 4      1 +2.2016400e-08 2.61158500e+03 7.81860800e-03 7.85855200e-02
        2 -1    0    0  501    0 +0.0000000000e+00 +0.0000000000e+00 +1.5327625116e+03 1.5327625116e+03 0.0000000000e+00 0.0000e+00 1.0000e+00
       -2 -1    0    0    0  501 -0.0000000000e+00 -0.0000000000e+00 -1.1124320937e+03 1.1124320937e+03 0.0000000000e+00 0.0000e+00 -1.0000e+00
      -13  1    1    2    0    0 -7.5365869340e+02 -8.2486871077e+02 -4.7431599729e+02 1.2138309114e+03 0.0000000000e+00 0.0000e+00 -1.0000e+00
       13  1    1    2    0    0 +7.5365869340e+02 +8.2486871077e+02 +8.9464641513e+02 1.4313636939e+03 0.0000000000e+00 0.0000e+00 1.0000e+00
<mgrwt>
<rscale>  0 0.26115851E+04</rscale>
<asrwt>0</asrwt>
<pdfrwt beam="1">  1        2 0.23580962E+00 0.26115851E+04</pdfrwt>
<pdfrwt beam="2">  1       -2 0.17114340E+00 0.26115851E+04</pdfrwt>
<totfact> 0.26453460E+00</totfact>
</mgrwt>
<rwgt>
<wgt id='morphing_basis_vector_1'> +1.4168209e-04 </wgt>
<wgt id='morphing_basis_vector_2'> +9.6513765e-05 </wgt>
<wgt id='morphing_basis_vector_3'> +1.5381692e-04 </wgt>
<wgt id='morphing_basis_vector_4'> +1.0743768e-04 </wgt>
<wgt id='morphing_basis_vector_5'> +1.7300635e-04 </wgt>
</rwgt>
</event>
<event>
 4      1 +2.2016400e-08 2.42473700e+03 7.81860800e-03 7.91666200e-02
        2 -1    0    0  501    0 +0.0000000000e+00 +0.0000000000e+00 +2.4200544403e+03 2.4200544403e+03 0.0000000000e+00 0.0000e+00 -1.0000e+00
       -2 -1    0    0    0  501 -0.0000000000e+00 -0.0000000000e+00 -6.0735704372e+02 6.0735704372e+02 0.0000000000e+00 0.0000e+00 1.0000e+00
      -13  1    1    2    0    0 -9.1057030898e+02 -3.6377988295e+02 +1.6135908403e+01 9.8068060977e+02 0.0000000000e+00 0.0000e+00 1.0000e+00
       13  1    1    2    0    0 +9.1057030898e+02 +3.6377988295e+02 +1.7965614882e+03 2.0467308743e+03 0.0000000000e+00 0.0000e+00 -1.0000e+00
<mgrwt>
<rscale>  0 0.24247368E+04</rscale>
<asrwt>0</asrwt>
<pdfrwt beam="1">  1        2 0.37231606E+00 0.24247368E+04</pdfrwt>
<pdfrwt beam="2">  1       -2 0.93439546E-01 0.24247368E+04</pdfrwt>
<totfact> 0.42502568E+00</totfact>
</mgrwt>
<rwgt>
<wgt id='morphing_basis_vector_1'> +1.0554306e-04 </wgt>
<wgt id='morphing_basis_vector_2'> +7.1413913e-05 </wgt>
<wgt id='morphing_basis_vector_3'> +1.1411171e-04 </wgt>
<wgt id='morphing_basis_vector_4'> +7.9836214e-05 </wgt>
<wgt id='morphing_basis_vector_5'> +1.2810130e-04 </wgt>
</rwgt>
</event>
<event>
 4      1 +2.2016400e-08 2.36489600e+03 7.81860800e-03 7.93641600e-02
        2 -1    0    0  501    0 +0.0000000000e+00 +0.0000000000e+00 +2.3596504712e+03 2.3596504712e+03 0.0000000000e+00 0.0000e+00 -1.0000e+00
       -2 -1    0    0    0  501 -0.0000000000e+00 -0.0000000000e+00 -5.9253812864e+02 5.9253812864e+02 0.0000000000e+00 0.0000e+00 1.0000e+00
      -13  1    1    2    0    0 +1.2254318230e+02 +8.8251787286e+02 -8.6883542452e+01 8.9521135907e+02 0.0000000000e+00 0.0000e+00 1.0000e+00
       13  1    1    2    0    0 -1.2254318230e+02 -8.8251787286e+02 +1.8539958850e+03 2.0569772408e+03 0.0000000000e+00 0.0000e+00 -1.0000e+00
<mgrwt>
<rscale>  0 0.23648957E+04</rscale>
<asrwt>0</asrwt>
<pdfrwt beam="1">  1        2 0.36302314E+00 0.23648957E+04</pdfrwt>
<pdfrwt beam="2">  1       -2 0.91159713E-01 0.23648957E+04</pdfrwt>
<totfact> 0.49124619E+00</totfact>
</mgrwt>
<rwgt>
<wgt id='morphing_basis_vector_1'> +9.5544724e-05 </wgt>
<wgt id='morphing_basis_vector_2'> +6.4381212e-05 </wgt>
<wgt id='morphing_basis_vector_3'> +1.0312498e-04 </wgt>
<wgt id='morphing_basis_vector_4'> +7.2335890e-05 </wgt>
<wgt id='morphing_basis_vector_5'> +1.1576964e-04 </wgt>
</rwgt>
</event>
<event>
 4      1 +2.2016400e-08 2.50107800e+03 7.81860800e-03 7.89229300e-02
        2 -1    0    0  501    0 +0.0000000000e+00 +0.0000000000e+00 +2.3007538500e+03 2.3007538500e+03 0.0000000000e+00 0.0000e+00 -1.0000e+00
       -2 -1    0    0    0  501 -0.0000000000e+00 -0.0000000000e+00 -6.7971118403e+02 6.7971118403e+02 0.0000000000e+00 0.0000e+00 1.0000e+00
      -13  1    1    2    0    0 -3.2416676992e+02 +1.8126778233e+02 -6.1246982036e+02 7.1628303379e+02 0.0000000000e+00 0.0000e+00 1.0000e+00
       13  1    1    2    0    0 +3.2416676992e+02 -1.8126778233e+02 +2.2335124863e+03 2.2641820003e+03 0.0000000000e+00 0.0000e+00 -1.0000e+00
<mgrwt>
<rscale>  0 0.25010783E+04</rscale>
<asrwt>0</asrwt>
<pdfrwt beam="1">  1        2 0.35396213E+00 0.25010783E+04</pdfrwt>
<pdfrwt beam="2">  1       -2 0.10457095E+00 0.25010783E+04</pdfrwt>
<totfact> 0.37831892E+00</totfact>
</mgrwt>
<rwgt>
<wgt id='morphing_basis_vector_1'> +1.1895675e-04 </wgt>
<wgt id='morphing_basis_vector_2'> +7.9838964e-05 </wgt>
<wgt id='morphing_basis_vector_3'> +1.2867149e-04 </wgt>
<wgt id='morphing_basis_vector_4'> +9.1176300e-05 </wgt>
<wgt id='morphing_basis_vector_5'> +1.4530288e-04 </wgt>
</rwgt>
</event>
<event>
 4      1 +2.2016400e-08 2.29854300e+03 7.81860800e-03 7.95903400e-02
        2 -1    0    0  501    0 +0.0000000000e+00 +0.0000000000e+00 +1.9958284275e+03 1.9958284275e+03 0.0000000000e+00 0.0000e+00 -1.0000e+00
       -2 -1    0    0    0  501 -0.0000000000e+00 -0.0000000000e+00 -6.6179293200e+02 6.6179293200e+02 0.0000000000e+00 0.0000e+00 1.0000e+00
      -13  1    1    2    0    0 -2.5329180161e+02 -1.1186567401e+03 +7.5099711147e+02 1.3709654629e+03 0.0000000000e+00 0.0000e+00 1.0000e+00
       13  1    1    2    0    0 +2.5329180161e+02 +1.1186567401e+03 +5.8303838406e+02 1.2866558966e+03 0.0000000000e+00 0.0000e+00 -1.0000e+00
<mgrwt>
<rscale>  0 0.22985431E+04</rscale>
<asrwt>0</asrwt>
<pdfrwt beam="1">  1        2 0.30705053E+00 0.22985431E+04</pdfrwt>
<pdfrwt beam="2">  1       -2 0.10181430E+00 0.22985431E+04</pdfrwt>
<totfact> 0.61346302E+00</totfact>
</mgrwt>
<rwgt>
<wgt id='morphing_basis_vector_1'> +8.9174460e-05 </wgt>
<wgt id='morphing_basis_vector_2'> +6.8615920e-05 </wgt>
<wgt id='morphing_basis_vector_3'> +9.7699605e-05 </wgt>
<wgt id='morphing_basis_vector_4'> +5.6807056e-05 </wgt>
<wgt id='morphing_basis_vector_5'> +1.0252629e-04 </wgt>
</rwgt>
</event>
<event>
 4      1 +2.2016400e-08 2.37777200e+03 7.81860800e-03 7.93211500e-02
        2 -1    0    0  501    0 +0.0000000000e+00 +0.0000000000e+00 +2.6837651201e+03 2.6837651201e+03 0.0000000000e+00 0.0000e+00 1.0000e+00
       -2 -1    0    0    0  501 -0.0000000000e+00 -0.0000000000e+00 -5.2666696223e+02 5.2666696223e+02 0.0000000000e+00 0.0000e+00 -1.0000e+00
      -13  1    1    2    0    0 +2.7694506436e+02 -7.7193291363e+02 -8.3607446575e+01 8.2435987101e+02 0.0000000000e+00 0.0000e+00 -1.0000e+00
       13  1    1    2    0    0 -2.7694506436e+02 +7.7193291363e+02 +2.2407056045e+03 2.3860722113e+03 0.0000000000e+00 0.0000e+00 1.0000e+00
<mgrwt>
<rscale>  0 0.23777724E+04</rscale>
<asrwt>0</asrwt>
<pdfrwt beam="1">  1        2 0.41288693E+00 0.23777724E+04</pdfrwt>
<pdfrwt beam="2">  1       -2 0.81025688E-01 0.23777724E+04</pdfrwt>
<totfact> 0.41217572E+00</totfact>
</mgrwt>
<rwgt>
<wgt id='morphing_basis_vector_1'> +9.7544883e-05 </wgt>
<wgt id='morphing_basis_vector_2'> +6.5587868e-05 </wgt>
<wgt id='morphing_basis_vector_3'> +1.0528533e-04 </wgt>
<wgt id='morphing_basis_vector_4'> +7.4083440e-05 </wgt>
<wgt id='morphing_basis_vector_5'> +1.1835943e-04 </wgt>
</rwgt>
</event>
<event>
 4      1 +2.2016400e-08 2.35085100e+03 7.81860800e-03 7.94113900e-02
        2 -1    0    0  501    0 +0.0000000000e+00 +0.0000000000e+00 +1.4370727238e+03 1.4370727238e+03 0.0000000000e+00 0.0000e+00 -1.0000e+00
       -2 -1    0    0    0  501 -0.0000000000e+00 -0.0000000000e+00 -9.6141666040e+02 9.6141666040e+02 0.0000000000e+00 0.0000e+00 1.0000e+00
      -13  1    1    2    0    0 +2.8301685074e+02 +8.5079986864e+02 -5.3761746485e+02 1.0454623345e+03 0.0000000000e+00 0.0000e+00 1.0000e+00
       13  1    1    2    0    0 -2.8301685074e+02 -8.5079986864e+02 +1.0132735283e+03 1.3530270497e+03 0.0000000000e+00 0.0000e+00 -1.0000e+00
<mgrwt>
<rscale>  0 0.23508515E+04</rscale>
<asrwt>0</asrwt>
<pdfrwt beam="1">  1        2 0.22108811E+00 0.23508515E+04</pdfrwt>
<pdfrwt beam="2">  1       -2 0.14791026E+00 0.23508515E+04</pdfrwt>
<totfact> 0.47034227E+00</totfact>
</mgrwt>
<rwgt>
<wgt id='morphing_basis_vector_1'> +9.3340270e-05 </wgt>
<wgt id='morphing_basis_vector_2'> +6.2911593e-05 </wgt>
<wgt id='morphing_basis_vector_3'> +1.0071854e-04 </wgt>
<wgt id='morphing_basis_vector_4'> +7.0583790e-05 </wgt>
<wgt id='morphing_basis_vector_5'> +1.1300313e-04 </wgt>
</rwgt>
</event>
<event>
 4      1 +2.2016400e-08 2.48060400e+03 7.81860800e-03 7.89874000e-02
        2 -1    0    0  501    0 +0.0000000000e+00 +0.0000000000e+00 +2.4265411307e+03 2.4265411307e+03 0.0000000000e+00 0.0000e+00 -1.0000e+00
       -2 -1    0    0    0  501 -0.0000000000e+00 -0.0000000000e+00 -6.3396780181e+02 6.3396780181e+02 0.0000000000e+00 0.0000e+00 1.0000e+00
      -13  1    1    2    0    0 +1.1695875290e+03 -1.7608603201e+02 +4.3562766763e+02 1.2604414876e+03 0.0000000000e+00 0.0000e+00 1.0000e+00
       13  1    1    2    0    0 -1.1695875290e+03 +1.7608603201e+02 +1.3569456612e+03 1.8000674449e+03 0.0000000000e+00 0.0000e+00 -1.0000e+00
<mgrwt>
<rscale>  0 0.24806039E+04</rscale>
<asrwt>0</asrwt>
<pdfrwt beam="1">  1        2 0.37331401E+00 0.24806039E+04</pdfrwt>
<pdfrwt beam="2">  1       -2 0.97533509E-01 0.24806039E+04</pdfrwt>
<totfact> 0.37878750E+00</totfact>
</mgrwt>
<rwgt>
<wgt id='morphing_basis_vector_1'> +1.1646728e-04 </wgt>
<wgt id='morphing_basis_vector_2'> +8.1131739e-05 </wgt>
<wgt id='morphing_basis_vector_3'> +1.2650829e-04 </wgt>
<wgt id='morphing_basis_vector_4'> +8.5511646e-05 </wgt>
<wgt id='morphing_basis_vector_5'> +1.4032645e-04 </wgt>
</rwgt>
</event>
<event>
 4      1 +2.2016400e-08 2.42080200e+03 7.81860800e-03 7.91794200e-02
        2 -1    0    0  501    0 +0.0000000000e+00 +0.0000000000e+00 +2.3460872158e+03 2.3460872158e+03 0.0000000000e+00 0.0000e+00 1.0000e+00
       -2 -1    0    0    0  501 -0.0000000000e+00 -0.0000000000e+00 -6.2447423155e+02 6.2447423155e+02 0.0000000000e+00 0.0000e+00 -1.0000e+00
      -13  1    1    2    0    0 +8.5681087897e+02 +7.9953687198e+02 +4.8924311862e+02 1.2699381564e+03 0.0000000000e+00 0.0000e+00 -1.0000e+00
       13  1    1    2    0    0 -8.5681087897e+02 -7.9953687198e+02 +1.2323698656e+03 1.7006232909e+03 0.0000000000e+00 0.0000e+00 1.0000e+00
<mgrwt>
<rscale>  0 0.24208024E+04</rscale>
<asrwt>0</asrwt>
<pdfrwt beam="1">  1        2 0.36093649E+00 0.24208024E+04</pdfrwt>
<pdfrwt beam="2">  1       -2 0.96072960E-01 0.24208024E+04</pdfrwt>
<totfact> 0.43998229E+00</totfact>
</mgrwt>
<rwgt>
<wgt id='morphing_basis_vector_1'> +1.0605753e-04 </wgt>
<wgt id='morphing_basis_vector_2'> +7.4462325e-05 </wgt>
<wgt id='morphing_basis_vector_3'> +1.1517734e-04 </wgt>
<wgt id='morphing_basis_vector_4'> +7.6885685e-05 </wgt>
<wgt id='morphing_basis_vector_5'> +1.2706455e-04 </wgt>
</rwgt>
</event>
<event>
 4      1 +2.2016400e-08 2.24098200e+03 7.81860800e-03 7.97930300e-02
        2 -1    0    0  501    0 +0.0000000000e+00 +0.0000000000e+00 +1.3007102717e+03 1.3007102717e+03 0.0000000000e+00 0.0000e+00 -1.0000e+00
       -2 -1    0    0    0  501 -0.0000000000e+00 -0.0000000000e+00 -9.6524176794e+02 9.6524176794e+02 0.0000000000e+00 0.0000e+00 1.0000e+00
      -13  1    1    2    0    0 -2.2928574839e+02 +1.6568719846e+02 +1.2640084781e+03 1.2952766634e+03 0.0000000000e+00 0.0000e+00 -1.0000e+00
       13  1    1    2    0    0 +2.2928574839e+02 -1.6568719846e+02 -9.2853997431e+02 9.7067537624e+02 0.0000000000e+00 0.0000e+00 1.0000e+00
<mgrwt>
<rscale>  0 0.22409818E+04</rscale>
<asrwt>0</asrwt>
<pdfrwt beam="1">  1        2 0.20010927E+00 0.22409818E+04</pdfrwt>
<pdfrwt beam="2">  1       -2 0.14849873E+00 0.22409818E+04</pdfrwt>
<totfact> 0.56102458E+00</totfact>
</mgrwt>
<rwgt>
<wgt id='morphing_basis_vector_1'> +1.0565641e-04 </wgt>
<wgt id='morphing_basis_vector_2'> +1.3579975e-04 </wgt>
<wgt id='morphing_basis_vector_3'> +1.2558491e-04 </wgt>
<wgt id='morphing_basis_vector_4'> +7.5975778e-07 </wgt>
<wgt id='morphing_basis_vector_5'> +8.8445822e-05 </wgt>
</rwgt>
</event>
<event>
 4      1 +2.2016400e-08 2.42432900e+03 7.81860800e-03 7.91679400e-02
        2 -1    0    0  501    0 +0.0000000000e+00 +0.0000000000e+00 +4.1085180752e+03 4.1085180752e+03 0.0000000000e+00 0.0000e+00 1.0000e+00
       -2 -1    0    0    0  501 -0.0000000000e+00 -0.0000000000e+00 -3.5763319399e+02 3.5763319399e+02 0.0000000000e+00 0.0000e+00 -1.0000e+00
      -13  1    1    2    0    0 -8.2808373987e+02 -8.3954205371e+02 +2.3925423293e+03 2.6673605564e+03 0.0000000000e+00 0.0000e+00 -1.0000e+00
       13  1    1    2    0    0 +8.2808373987e+02 +8.3954205371e+02 +1.3583425519e+03 1.7987907128e+03 0.0000000000e+00 0.0000e+00 1.0000e+00
<mgrwt>
<rscale>  0 0.24243287E+04</rscale>
<asrwt>0</asrwt>
<pdfrwt beam="1">  1        2 0.63207967E+00 0.24243287E+04</pdfrwt>
<pdfrwt beam="2">  1       -2 0.55020494E-01 0.24243287E+04</pdfrwt>
<totfact> 0.87343809E-01</totfact>
</mgrwt>
<rwgt>
<wgt id='morphing_basis_vector_1'> +1.1376064e-04 </wgt>
<wgt id='morphing_basis_vector_2'> +9.5830492e-05 </wgt>
<wgt id='morphing_basis_vector_3'> +1.2661723e-04 </wgt>
<wgt id='morphing_basis_vector_4'> +6.2855134e-05 </wgt>
<wgt id='morphing_basis_vector_5'> +1.2664620e-04 </wgt>
</rwgt>
</event>
<event>
 4      1 +2.2016400e-08 2.32182600e+03 7.81860800e-03 7.95100900e-02
        2 -1    0    0  501    0 +0.0000000000e+00 +0.0000000000e+00 +1.0474929163e+03 1.0474929163e+03 0.0000000000e+00 0.0000e+00 1.0000e+00
       -2 -1    0    0    0  501 -0.0000000000e+00 -0.0000000000e+00 -1.2866135835e+03 1.2866135835e+03 0.0000000000e+00 0.0000e+00 -1.0000e+00
      -13  1    1    2    0    0 +4.2730649499e+02 +4.0628485289e+02 -1.1248799863e+03 1.2700445685e+03 0.0000000000e+00 0.0000e+00 -1.0000e+00
       13  1    1    2    0    0 -4.2730649499e+02 -4.0628485289e+02 +8.8575931904e+02 1.0640619313e+03 0.0000000000e+00 0.0000e+00 1.0000e+00
<mgrwt>
<rscale>  0 0.23218257E+04</rscale>
<asrwt>0</asrwt>
<pdfrwt beam="1">  1        2 0.16115276E+00 0.23218257E+04</pdfrwt>
<pdfrwt beam="2">  1       -2 0.19794055E+00 0.23218257E+04</pdfrwt>
<totfact> 0.32473591E+00</totfact>
</mgrwt>
<rwgt>
<wgt id='morphing_basis_vector_1'> +8.8735420e-05 </wgt>
<wgt id='morphing_basis_vector_2'> +5.9450776e-05 </wgt>
<wgt id='morphing_basis_vector_3'> +9.5621932e-05 </wgt>
<wgt id='morphing_basis_vector_4'> +6.7409706e-05 </wgt>
<wgt id='morphing_basis_vector_5'> +1.0746998e-04 </wgt>
</rwgt>
</event>
<event>
 4      1 +2.2016400e-08 2.43329200e+03 7.81860800e-03 7.91388500e-02
        2 -1    0    0  501    0 +0.0000000000e+00 +0.0000000000e+00 +2.1105139873e+03 2.1105139873e+03 0.0000000000e+00 0.0000e+00 1.0000e+00
       -2 -1    0    0    0  501 -0.0000000000e+00 -0.0000000000e+00 -7.0135849173e+02 7.0135849173e+02 0.0000000000e+00 0.0000e+00 -1.0000e+00
      -13  1    1    2    0    0 -1.1817752124e+03 -1.5649672626e+02 +4.2354737508e+02 1.2650993072e+03 0.0000000000e+00 0.0000e+00 -1.0000e+00
       13  1    1    2    0    0 +1.1817752124e+03 +1.5649672626e+02 +9.8560812051e+02 1.5467731719e+03 0.0000000000e+00 0.0000e+00 1.0000e+00
<mgrwt>
<rscale>  0 0.24332915E+04</rscale>
<asrwt>0</asrwt>
<pdfrwt beam="1">  1        2 0.32469446E+00 0.24332915E+04</pdfrwt>
<pdfrwt beam="2">  1       -2 0.10790131E+00 0.24332915E+04</pdfrwt>
<totfact> 0.45272845E+00</totfact>
</mgrwt>
<rwgt>
<wgt id='morphing_basis_vector_1'> +1.0857066e-04 </wgt>
<wgt id='morphing_basis_vector_2'> +7.6999399e-05 </wgt>
<wgt id='morphing_basis_vector_3'> +1.1808535e-04 </wgt>
<wgt id='morphing_basis_vector_4'> +7.7814841e-05 </wgt>
<wgt id='morphing_basis_vector_5'> +1.2968739e-04 </wgt>
</rwgt>
</event>
<event>
 4      1 +2.2016400e-08 2.62664100e+03 7.81860800e-03 7.85408800e-02
        2 -1    0    0  501    0 +0.0000000000e+00 +0.0000000000e+00 +7.1079286215e+02 7.1079286215e+02 0.0000000000e+00 0.0000e+00 -1.0000e+00
       -2 -1    0    0    0  501 -0.0000000000e+00 -0.0000000000e+00 -2.4266014025e+03 2.4266014025e+03 0.0000000000e+00 0.0000e+00 1.0000e+00
      -13  1    1    2    0    0 +2.8699623351e+02 +1.0242974550e+03 -1.7779098499e+03 2.0718386879e+03 0.0000000000e+00 0.0000e+00 1.0000e+00
       13  1    1    2    0    0 -2.8699623351e+02 -1.0242974550e+03 +6.2101309562e+01 1.0655555767e+03 0.0000000000e+00 0.0000e+00 -1.0000e+00
<mgrwt>
<rscale>  0 0.26266412E+04</rscale>
<asrwt>0</asrwt>
<pdfrwt beam="1">  1        2 0.10935275E+00 0.26266412E+04</pdfrwt>
<pdfrwt beam="2">  1       -2 0.37332330E+00 0.26266412E+04</pdfrwt>
<totfact> 0.34089743E-01</totfact>
</mgrwt>
<rwgt>
<wgt id='morphing_basis_vector_1'> +1.4474692e-04 </wgt>
<wgt id='morphing_basis_vector_2'> +9.8183521e-05 </wgt>
<wgt id='morphing_basis_vector_3'> +1.5709798e-04 </wgt>
<wgt id='morphing_basis_vector_4'> +1.1035910e-04 </wgt>
<wgt id='morphing_basis_vector_5'> +1.7711003e-04 </wgt>
</rwgt>
</event>
<event>
 4      1 +2.2016400e-08 2.53648400e+03 7.81860800e-03 7.88129200e-02
        2 -1    0    0  501    0 +0.0000000000e+00 +0.0000000000e+00 +2.2288636476e+03 2.2288636476e+03 0.0000000000e+00 0.0000e+00 1.0000e+00
       -2 -1    0    0    0  501 -0.0000000000e+00 -0.0000000000e+00 -7.2164054906e+02 7.2164054906e+02 0.0000000000e+00 0.0000e+00 -1.0000e+00
      -13  1    1    2    0    0 +2.9594333643e+02 +7.7834373027e+02 -3.5910192189e+02 9.0683824971e+02 0.0000000000e+00 0.0000e+00 -1.0000e+00
       13  1    1    2    0    0 -2.9594333643e+02 -7.7834373027e+02 +1.8663250204e+03 2.0436659469e+03 0.0000000000e+00 0.0000e+00 1.0000e+00
<mgrwt>
<rscale>  0 0.25364845E+04</rscale>
<asrwt>0</asrwt>
<pdfrwt beam="1">  1        2 0.34290210E+00 0.25364845E+04</pdfrwt>
<pdfrwt beam="2">  1       -2 0.11102162E+00 0.25364845E+04</pdfrwt>
<totfact> 0.35759579E+00</totfact>
</mgrwt>
<rwgt>
<wgt id='morphing_basis_vector_1'> +1.2584388e-04 </wgt>
<wgt id='morphing_basis_vector_2'> +8.4719553e-05 </wgt>
<wgt id='morphing_basis_vector_3'> +1.3625534e-04 </wgt>
<wgt id='morphing_basis_vector_4'> +9.6316284e-05 </wgt>
<wgt id='morphing_basis_vector_5'> +1.5379994e-04 </wgt>
</rwgt>
</event>
<event>
 4      1 +2.2016400e-08 2.61044500e+03 7.81860800e-03 7.85889200e-02
        2 -1    0    0  501    0 +0.0000000000e+00 +0.0000000000e+00 +2.8726394245e+03 2.8726394245e+03 0.0000000000e+00 0.0000e+00 1.0000e+00
       -2 -1    0    0    0  501 -0.0000000000e+00 -0.0000000000e+00 -5.9304528112e+02 5.9304528112e+02 0.0000000000e+00 0.0000e+00 -1.0000e+00
      -13  1    1    2    0    0 +1.5902427622e+02 +1.0905767457e+03 +2.1144920285e+02 1.1222108198e+03 0.0000000000e+00 0.0000e+00 -1.0000e+00
       13  1    1    2    0    0 -1.5902427622e+02 -1.0905767457e+03 +2.0681449405e+03 2.3434738858e+03 0.0000000000e+00 0.0000e+00 1.0000e+00
<mgrwt>
<rscale>  0 0.26104446E+04</rscale>
<asrwt>0</asrwt>
<pdfrwt beam="1">  1        2 0.44194452E+00 0.26104446E+04</pdfrwt>
<pdfrwt beam="2">  1       -2 0.91237737E-01 0.26104446E+04</pdfrwt>
<totfact> 0.23393436E+00</totfact>
</mgrwt>
<rwgt>
<wgt id='morphing_basis_vector_1'> +1.4138328e-04 </wgt>
<wgt id='morphing_basis_vector_2'> +9.6185586e-05 </wgt>
<wgt id='morphing_basis_vector_3'> +1.5346495e-04 </wgt>
<wgt id='morphing_basis_vector_4'> +1.0736002e-04 </wgt>
<wgt id='morphing_basis_vector_5'> +1.7270991e-04 </wgt>
</rwgt>
</event>
<event>
 4      1 +2.2016400e-08 2.39883900e+03 7.81860800e-03 7.92513800e-02
        2 -1    0    0  501    0 +0.0000000000e+00 +0.0000000000e+00 +3.0013677925e+03 3.0013677925e+03 0.0000000000e+00 0.0000e+00 -1.0000e+00
       -2 -1    0    0    0  501 -0.0000000000e+00 -0.0000000000e+00 -4.7931709831e+02 4.7931709831e+02 0.0000000000e+00 0.0000e+00 1.0000e+00
      -13  1    1    2    0    0 +8.5566260930e+02 -5.6310268900e+02 +3.5562343499e+02 1.0843021566e+03 0.0000000000e+00 0.0000e+00 1.0000e+00
       13  1    1    2    0    0 -8.5566260930e+02 +5.6310268900e+02 +2.1664272592e+03 2.3963827342e+03 0.0000000000e+00 0.0000e+00 -1.0000e+00
<mgrwt>
<rscale>  0 0.23988388E+04</rscale>
<asrwt>0</asrwt>
<pdfrwt beam="1">  1        2 0.46174888E+00 0.23988388E+04</pdfrwt>
<pdfrwt beam="2">  1       -2 0.73741094E-01 0.23988388E+04</pdfrwt>
<totfact> 0.32000761E+00</totfact>
</mgrwt>
<rwgt>
<wgt id='morphing_basis_vector_1'> +1.0129661e-04 </wgt>
<wgt id='morphing_basis_vector_2'> +6.8813148e-05 </wgt>
<wgt id='morphing_basis_vector_3'> +1.0951599e-04 </wgt>
<wgt id='morphing_basis_vector_4'> +7.6170079e-05 </wgt>
<wgt id='morphing_basis_vector_5'> +1.2262151e-04 </wgt>
</rwgt>
</event>
<event>
 4      1 +2.2016400e-08 2.32651800e+03 7.81860800e-03 7.94940400e-02
        2 -1    0    0  501    0 +0.0000000000e+00 +0.0000000000e+00 +1.5361474230e+03 1.5361474230e+03 0.0000000000e+00 0.0000e+00 -1.0000e+00
       -2 -1    0    0    0  501 -0.0000000000e+00 -0.0000000000e+00 -8.8088618594e+02 8.8088618594e+02 0.0000000000e+00 0.0000e+00 1.0000e+00
      -13  1    1    2    0    0 -4.9648763139e+02 +8.4837679820e+02 -3.1860569764e+02 1.0333212232e+03 0.0000000000e+00 0.0000e+00 1.0000e+00
       13  1    1    2    0    0 +4.9648763139e+02 -8.4837679820e+02 +9.7386693474e+02 1.3837123857e+03 0.0000000000e+00 0.0000e+00 -1.0000e+00
<mgrwt>
<rscale>  0 0.23265176E+04</rscale>
<asrwt>0</asrwt>
<pdfrwt beam="1">  1        2 0.23633037E+00 0.23265176E+04</pdfrwt>
<pdfrwt beam="2">  1       -2 0.13552095E+00 0.23265176E+04</pdfrwt>
<totfact> 0.52901413E+00</totfact>
</mgrwt>
<rwgt>
<wgt id='morphing_basis_vector_1'> +8.9754726e-05 </wgt>
<wgt id='morphing_basis_vector_2'> +6.0847523e-05 </wgt>
<wgt id='morphing_basis_vector_3'> +9.6864443e-05 </wgt>
<wgt id='morphing_basis_vector_4'> +6.7332550e-05 </wgt>
<wgt id='morphing_basis_vector_5'> +1.0830349e-04 </wgt>
</rwgt>
</event>
<event>
 4      1 +2.2016400e-08 2.31733800e+03 7.81860800e-03 7.95254900e-02
        2 -1    0    0  501    0 +0.0000000000e+00 +0.0000000000e+00 +3.3116440937e+03 3.3116440937e+03 0.0000000000e+00 0.0000e+00 -1.0000e+00
       -2 -1    0    0    0  501 -0.0000000000e+00 -0.0000000000e+00 -4.0539192942e+02 4.0539192942e+02 0.0000000000e+00 0.0000e+00 1.0000e+00
      -13  1    1    2    0    0 +7.6182262350e+02 -8.1609394209e+02 +9.5580304484e+02 1.4696742811e+03 0.0000000000e+00 0.0000e+00 1.0000e+00
       13  1    1    2    0    0 -7.6182262350e+02 +8.1609394209e+02 +1.9504491194e+03 2.2473617420e+03 0.0000000000e+00 0.0000e+00 -1.0000e+00
<mgrwt>
<rscale>  0 0.23173379E+04</rscale>
<asrwt>0</asrwt>
<pdfrwt beam="1">  1        2 0.50948369E+00 0.23173379E+04</pdfrwt>
<pdfrwt beam="2">  1       -2 0.62367991E-01 0.23173379E+04</pdfrwt>
<totfact> 0.28471612E+00</totfact>
</mgrwt>
<rwgt>
<wgt id='morphing_basis_vector_1'> +8.9194753e-05 </wgt>
<wgt id='morphing_basis_vector_2'> +6.2342215e-05 </wgt>
<wgt id='morphing_basis_vector_3'> +9.6591585e-05 </wgt>
<wgt id='morphing_basis_vector_4'> +6.4580416e-05 </wgt>
<wgt id='morphing_basis_vector_5'> +1.0644405e-04 </wgt>
</rwgt>
</event>
<event>
 4      1 +2.2016400e-08 2.31888700e+03 7.81860800e-03 7.95201700e-02
        2 -1    0    0  501    0 +0.0000000000e+00 +0.0000000000e+00 +1.7429080363e+03 1.7429080363e+03 0.0000000000e+00 0.0000e+00 -1.0000e+00
       -2 -1    0    0    0  501 -0.0000000000e+00 -0.0000000000e+00 -7.7130251349e+02 7.7130251349e+02 0.0000000000e+00 0.0000e+00 1.0000e+00
      -13  1    1    2    0    0 +1.0283496950e+03 -3.3543616014e+02 +9.3844682033e+02 1.4320275651e+03 0.0000000000e+00 0.0000e+00 1.0000e+00
       13  1    1    2    0    0 -1.0283496950e+03 +3.3543616014e+02 +3.3158702506e+01 1.0821829847e+03 0.0000000000e+00 0.0000e+00 -1.0000e+00
<mgrwt>
<rscale>  0 0.23188871E+04</rscale>
<asrwt>0</asrwt>
<pdfrwt beam="1">  1        2 0.26813970E+00 0.23188871E+04</pdfrwt>
<pdfrwt beam="2">  1       -2 0.11866193E+00 0.23188871E+04</pdfrwt>
<totfact> 0.57757920E+00</totfact>
</mgrwt>
<rwgt>
<wgt id='morphing_basis_vector_1'> +9.9111915e-05 </wgt>
<wgt id='morphing_basis_vector_2'> +9.1105752e-05 </wgt>
<wgt id='morphing_basis_vector_3'> +1.1142842e-04 </wgt>
<wgt id='morphing_basis_vector_4'> +4.5083163e-05 </wgt>
<wgt id='morphing_basis_vector_5'> +1.0515095e-04 </wgt>
</rwgt>
</event>
<event>
 4      1 +2.2016400e-08 2.40982300e+03 7.81860800e-03 7.92153000e-02
        2 -1    0    0  501    0 +0.0000000000e+00 +0.0000000000e+00 +1.3604353548e+03 1.3604353548e+03 0.0000000000e+00 0.0000e+00 1.0000e+00
       -2 -1    0    0    0  501 -0.0000000000e+00 -0.0000000000e+00 -1.0671667589e+03 1.0671667589e+03 0.0000000000e+00 0.0000e+00 -1.0000e+00
      -13  1    1    2    0    0 -1.7959902187e+02 -9.1760884217e+02 +9.1220808115e+02 1.3062868671e+03 0.0000000000e+00 0.0000e+00 1.0000e+00
       13  1    1    2    0    0 +1.7959902187e+02 +9.1760884217e+02 -6.1893948525e+02 1.1213152466e+03 0.0000000000e+00 0.0000e+00 -1.0000e+00
<mgrwt>
<rscale>  0 0.24098227E+04</rscale>
<asrwt>0</asrwt>
<pdfrwt beam="1">  1        2 0.20929775E+00 0.24098227E+04</pdfrwt>
<pdfrwt beam="2">  1       -2 0.16417950E+00 0.24098227E+04</pdfrwt>
<totfact> 0.38146884E+00</totfact>
</mgrwt>
<rwgt>
<wgt id='morphing_basis_vector_1'> +1.2866345e-04 </wgt>
<wgt id='morphing_basis_vector_2'> +1.4542890e-04 </wgt>
<wgt id='morphing_basis_vector_3'> +1.5024471e-04 </wgt>
<wgt id='morphing_basis_vector_4'> +2.5495984e-05 </wgt>
<wgt id='morphing_basis_vector_5'> +1.2070732e-04 </wgt>
</rwgt>
</event>
<event>
 4      1 +2.2016400e-08 2.51224300e+03 7.81860800e-03 7.88880400e-02
        2 -1    0    0  501    0 +0.0000000000e+00 +0.0000000000e+00 +1.7381115782e+03 1.7381115782e+03 0.0000000000e+00 0.0000e+00 -1.0000e+00
       -2 -1    0    0    0  501 -0.0000000000e+00 -0.0000000000e+00 -9.0779063704e+02 9.0779063704e+02 0.0000000000e+00 0.0000e+00 1.0000e+00
      -13  1    1    2    0    0 +1.1477190498e+03 -2.5135930178e+02 -5.2775772312e+01 1.1761062018e+03 0.0000000000e+00 0.0000e+00 1.0000e+00
       13  1    1    2    0    0 -1.1477190498e+03 +2.5135930178e+02 +8.8309671350e+02 1.4697960135e+03 0.0000000000e+00 0.0000e+00 -1.0000e+00
<mgrwt>
<rscale>  0 0.25122432E+04</rscale>
<asrwt>0</asrwt>
<pdfrwt beam="1">  1        2 0.26740178E+00 0.25122432E+04</pdfrwt>
<pdfrwt beam="2">  1       -2 0.13966010E+00 0.25122432E+04</pdfrwt>
<totfact> 0.36988057E+00</totfact>
</mgrwt>
<rwgt>
<wgt id='morphing_basis_vector_1'> +1.2216025e-04 </wgt>
<wgt id='morphing_basis_vector_2'> +8.4491686e-05 </wgt>
<wgt id='morphing_basis_vector_3'> +1.3265177e-04 </wgt>
<wgt id='morphing_basis_vector_4'> +9.0594727e-05 </wgt>
<wgt id='morphing_basis_vector_5'> +1.4776672e-04 </wgt>
</rwgt>
</event>
<event>
 4      1 +2.2016400e-08 2.35108400e+03 7.81860800e-03 7.94106100e-02
        2 -1    0    0  501    0 +0.0000000000e+00 +0.0000000000e+00 +2.5099139402e+03 2.5099139402e+03 0.0000000000e+00 0.0000e+00 -1.0000e+00
       -2 -1    0    0    0  501 -0.0000000000e+00 -0.0000000000e+00 -5.5057609611e+02 5.5057609611e+02 0.0000000000e+00 0.0000e+00 1.0000e+00
      -13  1    1    2    0    0 -4.0487572093e+02 +3.3382574899e+02 -3.8965245979e+02 6.5360004552e+02 0.0000000000e+00 0.0000e+00 1.0000e+00
       13  1    1    2    0    0 +4.0487572093e+02 -3.3382574899e+02 +2.3489903039e+03 2.4068899908e+03 0.0000000000e+00 0.0000e+00 -1.0000e+00
<mgrwt>
<rscale>  0 0.23510837E+04</rscale>
<asrwt>0</asrwt>
<pdfrwt beam="1">  1        2 0.38614060E+00 0.23510837E+04</pdfrwt>
<pdfrwt beam="2">  1       -2 0.84704016E-01 0.23510837E+04</pdfrwt>
<totfact> 0.47559937E+00</totfact>
</mgrwt>
<rwgt>
<wgt id='morphing_basis_vector_1'> +9.3214568e-05 </wgt>
<wgt id='morphing_basis_vector_2'> +6.2457760e-05 </wgt>
<wgt id='morphing_basis_vector_3'> +1.0051366e-04 </wgt>
<wgt id='morphing_basis_vector_4'> +7.0941875e-05 </wgt>
<wgt id='morphing_basis_vector_5'> +1.1307499e-04 </wgt>
</rwgt>
</event>
<event>
 4      1 +2.2016400e-08 2.50680800e+03 7.81860800e-03 7.89050000e-02
        2 -1    0    0  501    0 +0.0000000000e+00 +0.0000000000e+00 +1.4852377174e+03 1.4852377174e+03 0.0000000000e+00 0.0000e+00 1.0000e+00
       -2 -1    0    0    0  501 -0.0000000000e+00 -0.0000000000e+00 -1.0577574014e+03 1.0577574014e+03 0.0000000000e+00 0.0000e+00 -1.0000e+00
      -13  1    1    2    0    0 +3.1777486214e+02 -8.3528149221e+02 -6.7777806080e+02 1.1216323524e+03 0.0000000000e+00 0.0000e+00 -1.0000e+00
       13  1    1    2    0    0 -3.1777486214e+02 +8.3528149221e+02 +1.1052583768e+03 1.4213627664e+03 0.0000000000e+00 0.0000e+00 1.0000e+00
<mgrwt>
<rscale>  0 0.25068077E+04</rscale>
<asrwt>0</asrwt>
<pdfrwt beam="1">  1        2 0.22849811E+00 0.25068077E+04</pdfrwt>
<pdfrwt beam="2">  1       -2 0.16273191E+00 0.25068077E+04</pdfrwt>
<totfact> 0.33034326E+00</totfact>
</mgrwt>
<rwgt>
<wgt id='morphing_basis_vector_1'> +1.2018391e-04 </wgt>
<wgt id='morphing_basis_vector_2'> +8.1004814e-05 </wgt>
<wgt id='morphing_basis_vector_3'> +1.3007884e-04 </wgt>
<wgt id='morphing_basis_vector_4'> +9.1722429e-05 </wgt>
<wgt id='morphing_basis_vector_5'> +1.4663149e-04 </wgt>
</rwgt>
</event>
<event>
 4      1 +2.2016400e-08 2.49415000e+03 7.81860800e-03 7.89446800e-02
        2 -1    0    0  501    0 +0.0000000000e+00 +0.0000000000e+00 +2.5859433406e+03 2.5859433406e+03 0.0000000000e+00 0.0000e+00 1.0000e+00
       -2 -1    0    0    0  501 -0.0000000000e+00 -0.0000000000e+00 -6.0140369452e+02 6.0140369452e+02 0.0000000000e+00 0.0000e+00 -1.0000e+00
      -13  1    1    2    0    0 +1.1470175983e+02 +1.2402320380e+03 +9.1283362344e+02 1.5442141127e+03 0.0000000000e+00 0.0000e+00 -1.0000e+00
       13  1    1    2    0    0 -1.1470175983e+02 -1.2402320380e+03 +1.0717060226e+03 1.6431329224e+03 0.0000000000e+00 0.0000e+00 1.0000e+00
<mgrwt>
<rscale>  0 0.24941499E+04</rscale>
<asrwt>0</asrwt>
<pdfrwt beam="1">  1        2 0.39783743E+00 0.24941499E+04</pdfrwt>
<pdfrwt beam="2">  1       -2 0.92523647E-01 0.24941499E+04</pdfrwt>
<totfact> 0.34420726E+00</totfact>
</mgrwt>
<rwgt>
<wgt id='morphing_basis_vector_1'> +1.2125697e-04 </wgt>
<wgt id='morphing_basis_vector_2'> +8.9573439e-05 </wgt>
<wgt id='morphing_basis_vector_3'> +1.3273899e-04 </wgt>
<wgt id='morphing_basis_vector_4'> +8.2791014e-05 </wgt>
<wgt id='morphing_basis_vector_5'> +1.4308216e-04 </wgt>
</rwgt>
</event>
<event>
 4      1 +2.2016400e-08 2.26808400e+03 7.81860800e-03 7.96968300e-02
        2 -1    0    0  501    0 +0.0000000000e+00 +0.0000000000e+00 +7.6061681991e+02 7.6061681991e+02 0.0000000000e+00 0.0000e+00 -1.0000e+00
       -2 -1    0    0    0  501 -0.0000000000e+00 -0.0000000000e+00 -1.6907999347e+03 1.6907999347e+03 0.0000000000e+00 0.0000e+00 1.0000e+00
      -13  1    1    2    0    0 -8.2938014776e+02 +7.0874660574e+02 -7.9972670753e+02 1.3526847332e+03 0.0000000000e+00 0.0000e+00 1.0000e+00
       13  1    1    2    0    0 +8.2938014776e+02 -7.0874660574e+02 -1.3045640722e+02 1.0987320214e+03 0.0000000000e+00 0.0000e+00 -1.0000e+00
<mgrwt>
<rscale>  0 0.22680837E+04</rscale>
<asrwt>0</asrwt>
<pdfrwt beam="1">  1        2 0.11701797E+00 0.22680837E+04</pdfrwt>
<pdfrwt beam="2">  1       -2 0.26012306E+00 0.22680837E+04</pdfrwt>
<totfact> 0.18321661E+00</totfact>
</mgrwt>
<rwgt>
<wgt id='morphing_basis_vector_1'> +8.1934678e-05 </wgt>
<wgt id='morphing_basis_vector_2'> +5.7172638e-05 </wgt>
<wgt id='morphing_basis_vector_3'> +8.8606328e-05 </wgt>
<wgt id='morphing_basis_vector_4'> +5.9235712e-05 </wgt>
<wgt id='morphing_basis_vector_5'> +9.7554989e-05 </wgt>
</rwgt>
</event>
<event>
 4      1 +2.2016400e-08 2.53246300e+03 7.81860800e-03 7.88253200e-02
        2 -1    0    0  501    0 +0.0000000000e+00 +0.0000000000e+00 +2.7224397045e+03 2.7224397045e+03 0.0000000000e+00 0.0000e+00 -1.0000e+00
       -2 -1    0    0    0  501 -0.0000000000e+00 -0.0000000000e+00 -5.8893557615e+02 5.8893557615e+02 0.0000000000e+00 0.0000e+00 1.0000e+00
      -13  1    1    2    0    0 +2.4745611924e+02 -7.8330661845e+02 -1.9323234869e+02 8.4388537731e+02 0.0000000000e+00 0.0000e+00 1.0000e+00
       13  1    1    2    0    0 -2.4745611924e+02 +7.8330661845e+02 +2.3267364770e+03 2.4674899033e+03 0.0000000000e+00 0.0000e+00 -1.0000e+00
<mgrwt>
<rscale>  0 0.25324625E+04</rscale>
<asrwt>0</asrwt>
<pdfrwt beam="1">  1        2 0.41883687E+00 0.25324625E+04</pdfrwt>
<pdfrwt beam="2">  1       -2 0.90605475E-01 0.25324625E+04</pdfrwt>
<totfact> 0.29732933E+00</totfact>
</mgrwt>
<rwgt>
<wgt id='morphing_basis_vector_1'> +1.2505155e-04 </wgt>
<wgt id='morphing_basis_vector_2'> +8.4168256e-05 </wgt>
<wgt id='morphing_basis_vector_3'> +1.3538465e-04 </wgt>
<wgt id='morphing_basis_vector_4'> +9.5712018e-05 </wgt>
<wgt id='morphing_basis_vector_5'> +1.5281570e-04 </wgt>
</rwgt>
</event>
<event>
 4      1 +2.2016400e-08 2.30753400e+03 7.81860800e-03 7.95592400e-02
        2 -1    0    0  501    0 +0.0000000000e+00 +0.0000000000e+00 +2.6215933151e+03 2.6215933151e+03 0.0000000000e+00 0.0000e+00 1.0000e+00
       -2 -1    0    0    0  501 -0.0000000000e+00 -0.0000000000e+00 -5.0777470148e+02 5.0777470148e+02 0.0000000000e+00 0.0000e+00 -1.0000e+00
      -13  1    1    2    0    0 -1.0861242672e+03 -2.9790355097e+02 +7.1714968523e+02 1.3351839276e+03 0.0000000000e+00 0.0000e+00 -1.0000e+00
       13  1    1    2    0    0 +1.0861242672e+03 +2.9790355097e+02 +1.3966689284e+03 1.7941840890e+03 0.0000000000e+00 0.0000e+00 1.0000e+00
<mgrwt>
<rscale>  0 0.23075344E+04</rscale>
<asrwt>0</asrwt>
<pdfrwt beam="1">  1        2 0.40332204E+00 0.23075344E+04</pdfrwt>
<pdfrwt beam="2">  1       -2 0.78119186E-01 0.23075344E+04</pdfrwt>
<totfact> 0.49163413E+00</totfact>
</mgrwt>
<rwgt>
<wgt id='morphing_basis_vector_1'> +8.7976865e-05 </wgt>
<wgt id='morphing_basis_vector_2'> +6.2067203e-05 </wgt>
<wgt id='morphing_basis_vector_3'> +9.5358456e-05 </wgt>
<wgt id='morphing_basis_vector_4'> +6.2952240e-05 </wgt>
<wgt id='morphing_basis_vector_5'> +1.0458532e-04 </wgt>
</rwgt>
</event>
<event>
 4      1 +2.2016400e-08 2.32020100e+03 7.81860800e-03 7.95156600e-02
        2 -1    0    0  501    0 +0.0000000000e+00 +0.0000000000e+00 +2.3617051500e+03 2.3617051500e+03 0.0000000000e+00 0.0000e+00 -1.0000e+00
       -2 -1    0    0    0  501 -0.0000000000e+00 -0.0000000000e+00 -5.6985643526e+02 5.6985643526e+02 0.0000000000e+00 0.0000e+00 1.0000e+00
      -13  1    1    2    0    0 +7.4993572215e+01 -1.0722377991e+03 +3.4443392333e+02 1.1286951143e+03 0.0000000000e+00 0.0000e+00 1.0000e+00
       13  1    1    2    0    0 -7.4993572215e+01 +1.0722377991e+03 +1.4474147914e+03 1.8028664709e+03 0.0000000000e+00 0.0000e+00 -1.0000e+00
<mgrwt>
<rscale>  0 0.23202007E+04</rscale>
<asrwt>0</asrwt>
<pdfrwt beam="1">  1        2 0.36333925E+00 0.23202007E+04</pdfrwt>
<pdfrwt beam="2">  1       -2 0.87670222E-01 0.23202007E+04</pdfrwt>
<totfact> 0.53871243E+00</totfact>
</mgrwt>
<rwgt>
<wgt id='morphing_basis_vector_1'> +8.9193795e-05 </wgt>
<wgt id='morphing_basis_vector_2'> +6.1361358e-05 </wgt>
<wgt id='morphing_basis_vector_3'> +9.6413162e-05 </wgt>
<wgt id='morphing_basis_vector_4'> +6.5790414e-05 </wgt>
<wgt id='morphing_basis_vector_5'> +1.0705011e-04 </wgt>
</rwgt>
</event>
<event>
 4      1 +2.2016400e-08 2.26173600e+03 7.81860800e-03 7.97192300e-02
        2 -1    0    0  501    0 +0.0000000000e+00 +0.0000000000e+00 +1.2738217750e+03 1.2738217750e+03 0.0000000000e+00 0.0000e+00 -1.0000e+00
       -2 -1    0    0    0  501 -0.0000000000e+00 -0.0000000000e+00 -1.0039573574e+03 1.0039573574e+03 0.0000000000e+00 0.0000e+00 1.0000e+00
      -13  1    1    2    0    0 -8.9638894583e+02 +3.3306183631e+02 -4.7302134199e+02 1.0668610589e+03 0.0000000000e+00 0.0000e+00 1.0000e+00
       13  1    1    2    0    0 +8.9638894583e+02 -3.3306183631e+02 +7.4288575956e+02 1.2109180735e+03 0.0000000000e+00 0.0000e+00 -1.0000e+00
<mgrwt>
<rscale>  0 0.22617363E+04</rscale>
<asrwt>0</asrwt>
<pdfrwt beam="1">  1        2 0.19597258E+00 0.22617363E+04</pdfrwt>
<pdfrwt beam="2">  1       -2 0.15445498E+00 0.22617363E+04</pdfrwt>
<totfact> 0.51831319E+00</totfact>
</mgrwt>
<rwgt>
<wgt id='morphing_basis_vector_1'> +8.0309030e-05 </wgt>
<wgt id='morphing_basis_vector_2'> +5.4392783e-05 </wgt>
<wgt id='morphing_basis_vector_3'> +8.6530510e-05 </wgt>
<wgt id='morphing_basis_vector_4'> +6.0037341e-05 </wgt>
<wgt id='morphing_basis_vector_5'> +9.6568694e-05 </wgt>
</rwgt>
</event>
<event>
 4      1 +2.2016400e-08 2.46754500e+03 7.81860800e-03 7.90288600e-02
        2 -1    0    0  501    0 +0.0000000000e+00 +0.0000000000e+00 +2.6624866883e+03 2.6624866883e+03 0.0000000000e+00 0.0000e+00 -1.0000e+00
       -2 -1    0    0    0  501 -0.0000000000e+00 -0.0000000000e+00 -5.7171913075e+02 5.7171913075e+02 0.0000000000e+00 0.0000e+00 1.0000e+00
      -13  1    1    2    0    0 -1.2149254738e+03 -1.3632153113e+01 +1.3263896634e+03 1.7987604848e+03 0.0000000000e+00 0.0000e+00 1.0000e+00
       13  1    1    2    0    0 +1.2149254738e+03 +1.3632153113e+01 +7.6437789420e+02 1.4354453343e+03 0.0000000000e+00 0.0000e+00 -1.0000e+00
<mgrwt>
<rscale>  0 0.24675450E+04</rscale>
<asrwt>0</asrwt>
<pdfrwt beam="1">  1        2 0.40961333E+00 0.24675450E+04</pdfrwt>
<pdfrwt beam="2">  1       -2 0.87956791E-01 0.24675450E+04</pdfrwt>
<totfact> 0.34886569E+00</totfact>
</mgrwt>
<rwgt>
<wgt id='morphing_basis_vector_1'> +1.2036350e-04 </wgt>
<wgt id='morphing_basis_vector_2'> +9.8032064e-05 </wgt>
<wgt id='morphing_basis_vector_3'> +1.3345693e-04 </wgt>
<wgt id='morphing_basis_vector_4'> +7.0815978e-05 </wgt>
<wgt id='morphing_basis_vector_5'> +1.3631385e-04 </wgt>
</rwgt>
</event>
<event>
 4      1 +2.2016400e-08 2.43123800e+03 7.81860800e-03 7.91455100e-02
        2 -1    0    0  501    0 +0.0000000000e+00 +0.0000000000e+00 +2.3888751154e+03 2.3888751154e+03 0.0000000000e+00 0.0000e+00 -1.0000e+00
       -2 -1    0    0    0  501 -0.0000000000e+00 -0.0000000000e+00 -6.1858813141e+02 6.1858813141e+02 0.0000000000e+00 0.0000e+00 1.0000e+00
      -13  1    1    2    0    0 -9.2879772546e+02 -7.7479506604e+02 +7.3487270059e+02 1.4152775329e+03 0.0000000000e+00 0.0000e+00 1.0000e+00
       13  1    1    2    0    0 +9.2879772546e+02 +7.7479506604e+02 +1.0354142834e+03 1.5921857139e+03 0.0000000000e+00 0.0000e+00 -1.0000e+00
<mgrwt>
<rscale>  0 0.24312382E+04</rscale>
<asrwt>0</asrwt>
<pdfrwt beam="1">  1        2 0.36751924E+00 0.24312382E+04</pdfrwt>
<pdfrwt beam="2">  1       -2 0.95167406E-01 0.24312382E+04</pdfrwt>
<totfact> 0.42436575E+00</totfact>
</mgrwt>
<rwgt>
<wgt id='morphing_basis_vector_1'> +1.0907432e-04 </wgt>
<wgt id='morphing_basis_vector_2'> +7.9293758e-05 </wgt>
<wgt id='morphing_basis_vector_3'> +1.1900076e-04 </wgt>
<wgt id='morphing_basis_vector_4'> +7.5782575e-05 </wgt>
<wgt id='morphing_basis_vector_5'> +1.2910153e-04 </wgt>
</rwgt>
</event>
<event>
 4      1 +2.2016400e-08 2.40266000e+03 7.81860800e-03 7.92388100e-02
        2 -1    0    0  501    0 +0.0000000000e+00 +0.0000000000e+00 +1.3534558967e+03 1.3534558967e+03 0.0000000000e+00 0.0000e+00 -1.0000e+00
       -2 -1    0    0    0  501 -0.0000000000e+00 -0.0000000000e+00 -1.0663026468e+03 1.0663026468e+03 0.0000000000e+00 0.0000e+00 1.0000e+00
      -13  1    1    2    0    0 -3.3378715174e+02 +4.8880282612e+02 -9.0925839571e+02 1.0849391207e+03 0.0000000000e+00 0.0000e+00 1.0000e+00
       13  1    1    2    0    0 +3.3378715174e+02 -4.8880282612e+02 +1.1964116457e+03 1.3348194228e+03 0.0000000000e+00 0.0000e+00 -1.0000e+00
<mgrwt>
<rscale>  0 0.24026599E+04</rscale>
<asrwt>0</asrwt>
<pdfrwt beam="1">  1        2 0.20822399E+00 0.24026599E+04</pdfrwt>
<pdfrwt beam="2">  1       -2 0.16404656E+00 0.24026599E+04</pdfrwt>
<totfact> 0.38613410E+00</totfact>
</mgrwt>
<rwgt>
<wgt id='morphing_basis_vector_1'> +1.0154743e-04 </wgt>
<wgt id='morphing_basis_vector_2'> +6.8107506e-05 </wgt>
<wgt id='morphing_basis_vector_3'> +1.0962820e-04 </wgt>
<wgt id='morphing_basis_vector_4'> +7.7452733e-05 </wgt>
<wgt id='morphing_basis_vector_5'> +1.2347932e-04 </wgt>
</rwgt>
</event>
<event>
 4      1 +2.2016400e-08 2.38230400e+03 7.81860800e-03 7.93060800e-02
        2 -1    0    0  501    0 +0.0000000000e+00 +0.0000000000e+00 +3.1231796244e+03 3.1231796244e+03 0.0000000000e+00 0.0000e+00 1.0000e+00
       -2 -1    0    0    0  501 -0.0000000000e+00 -0.0000000000e+00 -4.5429456297e+02 4.5429456297e+02 0.0000000000e+00 0.0000e+00 -1.0000e+00
      -13  1    1    2    0    0 +7.7058921603e+02 +8.3189056051e+02 +7.8680262469e+02 1.3801840510e+03 0.0000000000e+00 0.0000e+00 -1.0000e+00
       13  1    1    2    0    0 -7.7058921603e+02 -8.3189056051e+02 +1.8820824367e+03 2.1972901363e+03 0.0000000000e+00 0.0000e+00 1.0000e+00
<mgrwt>
<rscale>  0 0.23823044E+04</rscale>
<asrwt>0</asrwt>
<pdfrwt beam="1">  1        2 0.48048916E+00 0.23823044E+04</pdfrwt>
<pdfrwt beam="2">  1       -2 0.69891473E-01 0.23823044E+04</pdfrwt>
<totfact> 0.29921503E+00</totfact>
</mgrwt>
<rwgt>
<wgt id='morphing_basis_vector_1'> +9.9270897e-05 </wgt>
<wgt id='morphing_basis_vector_2'> +6.9012237e-05 </wgt>
<wgt id='morphing_basis_vector_3'> +1.0758916e-04 </wgt>
<wgt id='morphing_basis_vector_4'> +7.2637732e-05 </wgt>
<wgt id='morphing_basis_vector_5'> +1.1911429e-04 </wgt>
</rwgt>
</event>
<event>
 4      1 +2.2016400e-08 2.41511100e+03 7.81860800e-03 7.91979900e-02
        2 -1    0    0  501    0 +0.0000000000e+00 +0.0000000000e+00 +2.1602119679e+03 2.1602119679e+03 0.0000000000e+00 0.0000e+00 -1.0000e+00
       -2 -1    0    0    0  501 -0.0000000000e+00 -0.0000000000e+00 -6.7502200053e+02 6.7502200053e+02 0.0000000000e+00 0.0000e+00 1.0000e+00
      -13  1    1    2    0    0 +2.8898716903e+02 +7.3579413959e+02 -3.2904345422e+02 8.5625708434e+02 0.0000000000e+00 0.0000e+00 1.0000e+00
       13  1    1    2    0    0 -2.8898716903e+02 -7.3579413959e+02 +1.8142334215e+03 1.9789768840e+03 0.0000000000e+00 0.0000e+00 -1.0000e+00
<mgrwt>
<rscale>  0 0.24151113E+04</rscale>
<asrwt>0</asrwt>
<pdfrwt beam="1">  1        2 0.33234030E+00 0.24151113E+04</pdfrwt>
<pdfrwt beam="2">  1       -2 0.10384954E+00 0.24151113E+04</pdfrwt>
<totfact> 0.46698510E+00</totfact>
</mgrwt>
<rwgt>
<wgt id='morphing_basis_vector_1'> +1.0369981e-04 </wgt>
<wgt id='morphing_basis_vector_2'> +6.9702044e-05 </wgt>
<wgt id='morphing_basis_vector_3'> +1.1200842e-04 </wgt>
<wgt id='morphing_basis_vector_4'> +7.8968255e-05 </wgt>
<wgt id='morphing_basis_vector_5'> +1.2608487e-04 </wgt>
</rwgt>
</event>
<event>
 4      1 +2.2016400e-08 2.58271000e+03 7.81860800e-03 7.86720200e-02
        2 -1    0    0  501    0 +0.0000000000e+00 +0.0000000000e+00 +2.8604601094e+03 2.8604601094e+03 0.0000000000e+00 0.0000e+00 1.0000e+00
       -2 -1    0    0    0  501 -0.0000000000e+00 -0.0000000000e+00 -5.8298228528e+02 5.8298228528e+02 0.0000000000e+00 0.0000e+00 -1.0000e+00
      -13  1    1    2    0    0 -7.5869593967e+02 -6.5946609603e+02 +5.7984160951e+01 1.0069147052e+03 0.0000000000e+00 0.0000e+00 -1.0000e+00
       13  1    1    2    0    0 +7.5869593967e+02 +6.5946609603e+02 +2.2194936632e+03 2.4365276895e+03 0.0000000000e+00 0.0000e+00 1.0000e+00
<mgrwt>
<rscale>  0 0.25827099E+04</rscale>
<asrwt>0</asrwt>
<pdfrwt beam="1">  1        2 0.44007078E+00 0.25827099E+04</pdfrwt>
<pdfrwt beam="2">  1       -2 0.89689584E-01 0.25827099E+04</pdfrwt>
<totfact> 0.24846502E+00</totfact>
</mgrwt>
<rwgt>
<wgt id='morphing_basis_vector_1'> +1.3532823e-04 </wgt>
<wgt id='morphing_basis_vector_2'> +9.1558583e-05 </wgt>
<wgt id='morphing_basis_vector_3'> +1.4672654e-04 </wgt>
<wgt id='morphing_basis_vector_4'> +1.0325391e-04 </wgt>
<wgt id='morphing_basis_vector_5'> +1.6543779e-04 </wgt>
</rwgt>
</event>
<event>
 4      1 +2.2016400e-08 2.52823600e+03 7.81860800e-03 7.88383800e-02
        2 -1    0    0  501    0 +0.0000000000e+00 +0.0000000000e+00 +3.0936181892e+03 3.0936181892e+03 0.0000000000e+00 0.0000e+00 1.0000e+00
       -2 -1    0    0    0  501 -0.0000000000e+00 -0.0000000000e+00 -5.1654529930e+02 5.1654529930e+02 0.0000000000e+00 0.0000e+00 -1.0000e+00
      -13  1    1    2    0    0 -7.3764291300e+02 -5.0915341626e+01 -1.7555917147e+02 7.5995424980e+02 0.0000000000e+00 0.0000e+00 -1.0000e+00
       13  1    1    2    0    0 +7.3764291300e+02 +5.0915341626e+01 +2.7526320614e+03 2.8502092387e+03 0.0000000000e+00 0.0000e+00 1.0000e+00
<mgrwt>
<rscale>  0 0.25282357E+04</rscale>
<asrwt>0</asrwt>
<pdfrwt beam="1">  1        2 0.47594125E+00 0.25282357E+04</pdfrwt>
<pdfrwt beam="2">  1       -2 0.79468509E-01 0.25282357E+04</pdfrwt>
<totfact> 0.23292939E+00</totfact>
</mgrwt>
<rwgt>
<wgt id='morphing_basis_vector_1'> +1.2419135e-04 </wgt>
<wgt id='morphing_basis_vector_2'> +8.3498614e-05 </wgt>
<wgt id='morphing_basis_vector_3'> +1.3442585e-04 </wgt>
<wgt id='morphing_basis_vector_4'> +9.5144816e-05 </wgt>
<wgt id='morphing_basis_vector_5'> +1.5179167e-04 </wgt>
</rwgt>
</event>
<event>
 4      1 +2.2016400e-08 2.29259700e+03 7.81860800e-03 7.96110000e-02
        2 -1    0    0  501    0 +0.0000000000e+00 +0.0000000000e+00 +1.3989734780e+03 1.3989734780e+03 0.0000000000e+00 0.0000e+00 -1.0000e+00
       -2 -1    0    0    0  501 -0.0000000000e+00 -0.0000000000e+00 -9.3926057133e+02 9.3926057133e+02 0.0000000000e+00 0.0000e+00 1.0000e+00
      -13  1    1    2    0    0 -4.9785793918e+02 +8.9660112831e+02 -2.9243558664e+02 1.0664308150e+03 0.0000000000e+00 0.0000e+00 1.0000e+00
       13  1    1    2    0    0 +4.9785793918e+02 -8.9660112831e+02 +7.5214849335e+02 1.2718032344e+03 0.0000000000e+00 0.0000e+00 -1.0000e+00
<mgrwt>
<rscale>  0 0.22925973E+04</rscale>
<asrwt>0</asrwt>
<pdfrwt beam="1">  1        2 0.21522669E+00 0.22925973E+04</pdfrwt>
<pdfrwt beam="2">  1       -2 0.14450163E+00 0.22925973E+04</pdfrwt>
<totfact> 0.53040433E+00</totfact>
</mgrwt>
<rwgt>
<wgt id='morphing_basis_vector_1'> +8.4891005e-05 </wgt>
<wgt id='morphing_basis_vector_2'> +5.7934198e-05 </wgt>
<wgt id='morphing_basis_vector_3'> +9.1616149e-05 </wgt>
<wgt id='morphing_basis_vector_4'> +6.3067900e-05 </wgt>
<wgt id='morphing_basis_vector_5'> +1.0200437e-04 </wgt>
</rwgt>
</event>
<event>
 4      1 +2.2016400e-08 2.27472100e+03 7.81860800e-03 7.96734800e-02
        2 -1    0    0  501    0 +0.0000000000e+00 +0.0000000000e+00 +1.4592331431e+03 1.4592331431e+03 0.0000000000e+00 0.0000e+00 -1.0000e+00
       -2 -1    0    0    0  501 -0.0000000000e+00 -0.0000000000e+00 -8.8648551318e+02 8.8648551318e+02 0.0000000000e+00 0.0000e+00 1.0000e+00
      -13  1    1    2    0    0 -7.5475157542e+02 -3.9655947858e+02 +1.0626505717e+03 1.3624006746e+03 0.0000000000e+00 0.0000e+00 1.0000e+00
       13  1    1    2    0    0 +7.5475157542e+02 +3.9655947858e+02 -4.8990294181e+02 9.8331798165e+02 0.0000000000e+00 0.0000e+00 -1.0000e+00
<mgrwt>
<rscale>  0 0.22747211E+04</rscale>
<asrwt>0</asrwt>
<pdfrwt beam="1">  1        2 0.22449741E+00 0.22747211E+04</pdfrwt>
<pdfrwt beam="2">  1       -2 0.13638239E+00 0.22747211E+04</pdfrwt>
<totfact> 0.57664814E+00</totfact>
</mgrwt>
<rwgt>
<wgt id='morphing_basis_vector_1'> +1.0383881e-04 </wgt>
<wgt id='morphing_basis_vector_2'> +1.1975502e-04 </wgt>
<wgt id='morphing_basis_vector_3'> +1.2108132e-04 </wgt>
<wgt id='morphing_basis_vector_4'> +1.7464134e-05 </wgt>
<wgt id='morphing_basis_vector_5'> +9.5310653e-05 </wgt>
</rwgt>
</event>
<event>
 4      1 +2.2016400e-08 2.34722900e+03 7.81860800e-03 7.94236300e-02
        2 -1    0    0  501    0 +0.0000000000e+00 +0.0000000000e+00 +1.7880330370e+03 1.7880330370e+03 0.0000000000e+00 0.0000e+00 -1.0000e+00
       -2 -1    0    0    0  501 -0.0000000000e+00 -0.0000000000e+00 -7.7032725726e+02 7.7032725726e+02 0.0000000000e+00 0.0000e+00 1.0000e+00
      -13  1    1    2    0    0 -7.5289174278e+02 +7.3411000064e+02 -5.9184444140e+01 1.0532171038e+03 0.0000000000e+00 0.0000e+00 1.0000e+00
       13  1    1    2    0    0 +7.5289174278e+02 -7.3411000064e+02 +1.0768902239e+03 1.5051431905e+03 0.0000000000e+00 0.0000e+00 -1.0000e+00
<mgrwt>
<rscale>  0 0.23472287E+04</rscale>
<asrwt>0</asrwt>
<pdfrwt beam="1">  1        2 0.27508200E+00 0.23472287E+04</pdfrwt>
<pdfrwt beam="2">  1       -2 0.11851189E+00 0.23472287E+04</pdfrwt>
<totfact> 0.54557061E+00</totfact>
</mgrwt>
<rwgt>
<wgt id='morphing_basis_vector_1'> +9.3151290e-05 </wgt>
<wgt id='morphing_basis_vector_2'> +6.3639356e-05 </wgt>
<wgt id='morphing_basis_vector_3'> +1.0066823e-04 </wgt>
<wgt id='morphing_basis_vector_4'> +6.9377195e-05 </wgt>
<wgt id='morphing_basis_vector_5'> +1.1223637e-04 </wgt>
</rwgt>
</event>
<event>
 4      1 +2.2016400e-08 2.38769400e+03 7.81860800e-03 7.92882000e-02
        2 -1    0    0  501    0 +0.0000000000e+00 +0.0000000000e+00 +1.9971680936e+03 1.9971680936e+03 0.0000000000e+00 0.0000e+00 -1.0000e+00
       -2 -1    0    0    0  501 -0.0000000000e+00 -0.0000000000e+00 -7.1364571946e+02 7.1364571946e+02 0.0000000000e+00 0.0000e+00 1.0000e+00
      -13  1    1    2    0    0 -9.1343348458e+02 +5.6069057522e+01 -2.2864762435e+02 9.4328373573e+02 0.0000000000e+00 0.0000e+00 1.0000e+00
       13  1    1    2    0    0 +9.1343348458e+02 -5.6069057522e+01 +1.5121699985e+03 1.7675300774e+03 0.0000000000e+00 0.0000e+00 -1.0000e+00
<mgrwt>
<rscale>  0 0.23876938E+04</rscale>
<asrwt>0</asrwt>
<pdfrwt beam="1">  1        2 0.30725663E+00 0.23876938E+04</pdfrwt>
<pdfrwt beam="2">  1       -2 0.10979165E+00 0.23876938E+04</pdfrwt>
<totfact> 0.50439544E+00</totfact>
</mgrwt>
<rwgt>
<wgt id='morphing_basis_vector_1'> +9.9246839e-05 </wgt>
<wgt id='morphing_basis_vector_2'> +6.6940670e-05 </wgt>
<wgt id='morphing_basis_vector_3'> +1.0718389e-04 </wgt>
<wgt id='morphing_basis_vector_4'> +7.5166805e-05 </wgt>
<wgt id='morphing_basis_vector_5'> +1.2036121e-04 </wgt>
</rwgt>
</event>
<event>
 4      1 +2.2016400e-08 2.39912100e+03 7.81860800e-03 7.92504500e-02
        2 -1    0    0  501    0 +0.0000000000e+00 +0.0000000000e+00 +1.6717728246e+03 1.6717728246e+03 0.0000000000e+00 0.0000e+00 1.0000e+00
       -2 -1    0    0    0  501 -0.0000000000e+00 -0.0000000000e+00 -8.6073030046e+02 8.6073030046e+02 0.0000000000e+00 0.0000e+00 -1.0000e+00
      -13  1    1    2    0    0 +4.2474704651e+02 +1.0914023569e+03 +1.3152059904e+02 1.1785019415e+03 0.0000000000e+00 0.0000e+00 -1.0000e+00
       13  1    1    2    0    0 -4.2474704651e+02 -1.0914023569e+03 +6.7952192507e+02 1.3540011835e+03 0.0000000000e+00 0.0000e+00 1.0000e+00
<mgrwt>
<rscale>  0 0.23991211E+04</rscale>
<asrwt>0</asrwt>
<pdfrwt beam="1">  1        2 0.25719582E+00 0.23991211E+04</pdfrwt>
<pdfrwt beam="2">  1       -2 0.13242005E+00 0.23991211E+04</pdfrwt>
<totfact> 0.47054457E+00</totfact>
</mgrwt>
<rwgt>
<wgt id='morphing_basis_vector_1'> +1.0256896e-04 </wgt>
<wgt id='morphing_basis_vector_2'> +7.2462901e-05 </wgt>
<wgt id='morphing_basis_vector_3'> +1.1142431e-04 </wgt>
<wgt id='morphing_basis_vector_4'> +7.3706762e-05 </wgt>
<wgt id='morphing_basis_vector_5'> +1.2247828e-04 </wgt>
</rwgt>
</event>
<event>
 4      1 +2.2016400e-08 2.32334800e+03 7.81860800e-03 7.95048800e-02
        2 -1    0    0  501    0 +0.0000000000e+00 +0.0000000000e+00 +9.4427847806e+02 9.4427847806e+02 0.0000000000e+00 0.0000e+00 -1.0000e+00
       -2 -1    0    0    0  501 -0.0000000000e+00 -0.0000000000e+00 -1.4291191970e+03 1.4291191970e+03 0.0000000000e+00 0.0000e+00 1.0000e+00
      -13  1    1    2    0    0 -5.0132137351e+02 +9.5017198037e+00 -1.3128838768e+03 1.4053744968e+03 0.0000000000e+00 0.0000e+00 1.0000e+00
       13  1    1    2    0    0 +5.0132137351e+02 -9.5017198037e+00 +8.2804315792e+02 9.6802317824e+02 0.0000000000e+00 0.0000e+00 -1.0000e+00
<mgrwt>
<rscale>  0 0.23233480E+04</rscale>
<asrwt>0</asrwt>
<pdfrwt beam="1">  1        2 0.14527361E+00 0.23233480E+04</pdfrwt>
<pdfrwt beam="2">  1       -2 0.21986449E+00 0.23233480E+04</pdfrwt>
<totfact> 0.26171457E+00</totfact>
</mgrwt>
<rwgt>
<wgt id='morphing_basis_vector_1'> +8.8954414e-05 </wgt>
<wgt id='morphing_basis_vector_2'> +5.9575021e-05 </wgt>
<wgt id='morphing_basis_vector_3'> +9.5856928e-05 </wgt>
<wgt id='morphing_basis_vector_4'> +6.7610461e-05 </wgt>
<wgt id='morphing_basis_vector_5'> +1.0775803e-04 </wgt>
</rwgt>
</event>
<event>
 4      1 +2.2016400e-08 2.36166800e+03 7.81860800e-03 7.93749800e-02
        2 -1    0    0  501    0 +0.0000000000e+00 +0.0000000000e+00 +1.2316423404e+03 1.2316423404e+03 0.0000000000e+00 0.0000e+00 -1.0000e+00
       -2 -1    0    0    0  501 -0.0000000000e+00 -0.0000000000e+00 -1.1321220634e+03 1.1321220634e+03 0.0000000000e+00 0.0000e+00 1.0000e+00
      -13  1    1    2    0    0 +6.3874061597e+02 +6.8009290509e+02 -6.7465947343e+02 1.1513823601e+03 0.0000000000e+00 0.0000e+00 1.0000e+00
       13  1    1    2    0    0 -6.3874061597e+02 -6.8009290509e+02 +7.7417975042e+02 1.2123820438e+03 0.0000000000e+00 0.0000e+00 -1.0000e+00
<mgrwt>
<rscale>  0 0.23616685E+04</rscale>
<asrwt>0</asrwt>
<pdfrwt beam="1">  1        2 0.18948344E+00 0.23616685E+04</pdfrwt>
<pdfrwt beam="2">  1       -2 0.17417262E+00 0.23616685E+04</pdfrwt>
<totfact> 0.37937554E+00</totfact>
</mgrwt>
<rwgt>
<wgt id='morphing_basis_vector_1'> +9.5088555e-05 </wgt>
<wgt id='morphing_basis_vector_2'> +6.4200201e-05 </wgt>
<wgt id='morphing_basis_vector_3'> +1.0264956e-04 </wgt>
<wgt id='morphing_basis_vector_4'> +7.1820822e-05 </wgt>
<wgt id='morphing_basis_vector_5'> +1.1512067e-04 </wgt>
</rwgt>
</event>
<event>
 4      1 +2.2016400e-08 2.40443500e+03 7.81860800e-03 7.92329700e-02
        2 -1    0    0  501    0 +0.0000000000e+00 +0.0000000000e+00 +1.8326947607e+03 1.8326947607e+03 0.0000000000e+00 0.0000e+00 -1.0000e+00
       -2 -1    0    0    0  501 -0.0000000000e+00 -0.0000000000e+00 -7.8863508997e+02 7.8863508997e+02 0.0000000000e+00 0.0000e+00 1.0000e+00
      -13  1    1    2    0    0 -2.3843507403e+02 -9.5611066011e+02 -2.2881150853e+02 1.0116094035e+03 0.0000000000e+00 0.0000e+00 1.0000e+00
       13  1    1    2    0    0 +2.3843507403e+02 +9.5611066011e+02 +1.2728711792e+03 1.6097204471e+03 0.0000000000e+00 0.0000e+00 -1.0000e+00
<mgrwt>
<rscale>  0 0.24044354E+04</rscale>
<asrwt>0</asrwt>
<pdfrwt beam="1">  1        2 0.28195304E+00 0.24044354E+04</pdfrwt>
<pdfrwt beam="2">  1       -2 0.12132848E+00 0.24044354E+04</pdfrwt>
<totfact> 0.48227995E+00</totfact>
</mgrwt>
<rwgt>
<wgt id='morphing_basis_vector_1'> +1.0212678e-04 </wgt>
<wgt id='morphing_basis_vector_2'> +6.9143600e-05 </wgt>
<wgt id='morphing_basis_vector_3'> +1.1038140e-04 </wgt>
<wgt id='morphing_basis_vector_4'> +7.7107396e-05 </wgt>
<wgt id='morphing_basis_vector_5'> +1.2380316e-04 </wgt>
</rwgt>
</event>
<event>
 4      1 +2.2016400e-08 2.26674800e+03 7.81860800e-03 7.97015300e-02
        2 -1    0    0  501    0 +0.0000000000e+00 +0.0000000000e+00 +1.8139139607e+03 1.8139139607e+03 0.0000000000e+00 0.0000e+00 -1.0000e+00
       -2 -1    0    0    0  501 -0.0000000000e+00 -0.0000000000e+00 -7.0815747893e+02 7.0815747893e+02 0.0000000000e+00 0.0000e+00 1.0000e+00
      -13  1    1    2    0    0 +3.6410036830e+02 -1.0240598782e+03 +1.9532628168e+02 1.1042735480e+03 0.0000000000e+00 0.0000e+00 1.0000e+00
       13  1    1    2    0    0 -3.6410036830e+02 +1.0240598782e+03 +9.1043020011e+02 1.4177978917e+03 0.0000000000e+00 0.0000e+00 -1.0000e+00
<mgrwt>
<rscale>  0 0.22667481E+04</rscale>
<asrwt>0</asrwt>
<pdfrwt beam="1">  1        2 0.27906368E+00 0.22667481E+04</pdfrwt>
<pdfrwt beam="2">  1       -2 0.10894731E+00 0.22667481E+04</pdfrwt>
<totfact> 0.65807376E+00</totfact>
</mgrwt>
<rwgt>
<wgt id='morphing_basis_vector_1'> +8.1700335e-05 </wgt>
<wgt id='morphing_basis_vector_2'> +5.6907386e-05 </wgt>
<wgt id='morphing_basis_vector_3'> +8.8331141e-05 </wgt>
<wgt id='morphing_basis_vector_4'> +5.9184503e-05 </wgt>
<wgt id='morphing_basis_vector_5'> +9.7329087e-05 </wgt>
</rwgt>
</event>
<event>
 4      1 +2.2016400e-08 2.41109400e+03 7.81860800e-03 7.92111300e-02
        2 -1    0    0  501    0 +0.0000000000e+00 +0.0000000000e+00 +9.3417856915e+02 9.3417856915e+02 0.0000000000e+00 0.0000e+00 -1.0000e+00
       -2 -1    0    0    0  501 -0.0000000000e+00 -0.0000000000e+00 -1.5557455178e+03 1.5557455178e+03 0.0000000000e+00 0.0000e+00 1.0000e+00
      -13  1    1    2    0    0 +6.9798462216e+02 -8.7866426249e+02 -7.6576799629e+02 1.3585411452e+03 0.0000000000e+00 0.0000e+00 1.0000e+00
       13  1    1    2    0    0 -6.9798462216e+02 +8.7866426249e+02 +1.4420104761e+02 1.1313829418e+03 0.0000000000e+00 0.0000e+00 -1.0000e+00
<mgrwt>
<rscale>  0 0.24110945E+04</rscale>
<asrwt>0</asrwt>
<pdfrwt beam="1">  1        2 0.14371978E+00 0.24110945E+04</pdfrwt>
<pdfrwt beam="2">  1       -2 0.23934546E+00 0.24110945E+04</pdfrwt>
<totfact> 0.19233993E+00</totfact>
</mgrwt>
<rwgt>
<wgt id='morphing_basis_vector_1'> +1.0382391e-04 </wgt>
<wgt id='morphing_basis_vector_2'> +7.1611824e-05 </wgt>
<wgt id='morphing_basis_vector_3'> +1.1248337e-04 </wgt>
<wgt id='morphing_basis_vector_4'> +7.6798793e-05 </wgt>
<wgt id='morphing_basis_vector_5'> +1.2510436e-04 </wgt>
</rwgt>
</event>
<event>
 4      1 +2.2016400e-08 2.36710400e+03 7.81860800e-03 7.93567600e-02
        2 -1    0    0  501    0 +0.0000000000e+00 +0.0000000000e+00 +3.7987517404e+03 3.7987517404e+03 0.0000000000e+00 0.0000e+00 -1.0000e+00
       -2 -1    0    0    0  501 -0.0000000000e+00 -0.0000000000e+00 -3.6875137593e+02 3.6875137593e+02 0.0000000000e+00 0.0000e+00 1.0000e+00
      -13  1    1    2    0    0 +1.0629440902e+03 -2.8372820649e+02 +9.4668171038e+02 1.4513986684e+03 0.0000000000e+00 0.0000e+00 1.0000e+00
       13  1    1    2    0    0 -1.0629440902e+03 +2.8372820649e+02 +2.4833186541e+03 2.7161044478e+03 0.0000000000e+00 0.0000e+00 -1.0000e+00
<mgrwt>
<rscale>  0 0.23671037E+04</rscale>
<asrwt>0</asrwt>
<pdfrwt beam="1">  1        2 0.58442332E+00 0.23671037E+04</pdfrwt>
<pdfrwt beam="2">  1       -2 0.56730984E-01 0.23671037E+04</pdfrwt>
<totfact> 0.14973636E+00</totfact>
</mgrwt>
<rwgt>
<wgt id='morphing_basis_vector_1'> +9.6540688e-05 </wgt>
<wgt id='morphing_basis_vector_2'> +6.6521687e-05 </wgt>
<wgt id='morphing_basis_vector_3'> +1.0448348e-04 </wgt>
<wgt id='morphing_basis_vector_4'> +7.1298779e-05 </wgt>
<wgt id='morphing_basis_vector_5'> +1.1610311e-04 </wgt>
</rwgt>
</event>
<event>
 4      1 +2.2016400e-08 2.27134200e+03 7.81860800e-03 7.96853500e-02
        2 -1    0    0  501    0 +0.0000000000e+00 +0.0000000000e+00 +1.5206452123e+03 1.5206452123e+03 0.0000000000e+00 0.0000e+00 1.0000e+00
       -2 -1    0    0    0  501 -0.0000000000e+00 -0.0000000000e+00 -8.4815858172e+02 8.4815858172e+02 0.0000000000e+00 0.0000e+00 -1.0000e+00
      -13  1    1    2    0    0 -5.6568089981e+02 -7.4106207928e+02 -3.4010611696e+02 9.9239108045e+02 0.0000000000e+00 0.0000e+00 -1.0000e+00
       13  1    1    2    0    0 +5.6568089981e+02 +7.4106207928e+02 +1.0125927476e+03 1.3764127136e+03 0.0000000000e+00 0.0000e+00 1.0000e+00
<mgrwt>
<rscale>  0 0.22713417E+04</rscale>
<asrwt>0</asrwt>
<pdfrwt beam="1">  1        2 0.23394542E+00 0.22713417E+04</pdfrwt>
<pdfrwt beam="2">  1       -2 0.13048594E+00 0.22713417E+04</pdfrwt>
<totfact> 0.60092365E+00</totfact>
</mgrwt>
<rwgt>
<wgt id='morphing_basis_vector_1'> +8.1602250e-05 </wgt>
<wgt id='morphing_basis_vector_2'> +5.5145323e-05 </wgt>
<wgt id='morphing_basis_vector_3'> +8.7921424e-05 </wgt>
<wgt id='morphing_basis_vector_4'> +6.1196762e-05 </wgt>
<wgt id='morphing_basis_vector_5'> +9.8255068e-05 </wgt>
</rwgt>
</event>
<event>
 4      1 +2.2016400e-08 2.27920500e+03 7.81860800e-03 7.96577500e-02
        2 -1    0    0  501    0 +0.0000000000e+00 +0.0000000000e+00 +1.6262816670e+03 1.6262816670e+03 0.0000000000e+00 0.0000e+00 -1.0000e+00
       -2 -1    0    0    0  501 -0.0000000000e+00 -0.0000000000e+00 -7.9856660452e+02 7.9856660452e+02 0.0000000000e+00 0.0000e+00 1.0000e+00
      -13  1    1    2    0    0 -8.6699045384e+02 +7.3956964109e+02 +4.2199673496e+02 1.2152024298e+03 0.0000000000e+00 0.0000e+00 1.0000e+00
       13  1    1    2    0    0 +8.6699045384e+02 -7.3956964109e+02 +4.0571832747e+02 1.2096458417e+03 0.0000000000e+00 0.0000e+00 -1.0000e+00
<mgrwt>
<rscale>  0 0.22792053E+04</rscale>
<asrwt>0</asrwt>
<pdfrwt beam="1">  1        2 0.25019718E+00 0.22792053E+04</pdfrwt>
<pdfrwt beam="2">  1       -2 0.12285640E+00 0.22792053E+04</pdfrwt>
<totfact> 0.61474723E+00</totfact>
</mgrwt>
<rwgt>
<wgt id='morphing_basis_vector_1'> +8.5567433e-05 </wgt>
<wgt id='morphing_basis_vector_2'> +6.4319614e-05 </wgt>
<wgt id='morphing_basis_vector_3'> +9.3416392e-05 </wgt>
<wgt id='morphing_basis_vector_4'> +5.6288805e-05 </wgt>
<wgt id='morphing_basis_vector_5'> +9.9180759e-05 </wgt>
</rwgt>
</event>
<event>
 4      1 +2.2016400e-08 2.38264400e+03 7.81860800e-03 7.93049500e-02
        2 -1    0    0  501    0 +0.0000000000e+00 +0.0000000000e+00 +2.1170130463e+03 2.1170130463e+03 0.0000000000e+00 0.0000e+00 -1.0000e+00
       -2 -1    0    0    0  501 -0.0000000000e+00 -0.0000000000e+00 -6.7040127112e+02 6.7040127112e+02 0.0000000000e+00 0.0000e+00 1.0000e+00
      -13  1    1    2    0    0 -4.4671184076e+02 -5.7631233824e+02 -3.7884592579e+02 8.2171261118e+02 0.0000000000e+00 0.0000e+00 1.0000e+00
       13  1    1    2    0    0 +4.4671184076e+02 +5.7631233824e+02 +1.8254577010e+03 1.9657017063e+03 0.0000000000e+00 0.0000e+00 -1.0000e+00
<mgrwt>
<rscale>  0 0.23826441E+04</rscale>
<asrwt>0</asrwt>
<pdfrwt beam="1">  1        2 0.32569431E+00 0.23826441E+04</pdfrwt>
<pdfrwt beam="2">  1       -2 0.10313866E+00 0.23826441E+04</pdfrwt>
<totfact> 0.50400499E+00</totfact>
</mgrwt>
<rwgt>
<wgt id='morphing_basis_vector_1'> +9.8287524e-05 </wgt>
<wgt id='morphing_basis_vector_2'> +6.5983014e-05 </wgt>
<wgt id='morphing_basis_vector_3'> +1.0607772e-04 </wgt>
<wgt id='morphing_basis_vector_4'> +7.4798054e-05 </wgt>
<wgt id='morphing_basis_vector_5'> +1.1935407e-04 </wgt>
</rwgt>
</event>
<event>
 4      1 +2.2016400e-08 2.25855400e+03 7.81860800e-03 7.97305000e-02
        2 -1    0    0  501    0 +0.0000000000e+00 +0.0000000000e+00 +7.2656659199e+02 7.2656659199e+02 0.0000000000e+00 0.0000e+00 -1.0000e+00
       -2 -1    0    0    0  501 -0.0000000000e+00 -0.0000000000e+00 -1.7551951491e+03 1.7551951491e+03 0.0000000000e+00 0.0000e+00 1.0000e+00
      -13  1    1    2    0    0 -7.3949876043e+02 -6.2034819277e+02 +1.2976747161e+02 9.7392499384e+02 0.0000000000e+00 0.0000e+00 -1.0000e+00
       13  1    1    2    0    0 +7.3949876043e+02 +6.2034819277e+02 -1.1583960287e+03 1.5078367472e+03 0.0000000000e+00 0.0000e+00 1.0000e+00
<mgrwt>
<rscale>  0 0.22585537E+04</rscale>
<asrwt>0</asrwt>
<pdfrwt beam="1">  1        2 0.11177948E+00 0.22585537E+04</pdfrwt>
<pdfrwt beam="2">  1       -2 0.27003002E+00 0.22585537E+04</pdfrwt>
<totfact> 0.16601873E+00</totfact>
</mgrwt>
<rwgt>
<wgt id='morphing_basis_vector_1'> +9.4968975e-05 </wgt>
<wgt id='morphing_basis_vector_2'> +9.8718742e-05 </wgt>
<wgt id='morphing_basis_vector_3'> +1.0866778e-04 </wgt>
<wgt id='morphing_basis_vector_4'> +2.9106740e-05 </wgt>
<wgt id='morphing_basis_vector_5'> +9.3564876e-05 </wgt>
</rwgt>
</event>
<event>
 4      1 +2.2016400e-08 2.28621500e+03 7.81860800e-03 7.96332300e-02
        2 -1    0    0  501    0 +0.0000000000e+00 +0.0000000000e+00 +2.6646669228e+03 2.6646669228e+03 0.0000000000e+00 0.0000e+00 -1.0000e+00
       -2 -1    0    0    0  501 -0.0000000000e+00 -0.0000000000e+00 -4.9037840389e+02 4.9037840389e+02 0.0000000000e+00 0.0000e+00 1.0000e+00
      -13  1    1    2    0    0 +2.5455735469e+02 -9.7390939104e+02 +3.3963652728e+02 1.0623803083e+03 0.0000000000e+00 0.0000e+00 1.0000e+00
       13  1    1    2    0    0 -2.5455735469e+02 +9.7390939104e+02 +1.8346519916e+03 2.0926650183e+03 0.0000000000e+00 0.0000e+00 -1.0000e+00
<mgrwt>
<rscale>  0 0.22862153E+04</rscale>
<asrwt>0</asrwt>
<pdfrwt beam="1">  1        2 0.40994875E+00 0.22862153E+04</pdfrwt>
<pdfrwt beam="2">  1       -2 0.75442833E-01 0.22862153E+04</pdfrwt>
<totfact> 0.50115228E+00</totfact>
</mgrwt>
<rwgt>
<wgt id='morphing_basis_vector_1'> +8.3902233e-05 </wgt>
<wgt id='morphing_basis_vector_2'> +5.7113064e-05 </wgt>
<wgt id='morphing_basis_vector_3'> +9.0508202e-05 </wgt>
<wgt id='morphing_basis_vector_4'> +6.2483901e-05 </wgt>
<wgt id='morphing_basis_vector_5'> +1.0086618e-04 </wgt>
</rwgt>
</event>
<event>
 4      1 +2.2016400e-08 2.53077300e+03 7.81860800e-03 7.88305400e-02
        2 -1    0    0  501    0 +0.0000000000e+00 +0.0000000000e+00 +7.5262793046e+02 7.5262793046e+02 0.0000000000e+00 0.0000e+00 -1.0000e+00
       -2 -1    0    0    0  501 -0.0000000000e+00 -0.0000000000e+00 -2.1274832022e+03 2.1274832022e+03 0.0000000000e+00 0.0000e+00 1.0000e+00
      -13  1    1    2    0    0 +4.0452233083e+02 -9.1756071448e+02 -1.5657432492e+03 1.8593299608e+03 0.0000000000e+00 0.0000e+00 1.0000e+00
       13  1    1    2    0    0 -4.0452233083e+02 +9.1756071448e+02 +1.9088797742e+02 1.0207811719e+03 0.0000000000e+00 0.0000e+00 -1.0000e+00
<mgrwt>
<rscale>  0 0.25307732E+04</rscale>
<asrwt>0</asrwt>
<pdfrwt beam="1">  1        2 0.11578891E+00 0.25307732E+04</pdfrwt>
<pdfrwt beam="2">  1       -2 0.32730510E+00 0.25307732E+04</pdfrwt>
<totfact> 0.63784929E-01</totfact>
</mgrwt>
<rwgt>
<wgt id='morphing_basis_vector_1'> +1.2492512e-04 </wgt>
<wgt id='morphing_basis_vector_2'> +8.4543008e-05 </wgt>
<wgt id='morphing_basis_vector_3'> +1.3533406e-04 </wgt>
<wgt id='morphing_basis_vector_4'> +9.5037976e-05 </wgt>
<wgt id='morphing_basis_vector_5'> +1.5236955e-04 </wgt>
</rwgt>
</event>
<event>
 4      1 +2.2016400e-08 2.55752500e+03 7.81860800e-03 7.87484100e-02
        2 -1    0    0  501    0 +0.0000000000e+00 +0.0000000000e+00 +1.4782468765e+03 1.4782468765e+03 0.0000000000e+00 0.0000e+00 -1.0000e+00
       -2 -1    0    0    0  501 -0.0000000000e+00 -0.0000000000e+00 -1.1061977705e+03 1.1061977705e+03 0.0000000000e+00 0.0000e+00 1.0000e+00
      -13  1    1    2    0    0 -1.0751753027e+03 -6.8383694898e+02 +2.9485443953e+02 1.3078891562e+03 0.0000000000e+00 0.0000e+00 1.0000e+00
       13  1    1    2    0    0 +1.0751753027e+03 +6.8383694898e+02 +7.7194666480e+01 1.2765554907e+03 0.0000000000e+00 0.0000e+00 -1.0000e+00
<mgrwt>
<rscale>  0 0.25575249E+04</rscale>
<asrwt>0</asrwt>
<pdfrwt beam="1">  1        2 0.22742260E+00 0.25575249E+04</pdfrwt>
<pdfrwt beam="2">  1       -2 0.17018427E+00 0.25575249E+04</pdfrwt>
<totfact> 0.29004738E+00</totfact>
</mgrwt>
<rwgt>
<wgt id='morphing_basis_vector_1'> +1.3633774e-04 </wgt>
<wgt id='morphing_basis_vector_2'> +1.0619449e-04 </wgt>
<wgt id='morphing_basis_vector_3'> +1.5050994e-04 </wgt>
<wgt id='morphing_basis_vector_4'> +8.6610658e-05 </wgt>
<wgt id='morphing_basis_vector_5'> +1.5797757e-04 </wgt>
</rwgt>
</event>
<event>
 4      1 +2.2016400e-08 2.36263500e+03 7.81860800e-03 7.93717400e-02
        2 -1    0    0  501    0 +0.0000000000e+00 +0.0000000000e+00 +2.8032416948e+03 2.8032416948e+03 0.0000000000e+00 0.0000e+00 -1.0000e+00
       -2 -1    0    0    0  501 -0.0000000000e+00 -0.0000000000e+00 -4.9782059200e+02 4.9782059200e+02 0.0000000000e+00 0.0000e+00 1.0000e+00
      -13  1    1    2    0    0 -3.5721342884e+02 -3.9377891288e+02 -3.2121307870e+02 6.2116109658e+02 0.0000000000e+00 0.0000e+00 1.0000e+00
       13  1    1    2    0    0 +3.5721342884e+02 +3.9377891288e+02 +2.6266341815e+03 2.6799011902e+03 0.0000000000e+00 0.0000e+00 -1.0000e+00
<mgrwt>
<rscale>  0 0.23626353E+04</rscale>
<asrwt>0</asrwt>
<pdfrwt beam="1">  1        2 0.43126794E+00 0.23626353E+04</pdfrwt>
<pdfrwt beam="2">  1       -2 0.76587785E-01 0.23626353E+04</pdfrwt>
<totfact> 0.39510030E+00</totfact>
</mgrwt>
<rwgt>
<wgt id='morphing_basis_vector_1'> +9.5033281e-05 </wgt>
<wgt id='morphing_basis_vector_2'> +6.3688126e-05 </wgt>
<wgt id='morphing_basis_vector_3'> +1.0250204e-04 </wgt>
<wgt id='morphing_basis_vector_4'> +7.2365397e-05 </wgt>
<wgt id='morphing_basis_vector_5'> +1.1534629e-04 </wgt>
</rwgt>
</event>
<event>
 4      1 +2.2016400e-08 2.47942200e+03 7.81860800e-03 7.89911400e-02
        2 -1    0    0  501    0 +0.0000000000e+00 +0.0000000000e+00 +2.5149689298e+03 2.5149689298e+03 0.0000000000e+00 0.0000e+00 -1.0000e+00
       -2 -1    0    0    0  501 -0.0000000000e+00 -0.0000000000e+00 -6.1109445271e+02 6.1109445271e+02 0.0000000000e+00 0.0000e+00 1.0000e+00
      -13  1    1    2    0    0 -1.0460525842e+03 +3.1518074476e+01 +1.1403493939e+02 1.0527218842e+03 0.0000000000e+00 0.0000e+00 1.0000e+00
       13  1    1    2    0    0 +1.0460525842e+03 -3.1518074476e+01 +1.7898395377e+03 2.0733414983e+03 0.0000000000e+00 0.0000e+00 -1.0000e+00
<mgrwt>
<rscale>  0 0.24794222E+04</rscale>
<asrwt>0</asrwt>
<pdfrwt beam="1">  1        2 0.38691829E+00 0.24794222E+04</pdfrwt>
<pdfrwt beam="2">  1       -2 0.94014533E-01 0.24794222E+04</pdfrwt>
<totfact> 0.36620612E+00</totfact>
</mgrwt>
<rwgt>
<wgt id='morphing_basis_vector_1'> +1.1536230e-04 </wgt>
<wgt id='morphing_basis_vector_2'> +7.8363132e-05 </wgt>
<wgt id='morphing_basis_vector_3'> +1.2491696e-04 </wgt>
<wgt id='morphing_basis_vector_4'> +8.7161014e-05 </wgt>
<wgt id='morphing_basis_vector_5'> +1.4020269e-04 </wgt>
</rwgt>
</event>
<event>
 4      1 +2.2016400e-08 2.45108800e+03 7.81860800e-03 7.90814700e-02
        2 -1    0    0  501    0 +0.0000000000e+00 +0.0000000000e+00 +4.7734454363e+02 4.7734454363e+02 0.0000000000e+00 0.0000e+00 1.0000e+00
       -2 -1    0    0    0  501 -0.0000000000e+00 -0.0000000000e+00 -3.1464862070e+03 3.1464862070e+03 0.0000000000e+00 0.0000e+00 -1.0000e+00
      -13  1    1    2    0    0 +1.1642554659e+03 +2.8541367374e+02 -1.7115233321e+03 2.0895606886e+03 0.0000000000e+00 0.0000e+00 -1.0000e+00
       13  1    1    2    0    0 -1.1642554659e+03 -2.8541367374e+02 -9.5761833128e+02 1.5342700621e+03 0.0000000000e+00 0.0000e+00 1.0000e+00
<mgrwt>
<rscale>  0 0.24510879E+04</rscale>
<asrwt>0</asrwt>
<pdfrwt beam="1">  1        2 0.73437625E-01 0.24510879E+04</pdfrwt>
<pdfrwt beam="2">  1       -2 0.48407478E+00 0.24510879E+04</pdfrwt>
<totfact> 0.97516985E-02</totfact>
</mgrwt>
<rwgt>
<wgt id='morphing_basis_vector_1'> +1.1167709e-04 </wgt>
<wgt id='morphing_basis_vector_2'> +7.9083872e-05 </wgt>
<wgt id='morphing_basis_vector_3'> +1.2148498e-04 </wgt>
<wgt id='morphing_basis_vector_4'> +8.0270259e-05 </wgt>
<wgt id='morphing_basis_vector_5'> +1.3358525e-04 </wgt>
</rwgt>
</event>
<event>
 4      1 +2.2016400e-08 2.56530000e+03 7.81860800e-03 7.87247300e-02
        2 -1    0    0  501    0 +0.0000000000e+00 +0.0000000000e+00 +1.1928391695e+03 1.1928391695e+03 0.0000000000e+00 0.0000e+00 -1.0000e+00
       -2 -1    0    0    0  501 -0.0000000000e+00 -0.0000000000e+00 -1.3792228187e+03 1.3792228187e+03 0.0000000000e+00 0.0000e+00 1.0000e+00
      -13  1    1    2    0    0 -4.0061314751e+02 -5.4414362017e+02 -1.1862985488e+03 1.3652426232e+03 0.0000000000e+00 0.0000e+00 1.0000e+00
       13  1    1    2    0    0 +4.0061314751e+02 +5.4414362017e+02 +9.9991489954e+02 1.2068193650e+03 0.0000000000e+00 0.0000e+00 -1.0000e+00
<mgrwt>
<rscale>  0 0.25653000E+04</rscale>
<asrwt>0</asrwt>
<pdfrwt beam="1">  1        2 0.18351372E+00 0.25653000E+04</pdfrwt>
<pdfrwt beam="2">  1       -2 0.21218813E+00 0.25653000E+04</pdfrwt>
<totfact> 0.20530609E+00</totfact>
</mgrwt>
<rwgt>
<wgt id='morphing_basis_vector_1'> +1.3151657e-04 </wgt>
<wgt id='morphing_basis_vector_2'> +8.8409454e-05 </wgt>
<wgt id='morphing_basis_vector_3'> +1.4244060e-04 </wgt>
<wgt id='morphing_basis_vector_4'> +1.0096568e-04 </wgt>
<wgt id='morphing_basis_vector_5'> +1.6100990e-04 </wgt>
</rwgt>
</event>
<event>
 4      1 +2.2016400e-08 2.36598800e+03 7.81860800e-03 7.93605000e-02
        2 -1    0    0  501    0 +0.0000000000e+00 +0.0000000000e+00 +2.3467030823e+03 2.3467030823e+03 0.0000000000e+00 0.0000e+00 -1.0000e+00
       -2 -1    0    0    0  501 -0.0000000000e+00 -0.0000000000e+00 -5.9635794411e+02 5.9635794411e+02 0.0000000000e+00 0.0000e+00 1.0000e+00
      -13  1    1    2    0    0 +3.0905365303e+02 +4.4360452379e+02 -4.3369288716e+02 6.9310075339e+02 0.0000000000e+00 0.0000e+00 1.0000e+00
       13  1    1    2    0    0 -3.0905365303e+02 -4.4360452379e+02 +2.1840380254e+03 2.2499602731e+03 0.0000000000e+00 0.0000e+00 -1.0000e+00
<mgrwt>
<rscale>  0 0.23659882E+04</rscale>
<asrwt>0</asrwt>
<pdfrwt beam="1">  1        2 0.36103124E+00 0.23659882E+04</pdfrwt>
<pdfrwt beam="2">  1       -2 0.91747377E-01 0.23659882E+04</pdfrwt>
<totfact> 0.49236020E+00</totfact>
</mgrwt>
<rwgt>
<wgt id='morphing_basis_vector_1'> +9.5566886e-05 </wgt>
<wgt id='morphing_basis_vector_2'> +6.4050856e-05 </wgt>
<wgt id='morphing_basis_vector_3'> +1.0308580e-04 </wgt>
<wgt id='morphing_basis_vector_4'> +7.2780995e-05 </wgt>
<wgt id='morphing_basis_vector_5'> +1.1601174e-04 </wgt>
</rwgt>
</event>
<event>
 4      1 +2.2016400e-08 2.41806400e+03 7.81860800e-03 7.91883500e-02
        2 -1    0    0  501    0 +0.0000000000e+00 +0.0000000000e+00 +3.7276706205e+03 3.7276706205e+03 0.0000000000e+00 0.0000e+00 1.0000e+00
       -2 -1    0    0    0  501 -0.0000000000e+00 -0.0000000000e+00 -3.9213712392e+02 3.9213712392e+02 0.0000000000e+00 0.0000e+00 -1.0000e+00
      -13  1    1    2    0    0 +3.9369111681e+02 +9.2786493055e+02 +2.8053804993e+03 2.9809538357e+03 0.0000000000e+00 0.0000e+00 1.0000e+00
       13  1    1    2    0    0 -3.9369111681e+02 -9.2786493055e+02 +5.3015299726e+02 1.1388539087e+03 0.0000000000e+00 0.0000e+00 -1.0000e+00
<mgrwt>
<rscale>  0 0.24180637E+04</rscale>
<asrwt>0</asrwt>
<pdfrwt beam="1">  1        2 0.57348776E+00 0.24180637E+04</pdfrwt>
<pdfrwt beam="2">  1       -2 0.60328791E-01 0.24180637E+04</pdfrwt>
<totfact> 0.14946243E+00</totfact>
</mgrwt>
<rwgt>
<wgt id='morphing_basis_vector_1'> +1.2606166e-04 </wgt>
<wgt id='morphing_basis_vector_2'> +1.3457532e-04 </wgt>
<wgt id='morphing_basis_vector_3'> +1.4573050e-04 </wgt>
<wgt id='morphing_basis_vector_4'> +3.4724397e-05 </wgt>
<wgt id='morphing_basis_vector_5'> +1.2310528e-04 </wgt>
</rwgt>
</event>
<event>
 4      1 +2.2016400e-08 2.57171100e+03 7.81860800e-03 7.87052700e-02
        2 -1    0    0  501    0 +0.0000000000e+00 +0.0000000000e+00 +3.3853146853e+03 3.3853146853e+03 0.0000000000e+00 0.0000e+00 1.0000e+00
       -2 -1    0    0    0  501 -0.0000000000e+00 -0.0000000000e+00 -4.8841070962e+02 4.8841070962e+02 0.0000000000e+00 0.0000e+00 -1.0000e+00
      -13  1    1    2    0    0 -2.6125683634e+02 +5.6796152877e+02 -2.4408294314e+02 6.7112734695e+02 0.0000000000e+00 0.0000e+00 -1.0000e+00
       13  1    1    2    0    0 +2.6125683634e+02 -5.6796152877e+02 +3.1409869188e+03 3.2025980480e+03 0.0000000000e+00 0.0000e+00 1.0000e+00
<mgrwt>
<rscale>  0 0.25717107E+04</rscale>
<asrwt>0</asrwt>
<pdfrwt beam="1">  1        2 0.52081763E+00 0.25717107E+04</pdfrwt>
<pdfrwt beam="2">  1       -2 0.75140111E-01 0.25717107E+04</pdfrwt>
<totfact> 0.16599706E+00</totfact>
</mgrwt>
<rwgt>
<wgt id='morphing_basis_vector_1'> +1.3280875e-04 </wgt>
<wgt id='morphing_basis_vector_2'> +8.9259470e-05 </wgt>
<wgt id='morphing_basis_vector_3'> +1.4385152e-04 </wgt>
<wgt id='morphing_basis_vector_4'> +1.0201340e-04 </wgt>
<wgt id='morphing_basis_vector_5'> +1.6264693e-04 </wgt>
</rwgt>
</event>
<event>
 4      1 +2.2016400e-08 2.31769900e+03 7.81860800e-03 7.95242500e-02
        2 -1    0    0  501    0 +0.0000000000e+00 +0.0000000000e+00 +2.1486217850e+03 2.1486217850e+03 0.0000000000e+00 0.0000e+00 -1.0000e+00
       -2 -1    0    0    0  501 -0.0000000000e+00 -0.0000000000e+00 -6.2502039396e+02 6.2502039396e+02 0.0000000000e+00 0.0000e+00 1.0000e+00
      -13  1    1    2    0    0 -4.3642041146e+01 +1.1568365098e+03 +6.9896313380e+02 1.3523035165e+03 0.0000000000e+00 0.0000e+00 1.0000e+00
       13  1    1    2    0    0 +4.3642041146e+01 -1.1568365098e+03 +8.2463825728e+02 1.4213386625e+03 0.0000000000e+00 0.0000e+00 -1.0000e+00
<mgrwt>
<rscale>  0 0.23176992E+04</rscale>
<asrwt>0</asrwt>
<pdfrwt beam="1">  1        2 0.33055719E+00 0.23176992E+04</pdfrwt>
<pdfrwt beam="2">  1       -2 0.96156985E-01 0.23176992E+04</pdfrwt>
<totfact> 0.57573080E+00</totfact>
</mgrwt>
<rwgt>
<wgt id='morphing_basis_vector_1'> +9.0833263e-05 </wgt>
<wgt id='morphing_basis_vector_2'> +6.7058686e-05 </wgt>
<wgt id='morphing_basis_vector_3'> +9.9036195e-05 </wgt>
<wgt id='morphing_basis_vector_4'> +6.1403582e-05 </wgt>
<wgt id='morphing_basis_vector_5'> +1.0625265e-04 </wgt>
</rwgt>
</event>
<event>
 4      1 +2.2016400e-08 2.37154000e+03 7.81860800e-03 7.93419300e-02
        2 -1    0    0  501    0 +0.0000000000e+00 +0.0000000000e+00 +1.4380348522e+03 1.4380348522e+03 0.0000000000e+00 0.0000e+00 -1.0000e+00
       -2 -1    0    0    0  501 -0.0000000000e+00 -0.0000000000e+00 -9.7775861729e+02 9.7775861729e+02 0.0000000000e+00 0.0000e+00 1.0000e+00
      -13  1    1    2    0    0 +2.0860438830e+02 -9.4284766002e+02 -4.7086985432e+02 1.0743351062e+03 0.0000000000e+00 0.0000e+00 1.0000e+00
       13  1    1    2    0    0 -2.0860438830e+02 +9.4284766002e+02 +9.3114608923e+02 1.3414583632e+03 0.0000000000e+00 0.0000e+00 -1.0000e+00
<mgrwt>
<rscale>  0 0.23715404E+04</rscale>
<asrwt>0</asrwt>
<pdfrwt beam="1">  1        2 0.22123613E+00 0.23715404E+04</pdfrwt>
<pdfrwt beam="2">  1       -2 0.15042440E+00 0.23715404E+04</pdfrwt>
<totfact> 0.44694930E+00</totfact>
</mgrwt>
<rwgt>
<wgt id='morphing_basis_vector_1'> +9.6715059e-05 </wgt>
<wgt id='morphing_basis_vector_2'> +6.5421405e-05 </wgt>
<wgt id='morphing_basis_vector_3'> +1.0445048e-04 </wgt>
<wgt id='morphing_basis_vector_4'> +7.2944298e-05 </wgt>
<wgt id='morphing_basis_vector_5'> +1.1707735e-04 </wgt>
</rwgt>
</event>
<event>
 4      1 +2.2016400e-08 2.47896400e+03 7.81860800e-03 7.89925900e-02
        2 -1    0    0  501    0 +0.0000000000e+00 +0.0000000000e+00 +8.9589483200e+02 8.9589483200e+02 0.0000000000e+00 0.0000e+00 -1.0000e+00
       -2 -1    0    0    0  501 -0.0000000000e+00 -0.0000000000e+00 -1.7148389374e+03 1.7148389374e+03 0.0000000000e+00 0.0000e+00 1.0000e+00
      -13  1    1    2    0    0 +6.4370732012e+02 -3.6433099826e+02 -1.4569349902e+03 1.6339387247e+03 0.0000000000e+00 0.0000e+00 1.0000e+00
       13  1    1    2    0    0 -6.4370732012e+02 +3.6433099826e+02 +6.3799088483e+02 9.7679504472e+02 0.0000000000e+00 0.0000e+00 -1.0000e+00
<mgrwt>
<rscale>  0 0.24789638E+04</rscale>
<asrwt>0</asrwt>
<pdfrwt beam="1">  1        2 0.13782998E+00 0.24789638E+04</pdfrwt>
<pdfrwt beam="2">  1       -2 0.26382137E+00 0.24789638E+04</pdfrwt>
<totfact> 0.13714082E+00</totfact>
</mgrwt>
<rwgt>
<wgt id='morphing_basis_vector_1'> +1.1491210e-04 </wgt>
<wgt id='morphing_basis_vector_2'> +7.7225323e-05 </wgt>
<wgt id='morphing_basis_vector_3'> +1.2426683e-04 </wgt>
<wgt id='morphing_basis_vector_4'> +8.7845164e-05 </wgt>
<wgt id='morphing_basis_vector_5'> +1.4015837e-04 </wgt>
</rwgt>
</event>
<event>
 4      1 +2.2016400e-08 2.56231700e+03 7.81860800e-03 7.87338000e-02
        2 -1    0    0  501    0 +0.0000000000e+00 +0.0000000000e+00 +2.8053806171e+03 2.8053806171e+03 0.0000000000e+00 0.0000e+00 -1.0000e+00
       -2 -1    0    0    0  501 -0.0000000000e+00 -0.0000000000e+00 -5.8507810944e+02 5.8507810944e+02 0.0000000000e+00 0.0000e+00 1.0000e+00
      -13  1    1    2    0    0 -2.6584916625e+02 -4.7280839007e+02 -4.2564121209e+02 6.8948821190e+02 0.0000000000e+00 0.0000e+00 1.0000e+00
       13  1    1    2    0    0 +2.6584916625e+02 +4.7280839007e+02 +2.6459437198e+03 2.7009705147e+03 0.0000000000e+00 0.0000e+00 -1.0000e+00
<mgrwt>
<rscale>  0 0.25623168E+04</rscale>
<asrwt>0</asrwt>
<pdfrwt beam="1">  1        2 0.43159701E+00 0.25623168E+04</pdfrwt>
<pdfrwt beam="2">  1       -2 0.90012018E-01 0.25623168E+04</pdfrwt>
<totfact> 0.26738022E+00</totfact>
</mgrwt>
<rwgt>
<wgt id='morphing_basis_vector_1'> +1.3089137e-04 </wgt>
<wgt id='morphing_basis_vector_2'> +8.7935980e-05 </wgt>
<wgt id='morphing_basis_vector_3'> +1.4174602e-04 </wgt>
<wgt id='morphing_basis_vector_4'> +1.0053659e-04 </wgt>
<wgt id='morphing_basis_vector_5'> +1.6025684e-04 </wgt>
</rwgt>
</event>
<event>
 4      1 +2.2016400e-08 2.32301700e+03 7.81860800e-03 7.95060100e-02
        2 -1    0    0  501    0 +0.0000000000e+00 +0.0000000000e+00 +1.0787877758e+03 1.0787877758e+03 0.0000000000e+00 0.0000e+00 -1.0000e+00
       -2 -1    0    0    0  501 -0.0000000000e+00 -0.0000000000e+00 -1.2505724722e+03 1.2505724722e+03 0.0000000000e+00 0.0000e+00 1.0000e+00
      -13  1    1    2    0    0 +9.2270774260e+02 +6.9401861923e+02 -2.1293032274e+02 1.1740488680e+03 0.0000000000e+00 0.0000e+00 1.0000e+00
       13  1    1    2    0    0 -9.2270774260e+02 -6.9401861923e+02 +4.1145626342e+01 1.1553113800e+03 0.0000000000e+00 0.0000e+00 -1.0000e+00
<mgrwt>
<rscale>  0 0.23230173E+04</rscale>
<asrwt>0</asrwt>
<pdfrwt beam="1">  1        2 0.16596735E+00 0.23230173E+04</pdfrwt>
<pdfrwt beam="2">  1       -2 0.19239577E+00 0.23230173E+04</pdfrwt>
<totfact> 0.34147354E+00</totfact>
</mgrwt>
<rwgt>
<wgt id='morphing_basis_vector_1'> +9.1073266e-05 </wgt>
<wgt id='morphing_basis_vector_2'> +6.5946948e-05 </wgt>
<wgt id='morphing_basis_vector_3'> +9.9069056e-05 </wgt>
<wgt id='morphing_basis_vector_4'> +6.3163876e-05 </wgt>
<wgt id='morphing_basis_vector_5'> +1.0734120e-04 </wgt>
</rwgt>
</event>
<event>
 4      1 +2.2016400e-08 2.23498300e+03 7.81860800e-03 7.98145100e-02
        2 -1    0    0  501    0 +0.0000000000e+00 +0.0000000000e+00 +1.2471613030e+03 1.2471613030e+03 0.0000000000e+00 0.0000e+00 1.0000e+00
       -2 -1    0    0    0  501 -0.0000000000e+00 -0.0000000000e+00 -1.0013035072e+03 1.0013035072e+03 0.0000000000e+00 0.0000e+00 -1.0000e+00
      -13  1    1    2    0    0 -8.5146165453e+02 +5.2575317264e+02 +6.2330597276e+02 1.1789460053e+03 0.0000000000e+00 0.0000e+00 1.0000e+00
       13  1    1    2    0    0 +8.5146165453e+02 -5.2575317264e+02 -3.7744817693e+02 1.0695188049e+03 0.0000000000e+00 0.0000e+00 -1.0000e+00
<mgrwt>
<rscale>  0 0.22349828E+04</rscale>
<asrwt>0</asrwt>
<pdfrwt beam="1">  1        2 0.19187097E+00 0.22349828E+04</pdfrwt>
<pdfrwt beam="2">  1       -2 0.15404669E+00 0.22349828E+04</pdfrwt>
<totfact> 0.54237122E+00</totfact>
</mgrwt>
<rwgt>
<wgt id='morphing_basis_vector_1'> +8.8414220e-05 </wgt>
<wgt id='morphing_basis_vector_2'> +8.6693627e-05 </wgt>
<wgt id='morphing_basis_vector_3'> +1.0011797e-04 </wgt>
<wgt id='morphing_basis_vector_4'> +3.3381195e-05 </wgt>
<wgt id='morphing_basis_vector_5'> +9.0102343e-05 </wgt>
</rwgt>
</event>
<event>
 4      1 +2.2016400e-08 2.24650700e+03 7.81860800e-03 7.97733000e-02
        2 -1    0    0  501    0 +0.0000000000e+00 +0.0000000000e+00 +1.6346655874e+03 1.6346655874e+03 0.0000000000e+00 0.0000e+00 1.0000e+00
       -2 -1    0    0    0  501 -0.0000000000e+00 -0.0000000000e+00 -7.7183907878e+02 7.7183907878e+02 0.0000000000e+00 0.0000e+00 -1.0000e+00
      -13  1    1    2    0    0 +5.1772137163e+02 -8.2378724093e+02 +1.0326704722e+03 1.4188266776e+03 0.0000000000e+00 0.0000e+00 1.0000e+00
       13  1    1    2    0    0 -5.1772137163e+02 +8.2378724093e+02 -1.6984396367e+02 9.8767798849e+02 0.0000000000e+00 0.0000e+00 -1.0000e+00
<mgrwt>
<rscale>  0 0.22465073E+04</rscale>
<asrwt>0</asrwt>
<pdfrwt beam="1">  1        2 0.25148701E+00 0.22465073E+04</pdfrwt>
<pdfrwt beam="2">  1       -2 0.11874447E+00 0.22465073E+04</pdfrwt>
<totfact> 0.66647352E+00</totfact>
</mgrwt>
<rwgt>
<wgt id='morphing_basis_vector_1'> +9.2236423e-05 </wgt>
<wgt id='morphing_basis_vector_2'> +9.4426325e-05 </wgt>
<wgt id='morphing_basis_vector_3'> +1.0522432e-04 </wgt>
<wgt id='morphing_basis_vector_4'> +3.0008657e-05 </wgt>
<wgt id='morphing_basis_vector_5'> +9.1677518e-05 </wgt>
</rwgt>
</event>
<event>
 4      1 +2.2016400e-08 2.52833600e+03 7.81860800e-03 7.88380700e-02
        2 -1    0    0  501    0 +0.0000000000e+00 +0.0000000000e+00 +1.1738847481e+03 1.1738847481e+03 0.0000000000e+00 0.0000e+00 1.0000e+00
       -2 -1    0    0    0  501 -0.0000000000e+00 -0.0000000000e+00 -1.3613950268e+03 1.3613950268e+03 0.0000000000e+00 0.0000e+00 -1.0000e+00
      -13  1    1    2    0    0 +1.2303570566e+03 -2.7148973491e+02 -1.9716787565e+02 1.2752883337e+03 0.0000000000e+00 0.0000e+00 -1.0000e+00
       13  1    1    2    0    0 -1.2303570566e+03 +2.7148973491e+02 +9.6575969375e+00 1.2599914412e+03 0.0000000000e+00 0.0000e+00 1.0000e+00
<mgrwt>
<rscale>  0 0.25283361E+04</rscale>
<asrwt>0</asrwt>
<pdfrwt beam="1">  1        2 0.18059765E+00 0.25283361E+04</pdfrwt>
<pdfrwt beam="2">  1       -2 0.20944539E+00 0.25283361E+04</pdfrwt>
<totfact> 0.22112261E+00</totfact>
</mgrwt>
<rwgt>
<wgt id='morphing_basis_vector_1'> +1.2753232e-04 </wgt>
<wgt id='morphing_basis_vector_2'> +9.3311387e-05 </wgt>
<wgt id='morphing_basis_vector_3'> +1.3952590e-04 </wgt>
<wgt id='morphing_basis_vector_4'> +8.8345883e-05 </wgt>
<wgt id='morphing_basis_vector_5'> +1.5126328e-04 </wgt>
</rwgt>
</event>
<event>
 4      1 +2.2016400e-08 2.33520800e+03 7.81860800e-03 7.94644000e-02
        2 -1    0    0  501    0 +0.0000000000e+00 +0.0000000000e+00 +1.0308738099e+03 1.0308738099e+03 0.0000000000e+00 0.0000e+00 1.0000e+00
       -2 -1    0    0    0  501 -0.0000000000e+00 -0.0000000000e+00 -1.3224693861e+03 1.3224693861e+03 0.0000000000e+00 0.0000e+00 -1.0000e+00
      -13  1    1    2    0    0 -1.0702492140e+03 -1.5789567065e+02 -5.8845220194e+02 1.2315195560e+03 0.0000000000e+00 0.0000e+00 -1.0000e+00
       13  1    1    2    0    0 +1.0702492140e+03 +1.5789567065e+02 +2.9685662565e+02 1.1218236400e+03 0.0000000000e+00 0.0000e+00 1.0000e+00
<mgrwt>
<rscale>  0 0.23352080E+04</rscale>
<asrwt>0</asrwt>
<pdfrwt beam="1">  1        2 0.15859597E+00 0.23352080E+04</pdfrwt>
<pdfrwt beam="2">  1       -2 0.20345683E+00 0.23352080E+04</pdfrwt>
<totfact> 0.30269031E+00</totfact>
</mgrwt>
<rwgt>
<wgt id='morphing_basis_vector_1'> +9.1488785e-05 </wgt>
<wgt id='morphing_basis_vector_2'> +6.2954339e-05 </wgt>
<wgt id='morphing_basis_vector_3'> +9.8930185e-05 </wgt>
<wgt id='morphing_basis_vector_4'> +6.7533658e-05 </wgt>
<wgt id='morphing_basis_vector_5'> +1.0988855e-04 </wgt>
</rwgt>
</event>
<event>
 4      1 +2.2016400e-08 2.42118100e+03 7.81860800e-03 7.91781900e-02
        2 -1    0    0  501    0 +0.0000000000e+00 +0.0000000000e+00 +2.5530461115e+03 2.5530461115e+03 0.0000000000e+00 0.0000e+00 -1.0000e+00
       -2 -1    0    0    0  501 -0.0000000000e+00 -0.0000000000e+00 -5.7403168710e+02 5.7403168710e+02 0.0000000000e+00 0.0000e+00 1.0000e+00
      -13  1    1    2    0    0 -1.1313348814e+03 +4.1883002723e+02 +8.5911712708e+02 1.4810197310e+03 0.0000000000e+00 0.0000e+00 1.0000e+00
       13  1    1    2    0    0 +1.1313348814e+03 -4.1883002723e+02 +1.1198972973e+03 1.6460580677e+03 0.0000000000e+00 0.0000e+00 -1.0000e+00
<mgrwt>
<rscale>  0 0.24211810E+04</rscale>
<asrwt>0</asrwt>
<pdfrwt beam="1">  1        2 0.39277632E+00 0.24211810E+04</pdfrwt>
<pdfrwt beam="2">  1       -2 0.88312569E-01 0.24211810E+04</pdfrwt>
<totfact> 0.40432524E+00</totfact>
</mgrwt>
<rwgt>
<wgt id='morphing_basis_vector_1'> +1.0747498e-04 </wgt>
<wgt id='morphing_basis_vector_2'> +7.8499687e-05 </wgt>
<wgt id='morphing_basis_vector_3'> +1.1730151e-04 </wgt>
<wgt id='morphing_basis_vector_4'> +7.4173511e-05 </wgt>
<wgt id='morphing_basis_vector_5'> +1.2692209e-04 </wgt>
</rwgt>
</event>
<event>
 4      1 +2.2016400e-08 2.46878700e+03 7.81860800e-03 7.90249000e-02
        2 -1    0    0  501    0 +0.0000000000e+00 +0.0000000000e+00 +3.1378590932e+03 3.1378590932e+03 0.0000000000e+00 0.0000e+00 1.0000e+00
       -2 -1    0    0    0  501 -0.0000000000e+00 -0.0000000000e+00 -4.8559447934e+02 4.8559447934e+02 0.0000000000e+00 0.0000e+00 -1.0000e+00
      -13  1    1    2    0    0 -8.6188439250e+02 -1.3581357254e+02 +4.4565932443e+01 8.7365677177e+02 0.0000000000e+00 0.0000e+00 -1.0000e+00
       13  1    1    2    0    0 +8.6188439250e+02 +1.3581357254e+02 +2.6076986814e+03 2.7497968007e+03 0.0000000000e+00 0.0000e+00 1.0000e+00
<mgrwt>
<rscale>  0 0.24687868E+04</rscale>
<asrwt>0</asrwt>
<pdfrwt beam="1">  1        2 0.48274754E+00 0.24687868E+04</pdfrwt>
<pdfrwt beam="2">  1       -2 0.74706845E-01 0.24687868E+04</pdfrwt>
<totfact> 0.25120497E+00</totfact>
</mgrwt>
<rwgt>
<wgt id='morphing_basis_vector_1'> +1.1314087e-04 </wgt>
<wgt id='morphing_basis_vector_2'> +7.6206318e-05 </wgt>
<wgt id='morphing_basis_vector_3'> +1.2236180e-04 </wgt>
<wgt id='morphing_basis_vector_4'> +8.6230798e-05 </wgt>
<wgt id='morphing_basis_vector_5'> +1.3782807e-04 </wgt>
</rwgt>
</event>
<event>
 4      1 +2.2016400e-08 2.54028700e+03 7.81860800e-03 7.88012100e-02
        2 -1    0    0  501    0 +0.0000000000e+00 +0.0000000000e+00 +1.3989283740e+03 1.3989283740e+03 0.0000000000e+00 0.0000e+00 1.0000e+00
       -2 -1    0    0    0  501 -0.0000000000e+00 -0.0000000000e+00 -1.1532142646e+03 1.1532142646e+03 0.0000000000e+00 0.0000e+00 -1.0000e+00
      -13  1    1    2    0    0 -1.6968347054e+01 +4.0471825322e+02 -1.0865800166e+03 1.1596296485e+03 0.0000000000e+00 0.0000e+00 -1.0000e+00
       13  1    1    2    0    0 +1.6968347054e+01 -4.0471825322e+02 +1.3322941260e+03 1.3925129901e+03 0.0000000000e+00 0.0000e+00 1.0000e+00
<mgrwt>
<rscale>  0 0.25402867E+04</rscale>
<asrwt>0</asrwt>
<pdfrwt beam="1">  1        2 0.21521975E+00 0.25402867E+04</pdfrwt>
<pdfrwt beam="2">  1       -2 0.17741758E+00 0.25402867E+04</pdfrwt>
<totfact> 0.28304710E+00</totfact>
</mgrwt>
<rwgt>
<wgt id='morphing_basis_vector_1'> +1.2649344e-04 </wgt>
<wgt id='morphing_basis_vector_2'> +8.4939497e-05 </wgt>
<wgt id='morphing_basis_vector_3'> +1.3692478e-04 </wgt>
<wgt id='morphing_basis_vector_4'> +9.7101458e-05 </wgt>
<wgt id='morphing_basis_vector_5'> +1.5475190e-04 </wgt>
</rwgt>
</event>
<event>
 4      1 +2.2016400e-08 2.29743800e+03 7.81860800e-03 7.95941800e-02
        2 -1    0    0  501    0 +0.0000000000e+00 +0.0000000000e+00 +1.3995547413e+03 1.3995547413e+03 0.0000000000e+00 0.0000e+00 -1.0000e+00
       -2 -1    0    0    0  501 -0.0000000000e+00 -0.0000000000e+00 -9.4283940882e+02 9.4283940882e+02 0.0000000000e+00 0.0000e+00 1.0000e+00
      -13  1    1    2    0    0 +3.7166428699e+02 +1.3286875414e+02 -8.7153213302e+02 9.5674275902e+02 0.0000000000e+00 0.0000e+00 1.0000e+00
       13  1    1    2    0    0 -3.7166428699e+02 -1.3286875414e+02 +1.3282474655e+03 1.3856513911e+03 0.0000000000e+00 0.0000e+00 -1.0000e+00
<mgrwt>
<rscale>  0 0.22974380E+04</rscale>
<asrwt>0</asrwt>
<pdfrwt beam="1">  1        2 0.21531611E+00 0.22974380E+04</pdfrwt>
<pdfrwt beam="2">  1       -2 0.14505222E+00 0.22974380E+04</pdfrwt>
<totfact> 0.52415988E+00</totfact>
</mgrwt>
<rwgt>
<wgt id='morphing_basis_vector_1'> +8.5104514e-05 </wgt>
<wgt id='morphing_basis_vector_2'> +5.6960651e-05 </wgt>
<wgt id='morphing_basis_vector_3'> +9.1648255e-05 </wgt>
<wgt id='morphing_basis_vector_4'> +6.4613995e-05 </wgt>
<wgt id='morphing_basis_vector_5'> +1.0296246e-04 </wgt>
</rwgt>
</event>
<event>
 4      1 +2.2016400e-08 2.43248100e+03 7.81860800e-03 7.91414800e-02
        2 -1    0    0  501    0 +0.0000000000e+00 +0.0000000000e+00 +2.6967356688e+03 2.6967356688e+03 0.0000000000e+00 0.0000e+00 -1.0000e+00
       -2 -1    0    0    0  501 -0.0000000000e+00 -0.0000000000e+00 -5.4853015596e+02 5.4853015596e+02 0.0000000000e+00 0.0000e+00 1.0000e+00
      -13  1    1    2    0    0 -9.9594394591e+00 +8.3362994248e+02 -1.0734635924e+02 8.4057201493e+02 0.0000000000e+00 0.0000e+00 1.0000e+00
       13  1    1    2    0    0 +9.9594394591e+00 -8.3362994248e+02 +2.2555518721e+03 2.4046938099e+03 0.0000000000e+00 0.0000e+00 -1.0000e+00
<mgrwt>
<rscale>  0 0.24324809E+04</rscale>
<asrwt>0</asrwt>
<pdfrwt beam="1">  1        2 0.41488240E+00 0.24324809E+04</pdfrwt>
<pdfrwt beam="2">  1       -2 0.84389257E-01 0.24324809E+04</pdfrwt>
<totfact> 0.36694965E+00</totfact>
</mgrwt>
<rwgt>
<wgt id='morphing_basis_vector_1'> +1.0669655e-04 </wgt>
<wgt id='morphing_basis_vector_2'> +7.1786513e-05 </wgt>
<wgt id='morphing_basis_vector_3'> +1.1529782e-04 </wgt>
<wgt id='morphing_basis_vector_4'> +8.1247555e-05 </wgt>
<wgt id='morphing_basis_vector_5'> +1.2979829e-04 </wgt>
</rwgt>
</event>
<event>
 4      1 +2.2016400e-08 2.55682200e+03 7.81860800e-03 7.87505500e-02
        2 -1    0    0  501    0 +0.0000000000e+00 +0.0000000000e+00 +8.8092138375e+02 8.8092138375e+02 0.0000000000e+00 0.0000e+00 1.0000e+00
       -2 -1    0    0    0  501 -0.0000000000e+00 -0.0000000000e+00 -1.8552564257e+03 1.8552564257e+03 0.0000000000e+00 0.0000e+00 -1.0000e+00
      -13  1    1    2    0    0 +3.0127150669e+02 -1.1367839334e+03 -1.0236231631e+03 1.5591172541e+03 0.0000000000e+00 0.0000e+00 -1.0000e+00
       13  1    1    2    0    0 -3.0127150669e+02 +1.1367839334e+03 +4.9288121192e+01 1.1770605553e+03 0.0000000000e+00 0.0000e+00 1.0000e+00
<mgrwt>
<rscale>  0 0.25568223E+04</rscale>
<asrwt>0</asrwt>
<pdfrwt beam="1">  1        2 0.13552637E+00 0.25568223E+04</pdfrwt>
<pdfrwt beam="2">  1       -2 0.28542406E+00 0.25568223E+04</pdfrwt>
<totfact> 0.99206215E-01</totfact>
</mgrwt>
<rwgt>
<wgt id='morphing_basis_vector_1'> +1.3075988e-04 </wgt>
<wgt id='morphing_basis_vector_2'> +9.0060466e-05 </wgt>
<wgt id='morphing_basis_vector_3'> +1.4202686e-04 </wgt>
<wgt id='morphing_basis_vector_4'> +9.7666901e-05 </wgt>
<wgt id='morphing_basis_vector_5'> +1.5870761e-04 </wgt>
</rwgt>
</event>
<event>
 4      1 +2.2016400e-08 2.48401100e+03 7.81860800e-03 7.89766300e-02
        2 -1    0    0  501    0 +0.0000000000e+00 +0.0000000000e+00 +2.6287975304e+03 2.6287975304e+03 0.0000000000e+00 0.0000e+00 1.0000e+00
       -2 -1    0    0    0  501 -0.0000000000e+00 -0.0000000000e+00 -5.8679966572e+02 5.8679966572e+02 0.0000000000e+00 0.0000e+00 -1.0000e+00
      -13  1    1    2    0    0 +8.1280755860e+02 -5.7614815657e+02 +6.0980662392e+01 9.9815903884e+02 0.0000000000e+00 0.0000e+00 -1.0000e+00
       13  1    1    2    0    0 -8.1280755860e+02 +5.7614815657e+02 +1.9810172023e+03 2.2174381573e+03 0.0000000000e+00 0.0000e+00 1.0000e+00
<mgrwt>
<rscale>  0 0.24840109E+04</rscale>
<asrwt>0</asrwt>
<pdfrwt beam="1">  1        2 0.40443038E+00 0.24840109E+04</pdfrwt>
<pdfrwt beam="2">  1       -2 0.90276873E-01 0.24840109E+04</pdfrwt>
<totfact> 0.34372430E+00</totfact>
</mgrwt>
<rwgt>
<wgt id='morphing_basis_vector_1'> +1.1607958e-04 </wgt>
<wgt id='morphing_basis_vector_2'> +7.8564624e-05 </wgt>
<wgt id='morphing_basis_vector_3'> +1.2564871e-04 </wgt>
<wgt id='morphing_basis_vector_4'> +8.8077843e-05 </wgt>
<wgt id='morphing_basis_vector_5'> +1.4127823e-04 </wgt>
</rwgt>
</event>
<event>
 4      1 +2.2016400e-08 2.55264500e+03 7.81860800e-03 7.87633100e-02
        2 -1    0    0  501    0 +0.0000000000e+00 +0.0000000000e+00 +2.2913205339e+03 2.2913205339e+03 0.0000000000e+00 0.0000e+00 -1.0000e+00
       -2 -1    0    0    0  501 -0.0000000000e+00 -0.0000000000e+00 -7.1094324770e+02 7.1094324770e+02 0.0000000000e+00 0.0000e+00 1.0000e+00
      -13  1    1    2    0    0 +1.0480503756e+03 -1.8922080589e+02 -3.7118201735e+01 1.0656415271e+03 0.0000000000e+00 0.0000e+00 1.0000e+00
       13  1    1    2    0    0 -1.0480503756e+03 +1.8922080589e+02 +1.6174954879e+03 1.9366222545e+03 0.0000000000e+00 0.0000e+00 -1.0000e+00
<mgrwt>
<rscale>  0 0.25526448E+04</rscale>
<asrwt>0</asrwt>
<pdfrwt beam="1">  1        2 0.35251085E+00 0.25526448E+04</pdfrwt>
<pdfrwt beam="2">  1       -2 0.10937589E+00 0.25526448E+04</pdfrwt>
<totfact> 0.34118833E+00</totfact>
</mgrwt>
<rwgt>
<wgt id='morphing_basis_vector_1'> +1.2937330e-04 </wgt>
<wgt id='morphing_basis_vector_2'> +8.7869616e-05 </wgt>
<wgt id='morphing_basis_vector_3'> +1.4026737e-04 </wgt>
<wgt id='morphing_basis_vector_4'> +9.8141183e-05 </wgt>
<wgt id='morphing_basis_vector_5'> +1.5775112e-04 </wgt>
</rwgt>
</event>
<event>
 4      1 +2.2016400e-08 2.36359400e+03 7.81860800e-03 7.93685200e-02
        2 -1    0    0  501    0 +0.0000000000e+00 +0.0000000000e+00 +1.9520452895e+03 1.9520452895e+03 0.0000000000e+00 0.0000e+00 -1.0000e+00
       -2 -1    0    0    0  501 -0.0000000000e+00 -0.0000000000e+00 -7.1547734110e+02 7.1547734110e+02 0.0000000000e+00 0.0000e+00 1.0000e+00
      -13  1    1    2    0    0 -7.5284415230e+02 -7.0789656470e+02 -2.8813397922e+01 1.0337901508e+03 0.0000000000e+00 0.0000e+00 1.0000e+00
       13  1    1    2    0    0 +7.5284415230e+02 +7.0789656470e+02 +1.2653813463e+03 1.6337324798e+03 0.0000000000e+00 0.0000e+00 -1.0000e+00
<mgrwt>
<rscale>  0 0.23635940E+04</rscale>
<asrwt>0</asrwt>
<pdfrwt beam="1">  1        2 0.30031466E+00 0.23635940E+04</pdfrwt>
<pdfrwt beam="2">  1       -2 0.11007344E+00 0.23635940E+04</pdfrwt>
<totfact> 0.53240172E+00</totfact>
</mgrwt>
<rwgt>
<wgt id='morphing_basis_vector_1'> +9.5632113e-05 </wgt>
<wgt id='morphing_basis_vector_2'> +6.5110126e-05 </wgt>
<wgt id='morphing_basis_vector_3'> +1.0334344e-04 </wgt>
<wgt id='morphing_basis_vector_4'> +7.1574773e-05 </wgt>
<wgt id='morphing_basis_vector_5'> +1.1546299e-04 </wgt>
</rwgt>
</event>
<event>
 4      1 +2.2016400e-08 2.37177800e+03 7.81860800e-03 7.93411300e-02
        2 -1    0    0  501    0 +0.0000000000e+00 +0.0000000000e+00 +1.4743454223e+03 1.4743454223e+03 0.0000000000e+00 0.0000e+00 -1.0000e+00
       -2 -1    0    0    0  501 -0.0000000000e+00 -0.0000000000e+00 -9.5386961733e+02 9.5386961733e+02 0.0000000000e+00 0.0000e+00 1.0000e+00
      -13  1    1    2    0    0 -2.7644433050e+02 +1.1473083952e+03 +3.7961118370e+02 1.2396945884e+03 0.0000000000e+00 0.0000e+00 1.0000e+00
       13  1    1    2    0    0 +2.7644433050e+02 -1.1473083952e+03 +1.4086462130e+02 1.1885204513e+03 0.0000000000e+00 0.0000e+00 -1.0000e+00
<mgrwt>
<rscale>  0 0.23717785E+04</rscale>
<asrwt>0</asrwt>
<pdfrwt beam="1">  1        2 0.22682237E+00 0.23717785E+04</pdfrwt>
<pdfrwt beam="2">  1       -2 0.14674917E+00 0.23717785E+04</pdfrwt>
<totfact> 0.45747955E+00</totfact>
</mgrwt>
<rwgt>
<wgt id='morphing_basis_vector_1'> +1.0148542e-04 </wgt>
<wgt id='morphing_basis_vector_2'> +7.9420303e-05 </wgt>
<wgt id='morphing_basis_vector_3'> +1.1164815e-04 </wgt>
<wgt id='morphing_basis_vector_4'> +6.3333229e-05 </wgt>
<wgt id='morphing_basis_vector_5'> +1.1634778e-04 </wgt>
</rwgt>
</event>
<event>
 4      1 +2.2016400e-08 2.30297900e+03 7.81860800e-03 7.95749800e-02
        2 -1    0    0  501    0 +0.0000000000e+00 +0.0000000000e+00 +2.3728080076e+03 2.3728080076e+03 0.0000000000e+00 0.0000e+00 -1.0000e+00
       -2 -1    0    0    0  501 -0.0000000000e+00 -0.0000000000e+00 -5.5880124144e+02 5.5880124144e+02 0.0000000000e+00 0.0000e+00 1.0000e+00
      -13  1    1    2    0    0 +1.0151357927e+03 +1.0837003690e+02 +1.5850085531e+03 1.8853373321e+03 0.0000000000e+00 0.0000e+00 -1.0000e+00
       13  1    1    2    0    0 -1.0151357927e+03 -1.0837003690e+02 +2.2899821308e+02 1.0462719169e+03 0.0000000000e+00 0.0000e+00 1.0000e+00
<mgrwt>
<rscale>  0 0.23029790E+04</rscale>
<asrwt>0</asrwt>
<pdfrwt beam="1">  1        2 0.36504738E+00 0.23029790E+04</pdfrwt>
<pdfrwt beam="2">  1       -2 0.85969423E-01 0.23029790E+04</pdfrwt>
<totfact> 0.55622745E+00</totfact>
</mgrwt>
<rwgt>
<wgt id='morphing_basis_vector_1'> +1.0017913e-04 </wgt>
<wgt id='morphing_basis_vector_2'> +9.9642373e-05 </wgt>
<wgt id='morphing_basis_vector_3'> +1.1398219e-04 </wgt>
<wgt id='morphing_basis_vector_4'> +3.6292044e-05 </wgt>
<wgt id='morphing_basis_vector_5'> +1.0164733e-04 </wgt>
</rwgt>
</event>
<event>
 4      1 +2.2016400e-08 2.46910800e+03 7.81860800e-03 7.90238800e-02
        2 -1    0    0  501    0 +0.0000000000e+00 +0.0000000000e+00 +8.2578262519e+02 8.2578262519e+02 0.0000000000e+00 0.0000e+00 1.0000e+00
       -2 -1    0    0    0  501 -0.0000000000e+00 -0.0000000000e+00 -1.8456712603e+03 1.8456712603e+03 0.0000000000e+00 0.0000e+00 -1.0000e+00
      -13  1    1    2    0    0 -5.9137357994e+01 +9.2357574631e+02 -1.3939943045e+03 1.6732332495e+03 0.0000000000e+00 0.0000e+00 -1.0000e+00
       13  1    1    2    0    0 +5.9137357994e+01 -9.2357574631e+02 +3.7410566937e+02 9.9822063600e+02 0.0000000000e+00 0.0000e+00 1.0000e+00
<mgrwt>
<rscale>  0 0.24691077E+04</rscale>
<asrwt>0</asrwt>
<pdfrwt beam="1">  1        2 0.12704348E+00 0.24691077E+04</pdfrwt>
<pdfrwt beam="2">  1       -2 0.28394942E+00 0.24691077E+04</pdfrwt>
<totfact> 0.11138724E+00</totfact>
</mgrwt>
<rwgt>
<wgt id='morphing_basis_vector_1'> +1.1325385e-04 </wgt>
<wgt id='morphing_basis_vector_2'> +7.6407808e-05 </wgt>
<wgt id='morphing_basis_vector_3'> +1.2250902e-04 </wgt>
<wgt id='morphing_basis_vector_4'> +8.6163834e-05 </wgt>
<wgt id='morphing_basis_vector_5'> +1.3789161e-04 </wgt>
</rwgt>
</event>
<event>
 4      1 +2.2016400e-08 2.24410100e+03 7.81860800e-03 7.97818900e-02
        2 -1    0    0  501    0 +0.0000000000e+00 +0.0000000000e+00 +1.5716710473e+03 1.5716710473e+03 0.0000000000e+00 0.0000e+00 -1.0000e+00
       -2 -1    0    0    0  501 -0.0000000000e+00 -0.0000000000e+00 -8.0105629011e+02 8.0105629011e+02 0.0000000000e+00 0.0000e+00 1.0000e+00
      -13  1    1    2    0    0 -5.6102845569e+02 +6.3254694550e+02 -3.9462364578e+02 9.3305754815e+02 0.0000000000e+00 0.0000e+00 1.0000e+00
       13  1    1    2    0    0 +5.6102845569e+02 -6.3254694550e+02 +1.1652384030e+03 1.4396697893e+03 0.0000000000e+00 0.0000e+00 -1.0000e+00
<mgrwt>
<rscale>  0 0.22441007E+04</rscale>
<asrwt>0</asrwt>
<pdfrwt beam="1">  1        2 0.24179555E+00 0.22441007E+04</pdfrwt>
<pdfrwt beam="2">  1       -2 0.12323943E+00 0.22441007E+04</pdfrwt>
<totfact> 0.65599489E+00</totfact>
</mgrwt>
<rwgt>
<wgt id='morphing_basis_vector_1'> +7.7718024e-05 </wgt>
<wgt id='morphing_basis_vector_2'> +5.2271270e-05 </wgt>
<wgt id='morphing_basis_vector_3'> +8.3635126e-05 </wgt>
<wgt id='morphing_basis_vector_4'> +5.8470947e-05 </wgt>
<wgt id='morphing_basis_vector_5'> +9.3570532e-05 </wgt>
</rwgt>
</event>
<event>
 4      1 +2.2016400e-08 2.37605000e+03 7.81860800e-03 7.93268800e-02
        2 -1    0    0  501    0 +0.0000000000e+00 +0.0000000000e+00 +1.3053948906e+03 1.3053948906e+03 0.0000000000e+00 0.0000e+00 1.0000e+00
       -2 -1    0    0    0  501 -0.0000000000e+00 -0.0000000000e+00 -1.0812077578e+03 1.0812077578e+03 0.0000000000e+00 0.0000e+00 -1.0000e+00
      -13  1    1    2    0    0 +2.7117212557e+02 -1.1014697485e+03 +4.6669573283e+02 1.2266111183e+03 0.0000000000e+00 0.0000e+00 -1.0000e+00
       13  1    1    2    0    0 -2.7117212557e+02 +1.1014697485e+03 -2.4250860006e+02 1.1599915300e+03 0.0000000000e+00 0.0000e+00 1.0000e+00
<mgrwt>
<rscale>  0 0.23760497E+04</rscale>
<asrwt>0</asrwt>
<pdfrwt beam="1">  1        2 0.20082998E+00 0.23760497E+04</pdfrwt>
<pdfrwt beam="2">  1       -2 0.16633966E+00 0.23760497E+04</pdfrwt>
<totfact> 0.39542381E+00</totfact>
</mgrwt>
<rwgt>
<wgt id='morphing_basis_vector_1'> +1.0696259e-04 </wgt>
<wgt id='morphing_basis_vector_2'> +9.4028646e-05 </wgt>
<wgt id='morphing_basis_vector_3'> +1.1964790e-04 </wgt>
<wgt id='morphing_basis_vector_4'> +5.4107981e-05 </wgt>
<wgt id='morphing_basis_vector_5'> +1.1641869e-04 </wgt>
</rwgt>
</event>
<event>
 4      1 +2.2016400e-08 2.23799500e+03 7.81860800e-03 7.98037200e-02
        2 -1    0    0  501    0 +0.0000000000e+00 +0.0000000000e+00 +1.5039369629e+03 1.5039369629e+03 0.0000000000e+00 0.0000e+00 1.0000e+00
       -2 -1    0    0    0  501 -0.0000000000e+00 -0.0000000000e+00 -8.3258467472e+02 8.3258467472e+02 0.0000000000e+00 0.0000e+00 -1.0000e+00
      -13  1    1    2    0    0 -5.0891258927e+02 +9.5924858742e+02 +6.1776573731e+02 1.2493135644e+03 0.0000000000e+00 0.0000e+00 -1.0000e+00
       13  1    1    2    0    0 +5.0891258927e+02 -9.5924858742e+02 +5.3586550841e+01 1.0872080732e+03 0.0000000000e+00 0.0000e+00 1.0000e+00
<mgrwt>
<rscale>  0 0.22379945E+04</rscale>
<asrwt>0</asrwt>
<pdfrwt beam="1">  1        2 0.23137492E+00 0.22379945E+04</pdfrwt>
<pdfrwt beam="2">  1       -2 0.12808995E+00 0.22379945E+04</pdfrwt>
<totfact> 0.64689497E+00</totfact>
</mgrwt>
<rwgt>
<wgt id='morphing_basis_vector_1'> +8.3214150e-05 </wgt>
<wgt id='morphing_basis_vector_2'> +7.0400435e-05 </wgt>
<wgt id='morphing_basis_vector_3'> +9.2185404e-05 </wgt>
<wgt id='morphing_basis_vector_4'> +4.5033128e-05 </wgt>
<wgt id='morphing_basis_vector_5'> +9.1515246e-05 </wgt>
</rwgt>
</event>
<event>
 4      1 +2.2016400e-08 2.32021800e+03 7.81860800e-03 7.95156000e-02
        2 -1    0    0  501    0 +0.0000000000e+00 +0.0000000000e+00 +3.0179075340e+03 3.0179075340e+03 0.0000000000e+00 0.0000e+00 1.0000e+00
       -2 -1    0    0    0  501 -0.0000000000e+00 -0.0000000000e+00 -4.4595545708e+02 4.4595545708e+02 0.0000000000e+00 0.0000e+00 -1.0000e+00
      -13  1    1    2    0    0 -1.3450780048e+02 -8.1869811864e+02 +7.5440078781e+01 8.3309673109e+02 0.0000000000e+00 0.0000e+00 -1.0000e+00
       13  1    1    2    0    0 +1.3450780048e+02 +8.1869811864e+02 +2.4965119981e+03 2.6307662599e+03 0.0000000000e+00 0.0000e+00 1.0000e+00
<mgrwt>
<rscale>  0 0.23202175E+04</rscale>
<asrwt>0</asrwt>
<pdfrwt beam="1">  1        2 0.46429345E+00 0.23202175E+04</pdfrwt>
<pdfrwt beam="2">  1       -2 0.68608534E-01 0.23202175E+04</pdfrwt>
<totfact> 0.36730604E+00</totfact>
</mgrwt>
<rwgt>
<wgt id='morphing_basis_vector_1'> +8.8586177e-05 </wgt>
<wgt id='morphing_basis_vector_2'> +5.9560908e-05 </wgt>
<wgt id='morphing_basis_vector_3'> +9.5497116e-05 </wgt>
<wgt id='morphing_basis_vector_4'> +6.7032193e-05 </wgt>
<wgt id='morphing_basis_vector_5'> +1.0715298e-04 </wgt>
</rwgt>
</event>
<event>
 4      1 +2.2016400e-08 2.36367100e+03 7.81860800e-03 7.93682600e-02
        2 -1    0    0  501    0 +0.0000000000e+00 +0.0000000000e+00 +2.7355912670e+03 2.7355912670e+03 0.0000000000e+00 0.0000e+00 -1.0000e+00
       -2 -1    0    0    0  501 -0.0000000000e+00 -0.0000000000e+00 -5.1057875573e+02 5.1057875573e+02 0.0000000000e+00 0.0000e+00 1.0000e+00
      -13  1    1    2    0    0 -5.1116088046e+02 -4.3683036142e+02 -2.2228954597e+02 7.0817995779e+02 0.0000000000e+00 0.0000e+00 1.0000e+00
       13  1    1    2    0    0 +5.1116088046e+02 +4.3683036142e+02 +2.4473020572e+03 2.5379900649e+03 0.0000000000e+00 0.0000e+00 -1.0000e+00
<mgrwt>
<rscale>  0 0.23636707E+04</rscale>
<asrwt>0</asrwt>
<pdfrwt beam="1">  1        2 0.42086019E+00 0.23636707E+04</pdfrwt>
<pdfrwt beam="2">  1       -2 0.78550579E-01 0.23636707E+04</pdfrwt>
<totfact> 0.41132396E+00</totfact>
</mgrwt>
<rwgt>
<wgt id='morphing_basis_vector_1'> +9.5221918e-05 </wgt>
<wgt id='morphing_basis_vector_2'> +6.3871139e-05 </wgt>
<wgt id='morphing_basis_vector_3'> +1.0271846e-04 </wgt>
<wgt id='morphing_basis_vector_4'> +7.2444461e-05 </wgt>
<wgt id='morphing_basis_vector_5'> +1.1554752e-04 </wgt>
</rwgt>
</event>
<event>
 4      1 +2.2016400e-08 2.40909700e+03 7.81860800e-03 7.92176700e-02
        2 -1    0    0  501    0 +0.0000000000e+00 +0.0000000000e+00 +1.5568877502e+03 1.5568877502e+03 0.0000000000e+00 0.0000e+00 -1.0000e+00
       -2 -1    0    0    0  501 -0.0000000000e+00 -0.0000000000e+00 -9.3194732212e+02 9.3194732212e+02 0.0000000000e+00 0.0000e+00 1.0000e+00
      -13  1    1    2    0    0 +8.4907196499e+02 +7.2701809406e+02 -1.5122752051e+02 1.1279841638e+03 0.0000000000e+00 0.0000e+00 1.0000e+00
       13  1    1    2    0    0 -8.4907196499e+02 -7.2701809406e+02 +7.7616794859e+02 1.3608509085e+03 0.0000000000e+00 0.0000e+00 -1.0000e+00
<mgrwt>
<rscale>  0 0.24090972E+04</rscale>
<asrwt>0</asrwt>
<pdfrwt beam="1">  1        2 0.23952119E+00 0.24090972E+04</pdfrwt>
<pdfrwt beam="2">  1       -2 0.14337651E+00 0.24090972E+04</pdfrwt>
<totfact> 0.43765973E+00</totfact>
</mgrwt>
<rwgt>
<wgt id='morphing_basis_vector_1'> +1.0345704e-04 </wgt>
<wgt id='morphing_basis_vector_2'> +7.1293382e-05 </wgt>
<wgt id='morphing_basis_vector_3'> +1.1206881e-04 </wgt>
<wgt id='morphing_basis_vector_4'> +7.6598575e-05 </wgt>
<wgt id='morphing_basis_vector_5'> +1.2468929e-04 </wgt>
</rwgt>
</event>
<event>
 4      1 +2.2016400e-08 2.51084300e+03 7.81860800e-03 7.88924000e-02
        2 -1    0    0  501    0 +0.0000000000e+00 +0.0000000000e+00 +1.2482911778e+03 1.2482911778e+03 0.0000000000e+00 0.0000e+00 1.0000e+00
       -2 -1    0    0    0  501 -0.0000000000e+00 -0.0000000000e+00 -1.2625925480e+03 1.2625925480e+03 0.0000000000e+00 0.0000e+00 -1.0000e+00
      -13  1    1    2    0    0 +6.3092210866e+01 +4.9093046942e+02 -1.1608980448e+03 1.2620133213e+03 0.0000000000e+00 0.0000e+00 -1.0000e+00
       13  1    1    2    0    0 -6.3092210866e+01 -4.9093046942e+02 +1.1465966746e+03 1.2488704044e+03 0.0000000000e+00 0.0000e+00 1.0000e+00
<mgrwt>
<rscale>  0 0.25108430E+04</rscale>
<asrwt>0</asrwt>
<pdfrwt beam="1">  1        2 0.19204480E+00 0.25108430E+04</pdfrwt>
<pdfrwt beam="2">  1       -2 0.19424501E+00 0.25108430E+04</pdfrwt>
<totfact> 0.25860193E+00</totfact>
</mgrwt>
<rwgt>
<wgt id='morphing_basis_vector_1'> +1.2080712e-04 </wgt>
<wgt id='morphing_basis_vector_2'> +8.1104534e-05 </wgt>
<wgt id='morphing_basis_vector_3'> +1.3070007e-04 </wgt>
<wgt id='morphing_basis_vector_4'> +9.2613836e-05 </wgt>
<wgt id='morphing_basis_vector_5'> +1.4761367e-04 </wgt>
</rwgt>
</event>
<event>
 4      1 +2.2016400e-08 2.24375500e+03 7.81860800e-03 7.97831200e-02
        2 -1    0    0  501    0 +0.0000000000e+00 +0.0000000000e+00 +2.7591058961e+03 2.7591058961e+03 0.0000000000e+00 0.0000e+00 -1.0000e+00
       -2 -1    0    0    0  501 -0.0000000000e+00 -0.0000000000e+00 -4.5616563145e+02 4.5616563145e+02 0.0000000000e+00 0.0000e+00 1.0000e+00
      -13  1    1    2    0    0 -7.2764635817e+02 +8.3598589091e+02 +1.4007754560e+03 1.7862008595e+03 0.0000000000e+00 0.0000e+00 1.0000e+00
       13  1    1    2    0    0 +7.2764635817e+02 -8.3598589091e+02 +9.0216480870e+02 1.4290706681e+03 0.0000000000e+00 0.0000e+00 -1.0000e+00
<mgrwt>
<rscale>  0 0.22437551E+04</rscale>
<asrwt>0</asrwt>
<pdfrwt beam="1">  1        2 0.42447782E+00 0.22437551E+04</pdfrwt>
<pdfrwt beam="2">  1       -2 0.70179330E-01 0.22437551E+04</pdfrwt>
<totfact> 0.51489361E+00</totfact>
</mgrwt>
<rwgt>
<wgt id='morphing_basis_vector_1'> +8.2424200e-05 </wgt>
<wgt id='morphing_basis_vector_2'> +6.6285769e-05 </wgt>
<wgt id='morphing_basis_vector_3'> +9.0693510e-05 </wgt>
<wgt id='morphing_basis_vector_4'> +4.8816273e-05 </wgt>
<wgt id='morphing_basis_vector_5'> +9.2741292e-05 </wgt>
</rwgt>
</event>
<event>
 4      1 +2.2016400e-08 2.47673100e+03 7.81860800e-03 7.89996700e-02
        2 -1    0    0  501    0 +0.0000000000e+00 +0.0000000000e+00 +1.9472099505e+03 1.9472099505e+03 0.0000000000e+00 0.0000e+00 1.0000e+00
       -2 -1    0    0    0  501 -0.0000000000e+00 -0.0000000000e+00 -7.8756219804e+02 7.8756219804e+02 0.0000000000e+00 0.0000e+00 -1.0000e+00
      -13  1    1    2    0    0 +1.9888635901e+02 -5.7409129422e+02 -6.1168075023e+02 8.6214264371e+02 0.0000000000e+00 0.0000e+00 -1.0000e+00
       13  1    1    2    0    0 -1.9888635901e+02 +5.7409129422e+02 +1.7713285027e+03 1.8726295048e+03 0.0000000000e+00 0.0000e+00 1.0000e+00
<mgrwt>
<rscale>  0 0.24767309E+04</rscale>
<asrwt>0</asrwt>
<pdfrwt beam="1">  1        2 0.29957076E+00 0.24767309E+04</pdfrwt>
<pdfrwt beam="2">  1       -2 0.12116342E+00 0.24767309E+04</pdfrwt>
<totfact> 0.41504246E+00</totfact>
</mgrwt>
<rwgt>
<wgt id='morphing_basis_vector_1'> +1.1447021e-04 </wgt>
<wgt id='morphing_basis_vector_2'> +7.6848940e-05 </wgt>
<wgt id='morphing_basis_vector_3'> +1.2376850e-04 </wgt>
<wgt id='morphing_basis_vector_4'> +8.7594482e-05 </wgt>
<wgt id='morphing_basis_vector_5'> +1.3965312e-04 </wgt>
</rwgt>
</event>
<event>
 4      1 +2.2016400e-08 2.34326100e+03 7.81860800e-03 7.94370600e-02
        2 -1    0    0  501    0 +0.0000000000e+00 +0.0000000000e+00 +1.8214632594e+03 1.8214632594e+03 0.0000000000e+00 0.0000e+00 1.0000e+00
       -2 -1    0    0    0  501 -0.0000000000e+00 -0.0000000000e+00 -7.5363502045e+02 7.5363502045e+02 0.0000000000e+00 0.0000e+00 -1.0000e+00
      -13  1    1    2    0    0 -4.9567349581e+02 +4.8066045955e+02 -5.0630561649e+02 8.5619627955e+02 0.0000000000e+00 0.0000e+00 -1.0000e+00
       13  1    1    2    0    0 +4.9567349581e+02 -4.8066045955e+02 +1.5741338554e+03 1.7189020003e+03 0.0000000000e+00 0.0000e+00 1.0000e+00
<mgrwt>
<rscale>  0 0.23432614E+04</rscale>
<asrwt>0</asrwt>
<pdfrwt beam="1">  1        2 0.28022512E+00 0.23432614E+04</pdfrwt>
<pdfrwt beam="2">  1       -2 0.11594385E+00 0.23432614E+04</pdfrwt>
<totfact> 0.55316162E+00</totfact>
</mgrwt>
<rwgt>
<wgt id='morphing_basis_vector_1'> +9.2028954e-05 </wgt>
<wgt id='morphing_basis_vector_2'> +6.1726236e-05 </wgt>
<wgt id='morphing_basis_vector_3'> +9.9230448e-05 </wgt>
<wgt id='morphing_basis_vector_4'> +6.9926894e-05 </wgt>
<wgt id='morphing_basis_vector_5'> +1.1155097e-04 </wgt>
</rwgt>
</event>
<event>
 4      1 +2.2016400e-08 2.34324400e+03 7.81860800e-03 7.94371200e-02
        2 -1    0    0  501    0 +0.0000000000e+00 +0.0000000000e+00 +2.9931906117e+03 2.9931906117e+03 0.0000000000e+00 0.0000e+00 -1.0000e+00
       -2 -1    0    0    0  501 -0.0000000000e+00 -0.0000000000e+00 -4.5860689835e+02 4.5860689835e+02 0.0000000000e+00 0.0000e+00 1.0000e+00
      -13  1    1    2    0    0 +9.3598110393e+02 -6.5040863741e+02 +1.6669456814e+03 2.0193563151e+03 0.0000000000e+00 0.0000e+00 1.0000e+00
       13  1    1    2    0    0 -9.3598110393e+02 +6.5040863741e+02 +8.6763803192e+02 1.4324411949e+03 0.0000000000e+00 0.0000e+00 -1.0000e+00
<mgrwt>
<rscale>  0 0.23432438E+04</rscale>
<asrwt>0</asrwt>
<pdfrwt beam="1">  1        2 0.46049085E+00 0.23432438E+04</pdfrwt>
<pdfrwt beam="2">  1       -2 0.70554910E-01 0.23432438E+04</pdfrwt>
<totfact> 0.35827045E+00</totfact>
</mgrwt>
<rwgt>
<wgt id='morphing_basis_vector_1'> +9.9478704e-05 </wgt>
<wgt id='morphing_basis_vector_2'> +8.3733558e-05 </wgt>
<wgt id='morphing_basis_vector_3'> +1.1047138e-04 </wgt>
<wgt id='morphing_basis_vector_4'> +5.4763258e-05 </wgt>
<wgt id='morphing_basis_vector_5'> +1.1032676e-04 </wgt>
</rwgt>
</event>
<event>
 4      1 +2.2016400e-08 2.44459200e+03 7.81860800e-03 7.91023600e-02
        2 -1    0    0  501    0 +0.0000000000e+00 +0.0000000000e+00 +3.0522103612e+03 3.0522103612e+03 0.0000000000e+00 0.0000e+00 -1.0000e+00
       -2 -1    0    0    0  501 -0.0000000000e+00 -0.0000000000e+00 -4.8948384441e+02 4.8948384441e+02 0.0000000000e+00 0.0000e+00 1.0000e+00
      -13  1    1    2    0    0 -3.1544884030e+02 -1.1531060251e+03 +9.1243079618e+02 1.5038920951e+03 0.0000000000e+00 0.0000e+00 1.0000e+00
       13  1    1    2    0    0 +3.1544884030e+02 +1.1531060251e+03 +1.6502957206e+03 2.0378021105e+03 0.0000000000e+00 0.0000e+00 -1.0000e+00
<mgrwt>
<rscale>  0 0.24445921E+04</rscale>
<asrwt>0</asrwt>
<pdfrwt beam="1">  1        2 0.46957081E+00 0.24445921E+04</pdfrwt>
<pdfrwt beam="2">  1       -2 0.75305209E-01 0.24445921E+04</pdfrwt>
<totfact> 0.28190769E+00</totfact>
</mgrwt>
<rwgt>
<wgt id='morphing_basis_vector_1'> +1.1051166e-04 </wgt>
<wgt id='morphing_basis_vector_2'> +7.8247636e-05 </wgt>
<wgt id='morphing_basis_vector_3'> +1.2019938e-04 </wgt>
<wgt id='morphing_basis_vector_4'> +7.9416283e-05 </wgt>
<wgt id='morphing_basis_vector_5'> +1.3215646e-04 </wgt>
</rwgt>
</event>
<event>
 4      1 +2.2016400e-08 2.50277100e+03 7.81860800e-03 7.89176300e-02
        2 -1    0    0  501    0 +0.0000000000e+00 +0.0000000000e+00 +1.7746781768e+03 1.7746781768e+03 0.0000000000e+00 0.0000e+00 -1.0000e+00
       -2 -1    0    0    0  501 -0.0000000000e+00 -0.0000000000e+00 -8.8239402446e+02 8.8239402446e+02 0.0000000000e+00 0.0000e+00 1.0000e+00
      -13  1    1    2    0    0 -1.1514368509e+03 +3.5485641646e+02 +8.0496721288e+02 1.4490348898e+03 0.0000000000e+00 0.0000e+00 1.0000e+00
       13  1    1    2    0    0 +1.1514368509e+03 -3.5485641646e+02 +8.7316939437e+01 1.2080373115e+03 0.0000000000e+00 0.0000e+00 -1.0000e+00
<mgrwt>
<rscale>  0 0.25027708E+04</rscale>
<asrwt>0</asrwt>
<pdfrwt beam="1">  1        2 0.27302741E+00 0.25027708E+04</pdfrwt>
<pdfrwt beam="2">  1       -2 0.13575293E+00 0.25027708E+04</pdfrwt>
<totfact> 0.38192093E+00</totfact>
</mgrwt>
<rwgt>
<wgt id='morphing_basis_vector_1'> +1.3030117e-04 </wgt>
<wgt id='morphing_basis_vector_2'> +1.1258964e-04 </wgt>
<wgt id='morphing_basis_vector_3'> +1.4585143e-04 </wgt>
<wgt id='morphing_basis_vector_4'> +6.8829053e-05 </wgt>
<wgt id='morphing_basis_vector_5'> +1.4387013e-04 </wgt>
</rwgt>
</event>
<event>
 4      1 +2.2016400e-08 2.46449200e+03 7.81860800e-03 7.90385800e-02
        2 -1    0    0  501    0 +0.0000000000e+00 +0.0000000000e+00 +1.9844670253e+03 1.9844670253e+03 0.0000000000e+00 0.0000e+00 -1.0000e+00
       -2 -1    0    0    0  501 -0.0000000000e+00 -0.0000000000e+00 -7.6515796142e+02 7.6515796142e+02 0.0000000000e+00 0.0000e+00 1.0000e+00
      -13  1    1    2    0    0 -5.7240042336e+02 -4.0488488328e+02 -5.2092443806e+02 8.7346223933e+02 0.0000000000e+00 0.0000e+00 1.0000e+00
       13  1    1    2    0    0 +5.7240042336e+02 +4.0488488328e+02 +1.7402335020e+03 1.8761627474e+03 0.0000000000e+00 0.0000e+00 -1.0000e+00
<mgrwt>
<rscale>  0 0.24644924E+04</rscale>
<asrwt>0</asrwt>
<pdfrwt beam="1">  1        2 0.30530262E+00 0.24644924E+04</pdfrwt>
<pdfrwt beam="2">  1       -2 0.11771661E+00 0.24644924E+04</pdfrwt>
<totfact> 0.42671825E+00</totfact>
</mgrwt>
<rwgt>
<wgt id='morphing_basis_vector_1'> +1.1227580e-04 </wgt>
<wgt id='morphing_basis_vector_2'> +7.5413674e-05 </wgt>
<wgt id='morphing_basis_vector_3'> +1.2137589e-04 </wgt>
<wgt id='morphing_basis_vector_4'> +8.5809666e-05 </wgt>
<wgt id='morphing_basis_vector_5'> +1.3687401e-04 </wgt>
</rwgt>
</event>
<event>
 4      1 +2.2016400e-08 2.54132600e+03 7.81860800e-03 7.87980200e-02
        2 -1    0    0  501    0 +0.0000000000e+00 +0.0000000000e+00 +1.6042952177e+03 1.6042952177e+03 0.0000000000e+00 0.0000e+00 -1.0000e+00
       -2 -1    0    0    0  501 -0.0000000000e+00 -0.0000000000e+00 -1.0064135549e+03 1.0064135549e+03 0.0000000000e+00 0.0000e+00 1.0000e+00
      -13  1    1    2    0    0 +5.2703302903e+02 -7.8543064994e+02 -5.7270482045e+02 1.1057377315e+03 0.0000000000e+00 0.0000e+00 1.0000e+00
       13  1    1    2    0    0 -5.2703302903e+02 +7.8543064994e+02 +1.1705864833e+03 1.5049710410e+03 0.0000000000e+00 0.0000e+00 -1.0000e+00
<mgrwt>
<rscale>  0 0.25413260E+04</rscale>
<asrwt>0</asrwt>
<pdfrwt beam="1">  1        2 0.24681465E+00 0.25413260E+04</pdfrwt>
<pdfrwt beam="2">  1       -2 0.15483285E+00 0.25413260E+04</pdfrwt>
<totfact> 0.32713742E+00</totfact>
</mgrwt>
<rwgt>
<wgt id='morphing_basis_vector_1'> +1.2689805e-04 </wgt>
<wgt id='morphing_basis_vector_2'> +8.5668177e-05 </wgt>
<wgt id='morphing_basis_vector_3'> +1.3745498e-04 </wgt>
<wgt id='morphing_basis_vector_4'> +9.6851658e-05 </wgt>
<wgt id='morphing_basis_vector_5'> +1.5497511e-04 </wgt>
</rwgt>
</event>
<event>
 4      1 +2.2016400e-08 2.30542300e+03 7.81860800e-03 7.95665300e-02
        2 -1    0    0  501    0 +0.0000000000e+00 +0.0000000000e+00 +8.7467137841e+02 8.7467137841e+02 0.0000000000e+00 0.0000e+00 1.0000e+00
       -2 -1    0    0    0  501 -0.0000000000e+00 -0.0000000000e+00 -1.5191352975e+03 1.5191352975e+03 0.0000000000e+00 0.0000e+00 -1.0000e+00
      -13  1    1    2    0    0 -3.4211541276e+02 -6.2156092700e+02 +6.2109218351e+02 9.4294031733e+02 0.0000000000e+00 0.0000e+00 1.0000e+00
       13  1    1    2    0    0 +3.4211541276e+02 +6.2156092700e+02 -1.2655561026e+03 1.4508663586e+03 0.0000000000e+00 0.0000e+00 -1.0000e+00
<mgrwt>
<rscale>  0 0.23054233E+04</rscale>
<asrwt>0</asrwt>
<pdfrwt beam="1">  1        2 0.13456483E+00 0.23054233E+04</pdfrwt>
<pdfrwt beam="2">  1       -2 0.23371312E+00 0.23054233E+04</pdfrwt>
<totfact> 0.23233008E+00</totfact>
</mgrwt>
<rwgt>
<wgt id='morphing_basis_vector_1'> +1.1459555e-04 </wgt>
<wgt id='morphing_basis_vector_2'> +1.4140742e-04 </wgt>
<wgt id='morphing_basis_vector_3'> +1.3552103e-04 </wgt>
<wgt id='morphing_basis_vector_4'> +8.0287730e-06 </wgt>
<wgt id='morphing_basis_vector_5'> +9.9801506e-05 </wgt>
</rwgt>
</event>
<event>
 4      1 +2.2016400e-08 2.24456700e+03 7.81860800e-03 7.97802200e-02
        2 -1    0    0  501    0 +0.0000000000e+00 +0.0000000000e+00 +1.1192758651e+03 1.1192758651e+03 0.0000000000e+00 0.0000e+00 1.0000e+00
       -2 -1    0    0    0  501 -0.0000000000e+00 -0.0000000000e+00 -1.1252990977e+03 1.1252990977e+03 0.0000000000e+00 0.0000e+00 -1.0000e+00
      -13  1    1    2    0    0 +3.7953694947e+02 -1.0508213557e+03 -1.0906058796e+02 1.1225720598e+03 0.0000000000e+00 0.0000e+00 1.0000e+00
       13  1    1    2    0    0 -3.7953694947e+02 +1.0508213557e+03 +1.0303735534e+02 1.1220029030e+03 0.0000000000e+00 0.0000e+00 -1.0000e+00
<mgrwt>
<rscale>  0 0.22445669E+04</rscale>
<asrwt>0</asrwt>
<pdfrwt beam="1">  1        2 0.17219629E+00 0.22445669E+04</pdfrwt>
<pdfrwt beam="2">  1       -2 0.17312294E+00 0.22445669E+04</pdfrwt>
<totfact> 0.45461484E+00</totfact>
</mgrwt>
<rwgt>
<wgt id='morphing_basis_vector_1'> +7.9656671e-05 </wgt>
<wgt id='morphing_basis_vector_2'> +5.7855505e-05 </wgt>
<wgt id='morphing_basis_vector_3'> +8.6509485e-05 </wgt>
<wgt id='morphing_basis_vector_4'> +5.4725929e-05 </wgt>
<wgt id='morphing_basis_vector_5'> +9.3345493e-05 </wgt>
</rwgt>
</event>
<event>
 4      1 +2.2016400e-08 2.25685900e+03 7.81860800e-03 7.97365000e-02
        2 -1    0    0  501    0 +0.0000000000e+00 +0.0000000000e+00 +5.5639131074e+02 5.5639131074e+02 0.0000000000e+00 0.0000e+00 -1.0000e+00
       -2 -1    0    0    0  501 -0.0000000000e+00 -0.0000000000e+00 -2.2885932005e+03 2.2885932005e+03 0.0000000000e+00 0.0000e+00 1.0000e+00
      -13  1    1    2    0    0 +1.6667692158e+02 +8.5023661636e+02 -1.7774592854e+03 1.9773833749e+03 0.0000000000e+00 0.0000e+00 1.0000e+00
       13  1    1    2    0    0 -1.6667692158e+02 -8.5023661636e+02 +4.5257395631e+01 8.6760113638e+02 0.0000000000e+00 0.0000e+00 -1.0000e+00
<mgrwt>
<rscale>  0 0.22568592E+04</rscale>
<asrwt>0</asrwt>
<pdfrwt beam="1">  1        2 0.85598663E-01 0.22568592E+04</pdfrwt>
<pdfrwt beam="2">  1       -2 0.35209126E+00 0.22568592E+04</pdfrwt>
<totfact> 0.64541306E-01</totfact>
</mgrwt>
<rwgt>
<wgt id='morphing_basis_vector_1'> +7.9488440e-05 </wgt>
<wgt id='morphing_basis_vector_2'> +5.3511479e-05 </wgt>
<wgt id='morphing_basis_vector_3'> +8.5576122e-05 </wgt>
<wgt id='morphing_basis_vector_4'> +5.9798989e-05 </wgt>
<wgt id='morphing_basis_vector_5'> +9.5748361e-05 </wgt>
</rwgt>
</event>
<event>
 4      1 +2.2016400e-08 2.57937400e+03 7.81860800e-03 7.86820800e-02
        2 -1    0    0  501    0 +0.0000000000e+00 +0.0000000000e+00 +1.9770332588e+03 1.9770332588e+03 0.0000000000e+00 0.0000e+00 -1.0000e+00
       -2 -1    0    0    0  501 -0.0000000000e+00 -0.0000000000e+00 -8.4130724868e+02 8.4130724868e+02 0.0000000000e+00 0.0000e+00 1.0000e+00
      -13  1    1    2    0    0 +1.1347058186e+03 +1.7433228703e+02 -7.4240034286e+01 1.1504175867e+03 0.0000000000e+00 0.0000e+00 1.0000e+00
       13  1    1    2    0    0 -1.1347058186e+03 -1.7433228703e+02 +1.2099660444e+03 1.6679229208e+03 0.0000000000e+00 0.0000e+00 -1.0000e+00
<mgrwt>
<rscale>  0 0.25793739E+04</rscale>
<asrwt>0</asrwt>
<pdfrwt beam="1">  1        2 0.30415896E+00 0.25793739E+04</pdfrwt>
<pdfrwt beam="2">  1       -2 0.12943189E+00 0.25793739E+04</pdfrwt>
<totfact> 0.33268587E+00</totfact>
</mgrwt>
<rwgt>
<wgt id='morphing_basis_vector_1'> +1.3510771e-04 </wgt>
<wgt id='morphing_basis_vector_2'> +9.2471663e-05 </wgt>
<wgt id='morphing_basis_vector_3'> +1.4668968e-04 </wgt>
<wgt id='morphing_basis_vector_4'> +1.0175156e-04 </wgt>
<wgt id='morphing_basis_vector_5'> +1.6449615e-04 </wgt>
</rwgt>
</event>
<event>
 4      1 +2.2016400e-08 2.48050200e+03 7.81860800e-03 7.89877300e-02
        2 -1    0    0  501    0 +0.0000000000e+00 +0.0000000000e+00 +3.0581985246e+03 3.0581985246e+03 0.0000000000e+00 0.0000e+00 -1.0000e+00
       -2 -1    0    0    0  501 -0.0000000000e+00 -0.0000000000e+00 -5.0298302627e+02 5.0298302627e+02 0.0000000000e+00 0.0000e+00 1.0000e+00
      -13  1    1    2    0    0 -4.2337424561e+02 -6.0526001335e+02 -1.5276668871e+02 7.5426990977e+02 0.0000000000e+00 0.0000e+00 1.0000e+00
       13  1    1    2    0    0 +4.2337424561e+02 +6.0526001335e+02 +2.7079821870e+03 2.8069116411e+03 0.0000000000e+00 0.0000e+00 -1.0000e+00
<mgrwt>
<rscale>  0 0.24805015E+04</rscale>
<asrwt>0</asrwt>
<pdfrwt beam="1">  1        2 0.47049207E+00 0.24805015E+04</pdfrwt>
<pdfrwt beam="2">  1       -2 0.77382006E-01 0.24805015E+04</pdfrwt>
<totfact> 0.26211041E+00</totfact>
</mgrwt>
<rwgt>
<wgt id='morphing_basis_vector_1'> +1.1519316e-04 </wgt>
<wgt id='morphing_basis_vector_2'> +7.7414431e-05 </wgt>
<wgt id='morphing_basis_vector_3'> +1.2457430e-04 </wgt>
<wgt id='morphing_basis_vector_4'> +8.8067239e-05 </wgt>
<wgt id='morphing_basis_vector_5'> +1.4051110e-04 </wgt>
</rwgt>
</event>
<event>
 4      1 +2.2016400e-08 2.28866100e+03 7.81860800e-03 7.96247100e-02
        2 -1    0    0  501    0 +0.0000000000e+00 +0.0000000000e+00 +2.3949408423e+03 2.3949408423e+03 0.0000000000e+00 0.0000e+00 1.0000e+00
       -2 -1    0    0    0  501 -0.0000000000e+00 -0.0000000000e+00 -5.4677420864e+02 5.4677420864e+02 0.0000000000e+00 0.0000e+00 -1.0000e+00
      -13  1    1    2    0    0 +1.1402991321e+01 +1.1305478105e+03 +6.9696089004e+02 1.3281652240e+03 0.0000000000e+00 0.0000e+00 1.0000e+00
       13  1    1    2    0    0 -1.1402991321e+01 -1.1305478105e+03 +1.1512057437e+03 1.6135498270e+03 0.0000000000e+00 0.0000e+00 -1.0000e+00
<mgrwt>
<rscale>  0 0.22886606E+04</rscale>
<asrwt>0</asrwt>
<pdfrwt beam="1">  1        2 0.36845243E+00 0.22886606E+04</pdfrwt>
<pdfrwt beam="2">  1       -2 0.84119111E-01 0.22886606E+04</pdfrwt>
<totfact> 0.56835868E+00</totfact>
</mgrwt>
<rwgt>
<wgt id='morphing_basis_vector_1'> +8.5554695e-05 </wgt>
<wgt id='morphing_basis_vector_2'> +6.1192297e-05 </wgt>
<wgt id='morphing_basis_vector_3'> +9.2845812e-05 </wgt>
<wgt id='morphing_basis_vector_4'> +6.0121509e-05 </wgt>
<wgt id='morphing_basis_vector_5'> +1.0109349e-04 </wgt>
</rwgt>
</event>
<event>
 4      1 +2.2016400e-08 2.57698700e+03 7.81860800e-03 7.86893000e-02
        2 -1    0    0  501    0 +0.0000000000e+00 +0.0000000000e+00 +2.8577212486e+03 2.8577212486e+03 0.0000000000e+00 0.0000e+00 -1.0000e+00
       -2 -1    0    0    0  501 -0.0000000000e+00 -0.0000000000e+00 -5.8095768997e+02 5.8095768997e+02 0.0000000000e+00 0.0000e+00 1.0000e+00
      -13  1    1    2    0    0 +6.0140466746e+02 -7.3038867662e+01 -3.7905673187e+02 7.1463715003e+02 0.0000000000e+00 0.0000e+00 1.0000e+00
       13  1    1    2    0    0 -6.0140466746e+02 +7.3038867662e+01 +2.6558202905e+03 2.7240417886e+03 0.0000000000e+00 0.0000e+00 -1.0000e+00
<mgrwt>
<rscale>  0 0.25769867E+04</rscale>
<asrwt>0</asrwt>
<pdfrwt beam="1">  1        2 0.43964941E+00 0.25769867E+04</pdfrwt>
<pdfrwt beam="2">  1       -2 0.89378108E-01 0.25769867E+04</pdfrwt>
<totfact> 0.25162139E+00</totfact>
</mgrwt>
<rwgt>
<wgt id='morphing_basis_vector_1'> +1.3388499e-04 </wgt>
<wgt id='morphing_basis_vector_2'> +8.9980220e-05 </wgt>
<wgt id='morphing_basis_vector_3'> +1.4502918e-04 </wgt>
<wgt id='morphing_basis_vector_4'> +1.0287020e-04 </wgt>
<wgt id='morphing_basis_vector_5'> +1.6400257e-04 </wgt>
</rwgt>
</event>
<event>
 4      1 +2.2016400e-08 2.32770900e+03 7.81860800e-03 7.94899700e-02
        2 -1    0    0  501    0 +0.0000000000e+00 +0.0000000000e+00 +3.9058208827e+03 3.9058208827e+03 0.0000000000e+00 0.0000e+00 -1.0000e+00
       -2 -1    0    0    0  501 -0.0000000000e+00 -0.0000000000e+00 -3.4680467564e+02 3.4680467564e+02 0.0000000000e+00 0.0000e+00 1.0000e+00
      -13  1    1    2    0    0 +8.0969378093e+02 -7.8926819504e+02 +2.2831942451e+03 2.5478469859e+03 0.0000000000e+00 0.0000e+00 1.0000e+00
       13  1    1    2    0    0 -8.0969378093e+02 +7.8926819504e+02 +1.2758219620e+03 1.7047785725e+03 0.0000000000e+00 0.0000e+00 -1.0000e+00
<mgrwt>
<rscale>  0 0.23277087E+04</rscale>
<asrwt>0</asrwt>
<pdfrwt beam="1">  1        2 0.60089549E+00 0.23277087E+04</pdfrwt>
<pdfrwt beam="2">  1       -2 0.53354568E-01 0.23277087E+04</pdfrwt>
<totfact> 0.13937824E+00</totfact>
</mgrwt>
<rwgt>
<wgt id='morphing_basis_vector_1'> +9.7033634e-05 </wgt>
<wgt id='morphing_basis_vector_2'> +8.1934868e-05 </wgt>
<wgt id='morphing_basis_vector_3'> +1.0775781e-04 </wgt>
<wgt id='morphing_basis_vector_4'> +5.3044243e-05 </wgt>
<wgt id='morphing_basis_vector_5'> +1.0736780e-04 </wgt>
</rwgt>
</event>
<event>
 4      1 +2.2016400e-08 2.31048600e+03 7.81860800e-03 7.95490600e-02
        2 -1    0    0  501    0 +0.0000000000e+00 +0.0000000000e+00 +1.3570792986e+03 1.3570792986e+03 0.0000000000e+00 0.0000e+00 -1.0000e+00
       -2 -1    0    0    0  501 -0.0000000000e+00 -0.0000000000e+00 -9.8342591693e+02 9.8342591693e+02 0.0000000000e+00 0.0000e+00 1.0000e+00
      -13  1    1    2    0    0 -9.4262815093e+02 -4.1623647389e+02 -3.4224859343e+02 1.0857876094e+03 0.0000000000e+00 0.0000e+00 1.0000e+00
       13  1    1    2    0    0 +9.4262815093e+02 +4.1623647389e+02 +7.1590197514e+02 1.2547176061e+03 0.0000000000e+00 0.0000e+00 -1.0000e+00
<mgrwt>
<rscale>  0 0.23104865E+04</rscale>
<asrwt>0</asrwt>
<pdfrwt beam="1">  1        2 0.20878143E+00 0.23104865E+04</pdfrwt>
<pdfrwt beam="2">  1       -2 0.15129629E+00 0.23104865E+04</pdfrwt>
<totfact> 0.49101294E+00</totfact>
</mgrwt>
<rwgt>
<wgt id='morphing_basis_vector_1'> +8.7516827e-05 </wgt>
<wgt id='morphing_basis_vector_2'> +5.9712231e-05 </wgt>
<wgt id='morphing_basis_vector_3'> +9.4486613e-05 </wgt>
<wgt id='morphing_basis_vector_4'> +6.5116155e-05 </wgt>
<wgt id='morphing_basis_vector_5'> +1.0527725e-04 </wgt>
</rwgt>
</event>
<event>
 4      1 +2.2016400e-08 2.49146600e+03 7.81860800e-03 7.89531200e-02
        2 -1    0    0  501    0 +0.0000000000e+00 +0.0000000000e+00 +2.9927324317e+03 2.9927324317e+03 0.0000000000e+00 0.0000e+00 1.0000e+00
       -2 -1    0    0    0  501 -0.0000000000e+00 -0.0000000000e+00 -5.1853959743e+02 5.1853959743e+02 0.0000000000e+00 0.0000e+00 -1.0000e+00
      -13  1    1    2    0    0 -1.4828460057e+02 -1.1255136651e+03 +1.9599565335e+03 2.2649942486e+03 0.0000000000e+00 0.0000e+00 1.0000e+00
       13  1    1    2    0    0 +1.4828460057e+02 +1.1255136651e+03 +5.1423630080e+02 1.2462777805e+03 0.0000000000e+00 0.0000e+00 -1.0000e+00
<mgrwt>
<rscale>  0 0.24914656E+04</rscale>
<asrwt>0</asrwt>
<pdfrwt beam="1">  1        2 0.46042036E+00 0.24914656E+04</pdfrwt>
<pdfrwt beam="2">  1       -2 0.79775325E-01 0.24914656E+04</pdfrwt>
<totfact> 0.26980974E+00</totfact>
</mgrwt>
<rwgt>
<wgt id='morphing_basis_vector_1'> +1.3397771e-04 </wgt>
<wgt id='morphing_basis_vector_2'> +1.2824624e-04 </wgt>
<wgt id='morphing_basis_vector_3'> +1.5235652e-04 </wgt>
<wgt id='morphing_basis_vector_4'> +5.5319514e-05 </wgt>
<wgt id='morphing_basis_vector_5'> +1.4026294e-04 </wgt>
</rwgt>
</event>
<event>
 4      1 +2.2016400e-08 2.35185300e+03 7.81860800e-03 7.94080100e-02
        2 -1    0    0  501    0 +0.0000000000e+00 +0.0000000000e+00 +2.9626942531e+03 2.9626942531e+03 0.0000000000e+00 0.0000e+00 -1.0000e+00
       -2 -1    0    0    0  501 -0.0000000000e+00 -0.0000000000e+00 -4.6673857488e+02 4.6673857488e+02 0.0000000000e+00 0.0000e+00 1.0000e+00
      -13  1    1    2    0    0 -3.1003741486e+02 +1.1128065878e+03 +1.5685858099e+03 1.9480562475e+03 0.0000000000e+00 0.0000e+00 1.0000e+00
       13  1    1    2    0    0 +3.1003741486e+02 -1.1128065878e+03 +9.2736986835e+02 1.4813765805e+03 0.0000000000e+00 0.0000e+00 -1.0000e+00
<mgrwt>
<rscale>  0 0.23518535E+04</rscale>
<asrwt>0</asrwt>
<pdfrwt beam="1">  1        2 0.45579910E+00 0.23518535E+04</pdfrwt>
<pdfrwt beam="2">  1       -2 0.71805936E-01 0.23518535E+04</pdfrwt>
<totfact> 0.36071266E+00</totfact>
</mgrwt>
<rwgt>
<wgt id='morphing_basis_vector_1'> +9.9878628e-05 </wgt>
<wgt id='morphing_basis_vector_2'> +8.1863473e-05 </wgt>
<wgt id='morphing_basis_vector_3'> +1.1052489e-04 </wgt>
<wgt id='morphing_basis_vector_4'> +5.7717653e-05 </wgt>
<wgt id='morphing_basis_vector_5'> +1.1215248e-04 </wgt>
</rwgt>
</event>
<event>
 4      1 +2.2016400e-08 2.40527800e+03 7.81860800e-03 7.92302000e-02
        2 -1    0    0  501    0 +0.0000000000e+00 +0.0000000000e+00 +3.6465993387e+02 3.6465993387e+02 0.0000000000e+00 0.0000e+00 1.0000e+00
       -2 -1    0    0    0  501 -0.0000000000e+00 -0.0000000000e+00 -3.9662709579e+03 3.9662709579e+03 0.0000000000e+00 0.0000e+00 -1.0000e+00
      -13  1    1    2    0    0 -1.1760941638e+03 +1.4137317845e+02 -1.4267484307e+03 1.8543988089e+03 0.0000000000e+00 0.0000e+00 -1.0000e+00
       13  1    1    2    0    0 +1.1760941638e+03 -1.4137317845e+02 -2.1748625933e+03 2.4765320828e+03 0.0000000000e+00 0.0000e+00 1.0000e+00
<mgrwt>
<rscale>  0 0.24052776E+04</rscale>
<asrwt>0</asrwt>
<pdfrwt beam="1">  1        2 0.56101526E-01 0.24052776E+04</pdfrwt>
<pdfrwt beam="2">  1       -2 0.61019556E+00 0.24052776E+04</pdfrwt>
<totfact> 0.14088103E-02</totfact>
</mgrwt>
<rwgt>
<wgt id='morphing_basis_vector_1'> +1.0879314e-04 </wgt>
<wgt id='morphing_basis_vector_2'> +8.8503822e-05 </wgt>
<wgt id='morphing_basis_vector_3'> +1.2042859e-04 </wgt>
<wgt id='morphing_basis_vector_4'> +6.3901624e-05 </wgt>
<wgt id='morphing_basis_vector_5'> +1.2290406e-04 </wgt>
</rwgt>
</event>
<event>
 4      1 +2.2016400e-08 2.27775900e+03 7.81860800e-03 7.96628200e-02
        2 -1    0    0  501    0 +0.0000000000e+00 +0.0000000000e+00 +1.5701239695e+03 1.5701239695e+03 0.0000000000e+00 0.0000e+00 1.0000e+00
       -2 -1    0    0    0  501 -0.0000000000e+00 -0.0000000000e+00 -8.2607893227e+02 8.2607893227e+02 0.0000000000e+00 0.0000e+00 -1.0000e+00
      -13  1    1    2    0    0 -7.6883773307e+02 +7.6080273511e+01 -5.0823625251e+02 9.2477227260e+02 0.0000000000e+00 0.0000e+00 -1.0000e+00
       13  1    1    2    0    0 +7.6883773307e+02 -7.6080273511e+01 +1.2522812897e+03 1.4714306292e+03 0.0000000000e+00 0.0000e+00 1.0000e+00
<mgrwt>
<rscale>  0 0.22777588E+04</rscale>
<asrwt>0</asrwt>
<pdfrwt beam="1">  1        2 0.24155753E+00 0.22777588E+04</pdfrwt>
<pdfrwt beam="2">  1       -2 0.12708907E+00 0.22777588E+04</pdfrwt>
<totfact> 0.60444130E+00</totfact>
</mgrwt>
<rwgt>
<wgt id='morphing_basis_vector_1'> +8.2344469e-05 </wgt>
<wgt id='morphing_basis_vector_2'> +5.5266856e-05 </wgt>
<wgt id='morphing_basis_vector_3'> +8.8664147e-05 </wgt>
<wgt id='morphing_basis_vector_4'> +6.2244981e-05 </wgt>
<wgt id='morphing_basis_vector_5'> +9.9415102e-05 </wgt>
</rwgt>
</event>
<event>
 4      1 +2.2016400e-08 2.26137100e+03 7.81860800e-03 7.97205200e-02
        2 -1    0    0  501    0 +0.0000000000e+00 +0.0000000000e+00 +2.4940969029e+03 2.4940969029e+03 0.0000000000e+00 0.0000e+00 -1.0000e+00
       -2 -1    0    0    0  501 -0.0000000000e+00 -0.0000000000e+00 -5.1259038835e+02 5.1259038835e+02 0.0000000000e+00 0.0000e+00 1.0000e+00
      -13  1    1    2    0    0 -2.3883425128e+02 -3.9429322921e+02 -3.8196999312e+02 5.9867355531e+02 0.0000000000e+00 0.0000e+00 1.0000e+00
       13  1    1    2    0    0 +2.3883425128e+02 +3.9429322921e+02 +2.3634765077e+03 2.4080137360e+03 0.0000000000e+00 0.0000e+00 -1.0000e+00
<mgrwt>
<rscale>  0 0.22613714E+04</rscale>
<asrwt>0</asrwt>
<pdfrwt beam="1">  1        2 0.38370721E+00 0.22613714E+04</pdfrwt>
<pdfrwt beam="2">  1       -2 0.78860061E-01 0.22613714E+04</pdfrwt>
<totfact> 0.57662414E+00</totfact>
</mgrwt>
<rwgt>
<wgt id='morphing_basis_vector_1'> +7.9967472e-05 </wgt>
<wgt id='morphing_basis_vector_2'> +5.3499378e-05 </wgt>
<wgt id='morphing_basis_vector_3'> +8.6039420e-05 </wgt>
<wgt id='morphing_basis_vector_4'> +6.0586553e-05 </wgt>
<wgt id='morphing_basis_vector_5'> +9.6552611e-05 </wgt>
</rwgt>
</event>
<event>
 4      1 +2.2016400e-08 2.47732400e+03 7.81860800e-03 7.89977900e-02
        2 -1    0    0  501    0 +0.0000000000e+00 +0.0000000000e+00 +2.1817220880e+03 2.1817220880e+03 0.0000000000e+00 0.0000e+00 -1.0000e+00
       -2 -1    0    0    0  501 -0.0000000000e+00 -0.0000000000e+00 -7.0324411782e+02 7.0324411782e+02 0.0000000000e+00 0.0000e+00 1.0000e+00
      -13  1    1    2    0    0 +2.4616866095e+02 -1.2067852405e+03 +5.8582931308e+02 1.3638642199e+03 0.0000000000e+00 0.0000e+00 1.0000e+00
       13  1    1    2    0    0 -2.4616866095e+02 +1.2067852405e+03 +8.9264865706e+02 1.5211019858e+03 0.0000000000e+00 0.0000e+00 -1.0000e+00
<mgrwt>
<rscale>  0 0.24773237E+04</rscale>
<asrwt>0</asrwt>
<pdfrwt beam="1">  1        2 0.33564955E+00 0.24773237E+04</pdfrwt>
<pdfrwt beam="2">  1       -2 0.10819140E+00 0.24773237E+04</pdfrwt>
<totfact> 0.40803798E+00</totfact>
</mgrwt>
<rwgt>
<wgt id='morphing_basis_vector_1'> +1.1739458e-04 </wgt>
<wgt id='morphing_basis_vector_2'> +8.5232961e-05 </wgt>
<wgt id='morphing_basis_vector_3'> +1.2817848e-04 </wgt>
<wgt id='morphing_basis_vector_4'> +8.1914153e-05 </wgt>
<wgt id='morphing_basis_vector_5'> +1.3932181e-04 </wgt>
</rwgt>
</event>
<event>
 4      1 +2.2016400e-08 2.26088500e+03 7.81860800e-03 7.97222400e-02
        2 -1    0    0  501    0 +0.0000000000e+00 +0.0000000000e+00 +1.9195945372e+03 1.9195945372e+03 0.0000000000e+00 0.0000e+00 -1.0000e+00
       -2 -1    0    0    0  501 -0.0000000000e+00 -0.0000000000e+00 -6.6571365524e+02 6.6571365524e+02 0.0000000000e+00 0.0000e+00 1.0000e+00
      -13  1    1    2    0    0 -2.3025083060e+01 +3.2809139698e+02 -6.0979254907e+02 6.9283553035e+02 0.0000000000e+00 0.0000e+00 1.0000e+00
       13  1    1    2    0    0 +2.3025083060e+01 -3.2809139698e+02 +1.8636734310e+03 1.8924726621e+03 0.0000000000e+00 0.0000e+00 -1.0000e+00
<mgrwt>
<rscale>  0 0.22608850E+04</rscale>
<asrwt>0</asrwt>
<pdfrwt beam="1">  1        2 0.29532223E+00 0.22608850E+04</pdfrwt>
<pdfrwt beam="2">  1       -2 0.10241749E+00 0.22608850E+04</pdfrwt>
<totfact> 0.66949031E+00</totfact>
</mgrwt>
<rwgt>
<wgt id='morphing_basis_vector_1'> +7.9894687e-05 </wgt>
<wgt id='morphing_basis_vector_2'> +5.3438575e-05 </wgt>
<wgt id='morphing_basis_vector_3'> +8.5957872e-05 </wgt>
<wgt id='morphing_basis_vector_4'> +6.0544011e-05 </wgt>
<wgt id='morphing_basis_vector_5'> +9.6469110e-05 </wgt>
</rwgt>
</event>
<event>
 4      1 +2.2016400e-08 2.36373800e+03 7.81860800e-03 7.93680400e-02
        2 -1    0    0  501    0 +0.0000000000e+00 +0.0000000000e+00 +2.4439061997e+03 2.4439061997e+03 0.0000000000e+00 0.0000e+00 1.0000e+00
       -2 -1    0    0    0  501 -0.0000000000e+00 -0.0000000000e+00 -5.7155005882e+02 5.7155005882e+02 0.0000000000e+00 0.0000e+00 -1.0000e+00
      -13  1    1    2    0    0 -9.3324192624e+02 +3.1364767355e+02 +1.0207181806e+02 9.8981514035e+02 0.0000000000e+00 0.0000e+00 -1.0000e+00
       13  1    1    2    0    0 +9.3324192624e+02 -3.1364767355e+02 +1.7702843229e+03 2.0256411182e+03 0.0000000000e+00 0.0000e+00 1.0000e+00
<mgrwt>
<rscale>  0 0.23637383E+04</rscale>
<asrwt>0</asrwt>
<pdfrwt beam="1">  1        2 0.37598556E+00 0.23637383E+04</pdfrwt>
<pdfrwt beam="2">  1       -2 0.87930780E-01 0.23637383E+04</pdfrwt>
<totfact> 0.47685146E+00</totfact>
</mgrwt>
<rwgt>
<wgt id='morphing_basis_vector_1'> +9.5513400e-05 </wgt>
<wgt id='morphing_basis_vector_2'> +6.4707408e-05 </wgt>
<wgt id='morphing_basis_vector_3'> +1.0315447e-04 </wgt>
<wgt id='morphing_basis_vector_4'> +7.1881138e-05 </wgt>
<wgt id='morphing_basis_vector_5'> +1.1551486e-04 </wgt>
</rwgt>
</event>
<event>
 4      1 +2.2016400e-08 2.45905200e+03 7.81860800e-03 7.90559600e-02
        2 -1    0    0  501    0 +0.0000000000e+00 +0.0000000000e+00 +1.1381765478e+03 1.1381765478e+03 0.0000000000e+00 0.0000e+00 1.0000e+00
       -2 -1    0    0    0  501 -0.0000000000e+00 -0.0000000000e+00 -1.3282075926e+03 1.3282075926e+03 0.0000000000e+00 0.0000e+00 -1.0000e+00
      -13  1    1    2    0    0 -7.4846229849e+02 -9.7536043570e+02 -8.0448418610e+01 1.2320696976e+03 0.0000000000e+00 0.0000e+00 -1.0000e+00
       13  1    1    2    0    0 +7.4846229849e+02 +9.7536043570e+02 -1.0958262621e+02 1.2343144428e+03 0.0000000000e+00 0.0000e+00 1.0000e+00
<mgrwt>
<rscale>  0 0.24590524E+04</rscale>
<asrwt>0</asrwt>
<pdfrwt beam="1">  1        2 0.17510408E+00 0.24590524E+04</pdfrwt>
<pdfrwt beam="2">  1       -2 0.20433963E+00 0.24590524E+04</pdfrwt>
<totfact> 0.25421848E+00</totfact>
</mgrwt>
<rwgt>
<wgt id='morphing_basis_vector_1'> +1.1551409e-04 </wgt>
<wgt id='morphing_basis_vector_2'> +8.7188213e-05 </wgt>
<wgt id='morphing_basis_vector_3'> +1.2672111e-04 </wgt>
<wgt id='morphing_basis_vector_4'> +7.6426547e-05 </wgt>
<wgt id='morphing_basis_vector_5'> +1.3495630e-04 </wgt>
</rwgt>
</event>
<event>
 4      1 +2.2016400e-08 2.41194400e+03 7.81860800e-03 7.92083500e-02
        2 -1    0    0  501    0 +0.0000000000e+00 +0.0000000000e+00 +2.1220808519e+03 2.1220808519e+03 0.0000000000e+00 0.0000e+00 -1.0000e+00
       -2 -1    0    0    0  501 -0.0000000000e+00 -0.0000000000e+00 -6.8534992641e+02 6.8534992641e+02 0.0000000000e+00 0.0000e+00 1.0000e+00
      -13  1    1    2    0    0 -1.0713068779e+03 +5.7174193384e+01 +7.7229468536e+01 1.0756075984e+03 0.0000000000e+00 0.0000e+00 1.0000e+00
       13  1    1    2    0    0 +1.0713068779e+03 -5.7174193384e+01 +1.3595014570e+03 1.7318231799e+03 0.0000000000e+00 0.0000e+00 -1.0000e+00
<mgrwt>
<rscale>  0 0.24119436E+04</rscale>
<asrwt>0</asrwt>
<pdfrwt beam="1">  1        2 0.32647398E+00 0.24119436E+04</pdfrwt>
<pdfrwt beam="2">  1       -2 0.10543845E+00 0.24119436E+04</pdfrwt>
<totfact> 0.47306118E+00</totfact>
</mgrwt>
<rwgt>
<wgt id='morphing_basis_vector_1'> +1.0365800e-04 </wgt>
<wgt id='morphing_basis_vector_2'> +7.0796401e-05 </wgt>
<wgt id='morphing_basis_vector_3'> +1.1217128e-04 </wgt>
<wgt id='morphing_basis_vector_4'> +7.7541664e-05 </wgt>
<wgt id='morphing_basis_vector_5'> +1.2533425e-04 </wgt>
</rwgt>
</event>
<event>
 4      1 +2.2016400e-08 2.41267800e+03 7.81860800e-03 7.92059500e-02
        2 -1    0    0  501    0 +0.0000000000e+00 +0.0000000000e+00 +1.9199852369e+03 1.9199852369e+03 0.0000000000e+00 0.0000e+00 -1.0000e+00
       -2 -1    0    0    0  501 -0.0000000000e+00 -0.0000000000e+00 -7.5795061466e+02 7.5795061466e+02 0.0000000000e+00 0.0000e+00 1.0000e+00
      -13  1    1    2    0    0 +1.0086539122e+03 +6.4398966729e+02 +4.1214323268e+02 1.2656885282e+03 0.0000000000e+00 0.0000e+00 1.0000e+00
       13  1    1    2    0    0 -1.0086539122e+03 -6.4398966729e+02 +7.4989138952e+02 1.4122473233e+03 0.0000000000e+00 0.0000e+00 -1.0000e+00
<mgrwt>
<rscale>  0 0.24126782E+04</rscale>
<asrwt>0</asrwt>
<pdfrwt beam="1">  1        2 0.29538234E+00 0.24126782E+04</pdfrwt>
<pdfrwt beam="2">  1       -2 0.11660779E+00 0.24126782E+04</pdfrwt>
<totfact> 0.47736123E+00</totfact>
</mgrwt>
<rwgt>
<wgt id='morphing_basis_vector_1'> +1.0557899e-04 </wgt>
<wgt id='morphing_basis_vector_2'> +7.6185373e-05 </wgt>
<wgt id='morphing_basis_vector_3'> +1.1503286e-04 </wgt>
<wgt id='morphing_basis_vector_4'> +7.3970409e-05 </wgt>
<wgt id='morphing_basis_vector_5'> +1.2519295e-04 </wgt>
</rwgt>
</event>
<event>
 4      1 +2.2016400e-08 2.27000400e+03 7.81860800e-03 7.96900600e-02
        2 -1    0    0  501    0 +0.0000000000e+00 +0.0000000000e+00 +1.8837233401e+03 1.8837233401e+03 0.0000000000e+00 0.0000e+00 1.0000e+00
       -2 -1    0    0    0  501 -0.0000000000e+00 -0.0000000000e+00 -6.8387393618e+02 6.8387393618e+02 0.0000000000e+00 0.0000e+00 -1.0000e+00
      -13  1    1    2    0    0 -4.7692749601e+02 +3.8589836365e+02 -4.8017160606e+02 7.7906492335e+02 0.0000000000e+00 0.0000e+00 -1.0000e+00
       13  1    1    2    0    0 +4.7692749601e+02 -3.8589836365e+02 +1.6800210100e+03 1.7885323529e+03 0.0000000000e+00 0.0000e+00 1.0000e+00
<mgrwt>
<rscale>  0 0.22700038E+04</rscale>
<asrwt>0</asrwt>
<pdfrwt beam="1">  1        2 0.28980359E+00 0.22700038E+04</pdfrwt>
<pdfrwt beam="2">  1       -2 0.10521138E+00 0.22700038E+04</pdfrwt>
<totfact> 0.65584142E+00</totfact>
</mgrwt>
<rwgt>
<wgt id='morphing_basis_vector_1'> +8.1193654e-05 </wgt>
<wgt id='morphing_basis_vector_2'> +5.4367787e-05 </wgt>
<wgt id='morphing_basis_vector_3'> +8.7385545e-05 </wgt>
<wgt id='morphing_basis_vector_4'> +6.1495377e-05 </wgt>
<wgt id='morphing_basis_vector_5'> +9.8055866e-05 </wgt>
</rwgt>
</event>
<event>
 4      1 +2.2016400e-08 2.44469400e+03 7.81860800e-03 7.91020300e-02
        2 -1    0    0  501    0 +0.0000000000e+00 +0.0000000000e+00 +1.0877667066e+03 1.0877667066e+03 0.0000000000e+00 0.0000e+00 -1.0000e+00
       -2 -1    0    0    0  501 -0.0000000000e+00 -0.0000000000e+00 -1.3735777072e+03 1.3735777072e+03 0.0000000000e+00 0.0000e+00 1.0000e+00
      -13  1    1    2    0    0 +7.3974953862e+02 +6.4595088364e+02 -8.7563293865e+02 1.3157564240e+03 0.0000000000e+00 0.0000e+00 1.0000e+00
       13  1    1    2    0    0 -7.3974953862e+02 -6.4595088364e+02 +5.8982193799e+02 1.1455879899e+03 0.0000000000e+00 0.0000e+00 -1.0000e+00
<mgrwt>
<rscale>  0 0.24446939E+04</rscale>
<asrwt>0</asrwt>
<pdfrwt beam="1">  1        2 0.16734873E+00 0.24446939E+04</pdfrwt>
<pdfrwt beam="2">  1       -2 0.21131965E+00 0.24446939E+04</pdfrwt>
<totfact> 0.24292552E+00</totfact>
</mgrwt>
<rwgt>
<wgt id='morphing_basis_vector_1'> +1.0899906e-04 </wgt>
<wgt id='morphing_basis_vector_2'> +7.3742402e-05 </wgt>
<wgt id='morphing_basis_vector_3'> +1.1789198e-04 </wgt>
<wgt id='morphing_basis_vector_4'> +8.2558994e-05 </wgt>
<wgt id='morphing_basis_vector_5'> +1.3243183e-04 </wgt>
</rwgt>
</event>
<event>
 4      1 +2.2016400e-08 2.55619900e+03 7.81860800e-03 7.87524500e-02
        2 -1    0    0  501    0 +0.0000000000e+00 +0.0000000000e+00 +9.4420179848e+02 9.4420179848e+02 0.0000000000e+00 0.0000e+00 -1.0000e+00
       -2 -1    0    0    0  501 -0.0000000000e+00 -0.0000000000e+00 -1.7300735120e+03 1.7300735120e+03 0.0000000000e+00 0.0000e+00 1.0000e+00
      -13  1    1    2    0    0 +9.4906889178e+02 +3.9614371222e+02 -1.1868549844e+03 1.5704414526e+03 0.0000000000e+00 0.0000e+00 1.0000e+00
       13  1    1    2    0    0 -9.4906889178e+02 -3.9614371222e+02 +4.0098327095e+02 1.1038338578e+03 0.0000000000e+00 0.0000e+00 -1.0000e+00
<mgrwt>
<rscale>  0 0.25561991E+04</rscale>
<asrwt>0</asrwt>
<pdfrwt beam="1">  1        2 0.14526182E+00 0.25561991E+04</pdfrwt>
<pdfrwt beam="2">  1       -2 0.26616515E+00 0.25561991E+04</pdfrwt>
<totfact> 0.12217163E+00</totfact>
</mgrwt>
<rwgt>
<wgt id='morphing_basis_vector_1'> +1.2998888e-04 </wgt>
<wgt id='morphing_basis_vector_2'> +8.8069980e-05 </wgt>
<wgt id='morphing_basis_vector_3'> +1.4090033e-04 </wgt>
<wgt id='morphing_basis_vector_4'> +9.8895638e-05 </wgt>
<wgt id='morphing_basis_vector_5'> +1.5865865e-04 </wgt>
</rwgt>
</event>
<event>
 4      1 +2.2016400e-08 2.34776000e+03 7.81860800e-03 7.94218300e-02
        2 -1    0    0  501    0 +0.0000000000e+00 +0.0000000000e+00 +2.1642469042e+03 2.1642469042e+03 0.0000000000e+00 0.0000e+00 1.0000e+00
       -2 -1    0    0    0  501 -0.0000000000e+00 -0.0000000000e+00 -6.3670859481e+02 6.3670859481e+02 0.0000000000e+00 0.0000e+00 -1.0000e+00
      -13  1    1    2    0    0 +2.7018796000e+01 -3.6011690992e+02 +2.0963290124e+03 2.1272069792e+03 0.0000000000e+00 0.0000e+00 1.0000e+00
       13  1    1    2    0    0 -2.7018796000e+01 +3.6011690992e+02 -5.6879070299e+02 6.7374851982e+02 0.0000000000e+00 0.0000e+00 -1.0000e+00
<mgrwt>
<rscale>  0 0.23477603E+04</rscale>
<asrwt>0</asrwt>
<pdfrwt beam="1">  1        2 0.33296106E+00 0.23477603E+04</pdfrwt>
<pdfrwt beam="2">  1       -2 0.97955170E-01 0.23477603E+04</pdfrwt>
<totfact> 0.53829646E+00</totfact>
</mgrwt>
<rwgt>
<wgt id='morphing_basis_vector_1'> +1.2681444e-04 </wgt>
<wgt id='morphing_basis_vector_2'> +1.6286472e-04 </wgt>
<wgt id='morphing_basis_vector_3'> +1.5144163e-04 </wgt>
<wgt id='morphing_basis_vector_4'> +1.1093859e-06 </wgt>
<wgt id='morphing_basis_vector_5'> +1.0683636e-04 </wgt>
</rwgt>
</event>
<event>
 4      1 +2.2016400e-08 2.53522800e+03 7.81860800e-03 7.88167900e-02
        2 -1    0    0  501    0 +0.0000000000e+00 +0.0000000000e+00 +2.6352608255e+03 2.6352608255e+03 0.0000000000e+00 0.0000e+00 -1.0000e+00
       -2 -1    0    0    0  501 -0.0000000000e+00 -0.0000000000e+00 -6.0974804198e+02 6.0974804198e+02 0.0000000000e+00 0.0000e+00 1.0000e+00
      -13  1    1    2    0    0 -8.2675231315e+02 -3.9360557812e+02 -1.0924312622e+02 9.2215985547e+02 0.0000000000e+00 0.0000e+00 1.0000e+00
       13  1    1    2    0    0 +8.2675231315e+02 +3.9360557812e+02 +2.1347559097e+03 2.3228490120e+03 0.0000000000e+00 0.0000e+00 -1.0000e+00
<mgrwt>
<rscale>  0 0.25352279E+04</rscale>
<asrwt>0</asrwt>
<pdfrwt beam="1">  1        2 0.40542474E+00 0.25352279E+04</pdfrwt>
<pdfrwt beam="2">  1       -2 0.93807392E-01 0.25352279E+04</pdfrwt>
<totfact> 0.30992249E+00</totfact>
</mgrwt>
<rwgt>
<wgt id='morphing_basis_vector_1'> +1.2566709e-04 </wgt>
<wgt id='morphing_basis_vector_2'> +8.4756946e-05 </wgt>
<wgt id='morphing_basis_vector_3'> +1.3609171e-04 </wgt>
<wgt id='morphing_basis_vector_4'> +9.5981170e-05 </wgt>
<wgt id='morphing_basis_vector_5'> +1.5348008e-04 </wgt>
</rwgt>
</event>
<event>
 4      1 +2.2016400e-08 2.48431300e+03 7.81860800e-03 7.89756700e-02
        2 -1    0    0  501    0 +0.0000000000e+00 +0.0000000000e+00 +1.5930830826e+03 1.5930830826e+03 0.0000000000e+00 0.0000e+00 -1.0000e+00
       -2 -1    0    0    0  501 -0.0000000000e+00 -0.0000000000e+00 -9.6853262931e+02 9.6853262931e+02 0.0000000000e+00 0.0000e+00 1.0000e+00
      -13  1    1    2    0    0 +6.1034626872e+01 +8.7657852034e+02 -5.9301774462e+02 1.0600873424e+03 0.0000000000e+00 0.0000e+00 1.0000e+00
       13  1    1    2    0    0 -6.1034626872e+01 -8.7657852034e+02 +1.2175681979e+03 1.5015283695e+03 0.0000000000e+00 0.0000e+00 -1.0000e+00
<mgrwt>
<rscale>  0 0.24843131E+04</rscale>
<asrwt>0</asrwt>
<pdfrwt beam="1">  1        2 0.24508970E+00 0.24843131E+04</pdfrwt>
<pdfrwt beam="2">  1       -2 0.14900502E+00 0.24843131E+04</pdfrwt>
<totfact> 0.37241613E+00</totfact>
</mgrwt>
<rwgt>
<wgt id='morphing_basis_vector_1'> +1.1597607e-04 </wgt>
<wgt id='morphing_basis_vector_2'> +7.8132639e-05 </wgt>
<wgt id='morphing_basis_vector_3'> +1.2546698e-04 </wgt>
<wgt id='morphing_basis_vector_4'> +8.8447429e-05 </wgt>
<wgt id='morphing_basis_vector_5'> +1.4137432e-04 </wgt>
</rwgt>
</event>
<event>
 4      1 +2.2016400e-08 2.42816400e+03 7.81860800e-03 7.91554800e-02
        2 -1    0    0  501    0 +0.0000000000e+00 +0.0000000000e+00 +2.6177766632e+03 2.6177766632e+03 0.0000000000e+00 0.0000e+00 -1.0000e+00
       -2 -1    0    0    0  501 -0.0000000000e+00 -0.0000000000e+00 -5.6307145015e+02 5.6307145015e+02 0.0000000000e+00 0.0000e+00 1.0000e+00
      -13  1    1    2    0    0 -9.8077359119e+02 +2.1500708476e+02 +1.3324841376e+02 1.0128672289e+03 0.0000000000e+00 0.0000e+00 1.0000e+00
       13  1    1    2    0    0 +9.8077359119e+02 -2.1500708476e+02 +1.9214567993e+03 2.1679808844e+03 0.0000000000e+00 0.0000e+00 -1.0000e+00
<mgrwt>
<rscale>  0 0.24281642E+04</rscale>
<asrwt>0</asrwt>
<pdfrwt beam="1">  1        2 0.40273486E+00 0.24281642E+04</pdfrwt>
<pdfrwt beam="2">  1       -2 0.86626379E-01 0.24281642E+04</pdfrwt>
<totfact> 0.38618508E+00</totfact>
</mgrwt>
<rwgt>
<wgt id='morphing_basis_vector_1'> +1.0618059e-04 </wgt>
<wgt id='morphing_basis_vector_2'> +7.1957286e-05 </wgt>
<wgt id='morphing_basis_vector_3'> +1.1483023e-04 </wgt>
<wgt id='morphing_basis_vector_4'> +8.0196921e-05 </wgt>
<wgt id='morphing_basis_vector_5'> +1.2882913e-04 </wgt>
</rwgt>
</event>
<event>
 4      1 +2.2016400e-08 2.28237000e+03 7.81860800e-03 7.96466700e-02
        2 -1    0    0  501    0 +0.0000000000e+00 +0.0000000000e+00 +2.0412214603e+03 2.0412214603e+03 0.0000000000e+00 0.0000e+00 1.0000e+00
       -2 -1    0    0    0  501 -0.0000000000e+00 -0.0000000000e+00 -6.3800173047e+02 6.3800173047e+02 0.0000000000e+00 0.0000e+00 -1.0000e+00
      -13  1    1    2    0    0 +4.3563892498e+02 -5.2442433309e+02 -3.7266518274e+02 7.7696942830e+02 0.0000000000e+00 0.0000e+00 -1.0000e+00
       13  1    1    2    0    0 -4.3563892498e+02 +5.2442433309e+02 +1.7758849125e+03 1.9022537624e+03 0.0000000000e+00 0.0000e+00 1.0000e+00
<mgrwt>
<rscale>  0 0.22823697E+04</rscale>
<asrwt>0</asrwt>
<pdfrwt beam="1">  1        2 0.31403407E+00 0.22823697E+04</pdfrwt>
<pdfrwt beam="2">  1       -2 0.98154114E-01 0.22823697E+04</pdfrwt>
<totfact> 0.63269572E+00</totfact>
</mgrwt>
<rwgt>
<wgt id='morphing_basis_vector_1'> +8.2964804e-05 </wgt>
<wgt id='morphing_basis_vector_2'> +5.5600632e-05 </wgt>
<wgt id='morphing_basis_vector_3'> +8.9326399e-05 </wgt>
<wgt id='morphing_basis_vector_4'> +6.2835104e-05 </wgt>
<wgt id='morphing_basis_vector_5'> +1.0024122e-04 </wgt>
</rwgt>
</event>
<event>
 4      1 +2.2016400e-08 2.48117000e+03 7.81860800e-03 7.89856100e-02
        2 -1    0    0  501    0 +0.0000000000e+00 +0.0000000000e+00 +1.4762957390e+03 1.4762957390e+03 0.0000000000e+00 0.0000e+00 -1.0000e+00
       -2 -1    0    0    0  501 -0.0000000000e+00 -0.0000000000e+00 -1.0425086862e+03 1.0425086862e+03 0.0000000000e+00 0.0000e+00 1.0000e+00
      -13  1    1    2    0    0 -3.6407707681e+02 -1.1332576640e+03 -1.3801780889e+02 1.1982795861e+03 0.0000000000e+00 0.0000e+00 1.0000e+00
       13  1    1    2    0    0 +3.6407707681e+02 +1.1332576640e+03 +5.7180486167e+02 1.3205248391e+03 0.0000000000e+00 0.0000e+00 -1.0000e+00
<mgrwt>
<rscale>  0 0.24811700E+04</rscale>
<asrwt>0</asrwt>
<pdfrwt beam="1">  1        2 0.22712242E+00 0.24811700E+04</pdfrwt>
<pdfrwt beam="2">  1       -2 0.16038595E+00 0.24811700E+04</pdfrwt>
<totfact> 0.34963570E+00</totfact>
</mgrwt>
<rwgt>
<wgt id='morphing_basis_vector_1'> +1.1668343e-04 </wgt>
<wgt id='morphing_basis_vector_2'> +8.1533575e-05 </wgt>
<wgt id='morphing_basis_vector_3'> +1.2679326e-04 </wgt>
<wgt id='morphing_basis_vector_4'> +8.5363001e-05 </wgt>
<wgt id='morphing_basis_vector_5'> +1.4043781e-04 </wgt>
</rwgt>
</event>
<event>
 4      1 +2.2016400e-08 2.47678400e+03 7.81860800e-03 7.89995000e-02
        2 -1    0    0  501    0 +0.0000000000e+00 +0.0000000000e+00 +2.8134004720e+03 2.8134004720e+03 0.0000000000e+00 0.0000e+00 -1.0000e+00
       -2 -1    0    0    0  501 -0.0000000000e+00 -0.0000000000e+00 -5.4511077278e+02 5.4511077278e+02 0.0000000000e+00 0.0000e+00 1.0000e+00
      -13  1    1    2    0    0 -4.2412602591e+02 +1.1312510501e+03 +7.6526617212e+02 1.4301203230e+03 0.0000000000e+00 0.0000e+00 1.0000e+00
       13  1    1    2    0    0 +4.2412602591e+02 -1.1312510501e+03 +1.5030235271e+03 1.9283909218e+03 0.0000000000e+00 0.0000e+00 -1.0000e+00
<mgrwt>
<rscale>  0 0.24767841E+04</rscale>
<asrwt>0</asrwt>
<pdfrwt beam="1">  1        2 0.43283083E+00 0.24767841E+04</pdfrwt>
<pdfrwt beam="2">  1       -2 0.83863197E-01 0.24767841E+04</pdfrwt>
<totfact> 0.31378990E+00</totfact>
</mgrwt>
<rwgt>
<wgt id='morphing_basis_vector_1'> +1.1628249e-04 </wgt>
<wgt id='morphing_basis_vector_2'> +8.2175058e-05 </wgt>
<wgt id='morphing_basis_vector_3'> +1.2652594e-04 </wgt>
<wgt id='morphing_basis_vector_4'> +8.3911987e-05 </wgt>
<wgt id='morphing_basis_vector_5'> +1.3936650e-04 </wgt>
</rwgt>
</event>
<event>
 4      1 +2.2016400e-08 2.46158000e+03 7.81860800e-03 7.90478800e-02
        2 -1    0    0  501    0 +0.0000000000e+00 +0.0000000000e+00 +2.3843111736e+03 2.3843111736e+03 0.0000000000e+00 0.0000e+00 1.0000e+00
       -2 -1    0    0    0  501 -0.0000000000e+00 -0.0000000000e+00 -6.3533819542e+02 6.3533819542e+02 0.0000000000e+00 0.0000e+00 -1.0000e+00
      -13  1    1    2    0    0 +3.0907585336e+01 -9.0696580791e+02 -1.4545764649e+02 9.1907572184e+02 0.0000000000e+00 0.0000e+00 -1.0000e+00
       13  1    1    2    0    0 -3.0907585336e+01 +9.0696580791e+02 +1.8944306247e+03 2.1005736472e+03 0.0000000000e+00 0.0000e+00 1.0000e+00
<mgrwt>
<rscale>  0 0.24615799E+04</rscale>
<asrwt>0</asrwt>
<pdfrwt beam="1">  1        2 0.36681710E+00 0.24615799E+04</pdfrwt>
<pdfrwt beam="2">  1       -2 0.97744339E-01 0.24615799E+04</pdfrwt>
<totfact> 0.39968134E+00</totfact>
</mgrwt>
<rwgt>
<wgt id='morphing_basis_vector_1'> +1.1187969e-04 </wgt>
<wgt id='morphing_basis_vector_2'> +7.5433432e-05 </wgt>
<wgt id='morphing_basis_vector_3'> +1.2099646e-04 </wgt>
<wgt id='morphing_basis_vector_4'> +8.5140559e-05 </wgt>
<wgt id='morphing_basis_vector_5'> +1.3619867e-04 </wgt>
</rwgt>
</event>
<event>
 4      1 +2.2016400e-08 2.51916800e+03 7.81860800e-03 7.88664900e-02
        2 -1    0    0  501    0 +0.0000000000e+00 +0.0000000000e+00 +1.7064989630e+03 1.7064989630e+03 0.0000000000e+00 0.0000e+00 -1.0000e+00
       -2 -1    0    0    0  501 -0.0000000000e+00 -0.0000000000e+00 -9.2971126490e+02 9.2971126490e+02 0.0000000000e+00 0.0000e+00 1.0000e+00
      -13  1    1    2    0    0 +6.9060765684e+02 -7.8994838873e+02 -3.4082788300e+02 1.1032320873e+03 0.0000000000e+00 0.0000e+00 1.0000e+00
       13  1    1    2    0    0 -6.9060765684e+02 +7.8994838873e+02 +1.1176155811e+03 1.5329781406e+03 0.0000000000e+00 0.0000e+00 -1.0000e+00
<mgrwt>
<rscale>  0 0.25191676E+04</rscale>
<asrwt>0</asrwt>
<pdfrwt beam="1">  1        2 0.26253830E+00 0.25191676E+04</pdfrwt>
<pdfrwt beam="2">  1       -2 0.14303250E+00 0.25191676E+04</pdfrwt>
<totfact> 0.36025117E+00</totfact>
</mgrwt>
<rwgt>
<wgt id='morphing_basis_vector_1'> +1.2279592e-04 </wgt>
<wgt id='morphing_basis_vector_2'> +8.3358623e-05 </wgt>
<wgt id='morphing_basis_vector_3'> +1.3305085e-04 </wgt>
<wgt id='morphing_basis_vector_4'> +9.3044069e-05 </wgt>
<wgt id='morphing_basis_vector_5'> +1.4953966e-04 </wgt>
</rwgt>
</event>
<event>
 4      1 +2.2016400e-08 2.39339000e+03 7.81860800e-03 7.92693600e-02
        2 -1    0    0  501    0 +0.0000000000e+00 +0.0000000000e+00 +1.8473799501e+03 1.8473799501e+03 0.0000000000e+00 0.0000e+00 1.0000e+00
       -2 -1    0    0    0  501 -0.0000000000e+00 -0.0000000000e+00 -7.7519447940e+02 7.7519447940e+02 0.0000000000e+00 0.0000e+00 -1.0000e+00
      -13  1    1    2    0    0 -2.6997927743e+02 -3.0495528718e+02 -6.9691044106e+02 8.0719929403e+02 0.0000000000e+00 0.0000e+00 -1.0000e+00
       13  1    1    2    0    0 +2.6997927743e+02 +3.0495528718e+02 +1.7690959118e+03 1.8153751355e+03 0.0000000000e+00 0.0000e+00 1.0000e+00
<mgrwt>
<rscale>  0 0.23933898E+04</rscale>
<asrwt>0</asrwt>
<pdfrwt beam="1">  1        2 0.28421230E+00 0.23933898E+04</pdfrwt>
<pdfrwt beam="2">  1       -2 0.11926069E+00 0.23933898E+04</pdfrwt>
<totfact> 0.49538519E+00</totfact>
</mgrwt>
<rwgt>
<wgt id='morphing_basis_vector_1'> +9.9995425e-05 </wgt>
<wgt id='morphing_basis_vector_2'> +6.7022054e-05 </wgt>
<wgt id='morphing_basis_vector_3'> +1.0792410e-04 </wgt>
<wgt id='morphing_basis_vector_4'> +7.6280446e-05 </wgt>
<wgt id='morphing_basis_vector_5'> +1.2156106e-04 </wgt>
</rwgt>
</event>
<event>
 4      1 +2.2016400e-08 2.45095500e+03 7.81860800e-03 7.90819000e-02
        2 -1    0    0  501    0 +0.0000000000e+00 +0.0000000000e+00 +1.0574954633e+03 1.0574954633e+03 0.0000000000e+00 0.0000e+00 -1.0000e+00
       -2 -1    0    0    0  501 -0.0000000000e+00 -0.0000000000e+00 -1.4201429163e+03 1.4201429163e+03 0.0000000000e+00 0.0000e+00 1.0000e+00
      -13  1    1    2    0    0 -5.8260523944e+02 +9.1492669039e+02 -7.5786176920e+02 1.3232060214e+03 0.0000000000e+00 0.0000e+00 1.0000e+00
       13  1    1    2    0    0 +5.8260523944e+02 -9.1492669039e+02 +3.9521431620e+02 1.1544323582e+03 0.0000000000e+00 0.0000e+00 -1.0000e+00
<mgrwt>
<rscale>  0 0.24509547E+04</rscale>
<asrwt>0</asrwt>
<pdfrwt beam="1">  1        2 0.16269161E+00 0.24509547E+04</pdfrwt>
<pdfrwt beam="2">  1       -2 0.21848353E+00 0.24509547E+04</pdfrwt>
<totfact> 0.22509636E+00</totfact>
</mgrwt>
<rwgt>
<wgt id='morphing_basis_vector_1'> +1.1040541e-04 </wgt>
<wgt id='morphing_basis_vector_2'> +7.5384122e-05 </wgt>
<wgt id='morphing_basis_vector_3'> +1.1956065e-04 </wgt>
<wgt id='morphing_basis_vector_4'> +8.2803992e-05 </wgt>
<wgt id='morphing_basis_vector_5'> +1.3376219e-04 </wgt>
</rwgt>
</event>
<event>
 4      1 +2.2016400e-08 2.54759900e+03 7.81860800e-03 7.87787600e-02
        2 -1    0    0  501    0 +0.0000000000e+00 +0.0000000000e+00 +1.0833962037e+03 1.0833962037e+03 0.0000000000e+00 0.0000e+00 -1.0000e+00
       -2 -1    0    0    0  501 -0.0000000000e+00 -0.0000000000e+00 -1.4976656576e+03 1.4976656576e+03 0.0000000000e+00 0.0000e+00 1.0000e+00
      -13  1    1    2    0    0 +7.1820993483e+02 -2.7448919707e+02 -1.2360507604e+03 1.4556755518e+03 0.0000000000e+00 0.0000e+00 1.0000e+00
       13  1    1    2    0    0 -7.1820993483e+02 +2.7448919707e+02 +8.2178130657e+02 1.1253863095e+03 0.0000000000e+00 0.0000e+00 -1.0000e+00
<mgrwt>
<rscale>  0 0.25475991E+04</rscale>
<asrwt>0</asrwt>
<pdfrwt beam="1">  1        2 0.16667634E+00 0.25475991E+04</pdfrwt>
<pdfrwt beam="2">  1       -2 0.23041010E+00 0.25475991E+04</pdfrwt>
<totfact> 0.17733126E+00</totfact>
</mgrwt>
<rwgt>
<wgt id='morphing_basis_vector_1'> +1.2800013e-04 </wgt>
<wgt id='morphing_basis_vector_2'> +8.6100809e-05 </wgt>
<wgt id='morphing_basis_vector_3'> +1.3860221e-04 </wgt>
<wgt id='morphing_basis_vector_4'> +9.8109761e-05 </wgt>
<wgt id='morphing_basis_vector_5'> +1.5655332e-04 </wgt>
</rwgt>
</event>
<event>
 4      1 +2.2016400e-08 2.34645600e+03 7.81860800e-03 7.94262400e-02
        2 -1    0    0  501    0 +0.0000000000e+00 +0.0000000000e+00 +9.9326718206e+02 9.9326718206e+02 0.0000000000e+00 0.0000e+00 -1.0000e+00
       -2 -1    0    0    0  501 -0.0000000000e+00 -0.0000000000e+00 -1.3857942422e+03 1.3857942422e+03 0.0000000000e+00 0.0000e+00 1.0000e+00
      -13  1    1    2    0    0 +2.6795772546e+02 -6.1518653206e+02 -1.1720336934e+03 1.3505253756e+03 0.0000000000e+00 0.0000e+00 1.0000e+00
       13  1    1    2    0    0 -2.6795772546e+02 +6.1518653206e+02 +7.7950663328e+02 1.0285360486e+03 0.0000000000e+00 0.0000e+00 -1.0000e+00
<mgrwt>
<rscale>  0 0.23464560E+04</rscale>
<asrwt>0</asrwt>
<pdfrwt beam="1">  1        2 0.15281034E+00 0.23464560E+04</pdfrwt>
<pdfrwt beam="2">  1       -2 0.21319911E+00 0.23464560E+04</pdfrwt>
<totfact> 0.27136881E+00</totfact>
</mgrwt>
<rwgt>
<wgt id='morphing_basis_vector_1'> +9.2518597e-05 </wgt>
<wgt id='morphing_basis_vector_2'> +6.2044363e-05 </wgt>
<wgt id='morphing_basis_vector_3'> +9.9763317e-05 </wgt>
<wgt id='morphing_basis_vector_4'> +7.0326211e-05 </wgt>
<wgt id='morphing_basis_vector_5'> +1.1217040e-04 </wgt>
</rwgt>
</event>
<event>
 4      1 +2.2016400e-08 2.30721300e+03 7.81860800e-03 7.95603500e-02
        2 -1    0    0  501    0 +0.0000000000e+00 +0.0000000000e+00 +2.3650352911e+03 2.3650352911e+03 0.0000000000e+00 0.0000e+00 -1.0000e+00
       -2 -1    0    0    0  501 -0.0000000000e+00 -0.0000000000e+00 -5.6270101744e+02 5.6270101744e+02 0.0000000000e+00 0.0000e+00 1.0000e+00
      -13  1    1    2    0    0 +5.6145488687e+02 +8.4980543514e+02 +1.5885195460e+03 1.8870069464e+03 0.0000000000e+00 0.0000e+00 1.0000e+00
       13  1    1    2    0    0 -5.6145488687e+02 -8.4980543514e+02 +2.1381472767e+02 1.0407293622e+03 0.0000000000e+00 0.0000e+00 -1.0000e+00
<mgrwt>
<rscale>  0 0.23072128E+04</rscale>
<asrwt>0</asrwt>
<pdfrwt beam="1">  1        2 0.36385158E+00 0.23072128E+04</pdfrwt>
<pdfrwt beam="2">  1       -2 0.86569389E-01 0.23072128E+04</pdfrwt>
<totfact> 0.55289703E+00</totfact>
</mgrwt>
<rwgt>
<wgt id='morphing_basis_vector_1'> +1.0119063e-04 </wgt>
<wgt id='morphing_basis_vector_2'> +1.0120780e-04 </wgt>
<wgt id='morphing_basis_vector_3'> +1.1525460e-04 </wgt>
<wgt id='morphing_basis_vector_4'> +3.5986504e-05 </wgt>
<wgt id='morphing_basis_vector_5'> +1.0236138e-04 </wgt>
</rwgt>
</event>
<event>
 4      1 +2.2016400e-08 2.60041700e+03 7.81860800e-03 7.86188400e-02
        2 -1    0    0  501    0 +0.0000000000e+00 +0.0000000000e+00 +1.4100636515e+03 1.4100636515e+03 0.0000000000e+00 0.0000e+00 -1.0000e+00
       -2 -1    0    0    0  501 -0.0000000000e+00 -0.0000000000e+00 -1.1989121072e+03 1.1989121072e+03 0.0000000000e+00 0.0000e+00 1.0000e+00
      -13  1    1    2    0    0 -2.2347388401e+02 +1.2796149134e+03 +4.8932181329e+01 1.2999035586e+03 0.0000000000e+00 0.0000e+00 1.0000e+00
       13  1    1    2    0    0 +2.2347388401e+02 -1.2796149134e+03 +1.6221936292e+02 1.3090722001e+03 0.0000000000e+00 0.0000e+00 -1.0000e+00
<mgrwt>
<rscale>  0 0.26004172E+04</rscale>
<asrwt>0</asrwt>
<pdfrwt beam="1">  1        2 0.21693287E+00 0.26004172E+04</pdfrwt>
<pdfrwt beam="2">  1       -2 0.18444802E+00 0.26004172E+04</pdfrwt>
<totfact> 0.24551313E+00</totfact>
</mgrwt>
<rwgt>
<wgt id='morphing_basis_vector_1'> +1.4308414e-04 </wgt>
<wgt id='morphing_basis_vector_2'> +1.0603447e-04 </wgt>
<wgt id='morphing_basis_vector_3'> +1.5701228e-04 </wgt>
<wgt id='morphing_basis_vector_4'> +9.7811528e-05 </wgt>
<wgt id='morphing_basis_vector_5'> +1.6939901e-04 </wgt>
</rwgt>
</event>
<event>
 4      1 +2.2016400e-08 2.51389500e+03 7.81860800e-03 7.88828900e-02
        2 -1    0    0  501    0 +0.0000000000e+00 +0.0000000000e+00 +1.5562699888e+03 1.5562699888e+03 0.0000000000e+00 0.0000e+00 -1.0000e+00
       -2 -1    0    0    0  501 -0.0000000000e+00 -0.0000000000e+00 -1.0151946205e+03 1.0151946205e+03 0.0000000000e+00 0.0000e+00 1.0000e+00
      -13  1    1    2    0    0 -2.1897133165e+02 +9.2068855048e+02 -5.7563117858e+02 1.1076854720e+03 0.0000000000e+00 0.0000e+00 1.0000e+00
       13  1    1    2    0    0 +2.1897133165e+02 -9.2068855048e+02 +1.1167065468e+03 1.4637791373e+03 0.0000000000e+00 0.0000e+00 -1.0000e+00
<mgrwt>
<rscale>  0 0.25138949E+04</rscale>
<asrwt>0</asrwt>
<pdfrwt beam="1">  1        2 0.23942615E+00 0.25138949E+04</pdfrwt>
<pdfrwt beam="2">  1       -2 0.15618379E+00 0.25138949E+04</pdfrwt>
<totfact> 0.34005101E+00</totfact>
</mgrwt>
<rwgt>
<wgt id='morphing_basis_vector_1'> +1.2158820e-04 </wgt>
<wgt id='morphing_basis_vector_2'> +8.2088325e-05 </wgt>
<wgt id='morphing_basis_vector_3'> +1.3164195e-04 </wgt>
<wgt id='morphing_basis_vector_4'> +9.2659948e-05 </wgt>
<wgt id='morphing_basis_vector_5'> +1.4830853e-04 </wgt>
</rwgt>
</event>
<event>
 4      1 +2.2016400e-08 2.34075900e+03 7.81860800e-03 7.94455400e-02
        2 -1    0    0  501    0 +0.0000000000e+00 +0.0000000000e+00 +6.4278864054e+02 6.4278864054e+02 0.0000000000e+00 0.0000e+00 -1.0000e+00
       -2 -1    0    0    0  501 -0.0000000000e+00 -0.0000000000e+00 -2.1310078765e+03 2.1310078765e+03 0.0000000000e+00 0.0000e+00 1.0000e+00
      -13  1    1    2    0    0 -1.1507678763e+03 +2.0850649105e+02 -6.9050895592e+02 1.3581400076e+03 0.0000000000e+00 0.0000e+00 1.0000e+00
       13  1    1    2    0    0 +1.1507678763e+03 -2.0850649105e+02 -7.9771028000e+02 1.4156565094e+03 0.0000000000e+00 0.0000e+00 -1.0000e+00
<mgrwt>
<rscale>  0 0.23407586E+04</rscale>
<asrwt>0</asrwt>
<pdfrwt beam="1">  1        2 0.98890562E-01 0.23407586E+04</pdfrwt>
<pdfrwt beam="2">  1       -2 0.32784736E+00 0.23407586E+04</pdfrwt>
<totfact> 0.77982215E-01</totfact>
</mgrwt>
<rwgt>
<wgt id='morphing_basis_vector_1'> +9.5454474e-05 </wgt>
<wgt id='morphing_basis_vector_2'> +7.2723385e-05 </wgt>
<wgt id='morphing_basis_vector_3'> +1.0455826e-04 </wgt>
<wgt id='morphing_basis_vector_4'> +6.1869588e-05 </wgt>
<wgt id='morphing_basis_vector_5'> +1.1044385e-04 </wgt>
</rwgt>
</event>
<event>
 4      1 +2.2016400e-08 2.27994900e+03 7.81860800e-03 7.96551400e-02
        2 -1    0    0  501    0 +0.0000000000e+00 +0.0000000000e+00 +2.1161181785e+03 2.1161181785e+03 0.0000000000e+00 0.0000e+00 -1.0000e+00
       -2 -1    0    0    0  501 -0.0000000000e+00 -0.0000000000e+00 -6.1411571292e+02 6.1411571292e+02 0.0000000000e+00 0.0000e+00 1.0000e+00
      -13  1    1    2    0    0 +1.6536741441e+02 -6.2686320155e+02 -3.7186471696e+02 7.4738692986e+02 0.0000000000e+00 0.0000e+00 1.0000e+00
       13  1    1    2    0    0 -1.6536741441e+02 +6.2686320155e+02 +1.8738671825e+03 1.9828469616e+03 0.0000000000e+00 0.0000e+00 -1.0000e+00
<mgrwt>
<rscale>  0 0.22799486E+04</rscale>
<asrwt>0</asrwt>
<pdfrwt beam="1">  1        2 0.32555664E+00 0.22799486E+04</pdfrwt>
<pdfrwt beam="2">  1       -2 0.94479342E-01 0.22799486E+04</pdfrwt>
<totfact> 0.62837937E+00</totfact>
</mgrwt>
<rwgt>
<wgt id='morphing_basis_vector_1'> +8.2610096e-05 </wgt>
<wgt id='morphing_basis_vector_2'> +5.5340863e-05 </wgt>
<wgt id='morphing_basis_vector_3'> +8.8935371e-05 </wgt>
<wgt id='morphing_basis_vector_4'> +6.2582614e-05 </wgt>
<wgt id='morphing_basis_vector_5'> +9.9811453e-05 </wgt>
</rwgt>
</event>
<event>
 4      1 +2.2016400e-08 2.59754700e+03 7.81860800e-03 7.86274300e-02
        2 -1    0    0  501    0 +0.0000000000e+00 +0.0000000000e+00 +2.0881397285e+03 2.0881397285e+03 0.0000000000e+00 0.0000e+00 -1.0000e+00
       -2 -1    0    0    0  501 -0.0000000000e+00 -0.0000000000e+00 -8.0780637370e+02 8.0780637370e+02 0.0000000000e+00 0.0000e+00 1.0000e+00
      -13  1    1    2    0    0 -1.0067217518e+03 +2.0845879826e+02 -2.4464759697e+02 1.0567857885e+03 0.0000000000e+00 0.0000e+00 1.0000e+00
       13  1    1    2    0    0 +1.0067217518e+03 -2.0845879826e+02 +1.5249809517e+03 1.8391603136e+03 0.0000000000e+00 0.0000e+00 -1.0000e+00
<mgrwt>
<rscale>  0 0.25975470E+04</rscale>
<asrwt>0</asrwt>
<pdfrwt beam="1">  1        2 0.32125226E+00 0.25975470E+04</pdfrwt>
<pdfrwt beam="2">  1       -2 0.12427790E+00 0.25975470E+04</pdfrwt>
<totfact> 0.32008189E+00</totfact>
</mgrwt>
<rwgt>
<wgt id='morphing_basis_vector_1'> +1.3845952e-04 </wgt>
<wgt id='morphing_basis_vector_2'> +9.3767765e-05 </wgt>
<wgt id='morphing_basis_vector_3'> +1.5017539e-04 </wgt>
<wgt id='morphing_basis_vector_4'> +1.0560692e-04 </wgt>
<wgt id='morphing_basis_vector_5'> +1.6931296e-04 </wgt>
</rwgt>
</event>
<event>
 4      1 +2.2016400e-08 2.26142900e+03 7.81860800e-03 7.97203200e-02
        2 -1    0    0  501    0 +0.0000000000e+00 +0.0000000000e+00 +4.5915662264e+03 4.5915662264e+03 0.0000000000e+00 0.0000e+00 -1.0000e+00
       -2 -1    0    0    0  501 -0.0000000000e+00 -0.0000000000e+00 -2.7844867772e+02 2.7844867772e+02 0.0000000000e+00 0.0000e+00 1.0000e+00
      -13  1    1    2    0    0 -3.3316414886e+02 -1.0170221654e+03 +1.3706504963e+03 1.7389695851e+03 0.0000000000e+00 0.0000e+00 1.0000e+00
       13  1    1    2    0    0 +3.3316414886e+02 +1.0170221654e+03 +2.9424670524e+03 3.1310453190e+03 0.0000000000e+00 0.0000e+00 -1.0000e+00
<mgrwt>
<rscale>  0 0.22614292E+04</rscale>
<asrwt>0</asrwt>
<pdfrwt beam="1">  1        2 0.70639475E+00 0.22614292E+04</pdfrwt>
<pdfrwt beam="2">  1       -2 0.42838261E-01 0.22614292E+04</pdfrwt>
<totfact> 0.49358032E-01</totfact>
</mgrwt>
<rwgt>
<wgt id='morphing_basis_vector_1'> +8.0797159e-05 </wgt>
<wgt id='morphing_basis_vector_2'> +5.5932550e-05 </wgt>
<wgt id='morphing_basis_vector_3'> +8.7279186e-05 </wgt>
<wgt id='morphing_basis_vector_4'> +5.8928621e-05 </wgt>
<wgt id='morphing_basis_vector_5'> +9.6429175e-05 </wgt>
</rwgt>
</event>
<event>
 4      1 +2.2016400e-08 2.37602500e+03 7.81860800e-03 7.93269700e-02
        2 -1    0    0  501    0 +0.0000000000e+00 +0.0000000000e+00 +2.4591776350e+03 2.4591776350e+03 0.0000000000e+00 0.0000e+00 -1.0000e+00
       -2 -1    0    0    0  501 -0.0000000000e+00 -0.0000000000e+00 -5.7392115765e+02 5.7392115765e+02 0.0000000000e+00 0.0000e+00 1.0000e+00
      -13  1    1    2    0    0 +4.4951229289e+02 -4.4145594743e+02 -3.4309179382e+02 7.1739573038e+02 0.0000000000e+00 0.0000e+00 1.0000e+00
       13  1    1    2    0    0 -4.4951229289e+02 +4.4145594743e+02 +2.2283482711e+03 2.3157030622e+03 0.0000000000e+00 0.0000e+00 -1.0000e+00
<mgrwt>
<rscale>  0 0.23760253E+04</rscale>
<asrwt>0</asrwt>
<pdfrwt beam="1">  1        2 0.37833501E+00 0.23760253E+04</pdfrwt>
<pdfrwt beam="2">  1       -2 0.88295564E-01 0.23760253E+04</pdfrwt>
<totfact> 0.46204995E+00</totfact>
</mgrwt>
<rwgt>
<wgt id='morphing_basis_vector_1'> +9.7188399e-05 </wgt>
<wgt id='morphing_basis_vector_2'> +6.5177302e-05 </wgt>
<wgt id='morphing_basis_vector_3'> +1.0486429e-04 </wgt>
<wgt id='morphing_basis_vector_4'> +7.4014200e-05 </wgt>
<wgt id='morphing_basis_vector_5'> +1.1801922e-04 </wgt>
</rwgt>
</event>
<event>
 4      1 +2.2016400e-08 2.28646200e+03 7.81860800e-03 7.96323800e-02
        2 -1    0    0  501    0 +0.0000000000e+00 +0.0000000000e+00 +1.5623776290e+03 1.5623776290e+03 0.0000000000e+00 0.0000e+00 1.0000e+00
       -2 -1    0    0    0  501 -0.0000000000e+00 -0.0000000000e+00 -8.3653063002e+02 8.3653063002e+02 0.0000000000e+00 0.0000e+00 -1.0000e+00
      -13  1    1    2    0    0 +1.5295757275e+02 +1.1324277065e+03 +3.9908919452e+02 1.2103969245e+03 0.0000000000e+00 0.0000e+00 -1.0000e+00
       13  1    1    2    0    0 -1.5295757275e+02 -1.1324277065e+03 +3.2675780450e+02 1.1885113346e+03 0.0000000000e+00 0.0000e+00 1.0000e+00
<mgrwt>
<rscale>  0 0.22864617E+04</rscale>
<asrwt>0</asrwt>
<pdfrwt beam="1">  1        2 0.24036579E+00 0.22864617E+04</pdfrwt>
<pdfrwt beam="2">  1       -2 0.12869702E+00 0.22864617E+04</pdfrwt>
<totfact> 0.59006277E+00</totfact>
</mgrwt>
<rwgt>
<wgt id='morphing_basis_vector_1'> +8.6919509e-05 </wgt>
<wgt id='morphing_basis_vector_2'> +6.5946258e-05 </wgt>
<wgt id='morphing_basis_vector_3'> +9.5024292e-05 </wgt>
<wgt id='morphing_basis_vector_4'> +5.6463387e-05 </wgt>
<wgt id='morphing_basis_vector_5'> +1.0042466e-04 </wgt>
</rwgt>
</event>
<event>
 4      1 +2.2016400e-08 2.34867600e+03 7.81860800e-03 7.94187400e-02
        2 -1    0    0  501    0 +0.0000000000e+00 +0.0000000000e+00 +1.6918988542e+03 1.6918988542e+03 0.0000000000e+00 0.0000e+00 -1.0000e+00
       -2 -1    0    0    0  501 -0.0000000000e+00 -0.0000000000e+00 -8.1510170658e+02 8.1510170658e+02 0.0000000000e+00 0.0000e+00 1.0000e+00
      -13  1    1    2    0    0 +9.1443429481e+02 +2.0534734880e+02 +1.1937087728e+03 1.5176620993e+03 0.0000000000e+00 0.0000e+00 1.0000e+00
       13  1    1    2    0    0 -9.1443429481e+02 -2.0534734880e+02 -3.1691162524e+02 9.8933846149e+02 0.0000000000e+00 0.0000e+00 -1.0000e+00
<mgrwt>
<rscale>  0 0.23486759E+04</rscale>
<asrwt>0</asrwt>
<pdfrwt beam="1">  1        2 0.26029213E+00 0.23486759E+04</pdfrwt>
<pdfrwt beam="2">  1       -2 0.12540026E+00 0.23486759E+04</pdfrwt>
<totfact> 0.53233534E+00</totfact>
</mgrwt>
<rwgt>
<wgt id='morphing_basis_vector_1'> +1.1486207e-04 </wgt>
<wgt id='morphing_basis_vector_2'> +1.2724208e-04 </wgt>
<wgt id='morphing_basis_vector_3'> +1.3334503e-04 </wgt>
<wgt id='morphing_basis_vector_4'> +2.5830840e-05 </wgt>
<wgt id='morphing_basis_vector_5'> +1.0899625e-04 </wgt>
</rwgt>
</event>
<event>
 4      1 +2.2016400e-08 2.58192000e+03 7.81860800e-03 7.86744000e-02
        2 -1    0    0  501    0 +0.0000000000e+00 +0.0000000000e+00 +1.9772044271e+03 1.9772044271e+03 0.0000000000e+00 0.0000e+00 1.0000e+00
       -2 -1    0    0    0  501 -0.0000000000e+00 -0.0000000000e+00 -8.4289596116e+02 8.4289596116e+02 0.0000000000e+00 0.0000e+00 -1.0000e+00
      -13  1    1    2    0    0 -1.9428349849e+02 +2.9945604555e+02 -7.8792081461e+02 8.6500821447e+02 0.0000000000e+00 0.0000e+00 -1.0000e+00
       13  1    1    2    0    0 +1.9428349849e+02 -2.9945604555e+02 +1.9222292805e+03 1.9550921738e+03 0.0000000000e+00 0.0000e+00 1.0000e+00
<mgrwt>
<rscale>  0 0.25819199E+04</rscale>
<asrwt>0</asrwt>
<pdfrwt beam="1">  1        2 0.30418530E+00 0.25819199E+04</pdfrwt>
<pdfrwt beam="2">  1       -2 0.12967630E+00 0.25819199E+04</pdfrwt>
<totfact> 0.33087341E+00</totfact>
</mgrwt>
<rwgt>
<wgt id='morphing_basis_vector_1'> +1.3488132e-04 </wgt>
<wgt id='morphing_basis_vector_2'> +9.0611152e-05 </wgt>
<wgt id='morphing_basis_vector_3'> +1.4611243e-04 </wgt>
<wgt id='morphing_basis_vector_4'> +1.0370888e-04 </wgt>
<wgt id='morphing_basis_vector_5'> +1.6528041e-04 </wgt>
</rwgt>
</event>
<event>
 4      1 +2.2016400e-08 2.34886600e+03 7.81860800e-03 7.94180900e-02
        2 -1    0    0  501    0 +0.0000000000e+00 +0.0000000000e+00 +7.7559012931e+02 7.7559012931e+02 0.0000000000e+00 0.0000e+00 1.0000e+00
       -2 -1    0    0    0  501 -0.0000000000e+00 -0.0000000000e+00 -1.7783787635e+03 1.7783787635e+03 0.0000000000e+00 0.0000e+00 -1.0000e+00
      -13  1    1    2    0    0 +6.2886054728e+01 -4.0930943629e+02 -1.6963604501e+03 1.7461751479e+03 0.0000000000e+00 0.0000e+00 -1.0000e+00
       13  1    1    2    0    0 -6.2886054728e+01 +4.0930943629e+02 +6.9357181589e+02 8.0779374491e+02 0.0000000000e+00 0.0000e+00 1.0000e+00
<mgrwt>
<rscale>  0 0.23488661E+04</rscale>
<asrwt>0</asrwt>
<pdfrwt beam="1">  1        2 0.11932156E+00 0.23488661E+04</pdfrwt>
<pdfrwt beam="2">  1       -2 0.27359673E+00 0.23488661E+04</pdfrwt>
<totfact> 0.14349378E+00</totfact>
</mgrwt>
<rwgt>
<wgt id='morphing_basis_vector_1'> +9.2861068e-05 </wgt>
<wgt id='morphing_basis_vector_2'> +6.2201810e-05 </wgt>
<wgt id='morphing_basis_vector_3'> +1.0012413e-04 </wgt>
<wgt id='morphing_basis_vector_4'> +7.0686047e-05 </wgt>
<wgt id='morphing_basis_vector_5'> +1.1264403e-04 </wgt>
</rwgt>
</event>
<event>
 4      1 +2.2016400e-08 2.40423100e+03 7.81860800e-03 7.92336400e-02
        2 -1    0    0  501    0 +0.0000000000e+00 +0.0000000000e+00 +1.6809163336e+03 1.6809163336e+03 0.0000000000e+00 0.0000e+00 1.0000e+00
       -2 -1    0    0    0  501 -0.0000000000e+00 -0.0000000000e+00 -8.5969843342e+02 8.5969843342e+02 0.0000000000e+00 0.0000e+00 -1.0000e+00
      -13  1    1    2    0    0 -9.2619595399e+02 +7.4601366674e+02 +5.9577993318e+02 1.3301612928e+03 0.0000000000e+00 0.0000e+00 1.0000e+00
       13  1    1    2    0    0 +9.2619595399e+02 -7.4601366674e+02 +2.2543796697e+02 1.2104534742e+03 0.0000000000e+00 0.0000e+00 -1.0000e+00
<mgrwt>
<rscale>  0 0.24042306E+04</rscale>
<asrwt>0</asrwt>
<pdfrwt beam="1">  1        2 0.25860251E+00 0.24042306E+04</pdfrwt>
<pdfrwt beam="2">  1       -2 0.13226130E+00 0.24042306E+04</pdfrwt>
<totfact> 0.46636591E+00</totfact>
</mgrwt>
<rwgt>
<wgt id='morphing_basis_vector_1'> +1.0801002e-04 </wgt>
<wgt id='morphing_basis_vector_2'> +8.6590203e-05 </wgt>
<wgt id='morphing_basis_vector_3'> +1.1931448e-04 </wgt>
<wgt id='morphing_basis_vector_4'> +6.5006032e-05 </wgt>
<wgt id='morphing_basis_vector_5'> +1.2278554e-04 </wgt>
</rwgt>
</event>
<event>
 4      1 +2.2016400e-08 2.57617800e+03 7.81860800e-03 7.86917400e-02
        2 -1    0    0  501    0 +0.0000000000e+00 +0.0000000000e+00 +1.6059569430e+03 1.6059569430e+03 0.0000000000e+00 0.0000e+00 -1.0000e+00
       -2 -1    0    0    0  501 -0.0000000000e+00 -0.0000000000e+00 -1.0331364858e+03 1.0331364858e+03 0.0000000000e+00 0.0000e+00 1.0000e+00
      -13  1    1    2    0    0 -1.7146119871e+01 +1.1708549738e+03 -2.6333078579e+02 1.2002243381e+03 0.0000000000e+00 0.0000e+00 1.0000e+00
       13  1    1    2    0    0 +1.7146119871e+01 -1.1708549738e+03 +8.3615124291e+02 1.4388690907e+03 0.0000000000e+00 0.0000e+00 -1.0000e+00
<mgrwt>
<rscale>  0 0.25761776E+04</rscale>
<asrwt>0</asrwt>
<pdfrwt beam="1">  1        2 0.24707030E+00 0.25761776E+04</pdfrwt>
<pdfrwt beam="2">  1       -2 0.15894407E+00 0.25761776E+04</pdfrwt>
<totfact> 0.30143631E+00</totfact>
</mgrwt>
<rwgt>
<wgt id='morphing_basis_vector_1'> +1.3460402e-04 </wgt>
<wgt id='morphing_basis_vector_2'> +9.2478447e-05 </wgt>
<wgt id='morphing_basis_vector_3'> +1.4620460e-04 </wgt>
<wgt id='morphing_basis_vector_4'> +1.0092041e-04 </wgt>
<wgt id='morphing_basis_vector_5'> +1.6364639e-04 </wgt>
</rwgt>
</event>
<event>
 4      1 +2.2016400e-08 2.51871800e+03 7.81860800e-03 7.88678900e-02
        2 -1    0    0  501    0 +0.0000000000e+00 +0.0000000000e+00 +1.4062939087e+03 1.4062939087e+03 0.0000000000e+00 0.0000e+00 1.0000e+00
       -2 -1    0    0    0  501 -0.0000000000e+00 -0.0000000000e+00 -1.1277766924e+03 1.1277766924e+03 0.0000000000e+00 0.0000e+00 -1.0000e+00
      -13  1    1    2    0    0 -7.6839443396e+02 -8.2227222717e+02 -4.2936225986e+02 1.2045387382e+03 0.0000000000e+00 0.0000e+00 -1.0000e+00
       13  1    1    2    0    0 +7.6839443396e+02 +8.2227222717e+02 +7.0787947615e+02 1.3295318629e+03 0.0000000000e+00 0.0000e+00 1.0000e+00
<mgrwt>
<rscale>  0 0.25187183E+04</rscale>
<asrwt>0</asrwt>
<pdfrwt beam="1">  1        2 0.21635291E+00 0.25187183E+04</pdfrwt>
<pdfrwt beam="2">  1       -2 0.17350411E+00 0.25187183E+04</pdfrwt>
<totfact> 0.30103198E+00</totfact>
</mgrwt>
<rwgt>
<wgt id='morphing_basis_vector_1'> +1.2301065e-04 </wgt>
<wgt id='morphing_basis_vector_2'> +8.4188126e-05 </wgt>
<wgt id='morphing_basis_vector_3'> +1.3341628e-04 </wgt>
<wgt id='morphing_basis_vector_4'> +9.2359257e-05 </wgt>
<wgt id='morphing_basis_vector_5'> +1.4938159e-04 </wgt>
</rwgt>
</event>
<event>
 4      1 +2.2016400e-08 2.40490600e+03 7.81860800e-03 7.92314300e-02
        2 -1    0    0  501    0 +0.0000000000e+00 +0.0000000000e+00 +1.5191712785e+03 1.5191712785e+03 0.0000000000e+00 0.0000e+00 -1.0000e+00
       -2 -1    0    0    0  501 -0.0000000000e+00 -0.0000000000e+00 -9.5176425801e+02 9.5176425801e+02 0.0000000000e+00 0.0000e+00 1.0000e+00
      -13  1    1    2    0    0 -4.6832164901e+02 +5.2332527083e+02 -7.1915825901e+02 1.0051781472e+03 0.0000000000e+00 0.0000e+00 1.0000e+00
       13  1    1    2    0    0 +4.6832164901e+02 -5.2332527083e+02 +1.2865652795e+03 1.4657573893e+03 0.0000000000e+00 0.0000e+00 -1.0000e+00
<mgrwt>
<rscale>  0 0.24049058E+04</rscale>
<asrwt>0</asrwt>
<pdfrwt beam="1">  1        2 0.23371866E+00 0.24049058E+04</pdfrwt>
<pdfrwt beam="2">  1       -2 0.14642527E+00 0.24049058E+04</pdfrwt>
<totfact> 0.43324726E+00</totfact>
</mgrwt>
<rwgt>
<wgt id='morphing_basis_vector_1'> +1.0194705e-04 </wgt>
<wgt id='morphing_basis_vector_2'> +6.8434128e-05 </wgt>
<wgt id='morphing_basis_vector_3'> +1.1007576e-04 </wgt>
<wgt id='morphing_basis_vector_4'> +7.7696130e-05 </wgt>
<wgt id='morphing_basis_vector_5'> +1.2394400e-04 </wgt>
</rwgt>
</event>
<event>
 4      1 +2.2016400e-08 2.31225700e+03 7.81860800e-03 7.95429600e-02
        2 -1    0    0  501    0 +0.0000000000e+00 +0.0000000000e+00 +1.3716334292e+03 1.3716334292e+03 0.0000000000e+00 0.0000e+00 1.0000e+00
       -2 -1    0    0    0  501 -0.0000000000e+00 -0.0000000000e+00 -9.7448252589e+02 9.7448252589e+02 0.0000000000e+00 0.0000e+00 -1.0000e+00
      -13  1    1    2    0    0 +8.5126817966e+02 -6.5258425965e+02 +6.3629626627e+02 1.2471554306e+03 0.0000000000e+00 0.0000e+00 1.0000e+00
       13  1    1    2    0    0 -8.5126817966e+02 +6.5258425965e+02 -2.3914536299e+02 1.0989605244e+03 0.0000000000e+00 0.0000e+00 -1.0000e+00
<mgrwt>
<rscale>  0 0.23122567E+04</rscale>
<asrwt>0</asrwt>
<pdfrwt beam="1">  1        2 0.21102053E+00 0.23122567E+04</pdfrwt>
<pdfrwt beam="2">  1       -2 0.14992039E+00 0.23122567E+04</pdfrwt>
<totfact> 0.49446611E+00</totfact>
</mgrwt>
<rwgt>
<wgt id='morphing_basis_vector_1'> +9.8437076e-05 </wgt>
<wgt id='morphing_basis_vector_2'> +9.1369610e-05 </wgt>
<wgt id='morphing_basis_vector_3'> +1.1081198e-04 </wgt>
<wgt id='morphing_basis_vector_4'> +4.3675193e-05 </wgt>
<wgt id='morphing_basis_vector_5'> +1.0386487e-04 </wgt>
</rwgt>
</event>
<event>
 4      1 +2.2016400e-08 2.37127100e+03 7.81860800e-03 7.93428300e-02
        2 -1    0    0  501    0 +0.0000000000e+00 +0.0000000000e+00 +1.0809943021e+03 1.0809943021e+03 0.0000000000e+00 0.0000e+00 -1.0000e+00
       -2 -1    0    0    0  501 -0.0000000000e+00 -0.0000000000e+00 -1.3004058842e+03 1.3004058842e+03 0.0000000000e+00 0.0000e+00 1.0000e+00
      -13  1    1    2    0    0 -5.6967650333e+02 -8.8321854098e+02 -6.6079849169e+02 1.2414753144e+03 0.0000000000e+00 0.0000e+00 1.0000e+00
       13  1    1    2    0    0 +5.6967650333e+02 +8.8321854098e+02 +4.4138690963e+02 1.1399248719e+03 0.0000000000e+00 0.0000e+00 -1.0000e+00
<mgrwt>
<rscale>  0 0.23712708E+04</rscale>
<asrwt>0</asrwt>
<pdfrwt beam="1">  1        2 0.16630682E+00 0.23712708E+04</pdfrwt>
<pdfrwt beam="2">  1       -2 0.20006244E+00 0.23712708E+04</pdfrwt>
<totfact> 0.29772179E+00</totfact>
</mgrwt>
<rwgt>
<wgt id='morphing_basis_vector_1'> +9.6918388e-05 </wgt>
<wgt id='morphing_basis_vector_2'> +6.6120175e-05 </wgt>
<wgt id='morphing_basis_vector_3'> +1.0477602e-04 </wgt>
<wgt id='morphing_basis_vector_4'> +7.2408172e-05 </wgt>
<wgt id='morphing_basis_vector_5'> +1.1698286e-04 </wgt>
</rwgt>
</event>
<event>
 4      1 +2.2016400e-08 2.25201700e+03 7.81860800e-03 7.97536900e-02
        2 -1    0    0  501    0 +0.0000000000e+00 +0.0000000000e+00 +1.4390335014e+03 1.4390335014e+03 0.0000000000e+00 0.0000e+00 1.0000e+00
       -2 -1    0    0    0  501 -0.0000000000e+00 -0.0000000000e+00 -8.8107394460e+02 8.8107394460e+02 0.0000000000e+00 0.0000e+00 -1.0000e+00
      -13  1    1    2    0    0 +4.1060652795e+02 +2.2010723687e+02 -7.7712458376e+02 9.0607258826e+02 0.0000000000e+00 0.0000e+00 -1.0000e+00
       13  1    1    2    0    0 -4.1060652795e+02 -2.2010723687e+02 +1.3350841406e+03 1.4140348577e+03 0.0000000000e+00 0.0000e+00 1.0000e+00
<mgrwt>
<rscale>  0 0.22520168E+04</rscale>
<asrwt>0</asrwt>
<pdfrwt beam="1">  1        2 0.22138977E+00 0.22520168E+04</pdfrwt>
<pdfrwt beam="2">  1       -2 0.13554984E+00 0.22520168E+04</pdfrwt>
<totfact> 0.60316269E+00</totfact>
</mgrwt>
<rwgt>
<wgt id='morphing_basis_vector_1'> +7.8673684e-05 </wgt>
<wgt id='morphing_basis_vector_2'> +5.2626672e-05 </wgt>
<wgt id='morphing_basis_vector_3'> +8.4627020e-05 </wgt>
<wgt id='morphing_basis_vector_4'> +5.9574258e-05 </wgt>
<wgt id='morphing_basis_vector_5'> +9.4939980e-05 </wgt>
</rwgt>
</event>
<event>
 4      1 +2.2016400e-08 2.41715000e+03 7.81860800e-03 7.91913400e-02
        2 -1    0    0  501    0 +0.0000000000e+00 +0.0000000000e+00 +8.6948905916e+02 8.6948905916e+02 0.0000000000e+00 0.0000e+00 1.0000e+00
       -2 -1    0    0    0  501 -0.0000000000e+00 -0.0000000000e+00 -1.6798981465e+03 1.6798981465e+03 0.0000000000e+00 0.0000e+00 -1.0000e+00
      -13  1    1    2    0    0 +8.6409616149e+02 -2.5454295142e+02 -1.2550131277e+03 1.5448340497e+03 0.0000000000e+00 0.0000e+00 -1.0000e+00
       13  1    1    2    0    0 -8.6409616149e+02 +2.5454295142e+02 +4.4460404038e+02 1.0045531560e+03 0.0000000000e+00 0.0000e+00 1.0000e+00
<mgrwt>
<rscale>  0 0.24171496E+04</rscale>
<asrwt>0</asrwt>
<pdfrwt beam="1">  1        2 0.13376755E+00 0.24171496E+04</pdfrwt>
<pdfrwt beam="2">  1       -2 0.25844586E+00 0.24171496E+04</pdfrwt>
<totfact> 0.15623721E+00</totfact>
</mgrwt>
<rwgt>
<wgt id='morphing_basis_vector_1'> +1.0413235e-04 </wgt>
<wgt id='morphing_basis_vector_2'> +7.0192827e-05 </wgt>
<wgt id='morphing_basis_vector_3'> +1.1251850e-04 </wgt>
<wgt id='morphing_basis_vector_4'> +7.9061326e-05 </wgt>
<wgt id='morphing_basis_vector_5'> +1.2650260e-04 </wgt>
</rwgt>
</event>
<event>
 4      1 +2.2016400e-08 2.52717600e+03 7.81860800e-03 7.88416600e-02
        2 -1    0    0  501    0 +0.0000000000e+00 +0.0000000000e+00 +1.3054831273e+03 1.3054831273e+03 0.0000000000e+00 0.0000e+00 1.0000e+00
       -2 -1    0    0    0  501 -0.0000000000e+00 -0.0000000000e+00 -1.2230377807e+03 1.2230377807e+03 0.0000000000e+00 0.0000e+00 -1.0000e+00
      -13  1    1    2    0    0 +1.1116241426e+03 -3.6937253710e+02 -4.3285519636e+02 1.2488025971e+03 0.0000000000e+00 0.0000e+00 -1.0000e+00
       13  1    1    2    0    0 -1.1116241426e+03 +3.6937253710e+02 +5.1530054292e+02 1.2797183109e+03 0.0000000000e+00 0.0000e+00 1.0000e+00
<mgrwt>
<rscale>  0 0.25271764E+04</rscale>
<asrwt>0</asrwt>
<pdfrwt beam="1">  1        2 0.20084356E+00 0.25271764E+04</pdfrwt>
<pdfrwt beam="2">  1       -2 0.18815966E+00 0.25271764E+04</pdfrwt>
<totfact> 0.26569497E+00</totfact>
</mgrwt>
<rwgt>
<wgt id='morphing_basis_vector_1'> +1.2495036e-04 </wgt>
<wgt id='morphing_basis_vector_2'> +8.6204724e-05 </wgt>
<wgt id='morphing_basis_vector_3'> +1.3567537e-04 </wgt>
<wgt id='morphing_basis_vector_4'> +9.3005175e-05 </wgt>
<wgt id='morphing_basis_vector_5'> +1.5137377e-04 </wgt>
</rwgt>
</event>
<event>
 4      1 +2.2016400e-08 2.48248900e+03 7.81860800e-03 7.89814400e-02
        2 -1    0    0  501    0 +0.0000000000e+00 +0.0000000000e+00 +1.9788500084e+03 1.9788500084e+03 0.0000000000e+00 0.0000e+00 1.0000e+00
       -2 -1    0    0    0  501 -0.0000000000e+00 -0.0000000000e+00 -7.7857749911e+02 7.7857749911e+02 0.0000000000e+00 0.0000e+00 -1.0000e+00
      -13  1    1    2    0    0 -1.2915788547e+02 -1.0229509424e+03 -1.6747046060e+02 1.0445844845e+03 0.0000000000e+00 0.0000e+00 -1.0000e+00
       13  1    1    2    0    0 +1.2915788547e+02 +1.0229509424e+03 +1.3677429699e+03 1.7128430231e+03 0.0000000000e+00 0.0000e+00 1.0000e+00
<mgrwt>
<rscale>  0 0.24824891E+04</rscale>
<asrwt>0</asrwt>
<pdfrwt beam="1">  1        2 0.30443846E+00 0.24824891E+04</pdfrwt>
<pdfrwt beam="2">  1       -2 0.11978115E+00 0.24824891E+04</pdfrwt>
<totfact> 0.41028363E+00</totfact>
</mgrwt>
<rwgt>
<wgt id='morphing_basis_vector_1'> +1.1587977e-04 </wgt>
<wgt id='morphing_basis_vector_2'> +7.8611281e-05 </wgt>
<wgt id='morphing_basis_vector_3'> +1.2546429e-04 </wgt>
<wgt id='morphing_basis_vector_4'> +8.7694395e-05 </wgt>
<wgt id='morphing_basis_vector_5'> +1.4091450e-04 </wgt>
</rwgt>
</event>
<event>
 4      1 +2.2016400e-08 2.33352300e+03 7.81860800e-03 7.94701400e-02
        2 -1    0    0  501    0 +0.0000000000e+00 +0.0000000000e+00 +1.8200443835e+03 1.8200443835e+03 0.0000000000e+00 0.0000e+00 -1.0000e+00
       -2 -1    0    0    0  501 -0.0000000000e+00 -0.0000000000e+00 -7.4796675771e+02 7.4796675771e+02 0.0000000000e+00 0.0000e+00 1.0000e+00
      -13  1    1    2    0    0 -1.0110461737e+03 +5.6798758260e+02 +6.7743501630e+02 1.3430347950e+03 0.0000000000e+00 0.0000e+00 1.0000e+00
       13  1    1    2    0    0 +1.0110461737e+03 -5.6798758260e+02 +3.9464260947e+02 1.2249763461e+03 0.0000000000e+00 0.0000e+00 -1.0000e+00
<mgrwt>
<rscale>  0 0.23335233E+04</rscale>
<asrwt>0</asrwt>
<pdfrwt beam="1">  1        2 0.28000683E+00 0.23335233E+04</pdfrwt>
<pdfrwt beam="2">  1       -2 0.11507181E+00 0.23335233E+04</pdfrwt>
<totfact> 0.56545221E+00</totfact>
</mgrwt>
<rwgt>
<wgt id='morphing_basis_vector_1'> +9.5380536e-05 </wgt>
<wgt id='morphing_basis_vector_2'> +7.5035423e-05 </wgt>
<wgt id='morphing_basis_vector_3'> +1.0490392e-04 </wgt>
<wgt id='morphing_basis_vector_4'> +5.8894380e-05 </wgt>
<wgt id='morphing_basis_vector_5'> +1.0888770e-04 </wgt>
</rwgt>
</event>
<event>
 4      1 +2.2016400e-08 2.23238300e+03 7.81860800e-03 7.98238500e-02
        2 -1    0    0  501    0 +0.0000000000e+00 +0.0000000000e+00 +3.2529531190e+03 3.2529531190e+03 0.0000000000e+00 0.0000e+00 -1.0000e+00
       -2 -1    0    0    0  501 -0.0000000000e+00 -0.0000000000e+00 -3.8300057535e+02 3.8300057535e+02 0.0000000000e+00 0.0000e+00 1.0000e+00
      -13  1    1    2    0    0 -1.5452511657e+02 -8.9087953472e+02 +2.5009421875e+03 2.6593713885e+03 0.0000000000e+00 0.0000e+00 -1.0000e+00
       13  1    1    2    0    0 +1.5452511657e+02 +8.9087953472e+02 +3.6901035615e+02 9.7658230579e+02 0.0000000000e+00 0.0000e+00 1.0000e+00
<mgrwt>
<rscale>  0 0.22323825E+04</rscale>
<asrwt>0</asrwt>
<pdfrwt beam="1">  1        2 0.50045431E+00 0.22323825E+04</pdfrwt>
<pdfrwt beam="2">  1       -2 0.58923168E-01 0.22323825E+04</pdfrwt>
<totfact> 0.35413551E+00</totfact>
</mgrwt>
<rwgt>
<wgt id='morphing_basis_vector_1'> +9.3377368e-05 </wgt>
<wgt id='morphing_basis_vector_2'> +1.0215780e-04 </wgt>
<wgt id='morphing_basis_vector_3'> +1.0766997e-04 </wgt>
<wgt id='morphing_basis_vector_4'> +2.2370567e-05 </wgt>
<wgt id='morphing_basis_vector_5'> +8.8808160e-05 </wgt>
</rwgt>
</event>
<event>
 4      1 +2.2016400e-08 2.57184800e+03 7.81860800e-03 7.87048500e-02
        2 -1    0    0  501    0 +0.0000000000e+00 +0.0000000000e+00 +3.3365852333e+03 3.3365852333e+03 0.0000000000e+00 0.0000e+00 1.0000e+00
       -2 -1    0    0    0  501 -0.0000000000e+00 -0.0000000000e+00 -4.9559666528e+02 4.9559666528e+02 0.0000000000e+00 0.0000e+00 -1.0000e+00
      -13  1    1    2    0    0 +9.5334732630e+02 -6.6634638602e+02 +6.0339258028e+02 1.3103324909e+03 0.0000000000e+00 0.0000e+00 -1.0000e+00
       13  1    1    2    0    0 -9.5334732630e+02 +6.6634638602e+02 +2.2375959877e+03 2.5218494076e+03 0.0000000000e+00 0.0000e+00 1.0000e+00
<mgrwt>
<rscale>  0 0.25718480E+04</rscale>
<asrwt>0</asrwt>
<pdfrwt beam="1">  1        2 0.51332079E+00 0.25718480E+04</pdfrwt>
<pdfrwt beam="2">  1       -2 0.76245643E-01 0.25718480E+04</pdfrwt>
<totfact> 0.17392612E+00</totfact>
</mgrwt>
<rwgt>
<wgt id='morphing_basis_vector_1'> +1.3367118e-04 </wgt>
<wgt id='morphing_basis_vector_2'> +9.1739762e-05 </wgt>
<wgt id='morphing_basis_vector_3'> +1.4516155e-04 </wgt>
<wgt id='morphing_basis_vector_4'> +1.0032066e-04 </wgt>
<wgt id='morphing_basis_vector_5'> +1.6254276e-04 </wgt>
</rwgt>
</event>
<event>
 4      1 +2.2016400e-08 2.26076900e+03 7.81860800e-03 7.97226500e-02
        2 -1    0    0  501    0 +0.0000000000e+00 +0.0000000000e+00 +2.1966121561e+03 2.1966121561e+03 0.0000000000e+00 0.0000e+00 -1.0000e+00
       -2 -1    0    0    0  501 -0.0000000000e+00 -0.0000000000e+00 -5.8170002748e+02 5.8170002748e+02 0.0000000000e+00 0.0000e+00 1.0000e+00
      -13  1    1    2    0    0 -9.5235268675e+02 -2.7214900613e+02 +1.3802703695e+02 1.0000460911e+03 0.0000000000e+00 0.0000e+00 1.0000e+00
       13  1    1    2    0    0 +9.5235268675e+02 +2.7214900613e+02 +1.4768850917e+03 1.7782660925e+03 0.0000000000e+00 0.0000e+00 -1.0000e+00
<mgrwt>
<rscale>  0 0.22607692E+04</rscale>
<asrwt>0</asrwt>
<pdfrwt beam="1">  1        2 0.33794033E+00 0.22607692E+04</pdfrwt>
<pdfrwt beam="2">  1       -2 0.89492313E-01 0.22607692E+04</pdfrwt>
<totfact> 0.64310163E+00</totfact>
</mgrwt>
<rwgt>
<wgt id='morphing_basis_vector_1'> +8.0268640e-05 </wgt>
<wgt id='morphing_basis_vector_2'> +5.4580258e-05 </wgt>
<wgt id='morphing_basis_vector_3'> +8.6524642e-05 </wgt>
<wgt id='morphing_basis_vector_4'> +5.9741357e-05 </wgt>
<wgt id='morphing_basis_vector_5'> +9.6385667e-05 </wgt>
</rwgt>
</event>
<event>
 4      1 +2.2016400e-08 2.45466300e+03 7.81860800e-03 7.90700100e-02
        2 -1    0    0  501    0 +0.0000000000e+00 +0.0000000000e+00 +7.7820413520e+02 7.7820413520e+02 0.0000000000e+00 0.0000e+00 1.0000e+00
       -2 -1    0    0    0  501 -0.0000000000e+00 -0.0000000000e+00 -1.9356644246e+03 1.9356644246e+03 0.0000000000e+00 0.0000e+00 -1.0000e+00
      -13  1    1    2    0    0 +4.5392813598e+02 -7.7435682263e+02 -1.5041771376e+03 1.7516358362e+03 0.0000000000e+00 0.0000e+00 -1.0000e+00
       13  1    1    2    0    0 -4.5392813598e+02 +7.7435682263e+02 +3.4671684826e+02 9.6223272354e+02 0.0000000000e+00 0.0000e+00 1.0000e+00
<mgrwt>
<rscale>  0 0.24546626E+04</rscale>
<asrwt>0</asrwt>
<pdfrwt beam="1">  1        2 0.11972371E+00 0.24546626E+04</pdfrwt>
<pdfrwt beam="2">  1       -2 0.29779452E+00 0.24546626E+04</pdfrwt>
<totfact> 0.96970494E-01</totfact>
</mgrwt>
<rwgt>
<wgt id='morphing_basis_vector_1'> +1.1063631e-04 </wgt>
<wgt id='morphing_basis_vector_2'> +7.4570616e-05 </wgt>
<wgt id='morphing_basis_vector_3'> +1.1963150e-04 </wgt>
<wgt id='morphing_basis_vector_4'> +8.4191409e-05 </wgt>
<wgt id='morphing_basis_vector_5'> +1.3465538e-04 </wgt>
</rwgt>
</event>
<event>
 4      1 +2.2016400e-08 2.41950100e+03 7.81860800e-03 7.91836600e-02
        2 -1    0    0  501    0 +0.0000000000e+00 +0.0000000000e+00 +8.1402774721e+02 8.1402774721e+02 0.0000000000e+00 0.0000e+00 1.0000e+00
       -2 -1    0    0    0  501 -0.0000000000e+00 -0.0000000000e+00 -1.7978457594e+03 1.7978457594e+03 0.0000000000e+00 0.0000e+00 -1.0000e+00
      -13  1    1    2    0    0 +6.9564825777e+02 -2.6298986858e+02 -1.5219248849e+03 1.6939142614e+03 0.0000000000e+00 0.0000e+00 -1.0000e+00
       13  1    1    2    0    0 -6.9564825777e+02 +2.6298986858e+02 +5.3810687271e+02 9.1795924527e+02 0.0000000000e+00 0.0000e+00 1.0000e+00
<mgrwt>
<rscale>  0 0.24195011E+04</rscale>
<asrwt>0</asrwt>
<pdfrwt beam="1">  1        2 0.12523504E+00 0.24195011E+04</pdfrwt>
<pdfrwt beam="2">  1       -2 0.27659165E+00 0.24195011E+04</pdfrwt>
<totfact> 0.12789708E+00</totfact>
</mgrwt>
<rwgt>
<wgt id='morphing_basis_vector_1'> +1.0442256e-04 </wgt>
<wgt id='morphing_basis_vector_2'> +7.0140261e-05 </wgt>
<wgt id='morphing_basis_vector_3'> +1.1278969e-04 </wgt>
<wgt id='morphing_basis_vector_4'> +7.9598004e-05 </wgt>
<wgt id='morphing_basis_vector_5'> +1.2702047e-04 </wgt>
</rwgt>
</event>
<event>
 4      1 +2.2016400e-08 2.33833700e+03 7.81860800e-03 7.94537600e-02
        2 -1    0    0  501    0 +0.0000000000e+00 +0.0000000000e+00 +1.5058442141e+03 1.5058442141e+03 0.0000000000e+00 0.0000e+00 -1.0000e+00
       -2 -1    0    0    0  501 -0.0000000000e+00 -0.0000000000e+00 -9.0776687455e+02 9.0776687455e+02 0.0000000000e+00 0.0000e+00 1.0000e+00
      -13  1    1    2    0    0 -3.4908292469e+01 +6.2827453099e+02 -7.1807974606e+02 9.5477012777e+02 0.0000000000e+00 0.0000e+00 1.0000e+00
       13  1    1    2    0    0 +3.4908292469e+01 -6.2827453099e+02 +1.3161570856e+03 1.4588409609e+03 0.0000000000e+00 0.0000e+00 -1.0000e+00
<mgrwt>
<rscale>  0 0.23383374E+04</rscale>
<asrwt>0</asrwt>
<pdfrwt beam="1">  1        2 0.23166834E+00 0.23383374E+04</pdfrwt>
<pdfrwt beam="2">  1       -2 0.13965644E+00 0.23383374E+04</pdfrwt>
<totfact> 0.50589030E+00</totfact>
</mgrwt>
<rwgt>
<wgt id='morphing_basis_vector_1'> +9.1254376e-05 </wgt>
<wgt id='morphing_basis_vector_2'> +6.1168299e-05 </wgt>
<wgt id='morphing_basis_vector_3'> +9.8377551e-05 </wgt>
<wgt id='morphing_basis_vector_4'> +6.9362934e-05 </wgt>
<wgt id='morphing_basis_vector_5'> +1.1060511e-04 </wgt>
</rwgt>
</event>
<event>
 4      1 +2.2016400e-08 2.26221100e+03 7.81860800e-03 7.97175500e-02
        2 -1    0    0  501    0 +0.0000000000e+00 +0.0000000000e+00 +1.0562287378e+03 1.0562287378e+03 0.0000000000e+00 0.0000e+00 -1.0000e+00
       -2 -1    0    0    0  501 -0.0000000000e+00 -0.0000000000e+00 -1.2112905806e+03 1.2112905806e+03 0.0000000000e+00 0.0000e+00 1.0000e+00
      -13  1    1    2    0    0 -6.2636925211e+02 +4.5011512929e+01 -1.0205015645e+03 1.1982436812e+03 0.0000000000e+00 0.0000e+00 1.0000e+00
       13  1    1    2    0    0 +6.2636925211e+02 -4.5011512929e+01 +8.6543972176e+02 1.0692756372e+03 0.0000000000e+00 0.0000e+00 -1.0000e+00
<mgrwt>
<rscale>  0 0.22622112E+04</rscale>
<asrwt>0</asrwt>
<pdfrwt beam="1">  1        2 0.16249673E+00 0.22622112E+04</pdfrwt>
<pdfrwt beam="2">  1       -2 0.18635240E+00 0.22622112E+04</pdfrwt>
<totfact> 0.39298671E+00</totfact>
</mgrwt>
<rwgt>
<wgt id='morphing_basis_vector_1'> +8.0105189e-05 </wgt>
<wgt id='morphing_basis_vector_2'> +5.3639650e-05 </wgt>
<wgt id='morphing_basis_vector_3'> +8.6198219e-05 </wgt>
<wgt id='morphing_basis_vector_4'> +6.0635980e-05 </wgt>
<wgt id='morphing_basis_vector_5'> +9.6695017e-05 </wgt>
</rwgt>
</event>
<event>
 4      1 +2.2016400e-08 2.32975900e+03 7.81860800e-03 7.94829700e-02
        2 -1    0    0  501    0 +0.0000000000e+00 +0.0000000000e+00 +2.0295363582e+03 2.0295363582e+03 0.0000000000e+00 0.0000e+00 -1.0000e+00
       -2 -1    0    0    0  501 -0.0000000000e+00 -0.0000000000e+00 -6.6859794862e+02 6.6859794862e+02 0.0000000000e+00 0.0000e+00 1.0000e+00
      -13  1    1    2    0    0 -3.4299881940e+02 +2.7705043675e+02 -5.6822570737e+02 7.1922568721e+02 0.0000000000e+00 0.0000e+00 1.0000e+00
       13  1    1    2    0    0 +3.4299881940e+02 -2.7705043675e+02 +1.9291641170e+03 1.9789086196e+03 0.0000000000e+00 0.0000e+00 -1.0000e+00
<mgrwt>
<rscale>  0 0.23297587E+04</rscale>
<asrwt>0</asrwt>
<pdfrwt beam="1">  1        2 0.31223636E+00 0.23297587E+04</pdfrwt>
<pdfrwt beam="2">  1       -2 0.10286122E+00 0.23297587E+04</pdfrwt>
<totfact> 0.57120730E+00</totfact>
</mgrwt>
<rwgt>
<wgt id='morphing_basis_vector_1'> +8.9921158e-05 </wgt>
<wgt id='morphing_basis_vector_2'> +6.0218651e-05 </wgt>
<wgt id='morphing_basis_vector_3'> +9.6911621e-05 </wgt>
<wgt id='morphing_basis_vector_4'> +6.8379210e-05 </wgt>
<wgt id='morphing_basis_vector_5'> +1.0897076e-04 </wgt>
</rwgt>
</event>
<event>
 4      1 +2.2016400e-08 2.37977100e+03 7.81860800e-03 7.93145000e-02
        2 -1    0    0  501    0 +0.0000000000e+00 +0.0000000000e+00 +1.4210983596e+03 1.4210983596e+03 0.0000000000e+00 0.0000e+00 -1.0000e+00
       -2 -1    0    0    0  501 -0.0000000000e+00 -0.0000000000e+00 -9.9629088590e+02 9.9629088590e+02 0.0000000000e+00 0.0000e+00 1.0000e+00
      -13  1    1    2    0    0 +8.9320028788e+02 -4.8556530381e+02 +8.4043815136e+02 1.3190590225e+03 0.0000000000e+00 0.0000e+00 1.0000e+00
       13  1    1    2    0    0 -8.9320028788e+02 +4.8556530381e+02 -4.1563067767e+02 1.0983302230e+03 0.0000000000e+00 0.0000e+00 -1.0000e+00
<mgrwt>
<rscale>  0 0.23797709E+04</rscale>
<asrwt>0</asrwt>
<pdfrwt beam="1">  1        2 0.21863052E+00 0.23797709E+04</pdfrwt>
<pdfrwt beam="2">  1       -2 0.15327552E+00 0.23797709E+04</pdfrwt>
<totfact> 0.43255190E+00</totfact>
</mgrwt>
<rwgt>
<wgt id='morphing_basis_vector_1'> +1.1672374e-04 </wgt>
<wgt id='morphing_basis_vector_2'> +1.2148011e-04 </wgt>
<wgt id='morphing_basis_vector_3'> +1.3416959e-04 </wgt>
<wgt id='morphing_basis_vector_4'> +3.5907101e-05 </wgt>
<wgt id='morphing_basis_vector_5'> +1.1566413e-04 </wgt>
</rwgt>
</event>
<event>
 4      1 +2.2016400e-08 2.24387800e+03 7.81860800e-03 7.97826800e-02
        2 -1    0    0  501    0 +0.0000000000e+00 +0.0000000000e+00 +8.5150270514e+02 8.5150270514e+02 0.0000000000e+00 0.0000e+00 1.0000e+00
       -2 -1    0    0    0  501 -0.0000000000e+00 -0.0000000000e+00 -1.4782650104e+03 1.4782650104e+03 0.0000000000e+00 0.0000e+00 -1.0000e+00
      -13  1    1    2    0    0 -3.1222911424e+02 +9.4955331252e+02 -8.4240179308e+02 1.3072028512e+03 0.0000000000e+00 0.0000e+00 -1.0000e+00
       13  1    1    2    0    0 +3.1222911424e+02 -9.4955331252e+02 +2.1563948784e+02 1.0225648644e+03 0.0000000000e+00 0.0000e+00 1.0000e+00
<mgrwt>
<rscale>  0 0.22438776E+04</rscale>
<asrwt>0</asrwt>
<pdfrwt beam="1">  1        2 0.13100042E+00 0.22438776E+04</pdfrwt>
<pdfrwt beam="2">  1       -2 0.22742539E+00 0.22438776E+04</pdfrwt>
<totfact> 0.26791788E+00</totfact>
</mgrwt>
<rwgt>
<wgt id='morphing_basis_vector_1'> +7.7991000e-05 </wgt>
<wgt id='morphing_basis_vector_2'> +5.3147152e-05 </wgt>
<wgt id='morphing_basis_vector_3'> +8.4055707e-05 </wgt>
<wgt id='morphing_basis_vector_4'> +5.7833451e-05 </wgt>
<wgt id='morphing_basis_vector_5'> +9.3483543e-05 </wgt>
</rwgt>
</event>
<event>
 4      1 +2.2016400e-08 2.66497000e+03 7.81860800e-03 7.84285800e-02
        2 -1    0    0  501    0 +0.0000000000e+00 +0.0000000000e+00 +8.0671829188e+02 8.0671829188e+02 0.0000000000e+00 0.0000e+00 -1.0000e+00
       -2 -1    0    0    0  501 -0.0000000000e+00 -0.0000000000e+00 -2.2009124162e+03 2.2009124162e+03 0.0000000000e+00 0.0000e+00 1.0000e+00
      -13  1    1    2    0    0 -6.7946683181e+02 -6.0671304694e+02 -1.7946314967e+03 2.0125799626e+03 0.0000000000e+00 0.0000e+00 1.0000e+00
       13  1    1    2    0    0 +6.7946683181e+02 +6.0671304694e+02 +4.0043737239e+02 9.9505074547e+02 0.0000000000e+00 0.0000e+00 -1.0000e+00
<mgrwt>
<rscale>  0 0.26649700E+04</rscale>
<asrwt>0</asrwt>
<pdfrwt beam="1">  1        2 0.12411051E+00 0.26649700E+04</pdfrwt>
<pdfrwt beam="2">  1       -2 0.33860191E+00 0.26649700E+04</pdfrwt>
<totfact> 0.48613337E-01</totfact>
</mgrwt>
<rwgt>
<wgt id='morphing_basis_vector_1'> +1.5301070e-04 </wgt>
<wgt id='morphing_basis_vector_2'> +1.0322074e-04 </wgt>
<wgt id='morphing_basis_vector_3'> +1.6604921e-04 </wgt>
<wgt id='morphing_basis_vector_4'> +1.1757158e-04 </wgt>
<wgt id='morphing_basis_vector_5'> +1.8784558e-04 </wgt>
</rwgt>
</event>
<event>
 4      1 +2.2016400e-08 2.40896300e+03 7.81860800e-03 7.92181100e-02
        2 -1    0    0  501    0 +0.0000000000e+00 +0.0000000000e+00 +2.0798995034e+03 2.0798995034e+03 0.0000000000e+00 0.0000e+00 1.0000e+00
       -2 -1    0    0    0  501 -0.0000000000e+00 -0.0000000000e+00 -6.9752205794e+02 6.9752205794e+02 0.0000000000e+00 0.0000e+00 -1.0000e+00
      -13  1    1    2    0    0 +4.0208409140e+02 -7.3516449739e+02 -3.0639050413e+02 8.9219594026e+02 0.0000000000e+00 0.0000e+00 -1.0000e+00
       13  1    1    2    0    0 -4.0208409140e+02 +7.3516449739e+02 +1.6887679496e+03 1.8852256210e+03 0.0000000000e+00 0.0000e+00 1.0000e+00
<mgrwt>
<rscale>  0 0.24089631E+04</rscale>
<asrwt>0</asrwt>
<pdfrwt beam="1">  1        2 0.31998454E+00 0.24089631E+04</pdfrwt>
<pdfrwt beam="2">  1       -2 0.10731109E+00 0.24089631E+04</pdfrwt>
<totfact> 0.47866681E+00</totfact>
</mgrwt>
<rwgt>
<wgt id='morphing_basis_vector_1'> +1.0269384e-04 </wgt>
<wgt id='morphing_basis_vector_2'> +6.9091562e-05 </wgt>
<wgt id='morphing_basis_vector_3'> +1.1092093e-04 </wgt>
<wgt id='morphing_basis_vector_4'> +7.8092583e-05 </wgt>
<wgt id='morphing_basis_vector_5'> +1.2478318e-04 </wgt>
</rwgt>
</event>
<event>
 4      1 +2.2016400e-08 2.25692100e+03 7.81860800e-03 7.97362800e-02
        2 -1    0    0  501    0 +0.0000000000e+00 +0.0000000000e+00 +1.8530349186e+03 1.8530349186e+03 0.0000000000e+00 0.0000e+00 1.0000e+00
       -2 -1    0    0    0  501 -0.0000000000e+00 -0.0000000000e+00 -6.8720954336e+02 6.8720954336e+02 0.0000000000e+00 0.0000e+00 -1.0000e+00
      -13  1    1    2    0    0 -6.5166768949e+02 -7.4299856151e+01 +1.6164655008e+03 1.7444632301e+03 0.0000000000e+00 0.0000e+00 1.0000e+00
       13  1    1    2    0    0 +6.5166768949e+02 +7.4299856151e+01 -4.5064012554e+02 7.9578123181e+02 0.0000000000e+00 0.0000e+00 -1.0000e+00
<mgrwt>
<rscale>  0 0.22569212E+04</rscale>
<asrwt>0</asrwt>
<pdfrwt beam="1">  1        2 0.28508229E+00 0.22569212E+04</pdfrwt>
<pdfrwt beam="2">  1       -2 0.10572455E+00 0.22569212E+04</pdfrwt>
<totfact> 0.67485993E+00</totfact>
</mgrwt>
<rwgt>
<wgt id='morphing_basis_vector_1'> +1.0614441e-04 </wgt>
<wgt id='morphing_basis_vector_2'> +1.3225667e-04 </wgt>
<wgt id='morphing_basis_vector_3'> +1.2549234e-04 </wgt>
<wgt id='morphing_basis_vector_4'> +5.8445734e-06 </wgt>
<wgt id='morphing_basis_vector_5'> +9.1432175e-05 </wgt>
</rwgt>
</event>
<event>
 4      1 +2.2016400e-08 2.27604100e+03 7.81860800e-03 7.96688400e-02
        2 -1    0    0  501    0 +0.0000000000e+00 +0.0000000000e+00 +1.0487883260e+03 1.0487883260e+03 0.0000000000e+00 0.0000e+00 1.0000e+00
       -2 -1    0    0    0  501 -0.0000000000e+00 -0.0000000000e+00 -1.2348446201e+03 1.2348446201e+03 0.0000000000e+00 0.0000e+00 -1.0000e+00
      -13  1    1    2    0    0 +5.4734903351e+02 +3.0845728987e+02 -1.0450629301e+03 1.2193823813e+03 0.0000000000e+00 0.0000e+00 -1.0000e+00
       13  1    1    2    0    0 -5.4734903351e+02 -3.0845728987e+02 +8.5900663594e+02 1.0642505648e+03 0.0000000000e+00 0.0000e+00 1.0000e+00
<mgrwt>
<rscale>  0 0.22760410E+04</rscale>
<asrwt>0</asrwt>
<pdfrwt beam="1">  1        2 0.16135205E+00 0.22760410E+04</pdfrwt>
<pdfrwt beam="2">  1       -2 0.18997610E+00 0.22760410E+04</pdfrwt>
<totfact> 0.37269040E+00</totfact>
</mgrwt>
<rwgt>
<wgt id='morphing_basis_vector_1'> +8.2049795e-05 </wgt>
<wgt id='morphing_basis_vector_2'> +5.4952440e-05 </wgt>
<wgt id='morphing_basis_vector_3'> +8.8321656e-05 </wgt>
<wgt id='morphing_basis_vector_4'> +6.2156811e-05 </wgt>
<wgt id='morphing_basis_vector_5'> +9.9119102e-05 </wgt>
</rwgt>
</event>
<event>
 4      1 +2.2016400e-08 2.25683000e+03 7.81860800e-03 7.97366000e-02
        2 -1    0    0  501    0 +0.0000000000e+00 +0.0000000000e+00 +1.4387590949e+03 1.4387590949e+03 0.0000000000e+00 0.0000e+00 -1.0000e+00
       -2 -1    0    0    0  501 -0.0000000000e+00 -0.0000000000e+00 -8.8501330954e+02 8.8501330954e+02 0.0000000000e+00 0.0000e+00 1.0000e+00
      -13  1    1    2    0    0 +6.0224996015e+02 -1.8752072765e+02 -6.8653633057e+02 9.3230958967e+02 0.0000000000e+00 0.0000e+00 1.0000e+00
       13  1    1    2    0    0 -6.0224996015e+02 +1.8752072765e+02 +1.2402821159e+03 1.3914628148e+03 0.0000000000e+00 0.0000e+00 -1.0000e+00
<mgrwt>
<rscale>  0 0.22568305E+04</rscale>
<asrwt>0</asrwt>
<pdfrwt beam="1">  1        2 0.22134755E+00 0.22568305E+04</pdfrwt>
<pdfrwt beam="2">  1       -2 0.13615589E+00 0.22568305E+04</pdfrwt>
<totfact> 0.59576496E+00</totfact>
</mgrwt>
<rwgt>
<wgt id='morphing_basis_vector_1'> +7.9358687e-05 </wgt>
<wgt id='morphing_basis_vector_2'> +5.3137142e-05 </wgt>
<wgt id='morphing_basis_vector_3'> +8.5383420e-05 </wgt>
<wgt id='morphing_basis_vector_4'> +6.0050579e-05 </wgt>
<wgt id='morphing_basis_vector_5'> +9.5763830e-05 </wgt>
</rwgt>
</event>
<event>
 4      1 +2.2016400e-08 2.45915200e+03 7.81860800e-03 7.90556400e-02
        2 -1    0    0  501    0 +0.0000000000e+00 +0.0000000000e+00 +2.9711669134e+03 2.9711669134e+03 0.0000000000e+00 0.0000e+00 -1.0000e+00
       -2 -1    0    0    0  501 -0.0000000000e+00 -0.0000000000e+00 -5.0884289530e+02 5.0884289530e+02 0.0000000000e+00 0.0000e+00 1.0000e+00
      -13  1    1    2    0    0 -8.9013085961e+02 -1.4481233594e+02 +4.8406548130e+01 9.0313163702e+02 0.0000000000e+00 0.0000e+00 1.0000e+00
       13  1    1    2    0    0 +8.9013085961e+02 +1.4481233594e+02 +2.4139174700e+03 2.5768781717e+03 0.0000000000e+00 0.0000e+00 -1.0000e+00
<mgrwt>
<rscale>  0 0.24591520E+04</rscale>
<asrwt>0</asrwt>
<pdfrwt beam="1">  1        2 0.45710259E+00 0.24591520E+04</pdfrwt>
<pdfrwt beam="2">  1       -2 0.78283524E-01 0.24591520E+04</pdfrwt>
<totfact> 0.29160481E+00</totfact>
</mgrwt>
<rwgt>
<wgt id='morphing_basis_vector_1'> +1.1143970e-04 </wgt>
<wgt id='morphing_basis_vector_2'> +7.5122692e-05 </wgt>
<wgt id='morphing_basis_vector_3'> +1.2051241e-04 </wgt>
<wgt id='morphing_basis_vector_4'> +8.4811403e-05 </wgt>
<wgt id='morphing_basis_vector_5'> +1.3565590e-04 </wgt>
</rwgt>
</event>
<event>
 4      1 +2.2016400e-08 2.27392300e+03 7.81860800e-03 7.96762800e-02
        2 -1    0    0  501    0 +0.0000000000e+00 +0.0000000000e+00 +7.7300925831e+02 7.7300925831e+02 0.0000000000e+00 0.0000e+00 1.0000e+00
       -2 -1    0    0    0  501 -0.0000000000e+00 -0.0000000000e+00 -1.6722709502e+03 1.6722709502e+03 0.0000000000e+00 0.0000e+00 -1.0000e+00
      -13  1    1    2    0    0 -2.6403738476e+02 +2.8634103833e+02 -1.5982891059e+03 1.6450638276e+03 0.0000000000e+00 0.0000e+00 -1.0000e+00
       13  1    1    2    0    0 +2.6403738476e+02 -2.8634103833e+02 +6.9902741401e+02 8.0021638094e+02 0.0000000000e+00 0.0000e+00 1.0000e+00
<mgrwt>
<rscale>  0 0.22739225E+04</rscale>
<asrwt>0</asrwt>
<pdfrwt beam="1">  1        2 0.11892450E+00 0.22739225E+04</pdfrwt>
<pdfrwt beam="2">  1       -2 0.25727245E+00 0.22739225E+04</pdfrwt>
<totfact> 0.18771789E+00</totfact>
</mgrwt>
<rwgt>
<wgt id='morphing_basis_vector_1'> +8.1725488e-05 </wgt>
<wgt id='morphing_basis_vector_2'> +5.4678448e-05 </wgt>
<wgt id='morphing_basis_vector_3'> +8.7957650e-05 </wgt>
<wgt id='morphing_basis_vector_4'> +6.1970974e-05 </wgt>
<wgt id='morphing_basis_vector_5'> +9.8748801e-05 </wgt>
</rwgt>
</event>
<event>
 4      1 +2.2016400e-08 2.36785500e+03 7.81860800e-03 7.93542500e-02
        2 -1    0    0  501    0 +0.0000000000e+00 +0.0000000000e+00 +1.5498009431e+03 1.5498009431e+03 0.0000000000e+00 0.0000e+00 -1.0000e+00
       -2 -1    0    0    0  501 -0.0000000000e+00 -0.0000000000e+00 -9.0442877565e+02 9.0442877565e+02 0.0000000000e+00 0.0000e+00 1.0000e+00
      -13  1    1    2    0    0 +3.2278894821e+02 +7.7280757727e+02 -5.4465481496e+02 9.9903609746e+02 0.0000000000e+00 0.0000e+00 1.0000e+00
       13  1    1    2    0    0 -3.2278894821e+02 -7.7280757727e+02 +1.1900269824e+03 1.4551936213e+03 0.0000000000e+00 0.0000e+00 -1.0000e+00
<mgrwt>
<rscale>  0 0.23678552E+04</rscale>
<asrwt>0</asrwt>
<pdfrwt beam="1">  1        2 0.23843092E+00 0.23678552E+04</pdfrwt>
<pdfrwt beam="2">  1       -2 0.13914289E+00 0.23678552E+04</pdfrwt>
<totfact> 0.48170886E+00</totfact>
</mgrwt>
<rwgt>
<wgt id='morphing_basis_vector_1'> +9.5965832e-05 </wgt>
<wgt id='morphing_basis_vector_2'> +6.4551254e-05 </wgt>
<wgt id='morphing_basis_vector_3'> +1.0356437e-04 </wgt>
<wgt id='morphing_basis_vector_4'> +7.2807802e-05 </wgt>
<wgt id='morphing_basis_vector_5'> +1.1636697e-04 </wgt>
</rwgt>
</event>
<event>
 4      1 +2.2016400e-08 2.27144500e+03 7.81860800e-03 7.96849900e-02
        2 -1    0    0  501    0 +0.0000000000e+00 +0.0000000000e+00 +1.4442445644e+03 1.4442445644e+03 0.0000000000e+00 0.0000e+00 -1.0000e+00
       -2 -1    0    0    0  501 -0.0000000000e+00 -0.0000000000e+00 -8.9310722977e+02 8.9310722977e+02 0.0000000000e+00 0.0000e+00 1.0000e+00
      -13  1    1    2    0    0 -7.8459623796e+02 +8.2109764407e+02 +2.6679699408e+02 1.1666075749e+03 0.0000000000e+00 0.0000e+00 1.0000e+00
       13  1    1    2    0    0 +7.8459623796e+02 -8.2109764407e+02 +2.8434034052e+02 1.1707442193e+03 0.0000000000e+00 0.0000e+00 -1.0000e+00
<mgrwt>
<rscale>  0 0.22714447E+04</rscale>
<asrwt>0</asrwt>
<pdfrwt beam="1">  1        2 0.22219147E+00 0.22714447E+04</pdfrwt>
<pdfrwt beam="2">  1       -2 0.13740111E+00 0.22714447E+04</pdfrwt>
<totfact> 0.57620130E+00</totfact>
</mgrwt>
<rwgt>
<wgt id='morphing_basis_vector_1'> +8.4273308e-05 </wgt>
<wgt id='morphing_basis_vector_2'> +6.3004076e-05 </wgt>
<wgt id='morphing_basis_vector_3'> +9.1920901e-05 </wgt>
<wgt id='morphing_basis_vector_4'> +5.5824223e-05 </wgt>
<wgt id='morphing_basis_vector_5'> +9.7841150e-05 </wgt>
</rwgt>
</event>
<event>
 4      1 +2.2016400e-08 2.30238200e+03 7.81860800e-03 7.95770500e-02
        2 -1    0    0  501    0 +0.0000000000e+00 +0.0000000000e+00 +2.3858785884e+03 2.3858785884e+03 0.0000000000e+00 0.0000e+00 1.0000e+00
       -2 -1    0    0    0  501 -0.0000000000e+00 -0.0000000000e+00 -5.5545188675e+02 5.5545188675e+02 0.0000000000e+00 0.0000e+00 -1.0000e+00
      -13  1    1    2    0    0 +1.0652419066e+03 -7.1577519661e+01 +3.6517309030e+02 1.1283683116e+03 0.0000000000e+00 0.0000e+00 1.0000e+00
       13  1    1    2    0    0 -1.0652419066e+03 +7.1577519661e+01 +1.4652536113e+03 1.8129621635e+03 0.0000000000e+00 0.0000e+00 -1.0000e+00
<mgrwt>
<rscale>  0 0.23023820E+04</rscale>
<asrwt>0</asrwt>
<pdfrwt beam="1">  1        2 0.36705824E+00 0.23023820E+04</pdfrwt>
<pdfrwt beam="2">  1       -2 0.85454138E-01 0.23023820E+04</pdfrwt>
<totfact> 0.55418496E+00</totfact>
</mgrwt>
<rwgt>
<wgt id='morphing_basis_vector_1'> +8.6532884e-05 </wgt>
<wgt id='morphing_basis_vector_2'> +5.9531278e-05 </wgt>
<wgt id='morphing_basis_vector_3'> +9.3498416e-05 </wgt>
<wgt id='morphing_basis_vector_4'> +6.3749501e-05 </wgt>
<wgt id='morphing_basis_vector_5'> +1.0375018e-04 </wgt>
</rwgt>
</event>
<event>
 4      1 +2.2016400e-08 2.42116900e+03 7.81860800e-03 7.91782300e-02
        2 -1    0    0  501    0 +0.0000000000e+00 +0.0000000000e+00 +2.9663934574e+03 2.9663934574e+03 0.0000000000e+00 0.0000e+00 -1.0000e+00
       -2 -1    0    0    0  501 -0.0000000000e+00 -0.0000000000e+00 -4.9403910985e+02 4.9403910985e+02 0.0000000000e+00 0.0000e+00 1.0000e+00
      -13  1    1    2    0    0 -2.0655412039e+02 +9.5471684402e+02 +2.1412968435e+02 1.0000001893e+03 0.0000000000e+00 0.0000e+00 1.0000e+00
       13  1    1    2    0    0 +2.0655412039e+02 -9.5471684402e+02 +2.2582246632e+03 2.4604323780e+03 0.0000000000e+00 0.0000e+00 -1.0000e+00
<mgrwt>
<rscale>  0 0.24211686E+04</rscale>
<asrwt>0</asrwt>
<pdfrwt beam="1">  1        2 0.45636821E+00 0.24211686E+04</pdfrwt>
<pdfrwt beam="2">  1       -2 0.76006019E-01 0.24211686E+04</pdfrwt>
<totfact> 0.31478778E+00</totfact>
</mgrwt>
<rwgt>
<wgt id='morphing_basis_vector_1'> +1.0492726e-04 </wgt>
<wgt id='morphing_basis_vector_2'> +7.0983709e-05 </wgt>
<wgt id='morphing_basis_vector_3'> +1.1343536e-04 </wgt>
<wgt id='morphing_basis_vector_4'> +7.9370256e-05 </wgt>
<wgt id='morphing_basis_vector_5'> +1.2733944e-04 </wgt>
</rwgt>
</event>
<event>
 4      1 +2.2016400e-08 2.54686900e+03 7.81860800e-03 7.87810000e-02
        2 -1    0    0  501    0 +0.0000000000e+00 +0.0000000000e+00 +2.7027386596e+03 2.7027386596e+03 0.0000000000e+00 0.0000e+00 -1.0000e+00
       -2 -1    0    0    0  501 -0.0000000000e+00 -0.0000000000e+00 -5.9999693120e+02 5.9999693120e+02 0.0000000000e+00 0.0000e+00 1.0000e+00
      -13  1    1    2    0    0 -8.2266860567e+02 +9.5812673230e+02 +1.2638392785e+03 1.7866393570e+03 0.0000000000e+00 0.0000e+00 1.0000e+00
       13  1    1    2    0    0 +8.2266860567e+02 -9.5812673230e+02 +8.3890244992e+02 1.5160962339e+03 0.0000000000e+00 0.0000e+00 -1.0000e+00
<mgrwt>
<rscale>  0 0.25468686E+04</rscale>
<asrwt>0</asrwt>
<pdfrwt beam="1">  1        2 0.41580594E+00 0.25468686E+04</pdfrwt>
<pdfrwt beam="2">  1       -2 0.92307221E-01 0.25468686E+04</pdfrwt>
<totfact> 0.29235900E+00</totfact>
</mgrwt>
<rwgt>
<wgt id='morphing_basis_vector_1'> +1.3515843e-04 </wgt>
<wgt id='morphing_basis_vector_2'> +1.0754776e-04 </wgt>
<wgt id='morphing_basis_vector_3'> +1.4962354e-04 </wgt>
<wgt id='morphing_basis_vector_4'> +8.3001894e-05 </wgt>
<wgt id='morphing_basis_vector_5'> +1.5515443e-04 </wgt>
</rwgt>
</event>
<event>
 4      1 +2.2016400e-08 2.62782000e+03 7.81860800e-03 7.85373900e-02
        2 -1    0    0  501    0 +0.0000000000e+00 +0.0000000000e+00 +1.5248009868e+03 1.5248009868e+03 0.0000000000e+00 0.0000e+00 -1.0000e+00
       -2 -1    0    0    0  501 -0.0000000000e+00 -0.0000000000e+00 -1.1321868213e+03 1.1321868213e+03 0.0000000000e+00 0.0000e+00 1.0000e+00
      -13  1    1    2    0    0 -5.9656865304e+02 +8.3067781949e+02 -6.3773657709e+02 1.2052500734e+03 0.0000000000e+00 0.0000e+00 1.0000e+00
       13  1    1    2    0    0 +5.9656865304e+02 -8.3067781949e+02 +1.0303507426e+03 1.4517377347e+03 0.0000000000e+00 0.0000e+00 -1.0000e+00
<mgrwt>
<rscale>  0 0.26278201E+04</rscale>
<asrwt>0</asrwt>
<pdfrwt beam="1">  1        2 0.23458477E+00 0.26278201E+04</pdfrwt>
<pdfrwt beam="2">  1       -2 0.17418259E+00 0.26278201E+04</pdfrwt>
<totfact> 0.25279858E+00</totfact>
</mgrwt>
<rwgt>
<wgt id='morphing_basis_vector_1'> +1.4491287e-04 </wgt>
<wgt id='morphing_basis_vector_2'> +9.8090621e-05 </wgt>
<wgt id='morphing_basis_vector_3'> +1.5723997e-04 </wgt>
<wgt id='morphing_basis_vector_4'> +1.1074704e-04 </wgt>
<wgt id='morphing_basis_vector_5'> +1.7744716e-04 </wgt>
</rwgt>
</event>
<event>
 4      1 +2.2016400e-08 2.53979800e+03 7.81860800e-03 7.88027100e-02
        2 -1    0    0  501    0 +0.0000000000e+00 +0.0000000000e+00 +1.5992345409e+03 1.5992345409e+03 0.0000000000e+00 0.0000e+00 -1.0000e+00
       -2 -1    0    0    0  501 -0.0000000000e+00 -0.0000000000e+00 -1.0083848280e+03 1.0083848280e+03 0.0000000000e+00 0.0000e+00 1.0000e+00
      -13  1    1    2    0    0 -1.1064226540e+02 -1.0383893649e+03 -4.4647019069e+02 1.1357067470e+03 0.0000000000e+00 0.0000e+00 1.0000e+00
       13  1    1    2    0    0 +1.1064226540e+02 +1.0383893649e+03 +1.0373199036e+03 1.4719126219e+03 0.0000000000e+00 0.0000e+00 -1.0000e+00
<mgrwt>
<rscale>  0 0.25397983E+04</rscale>
<asrwt>0</asrwt>
<pdfrwt beam="1">  1        2 0.24603608E+00 0.25397983E+04</pdfrwt>
<pdfrwt beam="2">  1       -2 0.15513613E+00 0.25397983E+04</pdfrwt>
<totfact> 0.32744335E+00</totfact>
</mgrwt>
<rwgt>
<wgt id='morphing_basis_vector_1'> +1.2677871e-04 </wgt>
<wgt id='morphing_basis_vector_2'> +8.5999414e-05 </wgt>
<wgt id='morphing_basis_vector_3'> +1.3740305e-04 </wgt>
<wgt id='morphing_basis_vector_4'> +9.6243297e-05 </wgt>
<wgt id='morphing_basis_vector_5'> +1.5456793e-04 </wgt>
</rwgt>
</event>
<event>
 4      1 +2.2016400e-08 2.58428600e+03 7.81860800e-03 7.86672700e-02
        2 -1    0    0  501    0 +0.0000000000e+00 +0.0000000000e+00 +7.8777550927e+02 7.8777550927e+02 0.0000000000e+00 0.0000e+00 1.0000e+00
       -2 -1    0    0    0  501 -0.0000000000e+00 -0.0000000000e+00 -2.1194279014e+03 2.1194279014e+03 0.0000000000e+00 0.0000e+00 -1.0000e+00
      -13  1    1    2    0    0 -9.5483902474e+02 +1.9146829952e+02 +2.8956117943e+02 1.0159839317e+03 0.0000000000e+00 0.0000e+00 1.0000e+00
       13  1    1    2    0    0 +9.5483902474e+02 -1.9146829952e+02 -1.6212135715e+03 1.8912194789e+03 0.0000000000e+00 0.0000e+00 -1.0000e+00
<mgrwt>
<rscale>  0 0.25842859E+04</rscale>
<asrwt>0</asrwt>
<pdfrwt beam="1">  1        2 0.12119623E+00 0.25842859E+04</pdfrwt>
<pdfrwt beam="2">  1       -2 0.32606583E+00 0.25842859E+04</pdfrwt>
<totfact> 0.61080383E-01</totfact>
</mgrwt>
<rwgt>
<wgt id='morphing_basis_vector_1'> +1.7146683e-04 </wgt>
<wgt id='morphing_basis_vector_2'> +1.9741191e-04 </wgt>
<wgt id='morphing_basis_vector_3'> +2.0203342e-04 </wgt>
<wgt id='morphing_basis_vector_4'> +2.9877927e-05 </wgt>
<wgt id='morphing_basis_vector_5'> +1.5986190e-04 </wgt>
</rwgt>
</event>
<event>
 4      1 +2.2016400e-08 2.33739200e+03 7.81860800e-03 7.94569800e-02
        2 -1    0    0  501    0 +0.0000000000e+00 +0.0000000000e+00 +8.5548917022e+02 8.5548917022e+02 0.0000000000e+00 0.0000e+00 -1.0000e+00
       -2 -1    0    0    0  501 -0.0000000000e+00 -0.0000000000e+00 -1.5965723818e+03 1.5965723818e+03 0.0000000000e+00 0.0000e+00 1.0000e+00
      -13  1    1    2    0    0 -8.0508669216e+02 +8.4462618825e+02 -3.0181102456e+02 1.2052584264e+03 0.0000000000e+00 0.0000e+00 1.0000e+00
       13  1    1    2    0    0 +8.0508669216e+02 -8.4462618825e+02 -4.3927218699e+02 1.2468031256e+03 0.0000000000e+00 0.0000e+00 -1.0000e+00
<mgrwt>
<rscale>  0 0.23373920E+04</rscale>
<asrwt>0</asrwt>
<pdfrwt beam="1">  1        2 0.13161372E+00 0.23373920E+04</pdfrwt>
<pdfrwt beam="2">  1       -2 0.24562652E+00 0.23373920E+04</pdfrwt>
<totfact> 0.19711083E+00</totfact>
</mgrwt>
<rwgt>
<wgt id='morphing_basis_vector_1'> +9.5158163e-05 </wgt>
<wgt id='morphing_basis_vector_2'> +7.3028498e-05 </wgt>
<wgt id='morphing_basis_vector_3'> +1.0432488e-04 </wgt>
<wgt id='morphing_basis_vector_4'> +6.1014127e-05 </wgt>
<wgt id='morphing_basis_vector_5'> +1.0976081e-04 </wgt>
</rwgt>
</event>
<event>
 4      1 +2.2016400e-08 2.43090200e+03 7.81860800e-03 7.91466000e-02
        2 -1    0    0  501    0 +0.0000000000e+00 +0.0000000000e+00 +1.3693375812e+03 1.3693375812e+03 0.0000000000e+00 0.0000e+00 1.0000e+00
       -2 -1    0    0    0  501 -0.0000000000e+00 -0.0000000000e+00 -1.0788583481e+03 1.0788583481e+03 0.0000000000e+00 0.0000e+00 -1.0000e+00
      -13  1    1    2    0    0 -7.9894800813e+02 -4.1731729388e+02 -6.7594426621e+02 1.1266642333e+03 0.0000000000e+00 0.0000e+00 -1.0000e+00
       13  1    1    2    0    0 +7.9894800813e+02 +4.1731729388e+02 +9.6642349936e+02 1.3215316960e+03 0.0000000000e+00 0.0000e+00 1.0000e+00
<mgrwt>
<rscale>  0 0.24309021E+04</rscale>
<asrwt>0</asrwt>
<pdfrwt beam="1">  1        2 0.21066732E+00 0.24309021E+04</pdfrwt>
<pdfrwt beam="2">  1       -2 0.16597821E+00 0.24309021E+04</pdfrwt>
<totfact> 0.36429139E+00</totfact>
</mgrwt>
<rwgt>
<wgt id='morphing_basis_vector_1'> +1.0648398e-04 </wgt>
<wgt id='morphing_basis_vector_2'> +7.1779571e-05 </wgt>
<wgt id='morphing_basis_vector_3'> +1.1509078e-04 </wgt>
<wgt id='morphing_basis_vector_4'> +8.0910732e-05 </wgt>
<wgt id='morphing_basis_vector_5'> +1.2944711e-04 </wgt>
</rwgt>
</event>
<event>
 4      1 +2.2016400e-08 2.43320900e+03 7.81860800e-03 7.91391200e-02
        2 -1    0    0  501    0 +0.0000000000e+00 +0.0000000000e+00 +2.1714604273e+03 2.1714604273e+03 0.0000000000e+00 0.0000e+00 1.0000e+00
       -2 -1    0    0    0  501 -0.0000000000e+00 -0.0000000000e+00 -6.8162702170e+02 6.8162702170e+02 0.0000000000e+00 0.0000e+00 -1.0000e+00
      -13  1    1    2    0    0 -1.0765749845e+03 -4.1411594191e+02 +2.9136048554e+02 1.1897044352e+03 0.0000000000e+00 0.0000e+00 1.0000e+00
       13  1    1    2    0    0 +1.0765749845e+03 +4.1411594191e+02 +1.1984729200e+03 1.6633830138e+03 0.0000000000e+00 0.0000e+00 -1.0000e+00
<mgrwt>
<rscale>  0 0.24332087E+04</rscale>
<asrwt>0</asrwt>
<pdfrwt beam="1">  1        2 0.33407083E+00 0.24332087E+04</pdfrwt>
<pdfrwt beam="2">  1       -2 0.10486570E+00 0.24332087E+04</pdfrwt>
<totfact> 0.44854711E+00</totfact>
</mgrwt>
<rwgt>
<wgt id='morphing_basis_vector_1'> +1.0784499e-04 </wgt>
<wgt id='morphing_basis_vector_2'> +7.4890021e-05 </wgt>
<wgt id='morphing_basis_vector_3'> +1.1698901e-04 </wgt>
<wgt id='morphing_basis_vector_4'> +7.9257009e-05 </wgt>
<wgt id='morphing_basis_vector_5'> +1.2978693e-04 </wgt>
</rwgt>
</event>
<event>
 4      1 +2.2016400e-08 2.36553300e+03 7.81860800e-03 7.93620200e-02
        2 -1    0    0  501    0 +0.0000000000e+00 +0.0000000000e+00 +1.3054707422e+03 1.3054707422e+03 0.0000000000e+00 0.0000e+00 -1.0000e+00
       -2 -1    0    0    0  501 -0.0000000000e+00 -0.0000000000e+00 -1.0715951395e+03 1.0715951395e+03 0.0000000000e+00 0.0000e+00 1.0000e+00
      -13  1    1    2    0    0 +1.4376773590e+02 -9.9521525571e+02 +7.4272080725e+02 1.2501027016e+03 0.0000000000e+00 0.0000e+00 1.0000e+00
       13  1    1    2    0    0 -1.4376773590e+02 +9.9521525571e+02 -5.0884520454e+02 1.1269631801e+03 0.0000000000e+00 0.0000e+00 -1.0000e+00
<mgrwt>
<rscale>  0 0.23655326E+04</rscale>
<asrwt>0</asrwt>
<pdfrwt beam="1">  1        2 0.20084165E+00 0.23655326E+04</pdfrwt>
<pdfrwt beam="2">  1       -2 0.16486079E+00 0.23655326E+04</pdfrwt>
<totfact> 0.40649304E+00</totfact>
</mgrwt>
<rwgt>
<wgt id='morphing_basis_vector_1'> +1.1432960e-04 </wgt>
<wgt id='morphing_basis_vector_2'> +1.1962010e-04 </wgt>
<wgt id='morphing_basis_vector_3'> +1.3147484e-04 </wgt>
<wgt id='morphing_basis_vector_4'> +3.4362505e-05 </wgt>
<wgt id='morphing_basis_vector_5'> +1.1282914e-04 </wgt>
</rwgt>
</event>
<event>
 4      1 +2.2016400e-08 2.40531000e+03 7.81860800e-03 7.92301000e-02
        2 -1    0    0  501    0 +0.0000000000e+00 +0.0000000000e+00 +9.4847741606e+02 9.4847741606e+02 0.0000000000e+00 0.0000e+00 -1.0000e+00
       -2 -1    0    0    0  501 -0.0000000000e+00 -0.0000000000e+00 -1.5249485767e+03 1.5249485767e+03 0.0000000000e+00 0.0000e+00 1.0000e+00
      -13  1    1    2    0    0 -3.4285923006e+02 +1.0872772134e+03 -6.8203620999e+02 1.3284944795e+03 0.0000000000e+00 0.0000e+00 1.0000e+00
       13  1    1    2    0    0 +3.4285923006e+02 -1.0872772134e+03 +1.0556504934e+02 1.1449315132e+03 0.0000000000e+00 0.0000e+00 -1.0000e+00
<mgrwt>
<rscale>  0 0.24053102E+04</rscale>
<asrwt>0</asrwt>
<pdfrwt beam="1">  1        2 0.14591960E+00 0.24053102E+04</pdfrwt>
<pdfrwt beam="2">  1       -2 0.23460747E+00 0.24053102E+04</pdfrwt>
<totfact> 0.20332889E+00</totfact>
</mgrwt>
<rwgt>
<wgt id='morphing_basis_vector_1'> +1.0304695e-04 </wgt>
<wgt id='morphing_basis_vector_2'> +7.1527391e-05 </wgt>
<wgt id='morphing_basis_vector_3'> +1.1171473e-04 </wgt>
<wgt id='morphing_basis_vector_4'> +7.5642667e-05 </wgt>
<wgt id='morphing_basis_vector_5'> +1.2385848e-04 </wgt>
</rwgt>
</event>
<event>
 4      1 +2.2016400e-08 2.36983300e+03 7.81860800e-03 7.93476300e-02
        2 -1    0    0  501    0 +0.0000000000e+00 +0.0000000000e+00 +1.7651299535e+03 1.7651299535e+03 0.0000000000e+00 0.0000e+00 -1.0000e+00
       -2 -1    0    0    0  501 -0.0000000000e+00 -0.0000000000e+00 -7.9542423564e+02 7.9542423564e+02 0.0000000000e+00 0.0000e+00 1.0000e+00
      -13  1    1    2    0    0 +7.6820812070e+02 -9.0084364038e+02 +5.3738860727e+02 1.3001728717e+03 0.0000000000e+00 0.0000e+00 1.0000e+00
       13  1    1    2    0    0 -7.6820812070e+02 +9.0084364038e+02 +4.3231711054e+02 1.2603813174e+03 0.0000000000e+00 0.0000e+00 -1.0000e+00
<mgrwt>
<rscale>  0 0.23698330E+04</rscale>
<asrwt>0</asrwt>
<pdfrwt beam="1">  1        2 0.27155845E+00 0.23698330E+04</pdfrwt>
<pdfrwt beam="2">  1       -2 0.12237296E+00 0.23698330E+04</pdfrwt>
<totfact> 0.51584180E+00</totfact>
</mgrwt>
<rwgt>
<wgt id='morphing_basis_vector_1'> +1.0024859e-04 </wgt>
<wgt id='morphing_basis_vector_2'> +7.6477877e-05 </wgt>
<wgt id='morphing_basis_vector_3'> +1.0990742e-04 </wgt>
<wgt id='morphing_basis_vector_4'> +6.4974718e-05 </wgt>
<wgt id='morphing_basis_vector_5'> +1.1611044e-04 </wgt>
</rwgt>
</event>
<event>
 4      1 +2.2016400e-08 2.24493400e+03 7.81860800e-03 7.97789100e-02
        2 -1    0    0  501    0 +0.0000000000e+00 +0.0000000000e+00 +1.4348640550e+03 1.4348640550e+03 0.0000000000e+00 0.0000e+00 -1.0000e+00
       -2 -1    0    0    0  501 -0.0000000000e+00 -0.0000000000e+00 -8.7808477109e+02 8.7808477109e+02 0.0000000000e+00 0.0000e+00 1.0000e+00
      -13  1    1    2    0    0 +2.8464915966e+02 -8.3378218273e+02 -4.3817757843e+02 9.8398041778e+02 0.0000000000e+00 0.0000e+00 1.0000e+00
       13  1    1    2    0    0 -2.8464915966e+02 +8.3378218273e+02 +9.9495686231e+02 1.3289684083e+03 0.0000000000e+00 0.0000e+00 -1.0000e+00
<mgrwt>
<rscale>  0 0.22449341E+04</rscale>
<asrwt>0</asrwt>
<pdfrwt beam="1">  1        2 0.22074832E+00 0.22449341E+04</pdfrwt>
<pdfrwt beam="2">  1       -2 0.13508996E+00 0.22449341E+04</pdfrwt>
<totfact> 0.61251192E+00</totfact>
</mgrwt>
<rwgt>
<wgt id='morphing_basis_vector_1'> +7.7870533e-05 </wgt>
<wgt id='morphing_basis_vector_2'> +5.2463259e-05 </wgt>
<wgt id='morphing_basis_vector_3'> +8.3817411e-05 </wgt>
<wgt id='morphing_basis_vector_4'> +5.8480569e-05 </wgt>
<wgt id='morphing_basis_vector_5'> +9.3705525e-05 </wgt>
</rwgt>
</event>
<event>
 4      1 +2.2016400e-08 2.23355500e+03 7.81860800e-03 7.98196400e-02
        2 -1    0    0  501    0 +0.0000000000e+00 +0.0000000000e+00 +9.6290949142e+02 9.6290949142e+02 0.0000000000e+00 0.0000e+00 -1.0000e+00
       -2 -1    0    0    0  501 -0.0000000000e+00 -0.0000000000e+00 -1.2952323917e+03 1.2952323917e+03 0.0000000000e+00 0.0000e+00 1.0000e+00
      -13  1    1    2    0    0 +7.7175139646e+02 -6.8312470693e+02 -6.0093254036e+02 1.1930546933e+03 0.0000000000e+00 0.0000e+00 1.0000e+00
       13  1    1    2    0    0 -7.7175139646e+02 +6.8312470693e+02 +2.6860964009e+02 1.0650871898e+03 0.0000000000e+00 0.0000e+00 -1.0000e+00
<mgrwt>
<rscale>  0 0.22335546E+04</rscale>
<asrwt>0</asrwt>
<pdfrwt beam="1">  1        2 0.14813992E+00 0.22335546E+04</pdfrwt>
<pdfrwt beam="2">  1       -2 0.19926652E+00 0.22335546E+04</pdfrwt>
<totfact> 0.36115206E+00</totfact>
</mgrwt>
<rwgt>
<wgt id='morphing_basis_vector_1'> +7.6756195e-05 </wgt>
<wgt id='morphing_basis_vector_2'> +5.2678094e-05 </wgt>
<wgt id='morphing_basis_vector_3'> +8.2771639e-05 </wgt>
<wgt id='morphing_basis_vector_4'> +5.6421231e-05 </wgt>
<wgt id='morphing_basis_vector_5'> +9.1720858e-05 </wgt>
</rwgt>
</event>
<event>
 4      1 +2.2016400e-08 2.29128200e+03 7.81860800e-03 7.96155800e-02
        2 -1    0    0  501    0 +0.0000000000e+00 +0.0000000000e+00 +7.4245469622e+02 7.4245469622e+02 0.0000000000e+00 0.0000e+00 -1.0000e+00
       -2 -1    0    0    0  501 -0.0000000000e+00 -0.0000000000e+00 -1.7677750200e+03 1.7677750200e+03 0.0000000000e+00 0.0000e+00 1.0000e+00
      -13  1    1    2    0    0 -4.1430002197e+02 -8.0414324238e+02 -1.2828313110e+03 1.5696964786e+03 0.0000000000e+00 0.0000e+00 1.0000e+00
       13  1    1    2    0    0 +4.1430002197e+02 +8.0414324238e+02 +2.5751098724e+02 9.4053323759e+02 0.0000000000e+00 0.0000e+00 -1.0000e+00
<mgrwt>
<rscale>  0 0.22912816E+04</rscale>
<asrwt>0</asrwt>
<pdfrwt beam="1">  1        2 0.11422380E+00 0.22912816E+04</pdfrwt>
<pdfrwt beam="2">  1       -2 0.27196539E+00 0.22912816E+04</pdfrwt>
<totfact> 0.15631040E+00</totfact>
</mgrwt>
<rwgt>
<wgt id='morphing_basis_vector_1'> +8.4401589e-05 </wgt>
<wgt id='morphing_basis_vector_2'> +5.6922696e-05 </wgt>
<wgt id='morphing_basis_vector_3'> +9.0958997e-05 </wgt>
<wgt id='morphing_basis_vector_4'> +6.3525137e-05 </wgt>
<wgt id='morphing_basis_vector_5'> +1.0181536e-04 </wgt>
</rwgt>
</event>
<event>
 4      1 +2.2016400e-08 2.27002700e+03 7.81860800e-03 7.96899800e-02
        2 -1    0    0  501    0 +0.0000000000e+00 +0.0000000000e+00 +7.4407025051e+02 7.4407025051e+02 0.0000000000e+00 0.0000e+00 1.0000e+00
       -2 -1    0    0    0  501 -0.0000000000e+00 -0.0000000000e+00 -1.7313632796e+03 1.7313632796e+03 0.0000000000e+00 0.0000e+00 -1.0000e+00
      -13  1    1    2    0    0 +1.0457433581e+02 -8.4799061237e+02 -1.3084025405e+03 1.5626711357e+03 0.0000000000e+00 0.0000e+00 -1.0000e+00
       13  1    1    2    0    0 -1.0457433581e+02 +8.4799061237e+02 +3.2110951138e+02 9.1276239443e+02 0.0000000000e+00 0.0000e+00 1.0000e+00
<mgrwt>
<rscale>  0 0.22700272E+04</rscale>
<asrwt>0</asrwt>
<pdfrwt beam="1">  1        2 0.11447235E+00 0.22700272E+04</pdfrwt>
<pdfrwt beam="2">  1       -2 0.26636358E+00 0.22700272E+04</pdfrwt>
<totfact> 0.17061111E+00</totfact>
</mgrwt>
<rwgt>
<wgt id='morphing_basis_vector_1'> +8.1311957e-05 </wgt>
<wgt id='morphing_basis_vector_2'> +5.4709802e-05 </wgt>
<wgt id='morphing_basis_vector_3'> +8.7561580e-05 </wgt>
<wgt id='morphing_basis_vector_4'> +6.1264906e-05 </wgt>
<wgt id='morphing_basis_vector_5'> +9.8041281e-05 </wgt>
</rwgt>
</event>
<event>
 4      1 +2.2016400e-08 2.31044300e+03 7.81860800e-03 7.95492100e-02
        2 -1    0    0  501    0 +0.0000000000e+00 +0.0000000000e+00 +7.5041827291e+02 7.5041827291e+02 0.0000000000e+00 0.0000e+00 -1.0000e+00
       -2 -1    0    0    0  501 -0.0000000000e+00 -0.0000000000e+00 -1.7783902540e+03 1.7783902540e+03 0.0000000000e+00 0.0000e+00 1.0000e+00
      -13  1    1    2    0    0 +2.2767450570e+02 +5.8524611122e+02 -1.5752612354e+03 1.6958173990e+03 0.0000000000e+00 0.0000e+00 1.0000e+00
       13  1    1    2    0    0 -2.2767450570e+02 -5.8524611122e+02 +5.4728925427e+02 8.3299112786e+02 0.0000000000e+00 0.0000e+00 -1.0000e+00
<mgrwt>
<rscale>  0 0.23104429E+04</rscale>
<asrwt>0</asrwt>
<pdfrwt beam="1">  1        2 0.11544896E+00 0.23104429E+04</pdfrwt>
<pdfrwt beam="2">  1       -2 0.27359850E+00 0.23104429E+04</pdfrwt>
<totfact> 0.15007409E+00</totfact>
</mgrwt>
<rwgt>
<wgt id='morphing_basis_vector_1'> +8.7041326e-05 </wgt>
<wgt id='morphing_basis_vector_2'> +5.8322418e-05 </wgt>
<wgt id='morphing_basis_vector_3'> +9.3773814e-05 </wgt>
<wgt id='morphing_basis_vector_4'> +6.6063670e-05 </wgt>
<wgt id='morphing_basis_vector_5'> +1.0534576e-04 </wgt>
</rwgt>
</event>
<event>
 4      1 +2.2016400e-08 2.29227600e+03 7.81860800e-03 7.96121100e-02
        2 -1    0    0  501    0 +0.0000000000e+00 +0.0000000000e+00 +1.8123427371e+03 1.8123427371e+03 0.0000000000e+00 0.0000e+00 1.0000e+00
       -2 -1    0    0    0  501 -0.0000000000e+00 -0.0000000000e+00 -7.2482547878e+02 7.2482547878e+02 0.0000000000e+00 0.0000e+00 -1.0000e+00
      -13  1    1    2    0    0 +8.2150100631e+02 -6.1300708706e+02 +1.1113718312e+03 1.5118825812e+03 0.0000000000e+00 0.0000e+00 -1.0000e+00
       13  1    1    2    0    0 -8.2150100631e+02 +6.1300708706e+02 -2.3854572811e+01 1.0252856347e+03 0.0000000000e+00 0.0000e+00 1.0000e+00
<mgrwt>
<rscale>  0 0.22922759E+04</rscale>
<asrwt>0</asrwt>
<pdfrwt beam="1">  1        2 0.27882196E+00 0.22922759E+04</pdfrwt>
<pdfrwt beam="2">  1       -2 0.11151161E+00 0.22922759E+04</pdfrwt>
<totfact> 0.62066618E+00</totfact>
</mgrwt>
<rwgt>
<wgt id='morphing_basis_vector_1'> +9.7771100e-05 </wgt>
<wgt id='morphing_basis_vector_2'> +9.6090622e-05 </wgt>
<wgt id='morphing_basis_vector_3'> +1.1098509e-04 </wgt>
<wgt id='morphing_basis_vector_4'> +3.6803373e-05 </wgt>
<wgt id='morphing_basis_vector_5'> +9.9839431e-05 </wgt>
</rwgt>
</event>
<event>
 4      1 +2.2016400e-08 2.29487100e+03 7.81860800e-03 7.96030900e-02
        2 -1    0    0  501    0 +0.0000000000e+00 +0.0000000000e+00 +5.1273233196e+03 5.1273233196e+03 0.0000000000e+00 0.0000e+00 -1.0000e+00
       -2 -1    0    0    0  501 -0.0000000000e+00 -0.0000000000e+00 -2.5678264783e+02 2.5678264783e+02 0.0000000000e+00 0.0000e+00 1.0000e+00
      -13  1    1    2    0    0 +1.0604894318e+03 +2.7997618220e+02 +1.6445691508e+03 1.9767731760e+03 0.0000000000e+00 0.0000e+00 1.0000e+00
       13  1    1    2    0    0 -1.0604894318e+03 -2.7997618220e+02 +3.2259715210e+03 3.4073327914e+03 0.0000000000e+00 0.0000e+00 -1.0000e+00
<mgrwt>
<rscale>  0 0.22948705E+04</rscale>
<asrwt>0</asrwt>
<pdfrwt beam="1">  1        2 0.78881890E+00 0.22948705E+04</pdfrwt>
<pdfrwt beam="2">  1       -2 0.39505027E-01 0.22948705E+04</pdfrwt>
<totfact> 0.12569837E-01</totfact>
</mgrwt>
<rwgt>
<wgt id='morphing_basis_vector_1'> +8.5721347e-05 </wgt>
<wgt id='morphing_basis_vector_2'> +5.9635015e-05 </wgt>
<wgt id='morphing_basis_vector_3'> +9.2728571e-05 </wgt>
<wgt id='morphing_basis_vector_4'> +6.2310796e-05 </wgt>
<wgt id='morphing_basis_vector_5'> +1.0233446e-04 </wgt>
</rwgt>
</event>
<event>
 4      1 +2.2016400e-08 2.40835000e+03 7.81860800e-03 7.92201200e-02
        2 -1    0    0  501    0 +0.0000000000e+00 +0.0000000000e+00 +3.8014252287e+03 3.8014252287e+03 0.0000000000e+00 0.0000e+00 -1.0000e+00
       -2 -1    0    0    0  501 -0.0000000000e+00 -0.0000000000e+00 -3.8144568617e+02 3.8144568617e+02 0.0000000000e+00 0.0000e+00 1.0000e+00
      -13  1    1    2    0    0 -2.3488520467e+02 -8.9031642878e+02 +3.6218716938e+02 9.8945133705e+02 0.0000000000e+00 0.0000e+00 1.0000e+00
       13  1    1    2    0    0 +2.3488520467e+02 +8.9031642878e+02 +3.0577923731e+03 3.1934195778e+03 0.0000000000e+00 0.0000e+00 -1.0000e+00
<mgrwt>
<rscale>  0 0.24083499E+04</rscale>
<asrwt>0</asrwt>
<pdfrwt beam="1">  1        2 0.58483462E+00 0.24083499E+04</pdfrwt>
<pdfrwt beam="2">  1       -2 0.58683954E-01 0.24083499E+04</pdfrwt>
<totfact> 0.13853569E+00</totfact>
</mgrwt>
<rwgt>
<wgt id='morphing_basis_vector_1'> +1.0267301e-04 </wgt>
<wgt id='morphing_basis_vector_2'> +6.9264423e-05 </wgt>
<wgt id='morphing_basis_vector_3'> +1.1093285e-04 </wgt>
<wgt id='morphing_basis_vector_4'> +7.7844194e-05 </wgt>
<wgt id='morphing_basis_vector_5'> +1.2464086e-04 </wgt>
</rwgt>
</event>
<event>
 4      1 +2.2016400e-08 2.61308300e+03 7.81860800e-03 7.85810700e-02
        2 -1    0    0  501    0 +0.0000000000e+00 +0.0000000000e+00 +3.4500691633e+03 3.4500691633e+03 0.0000000000e+00 0.0000e+00 1.0000e+00
       -2 -1    0    0    0  501 -0.0000000000e+00 -0.0000000000e+00 -4.9478747446e+02 4.9478747446e+02 0.0000000000e+00 0.0000e+00 -1.0000e+00
      -13  1    1    2    0    0 +2.9147899474e+02 +5.5806433020e+02 -2.5067140753e+02 6.7766655190e+02 0.0000000000e+00 0.0000e+00 -1.0000e+00
       13  1    1    2    0    0 -2.9147899474e+02 -5.5806433020e+02 +3.2059530963e+03 3.2671900858e+03 0.0000000000e+00 0.0000e+00 1.0000e+00
<mgrwt>
<rscale>  0 0.26130832E+04</rscale>
<asrwt>0</asrwt>
<pdfrwt beam="1">  1        2 0.53077986E+00 0.26130832E+04</pdfrwt>
<pdfrwt beam="2">  1       -2 0.76121152E-01 0.26130832E+04</pdfrwt>
<totfact> 0.14444302E+00</totfact>
</mgrwt>
<rwgt>
<wgt id='morphing_basis_vector_1'> +1.4145295e-04 </wgt>
<wgt id='morphing_basis_vector_2'> +9.5110348e-05 </wgt>
<wgt id='morphing_basis_vector_3'> +1.5332358e-04 </wgt>
<wgt id='morphing_basis_vector_4'> +1.0882058e-04 </wgt>
<wgt id='morphing_basis_vector_5'> +1.7350053e-04 </wgt>
</rwgt>
</event>
<event>
 4      1 +2.2016400e-08 2.26999100e+03 7.81860800e-03 7.96901100e-02
        2 -1    0    0  501    0 +0.0000000000e+00 +0.0000000000e+00 +1.0762687923e+03 1.0762687923e+03 0.0000000000e+00 0.0000e+00 1.0000e+00
       -2 -1    0    0    0  501 -0.0000000000e+00 -0.0000000000e+00 -1.1969267834e+03 1.1969267834e+03 0.0000000000e+00 0.0000e+00 -1.0000e+00
      -13  1    1    2    0    0 -6.8585921936e+02 +1.4199367814e+02 +8.3404423012e+02 1.0891257279e+03 0.0000000000e+00 0.0000e+00 1.0000e+00
       13  1    1    2    0    0 +6.8585921936e+02 -1.4199367814e+02 -9.5470222114e+02 1.1840698478e+03 0.0000000000e+00 0.0000e+00 -1.0000e+00
<mgrwt>
<rscale>  0 0.22699911E+04</rscale>
<asrwt>0</asrwt>
<pdfrwt beam="1">  1        2 0.16557981E+00 0.22699911E+04</pdfrwt>
<pdfrwt beam="2">  1       -2 0.18414258E+00 0.22699911E+04</pdfrwt>
<totfact> 0.39672888E+00</totfact>
</mgrwt>
<rwgt>
<wgt id='morphing_basis_vector_1'> +1.0777256e-04 </wgt>
<wgt id='morphing_basis_vector_2'> +1.3290217e-04 </wgt>
<wgt id='morphing_basis_vector_3'> +1.2723757e-04 </wgt>
<wgt id='morphing_basis_vector_4'> +7.6282627e-06 </wgt>
<wgt id='morphing_basis_vector_5'> +9.3731556e-05 </wgt>
</rwgt>
</event>
<event>
 4      1 +2.2016400e-08 2.23330300e+03 7.81860800e-03 7.98205400e-02
        2 -1    0    0  501    0 +0.0000000000e+00 +0.0000000000e+00 +2.4266929535e+03 2.4266929535e+03 0.0000000000e+00 0.0000e+00 -1.0000e+00
       -2 -1    0    0    0  501 -0.0000000000e+00 -0.0000000000e+00 -5.1383109795e+02 5.1383109795e+02 0.0000000000e+00 0.0000e+00 1.0000e+00
      -13  1    1    2    0    0 +6.5752108344e+02 +8.7610695309e+02 +1.2419175891e+03 1.6559760465e+03 0.0000000000e+00 0.0000e+00 1.0000e+00
       13  1    1    2    0    0 -6.5752108344e+02 -8.7610695309e+02 +6.7094426652e+02 1.2845480050e+03 0.0000000000e+00 0.0000e+00 -1.0000e+00
<mgrwt>
<rscale>  0 0.22333028E+04</rscale>
<asrwt>0</asrwt>
<pdfrwt beam="1">  1        2 0.37333737E+00 0.22333028E+04</pdfrwt>
<pdfrwt beam="2">  1       -2 0.79050939E-01 0.22333028E+04</pdfrwt>
<totfact> 0.63029175E+00</totfact>
</mgrwt>
<rwgt>
<wgt id='morphing_basis_vector_1'> +8.1600077e-05 </wgt>
<wgt id='morphing_basis_vector_2'> +6.7070410e-05 </wgt>
<wgt id='morphing_basis_vector_3'> +9.0023521e-05 </wgt>
<wgt id='morphing_basis_vector_4'> +4.6531025e-05 </wgt>
<wgt id='morphing_basis_vector_5'> +9.0888831e-05 </wgt>
</rwgt>
</event>
<event>
 4      1 +2.2016400e-08 2.26713900e+03 7.81860800e-03 7.97001600e-02
        2 -1    0    0  501    0 +0.0000000000e+00 +0.0000000000e+00 +1.3511006547e+03 1.3511006547e+03 0.0000000000e+00 0.0000e+00 1.0000e+00
       -2 -1    0    0    0  501 -0.0000000000e+00 -0.0000000000e+00 -9.5106107921e+02 9.5106107921e+02 0.0000000000e+00 0.0000e+00 -1.0000e+00
      -13  1    1    2    0    0 -8.7414678072e+02 +4.8108415742e+02 +7.4629382199e+02 1.2460052285e+03 0.0000000000e+00 0.0000e+00 1.0000e+00
       13  1    1    2    0    0 +8.7414678072e+02 -4.8108415742e+02 -3.4625424647e+02 1.0561565054e+03 0.0000000000e+00 0.0000e+00 -1.0000e+00
<mgrwt>
<rscale>  0 0.22671385E+04</rscale>
<asrwt>0</asrwt>
<pdfrwt beam="1">  1        2 0.20786164E+00 0.22671385E+04</pdfrwt>
<pdfrwt beam="2">  1       -2 0.14631709E+00 0.22671385E+04</pdfrwt>
<totfact> 0.54630134E+00</totfact>
</mgrwt>
<rwgt>
<wgt id='morphing_basis_vector_1'> +9.4634102e-05 </wgt>
<wgt id='morphing_basis_vector_2'> +9.4997555e-05 </wgt>
<wgt id='morphing_basis_vector_3'> +1.0769630e-04 </wgt>
<wgt id='morphing_basis_vector_4'> +3.3132103e-05 </wgt>
<wgt id='morphing_basis_vector_5'> +9.5303782e-05 </wgt>
</rwgt>
</event>
<event>
 4      1 +2.2016400e-08 2.41718300e+03 7.81860800e-03 7.91912300e-02
        2 -1    0    0  501    0 +0.0000000000e+00 +0.0000000000e+00 +1.6883519623e+03 1.6883519623e+03 0.0000000000e+00 0.0000e+00 -1.0000e+00
       -2 -1    0    0    0  501 -0.0000000000e+00 -0.0000000000e+00 -8.6515914483e+02 8.6515914483e+02 0.0000000000e+00 0.0000e+00 1.0000e+00
      -13  1    1    2    0    0 +1.0598608696e+03 +8.1298372718e+01 -1.9597453619e+02 1.0808887580e+03 0.0000000000e+00 0.0000e+00 1.0000e+00
       13  1    1    2    0    0 -1.0598608696e+03 -8.1298372718e+01 +1.0191673537e+03 1.4726223491e+03 0.0000000000e+00 0.0000e+00 -1.0000e+00
<mgrwt>
<rscale>  0 0.24171828E+04</rscale>
<asrwt>0</asrwt>
<pdfrwt beam="1">  1        2 0.25974646E+00 0.24171828E+04</pdfrwt>
<pdfrwt beam="2">  1       -2 0.13310141E+00 0.24171828E+04</pdfrwt>
<totfact> 0.45358851E+00</totfact>
</mgrwt>
<rwgt>
<wgt id='morphing_basis_vector_1'> +1.0449572e-04 </wgt>
<wgt id='morphing_basis_vector_2'> +7.1252703e-05 </wgt>
<wgt id='morphing_basis_vector_3'> +1.1306750e-04 </wgt>
<wgt id='morphing_basis_vector_4'> +7.8335324e-05 </wgt>
<wgt id='morphing_basis_vector_5'> +1.2645064e-04 </wgt>
</rwgt>
</event>
<event>
 4      1 +2.2016400e-08 2.48542200e+03 7.81860800e-03 7.89721700e-02
        2 -1    0    0  501    0 +0.0000000000e+00 +0.0000000000e+00 +1.7832381639e+03 1.7832381639e+03 0.0000000000e+00 0.0000e+00 -1.0000e+00
       -2 -1    0    0    0  501 -0.0000000000e+00 -0.0000000000e+00 -8.6602594136e+02 8.6602594136e+02 0.0000000000e+00 0.0000e+00 1.0000e+00
      -13  1    1    2    0    0 +5.6478098247e+02 +9.9088326732e+02 +9.8459620055e+02 1.5067371654e+03 0.0000000000e+00 0.0000e+00 1.0000e+00
       13  1    1    2    0    0 -5.6478098247e+02 -9.9088326732e+02 -6.7383978043e+01 1.1425269398e+03 0.0000000000e+00 0.0000e+00 -1.0000e+00
<mgrwt>
<rscale>  0 0.24854219E+04</rscale>
<asrwt>0</asrwt>
<pdfrwt beam="1">  1        2 0.27434433E+00 0.24854219E+04</pdfrwt>
<pdfrwt beam="2">  1       -2 0.13323476E+00 0.24854219E+04</pdfrwt>
<totfact> 0.39822295E+00</totfact>
</mgrwt>
<rwgt>
<wgt id='morphing_basis_vector_1'> +1.3199003e-04 </wgt>
<wgt id='morphing_basis_vector_2'> +1.2492493e-04 </wgt>
<wgt id='morphing_basis_vector_3'> +1.4979613e-04 </wgt>
<wgt id='morphing_basis_vector_4'> +5.6230906e-05 </wgt>
<wgt id='morphing_basis_vector_5'> +1.3900775e-04 </wgt>
</rwgt>
</event>
<event>
 4      1 +2.2016400e-08 2.24357700e+03 7.81860800e-03 7.97837600e-02
        2 -1    0    0  501    0 +0.0000000000e+00 +0.0000000000e+00 +2.2753635511e+03 2.2753635511e+03 0.0000000000e+00 0.0000e+00 -1.0000e+00
       -2 -1    0    0    0  501 -0.0000000000e+00 -0.0000000000e+00 -5.5305882756e+02 5.5305882756e+02 0.0000000000e+00 0.0000e+00 1.0000e+00
      -13  1    1    2    0    0 +1.7009571133e+02 +7.6167653499e+02 -1.5470953431e+02 7.9562474507e+02 0.0000000000e+00 0.0000e+00 1.0000e+00
       13  1    1    2    0    0 -1.7009571133e+02 -7.6167653499e+02 +1.8770142578e+03 2.0327976336e+03 0.0000000000e+00 0.0000e+00 -1.0000e+00
<mgrwt>
<rscale>  0 0.22435774E+04</rscale>
<asrwt>0</asrwt>
<pdfrwt beam="1">  1        2 0.35005593E+00 0.22435774E+04</pdfrwt>
<pdfrwt beam="2">  1       -2 0.85085975E-01 0.22435774E+04</pdfrwt>
<totfact> 0.65246046E+00</totfact>
</mgrwt>
<rwgt>
<wgt id='morphing_basis_vector_1'> +7.7597157e-05 </wgt>
<wgt id='morphing_basis_vector_2'> +5.2076377e-05 </wgt>
<wgt id='morphing_basis_vector_3'> +8.3483096e-05 </wgt>
<wgt id='morphing_basis_vector_4'> +5.8515888e-05 </wgt>
<wgt id='morphing_basis_vector_5'> +9.3489934e-05 </wgt>
</rwgt>
</event>
<event>
 4      1 +2.2016400e-08 2.64897900e+03 7.81860800e-03 7.84751900e-02
        2 -1    0    0  501    0 +0.0000000000e+00 +0.0000000000e+00 +1.9666741207e+03 1.9666741207e+03 0.0000000000e+00 0.0000e+00 -1.0000e+00
       -2 -1    0    0    0  501 -0.0000000000e+00 -0.0000000000e+00 -8.9199936168e+02 8.9199936168e+02 0.0000000000e+00 0.0000e+00 1.0000e+00
      -13  1    1    2    0    0 -3.5970531297e+02 +1.1028495935e+03 -1.5248764328e+02 1.1700075297e+03 0.0000000000e+00 0.0000e+00 1.0000e+00
       13  1    1    2    0    0 +3.5970531297e+02 -1.1028495935e+03 +1.2271624023e+03 1.6886659527e+03 0.0000000000e+00 0.0000e+00 -1.0000e+00
<mgrwt>
<rscale>  0 0.26489787E+04</rscale>
<asrwt>0</asrwt>
<pdfrwt beam="1">  1        2 0.30256525E+00 0.26489787E+04</pdfrwt>
<pdfrwt beam="2">  1       -2 0.13723067E+00 0.26489787E+04</pdfrwt>
<totfact> 0.28594685E+00</totfact>
</mgrwt>
<rwgt>
<wgt id='morphing_basis_vector_1'> +1.4999510e-04 </wgt>
<wgt id='morphing_basis_vector_2'> +1.0249471e-04 </wgt>
<wgt id='morphing_basis_vector_3'> +1.6299986e-04 </wgt>
<wgt id='morphing_basis_vector_4'> +1.1354391e-04 </wgt>
<wgt id='morphing_basis_vector_5'> +1.8322952e-04 </wgt>
</rwgt>
</event>
<event>
 4      1 +2.2016400e-08 2.28037300e+03 7.81860800e-03 7.96536600e-02
        2 -1    0    0  501    0 +0.0000000000e+00 +0.0000000000e+00 +1.4764444028e+03 1.4764444028e+03 0.0000000000e+00 0.0000e+00 1.0000e+00
       -2 -1    0    0    0  501 -0.0000000000e+00 -0.0000000000e+00 -8.8051098860e+02 8.8051098860e+02 0.0000000000e+00 0.0000e+00 -1.0000e+00
      -13  1    1    2    0    0 +7.9413425789e+02 +3.1233855488e+02 -4.8361691711e+02 9.8086182255e+02 0.0000000000e+00 0.0000e+00 -1.0000e+00
       13  1    1    2    0    0 -7.9413425789e+02 -3.1233855488e+02 +1.0795503313e+03 1.3760935689e+03 0.0000000000e+00 0.0000e+00 1.0000e+00
<mgrwt>
<rscale>  0 0.22803732E+04</rscale>
<asrwt>0</asrwt>
<pdfrwt beam="1">  1        2 0.22714529E+00 0.22803732E+04</pdfrwt>
<pdfrwt beam="2">  1       -2 0.13546323E+00 0.22803732E+04</pdfrwt>
<totfact> 0.57428708E+00</totfact>
</mgrwt>
<rwgt>
<wgt id='morphing_basis_vector_1'> +8.2776013e-05 </wgt>
<wgt id='morphing_basis_vector_2'> +5.5692995e-05 </wgt>
<wgt id='morphing_basis_vector_3'> +8.9159619e-05 </wgt>
<wgt id='morphing_basis_vector_4'> +6.2416392e-05 </wgt>
<wgt id='morphing_basis_vector_5'> +9.9869834e-05 </wgt>
</rwgt>
</event>
<event>
 4      1 +2.2016400e-08 2.47949500e+03 7.81860800e-03 7.89909100e-02
        2 -1    0    0  501    0 +0.0000000000e+00 +0.0000000000e+00 +3.6282822231e+03 3.6282822231e+03 0.0000000000e+00 0.0000e+00 1.0000e+00
       -2 -1    0    0    0  501 -0.0000000000e+00 -0.0000000000e+00 -4.2360934459e+02 4.2360934459e+02 0.0000000000e+00 0.0000e+00 -1.0000e+00
      -13  1    1    2    0    0 +1.0352174655e+03 -1.3580035178e+02 +2.6947295688e+03 2.8899280935e+03 0.0000000000e+00 0.0000e+00 1.0000e+00
       13  1    1    2    0    0 -1.0352174655e+03 +1.3580035178e+02 +5.0994330971e+02 1.1619634742e+03 0.0000000000e+00 0.0000e+00 -1.0000e+00
<mgrwt>
<rscale>  0 0.24794953E+04</rscale>
<asrwt>0</asrwt>
<pdfrwt beam="1">  1        2 0.55819725E+00 0.24794953E+04</pdfrwt>
<pdfrwt beam="2">  1       -2 0.65170671E-01 0.24794953E+04</pdfrwt>
<totfact> 0.15088958E+00</totfact>
</mgrwt>
<rwgt>
<wgt id='morphing_basis_vector_1'> +1.3840273e-04 </wgt>
<wgt id='morphing_basis_vector_2'> +1.4632651e-04 </wgt>
<wgt id='morphing_basis_vector_3'> +1.6002754e-04 </wgt>
<wgt id='morphing_basis_vector_4'> +4.0026009e-05 </wgt>
<wgt id='morphing_basis_vector_5'> +1.3640167e-04 </wgt>
</rwgt>
</event>
<event>
 4      1 +2.2016400e-08 2.26719600e+03 7.81860800e-03 7.96999600e-02
        2 -1    0    0  501    0 +0.0000000000e+00 +0.0000000000e+00 +2.8732737426e+03 2.8732737426e+03 0.0000000000e+00 0.0000e+00 -1.0000e+00
       -2 -1    0    0    0  501 -0.0000000000e+00 -0.0000000000e+00 -4.4724050004e+02 4.4724050004e+02 0.0000000000e+00 0.0000e+00 1.0000e+00
      -13  1    1    2    0    0 -4.0451209118e+02 +9.2255598051e+02 +4.5156348545e+02 1.1039244315e+03 0.0000000000e+00 0.0000e+00 1.0000e+00
       13  1    1    2    0    0 +4.0451209118e+02 -9.2255598051e+02 +1.9744697571e+03 2.2165898111e+03 0.0000000000e+00 0.0000e+00 -1.0000e+00
<mgrwt>
<rscale>  0 0.22671960E+04</rscale>
<asrwt>0</asrwt>
<pdfrwt beam="1">  1        2 0.44204210E+00 0.22671960E+04</pdfrwt>
<pdfrwt beam="2">  1       -2 0.68806232E-01 0.22671960E+04</pdfrwt>
<totfact> 0.45442577E+00</totfact>
</mgrwt>
<rwgt>
<wgt id='morphing_basis_vector_1'> +8.1220204e-05 </wgt>
<wgt id='morphing_basis_vector_2'> +5.5345601e-05 </wgt>
<wgt id='morphing_basis_vector_3'> +8.7585930e-05 </wgt>
<wgt id='morphing_basis_vector_4'> +6.0333633e-05 </wgt>
<wgt id='morphing_basis_vector_5'> +9.7495610e-05 </wgt>
</rwgt>
</event>
<event>
 4      1 +2.2016400e-08 2.53549500e+03 7.81860800e-03 7.88159700e-02
        2 -1    0    0  501    0 +0.0000000000e+00 +0.0000000000e+00 +2.1649883375e+03 2.1649883375e+03 0.0000000000e+00 0.0000e+00 1.0000e+00
       -2 -1    0    0    0  501 -0.0000000000e+00 -0.0000000000e+00 -7.4235211800e+02 7.4235211800e+02 0.0000000000e+00 0.0000e+00 -1.0000e+00
      -13  1    1    2    0    0 +4.5468404810e+02 +7.6318941377e+02 +1.7483846178e+03 1.9611334571e+03 0.0000000000e+00 0.0000e+00 1.0000e+00
       13  1    1    2    0    0 -4.5468404810e+02 -7.6318941377e+02 -3.2574839827e+02 9.4620699842e+02 0.0000000000e+00 0.0000e+00 -1.0000e+00
<mgrwt>
<rscale>  0 0.25354950E+04</rscale>
<asrwt>0</asrwt>
<pdfrwt beam="1">  1        2 0.33307513E+00 0.25354950E+04</pdfrwt>
<pdfrwt beam="2">  1       -2 0.11420802E+00 0.25354950E+04</pdfrwt>
<totfact> 0.36218344E+00</totfact>
</mgrwt>
<rwgt>
<wgt id='morphing_basis_vector_1'> +1.6261974e-04 </wgt>
<wgt id='morphing_basis_vector_2'> +1.9365796e-04 </wgt>
<wgt id='morphing_basis_vector_3'> +1.9259723e-04 </wgt>
<wgt id='morphing_basis_vector_4'> +2.0297060e-05 </wgt>
<wgt id='morphing_basis_vector_5'> +1.4740080e-04 </wgt>
</rwgt>
</event>
<event>
 4      1 +2.2016400e-08 2.34942900e+03 7.81860800e-03 7.94161900e-02
        2 -1    0    0  501    0 +0.0000000000e+00 +0.0000000000e+00 +1.9060721651e+03 1.9060721651e+03 0.0000000000e+00 0.0000e+00 1.0000e+00
       -2 -1    0    0    0  501 -0.0000000000e+00 -0.0000000000e+00 -7.2397818227e+02 7.2397818227e+02 0.0000000000e+00 0.0000e+00 -1.0000e+00
      -13  1    1    2    0    0 +1.0979809546e+02 -7.3884481003e+02 -4.2389101941e+02 8.5885439477e+02 0.0000000000e+00 0.0000e+00 -1.0000e+00
       13  1    1    2    0    0 -1.0979809546e+02 +7.3884481003e+02 +1.6059850023e+03 1.7711959526e+03 0.0000000000e+00 0.0000e+00 1.0000e+00
<mgrwt>
<rscale>  0 0.23494294E+04</rscale>
<asrwt>0</asrwt>
<pdfrwt beam="1">  1        2 0.29324187E+00 0.23494294E+04</pdfrwt>
<pdfrwt beam="2">  1       -2 0.11138126E+00 0.23494294E+04</pdfrwt>
<totfact> 0.54910746E+00</totfact>
</mgrwt>
<rwgt>
<wgt id='morphing_basis_vector_1'> +9.3007297e-05 </wgt>
<wgt id='morphing_basis_vector_2'> +6.2433691e-05 </wgt>
<wgt id='morphing_basis_vector_3'> +1.0030830e-04 </wgt>
<wgt id='morphing_basis_vector_4'> +7.0635928e-05 </wgt>
<wgt id='morphing_basis_vector_5'> +1.1274413e-04 </wgt>
</rwgt>
</event>
<event>
 4      1 +2.2016400e-08 2.52945900e+03 7.81860800e-03 7.88346000e-02
        2 -1    0    0  501    0 +0.0000000000e+00 +0.0000000000e+00 +1.8218903976e+03 1.8218903976e+03 0.0000000000e+00 0.0000e+00 -1.0000e+00
       -2 -1    0    0    0  501 -0.0000000000e+00 -0.0000000000e+00 -8.7795689783e+02 8.7795689783e+02 0.0000000000e+00 0.0000e+00 1.0000e+00
      -13  1    1    2    0    0 +5.8679877956e+02 -9.7991289694e+02 -1.0773837924e+02 1.1472443731e+03 0.0000000000e+00 0.0000e+00 1.0000e+00
       13  1    1    2    0    0 -5.8679877956e+02 +9.7991289694e+02 +1.0516718790e+03 1.5526029223e+03 0.0000000000e+00 0.0000e+00 -1.0000e+00
<mgrwt>
<rscale>  0 0.25294594E+04</rscale>
<asrwt>0</asrwt>
<pdfrwt beam="1">  1        2 0.28029083E+00 0.25294594E+04</pdfrwt>
<pdfrwt beam="2">  1       -2 0.13507029E+00 0.25294594E+04</pdfrwt>
<totfact> 0.36365827E+00</totfact>
</mgrwt>
<rwgt>
<wgt id='morphing_basis_vector_1'> +1.2516659e-04 </wgt>
<wgt id='morphing_basis_vector_2'> +8.5835983e-05 </wgt>
<wgt id='morphing_basis_vector_3'> +1.3581409e-04 </wgt>
<wgt id='morphing_basis_vector_4'> +9.3817920e-05 </wgt>
<wgt id='morphing_basis_vector_5'> +1.5196666e-04 </wgt>
</rwgt>
</event>
<event>
 4      1 +2.2016400e-08 2.23260300e+03 7.81860800e-03 7.98230600e-02
        2 -1    0    0  501    0 +0.0000000000e+00 +0.0000000000e+00 +1.4182361984e+03 1.4182361984e+03 0.0000000000e+00 0.0000e+00 -1.0000e+00
       -2 -1    0    0    0  501 -0.0000000000e+00 -0.0000000000e+00 -8.7864721850e+02 8.7864721850e+02 0.0000000000e+00 0.0000e+00 1.0000e+00
      -13  1    1    2    0    0 +5.8148167496e+02 -5.1130158207e+02 -5.5745825518e+02 9.5410164679e+02 0.0000000000e+00 0.0000e+00 1.0000e+00
       13  1    1    2    0    0 -5.8148167496e+02 +5.1130158207e+02 +1.0970472351e+03 1.3427817701e+03 0.0000000000e+00 0.0000e+00 -1.0000e+00
<mgrwt>
<rscale>  0 0.22326032E+04</rscale>
<asrwt>0</asrwt>
<pdfrwt beam="1">  1        2 0.21819018E+00 0.22326032E+04</pdfrwt>
<pdfrwt beam="2">  1       -2 0.13517650E+00 0.22326032E+04</pdfrwt>
<totfact> 0.62543765E+00</totfact>
</mgrwt>
<rwgt>
<wgt id='morphing_basis_vector_1'> +7.6112840e-05 </wgt>
<wgt id='morphing_basis_vector_2'> +5.1067679e-05 </wgt>
<wgt id='morphing_basis_vector_3'> +8.1861630e-05 </wgt>
<wgt id='morphing_basis_vector_4'> +5.7364638e-05 </wgt>
<wgt id='morphing_basis_vector_5'> +9.1645538e-05 </wgt>
</rwgt>
</event>
<event>
 4      1 +2.2016400e-08 2.46411100e+03 7.81860800e-03 7.90398000e-02
        2 -1    0    0  501    0 +0.0000000000e+00 +0.0000000000e+00 +3.8234669638e+03 3.8234669638e+03 0.0000000000e+00 0.0000e+00 1.0000e+00
       -2 -1    0    0    0  501 -0.0000000000e+00 -0.0000000000e+00 -3.9701161124e+02 3.9701161124e+02 0.0000000000e+00 0.0000e+00 -1.0000e+00
      -13  1    1    2    0    0 +5.0147901385e+02 +9.0230799833e+02 +5.6130254115e+02 1.1750325391e+03 0.0000000000e+00 0.0000e+00 -1.0000e+00
       13  1    1    2    0    0 -5.0147901385e+02 -9.0230799833e+02 +2.8651528114e+03 3.0454460359e+03 0.0000000000e+00 0.0000e+00 1.0000e+00
<mgrwt>
<rscale>  0 0.24641110E+04</rscale>
<asrwt>0</asrwt>
<pdfrwt beam="1">  1        2 0.58822566E+00 0.24641110E+04</pdfrwt>
<pdfrwt beam="2">  1       -2 0.61078712E-01 0.24641110E+04</pdfrwt>
<totfact> 0.12190560E+00</totfact>
</mgrwt>
<rwgt>
<wgt id='morphing_basis_vector_1'> +1.1255410e-04 </wgt>
<wgt id='morphing_basis_vector_2'> +7.6390943e-05 </wgt>
<wgt id='morphing_basis_vector_3'> +1.2182894e-04 </wgt>
<wgt id='morphing_basis_vector_4'> +8.5046188e-05 </wgt>
<wgt id='morphing_basis_vector_5'> +1.3673075e-04 </wgt>
</rwgt>
</event>
<event>
 4      1 +2.2016400e-08 2.24611700e+03 7.81860800e-03 7.97746900e-02
        2 -1    0    0  501    0 +0.0000000000e+00 +0.0000000000e+00 +1.2220011550e+03 1.2220011550e+03 0.0000000000e+00 0.0000e+00 -1.0000e+00
       -2 -1    0    0    0  501 -0.0000000000e+00 -0.0000000000e+00 -1.0321270601e+03 1.0321270601e+03 0.0000000000e+00 0.0000e+00 1.0000e+00
      -13  1    1    2    0    0 -4.2876998020e+02 -1.6663962373e+02 -9.3324039207e+02 1.0404566735e+03 0.0000000000e+00 0.0000e+00 1.0000e+00
       13  1    1    2    0    0 +4.2876998020e+02 +1.6663962373e+02 +1.1231144869e+03 1.2136715416e+03 0.0000000000e+00 0.0000e+00 -1.0000e+00
<mgrwt>
<rscale>  0 0.22461171E+04</rscale>
<asrwt>0</asrwt>
<pdfrwt beam="1">  1        2 0.18800018E+00 0.22461171E+04</pdfrwt>
<pdfrwt beam="2">  1       -2 0.15878878E+00 0.22461171E+04</pdfrwt>
<totfact> 0.51283839E+00</totfact>
</mgrwt>
<rwgt>
<wgt id='morphing_basis_vector_1'> +7.7865295e-05 </wgt>
<wgt id='morphing_basis_vector_2'> +5.2080101e-05 </wgt>
<wgt id='morphing_basis_vector_3'> +8.3744374e-05 </wgt>
<wgt id='morphing_basis_vector_4'> +5.8943514e-05 </wgt>
<wgt id='morphing_basis_vector_5'> +9.3933404e-05 </wgt>
</rwgt>
</event>
<event>
 4      1 +2.2016400e-08 2.30171100e+03 7.81860800e-03 7.95793700e-02
        2 -1    0    0  501    0 +0.0000000000e+00 +0.0000000000e+00 +2.3842505497e+03 2.3842505497e+03 0.0000000000e+00 0.0000e+00 -1.0000e+00
       -2 -1    0    0    0  501 -0.0000000000e+00 -0.0000000000e+00 -5.5550738584e+02 5.5550738584e+02 0.0000000000e+00 0.0000e+00 1.0000e+00
      -13  1    1    2    0    0 +1.3674783950e+02 -4.9929999680e+02 -3.9839935331e+02 6.5324000424e+02 0.0000000000e+00 0.0000e+00 1.0000e+00
       13  1    1    2    0    0 -1.3674783950e+02 +4.9929999680e+02 +2.2271425171e+03 2.2865179313e+03 0.0000000000e+00 0.0000e+00 -1.0000e+00
<mgrwt>
<rscale>  0 0.23017114E+04</rscale>
<asrwt>0</asrwt>
<pdfrwt beam="1">  1        2 0.36680777E+00 0.23017114E+04</pdfrwt>
<pdfrwt beam="2">  1       -2 0.85462676E-01 0.23017114E+04</pdfrwt>
<totfact> 0.55530848E+00</totfact>
</mgrwt>
<rwgt>
<wgt id='morphing_basis_vector_1'> +8.5737363e-05 </wgt>
<wgt id='morphing_basis_vector_2'> +5.7405589e-05 </wgt>
<wgt id='morphing_basis_vector_3'> +9.2342730e-05 </wgt>
<wgt id='morphing_basis_vector_4'> +6.5087626e-05 </wgt>
<wgt id='morphing_basis_vector_5'> +1.0374111e-04 </wgt>
</rwgt>
</event>
<event>
 4      1 +2.2016400e-08 2.26862800e+03 7.81860800e-03 7.96949100e-02
        2 -1    0    0  501    0 +0.0000000000e+00 +0.0000000000e+00 +3.5944924145e+03 3.5944924145e+03 0.0000000000e+00 0.0000e+00 1.0000e+00
       -2 -1    0    0    0  501 -0.0000000000e+00 -0.0000000000e+00 -3.5795555916e+02 3.5795555916e+02 0.0000000000e+00 0.0000e+00 -1.0000e+00
      -13  1    1    2    0    0 +1.0297993458e+03 +1.5315631450e+02 +8.3383431458e+02 1.3338752616e+03 0.0000000000e+00 0.0000e+00 -1.0000e+00
       13  1    1    2    0    0 -1.0297993458e+03 -1.5315631450e+02 +2.4027025407e+03 2.6185727121e+03 0.0000000000e+00 0.0000e+00 1.0000e+00
<mgrwt>
<rscale>  0 0.22686283E+04</rscale>
<asrwt>0</asrwt>
<pdfrwt beam="1">  1        2 0.55299881E+00 0.22686283E+04</pdfrwt>
<pdfrwt beam="2">  1       -2 0.55070089E-01 0.22686283E+04</pdfrwt>
<totfact> 0.23060615E+00</totfact>
</mgrwt>
<rwgt>
<wgt id='morphing_basis_vector_1'> +8.1576908e-05 </wgt>
<wgt id='morphing_basis_vector_2'> +5.5941162e-05 </wgt>
<wgt id='morphing_basis_vector_3'> +8.8038889e-05 </wgt>
<wgt id='morphing_basis_vector_4'> +6.0175455e-05 </wgt>
<wgt id='morphing_basis_vector_5'> +9.7720942e-05 </wgt>
</rwgt>
</event>
<event>
 4      1 +2.2016400e-08 2.39553400e+03 7.81860800e-03 7.92622800e-02
        2 -1    0    0  501    0 +0.0000000000e+00 +0.0000000000e+00 +4.1125616396e+03 4.1125616396e+03 0.0000000000e+00 0.0000e+00 -1.0000e+00
       -2 -1    0    0    0  501 -0.0000000000e+00 -0.0000000000e+00 -3.4884476318e+02 3.4884476318e+02 0.0000000000e+00 0.0000e+00 1.0000e+00
      -13  1    1    2    0    0 -8.9361733597e+02 -7.9641278685e+02 +1.8023993696e+03 2.1636702054e+03 0.0000000000e+00 0.0000e+00 1.0000e+00
       13  1    1    2    0    0 +8.9361733597e+02 +7.9641278685e+02 +1.9613175069e+03 2.2977361974e+03 0.0000000000e+00 0.0000e+00 -1.0000e+00
<mgrwt>
<rscale>  0 0.23955338E+04</rscale>
<asrwt>0</asrwt>
<pdfrwt beam="1">  1        2 0.63270176E+00 0.23955338E+04</pdfrwt>
<pdfrwt beam="2">  1       -2 0.53668428E-01 0.23955338E+04</pdfrwt>
<totfact> 0.91323155E-01</totfact>
</mgrwt>
<rwgt>
<wgt id='morphing_basis_vector_1'> +1.0357713e-04 </wgt>
<wgt id='morphing_basis_vector_2'> +7.6791472e-05 </wgt>
<wgt id='morphing_basis_vector_3'> +1.1320118e-04 </wgt>
<wgt id='morphing_basis_vector_4'> +6.9973806e-05 </wgt>
<wgt id='morphing_basis_vector_5'> +1.2147196e-04 </wgt>
</rwgt>
</event>
<event>
 4      1 +2.2016400e-08 2.30881000e+03 7.81860800e-03 7.95548400e-02
        2 -1    0    0  501    0 +0.0000000000e+00 +0.0000000000e+00 +1.8209471526e+03 1.8209471526e+03 0.0000000000e+00 0.0000e+00 1.0000e+00
       -2 -1    0    0    0  501 -0.0000000000e+00 -0.0000000000e+00 -7.3184510316e+02 7.3184510316e+02 0.0000000000e+00 0.0000e+00 -1.0000e+00
      -13  1    1    2    0    0 -7.9667929226e+02 +6.1200745750e+02 -8.4227045307e+01 1.0081394834e+03 0.0000000000e+00 0.0000e+00 -1.0000e+00
       13  1    1    2    0    0 +7.9667929226e+02 -6.1200745750e+02 +1.1733290948e+03 1.5446527724e+03 0.0000000000e+00 0.0000e+00 1.0000e+00
<mgrwt>
<rscale>  0 0.23088103E+04</rscale>
<asrwt>0</asrwt>
<pdfrwt beam="1">  1        2 0.28014571E+00 0.23088103E+04</pdfrwt>
<pdfrwt beam="2">  1       -2 0.11259155E+00 0.23088103E+04</pdfrwt>
<totfact> 0.59823686E+00</totfact>
</mgrwt>
<rwgt>
<wgt id='morphing_basis_vector_1'> +8.7175004e-05 </wgt>
<wgt id='morphing_basis_vector_2'> +5.9268545e-05 </wgt>
<wgt id='morphing_basis_vector_3'> +9.4074583e-05 </wgt>
<wgt id='morphing_basis_vector_4'> +6.5111473e-05 </wgt>
<wgt id='morphing_basis_vector_5'> +1.0498252e-04 </wgt>
</rwgt>
</event>
<event>
 4      1 +2.2016400e-08 2.59752200e+03 7.81860800e-03 7.86275000e-02
        2 -1    0    0  501    0 +0.0000000000e+00 +0.0000000000e+00 +3.8779667780e+03 3.8779667780e+03 0.0000000000e+00 0.0000e+00 1.0000e+00
       -2 -1    0    0    0  501 -0.0000000000e+00 -0.0000000000e+00 -4.3496517153e+02 4.3496517153e+02 0.0000000000e+00 0.0000e+00 -1.0000e+00
      -13  1    1    2    0    0 +7.5767081423e+02 +8.2952101000e+02 +6.3954730142e+02 1.2927454968e+03 0.0000000000e+00 0.0000e+00 -1.0000e+00
       13  1    1    2    0    0 -7.5767081423e+02 -8.2952101000e+02 +2.8034543051e+03 3.0201864527e+03 0.0000000000e+00 0.0000e+00 1.0000e+00
<mgrwt>
<rscale>  0 0.25975223E+04</rscale>
<asrwt>0</asrwt>
<pdfrwt beam="1">  1        2 0.59661025E+00 0.25975223E+04</pdfrwt>
<pdfrwt beam="2">  1       -2 0.66917722E-01 0.25975223E+04</pdfrwt>
<totfact> 0.89913849E-01</totfact>
</mgrwt>
<rwgt>
<wgt id='morphing_basis_vector_1'> +1.3874039e-04 </wgt>
<wgt id='morphing_basis_vector_2'> +9.4607973e-05 </wgt>
<wgt id='morphing_basis_vector_3'> +1.5060897e-04 </wgt>
<wgt id='morphing_basis_vector_4'> +1.0501437e-04 </wgt>
<wgt id='morphing_basis_vector_5'> +1.6925859e-04 </wgt>
</rwgt>
</event>
<event>
 4      1 +2.2016400e-08 2.29495700e+03 7.81860800e-03 7.96027900e-02
        2 -1    0    0  501    0 +0.0000000000e+00 +0.0000000000e+00 +2.6482096321e+03 2.6482096321e+03 0.0000000000e+00 0.0000e+00 -1.0000e+00
       -2 -1    0    0    0  501 -0.0000000000e+00 -0.0000000000e+00 -4.9720649007e+02 4.9720649007e+02 0.0000000000e+00 0.0000e+00 1.0000e+00
      -13  1    1    2    0    0 -6.3709010835e+02 -6.1760015681e+02 +7.8277529072e+01 8.9075312596e+02 0.0000000000e+00 0.0000e+00 1.0000e+00
       13  1    1    2    0    0 +6.3709010835e+02 +6.1760015681e+02 +2.0727256129e+03 2.2546629962e+03 0.0000000000e+00 0.0000e+00 -1.0000e+00
<mgrwt>
<rscale>  0 0.22949571E+04</rscale>
<asrwt>0</asrwt>
<pdfrwt beam="1">  1        2 0.40741686E+00 0.22949571E+04</pdfrwt>
<pdfrwt beam="2">  1       -2 0.76493308E-01 0.22949571E+04</pdfrwt>
<totfact> 0.49700191E+00</totfact>
</mgrwt>
<rwgt>
<wgt id='morphing_basis_vector_1'> +8.4911568e-05 </wgt>
<wgt id='morphing_basis_vector_2'> +5.7214123e-05 </wgt>
<wgt id='morphing_basis_vector_3'> +9.1506597e-05 </wgt>
<wgt id='morphing_basis_vector_4'> +6.3989459e-05 </wgt>
<wgt id='morphing_basis_vector_5'> +1.0248424e-04 </wgt>
</rwgt>
</event>
<event>
 4      1 +2.2016400e-08 2.40087000e+03 7.81860800e-03 7.92446900e-02
        2 -1    0    0  501    0 +0.0000000000e+00 +0.0000000000e+00 +3.2133328336e+03 3.2133328336e+03 0.0000000000e+00 0.0000e+00 -1.0000e+00
       -2 -1    0    0    0  501 -0.0000000000e+00 -0.0000000000e+00 -4.4845782721e+02 4.4845782721e+02 0.0000000000e+00 0.0000e+00 1.0000e+00
      -13  1    1    2    0    0 -6.7173548624e+02 +3.3580747244e+02 -4.5919588683e+01 7.5239871787e+02 0.0000000000e+00 0.0000e+00 1.0000e+00
       13  1    1    2    0    0 +6.7173548624e+02 -3.3580747244e+02 +2.8107945951e+03 2.9093919430e+03 0.0000000000e+00 0.0000e+00 -1.0000e+00
<mgrwt>
<rscale>  0 0.24008701E+04</rscale>
<asrwt>0</asrwt>
<pdfrwt beam="1">  1        2 0.49435888E+00 0.24008701E+04</pdfrwt>
<pdfrwt beam="2">  1       -2 0.68993514E-01 0.24008701E+04</pdfrwt>
<totfact> 0.26702434E+00</totfact>
</mgrwt>
<rwgt>
<wgt id='morphing_basis_vector_1'> +1.0129232e-04 </wgt>
<wgt id='morphing_basis_vector_2'> +6.8032574e-05 </wgt>
<wgt id='morphing_basis_vector_3'> +1.0936726e-04 </wgt>
<wgt id='morphing_basis_vector_4'> +7.7131608e-05 </wgt>
<wgt id='morphing_basis_vector_5'> +1.2309964e-04 </wgt>
</rwgt>
</event>
<event>
 4      1 +2.2016400e-08 2.23033300e+03 7.81860800e-03 7.98312200e-02
        2 -1    0    0  501    0 +0.0000000000e+00 +0.0000000000e+00 +1.3853519002e+03 1.3853519002e+03 0.0000000000e+00 0.0000e+00 -1.0000e+00
       -2 -1    0    0    0  501 -0.0000000000e+00 -0.0000000000e+00 -8.9767512981e+02 8.9767512981e+02 0.0000000000e+00 0.0000e+00 1.0000e+00
      -13  1    1    2    0    0 -1.0302682755e+03 -2.2189129750e+02 +6.1701645986e+02 1.2212279800e+03 0.0000000000e+00 0.0000e+00 -1.0000e+00
       13  1    1    2    0    0 +1.0302682755e+03 +2.2189129750e+02 -1.2933968944e+02 1.0617990500e+03 0.0000000000e+00 0.0000e+00 1.0000e+00
<mgrwt>
<rscale>  0 0.22303327E+04</rscale>
<asrwt>0</asrwt>
<pdfrwt beam="1">  1        2 0.21313106E+00 0.22303327E+04</pdfrwt>
<pdfrwt beam="2">  1       -2 0.13810387E+00 0.22303327E+04</pdfrwt>
<totfact> 0.61553294E+00</totfact>
</mgrwt>
<rwgt>
<wgt id='morphing_basis_vector_1'> +8.4111996e-05 </wgt>
<wgt id='morphing_basis_vector_2'> +7.5401103e-05 </wgt>
<wgt id='morphing_basis_vector_3'> +9.3933804e-05 </wgt>
<wgt id='morphing_basis_vector_4'> +4.0339676e-05 </wgt>
<wgt id='morphing_basis_vector_5'> +8.9923001e-05 </wgt>
</rwgt>
</event>
<event>
 4      1 +2.2016400e-08 2.24285500e+03 7.81860800e-03 7.97863400e-02
        2 -1    0    0  501    0 +0.0000000000e+00 +0.0000000000e+00 +2.9804640246e+03 2.9804640246e+03 0.0000000000e+00 0.0000e+00 1.0000e+00
       -2 -1    0    0    0  501 -0.0000000000e+00 -0.0000000000e+00 -4.2194754103e+02 4.2194754103e+02 0.0000000000e+00 0.0000e+00 -1.0000e+00
      -13  1    1    2    0    0 +7.3034210744e+02 -1.4439927678e+02 +2.5515040518e+03 2.6578983561e+03 0.0000000000e+00 0.0000e+00 1.0000e+00
       13  1    1    2    0    0 -7.3034210744e+02 +1.4439927678e+02 +7.0124318173e+00 7.4451320958e+02 0.0000000000e+00 0.0000e+00 -1.0000e+00
<mgrwt>
<rscale>  0 0.22428548E+04</rscale>
<asrwt>0</asrwt>
<pdfrwt beam="1">  1        2 0.45853291E+00 0.22428548E+04</pdfrwt>
<pdfrwt beam="2">  1       -2 0.64915008E-01 0.22428548E+04</pdfrwt>
<totfact> 0.43974061E+00</totfact>
</mgrwt>
<rwgt>
<wgt id='morphing_basis_vector_1'> +1.0150793e-04 </wgt>
<wgt id='morphing_basis_vector_2'> +1.2295995e-04 </wgt>
<wgt id='morphing_basis_vector_3'> +1.1928497e-04 </wgt>
<wgt id='morphing_basis_vector_4'> +9.8601236e-06 </wgt>
<wgt id='morphing_basis_vector_5'> +8.9475151e-05 </wgt>
</rwgt>
</event>
<event>
 4      1 +2.2016400e-08 2.52171400e+03 7.81860800e-03 7.88585900e-02
        2 -1    0    0  501    0 +0.0000000000e+00 +0.0000000000e+00 +2.9825290660e+03 2.9825290660e+03 0.0000000000e+00 0.0000e+00 -1.0000e+00
       -2 -1    0    0    0  501 -0.0000000000e+00 -0.0000000000e+00 -5.3302423681e+02 5.3302423681e+02 0.0000000000e+00 0.0000e+00 1.0000e+00
      -13  1    1    2    0    0 -1.3296929744e+02 -8.7474647303e+02 +2.4770490228e+03 2.6303296538e+03 0.0000000000e+00 0.0000e+00 -1.0000e+00
       13  1    1    2    0    0 +1.3296929744e+02 +8.7474647303e+02 -2.7544193660e+01 8.8522364900e+02 0.0000000000e+00 0.0000e+00 1.0000e+00
<mgrwt>
<rscale>  0 0.25217139E+04</rscale>
<asrwt>0</asrwt>
<pdfrwt beam="1">  1        2 0.45885061E+00 0.25217139E+04</pdfrwt>
<pdfrwt beam="2">  1       -2 0.82003731E-01 0.25217139E+04</pdfrwt>
<totfact> 0.25662722E+00</totfact>
</mgrwt>
<rwgt>
<wgt id='morphing_basis_vector_1'> +1.5909720e-04 </wgt>
<wgt id='morphing_basis_vector_2'> +1.8935120e-04 </wgt>
<wgt id='morphing_basis_vector_3'> +1.8832164e-04 </wgt>
<wgt id='morphing_basis_vector_4'> +1.9977974e-05 </wgt>
<wgt id='morphing_basis_vector_5'> +1.4419582e-04 </wgt>
</rwgt>
</event>
<event>
 4      1 +2.2016400e-08 2.48360900e+03 7.81860800e-03 7.89779000e-02
        2 -1    0    0  501    0 +0.0000000000e+00 +0.0000000000e+00 +1.4680244459e+03 1.4680244459e+03 0.0000000000e+00 0.0000e+00 1.0000e+00
       -2 -1    0    0    0  501 -0.0000000000e+00 -0.0000000000e+00 -1.0504446624e+03 1.0504446624e+03 0.0000000000e+00 0.0000e+00 -1.0000e+00
      -13  1    1    2    0    0 +2.7501767133e+02 -1.1519655822e+03 -1.6983957901e+02 1.1964551411e+03 0.0000000000e+00 0.0000e+00 -1.0000e+00
       13  1    1    2    0    0 -2.7501767133e+02 +1.1519655822e+03 +5.8741936249e+02 1.3220139672e+03 0.0000000000e+00 0.0000e+00 1.0000e+00
<mgrwt>
<rscale>  0 0.24836090E+04</rscale>
<asrwt>0</asrwt>
<pdfrwt beam="1">  1        2 0.22584992E+00 0.24836090E+04</pdfrwt>
<pdfrwt beam="2">  1       -2 0.16160687E+00 0.24836090E+04</pdfrwt>
<totfact> 0.34547551E+00</totfact>
</mgrwt>
<rwgt>
<wgt id='morphing_basis_vector_1'> +1.1702719e-04 </wgt>
<wgt id='morphing_basis_vector_2'> +8.1529147e-05 </wgt>
<wgt id='morphing_basis_vector_3'> +1.2712513e-04 </wgt>
<wgt id='morphing_basis_vector_4'> +8.5927929e-05 </wgt>
<wgt id='morphing_basis_vector_5'> +1.4101620e-04 </wgt>
</rwgt>
</event>
<event>
 4      1 +2.2016400e-08 2.33089600e+03 7.81860800e-03 7.94790900e-02
        2 -1    0    0  501    0 +0.0000000000e+00 +0.0000000000e+00 +1.4096821790e+03 1.4096821790e+03 0.0000000000e+00 0.0000e+00 -1.0000e+00
       -2 -1    0    0    0  501 -0.0000000000e+00 -0.0000000000e+00 -9.6352814739e+02 9.6352814739e+02 0.0000000000e+00 0.0000e+00 1.0000e+00
      -13  1    1    2    0    0 -8.7318405716e+02 +3.9424061550e+02 -4.5259095557e+02 1.0595822921e+03 0.0000000000e+00 0.0000e+00 1.0000e+00
       13  1    1    2    0    0 +8.7318405716e+02 -3.9424061550e+02 +8.9874498715e+02 1.3136280343e+03 0.0000000000e+00 0.0000e+00 -1.0000e+00
<mgrwt>
<rscale>  0 0.23308955E+04</rscale>
<asrwt>0</asrwt>
<pdfrwt beam="1">  1        2 0.21687418E+00 0.23308955E+04</pdfrwt>
<pdfrwt beam="2">  1       -2 0.14823510E+00 0.23308955E+04</pdfrwt>
<totfact> 0.48518054E+00</totfact>
</mgrwt>
<rwgt>
<wgt id='morphing_basis_vector_1'> +9.0362217e-05 </wgt>
<wgt id='morphing_basis_vector_2'> +6.1127221e-05 </wgt>
<wgt id='morphing_basis_vector_3'> +9.7504700e-05 </wgt>
<wgt id='morphing_basis_vector_4'> +6.7969716e-05 </wgt>
<wgt id='morphing_basis_vector_5'> +1.0914290e-04 </wgt>
</rwgt>
</event>
<event>
 4      1 +2.2016400e-08 2.29419700e+03 7.81860800e-03 7.96054300e-02
        2 -1    0    0  501    0 +0.0000000000e+00 +0.0000000000e+00 +3.2531307226e+03 3.2531307226e+03 0.0000000000e+00 0.0000e+00 1.0000e+00
       -2 -1    0    0    0  501 -0.0000000000e+00 -0.0000000000e+00 -4.0448267547e+02 4.0448267547e+02 0.0000000000e+00 0.0000e+00 -1.0000e+00
      -13  1    1    2    0    0 -2.6035033951e+02 +7.9352137892e+02 +1.7062413746e+02 8.5239138567e+02 0.0000000000e+00 0.0000e+00 -1.0000e+00
       13  1    1    2    0    0 +2.6035033951e+02 -7.9352137892e+02 +2.6780239097e+03 2.8052220124e+03 0.0000000000e+00 0.0000e+00 1.0000e+00
<mgrwt>
<rscale>  0 0.22941970E+04</rscale>
<asrwt>0</asrwt>
<pdfrwt beam="1">  1        2 0.50048163E+00 0.22941970E+04</pdfrwt>
<pdfrwt beam="2">  1       -2 0.62228106E-01 0.22941970E+04</pdfrwt>
<totfact> 0.31462714E+00</totfact>
</mgrwt>
<rwgt>
<wgt id='morphing_basis_vector_1'> +8.4748591e-05 </wgt>
<wgt id='morphing_basis_vector_2'> +5.6984413e-05 </wgt>
<wgt id='morphing_basis_vector_3'> +9.1307019e-05 </wgt>
<wgt id='morphing_basis_vector_4'> +6.4009569e-05 </wgt>
<wgt id='morphing_basis_vector_5'> +1.0235500e-04 </wgt>
</rwgt>
</event>
<event>
 4      1 +2.2016400e-08 2.55027400e+03 7.81860800e-03 7.87705600e-02
        2 -1    0    0  501    0 +0.0000000000e+00 +0.0000000000e+00 +2.1051935681e+03 2.1051935681e+03 0.0000000000e+00 0.0000e+00 -1.0000e+00
       -2 -1    0    0    0  501 -0.0000000000e+00 -0.0000000000e+00 -7.7236346811e+02 7.7236346811e+02 0.0000000000e+00 0.0000e+00 1.0000e+00
      -13  1    1    2    0    0 -6.1941820844e+02 +8.9958556725e+02 +1.4089242219e+03 1.7826947503e+03 0.0000000000e+00 0.0000e+00 1.0000e+00
       13  1    1    2    0    0 +6.1941820844e+02 -8.9958556725e+02 -7.6094121877e+01 1.0948622859e+03 0.0000000000e+00 0.0000e+00 -1.0000e+00
<mgrwt>
<rscale>  0 0.25502742E+04</rscale>
<asrwt>0</asrwt>
<pdfrwt beam="1">  1        2 0.32387593E+00 0.25502742E+04</pdfrwt>
<pdfrwt beam="2">  1       -2 0.11882515E+00 0.25502742E+04</pdfrwt>
<totfact> 0.35337434E+00</totfact>
</mgrwt>
<rwgt>
<wgt id='morphing_basis_vector_1'> +1.5315854e-04 </wgt>
<wgt id='morphing_basis_vector_2'> +1.5911115e-04 </wgt>
<wgt id='morphing_basis_vector_3'> +1.7689247e-04 </wgt>
<wgt id='morphing_basis_vector_4'> +4.7960133e-05 </wgt>
<wgt id='morphing_basis_vector_5'> +1.5311457e-04 </wgt>
</rwgt>
</event>
<event>
 4      1 +2.2016400e-08 2.50234400e+03 7.81860800e-03 7.89189600e-02
        2 -1    0    0  501    0 +0.0000000000e+00 +0.0000000000e+00 +2.1205787229e+03 2.1205787229e+03 0.0000000000e+00 0.0000e+00 -1.0000e+00
       -2 -1    0    0    0  501 -0.0000000000e+00 -0.0000000000e+00 -7.3820951228e+02 7.3820951228e+02 0.0000000000e+00 0.0000e+00 1.0000e+00
      -13  1    1    2    0    0 +2.7495723496e+02 -4.1148275380e+02 -6.2163823270e+02 7.9457764258e+02 0.0000000000e+00 0.0000e+00 1.0000e+00
       13  1    1    2    0    0 -2.7495723496e+02 +4.1148275380e+02 +2.0040074433e+03 2.0642105926e+03 0.0000000000e+00 0.0000e+00 -1.0000e+00
<mgrwt>
<rscale>  0 0.25023440E+04</rscale>
<asrwt>0</asrwt>
<pdfrwt beam="1">  1        2 0.32624288E+00 0.25023440E+04</pdfrwt>
<pdfrwt beam="2">  1       -2 0.11357069E+00 0.25023440E+04</pdfrwt>
<totfact> 0.39052852E+00</totfact>
</mgrwt>
<rwgt>
<wgt id='morphing_basis_vector_1'> +1.1920078e-04 </wgt>
<wgt id='morphing_basis_vector_2'> +8.0018081e-05 </wgt>
<wgt id='morphing_basis_vector_3'> +1.2894133e-04 </wgt>
<wgt id='morphing_basis_vector_4'> +9.1350641e-05 </wgt>
<wgt id='morphing_basis_vector_5'> +1.4559998e-04 </wgt>
</rwgt>
</event>
<event>
 4      1 +2.2016400e-08 2.52467700e+03 7.81860800e-03 7.88494000e-02
        2 -1    0    0  501    0 +0.0000000000e+00 +0.0000000000e+00 +1.6923511763e+03 1.6923511763e+03 0.0000000000e+00 0.0000e+00 -1.0000e+00
       -2 -1    0    0    0  501 -0.0000000000e+00 -0.0000000000e+00 -9.4158833725e+02 9.4158833725e+02 0.0000000000e+00 0.0000e+00 1.0000e+00
      -13  1    1    2    0    0 +8.3487514504e+02 +6.7484557294e+02 -3.1748794277e+02 1.1194782932e+03 0.0000000000e+00 0.0000e+00 1.0000e+00
       13  1    1    2    0    0 -8.3487514504e+02 -6.7484557294e+02 +1.0682507818e+03 1.5144612204e+03 0.0000000000e+00 0.0000e+00 -1.0000e+00
<mgrwt>
<rscale>  0 0.25246767E+04</rscale>
<asrwt>0</asrwt>
<pdfrwt beam="1">  1        2 0.26036172E+00 0.25246767E+04</pdfrwt>
<pdfrwt beam="2">  1       -2 0.14485974E+00 0.25246767E+04</pdfrwt>
<totfact> 0.35387528E+00</totfact>
</mgrwt>
<rwgt>
<wgt id='morphing_basis_vector_1'> +1.2392723e-04 </wgt>
<wgt id='morphing_basis_vector_2'> +8.4285296e-05 </wgt>
<wgt id='morphing_basis_vector_3'> +1.3432067e-04 </wgt>
<wgt id='morphing_basis_vector_4'> +9.3732290e-05 </wgt>
<wgt id='morphing_basis_vector_5'> +1.5085742e-04 </wgt>
</rwgt>
</event>
<event>
 4      1 +2.2016400e-08 2.23811500e+03 7.81860800e-03 7.98032900e-02
        2 -1    0    0  501    0 +0.0000000000e+00 +0.0000000000e+00 +9.8480116044e+02 9.8480116044e+02 0.0000000000e+00 0.0000e+00 1.0000e+00
       -2 -1    0    0    0  501 -0.0000000000e+00 -0.0000000000e+00 -1.2716166999e+03 1.2716166999e+03 0.0000000000e+00 0.0000e+00 -1.0000e+00
      -13  1    1    2    0    0 -1.0539870761e+03 +3.6516916277e+02 -2.3387636922e+02 1.1397084847e+03 0.0000000000e+00 0.0000e+00 1.0000e+00
       13  1    1    2    0    0 +1.0539870761e+03 -3.6516916277e+02 -5.2939170240e+01 1.1167093757e+03 0.0000000000e+00 0.0000e+00 -1.0000e+00
<mgrwt>
<rscale>  0 0.22381149E+04</rscale>
<asrwt>0</asrwt>
<pdfrwt beam="1">  1        2 0.15150787E+00 0.22381149E+04</pdfrwt>
<pdfrwt beam="2">  1       -2 0.19563334E+00 0.22381149E+04</pdfrwt>
<totfact> 0.37186513E+00</totfact>
</mgrwt>
<rwgt>
<wgt id='morphing_basis_vector_1'> +7.8868525e-05 </wgt>
<wgt id='morphing_basis_vector_2'> +5.7521027e-05 </wgt>
<wgt id='morphing_basis_vector_3'> +8.5682284e-05 </wgt>
<wgt id='morphing_basis_vector_4'> +5.3868990e-05 </wgt>
<wgt id='morphing_basis_vector_5'> +9.2242273e-05 </wgt>
</rwgt>
</event>
<event>
 4      1 +2.2016400e-08 2.63334100e+03 7.81860800e-03 7.85211100e-02
        2 -1    0    0  501    0 +0.0000000000e+00 +0.0000000000e+00 +8.7337412791e+02 8.7337412791e+02 0.0000000000e+00 0.0000e+00 1.0000e+00
       -2 -1    0    0    0  501 -0.0000000000e+00 -0.0000000000e+00 -1.9849691753e+03 1.9849691753e+03 0.0000000000e+00 0.0000e+00 -1.0000e+00
      -13  1    1    2    0    0 +9.1775884179e+01 +1.0636197758e+03 -1.3923014615e+03 1.7544837418e+03 0.0000000000e+00 0.0000e+00 1.0000e+00
       13  1    1    2    0    0 -9.1775884179e+01 -1.0636197758e+03 +2.8070641416e+02 1.1038595614e+03 0.0000000000e+00 0.0000e+00 -1.0000e+00
<mgrwt>
<rscale>  0 0.26333406E+04</rscale>
<asrwt>0</asrwt>
<pdfrwt beam="1">  1        2 0.13436525E+00 0.26333406E+04</pdfrwt>
<pdfrwt beam="2">  1       -2 0.30537987E+00 0.26333406E+04</pdfrwt>
<totfact> 0.73076567E-01</totfact>
</mgrwt>
<rwgt>
<wgt id='morphing_basis_vector_1'> +1.4621464e-04 </wgt>
<wgt id='morphing_basis_vector_2'> +9.9192514e-05 </wgt>
<wgt id='morphing_basis_vector_3'> +1.5870999e-04 </wgt>
<wgt id='morphing_basis_vector_4'> +1.1149622e-04 </wgt>
<wgt id='morphing_basis_vector_5'> +1.7894448e-04 </wgt>
</rwgt>
</event>
<event>
 4      1 +2.2016400e-08 2.33678400e+03 7.81860800e-03 7.94590400e-02
        2 -1    0    0  501    0 +0.0000000000e+00 +0.0000000000e+00 +1.5384084648e+03 1.5384084648e+03 0.0000000000e+00 0.0000e+00 1.0000e+00
       -2 -1    0    0    0  501 -0.0000000000e+00 -0.0000000000e+00 -8.8737126766e+02 8.8737126766e+02 0.0000000000e+00 0.0000e+00 -1.0000e+00
      -13  1    1    2    0    0 -2.5166646570e+02 -5.4014707430e+02 -7.1776680408e+02 9.3289016335e+02 0.0000000000e+00 0.0000e+00 -1.0000e+00
       13  1    1    2    0    0 +2.5166646570e+02 +5.4014707430e+02 +1.3688040013e+03 1.4928895691e+03 0.0000000000e+00 0.0000e+00 1.0000e+00
<mgrwt>
<rscale>  0 0.23367837E+04</rscale>
<asrwt>0</asrwt>
<pdfrwt beam="1">  1        2 0.23667823E+00 0.23367837E+04</pdfrwt>
<pdfrwt beam="2">  1       -2 0.13651866E+00 0.23367837E+04</pdfrwt>
<totfact> 0.51647939E+00</totfact>
</mgrwt>
<rwgt>
<wgt id='morphing_basis_vector_1'> +9.1009667e-05 </wgt>
<wgt id='morphing_basis_vector_2'> +6.0989153e-05 </wgt>
<wgt id='morphing_basis_vector_3'> +9.8107588e-05 </wgt>
<wgt id='morphing_basis_vector_4'> +6.9188341e-05 </wgt>
<wgt id='morphing_basis_vector_5'> +1.1030811e-04 </wgt>
</rwgt>
</event>
<event>
 4      1 +2.2016400e-08 2.63580900e+03 7.81860800e-03 7.85138400e-02
        2 -1    0    0  501    0 +0.0000000000e+00 +0.0000000000e+00 +2.8069123734e+03 2.8069123734e+03 0.0000000000e+00 0.0000e+00 -1.0000e+00
       -2 -1    0    0    0  501 -0.0000000000e+00 -0.0000000000e+00 -6.1878392780e+02 6.1878392780e+02 0.0000000000e+00 0.0000e+00 1.0000e+00
      -13  1    1    2    0    0 +1.0149689710e+03 +7.7675074579e+02 +6.7620586437e+02 1.4459454015e+03 0.0000000000e+00 0.0000e+00 1.0000e+00
       13  1    1    2    0    0 -1.0149689710e+03 -7.7675074579e+02 +1.5119225812e+03 1.9797508997e+03 0.0000000000e+00 0.0000e+00 -1.0000e+00
<mgrwt>
<rscale>  0 0.26358090E+04</rscale>
<asrwt>0</asrwt>
<pdfrwt beam="1">  1        2 0.43183266E+00 0.26358090E+04</pdfrwt>
<pdfrwt beam="2">  1       -2 0.95197529E-01 0.26358090E+04</pdfrwt>
<totfact> 0.23240385E+00</totfact>
</mgrwt>
<rwgt>
<wgt id='morphing_basis_vector_1'> +1.4846794e-04 </wgt>
<wgt id='morphing_basis_vector_2'> +1.0460805e-04 </wgt>
<wgt id='morphing_basis_vector_3'> +1.6193825e-04 </wgt>
<wgt id='morphing_basis_vector_4'> +1.0839548e-04 </wgt>
<wgt id='morphing_basis_vector_5'> +1.7933718e-04 </wgt>
</rwgt>
</event>
<event>
 4      1 +2.2016400e-08 2.26056300e+03 7.81860800e-03 7.97233800e-02
        2 -1    0    0  501    0 +0.0000000000e+00 +0.0000000000e+00 +1.8251852794e+03 1.8251852794e+03 0.0000000000e+00 0.0000e+00 1.0000e+00
       -2 -1    0    0    0  501 -0.0000000000e+00 -0.0000000000e+00 -6.9994857788e+02 6.9994857788e+02 0.0000000000e+00 0.0000e+00 -1.0000e+00
      -13  1    1    2    0    0 -4.7259449861e+02 -6.9861446222e+02 -2.7785747022e+02 8.8803856937e+02 0.0000000000e+00 0.0000e+00 -1.0000e+00
       13  1    1    2    0    0 +4.7259449861e+02 +6.9861446222e+02 +1.4030941718e+03 1.6370952879e+03 0.0000000000e+00 0.0000e+00 1.0000e+00
<mgrwt>
<rscale>  0 0.22605626E+04</rscale>
<asrwt>0</asrwt>
<pdfrwt beam="1">  1        2 0.28079773E+00 0.22605626E+04</pdfrwt>
<pdfrwt beam="2">  1       -2 0.10768440E+00 0.22605626E+04</pdfrwt>
<totfact> 0.66809861E+00</totfact>
</mgrwt>
<rwgt>
<wgt id='morphing_basis_vector_1'> +7.9978436e-05 </wgt>
<wgt id='morphing_basis_vector_2'> +5.3788258e-05 </wgt>
<wgt id='morphing_basis_vector_3'> +8.6101552e-05 </wgt>
<wgt id='morphing_basis_vector_4'> +6.0248504e-05 </wgt>
<wgt id='morphing_basis_vector_5'> +9.6392340e-05 </wgt>
</rwgt>
</event>
<event>
 4      1 +2.2016400e-08 2.40760300e+03 7.81860800e-03 7.92225700e-02
        2 -1    0    0  501    0 +0.0000000000e+00 +0.0000000000e+00 +8.9566220715e+02 8.9566220715e+02 0.0000000000e+00 0.0000e+00 -1.0000e+00
       -2 -1    0    0    0  501 -0.0000000000e+00 -0.0000000000e+00 -1.6179512469e+03 1.6179512469e+03 0.0000000000e+00 0.0000e+00 1.0000e+00
      -13  1    1    2    0    0 -1.3339950515e+02 -1.1839607492e+03 -5.4070369914e+02 1.3084032153e+03 0.0000000000e+00 0.0000e+00 1.0000e+00
       13  1    1    2    0    0 +1.3339950515e+02 +1.1839607492e+03 -1.8158534066e+02 1.2052102388e+03 0.0000000000e+00 0.0000e+00 -1.0000e+00
<mgrwt>
<rscale>  0 0.24076028E+04</rscale>
<asrwt>0</asrwt>
<pdfrwt beam="1">  1        2 0.13779419E+00 0.24076028E+04</pdfrwt>
<pdfrwt beam="2">  1       -2 0.24891557E+00 0.24076028E+04</pdfrwt>
<totfact> 0.17487594E+00</totfact>
</mgrwt>
<rwgt>
<wgt id='morphing_basis_vector_1'> +1.0455960e-04 </wgt>
<wgt id='morphing_basis_vector_2'> +7.5119254e-05 </wgt>
<wgt id='morphing_basis_vector_3'> +1.1384648e-04 </wgt>
<wgt id='morphing_basis_vector_4'> +7.3639925e-05 </wgt>
<wgt id='morphing_basis_vector_5'> +1.2415256e-04 </wgt>
</rwgt>
</event>
<event>
 4      1 +2.2016400e-08 2.34293500e+03 7.81860800e-03 7.94381600e-02
        2 -1    0    0  501    0 +0.0000000000e+00 +0.0000000000e+00 +1.5827783040e+03 1.5827783040e+03 0.0000000000e+00 0.0000e+00 1.0000e+00
       -2 -1    0    0    0  501 -0.0000000000e+00 -0.0000000000e+00 -8.6704266765e+02 8.6704266765e+02 0.0000000000e+00 0.0000e+00 -1.0000e+00
      -13  1    1    2    0    0 -3.9589141635e+01 +1.0747905844e+03 +8.4337161709e+02 1.3667544714e+03 0.0000000000e+00 0.0000e+00 1.0000e+00
       13  1    1    2    0    0 +3.9589141635e+01 -1.0747905844e+03 -1.2763598070e+02 1.0830665003e+03 0.0000000000e+00 0.0000e+00 -1.0000e+00
<mgrwt>
<rscale>  0 0.23429352E+04</rscale>
<asrwt>0</asrwt>
<pdfrwt beam="1">  1        2 0.24350435E+00 0.23429352E+04</pdfrwt>
<pdfrwt beam="2">  1       -2 0.13339118E+00 0.23429352E+04</pdfrwt>
<totfact> 0.51959340E+00</totfact>
</mgrwt>
<rwgt>
<wgt id='morphing_basis_vector_1'> +1.0453784e-04 </wgt>
<wgt id='morphing_basis_vector_2'> +9.8783344e-05 </wgt>
<wgt id='morphing_basis_vector_3'> +1.1812372e-04 </wgt>
<wgt id='morphing_basis_vector_4'> +4.4336717e-05 </wgt>
<wgt id='morphing_basis_vector_5'> +1.0943064e-04 </wgt>
</rwgt>
</event>
<event>
 4      1 +2.2016400e-08 2.23350700e+03 7.81860800e-03 7.98198100e-02
        2 -1    0    0  501    0 +0.0000000000e+00 +0.0000000000e+00 +1.2795103203e+03 1.2795103203e+03 0.0000000000e+00 0.0000e+00 1.0000e+00
       -2 -1    0    0    0  501 -0.0000000000e+00 -0.0000000000e+00 -9.7469986864e+02 9.7469986864e+02 0.0000000000e+00 0.0000e+00 -1.0000e+00
      -13  1    1    2    0    0 +4.7443243376e+02 +7.3776239405e+02 -5.4520289375e+02 1.0327757160e+03 0.0000000000e+00 0.0000e+00 -1.0000e+00
       13  1    1    2    0    0 -4.7443243376e+02 -7.3776239405e+02 +8.5001334544e+02 1.2214344729e+03 0.0000000000e+00 0.0000e+00 1.0000e+00
<mgrwt>
<rscale>  0 0.22335071E+04</rscale>
<asrwt>0</asrwt>
<pdfrwt beam="1">  1        2 0.19684774E+00 0.22335071E+04</pdfrwt>
<pdfrwt beam="2">  1       -2 0.14995383E+00 0.22335071E+04</pdfrwt>
<totfact> 0.56152450E+00</totfact>
</mgrwt>
<rwgt>
<wgt id='morphing_basis_vector_1'> +7.6323050e-05 </wgt>
<wgt id='morphing_basis_vector_2'> +5.1412536e-05 </wgt>
<wgt id='morphing_basis_vector_3'> +8.2126933e-05 </wgt>
<wgt id='morphing_basis_vector_4'> +5.7279311e-05 </wgt>
<wgt id='morphing_basis_vector_5'> +9.1782046e-05 </wgt>
</rwgt>
</event>
<event>
 4      1 +2.2016400e-08 2.44306100e+03 7.81860800e-03 7.91072900e-02
        2 -1    0    0  501    0 +0.0000000000e+00 +0.0000000000e+00 +2.0464759847e+03 2.0464759847e+03 0.0000000000e+00 0.0000e+00 -1.0000e+00
       -2 -1    0    0    0  501 -0.0000000000e+00 -0.0000000000e+00 -7.2912503191e+02 7.2912503191e+02 0.0000000000e+00 0.0000e+00 1.0000e+00
      -13  1    1    2    0    0 -1.0478358381e+03 +4.4912813872e+02 +1.6025726867e+02 1.1512421208e+03 0.0000000000e+00 0.0000e+00 1.0000e+00
       13  1    1    2    0    0 +1.0478358381e+03 -4.4912813872e+02 +1.1570936841e+03 1.6243588958e+03 0.0000000000e+00 0.0000e+00 -1.0000e+00
<mgrwt>
<rscale>  0 0.24430611E+04</rscale>
<asrwt>0</asrwt>
<pdfrwt beam="1">  1        2 0.31484246E+00 0.24430611E+04</pdfrwt>
<pdfrwt beam="2">  1       -2 0.11217308E+00 0.24430611E+04</pdfrwt>
<totfact> 0.44614469E+00</totfact>
</mgrwt>
<rwgt>
<wgt id='morphing_basis_vector_1'> +1.0938782e-04 </wgt>
<wgt id='morphing_basis_vector_2'> +7.5541163e-05 </wgt>
<wgt id='morphing_basis_vector_3'> +1.1860489e-04 </wgt>
<wgt id='morphing_basis_vector_4'> +8.0954528e-05 </wgt>
<wgt id='morphing_basis_vector_5'> +1.3196195e-04 </wgt>
</rwgt>
</event>
<event>
 4      1 +2.2016400e-08 2.31587200e+03 7.81860800e-03 7.95305200e-02
        2 -1    0    0  501    0 +0.0000000000e+00 +0.0000000000e+00 +1.0190440829e+03 1.0190440829e+03 0.0000000000e+00 0.0000e+00 1.0000e+00
       -2 -1    0    0    0  501 -0.0000000000e+00 -0.0000000000e+00 -1.3157579320e+03 1.3157579320e+03 0.0000000000e+00 0.0000e+00 -1.0000e+00
      -13  1    1    2    0    0 -8.1751152089e+02 +1.2425609741e+02 +6.6885559433e+02 1.0635471172e+03 0.0000000000e+00 0.0000e+00 1.0000e+00
       13  1    1    2    0    0 +8.1751152089e+02 -1.2425609741e+02 -9.6556944343e+02 1.2712548976e+03 0.0000000000e+00 0.0000e+00 -1.0000e+00
<mgrwt>
<rscale>  0 0.23158716E+04</rscale>
<asrwt>0</asrwt>
<pdfrwt beam="1">  1        2 0.15677601E+00 0.23158716E+04</pdfrwt>
<pdfrwt beam="2">  1       -2 0.20242430E+00 0.23158716E+04</pdfrwt>
<totfact> 0.31369874E+00</totfact>
</mgrwt>
<rwgt>
<wgt id='morphing_basis_vector_1'> +1.1315840e-04 </wgt>
<wgt id='morphing_basis_vector_2'> +1.3362456e-04 </wgt>
<wgt id='morphing_basis_vector_3'> +1.3275531e-04 </wgt>
<wgt id='morphing_basis_vector_4'> +1.5280182e-05 </wgt>
<wgt id='morphing_basis_vector_5'> +1.0221957e-04 </wgt>
</rwgt>
</event>
<event>
 4      1 +2.2016400e-08 2.60064800e+03 7.81860800e-03 7.86181500e-02
        2 -1    0    0  501    0 +0.0000000000e+00 +0.0000000000e+00 +3.1737552252e+03 3.1737552252e+03 0.0000000000e+00 0.0000e+00 -1.0000e+00
       -2 -1    0    0    0  501 -0.0000000000e+00 -0.0000000000e+00 -5.3275750601e+02 5.3275750601e+02 0.0000000000e+00 0.0000e+00 1.0000e+00
      -13  1    1    2    0    0 -3.6830360973e+02 -4.3427541565e+02 -3.4561464204e+02 6.6610221916e+02 0.0000000000e+00 0.0000e+00 1.0000e+00
       13  1    1    2    0    0 +3.6830360973e+02 +4.3427541565e+02 +2.9866123612e+03 3.0404105121e+03 0.0000000000e+00 0.0000e+00 -1.0000e+00
<mgrwt>
<rscale>  0 0.26006475E+04</rscale>
<asrwt>0</asrwt>
<pdfrwt beam="1">  1        2 0.48827002E+00 0.26006475E+04</pdfrwt>
<pdfrwt beam="2">  1       -2 0.81962695E-01 0.26006475E+04</pdfrwt>
<totfact> 0.19069411E+00</totfact>
</mgrwt>
<rwgt>
<wgt id='morphing_basis_vector_1'> +1.3880255e-04 </wgt>
<wgt id='morphing_basis_vector_2'> +9.3296035e-05 </wgt>
<wgt id='morphing_basis_vector_3'> +1.5041507e-04 </wgt>
<wgt id='morphing_basis_vector_4'> +1.0675821e-04 </wgt>
<wgt id='morphing_basis_vector_5'> +1.7018449e-04 </wgt>
</rwgt>
</event>
<event>
 4      1 +2.2016400e-08 2.46749400e+03 7.81860800e-03 7.90290200e-02
        2 -1    0    0  501    0 +0.0000000000e+00 +0.0000000000e+00 +2.7890688124e+03 2.7890688124e+03 0.0000000000e+00 0.0000e+00 -1.0000e+00
       -2 -1    0    0    0  501 -0.0000000000e+00 -0.0000000000e+00 -5.4574885858e+02 5.4574885858e+02 0.0000000000e+00 0.0000e+00 1.0000e+00
      -13  1    1    2    0    0 -3.0241914426e+02 +1.1381750881e+03 +6.2466202573e+02 1.3330800862e+03 0.0000000000e+00 0.0000e+00 1.0000e+00
       13  1    1    2    0    0 +3.0241914426e+02 -1.1381750881e+03 +1.6186579280e+03 2.0017375847e+03 0.0000000000e+00 0.0000e+00 -1.0000e+00
<mgrwt>
<rscale>  0 0.24674936E+04</rscale>
<asrwt>0</asrwt>
<pdfrwt beam="1">  1        2 0.42908750E+00 0.24674936E+04</pdfrwt>
<pdfrwt beam="2">  1       -2 0.83961364E-01 0.24674936E+04</pdfrwt>
<totfact> 0.32439828E+00</totfact>
</mgrwt>
<rwgt>
<wgt id='morphing_basis_vector_1'> +1.1407293e-04 </wgt>
<wgt id='morphing_basis_vector_2'> +7.9488143e-05 </wgt>
<wgt id='morphing_basis_vector_3'> +1.2388118e-04 </wgt>
<wgt id='morphing_basis_vector_4'> +8.3662382e-05 </wgt>
<wgt id='morphing_basis_vector_5'> +1.3734263e-04 </wgt>
</rwgt>
</event>
<event>
 4      1 +2.2016400e-08 2.45906300e+03 7.81860800e-03 7.90559200e-02
        2 -1    0    0  501    0 +0.0000000000e+00 +0.0000000000e+00 +9.3123630645e+02 9.3123630645e+02 0.0000000000e+00 0.0000e+00 -1.0000e+00
       -2 -1    0    0    0  501 -0.0000000000e+00 -0.0000000000e+00 -1.6233767763e+03 1.6233767763e+03 0.0000000000e+00 0.0000e+00 1.0000e+00
      -13  1    1    2    0    0 -9.6227757607e+02 +4.8683960931e+02 -9.5957317613e+02 1.4435274916e+03 0.0000000000e+00 0.0000e+00 1.0000e+00
       13  1    1    2    0    0 +9.6227757607e+02 -4.8683960931e+02 +2.6743270625e+02 1.1110855912e+03 0.0000000000e+00 0.0000e+00 -1.0000e+00
<mgrwt>
<rscale>  0 0.24590627E+04</rscale>
<asrwt>0</asrwt>
<pdfrwt beam="1">  1        2 0.14326713E+00 0.24590627E+04</pdfrwt>
<pdfrwt beam="2">  1       -2 0.24975027E+00 0.24590627E+04</pdfrwt>
<totfact> 0.16290735E+00</totfact>
</mgrwt>
<rwgt>
<wgt id='morphing_basis_vector_1'> +1.1181035e-04 </wgt>
<wgt id='morphing_basis_vector_2'> +7.6252903e-05 </wgt>
<wgt id='morphing_basis_vector_3'> +1.2108335e-04 </wgt>
<wgt id='morphing_basis_vector_4'> +8.4008065e-05 </wgt>
<wgt id='morphing_basis_vector_5'> +1.3557194e-04 </wgt>
</rwgt>
</event>
<event>
 4      1 +2.2016400e-08 2.27184500e+03 7.81860800e-03 7.96835900e-02
        2 -1    0    0  501    0 +0.0000000000e+00 +0.0000000000e+00 +1.7341330959e+03 1.7341330959e+03 0.0000000000e+00 0.0000e+00 -1.0000e+00
       -2 -1    0    0    0  501 -0.0000000000e+00 -0.0000000000e+00 -7.4407184221e+02 7.4407184221e+02 0.0000000000e+00 0.0000e+00 1.0000e+00
      -13  1    1    2    0    0 +1.1127343435e+03 +1.7570400372e+02 +3.3594086574e+02 1.1755449295e+03 0.0000000000e+00 0.0000e+00 1.0000e+00
       13  1    1    2    0    0 -1.1127343435e+03 -1.7570400372e+02 +6.5412038795e+02 1.3026600086e+03 0.0000000000e+00 0.0000e+00 -1.0000e+00
<mgrwt>
<rscale>  0 0.22718447E+04</rscale>
<asrwt>0</asrwt>
<pdfrwt beam="1">  1        2 0.26678971E+00 0.22718447E+04</pdfrwt>
<pdfrwt beam="2">  1       -2 0.11447259E+00 0.22718447E+04</pdfrwt>
<totfact> 0.64319442E+00</totfact>
</mgrwt>
<rwgt>
<wgt id='morphing_basis_vector_1'> +8.3282350e-05 </wgt>
<wgt id='morphing_basis_vector_2'> +5.9947559e-05 </wgt>
<wgt id='morphing_basis_vector_3'> +9.0412005e-05 </wgt>
<wgt id='morphing_basis_vector_4'> +5.7990984e-05 </wgt>
<wgt id='morphing_basis_vector_5'> +9.8081822e-05 </wgt>
</rwgt>
</event>
<event>
 4      1 +2.2016400e-08 2.41121200e+03 7.81860800e-03 7.92107400e-02
        2 -1    0    0  501    0 +0.0000000000e+00 +0.0000000000e+00 +3.1565518531e+03 3.1565518531e+03 0.0000000000e+00 0.0000e+00 -1.0000e+00
       -2 -1    0    0    0  501 -0.0000000000e+00 -0.0000000000e+00 -4.6046650439e+02 4.6046650439e+02 0.0000000000e+00 0.0000e+00 1.0000e+00
      -13  1    1    2    0    0 -5.5696567031e+02 -9.8101089121e+02 +7.1003421434e+02 1.3329447521e+03 0.0000000000e+00 0.0000e+00 1.0000e+00
       13  1    1    2    0    0 +5.5696567031e+02 +9.8101089121e+02 +1.9860511344e+03 2.2840736054e+03 0.0000000000e+00 0.0000e+00 -1.0000e+00
<mgrwt>
<rscale>  0 0.24112125E+04</rscale>
<asrwt>0</asrwt>
<pdfrwt beam="1">  1        2 0.48562335E+00 0.24112125E+04</pdfrwt>
<pdfrwt beam="2">  1       -2 0.70841003E-01 0.24112125E+04</pdfrwt>
<totfact> 0.27538277E+00</totfact>
</mgrwt>
<rwgt>
<wgt id='morphing_basis_vector_1'> +1.0389563e-04 </wgt>
<wgt id='morphing_basis_vector_2'> +7.1778319e-05 </wgt>
<wgt id='morphing_basis_vector_3'> +1.1258376e-04 </wgt>
<wgt id='morphing_basis_vector_4'> +7.6708548e-05 </wgt>
<wgt id='morphing_basis_vector_5'> +1.2512067e-04 </wgt>
</rwgt>
</event>
<event>
 4      1 +2.2016400e-08 2.66901200e+03 7.81860800e-03 7.84168500e-02
        2 -1    0    0  501    0 +0.0000000000e+00 +0.0000000000e+00 +2.2896288211e+03 2.2896288211e+03 0.0000000000e+00 0.0000e+00 -1.0000e+00
       -2 -1    0    0    0  501 -0.0000000000e+00 -0.0000000000e+00 -7.7781419526e+02 7.7781419526e+02 0.0000000000e+00 0.0000e+00 1.0000e+00
      -13  1    1    2    0    0 -4.5792735227e+02 +1.1769211357e+03 +1.2516523253e+03 1.7780535321e+03 0.0000000000e+00 0.0000e+00 1.0000e+00
       13  1    1    2    0    0 +4.5792735227e+02 -1.1769211357e+03 +2.6016230057e+02 1.2893894843e+03 0.0000000000e+00 0.0000e+00 -1.0000e+00
<mgrwt>
<rscale>  0 0.26690117E+04</rscale>
<asrwt>0</asrwt>
<pdfrwt beam="1">  1        2 0.35225058E+00 0.26690117E+04</pdfrwt>
<pdfrwt beam="2">  1       -2 0.11966372E+00 0.26690117E+04</pdfrwt>
<totfact> 0.26925820E+00</totfact>
</mgrwt>
<rwgt>
<wgt id='morphing_basis_vector_1'> +1.7063563e-04 </wgt>
<wgt id='morphing_basis_vector_2'> +1.5310122e-04 </wgt>
<wgt id='morphing_basis_vector_3'> +1.9281429e-04 </wgt>
<wgt id='morphing_basis_vector_4'> +8.3842484e-05 </wgt>
<wgt id='morphing_basis_vector_5'> +1.8619269e-04 </wgt>
</rwgt>
</event>
<event>
 4      1 +2.2016400e-08 2.51205800e+03 7.81860800e-03 7.88886100e-02
        2 -1    0    0  501    0 +0.0000000000e+00 +0.0000000000e+00 +3.7155728482e+03 3.7155728482e+03 0.0000000000e+00 0.0000e+00 -1.0000e+00
       -2 -1    0    0    0  501 -0.0000000000e+00 -0.0000000000e+00 -4.2459387221e+02 4.2459387221e+02 0.0000000000e+00 0.0000e+00 1.0000e+00
      -13  1    1    2    0    0 -6.7951518853e+01 -7.6852830468e+02 +1.1976468606e+01 7.7161946568e+02 0.0000000000e+00 0.0000e+00 1.0000e+00
       13  1    1    2    0    0 +6.7951518853e+01 +7.6852830468e+02 +3.2790025074e+03 3.3685472547e+03 0.0000000000e+00 0.0000e+00 -1.0000e+00
<mgrwt>
<rscale>  0 0.25120585E+04</rscale>
<asrwt>0</asrwt>
<pdfrwt beam="1">  1        2 0.57162657E+00 0.25120585E+04</pdfrwt>
<pdfrwt beam="2">  1       -2 0.65322137E-01 0.25120585E+04</pdfrwt>
<totfact> 0.12835081E+00</totfact>
</mgrwt>
<rwgt>
<wgt id='morphing_basis_vector_1'> +1.2109777e-04 </wgt>
<wgt id='morphing_basis_vector_2'> +8.1436628e-05 </wgt>
<wgt id='morphing_basis_vector_3'> +1.3104407e-04 </wgt>
<wgt id='morphing_basis_vector_4'> +9.2673392e-05 </wgt>
<wgt id='morphing_basis_vector_5'> +1.4789345e-04 </wgt>
</rwgt>
</event>
<event>
 4      1 +2.2016400e-08 2.36712900e+03 7.81860800e-03 7.93566800e-02
        2 -1    0    0  501    0 +0.0000000000e+00 +0.0000000000e+00 +2.0913059011e+03 2.0913059011e+03 0.0000000000e+00 0.0000e+00 -1.0000e+00
       -2 -1    0    0    0  501 -0.0000000000e+00 -0.0000000000e+00 -6.6983271146e+02 6.6983271146e+02 0.0000000000e+00 0.0000e+00 1.0000e+00
      -13  1    1    2    0    0 +7.9002136355e+02 -4.7796684314e+02 -1.5294017124e+02 9.3593629804e+02 0.0000000000e+00 0.0000e+00 1.0000e+00
       13  1    1    2    0    0 -7.9002136355e+02 +4.7796684314e+02 +1.5744133609e+03 1.8252023145e+03 0.0000000000e+00 0.0000e+00 -1.0000e+00
<mgrwt>
<rscale>  0 0.23671291E+04</rscale>
<asrwt>0</asrwt>
<pdfrwt beam="1">  1        2 0.32173937E+00 0.23671291E+04</pdfrwt>
<pdfrwt beam="2">  1       -2 0.10305119E+00 0.23671291E+04</pdfrwt>
<totfact> 0.52300926E+00</totfact>
</mgrwt>
<rwgt>
<wgt id='morphing_basis_vector_1'> +9.5940726e-05 </wgt>
<wgt id='morphing_basis_vector_2'> +6.4740829e-05 </wgt>
<wgt id='morphing_basis_vector_3'> +1.0357486e-04 </wgt>
<wgt id='morphing_basis_vector_4'> +7.2532278e-05 </wgt>
<wgt id='morphing_basis_vector_5'> +1.1620736e-04 </wgt>
</rwgt>
</event>
<event>
 4      1 +2.2016400e-08 2.28509200e+03 7.81860800e-03 7.96371600e-02
        2 -1    0    0  501    0 +0.0000000000e+00 +0.0000000000e+00 +1.6715868394e+03 1.6715868394e+03 0.0000000000e+00 0.0000e+00 -1.0000e+00
       -2 -1    0    0    0  501 -0.0000000000e+00 -0.0000000000e+00 -7.8094164229e+02 7.8094164229e+02 0.0000000000e+00 0.0000e+00 1.0000e+00
      -13  1    1    2    0    0 +6.6015591508e+02 -9.9106199280e+00 -5.5547676967e+02 8.6282008220e+02 0.0000000000e+00 0.0000e+00 1.0000e+00
       13  1    1    2    0    0 -6.6015591508e+02 +9.9106199280e+00 +1.4461219668e+03 1.5897083995e+03 0.0000000000e+00 0.0000e+00 -1.0000e+00
<mgrwt>
<rscale>  0 0.22850924E+04</rscale>
<asrwt>0</asrwt>
<pdfrwt beam="1">  1        2 0.25716720E+00 0.22850924E+04</pdfrwt>
<pdfrwt beam="2">  1       -2 0.12014487E+00 0.22850924E+04</pdfrwt>
<totfact> 0.61457775E+00</totfact>
</mgrwt>
<rwgt>
<wgt id='morphing_basis_vector_1'> +8.3349015e-05 </wgt>
<wgt id='morphing_basis_vector_2'> +5.5846396e-05 </wgt>
<wgt id='morphing_basis_vector_3'> +8.9743576e-05 </wgt>
<wgt id='morphing_basis_vector_4'> +6.3152527e-05 </wgt>
<wgt id='morphing_basis_vector_5'> +1.0072880e-04 </wgt>
</rwgt>
</event>
<event>
 4      1 +2.2016400e-08 2.23589200e+03 7.81860800e-03 7.98112500e-02
        2 -1    0    0  501    0 +0.0000000000e+00 +0.0000000000e+00 +1.7656909678e+03 1.7656909678e+03 0.0000000000e+00 0.0000e+00 -1.0000e+00
       -2 -1    0    0    0  501 -0.0000000000e+00 -0.0000000000e+00 -7.0782702638e+02 7.0782702638e+02 0.0000000000e+00 0.0000e+00 1.0000e+00
      -13  1    1    2    0    0 -2.1182197154e+01 +1.1125862356e+03 +4.1026095653e+02 1.1860062688e+03 0.0000000000e+00 0.0000e+00 1.0000e+00
       13  1    1    2    0    0 +2.1182197154e+01 -1.1125862356e+03 +6.4760298491e+02 1.2875117254e+03 0.0000000000e+00 0.0000e+00 -1.0000e+00
<mgrwt>
<rscale>  0 0.22358925E+04</rscale>
<asrwt>0</asrwt>
<pdfrwt beam="1">  1        2 0.27164476E+00 0.22358925E+04</pdfrwt>
<pdfrwt beam="2">  1       -2 0.10889647E+00 0.22358925E+04</pdfrwt>
<totfact> 0.70276167E+00</totfact>
</mgrwt>
<rwgt>
<wgt id='morphing_basis_vector_1'> +7.8441143e-05 </wgt>
<wgt id='morphing_basis_vector_2'> +5.6941171e-05 </wgt>
<wgt id='morphing_basis_vector_3'> +8.5163614e-05 </wgt>
<wgt id='morphing_basis_vector_4'> +5.3894022e-05 </wgt>
<wgt id='morphing_basis_vector_5'> +9.1889994e-05 </wgt>
</rwgt>
</event>
<event>
 4      1 +2.2016400e-08 2.36351300e+03 7.81860800e-03 7.93687900e-02
        2 -1    0    0  501    0 +0.0000000000e+00 +0.0000000000e+00 +1.7965929221e+03 1.7965929221e+03 0.0000000000e+00 0.0000e+00 -1.0000e+00
       -2 -1    0    0    0  501 -0.0000000000e+00 -0.0000000000e+00 -7.7733141383e+02 7.7733141383e+02 0.0000000000e+00 0.0000e+00 1.0000e+00
      -13  1    1    2    0    0 -5.8459826890e+02 +7.3992149768e+02 -2.6603421777e+02 9.7980261469e+02 0.0000000000e+00 0.0000e+00 1.0000e+00
       13  1    1    2    0    0 +5.8459826890e+02 -7.3992149768e+02 +1.2852957260e+03 1.5941217212e+03 0.0000000000e+00 0.0000e+00 -1.0000e+00
<mgrwt>
<rscale>  0 0.23635127E+04</rscale>
<asrwt>0</asrwt>
<pdfrwt beam="1">  1        2 0.27639891E+00 0.23635127E+04</pdfrwt>
<pdfrwt beam="2">  1       -2 0.11958945E+00 0.23635127E+04</pdfrwt>
<totfact> 0.52636353E+00</totfact>
</mgrwt>
<rwgt>
<wgt id='morphing_basis_vector_1'> +9.5396346e-05 </wgt>
<wgt id='morphing_basis_vector_2'> +6.4443304e-05 </wgt>
<wgt id='morphing_basis_vector_3'> +1.0299254e-04 </wgt>
<wgt id='morphing_basis_vector_4'> +7.2018530e-05 </wgt>
<wgt id='morphing_basis_vector_5'> +1.1548345e-04 </wgt>
</rwgt>
</event>
<event>
 4      1 +2.2016400e-08 2.47029100e+03 7.81860800e-03 7.90201200e-02
        2 -1    0    0  501    0 +0.0000000000e+00 +0.0000000000e+00 +7.0447907518e+02 7.0447907518e+02 0.0000000000e+00 0.0000e+00 1.0000e+00
       -2 -1    0    0    0  501 -0.0000000000e+00 -0.0000000000e+00 -2.1655500149e+03 2.1655500149e+03 0.0000000000e+00 0.0000e+00 -1.0000e+00
      -13  1    1    2    0    0 +7.9568370101e+02 +6.6393285518e+02 -1.5113475072e+03 1.8325093931e+03 0.0000000000e+00 0.0000e+00 -1.0000e+00
       13  1    1    2    0    0 -7.9568370101e+02 -6.6393285518e+02 +5.0276567565e+01 1.0375196969e+03 0.0000000000e+00 0.0000e+00 1.0000e+00
<mgrwt>
<rscale>  0 0.24702912E+04</rscale>
<asrwt>0</asrwt>
<pdfrwt beam="1">  1        2 0.10838139E+00 0.24702912E+04</pdfrwt>
<pdfrwt beam="2">  1       -2 0.33316154E+00 0.24702912E+04</pdfrwt>
<totfact> 0.63651578E-01</totfact>
</mgrwt>
<rwgt>
<wgt id='morphing_basis_vector_1'> +1.1367625e-04 </wgt>
<wgt id='morphing_basis_vector_2'> +7.7167475e-05 </wgt>
<wgt id='morphing_basis_vector_3'> +1.2306067e-04 </wgt>
<wgt id='morphing_basis_vector_4'> +8.5905548e-05 </wgt>
<wgt id='morphing_basis_vector_5'> +1.3812518e-04 </wgt>
</rwgt>
</event>
<event>
 4      1 +2.2016400e-08 2.31413800e+03 7.81860800e-03 7.95364800e-02
        2 -1    0    0  501    0 +0.0000000000e+00 +0.0000000000e+00 +1.2484555756e+03 1.2484555756e+03 0.0000000000e+00 0.0000e+00 1.0000e+00
       -2 -1    0    0    0  501 -0.0000000000e+00 -0.0000000000e+00 -1.0723719585e+03 1.0723719585e+03 0.0000000000e+00 0.0000e+00 -1.0000e+00
      -13  1    1    2    0    0 -9.7211045634e+02 -2.5711711958e+02 -4.8606454219e+02 1.1168557166e+03 0.0000000000e+00 0.0000e+00 -1.0000e+00
       13  1    1    2    0    0 +9.7211045634e+02 +2.5711711958e+02 +6.6214815933e+02 1.2039718175e+03 0.0000000000e+00 0.0000e+00 1.0000e+00
<mgrwt>
<rscale>  0 0.23141381E+04</rscale>
<asrwt>0</asrwt>
<pdfrwt beam="1">  1        2 0.19207009E+00 0.23141381E+04</pdfrwt>
<pdfrwt beam="2">  1       -2 0.16498030E+00 0.23141381E+04</pdfrwt>
<totfact> 0.43935552E+00</totfact>
</mgrwt>
<rwgt>
<wgt id='morphing_basis_vector_1'> +8.7965651e-05 </wgt>
<wgt id='morphing_basis_vector_2'> +5.9800714e-05 </wgt>
<wgt id='morphing_basis_vector_3'> +9.4938339e-05 </wgt>
<wgt id='morphing_basis_vector_4'> +6.5732453e-05 </wgt>
<wgt id='morphing_basis_vector_5'> +1.0597029e-04 </wgt>
</rwgt>
</event>
<event>
 4      1 +2.2016400e-08 2.46760300e+03 7.81860800e-03 7.90286700e-02
        2 -1    0    0  501    0 +0.0000000000e+00 +0.0000000000e+00 +2.9329154374e+03 2.9329154374e+03 0.0000000000e+00 0.0000e+00 -1.0000e+00
       -2 -1    0    0    0  501 -0.0000000000e+00 -0.0000000000e+00 -5.1902844145e+02 5.1902844145e+02 0.0000000000e+00 0.0000e+00 1.0000e+00
      -13  1    1    2    0    0 +9.9274745555e+02 +8.6439205614e+01 +1.8924836008e+02 1.0143146398e+03 0.0000000000e+00 0.0000e+00 1.0000e+00
       13  1    1    2    0    0 -9.9274745555e+02 -8.6439205614e+01 +2.2246386359e+03 2.4376292390e+03 0.0000000000e+00 0.0000e+00 -1.0000e+00
<mgrwt>
<rscale>  0 0.24676033E+04</rscale>
<asrwt>0</asrwt>
<pdfrwt beam="1">  1        2 0.45121775E+00 0.24676033E+04</pdfrwt>
<pdfrwt beam="2">  1       -2 0.79850531E-01 0.24676033E+04</pdfrwt>
<totfact> 0.29490171E+00</totfact>
</mgrwt>
<rwgt>
<wgt id='morphing_basis_vector_1'> +1.1309623e-04 </wgt>
<wgt id='morphing_basis_vector_2'> +7.6560631e-05 </wgt>
<wgt id='morphing_basis_vector_3'> +1.2238533e-04 </wgt>
<wgt id='morphing_basis_vector_4'> +8.5717098e-05 </wgt>
<wgt id='morphing_basis_vector_5'> +1.3753248e-04 </wgt>
</rwgt>
</event>
<event>
 4      1 +2.2016400e-08 2.61837100e+03 7.81860800e-03 7.85653600e-02
        2 -1    0    0  501    0 +0.0000000000e+00 +0.0000000000e+00 +1.7373869264e+03 1.7373869264e+03 0.0000000000e+00 0.0000e+00 -1.0000e+00
       -2 -1    0    0    0  501 -0.0000000000e+00 -0.0000000000e+00 -9.8651997269e+02 9.8651997269e+02 0.0000000000e+00 0.0000e+00 1.0000e+00
      -13  1    1    2    0    0 -9.4649364275e+02 +6.0543514343e+02 +1.0745042937e+03 1.5546579707e+03 0.0000000000e+00 0.0000e+00 1.0000e+00
       13  1    1    2    0    0 +9.4649364275e+02 -6.0543514343e+02 -3.2363734002e+02 1.1692489284e+03 0.0000000000e+00 0.0000e+00 -1.0000e+00
<mgrwt>
<rscale>  0 0.26183712E+04</rscale>
<asrwt>0</asrwt>
<pdfrwt beam="1">  1        2 0.26729030E+00 0.26183712E+04</pdfrwt>
<pdfrwt beam="2">  1       -2 0.15177230E+00 0.26183712E+04</pdfrwt>
<totfact> 0.29030049E+00</totfact>
</mgrwt>
<rwgt>
<wgt id='morphing_basis_vector_1'> +1.6977041e-04 </wgt>
<wgt id='morphing_basis_vector_2'> +1.7604458e-04 </wgt>
<wgt id='morphing_basis_vector_3'> +1.9635919e-04 </wgt>
<wgt id='morphing_basis_vector_4'> +5.3754647e-05 </wgt>
<wgt id='morphing_basis_vector_5'> +1.7037214e-04 </wgt>
</rwgt>
</event>
<event>
 4      1 +2.2016400e-08 2.62788000e+03 7.81860800e-03 7.85372100e-02
        2 -1    0    0  501    0 +0.0000000000e+00 +0.0000000000e+00 +1.0984590847e+03 1.0984590847e+03 0.0000000000e+00 0.0000e+00 1.0000e+00
       -2 -1    0    0    0  501 -0.0000000000e+00 -0.0000000000e+00 -1.5716913261e+03 1.5716913261e+03 0.0000000000e+00 0.0000e+00 -1.0000e+00
      -13  1    1    2    0    0 +9.4864379952e+02 +6.2662328773e+02 -9.0588922142e+02 1.4536908490e+03 0.0000000000e+00 0.0000e+00 -1.0000e+00
       13  1    1    2    0    0 -9.4864379952e+02 -6.2662328773e+02 +4.3265698006e+02 1.2164595618e+03 0.0000000000e+00 0.0000e+00 1.0000e+00
<mgrwt>
<rscale>  0 0.26278802E+04</rscale>
<asrwt>0</asrwt>
<pdfrwt beam="1">  1        2 0.16899371E+00 0.26278802E+04</pdfrwt>
<pdfrwt beam="2">  1       -2 0.24179866E+00 0.26278802E+04</pdfrwt>
<totfact> 0.14361249E+00</totfact>
</mgrwt>
<rwgt>
<wgt id='morphing_basis_vector_1'> +1.4526189e-04 </wgt>
<wgt id='morphing_basis_vector_2'> +9.9090159e-05 </wgt>
<wgt id='morphing_basis_vector_3'> +1.5777107e-04 </wgt>
<wgt id='morphing_basis_vector_4'> +1.1006554e-04 </wgt>
<wgt id='morphing_basis_vector_5'> +1.7740729e-04 </wgt>
</rwgt>
</event>
<event>
 4      1 +2.2016400e-08 2.37332000e+03 7.81860800e-03 7.93359900e-02
        2 -1    0    0  501    0 +0.0000000000e+00 +0.0000000000e+00 +1.6503642827e+03 1.6503642827e+03 0.0000000000e+00 0.0000e+00 1.0000e+00
       -2 -1    0    0    0  501 -0.0000000000e+00 -0.0000000000e+00 -8.5324322126e+02 8.5324322126e+02 0.0000000000e+00 0.0000e+00 -1.0000e+00
      -13  1    1    2    0    0 -9.0373402231e+02 +7.6852060313e+02 +3.6866697902e+02 1.2422859743e+03 0.0000000000e+00 0.0000e+00 -1.0000e+00
       13  1    1    2    0    0 +9.0373402231e+02 -7.6852060313e+02 +4.2845408247e+02 1.2613215297e+03 0.0000000000e+00 0.0000e+00 1.0000e+00
<mgrwt>
<rscale>  0 0.23733202E+04</rscale>
<asrwt>0</asrwt>
<pdfrwt beam="1">  1        2 0.25390220E+00 0.23733202E+04</pdfrwt>
<pdfrwt beam="2">  1       -2 0.13126819E+00 0.23733202E+04</pdfrwt>
<totfact> 0.49624615E+00</totfact>
</mgrwt>
<rwgt>
<wgt id='morphing_basis_vector_1'> +9.9977533e-05 </wgt>
<wgt id='morphing_basis_vector_2'> +7.4404277e-05 </wgt>
<wgt id='morphing_basis_vector_3'> +1.0926489e-04 </wgt>
<wgt id='morphing_basis_vector_4'> +6.7102967e-05 </wgt>
<wgt id='morphing_basis_vector_5'> +1.1694532e-04 </wgt>
</rwgt>
</event>
<event>
 4      1 +2.2016400e-08 2.56212100e+03 7.81860800e-03 7.87344000e-02
        2 -1    0    0  501    0 +0.0000000000e+00 +0.0000000000e+00 +2.3467872462e+03 2.3467872462e+03 0.0000000000e+00 0.0000e+00 1.0000e+00
       -2 -1    0    0    0  501 -0.0000000000e+00 -0.0000000000e+00 -6.9930347473e+02 6.9930347473e+02 0.0000000000e+00 0.0000e+00 -1.0000e+00
      -13  1    1    2    0    0 -2.5183096066e+02 -4.3606176907e+02 -5.7670650276e+02 7.6561027260e+02 0.0000000000e+00 0.0000e+00 -1.0000e+00
       13  1    1    2    0    0 +2.5183096066e+02 +4.3606176907e+02 +2.2241902742e+03 2.2804804483e+03 0.0000000000e+00 0.0000e+00 1.0000e+00
<mgrwt>
<rscale>  0 0.25621214E+04</rscale>
<asrwt>0</asrwt>
<pdfrwt beam="1">  1        2 0.36104419E+00 0.25621214E+04</pdfrwt>
<pdfrwt beam="2">  1       -2 0.10758515E+00 0.25621214E+04</pdfrwt>
<totfact> 0.32980576E+00</totfact>
</mgrwt>
<rwgt>
<wgt id='morphing_basis_vector_1'> +1.3084835e-04 </wgt>
<wgt id='morphing_basis_vector_2'> +8.7898674e-05 </wgt>
<wgt id='morphing_basis_vector_3'> +1.4169731e-04 </wgt>
<wgt id='morphing_basis_vector_4'> +1.0051296e-04 </wgt>
<wgt id='morphing_basis_vector_5'> +1.6020797e-04 </wgt>
</rwgt>
</event>
<event>
 4      1 +2.2016400e-08 2.43452600e+03 7.81860800e-03 7.91348600e-02
        2 -1    0    0  501    0 +0.0000000000e+00 +0.0000000000e+00 +1.6156299277e+03 1.6156299277e+03 0.0000000000e+00 0.0000e+00 1.0000e+00
       -2 -1    0    0    0  501 -0.0000000000e+00 -0.0000000000e+00 -9.1712173409e+02 9.1712173409e+02 0.0000000000e+00 0.0000e+00 -1.0000e+00
      -13  1    1    2    0    0 -7.7852639653e+02 -8.2904824862e+02 -1.0219529245e+02 1.1418704946e+03 0.0000000000e+00 0.0000e+00 -1.0000e+00
       13  1    1    2    0    0 +7.7852639653e+02 +8.2904824862e+02 +8.0070348602e+02 1.3908811672e+03 0.0000000000e+00 0.0000e+00 1.0000e+00
<mgrwt>
<rscale>  0 0.24345261E+04</rscale>
<asrwt>0</asrwt>
<pdfrwt beam="1">  1        2 0.24855845E+00 0.24345261E+04</pdfrwt>
<pdfrwt beam="2">  1       -2 0.14109565E+00 0.24345261E+04</pdfrwt>
<totfact> 0.42346915E+00</totfact>
</mgrwt>
<rwgt>
<wgt id='morphing_basis_vector_1'> +1.0789909e-04 </wgt>
<wgt id='morphing_basis_vector_2'> +7.4530541e-05 </wgt>
<wgt id='morphing_basis_vector_3'> +1.1697436e-04 </wgt>
<wgt id='morphing_basis_vector_4'> +7.9791581e-05 </wgt>
<wgt id='morphing_basis_vector_5'> +1.3010118e-04 </wgt>
</rwgt>
</event>
<event>
 4      1 +2.2016400e-08 2.46781900e+03 7.81860800e-03 7.90279800e-02
        2 -1    0    0  501    0 +0.0000000000e+00 +0.0000000000e+00 +1.5412808631e+03 1.5412808631e+03 0.0000000000e+00 0.0000e+00 1.0000e+00
       -2 -1    0    0    0  501 -0.0000000000e+00 -0.0000000000e+00 -9.8783569052e+02 9.8783569052e+02 0.0000000000e+00 0.0000e+00 -1.0000e+00
      -13  1    1    2    0    0 -9.2873748282e+02 -1.8921604640e+02 +1.0863947502e+03 1.4417383873e+03 0.0000000000e+00 0.0000e+00 1.0000e+00
       13  1    1    2    0    0 +9.2873748282e+02 +1.8921604640e+02 -5.3294957762e+02 1.0873781663e+03 0.0000000000e+00 0.0000e+00 -1.0000e+00
<mgrwt>
<rscale>  0 0.24678187E+04</rscale>
<asrwt>0</asrwt>
<pdfrwt beam="1">  1        2 0.23712013E+00 0.24678187E+04</pdfrwt>
<pdfrwt beam="2">  1       -2 0.15197472E+00 0.24678187E+04</pdfrwt>
<totfact> 0.37672370E+00</totfact>
</mgrwt>
<rwgt>
<wgt id='morphing_basis_vector_1'> +1.4189867e-04 </wgt>
<wgt id='morphing_basis_vector_2'> +1.6147516e-04 </wgt>
<wgt id='morphing_basis_vector_3'> +1.6623181e-04 </wgt>
<wgt id='morphing_basis_vector_4'> +2.6886780e-05 </wgt>
<wgt id='morphing_basis_vector_5'> +1.3281680e-04 </wgt>
</rwgt>
</event>
<event>
 4      1 +2.2016400e-08 2.46362600e+03 7.81860800e-03 7.90413500e-02
        2 -1    0    0  501    0 +0.0000000000e+00 +0.0000000000e+00 +8.4483425924e+02 8.4483425924e+02 0.0000000000e+00 0.0000e+00 1.0000e+00
       -2 -1    0    0    0  501 -0.0000000000e+00 -0.0000000000e+00 -1.7960483281e+03 1.7960483281e+03 0.0000000000e+00 0.0000e+00 -1.0000e+00
      -13  1    1    2    0    0 -6.5331395576e+02 +3.3111908315e+02 -1.5372723368e+03 1.7028403359e+03 0.0000000000e+00 0.0000e+00 -1.0000e+00
       13  1    1    2    0    0 +6.5331395576e+02 -3.3111908315e+02 +5.8605826798e+02 9.3804225143e+02 0.0000000000e+00 0.0000e+00 1.0000e+00
<mgrwt>
<rscale>  0 0.24636259E+04</rscale>
<asrwt>0</asrwt>
<pdfrwt beam="1">  1        2 0.12997450E+00 0.24636259E+04</pdfrwt>
<pdfrwt beam="2">  1       -2 0.27631512E+00 0.24636259E+04</pdfrwt>
<totfact> 0.12191395E+00</totfact>
</mgrwt>
<rwgt>
<wgt id='morphing_basis_vector_1'> +1.1213054e-04 </wgt>
<wgt id='morphing_basis_vector_2'> +7.5339111e-05 </wgt>
<wgt id='morphing_basis_vector_3'> +1.2122137e-04 </wgt>
<wgt id='morphing_basis_vector_4'> +8.5666107e-05 </wgt>
<wgt id='morphing_basis_vector_5'> +1.3667735e-04 </wgt>
</rwgt>
</event>
<event>
 4      1 +2.2016400e-08 2.41566300e+03 7.81860800e-03 7.91961900e-02
        2 -1    0    0  501    0 +0.0000000000e+00 +0.0000000000e+00 +5.7741896154e+02 5.7741896154e+02 0.0000000000e+00 0.0000e+00 -1.0000e+00
       -2 -1    0    0    0  501 -0.0000000000e+00 -0.0000000000e+00 -2.5265128432e+03 2.5265128432e+03 0.0000000000e+00 0.0000e+00 1.0000e+00
      -13  1    1    2    0    0 -3.4152610517e+02 +3.5513506877e+02 -2.3915139107e+03 2.4417411375e+03 0.0000000000e+00 0.0000e+00 1.0000e+00
       13  1    1    2    0    0 +3.4152610517e+02 -3.5513506877e+02 +4.4242002907e+02 6.6219066719e+02 0.0000000000e+00 0.0000e+00 -1.0000e+00
<mgrwt>
<rscale>  0 0.24156626E+04</rscale>
<asrwt>0</asrwt>
<pdfrwt beam="1">  1        2 0.88833688E-01 0.24156626E+04</pdfrwt>
<pdfrwt beam="2">  1       -2 0.38869428E+00 0.24156626E+04</pdfrwt>
<totfact> 0.35459825E-01</totfact>
</mgrwt>
<rwgt>
<wgt id='morphing_basis_vector_1'> +1.0372059e-04 </wgt>
<wgt id='morphing_basis_vector_2'> +6.9550981e-05 </wgt>
<wgt id='morphing_basis_vector_3'> +1.1200045e-04 </wgt>
<wgt id='morphing_basis_vector_4'> +7.9189597e-05 </wgt>
<wgt id='morphing_basis_vector_5'> +1.2621360e-04 </wgt>
</rwgt>
</event>
<event>
 4      1 +2.2016400e-08 2.30998400e+03 7.81860800e-03 7.95507900e-02
        2 -1    0    0  501    0 +0.0000000000e+00 +0.0000000000e+00 +2.8101398052e+03 2.8101398052e+03 0.0000000000e+00 0.0000e+00 1.0000e+00
       -2 -1    0    0    0  501 -0.0000000000e+00 -0.0000000000e+00 -4.7471173975e+02 4.7471173975e+02 0.0000000000e+00 0.0000e+00 -1.0000e+00
      -13  1    1    2    0    0 -8.2964111720e+02 -3.0651471116e+02 +1.1143599500e+02 8.9144468841e+02 0.0000000000e+00 0.0000e+00 -1.0000e+00
       13  1    1    2    0    0 +8.2964111720e+02 +3.0651471116e+02 +2.2239920704e+03 2.3934068565e+03 0.0000000000e+00 0.0000e+00 1.0000e+00
<mgrwt>
<rscale>  0 0.23099839E+04</rscale>
<asrwt>0</asrwt>
<pdfrwt beam="1">  1        2 0.43232919E+00 0.23099839E+04</pdfrwt>
<pdfrwt beam="2">  1       -2 0.73032577E-01 0.23099839E+04</pdfrwt>
<totfact> 0.43639553E+00</totfact>
</mgrwt>
<rwgt>
<wgt id='morphing_basis_vector_1'> +8.7112204e-05 </wgt>
<wgt id='morphing_basis_vector_2'> +5.8686885e-05 </wgt>
<wgt id='morphing_basis_vector_3'> +9.3908506e-05 </wgt>
<wgt id='morphing_basis_vector_4'> +6.5728181e-05 </wgt>
<wgt id='morphing_basis_vector_5'> +1.0523812e-04 </wgt>
</rwgt>
</event>
<event>
 4      1 +2.2016400e-08 2.39220700e+03 7.81860800e-03 7.92732600e-02
        2 -1    0    0  501    0 +0.0000000000e+00 +0.0000000000e+00 +9.3764427422e+02 9.3764427422e+02 0.0000000000e+00 0.0000e+00 -1.0000e+00
       -2 -1    0    0    0  501 -0.0000000000e+00 -0.0000000000e+00 -1.5258066644e+03 1.5258066644e+03 0.0000000000e+00 0.0000e+00 1.0000e+00
      -13  1    1    2    0    0 -1.9387197035e+02 +5.2580344260e+02 -1.3822481600e+03 1.4915312860e+03 0.0000000000e+00 0.0000e+00 1.0000e+00
       13  1    1    2    0    0 +1.9387197035e+02 -5.2580344260e+02 +7.9408576991e+02 9.7191965260e+02 0.0000000000e+00 0.0000e+00 -1.0000e+00
<mgrwt>
<rscale>  0 0.23922073E+04</rscale>
<asrwt>0</asrwt>
<pdfrwt beam="1">  1        2 0.14425297E+00 0.23922073E+04</pdfrwt>
<pdfrwt beam="2">  1       -2 0.23473948E+00 0.23922073E+04</pdfrwt>
<totfact> 0.20638981E+00</totfact>
</mgrwt>
<rwgt>
<wgt id='morphing_basis_vector_1'> +9.9812434e-05 </wgt>
<wgt id='morphing_basis_vector_2'> +6.6924991e-05 </wgt>
<wgt id='morphing_basis_vector_3'> +1.0772890e-04 </wgt>
<wgt id='morphing_basis_vector_4'> +7.6103897e-05 </wgt>
<wgt id='morphing_basis_vector_5'> +1.2131570e-04 </wgt>
</rwgt>
</event>
<event>
 4      1 +2.2016400e-08 2.41926700e+03 7.81860800e-03 7.91844300e-02
        2 -1    0    0  501    0 +0.0000000000e+00 +0.0000000000e+00 +2.7762967008e+03 2.7762967008e+03 0.0000000000e+00 0.0000e+00 1.0000e+00
       -2 -1    0    0    0  501 -0.0000000000e+00 -0.0000000000e+00 -5.2703785637e+02 5.2703785637e+02 0.0000000000e+00 0.0000e+00 -1.0000e+00
      -13  1    1    2    0    0 -2.2752397281e+02 +5.4275722965e+02 -3.1837699744e+02 6.6911619398e+02 0.0000000000e+00 0.0000e+00 -1.0000e+00
       13  1    1    2    0    0 +2.2752397281e+02 -5.4275722965e+02 +2.5676358419e+03 2.6342183632e+03 0.0000000000e+00 0.0000e+00 1.0000e+00
<mgrwt>
<rscale>  0 0.24192672E+04</rscale>
<asrwt>0</asrwt>
<pdfrwt beam="1">  1        2 0.42712256E+00 0.24192672E+04</pdfrwt>
<pdfrwt beam="2">  1       -2 0.81082749E-01 0.24192672E+04</pdfrwt>
<totfact> 0.35937062E+00</totfact>
</mgrwt>
<rwgt>
<wgt id='morphing_basis_vector_1'> +1.0434292e-04 </wgt>
<wgt id='morphing_basis_vector_2'> +6.9995695e-05 </wgt>
<wgt id='morphing_basis_vector_3'> +1.1268568e-04 </wgt>
<wgt id='morphing_basis_vector_4'> +7.9648180e-05 </wgt>
<wgt id='morphing_basis_vector_5'> +1.2697728e-04 </wgt>
</rwgt>
</event>
<event>
 4      1 +2.2016400e-08 2.25160400e+03 7.81860800e-03 7.97551600e-02
        2 -1    0    0  501    0 +0.0000000000e+00 +0.0000000000e+00 +2.3432456999e+03 2.3432456999e+03 0.0000000000e+00 0.0000e+00 1.0000e+00
       -2 -1    0    0    0  501 -0.0000000000e+00 -0.0000000000e+00 -5.4088668275e+02 5.4088668275e+02 0.0000000000e+00 0.0000e+00 -1.0000e+00
      -13  1    1    2    0    0 +6.8532188716e+02 -8.1737061586e+02 +1.3624356799e+03 1.7303155188e+03 0.0000000000e+00 0.0000e+00 -1.0000e+00
       13  1    1    2    0    0 -6.8532188716e+02 +8.1737061586e+02 +4.3992333727e+02 1.1538168639e+03 0.0000000000e+00 0.0000e+00 1.0000e+00
<mgrwt>
<rscale>  0 0.22516042E+04</rscale>
<asrwt>0</asrwt>
<pdfrwt beam="1">  1        2 0.36049933E+00 0.22516042E+04</pdfrwt>
<pdfrwt beam="2">  1       -2 0.83213337E-01 0.22516042E+04</pdfrwt>
<totfact> 0.62671085E+00</totfact>
</mgrwt>
<rwgt>
<wgt id='morphing_basis_vector_1'> +8.7123231e-05 </wgt>
<wgt id='morphing_basis_vector_2'> +7.7724101e-05 </wgt>
<wgt id='morphing_basis_vector_3'> +9.7297796e-05 </wgt>
<wgt id='morphing_basis_vector_4'> +4.2309942e-05 </wgt>
<wgt id='morphing_basis_vector_5'> +9.3488917e-05 </wgt>
</rwgt>
</event>
<event>
 4      1 +2.2016400e-08 2.51986300e+03 7.81860800e-03 7.88643300e-02
        2 -1    0    0  501    0 +0.0000000000e+00 +0.0000000000e+00 +2.6610889200e+03 2.6610889200e+03 0.0000000000e+00 0.0000e+00 -1.0000e+00
       -2 -1    0    0    0  501 -0.0000000000e+00 -0.0000000000e+00 -5.9653292332e+02 5.9653292332e+02 0.0000000000e+00 0.0000e+00 1.0000e+00
      -13  1    1    2    0    0 -8.2078381178e+02 -8.1929706245e+02 +3.9566758074e+02 1.2253516135e+03 0.0000000000e+00 0.0000e+00 1.0000e+00
       13  1    1    2    0    0 +8.2078381178e+02 +8.1929706245e+02 +1.6688884159e+03 2.0322702298e+03 0.0000000000e+00 0.0000e+00 -1.0000e+00
<mgrwt>
<rscale>  0 0.25198628E+04</rscale>
<asrwt>0</asrwt>
<pdfrwt beam="1">  1        2 0.40939829E+00 0.25198628E+04</pdfrwt>
<pdfrwt beam="2">  1       -2 0.91774297E-01 0.25198628E+04</pdfrwt>
<totfact> 0.31507805E+00</totfact>
</mgrwt>
<rwgt>
<wgt id='morphing_basis_vector_1'> +1.2345778e-04 </wgt>
<wgt id='morphing_basis_vector_2'> +8.5007998e-05 </wgt>
<wgt id='morphing_basis_vector_3'> +1.3400454e-04 </wgt>
<wgt id='morphing_basis_vector_4'> +9.2065262e-05 </wgt>
<wgt id='morphing_basis_vector_5'> +1.4961908e-04 </wgt>
</rwgt>
</event>
<event>
 4      1 +2.2016400e-08 2.23946500e+03 7.81860800e-03 7.97984600e-02
        2 -1    0    0  501    0 +0.0000000000e+00 +0.0000000000e+00 +2.0674694778e+03 2.0674694778e+03 0.0000000000e+00 0.0000e+00 -1.0000e+00
       -2 -1    0    0    0  501 -0.0000000000e+00 -0.0000000000e+00 -6.0644212708e+02 6.0644212708e+02 0.0000000000e+00 0.0000e+00 1.0000e+00
      -13  1    1    2    0    0 -1.6570826565e+01 +1.0074687225e+03 +1.4736829373e+02 1.0183247189e+03 0.0000000000e+00 0.0000e+00 1.0000e+00
       13  1    1    2    0    0 +1.6570826565e+01 -1.0074687225e+03 +1.3136590570e+03 1.6555868860e+03 0.0000000000e+00 0.0000e+00 -1.0000e+00
<mgrwt>
<rscale>  0 0.22394647E+04</rscale>
<asrwt>0</asrwt>
<pdfrwt beam="1">  1        2 0.31807222E+00 0.22394647E+04</pdfrwt>
<pdfrwt beam="2">  1       -2 0.93298790E-01 0.22394647E+04</pdfrwt>
<totfact> 0.69212249E+00</totfact>
</mgrwt>
<rwgt>
<wgt id='morphing_basis_vector_1'> +7.7429145e-05 </wgt>
<wgt id='morphing_basis_vector_2'> +5.2851460e-05 </wgt>
<wgt id='morphing_basis_vector_3'> +8.3456929e-05 </wgt>
<wgt id='morphing_basis_vector_4'> +5.7291908e-05 </wgt>
<wgt id='morphing_basis_vector_5'> +9.2732186e-05 </wgt>
</rwgt>
</event>
<event>
 4      1 +2.2016400e-08 2.30130300e+03 7.81860800e-03 7.95807800e-02
        2 -1    0    0  501    0 +0.0000000000e+00 +0.0000000000e+00 +6.4819641116e+02 6.4819641116e+02 0.0000000000e+00 0.0000e+00 -1.0000e+00
       -2 -1    0    0    0  501 -0.0000000000e+00 -0.0000000000e+00 -2.0425896723e+03 2.0425896723e+03 0.0000000000e+00 0.0000e+00 1.0000e+00
      -13  1    1    2    0    0 +7.1990652313e+02 -5.5731628280e+02 -1.5199430426e+03 1.7717487671e+03 0.0000000000e+00 0.0000e+00 1.0000e+00
       13  1    1    2    0    0 -7.1990652313e+02 +5.5731628280e+02 +1.2554978148e+02 9.1903731630e+02 0.0000000000e+00 0.0000e+00 -1.0000e+00
<mgrwt>
<rscale>  0 0.23013034E+04</rscale>
<asrwt>0</asrwt>
<pdfrwt beam="1">  1        2 0.99722523E-01 0.23013034E+04</pdfrwt>
<pdfrwt beam="2">  1       -2 0.31424457E+00 0.23013034E+04</pdfrwt>
<totfact> 0.95420522E-01</totfact>
</mgrwt>
<rwgt>
<wgt id='morphing_basis_vector_1'> +8.5867543e-05 </wgt>
<wgt id='morphing_basis_vector_2'> +5.7926486e-05 </wgt>
<wgt id='morphing_basis_vector_3'> +9.2563049e-05 </wgt>
<wgt id='morphing_basis_vector_4'> +6.4655072e-05 </wgt>
<wgt id='morphing_basis_vector_5'> +1.0363546e-04 </wgt>
</rwgt>
</event>
<event>
 4      1 +2.2016400e-08 2.41817000e+03 7.81860800e-03 7.91880100e-02
        2 -1    0    0  501    0 +0.0000000000e+00 +0.0000000000e+00 +1.7063876567e+03 1.7063876567e+03 0.0000000000e+00 0.0000e+00 -1.0000e+00
       -2 -1    0    0    0  501 -0.0000000000e+00 -0.0000000000e+00 -8.5671398200e+02 8.5671398200e+02 0.0000000000e+00 0.0000e+00 1.0000e+00
      -13  1    1    2    0    0 -4.5696448200e+02 -9.4591545694e+02 -2.0963256905e+02 1.0712228543e+03 0.0000000000e+00 0.0000e+00 1.0000e+00
       13  1    1    2    0    0 +4.5696448200e+02 +9.4591545694e+02 +1.0593062438e+03 1.4918787845e+03 0.0000000000e+00 0.0000e+00 -1.0000e+00
<mgrwt>
<rscale>  0 0.24181697E+04</rscale>
<asrwt>0</asrwt>
<pdfrwt beam="1">  1        2 0.26252118E+00 0.24181697E+04</pdfrwt>
<pdfrwt beam="2">  1       -2 0.13180215E+00 0.24181697E+04</pdfrwt>
<totfact> 0.45509174E+00</totfact>
</mgrwt>
<rwgt>
<wgt id='morphing_basis_vector_1'> +1.0461432e-04 </wgt>
<wgt id='morphing_basis_vector_2'> +7.1221489e-05 </wgt>
<wgt id='morphing_basis_vector_3'> +1.1317656e-04 </wgt>
<wgt id='morphing_basis_vector_4'> +7.8566688e-05 </wgt>
<wgt id='morphing_basis_vector_5'> +1.2666832e-04 </wgt>
</rwgt>
</event>
<event>
 4      1 +2.2016400e-08 2.38951700e+03 7.81860800e-03 7.92821600e-02
        2 -1    0    0  501    0 +0.0000000000e+00 +0.0000000000e+00 +2.0169249130e+03 2.0169249130e+03 0.0000000000e+00 0.0000e+00 1.0000e+00
       -2 -1    0    0    0  501 -0.0000000000e+00 -0.0000000000e+00 -7.0773486108e+02 7.0773486108e+02 0.0000000000e+00 0.0000e+00 -1.0000e+00
      -13  1    1    2    0    0 +2.1793372960e+02 +6.2255823511e+02 -4.8130434453e+02 8.1653397888e+02 0.0000000000e+00 0.0000e+00 -1.0000e+00
       13  1    1    2    0    0 -2.1793372960e+02 -6.2255823511e+02 +1.7904943965e+03 1.9081257952e+03 0.0000000000e+00 0.0000e+00 1.0000e+00
<mgrwt>
<rscale>  0 0.23895172E+04</rscale>
<asrwt>0</asrwt>
<pdfrwt beam="1">  1        2 0.31029614E+00 0.23895172E+04</pdfrwt>
<pdfrwt beam="2">  1       -2 0.10888229E+00 0.23895172E+04</pdfrwt>
<totfact> 0.50189200E+00</totfact>
</mgrwt>
<rwgt>
<wgt id='morphing_basis_vector_1'> +9.9388288e-05 </wgt>
<wgt id='morphing_basis_vector_2'> +6.6678483e-05 </wgt>
<wgt id='morphing_basis_vector_3'> +1.0727249e-04 </wgt>
<wgt id='morphing_basis_vector_4'> +7.5721417e-05 </wgt>
<wgt id='morphing_basis_vector_5'> +1.2076040e-04 </wgt>
</rwgt>
</event>
<event>
 4      1 +2.2016400e-08 2.26131700e+03 7.81860800e-03 7.97207100e-02
        2 -1    0    0  501    0 +0.0000000000e+00 +0.0000000000e+00 +6.7042744386e+02 6.7042744386e+02 0.0000000000e+00 0.0000e+00 -1.0000e+00
       -2 -1    0    0    0  501 -0.0000000000e+00 -0.0000000000e+00 -1.9068268695e+03 1.9068268695e+03 0.0000000000e+00 0.0000e+00 1.0000e+00
      -13  1    1    2    0    0 -4.6844398888e+02 +6.7439574009e+02 +2.6765894966e+02 8.6364963863e+02 0.0000000000e+00 0.0000e+00 1.0000e+00
       13  1    1    2    0    0 +4.6844398888e+02 -6.7439574009e+02 -1.5040583753e+03 1.7136046747e+03 0.0000000000e+00 0.0000e+00 -1.0000e+00
<mgrwt>
<rscale>  0 0.22613174E+04</rscale>
<asrwt>0</asrwt>
<pdfrwt beam="1">  1        2 0.10314268E+00 0.22613174E+04</pdfrwt>
<pdfrwt beam="2">  1       -2 0.29335798E+00 0.22613174E+04</pdfrwt>
<totfact> 0.12704905E+00</totfact>
</mgrwt>
<rwgt>
<wgt id='morphing_basis_vector_1'> +1.0250746e-04 </wgt>
<wgt id='morphing_basis_vector_2'> +1.2011715e-04 </wgt>
<wgt id='morphing_basis_vector_3'> +1.1981160e-04 </wgt>
<wgt id='morphing_basis_vector_4'> +1.4910488e-05 </wgt>
<wgt id='morphing_basis_vector_5'> +9.2880362e-05 </wgt>
</rwgt>
</event>
<event>
 4      1 +2.2016400e-08 2.37658700e+03 7.81860800e-03 7.93251000e-02
        2 -1    0    0  501    0 +0.0000000000e+00 +0.0000000000e+00 +1.4946742404e+03 1.4946742404e+03 0.0000000000e+00 0.0000e+00 -1.0000e+00
       -2 -1    0    0    0  501 -0.0000000000e+00 -0.0000000000e+00 -9.4471481497e+02 9.4471481497e+02 0.0000000000e+00 0.0000e+00 1.0000e+00
      -13  1    1    2    0    0 +6.9182779402e+02 +7.6240454607e+02 -3.3412795237e+02 1.0823714136e+03 0.0000000000e+00 0.0000e+00 1.0000e+00
       13  1    1    2    0    0 -6.9182779402e+02 -7.6240454607e+02 +8.8408737778e+02 1.3570176417e+03 0.0000000000e+00 0.0000e+00 -1.0000e+00
<mgrwt>
<rscale>  0 0.23765865E+04</rscale>
<asrwt>0</asrwt>
<pdfrwt beam="1">  1        2 0.22994988E+00 0.23765865E+04</pdfrwt>
<pdfrwt beam="2">  1       -2 0.14534074E+00 0.23765865E+04</pdfrwt>
<totfact> 0.45771298E+00</totfact>
</mgrwt>
<rwgt>
<wgt id='morphing_basis_vector_1'> +9.7687739e-05 </wgt>
<wgt id='morphing_basis_vector_2'> +6.6445616e-05 </wgt>
<wgt id='morphing_basis_vector_3'> +1.0558171e-04 </wgt>
<wgt id='morphing_basis_vector_4'> +7.3252056e-05 </wgt>
<wgt id='morphing_basis_vector_5'> +1.1806517e-04 </wgt>
</rwgt>
</event>
<event>
 4      1 +2.2016400e-08 2.56637700e+03 7.81860800e-03 7.87214500e-02
        2 -1    0    0  501    0 +0.0000000000e+00 +0.0000000000e+00 +1.2106121541e+03 1.2106121541e+03 0.0000000000e+00 0.0000e+00 -1.0000e+00
       -2 -1    0    0    0  501 -0.0000000000e+00 -0.0000000000e+00 -1.3601161718e+03 1.3601161718e+03 0.0000000000e+00 0.0000e+00 1.0000e+00
      -13  1    1    2    0    0 +9.7220793019e+02 +3.7108185376e+02 -8.2681324297e+02 1.3291012529e+03 0.0000000000e+00 0.0000e+00 1.0000e+00
       13  1    1    2    0    0 -9.7220793019e+02 -3.7108185376e+02 +6.7730922525e+02 1.2416270730e+03 0.0000000000e+00 0.0000e+00 -1.0000e+00
<mgrwt>
<rscale>  0 0.25663773E+04</rscale>
<asrwt>0</asrwt>
<pdfrwt beam="1">  1        2 0.18624802E+00 0.25663773E+04</pdfrwt>
<pdfrwt beam="2">  1       -2 0.20924864E+00 0.25663773E+04</pdfrwt>
<totfact> 0.21044405E+00</totfact>
</mgrwt>
<rwgt>
<wgt id='morphing_basis_vector_1'> +1.3206427e-04 </wgt>
<wgt id='morphing_basis_vector_2'> +8.9528891e-05 </wgt>
<wgt id='morphing_basis_vector_3'> +1.4318463e-04 </wgt>
<wgt id='morphing_basis_vector_4'> +1.0046068e-04 </wgt>
<wgt id='morphing_basis_vector_5'> +1.6122887e-04 </wgt>
</rwgt>
</event>
<event>
 4      1 +2.2016400e-08 2.23969800e+03 7.81860800e-03 7.97976200e-02
        2 -1    0    0  501    0 +0.0000000000e+00 +0.0000000000e+00 +6.0780979589e+02 6.0780979589e+02 0.0000000000e+00 0.0000e+00 -1.0000e+00
       -2 -1    0    0    0  501 -0.0000000000e+00 -0.0000000000e+00 -2.0632469470e+03 2.0632469470e+03 0.0000000000e+00 0.0000e+00 1.0000e+00
      -13  1    1    2    0    0 -3.3667004530e+02 -1.0675526177e+03 -6.8914042001e+02 1.3145074474e+03 0.0000000000e+00 0.0000e+00 1.0000e+00
       13  1    1    2    0    0 +3.3667004530e+02 +1.0675526177e+03 -7.6629673112e+02 1.3565492955e+03 0.0000000000e+00 0.0000e+00 -1.0000e+00
<mgrwt>
<rscale>  0 0.22396979E+04</rscale>
<asrwt>0</asrwt>
<pdfrwt beam="1">  1        2 0.93509200E-01 0.22396979E+04</pdfrwt>
<pdfrwt beam="2">  1       -2 0.31742260E+00 0.22396979E+04</pdfrwt>
<totfact> 0.98613548E-01</totfact>
</mgrwt>
<rwgt>
<wgt id='morphing_basis_vector_1'> +8.0113807e-05 </wgt>
<wgt id='morphing_basis_vector_2'> +6.0713264e-05 </wgt>
<wgt id='morphing_basis_vector_3'> +8.7458354e-05 </wgt>
<wgt id='morphing_basis_vector_4'> +5.1949270e-05 </wgt>
<wgt id='morphing_basis_vector_5'> +9.2341475e-05 </wgt>
</rwgt>
</event>
<event>
 4      1 +2.2016400e-08 2.34782900e+03 7.81860800e-03 7.94216000e-02
        2 -1    0    0  501    0 +0.0000000000e+00 +0.0000000000e+00 +9.4806700574e+02 9.4806700574e+02 0.0000000000e+00 0.0000e+00 -1.0000e+00
       -2 -1    0    0    0  501 -0.0000000000e+00 -0.0000000000e+00 -1.4535631244e+03 1.4535631244e+03 0.0000000000e+00 0.0000e+00 1.0000e+00
      -13  1    1    2    0    0 +1.0133164960e+03 -5.8687520554e+02 -3.3736245185e+02 1.2186247379e+03 0.0000000000e+00 0.0000e+00 1.0000e+00
       13  1    1    2    0    0 -1.0133164960e+03 +5.8687520554e+02 -1.6813366680e+02 1.1830053922e+03 0.0000000000e+00 0.0000e+00 -1.0000e+00
<mgrwt>
<rscale>  0 0.23478290E+04</rscale>
<asrwt>0</asrwt>
<pdfrwt beam="1">  1        2 0.14585646E+00 0.23478290E+04</pdfrwt>
<pdfrwt beam="2">  1       -2 0.22362510E+00 0.23478290E+04</pdfrwt>
<totfact> 0.24426926E+00</totfact>
</mgrwt>
<rwgt>
<wgt id='morphing_basis_vector_1'> +9.5320664e-05 </wgt>
<wgt id='morphing_basis_vector_2'> +6.9833250e-05 </wgt>
<wgt id='morphing_basis_vector_3'> +1.0390365e-04 </wgt>
<wgt id='morphing_basis_vector_4'> +6.5225885e-05 </wgt>
<wgt id='morphing_basis_vector_5'> +1.1201277e-04 </wgt>
</rwgt>
</event>
<event>
 4      1 +2.2016400e-08 2.55745200e+03 7.81860800e-03 7.87486300e-02
        2 -1    0    0  501    0 +0.0000000000e+00 +0.0000000000e+00 +5.1057264661e+02 5.1057264661e+02 0.0000000000e+00 0.0000e+00 -1.0000e+00
       -2 -1    0    0    0  501 -0.0000000000e+00 -0.0000000000e+00 -3.2025602702e+03 3.2025602702e+03 0.0000000000e+00 0.0000e+00 1.0000e+00
      -13  1    1    2    0    0 +5.8896993805e+02 -1.9034344753e+02 -2.9705670878e+03 3.0343673211e+03 0.0000000000e+00 0.0000e+00 1.0000e+00
       13  1    1    2    0    0 -5.8896993805e+02 +1.9034344753e+02 +2.7857946429e+02 6.7876559568e+02 0.0000000000e+00 0.0000e+00 -1.0000e+00
<mgrwt>
<rscale>  0 0.25574516E+04</rscale>
<asrwt>0</asrwt>
<pdfrwt beam="1">  1        2 0.78549638E-01 0.25574516E+04</pdfrwt>
<pdfrwt beam="2">  1       -2 0.49270158E+00 0.25574516E+04</pdfrwt>
<totfact> 0.77120064E-02</totfact>
</mgrwt>
<rwgt>
<wgt id='morphing_basis_vector_1'> +1.2992296e-04 </wgt>
<wgt id='morphing_basis_vector_2'> +8.7304651e-05 </wgt>
<wgt id='morphing_basis_vector_3'> +1.4068979e-04 </wgt>
<wgt id='morphing_basis_vector_4'> +9.9744419e-05 </wgt>
<wgt id='morphing_basis_vector_5'> +1.5902663e-04 </wgt>
</rwgt>
</event>
<event>
 4      1 +2.2016400e-08 2.48992200e+03 7.81860800e-03 7.89579800e-02
        2 -1    0    0  501    0 +0.0000000000e+00 +0.0000000000e+00 +1.1709537725e+03 1.1709537725e+03 0.0000000000e+00 0.0000e+00 -1.0000e+00
       -2 -1    0    0    0  501 -0.0000000000e+00 -0.0000000000e+00 -1.3236456465e+03 1.3236456465e+03 0.0000000000e+00 0.0000e+00 1.0000e+00
      -13  1    1    2    0    0 -6.6274581648e+02 -9.8066243900e+02 -4.6307238948e+02 1.2709708393e+03 0.0000000000e+00 0.0000e+00 1.0000e+00
       13  1    1    2    0    0 +6.6274581648e+02 +9.8066243900e+02 +3.1038051552e+02 1.2236285796e+03 0.0000000000e+00 0.0000e+00 -1.0000e+00
<mgrwt>
<rscale>  0 0.24899220E+04</rscale>
<asrwt>0</asrwt>
<pdfrwt beam="1">  1        2 0.18014674E+00 0.24899220E+04</pdfrwt>
<pdfrwt beam="2">  1       -2 0.20363779E+00 0.24899220E+04</pdfrwt>
<totfact> 0.24534603E+00</totfact>
</mgrwt>
<rwgt>
<wgt id='morphing_basis_vector_1'> +1.1815348e-04 </wgt>
<wgt id='morphing_basis_vector_2'> +8.2201916e-05 </wgt>
<wgt id='morphing_basis_vector_3'> +1.2834208e-04 </wgt>
<wgt id='morphing_basis_vector_4'> +8.6923169e-05 </wgt>
<wgt id='morphing_basis_vector_5'> +1.4248280e-04 </wgt>
</rwgt>
</event>
<event>
 4      1 +2.2016400e-08 2.40257800e+03 7.81860800e-03 7.92390700e-02
        2 -1    0    0  501    0 +0.0000000000e+00 +0.0000000000e+00 +1.9506627727e+03 1.9506627727e+03 0.0000000000e+00 0.0000e+00 -1.0000e+00
       -2 -1    0    0    0  501 -0.0000000000e+00 -0.0000000000e+00 -7.3979744187e+02 7.3979744187e+02 0.0000000000e+00 0.0000e+00 1.0000e+00
      -13  1    1    2    0    0 -2.8143525055e+02 +6.2611505431e+02 -4.9852657083e+02 8.4838352372e+02 0.0000000000e+00 0.0000e+00 1.0000e+00
       13  1    1    2    0    0 +2.8143525055e+02 -6.2611505431e+02 +1.7093919017e+03 1.8420766908e+03 0.0000000000e+00 0.0000e+00 -1.0000e+00
<mgrwt>
<rscale>  0 0.24025781E+04</rscale>
<asrwt>0</asrwt>
<pdfrwt beam="1">  1        2 0.30010196E+00 0.24025781E+04</pdfrwt>
<pdfrwt beam="2">  1       -2 0.11381499E+00 0.24025781E+04</pdfrwt>
<totfact> 0.48856683E+00</totfact>
</mgrwt>
<rwgt>
<wgt id='morphing_basis_vector_1'> +1.0155395e-04 </wgt>
<wgt id='morphing_basis_vector_2'> +6.8157774e-05 </wgt>
<wgt id='morphing_basis_vector_3'> +1.0964383e-04 </wgt>
<wgt id='morphing_basis_vector_4'> +7.7400928e-05 </wgt>
<wgt id='morphing_basis_vector_5'> +1.2345895e-04 </wgt>
</rwgt>
</event>
<event>
 4      1 +2.2016400e-08 2.64439300e+03 7.81860800e-03 7.84886200e-02
        2 -1    0    0  501    0 +0.0000000000e+00 +0.0000000000e+00 +1.3012433970e+03 1.3012433970e+03 0.0000000000e+00 0.0000e+00 1.0000e+00
       -2 -1    0    0    0  501 -0.0000000000e+00 -0.0000000000e+00 -1.3434868941e+03 1.3434868941e+03 0.0000000000e+00 0.0000e+00 -1.0000e+00
      -13  1    1    2    0    0 +1.2318359602e+03 -4.8038771344e+02 -1.7765463938e+01 1.3223115366e+03 0.0000000000e+00 0.0000e+00 1.0000e+00
       13  1    1    2    0    0 -1.2318359602e+03 +4.8038771344e+02 -2.4478033163e+01 1.3224187545e+03 0.0000000000e+00 0.0000e+00 -1.0000e+00
<mgrwt>
<rscale>  0 0.26443929E+04</rscale>
<asrwt>0</asrwt>
<pdfrwt beam="1">  1        2 0.20019129E+00 0.26443929E+04</pdfrwt>
<pdfrwt beam="2">  1       -2 0.20669029E+00 0.26443929E+04</pdfrwt>
<totfact> 0.19337292E+00</totfact>
</mgrwt>
<rwgt>
<wgt id='morphing_basis_vector_1'> +1.5373467e-04 </wgt>
<wgt id='morphing_basis_vector_2'> +1.1583707e-04 </wgt>
<wgt id='morphing_basis_vector_3'> +1.6920934e-04 </wgt>
<wgt id='morphing_basis_vector_4'> +1.0293548e-04 </wgt>
<wgt id='morphing_basis_vector_5'> +1.8115026e-04 </wgt>
</rwgt>
</event>
<event>
 4      1 +2.2016400e-08 2.29870800e+03 7.81860800e-03 7.95897700e-02
        2 -1    0    0  501    0 +0.0000000000e+00 +0.0000000000e+00 +1.9785341560e+03 1.9785341560e+03 0.0000000000e+00 0.0000e+00 -1.0000e+00
       -2 -1    0    0    0  501 -0.0000000000e+00 -0.0000000000e+00 -6.6767356425e+02 6.6767356425e+02 0.0000000000e+00 0.0000e+00 1.0000e+00
      -13  1    1    2    0    0 +9.1233412258e+02 -6.3682930040e+02 +3.2356159104e+02 1.1587049721e+03 0.0000000000e+00 0.0000e+00 1.0000e+00
       13  1    1    2    0    0 -9.1233412258e+02 +6.3682930040e+02 +9.8729900070e+02 1.4875027482e+03 0.0000000000e+00 0.0000e+00 -1.0000e+00
<mgrwt>
<rscale>  0 0.22987083E+04</rscale>
<asrwt>0</asrwt>
<pdfrwt beam="1">  1        2 0.30438987E+00 0.22987083E+04</pdfrwt>
<pdfrwt beam="2">  1       -2 0.10271901E+00 0.22987083E+04</pdfrwt>
<totfact> 0.61395680E+00</totfact>
</mgrwt>
<rwgt>
<wgt id='morphing_basis_vector_1'> +8.6483413e-05 </wgt>
<wgt id='morphing_basis_vector_2'> +6.0611381e-05 </wgt>
<wgt id='morphing_basis_vector_3'> +9.3644749e-05 </wgt>
<wgt id='morphing_basis_vector_4'> +6.2336846e-05 </wgt>
<wgt id='morphing_basis_vector_5'> +1.0299920e-04 </wgt>
</rwgt>
</event>
<event>
 4      1 +2.2016400e-08 2.36615400e+03 7.81860800e-03 7.93599400e-02
        2 -1    0    0  501    0 +0.0000000000e+00 +0.0000000000e+00 +1.3299324303e+03 1.3299324303e+03 0.0000000000e+00 0.0000e+00 -1.0000e+00
       -2 -1    0    0    0  501 -0.0000000000e+00 -0.0000000000e+00 -1.0524381930e+03 1.0524381930e+03 0.0000000000e+00 0.0000e+00 1.0000e+00
      -13  1    1    2    0    0 +4.4673064994e+02 +8.9877944873e+02 -4.9188312316e+02 1.1177306375e+03 0.0000000000e+00 0.0000e+00 1.0000e+00
       13  1    1    2    0    0 -4.4673064994e+02 -8.9877944873e+02 +7.6937736043e+02 1.2646399858e+03 0.0000000000e+00 0.0000e+00 -1.0000e+00
<mgrwt>
<rscale>  0 0.23661544E+04</rscale>
<asrwt>0</asrwt>
<pdfrwt beam="1">  1        2 0.20460499E+00 0.23661544E+04</pdfrwt>
<pdfrwt beam="2">  1       -2 0.16191357E+00 0.23661544E+04</pdfrwt>
<totfact> 0.41532923E+00</totfact>
</mgrwt>
<rwgt>
<wgt id='morphing_basis_vector_1'> +9.5944322e-05 </wgt>
<wgt id='morphing_basis_vector_2'> +6.5105104e-05 </wgt>
<wgt id='morphing_basis_vector_3'> +1.0364523e-04 </wgt>
<wgt id='morphing_basis_vector_4'> +7.2086906e-05 </wgt>
<wgt id='morphing_basis_vector_5'> +1.1598719e-04 </wgt>
</rwgt>
</event>
<event>
 4      1 +2.2016400e-08 2.25360200e+03 7.81860800e-03 7.97480600e-02
        2 -1    0    0  501    0 +0.0000000000e+00 +0.0000000000e+00 +1.9885036592e+03 1.9885036592e+03 0.0000000000e+00 0.0000e+00 -1.0000e+00
       -2 -1    0    0    0  501 -0.0000000000e+00 -0.0000000000e+00 -6.3851026149e+02 6.3851026149e+02 0.0000000000e+00 0.0000e+00 1.0000e+00
      -13  1    1    2    0    0 -7.7430051660e+02 +1.4985840156e+02 -2.6313945494e+02 8.3140916718e+02 0.0000000000e+00 0.0000e+00 1.0000e+00
       13  1    1    2    0    0 +7.7430051660e+02 -1.4985840156e+02 +1.6131328527e+03 1.7956047535e+03 0.0000000000e+00 0.0000e+00 -1.0000e+00
<mgrwt>
<rscale>  0 0.22536016E+04</rscale>
<asrwt>0</asrwt>
<pdfrwt beam="1">  1        2 0.30592364E+00 0.22536016E+04</pdfrwt>
<pdfrwt beam="2">  1       -2 0.98232349E-01 0.22536016E+04</pdfrwt>
<totfact> 0.67786616E+00</totfact>
</mgrwt>
<rwgt>
<wgt id='morphing_basis_vector_1'> +7.8973614e-05 </wgt>
<wgt id='morphing_basis_vector_2'> +5.3015676e-05 </wgt>
<wgt id='morphing_basis_vector_3'> +8.4987630e-05 </wgt>
<wgt id='morphing_basis_vector_4'> +5.9579101e-05 </wgt>
<wgt id='morphing_basis_vector_5'> +9.5198462e-05 </wgt>
</rwgt>
</event>
<event>
 4      1 +2.2016400e-08 2.32171200e+03 7.81860800e-03 7.95104800e-02
        2 -1    0    0  501    0 +0.0000000000e+00 +0.0000000000e+00 +2.0481584125e+03 2.0481584125e+03 0.0000000000e+00 0.0000e+00 -1.0000e+00
       -2 -1    0    0    0  501 -0.0000000000e+00 -0.0000000000e+00 -6.5795017094e+02 6.5795017094e+02 0.0000000000e+00 0.0000e+00 1.0000e+00
      -13  1    1    2    0    0 -2.1057214069e+02 -4.0957023677e+02 -5.4692017846e+02 7.1498957118e+02 0.0000000000e+00 0.0000e+00 1.0000e+00
       13  1    1    2    0    0 +2.1057214069e+02 +4.0957023677e+02 +1.9371284200e+03 1.9911190122e+03 0.0000000000e+00 0.0000e+00 -1.0000e+00
<mgrwt>
<rscale>  0 0.23217116E+04</rscale>
<asrwt>0</asrwt>
<pdfrwt beam="1">  1        2 0.31510129E+00 0.23217116E+04</pdfrwt>
<pdfrwt beam="2">  1       -2 0.10122310E+00 0.23217116E+04</pdfrwt>
<totfact> 0.58019589E+00</totfact>
</mgrwt>
<rwgt>
<wgt id='morphing_basis_vector_1'> +8.8704865e-05 </wgt>
<wgt id='morphing_basis_vector_2'> +5.9399649e-05 </wgt>
<wgt id='morphing_basis_vector_3'> +9.5583012e-05 </wgt>
<wgt id='morphing_basis_vector_4'> +6.7423456e-05 </wgt>
<wgt id='morphing_basis_vector_5'> +1.0745074e-04 </wgt>
</rwgt>
</event>
<event>
 4      1 +2.2016400e-08 2.35197300e+03 7.81860800e-03 7.94076100e-02
        2 -1    0    0  501    0 +0.0000000000e+00 +0.0000000000e+00 +1.6146835918e+03 1.6146835918e+03 0.0000000000e+00 0.0000e+00 -1.0000e+00
       -2 -1    0    0    0  501 -0.0000000000e+00 -0.0000000000e+00 -8.5648022199e+02 8.5648022199e+02 0.0000000000e+00 0.0000e+00 1.0000e+00
      -13  1    1    2    0    0 -4.8945459171e+01 +4.4128715042e+02 -7.6503403102e+02 8.8453777518e+02 0.0000000000e+00 0.0000e+00 1.0000e+00
       13  1    1    2    0    0 +4.8945459171e+01 -4.4128715042e+02 +1.5232374008e+03 1.5866260386e+03 0.0000000000e+00 0.0000e+00 -1.0000e+00
<mgrwt>
<rscale>  0 0.23519733E+04</rscale>
<asrwt>0</asrwt>
<pdfrwt beam="1">  1        2 0.24841286E+00 0.23519733E+04</pdfrwt>
<pdfrwt beam="2">  1       -2 0.13176619E+00 0.23519733E+04</pdfrwt>
<totfact> 0.51515871E+00</totfact>
</mgrwt>
<rwgt>
<wgt id='morphing_basis_vector_1'> +9.3347567e-05 </wgt>
<wgt id='morphing_basis_vector_2'> +6.2533802e-05 </wgt>
<wgt id='morphing_basis_vector_3'> +1.0065651e-04 </wgt>
<wgt id='morphing_basis_vector_4'> +7.1063202e-05 </wgt>
<wgt id='morphing_basis_vector_5'> +1.1324971e-04 </wgt>
</rwgt>
</event>
<event>
 4      1 +2.2016400e-08 2.41041000e+03 7.81860800e-03 7.92133700e-02
        2 -1    0    0  501    0 +0.0000000000e+00 +0.0000000000e+00 +3.5312688407e+03 3.5312688407e+03 0.0000000000e+00 0.0000e+00 1.0000e+00
       -2 -1    0    0    0  501 -0.0000000000e+00 -0.0000000000e+00 -4.1133060225e+02 4.1133060225e+02 0.0000000000e+00 0.0000e+00 -1.0000e+00
      -13  1    1    2    0    0 -2.8812584124e+02 -9.8128621228e+02 +5.1701630097e+02 1.1459690163e+03 0.0000000000e+00 0.0000e+00 1.0000e+00
       13  1    1    2    0    0 +2.8812584124e+02 +9.8128621228e+02 +2.6029219374e+03 2.7966304266e+03 0.0000000000e+00 0.0000e+00 -1.0000e+00
<mgrwt>
<rscale>  0 0.24104099E+04</rscale>
<asrwt>0</asrwt>
<pdfrwt beam="1">  1        2 0.54327211E+00 0.24104099E+04</pdfrwt>
<pdfrwt beam="2">  1       -2 0.63281633E-01 0.24104099E+04</pdfrwt>
<totfact> 0.19083800E+00</totfact>
</mgrwt>
<rwgt>
<wgt id='morphing_basis_vector_1'> +1.0321796e-04 </wgt>
<wgt id='morphing_basis_vector_2'> +7.0085255e-05 </wgt>
<wgt id='morphing_basis_vector_3'> +1.1161301e-04 </wgt>
<wgt id='morphing_basis_vector_4'> +7.7710039e-05 </wgt>
<wgt id='morphing_basis_vector_5'> +1.2504111e-04 </wgt>
</rwgt>
</event>
<event>
 4      1 +2.2016400e-08 2.27655000e+03 7.81860800e-03 7.96670600e-02
        2 -1    0    0  501    0 +0.0000000000e+00 +0.0000000000e+00 +2.8071715189e+03 2.8071715189e+03 0.0000000000e+00 0.0000e+00 1.0000e+00
       -2 -1    0    0    0  501 -0.0000000000e+00 -0.0000000000e+00 -4.6155725475e+02 4.6155725475e+02 0.0000000000e+00 0.0000e+00 -1.0000e+00
      -13  1    1    2    0    0 -6.3440322738e+02 +4.0183647305e+02 +2.4010299643e+03 2.5157275082e+03 0.0000000000e+00 0.0000e+00 1.0000e+00
       13  1    1    2    0    0 +6.3440322738e+02 -4.0183647305e+02 -5.5415700141e+01 7.5300126547e+02 0.0000000000e+00 0.0000e+00 -1.0000e+00
<mgrwt>
<rscale>  0 0.22765504E+04</rscale>
<asrwt>0</asrwt>
<pdfrwt beam="1">  1        2 0.43187253E+00 0.22765504E+04</pdfrwt>
<pdfrwt beam="2">  1       -2 0.71008810E-01 0.22765504E+04</pdfrwt>
<totfact> 0.46715944E+00</totfact>
</mgrwt>
<rwgt>
<wgt id='morphing_basis_vector_1'> +1.0778128e-04 </wgt>
<wgt id='morphing_basis_vector_2'> +1.3081094e-04 </wgt>
<wgt id='morphing_basis_vector_3'> +1.2689541e-04 </wgt>
<wgt id='morphing_basis_vector_4'> +1.0196082e-05 </wgt>
<wgt id='morphing_basis_vector_5'> +9.5034095e-05 </wgt>
</rwgt>
</event>
<event>
 4      1 +2.2016400e-08 2.49486100e+03 7.81860800e-03 7.89424400e-02
        2 -1    0    0  501    0 +0.0000000000e+00 +0.0000000000e+00 +1.3108795107e+03 1.3108795107e+03 0.0000000000e+00 0.0000e+00 -1.0000e+00
       -2 -1    0    0    0  501 -0.0000000000e+00 -0.0000000000e+00 -1.1870523359e+03 1.1870523359e+03 0.0000000000e+00 0.0000e+00 1.0000e+00
      -13  1    1    2    0    0 +7.3714354658e+02 -8.7976656086e+01 -9.4179838994e+02 1.1992100348e+03 0.0000000000e+00 0.0000e+00 1.0000e+00
       13  1    1    2    0    0 -7.3714354658e+02 +8.7976656086e+01 +1.0656255647e+03 1.2987218118e+03 0.0000000000e+00 0.0000e+00 -1.0000e+00
<mgrwt>
<rscale>  0 0.24948608E+04</rscale>
<asrwt>0</asrwt>
<pdfrwt beam="1">  1        2 0.20167377E+00 0.24948608E+04</pdfrwt>
<pdfrwt beam="2">  1       -2 0.18262344E+00 0.24948608E+04</pdfrwt>
<totfact> 0.29109246E+00</totfact>
</mgrwt>
<rwgt>
<wgt id='morphing_basis_vector_1'> +1.1784777e-04 </wgt>
<wgt id='morphing_basis_vector_2'> +7.9212144e-05 </wgt>
<wgt id='morphing_basis_vector_3'> +1.2748076e-04 </wgt>
<wgt id='morphing_basis_vector_4'> +9.0150815e-05 </wgt>
<wgt id='morphing_basis_vector_5'> +1.4383604e-04 </wgt>
</rwgt>
</event>
<event>
 4      1 +2.2016400e-08 2.23240900e+03 7.81860800e-03 7.98237500e-02
        2 -1    0    0  501    0 +0.0000000000e+00 +0.0000000000e+00 +1.3992869456e+03 1.3992869456e+03 0.0000000000e+00 0.0000e+00 -1.0000e+00
       -2 -1    0    0    0  501 -0.0000000000e+00 -0.0000000000e+00 -8.9039131256e+02 8.9039131256e+02 0.0000000000e+00 0.0000e+00 1.0000e+00
      -13  1    1    2    0    0 +9.2236777663e+02 +6.8518601875e+01 -3.8644672103e+02 1.0023962202e+03 0.0000000000e+00 0.0000e+00 1.0000e+00
       13  1    1    2    0    0 -9.2236777663e+02 -6.8518601875e+01 +8.9534235412e+02 1.2872820380e+03 0.0000000000e+00 0.0000e+00 -1.0000e+00
<mgrwt>
<rscale>  0 0.22324094E+04</rscale>
<asrwt>0</asrwt>
<pdfrwt beam="1">  1        2 0.21527492E+00 0.22324094E+04</pdfrwt>
<pdfrwt beam="2">  1       -2 0.13698328E+00 0.22324094E+04</pdfrwt>
<totfact> 0.61804631E+00</totfact>
</mgrwt>
<rwgt>
<wgt id='morphing_basis_vector_1'> +7.6249326e-05 </wgt>
<wgt id='morphing_basis_vector_2'> +5.1530262e-05 </wgt>
<wgt id='morphing_basis_vector_3'> +8.2076024e-05 </wgt>
<wgt id='morphing_basis_vector_4'> +5.7015847e-05 </wgt>
<wgt id='morphing_basis_vector_5'> +9.1586893e-05 </wgt>
</rwgt>
</event>
<event>
 4      1 +2.2016400e-08 2.25196900e+03 7.81860800e-03 7.97538600e-02
        2 -1    0    0  501    0 +0.0000000000e+00 +0.0000000000e+00 +2.3209219365e+03 2.3209219365e+03 0.0000000000e+00 0.0000e+00 1.0000e+00
       -2 -1    0    0    0  501 -0.0000000000e+00 -0.0000000000e+00 -5.4626613571e+02 5.4626613571e+02 0.0000000000e+00 0.0000e+00 -1.0000e+00
      -13  1    1    2    0    0 -3.9262638264e+02 -9.4203300922e+02 +2.8171225463e+02 1.0587461741e+03 0.0000000000e+00 0.0000e+00 -1.0000e+00
       13  1    1    2    0    0 +3.9262638264e+02 +9.4203300922e+02 +1.4929435462e+03 1.8084418981e+03 0.0000000000e+00 0.0000e+00 1.0000e+00
<mgrwt>
<rscale>  0 0.22519690E+04</rscale>
<asrwt>0</asrwt>
<pdfrwt beam="1">  1        2 0.35706491E+00 0.22519690E+04</pdfrwt>
<pdfrwt beam="2">  1       -2 0.84040945E-01 0.22519690E+04</pdfrwt>
<totfact> 0.63122888E+00</totfact>
</mgrwt>
<rwgt>
<wgt id='morphing_basis_vector_1'> +7.9177832e-05 </wgt>
<wgt id='morphing_basis_vector_2'> +5.4131404e-05 </wgt>
<wgt id='morphing_basis_vector_3'> +8.5384350e-05 </wgt>
<wgt id='morphing_basis_vector_4'> +5.8535189e-05 </wgt>
<wgt id='morphing_basis_vector_5'> +9.4848901e-05 </wgt>
</rwgt>
</event>
<event>
 4      1 +2.2016400e-08 2.40710900e+03 7.81860800e-03 7.92241900e-02
        2 -1    0    0  501    0 +0.0000000000e+00 +0.0000000000e+00 +1.9539764852e+03 1.9539764852e+03 0.0000000000e+00 0.0000e+00 1.0000e+00
       -2 -1    0    0    0  501 -0.0000000000e+00 -0.0000000000e+00 -7.4133110425e+02 7.4133110425e+02 0.0000000000e+00 0.0000e+00 -1.0000e+00
      -13  1    1    2    0    0 -5.6999117664e+02 -1.3360986132e+02 -5.7115109806e+02 8.1789676201e+02 0.0000000000e+00 0.0000e+00 -1.0000e+00
       13  1    1    2    0    0 +5.6999117664e+02 +1.3360986132e+02 +1.7837964790e+03 1.8774108274e+03 0.0000000000e+00 0.0000e+00 1.0000e+00
<mgrwt>
<rscale>  0 0.24071091E+04</rscale>
<asrwt>0</asrwt>
<pdfrwt beam="1">  1        2 0.30061177E+00 0.24071091E+04</pdfrwt>
<pdfrwt beam="2">  1       -2 0.11405094E+00 0.24071091E+04</pdfrwt>
<totfact> 0.48373524E+00</totfact>
</mgrwt>
<rwgt>
<wgt id='morphing_basis_vector_1'> +1.0228992e-04 </wgt>
<wgt id='morphing_basis_vector_2'> +6.8607083e-05 </wgt>
<wgt id='morphing_basis_vector_3'> +1.1043987e-04 </wgt>
<wgt id='morphing_basis_vector_4'> +7.8038134e-05 </wgt>
<wgt id='morphing_basis_vector_5'> +1.2440944e-04 </wgt>
</rwgt>
</event>
<event>
 4      1 +2.2016400e-08 2.55598800e+03 7.81860800e-03 7.87531000e-02
        2 -1    0    0  501    0 +0.0000000000e+00 +0.0000000000e+00 +1.8917798395e+03 1.8917798395e+03 0.0000000000e+00 0.0000e+00 -1.0000e+00
       -2 -1    0    0    0  501 -0.0000000000e+00 -0.0000000000e+00 -8.6335062298e+02 8.6335062298e+02 0.0000000000e+00 0.0000e+00 1.0000e+00
      -13  1    1    2    0    0 +1.1334430723e+03 +5.8812560309e+02 +4.5836691438e+02 1.3567185233e+03 0.0000000000e+00 0.0000e+00 1.0000e+00
       13  1    1    2    0    0 -1.1334430723e+03 -5.8812560309e+02 +5.7006230211e+02 1.3984119391e+03 0.0000000000e+00 0.0000e+00 -1.0000e+00
<mgrwt>
<rscale>  0 0.25559885E+04</rscale>
<asrwt>0</asrwt>
<pdfrwt beam="1">  1        2 0.29104305E+00 0.25559885E+04</pdfrwt>
<pdfrwt beam="2">  1       -2 0.13282317E+00 0.25559885E+04</pdfrwt>
<totfact> 0.34719179E+00</totfact>
</mgrwt>
<rwgt>
<wgt id='morphing_basis_vector_1'> +1.3370871e-04 </wgt>
<wgt id='morphing_basis_vector_2'> +9.9139296e-05 </wgt>
<wgt id='morphing_basis_vector_3'> +1.4661646e-04 </wgt>
<wgt id='morphing_basis_vector_4'> +9.1135933e-05 </wgt>
<wgt id='morphing_basis_vector_5'> +1.5797828e-04 </wgt>
</rwgt>
</event>
<event>
 4      1 +2.2016400e-08 2.33148600e+03 7.81860800e-03 7.94770800e-02
        2 -1    0    0  501    0 +0.0000000000e+00 +0.0000000000e+00 +1.0260410831e+03 1.0260410831e+03 0.0000000000e+00 0.0000e+00 -1.0000e+00
       -2 -1    0    0    0  501 -0.0000000000e+00 -0.0000000000e+00 -1.3244657063e+03 1.3244657063e+03 0.0000000000e+00 0.0000e+00 1.0000e+00
      -13  1    1    2    0    0 +5.5593939755e+02 +5.1129453399e+02 -1.0444124311e+03 1.2889096324e+03 0.0000000000e+00 0.0000e+00 1.0000e+00
       13  1    1    2    0    0 -5.5593939755e+02 -5.1129453399e+02 +7.4598780792e+02 1.0615971570e+03 0.0000000000e+00 0.0000e+00 -1.0000e+00
<mgrwt>
<rscale>  0 0.23314856E+04</rscale>
<asrwt>0</asrwt>
<pdfrwt beam="1">  1        2 0.15785247E+00 0.23314856E+04</pdfrwt>
<pdfrwt beam="2">  1       -2 0.20376395E+00 0.23314856E+04</pdfrwt>
<totfact> 0.30330658E+00</totfact>
</mgrwt>
<rwgt>
<wgt id='morphing_basis_vector_1'> +9.0245556e-05 </wgt>
<wgt id='morphing_basis_vector_2'> +6.0577892e-05 </wgt>
<wgt id='morphing_basis_vector_3'> +9.7291616e-05 </wgt>
<wgt id='morphing_basis_vector_4'> +6.8460074e-05 </wgt>
<wgt id='morphing_basis_vector_5'> +1.0928894e-04 </wgt>
</rwgt>
</event>
<event>
 4      1 +2.2016400e-08 2.26042000e+03 7.81860800e-03 7.97238900e-02
        2 -1    0    0  501    0 +0.0000000000e+00 +0.0000000000e+00 +1.6044757758e+03 1.6044757758e+03 0.0000000000e+00 0.0000e+00 1.0000e+00
       -2 -1    0    0    0  501 -0.0000000000e+00 -0.0000000000e+00 -7.9613191044e+02 7.9613191044e+02 0.0000000000e+00 0.0000e+00 -1.0000e+00
      -13  1    1    2    0    0 -1.0797248160e+03 +7.7769977816e+01 +7.4915720362e+02 1.3164688996e+03 0.0000000000e+00 0.0000e+00 -1.0000e+00
       13  1    1    2    0    0 +1.0797248160e+03 -7.7769977816e+01 +5.9186661733e+01 1.0841387867e+03 0.0000000000e+00 0.0000e+00 1.0000e+00
<mgrwt>
<rscale>  0 0.22604198E+04</rscale>
<asrwt>0</asrwt>
<pdfrwt beam="1">  1        2 0.24684243E+00 0.22604198E+04</pdfrwt>
<pdfrwt beam="2">  1       -2 0.12248183E+00 0.22604198E+04</pdfrwt>
<totfact> 0.63829844E+00</totfact>
</mgrwt>
<rwgt>
<wgt id='morphing_basis_vector_1'> +8.7626111e-05 </wgt>
<wgt id='morphing_basis_vector_2'> +7.6430852e-05 </wgt>
<wgt id='morphing_basis_vector_3'> +9.7566337e-05 </wgt>
<wgt id='morphing_basis_vector_4'> +4.4703089e-05 </wgt>
<wgt id='morphing_basis_vector_5'> +9.5122100e-05 </wgt>
</rwgt>
</event>
<event>
 4      1 +2.2016400e-08 2.54357400e+03 7.81860800e-03 7.87911100e-02
        2 -1    0    0  501    0 +0.0000000000e+00 +0.0000000000e+00 +1.9407442507e+03 1.9407442507e+03 0.0000000000e+00 0.0000e+00 -1.0000e+00
       -2 -1    0    0    0  501 -0.0000000000e+00 -0.0000000000e+00 -8.3341346575e+02 8.3341346575e+02 0.0000000000e+00 0.0000e+00 1.0000e+00
      -13  1    1    2    0    0 -6.3064099026e+02 +5.0768157321e+02 -5.1606138596e+02 9.6008749208e+02 0.0000000000e+00 0.0000e+00 1.0000e+00
       13  1    1    2    0    0 +6.3064099026e+02 -5.0768157321e+02 +1.6233921709e+03 1.8140702244e+03 0.0000000000e+00 0.0000e+00 -1.0000e+00
<mgrwt>
<rscale>  0 0.25435742E+04</rscale>
<asrwt>0</asrwt>
<pdfrwt beam="1">  1        2 0.29857604E+00 0.25435742E+04</pdfrwt>
<pdfrwt beam="2">  1       -2 0.12821746E+00 0.25435742E+04</pdfrwt>
<totfact> 0.35860031E+00</totfact>
</mgrwt>
<rwgt>
<wgt id='morphing_basis_vector_1'> +1.2722370e-04 </wgt>
<wgt id='morphing_basis_vector_2'> +8.5621083e-05 </wgt>
<wgt id='morphing_basis_vector_3'> +1.3776049e-04 </wgt>
<wgt id='morphing_basis_vector_4'> +9.7441851e-05 </wgt>
<wgt id='morphing_basis_vector_5'> +1.5555076e-04 </wgt>
</rwgt>
</event>
<event>
 4      1 +2.2016400e-08 2.37268400e+03 7.81860800e-03 7.93381100e-02
        2 -1    0    0  501    0 +0.0000000000e+00 +0.0000000000e+00 +2.4310797646e+03 2.4310797646e+03 0.0000000000e+00 0.0000e+00 -1.0000e+00
       -2 -1    0    0    0  501 -0.0000000000e+00 -0.0000000000e+00 -5.7892262751e+02 5.7892262751e+02 0.0000000000e+00 0.0000e+00 1.0000e+00
      -13  1    1    2    0    0 +1.1429038121e+03 -2.9487072720e+02 +7.7475120815e+02 1.4118843097e+03 0.0000000000e+00 0.0000e+00 1.0000e+00
       13  1    1    2    0    0 -1.1429038121e+03 +2.9487072720e+02 +1.0774059289e+03 1.5981180824e+03 0.0000000000e+00 0.0000e+00 -1.0000e+00
<mgrwt>
<rscale>  0 0.23726838E+04</rscale>
<asrwt>0</asrwt>
<pdfrwt beam="1">  1        2 0.37401227E+00 0.23726838E+04</pdfrwt>
<pdfrwt beam="2">  1       -2 0.89065021E-01 0.23726838E+04</pdfrwt>
<totfact> 0.47060184E+00</totfact>
</mgrwt>
<rwgt>
<wgt id='morphing_basis_vector_1'> +9.9069720e-05 </wgt>
<wgt id='morphing_basis_vector_2'> +7.1956479e-05 </wgt>
<wgt id='morphing_basis_vector_3'> +1.0793459e-04 </wgt>
<wgt id='morphing_basis_vector_4'> +6.8664393e-05 </wgt>
<wgt id='morphing_basis_vector_5'> +1.1694994e-04 </wgt>
</rwgt>
</event>
<event>
 4      1 +2.2016400e-08 2.24484100e+03 7.81860800e-03 7.97792400e-02
        2 -1    0    0  501    0 +0.0000000000e+00 +0.0000000000e+00 +2.7934328533e+03 2.7934328533e+03 0.0000000000e+00 0.0000e+00 1.0000e+00
       -2 -1    0    0    0  501 -0.0000000000e+00 -0.0000000000e+00 -4.5099625685e+02 4.5099625685e+02 0.0000000000e+00 0.0000e+00 -1.0000e+00
      -13  1    1    2    0    0 -8.4475414323e+02 +5.4095906347e+02 +4.4341925349e+02 1.0967528916e+03 0.0000000000e+00 0.0000e+00 -1.0000e+00
       13  1    1    2    0    0 +8.4475414323e+02 -5.4095906347e+02 +1.8990173430e+03 2.1476762186e+03 0.0000000000e+00 0.0000e+00 1.0000e+00
<mgrwt>
<rscale>  0 0.22448410E+04</rscale>
<asrwt>0</asrwt>
<pdfrwt beam="1">  1        2 0.42975889E+00 0.22448410E+04</pdfrwt>
<pdfrwt beam="2">  1       -2 0.69384041E-01 0.22448410E+04</pdfrwt>
<totfact> 0.50219503E+00</totfact>
</mgrwt>
<rwgt>
<wgt id='morphing_basis_vector_1'> +7.8134941e-05 </wgt>
<wgt id='morphing_basis_vector_2'> +5.3273527e-05 </wgt>
<wgt id='morphing_basis_vector_3'> +8.4218072e-05 </wgt>
<wgt id='morphing_basis_vector_4'> +5.7909939e-05 </wgt>
<wgt id='morphing_basis_vector_5'> +9.3644794e-05 </wgt>
</rwgt>
</event>
<event>
 4      1 +2.2016400e-08 2.26141900e+03 7.81860800e-03 7.97203600e-02
        2 -1    0    0  501    0 +0.0000000000e+00 +0.0000000000e+00 +1.5049148754e+03 1.5049148754e+03 0.0000000000e+00 0.0000e+00 1.0000e+00
       -2 -1    0    0    0  501 -0.0000000000e+00 -0.0000000000e+00 -8.4955210912e+02 8.4955210912e+02 0.0000000000e+00 0.0000e+00 -1.0000e+00
      -13  1    1    2    0    0 -6.6599945094e+02 -1.0992131299e+02 -6.1676236333e+02 9.1434882650e+02 0.0000000000e+00 0.0000e+00 -1.0000e+00
       13  1    1    2    0    0 +6.6599945094e+02 +1.0992131299e+02 +1.2721251296e+03 1.4401181580e+03 0.0000000000e+00 0.0000e+00 1.0000e+00
<mgrwt>
<rscale>  0 0.22614187E+04</rscale>
<asrwt>0</asrwt>
<pdfrwt beam="1">  1        2 0.23152536E+00 0.22614187E+04</pdfrwt>
<pdfrwt beam="2">  1       -2 0.13070032E+00 0.22614187E+04</pdfrwt>
<totfact> 0.61106778E+00</totfact>
</mgrwt>
<rwgt>
<wgt id='morphing_basis_vector_1'> +8.0006438e-05 </wgt>
<wgt id='morphing_basis_vector_2'> +5.3599499e-05 </wgt>
<wgt id='morphing_basis_vector_3'> +8.6095123e-05 </wgt>
<wgt id='morphing_basis_vector_4'> +6.0526118e-05 </wgt>
<wgt id='morphing_basis_vector_5'> +9.6555560e-05 </wgt>
</rwgt>
</event>
<event>
 4      1 +2.2016400e-08 2.40830500e+03 7.81860800e-03 7.92202700e-02
        2 -1    0    0  501    0 +0.0000000000e+00 +0.0000000000e+00 +7.1066162561e+02 7.1066162561e+02 0.0000000000e+00 0.0000e+00 -1.0000e+00
       -2 -1    0    0    0  501 -0.0000000000e+00 -0.0000000000e+00 -2.0403278768e+03 2.0403278768e+03 0.0000000000e+00 0.0000e+00 1.0000e+00
      -13  1    1    2    0    0 +4.7360024052e+02 -1.0766626512e+03 -3.7030073190e+02 1.2331351444e+03 0.0000000000e+00 0.0000e+00 1.0000e+00
       13  1    1    2    0    0 -4.7360024052e+02 +1.0766626512e+03 -9.5936551925e+02 1.5178543579e+03 0.0000000000e+00 0.0000e+00 -1.0000e+00
<mgrwt>
<rscale>  0 0.24083046E+04</rscale>
<asrwt>0</asrwt>
<pdfrwt beam="1">  1        2 0.10933256E+00 0.24083046E+04</pdfrwt>
<pdfrwt beam="2">  1       -2 0.31389659E+00 0.24083046E+04</pdfrwt>
<totfact> 0.85013780E-01</totfact>
</mgrwt>
<rwgt>
<wgt id='morphing_basis_vector_1'> +1.1035480e-04 </wgt>
<wgt id='morphing_basis_vector_2'> +9.1959696e-05 </wgt>
<wgt id='morphing_basis_vector_3'> +1.2258475e-04 </wgt>
<wgt id='morphing_basis_vector_4'> +6.2145064e-05 </wgt>
<wgt id='morphing_basis_vector_5'> +1.2336415e-04 </wgt>
</rwgt>
</event>
<event>
 4      1 +2.2016400e-08 2.23186100e+03 7.81860800e-03 7.98257200e-02
        2 -1    0    0  501    0 +0.0000000000e+00 +0.0000000000e+00 +2.8676256122e+03 2.8676256122e+03 0.0000000000e+00 0.0000e+00 1.0000e+00
       -2 -1    0    0    0  501 -0.0000000000e+00 -0.0000000000e+00 -4.3426216251e+02 4.3426216251e+02 0.0000000000e+00 0.0000e+00 -1.0000e+00
      -13  1    1    2    0    0 -1.1009800734e+03 -1.4079598441e+02 +1.0459327521e+03 1.5251085054e+03 0.0000000000e+00 0.0000e+00 -1.0000e+00
       13  1    1    2    0    0 +1.1009800734e+03 +1.4079598441e+02 +1.3874306977e+03 1.7767792694e+03 0.0000000000e+00 0.0000e+00 1.0000e+00
<mgrwt>
<rscale>  0 0.22318614E+04</rscale>
<asrwt>0</asrwt>
<pdfrwt beam="1">  1        2 0.44117316E+00 0.22318614E+04</pdfrwt>
<pdfrwt beam="2">  1       -2 0.66809565E-01 0.22318614E+04</pdfrwt>
<totfact> 0.48932515E+00</totfact>
</mgrwt>
<rwgt>
<wgt id='morphing_basis_vector_1'> +7.7831898e-05 </wgt>
<wgt id='morphing_basis_vector_2'> +5.6374695e-05 </wgt>
<wgt id='morphing_basis_vector_3'> +8.4470102e-05 </wgt>
<wgt id='morphing_basis_vector_4'> +5.3610053e-05 </wgt>
<wgt id='morphing_basis_vector_5'> +9.1227361e-05 </wgt>
</rwgt>
</event>
<event>
 4      1 +2.2016400e-08 2.32601300e+03 7.81860800e-03 7.94957600e-02
        2 -1    0    0  501    0 +0.0000000000e+00 +0.0000000000e+00 +3.4165613144e+03 3.4165613144e+03 0.0000000000e+00 0.0000e+00 1.0000e+00
       -2 -1    0    0    0  501 -0.0000000000e+00 -0.0000000000e+00 -3.9589041775e+02 3.9589041775e+02 0.0000000000e+00 0.0000e+00 -1.0000e+00
      -13  1    1    2    0    0 -5.2606186446e+02 +4.2656752947e+02 -3.9310834878e+01 6.7841453713e+02 0.0000000000e+00 0.0000e+00 -1.0000e+00
       13  1    1    2    0    0 +5.2606186446e+02 -4.2656752947e+02 +3.0599817315e+03 3.1340371950e+03 0.0000000000e+00 0.0000e+00 1.0000e+00
<mgrwt>
<rscale>  0 0.23260128E+04</rscale>
<asrwt>0</asrwt>
<pdfrwt beam="1">  1        2 0.52562480E+00 0.23260128E+04</pdfrwt>
<pdfrwt beam="2">  1       -2 0.60906221E-01 0.23260128E+04</pdfrwt>
<totfact> 0.25202064E+00</totfact>
</mgrwt>
<rwgt>
<wgt id='morphing_basis_vector_1'> +8.9386071e-05 </wgt>
<wgt id='morphing_basis_vector_2'> +5.9932777e-05 </wgt>
<wgt id='morphing_basis_vector_3'> +9.6340632e-05 </wgt>
<wgt id='morphing_basis_vector_4'> +6.7866711e-05 </wgt>
<wgt id='morphing_basis_vector_5'> +1.0825588e-04 </wgt>
</rwgt>
</event>
<event>
 4      1 +2.2016400e-08 2.66558000e+03 7.81860800e-03 7.84268000e-02
        2 -1    0    0  501    0 +0.0000000000e+00 +0.0000000000e+00 +1.7999868904e+03 1.7999868904e+03 0.0000000000e+00 0.0000e+00 1.0000e+00
       -2 -1    0    0    0  501 -0.0000000000e+00 -0.0000000000e+00 -9.8685668027e+02 9.8685668027e+02 0.0000000000e+00 0.0000e+00 -1.0000e+00
      -13  1    1    2    0    0 -6.5550311275e+02 -1.1604444077e+03 +4.0271902965e+02 1.3922995982e+03 0.0000000000e+00 0.0000e+00 -1.0000e+00
       13  1    1    2    0    0 +6.5550311275e+02 +1.1604444077e+03 +4.1041118052e+02 1.3945439725e+03 0.0000000000e+00 0.0000e+00 1.0000e+00
<mgrwt>
<rscale>  0 0.26655799E+04</rscale>
<asrwt>0</asrwt>
<pdfrwt beam="1">  1        2 0.27692106E+00 0.26655799E+04</pdfrwt>
<pdfrwt beam="2">  1       -2 0.15182410E+00 0.26655799E+04</pdfrwt>
<totfact> 0.26657146E+00</totfact>
</mgrwt>
<rwgt>
<wgt id='morphing_basis_vector_1'> +1.5855580e-04 </wgt>
<wgt id='morphing_basis_vector_2'> +1.1925646e-04 </wgt>
<wgt id='morphing_basis_vector_3'> +1.7453549e-04 </wgt>
<wgt id='morphing_basis_vector_4'> +1.0653159e-04 </wgt>
<wgt id='morphing_basis_vector_5'> +1.8711098e-04 </wgt>
</rwgt>
</event>
<event>
 4      1 +2.2016400e-08 2.35082700e+03 7.81860800e-03 7.94114700e-02
        2 -1    0    0  501    0 +0.0000000000e+00 +0.0000000000e+00 +3.8146579770e+03 3.8146579770e+03 0.0000000000e+00 0.0000e+00 -1.0000e+00
       -2 -1    0    0    0  501 -0.0000000000e+00 -0.0000000000e+00 -3.6218102294e+02 3.6218102294e+02 0.0000000000e+00 0.0000e+00 1.0000e+00
      -13  1    1    2    0    0 +8.2813718409e+02 +3.3061305561e+02 +3.6556507698e+02 9.6371884578e+02 0.0000000000e+00 0.0000e+00 1.0000e+00
       13  1    1    2    0    0 -8.2813718409e+02 -3.3061305561e+02 +3.0869118770e+03 3.2131201541e+03 0.0000000000e+00 0.0000e+00 -1.0000e+00
<mgrwt>
<rscale>  0 0.23508269E+04</rscale>
<asrwt>0</asrwt>
<pdfrwt beam="1">  1        2 0.58687043E+00 0.23508269E+04</pdfrwt>
<pdfrwt beam="2">  1       -2 0.55720160E-01 0.23508269E+04</pdfrwt>
<totfact> 0.15106095E+00</totfact>
</mgrwt>
<rwgt>
<wgt id='morphing_basis_vector_1'> +9.3330640e-05 </wgt>
<wgt id='morphing_basis_vector_2'> +6.2891909e-05 </wgt>
<wgt id='morphing_basis_vector_3'> +1.0070560e-04 </wgt>
<wgt id='morphing_basis_vector_4'> +7.0592553e-05 </wgt>
<wgt id='morphing_basis_vector_5'> +1.1299927e-04 </wgt>
</rwgt>
</event>
<event>
 4      1 +2.2016400e-08 2.25818300e+03 7.81860800e-03 7.97318100e-02
        2 -1    0    0  501    0 +0.0000000000e+00 +0.0000000000e+00 +2.0028848371e+03 2.0028848371e+03 0.0000000000e+00 0.0000e+00 -1.0000e+00
       -2 -1    0    0    0  501 -0.0000000000e+00 -0.0000000000e+00 -6.3650560221e+02 6.3650560221e+02 0.0000000000e+00 0.0000e+00 1.0000e+00
      -13  1    1    2    0    0 -4.6089893653e+02 -7.4007689931e+02 -1.5535091244e+02 8.8559333364e+02 0.0000000000e+00 0.0000e+00 1.0000e+00
       13  1    1    2    0    0 +4.6089893653e+02 +7.4007689931e+02 +1.5217301474e+03 1.7537971057e+03 0.0000000000e+00 0.0000e+00 -1.0000e+00
<mgrwt>
<rscale>  0 0.22581828E+04</rscale>
<asrwt>0</asrwt>
<pdfrwt beam="1">  1        2 0.30813613E+00 0.22581828E+04</pdfrwt>
<pdfrwt beam="2">  1       -2 0.97923939E-01 0.22581828E+04</pdfrwt>
<totfact> 0.67010967E+00</totfact>
</mgrwt>
<rwgt>
<wgt id='morphing_basis_vector_1'> +7.9677661e-05 </wgt>
<wgt id='morphing_basis_vector_2'> +5.3652699e-05 </wgt>
<wgt id='morphing_basis_vector_3'> +8.5785138e-05 </wgt>
<wgt id='morphing_basis_vector_4'> +5.9930294e-05 </wgt>
<wgt id='morphing_basis_vector_5'> +9.5975821e-05 </wgt>
</rwgt>
</event>
<event>
 4      1 +2.2016400e-08 2.24516700e+03 7.81860800e-03 7.97780800e-02
        2 -1    0    0  501    0 +0.0000000000e+00 +0.0000000000e+00 +1.6316301755e+03 1.6316301755e+03 0.0000000000e+00 0.0000e+00 1.0000e+00
       -2 -1    0    0    0  501 -0.0000000000e+00 -0.0000000000e+00 -7.7235260689e+02 7.7235260689e+02 0.0000000000e+00 0.0000e+00 -1.0000e+00
      -13  1    1    2    0    0 +7.1909661992e+02 -4.2336868263e+02 -3.7437883597e+02 9.1460401433e+02 0.0000000000e+00 0.0000e+00 -1.0000e+00
       13  1    1    2    0    0 -7.1909661992e+02 +4.2336868263e+02 +1.2336564046e+03 1.4893787681e+03 0.0000000000e+00 0.0000e+00 1.0000e+00
<mgrwt>
<rscale>  0 0.22451671E+04</rscale>
<asrwt>0</asrwt>
<pdfrwt beam="1">  1        2 0.25102003E+00 0.22451671E+04</pdfrwt>
<pdfrwt beam="2">  1       -2 0.11882348E+00 0.22451671E+04</pdfrwt>
<totfact> 0.66799837E+00</totfact>
</mgrwt>
<rwgt>
<wgt id='morphing_basis_vector_1'> +7.7852935e-05 </wgt>
<wgt id='morphing_basis_vector_2'> +5.2338883e-05 </wgt>
<wgt id='morphing_basis_vector_3'> +8.3778256e-05 </wgt>
<wgt id='morphing_basis_vector_4'> +5.8605214e-05 </wgt>
<wgt id='morphing_basis_vector_5'> +9.3753066e-05 </wgt>
</rwgt>
</event>
<event>
 4      1 +2.2016400e-08 2.65255400e+03 7.81860800e-03 7.84647400e-02
        2 -1    0    0  501    0 +0.0000000000e+00 +0.0000000000e+00 +2.9451967633e+03 2.9451967633e+03 0.0000000000e+00 0.0000e+00 1.0000e+00
       -2 -1    0    0    0  501 -0.0000000000e+00 -0.0000000000e+00 -5.9724723939e+02 5.9724723939e+02 0.0000000000e+00 0.0000e+00 -1.0000e+00
      -13  1    1    2    0    0 +8.5513531031e+02 +9.2655373052e+02 +6.2455255214e+02 1.4070622249e+03 0.0000000000e+00 0.0000e+00 -1.0000e+00
       13  1    1    2    0    0 -8.5513531031e+02 -9.2655373052e+02 +1.7233969718e+03 2.1353817778e+03 0.0000000000e+00 0.0000e+00 1.0000e+00
<mgrwt>
<rscale>  0 0.26525540E+04</rscale>
<asrwt>0</asrwt>
<pdfrwt beam="1">  1        2 0.45310719E+00 0.26525540E+04</pdfrwt>
<pdfrwt beam="2">  1       -2 0.91884192E-01 0.26525540E+04</pdfrwt>
<totfact> 0.20602288E+00</totfact>
</mgrwt>
<rwgt>
<wgt id='morphing_basis_vector_1'> +1.5170659e-04 </wgt>
<wgt id='morphing_basis_vector_2'> +1.0572833e-04 </wgt>
<wgt id='morphing_basis_vector_3'> +1.6528203e-04 </wgt>
<wgt id='morphing_basis_vector_4'> +1.1229030e-04 </wgt>
<wgt id='morphing_basis_vector_5'> +1.8407931e-04 </wgt>
</rwgt>
</event>
<event>
 4      1 +2.2016400e-08 2.38813500e+03 7.81860800e-03 7.92867400e-02
        2 -1    0    0  501    0 +0.0000000000e+00 +0.0000000000e+00 +1.3281901013e+03 1.3281901013e+03 0.0000000000e+00 0.0000e+00 -1.0000e+00
       -2 -1    0    0    0  501 -0.0000000000e+00 -0.0000000000e+00 -1.0734892089e+03 1.0734892089e+03 0.0000000000e+00 0.0000e+00 1.0000e+00
      -13  1    1    2    0    0 -7.5292140598e+02 -8.2518345862e+02 +5.5161903241e+02 1.2458338336e+03 0.0000000000e+00 0.0000e+00 1.0000e+00
       13  1    1    2    0    0 +7.5292140598e+02 +8.2518345862e+02 -2.9691813999e+02 1.1558454766e+03 0.0000000000e+00 0.0000e+00 -1.0000e+00
<mgrwt>
<rscale>  0 0.23881355E+04</rscale>
<asrwt>0</asrwt>
<pdfrwt beam="1">  1        2 0.20433694E+00 0.23881355E+04</pdfrwt>
<pdfrwt beam="2">  1       -2 0.16515219E+00 0.23881355E+04</pdfrwt>
<totfact> 0.39168133E+00</totfact>
</mgrwt>
<rwgt>
<wgt id='morphing_basis_vector_1'> +1.1105221e-04 </wgt>
<wgt id='morphing_basis_vector_2'> +1.0163156e-04 </wgt>
<wgt id='morphing_basis_vector_3'> +1.2502796e-04 </wgt>
<wgt id='morphing_basis_vector_4'> +5.1300394e-05 </wgt>
<wgt id='morphing_basis_vector_5'> +1.1852143e-04 </wgt>
</rwgt>
</event>
<event>
 4      1 +2.2016400e-08 2.26456600e+03 7.81860800e-03 7.97092300e-02
        2 -1    0    0  501    0 +0.0000000000e+00 +0.0000000000e+00 +3.2640965889e+03 3.2640965889e+03 0.0000000000e+00 0.0000e+00 1.0000e+00
       -2 -1    0    0    0  501 -0.0000000000e+00 -0.0000000000e+00 -3.9277782855e+02 3.9277782855e+02 0.0000000000e+00 0.0000e+00 -1.0000e+00
      -13  1    1    2    0    0 +3.6379672002e+02 -9.0791068866e+02 +5.1448090071e+02 1.1051427371e+03 0.0000000000e+00 0.0000e+00 -1.0000e+00
       13  1    1    2    0    0 -3.6379672002e+02 +9.0791068866e+02 +2.3568378597e+03 2.5517316804e+03 0.0000000000e+00 0.0000e+00 1.0000e+00
<mgrwt>
<rscale>  0 0.22645660E+04</rscale>
<asrwt>0</asrwt>
<pdfrwt beam="1">  1        2 0.50216869E+00 0.22645660E+04</pdfrwt>
<pdfrwt beam="2">  1       -2 0.60427360E-01 0.22645660E+04</pdfrwt>
<totfact> 0.32942866E+00</totfact>
</mgrwt>
<rwgt>
<wgt id='morphing_basis_vector_1'> +8.0758038e-05 </wgt>
<wgt id='morphing_basis_vector_2'> +5.4819492e-05 </wgt>
<wgt id='morphing_basis_vector_3'> +8.7042932e-05 </wgt>
<wgt id='morphing_basis_vector_4'> +6.0236095e-05 </wgt>
<wgt id='morphing_basis_vector_5'> +9.7051908e-05 </wgt>
</rwgt>
</event>
<event>
 4      1 +2.2016400e-08 2.64858300e+03 7.81860800e-03 7.84763500e-02
        2 -1    0    0  501    0 +0.0000000000e+00 +0.0000000000e+00 +2.4428509361e+03 2.4428509361e+03 0.0000000000e+00 0.0000e+00 1.0000e+00
       -2 -1    0    0    0  501 -0.0000000000e+00 -0.0000000000e+00 -7.1791050095e+02 7.1791050095e+02 0.0000000000e+00 0.0000e+00 -1.0000e+00
      -13  1    1    2    0    0 +1.1590504600e+03 -5.7420212220e+02 +5.2357961880e+02 1.3954360118e+03 0.0000000000e+00 0.0000e+00 -1.0000e+00
       13  1    1    2    0    0 -1.1590504600e+03 +5.7420212220e+02 +1.2013608164e+03 1.7653254253e+03 0.0000000000e+00 0.0000e+00 1.0000e+00
<mgrwt>
<rscale>  0 0.26485833E+04</rscale>
<asrwt>0</asrwt>
<pdfrwt beam="1">  1        2 0.37582322E+00 0.26485833E+04</pdfrwt>
<pdfrwt beam="2">  1       -2 0.11044777E+00 0.26485833E+04</pdfrwt>
<totfact> 0.26920941E+00</totfact>
</mgrwt>
<rwgt>
<wgt id='morphing_basis_vector_1'> +1.5160667e-04 </wgt>
<wgt id='morphing_basis_vector_2'> +1.0744697e-04 </wgt>
<wgt id='morphing_basis_vector_3'> +1.6552087e-04 </wgt>
<wgt id='morphing_basis_vector_4'> +1.0997173e-04 </wgt>
<wgt id='morphing_basis_vector_5'> +1.8283352e-04 </wgt>
</rwgt>
</event>
<event>
 4      1 +2.2016400e-08 2.40478200e+03 7.81860800e-03 7.92318300e-02
        2 -1    0    0  501    0 +0.0000000000e+00 +0.0000000000e+00 +1.0983997375e+03 1.0983997375e+03 0.0000000000e+00 0.0000e+00 -1.0000e+00
       -2 -1    0    0    0  501 -0.0000000000e+00 -0.0000000000e+00 -1.3162275674e+03 1.3162275674e+03 0.0000000000e+00 0.0000e+00 1.0000e+00
      -13  1    1    2    0    0 -1.4135494712e+02 +1.1416423179e+03 -4.6022577649e+02 1.2390061212e+03 0.0000000000e+00 0.0000e+00 1.0000e+00
       13  1    1    2    0    0 +1.4135494712e+02 -1.1416423179e+03 +2.4239794665e+02 1.1756211837e+03 0.0000000000e+00 0.0000e+00 -1.0000e+00
<mgrwt>
<rscale>  0 0.24047819E+04</rscale>
<asrwt>0</asrwt>
<pdfrwt beam="1">  1        2 0.16898458E+00 0.24047819E+04</pdfrwt>
<pdfrwt beam="2">  1       -2 0.20249655E+00 0.24047819E+04</pdfrwt>
<totfact> 0.27819272E+00</totfact>
</mgrwt>
<rwgt>
<wgt id='morphing_basis_vector_1'> +1.0309169e-04 </wgt>
<wgt id='morphing_basis_vector_2'> +7.1860476e-05 </wgt>
<wgt id='morphing_basis_vector_3'> +1.1181978e-04 </wgt>
<wgt id='morphing_basis_vector_4'> +7.5301972e-05 </wgt>
<wgt id='morphing_basis_vector_5'> +1.2372613e-04 </wgt>
</rwgt>
</event>
<event>
 4      1 +2.2016400e-08 2.30983300e+03 7.81860800e-03 7.95513100e-02
        2 -1    0    0  501    0 +0.0000000000e+00 +0.0000000000e+00 +1.6029896176e+03 1.6029896176e+03 0.0000000000e+00 0.0000e+00 -1.0000e+00
       -2 -1    0    0    0  501 -0.0000000000e+00 -0.0000000000e+00 -8.3209000927e+02 8.3209000927e+02 0.0000000000e+00 0.0000e+00 1.0000e+00
      -13  1    1    2    0    0 -3.3530225753e+02 -1.2372050475e+02 -7.7232430063e+02 8.5101068886e+02 0.0000000000e+00 0.0000e+00 1.0000e+00
       13  1    1    2    0    0 +3.3530225753e+02 +1.2372050475e+02 +1.5432239090e+03 1.5840689381e+03 0.0000000000e+00 0.0000e+00 -1.0000e+00
<mgrwt>
<rscale>  0 0.23098326E+04</rscale>
<asrwt>0</asrwt>
<pdfrwt beam="1">  1        2 0.24661379E+00 0.23098326E+04</pdfrwt>
<pdfrwt beam="2">  1       -2 0.12801385E+00 0.23098326E+04</pdfrwt>
<totfact> 0.56689371E+00</totfact>
</mgrwt>
<rwgt>
<wgt id='morphing_basis_vector_1'> +8.6926095e-05 </wgt>
<wgt id='morphing_basis_vector_2'> +5.8188240e-05 </wgt>
<wgt id='morphing_basis_vector_3'> +9.3637729e-05 </wgt>
<wgt id='morphing_basis_vector_4'> +6.6043052e-05 </wgt>
<wgt id='morphing_basis_vector_5'> +1.0523686e-04 </wgt>
</rwgt>
</event>
<event>
 4      1 +2.2016400e-08 2.60619600e+03 7.81860800e-03 7.86015800e-02
        2 -1    0    0  501    0 +0.0000000000e+00 +0.0000000000e+00 +2.1842024593e+03 2.1842024593e+03 0.0000000000e+00 0.0000e+00 -1.0000e+00
       -2 -1    0    0    0  501 -0.0000000000e+00 -0.0000000000e+00 -7.7743014724e+02 7.7743014724e+02 0.0000000000e+00 0.0000e+00 1.0000e+00
      -13  1    1    2    0    0 +8.5059515439e+02 -1.2994433999e+02 -4.0868187741e+02 9.5258517997e+02 0.0000000000e+00 0.0000e+00 1.0000e+00
       13  1    1    2    0    0 -8.5059515439e+02 +1.2994433999e+02 +1.8154541894e+03 2.0090474265e+03 0.0000000000e+00 0.0000e+00 -1.0000e+00
<mgrwt>
<rscale>  0 0.26061963E+04</rscale>
<asrwt>0</asrwt>
<pdfrwt beam="1">  1        2 0.33603115E+00 0.26061963E+04</pdfrwt>
<pdfrwt beam="2">  1       -2 0.11960464E+00 0.26061963E+04</pdfrwt>
<totfact> 0.31171538E+00</totfact>
</mgrwt>
<rwgt>
<wgt id='morphing_basis_vector_1'> +1.4007550e-04 </wgt>
<wgt id='morphing_basis_vector_2'> +9.4382554e-05 </wgt>
<wgt id='morphing_basis_vector_3'> +1.5185365e-04 </wgt>
<wgt id='morphing_basis_vector_4'> +1.0747929e-04 </wgt>
<wgt id='morphing_basis_vector_5'> +1.7164230e-04 </wgt>
</rwgt>
</event>
<event>
 4      1 +2.2016400e-08 2.30462300e+03 7.81860800e-03 7.95692900e-02
        2 -1    0    0  501    0 +0.0000000000e+00 +0.0000000000e+00 +1.7567558365e+03 1.7567558365e+03 0.0000000000e+00 0.0000e+00 -1.0000e+00
       -2 -1    0    0    0  501 -0.0000000000e+00 -0.0000000000e+00 -7.5583754006e+02 7.5583754006e+02 0.0000000000e+00 0.0000e+00 1.0000e+00
      -13  1    1    2    0    0 -3.7900075237e+02 +1.0254408721e+03 +8.9753940717e+02 1.4144778329e+03 0.0000000000e+00 0.0000e+00 1.0000e+00
       13  1    1    2    0    0 +3.7900075237e+02 -1.0254408721e+03 +1.0337888930e+02 1.0981155436e+03 0.0000000000e+00 0.0000e+00 -1.0000e+00
<mgrwt>
<rscale>  0 0.23046232E+04</rscale>
<asrwt>0</asrwt>
<pdfrwt beam="1">  1        2 0.27027013E+00 0.23046232E+04</pdfrwt>
<pdfrwt beam="2">  1       -2 0.11628270E+00 0.23046232E+04</pdfrwt>
<totfact> 0.59855504E+00</totfact>
</mgrwt>
<rwgt>
<wgt id='morphing_basis_vector_1'> +9.5375970e-05 </wgt>
<wgt id='morphing_basis_vector_2'> +8.4902532e-05 </wgt>
<wgt id='morphing_basis_vector_3'> +1.0666219e-04 </wgt>
<wgt id='morphing_basis_vector_4'> +4.6721854e-05 </wgt>
<wgt id='morphing_basis_vector_5'> +1.0277198e-04 </wgt>
</rwgt>
</event>
<event>
 4      1 +2.2016400e-08 2.57931700e+03 7.81860800e-03 7.86822600e-02
        2 -1    0    0  501    0 +0.0000000000e+00 +0.0000000000e+00 +2.5280680797e+03 2.5280680797e+03 0.0000000000e+00 0.0000e+00 -1.0000e+00
       -2 -1    0    0    0  501 -0.0000000000e+00 -0.0000000000e+00 -6.5790100547e+02 6.5790100547e+02 0.0000000000e+00 0.0000e+00 1.0000e+00
      -13  1    1    2    0    0 +5.6687253122e+02 +3.4660162796e+02 -4.3021160570e+02 7.9155491334e+02 0.0000000000e+00 0.0000e+00 1.0000e+00
       13  1    1    2    0    0 -5.6687253122e+02 -3.4660162796e+02 +2.3003786799e+03 2.3944141718e+03 0.0000000000e+00 0.0000e+00 -1.0000e+00
<mgrwt>
<rscale>  0 0.25793166E+04</rscale>
<asrwt>0</asrwt>
<pdfrwt beam="1">  1        2 0.38893355E+00 0.25793166E+04</pdfrwt>
<pdfrwt beam="2">  1       -2 0.10121554E+00 0.25793166E+04</pdfrwt>
<totfact> 0.29893459E+00</totfact>
</mgrwt>
<rwgt>
<wgt id='morphing_basis_vector_1'> +1.3437499e-04 </wgt>
<wgt id='morphing_basis_vector_2'> +9.0337200e-05 </wgt>
<wgt id='morphing_basis_vector_3'> +1.4557093e-04 </wgt>
<wgt id='morphing_basis_vector_4'> +1.0322426e-04 </wgt>
<wgt id='morphing_basis_vector_5'> +1.6460179e-04 </wgt>
</rwgt>
</event>
<event>
 4      1 +2.2016400e-08 2.30580700e+03 7.81860800e-03 7.95652000e-02
        2 -1    0    0  501    0 +0.0000000000e+00 +0.0000000000e+00 +1.8378920046e+03 1.8378920046e+03 0.0000000000e+00 0.0000e+00 1.0000e+00
       -2 -1    0    0    0  501 -0.0000000000e+00 -0.0000000000e+00 -7.2321257907e+02 7.2321257907e+02 0.0000000000e+00 0.0000e+00 -1.0000e+00
      -13  1    1    2    0    0 -7.2309098106e+02 +5.9965630462e+02 +1.2997277475e+03 1.6036646994e+03 0.0000000000e+00 0.0000e+00 1.0000e+00
       13  1    1    2    0    0 +7.2309098106e+02 -5.9965630462e+02 -1.8504832192e+02 9.5743988428e+02 0.0000000000e+00 0.0000e+00 -1.0000e+00
<mgrwt>
<rscale>  0 0.23058071E+04</rscale>
<asrwt>0</asrwt>
<pdfrwt beam="1">  1        2 0.28275261E+00 0.23058071E+04</pdfrwt>
<pdfrwt beam="2">  1       -2 0.11126347E+00 0.23058071E+04</pdfrwt>
<totfact> 0.60330490E+00</totfact>
</mgrwt>
<rwgt>
<wgt id='morphing_basis_vector_1'> +1.0576660e-04 </wgt>
<wgt id='morphing_basis_vector_2'> +1.1519811e-04 </wgt>
<wgt id='morphing_basis_vector_3'> +1.2221989e-04 </wgt>
<wgt id='morphing_basis_vector_4'> +2.6113653e-05 </wgt>
<wgt id='morphing_basis_vector_5'> +1.0132212e-04 </wgt>
</rwgt>
</event>
<event>
 4      1 +2.2016400e-08 2.58593100e+03 7.81860800e-03 7.86623100e-02
        2 -1    0    0  501    0 +0.0000000000e+00 +0.0000000000e+00 +2.3663748491e+03 2.3663748491e+03 0.0000000000e+00 0.0000e+00 -1.0000e+00
       -2 -1    0    0    0  501 -0.0000000000e+00 -0.0000000000e+00 -7.0646453496e+02 7.0646453496e+02 0.0000000000e+00 0.0000e+00 1.0000e+00
      -13  1    1    2    0    0 +1.0668600837e+01 +7.0428891377e+02 -4.5846345121e+02 8.4043169217e+02 0.0000000000e+00 0.0000e+00 1.0000e+00
       13  1    1    2    0    0 -1.0668600837e+01 -7.0428891377e+02 +2.1183737654e+03 2.2324076919e+03 0.0000000000e+00 0.0000e+00 -1.0000e+00
<mgrwt>
<rscale>  0 0.25859311E+04</rscale>
<asrwt>0</asrwt>
<pdfrwt beam="1">  1        2 0.36405767E+00 0.25859311E+04</pdfrwt>
<pdfrwt beam="2">  1       -2 0.10868685E+00 0.25859311E+04</pdfrwt>
<totfact> 0.31253196E+00</totfact>
</mgrwt>
<rwgt>
<wgt id='morphing_basis_vector_1'> +1.3575155e-04 </wgt>
<wgt id='morphing_basis_vector_2'> +9.1291792e-05 </wgt>
<wgt id='morphing_basis_vector_3'> +1.4708362e-04 </wgt>
<wgt id='morphing_basis_vector_4'> +1.0427941e-04 </wgt>
<wgt id='morphing_basis_vector_5'> +1.6631553e-04 </wgt>
</rwgt>
</event>
<event>
 4      1 +2.2016400e-08 2.57722600e+03 7.81860800e-03 7.86885700e-02
        2 -1    0    0  501    0 +0.0000000000e+00 +0.0000000000e+00 +2.0007931254e+03 2.0007931254e+03 0.0000000000e+00 0.0000e+00 1.0000e+00
       -2 -1    0    0    0  501 -0.0000000000e+00 -0.0000000000e+00 -8.2993283667e+02 8.2993283667e+02 0.0000000000e+00 0.0000e+00 -1.0000e+00
      -13  1    1    2    0    0 +8.8259488199e+01 -1.1885213317e+03 +4.7175650223e+01 1.1927272258e+03 0.0000000000e+00 0.0000e+00 -1.0000e+00
       13  1    1    2    0    0 -8.8259488199e+01 +1.1885213317e+03 +1.1236846385e+03 1.6379987363e+03 0.0000000000e+00 0.0000e+00 1.0000e+00
<mgrwt>
<rscale>  0 0.25772263E+04</rscale>
<asrwt>0</asrwt>
<pdfrwt beam="1">  1        2 0.30781433E+00 0.25772263E+04</pdfrwt>
<pdfrwt beam="2">  1       -2 0.12768198E+00 0.25772263E+04</pdfrwt>
<totfact> 0.33452605E+00</totfact>
</mgrwt>
<rwgt>
<wgt id='morphing_basis_vector_1'> +1.3498810e-04 </wgt>
<wgt id='morphing_basis_vector_2'> +9.3122225e-05 </wgt>
<wgt id='morphing_basis_vector_3'> +1.4669947e-04 </wgt>
<wgt id='morphing_basis_vector_4'> +1.0074261e-04 </wgt>
<wgt id='morphing_basis_vector_5'> +1.6388828e-04 </wgt>
</rwgt>
</event>
<event>
 4      1 +2.2016400e-08 2.47995300e+03 7.81860800e-03 7.89894600e-02
        2 -1    0    0  501    0 +0.0000000000e+00 +0.0000000000e+00 +1.8122984801e+03 1.8122984801e+03 0.0000000000e+00 0.0000e+00 -1.0000e+00
       -2 -1    0    0    0  501 -0.0000000000e+00 -0.0000000000e+00 -8.4839319371e+02 8.4839319371e+02 0.0000000000e+00 0.0000e+00 1.0000e+00
      -13  1    1    2    0    0 +9.0103659117e+02 -8.1717980911e+02 +2.2380981304e+02 1.2368268316e+03 0.0000000000e+00 0.0000e+00 1.0000e+00
       13  1    1    2    0    0 -9.0103659117e+02 +8.1717980911e+02 +7.4009547331e+02 1.4238648421e+03 0.0000000000e+00 0.0000e+00 -1.0000e+00
<mgrwt>
<rscale>  0 0.24799530E+04</rscale>
<asrwt>0</asrwt>
<pdfrwt beam="1">  1        2 0.27881515E+00 0.24799530E+04</pdfrwt>
<pdfrwt beam="2">  1       -2 0.13052203E+00 0.24799530E+04</pdfrwt>
<totfact> 0.40569040E+00</totfact>
</mgrwt>
<rwgt>
<wgt id='morphing_basis_vector_1'> +1.1706824e-04 </wgt>
<wgt id='morphing_basis_vector_2'> +8.3176456e-05 </wgt>
<wgt id='morphing_basis_vector_3'> +1.2747539e-04 </wgt>
<wgt id='morphing_basis_vector_4'> +8.3943463e-05 </wgt>
<wgt id='morphing_basis_vector_5'> +1.4005767e-04 </wgt>
</rwgt>
</event>
<event>
 4      1 +2.2016400e-08 2.26041200e+03 7.81860800e-03 7.97239200e-02
        2 -1    0    0  501    0 +0.0000000000e+00 +0.0000000000e+00 +2.1756870950e+03 2.1756870950e+03 0.0000000000e+00 0.0000e+00 -1.0000e+00
       -2 -1    0    0    0  501 -0.0000000000e+00 -0.0000000000e+00 -5.8710894856e+02 5.8710894856e+02 0.0000000000e+00 0.0000e+00 1.0000e+00
      -13  1    1    2    0    0 +4.0589097029e+02 +1.0484526933e+03 +6.5298879173e+02 1.3001518727e+03 0.0000000000e+00 0.0000e+00 1.0000e+00
       13  1    1    2    0    0 -4.0589097029e+02 -1.0484526933e+03 +9.3558935470e+02 1.4626441709e+03 0.0000000000e+00 0.0000e+00 -1.0000e+00
<mgrwt>
<rscale>  0 0.22604118E+04</rscale>
<asrwt>0</asrwt>
<pdfrwt beam="1">  1        2 0.33472109E+00 0.22604118E+04</pdfrwt>
<pdfrwt beam="2">  1       -2 0.90324455E-01 0.22604118E+04</pdfrwt>
<totfact> 0.64694500E+00</totfact>
</mgrwt>
<rwgt>
<wgt id='morphing_basis_vector_1'> +8.1833503e-05 </wgt>
<wgt id='morphing_basis_vector_2'> +5.9317408e-05 </wgt>
<wgt id='morphing_basis_vector_3'> +8.8889078e-05 </wgt>
<wgt id='morphing_basis_vector_4'> +5.6432373e-05 </wgt>
<wgt id='morphing_basis_vector_5'> +9.6061470e-05 </wgt>
</rwgt>
</event>
<event>
 4      1 +2.2016400e-08 2.59341600e+03 7.81860800e-03 7.86398100e-02
        2 -1    0    0  501    0 +0.0000000000e+00 +0.0000000000e+00 +2.3012389409e+03 2.3012389409e+03 0.0000000000e+00 0.0000e+00 -1.0000e+00
       -2 -1    0    0    0  501 -0.0000000000e+00 -0.0000000000e+00 -7.3067213750e+02 7.3067213750e+02 0.0000000000e+00 0.0000e+00 1.0000e+00
      -13  1    1    2    0    0 -2.2371795250e+02 -9.2348352773e+02 -2.4627982386e+02 9.8159324565e+02 0.0000000000e+00 0.0000e+00 1.0000e+00
       13  1    1    2    0    0 +2.2371795250e+02 +9.2348352773e+02 +1.8168466272e+03 2.0503178327e+03 0.0000000000e+00 0.0000e+00 -1.0000e+00
<mgrwt>
<rscale>  0 0.25934156E+04</rscale>
<asrwt>0</asrwt>
<pdfrwt beam="1">  1        2 0.35403676E+00 0.25934156E+04</pdfrwt>
<pdfrwt beam="2">  1       -2 0.11241110E+00 0.25934156E+04</pdfrwt>
<totfact> 0.31321119E+00</totfact>
</mgrwt>
<rwgt>
<wgt id='morphing_basis_vector_1'> +1.3746897e-04 </wgt>
<wgt id='morphing_basis_vector_2'> +9.2814669e-05 </wgt>
<wgt id='morphing_basis_vector_3'> +1.4903518e-04 </wgt>
<wgt id='morphing_basis_vector_4'> +1.0518066e-04 </wgt>
<wgt id='morphing_basis_vector_5'> +1.6824613e-04 </wgt>
</rwgt>
</event>
<event>
 4      1 +2.2016400e-08 2.23191000e+03 7.81860800e-03 7.98255500e-02
        2 -1    0    0  501    0 +0.0000000000e+00 +0.0000000000e+00 +2.1739874754e+03 2.1739874754e+03 0.0000000000e+00 0.0000e+00 -1.0000e+00
       -2 -1    0    0    0  501 -0.0000000000e+00 -0.0000000000e+00 -5.7284390641e+02 5.7284390641e+02 0.0000000000e+00 0.0000e+00 1.0000e+00
      -13  1    1    2    0    0 -9.3577082448e+02 -5.6457914595e+02 +5.2280531459e+02 1.2115040425e+03 0.0000000000e+00 0.0000e+00 1.0000e+00
       13  1    1    2    0    0 +9.3577082448e+02 +5.6457914595e+02 +1.0783382544e+03 1.5353273393e+03 0.0000000000e+00 0.0000e+00 -1.0000e+00
<mgrwt>
<rscale>  0 0.22319099E+04</rscale>
<asrwt>0</asrwt>
<pdfrwt beam="1">  1        2 0.33445961E+00 0.22319099E+04</pdfrwt>
<pdfrwt beam="2">  1       -2 0.88129833E-01 0.22319099E+04</pdfrwt>
<totfact> 0.68840147E+00</totfact>
</mgrwt>
<rwgt>
<wgt id='morphing_basis_vector_1'> +7.7234861e-05 </wgt>
<wgt id='morphing_basis_vector_2'> +5.4595414e-05 </wgt>
<wgt id='morphing_basis_vector_3'> +8.3575453e-05 </wgt>
<wgt id='morphing_basis_vector_4'> +5.4835516e-05 </wgt>
<wgt id='morphing_basis_vector_5'> +9.1333182e-05 </wgt>
</rwgt>
</event>
<event>
 4      1 +2.2016400e-08 2.49213600e+03 7.81860800e-03 7.89510100e-02
        2 -1    0    0  501    0 +0.0000000000e+00 +0.0000000000e+00 +3.3143193531e+03 3.3143193531e+03 0.0000000000e+00 0.0000e+00 1.0000e+00
       -2 -1    0    0    0  501 -0.0000000000e+00 -0.0000000000e+00 -4.6847777783e+02 4.6847777783e+02 0.0000000000e+00 0.0000e+00 -1.0000e+00
      -13  1    1    2    0    0 -9.0997839066e+02 -6.4781095164e+02 +5.8468428362e+02 1.2607836500e+03 0.0000000000e+00 0.0000e+00 -1.0000e+00
       13  1    1    2    0    0 +9.0997839066e+02 +6.4781095164e+02 +2.2611572917e+03 2.5220134810e+03 0.0000000000e+00 0.0000e+00 1.0000e+00
<mgrwt>
<rscale>  0 0.24921356E+04</rscale>
<asrwt>0</asrwt>
<pdfrwt beam="1">  1        2 0.50989527E+00 0.24921356E+04</pdfrwt>
<pdfrwt beam="2">  1       -2 0.72073506E-01 0.24921356E+04</pdfrwt>
<totfact> 0.20542343E+00</totfact>
</mgrwt>
<rwgt>
<wgt id='morphing_basis_vector_1'> +1.1798302e-04 </wgt>
<wgt id='morphing_basis_vector_2'> +8.0764702e-05 </wgt>
<wgt id='morphing_basis_vector_3'> +1.2790546e-04 </wgt>
<wgt id='morphing_basis_vector_4'> +8.8436292e-05 </wgt>
<wgt id='morphing_basis_vector_5'> +1.4309390e-04 </wgt>
</rwgt>
</event>
<event>
 4      1 +2.2016400e-08 2.35878400e+03 7.81860800e-03 7.93846700e-02
        2 -1    0    0  501    0 +0.0000000000e+00 +0.0000000000e+00 +3.6743479548e+03 3.6743479548e+03 0.0000000000e+00 0.0000e+00 1.0000e+00
       -2 -1    0    0    0  501 -0.0000000000e+00 -0.0000000000e+00 -3.7856121675e+02 3.7856121675e+02 0.0000000000e+00 0.0000e+00 -1.0000e+00
      -13  1    1    2    0    0 -9.5759579004e+02 +5.0703656739e+02 +8.4769383444e+02 1.3757400244e+03 0.0000000000e+00 0.0000e+00 -1.0000e+00
       13  1    1    2    0    0 +9.5759579004e+02 -5.0703656739e+02 +2.4480929036e+03 2.6771691471e+03 0.0000000000e+00 0.0000e+00 1.0000e+00
<mgrwt>
<rscale>  0 0.23587841E+04</rscale>
<asrwt>0</asrwt>
<pdfrwt beam="1">  1        2 0.56528428E+00 0.23587841E+04</pdfrwt>
<pdfrwt beam="2">  1       -2 0.58240190E-01 0.23587841E+04</pdfrwt>
<totfact> 0.17760283E+00</totfact>
</mgrwt>
<rwgt>
<wgt id='morphing_basis_vector_1'> +9.5119914e-05 </wgt>
<wgt id='morphing_basis_vector_2'> +6.5330982e-05 </wgt>
<wgt id='morphing_basis_vector_3'> +1.0288717e-04 </wgt>
<wgt id='morphing_basis_vector_4'> +7.0471553e-05 </wgt>
<wgt id='morphing_basis_vector_5'> +1.1447114e-04 </wgt>
</rwgt>
</event>
<event>
 4      1 +2.2016400e-08 2.25309600e+03 7.81860800e-03 7.97498600e-02
        2 -1    0    0  501    0 +0.0000000000e+00 +0.0000000000e+00 +3.0157631638e+03 3.0157631638e+03 0.0000000000e+00 0.0000e+00 1.0000e+00
       -2 -1    0    0    0  501 -0.0000000000e+00 -0.0000000000e+00 -4.2082550955e+02 4.2082550955e+02 0.0000000000e+00 0.0000e+00 -1.0000e+00
      -13  1    1    2    0    0 +6.7128897920e+02 +5.4572403048e+00 -8.2420832667e+01 6.7635188233e+02 0.0000000000e+00 0.0000e+00 -1.0000e+00
       13  1    1    2    0    0 -6.7128897920e+02 -5.4572403048e+00 +2.6773584869e+03 2.7602367911e+03 0.0000000000e+00 0.0000e+00 1.0000e+00
<mgrwt>
<rscale>  0 0.22530957E+04</rscale>
<asrwt>0</asrwt>
<pdfrwt beam="1">  1        2 0.46396355E+00 0.22530957E+04</pdfrwt>
<pdfrwt beam="2">  1       -2 0.64742388E-01 0.22530957E+04</pdfrwt>
<totfact> 0.41906665E+00</totfact>
</mgrwt>
<rwgt>
<wgt id='morphing_basis_vector_1'> +7.8853268e-05 </wgt>
<wgt id='morphing_basis_vector_2'> +5.2818900e-05 </wgt>
<wgt id='morphing_basis_vector_3'> +8.4835698e-05 </wgt>
<wgt id='morphing_basis_vector_4'> +5.9627243e-05 </wgt>
<wgt id='morphing_basis_vector_5'> +9.5119879e-05 </wgt>
</rwgt>
</event>
<event>
 4      1 +2.2016400e-08 2.34264300e+03 7.81860800e-03 7.94391600e-02
        2 -1    0    0  501    0 +0.0000000000e+00 +0.0000000000e+00 +1.2546544183e+03 1.2546544183e+03 0.0000000000e+00 0.0000e+00 -1.0000e+00
       -2 -1    0    0    0  501 -0.0000000000e+00 -0.0000000000e+00 -1.0935230732e+03 1.0935230732e+03 0.0000000000e+00 0.0000e+00 1.0000e+00
      -13  1    1    2    0    0 -6.1719047674e+02 -5.6495896498e+02 -7.4106046988e+02 1.1177089678e+03 0.0000000000e+00 0.0000e+00 1.0000e+00
       13  1    1    2    0    0 +6.1719047674e+02 +5.6495896498e+02 +9.0219181498e+02 1.2304685237e+03 0.0000000000e+00 0.0000e+00 -1.0000e+00
<mgrwt>
<rscale>  0 0.23426426E+04</rscale>
<asrwt>0</asrwt>
<pdfrwt beam="1">  1        2 0.19302376E+00 0.23426426E+04</pdfrwt>
<pdfrwt beam="2">  1       -2 0.16823432E+00 0.23426426E+04</pdfrwt>
<totfact> 0.40985228E+00</totfact>
</mgrwt>
<rwgt>
<wgt id='morphing_basis_vector_1'> +9.2007243e-05 </wgt>
<wgt id='morphing_basis_vector_2'> +6.1880083e-05 </wgt>
<wgt id='morphing_basis_vector_3'> +9.9237473e-05 </wgt>
<wgt id='morphing_basis_vector_4'> +6.9701408e-05 </wgt>
<wgt id='morphing_basis_vector_5'> +1.1141933e-04 </wgt>
</rwgt>
</event>
<event>
 4      1 +2.2016400e-08 2.45359800e+03 7.81860800e-03 7.90734200e-02
        2 -1    0    0  501    0 +0.0000000000e+00 +0.0000000000e+00 +1.3804636205e+03 1.3804636205e+03 0.0000000000e+00 0.0000e+00 1.0000e+00
       -2 -1    0    0    0  501 -0.0000000000e+00 -0.0000000000e+00 -1.0902397159e+03 1.0902397159e+03 0.0000000000e+00 0.0000e+00 -1.0000e+00
      -13  1    1    2    0    0 +1.1696965851e+03 -3.1088513277e+02 +3.4700054241e+02 1.2590667351e+03 0.0000000000e+00 0.0000e+00 -1.0000e+00
       13  1    1    2    0    0 -1.1696965851e+03 +3.1088513277e+02 -5.6776637822e+01 1.2116366013e+03 0.0000000000e+00 0.0000e+00 1.0000e+00
<mgrwt>
<rscale>  0 0.24535984E+04</rscale>
<asrwt>0</asrwt>
<pdfrwt beam="1">  1        2 0.21237902E+00 0.24535984E+04</pdfrwt>
<pdfrwt beam="2">  1       -2 0.16772919E+00 0.24535984E+04</pdfrwt>
<totfact> 0.34719155E+00</totfact>
</mgrwt>
<rwgt>
<wgt id='morphing_basis_vector_1'> +1.1744579e-04 </wgt>
<wgt id='morphing_basis_vector_2'> +9.5098267e-05 </wgt>
<wgt id='morphing_basis_vector_3'> +1.3007200e-04 </wgt>
<wgt id='morphing_basis_vector_4'> +6.9730782e-05 </wgt>
<wgt id='morphing_basis_vector_5'> +1.3326105e-04 </wgt>
</rwgt>
</event>
<event>
 4      1 +2.2016400e-08 2.53782400e+03 7.81860800e-03 7.88087900e-02
        2 -1    0    0  501    0 +0.0000000000e+00 +0.0000000000e+00 +2.2312774998e+03 2.2312774998e+03 0.0000000000e+00 0.0000e+00 -1.0000e+00
       -2 -1    0    0    0  501 -0.0000000000e+00 -0.0000000000e+00 -7.2162171320e+02 7.2162171320e+02 0.0000000000e+00 0.0000e+00 1.0000e+00
      -13  1    1    2    0    0 -8.0095927738e+02 -9.4622075646e+02 +4.3987427467e+02 1.3154310554e+03 0.0000000000e+00 0.0000e+00 1.0000e+00
       13  1    1    2    0    0 +8.0095927738e+02 +9.4622075646e+02 +1.0697815120e+03 1.6374681576e+03 0.0000000000e+00 0.0000e+00 -1.0000e+00
<mgrwt>
<rscale>  0 0.25378245E+04</rscale>
<asrwt>0</asrwt>
<pdfrwt beam="1">  1        2 0.34327346E+00 0.25378245E+04</pdfrwt>
<pdfrwt beam="2">  1       -2 0.11101873E+00 0.25378245E+04</pdfrwt>
<totfact> 0.35643724E+00</totfact>
</mgrwt>
<rwgt>
<wgt id='morphing_basis_vector_1'> +1.2806722e-04 </wgt>
<wgt id='morphing_basis_vector_2'> +9.0681906e-05 </wgt>
<wgt id='morphing_basis_vector_3'> +1.3954285e-04 </wgt>
<wgt id='morphing_basis_vector_4'> +9.2498686e-05 </wgt>
<wgt id='morphing_basis_vector_5'> +1.5380271e-04 </wgt>
</rwgt>
</event>
<event>
 4      1 +2.2016400e-08 2.50714100e+03 7.81860800e-03 7.89039600e-02
        2 -1    0    0  501    0 +0.0000000000e+00 +0.0000000000e+00 +1.1549640713e+03 1.1549640713e+03 0.0000000000e+00 0.0000e+00 -1.0000e+00
       -2 -1    0    0    0  501 -0.0000000000e+00 -0.0000000000e+00 -1.3605955233e+03 1.3605955233e+03 0.0000000000e+00 0.0000e+00 1.0000e+00
      -13  1    1    2    0    0 +7.2066748857e+02 -8.5007051002e+02 -6.7872692137e+02 1.3048569787e+03 0.0000000000e+00 0.0000e+00 1.0000e+00
       13  1    1    2    0    0 -7.2066748857e+02 +8.5007051002e+02 +4.7309546940e+02 1.2107026159e+03 0.0000000000e+00 0.0000e+00 -1.0000e+00
<mgrwt>
<rscale>  0 0.25071410E+04</rscale>
<asrwt>0</asrwt>
<pdfrwt beam="1">  1        2 0.17768678E+00 0.25071410E+04</pdfrwt>
<pdfrwt beam="2">  1       -2 0.20932239E+00 0.25071410E+04</pdfrwt>
<totfact> 0.22775230E+00</totfact>
</mgrwt>
<rwgt>
<wgt id='morphing_basis_vector_1'> +1.2076245e-04 </wgt>
<wgt id='morphing_basis_vector_2'> +8.2568561e-05 </wgt>
<wgt id='morphing_basis_vector_3'> +1.3093501e-04 </wgt>
<wgt id='morphing_basis_vector_4'> +9.0715278e-05 </wgt>
<wgt id='morphing_basis_vector_5'> +1.4662483e-04 </wgt>
</rwgt>
</event>
<event>
 4      1 +2.2016400e-08 2.37918300e+03 7.81860800e-03 7.93164500e-02
        2 -1    0    0  501    0 +0.0000000000e+00 +0.0000000000e+00 +1.7877706811e+03 1.7877706811e+03 0.0000000000e+00 0.0000e+00 -1.0000e+00
       -2 -1    0    0    0  501 -0.0000000000e+00 -0.0000000000e+00 -7.9156022787e+02 7.9156022787e+02 0.0000000000e+00 0.0000e+00 1.0000e+00
      -13  1    1    2    0    0 -4.2018262246e+02 -6.5551309607e+02 -4.7693044856e+02 9.1307913572e+02 0.0000000000e+00 0.0000e+00 1.0000e+00
       13  1    1    2    0    0 +4.2018262246e+02 +6.5551309607e+02 +1.4731409018e+03 1.6662517732e+03 0.0000000000e+00 0.0000e+00 -1.0000e+00
<mgrwt>
<rscale>  0 0.23791832E+04</rscale>
<asrwt>0</asrwt>
<pdfrwt beam="1">  1        2 0.27504164E+00 0.23791832E+04</pdfrwt>
<pdfrwt beam="2">  1       -2 0.12177850E+00 0.23791832E+04</pdfrwt>
<totfact> 0.50709967E+00</totfact>
</mgrwt>
<rwgt>
<wgt id='morphing_basis_vector_1'> +9.7748227e-05 </wgt>
<wgt id='morphing_basis_vector_2'> +6.5668828e-05 </wgt>
<wgt id='morphing_basis_vector_3'> +1.0549728e-04 </wgt>
<wgt id='morphing_basis_vector_4'> +7.4312852e-05 </wgt>
<wgt id='morphing_basis_vector_5'> +1.1864868e-04 </wgt>
</rwgt>
</event>
<event>
 4      1 +2.2016400e-08 2.23206200e+03 7.81860800e-03 7.98250000e-02
        2 -1    0    0  501    0 +0.0000000000e+00 +0.0000000000e+00 +1.0902708622e+03 1.0902708622e+03 0.0000000000e+00 0.0000e+00 1.0000e+00
       -2 -1    0    0    0  501 -0.0000000000e+00 -0.0000000000e+00 -1.1423992708e+03 1.1423992708e+03 0.0000000000e+00 0.0000e+00 -1.0000e+00
      -13  1    1    2    0    0 +3.4112127064e+02 -6.7824107294e+02 -8.4430312793e+02 1.1354393186e+03 0.0000000000e+00 0.0000e+00 -1.0000e+00
       13  1    1    2    0    0 -3.4112127064e+02 +6.7824107294e+02 +7.9217471931e+02 1.0972308145e+03 0.0000000000e+00 0.0000e+00 1.0000e+00
<mgrwt>
<rscale>  0 0.22320615E+04</rscale>
<asrwt>0</asrwt>
<pdfrwt beam="1">  1        2 0.16773398E+00 0.22320615E+04</pdfrwt>
<pdfrwt beam="2">  1       -2 0.17575373E+00 0.22320615E+04</pdfrwt>
<totfact> 0.45205114E+00</totfact>
</mgrwt>
<rwgt>
<wgt id='morphing_basis_vector_1'> +7.6031949e-05 </wgt>
<wgt id='morphing_basis_vector_2'> +5.0994098e-05 </wgt>
<wgt id='morphing_basis_vector_3'> +8.1769986e-05 </wgt>
<wgt id='morphing_basis_vector_4'> +5.7324788e-05 </wgt>
<wgt id='morphing_basis_vector_5'> +9.1556525e-05 </wgt>
</rwgt>
</event>
<event>
 4      1 +2.2016400e-08 2.34115400e+03 7.81860800e-03 7.94442000e-02
        2 -1    0    0  501    0 +0.0000000000e+00 +0.0000000000e+00 +2.1310470408e+03 2.1310470408e+03 0.0000000000e+00 0.0000e+00 -1.0000e+00
       -2 -1    0    0    0  501 -0.0000000000e+00 -0.0000000000e+00 -6.4299391391e+02 6.4299391391e+02 0.0000000000e+00 0.0000e+00 1.0000e+00
      -13  1    1    2    0    0 -1.4658816906e+02 +7.9575698936e+02 -2.5827349924e+02 8.4936592693e+02 0.0000000000e+00 0.0000e+00 1.0000e+00
       13  1    1    2    0    0 +1.4658816906e+02 -7.9575698936e+02 +1.7463266261e+03 1.9246750278e+03 0.0000000000e+00 0.0000e+00 -1.0000e+00
<mgrwt>
<rscale>  0 0.23411538E+04</rscale>
<asrwt>0</asrwt>
<pdfrwt beam="1">  1        2 0.32785339E+00 0.23411538E+04</pdfrwt>
<pdfrwt beam="2">  1       -2 0.98922141E-01 0.23411538E+04</pdfrwt>
<totfact> 0.54950850E+00</totfact>
</mgrwt>
<rwgt>
<wgt id='morphing_basis_vector_1'> +9.1757533e-05 </wgt>
<wgt id='morphing_basis_vector_2'> +6.1666299e-05 </wgt>
<wgt id='morphing_basis_vector_3'> +9.8956308e-05 </wgt>
<wgt id='morphing_basis_vector_4'> +6.9561559e-05 </wgt>
<wgt id='morphing_basis_vector_5'> +1.1113544e-04 </wgt>
</rwgt>
</event>
<event>
 4      1 +2.2016400e-08 2.38063300e+03 7.81860800e-03 7.93116300e-02
        2 -1    0    0  501    0 +0.0000000000e+00 +0.0000000000e+00 +9.7918276317e+02 9.7918276317e+02 0.0000000000e+00 0.0000e+00 -1.0000e+00
       -2 -1    0    0    0  501 -0.0000000000e+00 -0.0000000000e+00 -1.4469757683e+03 1.4469757683e+03 0.0000000000e+00 0.0000e+00 1.0000e+00
      -13  1    1    2    0    0 +1.0368122138e+03 +3.5842578180e+02 -7.0468852093e+02 1.3038537185e+03 0.0000000000e+00 0.0000e+00 1.0000e+00
       13  1    1    2    0    0 -1.0368122138e+03 -3.5842578180e+02 +2.3689551582e+02 1.1223048129e+03 0.0000000000e+00 0.0000e+00 -1.0000e+00
<mgrwt>
<rscale>  0 0.23806333E+04</rscale>
<asrwt>0</asrwt>
<pdfrwt beam="1">  1        2 0.15064350E+00 0.23806333E+04</pdfrwt>
<pdfrwt beam="2">  1       -2 0.22261166E+00 0.23806333E+04</pdfrwt>
<totfact> 0.23666363E+00</totfact>
</mgrwt>
<rwgt>
<wgt id='morphing_basis_vector_1'> +9.8664352e-05 </wgt>
<wgt id='morphing_basis_vector_2'> +6.7838934e-05 </wgt>
<wgt id='morphing_basis_vector_3'> +1.0678497e-04 </wgt>
<wgt id='morphing_basis_vector_4'> +7.3108622e-05 </wgt>
<wgt id='morphing_basis_vector_5'> +1.1883036e-04 </wgt>
</rwgt>
</event>
<event>
 4      1 +2.2016400e-08 2.45799500e+03 7.81860800e-03 7.90593400e-02
        2 -1    0    0  501    0 +0.0000000000e+00 +0.0000000000e+00 +2.5133318196e+03 2.5133318196e+03 0.0000000000e+00 0.0000e+00 1.0000e+00
       -2 -1    0    0    0  501 -0.0000000000e+00 -0.0000000000e+00 -6.0096915080e+02 6.0096915080e+02 0.0000000000e+00 0.0000e+00 -1.0000e+00
      -13  1    1    2    0    0 +1.8220959332e+02 +1.0708432627e+03 +1.6846058213e+03 2.0044456597e+03 0.0000000000e+00 0.0000e+00 -1.0000e+00
       13  1    1    2    0    0 -1.8220959332e+02 -1.0708432627e+03 +2.2775684742e+02 1.1098553107e+03 0.0000000000e+00 0.0000e+00 1.0000e+00
<mgrwt>
<rscale>  0 0.24579950E+04</rscale>
<asrwt>0</asrwt>
<pdfrwt beam="1">  1        2 0.38666643E+00 0.24579950E+04</pdfrwt>
<pdfrwt beam="2">  1       -2 0.92456794E-01 0.24579950E+04</pdfrwt>
<totfact> 0.38245211E+00</totfact>
</mgrwt>
<rwgt>
<wgt id='morphing_basis_vector_1'> +1.2979670e-04 </wgt>
<wgt id='morphing_basis_vector_2'> +1.2977111e-04 </wgt>
<wgt id='morphing_basis_vector_3'> +1.4853737e-04 </wgt>
<wgt id='morphing_basis_vector_4'> +4.6677887e-05 </wgt>
<wgt id='morphing_basis_vector_5'> +1.3232503e-04 </wgt>
</rwgt>
</event>
<event>
 4      1 +2.2016400e-08 2.62545600e+03 7.81860800e-03 7.85443800e-02
        2 -1    0    0  501    0 +0.0000000000e+00 +0.0000000000e+00 +1.9745064224e+03 1.9745064224e+03 0.0000000000e+00 0.0000e+00 -1.0000e+00
       -2 -1    0    0    0  501 -0.0000000000e+00 -0.0000000000e+00 -8.7275251959e+02 8.7275251959e+02 0.0000000000e+00 0.0000e+00 1.0000e+00
      -13  1    1    2    0    0 -3.0783180198e+02 +8.9285767720e+02 -4.3790625733e+02 1.0410173583e+03 0.0000000000e+00 0.0000e+00 1.0000e+00
       13  1    1    2    0    0 +3.0783180198e+02 -8.9285767720e+02 +1.5396601602e+03 1.8062415837e+03 0.0000000000e+00 0.0000e+00 -1.0000e+00
<mgrwt>
<rscale>  0 0.26254565E+04</rscale>
<asrwt>0</asrwt>
<pdfrwt beam="1">  1        2 0.30377022E+00 0.26254565E+04</pdfrwt>
<pdfrwt beam="2">  1       -2 0.13426962E+00 0.26254565E+04</pdfrwt>
<totfact> 0.30116383E+00</totfact>
</mgrwt>
<rwgt>
<wgt id='morphing_basis_vector_1'> +1.4428332e-04 </wgt>
<wgt id='morphing_basis_vector_2'> +9.7400703e-05 </wgt>
<wgt id='morphing_basis_vector_3'> +1.5649856e-04 </wgt>
<wgt id='morphing_basis_vector_4'> +1.1058151e-04 </wgt>
<wgt id='morphing_basis_vector_5'> +1.7682151e-04 </wgt>
</rwgt>
</event>
<event>
 4      1 +2.2016400e-08 2.58884000e+03 7.81860800e-03 7.86535600e-02
        2 -1    0    0  501    0 +0.0000000000e+00 +0.0000000000e+00 +1.2371569702e+03 1.2371569702e+03 0.0000000000e+00 0.0000e+00 -1.0000e+00
       -2 -1    0    0    0  501 -0.0000000000e+00 -0.0000000000e+00 -1.3543338817e+03 1.3543338817e+03 0.0000000000e+00 0.0000e+00 1.0000e+00
      -13  1    1    2    0    0 -5.0794124187e+02 -1.9240662915e+02 -1.2347377585e+03 1.3489262205e+03 0.0000000000e+00 0.0000e+00 1.0000e+00
       13  1    1    2    0    0 +5.0794124187e+02 +1.9240662915e+02 +1.1175608471e+03 1.2425646313e+03 0.0000000000e+00 0.0000e+00 -1.0000e+00
<mgrwt>
<rscale>  0 0.25888404E+04</rscale>
<asrwt>0</asrwt>
<pdfrwt beam="1">  1        2 0.19033184E+00 0.25888404E+04</pdfrwt>
<pdfrwt beam="2">  1       -2 0.20835906E+00 0.25888404E+04</pdfrwt>
<totfact> 0.20572916E+00</totfact>
</mgrwt>
<rwgt>
<wgt id='morphing_basis_vector_1'> +1.3632627e-04 </wgt>
<wgt id='morphing_basis_vector_2'> +9.1613509e-05 </wgt>
<wgt id='morphing_basis_vector_3'> +1.4770036e-04 </wgt>
<wgt id='morphing_basis_vector_4'> +1.0481612e-04 </wgt>
<wgt id='morphing_basis_vector_5'> +1.6707918e-04 </wgt>
</rwgt>
</event>
<event>
 4      1 +2.2016400e-08 2.30015400e+03 7.81860800e-03 7.95847600e-02
        2 -1    0    0  501    0 +0.0000000000e+00 +0.0000000000e+00 +1.6945190059e+03 1.6945190059e+03 0.0000000000e+00 0.0000e+00 -1.0000e+00
       -2 -1    0    0    0  501 -0.0000000000e+00 -0.0000000000e+00 -7.8056218565e+02 7.8056218565e+02 0.0000000000e+00 0.0000e+00 1.0000e+00
      -13  1    1    2    0    0 +2.4383523067e+02 +2.2604976178e+02 -7.2771476294e+02 8.0007680302e+02 0.0000000000e+00 0.0000e+00 1.0000e+00
       13  1    1    2    0    0 -2.4383523067e+02 -2.2604976178e+02 +1.6416715832e+03 1.6750043885e+03 0.0000000000e+00 0.0000e+00 -1.0000e+00
<mgrwt>
<rscale>  0 0.23001543E+04</rscale>
<asrwt>0</asrwt>
<pdfrwt beam="1">  1        2 0.26069523E+00 0.23001543E+04</pdfrwt>
<pdfrwt beam="2">  1       -2 0.12008649E+00 0.23001543E+04</pdfrwt>
<totfact> 0.59675457E+00</totfact>
</mgrwt>
<rwgt>
<wgt id='morphing_basis_vector_1'> +8.5499728e-05 </wgt>
<wgt id='morphing_basis_vector_2'> +5.7223559e-05 </wgt>
<wgt id='morphing_basis_vector_3'> +9.2079253e-05 </wgt>
<wgt id='morphing_basis_vector_4'> +6.4928229e-05 </wgt>
<wgt id='morphing_basis_vector_5'> +1.0345797e-04 </wgt>
</rwgt>
</event>
<event>
 4      1 +2.2016400e-08 2.40692800e+03 7.81860800e-03 7.92247900e-02
        2 -1    0    0  501    0 +0.0000000000e+00 +0.0000000000e+00 +1.2465609262e+03 1.2465609262e+03 0.0000000000e+00 0.0000e+00 -1.0000e+00
       -2 -1    0    0    0  501 -0.0000000000e+00 -0.0000000000e+00 -1.1618568253e+03 1.1618568253e+03 0.0000000000e+00 0.0000e+00 1.0000e+00
      -13  1    1    2    0    0 -1.0276214773e+03 -1.4374049559e+02 +6.5236711105e+02 1.2256631178e+03 0.0000000000e+00 0.0000e+00 1.0000e+00
       13  1    1    2    0    0 +1.0276214773e+03 +1.4374049559e+02 -5.6766301012e+02 1.1827546338e+03 0.0000000000e+00 0.0000e+00 -1.0000e+00
<mgrwt>
<rscale>  0 0.24069278E+04</rscale>
<asrwt>0</asrwt>
<pdfrwt beam="1">  1        2 0.19177860E+00 0.24069278E+04</pdfrwt>
<pdfrwt beam="2">  1       -2 0.17874720E+00 0.24069278E+04</pdfrwt>
<totfact> 0.34170980E+00</totfact>
</mgrwt>
<rwgt>
<wgt id='morphing_basis_vector_1'> +1.2139782e-04 </wgt>
<wgt id='morphing_basis_vector_2'> +1.2508649e-04 </wgt>
<wgt id='morphing_basis_vector_3'> +1.3942500e-04 </wgt>
<wgt id='morphing_basis_vector_4'> +3.8957764e-05 </wgt>
<wgt id='morphing_basis_vector_5'> +1.2121784e-04 </wgt>
</rwgt>
</event>
<event>
 4      1 +2.2016400e-08 2.24354000e+03 7.81860800e-03 7.97838900e-02
        2 -1    0    0  501    0 +0.0000000000e+00 +0.0000000000e+00 +9.2645689899e+02 9.2645689899e+02 0.0000000000e+00 0.0000e+00 -1.0000e+00
       -2 -1    0    0    0  501 -0.0000000000e+00 -0.0000000000e+00 -1.3582590074e+03 1.3582590074e+03 0.0000000000e+00 0.0000e+00 1.0000e+00
      -13  1    1    2    0    0 +5.3078833954e+02 -4.0727728518e+02 -1.1328470494e+03 1.3156570548e+03 0.0000000000e+00 0.0000e+00 1.0000e+00
       13  1    1    2    0    0 -5.3078833954e+02 +4.0727728518e+02 +7.0104494106e+02 9.6905885156e+02 0.0000000000e+00 0.0000e+00 -1.0000e+00
<mgrwt>
<rscale>  0 0.22435404E+04</rscale>
<asrwt>0</asrwt>
<pdfrwt beam="1">  1        2 0.14253183E+00 0.22435404E+04</pdfrwt>
<pdfrwt beam="2">  1       -2 0.20896292E+00 0.22435404E+04</pdfrwt>
<totfact> 0.32377286E+00</totfact>
</mgrwt>
<rwgt>
<wgt id='morphing_basis_vector_1'> +7.7545415e-05 </wgt>
<wgt id='morphing_basis_vector_2'> +5.1934933e-05 </wgt>
<wgt id='morphing_basis_vector_3'> +8.3407734e-05 </wgt>
<wgt id='morphing_basis_vector_4'> +5.8606488e-05 </wgt>
<wgt id='morphing_basis_vector_5'> +9.3491247e-05 </wgt>
</rwgt>
</event>
<event>
 4      1 +2.2016400e-08 2.43313000e+03 7.81860800e-03 7.91393800e-02
        2 -1    0    0  501    0 +0.0000000000e+00 +0.0000000000e+00 +1.1955577348e+03 1.1955577348e+03 0.0000000000e+00 0.0000e+00 1.0000e+00
       -2 -1    0    0    0  501 -0.0000000000e+00 -0.0000000000e+00 -1.2379414310e+03 1.2379414310e+03 0.0000000000e+00 0.0000e+00 -1.0000e+00
      -13  1    1    2    0    0 -1.4513634314e+02 -9.5208022206e+02 -7.6461420244e+02 1.2296975994e+03 0.0000000000e+00 0.0000e+00 -1.0000e+00
       13  1    1    2    0    0 +1.4513634314e+02 +9.5208022206e+02 +7.2223050626e+02 1.2038015665e+03 0.0000000000e+00 0.0000e+00 1.0000e+00
<mgrwt>
<rscale>  0 0.24331300E+04</rscale>
<asrwt>0</asrwt>
<pdfrwt beam="1">  1        2 0.18393196E+00 0.24331300E+04</pdfrwt>
<pdfrwt beam="2">  1       -2 0.19045253E+00 0.24331300E+04</pdfrwt>
<totfact> 0.29807934E+00</totfact>
</mgrwt>
<rwgt>
<wgt id='morphing_basis_vector_1'> +1.0695327e-04 </wgt>
<wgt id='morphing_basis_vector_2'> +7.2288830e-05 </wgt>
<wgt id='morphing_basis_vector_3'> +1.1564011e-04 </wgt>
<wgt id='morphing_basis_vector_4'> +8.1040517e-05 </wgt>
<wgt id='morphing_basis_vector_5'> +1.2991493e-04 </wgt>
</rwgt>
</event>
<event>
 4      1 +2.2016400e-08 2.27229900e+03 7.81860800e-03 7.96819900e-02
        2 -1    0    0  501    0 +0.0000000000e+00 +0.0000000000e+00 +9.0979854222e+02 9.0979854222e+02 0.0000000000e+00 0.0000e+00 1.0000e+00
       -2 -1    0    0    0  501 -0.0000000000e+00 -0.0000000000e+00 -1.4188148429e+03 1.4188148429e+03 0.0000000000e+00 0.0000e+00 -1.0000e+00
      -13  1    1    2    0    0 -2.8482083909e+02 +1.7522189931e+02 -1.3672403810e+03 1.4075410772e+03 0.0000000000e+00 0.0000e+00 -1.0000e+00
       13  1    1    2    0    0 +2.8482083909e+02 -1.7522189931e+02 +8.5822408036e+02 9.2107230795e+02 0.0000000000e+00 0.0000e+00 1.0000e+00
<mgrwt>
<rscale>  0 0.22722990E+04</rscale>
<asrwt>0</asrwt>
<pdfrwt beam="1">  1        2 0.13996901E+00 0.22722990E+04</pdfrwt>
<pdfrwt beam="2">  1       -2 0.21827921E+00 0.22722990E+04</pdfrwt>
<totfact> 0.28392194E+00</totfact>
</mgrwt>
<rwgt>
<wgt id='morphing_basis_vector_1'> +8.1494467e-05 </wgt>
<wgt id='morphing_basis_vector_2'> +5.4518963e-05 </wgt>
<wgt id='morphing_basis_vector_3'> +8.7704746e-05 </wgt>
<wgt id='morphing_basis_vector_4'> +6.1794609e-05 </wgt>
<wgt id='morphing_basis_vector_5'> +9.8462960e-05 </wgt>
</rwgt>
</event>
<event>
 4      1 +2.2016400e-08 2.27005400e+03 7.81860800e-03 7.96898800e-02
        2 -1    0    0  501    0 +0.0000000000e+00 +0.0000000000e+00 +2.5450376460e+03 2.5450376460e+03 0.0000000000e+00 0.0000e+00 1.0000e+00
       -2 -1    0    0    0  501 -0.0000000000e+00 -0.0000000000e+00 -5.0619557247e+02 5.0619557247e+02 0.0000000000e+00 0.0000e+00 -1.0000e+00
      -13  1    1    2    0    0 +1.0909035100e+03 +3.0193419008e+02 +9.0654616104e+02 1.4501933200e+03 0.0000000000e+00 0.0000e+00 -1.0000e+00
       13  1    1    2    0    0 -1.0909035100e+03 -3.0193419008e+02 +1.1322959125e+03 1.6010398985e+03 0.0000000000e+00 0.0000e+00 1.0000e+00
<mgrwt>
<rscale>  0 0.22700544E+04</rscale>
<asrwt>0</asrwt>
<pdfrwt beam="1">  1        2 0.39154425E+00 0.22700544E+04</pdfrwt>
<pdfrwt beam="2">  1       -2 0.77876244E-01 0.22700544E+04</pdfrwt>
<totfact> 0.55253179E+00</totfact>
</mgrwt>
<rwgt>
<wgt id='morphing_basis_vector_1'> +8.3444509e-05 </wgt>
<wgt id='morphing_basis_vector_2'> +6.1001928e-05 </wgt>
<wgt id='morphing_basis_vector_3'> +9.0757497e-05 </wgt>
<wgt id='morphing_basis_vector_4'> +5.6954035e-05 </wgt>
<wgt id='morphing_basis_vector_5'> +9.7699917e-05 </wgt>
</rwgt>
</event>
<event>
 4      1 +2.2016400e-08 2.27987300e+03 7.81860800e-03 7.96554100e-02
        2 -1    0    0  501    0 +0.0000000000e+00 +0.0000000000e+00 +3.2435461890e+03 3.2435461890e+03 0.0000000000e+00 0.0000e+00 1.0000e+00
       -2 -1    0    0    0  501 -0.0000000000e+00 -0.0000000000e+00 -4.0062783878e+02 4.0062783878e+02 0.0000000000e+00 0.0000e+00 -1.0000e+00
      -13  1    1    2    0    0 +9.2642440631e+02 +5.7058600524e+02 +1.9649761614e+03 2.2460992598e+03 0.0000000000e+00 0.0000e+00 -1.0000e+00
       13  1    1    2    0    0 -9.2642440631e+02 -5.7058600524e+02 +8.7794218883e+02 1.3980747680e+03 0.0000000000e+00 0.0000e+00 1.0000e+00
<mgrwt>
<rscale>  0 0.22798727E+04</rscale>
<asrwt>0</asrwt>
<pdfrwt beam="1">  1        2 0.49900709E+00 0.22798727E+04</pdfrwt>
<pdfrwt beam="2">  1       -2 0.61635054E-01 0.22798727E+04</pdfrwt>
<totfact> 0.32624220E+00</totfact>
</mgrwt>
<rwgt>
<wgt id='morphing_basis_vector_1'> +9.0919275e-05 </wgt>
<wgt id='morphing_basis_vector_2'> +7.9914362e-05 </wgt>
<wgt id='morphing_basis_vector_3'> +1.0140918e-04 </wgt>
<wgt id='morphing_basis_vector_4'> +4.5704416e-05 </wgt>
<wgt id='morphing_basis_vector_5'> +9.8443690e-05 </wgt>
</rwgt>
</event>
<event>
 4      1 +2.2016400e-08 2.28781700e+03 7.81860800e-03 7.96276500e-02
        2 -1    0    0  501    0 +0.0000000000e+00 +0.0000000000e+00 +1.0336736885e+03 1.0336736885e+03 0.0000000000e+00 0.0000e+00 1.0000e+00
       -2 -1    0    0    0  501 -0.0000000000e+00 -0.0000000000e+00 -1.2658986903e+03 1.2658986903e+03 0.0000000000e+00 0.0000e+00 -1.0000e+00
      -13  1    1    2    0    0 +3.4822905197e+02 -7.8862506523e+02 +6.3963745058e+02 1.0734658981e+03 0.0000000000e+00 0.0000e+00 1.0000e+00
       13  1    1    2    0    0 -3.4822905197e+02 +7.8862506523e+02 -8.7186245237e+02 1.2261064807e+03 0.0000000000e+00 0.0000e+00 -1.0000e+00
<mgrwt>
<rscale>  0 0.22878166E+04</rscale>
<asrwt>0</asrwt>
<pdfrwt beam="1">  1        2 0.15902672E+00 0.22878166E+04</pdfrwt>
<pdfrwt beam="2">  1       -2 0.19475364E+00 0.22878166E+04</pdfrwt>
<totfact> 0.35051531E+00</totfact>
</mgrwt>
<rwgt>
<wgt id='morphing_basis_vector_1'> +1.0601271e-04 </wgt>
<wgt id='morphing_basis_vector_2'> +1.2190820e-04 </wgt>
<wgt id='morphing_basis_vector_3'> +1.2361774e-04 </wgt>
<wgt id='morphing_basis_vector_4'> +1.8280651e-05 </wgt>
<wgt id='morphing_basis_vector_5'> +9.7589178e-05 </wgt>
</rwgt>
</event>
<event>
 4      1 +2.2016400e-08 2.47335800e+03 7.81860800e-03 7.90103700e-02
        2 -1    0    0  501    0 +0.0000000000e+00 +0.0000000000e+00 +1.0450676388e+03 1.0450676388e+03 0.0000000000e+00 0.0000e+00 -1.0000e+00
       -2 -1    0    0    0  501 -0.0000000000e+00 -0.0000000000e+00 -1.4634216557e+03 1.4634216557e+03 0.0000000000e+00 0.0000e+00 1.0000e+00
      -13  1    1    2    0    0 +7.0847268196e+02 -7.5333391806e+02 -8.9699059934e+02 1.3689549549e+03 0.0000000000e+00 0.0000e+00 1.0000e+00
       13  1    1    2    0    0 -7.0847268196e+02 +7.5333391806e+02 +4.7863658239e+02 1.1395343396e+03 0.0000000000e+00 0.0000e+00 -1.0000e+00
<mgrwt>
<rscale>  0 0.24733577E+04</rscale>
<asrwt>0</asrwt>
<pdfrwt beam="1">  1        2 0.16077964E+00 0.24733577E+04</pdfrwt>
<pdfrwt beam="2">  1       -2 0.22514179E+00 0.24733577E+04</pdfrwt>
<totfact> 0.20510286E+00</totfact>
</mgrwt>
<rwgt>
<wgt id='morphing_basis_vector_1'> +1.1422467e-04 </wgt>
<wgt id='morphing_basis_vector_2'> +7.7521059e-05 </wgt>
<wgt id='morphing_basis_vector_3'> +1.2365779e-04 </wgt>
<wgt id='morphing_basis_vector_4'> +8.6357867e-05 </wgt>
<wgt id='morphing_basis_vector_5'> +1.3882291e-04 </wgt>
</rwgt>
</event>
<event>
 4      1 +2.2016400e-08 2.40842500e+03 7.81860800e-03 7.92198800e-02
        2 -1    0    0  501    0 +0.0000000000e+00 +0.0000000000e+00 +1.5377023618e+03 1.5377023618e+03 0.0000000000e+00 0.0000e+00 1.0000e+00
       -2 -1    0    0    0  501 -0.0000000000e+00 -0.0000000000e+00 -9.4304843421e+02 9.4304843421e+02 0.0000000000e+00 0.0000e+00 -1.0000e+00
      -13  1    1    2    0    0 -2.1086297583e+02 -1.1690325889e+03 +9.3840791152e+01 1.1915982891e+03 0.0000000000e+00 0.0000e+00 -1.0000e+00
       13  1    1    2    0    0 +2.1086297583e+02 +1.1690325889e+03 +5.0081313645e+02 1.2891525069e+03 0.0000000000e+00 0.0000e+00 1.0000e+00
<mgrwt>
<rscale>  0 0.24084250E+04</rscale>
<asrwt>0</asrwt>
<pdfrwt beam="1">  1        2 0.23656960E+00 0.24084250E+04</pdfrwt>
<pdfrwt beam="2">  1       -2 0.14508437E+00 0.24084250E+04</pdfrwt>
<totfact> 0.43398695E+00</totfact>
</mgrwt>
<rwgt>
<wgt id='morphing_basis_vector_1'> +1.0452677e-04 </wgt>
<wgt id='morphing_basis_vector_2'> +7.4708314e-05 </wgt>
<wgt id='morphing_basis_vector_3'> +1.1373859e-04 </wgt>
<wgt id='morphing_basis_vector_4'> +7.4096517e-05 </wgt>
<wgt id='morphing_basis_vector_5'> +1.2435323e-04 </wgt>
</rwgt>
</event>
<event>
 4      1 +2.2016400e-08 2.24556000e+03 7.81860800e-03 7.97766800e-02
        2 -1    0    0  501    0 +0.0000000000e+00 +0.0000000000e+00 +1.9910507502e+03 1.9910507502e+03 0.0000000000e+00 0.0000e+00 1.0000e+00
       -2 -1    0    0    0  501 -0.0000000000e+00 -0.0000000000e+00 -6.3315032503e+02 6.3315032503e+02 0.0000000000e+00 0.0000e+00 -1.0000e+00
      -13  1    1    2    0    0 +1.1231716148e+02 +1.0968344664e+03 +4.3112209598e+02 1.1838611629e+03 0.0000000000e+00 0.0000e+00 -1.0000e+00
       13  1    1    2    0    0 -1.1231716148e+02 -1.0968344664e+03 +9.2677832921e+02 1.4403399123e+03 0.0000000000e+00 0.0000e+00 1.0000e+00
<mgrwt>
<rscale>  0 0.22455596E+04</rscale>
<asrwt>0</asrwt>
<pdfrwt beam="1">  1        2 0.30631550E+00 0.22455596E+04</pdfrwt>
<pdfrwt beam="2">  1       -2 0.97407743E-01 0.22455596E+04</pdfrwt>
<totfact> 0.68985397E+00</totfact>
</mgrwt>
<rwgt>
<wgt id='morphing_basis_vector_1'> +7.9182727e-05 </wgt>
<wgt id='morphing_basis_vector_2'> +5.6146574e-05 </wgt>
<wgt id='morphing_basis_vector_3'> +8.5746035e-05 </wgt>
<wgt id='morphing_basis_vector_4'> +5.6064170e-05 </wgt>
<wgt id='morphing_basis_vector_5'> +9.3612711e-05 </wgt>
</rwgt>
</event>
<event>
 4      1 +2.2016400e-08 2.23640900e+03 7.81860800e-03 7.98094000e-02
        2 -1    0    0  501    0 +0.0000000000e+00 +0.0000000000e+00 +1.7022579767e+03 1.7022579767e+03 0.0000000000e+00 0.0000e+00 -1.0000e+00
       -2 -1    0    0    0  501 -0.0000000000e+00 -0.0000000000e+00 -7.3454269322e+02 7.3454269322e+02 0.0000000000e+00 0.0000e+00 1.0000e+00
      -13  1    1    2    0    0 +9.2233478070e+02 -1.5845679793e+02 +1.1507196314e+03 1.4832281263e+03 0.0000000000e+00 0.0000e+00 1.0000e+00
       13  1    1    2    0    0 -9.2233478070e+02 +1.5845679793e+02 -1.8300434798e+02 9.5357254358e+02 0.0000000000e+00 0.0000e+00 -1.0000e+00
<mgrwt>
<rscale>  0 0.22364089E+04</rscale>
<asrwt>0</asrwt>
<pdfrwt beam="1">  1        2 0.26188584E+00 0.22364089E+04</pdfrwt>
<pdfrwt beam="2">  1       -2 0.11300657E+00 0.22364089E+04</pdfrwt>
<totfact> 0.69443378E+00</totfact>
</mgrwt>
<rwgt>
<wgt id='morphing_basis_vector_1'> +9.2466390e-05 </wgt>
<wgt id='morphing_basis_vector_2'> +9.8230967e-05 </wgt>
<wgt id='morphing_basis_vector_3'> +1.0609999e-04 </wgt>
<wgt id='morphing_basis_vector_4'> +2.5721230e-05 </wgt>
<wgt id='morphing_basis_vector_5'> +8.9715597e-05 </wgt>
</rwgt>
</event>
<event>
 4      1 +2.2016400e-08 2.30927000e+03 7.81860800e-03 7.95532500e-02
        2 -1    0    0  501    0 +0.0000000000e+00 +0.0000000000e+00 +2.3540563664e+03 2.3540563664e+03 0.0000000000e+00 0.0000e+00 -1.0000e+00
       -2 -1    0    0    0  501 -0.0000000000e+00 -0.0000000000e+00 -5.6633396920e+02 5.6633396920e+02 0.0000000000e+00 0.0000e+00 1.0000e+00
      -13  1    1    2    0    0 +8.1534666641e+02 -7.8024059652e+02 +5.8508099486e+02 1.2711747895e+03 0.0000000000e+00 0.0000e+00 1.0000e+00
       13  1    1    2    0    0 -8.1534666641e+02 +7.8024059652e+02 +1.2026414023e+03 1.6492155461e+03 0.0000000000e+00 0.0000e+00 -1.0000e+00
<mgrwt>
<rscale>  0 0.23092701E+04</rscale>
<asrwt>0</asrwt>
<pdfrwt beam="1">  1        2 0.36216251E+00 0.23092701E+04</pdfrwt>
<pdfrwt beam="2">  1       -2 0.87128305E-01 0.23092701E+04</pdfrwt>
<totfact> 0.55271171E+00</totfact>
</mgrwt>
<rwgt>
<wgt id='morphing_basis_vector_1'> +8.8269994e-05 </wgt>
<wgt id='morphing_basis_vector_2'> +6.2347870e-05 </wgt>
<wgt id='morphing_basis_vector_3'> +9.5693967e-05 </wgt>
<wgt id='morphing_basis_vector_4'> +6.3079280e-05 </wgt>
<wgt id='morphing_basis_vector_5'> +1.0489983e-04 </wgt>
</rwgt>
</event>
<event>
 4      1 +2.2016400e-08 2.41747500e+03 7.81860800e-03 7.91902700e-02
        2 -1    0    0  501    0 +0.0000000000e+00 +0.0000000000e+00 +2.4175896044e+03 2.4175896044e+03 0.0000000000e+00 0.0000e+00 1.0000e+00
       -2 -1    0    0    0  501 -0.0000000000e+00 -0.0000000000e+00 -6.0434008644e+02 6.0434008644e+02 0.0000000000e+00 0.0000e+00 -1.0000e+00
      -13  1    1    2    0    0 +5.9921422586e+02 -5.8883401353e+02 -1.7972959705e+02 8.5911926530e+02 0.0000000000e+00 0.0000e+00 -1.0000e+00
       13  1    1    2    0    0 -5.9921422586e+02 +5.8883401353e+02 +1.9929791150e+03 2.1628104255e+03 0.0000000000e+00 0.0000e+00 1.0000e+00
<mgrwt>
<rscale>  0 0.24174750E+04</rscale>
<asrwt>0</asrwt>
<pdfrwt beam="1">  1        2 0.37193686E+00 0.24174750E+04</pdfrwt>
<pdfrwt beam="2">  1       -2 0.92975399E-01 0.24174750E+04</pdfrwt>
<totfact> 0.43174472E+00</totfact>
</mgrwt>
<rwgt>
<wgt id='morphing_basis_vector_1'> +1.0413189e-04 </wgt>
<wgt id='morphing_basis_vector_2'> +7.0065824e-05 </wgt>
<wgt id='morphing_basis_vector_3'> +1.1249443e-04 </wgt>
<wgt id='morphing_basis_vector_4'> +7.9218305e-05 </wgt>
<wgt id='morphing_basis_vector_5'> +1.2658086e-04 </wgt>
</rwgt>
</event>
<event>
 4      1 +2.2016400e-08 2.27384400e+03 7.81860800e-03 7.96765600e-02
        2 -1    0    0  501    0 +0.0000000000e+00 +0.0000000000e+00 +5.7900158307e+02 5.7900158307e+02 0.0000000000e+00 0.0000e+00 1.0000e+00
       -2 -1    0    0    0  501 -0.0000000000e+00 -0.0000000000e+00 -2.2324483550e+03 2.2324483550e+03 0.0000000000e+00 0.0000e+00 -1.0000e+00
      -13  1    1    2    0    0 +1.0616494445e+03 +2.5497753867e+02 -1.2186505436e+03 1.6362219396e+03 0.0000000000e+00 0.0000e+00 -1.0000e+00
       13  1    1    2    0    0 -1.0616494445e+03 -2.5497753867e+02 -4.3479622834e+02 1.1752279985e+03 0.0000000000e+00 0.0000e+00 1.0000e+00
<mgrwt>
<rscale>  0 0.22738436E+04</rscale>
<asrwt>0</asrwt>
<pdfrwt beam="1">  1        2 0.89077168E-01 0.22738436E+04</pdfrwt>
<pdfrwt beam="2">  1       -2 0.34345359E+00 0.22738436E+04</pdfrwt>
<totfact> 0.70023990E-01</totfact>
</mgrwt>
<rwgt>
<wgt id='morphing_basis_vector_1'> +8.2731945e-05 </wgt>
<wgt id='morphing_basis_vector_2'> +5.7677532e-05 </wgt>
<wgt id='morphing_basis_vector_3'> +8.9471765e-05 </wgt>
<wgt id='morphing_basis_vector_4'> +5.9899562e-05 </wgt>
<wgt id='morphing_basis_vector_5'> +9.8569332e-05 </wgt>
</rwgt>
</event>
<event>
 4      1 +2.2016400e-08 2.36793300e+03 7.81860800e-03 7.93539900e-02
        2 -1    0    0  501    0 +0.0000000000e+00 +0.0000000000e+00 +2.1663077104e+03 2.1663077104e+03 0.0000000000e+00 0.0000e+00 -1.0000e+00
       -2 -1    0    0    0  501 -0.0000000000e+00 -0.0000000000e+00 -6.4708132123e+02 6.4708132123e+02 0.0000000000e+00 0.0000e+00 1.0000e+00
      -13  1    1    2    0    0 +4.0333000164e+02 -9.8601713211e+02 +1.4583408267e+02 1.0752545999e+03 0.0000000000e+00 0.0000e+00 1.0000e+00
       13  1    1    2    0    0 -4.0333000164e+02 +9.8601713211e+02 +1.3733923065e+03 1.7381344316e+03 0.0000000000e+00 0.0000e+00 -1.0000e+00
<mgrwt>
<rscale>  0 0.23679335E+04</rscale>
<asrwt>0</asrwt>
<pdfrwt beam="1">  1        2 0.33327811E+00 0.23679335E+04</pdfrwt>
<pdfrwt beam="2">  1       -2 0.99550974E-01 0.23679335E+04</pdfrwt>
<totfact> 0.51552894E+00</totfact>
</mgrwt>
<rwgt>
<wgt id='morphing_basis_vector_1'> +9.6454183e-05 </wgt>
<wgt id='morphing_basis_vector_2'> +6.5964829e-05 </wgt>
<wgt id='morphing_basis_vector_3'> +1.0429740e-04 </wgt>
<wgt id='morphing_basis_vector_4'> +7.1848303e-05 </wgt>
<wgt id='morphing_basis_vector_5'> +1.1630445e-04 </wgt>
</rwgt>
</event>
<event>
 4      1 +2.2016400e-08 2.42055800e+03 7.81860800e-03 7.91802200e-02
        2 -1    0    0  501    0 +0.0000000000e+00 +0.0000000000e+00 +2.2411675825e+03 2.2411675825e+03 0.0000000000e+00 0.0000e+00 -1.0000e+00
       -2 -1    0    0    0  501 -0.0000000000e+00 -0.0000000000e+00 -6.5357682215e+02 6.5357682215e+02 0.0000000000e+00 0.0000e+00 1.0000e+00
      -13  1    1    2    0    0 +8.0279007359e+02 +8.9863133332e+02 +9.2891093138e+02 1.5214748417e+03 0.0000000000e+00 0.0000e+00 1.0000e+00
       13  1    1    2    0    0 -8.0279007359e+02 -8.9863133332e+02 +6.5867982900e+02 1.3732695630e+03 0.0000000000e+00 0.0000e+00 -1.0000e+00
<mgrwt>
<rscale>  0 0.24205579E+04</rscale>
<asrwt>0</asrwt>
<pdfrwt beam="1">  1        2 0.34479501E+00 0.24205579E+04</pdfrwt>
<pdfrwt beam="2">  1       -2 0.10055028E+00 0.24205579E+04</pdfrwt>
<totfact> 0.45383262E+00</totfact>
</mgrwt>
<rwgt>
<wgt id='morphing_basis_vector_1'> +1.0987674e-04 </wgt>
<wgt id='morphing_basis_vector_2'> +8.5831326e-05 </wgt>
<wgt id='morphing_basis_vector_3'> +1.2099166e-04 </wgt>
<wgt id='morphing_basis_vector_4'> +6.8968987e-05 </wgt>
<wgt id='morphing_basis_vector_5'> +1.2637549e-04 </wgt>
</rwgt>
</event>
<event>
 4      1 +2.2016400e-08 2.35283300e+03 7.81860800e-03 7.94047100e-02
        2 -1    0    0  501    0 +0.0000000000e+00 +0.0000000000e+00 +1.0240288321e+03 1.0240288321e+03 0.0000000000e+00 0.0000e+00 -1.0000e+00
       -2 -1    0    0    0  501 -0.0000000000e+00 -0.0000000000e+00 -1.3514808238e+03 1.3514808238e+03 0.0000000000e+00 0.0000e+00 1.0000e+00
      -13  1    1    2    0    0 +5.3618386994e+02 +1.0397863613e+03 -2.8863790878e+02 1.2049733034e+03 0.0000000000e+00 0.0000e+00 1.0000e+00
       13  1    1    2    0    0 -5.3618386994e+02 -1.0397863613e+03 -3.8814082989e+01 1.1705363525e+03 0.0000000000e+00 0.0000e+00 -1.0000e+00
<mgrwt>
<rscale>  0 0.23528326E+04</rscale>
<asrwt>0</asrwt>
<pdfrwt beam="1">  1        2 0.15754290E+00 0.23528326E+04</pdfrwt>
<pdfrwt beam="2">  1       -2 0.20792013E+00 0.23528326E+04</pdfrwt>
<totfact> 0.28329925E+00</totfact>
</mgrwt>
<rwgt>
<wgt id='morphing_basis_vector_1'> +9.5801446e-05 </wgt>
<wgt id='morphing_basis_vector_2'> +6.9474065e-05 </wgt>
<wgt id='morphing_basis_vector_3'> +1.0430560e-04 </wgt>
<wgt id='morphing_basis_vector_4'> +6.6447685e-05 </wgt>
<wgt id='morphing_basis_vector_5'> +1.1303742e-04 </wgt>
</rwgt>
</event>
<event>
 4      1 +2.2016400e-08 2.37776100e+03 7.81860800e-03 7.93211800e-02
        2 -1    0    0  501    0 +0.0000000000e+00 +0.0000000000e+00 +1.6000137807e+03 1.6000137807e+03 0.0000000000e+00 0.0000e+00 -1.0000e+00
       -2 -1    0    0    0  501 -0.0000000000e+00 -0.0000000000e+00 -8.8339076292e+02 8.8339076292e+02 0.0000000000e+00 0.0000e+00 1.0000e+00
      -13  1    1    2    0    0 +1.0255982568e+03 +4.7128366831e+02 -3.1748094485e+01 1.1291448189e+03 0.0000000000e+00 0.0000e+00 1.0000e+00
       13  1    1    2    0    0 -1.0255982568e+03 -4.7128366831e+02 +7.4837111224e+02 1.3542597247e+03 0.0000000000e+00 0.0000e+00 -1.0000e+00
<mgrwt>
<rscale>  0 0.23777615E+04</rscale>
<asrwt>0</asrwt>
<pdfrwt beam="1">  1        2 0.24615597E+00 0.23777615E+04</pdfrwt>
<pdfrwt beam="2">  1       -2 0.13590627E+00 0.23777615E+04</pdfrwt>
<totfact> 0.48140870E+00</totfact>
</mgrwt>
<rwgt>
<wgt id='morphing_basis_vector_1'> +9.8490097e-05 </wgt>
<wgt id='morphing_basis_vector_2'> +6.8382810e-05 </wgt>
<wgt id='morphing_basis_vector_3'> +1.0671607e-04 </wgt>
<wgt id='morphing_basis_vector_4'> +7.2152176e-05 </wgt>
<wgt id='morphing_basis_vector_5'> +1.1820158e-04 </wgt>
</rwgt>
</event>
<event>
 4      1 +2.2016400e-08 2.55505000e+03 7.81860800e-03 7.87559600e-02
        2 -1    0    0  501    0 +0.0000000000e+00 +0.0000000000e+00 +1.3126765804e+03 1.3126765804e+03 0.0000000000e+00 0.0000e+00 -1.0000e+00
       -2 -1    0    0    0  501 -0.0000000000e+00 -0.0000000000e+00 -1.2433146032e+03 1.2433146032e+03 0.0000000000e+00 0.0000e+00 1.0000e+00
      -13  1    1    2    0    0 +5.1387069062e+01 +1.1816177043e+03 -4.4841403034e+02 1.2648858338e+03 0.0000000000e+00 0.0000e+00 1.0000e+00
       13  1    1    2    0    0 -5.1387069062e+01 -1.1816177043e+03 +5.1777600757e+02 1.2911053497e+03 0.0000000000e+00 0.0000e+00 -1.0000e+00
<mgrwt>
<rscale>  0 0.25550499E+04</rscale>
<asrwt>0</asrwt>
<pdfrwt beam="1">  1        2 0.20195024E+00 0.25550499E+04</pdfrwt>
<pdfrwt beam="2">  1       -2 0.19127917E+00 0.25550499E+04</pdfrwt>
<totfact> 0.24887968E+00</totfact>
</mgrwt>
<rwgt>
<wgt id='morphing_basis_vector_1'> +1.3046812e-04 </wgt>
<wgt id='morphing_basis_vector_2'> +9.0006843e-05 </wgt>
<wgt id='morphing_basis_vector_3'> +1.4173468e-04 </wgt>
<wgt id='morphing_basis_vector_4'> +9.7257753e-05 </wgt>
<wgt id='morphing_basis_vector_5'> +1.5825163e-04 </wgt>
</rwgt>
</event>
<event>
 4      1 +2.2016400e-08 2.37526800e+03 7.81860800e-03 7.93294900e-02
        2 -1    0    0  501    0 +0.0000000000e+00 +0.0000000000e+00 +2.2997460329e+03 2.2997460329e+03 0.0000000000e+00 0.0000e+00 -1.0000e+00
       -2 -1    0    0    0  501 -0.0000000000e+00 -0.0000000000e+00 -6.1331776220e+02 6.1331776220e+02 0.0000000000e+00 0.0000e+00 1.0000e+00
      -13  1    1    2    0    0 +1.1876121522e+02 -1.1147956540e+03 +3.6255739377e+02 1.1782705293e+03 0.0000000000e+00 0.0000e+00 1.0000e+00
       13  1    1    2    0    0 -1.1876121522e+02 +1.1147956540e+03 +1.3238708769e+03 1.7347932658e+03 0.0000000000e+00 0.0000e+00 -1.0000e+00
<mgrwt>
<rscale>  0 0.23752685E+04</rscale>
<asrwt>0</asrwt>
<pdfrwt beam="1">  1        2 0.35380708E+00 0.23752685E+04</pdfrwt>
<pdfrwt beam="2">  1       -2 0.94356580E-01 0.23752685E+04</pdfrwt>
<totfact> 0.49047993E+00</totfact>
</mgrwt>
<rwgt>
<wgt id='morphing_basis_vector_1'> +9.8014165e-05 </wgt>
<wgt id='morphing_basis_vector_2'> +6.7893245e-05 </wgt>
<wgt id='morphing_basis_vector_3'> +1.0616446e-04 </wgt>
<wgt id='morphing_basis_vector_4'> +7.1987432e-05 </wgt>
<wgt id='morphing_basis_vector_5'> +1.1771106e-04 </wgt>
</rwgt>
</event>
<event>
 4      1 +2.2016400e-08 2.40519400e+03 7.81860800e-03 7.92304800e-02
        2 -1    0    0  501    0 +0.0000000000e+00 +0.0000000000e+00 +1.3046503905e+03 1.3046503905e+03 0.0000000000e+00 0.0000e+00 1.0000e+00
       -2 -1    0    0    0  501 -0.0000000000e+00 -0.0000000000e+00 -1.1085263574e+03 1.1085263574e+03 0.0000000000e+00 0.0000e+00 -1.0000e+00
      -13  1    1    2    0    0 -9.1851731874e+02 +6.2469967467e+02 +5.6036851632e+02 1.2441610115e+03 0.0000000000e+00 0.0000e+00 -1.0000e+00
       13  1    1    2    0    0 +9.1851731874e+02 -6.2469967467e+02 -3.6424448327e+02 1.1690157364e+03 0.0000000000e+00 0.0000e+00 1.0000e+00
<mgrwt>
<rscale>  0 0.24051938E+04</rscale>
<asrwt>0</asrwt>
<pdfrwt beam="1">  1        2 0.20071544E+00 0.24051938E+04</pdfrwt>
<pdfrwt beam="2">  1       -2 0.17054252E+00 0.24051938E+04</pdfrwt>
<totfact> 0.36606375E+00</totfact>
</mgrwt>
<rwgt>
<wgt id='morphing_basis_vector_1'> +1.1538418e-04 </wgt>
<wgt id='morphing_basis_vector_2'> +1.0799394e-04 </wgt>
<wgt id='morphing_basis_vector_3'> +1.3042680e-04 </wgt>
<wgt id='morphing_basis_vector_4'> +5.0412502e-05 </wgt>
<wgt id='morphing_basis_vector_5'> +1.2179833e-04 </wgt>
</rwgt>
</event>
<event>
 4      1 +2.2016400e-08 2.43403200e+03 7.81860800e-03 7.91364600e-02
        2 -1    0    0  501    0 +0.0000000000e+00 +0.0000000000e+00 +1.1263581774e+03 1.1263581774e+03 0.0000000000e+00 0.0000e+00 1.0000e+00
       -2 -1    0    0    0  501 -0.0000000000e+00 -0.0000000000e+00 -1.3149707581e+03 1.3149707581e+03 0.0000000000e+00 0.0000e+00 -1.0000e+00
      -13  1    1    2    0    0 +6.8662748940e+01 +9.2226199354e+02 -8.8778238042e+02 1.2819669702e+03 0.0000000000e+00 0.0000e+00 -1.0000e+00
       13  1    1    2    0    0 -6.8662748940e+01 -9.2226199354e+02 +6.9916979970e+02 1.1593619653e+03 0.0000000000e+00 0.0000e+00 1.0000e+00
<mgrwt>
<rscale>  0 0.24340321E+04</rscale>
<asrwt>0</asrwt>
<pdfrwt beam="1">  1        2 0.17328587E+00 0.24340321E+04</pdfrwt>
<pdfrwt beam="2">  1       -2 0.20230319E+00 0.24340321E+04</pdfrwt>
<totfact> 0.26788500E+00</totfact>
</mgrwt>
<rwgt>
<wgt id='morphing_basis_vector_1'> +1.0705251e-04 </wgt>
<wgt id='morphing_basis_vector_2'> +7.2226398e-05 </wgt>
<wgt id='morphing_basis_vector_3'> +1.1572451e-04 </wgt>
<wgt id='morphing_basis_vector_4'> +8.1279383e-05 </wgt>
<wgt id='morphing_basis_vector_5'> +1.3011976e-04 </wgt>
</rwgt>
</event>
<event>
 4      1 +2.2016400e-08 2.30914800e+03 7.81860800e-03 7.95536700e-02
        2 -1    0    0  501    0 +0.0000000000e+00 +0.0000000000e+00 +1.4346905136e+03 1.4346905136e+03 0.0000000000e+00 0.0000e+00 -1.0000e+00
       -2 -1    0    0    0  501 -0.0000000000e+00 -0.0000000000e+00 -9.2914880770e+02 9.2914880770e+02 0.0000000000e+00 0.0000e+00 1.0000e+00
      -13  1    1    2    0    0 +2.4044414333e+02 +9.3820702723e+02 -3.9060106114e+02 1.0443251414e+03 0.0000000000e+00 0.0000e+00 1.0000e+00
       13  1    1    2    0    0 -2.4044414333e+02 -9.3820702723e+02 +8.9614276703e+02 1.3195141799e+03 0.0000000000e+00 0.0000e+00 -1.0000e+00
<mgrwt>
<rscale>  0 0.23091479E+04</rscale>
<asrwt>0</asrwt>
<pdfrwt beam="1">  1        2 0.22072162E+00 0.23091479E+04</pdfrwt>
<pdfrwt beam="2">  1       -2 0.14294597E+00 0.23091479E+04</pdfrwt>
<totfact> 0.52117318E+00</totfact>
</mgrwt>
<rwgt>
<wgt id='morphing_basis_vector_1'> +8.7126821e-05 </wgt>
<wgt id='morphing_basis_vector_2'> +5.9012323e-05 </wgt>
<wgt id='morphing_basis_vector_3'> +9.3981516e-05 </wgt>
<wgt id='morphing_basis_vector_4'> +6.5349953e-05 </wgt>
<wgt id='morphing_basis_vector_5'> +1.0506092e-04 </wgt>
</rwgt>
</event>
<event>
 4      1 +2.2016400e-08 2.63783500e+03 7.81860800e-03 7.85078800e-02
        2 -1    0    0  501    0 +0.0000000000e+00 +0.0000000000e+00 +2.4956112487e+03 2.4956112487e+03 0.0000000000e+00 0.0000e+00 1.0000e+00
       -2 -1    0    0    0  501 -0.0000000000e+00 -0.0000000000e+00 -6.9704094293e+02 6.9704094293e+02 0.0000000000e+00 0.0000e+00 -1.0000e+00
      -13  1    1    2    0    0 -6.0741451224e+02 -5.2108554461e+02 -3.6957815195e+02 8.8151604913e+02 0.0000000000e+00 0.0000e+00 -1.0000e+00
       13  1    1    2    0    0 +6.0741451224e+02 +5.2108554461e+02 +2.1681484577e+03 2.3111361425e+03 0.0000000000e+00 0.0000e+00 1.0000e+00
<mgrwt>
<rscale>  0 0.26378349E+04</rscale>
<asrwt>0</asrwt>
<pdfrwt beam="1">  1        2 0.38394019E+00 0.26378349E+04</pdfrwt>
<pdfrwt beam="2">  1       -2 0.10723707E+00 0.26378349E+04</pdfrwt>
<totfact> 0.26986072E+00</totfact>
</mgrwt>
<rwgt>
<wgt id='morphing_basis_vector_1'> +1.4687557e-04 </wgt>
<wgt id='morphing_basis_vector_2'> +9.8900815e-05 </wgt>
<wgt id='morphing_basis_vector_3'> +1.5929052e-04 </wgt>
<wgt id='morphing_basis_vector_4'> +1.1294361e-04 </wgt>
<wgt id='morphing_basis_vector_5'> +1.8023836e-04 </wgt>
</rwgt>
</event>
<event>
 4      1 +2.2016400e-08 2.29666200e+03 7.81860800e-03 7.95968700e-02
        2 -1    0    0  501    0 +0.0000000000e+00 +0.0000000000e+00 +2.7047593547e+03 2.7047593547e+03 0.0000000000e+00 0.0000e+00 -1.0000e+00
       -2 -1    0    0    0  501 -0.0000000000e+00 -0.0000000000e+00 -4.8753450588e+02 4.8753450588e+02 0.0000000000e+00 0.0000e+00 1.0000e+00
      -13  1    1    2    0    0 -3.3025407276e+02 -9.8482733468e+02 +4.2807854879e+02 1.1234784714e+03 0.0000000000e+00 0.0000e+00 1.0000e+00
       13  1    1    2    0    0 +3.3025407276e+02 +9.8482733468e+02 +1.7891463000e+03 2.0688153892e+03 0.0000000000e+00 0.0000e+00 -1.0000e+00
<mgrwt>
<rscale>  0 0.22966615E+04</rscale>
<asrwt>0</asrwt>
<pdfrwt beam="1">  1        2 0.41611681E+00 0.22966615E+04</pdfrwt>
<pdfrwt beam="2">  1       -2 0.75005311E-01 0.22966615E+04</pdfrwt>
<totfact> 0.47921565E+00</totfact>
</mgrwt>
<rwgt>
<wgt id='morphing_basis_vector_1'> +8.5537024e-05 </wgt>
<wgt id='morphing_basis_vector_2'> +5.8496350e-05 </wgt>
<wgt id='morphing_basis_vector_3'> +9.2344748e-05 </wgt>
<wgt id='morphing_basis_vector_4'> +6.3417829e-05 </wgt>
<wgt id='morphing_basis_vector_5'> +1.0273223e-04 </wgt>
</rwgt>
</event>
<event>
 4      1 +2.2016400e-08 2.52526300e+03 7.81860800e-03 7.88475800e-02
        2 -1    0    0  501    0 +0.0000000000e+00 +0.0000000000e+00 +1.9917628614e+03 1.9917628614e+03 0.0000000000e+00 0.0000e+00 -1.0000e+00
       -2 -1    0    0    0  501 -0.0000000000e+00 -0.0000000000e+00 -8.0041559208e+02 8.0041559208e+02 0.0000000000e+00 0.0000e+00 1.0000e+00
      -13  1    1    2    0    0 +1.2410573100e+03 -1.7172251637e+02 +4.2251204930e+02 1.3222058467e+03 0.0000000000e+00 0.0000e+00 1.0000e+00
       13  1    1    2    0    0 -1.2410573100e+03 +1.7172251637e+02 +7.6883522005e+02 1.4699726068e+03 0.0000000000e+00 0.0000e+00 -1.0000e+00
<mgrwt>
<rscale>  0 0.25252628E+04</rscale>
<asrwt>0</asrwt>
<pdfrwt beam="1">  1        2 0.30642505E+00 0.25252628E+04</pdfrwt>
<pdfrwt beam="2">  1       -2 0.12314086E+00 0.25252628E+04</pdfrwt>
<totfact> 0.37398044E+00</totfact>
</mgrwt>
<rwgt>
<wgt id='morphing_basis_vector_1'> +1.2642434e-04 </wgt>
<wgt id='morphing_basis_vector_2'> +9.1395337e-05 </wgt>
<wgt id='morphing_basis_vector_3'> +1.3808905e-04 </wgt>
<wgt id='morphing_basis_vector_4'> +8.8931209e-05 </wgt>
<wgt id='morphing_basis_vector_5'> +1.5060271e-04 </wgt>
</rwgt>
</event>
<event>
 4      1 +2.2016400e-08 2.42370500e+03 7.81860800e-03 7.91699700e-02
        2 -1    0    0  501    0 +0.0000000000e+00 +0.0000000000e+00 +1.5305821667e+03 1.5305821667e+03 0.0000000000e+00 0.0000e+00 -1.0000e+00
       -2 -1    0    0    0  501 -0.0000000000e+00 -0.0000000000e+00 -9.5949536651e+02 9.5949536651e+02 0.0000000000e+00 0.0000e+00 1.0000e+00
      -13  1    1    2    0    0 -3.6518760234e+02 -5.7465003999e+02 -7.4440753934e+02 1.0088246815e+03 0.0000000000e+00 0.0000e+00 1.0000e+00
       13  1    1    2    0    0 +3.6518760234e+02 +5.7465003999e+02 +1.3154943395e+03 1.4812528517e+03 0.0000000000e+00 0.0000e+00 -1.0000e+00
<mgrwt>
<rscale>  0 0.24237050E+04</rscale>
<asrwt>0</asrwt>
<pdfrwt beam="1">  1        2 0.23547418E+00 0.24237050E+04</pdfrwt>
<pdfrwt beam="2">  1       -2 0.14761467E+00 0.24237050E+04</pdfrwt>
<totfact> 0.41660923E+00</totfact>
</mgrwt>
<rwgt>
<wgt id='morphing_basis_vector_1'> +1.0511870e-04 </wgt>
<wgt id='morphing_basis_vector_2'> +7.0563104e-05 </wgt>
<wgt id='morphing_basis_vector_3'> +1.1354235e-04 </wgt>
<wgt id='morphing_basis_vector_4'> +8.0203710e-05 </wgt>
<wgt id='morphing_basis_vector_5'> +1.2792125e-04 </wgt>
</rwgt>
</event>
<event>
 4      1 +2.2016400e-08 2.27838900e+03 7.81860800e-03 7.96606100e-02
        2 -1    0    0  501    0 +0.0000000000e+00 +0.0000000000e+00 +5.9496913081e+02 5.9496913081e+02 0.0000000000e+00 0.0000e+00 1.0000e+00
       -2 -1    0    0    0  501 -0.0000000000e+00 -0.0000000000e+00 -2.1812292321e+03 2.1812292321e+03 0.0000000000e+00 0.0000e+00 -1.0000e+00
      -13  1    1    2    0    0 -7.9145364659e+01 +6.7348248560e+02 -1.9085136934e+03 2.0254054322e+03 0.0000000000e+00 0.0000e+00 -1.0000e+00
       13  1    1    2    0    0 +7.9145364659e+01 -6.7348248560e+02 +3.2225359206e+02 7.5079293068e+02 0.0000000000e+00 0.0000e+00 1.0000e+00
<mgrwt>
<rscale>  0 0.22783890E+04</rscale>
<asrwt>0</asrwt>
<pdfrwt beam="1">  1        2 0.91533711E-01 0.22783890E+04</pdfrwt>
<pdfrwt beam="2">  1       -2 0.33557373E+00 0.22783890E+04</pdfrwt>
<totfact> 0.76386577E-01</totfact>
</mgrwt>
<rwgt>
<wgt id='morphing_basis_vector_1'> +8.2395775e-05 </wgt>
<wgt id='morphing_basis_vector_2'> +5.5214115e-05 </wgt>
<wgt id='morphing_basis_vector_3'> +8.8704525e-05 </wgt>
<wgt id='morphing_basis_vector_4'> +6.2392825e-05 </wgt>
<wgt id='morphing_basis_vector_5'> +9.9533112e-05 </wgt>
</rwgt>
</event>
<event>
 4      1 +2.2016400e-08 2.43006800e+03 7.81860800e-03 7.91493000e-02
        2 -1    0    0  501    0 +0.0000000000e+00 +0.0000000000e+00 +3.1253027473e+03 3.1253027473e+03 0.0000000000e+00 0.0000e+00 -1.0000e+00
       -2 -1    0    0    0  501 -0.0000000000e+00 -0.0000000000e+00 -4.7237279728e+02 4.7237279728e+02 0.0000000000e+00 0.0000e+00 1.0000e+00
      -13  1    1    2    0    0 -5.4114863149e+02 -4.9615635445e+01 -2.8243586476e+02 6.1243250268e+02 0.0000000000e+00 0.0000e+00 1.0000e+00
       13  1    1    2    0    0 +5.4114863149e+02 +4.9615635445e+01 +2.9353658148e+03 2.9852430419e+03 0.0000000000e+00 0.0000e+00 -1.0000e+00
<mgrwt>
<rscale>  0 0.24300683E+04</rscale>
<asrwt>0</asrwt>
<pdfrwt beam="1">  1        2 0.48081579E+00 0.24300683E+04</pdfrwt>
<pdfrwt beam="2">  1       -2 0.72672740E-01 0.24300683E+04</pdfrwt>
<totfact> 0.27298341E+00</totfact>
</mgrwt>
<rwgt>
<wgt id='morphing_basis_vector_1'> +1.0618645e-04 </wgt>
<wgt id='morphing_basis_vector_2'> +7.1228552e-05 </wgt>
<wgt id='morphing_basis_vector_3'> +1.1469995e-04 </wgt>
<wgt id='morphing_basis_vector_4'> +8.1111940e-05 </wgt>
<wgt id='morphing_basis_vector_5'> +1.2929254e-04 </wgt>
</rwgt>
</event>
<event>
 4      1 +2.2016400e-08 2.33515400e+03 7.81860800e-03 7.94645900e-02
        2 -1    0    0  501    0 +0.0000000000e+00 +0.0000000000e+00 +1.3172647185e+03 1.3172647185e+03 0.0000000000e+00 0.0000e+00 1.0000e+00
       -2 -1    0    0    0  501 -0.0000000000e+00 -0.0000000000e+00 -1.0348992402e+03 1.0348992402e+03 0.0000000000e+00 0.0000e+00 -1.0000e+00
      -13  1    1    2    0    0 -2.2577543977e+02 -1.1373681723e+02 +1.2893655382e+03 1.3139155620e+03 0.0000000000e+00 0.0000e+00 1.0000e+00
       13  1    1    2    0    0 +2.2577543977e+02 +1.1373681723e+02 -1.0070000599e+03 1.0382483968e+03 0.0000000000e+00 0.0000e+00 -1.0000e+00
<mgrwt>
<rscale>  0 0.23351542E+04</rscale>
<asrwt>0</asrwt>
<pdfrwt beam="1">  1        2 0.20265611E+00 0.23351542E+04</pdfrwt>
<pdfrwt beam="2">  1       -2 0.15921527E+00 0.23351542E+04</pdfrwt>
<totfact> 0.44499707E+00</totfact>
</mgrwt>
<rwgt>
<wgt id='morphing_basis_vector_1'> +1.2429523e-04 </wgt>
<wgt id='morphing_basis_vector_2'> +1.5986403e-04 </wgt>
<wgt id='morphing_basis_vector_3'> +1.4839762e-04 </wgt>
<wgt id='morphing_basis_vector_4'> +7.9576809e-07 </wgt>
<wgt id='morphing_basis_vector_5'> +1.0450702e-04 </wgt>
</rwgt>
</event>
<event>
 4      1 +2.2016400e-08 2.51027800e+03 7.81860800e-03 7.88941700e-02
        2 -1    0    0  501    0 +0.0000000000e+00 +0.0000000000e+00 +2.0112061551e+03 2.0112061551e+03 0.0000000000e+00 0.0000e+00 -1.0000e+00
       -2 -1    0    0    0  501 -0.0000000000e+00 -0.0000000000e+00 -7.8329814861e+02 7.8329814861e+02 0.0000000000e+00 0.0000e+00 1.0000e+00
      -13  1    1    2    0    0 -1.1582187323e+03 +4.1320699150e+02 +3.3417461244e+02 1.2743168057e+03 0.0000000000e+00 0.0000e+00 1.0000e+00
       13  1    1    2    0    0 +1.1582187323e+03 -4.1320699150e+02 +8.9373339403e+02 1.5201874980e+03 0.0000000000e+00 0.0000e+00 -1.0000e+00
<mgrwt>
<rscale>  0 0.25102781E+04</rscale>
<asrwt>0</asrwt>
<pdfrwt beam="1">  1        2 0.30941633E+00 0.25102781E+04</pdfrwt>
<pdfrwt beam="2">  1       -2 0.12050741E+00 0.25102781E+04</pdfrwt>
<totfact> 0.38637803E+00</totfact>
</mgrwt>
<rwgt>
<wgt id='morphing_basis_vector_1'> +1.2277070e-04 </wgt>
<wgt id='morphing_basis_vector_2'> +8.7142256e-05 </wgt>
<wgt id='morphing_basis_vector_3'> +1.3374534e-04 </wgt>
<wgt id='morphing_basis_vector_4'> +8.8284138e-05 </wgt>
<wgt id='morphing_basis_vector_5'> +1.4713502e-04 </wgt>
</rwgt>
</event>
<event>
 4      1 +2.2016400e-08 2.35553700e+03 7.81860800e-03 7.93955900e-02
        2 -1    0    0  501    0 +0.0000000000e+00 +0.0000000000e+00 +2.5798125755e+03 2.5798125755e+03 0.0000000000e+00 0.0000e+00 1.0000e+00
       -2 -1    0    0    0  501 -0.0000000000e+00 -0.0000000000e+00 -5.3768972617e+02 5.3768972617e+02 0.0000000000e+00 0.0000e+00 -1.0000e+00
      -13  1    1    2    0    0 -6.0637636965e+02 +1.2995821827e+02 -3.0410809198e+02 6.9069759792e+02 0.0000000000e+00 0.0000e+00 -1.0000e+00
       13  1    1    2    0    0 +6.0637636965e+02 -1.2995821827e+02 +2.3462309413e+03 2.4268047037e+03 0.0000000000e+00 0.0000e+00 1.0000e+00
<mgrwt>
<rscale>  0 0.23555371E+04</rscale>
<asrwt>0</asrwt>
<pdfrwt beam="1">  1        2 0.39689424E+00 0.23555371E+04</pdfrwt>
<pdfrwt beam="2">  1       -2 0.82721498E-01 0.23555371E+04</pdfrwt>
<totfact> 0.45573157E+00</totfact>
</mgrwt>
<rwgt>
<wgt id='morphing_basis_vector_1'> +9.3925687e-05 </wgt>
<wgt id='morphing_basis_vector_2'> +6.2968658e-05 </wgt>
<wgt id='morphing_basis_vector_3'> +1.0129655e-04 </wgt>
<wgt id='morphing_basis_vector_4'> +7.1461488e-05 </wgt>
<wgt id='morphing_basis_vector_5'> +1.1394448e-04 </wgt>
</rwgt>
</event>
<event>
 4      1 +2.2016400e-08 2.35075600e+03 7.81860800e-03 7.94117100e-02
        2 -1    0    0  501    0 +0.0000000000e+00 +0.0000000000e+00 +3.4168851327e+03 3.4168851327e+03 0.0000000000e+00 0.0000e+00 -1.0000e+00
       -2 -1    0    0    0  501 -0.0000000000e+00 -0.0000000000e+00 -4.0431964700e+02 4.0431964700e+02 0.0000000000e+00 0.0000e+00 1.0000e+00
      -13  1    1    2    0    0 +2.2858266524e+01 -7.6644739601e+02 +5.8245390633e+01 7.6899716302e+02 0.0000000000e+00 0.0000e+00 1.0000e+00
       13  1    1    2    0    0 -2.2858266524e+01 +7.6644739601e+02 +2.9543200950e+03 3.0522076167e+03 0.0000000000e+00 0.0000e+00 -1.0000e+00
<mgrwt>
<rscale>  0 0.23507563E+04</rscale>
<asrwt>0</asrwt>
<pdfrwt beam="1">  1        2 0.52567462E+00 0.23507563E+04</pdfrwt>
<pdfrwt beam="2">  1       -2 0.62203025E-01 0.23507563E+04</pdfrwt>
<totfact> 0.24060880E+00</totfact>
</mgrwt>
<rwgt>
<wgt id='morphing_basis_vector_1'> +9.3223467e-05 </wgt>
<wgt id='morphing_basis_vector_2'> +6.2600513e-05 </wgt>
<wgt id='morphing_basis_vector_3'> +1.0054840e-04 </wgt>
<wgt id='morphing_basis_vector_4'> +7.0779607e-05 </wgt>
<wgt id='morphing_basis_vector_5'> +1.1300127e-04 </wgt>
</rwgt>
</event>
<event>
 4      1 +2.2016400e-08 2.47113500e+03 7.81860800e-03 7.90174300e-02
        2 -1    0    0  501    0 +0.0000000000e+00 +0.0000000000e+00 +5.1891446183e+02 5.1891446183e+02 0.0000000000e+00 0.0000e+00 1.0000e+00
       -2 -1    0    0    0  501 -0.0000000000e+00 -0.0000000000e+00 -2.9419628011e+03 2.9419628011e+03 0.0000000000e+00 0.0000e+00 -1.0000e+00
      -13  1    1    2    0    0 -5.5271490251e+02 -4.4934355082e+02 -2.6254429833e+03 2.7203592132e+03 0.0000000000e+00 0.0000e+00 -1.0000e+00
       13  1    1    2    0    0 +5.5271490251e+02 +4.4934355082e+02 +2.0239464401e+02 7.4051804978e+02 0.0000000000e+00 0.0000e+00 1.0000e+00
<mgrwt>
<rscale>  0 0.24711350E+04</rscale>
<asrwt>0</asrwt>
<pdfrwt beam="1">  1        2 0.79832994E-01 0.24711350E+04</pdfrwt>
<pdfrwt beam="2">  1       -2 0.45260966E+00 0.24711350E+04</pdfrwt>
<totfact> 0.14953819E-01</totfact>
</mgrwt>
<rwgt>
<wgt id='morphing_basis_vector_1'> +1.1347775e-04 </wgt>
<wgt id='morphing_basis_vector_2'> +7.6234082e-05 </wgt>
<wgt id='morphing_basis_vector_3'> +1.2269284e-04 </wgt>
<wgt id='morphing_basis_vector_4'> +8.6744531e-05 </wgt>
<wgt id='morphing_basis_vector_5'> +1.3837477e-04 </wgt>
</rwgt>
</event>
<event>
 4      1 +2.2016400e-08 2.59547000e+03 7.81860800e-03 7.86336500e-02
        2 -1    0    0  501    0 +0.0000000000e+00 +0.0000000000e+00 +8.1622248127e+02 8.1622248127e+02 0.0000000000e+00 0.0000e+00 -1.0000e+00
       -2 -1    0    0    0  501 -0.0000000000e+00 -0.0000000000e+00 -2.0633052748e+03 2.0633052748e+03 0.0000000000e+00 0.0000e+00 1.0000e+00
      -13  1    1    2    0    0 -1.1002624893e+03 +5.6845421712e+02 -1.0537973354e+03 1.6261016471e+03 0.0000000000e+00 0.0000e+00 1.0000e+00
       13  1    1    2    0    0 +1.1002624893e+03 -5.6845421712e+02 -1.9328545811e+02 1.2534261090e+03 0.0000000000e+00 0.0000e+00 -1.0000e+00
<mgrwt>
<rscale>  0 0.25954700E+04</rscale>
<asrwt>0</asrwt>
<pdfrwt beam="1">  1        2 0.12557269E+00 0.25954700E+04</pdfrwt>
<pdfrwt beam="2">  1       -2 0.31743158E+00 0.25954700E+04</pdfrwt>
<totfact> 0.66545781E-01</totfact>
</mgrwt>
<rwgt>
<wgt id='morphing_basis_vector_1'> +1.3928101e-04 </wgt>
<wgt id='morphing_basis_vector_2'> +9.7181486e-05 </wgt>
<wgt id='morphing_basis_vector_3'> +1.5162828e-04 </wgt>
<wgt id='morphing_basis_vector_4'> +1.0267713e-04 </wgt>
<wgt id='morphing_basis_vector_5'> +1.6855521e-04 </wgt>
</rwgt>
</event>
<event>
 4      1 +2.2016400e-08 2.48267200e+03 7.81860800e-03 7.89808600e-02
        2 -1    0    0  501    0 +0.0000000000e+00 +0.0000000000e+00 +1.8052016846e+03 1.8052016846e+03 0.0000000000e+00 0.0000e+00 1.0000e+00
       -2 -1    0    0    0  501 -0.0000000000e+00 -0.0000000000e+00 -8.5359727103e+02 8.5359727103e+02 0.0000000000e+00 0.0000e+00 -1.0000e+00
      -13  1    1    2    0    0 +5.3953370431e+02 +9.7451574103e+02 -1.1091171482e+02 1.1194100929e+03 0.0000000000e+00 0.0000e+00 -1.0000e+00
       13  1    1    2    0    0 -5.3953370431e+02 -9.7451574103e+02 +1.0625161284e+03 1.5393888627e+03 0.0000000000e+00 0.0000e+00 1.0000e+00
<mgrwt>
<rscale>  0 0.24826721E+04</rscale>
<asrwt>0</asrwt>
<pdfrwt beam="1">  1        2 0.27772333E+00 0.24826721E+04</pdfrwt>
<pdfrwt beam="2">  1       -2 0.13132266E+00 0.24826721E+04</pdfrwt>
<totfact> 0.40265659E+00</totfact>
</mgrwt>
<rwgt>
<wgt id='morphing_basis_vector_1'> +1.1623060e-04 </wgt>
<wgt id='morphing_basis_vector_2'> +7.9570114e-05 </wgt>
<wgt id='morphing_basis_vector_3'> +1.2598466e-04 </wgt>
<wgt id='morphing_basis_vector_4'> +8.7071254e-05 </wgt>
<wgt id='morphing_basis_vector_5'> +1.4090401e-04 </wgt>
</rwgt>
</event>
<event>
 4      1 +2.2016400e-08 2.26154600e+03 7.81860800e-03 7.97199100e-02
        2 -1    0    0  501    0 +0.0000000000e+00 +0.0000000000e+00 +1.0761845604e+03 1.0761845604e+03 0.0000000000e+00 0.0000e+00 -1.0000e+00
       -2 -1    0    0    0  501 -0.0000000000e+00 -0.0000000000e+00 -1.1881302617e+03 1.1881302617e+03 0.0000000000e+00 0.0000e+00 1.0000e+00
      -13  1    1    2    0    0 -3.5128132582e+01 +4.9646322103e+02 -1.0725670401e+03 1.1824169193e+03 0.0000000000e+00 0.0000e+00 1.0000e+00
       13  1    1    2    0    0 +3.5128132582e+01 -4.9646322103e+02 +9.6062133885e+02 1.0818979028e+03 0.0000000000e+00 0.0000e+00 -1.0000e+00
<mgrwt>
<rscale>  0 0.22615459E+04</rscale>
<asrwt>0</asrwt>
<pdfrwt beam="1">  1        2 0.16556686E+00 0.22615459E+04</pdfrwt>
<pdfrwt beam="2">  1       -2 0.18278927E+00 0.22615459E+04</pdfrwt>
<totfact> 0.40649693E+00</totfact>
</mgrwt>
<rwgt>
<wgt id='morphing_basis_vector_1'> +7.9994467e-05 </wgt>
<wgt id='morphing_basis_vector_2'> +5.3523755e-05 </wgt>
<wgt id='morphing_basis_vector_3'> +8.6069991e-05 </wgt>
<wgt id='morphing_basis_vector_4'> +6.0600082e-05 </wgt>
<wgt id='morphing_basis_vector_5'> +9.6582451e-05 </wgt>
</rwgt>
</event>
<event>
 4      1 +2.2016400e-08 2.49555500e+03 7.81860800e-03 7.89402600e-02
        2 -1    0    0  501    0 +0.0000000000e+00 +0.0000000000e+00 +9.0028933352e+02 9.0028933352e+02 0.0000000000e+00 0.0000e+00 -1.0000e+00
       -2 -1    0    0    0  501 -0.0000000000e+00 -0.0000000000e+00 -1.7293864050e+03 1.7293864050e+03 0.0000000000e+00 0.0000e+00 1.0000e+00
      -13  1    1    2    0    0 +7.6741443049e+02 +1.8545730664e+02 -1.4327231256e+03 1.6358529504e+03 0.0000000000e+00 0.0000e+00 1.0000e+00
       13  1    1    2    0    0 -7.6741443049e+02 -1.8545730664e+02 +6.0362605420e+02 9.9382278804e+02 0.0000000000e+00 0.0000e+00 -1.0000e+00
<mgrwt>
<rscale>  0 0.24955546E+04</rscale>
<asrwt>0</asrwt>
<pdfrwt beam="1">  1        2 0.13850605E+00 0.24955546E+04</pdfrwt>
<pdfrwt beam="2">  1       -2 0.26605945E+00 0.24955546E+04</pdfrwt>
<totfact> 0.13131374E+00</totfact>
</mgrwt>
<rwgt>
<wgt id='morphing_basis_vector_1'> +1.1799785e-04 </wgt>
<wgt id='morphing_basis_vector_2'> +7.9360753e-05 </wgt>
<wgt id='morphing_basis_vector_3'> +1.2765398e-04 </wgt>
<wgt id='morphing_basis_vector_4'> +9.0210078e-05 </wgt>
<wgt id='morphing_basis_vector_5'> +1.4399473e-04 </wgt>
</rwgt>
</event>
<event>
 4      1 +2.2016400e-08 2.24985300e+03 7.81860800e-03 7.97613900e-02
        2 -1    0    0  501    0 +0.0000000000e+00 +0.0000000000e+00 +3.2779223346e+03 3.2779223346e+03 0.0000000000e+00 0.0000e+00 -1.0000e+00
       -2 -1    0    0    0  501 -0.0000000000e+00 -0.0000000000e+00 -3.8605528532e+02 3.8605528532e+02 0.0000000000e+00 0.0000e+00 1.0000e+00
      -13  1    1    2    0    0 -7.1584177896e+02 -7.5605450676e+02 +7.5229853891e+02 1.2845236321e+03 0.0000000000e+00 0.0000e+00 1.0000e+00
       13  1    1    2    0    0 +7.1584177896e+02 +7.5605450676e+02 +2.1395685104e+03 2.3794539878e+03 0.0000000000e+00 0.0000e+00 -1.0000e+00
<mgrwt>
<rscale>  0 0.22498527E+04</rscale>
<asrwt>0</asrwt>
<pdfrwt beam="1">  1        2 0.50429572E+00 0.22498527E+04</pdfrwt>
<pdfrwt beam="2">  1       -2 0.59393123E-01 0.22498527E+04</pdfrwt>
<totfact> 0.33436293E+00</totfact>
</mgrwt>
<rwgt>
<wgt id='morphing_basis_vector_1'> +7.9002558e-05 </wgt>
<wgt id='morphing_basis_vector_2'> +5.4275924e-05 </wgt>
<wgt id='morphing_basis_vector_3'> +8.5239534e-05 </wgt>
<wgt id='morphing_basis_vector_4'> +5.8074882e-05 </wgt>
<wgt id='morphing_basis_vector_5'> +9.4468226e-05 </wgt>
</rwgt>
</event>
<event>
 4      1 +2.2016400e-08 2.30853700e+03 7.81860800e-03 7.95557800e-02
        2 -1    0    0  501    0 +0.0000000000e+00 +0.0000000000e+00 +1.5041526959e+03 1.5041526959e+03 0.0000000000e+00 0.0000e+00 -1.0000e+00
       -2 -1    0    0    0  501 -0.0000000000e+00 -0.0000000000e+00 -8.8577151199e+02 8.8577151199e+02 0.0000000000e+00 0.0000e+00 1.0000e+00
      -13  1    1    2    0    0 +4.7058668332e+02 +6.6858655015e+02 -5.3432038009e+02 9.7670777110e+02 0.0000000000e+00 0.0000e+00 1.0000e+00
       13  1    1    2    0    0 -4.7058668332e+02 -6.6858655015e+02 +1.1527015640e+03 1.4132164368e+03 0.0000000000e+00 0.0000e+00 -1.0000e+00
<mgrwt>
<rscale>  0 0.23085369E+04</rscale>
<asrwt>0</asrwt>
<pdfrwt beam="1">  1        2 0.23140811E+00 0.23085369E+04</pdfrwt>
<pdfrwt beam="2">  1       -2 0.13627254E+00 0.23085369E+04</pdfrwt>
<totfact> 0.54379175E+00</totfact>
</mgrwt>
<rwgt>
<wgt id='morphing_basis_vector_1'> +8.6836430e-05 </wgt>
<wgt id='morphing_basis_vector_2'> +5.8360657e-05 </wgt>
<wgt id='morphing_basis_vector_3'> +9.3581887e-05 </wgt>
<wgt id='morphing_basis_vector_4'> +6.5685169e-05 </wgt>
<wgt id='morphing_basis_vector_5'> +1.0498068e-04 </wgt>
</rwgt>
</event>
<event>
 4      1 +2.2016400e-08 2.25390900e+03 7.81860800e-03 7.97469700e-02
        2 -1    0    0  501    0 +0.0000000000e+00 +0.0000000000e+00 +1.2576234920e+03 1.2576234920e+03 0.0000000000e+00 0.0000e+00 1.0000e+00
       -2 -1    0    0    0  501 -0.0000000000e+00 -0.0000000000e+00 -1.0098621533e+03 1.0098621533e+03 0.0000000000e+00 0.0000e+00 -1.0000e+00
      -13  1    1    2    0    0 -4.6719114785e+02 -6.4834057516e+02 -6.7552098717e+02 1.0463946073e+03 0.0000000000e+00 0.0000e+00 -1.0000e+00
       13  1    1    2    0    0 +4.6719114785e+02 +6.4834057516e+02 +9.2328232579e+02 1.2210910380e+03 0.0000000000e+00 0.0000e+00 1.0000e+00
<mgrwt>
<rscale>  0 0.22539089E+04</rscale>
<asrwt>0</asrwt>
<pdfrwt beam="1">  1        2 0.19348054E+00 0.22539089E+04</pdfrwt>
<pdfrwt beam="2">  1       -2 0.15536341E+00 0.22539089E+04</pdfrwt>
<totfact> 0.52096865E+00</totfact>
</mgrwt>
<rwgt>
<wgt id='morphing_basis_vector_1'> +7.9022780e-05 </wgt>
<wgt id='morphing_basis_vector_2'> +5.3064387e-05 </wgt>
<wgt id='morphing_basis_vector_3'> +8.5044070e-05 </wgt>
<wgt id='morphing_basis_vector_4'> +5.9598425e-05 </wgt>
<wgt id='morphing_basis_vector_5'> +9.5250134e-05 </wgt>
</rwgt>
</event>
<event>
 4      1 +2.2016400e-08 2.24384900e+03 7.81860800e-03 7.97827900e-02
        2 -1    0    0  501    0 +0.0000000000e+00 +0.0000000000e+00 +1.0930696527e+03 1.0930696527e+03 0.0000000000e+00 0.0000e+00 1.0000e+00
       -2 -1    0    0    0  501 -0.0000000000e+00 -0.0000000000e+00 -1.1515408629e+03 1.1515408629e+03 0.0000000000e+00 0.0000e+00 -1.0000e+00
      -13  1    1    2    0    0 -1.0781778218e+03 -1.6595800057e+02 +2.3296956498e+02 1.1154749175e+03 0.0000000000e+00 0.0000e+00 1.0000e+00
       13  1    1    2    0    0 +1.0781778218e+03 +1.6595800057e+02 -2.9144077515e+02 1.1291355981e+03 0.0000000000e+00 0.0000e+00 -1.0000e+00
<mgrwt>
<rscale>  0 0.22438488E+04</rscale>
<asrwt>0</asrwt>
<pdfrwt beam="1">  1        2 0.16816456E+00 0.22438488E+04</pdfrwt>
<pdfrwt beam="2">  1       -2 0.17716013E+00 0.22438488E+04</pdfrwt>
<totfact> 0.43880791E+00</totfact>
</mgrwt>
<rwgt>
<wgt id='morphing_basis_vector_1'> +8.3908435e-05 </wgt>
<wgt id='morphing_basis_vector_2'> +7.0642803e-05 </wgt>
<wgt id='morphing_basis_vector_3'> +9.2908528e-05 </wgt>
<wgt id='morphing_basis_vector_4'> +4.5848625e-05 </wgt>
<wgt id='morphing_basis_vector_5'> +9.2518560e-05 </wgt>
</rwgt>
</event>
<event>
 4      1 +2.2016400e-08 2.35804100e+03 7.81860800e-03 7.93871700e-02
        2 -1    0    0  501    0 +0.0000000000e+00 +0.0000000000e+00 +1.6383143967e+03 1.6383143967e+03 0.0000000000e+00 0.0000e+00 -1.0000e+00
       -2 -1    0    0    0  501 -0.0000000000e+00 -0.0000000000e+00 -8.4848768475e+02 8.4848768475e+02 0.0000000000e+00 0.0000e+00 1.0000e+00
      -13  1    1    2    0    0 -7.3292274049e+02 +3.3071546423e+02 -5.1446021658e+02 9.5457727621e+02 0.0000000000e+00 0.0000e+00 1.0000e+00
       13  1    1    2    0    0 +7.3292274049e+02 -3.3071546423e+02 +1.3042869285e+03 1.5322248052e+03 0.0000000000e+00 0.0000e+00 -1.0000e+00
<mgrwt>
<rscale>  0 0.23580412E+04</rscale>
<asrwt>0</asrwt>
<pdfrwt beam="1">  1        2 0.25204837E+00 0.23580412E+04</pdfrwt>
<pdfrwt beam="2">  1       -2 0.13053657E+00 0.23580412E+04</pdfrwt>
<totfact> 0.51224655E+00</totfact>
</mgrwt>
<rwgt>
<wgt id='morphing_basis_vector_1'> +9.4386814e-05 </wgt>
<wgt id='morphing_basis_vector_2'> +6.3432927e-05 </wgt>
<wgt id='morphing_basis_vector_3'> +1.0182862e-04 </wgt>
<wgt id='morphing_basis_vector_4'> +7.1633824e-05 </wgt>
<wgt id='morphing_basis_vector_5'> +1.1442582e-04 </wgt>
</rwgt>
</event>
<event>
 4      1 +2.2016400e-08 2.40663400e+03 7.81860800e-03 7.92257500e-02
        2 -1    0    0  501    0 +0.0000000000e+00 +0.0000000000e+00 +2.1977148347e+03 2.1977148347e+03 0.0000000000e+00 0.0000e+00 -1.0000e+00
       -2 -1    0    0    0  501 -0.0000000000e+00 -0.0000000000e+00 -6.5885352925e+02 6.5885352925e+02 0.0000000000e+00 0.0000e+00 1.0000e+00
      -13  1    1    2    0    0 -2.0595899563e+02 +8.3708714925e+02 -2.2707376034e+02 8.9145751214e+02 0.0000000000e+00 0.0000e+00 1.0000e+00
       13  1    1    2    0    0 +2.0595899563e+02 -8.3708714925e+02 +1.7659350658e+03 1.9651108519e+03 0.0000000000e+00 0.0000e+00 -1.0000e+00
<mgrwt>
<rscale>  0 0.24066343E+04</rscale>
<asrwt>0</asrwt>
<pdfrwt beam="1">  1        2 0.33810997E+00 0.24066343E+04</pdfrwt>
<pdfrwt beam="2">  1       -2 0.10136208E+00 0.24066343E+04</pdfrwt>
<totfact> 0.47194900E+00</totfact>
</mgrwt>
<rwgt>
<wgt id='morphing_basis_vector_1'> +1.0232286e-04 </wgt>
<wgt id='morphing_basis_vector_2'> +6.8885383e-05 </wgt>
<wgt id='morphing_basis_vector_3'> +1.1052342e-04 </wgt>
<wgt id='morphing_basis_vector_4'> +7.7746190e-05 </wgt>
<wgt id='morphing_basis_vector_5'> +1.2429142e-04 </wgt>
</rwgt>
</event>
<event>
 4      1 +2.2016400e-08 2.25492500e+03 7.81860800e-03 7.97433600e-02
        2 -1    0    0  501    0 +0.0000000000e+00 +0.0000000000e+00 +6.1933886147e+02 6.1933886147e+02 0.0000000000e+00 0.0000e+00 1.0000e+00
       -2 -1    0    0    0  501 -0.0000000000e+00 -0.0000000000e+00 -2.0524653663e+03 2.0524653663e+03 0.0000000000e+00 0.0000e+00 -1.0000e+00
      -13  1    1    2    0    0 +3.7819236101e+02 -9.9105426203e+02 -1.1692313472e+03 1.5787083187e+03 0.0000000000e+00 0.0000e+00 -1.0000e+00
       13  1    1    2    0    0 -3.7819236101e+02 +9.9105426203e+02 -2.6389515763e+02 1.0930959091e+03 0.0000000000e+00 0.0000e+00 1.0000e+00
<mgrwt>
<rscale>  0 0.22549249E+04</rscale>
<asrwt>0</asrwt>
<pdfrwt beam="1">  1        2 0.95282902E-01 0.22549249E+04</pdfrwt>
<pdfrwt beam="2">  1       -2 0.31576390E+00 0.22549249E+04</pdfrwt>
<totfact> 0.98807217E-01</totfact>
</mgrwt>
<rwgt>
<wgt id='morphing_basis_vector_1'> +7.9830593e-05 </wgt>
<wgt id='morphing_basis_vector_2'> +5.5131930e-05 </wgt>
<wgt id='morphing_basis_vector_3'> +8.6196802e-05 </wgt>
<wgt id='morphing_basis_vector_4'> +5.8356035e-05 </wgt>
<wgt id='morphing_basis_vector_5'> +9.5316340e-05 </wgt>
</rwgt>
</event>
<event>
 4      1 +2.2016400e-08 2.31537000e+03 7.81860800e-03 7.95322500e-02
        2 -1    0    0  501    0 +0.0000000000e+00 +0.0000000000e+00 +6.8131457693e+02 6.8131457693e+02 0.0000000000e+00 0.0000e+00 1.0000e+00
       -2 -1    0    0    0  501 -0.0000000000e+00 -0.0000000000e+00 -1.9671311530e+03 1.9671311530e+03 0.0000000000e+00 0.0000e+00 -1.0000e+00
      -13  1    1    2    0    0 +9.2146095648e+02 +6.9190315984e+02 -5.1545784091e+02 1.2623458570e+03 0.0000000000e+00 0.0000e+00 -1.0000e+00
       13  1    1    2    0    0 -9.2146095648e+02 -6.9190315984e+02 -7.7035873518e+02 1.3860998729e+03 0.0000000000e+00 0.0000e+00 1.0000e+00
<mgrwt>
<rscale>  0 0.23153705E+04</rscale>
<asrwt>0</asrwt>
<pdfrwt beam="1">  1        2 0.10481763E+00 0.23153705E+04</pdfrwt>
<pdfrwt beam="2">  1       -2 0.30263556E+00 0.23153705E+04</pdfrwt>
<totfact> 0.10737212E+00</totfact>
</mgrwt>
<rwgt>
<wgt id='morphing_basis_vector_1'> +9.2267349e-05 </wgt>
<wgt id='morphing_basis_vector_2'> +7.2088042e-05 </wgt>
<wgt id='morphing_basis_vector_3'> +1.0133777e-04 </wgt>
<wgt id='morphing_basis_vector_4'> +5.7510957e-05 </wgt>
<wgt id='morphing_basis_vector_5'> +1.0552702e-04 </wgt>
</rwgt>
</event>
<event>
 4      1 +2.2016400e-08 2.58198600e+03 7.81860800e-03 7.86742000e-02
        2 -1    0    0  501    0 +0.0000000000e+00 +0.0000000000e+00 +2.6032045409e+03 2.6032045409e+03 0.0000000000e+00 0.0000e+00 -1.0000e+00
       -2 -1    0    0    0  501 -0.0000000000e+00 -0.0000000000e+00 -6.4023519388e+02 6.4023519388e+02 0.0000000000e+00 0.0000e+00 1.0000e+00
      -13  1    1    2    0    0 -6.1769384106e+02 +6.9682121420e+02 -1.4176633663e+02 9.4191463522e+02 0.0000000000e+00 0.0000e+00 1.0000e+00
       13  1    1    2    0    0 +6.1769384106e+02 -6.9682121420e+02 +2.1047356837e+03 2.3015250996e+03 0.0000000000e+00 0.0000e+00 -1.0000e+00
<mgrwt>
<rscale>  0 0.25819862E+04</rscale>
<asrwt>0</asrwt>
<pdfrwt beam="1">  1        2 0.40049300E+00 0.25819862E+04</pdfrwt>
<pdfrwt beam="2">  1       -2 0.98497724E-01 0.25819862E+04</pdfrwt>
<totfact> 0.28753959E+00</totfact>
</mgrwt>
<rwgt>
<wgt id='morphing_basis_vector_1'> +1.3507327e-04 </wgt>
<wgt id='morphing_basis_vector_2'> +9.1146250e-05 </wgt>
<wgt id='morphing_basis_vector_3'> +1.4640092e-04 </wgt>
<wgt id='morphing_basis_vector_4'> +1.0335314e-04 </wgt>
<wgt id='morphing_basis_vector_5'> +1.6526779e-04 </wgt>
</rwgt>
</event>
<event>
 4      1 +2.2016400e-08 2.41430200e+03 7.81860800e-03 7.92006400e-02
        2 -1    0    0  501    0 +0.0000000000e+00 +0.0000000000e+00 +1.3266893862e+03 1.3266893862e+03 0.0000000000e+00 0.0000e+00 -1.0000e+00
       -2 -1    0    0    0  501 -0.0000000000e+00 -0.0000000000e+00 -1.0983830472e+03 1.0983830472e+03 0.0000000000e+00 0.0000e+00 1.0000e+00
      -13  1    1    2    0    0 -3.2768324572e+02 -1.9166048311e+02 -1.0368660920e+03 1.1041745075e+03 0.0000000000e+00 0.0000e+00 1.0000e+00
       13  1    1    2    0    0 +3.2768324572e+02 +1.9166048311e+02 +1.2651724310e+03 1.3208979258e+03 0.0000000000e+00 0.0000e+00 -1.0000e+00
<mgrwt>
<rscale>  0 0.24143017E+04</rscale>
<asrwt>0</asrwt>
<pdfrwt beam="1">  1        2 0.20410606E+00 0.24143017E+04</pdfrwt>
<pdfrwt beam="2">  1       -2 0.16898201E+00 0.24143017E+04</pdfrwt>
<totfact> 0.36541281E+00</totfact>
</mgrwt>
<rwgt>
<wgt id='morphing_basis_vector_1'> +1.0348446e-04 </wgt>
<wgt id='morphing_basis_vector_2'> +6.9378005e-05 </wgt>
<wgt id='morphing_basis_vector_3'> +1.1173967e-04 </wgt>
<wgt id='morphing_basis_vector_4'> +7.9020864e-05 </wgt>
<wgt id='morphing_basis_vector_5'> +1.2592649e-04 </wgt>
</rwgt>
</event>
<event>
 4      1 +2.2016400e-08 2.31935100e+03 7.81860800e-03 7.95185800e-02
        2 -1    0    0  501    0 +0.0000000000e+00 +0.0000000000e+00 +1.9773871050e+03 1.9773871050e+03 0.0000000000e+00 0.0000e+00 1.0000e+00
       -2 -1    0    0    0  501 -0.0000000000e+00 -0.0000000000e+00 -6.8011312269e+02 6.8011312269e+02 0.0000000000e+00 0.0000e+00 -1.0000e+00
      -13  1    1    2    0    0 -1.1087617104e+03 +3.3930523403e+02 +6.7056771047e+02 1.3394557203e+03 0.0000000000e+00 0.0000e+00 -1.0000e+00
       13  1    1    2    0    0 +1.1087617104e+03 -3.3930523403e+02 +6.2670627181e+02 1.3180445074e+03 0.0000000000e+00 0.0000e+00 1.0000e+00
<mgrwt>
<rscale>  0 0.23193507E+04</rscale>
<asrwt>0</asrwt>
<pdfrwt beam="1">  1        2 0.30421340E+00 0.23193507E+04</pdfrwt>
<pdfrwt beam="2">  1       -2 0.10463279E+00 0.23193507E+04</pdfrwt>
<totfact> 0.58661213E+00</totfact>
</mgrwt>
<rwgt>
<wgt id='morphing_basis_vector_1'> +9.1778123e-05 </wgt>
<wgt id='morphing_basis_vector_2'> +6.9285444e-05 </wgt>
<wgt id='morphing_basis_vector_3'> +1.0035724e-04 </wgt>
<wgt id='morphing_basis_vector_4'> +6.0180071e-05 </wgt>
<wgt id='morphing_basis_vector_5'> +1.0644761e-04 </wgt>
</rwgt>
</event>
<event>
 4      1 +2.2016400e-08 2.25450100e+03 7.81860800e-03 7.97448700e-02
        2 -1    0    0  501    0 +0.0000000000e+00 +0.0000000000e+00 +2.3444228771e+03 2.3444228771e+03 0.0000000000e+00 0.0000e+00 -1.0000e+00
       -2 -1    0    0    0  501 -0.0000000000e+00 -0.0000000000e+00 -5.4200701673e+02 5.4200701673e+02 0.0000000000e+00 0.0000e+00 1.0000e+00
      -13  1    1    2    0    0 -8.6652585083e+02 -4.5475652709e+02 +1.8490161060e+02 9.9592125928e+02 0.0000000000e+00 0.0000e+00 1.0000e+00
       13  1    1    2    0    0 +8.6652585083e+02 +4.5475652709e+02 +1.6175142498e+03 1.8905086346e+03 0.0000000000e+00 0.0000e+00 -1.0000e+00
<mgrwt>
<rscale>  0 0.22545010E+04</rscale>
<asrwt>0</asrwt>
<pdfrwt beam="1">  1        2 0.36068044E+00 0.22545010E+04</pdfrwt>
<pdfrwt beam="2">  1       -2 0.83385697E-01 0.22545010E+04</pdfrwt>
<totfact> 0.62260273E+00</totfact>
</mgrwt>
<rwgt>
<wgt id='morphing_basis_vector_1'> +7.9368183e-05 </wgt>
<wgt id='morphing_basis_vector_2'> +5.3898910e-05 </wgt>
<wgt id='morphing_basis_vector_3'> +8.5528131e-05 </wgt>
<wgt id='morphing_basis_vector_4'> +5.9128170e-05 </wgt>
<wgt id='morphing_basis_vector_5'> +9.5309031e-05 </wgt>
</rwgt>
</event>
<event>
 4      1 +2.2016400e-08 2.37884300e+03 7.81860800e-03 7.93175800e-02
        2 -1    0    0  501    0 +0.0000000000e+00 +0.0000000000e+00 +3.1871151823e+03 3.1871151823e+03 0.0000000000e+00 0.0000e+00 1.0000e+00
       -2 -1    0    0    0  501 -0.0000000000e+00 -0.0000000000e+00 -4.4388848145e+02 4.4388848145e+02 0.0000000000e+00 0.0000e+00 -1.0000e+00
      -13  1    1    2    0    0 -9.5684272480e+02 +6.8513489610e+02 +1.6349554718e+03 2.0144570536e+03 0.0000000000e+00 0.0000e+00 -1.0000e+00
       13  1    1    2    0    0 +9.5684272480e+02 -6.8513489610e+02 +1.1082712291e+03 1.6165466102e+03 0.0000000000e+00 0.0000e+00 1.0000e+00
<mgrwt>
<rscale>  0 0.23788432E+04</rscale>
<asrwt>0</asrwt>
<pdfrwt beam="1">  1        2 0.49032540E+00 0.23788432E+04</pdfrwt>
<pdfrwt beam="2">  1       -2 0.68290538E-01 0.23788432E+04</pdfrwt>
<totfact> 0.28489737E+00</totfact>
</mgrwt>
<rwgt>
<wgt id='morphing_basis_vector_1'> +1.0356692e-04 </wgt>
<wgt id='morphing_basis_vector_2'> +8.2974718e-05 </wgt>
<wgt id='morphing_basis_vector_3'> +1.1432411e-04 </wgt>
<wgt id='morphing_basis_vector_4'> +6.2298941e-05 </wgt>
<wgt id='morphing_basis_vector_5'> +1.1761448e-04 </wgt>
</rwgt>
</event>
<event>
 4      1 +2.2016400e-08 2.44069300e+03 7.81860800e-03 7.91149300e-02
        2 -1    0    0  501    0 +0.0000000000e+00 +0.0000000000e+00 +1.8005653088e+03 1.8005653088e+03 0.0000000000e+00 0.0000e+00 -1.0000e+00
       -2 -1    0    0    0  501 -0.0000000000e+00 -0.0000000000e+00 -8.2709922071e+02 8.2709922071e+02 0.0000000000e+00 0.0000e+00 1.0000e+00
      -13  1    1    2    0    0 -7.1104031354e+02 -1.4319626812e+02 -5.6985696027e+02 9.2239929199e+02 0.0000000000e+00 0.0000e+00 1.0000e+00
       13  1    1    2    0    0 +7.1104031354e+02 +1.4319626812e+02 +1.5433230483e+03 1.7052652375e+03 0.0000000000e+00 0.0000e+00 -1.0000e+00
<mgrwt>
<rscale>  0 0.24406935E+04</rscale>
<asrwt>0</asrwt>
<pdfrwt beam="1">  1        2 0.27701005E+00 0.24406935E+04</pdfrwt>
<pdfrwt beam="2">  1       -2 0.12724603E+00 0.24406935E+04</pdfrwt>
<totfact> 0.44210663E+00</totfact>
</mgrwt>
<rwgt>
<wgt id='morphing_basis_vector_1'> +1.0806801e-04 </wgt>
<wgt id='morphing_basis_vector_2'> +7.2587672e-05 </wgt>
<wgt id='morphing_basis_vector_3'> +1.1677484e-04 </wgt>
<wgt id='morphing_basis_vector_4'> +8.2481012e-05 </wgt>
<wgt id='morphing_basis_vector_5'> +1.3159341e-04 </wgt>
</rwgt>
</event>
<event>
 4      1 +2.2016400e-08 2.23265500e+03 7.81860800e-03 7.98228700e-02
        2 -1    0    0  501    0 +0.0000000000e+00 +0.0000000000e+00 +1.5766058624e+03 1.5766058624e+03 0.0000000000e+00 0.0000e+00 1.0000e+00
       -2 -1    0    0    0  501 -0.0000000000e+00 -0.0000000000e+00 -7.9042427987e+02 7.9042427987e+02 0.0000000000e+00 0.0000e+00 -1.0000e+00
      -13  1    1    2    0    0 -4.3314860680e+02 +8.0358937727e+02 +1.0742666857e+03 1.4097597366e+03 0.0000000000e+00 0.0000e+00 1.0000e+00
       13  1    1    2    0    0 +4.3314860680e+02 -8.0358937727e+02 -2.8808510324e+02 9.5727040565e+02 0.0000000000e+00 0.0000e+00 -1.0000e+00
<mgrwt>
<rscale>  0 0.22326554E+04</rscale>
<asrwt>0</asrwt>
<pdfrwt beam="1">  1        2 0.24255475E+00 0.22326554E+04</pdfrwt>
<pdfrwt beam="2">  1       -2 0.12160374E+00 0.22326554E+04</pdfrwt>
<totfact> 0.67573930E+00</totfact>
</mgrwt>
<rwgt>
<wgt id='morphing_basis_vector_1'> +9.2985790e-05 </wgt>
<wgt id='morphing_basis_vector_2'> +1.0091708e-04 </wgt>
<wgt id='morphing_basis_vector_3'> +1.0707080e-04 </wgt>
<wgt id='morphing_basis_vector_4'> +2.3264346e-05 </wgt>
<wgt id='morphing_basis_vector_5'> +8.8922942e-05 </wgt>
</rwgt>
</event>
<event>
 4      1 +2.2016400e-08 2.47596400e+03 7.81860800e-03 7.90021000e-02
        2 -1    0    0  501    0 +0.0000000000e+00 +0.0000000000e+00 +3.4975504007e+03 3.4975504007e+03 0.0000000000e+00 0.0000e+00 1.0000e+00
       -2 -1    0    0    0  501 -0.0000000000e+00 -0.0000000000e+00 -4.3819239629e+02 4.3819239629e+02 0.0000000000e+00 0.0000e+00 -1.0000e+00
      -13  1    1    2    0    0 -7.0504046500e+02 -8.6862057061e+02 +6.8702747500e+02 1.3128558582e+03 0.0000000000e+00 0.0000e+00 -1.0000e+00
       13  1    1    2    0    0 +7.0504046500e+02 +8.6862057061e+02 +2.3723305294e+03 2.6228869388e+03 0.0000000000e+00 0.0000e+00 1.0000e+00
<mgrwt>
<rscale>  0 0.24759645E+04</rscale>
<asrwt>0</asrwt>
<pdfrwt beam="1">  1        2 0.53808466E+00 0.24759645E+04</pdfrwt>
<pdfrwt beam="2">  1       -2 0.67414217E-01 0.24759645E+04</pdfrwt>
<totfact> 0.17579259E+00</totfact>
</mgrwt>
<rwgt>
<wgt id='morphing_basis_vector_1'> +1.1504121e-04 </wgt>
<wgt id='morphing_basis_vector_2'> +7.8851890e-05 </wgt>
<wgt id='morphing_basis_vector_3'> +1.2469854e-04 </wgt>
<wgt id='morphing_basis_vector_4'> +8.6029765e-05 </wgt>
<wgt id='morphing_basis_vector_5'> +1.3936028e-04 </wgt>
</rwgt>
</event>
<event>
 4      1 +2.2016400e-08 2.32668300e+03 7.81860800e-03 7.94934700e-02
        2 -1    0    0  501    0 +0.0000000000e+00 +0.0000000000e+00 +1.5751987383e+03 1.5751987383e+03 0.0000000000e+00 0.0000e+00 -1.0000e+00
       -2 -1    0    0    0  501 -0.0000000000e+00 -0.0000000000e+00 -8.5917007553e+02 8.5917007553e+02 0.0000000000e+00 0.0000e+00 1.0000e+00
      -13  1    1    2    0    0 +5.5409660632e+02 +5.6776381019e+02 -5.3223952396e+02 9.5533120129e+02 0.0000000000e+00 0.0000e+00 1.0000e+00
       13  1    1    2    0    0 -5.5409660632e+02 -5.6776381019e+02 +1.2482681868e+03 1.4790376126e+03 0.0000000000e+00 0.0000e+00 -1.0000e+00
<mgrwt>
<rscale>  0 0.23266831E+04</rscale>
<asrwt>0</asrwt>
<pdfrwt beam="1">  1        2 0.24233827E+00 0.23266831E+04</pdfrwt>
<pdfrwt beam="2">  1       -2 0.13218001E+00 0.23266831E+04</pdfrwt>
<totfact> 0.53855083E+00</totfact>
</mgrwt>
<rwgt>
<wgt id='morphing_basis_vector_1'> +8.9536240e-05 </wgt>
<wgt id='morphing_basis_vector_2'> +6.0145094e-05 </wgt>
<wgt id='morphing_basis_vector_3'> +9.6524878e-05 </wgt>
<wgt id='morphing_basis_vector_4'> +6.7847261e-05 </wgt>
<wgt id='morphing_basis_vector_5'> +1.0837463e-04 </wgt>
</rwgt>
</event>
<event>
 4      1 +2.2016400e-08 2.27847300e+03 7.81860800e-03 7.96603100e-02
        2 -1    0    0  501    0 +0.0000000000e+00 +0.0000000000e+00 +1.3241129634e+03 1.3241129634e+03 0.0000000000e+00 0.0000e+00 -1.0000e+00
       -2 -1    0    0    0  501 -0.0000000000e+00 -0.0000000000e+00 -9.8017321605e+02 9.8017321605e+02 0.0000000000e+00 0.0000e+00 1.0000e+00
      -13  1    1    2    0    0 -1.0350966681e+02 +6.0647322727e+02 -7.9771278049e+02 1.0074074184e+03 0.0000000000e+00 0.0000e+00 1.0000e+00
       13  1    1    2    0    0 +1.0350966681e+02 -6.0647322727e+02 +1.1416525278e+03 1.2968787610e+03 0.0000000000e+00 0.0000e+00 -1.0000e+00
<mgrwt>
<rscale>  0 0.22784732E+04</rscale>
<asrwt>0</asrwt>
<pdfrwt beam="1">  1        2 0.20370969E+00 0.22784732E+04</pdfrwt>
<pdfrwt beam="2">  1       -2 0.15079588E+00 0.22784732E+04</pdfrwt>
<totfact> 0.51901369E+00</totfact>
</mgrwt>
<rwgt>
<wgt id='morphing_basis_vector_1'> +8.2392831e-05 </wgt>
<wgt id='morphing_basis_vector_2'> +5.5178081e-05 </wgt>
<wgt id='morphing_basis_vector_3'> +8.8695210e-05 </wgt>
<wgt id='morphing_basis_vector_4'> +6.2432493e-05 </wgt>
<wgt id='morphing_basis_vector_5'> +9.9550498e-05 </wgt>
</rwgt>
</event>
<event>
 4      1 +2.2016400e-08 2.53512200e+03 7.81860800e-03 7.88171200e-02
        2 -1    0    0  501    0 +0.0000000000e+00 +0.0000000000e+00 +1.5166123364e+03 1.5166123364e+03 0.0000000000e+00 0.0000e+00 -1.0000e+00
       -2 -1    0    0    0  501 -0.0000000000e+00 -0.0000000000e+00 -1.0594078379e+03 1.0594078379e+03 0.0000000000e+00 0.0000e+00 1.0000e+00
      -13  1    1    2    0    0 -7.3375131626e+02 -1.9178624367e+02 -8.0342937400e+02 1.1048401316e+03 0.0000000000e+00 0.0000e+00 1.0000e+00
       13  1    1    2    0    0 +7.3375131626e+02 +1.9178624367e+02 +1.2606338725e+03 1.4711800427e+03 0.0000000000e+00 0.0000e+00 -1.0000e+00
<mgrwt>
<rscale>  0 0.25351221E+04</rscale>
<asrwt>0</asrwt>
<pdfrwt beam="1">  1        2 0.23332497E+00 0.25351221E+04</pdfrwt>
<pdfrwt beam="2">  1       -2 0.16298582E+00 0.25351221E+04</pdfrwt>
<totfact> 0.31501514E+00</totfact>
</mgrwt>
<rwgt>
<wgt id='morphing_basis_vector_1'> +1.2553922e-04 </wgt>
<wgt id='morphing_basis_vector_2'> +8.4426745e-05 </wgt>
<wgt id='morphing_basis_vector_3'> +1.3590510e-04 </wgt>
<wgt id='morphing_basis_vector_4'> +9.6184841e-05 </wgt>
<wgt id='morphing_basis_vector_5'> +1.5347198e-04 </wgt>
</rwgt>
</event>
<event>
 4      1 +2.2016400e-08 2.31334700e+03 7.81860800e-03 7.95392000e-02
        2 -1    0    0  501    0 +0.0000000000e+00 +0.0000000000e+00 +1.2496782811e+03 1.2496782811e+03 0.0000000000e+00 0.0000e+00 1.0000e+00
       -2 -1    0    0    0  501 -0.0000000000e+00 -0.0000000000e+00 -1.0705907073e+03 1.0705907073e+03 0.0000000000e+00 0.0000e+00 -1.0000e+00
      -13  1    1    2    0    0 -1.5802330363e+02 -1.1232634810e+03 -1.3741127061e+02 1.1426172017e+03 0.0000000000e+00 0.0000e+00 -1.0000e+00
       13  1    1    2    0    0 +1.5802330363e+02 +1.1232634810e+03 +3.1649884435e+02 1.1776517867e+03 0.0000000000e+00 0.0000e+00 1.0000e+00
<mgrwt>
<rscale>  0 0.23133473E+04</rscale>
<asrwt>0</asrwt>
<pdfrwt beam="1">  1        2 0.19225820E+00 0.23133473E+04</pdfrwt>
<pdfrwt beam="2">  1       -2 0.16470626E+00 0.23133473E+04</pdfrwt>
<totfact> 0.44086005E+00</totfact>
</mgrwt>
<rwgt>
<wgt id='morphing_basis_vector_1'> +8.8979228e-05 </wgt>
<wgt id='morphing_basis_vector_2'> +6.3063036e-05 </wgt>
<wgt id='morphing_basis_vector_3'> +9.6512342e-05 </wgt>
<wgt id='morphing_basis_vector_4'> +6.3342095e-05 </wgt>
<wgt id='morphing_basis_vector_5'> +1.0563847e-04 </wgt>
</rwgt>
</event>
<event>
 4      1 +2.2016400e-08 2.64496000e+03 7.81860800e-03 7.84869600e-02
        2 -1    0    0  501    0 +0.0000000000e+00 +0.0000000000e+00 +4.5643925031e+03 4.5643925031e+03 0.0000000000e+00 0.0000e+00 -1.0000e+00
       -2 -1    0    0    0  501 -0.0000000000e+00 -0.0000000000e+00 -3.8317342736e+02 3.8317342736e+02 0.0000000000e+00 0.0000e+00 1.0000e+00
      -13  1    1    2    0    0 +1.0193839562e+03 -5.4264090925e+02 +8.8507377013e+02 1.4549771081e+03 0.0000000000e+00 0.0000e+00 1.0000e+00
       13  1    1    2    0    0 -1.0193839562e+03 +5.4264090925e+02 +3.2961453056e+03 3.4925888223e+03 0.0000000000e+00 0.0000e+00 -1.0000e+00
<mgrwt>
<rscale>  0 0.26449604E+04</rscale>
<asrwt>0</asrwt>
<pdfrwt beam="1">  1        2 0.70221419E+00 0.26449604E+04</pdfrwt>
<pdfrwt beam="2">  1       -2 0.58949761E-01 0.26449604E+04</pdfrwt>
<totfact> 0.27038920E-01</totfact>
</mgrwt>
<rwgt>
<wgt id='morphing_basis_vector_1'> +1.4908014e-04 </wgt>
<wgt id='morphing_basis_vector_2'> +1.0182586e-04 </wgt>
<wgt id='morphing_basis_vector_3'> +1.6198692e-04 </wgt>
<wgt id='morphing_basis_vector_4'> +1.1288485e-04 </wgt>
<wgt id='morphing_basis_vector_5'> +1.8211060e-04 </wgt>
</rwgt>
</event>
<event>
 4      1 +2.2016400e-08 2.58700100e+03 7.81860800e-03 7.86590900e-02
        2 -1    0    0  501    0 +0.0000000000e+00 +0.0000000000e+00 +1.9580075655e+03 1.9580075655e+03 0.0000000000e+00 0.0000e+00 -1.0000e+00
       -2 -1    0    0    0  501 -0.0000000000e+00 -0.0000000000e+00 -8.5451301646e+02 8.5451301646e+02 0.0000000000e+00 0.0000e+00 1.0000e+00
      -13  1    1    2    0    0 -3.4246592084e+02 -1.0379694600e+03 -2.0027522105e+02 1.1112037037e+03 0.0000000000e+00 0.0000e+00 1.0000e+00
       13  1    1    2    0    0 +3.4246592084e+02 +1.0379694600e+03 +1.3037697701e+03 1.7013168783e+03 0.0000000000e+00 0.0000e+00 -1.0000e+00
<mgrwt>
<rscale>  0 0.25870005E+04</rscale>
<asrwt>0</asrwt>
<pdfrwt beam="1">  1        2 0.30123193E+00 0.25870005E+04</pdfrwt>
<pdfrwt beam="2">  1       -2 0.13146354E+00 0.25870005E+04</pdfrwt>
<totfact> 0.32685395E+00</totfact>
</mgrwt>
<rwgt>
<wgt id='morphing_basis_vector_1'> +1.3643434e-04 </wgt>
<wgt id='morphing_basis_vector_2'> +9.2801358e-05 </wgt>
<wgt id='morphing_basis_vector_3'> +1.4803403e-04 </wgt>
<wgt id='morphing_basis_vector_4'> +1.0350647e-04 </wgt>
<wgt id='morphing_basis_vector_5'> +1.6651709e-04 </wgt>
</rwgt>
</event>
<event>
 4      1 +2.2016400e-08 2.35179500e+03 7.81860800e-03 7.94082100e-02
        2 -1    0    0  501    0 +0.0000000000e+00 +0.0000000000e+00 +1.0319995146e+03 1.0319995146e+03 0.0000000000e+00 0.0000e+00 1.0000e+00
       -2 -1    0    0    0  501 -0.0000000000e+00 -0.0000000000e+00 -1.3398599258e+03 1.3398599258e+03 0.0000000000e+00 0.0000e+00 -1.0000e+00
      -13  1    1    2    0    0 +2.3920681392e+02 +1.4989386396e+02 -1.3051798303e+03 1.3353585510e+03 0.0000000000e+00 0.0000e+00 -1.0000e+00
       13  1    1    2    0    0 -2.3920681392e+02 -1.4989386396e+02 +9.9731941906e+02 1.0365008895e+03 0.0000000000e+00 0.0000e+00 1.0000e+00
<mgrwt>
<rscale>  0 0.23517949E+04</rscale>
<asrwt>0</asrwt>
<pdfrwt beam="1">  1        2 0.15876916E+00 0.23517949E+04</pdfrwt>
<pdfrwt beam="2">  1       -2 0.20613230E+00 0.23517949E+04</pdfrwt>
<totfact> 0.28860141E+00</totfact>
</mgrwt>
<rwgt>
<wgt id='morphing_basis_vector_1'> +9.3314899e-05 </wgt>
<wgt id='morphing_basis_vector_2'> +6.2500868e-05 </wgt>
<wgt id='morphing_basis_vector_3'> +1.0061881e-04 </wgt>
<wgt id='morphing_basis_vector_4'> +7.1051046e-05 </wgt>
<wgt id='morphing_basis_vector_5'> +1.1321564e-04 </wgt>
</rwgt>
</event>
<event>
 4      1 +2.2016400e-08 2.63360800e+03 7.81860800e-03 7.85203200e-02
        2 -1    0    0  501    0 +0.0000000000e+00 +0.0000000000e+00 +9.4375604238e+02 9.4375604238e+02 0.0000000000e+00 0.0000e+00 -1.0000e+00
       -2 -1    0    0    0  501 -0.0000000000e+00 -0.0000000000e+00 -1.8373100024e+03 1.8373100024e+03 0.0000000000e+00 0.0000e+00 1.0000e+00
      -13  1    1    2    0    0 +8.3103106225e+02 +3.1950048222e+02 -1.4712946496e+03 1.7197096065e+03 0.0000000000e+00 0.0000e+00 1.0000e+00
       13  1    1    2    0    0 -8.3103106225e+02 -3.1950048222e+02 +5.7774068966e+02 1.0613564383e+03 0.0000000000e+00 0.0000e+00 -1.0000e+00
<mgrwt>
<rscale>  0 0.26336077E+04</rscale>
<asrwt>0</asrwt>
<pdfrwt beam="1">  1        2 0.14519324E+00 0.26336077E+04</pdfrwt>
<pdfrwt beam="2">  1       -2 0.28266307E+00 0.26336077E+04</pdfrwt>
<totfact> 0.93688768E-01</totfact>
</mgrwt>
<rwgt>
<wgt id='morphing_basis_vector_1'> +1.4600595e-04 </wgt>
<wgt id='morphing_basis_vector_2'> +9.8444247e-05 </wgt>
<wgt id='morphing_basis_vector_3'> +1.5836299e-04 </wgt>
<wgt id='morphing_basis_vector_4'> +1.1209259e-04 </wgt>
<wgt id='morphing_basis_vector_5'> +1.7906275e-04 </wgt>
</rwgt>
</event>
<event>
 4      1 +2.2016400e-08 2.35609800e+03 7.81860800e-03 7.93937000e-02
        2 -1    0    0  501    0 +0.0000000000e+00 +0.0000000000e+00 +2.2473643648e+03 2.2473643648e+03 0.0000000000e+00 0.0000e+00 1.0000e+00
       -2 -1    0    0    0  501 -0.0000000000e+00 -0.0000000000e+00 -6.1752332428e+02 6.1752332428e+02 0.0000000000e+00 0.0000e+00 -1.0000e+00
      -13  1    1    2    0    0 -2.4406766837e+02 +9.7683986763e+02 +1.5585533386e+03 1.8554982250e+03 0.0000000000e+00 0.0000e+00 1.0000e+00
       13  1    1    2    0    0 +2.4406766837e+02 -9.7683986763e+02 +7.1287701901e+01 1.0093894641e+03 0.0000000000e+00 0.0000e+00 -1.0000e+00
<mgrwt>
<rscale>  0 0.23560984E+04</rscale>
<asrwt>0</asrwt>
<pdfrwt beam="1">  1        2 0.34574836E+00 0.23560984E+04</pdfrwt>
<pdfrwt beam="2">  1       -2 0.95003590E-01 0.23560984E+04</pdfrwt>
<totfact> 0.51835121E+00</totfact>
</mgrwt>
<rwgt>
<wgt id='morphing_basis_vector_1'> +1.1218980e-04 </wgt>
<wgt id='morphing_basis_vector_2'> +1.1670250e-04 </wgt>
<wgt id='morphing_basis_vector_3'> +1.2884421e-04 </wgt>
<wgt id='morphing_basis_vector_4'> +3.4529201e-05 </wgt>
<wgt id='morphing_basis_vector_5'> +1.1107361e-04 </wgt>
</rwgt>
</event>
<event>
 4      1 +2.2016400e-08 2.42905700e+03 7.81860800e-03 7.91525800e-02
        2 -1    0    0  501    0 +0.0000000000e+00 +0.0000000000e+00 +1.3298999835e+03 1.3298999835e+03 0.0000000000e+00 0.0000e+00 1.0000e+00
       -2 -1    0    0    0  501 -0.0000000000e+00 -0.0000000000e+00 -1.1091657421e+03 1.1091657421e+03 0.0000000000e+00 0.0000e+00 -1.0000e+00
      -13  1    1    2    0    0 +7.6491259642e+02 -7.7109800816e+02 +6.5611010367e+02 1.2689223327e+03 0.0000000000e+00 0.0000e+00 1.0000e+00
       13  1    1    2    0    0 -7.6491259642e+02 +7.7109800816e+02 -4.3537586236e+02 1.1701433929e+03 0.0000000000e+00 0.0000e+00 -1.0000e+00
<mgrwt>
<rscale>  0 0.24290570E+04</rscale>
<asrwt>0</asrwt>
<pdfrwt beam="1">  1        2 0.20460000E+00 0.24290570E+04</pdfrwt>
<pdfrwt beam="2">  1       -2 0.17064088E+00 0.24290570E+04</pdfrwt>
<totfact> 0.35275924E+00</totfact>
</mgrwt>
<rwgt>
<wgt id='morphing_basis_vector_1'> +1.2287540e-04 </wgt>
<wgt id='morphing_basis_vector_2'> +1.2088811e-04 </wgt>
<wgt id='morphing_basis_vector_3'> +1.4011977e-04 </wgt>
<wgt id='morphing_basis_vector_4'> +4.6526444e-05 </wgt>
<wgt id='morphing_basis_vector_5'> +1.2629045e-04 </wgt>
</rwgt>
</event>
<event>
 4      1 +2.2016400e-08 2.27655400e+03 7.81860800e-03 7.96670400e-02
        2 -1    0    0  501    0 +0.0000000000e+00 +0.0000000000e+00 +3.1224572753e+03 3.1224572753e+03 0.0000000000e+00 0.0000e+00 -1.0000e+00
       -2 -1    0    0    0  501 -0.0000000000e+00 -0.0000000000e+00 -4.1495330722e+02 4.1495330722e+02 0.0000000000e+00 0.0000e+00 1.0000e+00
      -13  1    1    2    0    0 -1.0006867568e+03 +2.7858318314e+02 +6.3043536559e+02 1.2150849046e+03 0.0000000000e+00 0.0000e+00 1.0000e+00
       13  1    1    2    0    0 +1.0006867568e+03 -2.7858318314e+02 +2.0770686025e+03 2.3223256780e+03 0.0000000000e+00 0.0000e+00 -1.0000e+00
<mgrwt>
<rscale>  0 0.22765535E+04</rscale>
<asrwt>0</asrwt>
<pdfrwt beam="1">  1        2 0.48037803E+00 0.22765535E+04</pdfrwt>
<pdfrwt beam="2">  1       -2 0.63838972E-01 0.22765535E+04</pdfrwt>
<totfact> 0.36626617E+00</totfact>
</mgrwt>
<rwgt>
<wgt id='morphing_basis_vector_1'> +8.2671368e-05 </wgt>
<wgt id='morphing_basis_vector_2'> +5.6623054e-05 </wgt>
<wgt id='morphing_basis_vector_3'> +8.9224469e-05 </wgt>
<wgt id='morphing_basis_vector_4'> +6.1101113e-05 </wgt>
<wgt id='morphing_basis_vector_5'> +9.9120500e-05 </wgt>
</rwgt>
</event>
<event>
 4      1 +2.2016400e-08 2.46845200e+03 7.81860800e-03 7.90259700e-02
        2 -1    0    0  501    0 +0.0000000000e+00 +0.0000000000e+00 +2.3106696499e+03 2.3106696499e+03 0.0000000000e+00 0.0000e+00 1.0000e+00
       -2 -1    0    0    0  501 -0.0000000000e+00 -0.0000000000e+00 -6.5925236523e+02 6.5925236523e+02 0.0000000000e+00 0.0000e+00 -1.0000e+00
      -13  1    1    2    0    0 -9.3650067677e+02 +5.7220403272e+02 +1.4631316987e+02 1.1071849513e+03 0.0000000000e+00 0.0000e+00 -1.0000e+00
       13  1    1    2    0    0 +9.3650067677e+02 -5.7220403272e+02 +1.5051041147e+03 1.8627370638e+03 0.0000000000e+00 0.0000e+00 1.0000e+00
<mgrwt>
<rscale>  0 0.24684525E+04</rscale>
<asrwt>0</asrwt>
<pdfrwt beam="1">  1        2 0.35548763E+00 0.24684525E+04</pdfrwt>
<pdfrwt beam="2">  1       -2 0.10142344E+00 0.24684525E+04</pdfrwt>
<totfact> 0.40344655E+00</totfact>
</mgrwt>
<rwgt>
<wgt id='morphing_basis_vector_1'> +1.1357300e-04 </wgt>
<wgt id='morphing_basis_vector_2'> +7.7619008e-05 </wgt>
<wgt id='morphing_basis_vector_3'> +1.2304579e-04 </wgt>
<wgt id='morphing_basis_vector_4'> +8.5175471e-05 </wgt>
<wgt id='morphing_basis_vector_5'> +1.3767086e-04 </wgt>
</rwgt>
</event>
<event>
 4      1 +2.2016400e-08 2.54659500e+03 7.81860800e-03 7.87818400e-02
        2 -1    0    0  501    0 +0.0000000000e+00 +0.0000000000e+00 +1.0081085448e+03 1.0081085448e+03 0.0000000000e+00 0.0000e+00 1.0000e+00
       -2 -1    0    0    0  501 -0.0000000000e+00 -0.0000000000e+00 -1.6082459659e+03 1.6082459659e+03 0.0000000000e+00 0.0000e+00 -1.0000e+00
      -13  1    1    2    0    0 -5.9002565520e+02 +1.0385549476e+03 +1.5310355117e+02 1.2042289443e+03 0.0000000000e+00 0.0000e+00 -1.0000e+00
       13  1    1    2    0    0 +5.9002565520e+02 -1.0385549476e+03 -7.5324097223e+02 1.4121255664e+03 0.0000000000e+00 0.0000e+00 1.0000e+00
<mgrwt>
<rscale>  0 0.25465950E+04</rscale>
<asrwt>0</asrwt>
<pdfrwt beam="1">  1        2 0.15509362E+00 0.25465950E+04</pdfrwt>
<pdfrwt beam="2">  1       -2 0.24742245E+00 0.25465950E+04</pdfrwt>
<totfact> 0.15007007E+00</totfact>
</mgrwt>
<rwgt>
<wgt id='morphing_basis_vector_1'> +1.4278345e-04 </wgt>
<wgt id='morphing_basis_vector_2'> +1.3016564e-04 </wgt>
<wgt id='morphing_basis_vector_3'> +1.6131950e-04 </wgt>
<wgt id='morphing_basis_vector_4'> +6.7193486e-05 </wgt>
<wgt id='morphing_basis_vector_5'> +1.5380660e-04 </wgt>
</rwgt>
</event>
<event>
 4      1 +2.2016400e-08 2.53706100e+03 7.81860800e-03 7.88111400e-02
        2 -1    0    0  501    0 +0.0000000000e+00 +0.0000000000e+00 +1.4401224894e+03 1.4401224894e+03 0.0000000000e+00 0.0000e+00 1.0000e+00
       -2 -1    0    0    0  501 -0.0000000000e+00 -0.0000000000e+00 -1.1173838466e+03 1.1173838466e+03 0.0000000000e+00 0.0000e+00 -1.0000e+00
      -13  1    1    2    0    0 +3.1160802027e+02 +8.1744006357e+01 -1.0754607391e+03 1.1226742369e+03 0.0000000000e+00 0.0000e+00 -1.0000e+00
       13  1    1    2    0    0 -3.1160802027e+02 -8.1744006357e+01 +1.3981993819e+03 1.4348320990e+03 0.0000000000e+00 0.0000e+00 1.0000e+00
<mgrwt>
<rscale>  0 0.25370610E+04</rscale>
<asrwt>0</asrwt>
<pdfrwt beam="1">  1        2 0.22155731E+00 0.25370610E+04</pdfrwt>
<pdfrwt beam="2">  1       -2 0.17190521E+00 0.25370610E+04</pdfrwt>
<totfact> 0.29597424E+00</totfact>
</mgrwt>
<rwgt>
<wgt id='morphing_basis_vector_1'> +1.2585799e-04 </wgt>
<wgt id='morphing_basis_vector_2'> +8.4504434e-05 </wgt>
<wgt id='morphing_basis_vector_3'> +1.3622784e-04 </wgt>
<wgt id='morphing_basis_vector_4'> +9.6607898e-05 </wgt>
<wgt id='morphing_basis_vector_5'> +1.5395802e-04 </wgt>
</rwgt>
</event>
<event>
 4      1 +2.2016400e-08 2.63277200e+03 7.81860800e-03 7.85227800e-02
        2 -1    0    0  501    0 +0.0000000000e+00 +0.0000000000e+00 +1.4424588050e+03 1.4424588050e+03 0.0000000000e+00 0.0000e+00 1.0000e+00
       -2 -1    0    0    0  501 -0.0000000000e+00 -0.0000000000e+00 -1.2013323140e+03 1.2013323140e+03 0.0000000000e+00 0.0000e+00 -1.0000e+00
      -13  1    1    2    0    0 +2.4243324525e+02 +8.2692052879e+02 -8.7874034800e+02 1.2307542560e+03 0.0000000000e+00 0.0000e+00 -1.0000e+00
       13  1    1    2    0    0 -2.4243324525e+02 -8.2692052879e+02 +1.1198668390e+03 1.4130368630e+03 0.0000000000e+00 0.0000e+00 1.0000e+00
<mgrwt>
<rscale>  0 0.26327722E+04</rscale>
<asrwt>0</asrwt>
<pdfrwt beam="1">  1        2 0.22191674E+00 0.26327722E+04</pdfrwt>
<pdfrwt beam="2">  1       -2 0.18482036E+00 0.26327722E+04</pdfrwt>
<totfact> 0.23324936E+00</totfact>
</mgrwt>
<rwgt>
<wgt id='morphing_basis_vector_1'> +1.4580135e-04 </wgt>
<wgt id='morphing_basis_vector_2'> +9.8256338e-05 </wgt>
<wgt id='morphing_basis_vector_3'> +1.5812908e-04 </wgt>
<wgt id='morphing_basis_vector_4'> +1.1199327e-04 </wgt>
<wgt id='morphing_basis_vector_5'> +1.7883663e-04 </wgt>
</rwgt>
</event>
<event>
 4      1 +2.2016400e-08 2.56916900e+03 7.81860800e-03 7.87129800e-02
        2 -1    0    0  501    0 +0.0000000000e+00 +0.0000000000e+00 +2.2077675700e+03 2.2077675700e+03 0.0000000000e+00 0.0000e+00 1.0000e+00
       -2 -1    0    0    0  501 -0.0000000000e+00 -0.0000000000e+00 -7.4743277196e+02 7.4743277196e+02 0.0000000000e+00 0.0000e+00 -1.0000e+00
      -13  1    1    2    0    0 -1.3725415689e+02 +1.1124797264e+03 +8.4265207237e+00 1.1209464089e+03 0.0000000000e+00 0.0000e+00 -1.0000e+00
       13  1    1    2    0    0 +1.3725415689e+02 -1.1124797264e+03 +1.4519082774e+03 1.8342539331e+03 0.0000000000e+00 0.0000e+00 1.0000e+00
<mgrwt>
<rscale>  0 0.25691694E+04</rscale>
<asrwt>0</asrwt>
<pdfrwt beam="1">  1        2 0.33965655E+00 0.25691694E+04</pdfrwt>
<pdfrwt beam="2">  1       -2 0.11498966E+00 0.25691694E+04</pdfrwt>
<totfact> 0.33546048E+00</totfact>
</mgrwt>
<rwgt>
<wgt id='morphing_basis_vector_1'> +1.3289447e-04 </wgt>
<wgt id='morphing_basis_vector_2'> +9.0689010e-05 </wgt>
<wgt id='morphing_basis_vector_3'> +1.4420937e-04 </wgt>
<wgt id='morphing_basis_vector_4'> +1.0036603e-04 </wgt>
<wgt id='morphing_basis_vector_5'> +1.6189649e-04 </wgt>
</rwgt>
</event>
<event>
 4      1 +2.2016400e-08 2.63066100e+03 7.81860800e-03 7.85290100e-02
        2 -1    0    0  501    0 +0.0000000000e+00 +0.0000000000e+00 +2.2730456791e+03 2.2730456791e+03 0.0000000000e+00 0.0000e+00 1.0000e+00
       -2 -1    0    0    0  501 -0.0000000000e+00 -0.0000000000e+00 -7.6113482868e+02 7.6113482868e+02 0.0000000000e+00 0.0000e+00 -1.0000e+00
      -13  1    1    2    0    0 -6.8613124681e+02 -1.0830681121e+03 +4.1716146442e+02 1.3482716012e+03 0.0000000000e+00 0.0000e+00 -1.0000e+00
       13  1    1    2    0    0 +6.8613124681e+02 +1.0830681121e+03 +1.0947493860e+03 1.6859089066e+03 0.0000000000e+00 0.0000e+00 1.0000e+00
<mgrwt>
<rscale>  0 0.26306609E+04</rscale>
<asrwt>0</asrwt>
<pdfrwt beam="1">  1        2 0.34969933E+00 0.26306609E+04</pdfrwt>
<pdfrwt beam="2">  1       -2 0.11709767E+00 0.26306609E+04</pdfrwt>
<totfact> 0.29210212E+00</totfact>
</mgrwt>
<rwgt>
<wgt id='morphing_basis_vector_1'> +1.4750834e-04 </wgt>
<wgt id='morphing_basis_vector_2'> +1.0433831e-04 </wgt>
<wgt id='morphing_basis_vector_3'> +1.6095939e-04 </wgt>
<wgt id='morphing_basis_vector_4'> +1.0716404e-04 </wgt>
<wgt id='morphing_basis_vector_5'> +1.7789348e-04 </wgt>
</rwgt>
</event>
</LesHouchesEvents>
